<?xml version="1.0"?> 
<VTKFile type="StructuredGrid" version="0.1"> 
<StructuredGrid WholeExtent="0 128 0 128 0 0"> 
<Piece Extent="0 128 0 128 0 0"> 
<PointData>
<DataArray type="Float32" Name="u" format="ascii" NumberOfComponents="1"> 
0 0 0 0 0 0 0 0 0 0 0 0 0 0 0 0 0 0 0 0 0 0 0 0 0 0 0 0 0 0 0 0 0 0 0 0 0 0 0 0 0 0 0 0 0 0 0 0 0 0 0 0 0 0 0 0 0 0 0 0 0 0 0 0 0 0 0 0 0 0 0 0 0 0 0 0 0 0 0 0 0 0 0 0 0 0 0 0 0 0 0 0 0 0 0 0 0 0 0 0 0 0 0 0 0 0 0 0 0 0 0 0 0 0 0 0 0 0 0 0 0 0 0 0 0 0 0 0 0 0 1.45353e-07 5.81413e-07 1.30818e-06 2.32565e-06 3.63383e-06 5.23272e-06 7.12231e-06 9.30261e-06 1.19428e-05 1.52121e-05 1.91105e-05 2.36381e-05 2.87947e-05 3.45804e-05 4.09953e-05 4.80392e-05 5.55408e-05 6.33284e-05 7.1402e-05 7.97618e-05 8.84076e-05 9.73395e-05 0.000106557 0.000116062 0.000125656 0.000135146 0.00014453 0.000153809 0.000162984 0.000172053 0.000181017 0.000189876 0.000198544 0.000206934 0.000215045 0.000222879 0.000230434 0.000237712 0.000244712 0.000251433 0.000257894 0.000264111 0.000270084 0.000275814 0.000281299 0.000286541 0.00029154 0.000296294 0.000300868 0.000305323 0.000309661 0.00031388 0.000317981 0.000321964 0.000325829 0.000329576 0.000333236 0.00033684 0.000340389 0.000343882 0.00034732 0.000350702 0.000354028 0.000357299 0.000360464 0.000363474 0.00036633 0.00036903 0.000371575 0.000373964 0.000376199 0.000378278 0.000380086 0.000381504 0.000382532 0.000383171 0.000383421 0.000383282 0.000382753 0.000381835 0.000380416 0.000378386 0.000375743 0.000372489 0.000368623 0.000364145 0.000359056 0.000353354 0.000347027 0.000340059 0.000332451 0.000324202 0.000315313 0.000305783 0.000295613 0.000284802 0.000273495 0.000261834 0.000249819 0.000237452 0.000224731 0.000211656 0.000198228 0.000184447 0.000170625 0.000157074 0.000143796 0.000130789 0.000118054 0.000105591 9.33996e-05 8.14799e-05 7.01644e-05 5.97851e-05 5.03422e-05 4.18356e-05 3.42653e-05 2.76314e-05 2.19338e-05 1.71725e-05 1.31477e-05 9.65953e-06 6.708e-06 4.29312e-06 2.41488e-06 1.07328e-06 2.6832e-07 0 0 5.81413e-07 2.32565e-06 5.23272e-06 9.30261e-06 1.45353e-05 2.09309e-05 2.84892e-05 3.72104e-05 4.77713e-05 6.08485e-05 7.64422e-05 9.45523e-05 0.000115179 0.000138322 0.000163981 0.000192157 0.000222163 0.000253313 0.000285608 0.000319047 0.00035363 0.000389358 0.00042623 0.000464246 0.000502624 0.000540582 0.00057812 0.000615237 0.000651935 0.000688212 0.000724069 0.000759505 0.000794176 0.000827734 0.000860181 0.000891515 0.000921738 0.000950848 0.000978846 0.00100573 0.00103158 0.00105644 0.00108034 0.00110325 0.0011252 0.00114617 0.00116616 0.00118518 0.00120347 0.00122129 0.00123864 0.00125552 0.00127193 0.00128786 0.00130332 0.0013183 0.00133294 0.00134736 0.00136156 0.00137553 0.00138928 0.00140281 0.00141611 0.0014292 0.00144186 0.0014539 0.00146532 0.00147612 0.0014863 0.00149586 0.0015048 0.00151311 0.00152034 0.00152601 0.00153013 0.00153269 0.00153369 0.00153313 0.00153101 0.00152734 0.00152166 0.00151354 0.00150297 0.00148996 0.00147449 0.00145658 0.00143622 0.00141342 0.00138811 0.00136024 0.0013298 0.00129681 0.00126125 0.00122313 0.00118245 0.00113921 0.00109398 0.00104733 0.000999278 0.000949807 0.000898922 0.000846624 0.000792913 0.000737788 0.000682499 0.000628298 0.000575184 0.000523157 0.000472217 0.000422364 0.000373598 0.00032592 0.000280657 0.00023914 0.000201369 0.000167342 0.000137061 0.000110526 8.77351e-05 6.869e-05 5.25908e-05 3.86381e-05 2.6832e-05 1.71725e-05 9.65953e-06 4.29312e-06 1.07328e-06 0 0 1.30818e-06 5.23272e-06 1.17736e-05 2.09309e-05 3.27045e-05 4.70945e-05 6.41008e-05 8.37235e-05 0.000107485 0.000136909 0.000171995 0.000212743 0.000259152 0.000311224 0.000368957 0.000432353 0.000499867 0.000569955 0.000642618 0.000717856 0.000795669 0.000876056 0.000959017 0.00104455 0.0011309 0.00121631 0.00130077 0.00138428 0.00146685 0.00154848 0.00162915 0.00170889 0.0017869 0.0018624 0.00193541 0.00200591 0.00207391 0.00213941 0.0022024 0.0022629 0.00232104 0.002377 0.00243076 0.00248232 0.00253169 0.00257887 0.00262386 0.00266665 0.00270781 0.00274791 0.00278695 0.00282492 0.00286183 0.00289768 0.00293246 0.00296619 0.00299912 0.00303156 0.0030635 0.00309494 0.00312588 0.00315632 0.00318625 0.00321569 0.00324418 0.00327127 0.00329697 0.00332127 0.00334417 0.00336568 0.00338579 0.00340451 0.00342077 0.00343353 0.00344279 0.00344854 0.00345079 0.00344954 0.00344478 0.00343651 0.00342375 0.00340547 0.00338169 0.0033524 0.00331761 0.00327731 0.0032315 0.00318019 0.00312324 0.00306053 0.00299206 0.00291782 0.00283781 0.00275205 0.00266051 0.00256322 0.00246145 0.0023565 0.00224837 0.00213707 0.00202258 0.0019049 0.00178405 0.00166002 0.00153562 0.00141367 0.00129416 0.0011771 0.00106249 0.000950319 0.000840596 0.00073332 0.000631479 0.000538066 0.00045308 0.00037652 0.000308388 0.000248683 0.000197404 0.000154552 0.000118329 8.69357e-05 6.0372e-05 3.86381e-05 2.17339e-05 9.65953e-06 2.41488e-06 0 0 2.32565e-06 9.30261e-06 2.09309e-05 3.72104e-05 5.81413e-05 8.37235e-05 0.000113957 0.000148842 0.000191085 0.000243394 0.000305769 0.000378209 0.000460715 0.000553287 0.000655924 0.000768628 0.000888652 0.00101325 0.00114243 0.00127619 0.00141452 0.00155743 0.00170492 0.00185698 0.0020105 0.00216233 0.00231248 0.00246095 0.00260774 0.00275285 0.00289627 0.00303802 0.0031767 0.00331094 0.00344072 0.00356606 0.00368695 0.00380339 0.00391539 0.00402293 0.0041263 0.00422577 0.00432135 0.00441302 0.00450079 0.00458466 0.00466464 0.00474071 0.00481389 0.00488518 0.00495457 0.00502208 0.0050877 0.00515143 0.00521327 0.00527322 0.00533178 0.00538945 0.00544623 0.00550212 0.00555712 0.00561123 0.00566445 0.00571678 0.00576743 0.00581559 0.00586127 0.00590447 0.00594519 0.00598343 0.00601918 0.00605245 0.00608137 0.00610406 0.00612052 0.00613074 0.00613474 0.00613251 0.00612405 0.00610936 0.00608666 0.00605417 0.00601189 0.00595983 0.00589797 0.00582633 0.00574489 0.00565367 0.00555243 0.00544094 0.00531921 0.00518723 0.005045 0.00489253 0.0047298 0.00455683 0.00437591 0.00418934 0.00399711 0.00379923 0.00359569 0.0033865 0.00317165 0.00295115 0.00273 0.00251319 0.00230073 0.00209263 0.00188887 0.00168946 0.00149439 0.00130368 0.00112263 0.000956562 0.000805475 0.00066937 0.000548245 0.000442102 0.00035094 0.00027476 0.000210363 0.000154552 0.000107328 6.869e-05 3.86381e-05 1.71725e-05 4.29312e-06 0 0 3.63383e-06 1.45353e-05 3.27045e-05 5.81413e-05 9.08458e-05 0.000130818 0.000178058 0.000232565 0.00029857 0.000380303 0.000477764 0.000590952 0.000719867 0.000864511 0.00102488 0.00120098 0.00138852 0.00158321 0.00178505 0.00199404 0.00221019 0.00243349 0.00266394 0.00290154 0.0031414 0.00337864 0.00361325 0.00384523 0.00407459 0.00430132 0.00452543 0.00474691 0.0049636 0.00517334 0.00537613 0.00557197 0.00576086 0.0059428 0.00611779 0.00628583 0.00644735 0.00660277 0.0067521 0.00689534 0.00703248 0.00716354 0.00728849 0.00740736 0.0075217 0.00763309 0.00774152 0.007847 0.00794953 0.00804911 0.00814573 0.0082394 0.0083309 0.00842101 0.00850973 0.00859706 0.008683 0.00876755 0.0088507 0.00893247 0.00901161 0.00908686 0.00915824 0.00922574 0.00928936 0.00934911 0.00940497 0.00945696 0.00950214 0.00953759 0.00956331 0.00957929 0.00958553 0.00958205 0.00956883 0.00954587 0.0095104 0.00945964 0.00939358 0.00931223 0.00921558 0.00910364 0.0089764 0.00883386 0.00867567 0.00850148 0.00831127 0.00810505 0.00788281 0.00764457 0.00739032 0.00712005 0.00683737 0.00654584 0.00624548 0.00593629 0.00561826 0.0052914 0.0049557 0.00461117 0.00426562 0.00392686 0.0035949 0.00326973 0.00295135 0.00263977 0.00233499 0.002037 0.00175411 0.00149463 0.00125855 0.00104589 0.000856633 0.000690785 0.000548344 0.000429312 0.000328692 0.000241488 0.0001677 0.000107328 6.0372e-05 2.6832e-05 6.708e-06 0 0 5.23272e-06 2.09309e-05 4.70945e-05 8.37235e-05 0.000130818 0.000188378 0.000256403 0.000334894 0.000429941 0.000547637 0.00068798 0.000850971 0.00103661 0.0012449 0.00147583 0.00172941 0.00199947 0.00227982 0.00257047 0.00287142 0.00318267 0.00350422 0.00383607 0.00417821 0.00452362 0.00486524 0.00520308 0.00553714 0.00586741 0.00619391 0.00651662 0.00683555 0.00714758 0.00744961 0.00774163 0.00802364 0.00829564 0.00855763 0.00880962 0.00905159 0.00928418 0.00950799 0.00972303 0.00992929 0.0101268 0.0103155 0.0104954 0.0106666 0.0108312 0.0109916 0.0111478 0.0112997 0.0114473 0.0115907 0.0117299 0.0118647 0.0119965 0.0121263 0.012254 0.0123798 0.0125035 0.0126253 0.012745 0.0128628 0.0129767 0.0130851 0.0131879 0.0132851 0.0133767 0.0134627 0.0135432 0.013618 0.0136831 0.0137341 0.0137712 0.0137942 0.0138032 0.0137981 0.0137791 0.0137461 0.013695 0.0136219 0.0135268 0.0134096 0.0132704 0.0131092 0.012926 0.0127208 0.012493 0.0122421 0.0119682 0.0116713 0.0113513 0.0110082 0.0106421 0.0102529 0.00984581 0.00942601 0.0089935 0.00854826 0.0080903 0.00761962 0.00713622 0.00664009 0.00614249 0.00565468 0.00517665 0.00470841 0.00424995 0.00380128 0.00336238 0.00293328 0.00252592 0.00215226 0.00181232 0.00150608 0.00123355 0.00099473 0.000789616 0.00061821 0.000473317 0.000347743 0.000241488 0.000154552 8.69357e-05 3.86381e-05 9.65953e-06 0 0 7.12231e-06 2.84892e-05 6.41008e-05 0.000113957 0.000178058 0.000256403 0.000348993 0.000455828 0.000585198 0.000745394 0.000936417 0.00115827 0.00141094 0.00169444 0.00200877 0.00235392 0.0027215 0.00310309 0.0034987 0.00390833 0.00433197 0.00476964 0.00522132 0.00568701 0.00615715 0.00662213 0.00708197 0.00753666 0.0079862 0.00843059 0.00886984 0.00930394 0.00972865 0.0101397 0.0105372 0.0109211 0.0112913 0.0116479 0.0119909 0.0123202 0.0126368 0.0129414 0.0132341 0.0135149 0.0137837 0.0140405 0.0142854 0.0145184 0.0147425 0.0149608 0.0151734 0.0153801 0.0155811 0.0157763 0.0159656 0.0161492 0.0163286 0.0165052 0.0166791 0.0168502 0.0170187 0.0171844 0.0173474 0.0175076 0.0176627 0.0178103 0.0179502 0.0180825 0.0182072 0.0183242 0.0184337 0.0185356 0.0186242 0.0186937 0.0187441 0.0187754 0.0187876 0.0187808 0.0187549 0.0187099 0.0186404 0.0185409 0.0184114 0.018252 0.0180625 0.0178431 0.0175937 0.0173144 0.0170043 0.0166629 0.0162901 0.0158859 0.0154503 0.0149834 0.014485 0.0139553 0.0134012 0.0128299 0.0122412 0.0116351 0.0110118 0.0103711 0.00971318 0.0090379 0.00836061 0.00769665 0.007046 0.00640867 0.00578466 0.00517396 0.00457658 0.00399252 0.00343805 0.00292947 0.00246677 0.00204994 0.001679 0.00135394 0.00107476 0.000841452 0.000644237 0.000473317 0.000328692 0.000210363 0.000118329 5.25908e-05 1.31477e-05 0 0 9.30261e-06 3.72104e-05 8.37235e-05 0.000148842 0.000232565 0.000334894 0.000455828 0.000595367 0.00076434 0.000973576 0.00122308 0.00151284 0.00184286 0.00221315 0.0026237 0.00307451 0.00355461 0.00405302 0.00456973 0.00510475 0.00565809 0.00622973 0.00681968 0.00742794 0.00804199 0.00864931 0.00924992 0.0098438 0.010431 0.0110114 0.0115851 0.0121521 0.0127068 0.0132437 0.0137629 0.0142642 0.0147478 0.0152136 0.0156615 0.0160917 0.0165052 0.0169031 0.0172854 0.0176521 0.0180032 0.0183387 0.0186585 0.0189628 0.0192555 0.0195407 0.0198183 0.0200883 0.0203508 0.0206057 0.0208531 0.0210929 0.0213271 0.0215578 0.0217849 0.0220085 0.0222285 0.0224449 0.0226578 0.0228671 0.0230697 0.0232624 0.0234451 0.0236179 0.0237808 0.0239337 0.0240767 0.0242098 0.0243255 0.0244162 0.0244821 0.024523 0.024539 0.02453 0.0244962 0.0244374 0.0243466 0.0242167 0.0240476 0.0238393 0.0235919 0.0233053 0.0229796 0.0226147 0.0222097 0.0217638 0.0212768 0.0207489 0.02018 0.0195701 0.0189192 0.0182273 0.0175037 0.0167574 0.0159884 0.0151969 0.0143828 0.013546 0.0126866 0.0118046 0.01092 0.0100528 0.00920294 0.00837051 0.00755547 0.00675782 0.00597757 0.00521472 0.00449052 0.00382625 0.0032219 0.00267748 0.00219298 0.00176841 0.00140376 0.00109904 0.000841452 0.00061821 0.000429312 0.00027476 0.000154552 6.869e-05 1.71725e-05 0 0 1.1971e-05 4.7884e-05 0.000107739 0.000191536 0.000299275 0.000430956 0.000586579 0.000766144 0.00098323 0.00125142 0.0015707 0.00194108 0.00236257 0.00283515 0.00335883 0.00393361 0.00454552 0.00518061 0.00583886 0.00652029 0.00722488 0.00795264 0.00870358 0.00947768 0.0102591 0.011032 0.0117964 0.0125523 0.0132997 0.0140385 0.0147688 0.0154906 0.0161969 0.0168805 0.0175416 0.01818 0.0187959 0.0193892 0.0199598 0.0205079 0.0210347 0.0215416 0.0220287 0.0224958 0.022943 0.0233704 0.0237778 0.0241654 0.0245381 0.0249011 0.0252543 0.0255978 0.0259315 0.0262554 0.0265696 0.026874 0.0271712 0.0274637 0.0277514 0.0280345 0.0283129 0.0285866 0.0288555 0.0291198 0.0293753 0.0296181 0.0298482 0.0300656 0.0302702 0.030462 0.0306411 0.0308075 0.0309517 0.0310642 0.0311451 0.0311943 0.0312119 0.0311978 0.031152 0.0310745 0.0309565 0.0307888 0.0305715 0.0303046 0.0299881 0.0296219 0.0292062 0.0287408 0.0282247 0.0276568 0.027037 0.0263653 0.0256418 0.0248664 0.0240391 0.02316 0.0222407 0.0212928 0.0203163 0.0193112 0.0182776 0.0172155 0.0161247 0.0150054 0.0138828 0.0127821 0.0117035 0.0106468 0.00961206 0.00859932 0.00760856 0.00663977 0.00571989 0.00487585 0.00410766 0.0034153 0.00279879 0.00225811 0.00179328 0.00140429 0.00107516 0.000789911 0.000548549 0.000351072 0.000197478 8.77679e-05 2.1942e-05 0 0 1.53249e-05 6.12995e-05 0.000137924 0.000245198 0.000383122 0.000551696 0.000750919 0.000980793 0.00125773 0.00159814 0.00200203 0.0024694 0.00300025 0.00359457 0.00425237 0.00497365 0.00574096 0.00653688 0.00736139 0.00821451 0.00909622 0.0100065 0.0109454 0.011913 0.0128895 0.0138555 0.014811 0.0157559 0.0166903 0.0176141 0.0185274 0.0194302 0.0203137 0.021169 0.0219962 0.0227953 0.0235663 0.0243091 0.0250239 0.0257105 0.0263706 0.0270057 0.0276158 0.0282009 0.0287611 0.0292963 0.0298065 0.0302917 0.0307582 0.031212 0.0316533 0.032082 0.0324981 0.0329016 0.0332926 0.0336709 0.0340398 0.0344024 0.0347585 0.0351084 0.0354519 0.035789 0.0361198 0.0364442 0.0367573 0.0370543 0.037335 0.0375996 0.0378479 0.0380801 0.038296 0.0384957 0.0386676 0.0388001 0.0388932 0.0389469 0.0389611 0.0389359 0.0388712 0.0387672 0.0386127 0.0383968 0.0381195 0.0377808 0.0373807 0.0369192 0.0363963 0.0358119 0.0351649 0.0344539 0.0336789 0.03284 0.031937 0.0309701 0.0299392 0.0288443 0.0276999 0.0265203 0.0253056 0.0240558 0.0227709 0.0214509 0.0200957 0.0187054 0.0173111 0.0159438 0.0146036 0.0132903 0.0120041 0.0107449 0.00951272 0.00830757 0.00716275 0.00611155 0.00515397 0.00429003 0.00351971 0.00284302 0.00225995 0.00177051 0.00135555 0.000995911 0.000691605 0.000442627 0.000248978 0.000110657 2.76642e-05 0 0 1.93643e-05 7.7457e-05 0.000174278 0.000309828 0.000484106 0.000697113 0.000948848 0.00123931 0.00158784 0.00201376 0.00251708 0.0030978 0.00375591 0.00449142 0.00530433 0.00619463 0.00714093 0.00812183 0.00913732 0.0101874 0.0112721 0.0123914 0.0135453 0.0147337 0.0159331 0.0171197 0.0182935 0.0194546 0.0206028 0.0217383 0.022861 0.0239708 0.0250572 0.0261091 0.0271268 0.02811 0.029059 0.0299735 0.0308537 0.0316996 0.0325129 0.0332953 0.0340468 0.0347675 0.0354573 0.0361163 0.0367445 0.0373417 0.0379156 0.0384734 0.0390152 0.0395409 0.0400506 0.0405443 0.041022 0.0414837 0.041933 0.0423739 0.0428063 0.0432301 0.0436454 0.0440522 0.0444506 0.0448404 0.0452157 0.0455708 0.0459055 0.04622 0.0465141 0.0467878 0.0470413 0.0472744 0.0474733 0.0476239 0.0477264 0.0477806 0.0477866 0.0477444 0.0476539 0.0475153 0.0473152 0.0470407 0.0466916 0.0462679 0.0457698 0.0451971 0.0445498 0.043828 0.0430303 0.0421552 0.0412028 0.040173 0.0390658 0.0378813 0.0366195 0.0352802 0.0338812 0.0324399 0.0309564 0.0294306 0.0278625 0.0262522 0.0245996 0.0229048 0.021205 0.0195379 0.0179032 0.0163011 0.0147316 0.0131946 0.0116901 0.0102181 0.00881908 0.00753333 0.00636085 0.00530166 0.00435575 0.00352312 0.00280377 0.0021977 0.00168262 0.00123621 0.000858478 0.000549426 0.000309052 0.000137357 3.43391e-05 0 0 2.40891e-05 9.63564e-05 0.000216802 0.000385426 0.000602227 0.000867208 0.00118037 0.0015417 0.00197356 0.00249827 0.00311584 0.00382627 0.00462955 0.0055257 0.0065147 0.00759656 0.00874543 0.00993546 0.0111667 0.012439 0.0137525 0.0151072 0.0165031 0.0179401 0.01939 0.0208247 0.0222442 0.0236483 0.0250373 0.0264109 0.0277694 0.0291125 0.0304274 0.031701 0.0329333 0.0341242 0.0352739 0.0363823 0.0374494 0.0384751 0.0394615 0.0404104 0.0413217 0.0421955 0.0430318 0.0438305 0.0445918 0.0453155 0.0460104 0.0466852 0.04734 0.0479746 0.0485891 0.0491836 0.0497579 0.0503122 0.0508508 0.0513783 0.0518945 0.0523996 0.0528936 0.0533763 0.0538479 0.0543083 0.0547505 0.0551677 0.0555598 0.0559267 0.0562686 0.0565854 0.056877 0.0571436 0.0573687 0.0575356 0.0576446 0.0576955 0.0576884 0.0576233 0.0575001 0.0573189 0.0570642 0.0567205 0.0562877 0.055766 0.0551553 0.0544555 0.0536668 0.052789 0.0518208 0.0507606 0.0496084 0.0483643 0.0470281 0.0456 0.0440799 0.0424678 0.0407848 0.0390517 0.0372687 0.0354356 0.0335525 0.0316195 0.0296364 0.0276033 0.0255645 0.0235643 0.0216025 0.0196792 0.0177945 0.0159483 0.0141406 0.0123714 0.0106889 0.0091412 0.00772829 0.0064502 0.00530691 0.00429842 0.00342475 0.00268587 0.00205637 0.0015108 0.00104917 0.000671469 0.000377701 0.000167867 4.19668e-05 0 0 2.94994e-05 0.000117998 0.000265495 0.000471991 0.000737486 0.00106198 0.00144547 0.00188796 0.00241488 0.00305167 0.00379831 0.00465481 0.00562117 0.0066974 0.00788348 0.00917942 0.0105544 0.0119778 0.0134494 0.0149693 0.0165375 0.018154 0.0198188 0.0215319 0.0232602 0.0249705 0.0266628 0.0283372 0.0299937 0.0316321 0.0332527 0.0348552 0.0364243 0.0379445 0.0394157 0.0408379 0.0422112 0.0435355 0.0448108 0.0460372 0.0472166 0.048351 0.0494404 0.0504849 0.0514844 0.0524389 0.0533484 0.054213 0.0550427 0.0558476 0.0566277 0.057383 0.0581136 0.0588194 0.0595003 0.0601566 0.0607932 0.0614155 0.0620234 0.062617 0.0631963 0.0637612 0.0643117 0.0648479 0.0653617 0.0658449 0.0662977 0.0667198 0.0671115 0.0674726 0.0678033 0.0681033 0.0683537 0.0685352 0.0686479 0.0686917 0.0686666 0.0685726 0.0684097 0.068178 0.0678595 0.0674361 0.0669079 0.066275 0.0655372 0.0646946 0.0637472 0.062695 0.0615365 0.0602701 0.0588959 0.0574139 0.0558239 0.0541262 0.0523206 0.0504071 0.0484105 0.0463556 0.0442424 0.0420708 0.0398409 0.0375527 0.0352061 0.0328012 0.0303896 0.028023 0.0257013 0.0234246 0.0211929 0.0190061 0.0168643 0.0147675 0.0127722 0.0109352 0.0092563 0.00773564 0.00637318 0.00516893 0.00412287 0.00323502 0.00247681 0.0018197 0.00126368 0.000808755 0.000454925 0.000202189 5.05472e-05 0 0 3.55952e-05 0.000142381 0.000320357 0.000569524 0.000889881 0.00128143 0.00174417 0.0022781 0.00291182 0.00367395 0.00456449 0.00558343 0.00673077 0.00800652 0.00941067 0.0109432 0.012568 0.0142487 0.0159855 0.0177783 0.019627 0.0215318 0.0234925 0.0255093 0.0275436 0.029557 0.0315495 0.0335212 0.035472 0.0374019 0.0393109 0.041199 0.043048 0.0448397 0.046574 0.048251 0.0498707 0.051433 0.052938 0.0543856 0.055778 0.0571171 0.058403 0.0596357 0.0608152 0.0619414 0.0630144 0.0640342 0.0650123 0.0659604 0.0668783 0.0677662 0.068624 0.0694516 0.0702492 0.0710167 0.0717601 0.0724855 0.0731929 0.0738823 0.0745536 0.0752069 0.0758421 0.0764594 0.0770493 0.0776026 0.0781192 0.0785993 0.0790428 0.0794497 0.0798199 0.0801535 0.0804285 0.0806227 0.0807362 0.080769 0.080721 0.0805923 0.0803828 0.0800926 0.0797011 0.0791877 0.0785522 0.0777949 0.0769156 0.0759143 0.0747911 0.073546 0.0721774 0.0706838 0.0690653 0.0673218 0.0654533 0.0634598 0.0613414 0.059098 0.0567585 0.0543517 0.0518776 0.0493363 0.0467277 0.0440518 0.0413087 0.0384983 0.0356802 0.032914 0.0301997 0.0275373 0.0249267 0.022368 0.0198612 0.0174063 0.015069 0.0129152 0.0109449 0.00915799 0.00755458 0.00613464 0.00489816 0.00384514 0.00294393 0.00216289 0.00150201 0.000961285 0.000540723 0.000240321 6.00803e-05 0 0 4.23766e-05 0.000169506 0.000381389 0.000678025 0.00105941 0.00152556 0.00207645 0.0027121 0.00346437 0.00436513 0.00541438 0.00661212 0.00795835 0.00945307 0.0110963 0.012888 0.0147861 0.0167484 0.018775 0.0208659 0.0230211 0.0252405 0.0275242 0.0298721 0.0322402 0.0345843 0.0369043 0.0392002 0.0414722 0.0437201 0.045944 0.0481438 0.0502984 0.0523866 0.0544083 0.0563636 0.0582525 0.060075 0.061831 0.0635206 0.0651458 0.0667088 0.0682095 0.069648 0.0710241 0.0723381 0.0735898 0.0747792 0.0759194 0.0770237 0.0780919 0.0791241 0.0801203 0.0810804 0.0820046 0.0828927 0.0837517 0.0845884 0.085403 0.0861953 0.0869654 0.0877134 0.088439 0.0891425 0.0898132 0.0904406 0.0910245 0.0915652 0.0920625 0.0925164 0.092927 0.0932942 0.093593 0.0937981 0.0939096 0.0939275 0.0938518 0.0936824 0.0934194 0.0930628 0.0925891 0.0919751 0.0912206 0.0903257 0.0892904 0.0881146 0.0867985 0.0853419 0.0837434 0.0820016 0.0801165 0.078088 0.0759161 0.0736009 0.0711424 0.0685405 0.0658286 0.0630398 0.0601743 0.057232 0.0542128 0.0511169 0.0479442 0.0446947 0.0414365 0.0382374 0.0350977 0.0320172 0.028996 0.026034 0.0231313 0.0202878 0.0175793 0.0150813 0.012794 0.0107172 0.00885109 0.00719554 0.00575059 0.00451623 0.00345774 0.00254038 0.00176415 0.00112906 0.000635095 0.000282265 7.05661e-05 0 0 4.98433e-05 0.000199373 0.00044859 0.000797493 0.00124608 0.00179436 0.00244232 0.00318997 0.00407253 0.0051252 0.00634798 0.00774089 0.00930391 0.011037 0.0129403 0.0150137 0.0172087 0.0194768 0.021818 0.0242323 0.0267197 0.0292802 0.0319138 0.0346205 0.0373501 0.0400523 0.042727 0.0453744 0.0479943 0.0505868 0.053152 0.0556897 0.0581755 0.0605852 0.0629186 0.0651757 0.0673566 0.0694613 0.0714898 0.073442 0.07532 0.077126 0.0788598 0.0805216 0.0821113 0.0836289 0.0850744 0.0864478 0.0877639 0.0890375 0.0902684 0.0914568 0.0926025 0.0937058 0.0947664 0.0957844 0.0967678 0.0977242 0.0986536 0.0995562 0.100432 0.101281 0.102103 0.102897 0.103654 0.104359 0.105014 0.105617 0.106171 0.106673 0.107125 0.107525 0.107847 0.108061 0.108168 0.108167 0.108059 0.107843 0.107519 0.107088 0.106524 0.105798 0.104913 0.103867 0.102662 0.101296 0.0997693 0.0980828 0.0962346 0.0942236 0.0920495 0.0897125 0.0872125 0.0845495 0.0817236 0.0787347 0.0756209 0.0724201 0.0691324 0.0657579 0.0622964 0.058748 0.0551126 0.0513904 0.0476582 0.0439932 0.0403952 0.0368644 0.0334007 0.030004 0.0266745 0.0234121 0.020303 0.0174335 0.0148037 0.0124134 0.0102627 0.00835165 0.00668018 0.0052483 0.00401823 0.00295217 0.00205012 0.00131208 0.000738042 0.000328019 8.20047e-05 0 0 5.78921e-05 0.000231568 0.000521029 0.000926273 0.0014473 0.00208412 0.00283671 0.00370509 0.00472787 0.00594364 0.00735242 0.0089542 0.010749 0.0127368 0.0149175 0.0172913 0.0198028 0.0223966 0.0250727 0.0278311 0.0306719 0.033595 0.0366004 0.0396882 0.0428016 0.045884 0.0489354 0.0519558 0.0549451 0.0579035 0.0608308 0.0637272 0.0665647 0.0693155 0.0719797 0.0745572 0.077048 0.0794522 0.0817697 0.0840006 0.0861467 0.0882102 0.0901911 0.0920893 0.0939048 0.0956377 0.0972879 0.0988554 0.100357 0.101808 0.10321 0.104562 0.105864 0.107116 0.108319 0.109472 0.110584 0.111663 0.112711 0.113726 0.114709 0.11566 0.116579 0.117466 0.118307 0.11909 0.119814 0.120479 0.121086 0.121633 0.122123 0.122553 0.122893 0.123111 0.123207 0.123181 0.123033 0.122762 0.12237 0.121855 0.121189 0.120342 0.119315 0.118106 0.116717 0.115147 0.113397 0.111465 0.109352 0.107055 0.104575 0.101912 0.0990657 0.0960362 0.0928235 0.0894276 0.0858914 0.0822579 0.0785272 0.0746992 0.0707739 0.0667514 0.0626315 0.0584144 0.0541863 0.0500334 0.0459558 0.0419535 0.0380264 0.0341745 0.030398 0.0266966 0.0231678 0.0199089 0.0169197 0.0142003 0.0117508 0.00957102 0.00766107 0.00602094 0.00460978 0.00338678 0.00235193 0.00150523 0.000846694 0.000376308 9.40771e-05 0 0 6.64193e-05 0.000265677 0.000597773 0.00106271 0.00166048 0.00239109 0.00325454 0.00425083 0.00542197 0.00680997 0.00841482 0.0102365 0.0122751 0.0145305 0.0170028 0.019692 0.0225354 0.0254706 0.0284976 0.0316163 0.0348268 0.038129 0.041523 0.0450087 0.0485229 0.0520022 0.0554468 0.0588565 0.0622314 0.0655714 0.0688766 0.0721471 0.0753512 0.0784578 0.0814667 0.084378 0.0871917 0.0899078 0.0925262 0.095047 0.0974721 0.0998032 0.10204 0.104184 0.106233 0.108188 0.11005 0.111817 0.113509 0.115143 0.116719 0.118238 0.119698 0.121101 0.122447 0.123734 0.124974 0.126176 0.12734 0.128466 0.129554 0.130604 0.131616 0.13259 0.133511 0.134365 0.135153 0.135873 0.136526 0.137112 0.137631 0.138083 0.138434 0.138647 0.138723 0.138662 0.138464 0.138129 0.137658 0.137049 0.136271 0.135292 0.134111 0.132729 0.131145 0.12936 0.127374 0.125186 0.122795 0.120201 0.117404 0.114403 0.111199 0.107792 0.104181 0.100366 0.0963961 0.0923187 0.0881337 0.0838412 0.0794411 0.0749336 0.0703185 0.0655959 0.0608613 0.0562103 0.0516428 0.0471589 0.0427586 0.0384418 0.0342086 0.0300589 0.0261013 0.0224443 0.0190878 0.0160319 0.0132765 0.0108217 0.00866744 0.00681373 0.00521676 0.00383272 0.00266161 0.00170343 0.00095818 0.000425858 0.000106464 0 0 7.54249e-05 0.0003017 0.000678824 0.0012068 0.00188562 0.0027153 0.00369582 0.00482719 0.00615484 0.00772417 0.00953518 0.0115879 0.0138823 0.0164184 0.0191961 0.0222156 0.0254066 0.0286989 0.0320927 0.0355878 0.0391843 0.0428822 0.0466815 0.0505821 0.054514 0.058407 0.0622612 0.0660765 0.069853 0.0735906 0.0772893 0.0809492 0.0845351 0.0880119 0.0913796 0.0946382 0.0977877 0.100828 0.103759 0.106581 0.109296 0.111905 0.114408 0.116805 0.119095 0.121281 0.12336 0.125333 0.12722 0.129041 0.130795 0.132483 0.134105 0.135661 0.13715 0.138573 0.13994 0.141263 0.142542 0.143776 0.144966 0.146111 0.147212 0.148269 0.149265 0.150186 0.151031 0.151799 0.152492 0.15311 0.153651 0.154116 0.154468 0.154667 0.154715 0.15461 0.154353 0.153944 0.153383 0.15267 0.15177 0.150647 0.149302 0.147735 0.145946 0.143935 0.141701 0.139245 0.136566 0.133663 0.130536 0.127187 0.123613 0.119816 0.115795 0.11155 0.107135 0.102602 0.0979519 0.0931838 0.088298 0.0832946 0.0781735 0.0729348 0.0676832 0.0625237 0.0574562 0.0524807 0.0475973 0.0428058 0.0381064 0.033499 0.0291035 0.0250398 0.021308 0.0179081 0.01484 0.0121037 0.00969927 0.00762668 0.00583918 0.00429001 0.00297917 0.00190667 0.0010725 0.000476667 0.000119167 0 0 8.4909e-05 0.000339636 0.000764181 0.00135854 0.00212272 0.00305672 0.00416054 0.00543417 0.00692646 0.00868624 0.0107135 0.0130083 0.0155705 0.0184002 0.0214975 0.0248622 0.0284163 0.0320815 0.035858 0.0397457 0.0437445 0.0478546 0.0520759 0.0564084 0.0607749 0.0650984 0.0693787 0.0736159 0.07781 0.0819611 0.086069 0.0901338 0.0941164 0.097978 0.101718 0.105338 0.108836 0.112213 0.115469 0.118604 0.121619 0.124515 0.127293 0.129952 0.132493 0.134915 0.137218 0.139403 0.141491 0.143503 0.145439 0.1473 0.149085 0.150794 0.152428 0.153986 0.155481 0.156924 0.158315 0.159656 0.160945 0.162182 0.163368 0.164503 0.165569 0.166551 0.167447 0.168258 0.168984 0.169625 0.170181 0.170652 0.170996 0.171173 0.171183 0.171025 0.170699 0.170206 0.169546 0.168718 0.167685 0.166408 0.164888 0.163125 0.161119 0.15887 0.156377 0.153642 0.150662 0.147439 0.143972 0.140261 0.136307 0.132108 0.127666 0.12298 0.118108 0.113109 0.107982 0.102727 0.0973445 0.0918344 0.0861966 0.0804311 0.0746522 0.0689738 0.0633961 0.057919 0.0525425 0.0472666 0.0420914 0.0370168 0.0321743 0.0276955 0.0235804 0.0198289 0.0164411 0.013417 0.0107566 0.00845979 0.00647702 0.00475863 0.0033046 0.00211495 0.00118966 0.000528737 0.000132184 0 0 9.48715e-05 0.000379486 0.000853843 0.00151794 0.00237179 0.00341537 0.0046487 0.00607177 0.00773685 0.00969619 0.0119498 0.0144977 0.0173398 0.0204762 0.0239069 0.0276318 0.0315644 0.0356184 0.0397935 0.0440899 0.0485074 0.0530463 0.0577063 0.0624876 0.0673057 0.0720763 0.0767993 0.0814747 0.0861025 0.0906828 0.0952155 0.0997006 0.104095 0.108356 0.112483 0.116477 0.120336 0.124063 0.127655 0.131114 0.13444 0.137634 0.140696 0.143626 0.146424 0.14909 0.151625 0.154027 0.15632 0.158528 0.16065 0.162686 0.164637 0.166502 0.168281 0.169975 0.171596 0.173158 0.174661 0.176106 0.177491 0.178817 0.180084 0.181293 0.182424 0.183461 0.184402 0.185249 0.186002 0.186659 0.187222 0.18769 0.188019 0.188165 0.188127 0.187907 0.187503 0.186916 0.186146 0.185193 0.184016 0.182574 0.180869 0.178899 0.176665 0.174166 0.171404 0.168377 0.165086 0.16153 0.157711 0.153628 0.149281 0.14467 0.139795 0.134656 0.129316 0.123838 0.118223 0.112471 0.106581 0.100553 0.0943878 0.0880849 0.081768 0.0755605 0.0694624 0.0634736 0.0575942 0.0518242 0.0461636 0.0406123 0.0353138 0.0304113 0.0259048 0.0217944 0.01808 0.0147617 0.0118393 0.00931305 0.00713031 0.00523859 0.00363791 0.00232826 0.00130965 0.000582066 0.000145516 0 0 0.000105312 0.00042125 0.000947812 0.001685 0.00263281 0.00379125 0.00516031 0.00673999 0.008586 0.010754 0.013244 0.0160561 0.0191901 0.0226462 0.0264243 0.0305243 0.0348512 0.0393094 0.0438992 0.0486204 0.053473 0.0584571 0.0635727 0.0688197 0.0741064 0.0793407 0.0845229 0.0896527 0.0947304 0.0997558 0.104729 0.10965 0.114471 0.119146 0.123674 0.128055 0.132289 0.136377 0.140318 0.144112 0.14776 0.151262 0.154617 0.157827 0.160891 0.163808 0.16658 0.169205 0.171709 0.174117 0.176428 0.178643 0.180762 0.182784 0.18471 0.186539 0.188286 0.189967 0.19158 0.193126 0.194604 0.196016 0.19736 0.198638 0.199829 0.200915 0.201897 0.202773 0.203545 0.204211 0.204773 0.20523 0.205535 0.205641 0.205548 0.205256 0.204764 0.204073 0.203183 0.202094 0.200763 0.199146 0.197244 0.195056 0.192583 0.189824 0.18678 0.18345 0.179835 0.175937 0.171754 0.167287 0.162535 0.1575 0.152181 0.146577 0.140758 0.134791 0.128677 0.122415 0.116007 0.10945 0.102747 0.0958962 0.0890309 0.0822838 0.0756551 0.0691446 0.0627524 0.0564786 0.050323 0.0442856 0.0385219 0.0331872 0.0282814 0.0238045 0.0197566 0.0161376 0.0129476 0.0101865 0.00779902 0.00572989 0.00397909 0.00254662 0.00143247 0.000636655 0.000159164 0 0 0.000116232 0.000464927 0.00104609 0.00185971 0.00290579 0.00418434 0.00569536 0.00743883 0.00947391 0.0118597 0.0145962 0.0176835 0.0211215 0.0249102 0.0290497 0.0335399 0.0382764 0.0431548 0.0481751 0.0533372 0.0586413 0.0640872 0.069675 0.0754047 0.0811768 0.0868917 0.0925495 0.0981502 0.103694 0.10918 0.114609 0.119981 0.125245 0.130348 0.13529 0.140072 0.144694 0.149156 0.153457 0.157598 0.161578 0.165398 0.169057 0.172554 0.175891 0.179067 0.182083 0.184937 0.187657 0.19027 0.192774 0.195171 0.197459 0.19964 0.201713 0.203678 0.205552 0.207349 