<?xml version="1.0"?> 
<VTKFile type="StructuredGrid" version="0.1"> 
<StructuredGrid WholeExtent="0 128 0 128 0 0"> 
<Piece Extent="0 128 0 128 0 0"> 
<PointData>
<DataArray type="Float32" Name="u" format="ascii" NumberOfComponents="1"> 
0 0 0 0 0 0 0 0 0 0 0 0 0 0 0 0 0 0 0 0 0 0 0 0 0 0 0 0 0 0 0 0 0 0 0 0 0 0 0 0 0 0 0 0 0 0 0 0 0 0 0 0 0 0 0 0 0 0 0 0 0 0 0 0 0 0 0 0 0 0 0 0 0 0 0 0 0 0 0 0 0 0 0 0 0 0 0 0 0 0 0 0 0 0 0 0 0 0 0 0 0 0 0 0 0 0 0 0 0 0 0 0 0 0 0 0 0 0 0 0 0 0 0 0 0 0 0 0 0 0 2.81471e-07 1.12589e-06 2.53324e-06 4.50354e-06 7.03678e-06 1.0133e-05 1.37921e-05 1.80142e-05 2.30124e-05 2.9e-05 3.59769e-05 4.39432e-05 5.28988e-05 6.28438e-05 7.37781e-05 8.57019e-05 9.81838e-05 0.000110793 0.000123529 0.000136392 0.000149383 0.0001625 0.000175745 0.000189116 0.000202233 0.000214714 0.000226558 0.000237765 0.000248336 0.000258271 0.000267569 0.00027623 0.000284192 0.000291391 0.000297828 0.000303502 0.000308413 0.000312561 0.000315947 0.00031857 0.000320659 0.000322446 0.000323928 0.000325107 0.000325982 0.000326554 0.000326822 0.000326786 0.000326782 0.000327145 0.000327875 0.000328971 0.000330434 0.000332263 0.00033446 0.000337023 0.000340139 0.000343995 0.00034859 0.000353924 0.000359998 0.000366812 0.000374364 0.000382656 0.000391556 0.000400932 0.000410783 0.000421111 0.000431914 0.000443194 0.000454949 0.00046718 0.000479471 0.000491403 0.000502977 0.000514194 0.000525052 0.000535553 0.000545696 0.00055548 0.000564437 0.000572097 0.000578459 0.000583523 0.00058729 0.000589759 0.00059093 0.000590804 0.000589158 0.00058577 0.000580641 0.00057377 0.000565157 0.000554802 0.000542705 0.000528866 0.000513511 0.000496867 0.000478932 0.000459707 0.000439192 0.000417387 0.000394292 0.000369907 0.000344935 0.000320078 0.000295336 0.00027071 0.000246199 0.000221803 0.000197523 0.000173358 0.000150157 0.000128767 0.000109188 9.14208e-05 7.54648e-05 6.13202e-05 4.89869e-05 3.8465e-05 2.94498e-05 2.16366e-05 1.50254e-05 9.61625e-06 5.40914e-06 2.40406e-06 6.01015e-07 0 0 1.12589e-06 4.50354e-06 1.0133e-05 1.80142e-05 2.81471e-05 4.05319e-05 5.51684e-05 7.20566e-05 9.20495e-05 0.000116 0.000143908 0.000175773 0.000211595 0.000251375 0.000295113 0.000342807 0.000392735 0.000443171 0.000494116 0.000545569 0.00059753 0.00065 0.000702978 0.000756465 0.000808933 0.000858855 0.000906231 0.00095106 0.000993344 0.00103308 0.00107027 0.00110492 0.00113677 0.00116556 0.00119131 0.00121401 0.00123365 0.00125024 0.00126379 0.00127428 0.00128264 0.00128978 0.00129571 0.00130043 0.00130393 0.00130622 0.00130729 0.00130715 0.00130713 0.00130858 0.0013115 0.00131588 0.00132173 0.00132905 0.00133784 0.00134809 0.00136056 0.00137598 0.00139436 0.0014157 0.00143999 0.00146725 0.00149746 0.00153063 0.00156622 0.00160373 0.00164313 0.00168444 0.00172766 0.00177278 0.0018198 0.00186872 0.00191788 0.00196561 0.00201191 0.00205677 0.00210021 0.00214221 0.00218278 0.00222192 0.00225775 0.00228839 0.00231383 0.00233409 0.00234916 0.00235903 0.00236372 0.00236322 0.00235663 0.00234308 0.00232256 0.00229508 0.00226063 0.00221921 0.00217082 0.00211546 0.00205405 0.00198747 0.00191573 0.00183883 0.00175677 0.00166955 0.00157717 0.00147963 0.00137974 0.00128031 0.00118134 0.00108284 0.000984796 0.000887213 0.000790093 0.000693433 0.000600628 0.000515068 0.000436753 0.000365683 0.000301859 0.000245281 0.000195948 0.00015386 0.000117799 8.65462e-05 6.01015e-05 3.8465e-05 2.16366e-05 9.61625e-06 2.40406e-06 0 0 2.53324e-06 1.0133e-05 2.27992e-05 4.05319e-05 6.3331e-05 9.11967e-05 0.000124129 0.000162127 0.000207111 0.000261 0.000323792 0.000395488 0.000476089 0.000565594 0.000664003 0.000771317 0.000883654 0.000997135 0.00111176 0.00122753 0.00134444 0.0014625 0.0015817 0.00170205 0.0018201 0.00193242 0.00203902 0.00213989 0.00223502 0.00232444 0.00240812 0.00248607 0.00255773 0.00262252 0.00268045 0.00273151 0.00277571 0.00281305 0.00284352 0.00286713 0.00288594 0.00290201 0.00291535 0.00292596 0.00293384 0.00293899 0.0029414 0.00294108 0.00294104 0.00294431 0.00295087 0.00296074 0.0029739 0.00299037 0.00301014 0.00303321 0.00306125 0.00309595 0.00313731 0.00318532 0.00323999 0.0033013 0.00336928 0.00344391 0.00352401 0.00360839 0.00369705 0.00379 0.00388723 0.00398874 0.00409454 0.00420462 0.00431523 0.00442263 0.00452679 0.00462774 0.00472547 0.00481998 0.00491126 0.00499932 0.00507994 0.00514887 0.00520613 0.00525171 0.00528561 0.00530783 0.00531837 0.00531724 0.00530242 0.00527193 0.00522577 0.00516393 0.00508641 0.00499321 0.00488434 0.00475979 0.0046216 0.0044718 0.00431039 0.00413737 0.00395273 0.00375649 0.00354863 0.00332917 0.00310441 0.0028807 0.00265803 0.00243639 0.00221579 0.00199623 0.00177771 0.00156023 0.00135141 0.0011589 0.000982694 0.000822787 0.000679183 0.000551882 0.000440882 0.000346185 0.000265048 0.000194729 0.000135228 8.65462e-05 4.86823e-05 2.16366e-05 5.40914e-06 0 0 4.50354e-06 1.80142e-05 4.05319e-05 7.20566e-05 0.000112589 0.000162127 0.000220673 0.000288227 0.000368198 0.000463999 0.00057563 0.000703091 0.000846381 0.0010055 0.00118045 0.00137123 0.00157094 0.00177269 0.00197646 0.00218228 0.00239012 0.0026 0.00281191 0.00302586 0.00323573 0.00343542 0.00362492 0.00380424 0.00397338 0.00413233 0.0042811 0.00441968 0.00454707 0.00466226 0.00476524 0.00485602 0.0049346 0.00500098 0.00505515 0.00509711 0.00513055 0.00515913 0.00518285 0.00520171 0.00521572 0.00522487 0.00522915 0.00522858 0.00522852 0.00523432 0.00524599 0.00526353 0.00528694 0.00531621 0.00535136 0.00539237 0.00544223 0.00550392 0.00557744 0.00566279 0.00575997 0.00586899 0.00598983 0.0061225 0.0062649 0.00641491 0.00657254 0.00673778 0.00691063 0.0070911 0.00727919 0.00747489 0.00767153 0.00786245 0.00804763 0.0082271 0.00840083 0.00856884 0.00873113 0.00888768 0.009031 0.00915355 0.00925534 0.00933637 0.00939663 0.00943614 0.00945488 0.00945286 0.00942653 0.00937233 0.00929026 0.00918031 0.0090425 0.00887682 0.00868328 0.00846186 0.00821618 0.00794987 0.00766291 0.00735532 0.00702708 0.0066782 0.00630868 0.00591852 0.00551896 0.00512124 0.00472538 0.00433136 0.00393918 0.00354885 0.00316037 0.00277373 0.00240251 0.00206027 0.00174701 0.00146273 0.00120744 0.000981123 0.000783791 0.00061544 0.000471196 0.000346185 0.000240406 0.00015386 8.65462e-05 3.8465e-05 9.61625e-06 0 0 7.03678e-06 2.81471e-05 6.3331e-05 0.000112589 0.00017592 0.000253324 0.000344802 0.000450354 0.00057531 0.000724999 0.000899422 0.00109858 0.00132247 0.00157109 0.00184445 0.00214255 0.00245459 0.00276982 0.00308822 0.00340981 0.00373456 0.0040625 0.00439361 0.00472791 0.00505583 0.00536784 0.00566394 0.00594413 0.0062084 0.00645676 0.00668921 0.00690575 0.0071048 0.00728478 0.00744569 0.00758754 0.00771032 0.00781403 0.00789867 0.00796424 0.00801649 0.00806114 0.00809821 0.00812768 0.00814956 0.00816385 0.00817055 0.00816966 0.00816956 0.00817863 0.00819686 0.00822427 0.00826084 0.00830658 0.0083615 0.00842557 0.00850348 0.00859987 0.00871475 0.00884811 0.00899996 0.00917029 0.00935911 0.00956641 0.0097889 0.0100233 0.0102696 0.0105278 0.0107979 0.0110798 0.0113737 0.0116795 0.0119868 0.0122851 0.0125744 0.0128548 0.0131263 0.0133888 0.0136424 0.013887 0.0141109 0.0143024 0.0144615 0.0145881 0.0146822 0.014744 0.0147733 0.0147701 0.014729 0.0146443 0.014516 0.0143442 0.0141289 0.01387 0.0135676 0.0132217 0.0128378 0.0124217 0.0119733 0.0114927 0.0109798 0.0104347 0.00985731 0.00924768 0.00862337 0.00800195 0.0073834 0.00676775 0.00615497 0.00554508 0.00493808 0.00433396 0.00375392 0.00321917 0.0027297 0.00228552 0.00188662 0.001533 0.00122467 0.000961625 0.000736244 0.000540914 0.000375635 0.000240406 0.000135228 6.01015e-05 1.50254e-05 0 0 1.0133e-05 4.05319e-05 9.11967e-05 0.000162127 0.000253324 0.000364787 0.000496515 0.00064851 0.000828446 0.001044 0.00129517 0.00158195 0.00190436 0.00226238 0.00265601 0.00308527 0.00353462 0.00398854 0.00444704 0.00491012 0.00537777 0.00585 0.0063268 0.00680818 0.00728039 0.00772969 0.00815607 0.00855954 0.0089401 0.00929774 0.00963247 0.00994428 0.0102309 0.0104901 0.0107218 0.0109261 0.0111029 0.0112522 0.0113741 0.0114685 0.0115437 0.011608 0.0116614 0.0117039 0.0117354 0.0117559 0.0117656 0.0117643 0.0117642 0.0117772 0.0118035 0.0118429 0.0118956 0.0119615 0.0120406 0.0121328 0.012245 0.0123838 0.0125492 0.0127413 0.0129599 0.0132052 0.0134771 0.0137756 0.014096 0.0144335 0.0147882 0.01516 0.0155489 0.015955 0.0163782 0.0168185 0.0172609 0.0176905 0.0181072 0.018511 0.0189019 0.0192799 0.019645 0.0199973 0.0203197 0.0205955 0.0208245 0.0210068 0.0211424 0.0212313 0.0212735 0.0212689 0.0212097 0.0210877 0.0209031 0.0206557 0.0203456 0.0199729 0.0195374 0.0190392 0.0184864 0.0178872 0.0172416 0.0165495 0.0158109 0.0150259 0.0141945 0.0133167 0.0124177 0.0115228 0.0106321 0.00974555 0.00886316 0.00798492 0.00711083 0.0062409 0.00540565 0.00463561 0.00393077 0.00329115 0.00271673 0.00220753 0.00176353 0.00138474 0.00106019 0.000778916 0.000540914 0.000346185 0.000194729 8.65462e-05 2.16366e-05 0 0 1.37921e-05 5.51684e-05 0.000124129 0.000220673 0.000344802 0.000496515 0.000675813 0.000882694 0.00112761 0.001421 0.00176287 0.00215322 0.00259204 0.00307935 0.00361513 0.00419939 0.00481101 0.00542885 0.00605292 0.00668322 0.00731975 0.0079625 0.00861148 0.00926669 0.00990943 0.010521 0.0111013 0.0116505 0.0121685 0.0126553 0.0131109 0.0135353 0.0139254 0.0142782 0.0145936 0.0148716 0.0151122 0.0153155 0.0154814 0.0156099 0.0157123 0.0157998 0.0158725 0.0159303 0.0159731 0.0160012 0.0160143 0.0160125 0.0160123 0.0160301 0.0160659 0.0161196 0.0161913 0.0162809 0.0163885 0.0165141 0.0166668 0.0168558 0.0170809 0.0173423 0.0176399 0.0179738 0.0183439 0.0187502 0.0191863 0.0196457 0.0201284 0.0206344 0.0211638 0.0217165 0.0222925 0.0228918 0.0234941 0.0240787 0.0246459 0.0251955 0.0257276 0.0262421 0.0267391 0.0272185 0.0276574 0.0280327 0.0283445 0.0285926 0.0287772 0.0288982 0.0289556 0.0289494 0.0288687 0.0287028 0.0284514 0.0281147 0.0276927 0.0271853 0.0265925 0.0259144 0.0251621 0.0243465 0.0234677 0.0225257 0.0215204 0.020452 0.0193203 0.0181255 0.0169018 0.0156838 0.0144715 0.0132648 0.0120637 0.0108684 0.00967863 0.00849456 0.00735769 0.00630958 0.00535022 0.00447962 0.00369778 0.00300469 0.00240036 0.00188478 0.00144304 0.00106019 0.000736244 0.000471196 0.000265048 0.000117799 2.94498e-05 0 0 1.80142e-05 7.20566e-05 0.000162127 0.000288227 0.000450354 0.00064851 0.000882694 0.00115291 0.00147279 0.001856 0.00230252 0.00281236 0.00338552 0.004022 0.0047218 0.00548492 0.00628376 0.00709074 0.00790585 0.0087291 0.00956048 0.0104 0.0112477 0.0121034 0.0129429 0.0137417 0.0144997 0.015217 0.0158935 0.0165293 0.0171244 0.0176787 0.0181883 0.018649 0.019061 0.0194241 0.0197384 0.0200039 0.0202206 0.0203885 0.0205222 0.0206365 0.0207314 0.0208069 0.0208629 0.0208995 0.0209166 0.0209143 0.0209141 0.0209373 0.020984 0.0210541 0.0211478 0.0212649 0.0214054 0.0215695 0.0217689 0.0220157 0.0223098 0.0226512 0.0230399 0.0234759 0.0239593 0.02449 0.0250596 0.0256596 0.0262901 0.0269511 0.0276425 0.0283644 0.0291167 0.0298995 0.0306861 0.0314498 0.0321905 0.0329084 0.0336033 0.0342754 0.0349245 0.0355507 0.036124 0.0366142 0.0370214 0.0373455 0.0375865 0.0377446 0.0378195 0.0378115 0.0377061 0.0374893 0.037161 0.0367213 0.03617 0.0355073 0.0347331 0.0338474 0.0328647 0.0317995 0.0306517 0.0294213 0.0281083 0.0267128 0.0252347 0.0236741 0.0220758 0.020485 0.0189015 0.0173254 0.0157567 0.0141954 0.0126415 0.0110949 0.00961004 0.00824108 0.00698804 0.00585093 0.00482975 0.00392449 0.00313516 0.00246176 0.00188478 0.00138474 0.000961625 0.00061544 0.000346185 0.00015386 3.8465e-05 0 0 2.31195e-05 9.24778e-05 0.000208075 0.000369911 0.000577986 0.000832301 0.00113285 0.00147965 0.0018897 0.00238002 0.00295063 0.00360151 0.00433267 0.00514411 0.00603583 0.00700783 0.00802505 0.00905247 0.0100901 0.0111379 0.0121958 0.013264 0.0143424 0.0154309 0.0164987 0.0175149 0.0184794 0.0193922 0.0202534 0.021063 0.0218209 0.0225271 0.0231765 0.023764 0.0242895 0.0247531 0.0251547 0.0254944 0.0257722 0.025988 0.0261604 0.026308 0.0264308 0.0265288 0.026602 0.0266503 0.0266739 0.0266726 0.0266737 0.0267042 0.0267643 0.0268538 0.0269728 0.0271213 0.0272992 0.0275067 0.0277587 0.0280704 0.0284419 0.028873 0.0293638 0.0299143 0.0305245 0.0311944 0.0319134 0.0326708 0.0334666 0.0343008 0.0351734 0.0360845 0.0370339 0.0380218 0.0390143 0.0399778 0.0409123 0.0418177 0.042694 0.0435413 0.0443596 0.0451488 0.0458709 0.046488 0.047 0.0474068 0.0477086 0.0479053 0.0479969 0.0479835 0.0478469 0.0475694 0.0471508 0.0465913 0.0458906 0.045049 0.0440664 0.0429427 0.0416963 0.0403455 0.0388902 0.0373305 0.0356664 0.0338978 0.0320248 0.0300473 0.0280222 0.0260062 0.0239994 0.0220017 0.0200132 0.0180338 0.0160635 0.0141024 0.0122192 0.0104824 0.00889208 0.00744829 0.00615101 0.00500022 0.00399593 0.00313815 0.00240264 0.00176521 0.00122584 0.000784537 0.000441302 0.000196134 4.90335e-05 0 0 2.94283e-05 0.000117713 0.000264854 0.000470852 0.000735707 0.00105942 0.00144199 0.00188341 0.00240401 0.00302411 0.0037437 0.00456278 0.00548137 0.00649945 0.00761702 0.00883409 0.010107 0.0113923 0.0126898 0.0139996 0.0153217 0.0166561 0.0180027 0.0193616 0.0206947 0.0219637 0.0231687 0.0243096 0.0253864 0.0263993 0.0273481 0.0282328 0.029047 0.0297843 0.0304447 0.0310281 0.0315346 0.0319641 0.0323167 0.0325923 0.0328139 0.0330042 0.0331633 0.0332912 0.0333878 0.0334532 0.0334874 0.0334903 0.0334955 0.0335364 0.0336132 0.0337257 0.033874 0.0340581 0.0342779 0.0345335 0.0348436 0.0352269 0.0356833 0.0362129 0.0368156 0.0374915 0.0382405 0.0390628 0.0399451 0.0408744 0.0418509 0.0428743 0.0439449 0.0450624 0.0462271 0.0474387 0.0486559 0.0498371 0.0509822 0.0520914 0.0531645 0.0542015 0.0552026 0.0561676 0.0570498 0.0578023 0.0584251 0.0589182 0.0592816 0.0595154 0.0596194 0.0595938 0.0594164 0.059065 0.0585398 0.0578406 0.0569675 0.0559206 0.0546997 0.0533049 0.0517587 0.0500838 0.0482801 0.0463477 0.0442864 0.0420964 0.0397776 0.03733 0.0348234 0.0323275 0.0298423 0.0273679 0.0249042 0.0224512 0.020009 0.0175775 0.0152414 0.0130857 0.0111102 0.00931491 0.0076999 0.00626516 0.00501067 0.00393643 0.00301383 0.00221424 0.00153767 0.000984108 0.000553561 0.000246027 6.15067e-05 0 0 3.69406e-05 0.000147762 0.000332465 0.00059105 0.000923515 0.00132986 0.00181009 0.0023642 0.00301573 0.00378824 0.00468172 0.00569617 0.0068316 0.008088 0.00946537 0.0109637 0.0125297 0.0141102 0.0157051 0.0173143 0.018938 0.0205762 0.0222287 0.0238956 0.0255308 0.0270881 0.0285675 0.029969 0.0312926 0.0325382 0.033706 0.0347958 0.0357998 0.03671 0.0375265 0.0382491 0.0388779 0.0394129 0.0398541 0.0402015 0.0404827 0.0407252 0.0409289 0.041094 0.0412204 0.0413081 0.0413571 0.0413673 0.0413795 0.0414339 0.0415307 0.0416699 0.0418514 0.0420753 0.0423415 0.0426501 0.0430237 0.043485 0.0440341 0.0446708 0.0453953 0.0462074 0.0471073 0.0480949 0.0491546 0.0502706 0.051443 0.0526717 0.0539568 0.0552983 0.0566962 0.0581504 0.0596109 0.0610275 0.0624004 0.0637294 0.0650146 0.066256 0.0674535 0.0686072 0.0696606 0.0705571 0.0712968 0.0718796 0.0723056 0.0725747 0.072687 0.0726424 0.0724144 0.0719761 0.0713278 0.0704693 0.0694007 0.0681219 0.066633 0.0649339 0.063052 0.0610145 0.0588214 0.0564727 0.0539684 0.0513086 0.0484931 0.0455221 0.0424794 0.0394487 0.0364303 0.033424 0.0304298 0.0274477 0.0244778 0.02152 0.0186769 0.016051 0.0136423 0.0114508 0.00947644 0.0077193 0.00617936 0.00485661 0.00371834 0.00273184 0.00189711 0.00121415 0.000682961 0.000303538 7.58845e-05 0 0 4.56564e-05 0.000182626 0.000410908 0.000730503 0.00114141 0.00164363 0.00223717 0.00292201 0.00372487 0.00467243 0.00576471 0.00700169 0.00838337 0.00990977 0.0115809 0.0133967 0.0152931 0.0172062 0.0191358 0.0210821 0.0230449 0.0250243 0.0270203 0.0290328 0.0310071 0.0328881 0.0346759 0.0363704 0.0379718 0.0394798 0.0408946 0.0422162 0.0434349 0.0445411 0.0455348 0.046416 0.0471847 0.0478408 0.0483844 0.0488155 0.0491668 0.0494708 0.0497277 0.0499373 0.0500997 0.050215 0.050283 0.0503038 0.0503256 0.0503966 0.0505169 0.0506863 0.050905 0.0511729 0.05149 0.0518563 0.0522989 0.0528449 0.0534942 0.0542468 0.0551028 0.0560622 0.0571249 0.058291 0.0595419 0.0608592 0.0622429 0.0636929 0.0652093 0.0667921 0.0684412 0.0701568 0.0718792 0.0735492 0.0751668 0.0767318 0.0782445 0.0797046 0.0811123 0.0824676 0.0837033 0.0847524 0.085615 0.086291 0.0867805 0.0870833 0.0871996 0.0871294 0.0868409 0.0863028 0.0855149 0.0844774 0.0831901 0.081653 0.0798663 0.0778298 0.075576 0.0731374 0.0705139 0.0677056 0.0647124 0.0615343 0.0581714 0.0546236 0.0509901 0.04737 0.0437633 0.0401699 0.0365899 0.0330233 0.02947 0.0259301 0.0225256 0.0193784 0.0164885 0.0138559 0.0114806 0.00936266 0.00750201 0.00589869 0.00451618 0.00331801 0.00230417 0.00147467 0.000829503 0.000368668 9.2167e-05 0 0 5.55758e-05 0.000222303 0.000500182 0.000889213 0.00138939 0.00200073 0.00272321 0.00355685 0.00453141 0.00567668 0.00699265 0.00847932 0.0101367 0.0119648 0.0139635 0.016133 0.0183972 0.0206803 0.0229821 0.0253027 0.0276422 0.0300004 0.0323775 0.0347733 0.0371235 0.0393637 0.0414939 0.043514 0.045424 0.0472241 0.048914 0.050494 0.0519524 0.0532776 0.0544698 0.0555289 0.0564549 0.0572478 0.0579076 0.0584344 0.0588662 0.0592412 0.0595595 0.059821 0.0600258 0.0601739 0.0602651 0.0602996 0.060334 0.0604246 0.0605717 0.0607751 0.0610348 0.0613509 0.0617234 0.0621522 0.0626692 0.0633064 0.0640636 0.0649409 0.0659383 0.0670557 0.0682933 0.0696509 0.0711071 0.0726403 0.0742506 0.075938 0.0777024 0.0795438 0.0814623 0.0834578 0.0854609 0.0874021 0.0892813 0.0910986 0.092854 0.0945475 0.096179 0.0977487 0.0991779 0.100388 0.10138 0.102152 0.102706 0.103041 0.103157 0.103055 0.102696 0.102045 0.101101 0.0998648 0.0983357 0.096514 0.0943996 0.0919925 0.0893309 0.0864526 0.0833578 0.0800463 0.0765183 0.0727737 0.0688125 0.0646346 0.0603557 0.0560913 0.0518413 0.0476057 0.0433846 0.0391779 0.0349856 0.0308078 0.0267875 0.0230678 0.0196487 0.0165303 0.0137124 0.0111952 0.00897863 0.00706266 0.00540735 0.00397274 0.00275885 0.00176566 0.000993186 0.000441416 0.000110354 0 0 6.66986e-05 0.000266795 0.000600288 0.00106718 0.00166747 0.00240115 0.00326823 0.00426871 0.00543537 0.00680098 0.00836555 0.0101291 0.0120915 0.014253 0.0166134 0.0191727 0.021842 0.0245324 0.0272439 0.0299764 0.03273 0.0355046 0.0383003 0.041117 0.0438801 0.0465149 0.0490214 0.0513996 0.0536494 0.055771 0.0577642 0.0596291 0.0613521 0.0629195 0.0643314 0.0655878 0.0666887 0.067634 0.0684238 0.069058 0.0695809 0.0700363 0.0704245 0.0707452 0.0709987 0.0711847 0.0713035 0.0713549 0.0714045 0.0715179 0.0716951 0.071936 0.0722408 0.0726093 0.0730417 0.0735378 0.0741347 0.0748696 0.0757423 0.076753 0.0779016 0.079188 0.0806124 0.0821747 0.0838501 0.085614 0.0874662 0.0894069 0.0914359 0.0935534 0.0957593 0.0980536 0.100356 0.102586 0.104744 0.10683 0.108843 0.110785 0.112654 0.114451 0.116084 0.117465 0.118591 0.119464 0.120083 0.120448 0.12056 0.120418 0.11998 0.119203 0.118087 0.116632 0.114838 0.112705 0.110233 0.107422 0.104317 0.10096 0.097353 0.093495 0.0893862 0.0850266 0.0804162 0.0755551 0.0705762 0.0656126 0.0606643 0.0557314 0.0508138 0.0459115 0.0410245 0.0361529 0.0314625 0.0271192 0.023123 0.0194739 0.0161719 0.013217 0.0106092 0.00834852 0.00639184 0.00469604 0.00326114 0.00208713 0.00117401 0.000521783 0.000130446 0 0 7.9025e-05 0.0003161 0.000711225 0.0012644 0.00197563 0.0028449 0.00387223 0.0050576 0.00643674 0.00804534 0.0098834 0.0119509 0.0142479 0.0167744 0.0195303 0.0225157 0.0256276 0.0287627 0.0319212 0.0351031 0.0383083 0.0415368 0.0447887 0.048064 0.0512769 0.0543417 0.0572585 0.0600272 0.0626479 0.0651205 0.067445 0.0696215 0.0716341 0.0734668 0.0751196 0.0765927 0.0778859 0.0789993 0.0799328 0.0806865 0.0813108 0.0818562 0.0823225 0.0827099 0.0830182 0.0832476 0.0833981 0.0834695 0.0835372 0.0836764 0.0838871 0.0841693 0.0845229 0.0849481 0.0854448 0.086013 0.0866953 0.0875345 0.0885304 0.0896832 0.0909928 0.0924592 0.0940823 0.0958624 0.097771 0.0997801 0.10189 0.1041 0.10641 0.108821 0.111332 0.113944 0.116564 0.119101 0.121555 0.123925 0.126212 0.128416 0.130536 0.132573 0.134423 0.135981 0.137249 0.138225 0.138911 0.139305 0.139408 0.13922 0.138692 0.137776 0.136471 0.134778 0.132696 0.130225 0.127366 0.124119 0.120533 0.11666 0.112499 0.108052 0.103316 0.0982932 0.0929828 0.0873849 0.0816514 0.0759339 0.0702324 0.064547 0.0588776 0.0532242 0.0475869 0.0419656 0.0365507 0.0315326 0.0269113 0.0226868 0.018859 0.015428 0.0123937 0.00975629 0.00746966 0.00548791 0.00381105 0.00243907 0.00137198 0.000609768 0.000152442 0 0 9.25549e-05 0.00037022 0.000832994 0.00148088 0.00231387 0.00333198 0.00453519 0.00592351 0.00753551 0.00940975 0.0115462 0.0139449 0.0166059 0.0195291 0.0227145 0.0261621 0.0297538 0.0333711 0.037014 0.0406827 0.0443771 0.0480971 0.0518428 0.0556142 0.0593138 0.0628441 0.0662052 0.0693969 0.0724195 0.0752727 0.0779566 0.0804713 0.0827984 0.0849194 0.0868345 0.0885435 0.0900466 0.0913437 0.0924348 0.0933198 0.0940561 0.0947007 0.0952537 0.095715 0.0960846 0.0963626 0.0965489 0.0966435 0.0967321 0.0969001 0.0971477 0.0974748 0.0978813 0.0983673 0.0989329 0.0995779 0.100351 0.101301 0.102428 0.103731 0.105212 0.106869 0.108703 0.110714 0.11287 0.115139 0.117521 0.120016 0.122625 0.125346 0.128181 0.131129 0.134086 0.136948 0.139714 0.142385 0.144961 0.147442 0.149827 0.152117 0.154193 0.155939 0.157353 0.158437 0.159189 0.159611 0.159701 0.15946 0.158833 0.157765 0.156255 0.154303 0.15191 0.149076 0.1458 0.142082 0.13798 0.133552 0.128797 0.123716 0.118308 0.112573 0.106512 0.100124 0.0935814 0.0870552 0.0805455 0.0740524 0.0675759 0.061116 0.0546726 0.0482458 0.0420522 0.0363081 0.0310137 0.0261689 0.0217737 0.0178282 0.0143322 0.0112859 0.0086408 0.00634834 0.00440857 0.00282149 0.00158709 0.000705372 0.000176343 0 0 0.000107076 0.000428305 0.000963686 0.00171322 0.00267691 0.00385474 0.00524673 0.00685288 0.0087145 0.0108729 0.0133281 0.0160801 0.0191289 0.0224745 0.0261169 0.0300561 0.0341577 0.0382872 0.0424447 0.0466301 0.0508435 0.0550849 0.0593542 0.0636515 0.0678669 0.0718907 0.0757229 0.0793634 0.0828123 0.0860696 0.0891352 0.0920091 0.0946705 0.0970982 0.0992922 0.101253 0.102979 0.104472 0.105732 0.106758 0.107614 0.108365 0.10901 0.10955 0.109985 0.110314 0.110538 0.110657 0.110766 0.110963 0.111247 0.111618 0.112076 0.112622 0.113255 0.113975 0.114837 0.115897 0.117154 0.118608 0.120259 0.122107 0.124152 0.126395 0.128799 0.13133 0.133987 0.13677 0.139679 0.142715 0.145876 0.149164 0.152462 0.155651 0.158734 0.161708 0.164575 0.167334 0.169986 0.172531 0.174835 0.176767 0.178327 0.179515 0.180331 0.180774 0.180846 0.180545 0.17981 0.178579 0.176852 0.174629 0.17191 0.168694 0.164983 0.160776 0.156137 0.151131 0.145758 0.140019 0.133912 0.127438 0.120597 0.11339 0.106007 0.098641 0.0912921 0.0839601 0.076645 0.0693468 0.0620655 0.0548011 0.0477973 0.0412976 0.0353023 0.0298111 0.0248242 0.0203414 0.0163629 0.0128887 0.00986789 0.00724988 0.00503464 0.00322217 0.00181247 0.000805542 0.000201385 0 0 0.000122377 0.000489507 0.00110139 0.00195803 0.00305942 0.00440557 0.00599646 0.00783212 0.00995648 0.0124135 0.0152032 0.0183256 0.0217807 0.0255684 0.0296888 0.0341418 0.0387763 0.0434408 0.0481354 0.0528601 0.0576149 0.0623997 0.0672147 0.0720597 0.0768124 0.0813502 0.0856732 0.0897813 0.0936747 0.0973532 0.100817 0.104066 0.107076 0.109824 0.112309 0.114532 0.116492 0.118191 0.119626 0.120799 0.121781 0.122643 0.123384 0.124005 0.124506 0.124887 0.125148 0.125288 0.125416 0.125637 0.125953 0.126363 0.126868 0.127467 0.128159 0.128947 0.12989 0.13105 0.132427 0.134022 0.135833 0.137862 0.140108 0.142572 0.145213 0.147994 0.150914 0.153974 0.157172 0.16051 0.163988 0.167604 0.171231 0.174737 0.178124 0.181392 0.18454 0.187568 0.190476 0.193265 0.195787 0.197897 0.199593 0.200876 0.201747 0.202204 0.202248 0.20188 0.201029 0.199628 0.197677 0.195175 0.192123 0.18852 0.184367 0.179664 0.174481 0.168891 0.162894 0.15649 0.149678 0.142458 0.134832 0.126798 0.118568 0.110356 0.102161 0.0939823 0.085821 0.0776766 0.0695492 0.0614388 0.0536165 0.0463533 0.0396492 0.0335042 0.0279184 0.0228917 0.0184241 0.0145156 0.0111135 0.00816503 0.00567016 0.0036289 0.00204126 0.000907226 0.000226807 0 0 0.000138457 0.000553827 0.00124611 0.00221531 0.00346142 0.00498444 0.00678438 0.00886123 0.0112615 0.0140316 0.0171715 0.0206814 0.0245611 0.0288106 0.03343 0.0384193 0.0436096 0.0488319 0.0540862 0.0593726 0.0646911 0.0700416 0.0754242 0.0808388 0.0861501 0.0912225 0.096056 0.100651 0.105007 0.109124 0.113002 0.116641 0.120015 0.123096 0.125885 0.128382 0.130586 0.132498 0.134118 0.135445 0.136558 0.137535 0.138376 0.139081 0.139649 0.140082 0.140378 0.140539 0.140681 0.140924 0.141268 0.141712 0.142256 0.142901 0.143647 0.144493 0.145508 0.146759 0.148248 0.149973 0.151936 0.154135 0.156571 0.159244 0.162111 0.165131 0.168303 0.171628 0.175104 0.178734 0.182515 0.186449 0.190393 0.194206 0.197887 0.201437 0.204855 0.208141 0.211296 0.21432 0.217051 0.219328 0.221151 0.222521 0.223438 0.2239 0.223909 0.223465 0.222491 0.220913 0.21873 0.215942 0.21255 0.208553 0.203952 0.198746 0.193013 0.186833 0.180205 0.173129 0.165606 0.157635 0.149215 0.140348 0.131266 0.1222 0.113151 0.104119 0.095104 0.0861055 0.0771239 0.0681591 0.0595099 0.051475 0.0440545 0.0372483 0.0310564 0.0254789 0.0205157 0.0161668 0.0123777 0.00909382 0.00631515 0.0040417 0.00227346 0.00101042 0.000252606 0 0 0.000155316 0.000621264 0.00139784 0.00248505 0.0038829 0.00559137 0.00761048 0.00994022 0.0126295 0.0157271 0.0192331 0.0231474 0.0274702 0.0322013 0.0373408 0.0428886 0.0486576 0.0544604 0.0602972 0.0661678 0.0720722 0.0780106 0.0839828 0.0899889 0.0958801 0.101508 0.106871 0.111972 0.116808 0.121381 0.12569 0.129735 0.133487 0.136915 0.14002 0.142802 0.14526 0.147395 0.149207 0.150695 0.151945 0.153041 0.153985 0.154776 0.155413 0.155898 0.156229 0.156408 0.156562 0.156823 0.15719 0.157663 0.158242 0.158926 0.159717 0.160614 0.161692 0.163026 0.164616 0.166463 0.168566 0.170925 0.17354 0.176411 0.179493 0.182741 0.186154 0.189732 0.193476 0.197385 0.201459 0.205699 0.20995 0.214057 0.218022 0.221843 0.225521 0.229056 0.232447 0.235695 0.238625 0.24106 0.243002 0.24445 0.245403 0.245863 0.245829 0.2453 0.244196 0.242433 0.240011 0.23693 0.233191 0.228793 0.223737 0.218022 0.211733 0.204956 0.197691 0.189938 0.181696 0.172966 0.163748 0.154042 0.144099 0.134173 0.124264 0.114371 0.104494 0.0946335 0.0847895 0.0749619 0.0654775 0.0566629 0.0485181 0.0410432 0.0342382 0.028103 0.0226377 0.0178422 0.0136604 0.0100362 0.00696961 0.00446055 0.00250906 0.00111514 0.000278784 0 0 0.000172954 0.000691818 0.00155659 0.00276727 0.00432386 0.00622636 0.00847477 0.0110691 0.0140605 0.0175 0.0213878 0.0257238 0.0305079 0.0357403 0.0414209 0.0475496 0.0539203 0.0603265 0.0667682 0.0732455 0.0797583 0.0863066 0.0928905 0.0995099 0.106002 0.112206 0.118119 0.123744 0.129079 0.134125 0.138881 0.143348 0.147492 0.151281 0.154715 0.157793 0.160515 0.162882 0.164893 0.166549 0.167941 0.169162 0.170212 0.171091 0.171799 0.172335 0.172701 0.172895 0.17306 0.173334 0.17372 0.174217 0.174824 0.175542 0.17637 0.17731 0.178442 0.17985 0.181532 0.18349 0.185723 0.188232 0.191015 0.194074 0.197359 0.200823 0.204466 0.208286 0.212286 0.216463 0.220819 0.225354 0.2299 0.234291 0.238528 0.24261 0.246538 0.25031 0.253928 0.257391 0.26051 0.263094 0.265145 0.266661 0.267644 0.268092 0.268006 0.267386 0.266143 0.264188 0.26152 0.258139 0.254046 0.24924 0.243722 0.237492 0.23064 0.223261 0.215352 0.206915 0.197948 0.188454 0.17843 0.167878 0.157069 0.146276 0.135498 0.124737 0.113991 0.103261 0.092546 0.0818473 0.0715192 0.0619168 0.0530401 0.0448891 0.0374638 0.0307641 0.0247901 0.0195418 0.0149617 0.0109923 0.00763353 0.00488546 0.00274807 0.00122136 0.000305341 0 0 0.000191372 0.000765489 0.00172235 0.00306196 0.00478431 0.0068894 0.00937724 0.0122478 0.0155545 0.0193504 0.0236357 0.0284104 0.0336744 0.0394277 0.0456704 0.0524025 0.0593977 0.06643 0.0734993 0.0806057 0.0877492 0.0949297 0.102147 0.109402 0.116517 0.123316 0.1298 0.135967 0.141819 0.147355 0.152575 0.157479 0.162031 0.166194 0.169968 0.173354 0.17635 0.178958 0.181176 0.183006 0.184547 0.185897 0.187056 0.188026 0.188805 0.189394 0.189793 0.190002 0.190172 0.190458 0.190858 0.191373 0.192003 0.192747 0.193606 0.19458 0.195758 0.19723 0.198996 0.201055 0.203409 0.206056 0.208997 0.212232 0.21571 0.219379 0.223239 0.227291 0.231534 0.235969 0.240595 0.245413 0.250244 0.254908 0.259406 0.263739 0.267905 0.271905 0.275739 0.279407 0.282706 0.28543 0.28758 0.289157 0.290159 0.290588 0.290442 0.289723 0.288333 0.286178 0.283256 0.279568 0.275114 0.269894 0.263908 0.257156 0.249736 0.241746 0.233188 0.22406 0.214363 0.204097 0.193261 0.181856 0.170174 0.158507 0.146855 0.135217 0.123595 0.111987 0.100393 0.0888151 0.0776351 0.0672369 0.0576205 0.0487859 0.0407331 0.0334622 0.026973 0.0212657 0.0162815 0.011962 0.00830691 0.00531642 0.00299049 0.00132911 0.000332276 0 0 0.000210569 0.000842277 0.00189512 0.00336911 0.00526423 0.0075805 0.0103179 0.0134764 0.0171115 0.0212783 0.0259769 0.0312073 0.0369695 0.0432636 0.0500894 0.057447 0.0650898 0.072771 0.0804905 0.0882485 0.0960449 0.10388 0.111753 0.119665 0.127424 0.13484 0.141913 0.148643 0.155029 0.161073 0.166773 0.17213 0.177104 0.181654 0.185781 0.189485 0.192766 0.195623 0.198057 0.200068 0.201762 0.203245 0.204518 0.205581 0.206433 0.207075 0.207506 0.207727 0.207901 0.208194 0.208604 0.209132 0.209778 0.210543 0.211425 0.212425 0.21364 0.215167 0.217007 0.219158 0.221622 0.224398 0.227486 0.230886 0.234544 0.238407 0.242474 0.246746 0.251222 0.255903 0.260788 0.265878 0.270981 0.275907 0.280656 0.285228 0.289623 0.29384 0.297881 0.301744 0.305212 0.308067 0.310308 0.311935 0.312949 0.313349 0.313136 0.31231 0.310766 0.308403 0.305221 0.301219 0.296397 0.290756 0.284295 0.277014 0.269019 0.260413 0.251199 0.241374 0.23094 0.219895 0.208241 0.195978 0.183416 0.170868 0.158333 0.145812 0.133305 0.120812 0.108332 0.0958655 0.0838251 0.072623 0.0622592 0