<?xml version="1.0"?> 
<VTKFile type="StructuredGrid" version="0.1"> 
<StructuredGrid WholeExtent="0 128 0 128 0 0"> 
<Piece Extent="0 128 0 128 0 0"> 
<PointData>
<DataArray type="Float32" Name="u" format="ascii" NumberOfComponents="1"> 
0 0 0 0 0 0 0 0 0 0 0 0 0 0 0 0 0 0 0 0 0 0 0 0 0 0 0 0 0 0 0 0 0 0 0 0 0 0 0 0 0 0 0 0 0 0 0 0 0 0 0 0 0 0 0 0 0 0 0 0 0 0 0 0 0 0 0 0 0 0 0 0 0 0 0 0 0 0 0 0 0 0 0 0 0 0 0 0 0 0 0 0 0 0 0 0 0 0 0 0 0 0 0 0 0 0 0 0 0 0 0 0 0 0 0 0 0 0 0 0 0 0 0 0 0 0 0 0 0 0 2.31739e-07 9.26956e-07 2.08565e-06 3.70782e-06 5.79347e-06 8.3426e-06 1.13552e-05 1.48313e-05 1.8963e-05 2.39423e-05 2.97694e-05 3.64441e-05 4.39666e-05 5.23368e-05 6.15546e-05 7.16201e-05 8.22091e-05 9.29973e-05 0.000103985 0.000115171 0.000126557 0.000138142 0.000149927 0.00016191 0.000173795 0.000185284 0.000196377 0.000207073 0.000217373 0.000227277 0.000236785 0.000245896 0.000254539 0.000262642 0.000270203 0.000277225 0.000283706 0.000289646 0.000295046 0.000299905 0.000304352 0.000308517 0.000312399 0.000315998 0.000319315 0.000322348 0.000325099 0.000327568 0.000329955 0.000332464 0.000335095 0.000337847 0.00034072 0.000343715 0.000346832 0.000350069 0.000353538 0.000357347 0.000361495 0.000365984 0.000370813 0.000375981 0.00038149 0.000387339 0.000393436 0.000399691 0.000406104 0.000412675 0.000419403 0.000426289 0.000433333 0.000440534 0.000447624 0.000454336 0.000460667 0.000466619 0.000472192 0.000477385 0.000482199 0.000486634 0.000490393 0.000493183 0.000495001 0.00049585 0.000495728 0.000494636 0.000492574 0.000489541 0.000485412 0.000480062 0.00047349 0.000465697 0.000456682 0.000446445 0.000434987 0.000422308 0.000408588 0.000394012 0.000378577 0.000362286 0.000345136 0.000327129 0.000308265 0.000288543 0.000268483 0.000248608 0.000228915 0.000209406 0.00019008 0.000170937 0.000151978 0.000133202 0.000115229 9.86779e-05 8.35487e-05 6.98415e-05 5.75563e-05 4.66931e-05 3.72519e-05 2.92328e-05 2.23813e-05 1.64434e-05 1.1419e-05 7.30819e-06 4.11086e-06 1.82705e-06 4.56762e-07 0 0 9.26956e-07 3.70782e-06 8.3426e-06 1.48313e-05 2.31739e-05 3.33704e-05 4.54208e-05 5.93252e-05 7.58519e-05 9.57693e-05 0.000119078 0.000145777 0.000175866 0.000209347 0.000246218 0.000286481 0.000328837 0.000371989 0.000415939 0.000460686 0.000506229 0.00055257 0.000599707 0.000647641 0.000695181 0.000741136 0.000785506 0.000828292 0.000869492 0.000909108 0.000947138 0.000983584 0.00101816 0.00105057 0.00108081 0.0011089 0.00113482 0.00115858 0.00118018 0.00119962 0.00121741 0.00123407 0.0012496 0.00126399 0.00127726 0.00128939 0.0013004 0.00131027 0.00131982 0.00132986 0.00134038 0.00135139 0.00136288 0.00137486 0.00138733 0.00140028 0.00141415 0.00142939 0.00144598 0.00146394 0.00148325 0.00150393 0.00152596 0.00154935 0.00157374 0.00159876 0.00162442 0.0016507 0.00167761 0.00170516 0.00173333 0.00176214 0.0017905 0.00181734 0.00184267 0.00186648 0.00188877 0.00190954 0.0019288 0.00194654 0.00196157 0.00197273 0.00198001 0.0019834 0.00198291 0.00197854 0.00197029 0.00195816 0.00194165 0.00192025 0.00189396 0.00186279 0.00182673 0.00178578 0.00173995 0.00168923 0.00163435 0.00157605 0.00151431 0.00144914 0.00138054 0.00130852 0.00123306 0.00115417 0.00107393 0.00099443 0.00091566 0.000837623 0.00076032 0.00068375 0.000607913 0.000532809 0.000460917 0.000394712 0.000334195 0.000279366 0.000230225 0.000186773 0.000149008 0.000116931 8.95253e-05 6.57737e-05 4.56762e-05 2.92328e-05 1.64434e-05 7.30819e-06 1.82705e-06 0 0 2.08565e-06 8.3426e-06 1.87709e-05 3.33704e-05 5.21413e-05 7.50834e-05 0.000102197 0.000133482 0.000170667 0.000215481 0.000267925 0.000327997 0.000395699 0.000471031 0.000553991 0.000644581 0.000739882 0.000836976 0.000935863 0.00103654 0.00113902 0.00124328 0.00134934 0.00145719 0.00156416 0.00166756 0.00176739 0.00186366 0.00195636 0.00204549 0.00213106 0.00221306 0.00229085 0.00236377 0.00243183 0.00249502 0.00255335 0.00260681 0.00265541 0.00269914 0.00273917 0.00277665 0.00281159 0.00284398 0.00287383 0.00290114 0.00292589 0.00294811 0.0029696 0.00299218 0.00301585 0.00304062 0.00306648 0.00309344 0.00312148 0.00315063 0.00318184 0.00321612 0.00325346 0.00329386 0.00333731 0.00338383 0.00343341 0.00348605 0.00354092 0.00359722 0.00365494 0.00371407 0.00377463 0.0038366 0.00389999 0.00396481 0.00402862 0.00408902 0.004146 0.00419957 0.00424973 0.00429647 0.00433979 0.0043797 0.00441354 0.00443864 0.00445501 0.00446265 0.00446155 0.00445173 0.00443316 0.00440587 0.00436871 0.00432056 0.00426141 0.00419127 0.00411014 0.00401801 0.00391489 0.00380077 0.0036773 0.00354611 0.0034072 0.00326057 0.00310623 0.00294416 0.00277438 0.00259688 0.00241635 0.00223747 0.00206024 0.00188465 0.00171072 0.00153844 0.0013678 0.00119882 0.00103706 0.000888102 0.000751939 0.000628574 0.000518007 0.000420238 0.000335268 0.000263095 0.000201432 0.000147991 0.000102771 6.57737e-05 3.69977e-05 1.64434e-05 4.11086e-06 0 0 3.70782e-06 1.48313e-05 3.33704e-05 5.93252e-05 9.26956e-05 0.000133482 0.000181683 0.000237301 0.000303407 0.000383077 0.00047631 0.000583106 0.000703466 0.000837388 0.000984873 0.00114592 0.00131535 0.00148796 0.00166376 0.00184274 0.00202492 0.00221028 0.00239883 0.00259056 0.00278072 0.00296454 0.00314203 0.00331317 0.00347797 0.00363643 0.00378855 0.00393434 0.00407262 0.00420226 0.00432325 0.0044356 0.00453929 0.00463433 0.00472073 0.00479848 0.00486964 0.00493627 0.00499838 0.00505597 0.00510904 0.00515758 0.00520159 0.00524108 0.00527928 0.00531943 0.00536151 0.00540555 0.00545152 0.00549944 0.0055493 0.00560111 0.00565661 0.00571755 0.00578393 0.00585575 0.005933 0.0060157 0.00610384 0.00619742 0.00629498 0.00639506 0.00649767 0.00660279 0.00671045 0.00682062 0.00693332 0.00704854 0.00716199 0.00726937 0.00737067 0.00746591 0.00755507 0.00763817 0.00771519 0.00778614 0.00784629 0.00789092 0.00792002 0.0079336 0.00793165 0.00791418 0.00788118 0.00783266 0.0077666 0.00768099 0.00757584 0.00745115 0.00730691 0.00714313 0.0069598 0.00675692 0.00653742 0.00630419 0.00605724 0.00579657 0.00552218 0.00523407 0.00493224 0.00461668 0.00429573 0.00397772 0.00366264 0.00335049 0.00304128 0.002735 0.00243165 0.00213124 0.00184367 0.00157885 0.00133678 0.00111746 0.000920901 0.00074709 0.000596031 0.000467724 0.000358101 0.000263095 0.000182705 0.000116931 6.57737e-05 2.92328e-05 7.30819e-06 0 0 5.79347e-06 2.31739e-05 5.21413e-05 9.26956e-05 0.000144837 0.000208565 0.00028388 0.000370782 0.000474074 0.000598558 0.000744235 0.000911104 0.00109917 0.00130842 0.00153886 0.0017905 0.00205523 0.00232493 0.00259962 0.00287929 0.00316393 0.00345356 0.00374817 0.00404776 0.00434488 0.0046321 0.00490942 0.00517682 0.00543433 0.00568192 0.00591961 0.0061474 0.00636348 0.00656604 0.00675509 0.00693062 0.00709264 0.00724115 0.00737614 0.00749762 0.00760881 0.00771293 0.00780998 0.00789996 0.00798287 0.00805871 0.00812748 0.00818919 0.00824888 0.0083116 0.00837737 0.00844617 0.008518 0.00859288 0.00867079 0.00875174 0.00883845 0.00893367 0.00903739 0.0091496 0.00927032 0.00939953 0.00953725 0.00968347 0.0098359 0.00999228 0.0101526 0.0103169 0.0104851 0.0106572 0.0108333 0.0110133 0.0111906 0.0113584 0.0115167 0.0116655 0.0118048 0.0119346 0.012055 0.0121658 0.0122598 0.0123296 0.012375 0.0123962 0.0123932 0.0123659 0.0123143 0.0122385 0.0121353 0.0120016 0.0118373 0.0116424 0.011417 0.0111611 0.0108747 0.0105577 0.0102147 0.00985029 0.00946444 0.00905714 0.0086284 0.00817823 0.00770662 0.00721357 0.00671209 0.00621519 0.00572288 0.00523515 0.004752 0.00427344 0.00379946 0.00333006 0.00288073 0.00246695 0.00208872 0.00174604 0.00143891 0.00116733 0.000931299 0.000730819 0.000559533 0.000411086 0.000285476 0.000182705 0.000102771 4.56762e-05 1.1419e-05 0 0 8.3426e-06 3.33704e-05 7.50834e-05 0.000133482 0.000208565 0.000300334 0.000408788 0.000533927 0.000682667 0.000861924 0.0010717 0.00131199 0.0015828 0.00188412 0.00221597 0.00257832 0.00295953 0.0033479 0.00374345 0.00414617 0.00455606 0.00497313 0.00539736 0.00582877 0.00625663 0.00667023 0.00706956 0.00745463 0.00782543 0.00818197 0.00852425 0.00885226 0.00916341 0.00945509 0.00972732 0.00998009 0.0102134 0.0104273 0.0106216 0.0107966 0.0109567 0.0111066 0.0112464 0.0113759 0.0114953 0.0116045 0.0117036 0.0117924 0.0118784 0.0119687 0.0120634 0.0121625 0.0122659 0.0123737 0.0124859 0.0126025 0.0127274 0.0128645 0.0130138 0.0131754 0.0133493 0.0135353 0.0137336 0.0139442 0.0141637 0.0143889 0.0146197 0.0148563 0.0150985 0.0153464 0.0156 0.0158592 0.0161145 0.0163561 0.016584 0.0167983 0.0169989 0.0171859 0.0173592 0.0175188 0.0176542 0.0177546 0.0178201 0.0178506 0.0178462 0.0178069 0.0177327 0.0176235 0.0174748 0.0172822 0.0170456 0.0167651 0.0164405 0.016072 0.0156595 0.0152031 0.0147092 0.0141844 0.0136288 0.0130423 0.0124249 0.0117767 0.0110975 0.0103875 0.0096654 0.00894987 0.00824094 0.00753861 0.00684288 0.00615375 0.00547122 0.00479529 0.00414825 0.00355241 0.00300775 0.0025143 0.00207203 0.00168095 0.00134107 0.00105238 0.000805728 0.000591963 0.000411086 0.000263095 0.000147991 6.57737e-05 1.64434e-05 0 0 1.13552e-05 4.54208e-05 0.000102197 0.000181683 0.00028388 0.000408788 0.000556405 0.000726733 0.000929185 0.00117317 0.0014587 0.00178576 0.00215436 0.0025645 0.00301618 0.00350939 0.00402825 0.00455687 0.00509525 0.0056434 0.00620131 0.00676898 0.00734641 0.0079336 0.00851597 0.00907892 0.00962245 0.0101466 0.0106513 0.0111366 0.0116024 0.0120489 0.0124724 0.0128694 0.01324 0.013584 0.0139016 0.0141926 0.0144572 0.0146953 0.0149133 0.0151173 0.0153076 0.0154839 0.0156464 0.0157951 0.0159299 0.0160508 0.0161678 0.0162907 0.0164196 0.0165545 0.0166953 0.016842 0.0169947 0.0171534 0.0173234 0.01751 0.0177133 0.0179332 0.0181698 0.0184231 0.018693 0.0189796 0.0192784 0.0195849 0.0198991 0.0202211 0.0205507 0.0208882 0.0212333 0.0215862 0.0219336 0.0222624 0.0225727 0.0228643 0.0231374 0.0233919 0.0236278 0.0238451 0.0240293 0.0241659 0.0242551 0.0242966 0.0242907 0.0242372 0.0241361 0.0239875 0.0237852 0.023523 0.023201 0.0228191 0.0223774 0.0218758 0.0213144 0.0206931 0.0200208 0.0193066 0.0185503 0.017752 0.0169117 0.0160293 0.015105 0.0141386 0.0131557 0.0121818 0.0112168 0.0102609 0.00931392 0.00837594 0.00744693 0.00652692 0.00564623 0.00483522 0.00409389 0.00342224 0.00282026 0.00228796 0.00182535 0.00143241 0.00109669 0.000805728 0.000559533 0.000358101 0.000201432 8.95253e-05 2.23813e-05 0 0 1.48313e-05 5.93252e-05 0.000133482 0.000237301 0.000370782 0.000533927 0.000726733 0.000949203 0.00121363 0.00153231 0.00190524 0.00233243 0.00281386 0.00334955 0.00393949 0.00458369 0.00526138 0.00595183 0.00665503 0.00737097 0.00809967 0.00884111 0.00959531 0.0103623 0.0111229 0.0118582 0.0125681 0.0132527 0.0139119 0.0145457 0.0151542 0.0157373 0.0162905 0.0168091 0.017293 0.0177424 0.0181572 0.0185373 0.0188829 0.0191939 0.0194785 0.0197451 0.0199935 0.0202239 0.0204361 0.0206303 0.0208064 0.0209643 0.0211171 0.0212777 0.0214461 0.0216222 0.0218061 0.0219978 0.0221972 0.0224044 0.0226264 0.0228702 0.0231357 0.023423 0.023732 0.0240628 0.0244154 0.0247897 0.0251799 0.0255802 0.0259907 0.0264112 0.0268418 0.0272825 0.0277333 0.0281942 0.028648 0.0290775 0.0294827 0.0298636 0.0302203 0.0305527 0.0308608 0.0311446 0.0313852 0.0315637 0.0316801 0.0317344 0.0317266 0.0316567 0.0315247 0.0313306 0.0310664 0.030724 0.0303034 0.0298046 0.0292276 0.0285725 0.0278392 0.0270277 0.0261497 0.0252168 0.024229 0.0231863 0.0220887 0.0209363 0.0197289 0.0184667 0.0171829 0.0159109 0.0146506 0.013402 0.0121651 0.01094 0.00972661 0.00852495 0.00737467 0.00631539 0.00534712 0.00446986 0.00368361 0.00298836 0.00238412 0.0018709 0.00143241 0.00105238 0.000730819 0.000467724 0.000263095 0.000116931 2.92328e-05 0 0 1.90264e-05 7.61056e-05 0.000171238 0.000304422 0.00047566 0.00068495 0.000932293 0.00121769 0.0015565 0.0019641 0.00244047 0.00298563 0.00359956 0.00428228 0.00503378 0.00585406 0.00671677 0.00759556 0.00849043 0.00940138 0.0103284 0.0112715 0.0122307 0.013206 0.0141732 0.0151083 0.0160113 0.0168821 0.0177208 0.0185274 0.0193018 0.0200441 0.0207483 0.0214087 0.0220251 0.0225977 0.0231263 0.0236111 0.0240519 0.0244489 0.0248124 0.0251528 0.0254701 0.0257643 0.0260354 0.0262835 0.0265085 0.0267104 0.0269056 0.0271104 0.0273249 0.027549 0.0277827 0.0280261 0.0282791 0.0285418 0.0288229 0.0291314 0.0294673 0.0298305 0.030221 0.030639 0.0310842 0.0315568 0.0320494 0.0325546 0.0330725 0.0336029 0.034146 0.0347017 0.0352701 0.035851 0.0364229 0.0369639 0.0374742 0.0379535 0.0384021 0.0388198 0.0392068 0.0395628 0.0398642 0.040087 0.0402311 0.0402966 0.0402835 0.0401918 0.0400214 0.0397725 0.0394348 0.0389981 0.0384626 0.0378282 0.0370949 0.0362626 0.0353315 0.0343015 0.0331873 0.0320037 0.0307507 0.0294283 0.0280366 0.0265754 0.0250448 0.0234448 0.0218175 0.020205 0.0186071 0.017024 0.0154556 0.013902 0.012363 0.0108388 0.00937953 0.00803527 0.00680606 0.0056919 0.00469278 0.00380872 0.00303971 0.00238575 0.00182659 0.00134198 0.000931933 0.000596437 0.000335496 0.000149109 3.72773e-05 0 0 2.41961e-05 9.67842e-05 0.000217764 0.000387137 0.000604901 0.000871058 0.00118561 0.00154855 0.0019783 0.0024933 0.00309354 0.00377901 0.00454973 0.00540569 0.00634688 0.00737332 0.00845222 0.00955083 0.0106691 0.0118071 0.0129648 0.0141422 0.0153393 0.0165561 0.0177628 0.0189297 0.0200569 0.0211442 0.0221917 0.0231995 0.0241674 0.0250955 0.0259765 0.026803 0.0275749 0.0282923 0.0289552 0.0295637 0.0301175 0.0306169 0.0310745 0.0315032 0.0319028 0.0322735 0.0326152 0.0329279 0.0332117 0.0334664 0.0337123 0.0339696 0.0342382 0.0345182 0.0348095 0.0351122 0.0354262 0.0357515 0.0360991 0.03648 0.0368941 0.0373415 0.0378221 0.038336 0.0388831 0.0394634 0.0400679 0.0406877 0.0413225 0.0419726 0.0426378 0.0433182 0.0440138 0.0447245 0.0454237 0.0460846 0.0467072 0.0472914 0.0478374 0.048345 0.0488144 0.0492454 0.0496088 0.049875 0.0500441 0.050116 0.0500909 0.0499686 0.0497492 0.0494327 0.0490067 0.0484587 0.0477887 0.0469967 0.0460827 0.0450468 0.0438888 0.0426089 0.0412253 0.0397561 0.0382015 0.0365614 0.0348357 0.0330246 0.031128 0.0291458 0.0271299 0.0251318 0.0231515 0.0211891 0.0192446 0.0173179 0.015409 0.013518 0.0117068 0.0100372 0.00850931 0.00712308 0.00587852 0.00477562 0.0038144 0.00299486 0.00229294 0.00168461 0.00116987 0.000748714 0.000421152 0.000187178 4.67946e-05 0 0 3.03403e-05 0.000121361 0.000273062 0.000485444 0.000758507 0.00109225 0.00148667 0.00194178 0.00247904 0.00311992 0.00386444 0.00471259 0.00566437 0.00671977 0.00787881 0.00914147 0.0104678 0.0118176 0.0131911 0.0145882 0.0160089 0.0174532 0.018921 0.0204125 0.0218916 0.0233224 0.0247048 0.0260389 0.0273246 0.028562 0.0297511 0.0308918 0.0319751 0.0329919 0.0339424 0.0348264 0.0356439 0.036395 0.0370797 0.037698 0.0382651 0.0387964 0.0392919 0.0397516 0.0401755 0.0405636 0.0409159 0.0412324 0.0415374 0.0418553 0.0421862 0.0425299 0.0428865 0.043256 0.0436384 0.0440337 0.0444551 0.044916 0.0454163 0.0459561 0.0465353 0.0471539 0.0478119 0.0485094 0.0492355 0.0499793 0.0507409 0.0515202 0.0523172 0.053132 0.0539645 0.0548147 0.0556504 0.0564395 0.0571817 0.0578773 0.0585261 0.0591283 0.0596836 0.0601923 0.0606188 0.0609277 0.061119 0.0611927 0.0611488 0.0609873 0.0607081 0.0603114 0.0597822 0.0591056 0.0582815 0.0573101 0.0561912 0.0549249 0.0535112 0.0519501 0.0502637 0.0484741 0.0465813 0.0445854 0.0424862 0.0402839 0.0379784 0.0355697 0.03312 0.0306914 0.0282838 0.0258974 0.023532 0.0211878 0.0188646 0.0165625 0.0143564 0.0123212 0.0104569 0.0087634 0.0072408 0.00588907 0.00470821 0.00369822 0.00283145 0.00208025 0.00144462 0.000924555 0.000520062 0.000231139 5.77847e-05 0 0 3.7459e-05 0.000149836 0.000337131 0.000599344 0.000936476 0.00134853 0.00183549 0.00239738 0.0030587 0.00384397 0.00475318 0.00578635 0.00694347 0.00822454 0.00962956 0.0111585 0.0127634 0.014396 0.0160564 0.0177446 0.0194606 0.0212044 0.0229759 0.0247753 0.0265597 0.0282863 0.0299551 0.0315662 0.0331195 0.034615 0.0360528 0.0374328 0.038744 0.0399756 0.0411275 0.0421998 0.0431924 0.0441053 0.0449385 0.045692 0.046384 0.0470324 0.0476372 0.0481985 0.0487163 0.0491905 0.0496212 0.0500083 0.0503808 0.0507676 0.0511687 0.051584 0.0520136 0.0524576 0.0529157 0.0533882 0.0538908 0.0544393 0.0550338 0.0556741 0.0563604 0.0570927 0.0578708 0.0586949 0.0595521 0.0604297 0.0613275 0.0622457 0.0631842 0.064143 0.0651221 0.0661215 0.067103 0.0680285 0.0688979 0.0697112 0.0704684 0.0711695 0.0718145 0.0724035 0.0728943 0.0732451 0.0734559 0.0735265 0.0734571 0.0732477 0.0728981 0.0724085 0.0717613 0.0709388 0.0699412 0.0687683 0.0674203 0.065897 0.0641986 0.0623249 0.0603025 0.0581576 0.0558902 0.0535003 0.0509881 0.0483533 0.0455961 0.0427165 0.0397878 0.0368836 0.0340039 0.0311487 0.0283179 0.0255116 0.0227297 0.0199723 0.0173285 0.0148873 0.0126488 0.0106129 0.00877964 0.00714905 0.00572112 0.00449584 0.00344212 0.00252891 0.00175619 0.00112396 0.000632227 0.00028099 7.02474e-05 0 0 4.55524e-05 0.000182209 0.000409971 0.000728838 0.00113881 0.00163988 0.00223207 0.00291535 0.00371729 0.00466543 0.00575976 0.0070003 0.00838704 0.00991998 0.0115991 0.0134245 0.015339 0.0172859 0.019265 0.0212763 0.02332 0.0253959 0.027504 0.0296444 0.031767 0.0338214 0.0358078 0.0377261 0.0395763 0.0413584 0.0430725 0.0447185 0.0462833 0.047754 0.0491304 0.0504126 0.0516005 0.0526943 0.0536938 0.0545991 0.0554312 0.0562111 0.0569388 0.0576143 0.0582376 0.0588087 0.0593275 0.0597942 0.0602425 0.0607064 0.0611858 0.0616806 0.062191 0.0627169 0.0632583 0.0638152 0.0644062 0.06505 0.0657465 0.0664957 0.0672977 0.0681523 0.0690597 0.0700198 0.0710178 0.0720387 0.0730824 0.0741491 0.0752387 0.0763512 0.0774866 0.0786449 0.0797815 0.0808517 0.0818556 0.082793 0.0836641 0.0844687 0.085207 0.0858789 0.0864354 0.0868273 0.0870547 0.0871176 0.087016 0.0867498 0.0863192 0.085724 0.0849439 0.0839584 0.0827676 0.0813715 0.07977 0.0779632 0.075951 0.0737335 0.0713417 0.0688065 0.0661281 0.0633063 0.0603412 0.0572328 0.0539811 0.0505861 0.0471334 0.0437087 0.0403119 0.0369431 0.0336022 0.0302893 0.0270044 0.0237474 0.0206229 0.0177354 0.015085 0.0126715 0.010495 0.00855558 0.00685314 0.00538771 0.00412497 0.00303059 0.00210457 0.00134693 0.000757647 0.000336732 8.4183e-05 0 0 5.46202e-05 0.000218481 0.000491582 0.000873924 0.00136551 0.00196633 0.00267639 0.00349569 0.00445481 0.00558431 0.00688418 0.00835444 0.00999508 0.0118061 0.0137875 0.0159393 0.0181948 0.0204873 0.0228168 0.0251834 0.027587 0.0300276 0.0325053 0.0350199 0.0375135 0.0399278 0.0422628 0.0445186 0.0466951 0.0487923 0.0508103 0.052749 0.0545931 0.056327 0.0579509 0.0594647 0.0608685 0.0621621 0.0633457 0.0644192 0.0654068 0.0663326 0.0671966 0.0679989 0.0687394 0.069418 0.0700349 0.0705901 0.0711226 0.0716717 0.0722374 0.0728197 0.0734185 0.074034 0.074666 0.0753146 0.0760014 0.0767481 0.0775545 0.0784208 0.0793469 0.0803329 0.0813786 0.0824842 0.0836325 0.0848063 0.0860056 0.0872304 0.0884808 0.0897567 0.0910581 0.092385 0.0936859 0.0949092 0.0960548 0.0971228 0.0981132 0.099026 0.0998611 0.100619 0.101242 0.101674 0.101916 0.101966 0.101825 0.101494 0.100971 0.100258 0.09933 0.0981644 0.0967609 0.0951195 0.0932403 0.0911233 0.0887684 0.0861757 0.0833812 0.080421 0.077295 0.0740032 0.0705457 0.0669224 0.0631334 0.0591786 0.0551567 0.0511664 0.0472077 0.0432806 0.039385 0.035521 0.0316886 0.0278878 0.0242397 0.0208656 0.0177655 0.0149392 0.012387 0.0101087 0.00810427 0.00637384 0.00487997 0.00358528 0.00248978 0.00159346 0.000896321 0.000398365 9.95912e-05 0 0 6.46627e-05 0.000258651 0.000581964 0.0010346 0.00161657 0.00232786 0.00316847 0.00413841 0.00527126 0.0066006 0.00812644 0.00984877 0.0117676 0.0138829 0.0161947 0.018703 0.0213306 0.0240003 0.026712 0.0294658 0.0322617 0.0350996 0.0379797 0.0409018 0.0437992 0.0466054 0.0493202 0.0519437 0.0544758 0.0569166 0.0592661 0.0615243 0.0636731 0.0656948 0.0675891 0.0693563 0.0709962 0.0725088 0.0738942 0.0751524 0.0763108 0.0773969 0.0784108 0.0793523 0.0802216 0.0810187 0.0817434 0.0823959 0.083021 0.0836635 0.0843236 0.0850012 0.0856963 0.0864088 0.0871389 0.0878864 0.0886763 0.0895335 0.0904578 0.0914494 0.0925082 0.0936343 0.0948276 0.0960881 0.0973962 0.0987326 0.100097 0.10149 0.10291 0.104359 0.105837 0.107342 0.108816 0.110201 0.111496 0.112701 0.113816 0.114841 0.115777 0.116623 0.117314 0.117786 0.118038 0.118071 0.117885 0.11748 0.116855 0.11601 0.11492 0.113557 0.111921 0.110012 0.107831 0.105377 0.102651 0.0996517 0.0964212 0.093001 0.0893909 0.0855911 0.0816015 0.0774221 0.0730529 0.068494 0.0638578 0.0592569 0.0546914 0.0501611 0.0456662 0.0412067 0.0367824 0.0323935 0.028179 0.0242779 0.0206903 0.0174162 0.0144555 0.0118083 0.00947451 0.00745422 0.00570714 0.004193 0.00291181 0.00186356 0.00104825 0.000465889 0.000116472 0 0 7.56796e-05 0.000302719 0.000681117 0.00121087 0.00189199 0.00272447 0.0037083 0.0048435 0.00616664 0.00771432 0.00948653 0.0114833 0.0137046 0.0161504 0.0188208 0.0217156 0.0247465 0.0278248 0.0309505 0.0341235 0.037344 0.0406119 0.0439272 0.04729 0.0506242 0.0538542 0.0569799 0.0600014 0.0629185 0.0657314 0.06844 0.0710443 0.0735236 0.0758572 0.0780451 0.0800872 0.0819836 0.0837343 0.0853393 0.0867986 0.0881431 0.089404 0.0905811 0.0916746 0.0926844 0.0936105 0.0944529 0.0952117 0.0959377 0.0966819 0.0974444 0.0982252 0.0990242 0.0998414 0.100677 0.101531 0.102431 0.103406 0.104456 0.105582 0.106782 0.108057 0.109406 0.110831 0.112309 0.113818 0.115357 0.116927 0.118528 0.120159 0.121822 0.123515 0.125172 0.126727 0.128178 0.129526 0.130772 0.131915 0.132954 0.133891 0.134651 0.135162 0.135423 0.135434 0.135195 0.134707 0.133969 0.132981 0.131713 0.130135 0.128248 0.12605 0.123543 0.120726 0.117598 0.114161 0.110462 0.106546 0.102416 0.09807 0.0935087 0.0887319 0.0837398 0.0785322 0.0732366 0.0679801 0.0627629 0.0575848 0.0524459 0.0473463 0.0422858 0.0372645 0.0324406 0.0279722 0.0238594 0.0201022 0.0167005 0.0136544 0.0109639 0.00862886 0.00660647 0.00485374 0.00337065 0.00215722 0.00121343 0.000539304 0.000134826 0 0 8.74837e-05 0.000349935 0.000787353 0.00139974 0.00218709 0.00314941 0.0042867 0.00559896 0.00712574 0.00890661 0.0109416 0.0132306 0.0157737 0.018571 0.0216223 0.0249277 0.0283866 0.0318983 0.035463 0.0390805 0.042751 0.0464743 0.0502505 0.0540796 0.0578762 0.0615549 0.0651156 0.0685585 0.0718833 0.0750903 0.0781794 0.0811505 0.08398 0.0866443 0.0891433 0.091477 0.0936455 0.0956488 0.0974868 0.0991595 0.100702 0.102148 0.103498 0.104752 0.10591 0.106972 0.107939 0.108809 0.10964 0.11049 0.111359 0.112246 0.113152 0.114076 0.115019 0.115981 0.116993 0.118088 0.119265 0.120525 0.121867 0.123292 0.1248 0.12639 0.128038 0.129719 0.131434 0.133182 0.134963 0.136778 0.138626 0.140508 0.142348 0.144071 0.145678 0.147168 0.148542 0.149799 0.15094 0.151964 0.15279 0.153334 0.153597 0.15358 0.15328 0.1527 0.151839 0.150697 0.149239 0.147434 0.14528 0.142779 0.139929 0.13673 0.133184 0.129289 0.125099 0.120668 0.115994 0.111079 0.105922 0.100524 0.0948833 0.0890011 0.0830195 0.0770811 0.0711857 0.0653334 0.0595242 0.0537582 0.0480352 0.0423553 0.0368966 0.0318369 0.0271764 0.0229151 0.0190529 0.0155898 0.0125258 0.009861 0.00754983 0.00554681 0.00385195 0.00246525 0.0013867 0.000616312 0.000154078 0 0 9.98873e-05 0.000399549 0.000898986 0.0015982 0.00249718 0.00359594 0.00489448 0.00639279 0.00813335 0.0101586 0.0124686 0.0150634 0.0179429 0.021107 0.024556 0.0282896 0.0321948 0.0361584 0.0401804 0.0442607 0.0483995 0.0525966 0.0568521 0.061166 0.065443 0.069588 0.0736009 0.0774817 0.0812305 0.0848471 0.0883317 0.0916842 0.0948779 0.097886 0.100708 0.103345 0.105797 0.108062 0.110143 0.112037 0.113784 0.115422 0.116951 0.118371 0.119682 0.120883 0.121975 0.122958 0.123896 0.124852 0.125826 0.126819 0.127829 0.128858 0.129905 0.13097 0.13209 0.133299 0.134598 0.135986 0.137465 0.139033 0.140691 0.142438 0.144249 0.146095 0.147977 0.149894 0.151848 0.153837 0.155861 0.157922 0.159935 0.161818 0.163571 0.165194 0.166687 0.168049 0.169281 0.170384 0.171265 0.171833 0.172089 0.172033 0.171664 0.170983 0.16999 0.168684 0.167028 0.164986 0.162558 0.159743 0.156542 0.152954 0.14898 0.144619 0.139931 0.134975 0.129751 0.124259 0.118498 0.11247 0.106173 0.0996083 0.092933 0.0863047 0.0797233 0.0731888 0.0667013 0.0602607 0.0538671 0.0475205 0.0414188 0.0357603 0.0305448 0.0257724 0.0214432 0.017557 0.0141139 0.0111139 0.00850905 0.00625155 0.00434135 0.00277847 0.00156289 0.000694617 0.000173654 0 0 0.00011289 0.000451562 0.00101601 0.00180625 0.00282226 0.00406406 0.00553163 0.00722499 0.00918946 0.0114704 0.0140678 0.0169816 0.0202119 0.0237586 0.0276218 0.0318015 0.0361713 0.040605 0.0451026 0.0496641 0.0542895 0.0589788 0.0637319 0.068549 0.0733246 0.0779535 0.0824357 0.0867711 0.0909598 0.0950018 0.098897 0.102645 0.106217 0.109582 0.112741 0.115692 0.118437 0.120975 0.123306 0.125431 0.127391 0.129227 0.130941 0.132531 0.133998 0.135342 0.136563 0.137661 0.138706 0.139768 0.140847 0.141943 0.143056 0.144187 0.145335 0.1465 0.147721 0.14904 0.150455 0.151966 0.153574 0.155279 0.15708 0.158978 0.160942 0.162945 0.164986 0.167064 0.169181 0.171335 0.173527 0.175758 0.177935 0.179968 0.181858 0.183604 0.185206 0.186664 0.187978 0.189149 0.190076 0.190659 0.190899 0.190795 0.190347 0.189556 0.188421 0.186942 0.185079 0.182792 0.18008 0.176944 0.173382 0.169397 0.164986 0.160152 0.154957 0.149468 0.143685 0.137608 0.131236 0.12457 0.117609 0.110354 0.102977 0.0956509 0.0883756 0.081151 0.0739771 0.066854 0.0597816 0.05276 0.0460074 0.0397423 0.0339646 0.0286743 0.0238715 0.019556 0.015728 0.0123875 0.00948415 0.00696795 0.00483885 0.00309687 0.00174199 0.000774217 0.000193554 0 0 0.000126493 0.000505973 0.00113844 0.00202389 0.00316233 0.00455375 0.00619817 0.00809556 0.0102941 0.0128419 0.0157389 0.0189853 0.0225809 0.0265257 0.0308199 0.0354632 0.040316 0.0452381 0.0502297 0.0552907 0.0604211 0.0656208 0.0708901 0.0762287 0.081521 0.0866515 0.0916201 0.0964267 0.101071 0.105554 0.109875 0.114034 0.117998 0.121733 0.12524 0.128517 0.131566 0.134387 0.136979 0.139342 0.141522 0.143563 0.145467 0.147233 0.148861 0.15035 0.151702 0.152916 0.154068 0.155236 0.15642 0.157619 0.158833 0.160062 0.161308 0.162568 0.163888 0.165311 0.166836 0.168465 0.170196 0.17203 0.173967 0.176007 0.178119 0.18027 0.182461 0.184692 0.186963 0.189274 0.191624 0.194015 0.196347 0.198521 0.200538 0.202397 0.204099 0.205643 0.20703 0.20826 0.209223 0.209812 0.210025 0.209864 0.209328 0.208418 0.207132 0.205472 0.203393 0.200851 0.197847 0.19438 0.190451 0.186058 0.181204 0.175886 0.170177 0.164148 0.157798 0.151127 0.144135 0.136824 0.129191 0.121238 0.113152 0.10512 0.0971427 0.0892199 0.0813517 0.0735379 0.0657786 0.0580738 0.0506623 0.043783 0.0374358 0.0316207 0.0263378 0.021587 0.0173683 0.0136818 0.0104751 0.00769601 0.00534445 0.00342045 0.001924 0.000855112 0.000213778 0 0 0.000140695 0.000562782 0.00126626 0.00225113 0.00351739 0.00506504 0.00689408 0.00900451 0.0114472 0.0142731 0.0174822 0.0210744 0.0250498 0.0294083 0.03415 0.0392749 0.0446289 0.0500578 0.0555616 0.0611404 0.0667942 0.0725228 0.0783264 0.084205 0.0900322 0.0956819 0.101154 0.106448 0.111565 0.116505 0.121267 0.125851 0.13022 0.134339 0.138206 0.141821 0.145185 0.148298 0.151159 0.153769 0.156176 0.15843 0.16053 0.162476 0.164269 0.165907 0.167392 0.168724 0.169985 0.171259 0.172546 0.173846 0.175159 0.176485 0.177824 0.179176 0.180589 0.182111 0.183742 0.185481 0.18733 0.189287 0.191353 0.193528 0.195778 0.198069 0.200402 0.202777 0.205194 0.207652 0.210152 0.212694 0.215171 0.217477 0.219611 0.221575 0.223367 0.224988 0.226438 0.227717 0.228707 0.229291 0.22947 0.229242 0.228609 0.227569 0.226124 0.224273 0.221969 0.219164 0.215859 0.212053 0.207746 0.202939 0.197632 0.191824 0.185592 0.179013 0.172088 0.164816 0.157197 0.149232 0.140919 0.13226 0.123457 0.114712 0.106024 0.0973956 0.088825 0.0803125 0.0718581 0.063462 0.0553835 0.0478823 0.0409583 0.0346116 0.0288421 0.0236498 0.0190347 0.0149969 0.011482 0.00843574 0.00585815 0.00374922 0.00210893 0.000937304 0.000234326 0 0 0.000155497 0.000621989 0.00139948 0.00248796 0.00388743 0.0055979 0.00761937 0.00995183 0.0126489 0.0157641 0.0192974 0.0232489 0.0276186 0.0324064 0.0376124 0.0432366 0.04911 0.055064 0.0610984 0.0672134 0.0734088 0.0796847 0.0860411 0.092478 0.0988582 0.105045 0.111037 0.116836 0.122442 0.127853 0.133071 0.138095 0.142884 0.147399 0.151639 0.155603 0.159293 0.162708 0.165848 0.168713 0.171355 0.173827 0.176129 0.178261 0.180222 0.182013 0.183634 0.185084 0.186454 0.187835 0.189225 0.190625 0.192035 0.193454 0.194884 0.196324 0.197826 0.199442 0.201172 0.203017 0.204976 0.207049 0.209236 0.211538 0.213919 0.216343 0.21881 0.22132 0.223874 0.226471 0.229111 0.231795 0.234407 0.236835 0.239078 0.241136 0.243009 0.244697 0.246201 0.247519 0.248527 0.249097 0.249231 0.248928 0.248188 0.247011 0.245397 0.243346 0.240807 0.237731 0.234115 0.229962 0.22527 0.220039 0.21427 0.207963 0.2012 0.194065 0.186556 0.178675 0.170421 0.161794 0.152794 0.143421 0.133892 0.124426 0.115021 0.105678 0.096397 0.0871777 0.0780202 0.0689245 0.0601711 0.0520403 0.0445323 0.037647 0.0313843 0.0257444 0.0207272 0.0163327 0.0125047 0.00918713 0.00637995 0.00408317 0.00229678 0.00102079 0.000255198 0 0 0.000170899 0.000683595 0.00153809 0.00273438 0.00427247 0.00615235 0.00837403 0.0109375 0.013899 0.0173147 0.0211847 0.0255089 0.0302874 0.03552 0.0412069 0.0473481 0.0537594 0.0602567 0.0668401 0.0735095 0.080265 0.0871065 0.094034 0.101048 0.107999 0.11474 0.12127 0.127591 0.1337 0.139599 0.145288 0.150766 0.15599 0.160914 0.165538 0.169864 0.17389 0.177617 0.181045 0.184173 0.187058 0.189755 0.192265 0.194587 0.196721 0.198667 0.200426 0.201997 0.203478 0.204964 0.206456 0.207955 0.20946 0.210971 0.212488 0.214011 0.215597 0.217302 0.219126 0.22107 0.223134 0.225316 0.227618 0.23004 0.232543 0.235091 0.237684 0.240321 0.243003 0.24573 0.248501 0.251317 0.254056 0.256597 0.258938 0.261081 0.263026 0.264772 0.266319 0.267668 0.268683 0.269231 0.26931 0.268922 0.268066 0.266742 0.26495 0.26269 0.259908 0.256551 0.252617 0.248106 0.24302 0.237358 0.23112 0