<?xml version="1.0"?> 
<VTKFile type="StructuredGrid" version="0.1"> 
<StructuredGrid WholeExtent="0 128 0 128 0 0"> 
<Piece Extent="0 128 0 128 0 0"> 
<PointData>
<DataArray type="Float32" Name="u" format="ascii" NumberOfComponents="1"> 
0 0 0 0 0 0 0 0 0 0 0 0 0 0 0 0 0 0 0 0 0 0 0 0 0 0 0 0 0 0 0 0 0 0 0 0 0 0 0 0 0 0 0 0 0 0 0 0 0 0 0 0 0 0 0 0 0 0 0 0 0 0 0 0 0 0 0 0 0 0 0 0 0 0 0 0 0 0 0 0 0 0 0 0 0 0 0 0 0 0 0 0 0 0 0 0 0 0 0 0 0 0 0 0 0 0 0 0 0 0 0 0 0 0 0 0 0 0 0 0 0 0 0 0 0 0 0 0 0 0 1.76906e-07 7.07623e-07 1.59215e-06 2.83049e-06 4.42265e-06 6.36861e-06 8.66839e-06 1.1322e-05 1.45068e-05 1.84004e-05 2.30028e-05 2.83138e-05 3.43336e-05 4.10621e-05 4.84994e-05 5.66454e-05 6.5275e-05 7.41632e-05 8.331e-05 9.27154e-05 0.000102379 0.000112302 0.000122483 0.000132923 0.00014339 0.000153654 0.000163715 0.000173573 0.000183228 0.00019268 0.000201928 0.000210973 0.000219734 0.000228126 0.000236152 0.00024381 0.000251101 0.000258024 0.000264581 0.000270769 0.000276645 0.000282261 0.000287619 0.000292717 0.000297556 0.000302135 0.000306456 0.000310517 0.000314428 0.000318297 0.000322125 0.000325911 0.000329656 0.000333359 0.00033702 0.00034064 0.000344275 0.000347982 0.000351761 0.000355612 0.000359535 0.00036353 0.000367597 0.000371735 0.000375882 0.000379974 0.00038401 0.00038799 0.000391914 0.000395783 0.000399596 0.000403354 0.000406889 0.000410033 0.000412786 0.000415149 0.000417122 0.000418704 0.000419896 0.000420697 0.000420936 0.00042044 0.00041921 0.000417245 0.000414545 0.000411111 0.000406942 0.000402038 0.000396349 0.000389824 0.000382463 0.000374266 0.000365232 0.000355362 0.000344657 0.000333115 0.000320893 0.00030815 0.000294885 0.000281097 0.000266787 0.000251956 0.000236601 0.000220725 0.00020471 0.000188939 0.000173413 0.000158131 0.000143093 0.0001283 0.000113751 9.94466e-05 8.58169e-05 7.32925e-05 6.18735e-05 5.15598e-05 4.23515e-05 3.42485e-05 2.72508e-05 2.13585e-05 1.63526e-05 1.20142e-05 8.34317e-06 5.33963e-06 3.00354e-06 1.33491e-06 3.33727e-07 0 0 7.07623e-07 2.83049e-06 6.36861e-06 1.1322e-05 1.76906e-05 2.54744e-05 3.46735e-05 4.52879e-05 5.80273e-05 7.36017e-05 9.2011e-05 0.000113255 0.000137334 0.000164249 0.000193998 0.000226582 0.0002611 0.000296653 0.00033324 0.000370862 0.000409517 0.000449207 0.000489932 0.00053169 0.00057356 0.000614616 0.000654861 0.000694292 0.000732912 0.000770718 0.000807712 0.000843894 0.000878935 0.000912506 0.000944608 0.00097524 0.0010044 0.0010321 0.00105832 0.00108308 0.00110658 0.00112905 0.00115047 0.00117087 0.00119022 0.00120854 0.00122582 0.00124207 0.00125771 0.00127319 0.0012885 0.00130364 0.00131862 0.00133343 0.00134808 0.00136256 0.0013771 0.00139193 0.00140704 0.00142245 0.00143814 0.00145412 0.00147039 0.00148694 0.00150353 0.0015199 0.00153604 0.00155196 0.00156766 0.00158313 0.00159839 0.00161342 0.00162755 0.00164013 0.00165115 0.0016606 0.00166849 0.00167482 0.00167958 0.00168279 0.00168374 0.00168176 0.00167684 0.00166898 0.00165818 0.00164444 0.00162777 0.00160815 0.0015854 0.0015593 0.00152985 0.00149706 0.00146093 0.00142145 0.00137863 0.00133246 0.00128357 0.0012326 0.00117954 0.00112439 0.00106715 0.00100782 0.000946406 0.000882901 0.000818841 0.000755758 0.000693652 0.000632524 0.000572374 0.0005132 0.000455005 0.000397786 0.000343268 0.00029317 0.000247494 0.000206239 0.000169406 0.000136994 0.000109003 8.54341e-05 6.54104e-05 4.80567e-05 3.33727e-05 2.13585e-05 1.20142e-05 5.33963e-06 1.33491e-06 0 0 1.59215e-06 6.36861e-06 1.43294e-05 2.54744e-05 3.98038e-05 5.73175e-05 7.80155e-05 0.000101898 0.000130561 0.000165604 0.000207025 0.000254824 0.000309002 0.000369559 0.000436494 0.000509808 0.000587475 0.000667469 0.00074979 0.000834438 0.000921414 0.00101072 0.00110235 0.0011963 0.00129051 0.00138289 0.00147344 0.00156216 0.00164905 0.00173412 0.00181735 0.00189876 0.0019776 0.00205314 0.00212537 0.00219429 0.00225991 0.00232222 0.00238123 0.00243693 0.00248981 0.00254035 0.00258857 0.00263445 0.002678 0.00271922 0.0027581 0.00279465 0.00282985 0.00286468 0.00289912 0.0029332 0.0029669 0.00300023 0.00303318 0.00306576 0.00309847 0.00313184 0.00316585 0.00320051 0.00323581 0.00327177 0.00330837 0.00334562 0.00338294 0.00341976 0.00345609 0.00349191 0.00352723 0.00356205 0.00359637 0.00363019 0.003662 0.00369029 0.00371508 0.00373635 0.0037541 0.00376834 0.00377907 0.00378628 0.00378843 0.00378396 0.00377289 0.0037552 0.00373091 0.0037 0.00366248 0.00361834 0.00356714 0.00350842 0.00344217 0.00336839 0.00328709 0.00319826 0.00310191 0.00299803 0.00288804 0.00277335 0.00265396 0.00252987 0.00240109 0.0022676 0.00212941 0.00198653 0.00184239 0.00170046 0.00156072 0.00142318 0.00128784 0.0011547 0.00102376 0.000895019 0.000772352 0.000659633 0.000556861 0.000464038 0.000381163 0.000308236 0.000245257 0.000192227 0.000147174 0.000108127 7.50885e-05 4.80567e-05 2.70319e-05 1.20142e-05 3.00354e-06 0 0 2.83049e-06 1.1322e-05 2.54744e-05 4.52879e-05 7.07623e-05 0.000101898 0.000138694 0.000181152 0.000232109 0.000294407 0.000368044 0.000453021 0.000549338 0.000656994 0.00077599 0.000906326 0.0010444 0.00118661 0.00133296 0.00148345 0.00163807 0.00179683 0.00195973 0.00212676 0.00229424 0.00245847 0.00261944 0.00277717 0.00293165 0.00308287 0.00323085 0.00337558 0.00351574 0.00365002 0.00377843 0.00390096 0.00401762 0.00412839 0.00423329 0.00433231 0.00442632 0.00451618 0.0046019 0.00468347 0.00476089 0.00483416 0.00490329 0.00496827 0.00503085 0.00509276 0.005154 0.00521458 0.00527449 0.00533374 0.00539232 0.00545024 0.0055084 0.00556771 0.00562817 0.00568979 0.00575256 0.00581647 0.00588154 0.00594777 0.00601412 0.00607958 0.00614415 0.00620784 0.00627063 0.00633253 0.00639354 0.00645366 0.00651022 0.00656052 0.00660458 0.00664239 0.00667395 0.00669927 0.00671834 0.00673116 0.00673498 0.00672704 0.00670736 0.00667592 0.00663272 0.00657777 0.00651107 0.00643261 0.00634159 0.00623719 0.00611941 0.00598825 0.00584371 0.0056858 0.00551451 0.00532983 0.0051343 0.0049304 0.00471816 0.00449755 0.0042686 0.00403129 0.00378562 0.0035316 0.00327536 0.00302303 0.00277461 0.0025301 0.00228949 0.0020528 0.00182002 0.00159115 0.00137307 0.00117268 0.000989976 0.000824957 0.000677623 0.000547975 0.000436013 0.000341736 0.000261642 0.000192227 0.000133491 8.54341e-05 4.80567e-05 2.13585e-05 5.33963e-06 0 0 4.42265e-06 1.76906e-05 3.98038e-05 7.07623e-05 0.000110566 0.000159215 0.00021671 0.000283049 0.000362671 0.000460011 0.000575069 0.000707845 0.00085834 0.00102655 0.00121248 0.00141613 0.00163188 0.00185408 0.00208275 0.00231788 0.00255948 0.00280755 0.00306207 0.00332306 0.00358475 0.00384135 0.00409288 0.00433933 0.0045807 0.00481699 0.0050482 0.00527434 0.00549334 0.00570316 0.0059038 0.00609525 0.00627752 0.00645061 0.00661452 0.00676924 0.00691613 0.00705654 0.00719047 0.00731792 0.00743889 0.00755338 0.00766139 0.00776293 0.0078607 0.00795743 0.00805312 0.00814778 0.00824139 0.00833397 0.0084255 0.008516 0.00860687 0.00869955 0.00879402 0.0088903 0.00898837 0.00908824 0.00918991 0.00929338 0.00939706 0.00949935 0.00960024 0.00969974 0.00979786 0.00989458 0.00998991 0.0100838 0.0101722 0.0102508 0.0103197 0.0103787 0.0104281 0.0104676 0.0104974 0.0105174 0.0105234 0.010511 0.0104802 0.0104311 0.0103636 0.0102778 0.0101735 0.010051 0.00990873 0.00974561 0.00956158 0.00935664 0.0091308 0.00888406 0.00861642 0.00832787 0.00802234 0.00770376 0.00737212 0.00702743 0.00666969 0.00629889 0.00591504 0.00551813 0.00511775 0.00472349 0.00433533 0.00395328 0.00357734 0.0032075 0.00284378 0.00248617 0.00214542 0.00183231 0.00154684 0.00128899 0.00105879 0.000856212 0.00068127 0.000533963 0.000408815 0.000300354 0.000208579 0.000133491 7.50885e-05 3.33727e-05 8.34317e-06 0 0 6.36861e-06 2.54744e-05 5.73175e-05 0.000101898 0.000159215 0.00022927 0.000312062 0.000407591 0.000522246 0.000662415 0.000828099 0.0010193 0.00123601 0.00147824 0.00174598 0.00203923 0.0023499 0.00266988 0.00299916 0.00333775 0.00368566 0.00404287 0.00440938 0.00478521 0.00516204 0.00553155 0.00589375 0.00624863 0.00659621 0.00693647 0.00726941 0.00759505 0.00791041 0.00821255 0.00850147 0.00877716 0.00903963 0.00928888 0.0095249 0.0097477 0.00995922 0.0101614 0.0103543 0.0105378 0.010712 0.0108769 0.0110324 0.0111786 0.0113194 0.0114587 0.0115965 0.0117328 0.0118676 0.0120009 0.0121327 0.012263 0.0123939 0.0125273 0.0126634 0.012802 0.0129433 0.0130871 0.0132335 0.0133825 0.0135318 0.0136791 0.0138243 0.0139676 0.0141089 0.0142482 0.0143855 0.0145207 0.014648 0.0147612 0.0148603 0.0149454 0.0150164 0.0150734 0.0151163 0.0151451 0.0151537 0.0151359 0.0150916 0.0150208 0.0149236 0.0148 0.0146499 0.0144734 0.0142686 0.0140337 0.0137687 0.0134736 0.0131484 0.012793 0.0124076 0.0119921 0.0115522 0.0110934 0.0106159 0.0101195 0.00960435 0.0090704 0.00851765 0.00794611 0.00736957 0.00680182 0.00624287 0.00569272 0.00515136 0.0046188 0.00409504 0.00358008 0.00308941 0.00263853 0.00222745 0.00185615 0.00152465 0.00123294 0.000981029 0.000768906 0.000588694 0.00043251 0.000300354 0.000192227 0.000108127 4.80567e-05 1.20142e-05 0 0 8.66839e-06 3.46735e-05 7.80155e-05 0.000138694 0.00021671 0.000312062 0.000424751 0.000554777 0.000710835 0.000901621 0.00112713 0.00138738 0.00168235 0.00201204 0.00237647 0.00277562 0.00319848 0.003634 0.00408219 0.00454305 0.00501659 0.00550279 0.00600166 0.0065132 0.0070261 0.00752905 0.00802204 0.00850508 0.00897817 0.0094413 0.00989448 0.0103377 0.0107669 0.0111782 0.0115714 0.0119467 0.0123039 0.0126432 0.0129645 0.0132677 0.0135556 0.0138308 0.0140933 0.0143431 0.0145802 0.0148046 0.0150163 0.0152153 0.015407 0.0155966 0.0157841 0.0159696 0.0161531 0.0163346 0.016514 0.0166914 0.0168695 0.0170511 0.0172363 0.017425 0.0176172 0.017813 0.0180122 0.018215 0.0184182 0.0186187 0.0188165 0.0190115 0.0192038 0.0193934 0.0195802 0.0197643 0.0199375 0.0200916 0.0202265 0.0203423 0.020439 0.0205165 0.0205749 0.0206142 0.0206259 0.0206016 0.0205413 0.020445 0.0203127 0.0201444 0.0199401 0.0196999 0.0194211 0.0191014 0.0187407 0.018339 0.0178964 0.0174128 0.0168882 0.0163226 0.0157238 0.0150994 0.0144494 0.0137738 0.0130726 0.0123458 0.0115935 0.0108155 0.0100308 0.00925803 0.00849724 0.00774842 0.00701158 0.00628671 0.00557381 0.00487288 0.00420503 0.00359133 0.0030318 0.00252643 0.00207522 0.00167817 0.00133529 0.00104657 0.000801278 0.000588694 0.000408815 0.000261642 0.000147174 6.54104e-05 1.63526e-05 0 0 1.1322e-05 4.52879e-05 0.000101898 0.000181152 0.000283049 0.000407591 0.000554777 0.000724606 0.000928437 0.00117763 0.00147218 0.00181208 0.00219735 0.00262798 0.00310396 0.0036253 0.0041776 0.00474645 0.00533184 0.00593378 0.00655228 0.00718732 0.0078389 0.00850704 0.00917695 0.00983386 0.0104778 0.0111087 0.0117266 0.0123315 0.0129234 0.0135023 0.014063 0.0146001 0.0151137 0.0156038 0.0160705 0.0165136 0.0169332 0.0173292 0.0177053 0.0180647 0.0184076 0.0187339 0.0190436 0.0193367 0.0196132 0.0198731 0.0201234 0.020371 0.020616 0.0208583 0.021098 0.021335 0.0215693 0.021801 0.0220336 0.0222708 0.0225127 0.0227592 0.0230102 0.0232659 0.0235262 0.0237911 0.0240565 0.0243183 0.0245766 0.0248313 0.0250825 0.0253301 0.0255742 0.0258147 0.0260409 0.0262421 0.0264183 0.0265696 0.0266958 0.0267971 0.0268734 0.0269246 0.0269399 0.0269082 0.0268294 0.0267037 0.0265309 0.0263111 0.0260443 0.0257304 0.0253664 0.0249488 0.0244776 0.023953 0.0233749 0.0227432 0.022058 0.0213193 0.0205372 0.0197216 0.0188726 0.0179902 0.0170744 0.0161252 0.0151425 0.0141264 0.0131015 0.0120921 0.0110984 0.0101204 0.00915798 0.00821121 0.00728008 0.00636458 0.00549228 0.00469072 0.0039599 0.00329983 0.00271049 0.0021919 0.00174405 0.00136694 0.00104657 0.000768906 0.000533963 0.000341736 0.000192227 8.54341e-05 2.13585e-05 0 0 1.45453e-05 5.81813e-05 0.000130908 0.000232725 0.000363633 0.000523632 0.000712721 0.000930901 0.00119239 0.00151142 0.00188799 0.0023221 0.00281374 0.00336292 0.00396963 0.00463388 0.00533737 0.00606177 0.0068071 0.00757336 0.00836054 0.00916864 0.00999766 0.0108476 0.0116998 0.0125355 0.0133547 0.0141575 0.0149438 0.0157136 0.0164669 0.0172038 0.0179175 0.0186014 0.0192554 0.0198796 0.0204739 0.0210384 0.021573 0.0220778 0.0225571 0.0230153 0.0234523 0.0238682 0.0242629 0.0246364 0.0249888 0.02532 0.0256389 0.0259543 0.026266 0.0265742 0.0268789 0.0271799 0.0274774 0.0277714 0.0280664 0.028367 0.0286733 0.0289852 0.0293027 0.0296259 0.0299547 0.0302891 0.0306241 0.0309543 0.0312799 0.0316009 0.0319171 0.0322287 0.0325356 0.0328378 0.0331219 0.0333742 0.0335947 0.0337836 0.0339406 0.034066 0.0341596 0.0342214 0.0342377 0.0341943 0.0340914 0.033929 0.033707 0.0334255 0.0330844 0.0326838 0.0322196 0.0316876 0.0310879 0.0304206 0.0296855 0.0288827 0.0280122 0.0270741 0.0260809 0.0250455 0.0239679 0.022848 0.021686 0.0204816 0.0192351 0.0179463 0.0166462 0.0153659 0.0141053 0.0128644 0.0116433 0.0104418 0.00926015 0.00809819 0.00699083 0.00597295 0.00504456 0.00420565 0.00345624 0.0027963 0.00222585 0.00174489 0.00133593 0.000981499 0.000681596 0.000436222 0.000245375 0.000109055 2.72639e-05 0 0 1.85544e-05 7.42175e-05 0.000166989 0.00029687 0.00046386 0.000667958 0.000909165 0.00118748 0.00152005 0.001924 0.00239935 0.00294609 0.00356422 0.00425375 0.00501466 0.00584697 0.00672786 0.00763452 0.00856697 0.00952518 0.0105092 0.0115189 0.0125545 0.0136158 0.0146798 0.0157235 0.0167467 0.0177495 0.018732 0.0196941 0.0206358 0.0215571 0.0224496 0.0233051 0.0241234 0.0249047 0.0256489 0.026356 0.027026 0.027659 0.0282601 0.0288346 0.0293826 0.0299041 0.030399 0.0308673 0.0313091 0.0317244 0.0321239 0.0325184 0.0329081 0.0332928 0.0336725 0.0340474 0.0344173 0.0347823 0.035148 0.0355201 0.0358987 0.0362837 0.0366751 0.0370729 0.0374772 0.0378879 0.0382987 0.0387032 0.0391016 0.0394937 0.0398796 0.0402593 0.0406328 0.0410001 0.0413445 0.0416494 0.0419149 0.0421408 0.0423272 0.0424742 0.0425816 0.0426496 0.0426609 0.0425987 0.0424628 0.0422532 0.0419701 0.0416132 0.0411828 0.0406786 0.0400959 0.0394297 0.03868 0.0378468 0.03693 0.0359297 0.0348459 0.0336786 0.0324435 0.0311565 0.0298174 0.0284264 0.0269834 0.0254885 0.0239415 0.0223426 0.0207298 0.0191411 0.0175766 0.0160363 0.0145201 0.0130282 0.0115603 0.0101167 0.00874032 0.00747428 0.00631858 0.00527323 0.00433821 0.00351355 0.00279922 0.00219524 0.00168073 0.00123482 0.000857516 0.00054881 0.000308706 0.000137202 3.43006e-05 0 0 2.33492e-05 9.33966e-05 0.000210142 0.000373587 0.000583729 0.00084057 0.00114411 0.00149435 0.00191139 0.00241536 0.00300626 0.00368407 0.00444881 0.00530047 0.00623905 0.00726456 0.00834908 0.0094647 0.0106114 0.0117893 0.0129982 0.0142382 0.0155094 0.0168116 0.0181171 0.0193977 0.0206537 0.0218849 0.0230913 0.024273 0.0254299 0.0265621 0.0276593 0.0287113 0.029718 0.0306794 0.0315956 0.0324665 0.0332922 0.0340727 0.0348141 0.0355227 0.0361986 0.0368416 0.0374519 0.0380294 0.0385741 0.039086 0.0395782 0.0400636 0.0405422 0.041014 0.041479 0.0419373 0.0423888 0.0428335 0.0432783 0.0437301 0.0441889 0.0446546 0.0451273 0.045607 0.0460936 0.0465872 0.0470802 0.047565 0.0480416 0.0485099 0.0489701 0.0494221 0.0498658 0.0503014 0.0507087 0.0510678 0.0513786 0.0516412 0.0518555 0.0520216 0.0521394 0.052209 0.0522098 0.0521213 0.0519435 0.0516764 0.05132 0.0508743 0.0503393 0.049715 0.0489956 0.0481752 0.0472539 0.0462316 0.0451083 0.0438841 0.042559 0.0411329 0.039625 0.0380544 0.0364212 0.0347254 0.0329668 0.0311457 0.0292619 0.0273154 0.0253521 0.0234178 0.0215124 0.019636 0.0177886 0.0159701 0.0141807 0.0124201 0.0107408 0.00919471 0.00778197 0.00650254 0.00535643 0.00434364 0.00346416 0.002718 0.00208097 0.00152888 0.00106172 0.000679501 0.000382219 0.000169875 4.24688e-05 0 0 2.89296e-05 0.000115719 0.000260367 0.000462874 0.000723241 0.00104147 0.00141755 0.0018515 0.00236644 0.00298551 0.00370871 0.00453604 0.0054675 0.00650309 0.00764281 0.00888666 0.010201 0.0115523 0.0129405 0.0143656 0.0158276 0.0173265 0.0188623 0.0204351 0.0220115 0.0235584 0.0250757 0.0265634 0.0280216 0.0294503 0.0308494 0.032219 0.0335466 0.0348199 0.0360389 0.0372035 0.0383139 0.0393699 0.0403715 0.0413189 0.0422192 0.0430796 0.0439001 0.0446808 0.0454217 0.0461227 0.0467838 0.0474051 0.0480019 0.0485896 0.0491683 0.0497379 0.0502983 0.0508497 0.051392 0.0519252 0.0524575 0.0529971 0.0535439 0.054098 0.0546594 0.0552281 0.055804 0.0563872 0.0569687 0.0575396 0.0580999 0.0586495 0.0591885 0.0597169 0.0602346 0.0607418 0.0612146 0.0616294 0.0619861 0.0622849 0.0625256 0.0627083 0.062833 0.0628997 0.0628841 0.0627621 0.0625335 0.0621983 0.0617567 0.0612086 0.0605539 0.0597928 0.0589184 0.0579239 0.0568095 0.055575 0.0542205 0.052746 0.0511515 0.049437 0.0476253 0.0457394 0.0437792 0.0417448 0.0396362 0.0374533 0.0351961 0.0328647 0.0305133 0.0281959 0.0259127 0.0236636 0.0214487 0.0192678 0.0171211 0.0150085 0.0129922 0.0111342 0.00943471 0.0078936 0.00651089 0.00528658 0.00422068 0.00331318 0.00253665 0.00186366 0.00129421 0.000828295 0.000465916 0.000207074 5.17684e-05 0 0 3.52958e-05 0.000141183 0.000317663 0.000564733 0.000882396 0.00127065 0.0017295 0.00225893 0.00288517 0.00363443 0.0045067 0.00550198 0.00662028 0.00786159 0.00922592 0.0107133 0.0122837 0.0138973 0.0155542 0.0172542 0.0189974 0.0207838 0.0226134 0.0244861 0.0263631 0.0282053 0.0300127 0.0317853 0.0335231 0.0352261 0.0368943 0.0385277 0.0401115 0.041631 0.0430863 0.0444772 0.0458038 0.0470661 0.048264 0.0493977 0.0504753 0.0515052 0.0524873 0.0534217 0.0543083 0.0551471 0.0559382 0.0566815 0.057395 0.0580967 0.0587865 0.0594644 0.0601304 0.0607846 0.0614269 0.0620573 0.0626855 0.0633209 0.0639638 0.0646139 0.0652714 0.0659362 0.0666083 0.0672878 0.0679642 0.0686271 0.0692765 0.0699124 0.0705349 0.0711438 0.0717392 0.0723212 0.072862 0.073334 0.0737373 0.0740718 0.0743374 0.0745343 0.0746624 0.0747218 0.074684 0.0745211 0.0742328 0.0738192 0.0732803 0.0726162 0.0718268 0.0709121 0.0698644 0.068676 0.0673469 0.0658771 0.0642666 0.0625154 0.0606235 0.0585909 0.0564445 0.0542114 0.0518915 0.0494849 0.0469914 0.0444112 0.0417443 0.0389905 0.0362132 0.0334755 0.0307775 0.0281191 0.0255003 0.0229211 0.0203816 0.0178818 0.0154945 0.0132929 0.0112768 0.0094464 0.00780158 0.00634237 0.00506876 0.00398077 0.00304777 0.00223918 0.00155499 0.000995192 0.000559795 0.000248798 6.21995e-05 0 0 4.24478e-05 0.000169791 0.00038203 0.000679164 0.00106119 0.00152812 0.00207994 0.00271666 0.00346761 0.00436213 0.00540024 0.00658191 0.00790716 0.00937599 0.0109884 0.0127444 0.0145971 0.0164998 0.0184524 0.020455 0.0225076 0.02461 0.0267625 0.0289648 0.031172 0.0333386 0.0354647 0.0375504 0.0395955 0.0416002 0.0435644 0.0454881 0.047354 0.0491446 0.0508601 0.0525003 0.0540653 0.0555551 0.0569697 0.058309 0.0595825 0.0607996 0.0619601 0.0630641 0.0641117 0.0651027 0.0660372 0.0669153 0.0677575 0.0685847 0.0693967 0.0701935 0.0709753 0.0717419 0.0724934 0.0732298 0.0739622 0.0747017 0.0754484 0.0762023 0.0769632 0.0777314 0.0785066 0.0792891 0.0800667 0.0808275 0.0815715 0.0822987 0.0830091 0.0837028 0.0843796 0.0850397 0.0856511 0.0861819 0.0866321 0.0870019 0.087291 0.0874996 0.0876276 0.0876751 0.0876095 0.0873983 0.0870414 0.0865389 0.0858908 0.0850971 0.0841578 0.0830729 0.0818336 0.0804313 0.078866 0.0771378 0.0752465 0.0731922 0.0709748 0.0685945 0.0660826 0.0634704 0.060758 0.0579454 0.0550326 0.0520196 0.0489063 0.0456928 0.0424519 0.0392566 0.0361067 0.0330024 0.0299435 0.0269302 0.0239623 0.0210399 0.0182478 0.0156706 0.0133083 0.0111609 0.00922851 0.007511 0.00600842 0.00472076 0.00361433 0.00265543 0.00184405 0.00118019 0.000663857 0.000295048 7.37619e-05 0 0 5.03854e-05 0.000201541 0.000453468 0.000806166 0.00125963 0.00181387 0.00246888 0.00322466 0.00411374 0.00516862 0.00638932 0.00777583 0.00932815 0.0110463 0.0129302 0.01498 0.0171412 0.0193597 0.0216353 0.0239681 0.0263581 0.0288053 0.0313096 0.0338712 0.036438 0.0389582 0.0414318 0.0438587 0.0462391 0.0485728 0.0508599 0.0531004 0.055274 0.0573607 0.0593603 0.0612729 0.0630984 0.064837 0.0664884 0.0680529 0.0695408 0.0709627 0.0723185 0.0736082 0.0748319 0.0759895 0.077081 0.0781064 0.0790894 0.0800536 0.0809989 0.0819254 0.082833 0.0837217 0.0845917 0.0854427 0.0862877 0.0871395 0.0879979 0.0888631 0.089735 0.0906136 0.0914989 0.092391 0.0932761 0.0941407 0.0949848 0.0958083 0.0966114 0.0973938 0.0981558 0.0988972 0.0995817 0.100173 0.100671 0.101075 0.101386 0.101604 0.101729 0.10176 0.10166 0.101394 0.100959 0.100358 0.0995882 0.0986514 0.097547 0.0962751 0.094826 0.09319 0.091367 0.0893571 0.0871602 0.0847764 0.0822057 0.079448 0.0765395 0.0735165 0.0703788 0.0671266 0.0637597 0.0602783 0.0566822 0.0529716 0.0492295 0.0455391 0.0419005 0.0383135 0.0347783 0.0312948 0.0278631 0.024483 0.0212521 0.0182674 0.0155291 0.0130372 0.0107917 0.00879248 0.00703965 0.00553317 0.00423634 0.00311241 0.0021614 0.00138329 0.000778102 0.000345823 8.64558e-05 0 0 5.91087e-05 0.000236435 0.000531978 0.000945739 0.00147772 0.00212791 0.00289633 0.00378296 0.00482356 0.00605389 0.00747394 0.00908372 0.0108832 0.0128725 0.0150514 0.0174201 0.0199161 0.022477 0.0251028 0.0277935 0.030549 0.0333695 0.0362549 0.0392051 0.0421612 0.0450641 0.0479138 0.0507103 0.0534537 0.0561438 0.0587807 0.0613644 0.0638717 0.0662792 0.068587 0.0707949 0.0729032 0.0749117 0.0768204 0.0786294 0.0803502 0.0819946 0.0835625 0.085054 0.0864689 0.0878074 0.0890694 0.090255 0.0913907 0.0925035 0.0935932 0.0946598 0.0957035 0.096724 0.0977216 0.0986961 0.0996621 0.100634 0.101612 0.102596 0.103587 0.104583 0.105585 0.106593 0.107593 0.108567 0.109516 0.110441 0.111342 0.112217 0.113068 0.113894 0.114654 0.115307 0.115853 0.116292 0.116623 0.116848 0.116965 0.116976 0.116837 0.116507 0.115987 0.115275 0.114372 0.113279 0.111994 0.110519 0.108842 0.106952 0.10485 0.102535 0.100008 0.0972681 0.0943159 0.0911512 0.0878153 0.0843495 0.0807538 0.0770282 0.0731727 0.0691873 0.065072 0.0608268 0.0565458 0.0523231 0.0481587 0.0440525 0.0400047 0.0360152 0.032084 0.0282111 0.0245073 0.0210833 0.0179393 0.0150753 0.0124911 0.0101868 0.00816245 0.00641799 0.00491378 0.00361012 0.00250703 0.0016045 0.00090253 0.000401125 0.000100281 0 0 6.84812e-05 0.000273925 0.000616331 0.0010957 0.00171203 0.00246532 0.00335558 0.0043828 0.00558598 0.00700415 0.00863729 0.0104854 0.0125485 0.0148266 0.0173196 0.0200277 0.0228797 0.0258045 0.0288023 0.0318731 0.0350167 0.0382332 0.0415227 0.044885 0.0482538 0.0515624 0.0548108 0.0579991 0.0611272 0.0641952 0.0672031 0.0701508 0.0730118 0.0757595 0.078394 0.0809153 0.0833233 0.085618 0.0877996 0.0898678 0.0918356 0.0937158 0.0955082 0.097213 0.0988302 0.10036 0.101801 0.103156 0.104452 0.10572 0.106961 0.108174 0.109359 0.110517 0.111646 0.112748 0.113838 0.114933 0.116033 0.117139 0.118249 0.119364 0.120484 0.12161 0.122723 0.123807 0.124861 0.125886 0.126882 0.127849 0.128787 0.129695 0.130527 0.131239 0.131828 0.132297 0.132643 0.132869 0.132973 0.132955 0.132769 0.132367 0.131751 0.130919 0.129872 0.12861 0.127132 0.12544 0.12352 0.121361 0.118964 0.116327 0.113452 0.110338 0.106985 0.103394 0.0996098 0.0956803 0.0916052 0.0873844 0.083018 0.078506 0.0738483 0.0690451 0.0642015 0.0594231 0.0547098 0.0500615 0.0454784 0.0409603 0.0365074 0.0321195 0.0279215 0.0240384 0.0204699 0.0172162 0.0142773 0.0116532 0.00934376 0.0073491 0.00562666 0.00413387 0.00287074 0.00183728 0.00103347 0.000459319 0.00011483 0 0 7.83662e-05 0.000313465 0.000705296 0.00125386 0.00195915 0.00282118 0.00383994 0.00501544 0.00638991 0.00800561 0.00986254 0.0119607 0.0143001 0.0168807 0.0197026 0.0227656 0.0259899 0.0292952 0.0326815 0.0361489 0.0396974 0.043327 0.0470376 0.0508293 0.0546278 0.0583589 0.0620226 0.0656188 0.0691477 0.0726091 0.0760032 0.0793298 0.082559 0.0856609 0.0886354 0.0914826 0.0942024 0.0967949 0.09926 0.101598 0.103822 0.105947 0.107972 0.109897 0.111723 0.113449 0.115076 0.116603 0.118063 0.119491 0.120885 0.122245 0.123573 0.124867 0.126128 0.127355 0.128568 0.129784 0.131004 0.132227 0.133453 0.134683 0.135916 0.137153 0.138374 0.139561 0.140714 0.141832 0.142917 0.143967 0.144983 0.145965 0.146862 0.147622 0.148247 0.148735 0.149088 0.149304 0.149385 0.149329 0.149085 0.148602 0.14788 0.146917 0.145715 0.144274 0.142593 0.140672 0.1385 0.136061 0.133358 0.13039 0.127156 0.123658 0.119894 0.115865 0.111623 0.10722 0.102655 0.097929 0.0930418 0.0879934 0.0827838 0.0774129 0.0719974 0.0666538 0.0613822 0.0561826 0.0510549 0.0459992 0.0410155 0.0361038 0.0314031 0.0270524 0.0230519 0.0194014 0.016101 0.0131507 0.0105505 0.00830038 0.00635498 0.00466896 0.00324234 0.0020751 0.00116724 0.000518774 0.000129693 0 0 8.87638e-05 0.000355055 0.000798874 0.00142022 0.00221909 0.0031955 0.00434942 0.00568088 0.00723534 0.00905828 0.0111497 0.0135096 0.016138 0.0190348 0.0222002 0.025634 0.0292467 0.0329488 0.0367403 0.0406211 0.0445912 0.0486507 0.0527996 0.0570378 0.0612833 0.0654537 0.0695491 0.0735696 0.077515 0.0813855 0.085181 0.0889015 0.0925135 0.0959834 0.0993112 0.102497 0.105541 0.108442 0.111202 0.113819 0.116309 0.118687 0.120953 0.123106 0.125148 0.127076 0.128893 0.130597 0.132225 0.133814 0.135364 0.136874 0.138344 0.139775 0.141167 0.142519 0.143853 0.145187 0.146523 0.14786 0.149199 0.150539 0.15188 0.153222 0.154546 0.15583 0.157074 0.158279 0.159445 0.160571 0.161657 0.162705 0.163657 0.164458 0.165108 0.165608 0.165957 0.166155 0.166202 0.166098 0.165787 0.165212 0.164373 0.16327 0.161903 0.160272 0.158377 0.156218 0.153781 0.151053 0.148034 0.144723 0.14112 0.137227 0.133042 0.128565 0.123855 0.118967 0.113903 0.108662 0.103244 0.0976497 0.0918784 0.0859303 0.0799332 0.0740151 0.068176 0.0624157 0.0567344 0.051132 0.0456085 0.040164 0.0349518 0.0301256 0.0256852 0.0216308 0.0179622 0.0146795 0.0117827 0.00927182 0.00709874 0.0052154 0.00362181 0.00231796 0.00130385 0.000579489 0.000144872 0 0 9.96739e-05 0.000398696 0.000897065 0.00159478 0.00249185 0.00358826 0.00488402 0.00637913 0.00812228 0.0101622 0.0124988 0.0151321 0.0180622 0.021289 0.0248125 0.0286327 0.0326502 0.0367655 0.0409786 0.0452895 0.0496981 0.0542045 0.0588088 0.0635108 0.0682202 0.0728468 0.0773905 0.0818513 0.0862293 0.0905244 0.0947366 0.0988659 0.102875 0.106727 0.110421 0.113958 0.117338 0.12056 0.123625 0.126532 0.129298 0.131938 0.134452 0.136841 0.139104 0.141241 0.143252 0.145138 0.146937 0.148691 0.150398 0.152059 0.153673 0.155242 0.156764 0.158239 0.159691 0.161142 0.162591 0.16404 0.165486 0.166932 0.168376 0.169819 0.171238 0.172613 0.173942 0.175227 0.176466 0.17766 0.17881 0.179914 0.180913 0.181746 0.182413 0.182914 0.18325 0.18342 0.183424 0.183262 0.182873 0.182196 0.18123 0.179976 0.178434 0.176603 0.174483 0.172075 0.169364 0.166336 0.16299 0.159326 0.155344 0.151045 0.146428 0.141494 0.136305 0.130923 0.125349 0.119583 0.113625 0.107475 0.101132 0.0945972 0.0880092 0.0815071 0.075091 0.0687609 0.0625168 0.0563586 0.0502863 0.0443 0.0385678 0.0332578 0.02837 0.0239043 0.0198608 0.0162395 0.0130404 0.0102634 0.00785794 0.00577318 0.00400916 0.00256586 0.0014433 0.000641465 0.000160366 0 0 0.000111097 0.000444386 0.000999869 0.00177754 0.00277741 0.00399948 0.00544373 0.00711018 0.00905071 0.0113172 0.0139097 0.0168282 0.0200726 0.0236431 0.0275395 0.0317619 0.0362004 0.0407453 0.0453965 0.0501541 0.0550181 0.0599884 0.065065 0.070248 0.0754386 0.0805382 0.0855466 0.0904641 0.0952904 0.100026 0.10467 0.109223 0.113644 0.117892 0.121966 0.125867 0.129594 0.133148 0.136529 0.139737 0.142787 0.145698 0.148469 0.1511 0.153591 0.155943 0.158154 0.160225 0.1622 0.164121 0.165988 0.167801 0.16956 0.171266 0.172918 0.174516 0.176085 0.177649 0.179209 0.180764 0.182315 0.183862 0.185404 0.186942 0.188451 0.18991 0.191318 0.192675 0.193981 0.195236 0.196439 0.197592 0.198629 0.199485 0.20016 0.200654 0.200967 0.2011 0.201051 0.200821 0.200345 0.199555 0.198453 0.197037 0.195309 0.193267 0.190913 0.188245 0.185249 0.18191 0.178226 0.174199 0.169828 0.165113 0.160054 0.154652 0.148973 0.143088 0.136994 0.130693 0.124185 0.117469 0.110545 0.103414 0.0962252 0.0891298 0.0821275 0.0752182 0.068402 0.0616789 0.0550489 0.048512 0.0422511 0.0364491 0.0311061 0.026222 0.0217969 0.0178307 0.0143235 0.0112752 0.00863259 0.00634231 0.00440438 0.0028188 0.00158558 0.000704701 0.000176175 0 0 0.000123032 0.000492127 0.00110729 0.00196851 0.00307579 0.00442914 0.00602856 0.00787403 0.0100207 0.0125235 0.0153826 0.0185979 0.0221694 0.0260972 0.0303812 0.0350214 0.0398972 0.0448881 0.0499941 0.0552151 0.0605511 0.0660022 0.0715683 0.0772495 0.0829385 0.0885278 0.0940176 0.0994078 0.104698 0.10989 0.114981 0.119973 0.12482 0.129477 0.133945 0.138222 0.14231 0.146207 0.149915 0.153432 0.156778 0.159968 0.163004 0.165885 0.168611 0.171182 0.173598 0.17586 0.178013 0.180104 0.182133 0.1841 0.186005 0.187848 0.189629 0.191348 0.193032 0.194708 0.196375 0.198035 0.199686 0.201329 0.202964 0.204591 0.206185 0.207722 0.209202 0.210624 0.211989 0.213297 0.214547 0.21574 0.216807 0.217677 0.21835 0.218828 0.219109 0.219194 0.219083 0.218775 0.218201 0.217289 0.216039 0.214452 0.212527 0.210265 0.207665 0.204727 0.201436 0.197775 0.193743 0.189342 0.184571 0.17943 0.173919 0.168038 0.161861 0.15546 0.148837 0.141991 0.134923 0.127631 0.120117 0.11238 0.104581 0.0968831 0.0892852 0.0817876 0.0743902 0.0670932 0.0598964 0.0527998 0.0460016 0.0396995 0.0338936 0.0285839 0.0237704 0.0194531 0.0156321 0.0123072 0.00942267 0.00692278 0.00480749 0.00307679 0.00173069 0.000769198 0.000192299 0 0 0.00013548 0.000541918 0.00121932 0.00216767 0.00338699 0.00487726 0.0066385 0.00867069 0.0110321 0.013781 0.0169174 0.0204412 0.0243525 0.0286513 0.0333376 0.0384113 0.0437407 0.049194 0.0547712 0.0604723 0.0662972 0.0722461 0.0783188 0.0845154 0.0907198 0.0968158 0.102803 0.108683 0.114453 0.120116 0.12567 0.131115 0.136403 0.141484 0.146358 0.151024 0.155484 0.159736 0.163782 0.16762 0.171269 0.174748 0.178057 0.181194 0.184162 0.186959 0.189585 0.192041 0.194376 0.19664 0.198834 0.200956 0.203008 0.204988 0.206898 0.208737 0.210534 0.212319 0.214091 0.215851 0.217599 0.219334 0.221057 0.222768 0.22444 0.226049 0.227593 0.229074 0.230491 0.231844 0.233133 0.234358 0.235445 0.23632 