<?xml version="1.0"?> 
<VTKFile type="StructuredGrid" version="0.1"> 
<StructuredGrid WholeExtent="0 128 0 128 0 0"> 
<Piece Extent="0 128 0 128 0 0"> 
<PointData>
<DataArray type="Float32" Name="u" format="ascii" NumberOfComponents="1"> 
0 0 0 0 0 0 0 0 0 0 0 0 0 0 0 0 0 0 0 0 0 0 0 0 0 0 0 0 0 0 0 0 0 0 0 0 0 0 0 0 0 0 0 0 0 0 0 0 0 0 0 0 0 0 0 0 0 0 0 0 0 0 0 0 0 0 0 0 0 0 0 0 0 0 0 0 0 0 0 0 0 0 0 0 0 0 0 0 0 0 0 0 0 0 0 0 0 0 0 0 0 0 0 0 0 0 0 0 0 0 0 0 0 0 0 0 0 0 0 0 0 0 0 0 0 0 0 0 0 0 2.61668e-07 1.04667e-06 2.35501e-06 4.18669e-06 6.5417e-06 9.42004e-06 1.28217e-05 1.67467e-05 2.13973e-05 2.69757e-05 3.34818e-05 4.09157e-05 4.92773e-05 5.85668e-05 6.8784e-05 7.9929e-05 9.16174e-05 0.000103465 0.000115472 0.000127638 0.000139962 0.000152447 0.00016509 0.000177892 0.000190512 0.000202608 0.000214179 0.000225226 0.00023575 0.000245749 0.000255223 0.000264174 0.000272535 0.000280239 0.000287287 0.000293679 0.000299415 0.000304494 0.000308918 0.000312685 0.000315977 0.000318975 0.000321678 0.000324087 0.000326202 0.000328023 0.000329549 0.000330781 0.000331987 0.000333437 0.000335131 0.000337068 0.000339248 0.000341672 0.00034434 0.000347251 0.000350552 0.000354392 0.000358771 0.000363687 0.000369142 0.000375135 0.000381667 0.000388736 0.000396233 0.000404046 0.000412176 0.000420621 0.000429383 0.000438462 0.000447856 0.000457567 0.000467252 0.00047657 0.00048552 0.000494103 0.000502318 0.000510165 0.000517646 0.000524758 0.00053112 0.000536348 0.000540441 0.0005434 0.000545225 0.000545916 0.000545472 0.000543894 0.000541005 0.000536628 0.000530764 0.000523411 0.000514571 0.000504243 0.000492426 0.000479122 0.000464532 0.000448857 0.000432097 0.000414252 0.000395322 0.000375307 0.000354208 0.000332024 0.000309369 0.000286857 0.000264488 0.000242263 0.000220181 0.000198242 0.000176447 0.000154795 0.000134029 0.00011489 9.73785e-05 8.14949e-05 6.7239e-05 5.46106e-05 4.361e-05 3.42369e-05 2.62126e-05 1.92583e-05 1.33738e-05 8.55923e-06 4.81457e-06 2.13981e-06 5.34952e-07 0 0 1.04667e-06 4.18669e-06 9.42004e-06 1.67467e-05 2.61668e-05 3.76802e-05 5.12869e-05 6.6987e-05 8.55893e-05 0.000107903 0.000133927 0.000163663 0.000197109 0.000234267 0.000275136 0.000319716 0.00036647 0.00041386 0.000461887 0.00051055 0.00055985 0.000609786 0.000660359 0.000711568 0.000762048 0.00081043 0.000856716 0.000900906 0.000942998 0.000982995 0.00102089 0.0010567 0.00109014 0.00112096 0.00114915 0.00117472 0.00119766 0.00121798 0.00123567 0.00125074 0.00126391 0.0012759 0.00128671 0.00129635 0.00130481 0.00131209 0.0013182 0.00132312 0.00132795 0.00133375 0.00134052 0.00134827 0.00135699 0.00136669 0.00137736 0.001389 0.00140221 0.00141757 0.00143508 0.00145475 0.00147657 0.00150054 0.00152667 0.00155494 0.00158493 0.00161618 0.0016487 0.00168249 0.00171753 0.00175385 0.00179142 0.00183027 0.00186901 0.00190628 0.00194208 0.00197641 0.00200927 0.00204066 0.00207058 0.00209903 0.00212448 0.00214539 0.00216176 0.0021736 0.0021809 0.00218366 0.00218189 0.00217558 0.00216402 0.00214651 0.00212305 0.00209364 0.00205828 0.00201697 0.00196971 0.00191649 0.00185813 0.00179543 0.00172839 0.00165701 0.00158129 0.00150123 0.00141683 0.00132809 0.00123747 0.00114743 0.00105795 0.000969052 0.000880724 0.00079297 0.000705789 0.000619181 0.000536115 0.000459559 0.000389514 0.00032598 0.000268956 0.000218443 0.00017444 0.000136948 0.000104851 7.70331e-05 5.34952e-05 3.42369e-05 1.92583e-05 8.55923e-06 2.13981e-06 0 0 2.35501e-06 9.42004e-06 2.11951e-05 3.76802e-05 5.88753e-05 8.47804e-05 0.000115396 0.000150721 0.000192576 0.000242781 0.000301336 0.000368241 0.000443496 0.000527101 0.000619056 0.000719361 0.000824557 0.000931185 0.00103925 0.00114874 0.00125966 0.00137202 0.00148581 0.00160103 0.00171461 0.00182347 0.00192761 0.00202704 0.00212175 0.00221174 0.00229701 0.00237757 0.00245281 0.00252215 0.00258558 0.00264311 0.00269473 0.00274045 0.00278026 0.00281417 0.00284379 0.00287077 0.0028951 0.00291678 0.00293582 0.0029522 0.00296594 0.00297703 0.00298789 0.00300094 0.00301618 0.00303361 0.00305324 0.00307505 0.00309906 0.00312526 0.00315497 0.00318953 0.00322894 0.00327319 0.00332228 0.00337622 0.003435 0.00349863 0.0035661 0.00363642 0.00370958 0.00378559 0.00386445 0.00394615 0.0040307 0.0041181 0.00420527 0.00428913 0.00436968 0.00444692 0.00452086 0.00459149 0.00465881 0.00472283 0.00478008 0.00482713 0.00486397 0.0048906 0.00490703 0.00491324 0.00490925 0.00489505 0.00486905 0.00482966 0.00477687 0.0047107 0.00463114 0.00453818 0.00443184 0.0043121 0.00418079 0.00403971 0.00388887 0.00372827 0.0035579 0.00337777 0.00318787 0.00298821 0.00278432 0.00258171 0.00238039 0.00218037 0.00198163 0.00178418 0.00158802 0.00139316 0.00120626 0.00103401 0.000876407 0.000733454 0.000605151 0.000491496 0.00039249 0.000308132 0.000235914 0.000173324 0.000120364 7.70331e-05 4.33311e-05 1.92583e-05 4.81457e-06 0 0 4.18669e-06 1.67467e-05 3.76802e-05 6.6987e-05 0.000104667 0.000150721 0.000205148 0.000267948 0.000342357 0.000431611 0.000535708 0.000654651 0.000788437 0.000937069 0.00110054 0.00127886 0.00146588 0.00165544 0.00184755 0.0020422 0.0022394 0.00243914 0.00264144 0.00284627 0.00304819 0.00324172 0.00342687 0.00360362 0.00377199 0.00393198 0.00408358 0.00422679 0.00436056 0.00448382 0.0045966 0.00469887 0.00479064 0.00487191 0.00494269 0.00500296 0.00505563 0.00510359 0.00514685 0.00518539 0.00521923 0.00524836 0.00527278 0.00529249 0.0053118 0.005335 0.0053621 0.00539309 0.00542797 0.00546676 0.00550944 0.00555601 0.00560884 0.00567028 0.00574033 0.005819 0.00590627 0.00600216 0.00610667 0.00621978 0.00633973 0.00646474 0.00659481 0.00672994 0.00687013 0.00701538 0.0071657 0.00732107 0.00747603 0.00762512 0.00776832 0.00790564 0.00803708 0.00816265 0.00828233 0.00839613 0.00849792 0.00858156 0.00864706 0.0086944 0.0087236 0.00873465 0.00872755 0.00870231 0.00865608 0.00858605 0.00849222 0.00837458 0.00823313 0.00806788 0.00787882 0.00766596 0.00743251 0.00718171 0.00691355 0.00662803 0.00632515 0.00600492 0.00566733 0.00531238 0.0049499 0.00458971 0.00423181 0.00387621 0.0035229 0.00317188 0.00282315 0.00247672 0.00214446 0.00183824 0.00155806 0.00130392 0.00107582 0.00087377 0.000697759 0.000547791 0.000419402 0.000308132 0.000213981 0.000136948 7.70331e-05 3.42369e-05 8.55923e-06 0 0 6.5417e-06 2.61668e-05 5.88753e-05 0.000104667 0.000163542 0.000235501 0.000320543 0.000418669 0.000534933 0.000674391 0.000837044 0.00102289 0.00123193 0.00146417 0.0017196 0.00199822 0.00229044 0.00258662 0.00288679 0.00319094 0.00349906 0.00381116 0.00412724 0.0044473 0.0047628 0.00506519 0.00535448 0.00563066 0.00589374 0.00614372 0.00638059 0.00660435 0.00681337 0.00700598 0.00718218 0.00734198 0.00748537 0.00761236 0.00772295 0.00781713 0.00789943 0.00797437 0.00804195 0.00810218 0.00815505 0.00820056 0.00823872 0.00826952 0.00829968 0.00833594 0.00837827 0.0084267 0.00848121 0.00854181 0.00860849 0.00868127 0.00876381 0.00885981 0.00896927 0.00909218 0.00922855 0.00937838 0.00954166 0.0097184 0.00990583 0.0101012 0.0103044 0.0105155 0.0107346 0.0109615 0.0111964 0.0114392 0.0116813 0.0119142 0.012138 0.0123526 0.0125579 0.0127541 0.0129411 0.013119 0.013278 0.0134087 0.013511 0.013585 0.0136306 0.0136479 0.0136368 0.0135974 0.0135251 0.0134157 0.0132691 0.0130853 0.0128643 0.0126061 0.0123107 0.0119781 0.0116133 0.0112214 0.0108024 0.0103563 0.00988305 0.00938269 0.0088552 0.00830059 0.00773421 0.00717142 0.0066122 0.00605657 0.00550453 0.00495606 0.00441118 0.00386988 0.00335072 0.00287224 0.00243446 0.00203737 0.00168097 0.00136527 0.00109025 0.000855923 0.000655316 0.000481457 0.000334345 0.000213981 0.000120364 5.34952e-05 1.33738e-05 0 0 9.42004e-06 3.76802e-05 8.47804e-05 0.000150721 0.000235501 0.000339122 0.000461582 0.000602883 0.000770303 0.000971124 0.00120534 0.00147296 0.00177398 0.0021084 0.00247622 0.00287744 0.00329823 0.00372474 0.00415698 0.00459495 0.00503865 0.00548808 0.00594323 0.00640412 0.00685843 0.00729387 0.00771045 0.00810815 0.00848699 0.00884695 0.00918805 0.00951027 0.00981125 0.0100886 0.0103423 0.0105724 0.0107789 0.0109618 0.011121 0.0112567 0.0113752 0.0114831 0.0115804 0.0116671 0.0117433 0.0118088 0.0118638 0.0119081 0.0119515 0.0120037 0.0120647 0.0121344 0.0122129 0.0123002 0.0123962 0.012501 0.0126199 0.0127581 0.0129157 0.0130927 0.0132891 0.0135049 0.01374 0.0139945 0.0142644 0.0145457 0.0148383 0.0151424 0.0154578 0.0157846 0.0161228 0.0164724 0.0168211 0.0171565 0.0174787 0.0177877 0.0180834 0.018366 0.0186352 0.0188913 0.0191203 0.0193085 0.0194559 0.0195624 0.0196281 0.019653 0.019637 0.0195802 0.0194762 0.0193186 0.0191075 0.0188428 0.0185245 0.0181527 0.0177274 0.0172484 0.0167232 0.0161588 0.0155555 0.0149131 0.0142316 0.0135111 0.0127515 0.0119529 0.0111373 0.0103268 0.00952157 0.00872147 0.00792652 0.00713673 0.0063521 0.00557263 0.00482503 0.00413603 0.00350563 0.00293382 0.0024206 0.00196598 0.00156996 0.00123253 0.000943655 0.000693297 0.000481457 0.000308132 0.000173324 7.70331e-05 1.92583e-05 0 0 1.28217e-05 5.12869e-05 0.000115396 0.000205148 0.000320543 0.000461582 0.000628264 0.00082059 0.00104847 0.00132181 0.00164061 0.00200487 0.00241459 0.00286977 0.00337042 0.00391652 0.00448925 0.00506978 0.00565811 0.00625424 0.00685816 0.00746988 0.0080894 0.00871671 0.00933508 0.00992777 0.0104948 0.0110361 0.0115517 0.0120417 0.012506 0.0129445 0.0133542 0.0137317 0.0140771 0.0143903 0.0146713 0.0149202 0.015137 0.0153216 0.0154829 0.0156298 0.0157622 0.0158803 0.0159839 0.0160731 0.0161479 0.0162083 0.0162674 0.0163384 0.0164214 0.0165163 0.0166232 0.0167419 0.0168726 0.0170153 0.0171771 0.0173652 0.0175798 0.0178207 0.018088 0.0183816 0.0187017 0.0190481 0.0194154 0.0197983 0.0201966 0.0206104 0.0210398 0.0214846 0.0219449 0.0224208 0.0228954 0.0233519 0.0237905 0.024211 0.0246136 0.0249981 0.0253646 0.0257132 0.0260249 0.026281 0.0264816 0.0266266 0.026716 0.0267499 0.0267281 0.0266508 0.0265093 0.0262948 0.0260074 0.0256471 0.025214 0.0247079 0.0241289 0.023477 0.0227621 0.021994 0.0211727 0.0202983 0.0193708 0.0183901 0.0173562 0.0162692 0.0151591 0.014056 0.0129599 0.0118709 0.0107889 0.00971388 0.00864591 0.00758496 0.0065674 0.0056296 0.00477155 0.00399325 0.00329471 0.00267592 0.00213689 0.00167761 0.00128442 0.000943655 0.000655316 0.000419402 0.000235914 0.000104851 2.62126e-05 0 0 1.67467e-05 6.6987e-05 0.000150721 0.000267948 0.000418669 0.000602883 0.00082059 0.00107179 0.00136943 0.00172644 0.00214283 0.0026186 0.00315375 0.00374827 0.00440218 0.00511546 0.00586352 0.00662176 0.00739019 0.0081688 0.0089576 0.00975658 0.0105657 0.0113851 0.0121928 0.0129669 0.0137075 0.0144145 0.015088 0.0157279 0.0163343 0.0169071 0.0174422 0.0179353 0.0183864 0.0187955 0.0191626 0.0194876 0.0197707 0.0200118 0.0202225 0.0204144 0.0205874 0.0207416 0.0208769 0.0209934 0.0210911 0.02117 0.0212472 0.02134 0.0214484 0.0215723 0.0217119 0.021867 0.0220377 0.022224 0.0224354 0.0226811 0.0229613 0.023276 0.0236251 0.0240087 0.0244267 0.0248791 0.0253589 0.025859 0.0263792 0.0269198 0.0274805 0.0280615 0.0286628 0.0292843 0.0299041 0.0305005 0.0310733 0.0316226 0.0321483 0.0326506 0.0331293 0.0335845 0.0339917 0.0343263 0.0345882 0.0347776 0.0348944 0.0349386 0.0349102 0.0348092 0.0346243 0.0343442 0.0339689 0.0334983 0.0329325 0.0322715 0.0315153 0.0306638 0.0297301 0.0287268 0.0276542 0.0265121 0.0253006 0.0240197 0.0226693 0.0212495 0.0197996 0.0183588 0.0169272 0.0155048 0.0140916 0.0126875 0.0112926 0.00990689 0.00857783 0.00735295 0.00623223 0.00521568 0.00430329 0.00349508 0.00279104 0.00219116 0.00167761 0.00123253 0.000855923 0.000547791 0.000308132 0.000136948 3.42369e-05 0 0 2.14817e-05 8.59268e-05 0.000193335 0.000343707 0.000537043 0.000773341 0.0010526 0.00137483 0.00175617 0.00221279 0.00274467 0.00335183 0.00403426 0.00479197 0.00562494 0.00653319 0.00748548 0.00845057 0.00942847 0.0104192 0.0114227 0.012439 0.0134682 0.0145101 0.0155372 0.0165217 0.0174638 0.0183633 0.0192203 0.0200347 0.0208066 0.0215361 0.0222175 0.0228458 0.0234207 0.0239423 0.0244106 0.0248257 0.0251874 0.0254959 0.0257657 0.0260115 0.0262332 0.0264309 0.0266046 0.0267543 0.0268799 0.0269815 0.0270808 0.0271996 0.027338 0.0274958 0.0276732 0.0278701 0.0280864 0.0283223 0.0285897 0.0289005 0.0292546 0.0296522 0.0300932 0.0305776 0.0311054 0.0316766 0.0322823 0.0329134 0.0335701 0.0342522 0.0349597 0.0356928 0.0364513 0.0372353 0.0380171 0.0387691 0.0394912 0.0401835 0.0408459 0.0414785 0.0420813 0.0426542 0.0431663 0.0435865 0.0439148 0.0441512 0.0442957 0.0443484 0.0443092 0.0441782 0.0439409 0.0435832 0.043105 0.0425064 0.0417873 0.0409478 0.0399878 0.0389073 0.0377228 0.0364504 0.0350901 0.0336421 0.0321063 0.0304827 0.0287712 0.026972 0.0251345 0.0233085 0.021494 0.0196909 0.0178992 0.016119 0.0143503 0.012593 0.0109072 0.00935313 0.00793069 0.00663991 0.00548078 0.0044533 0.00355749 0.00279333 0.00213864 0.00157125 0.00109114 0.000698332 0.000392812 0.000174583 4.36457e-05 0 0 2.73132e-05 0.000109253 0.000245819 0.000437012 0.000682831 0.000983276 0.00133835 0.00174805 0.00223169 0.0028086 0.00347878 0.00424222 0.00509893 0.00604891 0.00709215 0.00822866 0.0094196 0.0106261 0.0118482 0.0130859 0.0143392 0.0156081 0.0168925 0.0181926 0.0194741 0.0207029 0.021879 0.0230024 0.0240731 0.0250912 0.0260565 0.0269692 0.0278224 0.0286095 0.0293303 0.0299851 0.0305736 0.031096 0.0315521 0.0319422 0.032284 0.0325956 0.032877 0.0331282 0.0333492 0.03354 0.0337006 0.0338309 0.033958 0.0341085 0.0342825 0.03448 0.0347011 0.0349456 0.0352137 0.0355052 0.035835 0.0362179 0.0366539 0.0371429 0.037685 0.0382802 0.0389284 0.0396297 0.040373 0.0411474 0.0419529 0.0427894 0.043657 0.0445557 0.0454854 0.0464461 0.0474039 0.0483246 0.0492083 0.0500549 0.0508645 0.051637 0.0523725 0.053071 0.0536942 0.0542039 0.0546002 0.0548831 0.0550526 0.0551086 0.0550512 0.0548803 0.0545785 0.0541281 0.0535291 0.0527816 0.0518855 0.0508409 0.0496477 0.048306 0.0468358 0.0452575 0.0435709 0.0417761 0.039873 0.0378618 0.0357423 0.0335145 0.0312395 0.0289782 0.0267306 0.0244967 0.0222764 0.0200699 0.017877 0.0156978 0.0136065 0.0116772 0.00990997 0.00830476 0.00686158 0.00558043 0.00446132 0.00350424 0.00268294 0.00197114 0.00136884 0.000876061 0.000492784 0.000219015 5.47538e-05 0 0 3.42413e-05 0.000136965 0.000308172 0.000547861 0.000856033 0.00123269 0.00167782 0.00219144 0.00279599 0.00351389 0.00434515 0.00528977 0.00634776 0.0075191 0.00880381 0.0102019 0.0116659 0.0131484 0.0146495 0.016169 0.0177071 0.0192637 0.0208389 0.0224325 0.0240034 0.0255103 0.0269531 0.0283319 0.0296466 0.0308973 0.0320839 0.0332066 0.0342568 0.0352264 0.0361154 0.0369237 0.0376514 0.0382985 0.0388649 0.0393506 0.0397773 0.0401667 0.0405187 0.0408334 0.0411107 0.0413506 0.0415532 0.0417184 0.0418787 0.0420666 0.042282 0.042525 0.0427956 0.0430937 0.0434194 0.0437726 0.0441714 0.0446335 0.0451591 0.0457481 0.0464005 0.0471163 0.0478956 0.0487382 0.0496311 0.0505609 0.0515278 0.0525316 0.0535724 0.0546502 0.055765 0.0569169 0.0580646 0.0591672 0.0602246 0.0612369 0.0622041 0.0631261 0.064003 0.0648348 0.0655753 0.0661786 0.0666446 0.0669734 0.0671649 0.0672191 0.067136 0.0669157 0.066537 0.0659788 0.0652411 0.0643238 0.063227 0.0619508 0.060495 0.0588597 0.0570693 0.0551482 0.0530964 0.050914 0.0486008 0.046157 0.0435824 0.0408772 0.0381146 0.0353679 0.0326371 0.0299221 0.0272231 0.02454 0.0218727 0.0192214 0.0166757 0.0143252 0.0121701 0.0102102 0.0084457 0.00687647 0.00550254 0.00432391 0.00331049 0.0024322 0.00168903 0.00108098 0.000608049 0.000270244 6.7561e-05 0 0 4.2266e-05 0.000169064 0.000380394 0.000676255 0.00105665 0.00152157 0.00207103 0.00270502 0.00344905 0.00432864 0.00534379 0.00649448 0.00778074 0.00920255 0.0107599 0.0124528 0.0142243 0.0160175 0.0178322 0.0196685 0.0215265 0.023406 0.0253072 0.02723 0.0291253 0.030944 0.0326861 0.0343517 0.0359407 0.0374531 0.0388889 0.0402482 0.0415208 0.0426967 0.0437759 0.0447584 0.0456441 0.0464332 0.0471256 0.0477213 0.0482458 0.0487249 0.0491584 0.0495465 0.0498891 0.0501862 0.0504378 0.0506439 0.050843 0.0510739 0.0513365 0.0516307 0.0519567 0.0523143 0.0527036 0.0531246 0.0535987 0.0541473 0.0547703 0.0554677 0.0562397 0.0570861 0.0580069 0.0590023 0.0600564 0.0611539 0.0622946 0.0634787 0.0647059 0.0659765 0.0672903 0.0686474 0.0699991 0.0712967 0.0725401 0.0737295 0.0748647 0.0759458 0.0769728 0.0779457 0.0788098 0.0795106 0.080048 0.080422 0.0806327 0.0806799 0.0805638 0.0802844 0.0798165 0.0791354 0.0782409 0.0771331 0.0758119 0.0742775 0.0725297 0.0705685 0.0684231 0.0661225 0.0636668 0.0610558 0.0582896 0.0553683 0.0522918 0.04906 0.0457598 0.0424775 0.0392134 0.0359673 0.0327393 0.0295294 0.0263375 0.0231637 0.0201147 0.0172971 0.014711 0.0123563 0.0102331 0.0083414 0.00668113 0.00525232 0.00402131 0.00295443 0.00205169 0.00131308 0.000738608 0.00032827 8.20675e-05 0 0 5.13872e-05 0.000205549 0.000462484 0.000822195 0.00128468 0.00184994 0.00251797 0.00328878 0.0041909 0.00525287 0.00647469 0.00785635 0.00939787 0.0110992 0.0129605 0.0149815 0.017095 0.0192332 0.0213964 0.0235843 0.0257972 0.0280349 0.0302974 0.0325849 0.0348395 0.0370039 0.039078 0.0410618 0.0429553 0.0447585 0.0464714 0.048094 0.0496143 0.0510202 0.0523117 0.0534889 0.0545517 0.0555002 0.0563343 0.0570541 0.0576894 0.05827 0.0587961 0.0592675 0.0596844 0.0600466 0.0603543 0.0606073 0.060851 0.0611305 0.0614459 0.0617972 0.0621844 0.0626075 0.0630664 0.0635612 0.0641171 0.0647591 0.0654874 0.0663018 0.0672025 0.0681894 0.0692625 0.0704218 0.0716491 0.0729264 0.0742535 0.0756306 0.0770576 0.0785344 0.0800612 0.0816379 0.0832075 0.0847132 0.0861548 0.0875326 0.0888463 0.0900961 0.0912819 0.0924037 0.0933976 0.0941998 0.0948103 0.095229 0.0954559 0.0954911 0.0953346 0.0949863 0.0944171 0.0935979 0.0925286 0.0912094 0.0896402 0.087821 0.0857517 0.0834324 0.0808973 0.0781805 0.0752819 0.0722016 0.0689395 0.0654957 0.0618702 0.058063 0.054175 0.0503072 0.0464596 0.0426322 0.0388251 0.0350381 0.0312713 0.0275248 0.0239236 0.0205929 0.0175327 0.014743 0.0122239 0.00997525 0.00799711 0.00628948 0.00481539 0.00353784 0.00245683 0.00157237 0.000884459 0.000393093 9.82732e-05 0 0 6.16049e-05 0.00024642 0.000554444 0.000985679 0.00154012 0.00221778 0.00301864 0.00394271 0.00502152 0.00628656 0.00773785 0.00937538 0.0111992 0.0132092 0.0154055 0.017788 0.0202777 0.0227957 0.025342 0.0279165 0.0305193 0.0331504 0.0358097 0.0384972 0.0411463 0.0436902 0.0461288 0.0484623 0.0506905 0.0528136 0.0548314 0.0567441 0.0585373 0.0601969 0.061723 0.0631154 0.0643742 0.0654995 0.0664911 0.0673491 0.068108 0.0688022 0.0694317 0.0699965 0.0704966 0.070932 0.0713027 0.0716087 0.0719025 0.0722363 0.0726103 0.0730245 0.0734787 0.0739731 0.0745077 0.0750823 0.0757264 0.0764691 0.0773104 0.0782504 0.0792891 0.0804263 0.0816623 0.0829968 0.0844092 0.0858784 0.0874045 0.0889874 0.0906273 0.092324 0.0940776 0.0958881 0.0976897 0.0994166 0.101069 0.102646 0.104149 0.105577 0.10693 0.108209 0.109339 0.110246 0.110932 0.111394 0.111635 0.111653 0.111448 0.111021 0.110339 0.109366 0.108104 0.106553 0.104712 0.102581 0.100161 0.0974515 0.0944919 0.091322 0.0879418 0.0843513 0.0805504 0.0765393 0.0723178 0.0678861 0.0633603 0.0588568 0.0543757 0.0499168 0.0454803 0.0410661 0.0366742 0.0323046 0.0281024 0.0242126 0.0206353 0.0173704 0.014418 0.011778 0.00945047 0.0074354 0.00569273 0.00418241 0.00290445 0.00185885 0.0010456 0.000464712 0.000116178 0 0 7.29192e-05 0.000291677 0.000656273 0.00116671 0.00182298 0.00262509 0.00357304 0.00466683 0.00594091 0.00742972 0.00913328 0.0110516 0.0131846 0.0155324 0.0180949 0.0208721 0.0237727 0.026705 0.0296692 0.0326651 0.0356929 0.0387525 0.0418439 0.0449671 0.0480455 0.0510027 0.0538385 0.0565531 0.0591464 0.0616183 0.063969 0.0661984 0.0682899 0.0702269 0.0720096 0.0736378 0.0751116 0.0764309 0.0775959 0.0786064 0.0795018 0.0803214 0.0810653 0.0817334 0.0823257 0.0828423 0.0832831 0.0836482 0.0839976 0.0843914 0.0848297 0.0853125 0.0858397 0.0864114 0.0870275 0.087688 0.0884267 0.0892772 0.0902395 0.0913135 0.0924993 0.0937969 0.0952062 0.0967274 0.0983365 0.10001 0.101747 0.103549 0.105415 0.107345 0.10934 0.111398 0.113446 0.115407 0.117282 0.11907 0.120772 0.122388 0.123918 0.125361 0.126633 0.12765 0.128412 0.128918 0.129169 0.129165 0.128905 0.12839 0.127581 0.12644 0.124968 0.123163 0.121027 0.118558 0.115758 0.112626 0.109207 0.105547 0.101647 0.0975049 0.0931224 0.088499 0.0836346 0.0785293 0.0733157 0.0681264 0.0629616 0.0578211 0.0527051 0.0476134 0.042546 0.0375031 0.032651 0.0281562 0.0240186 0.0202384 0.0168154 0.0137496 0.0110412 0.00869006 0.00665333 0.00488816 0.00339456 0.00217252 0.00122204 0.000543129 0.000135782 0 0 8.53301e-05 0.00034132 0.000767971 0.00136528 0.00213325 0.00307188 0.00418118 0.00546113 0.00694908 0.00868236 0.010661 0.0128849 0.0153542 0.0180688 0.0210288 0.0242341 0.0275798 0.030961 0.0343778 0.03783 0.0413178 0.0448412 0.0484 0.0519944 0.0555372 0.0589415 0.0622071 0.0653343 0.0683228 0.0711727 0.0738841 0.0764569 0.078872 0.0811102 0.0831716 0.0850561 0.0867638 0.0882947 0.0896486 0.0908258 0.0918706 0.0928276 0.0936968 0.0944782 0.0951717 0.0957775 0.0962954 0.0967256 0.0971362 0.0975957 0.098104 0.0986612 0.0992672 0.0999221 0.100626 0.101378 0.102218 0.103183 0.104274 0.105491 0.106833 0.108301 0.109894 0.111613 0.113431 0.115321 0.117282 0.119316 0.121421 0.123598 0.125847 0.128168 0.130476 0.132684 0.134794 0.136805 0.138717 0.14053 0.142245 0.14386 0.145281 0.146411 0.147251 0.1478 0.148059 0.148027 0.147704 0.147091 0.146145 0.14482 0.143119 0.141041 0.138585 0.135752 0.132542 0.128955 0.125042 0.120856 0.116396 0.111663 0.106655 0.101375 0.0958205 0.0899926 0.0840411 0.078116 0.0722174 0.0663452 0.0604993 0.0546799 0.048887 0.0431204 0.0375695 0.0324237 0.0276828 0.0233469 0.0194161 0.0158902 0.0127693 0.0100535 0.00769719 0.00565508 0.00392714 0.00251337 0.00141377 0.000628342 0.000157086 0 0 9.86296e-05 0.000394519 0.000887667 0.00157807 0.00246574 0.00355067 0.00483285 0.0063123 0.00802916 0.0100236 0.0122956 0.0148452 0.0176723 0.020777 0.0241593 0.0278192 0.0316375 0.035495 0.0393918 0.0433279 0.0473033 0.051318 0.0553719 0.0594651 0.0634996 0.0673772 0.0710981 0.0746622 0.0780696 0.0813201 0.0844139 0.0873509 0.0901092 0.092667 0.0950243 0.097181 0.0991372 0.100893 0.102448 0.103802 0.105006 0.106109 0.107112 0.108013 0.108814 0.109513 0.110112 0.11061 0.111085 0.111612 0.112192 0.112824 0.11351 0.114249 0.11504 0.115885 0.116826 0.117906 0.119126 0.120485 0.121984 0.123623 0.125401 0.127319 0.129347 0.131454 0.133641 0.135908 0.138254 0.14068 0.143186 0.145771 0.14834 0.150798 0.153143 0.155377 0.1575 0.15951 0.161409 0.163196 0.164763 0.166004 0.166918 0.167506 0.167766 0.1677 0.167307 0.166587 0.165492 0.163973 0.16203 0.159663 0.156873 0.153658 0.15002 0.145958 0.141531 0.136796 0.131754 0.126404 0.120748 0.114784 0.108513 0.101934 0.0952165 0.0885269 0.0818658 0.075233 0.0686285 0.0620524 0.0555047 0.0489853 0.0427073 0.0368836 0.0315142 0.0265991 0.0221384 0.018132 0.01458 0.0114822 0.0087911 0.00645876 0.00448525 0.00287056 0.00161469 0.00071764 0.00017941 0 0 0.00011261 0.00045044 0.00101349 0.00180176 0.00281525 0.00405396 0.00551789 0.00720703 0.00916429 0.0114325 0.0140118 0.016902 0.0201033 0.0236155 0.0274387 0.0315729 0.0358841 0.0402383 0.0446354 0.0490754 0.0535585 0.0580844 0.0626533 0.0672652 0.0718107 0.0761806 0.0803749 0.0843935 0.0882365 0.0919038 0.0953955 0.0987115 0.101827 0.104718 0.107383 0.109823 0.112038 0.114027 0.115792 0.117331 0.118701 0.119955 0.121095 0.12212 0.12303 0.123825 0.124506 0.125072 0.125608 0.126201 0.12685 0.127556 0.128317 0.129135 0.130009 0.130939 0.131974 0.133163 0.134504 0.135999 0.137647 0.139448 0.141402 0.14351 0.145737 0.148052 0.150455 0.152945 0.155522 0.158187 0.160939 0.163779 0.1666 0.169296 0.171868 0.174315 0.176637 0.178835 0.180909 0.182857 0.184562 0.185905 0.186884 0.1875 0.187754 0.187644 0.187172 0.186337 0.185085 0.183363 0.181171 0.178508 0.175375 0.171772 0.167698 0.163154 0.158205 0.152915 0.147283 0.141311 0.134998 0.128344 0.121349 0.114013 0.106522 0.0990604 0.0916294 0.0842286 0.0768579 0.0695173 0.0622069 0.0549267 0.0479135 0.0414043 0.0353991 0.0298979 0.0249007 0.0204075 0.0164182 0.012933 0.00990182 0.00727481 0.00505195 0.00323325 0.0018187 0.000808312 0.000202078 0 0 0.000127271 0.000509084 0.00114544 0.00203633 0.00318177 0.00458175 0.00623627 0.00814534 0.0103545 0.0129092 0.0158096 0.0190555 0.0226471 0.0265842 0.030867 0.0354954 0.0403198 0.0451908 0.0501084 0.0550725 0.0600832 0.0651405 0.0702443 0.0753947 0.0804708 0.0853517 0.0900375 0.0945281 0.0988235 0.102924 0.106829 0.110539 0.114026 0.117262 0.120247 0.122982 0.125466 0.127699 0.129681 0.131412 0.132954 0.134365 0.135647 0.136799 0.137821 0.138714 0.139477 0.14011 0.140708 0.141365 0.14208 0.142855 0.143688 0.144581 0.145532 0.146542 0.147665 0.148954 0.15041 0.152032 0.15382 0.155775 0.157896 0.160184 0.162602 0.165116 0.167724 0.170428 0.173226 0.17612 0.179108 0.182192 0.185254 0.188179 0.190967 0.193617 0.19613 0.198506 0.200744 0.202845 0.204678 0.206112 0.207147 0.207784 0.208021 0.20786 0.2073 0.206342 0.204925 0.202992 0.200542 0.197576 0.194093 0.190093 0.185577 0.180544 0.175065 0.169212 0.162985 0.156382 0.149406 0.142054 0.134329 0.126228 0.117956 0.109717 0.101508 0.093332 0.0851874 0.0770747 0.0689937 0.0609445 0.0531882 0.0459859 0.0393376 0.0332433 0.0277029 0.0227165 0.0182841 0.0144057 0.0110294 0.00810322 0.00562723 0.00360143 0.0020258 0.000900357 0.000225089 0 0 0.000142613 0.000570451 0.00128351 0.0022818 0.00356532 0.00513406 0.00698802 0.00912721 0.0115997 0.0144536 0.0176889 0.0213056 0.0253037 0.0296832 0.0344441 0.0395864 0.0449445 0.0503526 0.0558109 0.0613192 0.0668777 0.0724862 0.0781448 0.0838536 0.0894797 0.0948904 0.100086 0.105066 0.109831 0.11438 0.118714 0.122833 0.126705 0.1303 0.133618 0.136658 0.139421 0.141906 0.144115 0.146046 0.147765 0.149339 0.150767 0.15205 0.153187 0.154179 0.155025 0.155725 0.156383 0.157102 0.157882 0.158722 0.159624 0.160586 0.161609 0.162693 0.163896 0.165279 0.166842 0.168584 0.170504 0.172605 0.174884 0.177343 0.179942 0.182644 0.185449 0.188356 0.191366 0.194478 0.197693 0.20101 0.204303 0.207447 0.21044 0.213284 0.215978 0.218521 0.220915 0.223158 0.22511 0.226627 0.227709 0.228356 0.228569 0.228348 0.227691 0.226601 0.225011 0.222859 0.220144 0.216866 0.213025 0.208622 0.203655 0.198126 0.192111 0.185689 0.178858 0.171618 0.163971 0.155916 0.147452 0.13858 0.129521 0.120495 0.111503 0.102543 0.0936172 0.0847245 0.075865 0.0670389 0.0585315 0.0506285 0.0433297 0.0366352 0.0305451 0.0250592 0.0201777 0.0159004 0.0121738 0.00894398 0.0062111 0.0039751 0.002236 0.000993776 0.000248444 0 0 0.000158635 0.00063454 0.00142772 0.00253816 0.00396588 0.00571086 0.00777312 0.0101526 0.0129 0.0160657 0.0196499 0.0236523 0.0280732 0.0329125 0.0381701 0.0438462 0.0497582 0.0557237 0.0617428 0.0678155 0.0739417 0.0801215 0.0863549 0.0926418 0.0988374 0.104797 0.11052 0.116007 0.121258 0.126273 0.131051 0.135593 0.139865 0.143832 0.147494 0.150851 0.153903 0.156651 0.159093 0.161231 0.163135 0.164877 0.166456 0.167873 0.169128 0.17022 0.17115 0.171917 0.172634 0.173413 0.174254 0.175158 0.176123 0.17715 0.17824 0.179391 0.180669 0.182139 0.183801 0.185655 0.1877 0.189937 0.192365 0.194986 0.197757 0.200638 0.203629 0.20673 0.209941 0.213262 0.216693 0.220233 0.223748 0.2271 0.230289 0.233316 0.23618 0.238882 0.241421 0.243798 0.245858 0.247448 0.248568 0.249218 0.249397 0.249106 0.248346 0.247114 0.245344 0.242964 0.239976 0.236379 0.232173 0.227358 0.221934 0.215901 0.209343 0.202344 0.194902 0.187019 0.178694 0.169928 0.160719 0.151069 0.141216 0.131396 0.121612 0.111862 0.102147 0.0924668 0.0828209 0.0732097 0.0639433 0.0553318 0.0473753 0.0400738 0.0334272 0.0274355 0.0220988 0.0174171 0.013335 0.00979711 0.00680355 0.00435427 0.00244928 0.00108857 0.000272142 0 0 0.000175338 0.000701353 0.00157804 0.00280541 0.00438346 0.00631218 0.00859158 0.0112217 0.0142553 0.0177456 0.0216924 0.0260957 0.0309556 0.036272 0.042045 0.0482745 0.0547608 0.0613041 0.0679042 0.0745614 0.0812755 0.0880465 0.0948745 0.101759 0.108544 0.115071 0.12134 0.127352 0.133105 0.138601 0.14384 0.14882 0.153506 0.157857 0.161876 0.165561 0.168913 0.171932 0.174617 0.176969 0.179064 0.180979 0.182714 0.184269 0.185643 0.186837 0.187852 0.188685 0.189461 0.190298 0.191198 0.192161 0.193186 0.194274 0.195425 0.196638 0.197984 0.199534 0.201287 0.203245 0.205406 0.207771 0.21034 0.213113 0.216046 0.219097 0.222265 0.22555 0.228952 0.232471 0.236108 0.239862 0.243587 0.247138 0.250513 0.253713 0.256738 0.259588 0.262263 0.264763 0.266923 0.268577 0.269725 0.270368 0.270505 0.270137 0.269263 0.267883 0.265923 0.263308 0.260038 0.256114 0.251535 0.246301 0.240413 0.23387 0.226761 0.219178 0.211119 0.202585 0.193575 0.18409 0.17413 0.163695 0.15304 0.14242 0.131837 0.121289 0.110777 0.100301 0.0898614 0.079457 0.0694236 0.0600961 0.0514746 0.0435589 0.0363492 0.0298455 0.0240476 0.0189557 0.014513 0.0106626 0.00740458 0.00473893 0.00266565 0.00118473 0.000296183 0 0 0.000192722 0.000770889 0.0017345 0.00308356 0.00481806 0.006938 0.00944339 0.0123342 0.0156657 0.0194931 0.0238165 0.0286357 0.0339508 0.0397618 0.0460687 0.0528716 0.0599525 0.0670937 0.0742951 0.0815568 0.0888788 0.0962611 0.103704 0.111206 0.118599 0.125713 0.132546 0.139099 0.145373 0.151366 0.15708 0.162514 0.167627 0.172377 0.176764 0.180788 0.18445 0.187749 0.190685 0.193259 0.195552 0.197645 0.19954 0.201236 0.202733 0.204031 0.20513 0.206031 0.206863 0.207757 0.208714 0.209733 0.210814 0.211958 0.213164 0.214432 0.215839 0.217462 0.219301 0.221354 0.223624 0.226108 0.228809 0.231724 0.23481 0.238021 0.241355 0.244815 0.248398 0.252106 0.255939 0.259896 0.263822 0.26756 0.271111 0.274475 0.277651 0.280639 0.283441 0.286054 0.288304 0.290013 0.291181 0.291807 0.291893 0.291438 0.290442 0.288906 0.286748 0.28389 0.280331 0.276072 0.271113 0.265453 0.259092 0.252031 0.244365 0.23619 0.227507 0.218315 0.208614 0.198404 0.187685 0.176457 0.164994 0.153567 0.