<?xml version="1.0"?> 
<VTKFile type="StructuredGrid" version="0.1"> 
<StructuredGrid WholeExtent="0 128 0 128 0 0"> 
<Piece Extent="0 128 0 128 0 0"> 
<PointData>
<DataArray type="Float32" Name="u" format="ascii" NumberOfComponents="1"> 
0 0 0 0 0 0 0 0 0 0 0 0 0 0 0 0 0 0 0 0 0 0 0 0 0 0 0 0 0 0 0 0 0 0 0 0 0 0 0 0 0 0 0 0 0 0 0 0 0 0 0 0 0 0 0 0 0 0 0 0 0 0 0 0 0 0 0 0 0 0 0 0 0 0 0 0 0 0 0 0 0 0 0 0 0 0 0 0 0 0 0 0 0 0 0 0 0 0 0 0 0 0 0 0 0 0 0 0 0 0 0 0 0 0 0 0 0 0 0 0 0 0 0 0 0 0 0 0 0 0 2.79568e-07 1.11827e-06 2.51611e-06 4.47309e-06 6.9892e-06 1.00644e-05 1.36988e-05 1.78923e-05 2.28567e-05 2.88037e-05 3.57332e-05 4.36452e-05 5.25399e-05 6.24171e-05 7.32769e-05 8.51192e-05 9.75181e-05 0.000110048 0.000122708 0.000135498 0.000148419 0.000161471 0.000174653 0.000187966 0.000201032 0.000213476 0.000225296 0.000236492 0.000247066 0.000257016 0.000266343 0.000275047 0.000283065 0.000290333 0.000296851 0.000302619 0.000307638 0.000311908 0.000315427 0.000318197 0.000320441 0.000322383 0.000324022 0.000325358 0.000326392 0.000327124 0.000327553 0.00032768 0.000327831 0.000328333 0.000329186 0.000330391 0.000331946 0.000333852 0.000336109 0.000338718 0.000341859 0.000345713 0.000350281 0.000355563 0.000361558 0.000368267 0.000375689 0.000383825 0.000392546 0.000401722 0.000411354 0.000421442 0.000431985 0.000442983 0.000454437 0.000466347 0.000478305 0.000489904 0.000501145 0.000512026 0.000522549 0.000532713 0.000542517 0.000551964 0.000560592 0.000567944 0.000574019 0.000578817 0.000582339 0.000584584 0.000585552 0.000585244 0.000583442 0.00057993 0.000574708 0.000567776 0.000559133 0.00054878 0.000536717 0.000522944 0.000507683 0.000491157 0.000473365 0.000454307 0.000433985 0.000412396 0.000389542 0.000365423 0.00034073 0.000316155 0.000291699 0.00026736 0.000243139 0.000219036 0.000195051 0.000171184 0.00014827 0.000127146 0.000107811 9.02658e-05 7.45094e-05 6.05423e-05 4.83645e-05 3.79759e-05 2.90753e-05 2.13614e-05 1.48343e-05 9.49397e-06 5.34036e-06 2.37349e-06 5.93373e-07 0 0 1.11827e-06 4.47309e-06 1.00644e-05 1.78923e-05 2.79568e-05 4.02578e-05 5.47953e-05 7.15694e-05 9.14269e-05 0.000115215 0.000142933 0.000174581 0.00021016 0.000249668 0.000293107 0.000340477 0.000390073 0.00044019 0.00049083 0.000541993 0.000593677 0.000645884 0.000698613 0.000751864 0.000804129 0.000853902 0.000901182 0.000945969 0.000988264 0.00102807 0.00106537 0.00110019 0.00113226 0.00116133 0.0011874 0.00121048 0.00123055 0.00124763 0.00126171 0.00127279 0.00128176 0.00128953 0.00129609 0.00130143 0.00130557 0.0013085 0.00131021 0.00131072 0.00131132 0.00131333 0.00131675 0.00132156 0.00132778 0.00133541 0.00134444 0.00135487 0.00136743 0.00138285 0.00140112 0.00142225 0.00144623 0.00147307 0.00150276 0.0015353 0.00157018 0.00160689 0.00164542 0.00168577 0.00172794 0.00177193 0.00181775 0.00186539 0.00191322 0.00195962 0.00200458 0.0020481 0.00209019 0.00213085 0.00217007 0.00220785 0.00224237 0.00227177 0.00229607 0.00231527 0.00232935 0.00233833 0.00234221 0.00234098 0.00233377 0.00231972 0.00229883 0.0022711 0.00223653 0.00219512 0.00214687 0.00209178 0.00203073 0.00196463 0.00189346 0.00181723 0.00173594 0.00164958 0.00155817 0.00146169 0.00136292 0.00126462 0.00116679 0.00106944 0.000972555 0.000876143 0.000780203 0.000684735 0.000593081 0.000508585 0.000431246 0.000361063 0.000298038 0.000242169 0.000193458 0.000151904 0.000116301 8.54457e-05 5.93373e-05 3.79759e-05 2.13614e-05 9.49397e-06 2.37349e-06 0 0 2.51611e-06 1.00644e-05 2.2645e-05 4.02578e-05 6.29028e-05 9.058e-05 0.000123289 0.000161031 0.00020571 0.000259233 0.000321598 0.000392807 0.000472859 0.000561754 0.000659492 0.000766073 0.000877663 0.000990428 0.00110437 0.00121948 0.00133577 0.00145324 0.00157188 0.00169169 0.00180929 0.00192128 0.00202766 0.00212843 0.00222359 0.00231315 0.00239709 0.00247543 0.00254758 0.00261299 0.00267166 0.00272357 0.00276874 0.00280717 0.00283884 0.00286377 0.00288397 0.00290144 0.00291619 0.00292822 0.00293753 0.00294412 0.00294798 0.00294912 0.00295048 0.002955 0.00296268 0.00297351 0.00298751 0.00300467 0.00302499 0.00304846 0.00307673 0.00311142 0.00315253 0.00320006 0.00325402 0.0033144 0.0033812 0.00345443 0.00353291 0.0036155 0.00370219 0.00379297 0.00388786 0.00398685 0.00408994 0.00419712 0.00430475 0.00440914 0.0045103 0.00460823 0.00470294 0.00479441 0.00488266 0.00496767 0.00504533 0.00511149 0.00516617 0.00520935 0.00524105 0.00526125 0.00526997 0.00526719 0.00525098 0.00521937 0.00517237 0.00510998 0.0050322 0.00493902 0.00483046 0.0047065 0.00456915 0.00442041 0.00426028 0.00408877 0.00390586 0.00371157 0.00350588 0.00328881 0.00306657 0.0028454 0.00262529 0.00240624 0.00218825 0.00197132 0.00175546 0.00154065 0.00133443 0.00114432 0.000970303 0.000812392 0.000670585 0.000544881 0.00043528 0.000341783 0.000261678 0.000192253 0.000133509 8.54457e-05 4.80632e-05 2.13614e-05 5.34036e-06 0 0 4.47309e-06 1.78923e-05 4.02578e-05 7.15694e-05 0.000111827 0.000161031 0.000219181 0.000286278 0.000365707 0.000460858 0.000571731 0.000698324 0.000840638 0.000998673 0.00117243 0.00136191 0.00156029 0.00176076 0.00196332 0.00216797 0.00237471 0.00258354 0.00279445 0.00300745 0.00321652 0.00341561 0.00360473 0.00378388 0.00395305 0.00411226 0.00426149 0.00440076 0.00452904 0.00464532 0.00474961 0.00484191 0.00492221 0.00499052 0.00504683 0.00509115 0.00512706 0.00515812 0.00518435 0.00520573 0.00522228 0.00523398 0.00524085 0.00524288 0.0052453 0.00525333 0.00526698 0.00528625 0.00531113 0.00534163 0.00537775 0.00541949 0.00546974 0.00553141 0.0056045 0.005689 0.00578493 0.00589227 0.00601103 0.00614121 0.00628074 0.00642756 0.00658167 0.00674307 0.00691175 0.00708773 0.007271 0.00746155 0.00765288 0.00783847 0.00801831 0.00819242 0.00836078 0.0085234 0.00868028 0.00883142 0.00896947 0.0090871 0.0091843 0.00926107 0.00931742 0.00935334 0.00936883 0.0093639 0.00933507 0.00927888 0.00919533 0.00908441 0.00894613 0.00878049 0.00858748 0.00836711 0.00812293 0.00785851 0.00757384 0.00726892 0.00694375 0.00659834 0.00623268 0.00584677 0.00545169 0.00505849 0.00466718 0.00427775 0.00389022 0.00350457 0.00312081 0.00273894 0.00237233 0.00203434 0.00172498 0.00144425 0.00119215 0.000968677 0.000773832 0.000607614 0.000465205 0.000341783 0.000237349 0.000151904 8.54457e-05 3.79759e-05 9.49397e-06 0 0 6.9892e-06 2.79568e-05 6.29028e-05 0.000111827 0.00017473 0.000251611 0.000342471 0.000447309 0.000571418 0.000720091 0.000893329 0.00109113 0.0013135 0.00156043 0.00183192 0.00212798 0.00243795 0.00275119 0.00306769 0.00338745 0.00371048 0.00403677 0.00436633 0.00469915 0.00502581 0.00533689 0.00563239 0.00591231 0.00617665 0.00642541 0.00665859 0.00687618 0.00707662 0.00725832 0.00742127 0.00756548 0.00769096 0.00779769 0.00788568 0.00795493 0.00801103 0.00805956 0.00810054 0.00813395 0.00815981 0.0081781 0.00818883 0.008192 0.00819578 0.00820833 0.00822966 0.00825976 0.00829864 0.0083463 0.00840274 0.00846795 0.00854647 0.00864282 0.00875702 0.00888906 0.00903895 0.00920667 0.00939223 0.00959563 0.00981365 0.0100431 0.0102839 0.010536 0.0107996 0.0110746 0.0113609 0.0116587 0.0119576 0.0122476 0.0125286 0.0128007 0.0130637 0.0133178 0.0135629 0.0137991 0.0140148 0.0141986 0.0143505 0.0144704 0.0145585 0.0146146 0.0146388 0.0146311 0.0145861 0.0144983 0.0143677 0.0141944 0.0139783 0.0137195 0.0134179 0.0130736 0.0126921 0.0122789 0.0118341 0.0113577 0.0108496 0.0103099 0.00973856 0.00913558 0.00851826 0.00790389 0.00729246 0.00668399 0.00607847 0.00547589 0.00487627 0.00427959 0.00370676 0.00317866 0.00269528 0.00225664 0.00186274 0.00151356 0.00120911 0.000949397 0.000726882 0.000534036 0.000370858 0.000237349 0.000133509 5.93373e-05 1.48343e-05 0 0 1.00644e-05 4.02578e-05 9.058e-05 0.000161031 0.000251611 0.00036232 0.000493158 0.000644124 0.000822842 0.00103693 0.00128639 0.00157123 0.00189144 0.00224702 0.00263797 0.00306429 0.00351065 0.00396171 0.00441747 0.00487793 0.00534309 0.00581295 0.00628751 0.00676677 0.00723717 0.00768512 0.00811064 0.00851373 0.00889437 0.00925259 0.00958836 0.0099017 0.0101903 0.010452 0.0106866 0.0108943 0.011075 0.0112287 0.0113554 0.0114551 0.0115359 0.0116058 0.0116648 0.0117129 0.0117501 0.0117765 0.0117919 0.0117965 0.0118019 0.01182 0.0118507 0.0118941 0.01195 0.0120187 0.0120999 0.0121938 0.0123069 0.0124457 0.0126101 0.0128003 0.0130161 0.0132576 0.0135248 0.0138177 0.0141317 0.014462 0.0148088 0.0151719 0.0155514 0.0159474 0.0163597 0.0167885 0.017219 0.0176366 0.0180412 0.0184329 0.0188118 0.0191777 0.0195306 0.0198707 0.0201813 0.020446 0.0206647 0.0208374 0.0209642 0.021045 0.0210799 0.0210688 0.0210039 0.0208775 0.0206895 0.0204399 0.0201288 0.0197561 0.0193218 0.018826 0.0182766 0.0176816 0.0170411 0.0163551 0.0156234 0.0148463 0.0140235 0.0131552 0.0122663 0.0113816 0.0105011 0.00962495 0.00875299 0.00788528 0.00702183 0.00616261 0.00533773 0.00457726 0.00388121 0.00324957 0.00268234 0.00217952 0.00174112 0.00136713 0.00104671 0.000769012 0.000534036 0.000341783 0.000192253 8.54457e-05 2.13614e-05 0 0 1.36988e-05 5.47953e-05 0.000123289 0.000219181 0.000342471 0.000493158 0.000671243 0.000876725 0.00111998 0.00141138 0.00175092 0.00213862 0.00257445 0.00305844 0.00359057 0.00417084 0.00477839 0.00539233 0.00601267 0.00663941 0.00727254 0.00791208 0.008558 0.00921033 0.00985059 0.0104603 0.0110395 0.0115881 0.0121062 0.0125938 0.0130508 0.0134773 0.0138702 0.0142263 0.0145457 0.0148283 0.0150743 0.0152835 0.0154559 0.0155917 0.0157016 0.0157967 0.0158771 0.0159425 0.0159932 0.0160291 0.0160501 0.0160563 0.0160637 0.0160883 0.0161301 0.0161891 0.0162653 0.0163588 0.0164694 0.0165972 0.0167511 0.0169399 0.0171638 0.0174226 0.0177163 0.0180451 0.0184088 0.0188074 0.0192348 0.0196844 0.0201564 0.0206506 0.0211672 0.0217062 0.0222674 0.022851 0.0234369 0.0240053 0.0245561 0.0250893 0.0256049 0.0261029 0.0265834 0.0270462 0.027469 0.0278292 0.0281269 0.028362 0.0285346 0.0286446 0.0286921 0.0286769 0.0285887 0.0284166 0.0281607 0.027821 0.0273975 0.0268902 0.0262992 0.0256243 0.0248765 0.0240667 0.0231949 0.0222611 0.0212652 0.0202074 0.0190876 0.0179057 0.0166958 0.0154916 0.0142932 0.0131006 0.0119138 0.0107327 0.00955748 0.008388 0.00726525 0.00623017 0.00528276 0.00442302 0.00365096 0.00296657 0.00236986 0.00186082 0.00142469 0.00104671 0.000726882 0.000465205 0.000261678 0.000116301 2.90753e-05 0 0 1.78923e-05 7.15694e-05 0.000161031 0.000286278 0.000447309 0.000644124 0.000876725 0.00114511 0.00146283 0.00184343 0.00228692 0.0027933 0.00336255 0.00399469 0.00468972 0.00544763 0.00624116 0.00704305 0.00785329 0.00867188 0.00949883 0.0103341 0.0111778 0.0120298 0.0128661 0.0136624 0.0144189 0.0151355 0.0158122 0.016449 0.017046 0.017603 0.0181161 0.0185813 0.0189985 0.0193676 0.0196888 0.0199621 0.0201873 0.0203646 0.0205082 0.0206325 0.0207374 0.0208229 0.0208891 0.0209359 0.0209634 0.0209715 0.0209812 0.0210133 0.0210679 0.021145 0.0212445 0.0213665 0.021511 0.0216779 0.021879 0.0221256 0.022418 0.022756 0.0231397 0.0235691 0.0240441 0.0245648 0.0251229 0.0257102 0.0263267 0.0269723 0.027647 0.0283509 0.029084 0.0298462 0.0306115 0.0313539 0.0320733 0.0327697 0.0334431 0.0340936 0.0347211 0.0353257 0.0358779 0.0363484 0.0367372 0.0370443 0.0372697 0.0374134 0.0374753 0.0374556 0.0373403 0.0371155 0.0367813 0.0363376 0.0357845 0.0351219 0.0343499 0.0334684 0.0324917 0.031434 0.0302953 0.0290757 0.027775 0.0263934 0.0249307 0.0233871 0.0218067 0.0202339 0.0186687 0.017111 0.0155609 0.0140183 0.0124832 0.0109558 0.0094893 0.00813736 0.00689993 0.00577701 0.0047686 0.00387471 0.00309533 0.00243046 0.00186082 0.00136713 0.000949397 0.000607614 0.000341783 0.000151904 3.79759e-05 0 0 2.29608e-05 9.18434e-05 0.000206648 0.000367373 0.000574021 0.00082659 0.00112508 0.00146949 0.00187673 0.00236369 0.00293038 0.00357679 0.00430292 0.00510878 0.00599437 0.00695968 0.00797009 0.00899097 0.0100223 0.0110641 0.0121164 0.0131792 0.0142524 0.0153361 0.0163998 0.0174129 0.0183754 0.0192873 0.0201487 0.0209594 0.0217196 0.0224293 0.0230831 0.0236762 0.0242083 0.0246795 0.0250899 0.0254394 0.0257279 0.0259556 0.0261405 0.0263007 0.0264362 0.026547 0.026633 0.0266944 0.026731 0.0267429 0.0267566 0.0267984 0.0268685 0.0269668 0.0270933 0.027248 0.027431 0.0276421 0.0278962 0.0282078 0.0285771 0.029004 0.0294885 0.0300306 0.0306303 0.0312876 0.0319921 0.0327334 0.0335114 0.0343262 0.0351778 0.0360661 0.0369912 0.0379531 0.0389188 0.0398553 0.0407628 0.0416411 0.0424902 0.0433103 0.0441012 0.044863 0.0455585 0.0461507 0.0466394 0.0470248 0.0473067 0.0474853 0.0475605 0.0475322 0.0473831 0.0470955 0.0466694 0.0461049 0.0454019 0.0445604 0.0435805 0.0424621 0.0412233 0.039882 0.0384383 0.0368922 0.0352436 0.0334925 0.0316391 0.0296831 0.0276807 0.0256876 0.0237038 0.0217294 0.0197644 0.0178087 0.0158624 0.0139255 0.0120656 0.0103504 0.00877992 0.00735415 0.0060731 0.00493676 0.00394514 0.00309822 0.00237208 0.00174275 0.00121024 0.000774556 0.000435688 0.000193639 4.84097e-05 0 0 2.92202e-05 0.000116881 0.000262981 0.000467522 0.000730504 0.00105193 0.00143179 0.00187009 0.00238701 0.00300274 0.00371728 0.00453062 0.00544276 0.00645371 0.00756347 0.00877202 0.0100363 0.0113132 0.0126028 0.013905 0.0152198 0.0165473 0.0178874 0.0192402 0.0205679 0.0218329 0.0230353 0.0241749 0.0252518 0.0262661 0.0272176 0.0281064 0.0289261 0.0296701 0.0303385 0.0309314 0.0314485 0.0318901 0.0322561 0.0325464 0.0327834 0.0329892 0.033164 0.0333076 0.0334202 0.0335017 0.033552 0.0335713 0.0335921 0.0336471 0.0337363 0.0338597 0.0340174 0.0342093 0.0344353 0.0346956 0.0350083 0.0353916 0.0358455 0.0363699 0.036965 0.0376306 0.0383668 0.0391736 0.0400382 0.0409478 0.0419024 0.042902 0.0439467 0.0450363 0.046171 0.0473507 0.0485348 0.0496828 0.0507947 0.0518704 0.05291 0.0539135 0.0548809 0.0558122 0.0566616 0.0573833 0.0579775 0.0584441 0.058783 0.0589944 0.0590782 0.0590343 0.0588413 0.0584775 0.0579429 0.0572377 0.0563616 0.0553148 0.0540973 0.052709 0.0511722 0.049509 0.0477196 0.0458038 0.0437618 0.0415934 0.0392987 0.0368777 0.0343991 0.0319314 0.0294748 0.0270292 0.0245946 0.022171 0.0197584 0.0173568 0.0150498 0.0129208 0.0109699 0.00919708 0.00760229 0.00618557 0.0049469 0.0038863 0.00297545 0.00218604 0.00151808 0.000971574 0.00054651 0.000242894 6.07234e-05 0 0 3.66703e-05 0.000146681 0.000330033 0.000586725 0.000916757 0.00132013 0.00179684 0.0023469 0.00299368 0.0037606 0.00464763 0.00565479 0.00678207 0.00802947 0.009397 0.0108847 0.0124398 0.0140098 0.0155947 0.0171944 0.018809 0.0204385 0.0220828 0.023742 0.0253705 0.0269227 0.0283986 0.0297983 0.0311218 0.0323689 0.0335399 0.0346345 0.0356449 0.0365632 0.0373893 0.0381231 0.0387648 0.0393144 0.0397717 0.0401369 0.0404367 0.040698 0.0409207 0.041105 0.0412507 0.0413578 0.0414265 0.0414566 0.0414877 0.0415593 0.0416713 0.0418238 0.0420168 0.0422502 0.0425241 0.0428385 0.0432155 0.043677 0.0442231 0.0448538 0.0455692 0.0463691 0.0472536 0.0482227 0.0492611 0.0503534 0.0514996 0.0526996 0.0539536 0.0552615 0.0566233 0.0580389 0.0594596 0.0608362 0.062169 0.0634577 0.0647025 0.0659034 0.0670602 0.0681732 0.0691869 0.0700464 0.0707515 0.0713022 0.0716986 0.0719407 0.0720284 0.0719618 0.0717149 0.0712616 0.070602 0.0697361 0.0686638 0.0673852 0.0659003 0.064209 0.0623383 0.060315 0.0581391 0.0558107 0.0533296 0.0506959 0.0479097 0.0449708 0.0419619 0.0389655 0.0359816 0.0330103 0.0300514 0.027105 0.0241711 0.0212498 0.018442 0.0158487 0.01347 0.0113058 0.00935618 0.00762112 0.00610062 0.00479467 0.00367092 0.002697 0.00187292 0.00119867 0.000674251 0.000299667 7.49168e-05 0 0 4.53112e-05 0.000181245 0.000407801 0.00072498 0.00113278 0.0016312 0.00222025 0.00289992 0.00369674 0.00463724 0.00572143 0.00694929 0.00832084 0.00983607 0.011495 0.0132976 0.0151806 0.0170807 0.018998 0.0209324 0.022884 0.0248527 0.0268385 0.0288415 0.0308074 0.032682 0.0344654 0.0361576 0.0377585 0.0392681 0.0406864 0.0420135 0.0432397 0.0443553 0.0453604 0.0462549 0.0470388 0.0477121 0.0482749 0.0487271 0.0491005 0.049427 0.0497064 0.0499389 0.0501244 0.0502629 0.0503544 0.050399 0.0504435 0.050535 0.0506735 0.050859 0.0510915 0.0513709 0.0516974 0.0520708 0.0525175 0.0530639 0.05371 0.0544557 0.0553011 0.0562461 0.0572907 0.0584351 0.0596609 0.0609502 0.0623029 0.0637191 0.0651986 0.0667416 0.068348 0.0700179 0.0716931 0.0733157 0.0748857 0.076403 0.0778677 0.0792798 0.0806392 0.081946 0.0831347 0.0841398 0.0849613 0.0855992 0.0860535 0.0863242 0.0864113 0.0863148 0.0860039 0.0854478 0.0846465 0.0836 0.0823084 0.0807715 0.0789895 0.0769623 0.0747218 0.0723 0.069697 0.0669127 0.063947 0.0608001 0.0574719 0.0539625 0.0503693 0.0467899 0.0432244 0.0396727 0.0361348 0.0326108 0.0291007 0.0256043 0.022242 0.0191339 0.01628 0.0136803 0.0113348 0.00924343 0.00740629 0.00582336 0.00445851 0.00327564 0.00227475 0.00145584 0.00081891 0.00036396 9.099e-05 0 0 5.5143e-05 0.000220572 0.000496287 0.000882288 0.00137858 0.00198515 0.00270201 0.00352915 0.00449618 0.00563269 0.00693867 0.00841414 0.0100591 0.0118735 0.0138574 0.0160108 0.0182586 0.020526 0.0228128 0.025119 0.0274447 0.0297899 0.0321546 0.0345387 0.0368787 0.0391111 0.0412357 0.0432526 0.0451619 0.0469634 0.0486573 0.0502435 0.0517104 0.0530466 0.054252 0.0553266 0.0562704 0.0570834 0.0577656 0.0583171 0.0587749 0.0591762 0.0595211 0.0598095 0.0600414 0.0602168 0.0603358 0.0603983 0.0604594 0.0605743 0.0607429 0.0609653 0.0612414 0.0615713 0.061955 0.0623924 0.0629146 0.0635525 0.0643061 0.0651755 0.0661607 0.0672616 0.0684782 0.0698106 0.0712376 0.0727383 0.0743125 0.0759603 0.0776817 0.0794767 0.0813453 0.0832875 0.0852354 0.0871211 0.0889447 0.0907062 0.0924055 0.0940427 0.0956178 0.0971307 0.0985048 0.0996636 0.100607 0.101335 0.101848 0.102145 0.102227 0.102093 0.101708 0.101036 0.100077 0.0988296 0.0972954 0.0954738 0.0933649 0.0909687 0.0883225 0.085464 0.0823931 0.0791098 0.0756141 0.071906 0.0679855 0.0638526 0.0596211 0.0554045 0.0512029 0.0470164 0.0428449 0.0386884 0.0345469 0.0304205 0.02645 0.0227766 0.0194001 0.0163206 0.013538 0.0110525 0.00886392 0.00697235 0.0053382 0.00392194 0.00272357 0.00174309 0.000980486 0.000435772 0.000108943 0 0 6.61656e-05 0.000264662 0.00059549 0.00105865 0.00165414 0.00238196 0.00324211 0.0042346 0.00539201 0.00674693 0.00829937 0.0100493 0.0119968 0.0141418 0.0164843 0.0190243 0.021674 0.0243455 0.0270389 0.0297542 0.0324913 0.0352502 0.038031 0.0408337 0.0435845 0.0462097 0.0487094 0.0510835 0.0533321 0.0554551 0.0574525 0.0593244 0.0610571 0.0626369 0.064064 0.0653382 0.0664596 0.0674281 0.0682439 0.0689068 0.0694597 0.0699457 0.0703647 0.0707167 0.0710017 0.0712197 0.0713706 0.0714546 0.0715355 0.0716771 0.0718795 0.0721427 0.0724667 0.0728515 0.0732971 0.0738034 0.0744066 0.0751426 0.0760115 0.0770133 0.078148 0.0794155 0.080816 0.0823493 0.0839912 0.0857175 0.0875283 0.0894234 0.0914029 0.0934668 0.0956151 0.0978478 0.100086 0.102253 0.104346 0.106367 0.108316 0.110192 0.111996 0.113727 0.115297 0.116618 0.117689 0.11851 0.119081 0.119403 0.119475 0.119297 0.118828 0.118026 0.116892 0.115425 0.113625 0.111492 0.109027 0.106228 0.103141 0.099807 0.0962276 0.0924022 0.0883308 0.0840136 0.0794504 0.0746414 0.0697173 0.0648093 0.0599174 0.0550415 0.0501816 0.0453378 0.04051 0.0356982 0.031066 0.0267766 0.0228301 0.0192266 0.015966 0.0130483 0.0104735 0.00824164 0.00631001 0.00463592 0.00321939 0.00206041 0.00115898 0.000515103 0.000128776 0 0 7.8379e-05 0.000313516 0.000705411 0.00125406 0.00195948 0.00282164 0.00384057 0.00501626 0.00638422 0.00797997 0.00980351 0.0118548 0.014134 0.0166409 0.0193756 0.0223381 0.0254266 0.0285394 0.0316765 0.0348379 0.0380236 0.0412336 0.0444678 0.0477264 0.0509246 0.053978 0.0568866 0.0596502 0.062269 0.064743 0.067072 0.0692562 0.0712797 0.0731264 0.0747964 0.0762898 0.0776064 0.0787464 0.0797096 0.0804962 0.0811551 0.0817355 0.0822373 0.0826605 0.0830052 0.0832714 0.0834589 0.0835679 0.0836717 0.0838435 0.0840834 0.0843913 0.0847673 0.0852114 0.0857235 0.0863037 0.0869935 0.0878343 0.0888262 0.0899691 0.091263 0.092708 0.094304 0.0960511 0.0979217 0.099888 0.10195 0.104108 0.106362 0.108712 0.111157 0.113699 0.116246 0.11871 0.12109 0.123387 0.125599 0.127728 0.129774 0.131736 0.133512 0.135002 0.136206 0.137123 0.137754 0.138098 0.138155 0.137926 0.137363 0.136419 0.135093 0.133386 0.131297 0.128826 0.125974 0.122741 0.119176 0.115329 0.1112 0.10679 0.102097 0.0971228 0.0918666 0.0863286 0.0806581 0.0750044 0.0693677 0.0637479 0.058145 0.0525589 0.0469898 0.0414376 0.0360898 0.031134 0.0265702 0.0223984 0.0186187 0.0152309 0.012235 0.00963124 0.00737392 0.00541757 0.0037622 0.00240781 0.00135439 0.000601952 0.000150488 0 0 9.17832e-05 0.000367133 0.000826049 0.00146853 0.00229458 0.0033042 0.00449738 0.00587413 0.00747281 0.0093318 0.0114511 0.0138307 0.0164706 0.0193708 0.0225313 0.0259522 0.0295165 0.0331077 0.0367256 0.0403703 0.0440417 0.04774 0.051465 0.0552168 0.0588992 0.062416 0.0657672 0.0689527 0.0719727 0.0748271 0.0775158 0.080039 0.0823782 0.0845149 0.0864493 0.0881813 0.0897109 0.0910381 0.0921629 0.0930853 0.093861 0.0945455 0.0951388 0.095641 0.0960521 0.0963719 0.0966007 0.0967382 0.096868 0.0970734 0.0973544 0.097711 0.0981432 0.098651 0.0992344 0.0998934 0.100675 0.101628 0.10275 0.104043 0.105506 0.107139 0.108942 0.110916 0.113029 0.11525 0.117578 0.120015 0.122559 0.125212 0.127972 0.13084 0.133715 0.136493 0.139176 0.141764 0.144255 0.146651 0.148951 0.151156 0.153149 0.154817 0.156159 0.157175 0.157866 0.15823 0.158268 0.157981 0.157314 0.156213 0.154679 0.152712 0.150311 0.147476 0.144208 0.140507 0.136429 0.13203 0.127311 0.122272 0.116913 0.111234 0.105234 0.0989144 0.0924433 0.0859898 0.0795539 0.0731356 0.066735 0.0603519 0.0539864 0.0476385 0.0415216 0.0358489 0.0306204 0.0258361 0.021496 0.0176002 0.0141485 0.0111411 0.00852994 0.00626689 0.00435201 0.00278529 0.00156672 0.000696322 0.00017408 0 0 0.000106166 0.000424663 0.000955492 0.00169865 0.00265414 0.00382197 0.00520212 0.00679461 0.00864055 0.0107811 0.0132162 0.0159459 0.0189702 0.0222891 0.0259026 0.0298107 0.0338806 0.0379798 0.0421082 0.0462659 0.0504527 0.0546688 0.0589141 0.0631887 0.0673841 0.071392 0.0752125 0.0788455 0.0822911 0.0855491 0.0886198 0.0915029 0.0941776 0.0966227 0.0988382 0.100824 0.102581 0.104108 0.105405 0.106473 0.107373 0.108169 0.10886 0.109446 0.109928 0.110304 0.110576 0.110743 0.110899 0.111138 0.11146 0.111865 0.112353 0.112923 0.113577 0.114313 0.115186 0.116248 0.117501 0.118943 0.120575 0.122396 0.124408 0.126609 0.128966 0.131443 0.13404 0.136757 0.139595 0.142553 0.145631 0.148829 0.152034 0.155131 0.158119 0.161 0.163773 0.166437 0.168994 0.171442 0.173653 0.175498 0.176976 0.178089 0.178834 0.179214 0.179227 0.178874 0.178094 0.176827 0.175072 0.172831 0.170103 0.166888 0.163185 0.158996 0.154383 0.149411 0.144078 0.138386 0.132334 0.125923 0.119151 0.11202 0.104718 0.0974342 0.0901684 0.0829207 0.0756911 0.0684797 0.0612863 0.0541111 0.047194 0.040775 0.0348543 0.0294317 0.0245073 0.0200811 0.016153 0.0127231 0.00974115 0.00715677 0.00496998 0.00318079 0.00178919 0.000795196 0.000198799 0 0 0.000121314 0.000485256 0.00109183 0.00194102 0.00303285 0.0043673 0.00594439 0.0077641 0.00987021 0.0123065 0.0150729 0.0181696 0.0215963 0.0253533 0.0294404 0.0338577 0.0384559 0.0430856 0.0477468 0.0524395 0.0571638 0.0619195 0.0667068 0.0715257 0.0762552 0.0807746 0.0850838 0.089183 0.093072 0.0967508 0.10022 0.103478 0.106503 0.10927 0.111779 0.11403 0.116023 0.117759 0.119236 0.120456 0.121488 0.122399 0.123192 0.123864 0.124418 0.124851 0.125166 0.12536 0.12554 0.125809 0.126168 0.126616 0.127154 0.12778 0.128497 0.129303 0.130258 0.131422 0.132795 0.134377 0.136168 0.138168 0.140377 0.142796 0.145385 0.148106 0.150961 0.153948 0.157067 0.16032 0.163705 0.167223 0.170747 0.17415 0.177434 0.180597 0.18364 0.186563 0.189366 0.192049 0.194468 0.19648 0.198086 0.199285 0.200078 0.200464 0.200443 0.200016 0.199116 0.197674 0.195693 0.193171 0.190108 0.186506 0.182362 0.177679 0.172525 0.166972 0.161019 0.154668 0.147917 0.140766 0.133217 0.125267 0.117128 0.109007 0.100904 0.0928192 0.0847531 0.0767054 0.068676 0.0606651 0.0529395 0.0457664 0.0391458 0.0330775 0.0275617 0.0225984 0.0181875 0.014329 0.0109707 0.00806007 0.00559727 0.00358225 0.00201502 0.000895563 0.000223891 0 0 0.000137228 0.000548912 0.00123505 0.00219565 0.0034307 0.00494021 0.00672417 0.00878259 0.0111618 0.013908 0.0170213 0.0205016 0.024349 0.0285634 0.0331449 0.0380934 0.0432423 0.0484249 0.0536412 0.0588911 0.0641747 0.0694921 0.0748431 0.0802278 0.0855125 0.0905636 0.0953812 0.0999651 0.104315 0.108432 0.112315 0.115965 0.119354 0.122456 0.125271 0.127798 0.130039 0.131992 0.133658 0.135037 0.136204 0.137237 0.138134 0.138895 0.139522 0.140013 0.140369 0.14059 0.140791 0.141087 0.141478 0.141964 0.142546 0.143223 0.143995 0.144863 0.145892 0.147149 0.148633 0.150346 0.152286 0.154455 0.156851 0.159475 0.162285 0.165241 0.168341 0.171587 0.174978 0.178513 0.182194 0.18602 0.189852 0.193552 0.19712 0.200555 0.203859 0.20703 0.210069 0.212975 0.215593 0.217764 0.219488 0.220765 0.221596 0.22198 0.221918 0.221409 0.22038 0.218757 0.216541 0.213731 0.210327 0.20633 0.201739 0.196554 0.190853 0.184713 0.178135 0.171117 0.16366 0.155764 0.14743 0.138656 0.129672 0.120707 0.11176 0.102831 0.0939208 0.085029 0.0761556 0.0673006 0.0587583 0.0508231 0.0434948 0.0367736 0.0306594 0.0251522 0.020252 0.0159588 0.0122184 0.0089768 0.00623389 0.00398969 0.0022442 0.000997423 0.000249356 0 0 0.000153908 0.000615631 0.00138517 0.00246252 0.00384769 0.00554068 0.00754148 0.0098501 0.0125152 0.0155856 0.0190612 0.022942 0.0272281 0.0319194 0.0370159 0.0425176 0.0482399 0.0539978 0.0597914 0.0656207 0.0714857 0.0773865 0.0833229 0.089295 0.095156 0.100759 0.106105 0.111192 0.116021 0.120593 0.124907 0.128963 0.132731 0.136181 0.139314 0.142129 0.144627 0.146807 0.148669 0.150213 0.151523 0.152681 0.153686 0.154539 0.155241 0.15579 0.156187 0.156432 0.156651 0.15697 0.15739 0.15791 0.15853 0.159251 0.160072 0.160993 0.162087 0.163428 0.165015 0.166849 0.168929 0.171255 0.173828 0.176647 0.179668 0.182846 0.186182 0.189675 0.193325 0.197133 0.201098 0.205221 0.20935 0.213335 0.217177 0.220874 0.224427 0.227836 0.231101 0.234223 0.237029 0.239348 0.241182 0.242528 0.243389 0.243763 0.243651 0.243052 0.241887 0.240075 0.237616 0.234511 0.230759 0.226361 0.221315 0.215623 0.209369 0.202635 0.195424 0.187733 0.179564 0.170917 0.161791 0.152186 0.142351 0.132535 0.122736 0.112956 0.103194 0.0934505 0.0837249 0.0740176 0.0646503 0.055945 0.0479015 0.0405199 0.0338002 0.0277424 0.0223464 0.0176124 0.0134845 0.00990697 0.00687984 0.0044031 0.00247674 0.00110077 0.000275194 0 0 0.000171353 0.000685413 0.00154218 0.00274165 0.00428383 0.00616872 0.00839631 0.0109666 0.0139306 0.0173393 0.0211928 0.0254909 0.0302337 0.0354213 0.0410535 0.0471305 0.0534485 0.0598042 0.0661975 0.0726283 0.0790967 0.0856027 0.0921462 0.0987274 0.105186 0.111361 0.117254 0.122863 0.12819 0.133234 0.137994 0.142472 0.146634 0.150446 0.15391 0.157023 0.159788 0.162204 0.16427 0.165987 0.167444 0.168731 0.169849 0.170796 0.171574 0.172181 0.172619 0.172886 0.173121 0.173461 0.173905 0.174453 0.175106 0.175864 0.176726 0.177693 0.178845 0.180261 0.181942 0.183887 0.186096 0.18857 0.191309 0.194312 0.197533 0.200923 0.204482 0.208212 0.212111 0.216179 0.220418 0.224826 0.229241 0.233501 0.237605 0.241553 0.245346 0.248983 0.252464 0.25579 0.258775 0.261234 0.263168 0.264575 0.265456 0.265812 0.265642 0.264945 0.263636 0.261628 0.25892 0.255512 0.251405 0.246598 0.241091 0.234886 0.228071 0.220738 0.212887 0.204517 0.19563 0.186224 0.1763 0.165858 0.155165 0.144491 0.133834 0.123195 0.112573 0.10197 0.0913841 0.0808161 0.0706156 0.0611321 0.0523657 0.0443164 0.0369841 0.030369 0.0244709 0.0192899 0.0147688 0.0108506 0.00753511 0.00482247 0.00271264 0.00120562 0.000301404 0 0 0.000189565 0.000758258 0.00170608 0.00303303 0.00473911 0.00682432 0.00928866 0.0121321 0.0154079 0.0191692 0.0234159 0.0281481 0.0333658 0.039069 0.0452577 0.0519318 0.0588684 0.0658442 0.0728594 0.0799139 0.0870077 0.0941408 0.101313 0.108525 0.115602 0.12237 0.128829 0.13498 0.140821 0.146354 0.151578 0.156493 0.161063 0.16525 0.169056 0.17248 0.175522 0.178182 0.18046 0.182356 0.183967 0.185389 0.186622 0.187666 0.188521 0.189187 0.189664 0.189953 0.190201 0.190557 0.191021 0.191593 0.192274 0.193063 0.193959 0.194964 0.196164 0.197647 0.199412 0.201459 0.203788 0.2064 0.209294 0.212471 0.215879 0.21947 0.223242 0.227197 0.231334 0.235652 0.240153 0.244835 0.249526 0.254049 0.258404 0.262593 0.266615 0.27047 0.274158 0.277678 0.280833 0.283422 0.285446 0.286905 0.287799 0.288127 0.28789 0.287089 0.285628 0.283415 0.28045 0.276733 0.272263 0.267041 0.261067 0.254341 0.24696 0.239021 0.230524 0.221469 0.211856 0.201685 0.190957 0.179671 0.168114 0.156574 0.145052 0.133547 0.122058 0.110587 0.0991331 0.0876962 0.076654 0.0663845 0.0568875 0.0481631 0.0402113 0.033032 0.0266254 0.0209913 0.0160714 0.0118076 0.00819971 0.00524782 0.0029519 0.00131195 0.000327988 0 0 0.000208542 0.000834166 0.00187687 0.00333667 0.00521354 0.0075075 0.0102185 0.0133467 0.0169471 0.0210751 0.0257307 0.0309138 0.0366244 0.0428627 0.0496285 0.0569218 0.0644994 0.0721178 0.0797772 0.0874775 0.0952186 0.103001 0.110824 0.118687 0.126404 0.133785 0.140831 0.147541 0.153915 0.159954 0.165657 0.171025 0.176017 0.180594 0.184755 0.1885 0.191829 0.194743 0.197241 0.199323 0.201093 0.202653 0.204005 0.205148 0.206083 0.206808 0.207324 0.207632 0.20789 0.208259 0.20874 0.209331 0.210033 0.210846 0.21177 0.212805 0.214045 0.215586 0.217426 0.219565 0.222005 0.224744 0.227783 0.231122 0.234708 0.238488 0.242462 0.246631 0.250994 0.255551 0.260303 0.265249 0.270203 0.274978 0.279575 0.283994 0.288235 0.292297 0.296181 0.299886 0.303201 0.305911 0.308017 0.309518 0.310415 0.310709 0.310397 0.309482 0.307862 0.305438 0.302208 0.298174 0.293335 0.287692 0.281243 0.27399 0.266036 0.257484 0.248335 0.238588 0.228243 0.217301 0.205762 0.193625 0.181198 0.168786 0.156391 0.144012 0.131649 0.119302 0.1069