<?xml version="1.0"?> 
<VTKFile type="StructuredGrid" version="0.1"> 
<StructuredGrid WholeExtent="0 128 0 128 0 0"> 
<Piece Extent="0 128 0 128 0 0"> 
<PointData>
<DataArray type="Float32" Name="u" format="ascii" NumberOfComponents="1"> 
0 0 0 0 0 0 0 0 0 0 0 0 0 0 0 0 0 0 0 0 0 0 0 0 0 0 0 0 0 0 0 0 0 0 0 0 0 0 0 0 0 0 0 0 0 0 0 0 0 0 0 0 0 0 0 0 0 0 0 0 0 0 0 0 0 0 0 0 0 0 0 0 0 0 0 0 0 0 0 0 0 0 0 0 0 0 0 0 0 0 0 0 0 0 0 0 0 0 0 0 0 0 0 0 0 0 0 0 0 0 0 0 0 0 0 0 0 0 0 0 0 0 0 0 0 0 0 0 0 0 1.61671e-07 6.46682e-07 1.45504e-06 2.58673e-06 4.04177e-06 5.82014e-06 7.92186e-06 1.03469e-05 1.32688e-05 1.68611e-05 2.11237e-05 2.60567e-05 3.16601e-05 3.79338e-05 4.48779e-05 5.24924e-05 6.05782e-05 6.89365e-05 7.75672e-05 8.64704e-05 9.5646e-05 0.000105094 0.000114814 0.000124807 0.000134859 0.000144756 0.000154498 0.000164085 0.000173518 0.000182795 0.000191918 0.000200886 0.000209615 0.00021802 0.000226102 0.000233861 0.000241295 0.000248407 0.000255195 0.000261659 0.000267836 0.00027376 0.000279433 0.000284854 0.000290024 0.000294941 0.000299606 0.00030402 0.000308267 0.000312435 0.000316524 0.000320532 0.000324461 0.00032831 0.00033208 0.000335769 0.000339423 0.000343086 0.000346757 0.000350437 0.000354126 0.000357822 0.000361528 0.000365242 0.000368908 0.000372468 0.000375923 0.000379272 0.000382516 0.000385655 0.000388689 0.000391617 0.000394297 0.000396586 0.000398485 0.000399993 0.00040111 0.000401837 0.000402173 0.000402118 0.00040153 0.000400268 0.000398331 0.00039572 0.000392433 0.000388472 0.000383836 0.000378526 0.000372508 0.000365749 0.000358251 0.000350013 0.000341035 0.000331317 0.000320858 0.00030966 0.000297872 0.000285645 0.000272979 0.000259874 0.00024633 0.000232347 0.000217925 0.000203064 0.000188113 0.00017342 0.000158986 0.000144809 0.000130891 0.000117232 0.000103831 9.06876e-05 7.81854e-05 6.67063e-05 5.62502e-05 4.68173e-05 3.84074e-05 3.10206e-05 2.46569e-05 1.93163e-05 1.4789e-05 1.08654e-05 7.54542e-06 4.82907e-06 2.71635e-06 1.20727e-06 3.01817e-07 0 0 6.46682e-07 2.58673e-06 5.82014e-06 1.03469e-05 1.61671e-05 2.32806e-05 3.16874e-05 4.13877e-05 5.30753e-05 6.74444e-05 8.4495e-05 0.000104227 0.00012664 0.000151735 0.000179512 0.000209969 0.000242313 0.000275746 0.000310269 0.000345882 0.000382584 0.000420376 0.000459258 0.00049923 0.000539436 0.000579024 0.000617992 0.000656341 0.000694071 0.000731182 0.000767673 0.000803545 0.00083846 0.000872082 0.000904409 0.000935442 0.000965182 0.000993627 0.00102078 0.00104664 0.00107134 0.00109504 0.00111773 0.00113942 0.00116009 0.00117976 0.00119842 0.00121608 0.00123307 0.00124974 0.00126609 0.00128213 0.00129784 0.00131324 0.00132832 0.00134308 0.00135769 0.00137234 0.00138703 0.00140175 0.0014165 0.00143129 0.00144611 0.00146097 0.00147563 0.00148987 0.00150369 0.00151709 0.00153007 0.00154262 0.00155475 0.00156647 0.00157719 0.00158634 0.00159394 0.00159997 0.00160444 0.00160735 0.00160869 0.00160847 0.00160612 0.00160107 0.00159333 0.00158288 0.00156973 0.00155389 0.00153534 0.0015141 0.00149003 0.001463 0.00143301 0.00140005 0.00136414 0.00132527 0.00128343 0.00123864 0.00119149 0.00114258 0.00109192 0.0010395 0.00098532 0.000929389 0.000871701 0.000812257 0.000752452 0.000693681 0.000635942 0.000579237 0.000523566 0.000468927 0.000415322 0.000362751 0.000312742 0.000266825 0.000225001 0.000187269 0.00015363 0.000124082 9.86276e-05 7.72651e-05 5.91561e-05 4.34616e-05 3.01817e-05 1.93163e-05 1.08654e-05 4.82907e-06 1.20727e-06 0 0 1.45504e-06 5.82014e-06 1.30953e-05 2.32806e-05 3.63759e-05 5.23813e-05 7.12967e-05 9.31223e-05 0.000119419 0.00015175 0.000190114 0.000234511 0.000284941 0.000341404 0.000403901 0.000472431 0.000545204 0.000620428 0.000698105 0.000778233 0.000860814 0.000945846 0.00103333 0.00112327 0.00121373 0.0013028 0.00139048 0.00147677 0.00156166 0.00164516 0.00172726 0.00180798 0.00188654 0.00196218 0.00203492 0.00210475 0.00217166 0.00223566 0.00229675 0.00235493 0.00241052 0.00246384 0.0025149 0.00256369 0.00261021 0.00265447 0.00269646 0.00273618 0.00277441 0.00281192 0.00284871 0.00288479 0.00292015 0.00295479 0.00298872 0.00302192 0.00305481 0.00308778 0.00312082 0.00315393 0.00318713 0.0032204 0.00325375 0.00328718 0.00332017 0.00335221 0.0033833 0.00341345 0.00344265 0.0034709 0.0034982 0.00352455 0.00354867 0.00356927 0.00358636 0.00359994 0.00360999 0.00361653 0.00361955 0.00361906 0.00361377 0.00360241 0.00358498 0.00356148 0.0035319 0.00349625 0.00345453 0.00340673 0.00335257 0.00329175 0.00322426 0.00315012 0.00306931 0.00298185 0.00288772 0.00278694 0.00268085 0.0025708 0.00245681 0.00233887 0.00221697 0.00209112 0.00196133 0.00182758 0.00169302 0.00156078 0.00143087 0.00130328 0.00117802 0.00105509 0.000934475 0.000816189 0.000703669 0.000600357 0.000506252 0.000421355 0.000345667 0.000279185 0.000221912 0.000173847 0.000133101 9.77887e-05 6.79088e-05 4.34616e-05 2.44472e-05 1.08654e-05 2.71635e-06 0 0 2.58673e-06 1.03469e-05 2.32806e-05 4.13877e-05 6.46682e-05 9.31223e-05 0.00012675 0.000165551 0.000212301 0.000269778 0.00033798 0.000416908 0.000506562 0.000606941 0.000718047 0.000839878 0.000969251 0.00110298 0.00124108 0.00138353 0.00153034 0.0016815 0.00183703 0.00199692 0.00215775 0.0023161 0.00247197 0.00262537 0.00277629 0.00292473 0.00307069 0.00321418 0.00335384 0.00348833 0.00361764 0.00374177 0.00386073 0.00397451 0.00408311 0.00418654 0.00428537 0.00438017 0.00447093 0.00455767 0.00464038 0.00471905 0.0047937 0.00486431 0.00493228 0.00499897 0.00506438 0.00512852 0.00519138 0.00525296 0.00531327 0.00537231 0.00543078 0.00548938 0.00554812 0.005607 0.00566601 0.00572516 0.00578445 0.00584387 0.00590252 0.00595948 0.00601476 0.00606835 0.00612026 0.00617048 0.00621902 0.00626587 0.00630875 0.00634538 0.00637576 0.00639988 0.00641776 0.00642939 0.00643476 0.00643389 0.00642449 0.00640429 0.0063733 0.00633151 0.00627893 0.00621555 0.00614138 0.00605641 0.00596012 0.00585199 0.00573202 0.00560021 0.00545656 0.00530107 0.00513373 0.00495456 0.00476595 0.00457032 0.00436766 0.00415798 0.00394128 0.00371755 0.0034868 0.00324903 0.00300981 0.00277472 0.00254377 0.00231695 0.00209426 0.00187571 0.00166129 0.001451 0.00125097 0.0010673 0.000900004 0.000749076 0.000614518 0.00049633 0.00039451 0.000309061 0.000236624 0.000173847 0.000120727 7.72651e-05 4.34616e-05 1.93163e-05 4.82907e-06 0 0 4.04177e-06 1.61671e-05 3.63759e-05 6.46682e-05 0.000101044 0.000145504 0.000198047 0.000258673 0.000331721 0.000421528 0.000528094 0.000651418 0.000791503 0.000948346 0.00112195 0.00131231 0.00151446 0.00172341 0.00193918 0.00216176 0.00239115 0.00262735 0.00287036 0.00312019 0.00337148 0.0036189 0.00386245 0.00410213 0.00433795 0.00456989 0.00479796 0.00502216 0.00524038 0.00545051 0.00565256 0.00584651 0.00603239 0.00621017 0.00637987 0.00654147 0.00669589 0.00684401 0.00698583 0.00712136 0.00725059 0.00737352 0.00749015 0.00760049 0.00770668 0.00781088 0.00791309 0.00801331 0.00811153 0.00820776 0.00830199 0.00839423 0.00848559 0.00857715 0.00866894 0.00876093 0.00885314 0.00894556 0.0090382 0.00913105 0.00922269 0.00931169 0.00939807 0.0094818 0.00956291 0.00964138 0.00971721 0.00979042 0.00985742 0.00991465 0.00996212 0.00999982 0.0100278 0.0100459 0.0100543 0.0100529 0.0100383 0.0100067 0.00995828 0.00989299 0.00981083 0.0097118 0.0095959 0.00946314 0.00931269 0.00914374 0.00895628 0.00875033 0.00852587 0.00828291 0.00802145 0.00774149 0.0074468 0.00714112 0.00682447 0.00649685 0.00615825 0.00580868 0.00544813 0.00507661 0.00470283 0.0043355 0.00397464 0.00362023 0.00327229 0.0029308 0.00259576 0.00226719 0.00195464 0.00166766 0.00140626 0.00117043 0.000960185 0.000775515 0.000616422 0.000482907 0.000369726 0.000271635 0.000188636 0.000120727 6.79088e-05 3.01817e-05 7.54542e-06 0 0 5.82014e-06 2.32806e-05 5.23813e-05 9.31223e-05 0.000145504 0.000209525 0.000285187 0.000372489 0.000477678 0.000607 0.000760455 0.000938043 0.00113976 0.00136562 0.0016156 0.00188972 0.00218082 0.00248171 0.00279242 0.00311293 0.00344326 0.00378338 0.00413332 0.00449307 0.00485493 0.00521122 0.00556193 0.00590707 0.00624664 0.00658064 0.00690906 0.0072319 0.00754614 0.00784873 0.00813968 0.00841898 0.00868664 0.00894264 0.00918701 0.00941972 0.00964208 0.00985538 0.0100596 0.0102548 0.0104408 0.0106179 0.0107858 0.0109447 0.0110976 0.0112477 0.0113949 0.0115392 0.0116806 0.0118192 0.0119549 0.0120877 0.0122192 0.0123511 0.0124833 0.0126157 0.0127485 0.0128816 0.013015 0.0131487 0.0132807 0.0134088 0.0135332 0.0136538 0.0137706 0.0138836 0.0139928 0.0140982 0.0141947 0.0142771 0.0143455 0.0143997 0.01444 0.0144661 0.0144782 0.0144762 0.0144551 0.0144097 0.0143399 0.0142459 0.0141276 0.013985 0.0138181 0.0136269 0.0134103 0.013167 0.012897 0.0126005 0.0122773 0.0119274 0.0115509 0.0111478 0.0107234 0.0102832 0.00982724 0.00935546 0.00886788 0.0083645 0.00784531 0.00731032 0.00677207 0.00624313 0.00572348 0.00521314 0.00471209 0.00422035 0.0037379 0.00326476 0.00281468 0.00240143 0.00202501 0.00168542 0.00138267 0.00111674 0.000887648 0.000695386 0.000532405 0.000391155 0.000271635 0.000173847 9.77887e-05 4.34616e-05 1.08654e-05 0 0 7.92186e-06 3.16874e-05 7.12967e-05 0.00012675 0.000198047 0.000285187 0.000388171 0.000506999 0.000650173 0.000826194 0.00103506 0.00127678 0.00155134 0.00185876 0.00219902 0.00257213 0.00296833 0.00337789 0.00380079 0.00423705 0.00468665 0.00514961 0.00562591 0.00611556 0.0066081 0.00709305 0.00757041 0.00804018 0.00850237 0.00895698 0.00940399 0.00984343 0.0102711 0.010683 0.011079 0.0114592 0.0118235 0.0121719 0.0125045 0.0128213 0.0131239 0.0134143 0.0136922 0.0139579 0.0142112 0.0144521 0.0146807 0.014897 0.0151051 0.0153093 0.0155097 0.0157061 0.0158986 0.0160872 0.0162719 0.0164527 0.0166318 0.0168112 0.0169911 0.0171714 0.0173522 0.0175333 0.0177149 0.0178969 0.0180765 0.0182509 0.0184202 0.0185843 0.0187433 0.0188971 0.0190457 0.0191892 0.0193205 0.0194327 0.0195258 0.0195996 0.0196544 0.01969 0.0197065 0.0197038 0.019675 0.0196131 0.0195182 0.0193903 0.0192292 0.0190351 0.018808 0.0185478 0.0182529 0.0179217 0.0175543 0.0171506 0.0167107 0.0162345 0.0157221 0.0151733 0.0145957 0.0139966 0.013376 0.0127338 0.0120702 0.011385 0.0106783 0.00995015 0.00921754 0.00849759 0.00779029 0.00709566 0.00641368 0.00574436 0.0050877 0.00444369 0.00383109 0.00326861 0.00275626 0.00229405 0.00188196 0.00152001 0.00120819 0.000946498 0.000724663 0.000532405 0.000369726 0.000236624 0.000133101 5.91561e-05 1.4789e-05 0 0 1.03469e-05 4.13877e-05 9.31223e-05 0.000165551 0.000258673 0.000372489 0.000506999 0.000662203 0.000849205 0.00107911 0.00135192 0.00166763 0.00202625 0.00242776 0.00287219 0.00335951 0.00387701 0.00441194 0.0049643 0.0055341 0.00612134 0.00672602 0.00734813 0.00798767 0.00863098 0.00926439 0.00988788 0.0105015 0.0111051 0.0116989 0.0122828 0.0128567 0.0134154 0.0139533 0.0144705 0.0149671 0.0154429 0.015898 0.0163325 0.0167462 0.0171415 0.0175207 0.0178837 0.0182307 0.0185615 0.0188762 0.0191748 0.0194573 0.0197291 0.0199959 0.0202575 0.0205141 0.0207655 0.0210119 0.0212531 0.0214892 0.0217231 0.0219575 0.0221925 0.022428 0.022664 0.0229006 0.0231378 0.0233755 0.0236101 0.0238379 0.0240591 0.0242734 0.024481 0.0246819 0.0248761 0.0250635 0.025235 0.0253815 0.025503 0.0255995 0.025671 0.0257176 0.0257391 0.0257355 0.0256979 0.0256172 0.0254932 0.0253261 0.0251157 0.0248622 0.0245655 0.0242256 0.0238405 0.023408 0.0229281 0.0224008 0.0218262 0.0212043 0.0205349 0.0198182 0.0190638 0.0182813 0.0174707 0.0166319 0.0157651 0.0148702 0.0139472 0.0129961 0.0120392 0.0110989 0.0101751 0.0092678 0.00837705 0.00750284 0.00664516 0.00580401 0.00500387 0.0042692 0.00360001 0.00299631 0.00245807 0.00198532 0.00157804 0.00123624 0.000946498 0.000695386 0.000482907 0.000309061 0.000173847 7.72651e-05 1.93163e-05 0 0 1.33021e-05 5.32083e-05 0.000119719 0.000212833 0.000332552 0.000478875 0.000651801 0.000851333 0.00109138 0.00138587 0.00173479 0.00213814 0.00259593 0.00310815 0.00367481 0.0042959 0.00495524 0.00563663 0.00634008 0.00706558 0.00781314 0.00858276 0.00937444 0.0101882 0.0110066 0.0118126 0.0126059 0.0133868 0.014155 0.0149107 0.0156539 0.0163845 0.0170957 0.0177806 0.0184392 0.0190715 0.0196776 0.0202573 0.0208108 0.0213379 0.0218417 0.0223249 0.0227875 0.0232296 0.0236511 0.0240521 0.0244325 0.0247923 0.0251386 0.0254782 0.0258111 0.0261374 0.0264571 0.0267701 0.0270764 0.0273761 0.0276728 0.0279699 0.0282675 0.0285656 0.0288642 0.0291633 0.0294629 0.029763 0.0300591 0.0303464 0.030625 0.0308948 0.031156 0.0314085 0.0316523 0.0318874 0.0321023 0.0322854 0.0324367 0.0325563 0.0326441 0.0327001 0.0327244 0.0327169 0.0326662 0.0325608 0.0324006 0.0321858 0.0319163 0.031592 0.0312131 0.0307794 0.0302885 0.0297376 0.0291268 0.028456 0.0277254 0.0269348 0.0260843 0.0251738 0.0242157 0.023222 0.0221929 0.0211282 0.0200281 0.0188924 0.0177212 0.0165146 0.0153006 0.0141075 0.0129353 0.0117839 0.0106534 0.0095438 0.00845505 0.00738718 0.00637117 0.005438 0.00458767 0.00382019 0.00313555 0.00253376 0.00201482 0.00157872 0.0012087 0.000888028 0.000616686 0.000394679 0.000222007 9.86698e-05 2.46674e-05 0 0 1.69941e-05 6.79763e-05 0.000152947 0.000271905 0.000424852 0.000611786 0.000832709 0.00108762 0.00139331 0.00176658 0.00220743 0.00271585 0.00329185 0.00393543 0.00464658 0.00542531 0.00625143 0.00710474 0.00798526 0.00889297 0.00982788 0.01079 0.0117793 0.0127958 0.0138181 0.0148249 0.0158162 0.0167919 0.0177521 0.0186968 0.0196259 0.0205395 0.021429 0.0222858 0.0231099 0.0239013 0.0246601 0.0253861 0.0260795 0.0267401 0.0273716 0.0279772 0.028557 0.029111 0.0296392 0.0301416 0.0306182 0.031069 0.0315025 0.0319273 0.0323433 0.0327506 0.0331491 0.0335389 0.0339199 0.0342922 0.0346602 0.0350282 0.0353963 0.0357645 0.0361328 0.0365011 0.0368695 0.037238 0.0376009 0.0379526 0.0382931 0.0386224 0.0389405 0.0392474 0.0395431 0.0398275 0.0400866 0.0403062 0.0404862 0.0406267 0.0407276 0.040789 0.0408109 0.0407932 0.0407219 0.040583 0.0403764 0.040102 0.0397601 0.0393504 0.0388731 0.038328 0.0377122 0.0370225 0.0362588 0.0354212 0.0345097 0.0335242 0.0324648 0.0313315 0.0301394 0.0289036 0.0276242 0.0263011 0.0249343 0.0235238 0.0220697 0.0205719 0.0190651 0.0175839 0.0161283 0.0146983 0.013294 0.0119153 0.0105622 0.00923469 0.00797113 0.00680978 0.00575063 0.00479369 0.00393896 0.00318644 0.00253612 0.00198802 0.00152208 0.00111826 0.000776569 0.000497004 0.000279565 0.000124251 3.10628e-05 0 0 2.14229e-05 8.56916e-05 0.000192806 0.000342766 0.000535572 0.000771224 0.00104972 0.00137107 0.001755 0.00222126 0.00276985 0.00340077 0.00411402 0.0049096 0.00578751 0.00674775 0.00776558 0.00881628 0.00989984 0.0110163 0.0121655 0.0133477 0.0145627 0.0158106 0.0170655 0.0183015 0.0195187 0.020717 0.0218965 0.0230571 0.0241988 0.0253217 0.0264153 0.0274689 0.0284826 0.0294565 0.0303904 0.0312844 0.0321386 0.0329528 0.0337311 0.0344776 0.0351922 0.0358749 0.0365258 0.0371448 0.0377319 0.0382872 0.0388208 0.039343 0.0398539 0.0403534 0.0408415 0.0413182 0.0417835 0.0422375 0.0426854 0.0431325 0.043579 0.0440247 0.0444697 0.044914 0.0453575 0.0458004 0.0462357 0.0466568 0.0470636 0.0474562 0.0478345 0.0481985 0.0485483 0.0488838 0.049188 0.0494439 0.0496515 0.0498108 0.0499217 0.0499843 0.0499986 0.0499645 0.0498652 0.0496838 0.0494204 0.0490748 0.0486471 0.0481373 0.0475454 0.0468714 0.0461117 0.0452626 0.0443241 0.0432963 0.0421791 0.0409725 0.0396766 0.0382913 0.036835 0.0353261 0.0337646 0.0321505 0.0304838 0.0287645 0.0269926 0.0251681 0.0233326 0.021528 0.0197541 0.0180111 0.0162988 0.0146172 0.0129665 0.0113465 0.00980376 0.00838455 0.0070889 0.00591682 0.0048683 0.00394335 0.00314196 0.00246414 0.00188661 0.00138608 0.000962556 0.000616036 0.00034652 0.000154009 3.85023e-05 0 0 2.65886e-05 0.000106354 0.000239297 0.000425417 0.000664714 0.000957189 0.00130284 0.00170167 0.00217643 0.00274989 0.00342204 0.00419289 0.00506242 0.00603066 0.00709758 0.0082632 0.00949769 0.0107712 0.0120838 0.0134355 0.0148262 0.0162559 0.0177247 0.0192325 0.0207486 0.0222422 0.0237133 0.0251619 0.026588 0.0279916 0.0293726 0.0307312 0.0320545 0.03333 0.0345574 0.035737 0.0368686 0.0379523 0.0389881 0.0399759 0.0409204 0.0418261 0.0426931 0.0435214 0.0443109 0.0450616 0.0457736 0.0464469 0.0470935 0.0477256 0.048343 0.048946 0.0495343 0.0501081 0.0506673 0.0512119 0.0517483 0.0522828 0.0528154 0.0533462 0.053875 0.0544019 0.054927 0.0554501 0.0559634 0.0564588 0.0569363 0.057396 0.0578379 0.0582619 0.058668 0.0590563 0.0594065 0.0596987 0.0599327 0.0601086 0.0602263 0.0602859 0.0602874 0.0602307 0.060096 0.0598633 0.0595326 0.059104 0.0585773 0.0579527 0.0572302 0.0564096 0.0554869 0.054458 0.0533228 0.0520814 0.0507337 0.0492798 0.0477196 0.0460532 0.0443025 0.0424894 0.0406141 0.0386765 0.0366766 0.0346144 0.0324899 0.0303031 0.0281033 0.0259399 0.0238128 0.0217221 0.0196677 0.0176497 0.015668 0.0137227 0.0118691 0.0101623 0.00860247 0.00718956 0.00592356 0.00480449 0.00383233 0.0030071 0.00230231 0.00169149 0.00117465 0.000751775 0.000422873 0.000187944 4.69859e-05 0 0 3.24911e-05 0.000129964 0.00029242 0.000519857 0.000812277 0.00116968 0.00159206 0.00207943 0.00265762 0.00335248 0.00416401 0.00509221 0.00613707 0.00729861 0.00857681 0.00997168 0.0114478 0.0129696 0.0145372 0.0161506 0.0178097 0.0195146 0.0212652 0.0230616 0.0248676 0.0266471 0.0284002 0.0301267 0.0318267 0.0335003 0.0351473 0.0367679 0.0383468 0.0398689 0.0413343 0.0427428 0.0440947 0.0453897 0.0466279 0.0478094 0.0489393 0.0500227 0.0510597 0.0520503 0.0529944 0.0538921 0.0547434 0.0555482 0.0563207 0.0570748 0.0578107 0.0585282 0.0592275 0.0599085 0.0605712 0.0612155 0.061849 0.0624791 0.0631057 0.0637289 0.0643487 0.064965 0.0655778 0.0661872 0.0667839 0.0673586 0.0679113 0.068442 0.0689508 0.0694375 0.0699022 0.0703449 0.0707421 0.0710704 0.0713297 0.07152 0.0716414 0.0716939 0.0716774 0.0715919 0.0714143 0.0711214 0.0707132 0.0701897 0.0695508 0.0687967 0.0679273 0.0669426 0.0658379 0.0646086 0.0632548 0.0617764 0.0601735 0.0584459 0.0565938 0.0546171 0.0525418 0.0503937 0.0481728 0.0458791 0.0435127 0.0410736 0.0385617 0.035977 0.0333771 0.0308195 0.0283043 0.0258314 0.0234009 0.0210127 0.0186668 0.0163633 0.014167 0.012143 0.0102913 0.00861191 0.00710475 0.00576986 0.00460723 0.00361688 0.00276917 0.00203449 0.00141284 0.00090422 0.000508624 0.000226055 5.65137e-05 0 0 3.91305e-05 0.000156522 0.000352174 0.000626087 0.000978261 0.0014087 0.00191739 0.00250435 0.00319856 0.00402903 0.00499575 0.00609873 0.00733796 0.00871345 0.0102252 0.0118732 0.0136158 0.0154114 0.01726 0.0191616 0.0211162 0.0231237 0.0251843 0.0272978 0.0294224 0.0315162 0.0335792 0.0356114 0.0376127 0.0395832 0.0415229 0.0434318 0.045292 0.0470858 0.0488131 0.0504741 0.0520685 0.0535966 0.0550582 0.0564534 0.0577879 0.0590674 0.060292 0.0614617 0.0625764 0.0636362 0.0646411 0.065591 0.0665022 0.0673908 0.0682568 0.0691003 0.0699211 0.0707194 0.0714952 0.0722483 0.0729875 0.0737213 0.0744498 0.0751729 0.0758907 0.0766031 0.0773101 0.0780118 0.0786974 0.0793564 0.0799886 0.0805942 0.0811731 0.0817253 0.0822508 0.0827496 0.0831947 0.083559 0.0838425 0.0840452 0.0841671 0.0842082 0.0841685 0.084048 0.0838201 0.0834581 0.082962 0.0823318 0.0815676 0.0806692 0.0796368 0.0784703 0.0771646 0.0757146 0.0741202 0.0723814 0.0704984 0.068471 0.0662992 0.0639832 0.0615529 0.0590387 0.0564405 0.0537583 0.0509922 0.048142 0.0452079 0.0421897 0.039154 0.036167 0.0332287 0.0303391 0.0274983 0.0247062 0.0219628 0.0192681 0.0166976 0.0143268 0.0121555 0.0101839 0.00841187 0.00683946 0.00546667 0.00429349 0.0032872 0.00241509 0.00167714 0.00107337 0.000603772 0.000268343 6.70857e-05 0 0 4.65067e-05 0.000186027 0.00041856 0.000744106 0.00116267 0.00167424 0.00227883 0.00297643 0.00379926 0.00477954 0.00591727 0.00721246 0.00866509 0.0102752 0.0120427 0.0139677 0.0160018 0.0180966 0.0202522 0.0224685 0.0247456 0.0270834 0.0294819 0.0319412 0.0344131 0.0368495 0.0392505 0.0416159 0.0439459 0.0462404 0.0484994 0.0507229 0.0528902 0.0549806 0.0569941 0.0589306 0.0607903 0.062573 0.0642789 0.0659078 0.0674661 0.0689602 0.07039 0.0717556 0.073057 0.074294 0.0754668 0.0765754 0.0776382 0.0786735 0.0796815 0.080662 0.0816152 0.082541 0.0834393 0.0843103 0.0851638 0.0860096 0.0868477 0.0876782 0.0885011 0.0893163 0.0901238 0.0909237 0.0917038 0.092452 0.0931682 0.0938525 0.0945049 0.0951254 0.095714 0.0962706 0.0967644 0.0971646 0.0974711 0.097684 0.0978033 0.0978288 0.0977608 0.0975991 0.0973134 0.0968734 0.0962791 0.0955305 0.0946275 0.0935703 0.0923587 0.0909929 0.0894671 0.0877757 0.0859188 0.0838964 0.0817085 0.0793549 0.0768359 0.0741513 0.071336 0.0684246 0.0654174 0.0623141 0.0591149 0.0558197 0.0524285 0.0489414 0.045434 0.0419822 0.0385859 0.0352451 0.0319599 0.0287302 0.025556 0.0224373 0.0194609 0.0167135 0.014195 0.0119055 0.00984491 0.00801329 0.00641063 0.00503692 0.00385639 0.00283327 0.00196755 0.00125923 0.000708317 0.000314808 7.87019e-05 0 0 5.46197e-05 0.000218479 0.000491577 0.000873915 0.00136549 0.00196631 0.00267637 0.00349566 0.00445971 0.00560401 0.00692857 0.00843339 0.0101185 0.0119838 0.0140294 0.0162553 0.0186057 0.0210253 0.0235138 0.0260713 0.0286979 0.0313935 0.0341581 0.0369917 0.0398396 0.042647 0.0454139 0.0481403 0.0508263 0.0534717 0.0560767 0.0586412 0.0611413 0.0635533 0.065877 0.0681126 0.0702599 0.072319 0.0742899 0.0761726 0.0779741 0.0797011 0.0813538 0.082932 0.0844359 0.0858655 0.0872206 0.0885013 0.0897285 0.0909229 0.0920846 0.0932135 0.0943096 0.095373 0.0964036 0.0974015 0.0983778 0.0993438 0.100299 0.101245 0.10218 0.103105 0.104019 0.104923 0.105803 0.106645 0.10745 0.108217 0.108946 0.109638 0.110292 0.110908 0.111451 0.111887 0.112216 0.112437 0.11255 0.112556 0.112454 0.112245 0.111894 0.111367 0.110664 0.109786 0.108731 0.1075 0.106093 0.10451 0.102745 0.100792 0.0986508 0.0963214 0.0938037 0.0910978 0.0882038 0.0851215 0.0818909 0.0785514 0.0751033 0.0715465 0.0678809 0.0641066 0.0602236 0.0562318 0.0522171 0.0482651 0.0443759 0.0405494 0.0367856 0.0330846 0.0294464 0.0258709 0.0224569 0.0193032 0.0164098 0.0137767 0.0114039 0.00929136 0.00743912 0.00584718 0.00447675 0.00328904 0.00228406 0.0014618 0.00082226 0.000365449 9.13622e-05 0 0 6.33487e-05 0.000253395 0.000570139 0.00101358 0.00158372 0.00228055 0.00310409 0.00405432 0.00517008 0.00649021 0.0080147 0.00974355 0.0116768 0.0138143 0.0161563 0.0187026 0.0213899 0.0241549 0.0269975 0.0299177 0.0329155 0.035991 0.0391442 0.042375 0.0456217 0.0488226 0.0519777 0.0550871 0.0581507 0.0611685 0.0641405 0.0670667 0.0699199 0.072673 0.0753258 0.0778785 0.080331 0.0826833 0.0849354 0.0870873 0.0891464 0.0911203 0.093009 0.0948123 0.0965304 0.0981631 0.0997106 0.101173 0.102573 0.103935 0.105257 0.106541 0.107786 0.108993 0.110161 0.11129 0.112392 0.113482 0.114558 0.11562 0.116669 0.117705 0.118727 0.119736 0.120716 0.121652 0.122544 0.123392 0.124197 0.124957 0.125673 0.126345 0.126935 0.127402 0.127747 0.127971 0.128072 0.128051 0.127908 0.127644 0.127219 0.126595 0.125773 0.124753 0.123534 0.122117 0.120501 0.118687 0.116668 0.114437 0.111995 0.109342 0.106476 0.103399 0.100111 0.0966113 0.0929447 0.0891564 0.0852462 0.0812142 0.0770605 0.0727849 0.0683876 0.0638684 0.0593234 0.0548487 0.0504442 0.0461099 0.0418458 0.037652 0.0335284 0.029475 0.0256031 0.0220242 0.0187381 0.0157449 0.0130446 0.0106372 0.00852261 0.00670093 0.0051304 0.00376927 0.00261755 0.00167523 0.000942319 0.000418808 0.000104702 0 0 7.25729e-05 0.000290292 0.000653156 0.00116117 0.00181432 0.00261262 0.00355607 0.00464466 0.00592056 0.00742591 0.00916071 0.011125 0.0133187 0.0157418 0.0183945 0.0212765 0.0243166 0.027443 0.0306559 0.0339552 0.0373409 0.040813 0.0443716 0.0480166 0.0516792 0.0552904 0.0588502 0.0623587 0.0658159 0.0692217 0.0725762 0.0758793 0.0791004 0.0822087 0.0852043 0.0880871 0.0908572 0.0935146 0.0960591 0.098491 0.100818 0.103048 0.105181 0.107218 0.109157 0.111 0.112745 0.114394 0.115972 0.117504 0.11899 0.120432 0.121828 0.123178 0.124483 0.125743 0.126971 0.128182 0.129376 0.130553 0.131713 0.132855 0.133981 0.135089 0.136163 0.137187 0.138161 0.139083 0.139955 0.140777 0.141548 0.142268 0.142895 0.143385 0.143738 0.143954 0.144034 0.143977 0.143783 0.143453 0.142943 0.142213 0.141261 0.140089 0.138695 0.137081 0.135246 0.133189 0.130905 0.128385 0.125631 0.122642 0.119418 0.11596 0.112266 0.108338 0.104225 0.0999766 0.0955939 0.0910763 0.086424 0.0816368 0.076715 0.0716583 0.0665731 0.0615658 0.0566362 0.0517845 0.0470106 0.0423145 0.0376963 0.0331558 0.0288173 0.0248047 0.0211181 0.0177575 0.0147229 0.0120142 0.00963153 0.00757483 0.00579948 0.00426084 0.00295892 0.00189371 0.00106521 0.000473427 0.000118357 0 0 8.22922e-05 0.000329169 0.00074063 0.00131667 0.0020573 0.00296252 0.00403232 0.0052667 0.00671114 0.00841111 0.0103666 0.0125776 0.0150442 0.0177663 0.0207439 0.0239771 0.0273857 0.0308897 0.034489 0.0381838 0.0419739 0.0458595 0.0498404 0.0539167 0.0580121 0.0620503 0.0660314 0.0699552 0.0738219 0.0776315 0.0813838 0.085079 0.0886827 0.0921605 0.0955124 0.0987384 0.101839 0.104813 0.107661 0.110384 0.112989 0.115485 0.117871 0.120148 0.122316 0.124375 0.126325 0.128165 0.129924 0.131631 0.133284 0.134885 0.136433 0.137928 0.139371 0.14076 0.142113 0.143444 0.144754 0.146042 0.147309 0.148555 0.149779 0.150982 0.152145 0.153251 0.154299 0.15529 0.156223 0.157098 0.157916 0.158676 0.159331 0.159835 0.160187 0.160387 0.160436 0.160333 0.160078 0.159672 0.159067 0.15822 0.157128 0.155793 0.154214 0.152392 0.150325 0.148016 0.145455 0.142636 0.139559 0.136224 0.13263 0.128779 0.124669 0.120301 0.115731 0.111012 0.106146 0.101133 0.0959713 0.0906624 0.0852058 0.0796015 0.0739662 0.0684163 0.0629521 0.0575733 0.05228 0.0470723 0.0419501 0.0369134 0.0320993 0.0276448 0.0235498 0.0198145 0.0164387 0.0134225 0.0107659 0.00846889 0.00648399 0.00476375 0.00330816 0.00211722 0.00119094 0.000529306 0.000132326 0 0 9.25066e-05 0.000370026 0.000832559 0.00148011 0.00231267 0.00333024 0.00453282 0.00592042 0.00754182 0.00944582 0.0116324 0.0141016 0.0168533 0.0198877 0.0232046 0.0268042 0.0305973 0.0344949 0.038497 0.0426036 0.0468147 0.0511303 0.0555505 0.0600751 0.0646204 0.0691024 0.0735211 0.0778766 0.0821688 0.0863978 0.0905635 0.0946659 0.0986669 0.102528 0.10625 0.109832 0.113275 0.116578 0.119742 0.122766 0.125659 0.128429 0.131078 0.133604 0.136008 0.138289 0.140448 0.142485 0.144431 0.146315 0.148138 0.149901 0.151603 0.153244 0.154824 0.156343 0.157819 0.159268 0.160691 0.162088 0.163459 0.164804 0.166123 0.167415 0.168662 0.169844 0.17096 0.172012 0.172999 0.173921 0.174777 0.175569 0.176245 0.176753 0.177095 0.17727 0.177278 0.177119 0.176794 0.176301 0.175592 0.174616 0.173374 0.171865 0.17009 0.168049 0.165741 0.163167 0.160319 0.157189 0.153778 0.150086 0.146112 0.141856 0.13732 0.132502 0.127463 0.122263 0.116904 0.111383 0.105703 0.0998615 0.09386 0.087698 0.0815026 0.0754004 0.0693916 0.0634762 0.0576541 0.0519253 0.0462899 0.0407478 0.0354493 0.0305444 0.0260333 0.0219158 0.0181921 0.0148621 0.0119257 0.00938309 0.00718393 0.00527799 0.00366527 0.00234577 0.0013195 0.000586443 0.000146611 0 0 0.000103216 0.000412865 0.000928945 0.00165146 0.0025804 0.00371578 0.00505759 0.00660583 0.00841261 0.01053 0.0129581 0.0156968 0.0187461 0.022106 0.0257766 0.0297579 0.0339513 0.0382586 0.0426796 0.0472145 0.0518631 0.0566256 0.0615018 0.0664919 0.0715041 0.0764466 0.0813195 0.0861228 0.0908565 0.0955206 0.100115 0.10464 0.109053 0.113312 0.117418 0.121369 0.125167 0.128811 0.132301 0.135637 0.138828 0.141883 0.144802 0.147585 0.150232 0.152742 0.155117 0.157355 0.159491 0.161557 0.163553 0.16548 0.167337 0.169124 0.170842 0.17249 0.174088 0.175654 0.177188 0.178691 0.180163 0.181603 0.183011 0.184388 0.185713 0.186965 0.188144 0.18925 0.190283 0.191244 0.192132 0.192947 0.193634 0.194139 0.194462 0.194602 0.19456 0.194336 0.193929 0.19334 0.192516 0.191402 0.189998 0.188306 0.186324 0.184053 0.181492 0.178643 0.175496 0.172045 0.168289 0.164228 0.159863 0.155193 0.150218 0.144939 0.139421 0.13373 0.127866 0.121828 0.115618 0.109234 0.102678 0.0959479 0.0891823 0.082518 0.0759549 0.0694932 0.0631327 0.0568735 0.0507156 0.0446589 0.0388671 0.0335036 0.0285684 0.0240615 0.019983 0.0163328 0.013111 0.0103175 0.0078993 0.00580357 0.00403025 0.00257936 0.00145089 0.000644841 0.00016121 0 0 0.000114421 0.000457683 0.00102979 0.00183073 0.00286052 0.00411915 0.00560662 0.00732293 0.0093235 0.0116637 0.0143436 0.0173632 0.0207224 0.0244213 0.0284599 0.0328381 0.0374478 0.0421808 0.047037 0.0520165 0.0571193 0.0623453 0.0676946 0.0731671 0.0786632 0.084083 0.0894265 0.0946939 0.099885 0.105 0.110039 0.115001 0.119841 0.124512 0.129015 0.133348 0.137514 0.14151 0.145338 0.148997 0.152496 0.155845 0.159043 0.162091 0.164988 0.167734 0.17033 0.172775 0.175105 0.177356 0.179529 0.181622 0.183635 0.18557 0.187426 0.189202 0.190921 0.192602 0.194245 0.195851 0.19742 0.198951 0.200445 0.201901 0.203298 0.204614 0.205849 0.207004 0.208077 0.209069 0.20998 0.21081 0.2115 0.211993 0.212288 0.212384 0.212283 0.211983 0.211486 0.21079 0.20984 0.208577 0.207002 0.205114 0.202915 0.200403 0.197579 0.194443 0.190987 0.187203 0.183091 0.178651 0.173883 0.168788 0.163364 0.157613 0.151605 0.145412 0.139032 0.132467 0.125717 0.118781 0.111659 0.104351 0.0970054 0.0897691 0.082642 0.0756243 0.068716 0.0619169 0.0552272 0.0486468 0.0423528 0.0365223 0.0311552 0.0262517 0.0218115 0.0178349 0.0143217 0.011272 0.0086301 0.00634048 0.00440311 0.00281799 0.00158512 0.000704498 0.000176124 0 0 0.000126121 0.000504483 0.00113509 0.00201793 0.00315302 0.00454034 0.00617991 0.00807172 0.0102745 0.0128469 0.0157891 0.0191009 0.0227824 0.0268336 0.0312545 0.036045 0.0410869 0.0462616 0.0515692 0.0570097 0.0625831 0.0682894 0.0741286 0.0801007 0.0860976 0.0920115 0.0978422 0.10359 0.109254 0.114836 0.120334 0.125749 0.131031 0.136128 0.141041 0.145771 0.150316 0.154677 0.158853 0.162846 0.166664 0.170316 0.173802 0.177122 0.180276 0.183265 0.186088 0.188744 0.191274 0.193714 0.196064 0.198326 0.200498 0.202581 0.204575 0.206479 0.208317 0.210111 0.211862 