<?xml version="1.0"?> 
<VTKFile type="StructuredGrid" version="0.1"> 
<StructuredGrid WholeExtent="0 64 0 64 0 0"> 
<Piece Extent="0 64 0 64 0 0"> 
<PointData>
<DataArray type="Float32" Name="u" format="ascii" NumberOfComponents="1"> 
0.500659 0.577902 0.655146 0.732389 0.809633 0.676048 0.542463 0.408878 0.275293 0.373068 0.470843 0.568617 0.666392 0.650148 0.633903 0.617659 0.601415 0.594565 0.587716 0.580866 0.574017 0.559228 0.54444 0.529652 0.514863 0.525575 0.536287 0.546999 0.557711 0.535842 0.513973 0.492104 0.470235 0.416044 0.361852 0.30766 0.253468 0.286632 0.319796 0.352961 0.386125 0.428009 0.469894 0.511778 0.553663 0.564819 0.575974 0.58713 0.598286 0.644244 0.690201 0.736159 0.782117 0.789616 0.797115 0.804614 0.812113 0.674465 0.536817 0.399169 0.261521 0.352603 0.443686 0.534768 0.625851 0.520871 0.574227 0.627583 0.680939 0.734295 0.629311 0.524326 0.419342 0.314357 0.392448 0.470539 0.548629 0.62672 0.622155 0.61759 0.613026 0.608461 0.6146 0.620738 0.626877 0.633016 0.587895 0.542773 0.497652 0.452531 0.488265 0.523999 0.559733 0.595467 0.570963 0.546458 0.521953 0.497449 0.469328 0.441207 0.413086 0.384965 0.378167 0.371368 0.36457 0.357771 0.396723 0.435674 0.474625 0.513577 0.512507 0.511437 0.510368 0.509298 0.561478 0.613658 0.665839 0.718019 0.733989 0.74996 0.76593 0.781901 0.659546 0.537192 0.414838 0.292484 0.358813 0.425142 0.49147 0.557799 0.541084 0.570552 0.600021 0.629489 0.658958 0.582574 0.50619 0.429805 0.353421 0.411828 0.470235 0.528641 0.587048 0.594163 0.601277 0.608392 0.615506 0.634634 0.653761 0.672888 0.692016 0.616561 0.541107 0.465652 0.390198 0.450954 0.511711 0.572467 0.633223 0.606083 0.578943 0.551802 0.524662 0.522612 0.520562 0.518512 0.516462 0.469701 0.42294 0.376179 0.329418 0.365436 0.401454 0.437473 0.473491 0.460196 0.4469 0.433605 0.42031 0.478713 0.537115 0.595518 0.653921 0.678363 0.702804 0.727246 0.751688 0.644628 0.537567 0.430507 0.323447 0.365022 0.406598 0.448173 0.489748 0.561296 0.566877 0.572459 0.57804 0.583621 0.535837 0.488053 0.440269 0.392485 0.431208 0.46993 0.508653 0.547376 0.56617 0.584964 0.603758 0.622552 0.654668 0.686784 0.7189 0.751015 0.645228 0.53944 0.433653 0.327865 0.413644 0.499422 0.585201 0.670979 0.641203 0.611427 0.581651 0.551876 0.575896 0.599917 0.623938 0.647959 0.561235 0.474512 0.387788 0.301064 0.334149 0.367235 0.40032 0.433405 0.407884 0.382363 0.356843 0.331322 0.395947 0.460572 0.525198 0.589823 0.622736 0.655649 0.688562 0.721475 0.629709 0.537943 0.446176 0.35441 0.371232 0.388053 0.404875 0.421697 0.581509 0.563203 0.544896 0.52659 0.508283 0.4891 0.469916 0.450732 0.431549 0.450588 0.469626 0.488665 0.507704 0.538178 0.568651 0.599124 0.629598 0.674702 0.719806 0.764911 0.810015 0.673894 0.537774 0.401653 0.265532 0.376333 0.487134 0.597934 0.708735 0.676324 0.643912 0.611501 0.579089 0.629181 0.679272 0.729364 0.779456 0.65277 0.526083 0.399397 0.272711 0.302863 0.333015 0.363167 0.393319 0.355572 0.317826 0.28008 0.242334 0.313182 0.384029 0.454877 0.525725 0.567109 0.608494 0.649878 0.691262 0.61479 0.538318 0.461845 0.385373 0.377441 0.369509 0.361577 0.353646 0.538813 0.530188 0.521563 0.512937 0.504312 0.500958 0.497604 0.494249 0.490895 0.496291 0.501687 0.507084 0.51248 0.530354 0.548228 0.566102 0.583976 0.638243 0.692511 0.746779 0.801046 0.701294 0.601541 0.501789 0.402037 0.471967 0.541896 0.611826 0.681756 0.63806 0.594364 0.550667 0.506971 0.563552 0.620133 0.676714 0.733295 0.62908 0.524865 0.420651 0.316436 0.362807 0.409178 0.45555 0.501921 0.446087 0.390254 0.33442 0.278586 0.348091 0.417595 0.4871 0.556604 0.580998 0.605393 0.629787 0.654181 0.583343 0.512504 0.441665 0.370826 0.384795 0.398764 0.412733 0.426702 0.496117 0.497173 0.498229 0.499285 0.500341 0.512816 0.525291 0.537766 0.550241 0.541995 0.533748 0.525502 0.517256 0.52253 0.527805 0.533079 0.538353 0.601784 0.665215 0.728646 0.792077 0.728693 0.665309 0.601925 0.538541 0.5676 0.596659 0.625718 0.654777 0.599796 0.544815 0.489834 0.434853 0.497923 0.560994 0.624064 0.687134 0.605391 0.523647 0.441904 0.36016 0.422751 0.485342 0.547933 0.610524 0.536602 0.462681 0.38876 0.314838 0.383 0.451161 0.519322 0.587484 0.594888 0.602292 0.609696 0.6171 0.551895 0.48669 0.421485 0.35628 0.392149 0.428019 0.463888 0.499758 0.45342 0.464158 0.474895 0.485633 0.49637 0.524674 0.552979 0.581283 0.609587 0.587698 0.565809 0.54392 0.522032 0.514706 0.507381 0.500056 0.492731 0.565326 0.63792 0.710514 0.783109 0.756093 0.729077 0.702061 0.675045 0.663233 0.651422 0.63961 0.627798 0.561533 0.495267 0.429001 0.362735 0.432295 0.501854 0.571414 0.640973 0.581701 0.522429 0.463157 0.403885 0.482696 0.561506 0.640316 0.719126 0.627117 0.535108 0.443099 0.35109 0.417908 0.484727 0.551545 0.618363 0.608777 0.599191 0.589605 0.580019 0.520447 0.460876 0.401304 0.341733 0.399503 0.457274 0.515044 0.572814 0.410724 0.431143 0.451562 0.47198 0.492399 0.536533 0.580666 0.624799 0.668933 0.633401 0.59787 0.562339 0.526807 0.506883 0.486958 0.467034 0.447109 0.528867 0.610624 0.692382 0.77414 0.783492 0.792845 0.802197 0.811549 0.758867 0.706184 0.653502 0.60082 0.523269 0.445718 0.368168 0.290617 0.366666 0.442715 0.518764 0.594813 0.558012 0.521211 0.484411 0.44761 0.54264 0.63767 0.732699 0.827729 0.717632 0.607536 0.497439 0.387342 0.452817 0.518292 0.583767 0.649242 0.622666 0.59609 0.569514 0.542937 0.489 0.435062 0.381124 0.327186 0.406857 0.486528 0.566199 0.645871 0.367461 0.388203 0.408946 0.429689 0.450432 0.478052 0.505671 0.533291 0.560911 0.567082 0.573253 0.579423 0.585594 0.568878 0.552162 0.535446 0.51873 0.551849 0.584968 0.618087 0.651206 0.66964 0.688075 0.706509 0.724943 0.674092 0.623241 0.57239 0.521539 0.481032 0.440526 0.40002 0.359513 0.431291 0.503069 0.574847 0.646625 0.591945 0.537265 0.482586 0.427906 0.527843 0.627779 0.727715 0.827651 0.72007 0.612489 0.504907 0.397326 0.440904 0.484483 0.528061 0.571639 0.569612 0.567585 0.565558 0.563532 0.534959 0.506387 0.477814 0.449242 0.49578 0.542318 0.588856 0.635394 0.324197 0.345264 0.366331 0.387398 0.408465 0.419571 0.430677 0.441782 0.452888 0.500762 0.548635 0.596508 0.644381 0.630874 0.617366 0.603859 0.590351 0.574832 0.559312 0.543793 0.528273 0.555789 0.583305 0.61082 0.638336 0.589316 0.540297 0.491277 0.442258 0.438796 0.435334 0.431872 0.42841 0.495916 0.563423 0.63093 0.698437 0.625878 0.55332 0.480761 0.408202 0.513045 0.617888 0.722731 0.827574 0.722508 0.617442 0.512376 0.40731 0.428991 0.450673 0.472354 0.494035 0.516558 0.53908 0.561603 0.584126 0.580919 0.577712 0.574504 0.571297 0.584702 0.598107 0.611512 0.624916 0.280933 0.302324 0.323715 0.345106 0.366497 0.36109 0.355682 0.350274 0.344866 0.434442 0.524017 0.613593 0.703168 0.69287 0.682571 0.672272 0.661973 0.597814 0.533656 0.469498 0.40534 0.441937 0.478534 0.515132 0.551729 0.504541 0.457353 0.410165 0.362977 0.396559 0.430141 0.463724 0.497306 0.560542 0.623777 0.687013 0.750249 0.659811 0.569374 0.478936 0.388499 0.498248 0.607998 0.717747 0.827496 0.724946 0.622395 0.519845 0.417294 0.417078 0.416863 0.416647 0.416432 0.463504 0.510576 0.557648 0.60472 0.626878 0.649036 0.671195 0.693353 0.673625 0.653896 0.634168 0.614439 0.237669 0.259385 0.2811 0.302815 0.32453 0.302609 0.280687 0.258766 0.236844 0.368122 0.4994 0.630678 0.761956 0.754865 0.747775 0.740684 0.733594 0.620797 0.508 0.395203 0.282406 0.328085 0.373764 0.419444 0.465123 0.419766 0.374409 0.329053 0.283696 0.354323 0.424949 0.495576 0.566202 0.625167 0.684131 0.743096 0.80206 0.693744 0.585428 0.477111 0.368795 0.483451 0.598107 0.712763 0.827419 0.727384 0.627348 0.527313 0.427278 0.405165 0.383053 0.360941 0.338828 0.41045 0.482071 0.553692 0.625314 0.672838 0.720361 0.767885 0.815409 0.762547 0.709686 0.656824 0.603962 0.239644 0.268244 0.296844 0.325444 0.354044 0.329452 0.304859 0.280266 0.255674 0.356686 0.457699 0.558712 0.659725 0.647405 0.635086 0.622767 0.610448 0.55905 0.507652 0.456253 0.404855 0.434876 0.464896 0.494917 0.524938 0.474497 0.424056 0.373615 0.323174 0.394082 0.464991 0.535899 0.606808 0.647975 0.689142 0.73031 0.771477 0.685083 0.598688 0.512293 0.425898 0.502989 0.580079 0.657169 0.734259 0.657874 0.581489 0.505104 0.428719 0.401559 0.374399 0.347238 0.320078 0.383703 0.447328 0.510953 0.574578 0.618202 0.661827 0.705451 0.749075 0.706391 0.663707 0.621023 0.578339 0.241618 0.277103 0.312588 0.348073 0.383558 0.356295 0.329031 0.301767 0.274504 0.345251 0.415999 0.486746 0.557494 0.539946 0.522398 0.50485 0.487303 0.497303 0.507303 0.517303 0.527304 0.541666 0.556028 0.570391 0.584753 0.529228 0.473703 0.418177 0.362652 0.433842 0.505032 0.576223 0.647413 0.670783 0.694153 0.717524 0.740894 0.676421 0.611948 0.547475 0.483002 0.522526 0.562051 0.601575 0.6411 0.588365 0.53563 0.482895 0.430161 0.397952 0.365744 0.333536 0.301328 0.356956 0.412585 0.468213 0.523842 0.563567 0.603292 0.643017 0.682742 0.650235 0.617728 0.585222 0.552715 0.243592 0.285962 0.328332 0.370702 0.413072 0.383138 0.353203 0.323268 0.293333 0.333816 0.374298 0.41478 0.455263 0.432486 0.40971 0.386933 0.364157 0.435556 0.506955 0.578354 0.649752 0.648456 0.64716 0.645864 0.644568 0.583959 0.523349 0.462739 0.40213 0.473602 0.545074 0.616546 0.688018 0.693591 0.699164 0.704738 0.710311 0.667759 0.625208 0.582657 0.540105 0.542064 0.544023 0.545981 0.54794 0.518855 0.489771 0.460686 0.431602 0.394346 0.35709 0.319834 0.282578 0.33021 0.377842 0.425473 0.473105 0.508931 0.544757 0.580583 0.616409 0.594079 0.57175 0.54942 0.527091 0.245567 0.294822 0.344076 0.393331 0.442586 0.40998 0.377375 0.344769 0.312163 0.32238 0.332597 0.342815 0.353032 0.325027 0.297021 0.269016 0.241011 0.373809 0.506606 0.639404 0.772201 0.755247 0.738292 0.721338 0.704383 0.63869 0.572996 0.507302 0.441608 0.513362 0.585115 0.656869 0.728623 0.716399 0.704175 0.691951 0.679728 0.659098 0.638468 0.617839 0.597209 0.561602 0.525995 0.490387 0.45478 0.449346 0.443912 0.438478 0.433043 0.390739 0.348435 0.306131 0.263827 0.303463 0.343098 0.382734 0.422369 0.454296 0.486222 0.518149 0.550075 0.537923 0.525771 0.513619 0.501467 0.335611 0.367892 0.400172 0.432452 0.464732 0.451904 0.439075 0.426247 0.413418 0.393089 0.372759 0.35243 0.3321 0.32541 0.31872 0.312029 0.305339 0.409868 0.514396 0.618925 0.723453 0.695002 0.666551 0.6381 0.609649 0.576954 0.544259 0.511564 0.478868 0.510824 0.54278 0.574736 0.606691 0.617991 0.629292 0.640592 0.651892 0.646839 0.641785 0.636732 0.631679 0.591584 0.55149 0.511395 0.4713 0.464855 0.458411 0.451966 0.445521 0.402451 0.359381 0.316311 0.273241 0.298289 0.323338 0.348386 0.373434 0.425688 0.477941 0.530195 0.582449 0.575452 0.568456 0.56146 0.554463 0.425656 0.440962 0.456267 0.471573 0.486878 0.493827 0.500776 0.507724 0.514673 0.463797 0.412921 0.362045 0.311169 0.325793 0.340418 0.355042 0.369667 0.445926 0.522186 0.598445 0.674705 0.634757 0.59481 0.554862 0.514915 0.515218 0.515522 0.515826 0.516129 0.508287 0.500444 0.492602 0.48476 0.519584 0.554408 0.589232 0.624056 0.634579 0.645103 0.655626 0.666149 0.621567 0.576985 0.532403 0.48782 0.480365 0.47291 0.465455 0.458 0.414163 0.370327 0.326491 0.282654 0.293116 0.303577 0.314038 0.324499 0.39708 0.469661 0.542242 0.614822 0.612982 0.611141 0.6093 0.60746 0.515701 0.514032 0.512363 0.510694 0.509025 0.53575 0.562476 0.589202 0.615927 0.534505 0.453082 0.37166 0.290237 0.326177 0.362116 0.398055 0.433995 0.481985 0.529976 0.577966 0.625956 0.574512 0.523068 0.471624 0.42018 0.453483 0.486785 0.520087 0.55339 0.505749 0.458109 0.410469 0.362828 0.421176 0.479524 0.537872 0.59622 0.62232 0.64842 0.67452 0.70062 0.65155 0.60248 0.55341 0.50434 0.495875 0.487409 0.478943 0.470478 0.425875 0.381273 0.33667 0.292068 0.287942 0.283816 0.27969 0.275564 0.368472 0.46138 0.554288 0.647196 0.650511 0.653826 0.657141 0.660456 0.605745 0.587102 0.568458 0.549814 0.531171 0.577674 0.624176 0.670679 0.717182 0.605213 0.493244 0.381275 0.269306 0.32656 0.383814 0.441068 0.498322 0.518044 0.537765 0.557487 0.577208 0.514268 0.451327 0.388387 0.325446 0.391747 0.458048 0.524349 0.59065 0.503212 0.415773 0.328335 0.240896 0.322768 0.40464 0.486512 0.568384 0.610061 0.651737 0.693413 0.73509 0.681532 0.627975 0.574418 0.52086 0.511384 0.501908 0.492432 0.482956 0.437587 0.392219 0.34685 0.301481 0.282768 0.264055 0.245342 0.226629 0.339864 0.453099 0.566334 0.67957 0.68804 0.696511 0.704981 0.713452 0.551298 0.530662 0.510027 0.489392 0.468757 0.513705 0.558653 0.603601 0.648549 0.582328 0.516107 0.449887 0.383666 0.427104 0.470542 0.51398 0.557418 0.565312 0.573206 0.5811 0.588994 0.553312 0.51763 0.481949 0.446267 0.495327 0.544388 0.593449 0.64251 0.54448 0.446451 0.348421 0.250391 0.332725 0.415058 0.497392 0.579725 0.604438 0.62915 0.653863 0.678575 0.622218 0.56586 0.509502 0.453145 0.478522 0.5039 0.529278 0.554655 0.504971 0.455286 0.405602 0.355917 0.352614 0.349311 0.346008 0.342706 0.399769 0.456832 0.513895 0.570958 0.585513 0.600067 0.614622 0.629176 0.49685 0.474223 0.451596 0.428969 0.406342 0.449736 0.493129 0.536522 0.579915 0.559443 0.53897 0.518498 0.498026 0.527648 0.557269 0.586891 0.616513 0.61258 0.608646 0.604713 0.60078 0.592357 0.583933 0.57551 0.567087 0.598908 0.630728 0.662549 0.694369 0.585748 0.477128 0.368507 0.259886 0.342681 0.425476 0.508271 0.591066 0.598815 0.606563 0.614312 0.622061 0.562903 0.503745 0.444587 0.385429 0.44566 0.505892 0.566123 0.626355 0.572354 0.518354 0.464354 0.410353 0.422461 0.434568 0.446675 0.458782 0.459674 0.460565 0.461456 0.462347 0.482986 0.503624 0.524262 0.544901 0.442403 0.417784 0.393165 0.368547 0.343928 0.385766 0.427605 0.469443 0.511281 0.536558 0.561834 0.58711 0.612386 0.628192 0.643997 0.659803 0.675608 0.659848 0.644087 0.628326 0.612565 0.631401 0.650237 0.669072 0.687908 0.702488 0.717068 0.731648 0.746228 0.627016 0.507805 0.388593 0.269381 0.352638 0.435894 0.519151 0.602407 0.593192 0.583977 0.574761 0.565546 0.503588 0.44163 0.379672 0.317713 0.412799 0.507884 0.602969 0.698054 0.639738 0.581422 0.523106 0.464789 0.492307 0.519824 0.547342 0.574859 0.519579 0.464298 0.409017 0.353736 0.380458 0.407181 0.433903 0.460626 0.387955 0.361345 0.334735 0.308124 0.281514 0.321797 0.362081 0.402364 0.442648 0.513672 0.584697 0.655721 0.726746 0.728735 0.730725 0.732714 0.734704 0.707115 0.679527 0.651939 0.624351 0.670445 0.71654 0.762634 0.808729 0.806068 0.803408 0.800748 0.798087 0.668285 0.538482 0.408679 0.278876 0.362594 0.446312 0.53003 0.613748 0.587569 0.56139 0.535211 0.509032 0.444273 0.379515 0.314756 0.249998 0.379937 0.509876 0.639815 0.769754 0.707122 0.64449 0.581857 0.519225 0.562153 0.605081 0.648009 0.690936 0.579483 0.46803 0.356578 0.245125 0.277931 0.310737 0.343544 0.37635 0.443269 0.403588 0.363906 0.324225 0.284543 0.334354 0.384166 0.433977 0.483788 0.527182 0.570576 0.61397 0.657364 0.673725 0.690087 0.706448 0.722809 0.697714 0.672618 0.647522 0.622426 0.64639 0.670353 0.694317 0.71828 0.713101 0.707923 0.702744 0.697565 0.601781 0.505996 0.410212 0.314428 0.399834 0.48524 0.570646 0.656052 0.618338 0.580624 0.54291 0.505197 0.456089 0.406982 0.357875 0.308768 0.40668 0.504592 0.602504 0.700416 0.672629 0.644842 0.617055 0.589269 0.593101 0.596933 0.600765 0.604597 0.546879 0.48916 0.431442 0.373723 0.364803 0.355882 0.346962 0.338042 0.498583 0.44583 0.393078 0.340325 0.287573 0.346911 0.40625 0.465589 0.524928 0.540691 0.556455 0.572218 0.587982 0.618715 0.649448 0.680182 0.710915 0.688312 0.665708 0.643105 0.620502 0.622334 0.624166 0.625999 0.627831 0.620134 0.612437 0.60474 0.597043 0.535277 0.473511 0.411745 0.349979 0.437074 0.524168 0.611262 0.698356 0.649107 0.599859 0.55061 0.501361 0.467906 0.43445 0.400994 0.367538 0.433423 0.499308 0.565193 0.631078 0.638136 0.645195 0.652254 0.659312 0.624049 0.588785 0.553522 0.518258 0.514274 0.51029 0.506306 0.502321 0.451674 0.401027 0.35038 0.299733 0.553897 0.488073 0.422249 0.356426 0.290602 0.359468 0.428335 0.497201 0.566068 0.554201 0.542334 0.530466 0.518599 0.563705 0.60881 0.653916 0.699021 0.67891 0.658799 0.638688 0.618577 0.598278 0.57798 0.557681 0.537383 0.527167 0.516952 0.506736 0.496521 0.468773 0.441026 0.413279 0.385531 0.474313 0.563096 0.651878 0.74066 0.679876 0.619093 0.55831 0.497526 0.479722 0.461917 0.444113 0.426308 0.460166 0.494024 0.527882 0.561739 0.603644 0.645548 0.687452 0.729356 0.654997 0.580637 0.506278 0.431919 0.481669 0.531419 0.58117 0.63092 0.538546 0.446172 0.353799 0.261425 0.609211 0.530316 0.451421 0.372526 0.293631 0.372025 0.450419 0.528814 0.607208 0.56771 0.528212 0.488715 0.449217 0.508695 0.568172 0.62765 0.687127 0.669509 0.65189 0.634271 0.616652 0.574223 0.531793 0.489364 0.446934 0.4342 0.421466 0.408732 0.395998 0.40227 0.408541 0.414812 0.421083 0.511553 0.602023 0.692494 0.782964 0.710646 0.638328 0.566009 0.493691 0.491538 0.489385 0.487231 0.485078 0.486909 0.48874 0.49057 0.492401 0.569151 0.6459 0.72265 0.799399 0.685944 0.572489 0.459035 0.34558 0.449064 0.552549 0.656034 0.759518 0.625418 0.491317 0.357217 0.223116 0.561356 0.519106 0.476855 0.434604 0.392353 0.434519 0.476684 0.51885 0.561016 0.542202 0.523389 0.504576 0.485763 0.523886 0.562009 0.600132 0.638255 0.607737 0.577219 0.546701 0.516182 0.507373 0.498564 0.489755 0.480946 0.471493 0.46204 0.452587 0.443134 0.449707 0.45628 0.462853 0.469426 0.525294 0.581161 0.637029 0.692897 0.644543 0.596188 0.547834 0.49948 0.506011 0.512542 0.519073 0.525604 0.534249 0.542895 0.55154 0.560186 0.585196 0.610205 0.635215 0.660225 0.576866 0.493507 0.410149 0.32679 0.425802 0.524813 0.623825 0.722836 0.627287 0.531738 0.436189 0.34064 0.513502 0.507895 0.502288 0.496682 0.491075 0.497012 0.502949 0.508886 0.514823 0.516695 0.518566 0.520437 0.522308 0.539077 0.555846 0.572614 0.589383 0.545965 0.502548 0.45913 0.415713 0.440524 0.465335 0.490147 0.514958 0.508786 0.502613 0.496441 0.490269 0.497144 0.504019 0.510894 0.517769 0.539034 0.5603 0.581565 0.60283 0.57844 0.554049 0.529659 0.505269 0.520484 0.535699 0.550914 0.56613 0.58159 0.59705 0.61251 0.627971 0.601241 0.574511 0.547781 0.521051 0.467788 0.414525 0.361263 0.308 0.402539 0.497077 0.591616 0.686154 0.629157 0.572159 0.515162 0.458164 0.465648 0.496685 0.527722 0.558759 0.589797 0.559505 0.529214 0.498923 0.468631 0.491187 0.513742 0.536298 0.558854 0.554268 0.549682 0.545096 0.540511 0.484194 0.427877 0.37156 0.315243 0.373675 0.432107 0.490538 0.54897 0.546078 0.543187 0.540295 0.537404 0.544581 0.551758 0.558935 0.566113 0.552775 0.539438 0.5261 0.512763 0.512337 0.51191 0.511484 0.511058 0.534957 0.558857 0.582756 0.606655 0.62893 0.651205 0.67348 0.695755 0.617286 0.538816 0.460346 0.381876 0.35871 0.335543 0.312377 0.289211 0.379276 0.469341 0.559407 0.649472 0.631026 0.61258 0.594134 0.575688 0.417793 0.485474 0.553156 0.620837 0.688519 0.621999 0.555479 0.488959 0.422439 0.465679 0.508919 0.552159 0.595399 0.569459 0.543519 0.517579 0.491639 0.422422 0.353206 0.28399 0.214773 0.306826 0.398878 0.49093 0.582982 0.583371 0.58376 0.58415 0.584539 0.592018 0.599497 0.606977 0.614456 0.566516 0.518576 0.470636 0.422696 0.446234 0.469771 0.493309 0.516847 0.54943 0.582014 0.614598 0.647181 0.676271 0.705361 0.73445 0.76354 0.633331 0.503121 0.372911 0.242702 0.249632 0.256561 0.263491 0.270421 0.356013 0.441605 0.527198 0.61279 0.632895 0.653001 0.673106 0.693212 0.517769 0.535489 0.553208 0.570927 0.588646 0.547923 0.5072 0.466476 0.425753 0.470413 0.515074 0.559734 0.604395 0.573185 0.541975 0.510766 0.479556 0.446706 0.413855 0.381004 0.348154 0.39486 0.441566 0.488272 0.534978 0.529076 0.523174 0.517273 0.511371 0.53805 0.564729 0.591408 0.618087 0.563763 0.509439 0.455115 0.400791 0.444467 0.488144 0.53182 0.575497 0.595348 0.615199 0.635049 0.6549 0.663756 0.672611 0.681466 0.690322 0.576273 0.462225 0.348177 0.234128 0.245202 0.256275 0.267348 0.278421 0.34731 0.4162 0.485089 0.553978 0.593064 0.632151 0.671237 0.710323 0.617746 0.585503 0.55326 0.521017 0.488774 0.473847 0.45892 0.443993 0.429067 0.475148 0.521229 0.56731 0.613391 0.576911 0.540432 0.503953 0.467474 0.470989 0.474504 0.478019 0.481534 0.482894 0.484254 0.485614 0.486974 0.474781 0.462589 0.450396 0.438203 0.484082 0.529961 0.57584 0.621719 0.561011 0.500302 0.439594 0.378886 0.442701 0.506517 0.570332 0.634147 0.641265 0.648383 0.655501 0.662619 0.65124 0.639861 0.628482 0.617103 0.519216 0.421329 0.323442 0.225555 0.240772 0.255988 0.271205 0.286421 0.338608 0.390794 0.44298 0.495167 0.553234 0.611301 0.669368 0.727434 0.717722 0.635517 0.553312 0.471107 0.388902 0.399771 0.410641 0.421511 0.43238 0.479882 0.527383 0.574885 0.622386 0.580638 0.538889 0.49714 0.455391 0.495272 0.535153 0.575033 0.614914 0.570928 0.526942 0.482956 0.43897 0.420486 0.402003 0.383519 0.365036 0.430114 0.495193 0.560272 0.62535 0.558258 0.491166 0.424074 0.356981 0.440935 0.524889 0.608843 0.692797 0.687182 0.681567 0.675953 0.670338 0.638725 0.607111 0.575498 0.543885 0.462159 0.380433 0.298707 0.216982 0.236342 0.255701 0.275061 0.294421 0.329905 0.365388 0.400872 0.436355 0.513403 0.59045 0.667498 0.744546 0.817698 0.685531 0.553364 0.421197 0.289029 0.325696 0.362362 0.399028 0.435694 0.484616 0.533538 0.58246 0.631382 0.584364 0.537345 0.490327 0.443309 0.519555 0.595802 0.672048 0.748294 0.658962 0.56963 0.480298 0.390966 0.366191 0.341417 0.316642 0.291868 0.376146 0.460425 0.544703 0.628982 0.555505 0.482029 0.408553 0.335077 0.439169 0.543262 0.647354 0.751447 0.733099 0.714752 0.696404 0.678057 0.626209 0.574361 0.522514 0.470666 0.405102 0.339537 0.273973 0.208408 0.231912 0.255415 0.278918 0.302421 0.321202 0.339983 0.358763 0.377544 0.473572 0.5696 0.665629 0.761657 0.757869 0.648272 0.538674 0.429077 0.31948 0.345411 0.371343 0.397274 0.423205 0.465832 0.508459 0.551086 0.593713 0.576746 0.559779 0.542812 0.525845 0.583866 0.641887 0.699908 0.75793 0.674525 0.59112 0.507715 0.42431 0.410508 0.396706 0.382904 0.369102 0.435894 0.502685 0.569477 0.636268 0.553988 0.471709 0.389429 0.307149 0.406751 0.506353 0.605955 0.705558 0.671147 0.636737 0.602327 0.567917 0.543728 0.519539 0.495349 0.47116 0.423741 0.376321 0.328902 0.281483 0.281763 0.282043 0.282323 0.282602 0.298175 0.313747 0.329319 0.344891 0.451117 0.557343 0.663569 0.769795 0.69804 0.611012 0.523985 0.436958 0.349931 0.365127 0.380323 0.39552 0.410716 0.447048 0.48338 0.519712 0.556044 0.569128 0.582212 0.595296 0.60838 0.648177 0.687973 0.727769 0.767565 0.690088 0.61261 0.535132 0.457654 0.454825 0.451995 0.449166 0.446337 0.495641 0.544946 0.59425 0.643555 0.552471 0.461388 0.370305 0.279221 0.374333 0.469445 0.564556 0.659668 0.609195 0.558723 0.50825 0.457778 0.461247 0.464716 0.468185 0.471654 0.442379 0.413105 0.383831 0.354557 0.331614 0.30867 0.285727 0.262784 0.275147 0.287511 0.299875 0.312238 0.428662 0.545086 0.66151 0.777934 0.63821 0.573753 0.509296 0.444839 0.380381 0.384843 0.389304 0.393766 0.398227 0.428264 0.458301 0.488338 0.518375 0.56151 0.604646 0.647781 0.690916 0.712487 0.734059 0.75563 0.777201 0.70565 0.6341 0.562549 0.490999 0.499142 0.507285 0.515428 0.523571 0.555389 0.587206 0.619024 0.650841 0.550955 0.451068 0.351181 0.251294 0.341915 0.432536 0.523157 0.613779 0.547244 0.480708 0.414173 0.347638 0.378765 0.409893 0.44102 0.472147 0.461018 0.449889 0.43876 0.427631 0.381464 0.335298 0.289131 0.242965 0.25212 0.261275 0.27043 0.279586 0.406207 0.532829 0.65945 0.786072 0.578381 0.536494 0.494606 0.452719 0.410832 0.404559 0.398285 0.392012 0.385739 0.40948 0.433222 0.456964 0.480706 0.553893 0.627079 0.700266 0.773452 0.776798 0.780144 0.78349 0.786836 0.721213 0.65559 0.589966 0.524343 0.543459 0.562574 0.58169 0.600805 0.615136 0.629467 0.643797 0.658128 0.549438 0.440747 0.332057 0.223366 0.309497 0.395628 0.481759 0.567889 0.485292 0.402694 0.320096 0.237499 0.296284 0.35507 0.413856 0.472641 0.479657 0.486673 0.493689 0.500705 0.431315 0.361926 0.292536 0.223146 0.229093 0.235039 0.240986 0.246933 0.383752 0.520571 0.657391 0.79421 0.567997 0.53048 0.492964 0.455447 0.417931 0.412997 0.408063 0.403129 0.398195 0.407726 0.417258 0.426789 0.43632 0.491132 0.545944 0.600756 0.655568 0.665943 0.676317 0.686691 0.697066 0.647267 0.597469 0.547671 0.497873 0.529719 0.561565 0.593411 0.625257 0.624388 0.623519 0.62265 0.62178 0.539405 0.457029 0.374654 0.292278 0.343843 0.395407 0.446971 0.498536 0.466096 0.433656 0.401216 0.368775 0.40459 0.440404 0.476219 0.512033 0.523559 0.535084 0.546609 0.558135 0.499158 0.440181 0.381204 0.322228 0.339303 0.356379 0.373454 0.39053 0.493654 0.596778 0.699902 0.803026 0.557612 0.524467 0.491321 0.458175 0.42503 0.421435 0.417841 0.414246 0.410652 0.405972 0.401293 0.396613 0.391934 0.428372 0.464809 0.501247 0.537685 0.555087 0.57249 0.589892 0.607295 0.573322 0.539349 0.505376 0.471403 0.51598 0.560556 0.605133 0.649709 0.63364 0.617571 0.601502 0.585433 0.529372 0.473312 0.417251 0.36119 0.378188 0.395186 0.412184 0.429182 0.4469 0.464617 0.482335 0.500052 0.512896 0.525739 0.538582 0.551426 0.56746 0.583495 0.599529 0.615564 0.567 0.518437 0.469873 0.42131 0.449514 0.477718 0.505923 0.534127 0.603556 0.672984 0.742413 0.811842 0.547228 0.518453 0.489678 0.460903 0.432129 0.429874 0.427619 0.425363 0.423108 0.404218 0.385328 0.366438 0.347548 0.365611 0.383674 0.401738 0.419801 0.444232 0.468663 0.493094 0.517524 0.499377 0.481229 0.463081 0.444933 0.50224 0.559547 0.616854 0.674161 0.642892 0.611623 0.580354 0.549085 0.51934 0.489594 0.459848 0.430103 0.412534 0.394966 0.377397 0.359829 0.427704 0.495579 0.563454 0.631329 0.621201 0.611073 0.600946 0.590818 0.611362 0.631905 0.652449 0.672993 0.634842 0.596692 0.558542 0.520392 0.559725 0.599058 0.638391 0.677724 0.713457 0.749191 0.784924 0.820658 0.536843 0.512439 0.488036 0.463632 0.439228 0.438312 0.437396 0.436481 0.435565 0.402464 0.369363 0.336263 0.303162 0.302851 0.302539 0.302228 0.301917 0.333376 0.364836 0.396295 0.427754 0.425431 0.423108 0.420786 0.418463 0.4885 0.558538 0.628576 0.698613 0.652144 0.605676 0.559207 0.512738 0.509307 0.505876 0.502445 0.499015 0.44688 0.394745 0.34261 0.290475 0.408508 0.526541 0.644573 0.762606 0.729507 0.696408 0.663309 0.63021 0.655263 0.680316 0.705369 0.730422 0.702685 0.674948 0.647211 0.619473 0.669935 0.720397 0.770859 0.821321 0.823359 0.825397 0.827435 0.829473 0.492912 0.489535 0.486158 0.482781 0.479404 0.48269 0.485976 0.489261 0.492547 0.458751 0.424956 0.39116 0.357365 0.370869 0.384373 0.397878 0.411382 0.409228 0.407074 0.404919 0.402765 0.398415 0.394064 0.389713 0.385363 0.433149 0.480934 0.52872 0.576506 0.547522 0.518538 0.489554 0.460569 0.472894 0.485218 0.497543 0.509867 0.469846 0.429825 0.389804 0.349783 0.433405 0.517028 0.60065 0.684273 0.656536 0.628798 0.601061 0.573324 0.580107 0.58689 0.593673 0.600456 0.611402 0.622347 0.633293 0.644239 0.675069 0.705899 0.736728 0.767558 0.762056 0.756555 0.751053 0.745552 0.448981 0.466631 0.484281 0.501931 0.519581 0.527068 0.534555 0.542042 0.549529 0.515038 0.480548 0.446058 0.411568 0.438887 0.466207 0.493527 0.520847 0.485079 0.449312 0.413544 0.377777 0.371398 0.36502 0.358641 0.352263 0.377797 0.403331 0.428864 0.454398 0.442899 0.4314 0.419901 0.408401 0.436481 0.464561 0.49264 0.52072 0.492812 0.464905 0.436998 0.409091 0.458303 0.507515 0.556728 0.60594 0.583564 0.561189 0.538813 0.516438 0.504951 0.493464 0.481976 0.470489 0.520118 0.569747 0.619376 0.669005 0.680202 0.6914 0.702597 0.713795 0.700754 0.687712 0.674671 0.66163 0.405049 0.443726 0.482403 0.52108 0.559757 0.571446 0.583134 0.594822 0.606511 0.571326 0.536141 0.500956 0.46577 0.506906 0.548041 0.589176 0.630311 0.560931 0.49155 0.422169 0.352788 0.344382 0.335976 0.327569 0.319163 0.322445 0.325727 0.329009 0.332291 0.338276 0.344262 0.350248 0.356233 0.400068 0.443903 0.487738 0.531572 0.515779 0.499985 0.484192 0.468398 0.4832 0.498003 0.512805 0.527607 0.510593 0.493579 0.476566 0.459552 0.429795 0.400037 0.37028 0.340523 0.428835 0.517147 0.605459 0.693771 0.685336 0.676901 0.668466 0.660032 0.639451 0.61887 0.598289 0.577708 0.361118 0.420822 0.480526 0.54023 0.599934 0.615824 0.631713 0.647603 0.663493 0.627613 0.591733 0.555853 0.519973 0.574924 0.629875 0.684825 0.739776 0.636782 0.533788 0.430794 0.3278 0.317366 0.306932 0.296497 0.286063 0.267093 0.248123 0.229153 0.210183 0.233654 0.257124 0.280595 0.304065 0.363655 0.423245 0.482835 0.542425 0.538745 0.535065 0.531386 0.527706 0.508098 0.48849 0.468882 0.449274 0.437622 0.42597 0.414318 0.402666 0.354638 0.306611 0.258584 0.210557 0.337552 0.464547 0.591542 0.718537 0.69047 0.662403 0.634336 0.606269 0.578148 0.550027 0.521907 0.493786 0.360156 0.427082 0.494009 0.560936 0.627863 0.640505 0.653148 0.665791 0.678434 0.652649 0.626865 0.60108 0.575296 0.601456 0.627615 0.653775 0.679935 0.62237 0.564804 0.507239 0.449674 0.436785 0.423895 0.411006 0.398116 0.354086 0.310056 0.266026 0.221996 0.245815 0.269635 0.293454 0.317273 0.384627 0.45198 0.519333 0.586686 0.567839 0.548992 0.530145 0.511298 0.498957 0.486615 0.474273 0.461932 0.472154 0.482376 0.492599 0.502821 0.467317 0.431814 0.39631 0.360806 0.448289 0.535771 0.623254 0.710736 0.682061 0.653385 0.62471 0.596034 0.588928 0.581821 0.574715 0.567608 0.359193 0.433343 0.507492 0.581642 0.655791 0.665187 0.674583 0.683979 0.693374 0.677686 0.661997 0.646308 0.630619 0.627987 0.625356 0.622725 0.620093 0.607957 0.595821 0.583685 0.571548 0.556204 0.540859 0.525514 0.510169 0.441079 0.371989 0.302899 0.233808 0.257977 0.282145 0.306313 0.330482 0.405598 0.480714 0.555831 0.630947 0.596933 0.562919 0.528905 0.494891 0.489816 0.48474 0.479665 0.47459 0.506686 0.538783 0.57088 0.602976 0.579996 0.557016 0.534036 0.511056 0.559026 0.606996 0.654965 0.702935 0.673651 0.644368 0.615084 0.5858 0.599708 0.613615 0.627522 0.64143 0.358231 0.439603 0.520975 0.602347 0.68372 0.689868 0.696017 0.702166 0.708315 0.702722 0.697128 0.691535 0.685941 0.654519 0.623097 0.591674 0.560252 0.593545 0.626837 0.66013 0.693423 0.675622 0.657822 0.640022 0.622222 0.528072 0.433922 0.339771 0.245621 0.270138 0.294655 0.319173 0.34369 0.4265