<?xml version="1.0"?> 
<VTKFile type="StructuredGrid" version="0.1"> 
<StructuredGrid WholeExtent="0 128 0 128 0 0"> 
<Piece Extent="0 128 0 128 0 0"> 
<PointData>
<DataArray type="Float32" Name="u" format="ascii" NumberOfComponents="1"> 
0 0 0 0 0 0 0 0 0 0 0 0 0 0 0 0 0 0 0 0 0 0 0 0 0 0 0 0 0 0 0 0 0 0 0 0 0 0 0 0 0 0 0 0 0 0 0 0 0 0 0 0 0 0 0 0 0 0 0 0 0 0 0 0 0 0 0 0 0 0 0 0 0 0 0 0 0 0 0 0 0 0 0 0 0 0 0 0 0 0 0 0 0 0 0 0 0 0 0 0 0 0 0 0 0 0 0 0 0 0 0 0 0 0 0 0 0 0 0 0 0 0 0 0 0 0 0 0 0 0 2.22975e-07 8.91899e-07 2.00677e-06 3.5676e-06 5.57437e-06 8.02709e-06 1.09258e-05 1.42704e-05 1.83607e-05 2.34966e-05 2.96779e-05 3.69046e-05 4.51769e-05 5.44947e-05 6.48579e-05 7.62666e-05 8.82952e-05 0.000100518 0.000112935 0.000125546 0.000138351 0.00015135 0.000164544 0.000177932 0.000190985 0.000203176 0.000214503 0.000224968 0.00023457 0.00024331 0.000251186 0.000258199 0.000264205 0.000269057 0.000272756 0.000275301 0.000276694 0.000276933 0.000276018 0.000273951 0.000271102 0.000267845 0.000264179 0.000260103 0.000255619 0.000250726 0.000245424 0.000239713 0.000234239 0.000229646 0.000225935 0.000223105 0.000221157 0.00022009 0.000219905 0.000220602 0.000222581 0.000226244 0.000231592 0.000238623 0.000247337 0.000257736 0.000269819 0.000283586 0.000298793 0.000315199 0.000332802 0.000351604 0.000371604 0.000392801 0.000415197 0.00043879 0.000462769 0.000486318 0.00050944 0.000532133 0.000554397 0.000576233 0.00059764 0.000618619 0.00063832 0.000655894 0.00067134 0.000684659 0.000695851 0.000704915 0.000711852 0.000716661 0.000719045 0.000718707 0.000715646 0.000709862 0.000701355 0.000690126 0.000676174 0.000659499 0.00064057 0.000619856 0.000597358 0.000573074 0.000547006 0.000519153 0.000489514 0.000458091 0.000425925 0.00039406 0.000362495 0.00033123 0.000300265 0.0002696 0.000239236 0.000209172 0.000180428 0.000154025 0.000129962 0.00010824 8.88589e-05 7.1818e-05 5.71177e-05 4.47579e-05 3.42678e-05 2.51763e-05 1.74836e-05 1.11895e-05 6.29408e-06 2.79737e-06 6.99342e-07 0 0 8.91899e-07 3.5676e-06 8.02709e-06 1.42704e-05 2.22975e-05 3.21084e-05 4.37031e-05 5.70816e-05 7.34429e-05 9.39862e-05 0.000118711 0.000147619 0.000180708 0.000217979 0.000259432 0.000305067 0.000353181 0.000402072 0.000451739 0.000502183 0.000553404 0.000605402 0.000658176 0.000711727 0.000763941 0.000812703 0.000858014 0.000899873 0.000938281 0.000973238 0.00100474 0.0010328 0.00105682 0.00107623 0.00109102 0.00110121 0.00110677 0.00110773 0.00110407 0.0010958 0.00108441 0.00107138 0.00105671 0.00104041 0.00102248 0.0010029 0.000981697 0.000958854 0.000936956 0.000918584 0.000903739 0.00089242 0.000884627 0.000880361 0.000879621 0.000882408 0.000890325 0.000904978 0.000926366 0.00095449 0.00098935 0.00103095 0.00107928 0.00113434 0.00119517 0.0012608 0.00133121 0.00140642 0.00148641 0.0015712 0.00166079 0.00175516 0.00185107 0.00194527 0.00203776 0.00212853 0.00221759 0.00230493 0.00239056 0.00247448 0.00255328 0.00262358 0.00268536 0.00273864 0.0027834 0.00281966 0.00284741 0.00286664 0.00287618 0.00287483 0.00286258 0.00283945 0.00280542 0.0027605 0.00270469 0.002638 0.00256228 0.00247943 0.00238943 0.0022923 0.00218802 0.00207661 0.00195806 0.00183236 0.0017037 0.00157624 0.00144998 0.00132492 0.00120106 0.0010784 0.000956944 0.000836687 0.000721712 0.0006161 0.000519849 0.000432961 0.000355436 0.000287272 0.000228471 0.000179032 0.000137071 0.000100705 6.99342e-05 4.47579e-05 2.51763e-05 1.11895e-05 2.79737e-06 0 0 2.00677e-06 8.02709e-06 1.8061e-05 3.21084e-05 5.01693e-05 7.22439e-05 9.83319e-05 0.000128434 0.000165247 0.000211469 0.000267101 0.000332142 0.000406592 0.000490452 0.000583721 0.0006864 0.000794657 0.000904661 0.00101641 0.00112991 0.00124516 0.00136215 0.0014809 0.00160139 0.00171887 0.00182858 0.00193053 0.00202471 0.00211113 0.00218979 0.00226067 0.00232379 0.00237784 0.00242151 0.0024548 0.00247771 0.00249024 0.00249239 0.00248417 0.00246556 0.00243992 0.0024106 0.00237761 0.00234093 0.00230057 0.00225654 0.00220882 0.00215742 0.00210815 0.00206681 0.00203341 0.00200795 0.00199041 0.00198081 0.00197915 0.00198542 0.00200323 0.0020362 0.00208432 0.0021476 0.00222604 0.00231963 0.00242837 0.00255227 0.00268914 0.00283679 0.00299522 0.00316444 0.00334443 0.00353521 0.00373677 0.00394911 0.00416492 0.00437687 0.00458496 0.00478919 0.00498957 0.0051861 0.00537876 0.00556757 0.00574488 0.00590305 0.00604206 0.00616193 0.00626266 0.00634423 0.00640666 0.00644995 0.00647141 0.00646836 0.00644081 0.00638876 0.0063122 0.00621113 0.00608556 0.00593549 0.00576513 0.00557871 0.00537622 0.00515767 0.00492305 0.00467237 0.00440563 0.00412282 0.00383333 0.00354654 0.00326245 0.00298107 0.00270238 0.0024264 0.00215312 0.00188255 0.00162385 0.00138622 0.00116966 0.000974163 0.00079973 0.000646362 0.000514059 0.000402821 0.00030841 0.000226587 0.000157352 0.000100705 5.66467e-05 2.51763e-05 6.29408e-06 0 0 3.5676e-06 1.42704e-05 3.21084e-05 5.70816e-05 8.91899e-05 0.000128434 0.000174812 0.000228326 0.000293772 0.000375945 0.000474846 0.000590474 0.000722831 0.000871915 0.00103773 0.00122027 0.00141272 0.00160829 0.00180696 0.00200873 0.00221362 0.00242161 0.00263271 0.00284691 0.00305576 0.00325081 0.00343206 0.00359949 0.00375313 0.00389295 0.00401897 0.00413119 0.00422728 0.00430491 0.00436409 0.00440482 0.0044271 0.00443092 0.0044163 0.00438322 0.00433764 0.00428552 0.00422686 0.00416165 0.00408991 0.00401162 0.00392679 0.00383541 0.00374782 0.00367434 0.00361496 0.00356968 0.00353851 0.00352144 0.00351848 0.00352963 0.0035613 0.00361991 0.00370546 0.00381796 0.0039574 0.00412378 0.0043171 0.00453737 0.00478069 0.00504318 0.00532484 0.00562566 0.00594566 0.00628482 0.00664315 0.00702064 0.0074043 0.00778109 0.00815104 0.00851412 0.00887035 0.00921973 0.00956225 0.00989791 0.0102131 0.0104943 0.0107414 0.0109545 0.0111336 0.0112786 0.0113896 0.0114666 0.0115047 0.0114993 0.0114503 0.0113578 0.0112217 0.011042 0.0108188 0.010552 0.0102491 0.0099177 0.00955773 0.00916919 0.00875209 0.00830644 0.00783223 0.00732945 0.0068148 0.00630496 0.00579991 0.00529967 0.00480424 0.0043136 0.00382777 0.00334675 0.00288685 0.0024644 0.0020794 0.00173185 0.00142174 0.00114909 0.000913883 0.000716127 0.000548284 0.000402821 0.000279737 0.000179032 0.000100705 4.47579e-05 1.11895e-05 0 0 5.57437e-06 2.22975e-05 5.01693e-05 8.91899e-05 0.000139359 0.000200677 0.000273144 0.00035676 0.000459018 0.000587414 0.000741946 0.000922616 0.00112942 0.00136237 0.00162145 0.00190667 0.00220738 0.00251295 0.00282337 0.00313865 0.00345878 0.00378376 0.0041136 0.0044483 0.00477463 0.00507939 0.00536259 0.00562421 0.00586426 0.00608274 0.00627965 0.00645498 0.00660512 0.00672642 0.00681889 0.00688253 0.00691734 0.00692332 0.00690046 0.00684877 0.00677756 0.00669612 0.00660446 0.00650258 0.00639048 0.00626815 0.00613561 0.00599284 0.00585597 0.00574115 0.00564837 0.00557763 0.00552892 0.00550226 0.00549763 0.00551505 0.00556453 0.00565611 0.00578979 0.00596556 0.00618344 0.00644341 0.00674548 0.00708964 0.00746983 0.00787997 0.00832006 0.0087901 0.00929009 0.00982003 0.0103799 0.0109698 0.0115692 0.012158 0.012736 0.0133033 0.0138599 0.0144058 0.014941 0.0154655 0.015958 0.0163974 0.0167835 0.0171165 0.0173963 0.0176229 0.0177963 0.0179165 0.0179761 0.0179677 0.0178911 0.0177465 0.0175339 0.0172531 0.0169043 0.0164875 0.0160143 0.0154964 0.0149339 0.0143269 0.0136751 0.0129788 0.0122379 0.0114523 0.0106481 0.00985149 0.00906236 0.00828074 0.00750662 0.00674001 0.0059809 0.0052293 0.0045107 0.00385062 0.00324906 0.00270601 0.00222147 0.00179545 0.00142794 0.00111895 0.000856694 0.000629408 0.000437089 0.000279737 0.000157352 6.99342e-05 1.74836e-05 0 0 8.02709e-06 3.21084e-05 7.22439e-05 0.000128434 0.000200677 0.000288975 0.000393328 0.000513734 0.000660986 0.000845876 0.0010684 0.00132857 0.00162637 0.00196181 0.00233489 0.0027456 0.00317863 0.00361864 0.00406565 0.00451965 0.00498064 0.00544862 0.00592359 0.00640554 0.00687547 0.00731433 0.00772212 0.00809886 0.00844453 0.00875914 0.00904269 0.00929518 0.00951137 0.00968605 0.00981921 0.00991085 0.00996097 0.00996958 0.00993666 0.00986223 0.00975969 0.00964242 0.00951043 0.00936372 0.00920229 0.00902614 0.00883527 0.00862968 0.0084326 0.00826726 0.00813365 0.00803178 0.00796165 0.00792325 0.00791659 0.00794167 0.00801292 0.0081448 0.0083373 0.00859041 0.00890415 0.00927851 0.00971348 0.0102091 0.0107566 0.0113472 0.0119809 0.0126577 0.0133777 0.0141408 0.0149471 0.0157964 0.0166597 0.0175075 0.0183398 0.0191568 0.0199583 0.0207444 0.0215151 0.0222703 0.0229795 0.0236122 0.0241683 0.0246477 0.0250506 0.0253769 0.0256267 0.0257998 0.0258856 0.0258734 0.0257632 0.025555 0.0252488 0.0248445 0.0243422 0.023742 0.0230605 0.0223148 0.0215049 0.0206307 0.0196922 0.0186895 0.0176225 0.0164913 0.0153333 0.0141862 0.0130498 0.0119243 0.0108095 0.00970561 0.00861249 0.00753018 0.00649541 0.0055449 0.00467864 0.00389665 0.00319892 0.00258545 0.00205624 0.00161128 0.00123364 0.000906348 0.000629408 0.000402821 0.000226587 0.000100705 2.51763e-05 0 0 1.09258e-05 4.37031e-05 9.83319e-05 0.000174812 0.000273144 0.000393328 0.000535363 0.000699249 0.000899676 0.00115133 0.00145422 0.00180833 0.00221367 0.00267024 0.00317804 0.00373707 0.00432646 0.00492538 0.00553381 0.00615175 0.0067792 0.00741617 0.00806266 0.00871866 0.00935827 0.00995561 0.0105107 0.0110234 0.0114939 0.0119222 0.0123081 0.0126518 0.012946 0.0131838 0.013365 0.0134898 0.013558 0.0135697 0.0135249 0.0134236 0.013284 0.0131244 0.0129447 0.0127451 0.0125253 0.0122856 0.0120258 0.011746 0.0114777 0.0112527 0.0110708 0.0109321 0.0108367 0.0107844 0.0107754 0.0108095 0.0109065 0.011086 0.011348 0.0116925 0.0121195 0.0126291 0.0132211 0.0138957 0.0146409 0.0154447 0.0163073 0.0172286 0.0182086 0.0192473 0.0203446 0.0215007 0.0226757 0.0238296 0.0249625 0.0260745 0.0271655 0.0282354 0.0292844 0.0303123 0.0312777 0.0321388 0.0328957 0.0335483 0.0340967 0.0345408 0.0348807 0.0351164 0.0352332 0.0352166 0.0350666 0.0347832 0.0343664 0.0338162 0.0331325 0.0323154 0.0313879 0.030373 0.0292705 0.0280806 0.0268033 0.0254385 0.0239862 0.0224465 0.0208703 0.0193089 0.0177622 0.0162302 0.014713 0.0132104 0.0117226 0.0102494 0.00884098 0.00754722 0.00636816 0.00530378 0.00435409 0.00351908 0.00279877 0.00219314 0.00167912 0.00123364 0.000856694 0.000548284 0.00030841 0.000137071 3.42678e-05 0 0 1.42704e-05 5.70816e-05 0.000128434 0.000228326 0.00035676 0.000513734 0.000699249 0.000913305 0.00117509 0.00150378 0.00189938 0.0023619 0.00289132 0.00348766 0.00415091 0.00488107 0.00565089 0.00643315 0.00722783 0.00803494 0.00885447 0.00968643 0.0105308 0.0113876 0.0122231 0.0130032 0.0137282 0.014398 0.0150125 0.0155718 0.0160759 0.0165248 0.0169091 0.0172196 0.0174564 0.0176193 0.0177084 0.0177237 0.0176652 0.0175329 0.0173506 0.0171421 0.0169074 0.0166466 0.0163596 0.0160465 0.0157071 0.0153417 0.0149913 0.0146973 0.0144598 0.0142787 0.014154 0.0140858 0.0140739 0.0141185 0.0142452 0.0144796 0.0148219 0.0152718 0.0158296 0.0164951 0.0172684 0.0181495 0.0191228 0.0201727 0.0212994 0.0225027 0.0237826 0.0251393 0.0265726 0.0280826 0.0296172 0.0311244 0.0326041 0.0340565 0.0354814 0.0368789 0.038249 0.0395916 0.0408525 0.0419772 0.0429658 0.0438182 0.0445344 0.0451145 0.0455585 0.0458663 0.0460189 0.0459972 0.0458013 0.0454311 0.0448867 0.044168 0.0432751 0.0422079 0.0409965 0.0396708 0.0382309 0.0366768 0.0350084 0.0332258 0.0313289 0.0293178 0.0272592 0.0252198 0.0231997 0.0211987 0.0192169 0.0172544 0.0153111 0.013387 0.0115474 0.0098576 0.00831759 0.00692738 0.00568697 0.00459635 0.00365553 0.00286451 0.00219314 0.00161128 0.00111895 0.000716127 0.000402821 0.000179032 4.47579e-05 0 0 1.85632e-05 7.42529e-05 0.000167069 0.000297012 0.000464081 0.000668276 0.000909598 0.00118805 0.00152759 0.00195221 0.0024619 0.00305666 0.0037365 0.0045014 0.00535138 0.00628643 0.00727175 0.00827256 0.00928886 0.0103206 0.0113679 0.0124307 0.0135089 0.0146026 0.015669 0.0166651 0.017591 0.0184467 0.0192322 0.0199474 0.0205925 0.0211673 0.0216601 0.0220592 0.0223644 0.0225759 0.0226936 0.0227175 0.0226476 0.022484 0.0222567 0.021996 0.0217017 0.021374 0.0210128 0.0206182 0.02019 0.0197284 0.0192856 0.0189138 0.0186132 0.0183836 0.0182251 0.0181377 0.0181214 0.0181762 0.0183346 0.0186291 0.0190598 0.0196266 0.0203296 0.0211687 0.022144 0.0232554 0.0244834 0.0258083 0.0272301 0.0287488 0.0303645 0.0320771 0.0338867 0.0357932 0.0377308 0.0396338 0.0415021 0.0433358 0.0451348 0.0468992 0.048629 0.0503241 0.0519157 0.0533352 0.0545826 0.0556577 0.0565607 0.0572915 0.0578501 0.0582365 0.0584266 0.0583962 0.0581454 0.0576741 0.0569823 0.05607 0.0549373 0.0535841 0.0520483 0.0503678 0.0485426 0.0465727 0.044458 0.0421987 0.0397947 0.037246 0.0346369 0.0320517 0.0294903 0.0269527 0.024439 0.0219492 0.0194833 0.0170412 0.0147057 0.0125596 0.0106029 0.00883561 0.00725769 0.00586915 0.00467001 0.00366025 0.00280238 0.00205889 0.00142979 0.000915063 0.000514723 0.000228766 5.71914e-05 0 0 2.43065e-05 9.72261e-05 0.000218759 0.000388904 0.000607663 0.000875035 0.00119102 0.00155562 0.00199757 0.00254562 0.00319977 0.00396002 0.00482636 0.0057988 0.00687734 0.00806198 0.00930889 0.0105742 0.011858 0.0131603 0.014481 0.0158201 0.0171777 0.0185537 0.0198951 0.021149 0.0223152 0.0233939 0.0243849 0.0252884 0.0261043 0.0268325 0.0274586 0.0279679 0.0283604 0.0286361 0.028795 0.0288371 0.0287624 0.028571 0.0283 0.0279866 0.027631 0.027233 0.0267927 0.02631 0.0257851 0.0252178 0.0246728 0.0242147 0.0238434 0.0235589 0.0233614 0.0232507 0.0232269 0.0232899 0.0234801 0.0238376 0.0243626 0.0250549 0.0259147 0.0269419 0.0281364 0.0294984 0.0310037 0.0326285 0.0343726 0.0362361 0.0382189 0.0403212 0.0425428 0.0448837 0.0472631 0.0495999 0.051894 0.0541455 0.0563545 0.0585208 0.0606445 0.0627255 0.0646792 0.0664207 0.06795 0.0692672 0.0703722 0.071265 0.0719456 0.072414 0.0726403 0.0725947 0.072277 0.0716873 0.0708257 0.069692 0.0682863 0.0666085 0.0647054 0.0626232 0.060362 0.0579219 0.0553029 0.0525048 0.0495278 0.0463718 0.0431404 0.0399373 0.0367623 0.0336155 0.0304969 0.0274064 0.0243442 0.0213102 0.0184069 0.0157369 0.0133001 0.0110966 0.00912636 0.00738939 0.00588568 0.00461524 0.00353354 0.00259607 0.00180283 0.00115381 0.000649018 0.000288452 7.21131e-05 0 0 3.15003e-05 0.000126001 0.000283503 0.000504005 0.000787508 0.00113401 0.00154351 0.00201602 0.00258502 0.00328401 0.00411299 0.00507195 0.00616091 0.00737986 0.00872879 0.0102077 0.0117623 0.0133382 0.0149354 0.0165539 0.0181937 0.0198548 0.0215372 0.0232409 0.0249016 0.0264549 0.0279009 0.0292395 0.0304708 0.0315947 0.0326113 0.0335205 0.0343046 0.0349458 0.0354443 0.0357998 0.0360126 0.0360825 0.0360096 0.0357938 0.0354803 0.035114 0.0346951 0.0342235 0.0336991 0.0331221 0.0324923 0.0318099 0.0311529 0.0305998 0.0301504 0.0298047 0.0295628 0.0294247 0.0293903 0.0294597 0.0296817 0.0301052 0.0307303 0.0315569 0.032585 0.0338146 0.0352458 0.0368785 0.0386839 0.0406334 0.0427269 0.0449643 0.0473458 0.0498713 0.0525408 0.0553542 0.0582141 0.0610226 0.0637798 0.0664857 0.0691402 0.0717435 0.0742954 0.076796 0.0791429 0.0812336 0.0830682 0.0846466 0.0859689 0.087035 0.087845 0.0883988 0.0886601 0.0885925 0.0881961 0.0874709 0.0864168 0.0850338 0.083322 0.0812814 0.0789678 0.0764371 0.0736894 0.0707246 0.0675428 0.064144 0.0605281 0.0566951 0.0527698 0.0488766 0.0450157 0.0411869 0.0373904 0.0336261 0.029894 0.0261941 0.022651 0.0193894 0.0164091 0.0137103 0.011293 0.00915705 0.00730254 0.00572946 0.00438662 0.00322282 0.00223807 0.00143237 0.000805705 0.000358091 8.95228e-05 0 0 4.01446e-05 0.000160578 0.000361301 0.000642313 0.00100361 0.0014452 0.00196708 0.00256925 0.00328994 0.00416737 0.00520155 0.00639248 0.00774015 0.00924457 0.0109057 0.0127237 0.014632 0.0165644 0.0185208 0.0205014 0.022506 0.0245347 0.0265874 0.0286642 0.0306883 0.0325829 0.034348 0.0359837 0.0374898 0.0388664 0.0401135 0.0412311 0.042198 0.042993 0.0436161 0.0440672 0.0443464 0.0444537 0.0443891 0.0441525 0.0437977 0.0433782 0.0428942 0.0423455 0.0417322 0.0410543 0.0403117 0.0395046 0.038726 0.0380692 0.0375342 0.0371209 0.0368294 0.0366597 0.0366117 0.0366855 0.0369394 0.0374319 0.0381629 0.0391324 0.0403404 0.041787 0.0434721 0.0453957 0.0475239 0.049823 0.0522929 0.0549336 0.0577452 0.0607275 0.0638807 0.0672047 0.0705837 0.073902 0.0771595 0.0803562 0.0834922 0.0865674 0.0895819 0.0925356 0.0953068 0.097774 0.0999371 0.101796 0.103351 0.104602 0.105548 0.106191 0.106486 0.10639 0.105903 0.105025 0.103756 0.102096 0.100045 0.0976025 0.0948355 0.0918095 0.0885246 0.0849807 0.0811779 0.0771162 0.0727956 0.068216 0.0635249 0.0588697 0.0542504 0.0496671 0.0451197 0.0406081 0.0361325 0.0316928 0.027438 0.0235171 0.01993 0.0166769 0.0137576 0.0111721 0.00892059 0.00700292 0.00536161 0.00393914 0.00273552 0.00175073 0.000984786 0.000437683 0.000109421 0 0 5.02393e-05 0.000200957 0.000452153 0.000803828 0.00125598 0.00180861 0.00246172 0.00321531 0.00411233 0.00519571 0.00646546 0.00792158 0.00956408 0.0113929 0.0134082 0.0156098 0.0179179 0.0202528 0.0226144 0.0250028 0.0274179 0.0298598 0.0323284 0.0348237 0.0372553 0.039533 0.0416566 0.0436262 0.0454418 0.0471034 0.0486109 0.0499644 0.0511389 0.0521094 0.0528758 0.0534381 0.0537964 0.0539507 0.0539009 0.053647 0.0532521 0.0527792 0.0522281 0.051599 0.0508919 0.0501066 0.0492433 0.048302 0.047392 0.046623 0.0459948 0.0455075 0.0451612 0.0449557 0.0448911 0.0449674 0.0452533 0.0458177 0.0466604 0.0477815 0.049181 0.0508589 0.0528152 0.0550499 0.0575237 0.0601973 0.0630707 0.066144 0.069417 0.0728899 0.0765626 0.0804351 0.084372 0.088238 0.092033 0.0957571 0.0994103 0.102993 0.106504 0.109944 0.113171 0.116042 0.118557 0.120715 0.122518 0.123965 0.125056 0.12579 0.126118 0.125987 0.125397 0.124349 0.122842 0.120877 0.118454 0.115572 0.112308 0.10874 0.104868 0.10069 0.0962082 0.0914216 0.0863303 0.0809344 0.0754058 0.0699166 0.0644666 0.059056 0.0536846 0.0483526 0.0430598 0.0378064 0.0327679 0.02812 0.0238628 0.0199961 0.0165201 0.0134347 0.0107398 0.00843563 0.00645853 0.00474504 0.00329517 0.00210891 0.00118626 0.000527227 0.000131807 0 0 6.17845e-05 0.000247138 0.00055606 0.000988551 0.00154461 0.00222424 0.00302744 0.00395421 0.00505219 0.00636902 0.00790472 0.00965928 0.0116327 0.013825 0.0162361 0.0188661 0.0216202 0.0244035 0.0272162 0.0300582 0.0329295 0.0358301 0.03876 0.0417192 0.0446026 0.0473051 0.0498267 0.0521673 0.054327 0.0563057 0.0581036 0.0597205 0.0611273 0.062295 0.0632234 0.0639126 0.0643626 0.0645734 0.064545 0.0642774 0.0638436 0.0633168 0.062697 0.0619841 0.0611782 0.0602792 0.0592871 0.058202 0.057151 0.056261 0.0555323 0.0549646 0.0545581 0.0543127 0.0542284 0.0543053 0.0546233 0.0552625 0.0562228 0.0575042 0.0591068 0.0610305 0.0632753 0.0658413 0.0686833 0.0717563 0.0750604 0.0785954 0.0823614 0.0863584 0.0905864 0.0950454 0.099579 0.104031 0.108401 0.112688 0.116895 0.121019 0.125061 0.129022 0.132735 0.136037 0.138927 0.141405 0.143471 0.145125 0.146367 0.147197 0.147555 0.147383 0.146679 0.145443 0.143677 0.141379 0.13855 0.13519 0.131387 0.12723 0.122718 0.117853 0.112634 0.10706 0.101132 0.0948503 0.0884126 0.0820172 0.0756642 0.0693536 0.0630853 0.0568595 0.050676 0.0445348 0.0386407 0.0331982 0.0282074 0.0236682 0.0195806 0.0159446 0.0127603 0.0100276 0.00767736 0.00564051 0.00391702 0.00250689 0.00141013 0.000626723 0.000156681 0 0 7.47801e-05 0.00029912 0.000673021 0.00119648 0.0018695 0.00269208 0.00366423 0.00478593 0.00610952 0.00768732 0.00951933 0.0116056 0.013946 0.0165406 0.0193895 0.0224926 0.0257387 0.0290165 0.0323261 0.0356675 0.0390407 0.0424457 0.0458824 0.0493509 0.0527302 0.0558993 0.0588582 0.0616068 0.0641452 0.0664734 0.0685914 0.0704992 0.0721632 0.0735498 0.0746589 0.0754907 0.076045 0.076322 0.0763215 0.0760436 0.0755722 0.0749913 0.0743008 0.0735007 0.0725911 0.0715719 0.0704431 0.0692047 0.0680028 0.0669834 0.0661465 0.0654921 0.0650202 0.0647307 0.0646238 0.0646993 0.0650495 0.0657664 0.0668501 0.0683005 0.0701177 0.0723016 0.0748523 0.0777697 0.0810027 0.0845 0.0882617 0.0922878 0.0965782 0.101133 0.105952 0.111036 0.116205 0.12128 0.126262 0.13115 0.135945 0.140646 0.145254 0.149768 0.154 0.15776 0.161048 0.163864 0.166208 0.168081 0.169482 0.170411 0.170799 0.170578 0.169748 0.168308 0.166259 0.163601 0.160333 0.156456 0.15207 0.147278 0.142077 0.136469 0.130454 0.124031 0.117201 0.109964 0.102545 0.0951716 0.0878432 0.0805599 0.0733217 0.0661287 0.0589809 0.0518781 0.0450564 0.0387517 0.0329639 0.027693 0.022939 0.018702 0.0149819 0.0117787 0.0090181 0.00662554 0.00460107 0.00294469 0.00165639 0.000736172 0.000184043 0 0 8.92263e-05 0.000356905 0.000803036 0.00142762 0.00223066 0.00321215 0.00437209 0.00571048 0.00728432 0.00915058 0.0113093 0.0137604 0.016504 0.01954 0.0228684 0.0264893 0.0302734 0.0340917 0.0379442 0.0418308 0.0457515 0.0497065 0.0536955 0.0577187 0.0616381 0.0653155 0.0687511 0.0719448 0.0748966 0.0776065 0.0800745 0.0823007 0.0842465 0.0858738 0.0871824 0.0881723 0.0888436 0.0891963 0.0892303 0.0889457 0.0884379 0.0878025 0.0870395 0.0861489 0.0851306 0.0839847 0.0827112 0.0813101 0.0799476 0.0787901 0.0778376 0.07709 0.0765474 0.0762098 0.0760771 0.0761494 0.0765318 0.0773294 0.0785423 0.0801704 0.0822137 0.0846723 0.0875461 0.0908352 0.0944819 0.0984284 0.102675 0.107221 0.112068 0.117214 0.12266 0.128406 0.134249 0.139986 0.145617 0.151142 0.156562 0.161875 0.167083 0.172184 0.176965 0.18121 0.184919 0.188093 0.190731 0.192834 0.194401 0.195432 0.195849 0.195573 0.194605 0.192943 0.190589 0.187542 0.183803 0.17937 0.174359 0.168884 0.162944 0.156539 0.14967 0.142336 0.134538 0.126275 0.117804 0.10938 0.101004 0.0926749 0.0843939 0.0761604 0.0679746 0.0598363 0.0520151 0.0447804 0.0381322 0.0320705 0.0265954 0.0217068 0.0174047 0.0136892 0.0104808 0.00770015 0.00534733 0.00342229 0.00192504 0.000855573 0.000213893 0 0 0.000105107 0.000420428 0.000945964 0.00168171 0.00262768 0.00378385 0.00515025 0.00672685 0.00857518 0.0107567 0.0132715 0.0161195 0.0193007 0.0228152 0.0266628 0.0308437 0.0352093 0.0396112 0.0440493 0.0485237 0.0530343 0.0575811 0.0621642 0.0667835 0.0712832 0.0755072 0.0794556 0.0831284 0.0865256 0.0896472 0.0924931 0.0950635 0.0973147 0.0992035 0.10073 0.101894 0.102695 0.103134 0.10321 0.102924 0.102383 0.101694 0.100858 0.0998747 0.0987439 0.0974656 0.09604 0.094467 0.0929339 0.0916283 0.0905501 0.0896994 0.089076 0.0886801 0.0885116 0.0885705 0.0889757 0.0898459 0.0911812 0.0929815 0.0952469 0.0979773 0.101173 0.104833 0.108895 0.113293 0.118028 0.1231 0.128508 0.134254 0.140336 0.146755 0.153283 0.159693 0.165984 0.172157 0.178212 0.184149 0.189967 0.195667 0.201007 0.205746 0.209883 0.21342 0.216355 0.218689 0.220422 0.221554 0.221995 0.221658 0.220543 0.218648 0.215974 0.212522 0.208291 0.203281 0.19762 0.191435 0.184726 0.177494 0.169737 0.161457 0.152652 0.143324 0.133759 0.124243 0.114777 0.10536 0.095992 0.0866739 0.0774052 0.0681861 0.0593209 0.0511143 0.0435662 0.0366767 0.0304457 0.0248733 0.0199595 0.0157041 0.0120235 0.00883358 0.00613443 0.00392603 0.00220839 0.000981509 0.000245377 0 0 0.000122407 0.000489627 0.00110166 0.00195851 0.00306017 0.00440665 0.00599793 0.00783404 0.00998069 0.0125036 0.0154029 0.0186784 0.0223303 0.0263584 0.0307628 0.0355435 0.0405313 0.045557 0.0506205 0.0557219 0.0608612 0.0660383 0.0712534 0.0765063 0.0816225 0.0864278 0.0909219 0.0951049 0.0989769 0.102538 0.105788 0.108726 0.111305 0.113476 0.115237 0.116591 0.117535 0.118071 0.118199 0.117918 0.117348 0.116609 0.115701 0.114624 0.113378 0.111963 0.110378 0.108624 0.10691 0.105445 0.104229 0.103261 0.102542 0.102072 0.101851 0.101878 0.102287 0.10321 0.104649 0.106602 0.109069 0.112051 0.115548 0.11956 0.124016 0.128846 0.13405 0.139628 0.14558 0.151906 0.158607 0.165682 0.172878 0.179945 0.186881 0.193688 0.200365 0.206911 0.213328 0.219614 0.225503 0.230725 0.235281 0.239171 0.242395 0.244953 0.246844 0.24807 0.24853 0.248125 0.246856 0.244721 0.241722 0.237859 0.23313 0.227537 0.22122 0.214318 0.206834 0.198765 0.190112 0.180876 0.171056 0.160653 0.149982 0.139363 0.128793 0.118275 0.107806 0.0973884 0.0870211 0.0767043 0.0667783 0.0575835 0.0491198 0.0413873 0.034386 0.0281158 0.0225768 0.017769 0.0136044 0.00999506 0.00694101 0.00444225 0.00249876 0.00111056 0.00027764 0 0 0.000141125 0.000564502 0.00127013 0.00225801 0.00352814 0.00508052 0.00691515 0.00903203 0.0115009 0.0143913 0.0177034 0.0214372 0.0255926 0.0301696 0.0351683 0.0405886 0.0462393 0.051929 0.0576577 0.0634254 0.0692322 0.0750781 0.080963 0.0868869 0.0926562 0.0980772 0.10315 0.107874 0.11225 0.116278 0.119958 0.123289 0.126218 0.12869 0.130705 0.132263 0.133365 0.13401 0.134198 0.133929 0.133335 0.132549 0.13157 0.130398 0.129033 0.127475 0.125725 0.123782 0.121877 0.120241 0.118874 0.117775 0.116946 0.116385 0.116094 0.116071 0.116465 0.117423 0.118945 0.121031 0.12368 0.126894 0.130672 0.135014 0.139844 0.145086 0.150739 0.156805 0.163282 0.170172 0.177473 0.185186 0.193034 0.200742 0.208308 0.215734 0.223018 0.230162 0.237165 0.244026 0.250452 0.256148 0.261113 0.265347 0.268851 0.271624 0.273667 0.27498 0.275452 0.274973 0.273543 0.271163 0.267833 0.263552 0.25832 0.252137 0.245158 0.237533 0.229265 0.220353 0.210796 0.200595 0.18975 0.17826 0.166474 0.154739 0.143054 0.13142 0.119837 0.108304 0.0968221 0.0853909 0.0743872 0.0641879 0.054793 0.0462024 0.0384162 0.0314343 0.0252568 0.0198837 0.0152235 0.0111846 0.00776708 0.00497093 0.00279615 0.00124273 0.000310683 0 0 0.000161263 0.000645052 0.00145137 0.00258021 0.00403158 0.00580547 0.00790189 0.0103208 0.0131357 0.0164198 0.0201732 0.0243958 0.0290877 0.0342489 0.0398793 0.045979 0.0523332 0.0587272 0.0651609 0.0716343 0.0781475 0.0847004 0.091293 0.0979254 0.104384 0.110455 0.11614 0.121437 0.126346 0.130869 0.135004 0.138752 0.142053 0.144846 0.147133 0.148912 0.150184 0.150948 0.151205 0.150956 0.150343 0.149512 0.148462 0.147195 0.145709 0.144004 0.142081 0.13994 0.137834 0.136015 0.134484 0.133242 0.132287 0.13162 0.131242 0.131151 0.13151 0.132483 0.134069 0.136268 0.139081 0.142506 0.146545 0.151197 0.15638 0.162014 0.168098 0.174631 0.181615 0.189049 0.196933 0.205268 0.213751 0.222084 0.230265 0.238295 0.246174 0.253902 0.261478 0.268904 0.275856 0.282014 0.287378 0.291948 0.295723 0.298705 0.300891 0.302284 0.302761 0.302202 0.300606 0.297974 0.294306 0.289601 0.28386 0.277082 0.269434 0.26108 0.252021 0.242257 0.231787 0.220613 0.208732 0.196147 0.183234 0.170371 0.157559 0.144796 0.132083 0.119421 0.106808 0.094246 0.0821477 0.0709276 0.0605857 0.0511219 0.0425363 0.0348288 0.0279995 0.0220483 0.0168807 0.0124022 0.00861262 0.00551208 0.00310054 0.00137802 0.000344505 0 0 0.00018282 0.000731278 0.00164538 0.00292511 0.00457049 0.0065815 0.00895816 0.0117004 0.0148851 0.018589 0.0228121 0.0275543 0.0328156 0.0385962 0.0448959 0.0517148 0.0588133 0.0659517 0.0731301 0.0803485 0.0876069 0.0949052 0.102244 0.109622 0.116806 0.123563 0.129891 0.135792 0.141264 0.146309 0.150926 0.155115 0.15881 0.161945 0.16452 0.166536 0.167991 0.168887 0.169223 0.168999 0.168372 0.167499 0.16638 0.165016 0.163405 0.161549 0.159447 0.157098 0.15478 0.152768 0.151061 0.149661 0.148566 0.147777 0.147294 0.147116 0.147423 0.148392 0.150022 0.152315 0.15527 0.158887 0.163166 0.168108 0.173624 0.17963 0.186124 0.193107 0.200579 0.208539 0.216989 0.225927 0.235029 0.243971 0.252752 0.261372 0.269831 0.27813 0.286268 0.294246 0.301714 0.308325 0.314078 0.318974 0.323012 0.326193 0.328516 0.329982 0.330458 0.329813 0.328044 0.325154 0.321142 0.316007 0.309751 0.302372 0.294049 0.284959 0.275102 0.264478 0.253087 0.240929 0.228005 0.214313 0.200262 0.18626 0.172307 0.158402 0.144546 0.130739 0.11698 0.103269 0.0900598 0.0778026 0.066498 0.0561459 0.0467463 0.0382993 0.0308048 0.0242628 0.0185762 0.0136478 0.00947765 0.0060657 0.00341196 0.00151642 0.000379106 0 0 0.000205795 0.00082318 0.00185215 0.00329272 0.00514487 0.00740862 0.010084 0.0131709 0.0167493 0.020899 0.0256201 0.0309126 0.0367764 0.0432115 0.050218 0.0577959 0.0656793 0.0736024 0.0815654 0.089568 0.0976104 0.105693 0.113814 0.121976 0.129923 0.137399 0.144404 0.15094 0.157005 0.162599 0.167724 0.172378 0.176489 0.179986 0.182868 0.185136 0.186788 0.187826 0.188249 0.188058 0.187422 0.18651 0.185323 0.18386 0.182123 0.180109 0.177821 0.175257 0.172717 0.1705 0.168605 0.167032 0.165782 0.164855 0.16425 0.163968 0.164203 0.165148 0.166804 0.169171 0.172249 0.176037 0.180537 0.185747 0.191576 0.197933 0.204819 0.212232 0.220173 0.228642 0.237639 0.247164 0.256868 0.266403 0.275768 0.284964 0.29399 0.302847 0.311535 0.320052 0.328025 0.335078 0.341211 0.346424 0.350717 0.35409 0.356542 0.358075 0.358543 0.357804 0.355857 0.352703 0.34834 0.34277 0.335992 0.328006 0.319002 0.309169 0.298506 0.287015 0.274694 0.261545 0.247566 0.232758 0.217559 0.202406 0.187299 0.172239 0.157225 0.142258 0.127336 0.112461 0.0981234 0.0848128 0.0725298 0.0612743 0.0510462 0.0418457 0.0336727 0.0265271 0.0203098 0.0149215 0.0103622 0.00663179 0.00373038 0.00165795 0.000414487 0 0 0.000230189 0.000920757 0.0020717 0.00368303 0.00575473 0.00828681 0.0112793 0.0147321 0.018728 0.0233498 0.0285973 0.0344707 0.0409699 0.0480949 0.0558457 0.0642223 0.0729313 0.0816795 0.0904666 0.0992929 0.108158 0.117062 0.126006 0.134988 0.143733 0.151963 0.159679 0.16688 0.173567 0.17974 0.185397 0.190541 0.195091 0.198969 0.202176 0.204711 0.206574 0.207766 0.208286 0.208134 0.207493 0.206545 0.20529 0.203729 0.201861 0.199686 0.197205 0.194416 0.191644 0.18921 0.187114 0.185356 0.183936 0.182855 0.182111 0.181706 0.18185 0.182752 0.184414 0.186836 0.190016 0.193956 0.198655 0.204114 0.210236 0.216925 0.224182 0.232006 0.240398 0.249358 0.258884 0.268979 0.279268 0.28938 0.299315 0.309072 0.318651 0.328053 0.337277 0.346324 0.354791 0.362276 0.368779 0.374299 0.378838 0.382394 0.384969 0.386561 0.387016 0.386177 0.384045 0.38062 0.375901 0.369889 0.362584 0.353985 0.344294 0.333711 0.322236 0.309869 0.29661 0.282459 0.267417 0.251482 0.235123 0.218808 0.202536 0.186306 0.17012 0.153978 0.137878 0.121822 0.10