<?xml version="1.0"?> 
<VTKFile type="StructuredGrid" version="0.1"> 
<StructuredGrid WholeExtent="0 128 0 128 0 0"> 
<Piece Extent="0 128 0 128 0 0"> 
<PointData>
<DataArray type="Float32" Name="u" format="ascii" NumberOfComponents="1"> 
0 0 0 0 0 0 0 0 0 0 0 0 0 0 0 0 0 0 0 0 0 0 0 0 0 0 0 0 0 0 0 0 0 0 0 0 0 0 0 0 0 0 0 0 0 0 0 0 0 0 0 0 0 0 0 0 0 0 0 0 0 0 0 0 0 0 0 0 0 0 0 0 0 0 0 0 0 0 0 0 0 0 0 0 0 0 0 0 0 0 0 0 0 0 0 0 0 0 0 0 0 0 0 0 0 0 0 0 0 0 0 0 0 0 0 0 0 0 0 0 0 0 0 0 0 0 0 0 0 0 1.70674e-07 6.82695e-07 1.53606e-06 2.73078e-06 4.26685e-06 6.14426e-06 8.36302e-06 1.09231e-05 1.41601e-05 1.84095e-05 2.36713e-05 2.99455e-05 3.72322e-05 4.55312e-05 5.48427e-05 6.51665e-05 7.61368e-05 8.73875e-05 9.89187e-05 0.00011073 0.000122822 0.000135195 0.000147848 0.000160781 0.000173433 0.000185241 0.000196206 0.000206328 0.000215605 0.00022404 0.000231631 0.000238378 0.000244082 0.000248544 0.000251764 0.000253742 0.000254477 0.000253969 0.00025222 0.000249228 0.000245379 0.00024106 0.00023627 0.000231009 0.000225278 0.000219076 0.000212403 0.000205259 0.000198378 0.000192492 0.000187603 0.00018371 0.000180812 0.00017891 0.000178005 0.000178095 0.000179655 0.00018316 0.00018861 0.000196004 0.000205342 0.000216625 0.000229853 0.000245025 0.000261866 0.000280099 0.000299725 0.000320743 0.000343155 0.000366959 0.000392155 0.000418745 0.000445788 0.000472347 0.000498421 0.00052401 0.000549114 0.000573734 0.000597869 0.000621519 0.000643733 0.000663559 0.000680997 0.000696047 0.000708709 0.000718983 0.000726869 0.000732367 0.000735197 0.000735079 0.000732013 0.000725999 0.000717038 0.000705128 0.000690271 0.000672466 0.000652291 0.000630322 0.00060656 0.000581005 0.000553656 0.000524515 0.00049358 0.000460853 0.000427452 0.000394501 0.000361998 0.000329943 0.000298337 0.000267179 0.00023647 0.00020621 0.000177378 0.000150957 0.000126945 0.000105343 8.61505e-05 6.9368e-05 5.49952e-05 4.30323e-05 3.29466e-05 2.42057e-05 1.68095e-05 1.07581e-05 6.05141e-06 2.68952e-06 6.72379e-07 0 0 6.82695e-07 2.73078e-06 6.14426e-06 1.09231e-05 1.70674e-05 2.4577e-05 3.34521e-05 4.36925e-05 5.66405e-05 7.36381e-05 9.46853e-05 0.000119782 0.000148929 0.000182125 0.000219371 0.000260666 0.000304547 0.00034955 0.000395675 0.000442921 0.00049129 0.00054078 0.000591391 0.000643125 0.000693732 0.000740966 0.000784825 0.00082531 0.000862422 0.000896159 0.000926522 0.000953512 0.000976329 0.000994178 0.00100706 0.00101497 0.00101791 0.00101588 0.00100888 0.000996912 0.000981518 0.000964241 0.000945081 0.000924038 0.000901112 0.000876303 0.000849611 0.000821036 0.000793511 0.00076997 0.000750412 0.000734838 0.000723248 0.000715642 0.000712019 0.00071238 0.000718622 0.000732642 0.000754439 0.000784015 0.000821369 0.000866501 0.000919411 0.0009801 0.00104746 0.0011204 0.0011989 0.00128297 0.00137262 0.00146784 0.00156862 0.00167498 0.00178315 0.00188939 0.00199368 0.00209604 0.00219646 0.00229494 0.00239148 0.00248608 0.00257493 0.00265424 0.00272399 0.00278419 0.00283484 0.00287593 0.00290747 0.00292947 0.00294079 0.00294031 0.00292805 0.002904 0.00286815 0.00282051 0.00276108 0.00268986 0.00260916 0.00252129 0.00242624 0.00232402 0.00221463 0.00209806 0.00197432 0.00184341 0.00170981 0.001578 0.00144799 0.00131977 0.00119335 0.00106872 0.000945882 0.000824839 0.000709514 0.000603827 0.00050778 0.000421371 0.000344602 0.000277472 0.000219981 0.000172129 0.000131786 9.68226e-05 6.72379e-05 4.30323e-05 2.42057e-05 1.07581e-05 2.68952e-06 0 0 1.53606e-06 6.14426e-06 1.38246e-05 2.4577e-05 3.84016e-05 5.52983e-05 7.52672e-05 9.83081e-05 0.000127441 0.000165686 0.000213042 0.00026951 0.00033509 0.000409781 0.000493584 0.000586499 0.000685231 0.000786488 0.000890268 0.000996573 0.0011054 0.00121675 0.00133063 0.00144703 0.0015609 0.00166717 0.00176586 0.00185695 0.00194045 0.00201636 0.00208468 0.0021454 0.00219674 0.0022369 0.00226588 0.00228367 0.00229029 0.00228572 0.00226998 0.00224305 0.00220841 0.00216954 0.00212643 0.00207909 0.0020275 0.00197168 0.00191162 0.00184733 0.0017854 0.00173243 0.00168843 0.00165339 0.00162731 0.00161019 0.00160204 0.00160286 0.0016169 0.00164844 0.00169749 0.00176403 0.00184808 0.00194963 0.00206868 0.00220522 0.00235679 0.00252089 0.00269752 0.00288669 0.00308839 0.00330263 0.0035294 0.0037687 0.00401209 0.00425112 0.00448579 0.00471609 0.00494203 0.00516361 0.00538082 0.00559367 0.0057936 0.00597203 0.00612897 0.00626442 0.00637838 0.00647084 0.00654182 0.0065913 0.00661677 0.00661571 0.00658812 0.00653399 0.00645334 0.00634616 0.00621244 0.0060522 0.00587061 0.0056729 0.00545904 0.00522904 0.00498291 0.00472063 0.00444222 0.00414767 0.00384707 0.00355051 0.00325798 0.00296949 0.00268503 0.00240462 0.00212823 0.00185589 0.00159641 0.00135861 0.0011425 0.000948085 0.000775355 0.000624312 0.000494957 0.00038729 0.000296519 0.000217851 0.000151285 9.68226e-05 5.44627e-05 2.42057e-05 6.05141e-06 0 0 2.73078e-06 1.09231e-05 2.4577e-05 4.36925e-05 6.82695e-05 9.83081e-05 0.000133808 0.00017477 0.000226562 0.000294552 0.000378741 0.000479129 0.000595715 0.000728499 0.000877483 0.00104266 0.00121819 0.0013982 0.0015827 0.00177169 0.00196516 0.00216312 0.00236557 0.0025725 0.00277493 0.00296386 0.0031393 0.00330124 0.00344969 0.00358464 0.00370609 0.00381405 0.00390532 0.00397671 0.00402823 0.00405986 0.00407163 0.00406351 0.00403552 0.00398765 0.00392607 0.00385696 0.00378032 0.00369615 0.00360445 0.00350521 0.00339844 0.00328414 0.00317404 0.00307988 0.00300165 0.00293935 0.00289299 0.00286257 0.00284808 0.00284952 0.00287449 0.00293057 0.00301776 0.00313606 0.00328548 0.00346601 0.00367765 0.0039204 0.00418985 0.00448158 0.0047956 0.0051319 0.00549048 0.00587134 0.00627449 0.00669992 0.00713261 0.00755755 0.00797473 0.00838416 0.00878583 0.00917974 0.0095659 0.00994431 0.0102997 0.0106169 0.010896 0.0111367 0.0113393 0.0115037 0.0116299 0.0117179 0.0117631 0.0117613 0.0117122 0.011616 0.0114726 0.0112821 0.0110443 0.0107595 0.0104366 0.0100851 0.00970496 0.00929607 0.0088585 0.00839224 0.00789729 0.00737364 0.00683924 0.00631201 0.00579196 0.00527909 0.00477339 0.00427487 0.00378353 0.00329936 0.00283805 0.00241531 0.00203112 0.00168548 0.00137841 0.00110989 0.000879924 0.000688516 0.000527145 0.00038729 0.000268952 0.000172129 9.68226e-05 4.30323e-05 1.07581e-05 0 0 4.26685e-06 1.70674e-05 3.84016e-05 6.82695e-05 0.000106671 0.000153606 0.000209075 0.000273078 0.000354003 0.000460238 0.000591783 0.000748639 0.000930804 0.00113828 0.00137107 0.00162916 0.00190342 0.00218469 0.00247297 0.00276826 0.00307056 0.00337987 0.0036962 0.00401953 0.00433583 0.00463104 0.00490516 0.00515819 0.00539014 0.00560099 0.00579076 0.00595945 0.00610206 0.00621361 0.0062941 0.00634354 0.00636192 0.00634923 0.00630549 0.0062307 0.00613449 0.00602651 0.00590676 0.00577524 0.00563195 0.00547689 0.00531007 0.00513147 0.00495944 0.00481231 0.00469008 0.00459274 0.0045203 0.00447276 0.00445012 0.00445238 0.00449139 0.00457901 0.00471525 0.0049001 0.00513356 0.00541563 0.00574632 0.00612562 0.00654664 0.00700247 0.00749312 0.00801859 0.00857887 0.00917397 0.00980389 0.0104686 0.0111447 0.0118087 0.0124605 0.0131002 0.0137279 0.0143433 0.0149467 0.015538 0.0160933 0.016589 0.0170249 0.0174012 0.0177177 0.0179746 0.0181717 0.0183092 0.0183799 0.018377 0.0183003 0.01815 0.0179259 0.0176282 0.0172568 0.0168117 0.0163073 0.015758 0.015164 0.0145251 0.0138414 0.0131129 0.0123395 0.0115213 0.0106863 0.00986252 0.00904994 0.00824858 0.00745843 0.00667949 0.00591176 0.00515525 0.00443446 0.00377392 0.00317362 0.00263357 0.00215376 0.0017342 0.00137488 0.00107581 0.000823665 0.000605141 0.000420237 0.000268952 0.000151285 6.72379e-05 1.68095e-05 0 0 6.14426e-06 2.4577e-05 5.52983e-05 9.83081e-05 0.000153606 0.000221193 0.000301069 0.000393233 0.000509764 0.000662742 0.000852168 0.00107804 0.00134036 0.00163912 0.00197434 0.00234599 0.00274093 0.00314595 0.00356107 0.00398629 0.00442161 0.00486702 0.00532252 0.00578812 0.00624359 0.00666869 0.00706343 0.00742779 0.0077618 0.00806543 0.0083387 0.0085816 0.00878696 0.0089476 0.00906351 0.0091347 0.00916116 0.0091429 0.00907991 0.0089722 0.00883366 0.00867817 0.00850573 0.00831634 0.00811001 0.00788673 0.0076465 0.00738932 0.0071416 0.00692973 0.00675371 0.00661355 0.00650924 0.00644078 0.00640817 0.00641142 0.0064676 0.00659377 0.00678995 0.00705614 0.00739232 0.00779851 0.0082747 0.0088209 0.00942716 0.0100836 0.0107901 0.0115468 0.0123536 0.0132105 0.0141176 0.0150748 0.0160484 0.0170045 0.0179431 0.0188644 0.0197681 0.0206544 0.0215233 0.0223747 0.0231744 0.0238881 0.0245159 0.0250577 0.0255135 0.0258834 0.0261673 0.0263652 0.0264671 0.0264628 0.0263525 0.026136 0.0258134 0.0253846 0.0248498 0.0242088 0.0234825 0.0226916 0.0218362 0.0209162 0.0199316 0.0188825 0.0177689 0.0165907 0.0153883 0.014202 0.0130319 0.011878 0.0107401 0.00961846 0.00851294 0.00742355 0.00638562 0.00543444 0.00457002 0.00379234 0.00310142 0.00249725 0.00197983 0.00154916 0.00118608 0.000871404 0.000605141 0.00038729 0.000217851 9.68226e-05 2.42057e-05 0 0 8.36302e-06 3.34521e-05 7.52672e-05 0.000133808 0.000209075 0.000301069 0.000409788 0.000535233 0.000693846 0.000902066 0.00115989 0.00146733 0.00182438 0.00223103 0.00268729 0.00319316 0.0037307 0.00428199 0.00484702 0.00542579 0.0060183 0.00662455 0.00724454 0.00787828 0.00849822 0.00907683 0.00961411 0.0101101 0.0105647 0.0109779 0.0113499 0.0116805 0.01196 0.0121787 0.0123364 0.0124333 0.0124694 0.0124445 0.0123588 0.0122122 0.0120236 0.011812 0.0115772 0.0113195 0.0110386 0.0107347 0.0104077 0.0100577 0.00972051 0.00943213 0.00919255 0.00900177 0.00885979 0.00876661 0.00872223 0.00872666 0.00880312 0.00897486 0.00924188 0.00960419 0.0100618 0.0106146 0.0112628 0.0120062 0.0128314 0.0137248 0.0146865 0.0157164 0.0168146 0.017981 0.0192156 0.0205185 0.0218436 0.023145 0.0244226 0.0256765 0.0269066 0.028113 0.0292956 0.0304544 0.0315429 0.0325144 0.0333689 0.0341063 0.0347267 0.0352302 0.0356166 0.035886 0.0360246 0.0360189 0.0358686 0.035574 0.0351349 0.0345513 0.0338233 0.0329508 0.0319622 0.0308858 0.0297214 0.0284692 0.0271292 0.0257012 0.0241854 0.0225818 0.0209452 0.0193305 0.0177379 0.0161672 0.0146185 0.0130918 0.0115871 0.0101043 0.00869154 0.00739688 0.0062203 0.0051618 0.00422137 0.00339903 0.00269477 0.00210858 0.00161438 0.00118608 0.000823665 0.000527145 0.000296519 0.000131786 3.29466e-05 0 0 1.09231e-05 4.36925e-05 9.83081e-05 0.00017477 0.000273078 0.000393233 0.000535233 0.00069908 0.000906247 0.00117821 0.00151496 0.00191651 0.00238286 0.002914 0.00350993 0.00417066 0.00487276 0.0055928 0.0063308 0.00708674 0.00786063 0.00865247 0.00946226 0.01029 0.0110997 0.0118555 0.0125572 0.013205 0.0137987 0.0143385 0.0148244 0.0152562 0.0156213 0.0159068 0.0161129 0.0162395 0.0162865 0.016254 0.0161421 0.0159506 0.0157043 0.0154279 0.0151213 0.0147846 0.0144178 0.0140208 0.0135938 0.0131366 0.0126962 0.0123195 0.0120066 0.0117574 0.011572 0.0114503 0.0113923 0.0113981 0.0114979 0.0117223 0.012071 0.0125442 0.0131419 0.013864 0.0147106 0.0156816 0.0167594 0.0179263 0.0191824 0.0205276 0.0219619 0.0234854 0.025098 0.0267997 0.0285304 0.0302302 0.0318989 0.0335366 0.0351433 0.036719 0.0382636 0.0397772 0.0411989 0.0424678 0.0435838 0.044547 0.0453574 0.0460149 0.0465196 0.0468715 0.0470526 0.047045 0.0468488 0.046464 0.0458904 0.0451282 0.0441774 0.0430378 0.0417466 0.0403406 0.0388198 0.0371843 0.035434 0.033569 0.0315891 0.0294946 0.027357 0.0252481 0.0231679 0.0211164 0.0190936 0.0170995 0.0151341 0.0131974 0.0113522 0.00966123 0.00812447 0.00674194 0.00551363 0.00443955 0.0035197 0.00275407 0.00210858 0.00154916 0.00107581 0.000688516 0.00038729 0.000172129 4.30323e-05 0 0 1.43795e-05 5.7518e-05 0.000129415 0.000230072 0.000359487 0.000517662 0.000704595 0.000920288 0.00119161 0.00154542 0.00198173 0.00250054 0.00310184 0.00378564 0.00455193 0.00540072 0.00630197 0.00722566 0.00817177 0.00914032 0.0101313 0.0111447 0.0121805 0.0132388 0.0142739 0.0152403 0.016138 0.0169669 0.017727 0.0184185 0.0190412 0.0195951 0.0200642 0.0204322 0.0206991 0.020865 0.0209298 0.0208935 0.0207562 0.0205178 0.0202096 0.0198628 0.0194776 0.0190538 0.0185914 0.0180906 0.0175511 0.0169732 0.0164162 0.0159394 0.015543 0.0152269 0.0149911 0.0148357 0.0147605 0.0147657 0.0148897 0.0151709 0.0156093 0.016205 0.016958 0.0178681 0.0189356 0.0201603 0.0215199 0.0229923 0.0245774 0.0262752 0.0280858 0.030009 0.032045 0.0341937 0.0363791 0.0385254 0.0406325 0.0427005 0.0447293 0.046719 0.0486695 0.0505808 0.0523759 0.0539778 0.0553864 0.0566018 0.0576239 0.0584528 0.0590884 0.0595308 0.0597571 0.0597448 0.0594937 0.0590039 0.0582754 0.0573081 0.0561021 0.0546574 0.0530206 0.0512383 0.0493106 0.0472374 0.0450188 0.0426547 0.0401452 0.0374902 0.0347804 0.0321064 0.0294681 0.0268657 0.024299 0.0217681 0.0192731 0.0168138 0.0144699 0.012321 0.0103673 0.00860853 0.00704484 0.0056762 0.00450261 0.00352407 0.00269812 0.00198229 0.00137659 0.000881017 0.000495572 0.000220254 5.50636e-05 0 0 1.9287e-05 7.71481e-05 0.000173583 0.000308593 0.000482176 0.000694333 0.000945065 0.00123437 0.00159456 0.00205796 0.00262456 0.00329436 0.00406736 0.00494357 0.00592297 0.00700558 0.00815325 0.00932782 0.0105293 0.0117577 0.013013 0.0142952 0.0156043 0.0169403 0.0182468 0.0194672 0.0206017 0.0216501 0.0226126 0.023489 0.0242795 0.0249839 0.0255824 0.0260548 0.0264013 0.0266218 0.0267164 0.0266849 0.0265275 0.0262441 0.0258733 0.0254539 0.0249858 0.024469 0.0239035 0.0232893 0.0226264 0.0219148 0.021228 0.0206394 0.0201489 0.0197567 0.0194626 0.0192667 0.019169 0.0191695 0.0193158 0.0196555 0.0201886 0.0209152 0.0218351 0.0229485 0.0242553 0.0257555 0.0274219 0.0292272 0.0311713 0.0332544 0.0354764 0.0378373 0.0403371 0.0429758 0.0456599 0.0482959 0.0508839 0.0534238 0.0559157 0.0583595 0.0607552 0.0631028 0.0653074 0.0672739 0.0690023 0.0704926 0.0717448 0.0727589 0.073535 0.0740729 0.0743445 0.0743215 0.0740039 0.0733918 0.072485 0.0712836 0.0697876 0.0679971 0.0659691 0.0637611 0.0613729 0.0588045 0.0560561 0.0531275 0.0500187 0.0467298 0.0433722 0.0400573 0.036785 0.0335555 0.0303686 0.0272244 0.0241229 0.021064 0.0181468 0.0154699 0.0130334 0.0108373 0.00888165 0.00716638 0.00569151 0.00445705 0.00341243 0.00250709 0.00174103 0.00111426 0.000626773 0.000278566 6.96414e-05 0 0 2.56458e-05 0.000102583 0.000230812 0.000410332 0.000641144 0.000923247 0.00125664 0.00164133 0.00211512 0.00271582 0.00344344 0.00429797 0.00527942 0.00638778 0.00762306 0.00898525 0.0104266 0.0118993 0.0134034 0.0149388 0.0165057 0.0181039 0.0197335 0.0213944 0.0230182 0.0245361 0.0259483 0.0272547 0.0284553 0.0295502 0.0305392 0.0314225 0.0321757 0.0327747 0.0332195 0.03351 0.0336462 0.0336282 0.033456 0.0331295 0.0326955 0.032201 0.0316459 0.0310302 0.0303539 0.029617 0.0288195 0.0279614 0.0271317 0.0264193 0.0258243 0.0253467 0.0249864 0.0247434 0.0246178 0.0246095 0.0247764 0.0251762 0.025809 0.0266748 0.0277735 0.0291051 0.0306698 0.0324673 0.0344652 0.0366308 0.0389641 0.0414651 0.0441338 0.0469702 0.0499742 0.053146 0.0563728 0.0595418 0.062653 0.0657066 0.0687024 0.0716405 0.0745208 0.0773434 0.0799934 0.0823561 0.0844314 0.0862194 0.0877201 0.0889334 0.0898593 0.0904979 0.0908147 0.0907752 0.0903795 0.0896275 0.0885193 0.0870548 0.085234 0.0830569 0.0805924 0.077909 0.0750068 0.0718857 0.0685459 0.0649872 0.0612097 0.0572134 0.0531324 0.0491008 0.0451185 0.0411857 0.0373023 0.0334682 0.0296835 0.0259483 0.0223829 0.0191077 0.0161229 0.0134283 0.0110241 0.00891008 0.0070864 0.005553 0.00425152 0.00312356 0.00216914 0.00138825 0.000780891 0.000347063 8.67657e-05 0 0 3.34556e-05 0.000133823 0.000301101 0.00053529 0.000836391 0.0012044 0.00163933 0.00214116 0.00275327 0.00351901 0.00443838 0.00551138 0.00673801 0.00811828 0.00965218 0.0113397 0.013122 0.0149401 0.016794 0.0186838 0.0206094 0.0225708 0.0245681 0.0266012 0.0285882 0.0304471 0.0321779 0.0337807 0.0352553 0.0366019 0.0378204 0.0389109 0.0398443 0.0405919 0.0411536 0.0415294 0.0417194 0.0417234 0.0415416 0.0411739 0.0406762 0.0401042 0.0394579 0.0387374 0.0379427 0.0370737 0.0361305 0.035113 0.0341273 0.0332794 0.0325693 0.031997 0.0315624 0.0312657 0.0311068 0.0310857 0.0312714 0.031733 0.0324705 0.0334838 0.034773 0.036338 0.0381789 0.0402957 0.04265 0.0452033 0.0479558 0.0509073 0.0540579 0.0574076 0.0609565 0.0647044 0.0685177 0.0722629 0.0759399 0.0795488 0.0830895 0.0865619 0.0899663 0.0933024 0.0964339 0.0992244 0.101674 0.103782 0.10555 0.106976 0.108061 0.108806 0.109168 0.109106 0.10862 0.107711 0.106378 0.104622 0.102441 0.099837 0.0968902 0.093682 0.0902122 0.086481 0.0824882 0.078234 0.0737182 0.068941 0.064061 0.0592369 0.0544687 0.0497564 0.0451 0.0404996 0.0359551 0.0314665 0.0271782 0.0232346 0.0196357 0.0163815 0.0134721 0.0109073 0.00868727 0.00681193 0.00521539 0.00383171 0.00266091 0.00170298 0.000957928 0.000425746 0.000106436 0 0 4.27167e-05 0.000170867 0.00038445 0.000683467 0.00106792 0.0015378 0.00209312 0.00273387 0.00350901 0.00446751 0.00560937 0.00693458 0.00844314 0.0101351 0.0120103 0.014069 0.0162394 0.0184502 0.0207012 0.0229925 0.0253241 0.027696 0.0301081 0.0325606 0.0349568 0.0372 0.0392904 0.0412279 0.0430126 0.0446443 0.0461231 0.0474491 0.0485882 0.0495064 0.0502037 0.0506802 0.0509359 0.0509706 0.0507845 0.0503775 0.0498153 0.0491634 0.0484219 0.0475907 0.0466699 0.0456594 0.0445593 0.0433695 0.0422147 0.0412194 0.0403837 0.0397075 0.0391908 0.0388337 0.0386361 0.0385981 0.0388009 0.0393259 0.0401729 0.0413422 0.0428336 0.0446471 0.0467828 0.0492406 0.0519761 0.0549446 0.0581463 0.061581 0.0652488 0.0691497 0.0732838 0.0776509 0.0820948 0.0864594 0.0907446 0.0949504 0.0990769 0.103124 0.107092 0.11098 0.114629 0.117879 0.12073 0.123181 0.125234 0.126887 0.128141 0.128997 0.129404 0.129314 0.128727 0.127643 0.126062 0.123984 0.121409 0.118337 0.114863 0.11108 0.106989 0.10259 0.0978831 0.0928678 0.0875442 0.0819126 0.0761579 0.0704656 0.0648354 0.0592676 0.0537619 0.0483186 0.0429375 0.0376186 0.0325327 0.0278505 0.0235719 0.0196969 0.0162257 0.0131581 0.0104941 0.00823384 0.00630403 0.00463153 0.00321634 0.00205846 0.00115788 0.000514615 0.000128654 0 0 5.34289e-05 0.000213716 0.00048086 0.000854863 0.00133572 0.00192344 0.00261802 0.00341945 0.00438236 0.00556134 0.00695642 0.00856757 0.0103948 0.0124381 0.0146975 0.017173 0.0197789 0.0224296 0.0251249 0.027865 0.0306498 0.0334794 0.0363537 0.0392727 0.042124 0.044795 0.0472859 0.0495965 0.051727 0.0536772 0.0554473 0.0570371 0.0584072 0.0595182 0.0603699 0.0609623 0.0612956 0.0613697 0.0611845 0.0607402 0.0601128 0.0593787 0.0585377 0.05759 0.0565354 0.0553741 0.054106 0.052731 0.051394 0.0502395 0.0492677 0.0484783 0.0478716 0.0474474 0.0472057 0.0471467 0.0473648 0.0479548 0.0489165 0.05025 0.0519553 0.0540325 0.0564814 0.0593021 0.0624436 0.0658548 0.0695357 0.0734862 0.0777065 0.0821965 0.0869561 0.0919855 0.097104 0.102131 0.107067 0.111912 0.116665 0.121326 0.125897 0.130376 0.134578 0.138319 0.141599 0.144416 0.146772 0.148667 0.150099 0.15107 0.151522 0.151398 0.150698 0.149422 0.14757 0.145142 0.142138 0.138558 0.13451 0.130103 0.125338 0.120214 0.11473 0.108889 0.102688 0.0961281 0.0894233 0.0827868 0.0762188 0.0697192 0.0632879 0.0569251 0.0506307 0.0444047 0.0384464 0.0329553 0.0279314 0.0233746 0.0192849 0.0156624 0.012507 0.00981872 0.00751746 0.00552303 0.00383544 0.00245468 0.00138076 0.00061367 0.000153417 0 0 6.55923e-05 0.000262369 0.000590331 0.00104948 0.00163981 0.00236132 0.00321402 0.00419791 0.0053733 0.0068005 0.00847952 0.0104104 0.012593 0.0150275 0.0177138 0.0206519 0.0237405 0.0268783 0.0300652 0.0333013 0.0365866 0.039921 0.0433046 0.0467374 0.0500897 0.053232 0.0561643 0.0588865 0.0613987 0.0637008 0.0657929 0.067675 0.0693015 0.0706272 0.0716519 0.0723758 0.0727987 0.0729207 0.0727418 0.0722619 0.0715688 0.07075 0.0698055 0.0687353 0.0675394 0.0662178 0.0647705 0.0631976 0.0616652 0.0603397 0.0592211 0.0583094 0.0576046 0.0571067 0.0568156 0.0567315 0.0569632 0.0576197 0.0587011 0.0602072 0.0621382 0.0644941 0.0672747 0.0704802 0.0740525 0.0779338 0.0821239 0.086623 0.0914309 0.0965478 0.101974 0.107708 0.113545 0.119278 0.124907 0.130432 0.135853 0.141169 0.146382 0.15149 0.156283 0.160546 0.164281 0.167487 0.170165 0.172314 0.173935 0.175027 0.175524 0.17536 0.174535 0.17305 0.170903 0.168096 0.164627 0.160498 0.155832 0.150752 0.145258 0.139351 0.13303 0.126296 0.119149 0.111588 0.103857 0.0962007 0.0886188 0.0811112 0.0736781 0.0663192 0.0590348 0.0518247 0.0449194 0.0385492 0.0327142 0.0274144 0.0226497 0.0184202 0.0147258 0.0115666 0.00885566 0.0065062 0.00451819 0.00289164 0.00162655 0.000722911 0.000180728 0 0 7.92069e-05 0.000316828 0.000712862 0.00126731 0.00198017 0.00285145 0.00388114 0.00506924 0.00648183 0.00818498 0.0101787 0.0124629 0.0150378 0.0179031 0.0210591 0.0245055 0.0281241 0.0317963 0.035522 0.0393014 0.0431343 0.0470209 0.050961 0.0549548 0.0588541 0.0625111 0.0659256 0.0690978 0.0720276 0.074715 0.07716 0.0793626 0.081271 0.0828335 0.08405 0.0849205 0.085445 0.0856236 0.0854562 0.0849428 0.0841833 0.0832774 0.0822252 0.0810266 0.0796817 0.0781905 0.0765529 0.074769 0.0730282 0.0715199 0.0702441 0.0692008 0.0683899 0.0678116 0.0674658 0.0673524 0.067596 0.0683207 0.0695267 0.0712139 0.0733823 0.0760319 0.0791628 0.0827748 0.0868029 0.0911816 0.0959111 0.100991 0.106422 0.112204 0.118336 0.124819 0.131419 0.137901 0.144265 0.150512 0.156641 0.162653 0.168547 0.174323 0.179741 0.184559 0.188777 0.192394 0.195412 0.19783 0.199648 0.200866 0.201408 0.201199 0.200238 0.198525 0.196061 0.192845 0.188878 0.184159 0.178828 0.173025 0.16675 0.160002 0.152783 0.145091 0.136927 0.128291 0.119459 0.110707 0.102035 0.0934438 0.0849323 0.0765009 0.0681498 0.0598787 0.0519516 0.0446322 0.0379204 0.0318164 0.0263201 0.0214315 0.0171506 0.0134774 0.0103186 0.00758104 0.00526461 0.00336935 0.00189526 0.000842338 0.000210584 0 0 9.43587e-05 0.000377435 0.000849228 0.00150974 0.00235897 0.00339691 0.00462357 0.00603895 0.00771474 0.00972264 0.0120626 0.0147347 0.0177389 0.0210752 0.0247437 0.0287442 0.0329396 0.0371928 0.0415038 0.0458725 0.050299 0.0547832 0.0593253 0.063925 0.0684152 0.0726283 0.0765644 0.0802236 0.0836057 0.0867108 0.0895389 0.09209 0.0943056 0.0961272 0.0975549 0.0985885 0.0992281 0.0994738 0.0993254 0.0987831 0.0979593 0.0969665 0.0958047 0.094474 0.0929743 0.0913056 0.0894679 0.0874613 0.0854992 0.0837953 0.0823494 0.0811617 0.0802321 0.0795607 0.0791473 0.0789921 0.0792355 0.0800182 0.0813401 0.0832012 0.0856015 0.0885411 0.0920198 0.0960378 0.100522 0.105401 0.110674 0.116341 0.122403 0.128858 0.135707 0.142951 0.150326 0.157571 0.164684 0.171666 0.178517 0.185237 0.191826 0.198284 0.20434 0.209722 0.214432 0.218468 0.221831 0.224521 0.226537 0.22788 0.228465 0.228203 0.227097 0.225146 0.222349 0.218708 0.214221 0.208888 0.202867 0.196313 0.189225 0.181604 0.173449 0.164762 0.155541 0.145787 0.135809 0.125916 0.116109 0.106387 0.0967502 0.0871988 0.0777327 0.068352 0.0593553 0.0510416 0.0434107 0.0364627 0.0301977 0.0246155 0.0197162 0.0154998 0.011867 0.00871863 0.00605461 0.00387495 0.00217966 0.000968737 0.000242184 0 0 0.000111134 0.000444534 0.0010002 0.00177814 0.00277834 0.00400081 0.00544554 0.00711255 0.00907881 0.0114213 0.0141401 0.0172352 0.0207065 0.024554 0.0287779 0.0333779 0.0381969 0.0430772 0.0480189 0.053022 0.0580865 0.0632124 0.0683997 0.0736484 0.078771 0.0835799 0.0880752 0.0922569 0.0961249 0.0996793 0.10292 0.105847 0.108395 0.110499 0.112157 0.113372 0.114141 0.114467 0.114347 0.113783 0.1129 0.111823 0.110552 0.109087 0.107429 0.105576 0.10353 0.10129 0.0990942 0.0971809 0.09555 0.0942017 0.0931358 0.0923523 0.0918514 0.0916329 0.0918542 0.0926725 0.0940879 0.0961004 0.0987099 0.101917 0.10572 0.110121 0.115039 0.120396 0.126191 0.132424 0.139095 0.146204 0.153752 0.161737 0.16987 0.17786 0.185706 0.193408 0.200966 0.208381 0.215653 0.222781 0.229464 0.235401 0.240593 0.245038 0.248738 0.251692 0.2539 0.255362 0.255982 0.255664 0.254406 0.25221 0.249074 0.245 0.239988 0.234036 0.227318 0.220004 0.212095 0.203591 0.194492 0.184798 0.174508 0.163624 0.152486 0.141438 0.13048 0.119611 0.108831 0.0981413 0.0875408 0.0770298 0.0669429 0.0576149 0.0490457 0.0412353 0.0341838 0.0278912 0.0223573 0.0175823 0.0134615 0.00989005 0.00686809 0.00439558 0.00247251 0.00109889 0.000274724 0 0 0.000129532 0.000518126 0.00116578 0.00207251 0.00323829 0.00466314 0.00634705 0.00829002 0.010574 0.0132811 0.0164112 0.0199642 0.0239404 0.0283395 0.0331617 0.0384069 0.0438958 0.0494493 0.0550673 0.0607498 0.0664968 0.0723083 0.0781844 0.0841249 0.0899216 0.0953659 0.100458 0.105198 0.109585 0.11362 0.117303 0.120634 0.12354 0.125948 0.127858 0.12927 0.130185 0.130602 0.130521 0.129943 0.129005 0.127847 0.126467 0.124867 0.123045 0.121003 0.11874 0.116255 0.113813 0.111677 0.109846 0.108321 0.107101 0.106187 0.105578 0.105275 0.105452 0.106284 0.10777 0.109912 0.112708 0.116158 0.120264 0.125024 0.130353 0.136165 0.14246 0.149238 0.156499 0.164242 0.172468 0.181178 0.190051 0.198768 0.207331 0.215738 0.22399 0.232086 0.240028 0.247814 0.255113 0.261595 0.267259 0.272105 0.276134 0.279344 0.281737 0.283312 0.283962 0.283579 0.282164 0.279716 0.276236 0.271724 0.266179 0.259602 0.252179 0.244099 0.23536 0.225964 0.21591 0.205198 0.193828 0.181801 0.169491 0.157273 0.145148 0.133116 0.121176 0.109329 0.0975741 0.0859122 0.0747144 0.0643522 0.0548255 0.0461343 0.0382786 0.0312585 0.025074 0.019725 0.0151019 0.0110953 0.00770507 0.00493124 0.00277383 0.00123281 0.000308203 0 0 0.000149553 0.000598211 0.00134598 0.00239285 0.00373882 0.0053839 0.00732809 0.00957138 0.0122004 0.0153019 0.0188757 0.022922 0.0274406 0.0324316 0.0378951 0.0438309 0.0500365 0.0563092 0.062649 0.0690559 0.0755299 0.082071 0.0886792 0.0953545 0.101867 0.107986 0.113713 0.119046 0.123987 0.128534 0.132689 0.136451 0.139739 0.142474 0.144656 0.146284 0.147359 0.14788 0.147848 0.147263 0.146276 0.145038 0.14355 0.141812 0.139824 0.137585 0.135096 0.132357 0.129656 0.127283 0.125237 0.123518 0.122127 0.121063 0.120327 0.119918 0.120029 0.120852 0.122387 0.124635 0.127594 0.131267 0.135651 0.140748 0.146465 0.15271 0.159483 0.166784 0.174614 0.182972 0.191858 0.201272 0.210867 0.220296 0.229559 0.238656 0.247587 0.256352 0.264951 0.273384 0.281289 0.288305 0.294432 0.299669 0.304018 0.307477 0.310048 0.311729 0.312402 0.31195 0.310371 0.307666 0.303835 0.298878 0.292794 0.285585 0.277452 0.268597 0.259021 0.248723 0.237704 0.225964 0.213502 0.200319 0.186822 0.17342 0.160113 0.146901 0.133783 0.120761 0.107833 0.0949992 0.0826698 0.0712534 0.06075 0.0511595 0.0424821 0.0347177 0.0278662 0.0219278 0.0167885 0.0123344 0.00856554 0.00548194 0.00308359 0.00137049 0.000342622 0 0 0.000171197 0.000684789 0.00154077 0.00273916 0.00427993 0.0061631 0.00838866 0.0109566 0.013958 0.0174837 0.0215338 0.0261083 0.0312072 0.0368305 0.0429781 0.0496501 0.0566189 0.0636569 0.0707641 0.0779404 0.0851859 0.0925005 0.0998843 0.107337 0.114607 0.121441 0.12784 0.133802 0.139329 0.144421 0.149077 0.153297 0.156993 0.160078 0.162551 0.164413 0.165663 0.166301 0.166327 0.165742 0.16471 0.163397 0.161801 0.159924 0.157764 0.155323 0.1526 0.149595 0.146623 0.143999 0.141723 0.139795 0.138215 0.136983 0.136099 0.135562 0.135584 0.136376 0.137938 0.140269 0.14337 0.147241 0.151881 0.157291 0.163373 0.170029 0.177259 0.185063 0.193441 0.202394 0.21192 0.22202 0.23232 0.242444 0.252391 0.262163 0.271758 0.281178 0.290422 0.29949 0.307989 0.315529 0.32211 0.32773 0.332391 0.336091 0.338832 0.340613 0.341304 0.340776 0.339027 0.336059 0.331871 0.326462 0.319834 0.311986 0.303135 0.293499 0.283076 0.271868 0.259874 0.247094 0.233529 0.219177 0.204481 0.189881 0.175376 0.160967 0.146654 0.132437 0.118316 0.104291 0.0908091 0.0783185 0.0668192 0.0563111 0.0467942 0.0382685 0.030734 0.0241907 0.018521 0.0136073 0.0094495 0.00604768 0.00340182 0.00151192 0.00037798 0 0 0.000194465 0.000777859 0.00175018 0.00311144 0.00486162 0.00700073 0.00952877 0.0124457 0.0158467 0.0198266 0.0243854 0.0295233 0.0352401 0.0415359 0.0484107 0.0558645 0.0636431 0.0714924 0.0794124 0.0874032 0.0954646 0.103597 0.1118 0.120073 0.128142 0.13573 0.142838 0.149466 0.155613 0.16128 0.166467 0.171173 0.175303 0.17876 0.181545 0.183657 0.185097 0.185864 0.185959 0.185382 0.18431 0.182923 0.18122 0.179201 0.176867 0.174217 0.171251 0.16797 0.164715 0.161826 0.159305 0.157151 0.155364 0.153945 0.152893 0.152208 0.152119 0.152858 0.154424 0.156816 0.160036 0.164082 0.168955 0.174655 0.181079 0.188123 0.195788 0.204074 0.21298 0.222507 0.232655 0.243423 0.254409 0.26521 0.275826 0.286258 0.296504 0.306565 0.316441 0.326132 0.335216 0.34327 0.350294 0.356288 0.361252 0.365186 0.368091 0.369965 0.370668 0.370057 0.368133 0.364895 0.360343 0.354477 0.347298 0.338805 0.32923 0.318804 0.307527 0.295399 0.28242 0.26859 0.253909 0.238377 0.222467 0.206653 0.190936 0.175314 0.159788 0.144359 0.129025 0.113787 0.0991322 0.0855477 0.0730332 0.061589 0.0512149 0.041911 0.0336773 0.0265138 0.0202996 0.014914 0.010357 0.00662845 0.0037285 0.00165711 0.000414278 0 0 0.000219355 0.000877422 0.0019742 0.00350969 0.00548389 0.00789679 0.0107484 0.0140387 0.0178665 0.0223305 0.0274306 0.0331669 0.0395394 0.0465481 0.054193 0.062474 0.071109 0.0798157 0.0885941 0.0974443 0.106366 0.11536 0.124425 0.133562 0.142472 0.150854 0.158709 0.166037 0.172838 0.179112 0.184859 0.190079 0.194667 0.198519 0.201636 0.204016 0.205661 0.20657 0.206743 0.206181 0.205074 0.203616 0.201806 0.199645 0.197131 0.194266 0.19105 0.187481 0.18393 0.180763 0.177982 0.175586 0.173575 0.17195 0.170709 0.169854 0.169633 0.170297 0.171844 0.174275 0.17759 0.181789 0.186872 0.192839 0.199582 0.206992 0.215071 0.223817 0.233231 0.243313 0.254062 0.26548 0.277135 0.288596 0.299865 0.310941 0.321823 0.332512 0.343008 0.353311 0.362968 0.371525 0.378983 0.385342 0.390602 0.394762 0.397823 0.399785 0.400493 0.399794 0.397687 0.394173 0.389252 0.382923 0.375186 0.366042 0.355736 0.344513 0.332373 0.319316 0.305341 0.29045 0.274642 0.257917 0.24078 0.223739 0.206793 0.1