<?xml version="1.0"?> 
<VTKFile type="StructuredGrid" version="0.1"> 
<StructuredGrid WholeExtent="0 128 0 128 0 0"> 
<Piece Extent="0 128 0 128 0 0"> 
<PointData>
<DataArray type="Float32" Name="u" format="ascii" NumberOfComponents="1"> 
0 0 0 0 0 0 0 0 0 0 0 0 0 0 0 0 0 0 0 0 0 0 0 0 0 0 0 0 0 0 0 0 0 0 0 0 0 0 0 0 0 0 0 0 0 0 0 0 0 0 0 0 0 0 0 0 0 0 0 0 0 0 0 0 0 0 0 0 0 0 0 0 0 0 0 0 0 0 0 0 0 0 0 0 0 0 0 0 0 0 0 0 0 0 0 0 0 0 0 0 0 0 0 0 0 0 0 0 0 0 0 0 0 0 0 0 0 0 0 0 0 0 0 0 0 0 0 0 0 0 2.84641e-07 1.13856e-06 2.56177e-06 4.55425e-06 7.11602e-06 1.02471e-05 1.39474e-05 1.8217e-05 2.32721e-05 2.93289e-05 3.63875e-05 4.44477e-05 5.35097e-05 6.35733e-05 7.46387e-05 8.67058e-05 9.93343e-05 0.000112084 0.000124954 0.000137946 0.000151058 0.000164292 0.000177646 0.000191121 0.000204327 0.00021687 0.000228753 0.000239974 0.000250533 0.000260431 0.000269667 0.000278242 0.000286093 0.000293155 0.00029943 0.000304917 0.000309616 0.000313527 0.000316651 0.000318987 0.000320776 0.000322258 0.000323435 0.000324306 0.000324871 0.00032513 0.000325083 0.000324729 0.000324422 0.000324512 0.000324999 0.000325884 0.000327166 0.000328845 0.000330922 0.000333396 0.000336464 0.000340321 0.000344969 0.000350406 0.000356633 0.00036365 0.000371457 0.000380054 0.000389304 0.000399069 0.00040935 0.000420147 0.00043146 0.000443288 0.000455631 0.000468491 0.00048143 0.000494012 0.000506239 0.000518108 0.000529622 0.000540779 0.000551579 0.000562023 0.00057162 0.000579878 0.000586797 0.000592378 0.00059662 0.000599523 0.000601088 0.000601314 0.000599969 0.000596821 0.00059187 0.000585116 0.00057656 0.0005662 0.000554038 0.000540072 0.000524537 0.000507665 0.000489456 0.000469911 0.000449028 0.00042681 0.000403254 0.000378361 0.000352856 0.000327462 0.00030218 0.000277008 0.000251948 0.000226999 0.000202161 0.000177434 0.00015369 0.000131799 0.000111762 9.35777e-05 7.7247e-05 6.27697e-05 5.01458e-05 3.93753e-05 3.01467e-05 2.21486e-05 1.5381e-05 9.84381e-06 5.53715e-06 2.46095e-06 6.15238e-07 0 0 1.13856e-06 4.55425e-06 1.02471e-05 1.8217e-05 2.84641e-05 4.09883e-05 5.57896e-05 7.2868e-05 9.30885e-05 0.000117316 0.00014555 0.000177791 0.000214039 0.000254293 0.000298555 0.000346823 0.000397337 0.000448335 0.000499817 0.000551783 0.000604232 0.000657166 0.000710584 0.000764486 0.000817307 0.000867482 0.000915011 0.000959894 0.00100213 0.00104172 0.00107867 0.00111297 0.00114437 0.00117262 0.00119772 0.00121967 0.00123846 0.00125411 0.0012666 0.00127595 0.0012831 0.00128903 0.00129374 0.00129722 0.00129948 0.00130052 0.00130033 0.00129892 0.00129769 0.00129805 0.0013 0.00130353 0.00130866 0.00131538 0.00132369 0.00133358 0.00134585 0.00136128 0.00137987 0.00140162 0.00142653 0.0014546 0.00148583 0.00152022 0.00155722 0.00159628 0.0016374 0.00168059 0.00172584 0.00177315 0.00182253 0.00187396 0.00192572 0.00197605 0.00202495 0.00207243 0.00211849 0.00216312 0.00220632 0.00224809 0.00228648 0.00231951 0.00234719 0.00236951 0.00238648 0.00239809 0.00240435 0.00240525 0.00239987 0.00238728 0.00236748 0.00234047 0.00230624 0.0022648 0.00221615 0.00216029 0.00209815 0.00203066 0.00195782 0.00187964 0.00179611 0.00170724 0.00161302 0.00151345 0.00141143 0.00130985 0.00120872 0.00110803 0.00100779 0.000907995 0.000808644 0.000709738 0.000614761 0.000527197 0.000447047 0.000374311 0.000308988 0.000251079 0.000200583 0.000157501 0.000120587 8.85943e-05 6.15238e-05 3.93753e-05 2.21486e-05 9.84381e-06 2.46095e-06 0 0 2.56177e-06 1.02471e-05 2.30559e-05 4.09883e-05 6.40442e-05 9.22236e-05 0.000125527 0.000163953 0.000209449 0.00026396 0.000327487 0.000400029 0.000481587 0.00057216 0.000671749 0.000780352 0.000894008 0.00100875 0.00112459 0.00124151 0.00135952 0.00147862 0.00159881 0.00172009 0.00183894 0.00195183 0.00205877 0.00215976 0.0022548 0.00234388 0.00242701 0.00250418 0.00257483 0.0026384 0.00269487 0.00274425 0.00278654 0.00282175 0.00284986 0.00287088 0.00288698 0.00290033 0.00291092 0.00291876 0.00292384 0.00292617 0.00292574 0.00292257 0.0029198 0.00292061 0.00292499 0.00293295 0.00294449 0.00295961 0.0029783 0.00300056 0.00302817 0.00306289 0.00310472 0.00315365 0.0032097 0.00327285 0.00334312 0.00342049 0.00350374 0.00359162 0.00368415 0.00378132 0.00388314 0.00398959 0.00410068 0.00421642 0.00433287 0.00444611 0.00455615 0.00466298 0.0047666 0.00486701 0.00496421 0.00505821 0.00514458 0.0052189 0.00528118 0.0053314 0.00536958 0.00539571 0.00540979 0.00541182 0.00539972 0.00537139 0.00532683 0.00526605 0.00518904 0.0050958 0.00498634 0.00486065 0.00472083 0.00456898 0.00440511 0.0042292 0.00404126 0.00384129 0.00362928 0.00340525 0.00317571 0.00294716 0.00271962 0.00249307 0.00226753 0.00204299 0.00181945 0.00159691 0.00138321 0.00118619 0.00100586 0.000842199 0.000695223 0.000564927 0.000451312 0.000354377 0.00027132 0.000199337 0.000138429 8.85943e-05 4.98343e-05 2.21486e-05 5.53715e-06 0 0 4.55425e-06 1.8217e-05 4.09883e-05 7.2868e-05 0.000113856 0.000163953 0.000223158 0.000291472 0.000372354 0.000469263 0.000582199 0.000711163 0.000856155 0.00101717 0.00119422 0.00138729 0.00158935 0.00179334 0.00199927 0.00220713 0.00241693 0.00262866 0.00284234 0.00305794 0.00326923 0.00346993 0.00366004 0.00383958 0.00400853 0.00416689 0.00431468 0.00445188 0.00457748 0.00469048 0.00479088 0.00487867 0.00495386 0.00501644 0.00506642 0.00510379 0.00513241 0.00515613 0.00517496 0.0051889 0.00519794 0.00520208 0.00520132 0.00519567 0.00519075 0.00519219 0.00519999 0.00521414 0.00523465 0.00526152 0.00529475 0.00533433 0.00538342 0.00544514 0.0055195 0.0056065 0.00570613 0.00581841 0.00594332 0.00608087 0.00622886 0.00638511 0.00654961 0.00672235 0.00690335 0.0070926 0.0072901 0.00749585 0.00770288 0.0079042 0.00809982 0.00828974 0.00847395 0.00865246 0.00882527 0.00899238 0.00914592 0.00927805 0.00938876 0.00947805 0.00954592 0.00959237 0.0096174 0.00962102 0.0095995 0.00954913 0.00946992 0.00936186 0.00922496 0.0090592 0.0088646 0.00864116 0.00839259 0.00812264 0.0078313 0.00751857 0.00718446 0.00682895 0.00645206 0.00605378 0.0056457 0.0052394 0.00483487 0.00443213 0.00403117 0.00363198 0.00323458 0.00283895 0.00245904 0.00210879 0.00178819 0.00149724 0.00123595 0.00100431 0.000802332 0.000630004 0.000482347 0.000354377 0.000246095 0.000157501 8.85943e-05 3.93753e-05 9.84381e-06 0 0 7.11602e-06 2.84641e-05 6.40442e-05 0.000113856 0.0001779 0.000256177 0.000348685 0.000455425 0.000581803 0.000733223 0.000909687 0.00111119 0.00133774 0.00158933 0.00186597 0.00216765 0.00248336 0.00280209 0.00312385 0.00344864 0.00377645 0.00410729 0.00444115 0.00477804 0.00510817 0.00542176 0.00571882 0.00599934 0.00626332 0.00651077 0.00674168 0.00695606 0.00715232 0.00732888 0.00748575 0.00762292 0.0077404 0.00783818 0.00791627 0.00797467 0.00801939 0.00805646 0.00808588 0.00810765 0.00812177 0.00812825 0.00812707 0.00811824 0.00811055 0.0081128 0.00812498 0.00814709 0.00817914 0.00822113 0.00827304 0.0083349 0.00841159 0.00850803 0.00862421 0.00876015 0.00891583 0.00909126 0.00928643 0.00950136 0.0097326 0.00997673 0.0102338 0.0105037 0.0107865 0.0110822 0.0113908 0.0117123 0.0120357 0.0123503 0.012656 0.0129527 0.0132405 0.0135195 0.0137895 0.0140506 0.0142905 0.014497 0.0146699 0.0148094 0.0149155 0.0149881 0.0150272 0.0150328 0.0149992 0.0149205 0.0147968 0.0146279 0.014414 0.014155 0.0138509 0.0135018 0.0131134 0.0126916 0.0122364 0.0117478 0.0112257 0.0106702 0.0100813 0.00945904 0.00882141 0.00818656 0.00755449 0.0069252 0.0062987 0.00567497 0.00505403 0.00443586 0.00384225 0.00329498 0.00279404 0.00233944 0.00193117 0.00156924 0.00125364 0.000984381 0.000753667 0.000553715 0.000384524 0.000246095 0.000138429 6.15238e-05 1.5381e-05 0 0 1.02471e-05 4.09883e-05 9.22236e-05 0.000163953 0.000256177 0.000368894 0.000502106 0.000655812 0.000837796 0.00105584 0.00130995 0.00160012 0.00192635 0.00228864 0.00268699 0.00312141 0.00357603 0.00403501 0.00449835 0.00496604 0.00543809 0.0059145 0.00639526 0.00688037 0.00735576 0.00780734 0.0082351 0.00863905 0.00901919 0.00937551 0.00970802 0.0100167 0.0102993 0.0105536 0.0107795 0.010977 0.0111462 0.011287 0.0113994 0.0114835 0.0115479 0.0116013 0.0116437 0.011675 0.0116954 0.0117047 0.011703 0.0116903 0.0116792 0.0116824 0.0117 0.0117318 0.011778 0.0118384 0.0119132 0.0120022 0.0121127 0.0122516 0.0124189 0.0126146 0.0128388 0.0130914 0.0133725 0.013682 0.0140149 0.0143665 0.0147366 0.0151253 0.0155325 0.0159584 0.0164027 0.0168657 0.0173315 0.0177844 0.0182246 0.0186519 0.0190664 0.019468 0.0198569 0.0202328 0.0205783 0.0208756 0.0211247 0.0213256 0.0214783 0.0215828 0.0216392 0.0216473 0.0215989 0.0214855 0.0213073 0.0210642 0.0207562 0.0203832 0.0199454 0.0194426 0.0188833 0.0182759 0.0176204 0.0169168 0.016165 0.0153651 0.0145171 0.013621 0.0127028 0.0117886 0.0108785 0.00997229 0.00907012 0.00817196 0.0072778 0.00638764 0.00553285 0.00474477 0.00402342 0.0033688 0.00278089 0.00225971 0.00180525 0.00141751 0.00108528 0.000797349 0.000553715 0.000354377 0.000199337 8.85943e-05 2.21486e-05 0 0 1.39474e-05 5.57896e-05 0.000125527 0.000223158 0.000348685 0.000502106 0.000683422 0.000892633 0.00114033 0.00143712 0.00178299 0.00217794 0.00262197 0.00311509 0.0036573 0.00424859 0.00486738 0.0054921 0.00612276 0.00675934 0.00740185 0.00805029 0.00870465 0.00936495 0.010012 0.0106267 0.0112089 0.0117587 0.0122761 0.0127611 0.0132137 0.0136339 0.0140185 0.0143646 0.0146721 0.0149409 0.0151712 0.0153628 0.0155159 0.0156303 0.015718 0.0157907 0.0158483 0.015891 0.0159187 0.0159314 0.015929 0.0159117 0.0158967 0.0159011 0.015925 0.0159683 0.0160311 0.0161134 0.0162152 0.0163364 0.0164867 0.0166757 0.0169035 0.0171699 0.017475 0.0178189 0.0182014 0.0186227 0.0190759 0.0195544 0.0200582 0.0205872 0.0211415 0.0217211 0.0223259 0.022956 0.0235901 0.0242066 0.0248057 0.0253873 0.0259515 0.0264982 0.0270274 0.0275392 0.0280094 0.028414 0.0287531 0.0290265 0.0292344 0.0293766 0.0294533 0.0294644 0.0293985 0.0292442 0.0290016 0.0286707 0.0282514 0.0277438 0.0271478 0.0264635 0.0257023 0.0248756 0.0239834 0.0230256 0.0220024 0.0209137 0.0197594 0.0185397 0.01729 0.0160457 0.0148068 0.0135734 0.0123454 0.0111229 0.00990589 0.00869429 0.00753082 0.00645816 0.00547633 0.00458531 0.0037851 0.00307571 0.00245714 0.00192939 0.00147719 0.00108528 0.000753667 0.000482347 0.00027132 0.000120587 3.01467e-05 0 0 1.8217e-05 7.2868e-05 0.000163953 0.000291472 0.000455425 0.000655812 0.000892633 0.00116589 0.00148942 0.00187705 0.0023288 0.00284465 0.00342462 0.00406869 0.00477688 0.00554917 0.00635739 0.00717336 0.00799707 0.00882852 0.00966772 0.0105147 0.0113693 0.0122318 0.0130769 0.0138797 0.0146402 0.0153583 0.0160341 0.0166676 0.0172587 0.0178075 0.0183099 0.0187619 0.0191635 0.0195147 0.0198154 0.0200658 0.0202657 0.0204151 0.0205296 0.0206245 0.0206999 0.0207556 0.0207917 0.0208083 0.0208053 0.0207827 0.020763 0.0207688 0.0207999 0.0208566 0.0209386 0.0210461 0.021179 0.0213373 0.0215337 0.0217806 0.022078 0.022426 0.0228245 0.0232736 0.0237733 0.0243235 0.0249155 0.0255404 0.0261984 0.0268894 0.0276134 0.0283704 0.0291604 0.0299834 0.0308115 0.0316168 0.0323993 0.0331589 0.0338958 0.0346098 0.0353011 0.0359695 0.0365837 0.0371122 0.037555 0.0379122 0.0381837 0.0383695 0.0384696 0.0384841 0.038398 0.0381965 0.0378797 0.0374474 0.0368998 0.0362368 0.0354584 0.0345646 0.0335704 0.0324906 0.0313252 0.0300743 0.0287378 0.0273158 0.0258082 0.0242151 0.0225828 0.0209576 0.0193395 0.0177285 0.0161247 0.0145279 0.0129383 0.0113558 0.00983617 0.00843515 0.00715275 0.00598897 0.00494381 0.00401726 0.00320933 0.00252002 0.00192939 0.00141751 0.000984381 0.000630004 0.000354377 0.000157501 3.93753e-05 0 0 2.3385e-05 9.354e-05 0.000210465 0.00037416 0.000584625 0.00084186 0.00114586 0.00149664 0.00191144 0.00240753 0.0029849 0.00364356 0.00438351 0.00520474 0.00610725 0.00709105 0.00812034 0.00915931 0.010208 0.0112663 0.0123344 0.0134121 0.0144995 0.0155966 0.0166717 0.0176931 0.0186608 0.0195749 0.0204352 0.0212419 0.0219949 0.0226942 0.0233346 0.0239111 0.0244236 0.0248721 0.0252566 0.0255771 0.0258336 0.0260262 0.0261742 0.0262973 0.0263953 0.0264683 0.0265163 0.0265393 0.0265373 0.0265103 0.0264867 0.0264951 0.0265355 0.0266078 0.0267121 0.0268483 0.0270165 0.0272167 0.0274647 0.0277765 0.0281521 0.0285915 0.0290946 0.0296616 0.0302923 0.0309868 0.031734 0.0325229 0.0333534 0.0342255 0.0351393 0.0360947 0.0370917 0.0381304 0.0391754 0.0401915 0.0411787 0.042137 0.0430663 0.0439667 0.0448382 0.0456808 0.0464547 0.0471202 0.0476773 0.048126 0.0484662 0.0486981 0.0488215 0.0488366 0.0487244 0.0484663 0.0480622 0.0475122 0.0468162 0.0459742 0.0449863 0.0438523 0.0425913 0.0412221 0.0397447 0.038159 0.0364651 0.034663 0.0327526 0.0307341 0.0286658 0.0266063 0.0245556 0.0225138 0.0204807 0.0184564 0.0164409 0.0144342 0.0125068 0.0107294 0.00910181 0.00762415 0.00629639 0.00511852 0.00409055 0.00321248 0.00245956 0.00180702 0.00125488 0.000803121 0.000451756 0.00020078 5.01951e-05 0 0 2.97805e-05 0.000119122 0.000268024 0.000476487 0.000744511 0.0010721 0.00145924 0.00190595 0.00243282 0.00306044 0.00378882 0.00461796 0.00554786 0.00657851 0.00770993 0.0089421 0.0102305 0.0115305 0.0128422 0.0141655 0.0155004 0.016847 0.0182053 0.0195752 0.0209176 0.0221934 0.0234027 0.0245454 0.0256215 0.0266311 0.027574 0.0284504 0.0292538 0.0299776 0.030622 0.0311869 0.0316724 0.0320783 0.0324048 0.0326517 0.0328432 0.0330032 0.0331317 0.0332287 0.0332942 0.0333282 0.0333307 0.0333017 0.0332764 0.0332899 0.0333422 0.0334333 0.0335632 0.033732 0.0339396 0.034186 0.0344909 0.0348741 0.0353354 0.0358749 0.0364927 0.0371886 0.0379627 0.0388151 0.039732 0.0407 0.041719 0.0427891 0.0439102 0.0450823 0.0463054 0.0475796 0.0488614 0.0501073 0.0513174 0.0524916 0.0536299 0.0547325 0.0557991 0.0568299 0.0577759 0.0585881 0.0592665 0.0598112 0.0602221 0.0604992 0.0606425 0.0606521 0.0605048 0.0601774 0.0596701 0.0589827 0.0581154 0.057068 0.0558406 0.0544332 0.0528691 0.0511715 0.0493404 0.0473759 0.045278 0.0430466 0.0406817 0.0381833 0.0356234 0.0330737 0.0305344 0.0280052 0.0254864 0.0229778 0.0204795 0.0179914 0.0156007 0.0133944 0.0113726 0.0095352 0.00788222 0.00641368 0.00512956 0.00402988 0.00308537 0.00226681 0.00157417 0.00100747 0.000566701 0.000251867 6.29668e-05 0 0 3.74034e-05 0.000149614 0.000336631 0.000598454 0.000935085 0.00134652 0.00183277 0.00239382 0.00305353 0.00383578 0.00474055 0.00576785 0.00691768 0.00819003 0.00958491 0.0111023 0.0126878 0.0142869 0.0158996 0.0175259 0.0191659 0.0208195 0.0224867 0.0241675 0.0258146 0.0273807 0.0288658 0.0302699 0.031593 0.0328351 0.0339962 0.0350762 0.0360674 0.0369616 0.0377589 0.0384593 0.0390628 0.0395693 0.039979 0.0402918 0.0405366 0.0407423 0.040909 0.0410367 0.0411253 0.0411749 0.0411854 0.0411569 0.0411319 0.0411529 0.04122 0.041333 0.0414921 0.0416972 0.0419483 0.0422454 0.0426124 0.0430733 0.0436279 0.0442764 0.0450186 0.0458547 0.0467846 0.0478083 0.0489095 0.0500718 0.0512954 0.0525802 0.0539261 0.0553332 0.0568016 0.0583311 0.0598694 0.0613642 0.0628153 0.0642228 0.0655867 0.066907 0.0681837 0.0694168 0.0705473 0.0715159 0.0723228 0.0729679 0.0734512 0.0737728 0.0739326 0.0739306 0.073739 0.0733299 0.0727032 0.071859 0.0707973 0.0695181 0.0680214 0.0663072 0.0644036 0.0623387 0.0601125 0.0577251 0.0551765 0.0524665 0.0495954 0.0465629 0.0434556 0.0403599 0.0372756 0.0342029 0.0311418 0.0280921 0.0250541 0.0220275 0.0191178 0.0164304 0.0139651 0.0117221 0.00970132 0.00790273 0.00632635 0.0049722 0.00380684 0.00279686 0.00194226 0.00124305 0.000699215 0.000310762 7.76906e-05 0 0 4.62538e-05 0.000185015 0.000416284 0.000740061 0.00115635 0.00166514 0.00226644 0.00296024 0.0037736 0.00473355 0.00584009 0.00709323 0.00849296 0.0100393 0.0117322 0.0135717 0.0154923 0.0174285 0.0193803 0.0213478 0.0233308 0.0253294 0.0273437 0.0293735 0.0313627 0.0332549 0.0350501 0.0367483 0.0383496 0.0398539 0.0412613 0.0425716 0.0437754 0.0448629 0.0458341 0.0466891 0.0474278 0.0480502 0.0485564 0.0489463 0.0492543 0.0495146 0.0497273 0.0498924 0.0500097 0.0500795 0.0501016 0.050076 0.0500534 0.0500844 0.0501689 0.0503069 0.0504986 0.0507437 0.0510425 0.0513948 0.0518291 0.0523741 0.0530297 0.0537958 0.0546726 0.0556599 0.0567579 0.0579664 0.0592663 0.0606383 0.0620824 0.0635987 0.0651871 0.0668475 0.0685801 0.0703849 0.0721996 0.0739621 0.0756724 0.0773306 0.0789366 0.0804904 0.0819921 0.0834416 0.0847688 0.0859036 0.086846 0.0875961 0.0881537 0.0885189 0.0886917 0.0886721 0.0884271 0.0879236 0.0871616 0.0861411 0.0848621 0.0833247 0.0815287 0.0794743 0.0771948 0.0747237 0.072061 0.0692066 0.0661606 0.062923 0.0594937 0.0558728 0.0521624 0.0484646 0.0447794 0.0411068 0.0374468 0.0337995 0.0301647 0.0265425 0.0230582 0.0198372 0.0168794 0.0141849 0.0117537 0.00958567 0.00768093 0.00603944 0.00462395 0.00339719 0.00235916 0.00150986 0.000849296 0.000377465 9.43663e-05 0 0 5.63317e-05 0.000225327 0.000506985 0.000901307 0.00140829 0.00202794 0.00276025 0.00360523 0.00459301 0.00575375 0.00708745 0.0085941 0.0102737 0.0121263 0.0141518 0.0163503 0.018644 0.0209554 0.0232844 0.0256309 0.0279951 0.0303769 0.0327763 0.0351933 0.0375619 0.039816 0.0419556 0.0439808 0.0458914 0.0476876 0.0493694 0.0509366 0.0523778 0.0536815 0.0548477 0.0558763 0.0567674 0.0575209 0.0581369 0.0586154 0.0589964 0.0593202 0.0595866 0.0597957 0.0599474 0.0600419 0.0600791 0.0600589 0.0600408 0.0600842 0.0601889 0.0603551 0.0605827 0.0608718 0.0612222 0.0616342 0.0621411 0.0627765 0.0635406 0.0644332 0.0654544 0.0666042 0.0678825 0.0692895 0.0708026 0.0723995 0.0740802 0.0758447 0.0776931 0.0796252 0.0816411 0.0837409 0.0858517 0.087901 0.0898888 0.091815 0.0936796 0.0954827 0.0972242 0.0989042 0.100441 0.101751 0.102836 0.103696 0.104329 0.104737 0.10492 0.104877 0.104569 0.103959 0.103045 0.101829 0.10031 0.0984876 0.0963625 0.0939346 0.0912428 0.0883265 0.0851857 0.0818203 0.0782303 0.0744158 0.0703767 0.066113 0.0617438 0.0573881 0.0530458 0.048717 0.0444016 0.0400997 0.0358113 0.0315363 0.0274218 0.0236148 0.0201154 0.0169236 0.0140393 0.0114625 0.00919329 0.00723161 0.0055367 0.00406778 0.00282485 0.0018079 0.00101695 0.000451976 0.000112994 0 0 6.7637e-05 0.000270548 0.000608733 0.00108219 0.00169093 0.00243493 0.00331422 0.00432877 0.00551177 0.00689639 0.00848262 0.0102705 0.0122599 0.014451 0.0168437 0.019438 0.0221429 0.0248675 0.0276116 0.0303754 0.0331589 0.0359619 0.0387846 0.0416269 0.0444122 0.0470641 0.0495824 0.0519672 0.0542184 0.0563362 0.0583204 0.0601711 0.0618747 0.0634176 0.0647997 0.066021 0.0670816 0.0679815 0.0687206 0.0692989 0.0697629 0.0701589 0.0704868 0.0707466 0.0709384 0.0710622 0.071118 0.0711057 0.0710942 0.0711523 0.0712801 0.0714775 0.0717446 0.0720813 0.0724876 0.0729636 0.0735482 0.0742806 0.0751607 0.0761886 0.0773642 0.0786876 0.0801586 0.0817774 0.0835183 0.0853553 0.0872887 0.0893182 0.0914441 0.0936662 0.0959845 0.0983991 0.100826 0.103181 0.105464 0.107676 0.109816 0.111884 0.11388 0.115805 0.117562 0.119059 0.120294 0.121267 0.121978 0.122429 0.122617 0.122544 0.122165 0.121435 0.120354 0.118923 0.11714 0.115007 0.112523 0.109688 0.106548 0.103147 0.0994868 0.0955663 0.0913857 0.086945 0.0822443 0.0772836 0.0721999 0.0671302 0.0620747 0.0570334 0.0520061 0.0469929 0.0419939 0.0370089 0.0322086 0.0277634 0.0236732 0.0199381 0.0165581 0.0135332 0.0108634 0.00854871 0.00654511 0.00480865 0.00333934 0.00213718 0.00120216 0.000534294 0.000133574 0 0 8.01699e-05 0.00032068 0.000721529 0.00128272 0.00200425 0.00288612 0.00392832 0.00513087 0.00652988 0.00816145 0.0100256 0.0121223 0.0144516 0.0170135 0.0198079 0.0228349 0.025989 0.0291648 0.0323622 0.0355813 0.038822 0.0420844 0.0453685 0.0486742 0.0519137 0.054999 0.0579303 0.0607075 0.0633306 0.0657996 0.0681145 0.0702753 0.0722661 0.074071 0.07569 0.0771232 0.0783704 0.0794318 0.0803074 0.080997 0.0815538 0.0820308 0.0824279 0.0827452 0.0829827 0.0831404 0.0832182 0.0832162 0.0832134 0.0832888 0.0834424 0.0836741 0.0839841 0.0843722 0.0848385 0.085383 0.0860506 0.0868863 0.0878901 0.089062 0.0904019 0.09191 0.0935861 0.0954304 0.0974134 0.0995059 0.101708 0.104019 0.10644 0.10897 0.11161 0.11436 0.117122 0.119802 0.122399 0.124914 0.127345 0.129694 0.13196 0.134143 0.136135 0.137826 0.139218 0.140309 0.141101 0.141592 0.141783 0.141675 0.141215 0.140353 0.139088 0.137422 0.135353 0.132883 0.13001 0.126734 0.123109 0.119186 0.114964 0.110444 0.105627 0.100511 0.0950966 0.0893845 0.0835305 0.0776911 0.0718662 0.0660559 0.0602602 0.0544791 0.0487125 0.0429605 0.0374186 0.0322827 0.0275527 0.0232285 0.0193103 0.0157979 0.0126914 0.00999073 0.00764916 0.00561979 0.00390263 0.00249768 0.00140495 0.000624421 0.000156105 0 0 9.39302e-05 0.000375721 0.000845372 0.00150288 0.00234825 0.00338149 0.00460258 0.00601153 0.00764733 0.00954895 0.0117164 0.0141497 0.0168487 0.0198137 0.0230444 0.026541 0.0301823 0.0338473 0.037536 0.0412485 0.0449846 0.0487444 0.052528 0.0563352 0.0600662 0.063621 0.0669995 0.0702018 0.073228 0.0760778 0.0787515 0.081249 0.0835518 0.0856418 0.0875188 0.0891828 0.0906339 0.0918721 0.0928973 0.0937096 0.0943691 0.0949359 0.09541 0.0957915 0.0960803 0.0962764 0.0963798 0.0963906 0.0963986 0.0964937 0.0966758 0.096945 0.0973012 0.0977445 0.0982749 0.0988924 0.0996482 0.100594 0.101729 0.103053 0.104568 0.106272 0.108165 0.110248 0.112488 0.114851 0.117338 0.119948 0.122681 0.125538 0.128519 0.131622 0.134741 0.137764 0.140693 0.143528 0.146267 0.148913 0.151463 0.153919 0.156157 0.158054 0.159609 0.160823 0.161696 0.162228 0.162419 0.162268 0.161718 0.160712 0.159248 0.157327 0.154949 0.152115 0.148823 0.145074 0.140927 0.136442 0.131618 0.126455 0.120953 0.115113 0.108934 0.102416 0.0957357 0.0890706 0.0824203 0.0757848 0.0691641 0.0625582 0.0559671 0.0493908 0.0430519 0.037173 0.0317539 0.0267948 0.0222956 0.0182564 0.0146771 0.0115577 0.00884885 0.0065012 0.00451472 0.00288942 0.0016253 0.000722355 0.000180589 0 0 0.000108708 0.00043483 0.000978368 0.00173932 0.00271769 0.00391347 0.00532667 0.00695728 0.00884705 0.0110377 0.0135293 0.0163218 0.0194152 0.0228094 0.0265046 0.0305007 0.0346601 0.0388451 0.0430558 0.0472922 0.0515543 0.055842 0.0601554 0.0644945 0.0687466 0.0727992 0.0766522 0.0803057 0.0837597 0.0870141 0.090069 0.0929243 0.0955591 0.0979524 0.100104 0.102014 0.103683 0.10511 0.106295 0.107239 0.108009 0.108672 0.109229 0.109679 0.110022 0.110259 0.110389 0.110413 0.110431 0.110545 0.110755 0.11106 0.111461 0.111958 0.112551 0.113239 0.114081 0.115134 0.1164 0.117876 0.119565 0.121464 0.123576 0.125899 0.128397 0.131032 0.133806 0.136717 0.139766 0.142953 0.146277 0.14974 0.153218 0.156589 0.159854 0.163011 0.166062 0.169007 0.171844 0.174575 0.17706 0.179162 0.18088 0.182215 0.183166 0.183734 0.183918 0.183719 0.183071 0.18191 0.180235 0.178046 0.175345 0.172129 0.168401 0.164158 0.159469 0.154399 0.148948 0.143117 0.136905 0.130312 0.123339 0.115985 0.108448 0.100925 0.093418 0.0859253 0.0784475 0.0709845 0.0635364 0.056103 0.0489349 0.0422826 0.036146 0.0305252 0.0254202 0.0208309 0.0167574 0.0131996 0.0101059 0.00742477 0.00515609 0.0032999 0.00185619 0.000824974 0.000206243 0 0 0.000124291 0.000497166 0.00111862 0.00198866 0.00310729 0.00447449 0.00609028 0.00795466 0.010112 0.0126067 0.0154387 0.018608 0.0221147 0.0259587 0.03014 0.0346587 0.0393598 0.0440883 0.0488443 0.0536278 0.0584388 0.0632772 0.0681431 0.0730364 0.0778316 0.0824031 0.0867508 0.0908748 0.0947751 0.0984516 0.101904 0.105133 0.108115 0.110825 0.113264 0.115432 0.117328 0.118952 0.120306 0.121388 0.122274 0.123038 0.12368 0.124201 0.1246 0.124877 0.125033 0.125067 0.125092 0.125221 0.125453 0.125789 0.126229 0.126772 0.127419 0.128169 0.129088 0.13024 0.131626 0.133244 0.135096 0.137181 0.139499 0.142051 0.144795 0.147691 0.150739 0.15394 0.157293 0.160798 0.164455 0.168265 0.172091 0.175799 0.179388 0.182858 0.186209 0.189442 0.192556 0.195552 0.198275 0.200573 0.202445 0.203891 0.204912 0.205507 0.205677 0.205421 0.204667 0.203344 0.201451 0.198988 0.195955 0.192353 0.188181 0.183439 0.178201 0.17254 0.166456 0.15995 0.153022 0.14567 0.137896 0.129699 0.121298 0.112912 0.10454 0.0961832 0.0878406 0.0795125 0.0711989 0.0628999 0.0548941 0.0474602 0.0405982 0.034308 0.0285898 0.0234435 0.018869 0.0148665 0.0113821 0.00836238 0.00580721 0.00371661 0.0020906 0.000929153 0.000232288 0 0 0.000140682 0.000562728 0.00126614 0.00225091 0.00351705 0.00506455 0.00689342 0.00900365 0.0114421 0.0142557 0.0174444 0.0210083 0.0249473 0.0292614 0.0339506 0.0390149 0.0442814 0.0495769 0.0549015 0.0602552 0.065638 0.0710499 0.0764909 0.081961 0.0873212 0.0924326 0.0972952 0.101909 0.106274 0.11039 0.114258 0.117876 0.121219 0.12426 0.126999 0.129435 0.131569 0.1334 0.13493 0.136156 0.137163 0.138032 0.138764 0.139357 0.139813 0.140131 0.140311 0.140353 0.140382 0.140521 0.140771 0.141132 0.141604 0.142187 0.14288 0.143684 0.144671 0.145912 0.147408 0.149158 0.151162 0.153421 0.155935 0.158703 0.161682 0.164827 0.168139 0.171617 0.175262 0.179074 0.183052 0.187197 0.19136 0.195393 0.199295 0.203067 0.206708 0.210219 0.2136 0.21685 0.219802 0.222286 0.224302 0.225852 0.226933 0.227548 0.227695 0.227375 0.226508 0.225015 0.222896 0.220152 0.216782 0.212785 0.208163 0.202915 0.197122 0.190864 0.184142 0.176955 0.169303 0.161186 0.152605 0.143559 0.134288 0.125031 0.115788 0.106558 0.0973432 0.0881419 0.0789547 0.0697815 0.0609294 0.0527057 0.0451103 0.0381433 0.0318045 0.0260941 0.021012 0.0165583 0.0126775 0.00931405 0.00646809 0.00413958 0.00232851 0.00103489 0.000258723 0 0 0.000157879 0.000631517 0.00142091 0.00252607 0.00394698 0.00568365 0.00773608 0.0101043 0.0128375 0.0159849 0.0195467 0.0235227 0.0279129 0.0327175 0.0379363 0.0435693 0.0494248 0.0553108 0.0612274 0.0671745 0.0731521 0.0791603 0.085199 0.0912682 0.0972154 0.102888 0.108286 0.113409 0.118257 0.12283 0.127129 0.131153 0.134873 0.138258 0.141308 0.144024 0.146406 0.148453 0.150166 0.151544 0.152678 0.153656 0.15448 0.155148 0.155661 0.15602 0.156223 0.156271 0.1563 0.156446 0.156709 0.15709 0.157587 0.158202 0.158934 0.159783 0.160828 0.162149 0.163745 0.165616 0.167763 0.170185 0.172883 0.175856 0.179058 0.18244 0.186004 0.189748 0.193674 0.197781 0.202068 0.206537 0.211025 0.215371 0.219576 0.223638 0.227559 0.231338 0.234975 0.23847 0.24164 0.244301 0.246453 0.248096 0.24923 0.249856 0.249972 0.24958 0.248592 0.246922 0.244571 0.241538 0.237823 0.233427 0.228348 0.222588 0.216234 0.209373 0.202005 0.19413 0.185749 0.176861 0.167466 0.157565 0.147416 0.137281 0.12716 0.117051 0.106955 0.096873 0.0868038 0.0767478 0.067041 0.0580192 0.0496825 0.0420309 0.0350643 0.0287828 0.0231864 0.0182751 0.0139919 0.0102798 0.00713872 0.00456878 0.00256994 0.0011422 0.000285549 0 0 0.000175883 0.000703532 0.00158295 0.00281413 0.00439708 0.00633179 0.00861827 0.0112565 0.014298 0.0177943 0.0217453 0.0261511 0.0310117 0.036327 0.0420971 0.048322 0.0547901 0.0612901 0.0678219 0.0743855 0.080981 0.0876082 0.0942673 0.100958 0.107514 0.113769 0.119722 0.125373 0.130723 0.135771 0.140518 0.144964 0.149074 0.152817 0.156192 0.1592 0.161839 0.164111 0.166015 0.167552 0.168817 0.16991 0.170828 0.171574 0.172146 0.172544 0.172769 0.172821 0.172847 0.172996 0.173267 0.173661 0.174178 0.174818 0.175581 0.176466 0.17756 0.178951 0.180637 0.18262 0.184898 0.187473 0.190344 0.193511 0.196923 0.200531 0.204335 0.208334 0.212528 0.216918 0.221503 0.226284 0.231085 0.235734 0.24023 0.244572 0.248762 0.252798 0.256682 0.260412 0.26379 0.266619 0.268897 0.270625 0.271803 0.272431 0.272509 0.272036 0.27092 0.269066 0.266475 0.263147 0.25908 0.254277 0.248736 0.242457 0.235535 0.228064 0.220045 0.211477 0.20236 0.192694 0.182479 0.171716 0.160684 0.149664 0.138656 0.127661 0.116677 0.105706 0.0947462 0.0837989 0.0732287 0.0634006 0.0543147 0.0459709 0.0383692 0.0315096 0.0253922 0.0200169 0.0153255 0.0112595 0.00781911 0.00500423 0.00281488 0.00125106 0.000312764 0 0 0.000194693 0.000778774 0.00175224 0.00311509 0.00486734 0.00700896 0.00953998 0.0124604 0.0158238 0.0196838 0.0240404 0.0288937 0.0342436 0.04009 0.0464331 0.0532729 0.0603774 0.0675148 0.0746851 0.0818884 0.0891246 0.0963937 0.103696 0.111031 0.118218 0.125075 0.131604 0.137803 0.143673 0.149214 0.154425 0.159308 0.163824 0.167939 0.171651 0.174961 0.177869 0.180374 0.182477 0.184178 0.185582 0.186792 0.187809 0.188634 0.189265 0.189704 0.18995 0.190002 0.190022 0.19017 0.190445 0.190847 0.191377 0.192035 0.19282 0.193733 0.194867 0.196318 0.198085 0.200169 0.202568 0.205285 0.208317 0.211666 0.215278 0.219099 0.223131 0.227373 0.231824 0.236485 0.241357 0.246438 0.251542 0.256482 0.261258 0.265869 0.270317 0.2746 0.278719 0.282674 0.286252 0.289238 0.291634 0.293438 0.294651 0.295273 0.295304 0.294744 0.293492 0.291447 0.288609 0.284977 0.280553 0.275336 0.269325 0.262522 0.255026 0.24694 0.238263 0.228994 0.219135 0.208685 0.197644 0.186012 0.17409 0.162178 0.150278 0.138388 0.126508 0.11464 0.102782 0.0909347 0.0794926 0.06885 0.0590069 0.0499633 0.0417191 0.0342745 0.0276293 0.0217837 0.0166781 0.0122533 0.00850925 0.00544592 0.00306333 0.00136148 0.00034037 0 0 0.00021431 0.000857242 0.00192879 0.00342897 0.00535776 0.00771517 0.0105012 0.0137159 0.0174147 0.0216534 0.026432 0.0317503 0.0376085 0.0440065 0.0509443 0.058422 0.0661865 0.0739848 0.081817 0.0896831 0.097583 0.105517 0.113485 0.121486 0.129326 0.136807 0.143932 0.150698 0.157107 0.163157 0.16885 0.174186 0.179123 0.183623 0.187685 0.191308 0.194494 0.197242 0.199552 0.201424 0.202971 0.204304 0.205423 0.206329 0.207021 0.207499 0.207764 0.207816 0.207826 0.207968 0.208242 0.208647 0.209184 0.209852 0.210652 0.211584 0.212749 0.214251 0.216088 0.218263 0.220773 0.22362 0.226803 0.230322 0.234121 0.238145 0.242393 0.246866 0.251563 0.256484 0.261629 0.266999 0.272394 0.277614 0.282659 0.287529 0.292224 0.296744 0.301089 0.305259 0.309026 0.312161 0.314664 0.316535 0.317775 0.318383 0.318359 0.317704 0.316308 0.314064 0.310971 0.307031 0.302241 0.296604 0.290117 0.282783 0.274708 0.265999 0.256658 0.246683 0.236075 0.224835 0.212961 0.200454 0.187635 0.174825 0.162024 0.149232 0.136449 0.123675 0.110911 0.0981552