<?xml version="1.0"?> 
<VTKFile type="StructuredGrid" version="0.1"> 
<StructuredGrid WholeExtent="0 128 0 128 0 0"> 
<Piece Extent="0 128 0 128 0 0"> 
<PointData>
<DataArray type="Float32" Name="u" format="ascii" NumberOfComponents="1"> 
0 0 0 0 0 0 0 0 0 0 0 0 0 0 0 0 0 0 0 0 0 0 0 0 0 0 0 0 0 0 0 0 0 0 0 0 0 0 0 0 0 0 0 0 0 0 0 0 0 0 0 0 0 0 0 0 0 0 0 0 0 0 0 0 0 0 0 0 0 0 0 0 0 0 0 0 0 0 0 0 0 0 0 0 0 0 0 0 0 0 0 0 0 0 0 0 0 0 0 0 0 0 0 0 0 0 0 0 0 0 0 0 0 0 0 0 0 0 0 0 0 0 0 0 0 0 0 0 0 0 2.16045e-07 8.64179e-07 1.9444e-06 3.45672e-06 5.40112e-06 7.77761e-06 1.05862e-05 1.38269e-05 1.76873e-05 2.23553e-05 2.78307e-05 3.41137e-05 4.12041e-05 4.9102e-05 5.78074e-05 6.73203e-05 7.73459e-05 8.75893e-05 9.80505e-05 0.00010873 0.000119626 0.000130741 0.000142074 0.000153624 0.000165115 0.000176268 0.000187084 0.000197564 0.000207706 0.000217511 0.000226978 0.000236109 0.000244827 0.000253058 0.0002608 0.000268056 0.000274823 0.000281103 0.000286895 0.000292199 0.000297121 0.000301767 0.000306136 0.000310229 0.000314045 0.000317585 0.000320849 0.000323836 0.00032672 0.000329672 0.000332695 0.000335787 0.000338948 0.000342179 0.000345479 0.000348849 0.000352381 0.000356167 0.000360209 0.000364506 0.000369058 0.000373864 0.000378926 0.000384243 0.000389732 0.000395311 0.000400979 0.000406737 0.000412585 0.000418522 0.00042455 0.000430667 0.000436637 0.000442222 0.000447424 0.000452241 0.000456674 0.000460724 0.000464389 0.00046767 0.00047031 0.000472052 0.000472896 0.000472842 0.00047189 0.000470041 0.000467293 0.000463648 0.000459002 0.000453254 0.000446403 0.00043845 0.000429394 0.000419235 0.000407974 0.00039561 0.000382318 0.000368271 0.000353471 0.000337916 0.000321607 0.000304544 0.000286727 0.000268155 0.000249308 0.000230663 0.000212221 0.000193981 0.000175944 0.000158109 0.000140476 0.000123046 0.000106381 9.10421e-05 7.70298e-05 6.4344e-05 5.29846e-05 4.29519e-05 3.42456e-05 2.68659e-05 2.05692e-05 1.51121e-05 1.04945e-05 6.71647e-06 3.77801e-06 1.67912e-06 4.19779e-07 0 0 8.64179e-07 3.45672e-06 7.77761e-06 1.38269e-05 2.16045e-05 3.11105e-05 4.23448e-05 5.53075e-05 7.07493e-05 8.94211e-05 0.000111323 0.000136455 0.000164816 0.000196408 0.00023123 0.000269281 0.000309384 0.000350357 0.000392202 0.000434918 0.000478506 0.000522964 0.000568294 0.000614496 0.000660458 0.000705072 0.000748338 0.000790255 0.000830823 0.000870043 0.000907914 0.000944436 0.000979309 0.00101223 0.0010432 0.00107222 0.00109929 0.00112441 0.00114758 0.0011688 0.00118848 0.00120707 0.00122454 0.00124092 0.00125618 0.00127034 0.0012834 0.00129534 0.00130688 0.00131869 0.00133078 0.00134315 0.00135579 0.00136872 0.00138192 0.00139539 0.00140952 0.00142467 0.00144084 0.00145802 0.00147623 0.00149546 0.0015157 0.00153697 0.00155893 0.00158124 0.00160392 0.00162695 0.00165034 0.00167409 0.0016982 0.00172267 0.00174655 0.00176889 0.0017897 0.00180896 0.0018267 0.00184289 0.00185755 0.00187068 0.00188124 0.00188821 0.00189158 0.00189137 0.00188756 0.00188016 0.00186917 0.00185459 0.00183601 0.00181302 0.00178561 0.0017538 0.00171757 0.00167694 0.0016319 0.00158244 0.00152927 0.00147309 0.00141388 0.00135166 0.00128643 0.00121818 0.00114691 0.00107262 0.000997232 0.000922653 0.000848883 0.000775924 0.000703775 0.000632435 0.000561905 0.000492186 0.000425524 0.000364169 0.000308119 0.000257376 0.000211939 0.000171807 0.000136982 0.000107464 8.22768e-05 6.04482e-05 4.19779e-05 2.68659e-05 1.51121e-05 6.71647e-06 1.67912e-06 0 0 1.9444e-06 7.77761e-06 1.74996e-05 3.11105e-05 4.86101e-05 6.99985e-05 9.52758e-05 0.000124442 0.000159186 0.000201198 0.000250477 0.000307023 0.000370837 0.000441918 0.000520267 0.000605883 0.000696113 0.000788304 0.000882455 0.000978566 0.00107664 0.00117667 0.00127866 0.00138262 0.00148603 0.00158641 0.00168376 0.00177807 0.00186935 0.0019576 0.00204281 0.00212498 0.00220344 0.00227752 0.0023472 0.0024125 0.00247341 0.00252992 0.00258205 0.00262979 0.00267409 0.0027159 0.00275523 0.00279206 0.00282641 0.00285827 0.00288764 0.00291452 0.00294048 0.00296705 0.00299425 0.00302208 0.00305053 0.00307961 0.00310931 0.00313964 0.00317143 0.00320551 0.00324188 0.00328055 0.00332152 0.00336478 0.00341034 0.00345819 0.00350759 0.00355779 0.00360881 0.00366063 0.00371326 0.0037667 0.00382095 0.003876 0.00392973 0.00398 0.00402681 0.00407017 0.00411007 0.00414651 0.0041795 0.00420903 0.00423279 0.00424846 0.00425606 0.00425558 0.00424701 0.00423037 0.00420564 0.00417283 0.00413102 0.00407929 0.00401763 0.00394605 0.00386454 0.00377312 0.00367176 0.00356049 0.00344086 0.00331444 0.00318124 0.00304124 0.00289446 0.0027409 0.00258054 0.0024134 0.00224377 0.00207597 0.00190999 0.00174583 0.00158349 0.00142298 0.00126429 0.00110742 0.000957429 0.000819379 0.000693268 0.000579096 0.000476862 0.000386567 0.00030821 0.000241793 0.000185123 0.000136009 9.44504e-05 6.04482e-05 3.40021e-05 1.51121e-05 3.77801e-06 0 0 3.45672e-06 1.38269e-05 3.11105e-05 5.53075e-05 8.64179e-05 0.000124442 0.000169379 0.00022123 0.000282997 0.000357685 0.000445292 0.000545819 0.000659266 0.000785632 0.000924919 0.00107713 0.00123753 0.00140143 0.00156881 0.00173967 0.00191402 0.00209186 0.00227318 0.00245798 0.00264183 0.00282029 0.00299335 0.00316102 0.00332329 0.00348017 0.00363165 0.00377774 0.00391723 0.00404892 0.00417281 0.00428889 0.00439717 0.00449764 0.00459031 0.00467518 0.00475394 0.00482827 0.00489818 0.00496367 0.00502473 0.00508137 0.00513358 0.00518138 0.00522751 0.00527476 0.00532312 0.00537259 0.00542317 0.00547486 0.00552767 0.00558158 0.00563809 0.00569868 0.00576335 0.0058321 0.00590492 0.00598183 0.00606282 0.00614788 0.00623571 0.00632497 0.00641566 0.00650779 0.00660136 0.00669636 0.0067928 0.00689067 0.00698618 0.00707556 0.00715878 0.00723586 0.00730679 0.00737158 0.00743022 0.00748272 0.00752495 0.00755283 0.00756633 0.00756547 0.00755025 0.00752065 0.00747669 0.00741837 0.00734404 0.00725206 0.00714245 0.00701519 0.0068703 0.00670776 0.00652758 0.00632976 0.00611708 0.00589234 0.00565553 0.00540666 0.00514571 0.0048727 0.00458763 0.00429048 0.00398893 0.00369061 0.00339553 0.0031037 0.0028151 0.00252974 0.00224762 0.00196874 0.0017021 0.00145667 0.00123248 0.0010295 0.000847754 0.00068723 0.00054793 0.000429854 0.000329107 0.000241793 0.000167912 0.000107464 6.04482e-05 2.68659e-05 6.71647e-06 0 0 5.40112e-06 2.16045e-05 4.86101e-05 8.64179e-05 0.000135028 0.00019444 0.000264655 0.000345672 0.000442183 0.000558882 0.000695768 0.000852842 0.0010301 0.00122755 0.00144519 0.00168301 0.00193365 0.00218973 0.00245126 0.00271824 0.00299066 0.00326853 0.00355184 0.0038406 0.00412786 0.0044067 0.00467711 0.00493909 0.00519264 0.00543777 0.00567446 0.00590272 0.00612068 0.00632644 0.00652001 0.00670139 0.00687057 0.00702757 0.00717237 0.00730497 0.00742803 0.00754417 0.00765341 0.00775573 0.00785114 0.00793964 0.00802122 0.0080959 0.00816799 0.00824181 0.00831737 0.00839467 0.0084737 0.00855447 0.00863698 0.00872122 0.00880951 0.00890418 0.00900523 0.00911265 0.00922644 0.00934661 0.00947315 0.00960607 0.00974329 0.00988276 0.0100245 0.0101684 0.0103146 0.0104631 0.0106137 0.0107667 0.0109159 0.0110556 0.0111856 0.011306 0.0114169 0.0115181 0.0116097 0.0116917 0.0117577 0.0118013 0.0118224 0.0118211 0.0117973 0.011751 0.0116823 0.0115912 0.0114751 0.0113313 0.0111601 0.0109612 0.0107348 0.0104809 0.0101993 0.00989025 0.00955794 0.00920678 0.00883677 0.0084479 0.00804018 0.0076136 0.00716817 0.00670388 0.0062327 0.00576658 0.00530552 0.00484952 0.00439859 0.00395272 0.00351191 0.00307616 0.00265953 0.00227605 0.00192574 0.0016086 0.00132462 0.0010738 0.00085614 0.000671647 0.00051423 0.000377801 0.000262362 0.000167912 9.44504e-05 4.19779e-05 1.04945e-05 0 0 7.77761e-06 3.11105e-05 6.99985e-05 0.000124442 0.00019444 0.000279994 0.000381103 0.000497767 0.000636744 0.00080479 0.00100191 0.00122809 0.00148335 0.00176767 0.00208107 0.00242353 0.00278445 0.00315321 0.00352982 0.00391426 0.00430655 0.00470668 0.00511465 0.00553046 0.00594412 0.00634565 0.00673504 0.00711229 0.00747741 0.00783038 0.00817122 0.00849992 0.00881378 0.00911008 0.00938882 0.00965 0.00989363 0.0101197 0.0103282 0.0105192 0.0106964 0.0108636 0.0110209 0.0111682 0.0113056 0.0114331 0.0115506 0.0116581 0.0117619 0.0118682 0.011977 0.0120883 0.0122021 0.0123184 0.0124372 0.0125586 0.0126857 0.012822 0.0129675 0.0131222 0.0132861 0.0134591 0.0136413 0.0138327 0.0140303 0.0142312 0.0144352 0.0146425 0.0148531 0.0150668 0.0152838 0.015504 0.0157189 0.01592 0.0161073 0.0162807 0.0164403 0.0165861 0.016718 0.0168361 0.0169311 0.0169939 0.0170242 0.0170223 0.0169881 0.0169215 0.0168226 0.0166913 0.0165241 0.0163171 0.0160705 0.0157842 0.0154582 0.0150925 0.0146871 0.014242 0.0137634 0.0132578 0.0127249 0.012165 0.0115779 0.0109636 0.0103222 0.00965359 0.00897509 0.00830387 0.00763995 0.00698332 0.00633397 0.00569192 0.00505715 0.00442967 0.00382972 0.00327752 0.00277307 0.00231638 0.00190745 0.00154627 0.00123284 0.000967172 0.000740491 0.000544034 0.000377801 0.000241793 0.000136009 6.04482e-05 1.51121e-05 0 0 1.05862e-05 4.23448e-05 9.52758e-05 0.000169379 0.000264655 0.000381103 0.000518724 0.000677517 0.000866679 0.00109541 0.00136371 0.00167157 0.002019 0.002406 0.00283256 0.0032987 0.00378995 0.00429188 0.00480447 0.00532775 0.00586169 0.00640631 0.00696161 0.00752757 0.00809061 0.00863714 0.00916714 0.00968062 0.0101776 0.010658 0.0111219 0.0115693 0.0119965 0.0123998 0.0127792 0.0131347 0.0134663 0.013774 0.0140578 0.0143177 0.0145589 0.0147866 0.0150007 0.0152012 0.0153882 0.0155617 0.0157216 0.015868 0.0160093 0.016154 0.0163021 0.0164536 0.0166085 0.0167668 0.0169285 0.0170936 0.0172666 0.0174522 0.0176503 0.0178608 0.0180838 0.0183194 0.0185674 0.0188279 0.0190969 0.0193702 0.019648 0.0199301 0.0202167 0.0205076 0.0208029 0.0211027 0.0213952 0.0216689 0.0219238 0.0221598 0.0223771 0.0225755 0.022755 0.0229158 0.0230452 0.0231305 0.0231719 0.0231693 0.0231226 0.023032 0.0228974 0.0227187 0.0224911 0.0222094 0.0218738 0.021484 0.0210403 0.0205425 0.0199907 0.0193849 0.0187336 0.0180453 0.0173201 0.0165579 0.0157587 0.0149227 0.0140496 0.0131396 0.0122161 0.0113025 0.0103988 0.00950507 0.00862124 0.00774733 0.00688334 0.00602928 0.00521267 0.00446107 0.00377446 0.00315285 0.00259625 0.00210464 0.00167803 0.00131643 0.00100789 0.000740491 0.00051423 0.000329107 0.000185123 8.22768e-05 2.05692e-05 0 0 1.38269e-05 5.53075e-05 0.000124442 0.00022123 0.000345672 0.000497767 0.000677517 0.00088492 0.00113199 0.00143074 0.00178117 0.00218328 0.00263706 0.00314253 0.00369968 0.0043085 0.00495014 0.00560572 0.00627523 0.00695869 0.00765609 0.00836743 0.00909271 0.00983193 0.0105673 0.0112812 0.0119734 0.0126441 0.0132932 0.0139207 0.0145266 0.015111 0.0156689 0.0161957 0.0166912 0.0171556 0.0175887 0.0179906 0.0183613 0.0187007 0.0190158 0.0193131 0.0195927 0.0198547 0.0200989 0.0203255 0.0205343 0.0207255 0.02091 0.021099 0.0212925 0.0214904 0.0216927 0.0218994 0.0221107 0.0223263 0.0225524 0.0227947 0.0230534 0.0233284 0.0236197 0.0239273 0.0242513 0.0245915 0.0249428 0.0252999 0.0256627 0.0260312 0.0264054 0.0267854 0.0271712 0.0275627 0.0279447 0.0283022 0.0286351 0.0289434 0.0292272 0.0294863 0.0297209 0.0299309 0.0300998 0.0302113 0.0302653 0.0302619 0.030201 0.0300826 0.0299068 0.0296735 0.0293761 0.0290083 0.0285698 0.0280608 0.0274812 0.026831 0.0261103 0.025319 0.0244683 0.0235694 0.0226221 0.0216266 0.0205829 0.0194908 0.0183505 0.0171619 0.0159557 0.0147624 0.0135821 0.0124148 0.0112604 0.010119 0.00899049 0.00787497 0.00680839 0.0058267 0.00492991 0.00411801 0.00339102 0.00274892 0.00219172 0.00171942 0.00131643 0.000967172 0.000671647 0.000429854 0.000241793 0.000107464 2.68659e-05 0 0 1.77424e-05 7.09695e-05 0.000159681 0.000283878 0.00044356 0.000638726 0.000869377 0.00113551 0.00145215 0.00183432 0.00228201 0.00279523 0.00337398 0.00401825 0.00472805 0.00550337 0.00632026 0.00715474 0.00800683 0.00887651 0.00976379 0.0106687 0.0115911 0.0125312 0.0134664 0.0143743 0.0152548 0.016108 0.0169338 0.0177323 0.0185034 0.0192472 0.0199575 0.0206282 0.0212593 0.0218508 0.0224027 0.0229149 0.0233876 0.0238206 0.0242226 0.024602 0.0249588 0.0252931 0.0256048 0.025894 0.0261605 0.0264046 0.02664 0.0268809 0.0271272 0.0273789 0.0276361 0.0278987 0.0281667 0.0284402 0.0287265 0.0290334 0.0293607 0.0297085 0.0300767 0.0304654 0.0308746 0.0313042 0.0317476 0.0321982 0.0326558 0.0331206 0.0335925 0.0340714 0.0345575 0.0350507 0.0355319 0.0359819 0.0364006 0.0367881 0.0371444 0.0374696 0.0377635 0.0380261 0.0382368 0.0383748 0.03844 0.0384324 0.0383521 0.038199 0.0379731 0.0376745 0.0372949 0.036826 0.0362678 0.0356203 0.0348836 0.0340576 0.0331424 0.0321378 0.0310581 0.0299174 0.0287157 0.0274529 0.0261291 0.0247443 0.0232985 0.0217916 0.0202624 0.0187495 0.0172528 0.0157725 0.0143085 0.0128607 0.0114293 0.0100141 0.00866081 0.00741483 0.00627618 0.00524488 0.00432092 0.00350429 0.00279501 0.00219307 0.00167907 0.0012336 0.00085667 0.000548269 0.000308401 0.000137067 3.42668e-05 0 0 2.25755e-05 9.0302e-05 0.00020318 0.000361208 0.000564388 0.000812718 0.0011062 0.00144483 0.00184665 0.0023297 0.00289397 0.00353947 0.0042662 0.00507415 0.00596333 0.00693373 0.00795555 0.00899897 0.010064 0.0111506 0.0122588 0.0133887 0.0145401 0.0157131 0.01688 0.0180131 0.0191123 0.0201776 0.0212091 0.0222067 0.0231705 0.0241004 0.0249888 0.0258279 0.0266179 0.0273587 0.0280503 0.0286928 0.029286 0.02983 0.0303353 0.0308122 0.0312608 0.0316811 0.0320731 0.0324367 0.032772 0.033079 0.0333749 0.033677 0.0339852 0.0342995 0.03462 0.0349467 0.0352795 0.0356185 0.0359729 0.0363521 0.036756 0.0371846 0.037638 0.0381161 0.038619 0.0391465 0.0396907 0.0402432 0.040804 0.0413732 0.0419508 0.0425367 0.043131 0.0437336 0.044321 0.0448697 0.0453795 0.0458505 0.0462827 0.0466761 0.0470307 0.0473465 0.047598 0.0477596 0.0478312 0.0478129 0.0477048 0.0475067 0.0472187 0.0468408 0.0463629 0.0457749 0.0450768 0.0442686 0.0433503 0.0423218 0.0411833 0.0399346 0.0385933 0.0371769 0.0356853 0.0341185 0.0324765 0.0307594 0.0289672 0.0270997 0.0252046 0.0233293 0.0214739 0.0196383 0.0178225 0.0160265 0.0142504 0.0124941 0.0108139 0.00926586 0.00785005 0.00656647 0.0054151 0.00439596 0.00350904 0.00275434 0.00210879 0.00154932 0.00107592 0.000688586 0.000387329 0.000172146 4.30366e-05 0 0 2.83262e-05 0.000113305 0.000254936 0.000453219 0.000708155 0.00101974 0.00138798 0.00181288 0.00231549 0.00291688 0.00361705 0.00441599 0.00531372 0.00631023 0.00740552 0.00859959 0.00985602 0.0111384 0.0124467 0.013781 0.0151413 0.0165274 0.0179396 0.0193777 0.0208082 0.0221976 0.0235459 0.024853 0.0261191 0.027344 0.0285278 0.0296705 0.0307627 0.0317949 0.0327671 0.0336794 0.0345317 0.035324 0.0360564 0.0367288 0.0373537 0.0379437 0.0384987 0.0390187 0.0395037 0.0399537 0.0403688 0.0407488 0.0411147 0.0414872 0.0418664 0.0422521 0.0426445 0.0430435 0.0434491 0.0438614 0.0442915 0.0447508 0.0452392 0.0457568 0.0463035 0.0468793 0.0474843 0.0481185 0.0487719 0.0494348 0.0501072 0.0507891 0.0514805 0.0521813 0.0528916 0.0536113 0.0543121 0.0549656 0.0555717 0.0561305 0.0566419 0.057106 0.0575227 0.0578921 0.0581833 0.0583656 0.058439 0.0584036 0.0582592 0.0580058 0.0576436 0.0571725 0.0565804 0.0558552 0.0549969 0.0540056 0.0528812 0.0516237 0.0502331 0.0487095 0.047074 0.0453478 0.0435309 0.0416233 0.0396251 0.0375361 0.0353565 0.0330862 0.0307823 0.028502 0.0262453 0.0240121 0.0218025 0.0196164 0.0174539 0.015315 0.0132676 0.0113798 0.00965152 0.00808278 0.00667357 0.00542391 0.0043338 0.00340322 0.00260559 0.00191431 0.00132938 0.000850805 0.000478578 0.000212701 5.31753e-05 0 0 3.49945e-05 0.000139978 0.000314951 0.000559913 0.000874863 0.0012598 0.00171473 0.00223965 0.00285866 0.00359585 0.00445123 0.00542479 0.00651655 0.00772649 0.00905461 0.0105009 0.0120217 0.013573 0.0151551 0.0167677 0.018411 0.020085 0.0217896 0.0235248 0.0252509 0.0269277 0.0285555 0.0301342 0.0316637 0.0331441 0.0345754 0.0359576 0.0372793 0.038529 0.0397068 0.0408127 0.0418467 0.0428087 0.0436989 0.0445171 0.045278 0.0459965 0.0466724 0.0473058 0.0478966 0.048445 0.0489507 0.049414 0.0498594 0.0503117 0.0507708 0.0512367 0.0517095 0.0521891 0.0526755 0.0531688 0.0536823 0.0542295 0.0548104 0.055425 0.0560732 0.0567551 0.0574707 0.05822 0.0589914 0.0597732 0.0605655 0.0613682 0.0621814 0.0630051 0.0638392 0.0646838 0.0655052 0.0662697 0.0669774 0.0676282 0.0682221 0.0687592 0.0692394 0.0696627 0.0699927 0.070193 0.0702635 0.0702042 0.0700152 0.0696964 0.0692478 0.0686695 0.0679472 0.0670667 0.0660281 0.0648313 0.0634763 0.0619632 0.0602919 0.0584624 0.0565001 0.0544301 0.0522526 0.0499675 0.0475748 0.0450745 0.0424666 0.0397511 0.0369956 0.0342675 0.031567 0.0288939 0.0262484 0.0236303 0.0210398 0.0184767 0.016022 0.0137567 0.0116806 0.00979381 0.00809633 0.00658816 0.00526928 0.00413971 0.00316946 0.00232858 0.00161707 0.00103493 0.000582146 0.000258732 6.46829e-05 0 0 4.25805e-05 0.000170322 0.000383224 0.000681287 0.00106451 0.0015329 0.00208644 0.00272515 0.00347616 0.00436662 0.00539652 0.00656588 0.00787468 0.00932292 0.0109106 0.0126378 0.0144525 0.0163029 0.0181889 0.0201107 0.0220682 0.0240613 0.0260901 0.0281546 0.030208 0.0322036 0.0341413 0.0360211 0.037843 0.0396071 0.0413133 0.0429617 0.0445385 0.0460304 0.0474371 0.0487588 0.0499954 0.0511469 0.0522134 0.0531948 0.0541081 0.0549705 0.055782 0.0565424 0.0572519 0.0579105 0.058518 0.0590746 0.0596091 0.0601503 0.0606984 0.0612533 0.0618149 0.0623834 0.0629586 0.0635407 0.0641453 0.0647882 0.0654695 0.0661892 0.0669471 0.0677435 0.0685782 0.0694512 0.070349 0.0712582 0.0721787 0.0731106 0.0740537 0.0750082 0.075974 0.0769511 0.0779003 0.078782 0.0795965 0.0803436 0.0810233 0.0816357 0.0821808 0.0826585 0.0830263 0.0832417 0.0833045 0.0832149 0.0829729 0.0825783 0.0820313 0.0813318 0.0804633 0.0794095 0.0781703 0.0767457 0.0751357 0.0733403 0.0713595 0.0691933 0.0668715 0.0644239 0.0618503 0.0591509 0.0563256 0.0533744 0.0502973 0.0470944 0.0438443 0.0406259 0.0374391 0.0342839 0.0311603 0.0280683 0.025008 0.0219793 0.0190771 0.0163964 0.0139372 0.0116996 0.00968338 0.00788869 0.0063155 0.0049638 0.00380041 0.00279214 0.00193898 0.00124095 0.000698034 0.000310238 7.75594e-05 0 0 5.1084e-05 0.000204336 0.000459756 0.000817343 0.0012771 0.00183902 0.00250311 0.00326937 0.004168 0.00522918 0.00645293 0.00783924 0.00938811 0.0110995 0.0129735 0.0150101 0.0171485 0.0193279 0.0215484 0.02381 0.0261126 0.0284564 0.0308412 0.033267 0.0356798 0.0380251 0.0403031 0.0425137 0.044657 0.0467329 0.0487415 0.0506827 0.0525405 0.0542989 0.0559579 0.0575175 0.0589777 0.0603385 0.0615999 0.0627619 0.0638441 0.0648659 0.0658274 0.0667287 0.0675696 0.0683502 0.0690705 0.0697305 0.0703636 0.0710032 0.0716493 0.0723019 0.0729609 0.0736265 0.0742985 0.0749771 0.0756804 0.0764269 0.0772166 0.0780494 0.0789253 0.0798444 0.0808066 0.081812 0.0828449 0.08389 0.084947 0.0860162 0.0870973 0.0881906 0.0892959 0.0904133 0.0914973 0.0925025 0.0934289 0.0942766 0.0950455 0.0957356 0.0963469 0.0968794 0.097284 0.0975116 0.0975622 0.0974357 0.0971322 0.0966516 0.095994 0.0951594 0.0941289 0.0928836 0.0914236 0.0897488 0.0878593 0.0857551 0.0834361 0.0809023 0.0781884 0.075329 0.0723241 0.0691736 0.0658775 0.0624359 0.0588488 0.0551161 0.0513286 0.0475771 0.0438615 0.0401818 0.0365381 0.0329303 0.0293585 0.0258226 0.0224328 0.0192991 0.0164215 0.0138 0.0114347 0.00932552 0.00747245 0.00587551 0.00449843 0.00330497 0.00229512 0.00146888 0.000826243 0.000367219 9.18048e-05 0 0 6.05051e-05 0.00024202 0.000544546 0.000968081 0.00151263 0.00217818 0.00296475 0.00387233 0.00493417 0.00618355 0.00762045 0.00924488 0.0110568 0.0130563 0.0152434 0.0176179 0.0201096 0.0226481 0.0252334 0.0278656 0.0305445 0.0332702 0.0360427 0.0388621 0.041666 0.0443923 0.047041 0.0496122 0.0521057 0.0545216 0.0568599 0.0591206 0.0612851 0.0633346 0.0652693 0.067089 0.0687937 0.0703836 0.0718585 0.0732185 0.0744858 0.0756826 0.0768088 0.0778645 0.0788496 0.0797642 0.0806083 0.0813818 0.0821231 0.0828703 0.0836234 0.0843824 0.0851474 0.0859184 0.0866952 0.087478 0.0882878 0.0891457 0.0900516 0.0910056 0.0920077 0.0930579 0.0941561 0.0953024 0.096479 0.0976684 0.0988703 0.100085 0.101312 0.102552 0.103805 0.10507 0.106296 0.107431 0.108475 0.109427 0.110289 0.111059 0.111738 0.112325 0.112766 0.113003 0.113036 0.112867 0.112493 0.111916 0.111136 0.110152 0.108944 0.107489 0.105788 0.103841 0.101647 0.0992075 0.0965215 0.0935894 0.0904508 0.0871456 0.0836739 0.0800355 0.0762306 0.072259 0.0681209 0.0638162 0.0594484 0.0551211 0.0508342 0.0465878 0.0423819 0.0382164 0.0340914 0.0300069 0.0260892 0.0224647 0.0191333 0.0160952 0.0133503 0.0108986 0.00874012 0.00687482 0.00526353 0.00386709 0.00268548 0.0017187 0.000966771 0.000429676 0.000107419 0 0 7.08438e-05 0.000283375 0.000637594 0.0011335 0.00177109 0.00255038 0.00347135 0.004534 0.00577468 0.0072297 0.00889908 0.0107828 0.0128809 0.0151933 0.0177201 0.0204612 0.0233359 0.0262636 0.0292441 0.0322774 0.0353637 0.0385028 0.0416948 0.0449397 0.0481667 0.0513052 0.0543551 0.0573163 0.060189 0.0629731 0.0656686 0.0682756 0.0707724 0.0731376 0.0753712 0.0774731 0.0794434 0.0812821 0.0829892 0.0845646 0.0860334 0.0874205 0.088726 0.0899498 0.091092 0.0921525 0.0931313 0.0940285 0.0948875 0.0957515 0.0966207 0.097495 0.0983745 0.099259 0.100149 0.101043 0.101967 0.102944 0.103975 0.105058 0.106194 0.107384 0.108627 0.109922 0.111251 0.112593 0.113949 0.115317 0.116699 0.118093 0.119501 0.120922 0.122297 0.123568 0.124734 0.125796 0.126753 0.127605 0.128353 0.128997 0.129472 0.129715 0.129727 0.129507 0.129056 0.128372 0.127457 0.126311 0.124908 0.123226 0.121263 0.119021 0.116499 0.113697 0.110616 0.107254 0.103659 0.0998736 0.0958997 0.0917367 0.0873848 0.0828438 0.0781137 0.0731947 0.0682037 0.0632579 0.0583573 0.0535019 0.0486916 0.0439266 0.0392067 0.034532 0.0300462 0.0258931 0.0220728 0.0185852 0.0154302 0.012608 0.0101185 0.00796174 0.00609571 0.00447848 0.00311006 0.00199044 0.00111962 0.000497609 0.000124402 0 0 8.1926e-05 0.000327704 0.000737334 0.00131082 0.00204815 0.00294934 0.00401437 0.00524326 0.00667539 0.00835014 0.0102675 0.0124275 0.0148301 0.0174754 0.0203633 0.0234938 0.0267752 0.0301157 0.0335154 0.0369743 0.0404923 0.0440694 0.0477057 0.0514012 0.0550761 0.0586509 0.0621255 0.0655 0.0687743 0.0719484 0.0750224 0.0779962 0.0808452 0.083545 0.0860955 0.0884966 0.0907485 0.092851 0.0948043 0.0966083 0.0982908 0.0998797 0.101375 0.102777 0.104085 0.105299 0.10642 0.107447 0.108429 0.109415 0.110405 0.111399 0.112396 0.113398 0.114403 0.115412 0.116452 0.11755 0.118706 0.11992 0.121192 0.122522 0.12391 0.125356 0.126838 0.128334 0.129842 0.131365 0.1329 0.134449 0.136012 0.137588 0.139111 0.140516 0.141803 0.142971 0.144021 0.144952 0.145765 0.14646 0.146965 0.147208 0.147191 0.146913 0.146375 0.145575 0.144514 0.143193 0.141583 0.13966 0.137421 0.134869 0.132001 0.12882 0.125324 0.121513 0.117439 0.113153 0.108655 0.103945 0.0990225 0.0938881 0.0885415 0.0829828 0.0773431 0.0717534 0.0662136 0.0607238 0.055284 0.0498943 0.0445545 0.0392646 0.0341866 0.0294823 0.0251516 0.0211945 0.0176111 0.0144013 0.0115652 0.00910269 0.00696925 0.00512026 0.00355574 0.00227567 0.00128007 0.000568918 0.00014223 0 0 9.35775e-05 0.00037431 0.000842198 0.00149724 0.00233944 0.00336879 0.0045853 0.00598896 0.00762218 0.00952735 0.0117045 0.0141536 0.0168746 0.0198676 0.0231325 0.0266694 0.030375 0.0341461 0.0379827 0.0418847 0.0458522 0.0498852 0.0539837 0.0581477 0.0622883 0.0663167 0.0702329 0.0740369 0.0777288 0.0813084 0.0847759 0.0881311 0.0913465 0.0943941 0.097274 0.0999862 0.102531 0.104907 0.107116 0.109158 0.111062 0.11286 0.114551 0.116136 0.117615 0.118987 0.120253 0.121412 0.122519 0.123628 0.124739 0.125852 0.126967 0.128083 0.129201 0.130321 0.131474 0.132689 0.133966 0.135306 0.136708 0.138172 0.1397 0.141289 0.142917 0.144558 0.146212 0.14788 0.149562 0.151257 0.152965 0.154687 0.15635 0.15788 0.159278 0.160544 0.161677 0.162677 0.163546 0.164282 0.164806 0.165041 0.164985 0.16464 0.164004 0.163079 0.161863 0.160357 0.158532 0.156357 0.153834 0.150961 0.14774 0.144169 0.14025 0.135981 0.13142 0.126625 0.121594 0.116328 0.110826 0.10509 0.0991185 0.0929119 0.0866152 0.0803732 0.074186 0.0680535 0.0619759 0.055953 0.049985 0.0440717 0.0383933 0.0331299 0.0282815 0.023848 0.0198296 0.0162261 0.0130376 0.0102641 0.00785844 0.00577354 0.00400941 0.00256602 0.00144339 0.000641505 0.000160376 0 0 0.000105798 0.000423194 0.000952185 0.00169277 0.00264496 0.00380874 0.00518412 0.0067711 0.00861504 0.0107613 0.0132099 0.0159609 0.0190142 0.0223698 0.0260278 0.0299881 0.0341355 0.0383547 0.0426458 0.0470088 0.0514436 0.0559503 0.0605288 0.0651792 0.0698031 0.0743025 0.0786771 0.0829271 0.0870524 0.0910531 0.0949291 0.0986805 0.102276 0.105685 0.108907 0.111942 0.11479 0.117451 0.119926 0.122213 0.124347 0.126361 0.128256 0.13003 0.131684 0.133218 0.134632 0.135926 0.137159 0.138392 0.139624 0.140855 0.142086 0.143315 0.144544 0.145772 0.147033 0.148361 0.149754 0.151215 0.152741 0.154335 0.155994 0.15772 0.159486 0.161265 0.163058 0.164864 0.166683 0.168516 0.170361 0.172221 0.174013 0.175659 0.177159 0.178513 0.17972 0.18078 0.181694 0.182462 0.182997 0.183213 0.183109 0.182686 0.181945 0.180883 0.179503 0.177804 0.175753 0.173318 0.1705 0.167299 0.163714 0.159746 0.155394 0.150658 0.145602 0.140288 0.134715 0.128885 0.122796 0.11645 0.109845 0.102982 0.0960199 0.0891173 0.0822744 0.075491 0.0687672 0.0621029 0.0554982 0.0489531 0.0426662 0.0368359 0.0314624 0.0265457 0.0220856 0.0180823 0.0145358 0.0114459 0.00876327 0.00643832 0.00447106 0.00286148 0.00160958 0.000715369 0.000178842 0 0 0.000118589 0.000474354 0.0010673 0.00189742 0.00296471 0.00426919 0.00581084 0.00758967 0.00965398 0.0120521 0.0147839 0.0178495 0.0212489 0.0249821 0.0290491 0.0334498 0.0380566 0.0427416 0.0475049 0.0523465 0.0572664 0.0622646 0.067341 0.0724957 0.0776208 0.0826083 0.0874582 0.0921705 0.0967453 0.101183 0.105482 0.109644 0.113634 0.117417 0.120994 0.124363 0.127526 0.130482 0.133232 0.135774 0.138147 0.140384 0.142487 0.144456 0.14629 0.14799 0.149555 0.150986 0.152348 0.153706 0.155059 0.156408 0.157754 0.159095 0.160432 0.161764 0.16313 0.164566 0.166072 0.167647 0.169293 0.171009 0.172794 0.17465 0.176547 0.178457 0.18038 0.182315 0.184264 0.186225 0.1882 0.190187 0.192101 0.193854 0.195446 0.196878 0.19815 0.199261 0.200211 0.201001 0.201537 0.201724 0.201563 0.201053 0.200196 0.19899 0.197435 0.195532 0.193246 0.190543 0.187421 0.183882 0.179924 0.175549 0.170756 0.165545 0.159984 0.154142 0.14802 0.141617 0.134932 0.127967 0.12072 0.113193 0.105557 0.0979859 0.0904789 0.0830362 0.0756579 0.0683439 0.0610942 0.0539089 0.0470052 0.0406004 0.0346945 0.0292875 0.0243793 0.01997 0.0160597 0.0126482 0.00968376 0.0071146 0.0049407 0.00316205 0.00177865 0.000790511 0.000197628 0 0 0.000131948 0.000527793 0.00118753 0.00211117 0.0032987 0.00475013 0.00646546 0.00844468 0.010739 0.0133996 0.0164264 0.0198195 0.0235789 0.0277045 0.0321964 0.0370546 0.0421383 0.0473067 0.0525599 0.0578979 0.0633206 0.0688281 0.0744203 0.0800972 0.0857411 0.0912341 0.0965761 0.101767 0.106807 0.111697 0.116435 0.121022 0.125421 0.129591 0.133535 0.137251 0.14074 0.144001 0.147035 0.149842 0.15246 0.154928 0.157247 0.159416 0.161435 0.163305 0.165025 0.166595 0.168086 0.169569 0.171044 0.172511 0.17397 0.175421 0.176863 0.178298 0.179765 0.181305 0.182918 0.184604 0.186363 0.188195 0.1901 0.192078 0.194099 0.196132 0.198177 0.200235 0.202305 0.204387 0.206481 0.208588 0.210613 0.212464 0.21414 0.215641 0.216968 0.21812 0.219097 0.219899 0.220426 0.220575 0.220346 0.219741 0.218757 0.217397 0.215659 0.213543 0.211013 0.208031 0.204596 0.200709 0.19637 0.191579 0.186336 0.18064 0.174566 0.168189 0.161508 0.154523 0.147234 0.139641 0.131745 0.123545 0.115227 0.106979 0.0987994 0.0906891 0.082648 0.0746759 0.0667729 0.0589391 0.0514105 0.0444233 0.0379776 0.0320734 0.0267106 0.0218892 0.0176093 0.0138709 0.0106199 0.00780238 0.00541832 0.00346772 0.00195059 0.000866931 0.000216733 0 0 0.000145877 0.000583508 0.00131289 0.00233403 0.00364693 0.00525157 0.00714798 0.00933613 0.0118701 0.0148038 0.0181374 0.0218708 0.026004 0.030537 0.0354698 0.0408024 0.0463806 0.0520501 0.0578108 0.0636629 0.0696062 0.0756408 0.0817667 0.0879838 0.0941642 0.10018 0.106031 0.111717 0.117239 0.122595 0.127788 0.132815 0.137635 0.142207 0.14653 0.150605 0.15443 0.158007 0.161335 0.164414 0.167287 0.169993 0.172534 0.174908 0.177118 0.179161 0.181039 0.182751 0.184373 0.185983 0.18758 0.189164 0.190736 0.192294 0.19384 0.195373 0.196937 0.198577 0.200292 0.202083 0.20395 0.205893 0.207911 0.210005 0.212142 0.214291 0.216451 0.218622 0.220805 0.222999 0.225205 0.227422 0.22955 0.231489 0.233239 0.2348 0.236173 0.237356 0.238351 0.239156 0.239664 0.239765 0.23946 0.238748 0.23763 0.236105 0.234174 0.231837 0.229053 0.225782 0.222026 0.217782 0.213053 0.207836 0.202134 0.195945 0.189349 0.182427 0.175179 0.167604 0.159702 0.151474 0.142919 0.134038 0.12503 0.116096 0.107236 0.0984498 0.0897375 0.081099 0.0725344 0.0640436 0.0558819 0.0483047 0.0413119 0.0349035 0.0290795 0.0238399 0.0191848 0.0151141 0.0115717 0.00850165 0.00590393 0.00377851 0.00212541 0.000944628 0.000236157 0 0 0.000160375 0.000641501 0.00144338 0.002566 0.00400938 0.00577351 0.00785839 0.010264 0.0130472 0.0162649 0.0199169 0.0240034 0.0285242 0.0334795 0.0388692 0.0446933 0.0507836 0.0569717 0.0632577 0.0696415 0.0761232 0.0827027 0.0893801 0.0961554 0.10289 0.109446 0.115823 0.12202 0.128039 0.133879 0.13954 0.145022 0.150279 0.155265 0.15998 0.164424 0.168598 0.172501 0.176132 0.179493 0.182627 0.185579 0.188348 0.190934 0.193338 0.195559 0.197598 0.199454 0.20121 0.202947 0.204666 0.206367 0.20805 0.209714 0.211361 0.212989 0.214646 0.216382 0.218195 0.220087 0.222056 0.224103 0.226227 0.22843 0.230676 0.232933 0.2352 0.237477 0.239765 0.242063 0.244371 0.246689 0.248911 0.250929 0.252745 0.254357 0.255765 0.256971 0.257973 0.258771 0.259251 0.259295 0.258903 0.258076 0.256813 0.255115 0.252982 0.250