<?xml version="1.0"?> 
<VTKFile type="StructuredGrid" version="0.1"> 
<StructuredGrid WholeExtent="0 128 0 128 0 0"> 
<Piece Extent="0 128 0 128 0 0"> 
<PointData>
<DataArray type="Float32" Name="u" format="ascii" NumberOfComponents="1"> 
0 0 0 0 0 0 0 0 0 0 0 0 0 0 0 0 0 0 0 0 0 0 0 0 0 0 0 0 0 0 0 0 0 0 0 0 0 0 0 0 0 0 0 0 0 0 0 0 0 0 0 0 0 0 0 0 0 0 0 0 0 0 0 0 0 0 0 0 0 0 0 0 0 0 0 0 0 0 0 0 0 0 0 0 0 0 0 0 0 0 0 0 0 0 0 0 0 0 0 0 0 0 0 0 0 0 0 0 0 0 0 0 0 0 0 0 0 0 0 0 0 0 0 0 0 0 0 0 0 0 2.6234e-07 1.04936e-06 2.36106e-06 4.19744e-06 6.55849e-06 9.44423e-06 1.28546e-05 1.67897e-05 2.15181e-05 2.73082e-05 3.416e-05 4.20736e-05 5.1049e-05 6.10862e-05 7.21851e-05 8.43458e-05 9.71049e-05 0.000109999 0.000123028 0.000136193 0.000149492 0.000162926 0.000176496 0.0001902 0.000203547 0.000216045 0.000227693 0.000238491 0.000248439 0.000257538 0.000265787 0.000273186 0.000279632 0.000285021 0.000289352 0.000292626 0.000294844 0.000296004 0.000296106 0.000295152 0.000293488 0.000291462 0.000289075 0.000286325 0.000283214 0.00027974 0.000275905 0.000271708 0.000267707 0.000264458 0.000261963 0.00026022 0.000259231 0.000258995 0.000259511 0.000260781 0.000263137 0.000266914 0.000272111 0.000278728 0.000286766 0.000296224 0.000307102 0.0003194 0.000332909 0.000347418 0.000362926 0.000379436 0.000396945 0.000415454 0.000434964 0.000455474 0.00047629 0.00049672 0.000516763 0.000536419 0.000555689 0.000574572 0.000593068 0.000611178 0.000628154 0.000643252 0.000656471 0.000667811 0.000677272 0.000684854 0.000690557 0.000694381 0.000696025 0.00069519 0.000691876 0.000686082 0.000677809 0.000667056 0.000653823 0.000638111 0.000620297 0.000600756 0.000579489 0.000556496 0.000531777 0.000505333 0.000477162 0.000447265 0.000416601 0.000386127 0.000355844 0.000325752 0.00029585 0.000266139 0.000236619 0.000207289 0.000179176 0.000153305 0.000129677 0.000108292 8.91491e-05 7.22487e-05 5.7591e-05 4.51758e-05 3.45877e-05 2.54114e-05 1.76468e-05 1.12939e-05 6.35284e-06 2.82348e-06 7.05871e-07 0 0 1.04936e-06 4.19744e-06 9.44423e-06 1.67897e-05 2.6234e-05 3.77769e-05 5.14186e-05 6.7159e-05 8.60723e-05 0.000109233 0.00013664 0.000168295 0.000204196 0.000244345 0.000288741 0.000337383 0.00038842 0.000439996 0.000492113 0.00054477 0.000597968 0.000651705 0.000705983 0.000760801 0.000814189 0.000864179 0.00091077 0.000953962 0.000993756 0.00103015 0.00106315 0.00109274 0.00111853 0.00114008 0.00115741 0.00117051 0.00117937 0.00118401 0.00118443 0.00118061 0.00117395 0.00116585 0.0011563 0.0011453 0.00113285 0.00111896 0.00110362 0.00108683 0.00107083 0.00105783 0.00104785 0.00104088 0.00103692 0.00103598 0.00103805 0.00104312 0.00105255 0.00106766 0.00108844 0.00111491 0.00114706 0.00118489 0.00122841 0.0012776 0.00133163 0.00138967 0.00145171 0.00151774 0.00158778 0.00166182 0.00173986 0.00182189 0.00190516 0.00198688 0.00206705 0.00214568 0.00222276 0.00229829 0.00237227 0.00244471 0.00251262 0.00257301 0.00262588 0.00267124 0.00270909 0.00273941 0.00276223 0.00277752 0.0027841 0.00278076 0.0027675 0.00274433 0.00271124 0.00266822 0.00261529 0.00255245 0.00248119 0.00240302 0.00231796 0.00222598 0.00212711 0.00202133 0.00190865 0.00178906 0.0016664 0.00154451 0.00142338 0.00130301 0.0011834 0.00106456 0.000946475 0.000829156 0.000716704 0.000613222 0.00051871 0.000433168 0.000356596 0.000288995 0.000230364 0.000180703 0.000138351 0.000101645 7.05871e-05 4.51758e-05 2.54114e-05 1.12939e-05 2.82348e-06 0 0 2.36106e-06 9.44423e-06 2.12495e-05 3.77769e-05 5.90264e-05 8.49981e-05 0.000115692 0.000151108 0.000193663 0.000245773 0.00030744 0.000378663 0.000459441 0.000549776 0.000649666 0.000759113 0.000873945 0.000989992 0.00110725 0.00122573 0.00134543 0.00146634 0.00158846 0.0017118 0.00183193 0.0019444 0.00204923 0.00214642 0.00223595 0.00231784 0.00239208 0.00245867 0.00251669 0.00256518 0.00260417 0.00263364 0.00265359 0.00266403 0.00266496 0.00265637 0.00264139 0.00262316 0.00260167 0.00257693 0.00254892 0.00251766 0.00248315 0.00244537 0.00240936 0.00238012 0.00235766 0.00234198 0.00233308 0.00233095 0.0023356 0.00234703 0.00236824 0.00240223 0.002449 0.00250856 0.00258089 0.00266601 0.00276392 0.0028746 0.00299618 0.00312676 0.00326634 0.00341492 0.0035725 0.00373909 0.00391467 0.00409926 0.00428661 0.00447048 0.00465087 0.00482777 0.0050012 0.00517115 0.00533761 0.0055006 0.00565339 0.00578927 0.00590824 0.0060103 0.00609544 0.00616368 0.00621501 0.00624942 0.00626423 0.00625671 0.00622689 0.00617474 0.00610028 0.0060035 0.00588441 0.005743 0.00558267 0.0054068 0.0052154 0.00500847 0.004786 0.00454799 0.00429446 0.00402539 0.00374941 0.00347515 0.0032026 0.00293177 0.00266265 0.00239525 0.00212957 0.0018656 0.00161258 0.00137975 0.0011671 0.000974628 0.000802342 0.000650239 0.000518319 0.000406582 0.000311289 0.000228702 0.000158821 0.000101645 5.71756e-05 2.54114e-05 6.35284e-06 0 0 4.19744e-06 1.67897e-05 3.77769e-05 6.7159e-05 0.000104936 0.000151108 0.000205674 0.000268636 0.000344289 0.00043693 0.00054656 0.000673178 0.000816785 0.000977379 0.00115496 0.00134953 0.00155368 0.00175999 0.00196845 0.00217908 0.00239187 0.00260682 0.00282393 0.0030432 0.00325676 0.00345672 0.00364308 0.00381585 0.00397502 0.0041206 0.00425259 0.00437098 0.00447411 0.00456033 0.00462963 0.00468202 0.0047175 0.00473606 0.0047377 0.00472243 0.00469581 0.0046634 0.00462519 0.0045812 0.00453142 0.00447585 0.00441448 0.00434733 0.00428331 0.00423133 0.0041914 0.00416353 0.0041477 0.00414391 0.00415218 0.0041725 0.0042102 0.00427063 0.00435378 0.00445965 0.00458825 0.00473958 0.00491363 0.0051104 0.00532654 0.00555868 0.00580682 0.00607097 0.00635112 0.00664727 0.00695942 0.00728758 0.00762064 0.00794752 0.00826821 0.00858271 0.00889102 0.00919315 0.00948909 0.00977884 0.0100505 0.010292 0.0105035 0.010685 0.0108363 0.0109577 0.0110489 0.0111101 0.0111364 0.011123 0.01107 0.0109773 0.0108449 0.0106729 0.0104612 0.0102098 0.00992474 0.00961209 0.00927182 0.00890394 0.00850844 0.00808532 0.00763459 0.00715625 0.00666562 0.00617804 0.00569351 0.00521203 0.0047336 0.00425823 0.0037859 0.00331662 0.00286682 0.00245289 0.00207484 0.00173267 0.00142639 0.00115598 0.000921456 0.000722812 0.000553403 0.000406582 0.000282348 0.000180703 0.000101645 4.51758e-05 1.12939e-05 0 0 6.55849e-06 2.6234e-05 5.90264e-05 0.000104936 0.000163962 0.000236106 0.000321366 0.000419744 0.000537952 0.000682704 0.000854 0.00105184 0.00127623 0.00152716 0.00180463 0.00210865 0.00242762 0.00274998 0.00307571 0.00340481 0.0037373 0.00407316 0.00441239 0.004755 0.00508868 0.00540112 0.00569231 0.00596226 0.00621097 0.00643844 0.00664467 0.00682965 0.0069908 0.00712551 0.0072338 0.00731566 0.00737109 0.00740009 0.00740266 0.0073788 0.0073372 0.00728656 0.00722687 0.00715813 0.00708034 0.00699351 0.00689763 0.0067927 0.00669267 0.00661145 0.00654907 0.00650551 0.00648077 0.00647487 0.00648778 0.00651953 0.00657844 0.00667285 0.00680278 0.00696821 0.00716915 0.00740559 0.00767754 0.007985 0.00832272 0.00868544 0.00907316 0.00948589 0.00992362 0.0103864 0.0108741 0.0113868 0.0119073 0.012418 0.0129191 0.0134105 0.0138922 0.0143643 0.0148267 0.0152794 0.0157039 0.0160813 0.0164118 0.0166953 0.0169318 0.0171213 0.0172639 0.0173595 0.0174006 0.0173798 0.0172969 0.0171521 0.0169452 0.0166764 0.0163456 0.0159528 0.0155074 0.0150189 0.0144872 0.0139124 0.0132944 0.0126333 0.0119291 0.0111816 0.010415 0.00965318 0.00889611 0.0081438 0.00739625 0.00665348 0.00591547 0.00518223 0.0044794 0.00383263 0.00324194 0.0027073 0.00222873 0.00180622 0.00143977 0.00112939 0.000864692 0.000635284 0.00044117 0.000282348 0.000158821 7.05871e-05 1.76468e-05 0 0 9.44423e-06 3.77769e-05 8.49981e-05 0.000151108 0.000236106 0.000339992 0.000462767 0.000604431 0.00077465 0.000983094 0.00122976 0.00151465 0.00183777 0.0021991 0.00259866 0.00303645 0.00349578 0.00395997 0.00442902 0.00490293 0.00538171 0.00586535 0.00635384 0.00684721 0.0073277 0.00777761 0.00819693 0.00858566 0.0089438 0.00927136 0.00956832 0.00983469 0.0100667 0.0102607 0.0104167 0.0105345 0.0106144 0.0106561 0.0106598 0.0106255 0.0105656 0.0104926 0.0104067 0.0103077 0.0101957 0.0100707 0.00993259 0.00978149 0.00963744 0.00952049 0.00943066 0.00936793 0.00933232 0.00932381 0.00934241 0.00938812 0.00947295 0.00960891 0.009796 0.0100342 0.0103236 0.0106641 0.0110557 0.0114984 0.0119847 0.012507 0.0130654 0.0136597 0.01429 0.0149564 0.0156587 0.016397 0.0171464 0.0178819 0.0186035 0.0193111 0.0200048 0.0206846 0.0213505 0.0220024 0.0226136 0.0231571 0.023633 0.0240412 0.0243818 0.0246547 0.02486 0.0249977 0.0250569 0.0250269 0.0249075 0.024699 0.0244011 0.024014 0.0235376 0.022972 0.0223307 0.0216272 0.0208616 0.0200339 0.019144 0.018192 0.0171778 0.0161016 0.0149976 0.0139006 0.0128104 0.0117271 0.0106506 0.00958101 0.00851828 0.00746241 0.00645033 0.00551899 0.00466839 0.00389851 0.00320937 0.00260095 0.00207328 0.00162633 0.00124516 0.000914809 0.000635284 0.000406582 0.000228702 0.000101645 2.54114e-05 0 0 1.28546e-05 5.14186e-05 0.000115692 0.000205674 0.000321366 0.000462767 0.000629878 0.000822698 0.00105439 0.0013381 0.00167384 0.00206161 0.0025014 0.00299322 0.00353707 0.00413295 0.00475814 0.00538996 0.00602839 0.00667344 0.0073251 0.00798339 0.00864829 0.00931981 0.00997382 0.0105862 0.0111569 0.011686 0.0121735 0.0126193 0.0130235 0.0133861 0.013702 0.013966 0.0141782 0.0143387 0.0144473 0.0145042 0.0145092 0.0144624 0.0143809 0.0142817 0.0141647 0.0140299 0.0138775 0.0137073 0.0135194 0.0133137 0.0131176 0.0129585 0.0128362 0.0127508 0.0127023 0.0126907 0.0127161 0.0127783 0.0128937 0.0130788 0.0133334 0.0136577 0.0140515 0.014515 0.015048 0.0156506 0.0163125 0.0170235 0.0177834 0.0185923 0.0194503 0.0203573 0.0213132 0.0223182 0.0233382 0.0243393 0.0253214 0.0262845 0.0272288 0.028154 0.0290603 0.0299477 0.0307796 0.0315194 0.0321671 0.0327227 0.0331863 0.0335578 0.0338373 0.0340246 0.0341052 0.0340643 0.0339019 0.033618 0.0332126 0.0326857 0.0320373 0.0312675 0.0303945 0.029437 0.028395 0.0272683 0.0260571 0.0247613 0.0233809 0.021916 0.0204134 0.0189202 0.0174364 0.0159618 0.0144967 0.0130408 0.0115943 0.0101572 0.00877962 0.00751196 0.00635419 0.00530631 0.0043683 0.00354019 0.00282196 0.00221361 0.0016948 0.00124516 0.000864692 0.000553403 0.000311289 0.000138351 3.45877e-05 0 0 1.67897e-05 6.7159e-05 0.000151108 0.000268636 0.000419744 0.000604431 0.000822698 0.00107454 0.00137716 0.00174772 0.00218624 0.00269271 0.00326714 0.00390952 0.00461985 0.00539813 0.00621472 0.00703994 0.00787381 0.00871633 0.00956748 0.0104273 0.0112957 0.0121728 0.013027 0.0138269 0.0145723 0.0152634 0.0159001 0.0164824 0.0170103 0.0174839 0.0178964 0.0182413 0.0185185 0.0187281 0.01887 0.0189442 0.0189508 0.0188897 0.0187832 0.0186536 0.0185008 0.0183248 0.0181257 0.0179034 0.0176579 0.0173893 0.0171332 0.0169253 0.0167656 0.0166541 0.0165908 0.0165757 0.0166087 0.01669 0.0168408 0.0170825 0.0174151 0.0178386 0.018353 0.0189583 0.0196545 0.0204416 0.0213062 0.0222347 0.0232273 0.0242839 0.0254045 0.0265891 0.0278377 0.0291503 0.0304826 0.0317901 0.0330728 0.0343308 0.0355641 0.0367726 0.0379564 0.0391154 0.0402019 0.0411681 0.0420141 0.0427399 0.0433454 0.0438306 0.0441956 0.0444404 0.0445456 0.0444922 0.0442801 0.0439093 0.0433798 0.0426916 0.0418447 0.0408391 0.039699 0.0384484 0.0370873 0.0356158 0.0340338 0.0323413 0.0305384 0.028625 0.0266625 0.0247121 0.022774 0.0208481 0.0189344 0.0170329 0.0151436 0.0132665 0.0114673 0.00981155 0.00829935 0.00693069 0.00570554 0.00462392 0.00368582 0.00289125 0.00221361 0.00162633 0.00112939 0.000722812 0.000406582 0.000180703 4.51758e-05 0 0 2.16986e-05 8.67943e-05 0.000195287 0.000347177 0.000542464 0.000781149 0.00106323 0.00138871 0.00177904 0.00225566 0.00281859 0.00346781 0.00420333 0.00502515 0.00593327 0.00692769 0.00797063 0.0090243 0.0100887 0.0111639 0.0122497 0.0133464 0.0144537 0.0155718 0.0166608 0.0176806 0.0186314 0.0195131 0.0203257 0.0210693 0.0217437 0.0223491 0.022877 0.023319 0.023675 0.0239451 0.0241293 0.0242275 0.0242398 0.0241661 0.0240347 0.0238737 0.023683 0.0234627 0.0232128 0.0229332 0.022624 0.0222852 0.0219619 0.0216993 0.0214974 0.0213563 0.0212758 0.021256 0.0212969 0.0213986 0.0215879 0.0218921 0.0223111 0.022845 0.0234936 0.024257 0.0251353 0.0261284 0.0272193 0.0283911 0.0296438 0.0309774 0.0323919 0.0338874 0.0354637 0.0371209 0.0388029 0.0404536 0.042073 0.0436611 0.0452178 0.0467433 0.0482375 0.0497004 0.0510716 0.0522907 0.0533577 0.0542726 0.0550354 0.0556461 0.0561047 0.0564112 0.0565413 0.0564706 0.0561992 0.055727 0.055054 0.0541803 0.0531058 0.0518305 0.050385 0.0487995 0.0470743 0.0452091 0.0432041 0.0410593 0.0387746 0.0363501 0.0338632 0.0313913 0.0289345 0.0264928 0.0240662 0.0216546 0.0192581 0.0168766 0.0145934 0.0124916 0.0105712 0.00883224 0.00727468 0.00589853 0.0047038 0.00369047 0.00282552 0.00207589 0.00144159 0.000922618 0.000518973 0.000230655 5.76636e-05 0 0 2.80302e-05 0.000112121 0.000252272 0.000448483 0.000700755 0.00100909 0.00137348 0.00179393 0.00229609 0.00290562 0.0036225 0.00444674 0.00537834 0.0064173 0.00756362 0.0088173 0.010131 0.0114574 0.0127965 0.0141483 0.0155128 0.01689 0.0182799 0.0196825 0.0210484 0.0223284 0.0235224 0.0246304 0.0256525 0.0265886 0.0274387 0.0282028 0.0288705 0.0294313 0.0298852 0.0302321 0.0304721 0.0306051 0.0306313 0.0305505 0.0303975 0.0302071 0.0299792 0.0297139 0.0294111 0.0290709 0.0286932 0.0282781 0.0278813 0.0275586 0.0273101 0.0271357 0.0270354 0.0270092 0.0270572 0.0271793 0.027409 0.0277798 0.0282917 0.0289447 0.0297388 0.030674 0.0317504 0.0329678 0.0343056 0.0357429 0.0372798 0.0389162 0.0406522 0.0424877 0.0444228 0.0464574 0.0485225 0.050549 0.052537 0.0544863 0.0563971 0.0582692 0.0601028 0.0618978 0.0635797 0.0650742 0.0663811 0.0675006 0.0684326 0.0691771 0.0697341 0.0701036 0.0702556 0.0701599 0.0698166 0.0692256 0.068387 0.0673007 0.0659668 0.0643852 0.0625934 0.0606288 0.0584915 0.0561814 0.0536984 0.0510427 0.0482143 0.045213 0.0421341 0.0390728 0.0360291 0.0330029 0.0299942 0.0270032 0.0240297 0.0210737 0.0182382 0.015626 0.0132371 0.0110716 0.00912934 0.00741042 0.00591481 0.00464252 0.00355443 0.00261142 0.00181348 0.00116063 0.000652854 0.000290158 7.25394e-05 0 0 3.57846e-05 0.000143138 0.000322061 0.000572553 0.000894614 0.00128824 0.00175344 0.00229021 0.00292833 0.00369759 0.00459798 0.00562951 0.00679217 0.00808596 0.00951089 0.011067 0.0126959 0.0143393 0.0159972 0.0176697 0.0193567 0.0210582 0.0227742 0.0245047 0.02619 0.0277702 0.0292454 0.0306155 0.0318805 0.0330404 0.0340953 0.0350451 0.035877 0.0365783 0.037149 0.037589 0.0378984 0.0380772 0.0381253 0.0380428 0.0378717 0.0376539 0.0373895 0.0370785 0.0367208 0.0363166 0.0358656 0.0353681 0.0348914 0.0345033 0.0342036 0.0339923 0.0338696 0.0338353 0.0338894 0.0340321 0.0343039 0.0347454 0.0353567 0.0361378 0.0370887 0.0382093 0.0394998 0.04096 0.042565 0.0442901 0.0461351 0.0481001 0.0501851 0.05239 0.054715 0.0571599 0.0596415 0.0620765 0.0644649 0.0668066 0.0691018 0.0713503 0.0735522 0.0757075 0.0777263 0.0795187 0.0810846 0.0824241 0.0835371 0.0844237 0.0850839 0.0855176 0.0856885 0.08556 0.0851322 0.084405 0.0833785 0.0820527 0.0804276 0.0785031 0.0763243 0.0739363 0.071339 0.0685324 0.0655166 0.0622916 0.0588572 0.0552137 0.0514753 0.0477566 0.0440576 0.0403783 0.0367186 0.0330787 0.0294584 0.0258578 0.0224017 0.0192148 0.0162971 0.0136487 0.0112695 0.00915956 0.00731886 0.00574739 0.00440035 0.00323291 0.00224507 0.00143685 0.000808227 0.000359212 8.9803e-05 0 0 4.49618e-05 0.000179847 0.000404656 0.000719388 0.00112404 0.00161862 0.00220313 0.00287755 0.00367575 0.00463158 0.00574503 0.00701611 0.00844481 0.0100311 0.0117751 0.0136767 0.0156652 0.0176699 0.0196908 0.0217279 0.0237813 0.0258509 0.0279367 0.0300386 0.0320856 0.0340061 0.0358003 0.0374681 0.0390096 0.0404247 0.0417134 0.0428758 0.0438964 0.04476 0.0454665 0.046016 0.0464084 0.0466437 0.0467219 0.0466431 0.0464572 0.0462141 0.0459139 0.0455565 0.0451419 0.0446701 0.0441412 0.0435551 0.0429923 0.0425332 0.0421779 0.0419262 0.0417784 0.0417342 0.0417938 0.0419571 0.0422726 0.042789 0.0435063 0.0444243 0.0455432 0.0468629 0.0483834 0.0501048 0.0519976 0.0540327 0.0562099 0.0585292 0.0609908 0.0635945 0.0663403 0.0692284 0.0721598 0.0750359 0.0778566 0.0806219 0.0833319 0.0859865 0.0885858 0.0911297 0.0935114 0.0956242 0.097468 0.0990429 0.100349 0.101386 0.102154 0.102653 0.10284 0.102671 0.102146 0.101265 0.100029 0.0984364 0.0964882 0.0941842 0.0915777 0.0887219 0.0856168 0.0822624 0.0786587 0.0748058 0.0707036 0.0663521 0.0618867 0.0574427 0.0530201 0.048619 0.0442393 0.0398811 0.0355443 0.0312289 0.0270838 0.0232579 0.0197511 0.0165636 0.0136952 0.011146 0.00891595 0.00700509 0.00536327 0.00394036 0.00273636 0.00175127 0.00098509 0.000437818 0.000109454 0 0 5.55617e-05 0.000222247 0.000500055 0.000888987 0.00138904 0.00200022 0.00272252 0.00355595 0.00453835 0.00570759 0.00706365 0.00860654 0.0103363 0.0122528 0.0143562 0.0166464 0.0190389 0.0214492 0.0238773 0.0263231 0.0287867 0.0312681 0.0337673 0.0362842 0.0387351 0.0410361 0.0431872 0.0451885 0.0470399 0.0487415 0.0502932 0.051695 0.0529288 0.0539763 0.0548377 0.0555129 0.0560018 0.0563045 0.0564211 0.0563514 0.0561541 0.0558877 0.0555522 0.0551478 0.0546742 0.0541316 0.0535199 0.0528392 0.0521839 0.0516485 0.051233 0.0509374 0.0507618 0.050706 0.0507701 0.0509542 0.0513153 0.0519107 0.0527403 0.0538042 0.0551024 0.0566348 0.0584014 0.0604023 0.0626034 0.0649707 0.067504 0.0702035 0.0730691 0.0761009 0.0792988 0.0826628 0.0860775 0.0894273 0.0927122 0.0959323 0.0990876 0.102178 0.105203 0.108164 0.110935 0.113391 0.115531 0.117357 0.118868 0.120064 0.120944 0.12151 0.12171 0.121493 0.120858 0.119806 0.118338 0.116452 0.114149 0.111429 0.108354 0.104986 0.101325 0.0973712 0.0931247 0.0885854 0.0837533 0.0786283 0.0733683 0.0681311 0.0629167 0.0577251 0.0525563 0.0474104 0.0422872 0.0371869 0.0322845 0.0277553 0.0235992 0.0198162 0.0164064 0.0133697 0.0107061 0.00841561 0.0064432 0.00473378 0.00328735 0.0021039 0.00118344 0.000525975 0.000131494 0 0 6.75845e-05 0.000270338 0.00060826 0.00108135 0.00168961 0.00243304 0.00331164 0.00432541 0.00551613 0.00692561 0.00855384 0.0104008 0.0124665 0.014751 0.0172542 0.0199762 0.0228172 0.0256773 0.0285567 0.0314552 0.034373 0.0373099 0.040266 0.0432413 0.0461385 0.0488601 0.0514061 0.0537765 0.0559714 0.0579907 0.0598345 0.0615027 0.0629741 0.0642274 0.0652626 0.0660797 0.0666788 0.0670598 0.0672227 0.0671676 0.0669623 0.0666746 0.0663047 0.0658524 0.0653178 0.064701 0.0640018 0.0632203 0.0624662 0.0618491 0.061369 0.0610259 0.0608197 0.0607506 0.0608185 0.0610234 0.0614319 0.0621103 0.0630589 0.0642775 0.0657662 0.0675249 0.0695537 0.0718526 0.0743824 0.0771041 0.0800176 0.083123 0.0864203 0.0899094 0.0935904 0.0974632 0.101394 0.105251 0.109032 0.112738 0.116369 0.119925 0.123405 0.126811 0.129997 0.132818 0.135275 0.137367 0.139094 0.140457 0.141455 0.142089 0.142299 0.142025 0.141268 0.140028 0.138305 0.136099 0.133409 0.130236 0.126652 0.122727 0.118463 0.113859 0.108915 0.10363 0.0980063 0.0920422 0.0859201 0.0798217 0.0737472 0.0676965 0.0616697 0.0556666 0.0496874 0.0437319 0.038004 0.0327071 0.0278413 0.0234067 0.0194031 0.0158306 0.0126892 0.00997895 0.00764013 0.00561316 0.00389803 0.00249474 0.00140329 0.000623684 0.000155921 0 0 8.103e-05 0.00032412 0.00072927 0.00129648 0.00202575 0.00291708 0.00397047 0.00518592 0.00660909 0.00828565 0.0102156 0.0123989 0.0148356 0.0175257 0.0204692 0.0236661 0.0269999 0.0303542 0.033729 0.0371242 0.04054 0.0439762 0.0474329 0.0509101 0.0542958 0.0574781 0.0604569 0.0632322 0.0658041 0.0681725 0.0703374 0.0722989 0.0740323 0.0755131 0.0767412 0.0777166 0.0784394 0.0789095 0.079127 0.0790918 0.0788818 0.0785749 0.0781711 0.0776704 0.0770728 0.0763783 0.0755869 0.0746985 0.0738393 0.073135 0.0725858 0.0721915 0.0719523 0.0718681 0.071939 0.0721648 0.0726223 0.073388 0.074462 0.0758442 0.0775346 0.0795333 0.0818403 0.0844555 0.0873345 0.0904329 0.0937506 0.0972877 0.101044 0.10502 0.109215 0.11363 0.118111 0.122506 0.126815 0.131038 0.135175 0.139226 0.143191 0.14707 0.150697 0.153907 0.156698 0.159072 0.161028 0.162566 0.163686 0.164389 0.164606 0.164268 0.163377 0.161931 0.159931 0.157377 0.154269 0.150607 0.146473 0.141948 0.137032 0.131725 0.126028 0.119941 0.113463 0.106594 0.0995421 0.0925147 0.0855118 0.0785333 0.0715793 0.0646497 0.0577446 0.050864 0.0442421 0.0381133 0.0324775 0.0273349 0.0226853 0.0185288 0.0148654 0.0116951 0.00895407 0.0065785 0.0045684 0.00292378 0.00164463 0.000730945 0.000182736 0 0 9.58983e-05 0.000383593 0.000863085 0.00153437 0.00239746 0.00345234 0.00469902 0.00613749 0.00781723 0.00978771 0.0120489 0.0146009 0.0174435 0.020577 0.0240011 0.027716 0.0315871 0.0354798 0.0393941 0.0433301 0.0472878 0.0512671 0.055268 0.0592905 0.0632071 0.0668902 0.0703397 0.0735556 0.0765379 0.0792867 0.0818019 0.0840836 0.0861035 0.0878334 0.0892734 0.0904234 0.0912835 0.0918536 0.0921337 0.0921239 0.0919127 0.0915886 0.0911516 0.0906018 0.0899391 0.0891635 0.0882751 0.0872738 0.0863031 0.0855062 0.0848834 0.0844345 0.0841595 0.0840585 0.0841314 0.0843783 0.0848866 0.0857437 0.0869495 0.0885042 0.0904077 0.0926601 0.0952612 0.0982111 0.10146 0.104957 0.108703 0.112698 0.116941 0.121432 0.126173 0.131162 0.136226 0.141193 0.146062 0.150834 0.155507 0.160083 0.164561 0.168942 0.173036 0.176656 0.179801 0.182472 0.184669 0.18639 0.187638 0.188411 0.188632 0.188222 0.187184 0.185515 0.183216 0.180288 0.176729 0.172541 0.167816 0.162646 0.157031 0.150971 0.144466 0.137517 0.130122 0.122283 0.114234 0.10621 0.0982104 0.0902354 0.0822852 0.0743598 0.066459 0.058583 0.0509988 0.0439737 0.0375078 0.0316009 0.0262531 0.0214643 0.0172347 0.0135641 0.010385 0.00762981 0.00529848 0.00339103 0.00190745 0.000847757 0.000211939 0 0 0.000112088 0.000448351 0.00100879 0.0017934 0.00280219 0.00403516 0.0054923 0.00717362 0.00913223 0.0114213 0.0140407 0.0169906 0.020271 0.0238817 0.0278229 0.0320945 0.0365425 0.0410131 0.0455063 0.050022 0.0545602 0.0591209 0.0637042 0.0683101 0.0727944 0.0770133 0.0809666 0.0846545 0.0880768 0.0912337 0.094125 0.0967509 0.0990792 0.101078 0.102747 0.104087 0.105097 0.105778 0.106129 0.10615 0.105942 0.105603 0.105134 0.104534 0.103805 0.102945 0.101954 0.100833 0.0997439 0.0988473 0.0981434 0.0976324 0.0973142 0.0971888 0.0972563 0.0975166 0.0980685 0.0990109 0.100344 0.102067 0.104181 0.106685 0.109579 0.112864 0.116484 0.120382 0.12456 0.129016 0.133752 0.138766 0.144059 0.149631 0.155288 0.160836 0.166274 0.171602 0.176821 0.18193 0.18693 0.191821 0.19639 0.200427 0.203931 0.206902 0.20934 0.211246 0.212619 0.213459 0.213679 0.213191 0.211995 0.210092 0.20748 0.204161 0.200133 0.195398 0.190058 0.184218 0.177876 0.171034 0.16369 0.155846 0.147501 0.138654 0.12957 0.12051 0.111474 0.102463 0.0934765 0.0845144 0.0755767 0.0666635 0.0580761 0.0501161 0.0427834 0.0360781 0.03 0.0245493 0.0197259 0.0155298 0.01189 0.0087355 0.00606632 0.00388244 0.00218387 0.000970611 0.000242653 0 0 0.000129497 0.000517987 0.00116547 0.00207195 0.00323742 0.00466189 0.00634534 0.0082878 0.0105458 0.0131759 0.016178 0.0195522 0.0232986 0.027417 0.0319074 0.03677 0.0418301 0.0469133 0.0520195 0.0571487 0.062301 0.0674763 0.0726747 0.0778961 0.0829796 0.0877642 0.0922499 0.0964367 0.100325 0.103914 0.107204 0.110195 0.112851 0.115136 0.117051 0.118594 0.119766 0.120568 0.120998 0.121057 0.120856 0.120506 0.120006 0.119357 0.118558 0.11761 0.116512 0.115265 0.114048 0.113042 0.112247 0.111663 0.111289 0.111126 0.111174 0.111432 0.112012 0.113023 0.114466 0.116341 0.118648 0.121387 0.124557 0.128159 0.132132 0.136414 0.141006 0.145908 0.151119 0.156639 0.162469 0.168609 0.174843 0.180957 0.186949 0.192821 0.198573 0.204203 0.209713 0.215102 0.220136 0.224579 0.228432 0.231694 0.234366 0.236447 0.237938 0.238839 0.239051 0.238478 0.237119 0.234974 0.232043 0.228327 0.223824 0.218536 0.212577 0.20606 0.198985 0.191353 0.183164 0.174417 0.165112 0.15525 0.145122 0.135016 0.124935 0.114877 0.104842 0.0948312 0.0848438 0.07488 0.065276 0.056368 0.048156 0.04064 0.03382 0.027696 0.022268 0.017536 0.013426 0.00986398 0.00684999 0.00438399 0.002466 0.001096 0.000273999 0 0 0.000148125 0.000592502 0.00133313 0.00237001 0.00370314 0.00533252 0.00725815 0.00948003 0.0120579 0.0150514 0.0184607 0.0222857 0.0265264 0.0311827 0.0362548 0.0417426 0.0474498 0.0531802 0.0589337 0.0647104 0.0705103 0.0763333 0.0821794 0.0880488 0.0937628 0.0991431 0.10419 0.108902 0.113281 0.117327 0.121038 0.124416 0.127419 0.130009 0.132184 0.133944 0.135291 0.136223 0.136741 0.136844 0.136656 0.136297 0.135767 0.135068 0.134198 0.133158 0.131948 0.130568 0.129216 0.128092 0.127195 0.126526 0.126085 0.125871 0.125884 0.126125 0.126717 0.127781 0.129318 0.131328 0.133811 0.136766 0.140195 0.144096 0.148405 0.153053 0.158042 0.163372 0.169042 0.175053 0.181404 0.188095 0.194891 0.201556 0.208089 0.214491 0.220762 0.226901 0.232909 0.238786 0.244274 0.249113 0.253305 0.256849 0.259746 0.261995 0.263596 0.26455 0.264748 0.264082 0.262554 0.260161 0.256905 0.252786 0.247803 0.241956 0.235371 0.228171 0.220357 0.211929 0.202886 0.193229 0.182958 0.172072 0.16089 0.14973 0.138592 0.127476 0.116382 0.10531 0.0942604 0.0832326 0.0725984 0.0627293 0.0536253 0.0452865 0.0377128 0.0309043 0.0248609 0.0195827 0.014993 0.0110153 0.00764949 0.00489567 0.00275382 0.00122392 0.00030598 0 0 0.000167974 0.000671894 0.00151176 0.00268758 0.00419934 0.00604705 0.00823071 0.0107503 0.0136685 0.0170481 0.0208889 0.025191 0.0299543 0.035179 0.040865 0.0470123 0.0534016 0.0598139 0.066249 0.072707 0.0791879 0.0856917 0.0922184 0.098768 0.105144 0.11115 0.116786 0.122051 0.126947 0.131472 0.135628 0.139413 0.142784 0.145695 0.148146 0.150138 0.151671 0.152744 0.153358 0.153512 0.15334 0.152976 0.152418 0.151669 0.150726 0.149591 0.148263 0.146743 0.145247 0.143996 0.142987 0.142222 0.141701 0.141422 0.141387 0.141596 0.142183 0.143283 0.144898 0.147026 0.149668 0.152824 0.156493 0.160676 0.165302 0.170299 0.175668 0.181409 0.187521 0.194006 0.200861 0.208089 0.215432 0.222633 0.229693 0.236612 0.243389 0.250025 0.25652 0.262873 0.268803 0.274029 0.27855 0.282368 0.28548 0.287889 0.289593 0.290592 0.290769 0.290005 0.2883 0.285654 0.282067 0.277538 0.272069 0.265658 0.258441 0.250553 0.241993 0.232761 0.222858 0.212283 0.201036 0.189118 0.176874 0.16465 0.152446 0.140261 0.128096 0.115952 0.103826 0.0917212 0.0800432 0.0692 0.0591915 0.0500177 0.0416787 0.0341744 0.0275048 0.0216699 0.0165911 0.0121893 0.00846482 0.00541749 0.00304734 0.00135437 0.000338593 0 0 0.000189041 0.000756165 0.00170137 0.00302466 0.00472603 0.00680549 0.00926303 0.0120986 0.0153777 0.0191657 0.0234624 0.0282681 0.0335825 0.0394058 0.045738 0.052579 0.0596856 0.0668143 0.0739653 0.0811386 0.088334 0.0955517 0.102792 0.110054 0.117123 0.123784 0.130038 0.135884 0.141321 0.146351 0.150973 0.155187 0.158944 0.162195 0.164939 0.167176 0.168907 0.170131 0.170849 0.17106 0.17091 0.170543 0.169959 0.169159 0.168141 0.166907 0.165457 0.163789 0.162142 0.160753 0.159623 0.158751 0.158137 0.157781 0.157683 0.157844 0.15841 0.159531 0.161207 0.163436 0.16622 0.169558 0.173451 0.177897 0.182823 0.188151 0.193883 0.200018 0.206557 0.213498 0.220843 0.228591 0.236466 0.244189 0.251762 0.259184 0.266454 0.273574 0.280543 0.287362 0.293724 0.299326 0.304168 0.308249 0.311569 0.314129 0.315928 0.316967 0.317116 0.316246 0.314359 0.311452 0.307527 0.302584 0.296622 0.289642 0.281788 0.273204 0.263891 0.25385 0.243078 0.231578 0.219349 0.20639 0.193075 0.179777 0.166496 0.153232 0.139985 0.126755 0.113542 0.100346 0.0876107 0.0757802 0.0648545 0.0548336 0.0457175 0.0375061 0.0301995 0.0237977 0.0182201 0.0133862 0.00929599 0.00594943 0.00334656 0.00148736 0.00037184 0 0 0.000211329 0.000845315 0.00190196 0.00338126 0.00528322 0.00760783 0.0103551 0.013525 0.0171855 0.0214043 0.0261815 0.031517 0.0374109 0.0438632 0.0508738 0.0584428 0.0663016 0.0741816 0.0820827 0.090005 0.0979485 0.105913 0.113899 0.121906 0.1297 0.137047 0.143947 0.150399 0.156405 0.161963 0.167074 0.171738 0.175901 0.179508 0.18256 0.185057 0.186998 0.188384 0.189214 0.189489 0.189365 0.188999 0.18839 0.187538 0.186444 0.185108 0.183529 0.181707 0.1799 0.178366 0.177103 0.176112 0.175393 0.174946 0.174772 0.174869 0.175399 0.176524 0.178244 0.180558 0.183467 0.18697 0.191068 0.195761 0.200968 0.206611 0.212688 0.219201 0.226148 0.233531 0.241349 0.249602 0.257993 0.266224 0.274295 0.282206 0.289957 0.297549 0.304981 0.312253 0.319037 0.325005 0.330157 0.334492 0.338012 0.340715 0.342601 0.343672 0.343787 0.342805 0.340728 0.337556 0.333287 0.327923 0.321463 0.313907 0.30541 0.296125 0.286053 0.275194 0.263548 0.251115 0.237894 0.223887 0.209492 0.195111 0.180743 0.166389 0.152048 0.137721 0.123407 0.109107 0.0953006 0.0824699 0.0706144 0.0597342 0.0498293 0.0408996 0.0329452 0.025966 0.0198803 0.0146059 0.010143 0.00649151 0.00365147 0.00162288 0.000405719 0 0 0.000234836 0.000939342 0.00211352 0.00375737 0.00587089 0.00845408 0.0115069 0.0150295 0.0190918 0.0237639 0.0290459 0.0349378 0.0414395 0.048551 0.0562724 0.0646037 0.0732498 0.0819156 0.0906011 0.0993064 0.108031 0.116776 0.125541 0.134325 0.142875 0.150937 0.158512 0.165598 0.172197 0.178308 0.183931 0.189066 0.193654 0.197636 0.201012 0.203781 0.205945 0.207502 0.208453 0.208798 0.208705 0.208342 0.207709 0.206807 0.205634 0.204192 0.202479 0.200497 0.198522 0.196832 0.195427 0.194306 0.19347 0.192919 0.192653 0.192671 0.19315 0.194262 0.19601 0.198392 0.201409 0.20506 0.209346 0.214266 0.219738 0.225676 0.232082 0.238956 0.246296 0.254104 0.262379 0.271121 0.280013 0.288736 0.297292 0.305679 0.313898 0.321949 0.329832 0.337547 0.344742 0.351066 0.356518 0.361099 0.364809 0.367647 0.369614 0.370709 0.370782 0.369683 0.36741 0.363965 0.359346 0.353555 0.346591 0.338454 0.329308 0.319316 0.308479 0.296796 0.284267 0.270893 0.256674 0.241608 0.226125 0.210651 0.195187 0.179731 0.164285 0.148849 0.133421 0.118003 0.103113 0.089269 0.0764711 0.0647194 0.054014 0.0443547 0.0357417 0.0281749 