<?xml version="1.0"?> 
<VTKFile type="StructuredGrid" version="0.1"> 
<StructuredGrid WholeExtent="0 128 0 128 0 0"> 
<Piece Extent="0 128 0 128 0 0"> 
<PointData>
<DataArray type="Float32" Name="u" format="ascii" NumberOfComponents="1"> 
0 0 0 0 0 0 0 0 0 0 0 0 0 0 0 0 0 0 0 0 0 0 0 0 0 0 0 0 0 0 0 0 0 0 0 0 0 0 0 0 0 0 0 0 0 0 0 0 0 0 0 0 0 0 0 0 0 0 0 0 0 0 0 0 0 0 0 0 0 0 0 0 0 0 0 0 0 0 0 0 0 0 0 0 0 0 0 0 0 0 0 0 0 0 0 0 0 0 0 0 0 0 0 0 0 0 0 0 0 0 0 0 0 0 0 0 0 0 0 0 0 0 0 0 0 0 0 0 0 0 -1.46553e-07 -5.8621e-07 -1.31897e-06 -2.34484e-06 -3.66381e-06 -5.27589e-06 -7.18108e-06 -9.37936e-06 -1.22288e-05 -1.60874e-05 -2.09553e-05 -2.68323e-05 -3.37186e-05 -4.1614e-05 -5.05186e-05 -6.04324e-05 -7.12378e-05 -8.28171e-05 -9.51703e-05 -0.000108297 -0.000122198 -0.000136873 -0.000152322 -0.000168545 -0.00018491 -0.000200788 -0.000216177 -0.000231079 -0.000245492 -0.000259417 -0.000272855 -0.000285804 -0.000297592 -0.000307547 -0.000315669 -0.000321957 -0.000326412 -0.000329033 -0.000329821 -0.000328775 -0.000326357 -0.000323025 -0.000318781 -0.000313623 -0.000307553 -0.00030057 -0.000292673 -0.000283864 -0.00027484 -0.0002663 -0.000258242 -0.000250668 -0.000243578 -0.00023697 -0.000230846 -0.000225205 -0.000219589 -0.000213538 -0.000207053 -0.000200133 -0.000192778 -0.000184989 -0.000176765 -0.000168107 -0.000159156 -0.000150054 -0.000140803 -0.0001314 -0.000121847 -0.000112144 -0.00010229 -9.22862e-05 -8.28184e-05 -7.45741e-05 -6.75532e-05 -6.17558e-05 -5.71819e-05 -5.38313e-05 -5.17042e-05 -5.08006e-05 -5.05711e-05 -5.04664e-05 -5.04865e-05 -5.06315e-05 -5.09013e-05 -5.12959e-05 -5.18153e-05 -5.24595e-05 -5.32074e-05 -5.40376e-05 -5.49501e-05 -5.5945e-05 -5.70223e-05 -5.81819e-05 -5.94239e-05 -6.07483e-05 -6.24791e-05 -6.49403e-05 -6.81319e-05 -7.20541e-05 -7.67066e-05 -8.20897e-05 -8.82031e-05 -9.50471e-05 -0.000101547 -0.000106627 -0.000110288 -0.00011253 -0.000113352 -0.000112755 -0.000110739 -0.000107304 -0.00010271 -9.72156e-05 -9.0822e-05 -8.3529e-05 -7.53366e-05 -6.62446e-05 -5.62533e-05 -4.53624e-05 -3.47306e-05 -2.55163e-05 -1.77197e-05 -1.13406e-05 -6.37909e-06 -2.83515e-06 -7.08787e-07 0 0 -5.8621e-07 -2.34484e-06 -5.27589e-06 -9.37936e-06 -1.46553e-05 -2.11036e-05 -2.87243e-05 -3.75175e-05 -4.89152e-05 -6.43498e-05 -8.38211e-05 -0.000107329 -0.000134874 -0.000166456 -0.000202074 -0.00024173 -0.000284951 -0.000331268 -0.000380681 -0.00043319 -0.000488794 -0.000547493 -0.000609288 -0.000674179 -0.000739642 -0.000803152 -0.00086471 -0.000924315 -0.000981969 -0.00103767 -0.00109142 -0.00114321 -0.00119037 -0.00123019 -0.00126267 -0.00128783 -0.00130565 -0.00131613 -0.00131928 -0.0013151 -0.00130543 -0.0012921 -0.00127512 -0.00125449 -0.00123021 -0.00120228 -0.00117069 -0.00113546 -0.00109936 -0.0010652 -0.00103297 -0.00100267 -0.00097431 -0.000947881 -0.000923385 -0.000900822 -0.000878357 -0.000854153 -0.000828211 -0.000800531 -0.000771113 -0.000739956 -0.00070706 -0.000672427 -0.000636623 -0.000600218 -0.00056321 -0.000525601 -0.00048739 -0.000448577 -0.000409162 -0.000369145 -0.000331274 -0.000298296 -0.000270213 -0.000247023 -0.000228727 -0.000215325 -0.000206817 -0.000203202 -0.000202284 -0.000201866 -0.000201946 -0.000202526 -0.000203605 -0.000205183 -0.000207261 -0.000209838 -0.000212829 -0.00021615 -0.0002198 -0.00022378 -0.000228089 -0.000232728 -0.000237696 -0.000242993 -0.000249916 -0.000259761 -0.000272528 -0.000288216 -0.000306827 -0.000328359 -0.000352813 -0.000380188 -0.000406186 -0.000426507 -0.000441152 -0.000450119 -0.000453409 -0.000451022 -0.000442958 -0.000429217 -0.000410839 -0.000388862 -0.000363288 -0.000334116 -0.000301346 -0.000264979 -0.000225013 -0.00018145 -0.000138922 -0.000102065 -7.08787e-05 -4.53624e-05 -2.55163e-05 -1.13406e-05 -2.83515e-06 0 0 -1.31897e-06 -5.27589e-06 -1.18708e-05 -2.11036e-05 -3.29743e-05 -4.7483e-05 -6.46297e-05 -8.44143e-05 -0.000110059 -0.000144787 -0.000188598 -0.000241491 -0.000303467 -0.000374526 -0.000454668 -0.000543892 -0.00064114 -0.000745354 -0.000856533 -0.000974677 -0.00109979 -0.00123186 -0.0013709 -0.0015169 -0.00166419 -0.00180709 -0.0019456 -0.00207971 -0.00220943 -0.00233476 -0.00245569 -0.00257223 -0.00267833 -0.00276792 -0.00284102 -0.00289761 -0.0029377 -0.0029613 -0.00296839 -0.00295898 -0.00293721 -0.00290723 -0.00286903 -0.00282261 -0.00276798 -0.00270513 -0.00263406 -0.00255478 -0.00247356 -0.0023967 -0.00232418 -0.00225601 -0.0021922 -0.00213273 -0.00207762 -0.00202685 -0.0019763 -0.00192184 -0.00186348 -0.00180119 -0.001735 -0.0016649 -0.00159089 -0.00151296 -0.0014324 -0.00135049 -0.00126722 -0.0011826 -0.00109663 -0.0010093 -0.000920614 -0.000830576 -0.000745366 -0.000671167 -0.000607979 -0.000555802 -0.000514637 -0.000484482 -0.000465338 -0.000457205 -0.00045514 -0.000454198 -0.000454379 -0.000455683 -0.000458111 -0.000461663 -0.000466338 -0.000472136 -0.000478866 -0.000486338 -0.000494551 -0.000503505 -0.000513201 -0.000523637 -0.000534815 -0.000546735 -0.000562311 -0.000584462 -0.000613187 -0.000648487 -0.00069036 -0.000738807 -0.000793828 -0.000855424 -0.000913919 -0.000959642 -0.000992591 -0.00101277 -0.00102017 -0.0010148 -0.000996655 -0.000965738 -0.000924387 -0.00087494 -0.000817398 -0.000751761 -0.000678029 -0.000596202 -0.000506279 -0.000408262 -0.000312575 -0.000229647 -0.000159477 -0.000102065 -5.74118e-05 -2.55163e-05 -6.37909e-06 0 0 -2.34484e-06 -9.37936e-06 -2.11036e-05 -3.75175e-05 -5.8621e-05 -8.44143e-05 -0.000114897 -0.00015007 -0.000195661 -0.000257399 -0.000335284 -0.000429317 -0.000539497 -0.000665824 -0.000808298 -0.000966919 -0.00113981 -0.00132507 -0.00152272 -0.00173276 -0.00195517 -0.00218997 -0.00243715 -0.00269672 -0.00295857 -0.00321261 -0.00345884 -0.00369726 -0.00392787 -0.00415068 -0.00436567 -0.00457286 -0.00476147 -0.00492075 -0.0050507 -0.00515131 -0.00522259 -0.00526453 -0.00527713 -0.00526041 -0.00522171 -0.0051684 -0.00510049 -0.00501797 -0.00492085 -0.00480911 -0.00468277 -0.00454183 -0.00439744 -0.00426079 -0.00413188 -0.00401069 -0.00389724 -0.00379152 -0.00369354 -0.00360329 -0.00351343 -0.00341661 -0.00331285 -0.00320212 -0.00308445 -0.00295982 -0.00282824 -0.00268971 -0.00254649 -0.00240087 -0.00225284 -0.0021024 -0.00194956 -0.00179431 -0.00163665 -0.00147658 -0.00132509 -0.00119319 -0.00108085 -0.000988093 -0.00091491 -0.000861301 -0.000827268 -0.00081281 -0.000809137 -0.000807462 -0.000807785 -0.000810104 -0.00081442 -0.000820734 -0.000829045 -0.000839352 -0.000851318 -0.000864601 -0.000879202 -0.00089512 -0.000912357 -0.000930911 -0.000950783 -0.000971973 -0.000999665 -0.00103904 -0.00109011 -0.00115286 -0.00122731 -0.00131343 -0.00141125 -0.00152075 -0.00162475 -0.00170603 -0.00176461 -0.00180047 -0.00181363 -0.00180409 -0.00177183 -0.00171687 -0.00164335 -0.00155545 -0.00145315 -0.00133646 -0.00120539 -0.00105991 -0.000900052 -0.000725798 -0.000555689 -0.000408262 -0.000283515 -0.00018145 -0.000102065 -4.53624e-05 -1.13406e-05 0 0 -3.66381e-06 -1.46553e-05 -3.29743e-05 -5.8621e-05 -9.15953e-05 -0.000131897 -0.000179527 -0.000234484 -0.00030572 -0.000402186 -0.000523882 -0.000670808 -0.000842964 -0.00104035 -0.00126297 -0.00151081 -0.00178095 -0.00207043 -0.00237926 -0.00270743 -0.00305496 -0.00342183 -0.00380805 -0.00421362 -0.00462276 -0.0050197 -0.00540444 -0.00577697 -0.0061373 -0.00648544 -0.00682136 -0.00714509 -0.0074398 -0.00768868 -0.00789172 -0.00804892 -0.00816029 -0.00822582 -0.00824552 -0.00821939 -0.00815892 -0.00807563 -0.00796952 -0.00784058 -0.00768882 -0.00751424 -0.00731683 -0.0070966 -0.00687101 -0.00665749 -0.00645606 -0.00626671 -0.00608944 -0.00592426 -0.00577115 -0.00563014 -0.00548973 -0.00533846 -0.00517632 -0.00500332 -0.00481945 -0.00462472 -0.00441913 -0.00420267 -0.0039789 -0.00375136 -0.00352006 -0.00328501 -0.00304619 -0.0028036 -0.00255726 -0.00230715 -0.00207046 -0.00186435 -0.00168883 -0.0015439 -0.00142955 -0.00134578 -0.00129261 -0.00127001 -0.00126428 -0.00126166 -0.00126216 -0.00126579 -0.00127253 -0.0012824 -0.00129538 -0.00131149 -0.00133018 -0.00135094 -0.00137375 -0.00139863 -0.00142556 -0.00145455 -0.0014856 -0.00151871 -0.00156198 -0.00162351 -0.0017033 -0.00180135 -0.00191767 -0.00205224 -0.00220508 -0.00237618 -0.00253866 -0.00266567 -0.0027572 -0.00281324 -0.0028338 -0.00281889 -0.00276849 -0.00268261 -0.00256774 -0.00243039 -0.00227055 -0.00208823 -0.00188341 -0.00165612 -0.00140633 -0.00113406 -0.000868264 -0.000637909 -0.000442992 -0.000283515 -0.000159477 -7.08787e-05 -1.77197e-05 0 0 -5.27589e-06 -2.11036e-05 -4.7483e-05 -8.44143e-05 -0.000131897 -0.000189932 -0.000258519 -0.000337657 -0.000440237 -0.000579148 -0.00075439 -0.000965963 -0.00121387 -0.0014981 -0.00181867 -0.00217557 -0.00256456 -0.00298142 -0.00342613 -0.00389871 -0.00439914 -0.00492744 -0.00548359 -0.00606761 -0.00665677 -0.00722837 -0.00778239 -0.00831884 -0.00883772 -0.00933903 -0.00982277 -0.0102889 -0.0107133 -0.0110717 -0.0113641 -0.0115904 -0.0117508 -0.0118452 -0.0118736 -0.0118359 -0.0117488 -0.0116289 -0.0114761 -0.0112904 -0.0110719 -0.0108205 -0.0105362 -0.0102191 -0.00989425 -0.00958678 -0.00929672 -0.00902406 -0.00876879 -0.00853093 -0.00831046 -0.0081074 -0.00790521 -0.00768738 -0.0074539 -0.00720478 -0.00694001 -0.0066596 -0.00636354 -0.00605184 -0.00572961 -0.00540196 -0.00506889 -0.00473041 -0.00438651 -0.00403719 -0.00368245 -0.0033223 -0.00298146 -0.00268467 -0.00243192 -0.00222321 -0.00205855 -0.00193793 -0.00186135 -0.00182882 -0.00182056 -0.00181679 -0.00181752 -0.00182273 -0.00183245 -0.00184665 -0.00186535 -0.00188854 -0.00191546 -0.00194535 -0.0019782 -0.00201402 -0.0020528 -0.00209455 -0.00213926 -0.00218694 -0.00224925 -0.00233785 -0.00245275 -0.00259395 -0.00276144 -0.00295523 -0.00317531 -0.00342169 -0.00365568 -0.00383857 -0.00397036 -0.00405107 -0.00408068 -0.0040592 -0.00398662 -0.00386295 -0.00369755 -0.00349976 -0.00326959 -0.00300705 -0.00271212 -0.00238481 -0.00202512 -0.00163305 -0.0012503 -0.000918588 -0.000637909 -0.000408262 -0.000229647 -0.000102065 -2.55163e-05 0 0 -7.18108e-06 -2.87243e-05 -6.46297e-05 -0.000114897 -0.000179527 -0.000258519 -0.000351873 -0.000459589 -0.000599211 -0.000788285 -0.00102681 -0.00131478 -0.00165221 -0.00203909 -0.00247541 -0.00296119 -0.00349065 -0.00405804 -0.00466334 -0.00530657 -0.00598772 -0.00670679 -0.00746378 -0.00825869 -0.00906061 -0.00983861 -0.0105927 -0.0113229 -0.0120291 -0.0127115 -0.0133699 -0.0140044 -0.014582 -0.0150698 -0.0154678 -0.0157759 -0.0159942 -0.0161226 -0.0161612 -0.01611 -0.0159915 -0.0158282 -0.0156203 -0.0153675 -0.0150701 -0.0147279 -0.014341 -0.0139093 -0.0134672 -0.0130487 -0.0126539 -0.0122827 -0.0119353 -0.0116115 -0.0113115 -0.0110351 -0.0107599 -0.0104634 -0.0101456 -0.00980651 -0.00944613 -0.00906446 -0.00866149 -0.00823723 -0.00779864 -0.00735267 -0.00689933 -0.00643861 -0.00597053 -0.00549506 -0.00501223 -0.00452202 -0.0040581 -0.00365413 -0.00331011 -0.00302604 -0.00280191 -0.00263773 -0.00253351 -0.00248923 -0.00247798 -0.00247285 -0.00247384 -0.00248094 -0.00249416 -0.0025135 -0.00253895 -0.00257052 -0.00260716 -0.00264784 -0.00269256 -0.00274131 -0.00279409 -0.00285091 -0.00291177 -0.00297667 -0.00306147 -0.00318207 -0.00333846 -0.00353065 -0.00375862 -0.00402239 -0.00432195 -0.00465731 -0.00497578 -0.00522472 -0.00540411 -0.00551395 -0.00555426 -0.00552502 -0.00542623 -0.00525791 -0.00503277 -0.00476356 -0.00445028 -0.00409292 -0.00369149 -0.00324599 -0.00275641 -0.00222276 -0.0017018 -0.0012503 -0.000868264 -0.000555689 -0.000312575 -0.000138922 -3.47306e-05 0 0 -9.37936e-06 -3.75175e-05 -8.44143e-05 -0.00015007 -0.000234484 -0.000337657 -0.000459589 -0.000600279 -0.000782643 -0.0010296 -0.00134114 -0.00171727 -0.00215799 -0.0026633 -0.00323319 -0.00386768 -0.00455922 -0.0053003 -0.0060909 -0.00693103 -0.0078207 -0.00875989 -0.00974861 -0.0107869 -0.0118343 -0.0128504 -0.0138354 -0.014789 -0.0157115 -0.0166027 -0.0174627 -0.0182914 -0.0190459 -0.019683 -0.0202028 -0.0206052 -0.0208903 -0.0210581 -0.0211085 -0.0210416 -0.0208868 -0.0206736 -0.020402 -0.0200719 -0.0196834 -0.0192365 -0.0187311 -0.0181673 -0.0175898 -0.0170432 -0.0165275 -0.0160428 -0.015589 -0.0151661 -0.0147742 -0.0144132 -0.0140537 -0.0136665 -0.0132514 -0.0128085 -0.0123378 -0.0118393 -0.011313 -0.0107588 -0.010186 -0.00960349 -0.00901137 -0.00840962 -0.00779824 -0.00717723 -0.00654659 -0.00590632 -0.00530038 -0.00477274 -0.00432341 -0.00395237 -0.00365964 -0.0034452 -0.00330907 -0.00325124 -0.00323655 -0.00322985 -0.00323114 -0.00324042 -0.00325768 -0.00328294 -0.00331618 -0.00335741 -0.00340527 -0.0034584 -0.00351681 -0.00358048 -0.00364943 -0.00372364 -0.00380313 -0.00388789 -0.00399866 -0.00415618 -0.00436044 -0.00461146 -0.00490922 -0.00525374 -0.005645 -0.00608301 -0.00649898 -0.00682412 -0.00705842 -0.0072019 -0.00725454 -0.00721635 -0.00708733 -0.00686747 -0.00657342 -0.0062218 -0.00581261 -0.00534586 -0.00482154 -0.00423966 -0.00360021 -0.00290319 -0.00222276 -0.00163305 -0.00113406 -0.000725798 -0.000408262 -0.00018145 -4.53624e-05 0 0 -1.21928e-05 -4.87712e-05 -0.000109735 -0.000195085 -0.00030482 -0.000438941 -0.000597447 -0.000780339 -0.00101465 -0.00132742 -0.00171863 -0.00218831 -0.00273643 -0.00336301 -0.00406804 -0.00485153 -0.00570401 -0.00661606 -0.00758766 -0.00861881 -0.00970953 -0.0108598 -0.0120696 -0.013339 -0.0146191 -0.0158613 -0.0170655 -0.0182317 -0.0193599 -0.0204502 -0.0215024 -0.0225166 -0.0234399 -0.0242193 -0.0248548 -0.0253463 -0.0256939 -0.0258976 -0.0259574 -0.0258733 -0.0256823 -0.0254217 -0.0250913 -0.0246913 -0.0242215 -0.023682 -0.0230729 -0.022394 -0.021699 -0.0210415 -0.0204215 -0.0198389 -0.0192938 -0.0187862 -0.018316 -0.0178833 -0.017447 -0.0169659 -0.0164401 -0.0158694 -0.015254 -0.0145938 -0.0138889 -0.0131391 -0.012357 -0.0115548 -0.0107325 -0.0098902 -0.00902781 -0.00814535 -0.00724283 -0.00632024 -0.00543878 -0.00465961 -0.00398275 -0.00340819 -0.00293592 -0.00256596 -0.0022983 -0.00213294 -0.00202944 -0.00194737 -0.00188673 -0.00184752 -0.00182974 -0.00183339 -0.00185847 -0.00190497 -0.00197087 -0.00205412 -0.00215472 -0.00227268 -0.00240799 -0.00256065 -0.00273066 -0.00291803 -0.00314538 -0.00343534 -0.0037879 -0.00420308 -0.00468087 -0.00522126 -0.00582427 -0.00648988 -0.00712693 -0.00764425 -0.00804183 -0.00831968 -0.00847779 -0.00851617 -0.00843481 -0.00823372 -0.0079329 -0.00755236 -0.00709209 -0.00655211 -0.0059324 -0.00523297 -0.00445382 -0.00359494 -0.00275238 -0.00202215 -0.00140427 -0.000898735 -0.000505539 -0.000224684 -5.6171e-05 0 0 -1.59434e-05 -6.37737e-05 -0.000143491 -0.000255095 -0.000398586 -0.000573964 -0.000781228 -0.00102038 -0.00131935 -0.00170608 -0.00218055 -0.00274278 -0.00339277 -0.0041305 -0.00495599 -0.00586923 -0.00685878 -0.0079132 -0.00903249 -0.0102166 -0.0114657 -0.0127796 -0.0141583 -0.0156019 -0.0170567 -0.0184688 -0.0198383 -0.0211652 -0.0224495 -0.0236911 -0.0248901 -0.0260465 -0.0270991 -0.0279867 -0.0287093 -0.029267 -0.0296596 -0.0298872 -0.0299498 -0.0298474 -0.0296254 -0.0293291 -0.0289584 -0.0285134 -0.0279941 -0.0274005 -0.0267326 -0.0259904 -0.0252318 -0.0245149 -0.0238395 -0.0232058 -0.0226138 -0.0220633 -0.0215545 -0.0210873 -0.0206001 -0.0200311 -0.0193804 -0.0186479 -0.0178337 -0.0169378 -0.0159601 -0.0149007 -0.0137771 -0.012607 -0.0113904 -0.0101271 -0.0088174 -0.00746111 -0.00605826 -0.00460888 -0.00320379 -0.00193386 -0.000799074 0.000200559 0.00106504 0.00179437 0.00238856 0.00284759 0.00321017 0.00351499 0.00376205 0.00395136 0.00408292 0.00415671 0.00417275 0.00413104 0.00403496 0.00388792 0.00368993 0.00344096 0.00314104 0.00279015 0.0023883 0.00193549 0.00141379 0.000805275 0.000109941 -0.000672211 -0.00154118 -0.00249696 -0.00353957 -0.00466899 -0.0057613 -0.00669259 -0.00746285 -0.00807208 -0.00852029 -0.00880746 -0.00893361 -0.00889874 -0.00872464 -0.00843314 -0.00802424 -0.00749792 -0.0068542 -0.00609307 -0.00521453 -0.00421859 -0.00322986 -0.00237296 -0.00164789 -0.00105465 -0.000593239 -0.000263662 -6.59154e-05 0 0 -2.06313e-05 -8.2525e-05 -0.000185681 -0.0003301 -0.000515781 -0.000742725 -0.00101093 -0.0013204 -0.00169674 -0.00216558 -0.00272689 -0.0033807 -0.00412699 -0.00496577 -0.00589704 -0.0069208 -0.00802353 -0.00919173 -0.0104254 -0.0117245 -0.0130891 -0.0145192 -0.0160147 -0.0175757 -0.0191468 -0.0206729 -0.0221537 -0.0235895 -0.0249801 -0.0263256 -0.0276259 -0.0288811 -0.0300235 -0.0309853 -0.0317665 -0.0323671 -0.0327872 -0.0330267 -0.0330857 -0.0329641 -0.032716 -0.0323957 -0.0320032 -0.0315384 -0.0310013 -0.0303919 -0.0297103 -0.0289565 -0.0281882 -0.0274633 -0.0267818 -0.0261437 -0.0255489 -0.0249976 -0.0244897 -0.0240252 -0.023513 -0.022862 -0.0220724 -0.021144 -0.020077 -0.0188712 -0.0175267 -0.0160434 -0.0144463 -0.0127601 -0.0109848 -0.00912046 -0.00716702 -0.00512449 -0.00299289 -0.000772211 0.00140458 0.00340453 0.00522762 0.00687386 0.00834326 0.0096358 0.0107515 0.0116903 0.0124823 0.0131572 0.0137152 0.0141562 0.0144803 0.0146874 0.0147775 0.0147506 0.0146122 0.0143677 0.0140171 0.0135604 0.0129977 0.0123288 0.0115538 0.0106727 0.00967886 0.00856566 0.00733309 0.00598115 0.00450984 0.00291915 0.0012091 -0.000620325 -0.00240208 -0.00396913 -0.00532147 -0.0064591 -0.00738202 -0.00809023 -0.00858373 -0.00886252 -0.00894865 -0.00886415 -0.00860904 -0.0081833 -0.00758694 -0.00681996 -0.00588236 -0.00477414 -0.0036552 -0.00268545 -0.0018649 -0.00119353 -0.000671363 -0.000298384 -7.45959e-05 0 0 -2.62563e-05 -0.000105025 -0.000236306 -0.0004201 -0.000656407 -0.000945226 -0.00128656 -0.0016804 -0.00214683 -0.00270592 -0.00335766 -0.00410206 -0.00493911 -0.00586883 -0.0068912 -0.00800622 -0.00919825 -0.0104516 -0.0117664 -0.0131424 -0.0145799 -0.0160786 -0.0176388 -0.0192602 -0.0208896 -0.0224735 -0.0240118 -0.0255046 -0.0269518 -0.0283536 -0.0297097 -0.0310204 -0.032213 -0.0332149 -0.0340262 -0.0346469 -0.0350769 -0.0353163 -0.0353651 -0.0352232 -0.0349542 -0.0346217 -0.0342257 -0.0337661 -0.033243 -0.0326563 -0.0320061 -0.0312923 -0.0305681 -0.0298868 -0.0292482 -0.0286523 -0.0280993 -0.027589 -0.0271215 -0.0266968 -0.0261856 -0.0254587 -0.0245161 -0.0233578 -0.0219837 -0.020394 -0.0185886 -0.0165674 -0.0143646 -0.0120141 -0.00951595 -0.00687013 -0.00407665 -0.00113551 0.00195329 0.00518975 0.00838635 0.0113555 0.0140973 0.0166117 0.0188987 0.0209583 0.0227905 0.0243953 0.0257869 0.0269793 0.0279728 0.0287671 0.0293624 0.0297586 0.0299557 0.0299538 0.0297609 0.0293853 0.0288269 0.0280858 0.0271619 0.0260552 0.0247657 0.0232935 0.0216498 0.0198458 0.0178815 0.015757 0.0134722 0.0110271 0.00842173 0.0056561 0.00295072 0.000526126 -0.00161769 -0.00348073 -0.00506298 -0.00636446 -0.00738515 -0.00812507 -0.00860491 -0.00884539 -0.0088465 -0.00860825 -0.00813063 -0.00741365 -0.0064573 -0.00526158 -0.0040284 -0.00295964 -0.00205531 -0.0013154 -0.00073991 -0.000328849 -8.22122e-05 0 0 -3.28185e-05 -0.000131274 -0.000295366 -0.000525096 -0.000820462 -0.00118147 -0.00160811 -0.00210038 -0.00266961 -0.0033271 -0.00407285 -0.00490685 -0.00582913 -0.00683966 -0.00793845 -0.0091255 -0.0103829 -0.0116929 -0.0130554 -0.0144704 -0.0159379 -0.017458 -0.0190305 -0.0206556 -0.0222851 -0.0238707 -0.0254125 -0.0269105 -0.0283647 -0.0297751 -0.0311416 -0.0324644 -0.0336676 -0.0346756 -0.0354885 -0.0361061 -0.0365286 -0.0367559 -0.0367879 -0.0366248 -0.03634 -0.0360071 -0.0356259 -0.0351966 -0.0347192 -0.0341936 -0.0336198 -0.0329978 -0.0323717 -0.0317853 -0.0312387 -0.0307319 -0.0302648 -0.0298375 -0.02945 -0.0291022 -0.028618 -0.027821 -0.0267114 -0.0252891 -0.023554 -0.0215063 -0.0191458 -0.0164726 -0.0135319 -0.010369 -0.00698372 -0.00337616 0.000453688 0.00450583 0.00878028 0.013277 0.0177415 0.0219192 0.0258101 0.0294142 0.0327314 0.0357619 0.0385056 0.0409625 0.043124 0.0449814 0.0465347 0.047784 0.0487292 0.0493704 0.0497075 0.0497405 0.0494811 0.0489407 0.0481193 0.047017 0.0456337 0.0439694 0.0420242 0.0397981 0.0373267 0.0346457 0.0317553 0.0286553 0.0253459 0.0218269 0.0180983 0.0141603 0.0102971 0.00679318 0.00364848 0.000863024 -0.00156319 -0.00363016 -0.00533789 -0.00668638 -0.00769343 -0.00837685 -0.00873662 -0.00877276 -0.00848526 -0.00787412 -0.00693934 -0.00568093 -0.00434946 -0.00319552 -0.00221911 -0.00142023 -0.000798881 -0.000355058 -8.87645e-05 0 0 -4.03179e-05 -0.000161272 -0.000362861 -0.000645086 -0.00100795 -0.00145144 -0.00197558 -0.00258034 -0.00326508 -0.00402912 -0.00487246 -0.00579509 -0.00679703 -0.00787827 -0.00903881 -0.0102786 -0.0115776 -0.0129156 -0.0142925 -0.0157084 -0.0171633 -0.0186572 -0.02019 -0.0217618 -0.0233331 -0.0248645 -0.0263559 -0.0278072 -0.0292186 -0.0305901 -0.0319215 -0.033213 -0.0343874 -0.0353675 -0.0361534 -0.036745 -0.0371423 -0.0373455 -0.0373543 -0.0371689 -0.0368734 -0.0365517 -0.0362039 -0.03583 -0.0354299 -0.0350037 -0.0345515 -0.0340731 -0.0335988 -0.0331589 -0.0327534 -0.0323822 -0.0320455 -0.0317431 -0.0314751 -0.0312414 -0.0308101 -0.0299491 -0.0286584 -0.026938 -0.0247878 -0.0222079 -0.0191983 -0.015759 -0.0119484 -0.00782476 -0.00338815 0.00136144 0.00642401 0.0117995 0.0174881 0.0234896 0.02947 0.0350955 0.0403658 0.0452811 0.0498414 0.0540466 0.0578968 0.0613919 0.0644935 0.0671632 0.069401 0.0712068 0.0725807 0.0735227 0.0740327 0.0741108 0.0737726 0.0730338 0.0718942 0.070354 0.0684131 0.0660715 0.0633292 0.0601862 0.0567094 0.0529654 0.0489544 0.0446762 0.0401309 0.0353184 0.0302389 0.0248923 0.0196371 0.014832 0.010477 0.00657216 0.00311737 0.000112663 -0.00244195 -0.00454646 -0.00621422 -0.00745853 -0.0082794 -0.00867684 -0.00865083 -0.00820139 -0.0073285 -0.00603218 -0.00461839 -0.0033931 -0.00235632 -0.00150804 -0.000848275 -0.000377011 -9.42528e-05 0 0 -4.87545e-05 -0.000195018 -0.00043879 -0.000780072 -0.00121886 -0.00175516 -0.00238897 -0.00312029 -0.00393325 -0.00481198 -0.00575649 -0.00676677 -0.00784283 -0.00898466 -0.0101923 -0.0114656 -0.0127823 -0.0141196 -0.0154777 -0.0168565 -0.018256 -0.0196762 -0.0211172 -0.0225788 -0.0240339 -0.0254549 -0.0268418 -0.0281948 -0.0295137 -0.0307986 -0.0320495 -0.0332664 -0.0343723 -0.0352905 -0.0360208 -0.0365634 -0.0369181 -0.0370851 -0.0370642 -0.0368555 -0.0365543 -0.0362556 -0.0359595 -0.0356661 -0.0353752 -0.0350868 -0.0348011 -0.034518 -0.0342495 -0.0340075 -0.0337922 -0.0336034 -0.0334413 -0.0333058 -0.0331968 -0.0331145 -0.0327621 -0.0318429 -0.0303571 -0.0283045 -0.0256851 -0.022499 -0.0187462 -0.0144267 -0.0096139 -0.00438142 0.00127078 0.00734268 0.0138343 0.0207456 0.0280767 0.0358274 0.043572 0.0508844 0.0577646 0.0642127 0.0702286 0.0758124 0.0809641 0.0856835 0.0898956 0.093525 0.0965717 0.0990357 0.100917 0.102216 0.102932 0.103065 0.102636 0.101665 0.100152 0.0980968 0.0955 0.0923613 0.0886807 0.0844581 0.079798 0.0748049 0.0694787 0.0638195 0.0578272 0.0515018 0.0448434 0.037852 0.0309707 0.0246427 0.018868 0.0136467 0.00897868 0.00486402 0.00130269 -0.00170531 -0.00416726 -0.00609044 -0.00747485 -0.00832048 -0.00862735 -0.00839544 -0.00762477 -0.00631532 -0.00483517 -0.00355237 -0.00246692 -0.00157883 -0.000888092 -0.000394708 -9.86769e-05 0 0 -5.81283e-05 -0.000232513 -0.000523155 -0.000930052 -0.00145321 -0.00209262 -0.00284829 -0.00372021 -0.0046741 -0.00567568 -0.00672494 -0.00782189 -0.00896652 -0.0101588 -0.0113988 -0.0126865 -0.0139969 -0.015305 -0.0166109 -0.0179146 -0.019216 -0.0205151 -0.021812 -0.0231067 -0.0243872 -0.0256418 -0.0268704 -0.0280731 -0.0292499 -0.0304007 -0.0315255 -0.0326244 -0.0336224 -0.0344445 -0.0350908 -0.0355613 -0.0358559 -0.0359747 -0.0359176 -0.0356847 -0.0353828 -0.0351189 -0.0348929 -0.034705 -0.0345549 -0.0344429 -0.0343688 -0.0343326 -0.0343237 -0.0343312 -0.0343551 -0.0343955 -0.0344523 -0.0345256 -0.0346152 -0.0347213 -0.0344738 -0.0335025 -0.0318074 -0.0293886 -0.0262459 -0.0223796 -0.0177894 -0.0124755 -0.0065285 -3.89757e-05 0.00699305 0.0145676 0.0226846 0.0313441 0.0405461 0.0502906 0.0600473 0.0692859 0.0780064 0.0862088 0.0938931 0.101059 0.107707 0.113837 0.11933 0.124067 0.128047 0.131271 0.133738 0.135449 0.136404 0.136602 0.13607 0.134833 0.132892 0.130246 0.126895 0.122839 0.118079 0.112614 0.106593 0.100164 0.0933284 0.0860853 0.0784348 0.0703771 0.0619119 0.0530395 0.0442978 0.0362251 0.0288214 0.0220866 0.0160208 0.0106239 0.00589601 0.00183708 -0.00155256 -0.00427257 -0.00632295 -0.00770369 -0.00841481 -0.00845629 -0.00782815 -0.00653037 -0.00499981 -0.00367333 -0.00255093 -0.00163259 -0.000918333 -0.000408148 -0.000102037 0 0 -6.74239e-05 -0.000269696 -0.000606815 -0.00107878 -0.0016856 -0.00242726 -0.00330377 -0.00431513 -0.00540356 -0.00651128 -0.0076383 -0.00878462 -0.00995022 -0.0111351 -0.0123393 -0.0135628 -0.0147789 -0.0159609 -0.0171088 -0.0182227 -0.0193024 -0.0203481 -0.0213597 -0.0223372 -0.0232915 -0.0242333 -0.0251627 -0.0260796 -0.026984 -0.0278761 -0.0287556 -0.0296228 -0.0304088 -0.0310451 -0.0315317 -0.0318685 -0.0320556 -0.032093 -0.0319806 -0.0317185 -0.0314256 -0.0312208 -0.0311041 -0.0310755 -0.0311351 -0.0312828 -0.0315186 -0.0318426 -0.0322143 -0.0325934 -0.0329798 -0.0333736 -0.0337748 -0.0341834 -0.0345993 -0.0350226 -0.0349983 -0.0340714 -0.032242 -0.02951 -0.0258753 -0.0213381 -0.0158984 -0.00955601 -0.00241956 0.00540248 0.0139101 0.0231033 0.0329822 0.0435466 0.0547966 0.0667322 0.0787059 0.0900703 0.100825 0.110971 0.120507 0.129434 0.137752 0.14546 0.152388 0.158366 0.163393 0.167469 0.170595 0.172771 0.173995 0.17427 0.173625 0.172094 0.169676 0.166371 0.16218 0.157101 0.151136 0.144285 0.136745 0.128716 0.120199 0.111192 0.101697 0.0917122 0.0812389 0.0702766 0.0594673 0.0494531 0.040234 0.0318098 0.0241808 0.0173467 0.0113077 0.00606378 0.00162433 -0.00200117 -0.0048127 -0.00681028 -0.00799389 -0.00836354 -0.00791924 -0.00666098 -0.00509981 -0.0037468 -0.00260194 -0.00166524 -0.0009367 -0.000416311 -0.000104078 0 0 -7.56261e-05 -0.000302504 -0.000680635 -0.00121002 -0.00189065 -0.00272254 -0.00370568 -0.00484007 -0.00603752 -0.00720985 -0.00835705 -0.00947912 -0.0105761 -0.0116479 -0.0126946 -0.0137161 -0.0146857 -0.0155763 -0.016388 -0.0171207 -0.0177746 -0.0183495 -0.0188454 -0.0192625 -0.019645 -0.0200373 -0.0204394 -0.0208513 -0.0212731 -0.0217046 -0.022146 -0.0225972 -0.0230029 -0.0233077 -0.0235117 -0.0236149 -0.0236172 -0.0235188 -0.0233194 -0.0230193 -0.0227493 -0.0226406 -0.022693 -0.0229067 -0.0232815 -0.0238176 -0.0245149 -0.0253734 -0.0263139 -0.0272574 -0.0282037 -0.029153 -0.0301051 -0.0310601 -0.0320181 -0.0329789 -0.0333887 -0.0326936 -0.0308935 -0.0279884 -0.0239783 -0.0188634 -0.0126434 -0.00531849 0.00298554 0.0121428 0.0221534 0.0330173 0.0447344 0.0573048 0.0707285 0.0850054 0.0993578 0.113008 0.125955 0.138201 0.149743 0.160584 0.170722 0.180157 0.18866 0.196 0.202177 0.20719 0.211041 0.213728 0.215252 0.215613 0.21485 0.213001 0.210066 0.206045 0.200938 0.194746 0.187467 0.179103 0.169907 0.160134 0.149785 0.138859 0.127355 0.115276 0.102619 0.0893852 0.0763281 0.0642006 0.0530027 0.0427345 0.0333959 0.0249869 0.0175076 0.0109579 0.00535786 0.000727531 -0.0029331 -0.00562403 -0.00734527 -0.00809681 -0.00787866 -0.0066908 -0.00512265 -0.00376358 -0.00261359 -0.0016727 -0.000940894 -0.000418175 -0.000104544 0 0 -8.27347e-05 -0.000330939 -0.000744613 -0.00132376 -0.00206837 -0.00297845 -0.004054 -0.00529502 -0.00657599 -0.00777138 -0.00888118 -0.00990541 -0.0108441 -0.0116971 -0.0124646 -0.0131465 -0.0137172 -0.0141512 -0.0144483 -0.0146087 -0.0146323 -0.0145191 -0.0142691 -0.0138824 -0.0134476 -0.0130537 -0.0127007 -0.0123884 -0.012117 -0.0118864 -0.0116966 -0.0115476 -0.0114045 -0.0112323 -0.0110309 -0.0108004 -0.0105407 -0.010252 -0.00993407 -0.00958704 -0.00935405 -0.00937827 -0.00965971 -0.0101983 -0.0109942 -0.0120473 -0.0133575 -0.014925 -0.0166226 -0.0183232 -0.0200269 -0.0217335 -0.0234432 -0.0251558 -0.0268715 -0.0285902 -0.029645 -0.0293688 -0.0277618 -0.0248238 -0.020555 -0.0149552 -0.00802455 0.000237015 0.0096868 0.0201821 0.031723 0.0443094 0.0579413 0.0726188 0.0883418 0.10511 0.122003 0.138098 0.153397 0.167898 0.181602 0.194508 0.206618 0.21793 0.228146 0.236969 0.244398 0.250433 0.255074 0.258321 0.260174 0.260634 0.259745 0.257554 0.254062 0.249267 0.24317 0.235771 0.227071 0.217068 0.206078 0.194418 0.182087 0.169084 0.155411 0.141067 0.126052 0.110365 0.0948801 0.0804674 0.0671276 0.0548604 0.0436661 0.0335444 0.0244955 0.0165194 0.00964803 0.00391352 -0.000684143 -0.00414497 -0.00646895 -0.00765609 -0.00770639 -0.00661985 -0.00506832 -0.00372367 -0.00258588 -0.00165496 -0.000930917 -0.000413741 -0.000103435 0 0 -8.87499e-05 -0.000355 -0.000798749 -0.00142 -0.00221875 -0.003195 -0.00434875 -0.00568 -0.00701896 -0.00819586 -0.0092107 -0.0100635 -0.0107542 -0.0112828 -0.0116494 -0.0118539 -0.0118736 -0.0116856 -0.0112899 -0.0106866 -0.00987568 -0.00885709 -0.00763084 -0.00619695 -0.00469953 -0.0032827 -0.00194645 -0.000690794 0.000484275 0.00157875 0.00259265 0.00352595 0.00438627 0.00518123 0.00591082 0.00657504 0.00717389 0.00770737 0.00817548 0.00857823 0.00876022 0.00856608 0.00799581 0.0070494 0.00572687 0.00402819 0.00195339 -0.000497546 -0.00314041 -0.00579099 -0.00844929 -0.0111153 -0.013789 -0.0164705 -0.0191597 -0.0218566 -0.0237671 -0.0240973 -0.022847 -0.0200163 -0.0156052 -0.00961372 -0.00204181 0.00711051 0.0176842 0.0295203 0.0426188 0.0569796 0.0726028 0.0894884 0.107636 0.127047 0.146641 0.165342 0.183149 0.200062 0.216082 0.231208 0.245439 0.258777 0.270847 0.281274 0.290057 0.297198 0.302695 0.30655 0.308762 0.30933 0.30831 0.305754 0.301663 0.296037 0.288876 0.280179 0.269947 0.25818 0.24526 0.231568 0.217105 0.20187 0.185864 0.169086 0.151537 0.133217 0.115123 0.0982537 0.0826085 0.0681878 0.0549913 0.0430193 0.0322716 0.0227483 0.0144949 0.00755681 0.00193417 -0.00237308 -0.00536493 -0.00704139 -0.00740245 -0.00644812 -0.00493684 -0.00362707 -0.0025188 -0.00161203 -0.000906767 -0.000403007 -0.000100752 0 0 -9.36716e-05 -0.000374686 -0.000843045 -0.00149875 -0.00234179 -0.00337218 -0.00458991 -0.00599498 -0.00736644 -0.00848331 -0.0093456 -0.00995331 -0.0103064 -0.010405 -0.010249 -0.00983833 -0.00915466 -0.00817946 -0.00691274 -0.00535448 -0.0035047 -0.00136339 0.00106944 0.00379381 0.00659938 0.00927585 0.0118232 0.0142415 0.0165306 0.0186907 0.0207216 0.0226235 0.0243695 0.0