<?xml version="1.0"?> 
<VTKFile type="StructuredGrid" version="0.1"> 
<StructuredGrid WholeExtent="0 128 0 128 0 0"> 
<Piece Extent="0 128 0 128 0 0"> 
<PointData>
<DataArray type="Float32" Name="u" format="ascii" NumberOfComponents="1"> 
0 0 0 0 0 0 0 0 0 0 0 0 0 0 0 0 0 0 0 0 0 0 0 0 0 0 0 0 0 0 0 0 0 0 0 0 0 0 0 0 0 0 0 0 0 0 0 0 0 0 0 0 0 0 0 0 0 0 0 0 0 0 0 0 0 0 0 0 0 0 0 0 0 0 0 0 0 0 0 0 0 0 0 0 0 0 0 0 0 0 0 0 0 0 0 0 0 0 0 0 0 0 0 0 0 0 0 0 0 0 0 0 0 0 0 0 0 0 0 0 0 0 0 0 0 0 0 0 0 0 1.53507e-07 6.14029e-07 1.38156e-06 2.45611e-06 3.83768e-06 5.52626e-06 7.52185e-06 9.82446e-06 1.26054e-05 1.60362e-05 2.01167e-05 2.48469e-05 3.02269e-05 3.62566e-05 4.29361e-05 5.02654e-05 5.80592e-05 6.61324e-05 7.44851e-05 8.31172e-05 9.20287e-05 0.00010122 0.00011069 0.00012044 0.000130264 0.000139959 0.000149525 0.00015896 0.000168266 0.000177442 0.000186489 0.000195406 0.000204108 0.000212509 0.000220609 0.00022841 0.000235909 0.000243108 0.000250006 0.000256604 0.000262928 0.000269004 0.000274832 0.000280412 0.000285744 0.000290829 0.000295665 0.000300254 0.000304669 0.000308985 0.000313202 0.00031732 0.000321338 0.000325257 0.000329077 0.000332797 0.000336457 0.000340092 0.000343703 0.00034729 0.000350853 0.000354392 0.000357907 0.000361398 0.000364811 0.000368094 0.000371247 0.000374268 0.000377159 0.000379919 0.000382549 0.000385048 0.000387286 0.000389134 0.000390592 0.00039166 0.000392337 0.000392625 0.000392522 0.000392028 0.000391018 0.000389365 0.000387069 0.00038413 0.000380547 0.000376322 0.000371453 0.000365941 0.000359763 0.000352895 0.000345337 0.000337089 0.000328151 0.000318524 0.000308206 0.000297199 0.000285649 0.000273703 0.000261362 0.000248625 0.000235492 0.000221963 0.000208038 0.000193718 0.000179333 0.000165213 0.000151358 0.000137768 0.000124443 0.000111384 9.85903e-05 8.60617e-05 7.41554e-05 6.32287e-05 5.32815e-05 4.43139e-05 3.63258e-05 2.93172e-05 2.32882e-05 1.82388e-05 1.39641e-05 1.02593e-05 7.12452e-06 4.55969e-06 2.56483e-06 1.13992e-06 2.84981e-07 0 0 6.14029e-07 2.45611e-06 5.52626e-06 9.82446e-06 1.53507e-05 2.2105e-05 3.00874e-05 3.92978e-05 5.04218e-05 6.41447e-05 8.04667e-05 9.93877e-05 0.000120908 0.000145027 0.000171745 0.000201062 0.000232237 0.00026453 0.00029794 0.000332469 0.000368115 0.000404878 0.00044276 0.000481759 0.000521057 0.000559837 0.000598098 0.00063584 0.000673064 0.000709769 0.000745955 0.000781623 0.00081643 0.000850035 0.000882438 0.000913638 0.000943636 0.000972432 0.00100003 0.00102642 0.00105171 0.00107602 0.00109933 0.00112165 0.00114298 0.00116331 0.00118266 0.00120102 0.00121868 0.00123594 0.00125281 0.00126928 0.00128535 0.00130103 0.00131631 0.00133119 0.00134583 0.00136037 0.00137481 0.00138916 0.00140341 0.00141757 0.00143163 0.00144559 0.00145925 0.00147238 0.00148499 0.00149707 0.00150864 0.00151968 0.0015302 0.00154019 0.00154914 0.00155654 0.00156237 0.00156664 0.00156935 0.0015705 0.00157009 0.00156811 0.00156407 0.00155746 0.00154828 0.00153652 0.00152219 0.00150529 0.00148581 0.00146376 0.00143905 0.00141158 0.00138135 0.00134836 0.0013126 0.00127409 0.00123283 0.0011888 0.0011426 0.00109481 0.00104545 0.000994499 0.000941967 0.000887852 0.000832154 0.000774873 0.000717331 0.00066085 0.00060543 0.000551072 0.000497774 0.000445537 0.000394361 0.000344247 0.000296622 0.000252915 0.000213126 0.000177256 0.000145303 0.000117269 9.31529e-05 7.29551e-05 5.58562e-05 4.10372e-05 2.84981e-05 1.82388e-05 1.02593e-05 4.55969e-06 1.13992e-06 0 0 1.38156e-06 5.52626e-06 1.24341e-05 2.2105e-05 3.45391e-05 4.97363e-05 6.76967e-05 8.84201e-05 0.000113449 0.000144326 0.00018105 0.000223622 0.000272042 0.00032631 0.000386425 0.000452388 0.000522533 0.000595192 0.000670366 0.000748055 0.000828258 0.000910976 0.000996209 0.00108396 0.00117238 0.00125963 0.00134572 0.00143064 0.00151439 0.00159698 0.0016784 0.00175865 0.00183697 0.00191258 0.00198548 0.00205569 0.00212318 0.00218797 0.00225006 0.00230944 0.00236635 0.00242103 0.00247349 0.00252371 0.0025717 0.00261746 0.00266099 0.00270229 0.00274202 0.00278087 0.00281882 0.00285588 0.00289204 0.00292731 0.00296169 0.00299518 0.00302811 0.00306082 0.00309332 0.00312561 0.00315767 0.00318953 0.00322116 0.00325258 0.0032833 0.00331285 0.00334122 0.00336841 0.00339443 0.00341927 0.00344294 0.00346543 0.00348558 0.00350221 0.00351533 0.00352494 0.00353104 0.00353362 0.00353269 0.00352825 0.00351917 0.00350429 0.00348362 0.00345717 0.00342493 0.0033869 0.00334308 0.00329347 0.00323787 0.00317605 0.00310803 0.0030338 0.00295336 0.00286671 0.00277386 0.00267479 0.00257084 0.00246333 0.00235226 0.00223762 0.00211942 0.00199767 0.00187235 0.00174346 0.00161399 0.00148691 0.00136222 0.00123991 0.00111999 0.00100246 0.000887313 0.000774555 0.000667399 0.000569058 0.000479534 0.000398825 0.000326932 0.000263855 0.000209594 0.000164149 0.000125677 9.23338e-05 6.41207e-05 4.10372e-05 2.30834e-05 1.02593e-05 2.56483e-06 0 0 2.45611e-06 9.82446e-06 2.2105e-05 3.92978e-05 6.14029e-05 8.84201e-05 0.00012035 0.000157191 0.000201687 0.000256579 0.000321867 0.000397551 0.000483631 0.000580106 0.000686978 0.000804246 0.000928947 0.00105812 0.00119176 0.00132987 0.00147246 0.00161951 0.00177104 0.00192703 0.00208423 0.00223935 0.00239239 0.00254336 0.00269226 0.00283908 0.00298382 0.00312649 0.00326572 0.00340014 0.00352975 0.00365455 0.00377454 0.00388973 0.0040001 0.00410567 0.00420685 0.00430406 0.00439731 0.00448659 0.00457191 0.00465326 0.00473064 0.00480406 0.00487471 0.00494376 0.00501123 0.00507711 0.00514141 0.00520411 0.00526523 0.00532476 0.0053833 0.00544147 0.00549924 0.00555663 0.00561364 0.00567027 0.00572651 0.00578236 0.00583698 0.00588951 0.00593995 0.00598829 0.00603455 0.00607871 0.00612078 0.00616076 0.00619658 0.00622615 0.00624947 0.00626656 0.0062774 0.00628199 0.00628034 0.00627245 0.00625629 0.00622984 0.00619311 0.00614608 0.00608876 0.00602115 0.00594325 0.00585506 0.00575621 0.00564631 0.00552539 0.00539342 0.00525042 0.00509638 0.0049313 0.00475519 0.00457039 0.00437925 0.00418179 0.00397799 0.00376787 0.00355141 0.00332862 0.00309949 0.00286932 0.0026434 0.00242172 0.00220429 0.0019911 0.00178215 0.00157745 0.00137699 0.00118649 0.00101166 0.000852504 0.000709022 0.000581213 0.000469076 0.000372612 0.00029182 0.000223425 0.000164149 0.000113992 7.29551e-05 4.10372e-05 1.82388e-05 4.55969e-06 0 0 3.83768e-06 1.53507e-05 3.45391e-05 6.14029e-05 9.5942e-05 0.000138156 0.000188046 0.000245611 0.000315136 0.000400905 0.000502917 0.000621173 0.000755673 0.000906416 0.0010734 0.00125663 0.00145148 0.00165331 0.00186213 0.00207793 0.00230072 0.00253049 0.00276725 0.00301099 0.00325661 0.00349898 0.00373811 0.003974 0.00420665 0.00443606 0.00466222 0.00488514 0.00510269 0.00531272 0.00551524 0.00571024 0.00589773 0.0060777 0.00625016 0.00641511 0.0065732 0.00672509 0.00687079 0.0070103 0.0071436 0.00727072 0.00739163 0.00750635 0.00761673 0.00772463 0.00783005 0.00793299 0.00803345 0.00813142 0.00822692 0.00831994 0.00841141 0.00850229 0.00859257 0.00868224 0.00877132 0.00885979 0.00894767 0.00903494 0.00912029 0.00920236 0.00928117 0.00935671 0.00942898 0.00949799 0.00956372 0.00962619 0.00968215 0.00972836 0.0097648 0.0097915 0.00980843 0.00981561 0.00981304 0.00980071 0.00977546 0.00973413 0.00967673 0.00960324 0.00951368 0.00940804 0.00928633 0.00914853 0.00899407 0.00882237 0.00863342 0.00842722 0.00820378 0.00796309 0.00770516 0.00742998 0.00714123 0.00684258 0.00653405 0.00621562 0.00588729 0.00554907 0.00520096 0.00484296 0.00448332 0.00413031 0.00378394 0.0034442 0.00311109 0.00278461 0.00246476 0.00215154 0.00185389 0.00158072 0.00133204 0.00110785 0.000908145 0.000732931 0.000582206 0.000455969 0.000349101 0.000256483 0.000178113 0.000113992 6.41207e-05 2.84981e-05 7.12452e-06 0 0 5.52626e-06 2.2105e-05 4.97363e-05 8.84201e-05 0.000138156 0.000198945 0.000270787 0.00035368 0.000453796 0.000577303 0.0007242 0.000894489 0.00108817 0.00130524 0.0015457 0.00180955 0.00209013 0.00238077 0.00268146 0.00299222 0.00331303 0.00364391 0.00398484 0.00433583 0.00468951 0.00503853 0.00538288 0.00572256 0.00605758 0.00638792 0.0067136 0.00703461 0.00734787 0.00765032 0.00794194 0.00822274 0.00849273 0.00875189 0.00900023 0.00923776 0.00946541 0.00968414 0.00989394 0.0100948 0.0102868 0.0104698 0.0106439 0.0108091 0.0109681 0.0111235 0.0112753 0.0114235 0.0115682 0.0117092 0.0118468 0.0119807 0.0121124 0.0122433 0.0123733 0.0125024 0.0126307 0.0127581 0.0128846 0.0130103 0.0131332 0.0132514 0.0133649 0.0134737 0.0135777 0.0136771 0.0137718 0.0138617 0.0139423 0.0140088 0.0140613 0.0140998 0.0141241 0.0141345 0.0141308 0.014113 0.0140767 0.0140172 0.0139345 0.0138287 0.0136997 0.0135476 0.0133723 0.0131739 0.0129515 0.0127042 0.0124321 0.0121352 0.0118134 0.0114668 0.0110954 0.0106992 0.0102834 0.00985332 0.00940903 0.00895049 0.0084777 0.00799067 0.00748938 0.00697386 0.00645598 0.00594765 0.00544887 0.00495964 0.00447996 0.00400983 0.00354925 0.00309822 0.0026696 0.00227623 0.00191813 0.0015953 0.00130773 0.00105542 0.000838376 0.000656596 0.000502706 0.000369335 0.000256483 0.000164149 9.23338e-05 4.10372e-05 1.02593e-05 0 0 7.52185e-06 3.00874e-05 6.76967e-05 0.00012035 0.000188046 0.000270787 0.000368571 0.000481398 0.000617667 0.000785773 0.000985717 0.0012175 0.00148112 0.00177658 0.00210387 0.002463 0.0028449 0.00324049 0.00364977 0.00407274 0.00450941 0.00495976 0.00542381 0.00590154 0.00638295 0.006858 0.0073267 0.00778904 0.00824504 0.00869467 0.00913795 0.00957488 0.0100013 0.0104129 0.0108099 0.0111921 0.0115595 0.0119123 0.0122503 0.0125736 0.0128835 0.0131812 0.0134668 0.0137402 0.0140015 0.0142506 0.0144876 0.0147124 0.0149288 0.0151403 0.0153469 0.0155487 0.0157456 0.0159376 0.0161248 0.0163071 0.0164864 0.0166645 0.0168414 0.0170172 0.0171918 0.0173652 0.0175374 0.0177085 0.0178758 0.0180366 0.0181911 0.0183391 0.0184808 0.0186161 0.0187449 0.0188673 0.018977 0.0190676 0.019139 0.0191913 0.0192245 0.0192386 0.0192336 0.0192094 0.0191599 0.0190789 0.0189664 0.0188224 0.0186468 0.0184398 0.0182012 0.0179311 0.0176284 0.0172918 0.0169215 0.0165174 0.0160794 0.0156077 0.0151021 0.0145628 0.0139968 0.0134115 0.0128067 0.0121826 0.0115391 0.0108762 0.0101939 0.00949219 0.00878731 0.00809541 0.00741652 0.00675063 0.00609773 0.00545783 0.00483093 0.00421702 0.00363362 0.00309821 0.00261079 0.00217138 0.00177996 0.00143654 0.00114112 0.0008937 0.000684239 0.000502706 0.000349101 0.000223425 0.000125677 5.58562e-05 1.39641e-05 0 0 9.82446e-06 3.92978e-05 8.84201e-05 0.000157191 0.000245611 0.00035368 0.000481398 0.000628765 0.000806749 0.00102632 0.00128747 0.0015902 0.00193452 0.00232043 0.00274791 0.00321698 0.00371579 0.00423248 0.00476705 0.0053195 0.00588984 0.00647805 0.00708415 0.00770814 0.00833691 0.00895739 0.00956957 0.0101734 0.010769 0.0113563 0.0119353 0.012506 0.0130629 0.0136006 0.014119 0.0146182 0.0150982 0.0155589 0.0160004 0.0164227 0.0168274 0.0172162 0.0175892 0.0179464 0.0182876 0.018613 0.0189226 0.0192163 0.0194988 0.0197751 0.0200449 0.0203084 0.0205656 0.0208164 0.0210609 0.021299 0.0215332 0.0217659 0.021997 0.0222265 0.0224546 0.0226811 0.022906 0.0231295 0.0233479 0.023558 0.0237598 0.0239532 0.0241382 0.0243148 0.0244831 0.0246431 0.0247863 0.0249046 0.0249979 0.0250662 0.0251096 0.025128 0.0251214 0.0250898 0.0250252 0.0249194 0.0247724 0.0245843 0.024355 0.0240846 0.023773 0.0234202 0.0230248 0.0225853 0.0221015 0.0215737 0.0210017 0.0203855 0.0197252 0.0190207 0.0182815 0.017517 0.0167272 0.015912 0.0150715 0.0142056 0.0133145 0.012398 0.0114773 0.0105736 0.00968689 0.00881714 0.00796438 0.00712859 0.00630978 0.00550795 0.00474595 0.00404664 0.00341002 0.00283609 0.00232485 0.0018763 0.00149045 0.00116728 0.0008937 0.000656596 0.000455969 0.00029182 0.000164149 7.29551e-05 1.82388e-05 0 0 1.26361e-05 5.05444e-05 0.000113725 0.000202177 0.000315902 0.000454899 0.000619168 0.00080871 0.00103727 0.0013186 0.0016527 0.00203956 0.0024792 0.0029716 0.00351677 0.00411471 0.00475034 0.0054086 0.00608949 0.00679301 0.00751915 0.00826791 0.0090393 0.00983332 0.0106334 0.011423 0.012202 0.0129705 0.0137286 0.0144761 0.015213 0.0159395 0.0166485 0.0173331 0.0179932 0.018629 0.0192403 0.0198271 0.0203896 0.0209276 0.0214433 0.0219387 0.022414 0.022869 0.0233037 0.0237183 0.0241126 0.0244867 0.0248466 0.0251982 0.0255416 0.0258768 0.0262037 0.0265224 0.0268329 0.0271351 0.0274322 0.0277271 0.0280199 0.0283105 0.028599 0.0288854 0.0291696 0.0294517 0.0297273 0.0299922 0.0302463 0.0304897 0.0307223 0.0309441 0.0311552 0.0313556 0.0315347 0.031682 0.0317977 0.0318816 0.0319338 0.0319542 0.0319429 0.0318999 0.031815 0.0316779 0.0314886 0.0312473 0.0309537 0.030608 0.0302102 0.0297602 0.0292562 0.0286964 0.0280807 0.0274091 0.0266817 0.0258985 0.0250593 0.0241643 0.0232254 0.0222545 0.0212516 0.0202166 0.0191497 0.0180508 0.0169199 0.0157569 0.0145887 0.013442 0.0123167 0.0112128 0.0101304 0.00906936 0.0080298 0.00701168 0.00604395 0.00515554 0.00434647 0.00361672 0.00296631 0.00239523 0.00190347 0.00149104 0.00114158 0.000838712 0.000582439 0.000372761 0.000209678 9.31903e-05 2.32976e-05 0 0 1.61588e-05 6.46351e-05 0.000145429 0.00025854 0.000403969 0.000581715 0.000791779 0.00103416 0.00132547 0.0016823 0.00210466 0.00259255 0.00314596 0.00376491 0.00444938 0.00519939 0.00599611 0.00682075 0.0076733 0.00855377 0.00946216 0.0103985 0.0113627 0.0123548 0.0133544 0.014341 0.0153145 0.0162751 0.0172226 0.0181571 0.0190787 0.0199872 0.020874 0.0217304 0.0225565 0.0233522 0.0241174 0.0248523 0.0255569 0.026231 0.0268773 0.0274981 0.0280936 0.0286636 0.0292083 0.0297276 0.0302214 0.0306899 0.0311403 0.0315801 0.0320091 0.0324275 0.0328351 0.0332321 0.0336183 0.0339939 0.0343625 0.034728 0.0350902 0.0354493 0.0358052 0.0361579 0.0365074 0.0368537 0.0371916 0.0375157 0.037826 0.0381226 0.0384055 0.0386746 0.03893 0.0391716 0.0393866 0.039562 0.039698 0.0397945 0.0398514 0.0398689 0.0398469 0.0397853 0.0396718 0.0394937 0.0392511 0.0389439 0.0385723 0.0381361 0.0376353 0.0370701 0.0364381 0.0357372 0.0349674 0.0341287 0.0332211 0.0322445 0.0311991 0.0300847 0.0289162 0.0277084 0.0264612 0.0251746 0.0238487 0.0224835 0.0210789 0.0196349 0.0181845 0.0167603 0.0153626 0.0139912 0.0126461 0.0113273 0.010035 0.0087689 0.00756497 0.00645894 0.00545082 0.00454059 0.00372826 0.00301384 0.00239731 0.00187869 0.00143837 0.00105676 0.000733864 0.000469673 0.000264191 0.000117418 2.93546e-05 0 0 2.03925e-05 8.15699e-05 0.000183532 0.00032628 0.000509812 0.000734129 0.000999231 0.00130512 0.00167133 0.00211741 0.00264335 0.00324915 0.00393482 0.00470036 0.00554576 0.00647102 0.00745309 0.00846891 0.00951848 0.0106018 0.0117189 0.0128697 0.0140543 0.0152726 0.0164999 0.0177114 0.0189071 0.0200871 0.0212512 0.0223996 0.0235322 0.024649 0.0257393 0.0267926 0.0278087 0.0287878 0.0297297 0.0306345 0.0315023 0.0323329 0.0331293 0.0338944 0.034628 0.0353303 0.0360013 0.0366408 0.037249 0.0378259 0.0383801 0.0389207 0.0394475 0.0399605 0.0404599 0.0409454 0.0414173 0.0418754 0.0423242 0.0427684 0.043208 0.0436428 0.044073 0.0444985 0.0449194 0.0453355 0.0457407 0.0461285 0.0464989 0.046852 0.0471878 0.0475062 0.0478073 0.0480911 0.048342 0.0485446 0.0486989 0.0488049 0.0488627 0.0488721 0.0488332 0.048746 0.0485956 0.0483668 0.0480597 0.0476743 0.0472107 0.0466687 0.0460484 0.0453498 0.0445704 0.0437077 0.0427617 0.0417323 0.0406197 0.0394237 0.0381445 0.0367819 0.0353539 0.0338786 0.032356 0.0307859 0.0291684 0.0275036 0.0257914 0.0240318 0.0222644 0.0205287 0.0188246 0.0171523 0.0155116 0.0139026 0.0123252 0.0107796 0.00930902 0.00795684 0.00672306 0.00560768 0.00461071 0.00373214 0.00297198 0.00233022 0.00178408 0.00131075 0.000910244 0.000582556 0.000327688 0.000145639 3.64097e-05 0 0 2.53372e-05 0.000101349 0.000228035 0.000405396 0.000633431 0.00091214 0.00124152 0.00162158 0.00207487 0.00262393 0.00326877 0.00400938 0.00484577 0.00577794 0.00680589 0.00792961 0.00912128 0.0103531 0.011625 0.0129371 0.0142893 0.0156816 0.0171141 0.0185867 0.0200699 0.0215343 0.0229798 0.0244065 0.0258144 0.0272034 0.0285735 0.0299249 0.0312445 0.0325195 0.0337499 0.0349358 0.0360771 0.0371737 0.0382258 0.0392333 0.0401995 0.0411275 0.0420173 0.0428691 0.0436826 0.0444581 0.0451954 0.0458946 0.046566 0.0472201 0.0478567 0.048476 0.0490779 0.0496625 0.0502297 0.0507795 0.0513173 0.0518485 0.0523731 0.0528911 0.0534025 0.0539073 0.0544055 0.0548971 0.0553746 0.0558306 0.056265 0.0566779 0.0570692 0.057439 0.0577873 0.058114 0.058401 0.0586297 0.0588004 0.058913 0.0589674 0.0589638 0.058902 0.0587821 0.0585864 0.0582972 0.0579146 0.0574385 0.0568689 0.0562059 0.0554494 0.0545994 0.0536531 0.0526078 0.0514635 0.0502201 0.0488776 0.0474361 0.0458955 0.0442558 0.0425386 0.0407653 0.038936 0.0370505 0.0351089 0.0331113 0.0310576 0.0289478 0.0268286 0.024747 0.0227028 0.0206961 0.0187268 0.016795 0.0149007 0.0130438 0.0112761 0.00964923 0.00816319 0.006818 0.00561365 0.00455014 0.00362747 0.00284564 0.00217869 0.00160067 0.00111158 0.00071141 0.000400168 0.000177853 4.44631e-05 0 0 3.0993e-05 0.000123972 0.000278937 0.000495888 0.000774825 0.00111575 0.00151866 0.00198355 0.00253607 0.00320186 0.00398091 0.00487323 0.00587881 0.00699766 0.00822977 0.00957515 0.0110007 0.0124733 0.0139929 0.0155596 0.0171734 0.0188342 0.0205421 0.022297 0.0240644 0.0258096 0.0275326 0.0292334 0.030912 0.0325685 0.0342028 0.0358149 0.0373895 0.0389112 0.0403802 0.0417962 0.0431595 0.0444699 0.0457275 0.0469322 0.0480877 0.0491975 0.0502615 0.0512798 0.0522525 0.0531794 0.0540606 0.0548961 0.0556979 0.0564782 0.0572368 0.0579739 0.0586894 0.0593833 0.0600556 0.0607063 0.0613417 0.0619682 0.0625856 0.0631941 0.0637937 0.0643842 0.0649658 0.0655384 0.0660934 0.066622 0.0671242 0.0676002 0.0680498 0.068473 0.0688699 0.0692405 0.0695635 0.0698175 0.0700025 0.0701186 0.0701657 0.0701439 0.0700531 0.0698934 0.0696442 0.069285 0.0688157 0.0682364 0.067547 0.0667477 0.0658383 0.0648188 0.0636863 0.0624376 0.0610728 0.0595919 0.0579948 0.0562815 0.0544521 0.0525066 0.0504703 0.0483685 0.0462012 0.0439684 0.0416702 0.0393065 0.0368773 0.0343827 0.0318771 0.0294153 0.0269971 0.0246226 0.0222918 0.0200047 0.0177612 0.0155615 0.0134662 0.0115361 0.00977123 0.00817155 0.00673709 0.00546783 0.00436378 0.00342494 0.00262222 0.00192653 0.00133787 0.000856236 0.000481633 0.000214059 5.35147e-05 0 0 3.73598e-05 0.000149439 0.000336239 0.000597757 0.000933996 0.00134495 0.00183063 0.00239103 0.00305495 0.0038512 0.00477979 0.0058407 0.00703394 0.00835951 0.00981742 0.0114077 0.0130913 0.0148295 0.0166222 0.0184695 0.0203712 0.0223275 0.0243383 0.0264037 0.0284834 0.0305373 0.0325654 0.0345678 0.0365443 0.038495 0.0404199 0.042319 0.0441743 0.0459678 0.0476994 0.0493691 0.050977 0.0525231 0.0540073 0.0554296 0.056794 0.0581043 0.0593605 0.0605627 0.0617107 0.0628047 0.0638445 0.0648303 0.0657759 0.066695 0.0675878 0.0684542 0.0692941 0.0701077 0.0708949 0.0716557 0.0723975 0.0731274 0.0738455 0.0745519 0.0752465 0.0759293 0.0766003 0.0772595 0.077897 0.0785027 0.0790767 0.0796189 0.0801294 0.0806082 0.0810552 0.0814705 0.0818295 0.0821077 0.0823051 0.0824217 0.0824575 0.0824125 0.0822867 0.0820801 0.081769 0.08133 0.080763 0.080068 0.079245 0.0782941 0.0772151 0.0760081 0.0746699 0.0731971 0.0715897 0.0698478 0.0679712 0.0659601 0.0638144 0.0615342 0.0591489 0.056688 0.0541516 0.0515397 0.0488522 0.0460892 0.0432506 0.0403365 0.0374098 0.0345335 0.0317075 0.0289319 0.0262065 0.0235316 0.020907 0.0183327 0.0158793 0.0136175 0.0115472 0.00966833 0.00798102 0.00648521 0.00518092 0.00406813 0.00311466 0.00228832 0.00158911 0.00101703 0.000572081 0.000254258 6.35645e-05 0 0 4.44377e-05 0.000177751 0.000399939 0.000711003 0.00111094 0.00159976 0.00217745 0.00284401 0.0036315 0.00457196 0.00566539 0.00691179 0.00831116 0.00986351 0.0115688 0.0134271 0.0153931 0.0174217 0.0195129 0.0216665 0.0238827 0.0261615 0.0285028 0.0309067 0.0333269 0.0357175 0.0380784 0.0404096 0.042711 0.0449828 0.0472249 0.0494373 0.051599 0.0536891 0.0557076 0.0576544 0.0595296 0.0613332 0.0630652 0.0647255 0.0663184 0.067848 0.0693144 0.0707175 0.0720574 0.0733339 0.0745473 0.0756973 0.0767999 0.0778706 0.0789096 0.0799168 0.0808922 0.0818359 0.0827478 0.0836279 0.0844846 0.0853262 0.0861529 0.0869644 0.087761 0.0885425 0.089309 0.0900604 0.0907854 0.0914727 0.0921223 0.0927341 0.0933082 0.0938445 0.0943431 0.094804 0.0951991 0.0955006 0.0957084 0.0958225 0.0958429 0.0957696 0.0956026 0.095342 0.0949609 0.0944324 0.0937565 0.0929334 0.0919629 0.090845 0.0895798 0.0881673 0.086604 0.0848862 0.0830142 0.0809878 0.078807 0.0764718 0.0739824 0.0713385 0.0685744 0.0657239 0.0627872 0.0597642 0.0566549 0.0534594 0.0501775 0.0468094 0.0434268 0.0401017 0.0368341 0.0336238 0.030471 0.0273757 0.0243378 0.0213573 0.0185155 0.0158934 0.013491 0.0113083 0.00934544 0.00760228 0.00607887 0.0047752 0.00365601 0.00268605 0.00186531 0.0011938 0.000671512 0.00029845 7.46125e-05 0 0 5.22266e-05 0.000208906 0.000470039 0.000835626 0.00130567 0.00188016 0.0025591 0.0033425 0.00426572 0.00536413 0.00663772 0.00808651 0.00971048 0.0115096 0.013484 0.0156335 0.0179062 0.02025 0.0226649 0.0251509 0.027708 0.0303362 0.0330355 0.0358059 0.038595 0.0413501 0.0440714 0.0467588 0.0494123 0.052032 0.0546178 0.0571697 0.0596635 0.0620752 0.0644048 0.0666521 0.0688173 0.0709004 0.0729012 0.0748199 0.0766609 0.0784287 0.0801232 0.0817444 0.0832925 0.0847672 0.0861688 0.0874971 0.0887699 0.090005 0.0912023 0.0923619 0.0934837 0.0945678 0.0956141 0.0966227 0.0976031 0.0985647 0.0995076 0.100432 0.101337 0.102224 0.103092 0.103941 0.104759 0.105532 0.106261 0.106946 0.107586 0.108182 0.108734 0.109241 0.109672 0.109996 0.110212 0.110321 0.110322 0.110215 0.110001 0.109679 0.10922 0.108592 0.107796 0.106832 0.105701 0.104401 0.102933 0.101296 0.0994884 0.097505 0.0953462 0.0930118 0.090502 0.0878167 0.0849559 0.0819197 0.0787469 0.0754763 0.0721081 0.0686421 0.0650784 0.0614171 0.057658 0.0538012 0.0499281 0.0461199 0.0423767 0.0386985 0.0350853 0.0315371 0.0280538 0.0246355 0.0213747 0.0183637 0.0156027 0.0130916 0.0108304 0.00881905 0.00705765 0.00554616 0.00424628 0.00311971 0.00216647 0.00138654 0.000779928 0.000346635 8.66587e-05 0 0 6.06143e-05 0.000242457 0.000545529 0.000969829 0.00151536 0.00218212 0.0029701 0.00387932 0.00494849 0.00621634 0.00768287 0.00934809 0.011212 0.0132746 0.0155358 0.0179958 0.0205951 0.0232744 0.0260338 0.0288732 0.0317926 0.0347921 0.0378716 0.0410311 0.0442115 0.0473536 0.0504573 0.0535228 0.0565499 0.0595387 0.0624892 0.0654014 0.0682477 0.0710007 0.0736603 0.0762265 0.0786994 0.0810789 0.083365 0.0855577 0.0876618 0.0896819 0.0916181 0.0934702 0.0952384 0.0969226 0.0985228 0.100039 0.101491 0.102899 0.104262 0.105581 0.106856 0.108086 0.109272 0.110414 0.111522 0.112607 0.113669 0.114708 0.115724 0.116718 0.117688 0.118635 0.119546 0.120404 0.121212 0.121967 0.122672 0.123325 0.123926 0.124476 0.12494 0.125281 0.1255 0.125597 0.125572 0.125424 0.125155 0.124763 0.124216 0.123479 0.122553 0.121436 0.120131 0.118635 0.116951 0.115076 0.113008 0.110743 0.108281 0.105621 0.102764 0.09971 0.0964586 0.0930099 0.0894079 0.0856965 0.0818756 0.0779454 0.0739057 0.0697566 0.0654981 0.0611302 0.056744 0.0524306 0.04819 0.0440222 0.0399272 0.035905 0.0319556 0.028079 0.0243795 0.0209612 0.0178243 0.0149687 0.0123943 0.0101013 0.00808956 0.00635913 0.00486871 0.00357701 0.00248404 0.00158978 0.000894253 0.000397446 9.93614e-05 0 0 6.94886e-05 0.000277954 0.000625397 0.00111182 0.00173721 0.00250159 0.00340494 0.00444727 0.00567066 0.00711721 0.00878691 0.0106798 0.0127958 0.0151349 0.0176973 0.0204827 0.0234244 0.0264551 0.0295751 0.0327841 0.0360823 0.0394697 0.0429462 0.0465118 0.0501005 0.0536463 0.057149 0.0606087 0.0640255 0.0673992 0.0707299 0.0740177 0.0772314 0.0803399 0.0833434 0.0862417 0.089035 0.0917231 0.094306 0.0967839 0.0991615 0.101444 0.10363 0.105722 0.107718 0.109618 0.111423 0.113133 0.114769 0.116353 0.117886 0.119367 0.120797 0.122174 0.1235 0.124775 0.12601 0.127217 0.128396 0.129548 0.130672 0.131768 0.132836 0.133877 0.134875 0.135813 0.136693 0.137513 0.138275 0.138977 0.139621 0.140206 0.140693 0.141042 0.141255 0.141331 0.14127 0.141073 0.140738 0.140266 0.13962 0.138764 0.137696 0.136416 0.134926 0.133224 0.131311 0.129187 0.126848 0.12429 0.121513 0.118516 0.115301 0.111867 0.108214 0.104341 0.100299 0.0961357 0.0918514 0.0874461 0.0829197 0.0782724 0.073504 0.0686146 0.0637051 0.0588764 0.0541284 0.0494612 0.0448747 0.040369 0.035944 0.0315998 0.0274526 0.0236186 0.0200978 0.0168903 0.0139959 0.0114148 0.00914693 0.00719226 0.00550657 0.00404565 0.00280948 0.00179806 0.00101141 0.000449516 0.000112379 0 0 7.88494e-05 0.000315397 0.000709644 0.00126159 0.00197123 0.00283858 0.00386362 0.00504636 0.00643225 0.00806675 0.00994985 0.0120816 0.0144619 0.0170908 0.0199683 0.0230945 0.0263941 0.0297922 0.0332887 0.0368837 0.0405772 0.044369 0.0482593 0.0522481 0.0562621 0.0602282 0.0641464 0.0680167 0.071839 0.0756134 0.07934 0.0830186 0.0866145 0.090093 0.0934541 0.0966978 0.0998241 0.102833 0.105724 0.108498 0.11116 0.113714 0.11616 0.118499 0.12073 0.122854 0.12487 0.126778 0.128603 0.130368 0.132074 0.133719 0.135306 0.136832 0.138299 0.139706 0.141067 0.142394 0.143689 0.144951 0.146179 0.147375 0.148537 0.149666 0.150746 0.151758 0.152704 0.153583 0.154395 0.15514 0.155818 0.156429 0.156931 0.15728 0.157478 0.157524 0.157418 0.15716 0.15675 0.156188 0.155433 0.154446 0.153225 0.151772 0.150086 0.148167 0.146015 0.14363 0.141008 0.138145 0.135042 0.131698 0.128113 0.124288 0.120221 0.115914 0.11142 0.106794 0.102035 0.0971443 0.0921205 0.0869643 0.0816756 0.0762544 0.0708114 0.0654572 0.0601919 0.0550154 0.0499277 0.0449289 0.0400189 0.0351978 0.030594 0.0263358 0.0224233 0.0188564 0.0156352 0.0127596 0.0102298 0.00804554 0.00615987 0.00452562 0.00314279 0.00201138 0.0011314 0.000502846 0.000125712 0 0 8.86967e-05 0.000354787 0.000798271 0.00141915 0.00221742 0.00319308 0.00434614 0.00567659 0.00723326 0.00906496 0.0111717 0.0135535 0.0162103 0.0191421 0.022349 0.0258309 0.0295043 0.0332856 0.0371748 0.041172 0.0452771 0.0494901 0.053811 0.0582399 0.0626962 0.0670994 0.0714495 0.0757466 0.0799905 0.0841815 0.0883193 0.0924041 0.0963971 0.10026 0.103993 0.107595 0.111067 0.114409 0.11762 0.120701 0.123657 0.126493 0.129207 0.131802 0.134276 0.13663 0.138863 0.140975 0.142994 0.144943 0.146825 0.148638 0.150383 0.152059 0.153667 0.155207 0.156693 0.15814 0.159548 0.160917 0.162247 0.163538 0.16479 0.166003 0.167159 0.16824 0.169246 0.170176 0.171031 0.171811 0.172516 0.173146 0.173654 0.173995 0.174168 0.174175 0.174014 0.173686 0.17319 0.172527 0.171654 0.170525 0.169142 0.167504 0.165611 0.163463 0.161061 0.158404 0.155488 0.15231 0.148869 0.145166 0.1412 0.136972 0.132481 0.127728 0.122772 0.117672 0.112428 0.10704 0.101508 0.0958325 0.090013 0.0840496 0.0780628 0.0721731 0.0663804 0.0606848 0.0550863 0.0495848 0.0441804 0.0388731 0.0338036 0.0291128 0.0248006 0.020867 0.017312 0.0141357 0.011338 0.00891897 0.00682859 0.00501692 0.00348397 0.00222974 0.00125423 0.000557436 0.000139359 0 0 9.90307e-05 0.000396123 0.000891276 0.00158449 0.00247577 0.0035651 0.0048525 0.00633796 0.00807367 0.0101118 0.0124524 0.0150955 0.018041 0.0212889 0.0248393 0.0286921 0.0327549 0.0369353 0.0412333 0.0456489 0.0501821 0.0548329 0.0596013 0.0644872 0.0694027 0.0742598 0.0790584 0.0837985 0.0884801 0.0931032 0.0976679 0.102174 0.106579 0.110841 0.114959 0.118933 0.122763 0.12645 0.129993 0.133392 0.136653 0.13978 0.142772 0.145631 0.148355 0.150945 0.153402 0.155724 0.157941 0.160079 0.16214 0.164123 0.166028 0.167856 0.169606 0.171278 0.172888 0.174453 0.175972 0.177446 0.178875 0.180258 0.181596 0.182888 0.184115 0.185259 0.186318 0.187294 0.188185 0.188993 0.189716 0.190356 0.190862 0.191186 0.191326 0.191284 0.191058 0.19065 0.19006 0.189286 0.188282 0.187002 0.185445 0.183611 0.181501 0.179114 0.17645 0.173509 0.170288 0.166783 0.162993 0.15892 0.154562 0.14992 0.144994 0.139783 0.134354 0.128769 0.123028 0.117133 0.111082 0.104877 0.0985161 0.0920001 0.0854594 0.079024 0.0726941 0.0664695 0.0603504 0.0543368 0.0484285 0.0426257 0.0370816 0.0319496 0.0272298 0.0229221 0.0190265 0.0155431 0.0124718 0.00981256 0.00751274 0.00551957 0.00383303 0.00245314 0.00137989 0.000613285 0.000153321 0 0 0.000109851 0.000439405 0.00098866 0.00175762 0.00274628 0.00395464 0.00538271 0.00703047 0.00895351 0.0112074 0.0137921 0.0167076 0.0199539 0.0235311 0.0274391 0.031678 0.0361459 0.0407414 0.0454642 0.0503145 0.0552922 0.0603974 0.06563 0.0709901 0.0763818 0.0817094 0.0869729 0.0921723 0.0973076 0.102379 0.107386 0.112329 0.117161 0.121835 0.126352 0.130711 0.134913 0.138957 0.142843 0.146572 0.150148 0.153575 0.156854 0.159985 0.162967 0.165802 0.168487 0.171025 0.173444 0.175775 0.178019 0.180175 0.182242 0.184222 0.186114 0.187918 0.189652 0.191334 0.192963 0.194539 0.196063 0.197534 0.198953 0.20032 0.201613 0.202814 0.203921 0.204935 0.205856 0.206684 0.207419 0.20806 0.208556 0.208853 0.208951 0.208851 0.208552 0.208054 0.207358 0.206463 0.205319 0.203876 0.202135 0.200095 0.197756 0.195118 0.192181 0.188946 0.185408 0.181564 0.177415 0.17296 0.168198 0.163132 0.157759 0.15208 0.146165 0.140084 0.133837 0.127424 0.120844 0.114097 0.107185 0.100106 0.0930011 0.08601 0.0791328 0.0723695 0.0657201 0.0591847 0.0527631 0.0464554 0.0404278 0.0348463 0.0297109 0.0250217 0.0207787 0.0169817 0.0136309 0.0107263 0.00821233 0.00603354 0.00418996 0.00268158 0.00150839 0.000670394 0.000167598 0 0 0.000121158 0.000484633 0.00109042 0.00193853 0.00302895 0.00436169 0.00593675 0.00775412 0.00987275 0.0123516 0.0151906 0.0183898 0.0219492 0.0258688 0.0301486 0.0347886 0.0396774 0.0447037 0.0498675 0.0551688 0.0606075 0.0661837 0.0718974 0.0777485 0.0836334 0.0894483 0.0951932 0.100868 0.106473 0.112008 0.117473 0.122868 0.128142 0.133244 0.138173 0.142931 0.147516 0.15193 0.156171 0.16024 0.164141 0.167879 0.171454 0.174865 0.178113 0.181198 0.184119 0.186877 0.189504 0.192032 0.194462 0.196793 0.199025 0.201158 0.203193 0.205129 0