<?xml version="1.0"?> 
<VTKFile type="StructuredGrid" version="0.1"> 
<StructuredGrid WholeExtent="0 128 0 128 0 0"> 
<Piece Extent="0 128 0 128 0 0"> 
<PointData>
<DataArray type="Float32" Name="u" format="ascii" NumberOfComponents="1"> 
0 0 0 0 0 0 0 0 0 0 0 0 0 0 0 0 0 0 0 0 0 0 0 0 0 0 0 0 0 0 0 0 0 0 0 0 0 0 0 0 0 0 0 0 0 0 0 0 0 0 0 0 0 0 0 0 0 0 0 0 0 0 0 0 0 0 0 0 0 0 0 0 0 0 0 0 0 0 0 0 0 0 0 0 0 0 0 0 0 0 0 0 0 0 0 0 0 0 0 0 0 0 0 0 0 0 0 0 0 0 0 0 0 0 0 0 0 0 0 0 0 0 0 0 0 0 0 0 0 0 -1.61669e-07 -6.46676e-07 -1.45502e-06 -2.5867e-06 -4.04172e-06 -5.82008e-06 -7.92178e-06 -1.03468e-05 -1.25836e-05 -1.41206e-05 -1.49578e-05 -1.50951e-05 -1.45327e-05 -1.32704e-05 -1.13083e-05 -8.64639e-06 -5.20259e-06 -8.94801e-07 4.27698e-06 1.03127e-05 1.72125e-05 2.49763e-05 3.3604e-05 4.30957e-05 5.27964e-05 6.20511e-05 7.08597e-05 7.92222e-05 8.71387e-05 9.46091e-05 0.000101633 0.000108212 0.000113815 0.000117915 0.000120511 0.000121604 0.000121193 0.000119278 0.000115859 0.000110937 0.000104843 9.7908e-05 9.01322e-05 8.15156e-05 7.20584e-05 6.17603e-05 5.06216e-05 3.8642e-05 2.69142e-05 1.65303e-05 7.49037e-06 -2.05525e-07 -6.55742e-06 -1.15653e-05 -1.52292e-05 -1.75491e-05 -1.76861e-05 -1.48012e-05 -8.89455e-06 3.39818e-08 1.19843e-05 2.69566e-05 4.49506e-05 6.59665e-05 8.95987e-05 0.000115442 0.000143496 0.000173761 0.000206237 0.000240924 0.000277821 0.00031693 0.000356713 0.000395635 0.000433695 0.000470894 0.000507231 0.000542706 0.00057732 0.000611073 0.000642557 0.000670364 0.000694495 0.000714951 0.00073173 0.000744832 0.000754259 0.000760009 0.000762008 0.000760178 0.00075452 0.000745034 0.00073172 0.000714578 0.000693608 0.00066881 0.000641399 0.000612591 0.000582385 0.000550783 0.000517783 0.000483385 0.000447591 0.000410399 0.000373241 0.000337548 0.000303321 0.00027056 0.000239264 0.000209433 0.000181068 0.000154168 0.00012925 0.000106829 8.69058e-05 6.94798e-05 5.45513e-05 4.21202e-05 3.21865e-05 2.47502e-05 1.89494e-05 1.3922e-05 9.66805e-06 6.18755e-06 3.4805e-06 1.54689e-06 3.86722e-07 0 0 -6.46676e-07 -2.5867e-06 -5.82008e-06 -1.03468e-05 -1.61669e-05 -2.32803e-05 -3.16871e-05 -4.13872e-05 -5.03344e-05 -5.64824e-05 -5.9831e-05 -6.03804e-05 -5.81306e-05 -5.30815e-05 -4.52332e-05 -3.45856e-05 -2.08104e-05 -3.57921e-06 1.71079e-05 4.1251e-05 6.885e-05 9.9905e-05 0.000134416 0.000172383 0.000211186 0.000248204 0.000283439 0.000316889 0.000348555 0.000378436 0.000406534 0.000432847 0.000455261 0.00047166 0.000482045 0.000486415 0.000484771 0.000477111 0.000463438 0.000443749 0.000419372 0.000391632 0.000360529 0.000326063 0.000288233 0.000247041 0.000202486 0.000154568 0.000107657 6.6121e-05 2.99615e-05 -8.221e-07 -2.62297e-05 -4.62613e-05 -6.09169e-05 -7.01965e-05 -7.07444e-05 -5.9205e-05 -3.55782e-05 1.35927e-07 4.79374e-05 0.000107826 0.000179802 0.000263866 0.000358395 0.000461768 0.000573984 0.000695044 0.000824947 0.000963694 0.00111128 0.00126772 0.00142685 0.00158254 0.00173478 0.00188357 0.00202892 0.00217083 0.00230928 0.00244429 0.00257023 0.00268146 0.00277798 0.0028598 0.00292692 0.00297933 0.00301704 0.00304004 0.00304803 0.00304071 0.00301808 0.00298014 0.00292688 0.00285831 0.00277443 0.00267524 0.0025656 0.00245036 0.00232954 0.00220313 0.00207113 0.00193354 0.00179036 0.00164159 0.00149296 0.00135019 0.00121329 0.00108224 0.000957056 0.000837733 0.000724272 0.000616674 0.000517 0.000427317 0.000347623 0.000277919 0.000218205 0.000168481 0.000128746 9.90008e-05 7.57975e-05 5.5688e-05 3.86722e-05 2.47502e-05 1.3922e-05 6.18755e-06 1.54689e-06 0 0 -1.45502e-06 -5.82008e-06 -1.30952e-05 -2.32803e-05 -3.63755e-05 -5.23807e-05 -7.1296e-05 -9.31213e-05 -0.000113252 -0.000127085 -0.00013462 -0.000135856 -0.000130794 -0.000119433 -0.000101775 -7.78175e-05 -4.68233e-05 -8.05321e-06 3.84928e-05 9.28147e-05 0.000154913 0.000224786 0.000302436 0.000387862 0.000475168 0.00055846 0.000637737 0.000713 0.000784248 0.000851482 0.000914701 0.000973906 0.00102434 0.00106124 0.0010846 0.00109443 0.00109073 0.0010735 0.00104273 0.000998436 0.000943587 0.000881172 0.00081119 0.000733641 0.000648525 0.000555843 0.000455594 0.000347778 0.000242227 0.000148772 6.74133e-05 -1.84973e-06 -5.90168e-05 -0.000104088 -0.000137063 -0.000157942 -0.000159175 -0.000133211 -8.00509e-05 3.05837e-07 0.000107859 0.000242609 0.000404555 0.000593698 0.000806388 0.00103898 0.00129146 0.00156385 0.00185613 0.00216831 0.00250039 0.00285237 0.00321042 0.00356071 0.00390326 0.00423804 0.00456508 0.00488436 0.00519588 0.00549966 0.00578301 0.00603328 0.00625046 0.00643456 0.00658557 0.00670349 0.00678833 0.00684008 0.00685807 0.0068416 0.00679068 0.00670531 0.00658548 0.0064312 0.00624247 0.00601929 0.00577259 0.00551332 0.00524147 0.00495704 0.00466004 0.00435047 0.00402832 0.00369359 0.00335917 0.00303794 0.00272989 0.00243504 0.00215338 0.0018849 0.00162961 0.00138752 0.00116325 0.000961463 0.000782153 0.000625319 0.000490962 0.000379081 0.000289678 0.000222752 0.000170544 0.000125298 8.70124e-05 5.5688e-05 3.13245e-05 1.3922e-05 3.4805e-06 0 0 -2.5867e-06 -1.03468e-05 -2.32803e-05 -4.13872e-05 -6.46676e-05 -9.31213e-05 -0.000126748 -0.000165549 -0.000201338 -0.000225929 -0.000239324 -0.000241522 -0.000232522 -0.000212326 -0.000180933 -0.000138342 -8.32415e-05 -1.43168e-05 6.84317e-05 0.000165004 0.0002754 0.00039962 0.000537664 0.000689532 0.000844743 0.000992817 0.00113375 0.00126755 0.00139422 0.00151375 0.00162614 0.00173139 0.00182104 0.00188664 0.00192818 0.00194566 0.00193908 0.00190845 0.00185375 0.001775 0.00167749 0.00156653 0.00144211 0.00130425 0.00115293 0.000988165 0.000809945 0.000618273 0.000430626 0.000264484 0.000119846 -3.2884e-06 -0.000104919 -0.000185045 -0.000243667 -0.000280786 -0.000282978 -0.00023682 -0.000142313 5.4371e-07 0.00019175 0.000431305 0.00071921 0.00105546 0.00143358 0.00184707 0.00229593 0.00278017 0.00329979 0.00385478 0.00444514 0.00507088 0.00570741 0.00633016 0.00693912 0.0075343 0.00811569 0.0086833 0.00923713 0.00977717 0.0102809 0.0107258 0.0111119 0.0114392 0.0117077 0.0119173 0.0120681 0.0121602 0.0121921 0.0121628 0.0120723 0.0119205 0.0117075 0.0114333 0.0110977 0.010701 0.0102624 0.00980145 0.00931817 0.00881252 0.00828452 0.00773416 0.00716145 0.00656638 0.00597185 0.00540077 0.00485314 0.00432896 0.00382822 0.00335093 0.00289709 0.00246669 0.002068 0.00170927 0.00139049 0.00111168 0.000872821 0.000673923 0.000514983 0.000396003 0.00030319 0.000222752 0.000154689 9.90008e-05 5.5688e-05 2.47502e-05 6.18755e-06 0 0 -4.04172e-06 -1.61669e-05 -3.63755e-05 -6.46676e-05 -0.000101043 -0.000145502 -0.000198044 -0.00025867 -0.00031459 -0.000353015 -0.000373944 -0.000377378 -0.000363316 -0.00033176 -0.000282707 -0.00021616 -0.000130065 -2.237e-05 0.000106924 0.000257819 0.000430313 0.000624406 0.0008401 0.00107739 0.00131991 0.00155128 0.00177149 0.00198055 0.00217847 0.00236523 0.00254084 0.0027053 0.00284538 0.00294788 0.00301278 0.00304009 0.00302982 0.00298195 0.00289648 0.00277343 0.00262108 0.0024477 0.0022533 0.00203789 0.00180146 0.00154401 0.00126554 0.000966051 0.000672854 0.000413257 0.000187259 -5.13813e-06 -0.000163936 -0.000289133 -0.00038073 -0.000438728 -0.000442152 -0.000370031 -0.000222364 8.49546e-07 0.000299609 0.000673914 0.00112376 0.00164916 0.00223997 0.00288605 0.0035874 0.00434402 0.00515592 0.00602309 0.00694553 0.00792325 0.00891783 0.00989087 0.0108424 0.0117723 0.0126808 0.0135677 0.014433 0.0152768 0.0160639 0.0167591 0.0173624 0.0178738 0.0182932 0.0186208 0.0188565 0.0190002 0.0190502 0.0190044 0.018863 0.0186259 0.018293 0.0178645 0.0173402 0.0167202 0.016035 0.0153148 0.0145596 0.0137696 0.0129446 0.0120846 0.0111898 0.01026 0.00933102 0.00843871 0.00758304 0.006764 0.0059816 0.00523583 0.0045267 0.00385421 0.00323125 0.00267073 0.00217265 0.001737 0.00136378 0.001053 0.000804662 0.000618755 0.000473734 0.00034805 0.000241701 0.000154689 8.70124e-05 3.86722e-05 9.66805e-06 0 0 -5.82008e-06 -2.32803e-05 -5.23807e-05 -9.31213e-05 -0.000145502 -0.000209523 -0.000285184 -0.000372485 -0.00045301 -0.000508341 -0.000538479 -0.000543424 -0.000523176 -0.000477734 -0.000407099 -0.00031127 -0.000187293 -3.22128e-05 0.000153971 0.000371259 0.00061965 0.000899145 0.00120974 0.00155145 0.00190067 0.00223384 0.00255095 0.002852 0.00313699 0.00340593 0.00365881 0.00389562 0.00409735 0.00424494 0.00433841 0.00437774 0.00436293 0.004294 0.00417094 0.00399374 0.00377435 0.00352469 0.00324476 0.00293456 0.0025941 0.00222337 0.00182238 0.00139111 0.00096891 0.000595089 0.000269653 -7.3989e-06 -0.000236067 -0.000416351 -0.000548252 -0.000631768 -0.000636699 -0.000532845 -0.000320204 1.22335e-06 0.000431437 0.000970436 0.00161822 0.00237479 0.00322555 0.00415591 0.00516585 0.00625539 0.00742452 0.00867325 0.0100016 0.0114095 0.0128417 0.0142429 0.015613 0.0169522 0.0182603 0.0195374 0.0207835 0.0219986 0.023132 0.0241331 0.0250018 0.0257382 0.0263423 0.026814 0.0271533 0.0273603 0.0274323 0.0273664 0.0271627 0.0268212 0.0263419 0.0257248 0.0249699 0.0240772 0.0230904 0.0220533 0.0209659 0.0198282 0.0186402 0.0174019 0.0161133 0.0147744 0.0134367 0.0121517 0.0109196 0.00974016 0.0086135 0.0075396 0.00651845 0.00555006 0.004653 0.00384585 0.00312861 0.00250127 0.00196385 0.00151633 0.00115871 0.000891007 0.000682177 0.000501192 0.00034805 0.000222752 0.000125298 5.5688e-05 1.3922e-05 0 0 -7.92178e-06 -3.16871e-05 -7.1296e-05 -0.000126748 -0.000198044 -0.000285184 -0.000388167 -0.000506994 -0.000616597 -0.000691909 -0.00073293 -0.00073966 -0.0007121 -0.000650249 -0.000554106 -0.000423673 -0.000254927 -4.38453e-05 0.000209572 0.000505325 0.000843413 0.00122384 0.0016466 0.00211169 0.00258702 0.0030405 0.00347212 0.00388189 0.00426979 0.00463585 0.00498004 0.00530238 0.00557695 0.00577784 0.00590505 0.00595858 0.00593844 0.00584461 0.00567711 0.00543593 0.00513731 0.00479749 0.00441648 0.00399427 0.00353086 0.00302626 0.00248046 0.00189346 0.00131879 0.000809983 0.000367028 -1.00707e-05 -0.000321314 -0.000566701 -0.000746232 -0.000859907 -0.000866619 -0.000725261 -0.000435833 1.66511e-06 0.000587233 0.00132087 0.00220258 0.00323236 0.00439034 0.00565665 0.0070313 0.00851428 0.0101056 0.0118053 0.0136132 0.0155296 0.0174789 0.0193861 0.0212511 0.0230738 0.0248543 0.0265926 0.0282887 0.0299426 0.0314853 0.0328478 0.0340303 0.0350326 0.0358548 0.0364968 0.0369587 0.0372405 0.0373384 0.0372487 0.0369715 0.0365067 0.0358543 0.0350143 0.0339868 0.0327717 0.0314286 0.030017 0.0285369 0.0269883 0.0253713 0.0236859 0.0219319 0.0201095 0.0182888 0.0165399 0.0148628 0.0132574 0.0117239 0.0102622 0.00887234 0.00755425 0.00633326 0.00523463 0.00425839 0.00340451 0.00267301 0.00206389 0.00157714 0.00121276 0.000928519 0.000682177 0.000473734 0.00030319 0.000170544 7.57975e-05 1.89494e-05 0 0 -1.03468e-05 -4.13872e-05 -9.31213e-05 -0.000165549 -0.00025867 -0.000372485 -0.000506994 -0.000662196 -0.000805351 -0.000903718 -0.000957296 -0.000966087 -0.00093009 -0.000849304 -0.000723731 -0.000553369 -0.000332966 -5.72673e-05 0.000273727 0.000660016 0.0011016 0.00159848 0.00215066 0.00275813 0.00337897 0.00397127 0.00453502 0.00507022 0.00557687 0.00605498 0.00650454 0.00692556 0.00728418 0.00754657 0.00771272 0.00778264 0.00775633 0.00763378 0.007415 0.00709999 0.00670995 0.00626611 0.00576846 0.005217 0.00461173 0.00395266 0.00323978 0.00247309 0.00172251 0.00105794 0.000479384 -1.31536e-05 -0.000419675 -0.00074018 -0.00097467 -0.00112314 -0.00113191 -0.000947279 -0.000569251 2.17484e-06 0.000766998 0.00172522 0.00287684 0.00422185 0.00573432 0.00738828 0.00918374 0.0111207 0.0131992 0.0154191 0.0177806 0.0202835 0.0228296 0.0253206 0.0277565 0.0301372 0.0324628 0.0347332 0.0369485 0.0391087 0.0411236 0.0429033 0.0444477 0.0457568 0.0468307 0.0476693 0.0482726 0.0486406 0.0487685 0.0486514 0.0482893 0.0476822 0.0468301 0.045733 0.0443909 0.0428038 0.0410495 0.0392058 0.0372727 0.0352501 0.0331381 0.0309367 0.0286458 0.0262655 0.0238874 0.0216031 0.0194126 0.0173158 0.0153129 0.0134037 0.0115884 0.00986678 0.00827201 0.00683707 0.00556197 0.00444671 0.00349128 0.00269569 0.00205993 0.00158401 0.00121276 0.000891007 0.000618755 0.000396003 0.000222752 9.90008e-05 2.47502e-05 0 0 -1.23375e-05 -4.935e-05 -0.000111037 -0.0001974 -0.000308437 -0.00044415 -0.000604537 -0.000789599 -0.000958113 -0.00106885 -0.00112182 -0.00111702 -0.00105445 -0.0009341 -0.000755981 -0.00052009 -0.000220501 0.000148712 0.00058755 0.00109601 0.0016741 0.00232181 0.00303914 0.0038261 0.00462937 0.00539562 0.00612486 0.00681708 0.00747229 0.00809048 0.00867167 0.00921584 0.0096801 0.0100216 0.0102403 0.0103362 0.0103093 0.0101596 0.00988716 0.00949191 0.00900083 0.00844088 0.00781204 0.00711433 0.00634775 0.00551228 0.00460795 0.00363473 0.00268131 0.00183635 0.00109986 0.000471839 -4.77209e-05 -0.000458816 -0.000761445 -0.00095561 -0.000973182 -0.000746035 -0.00027417 0.000442415 0.00140372 0.00260974 0.00406048 0.00575595 0.00766341 0.00975017 0.0120162 0.0144615 0.0170862 0.0198901 0.0228733 0.0260358 0.0292532 0.0324011 0.0354796 0.0384886 0.0414282 0.0442983 0.047099 0.0498301 0.0523778 0.0546279 0.0565804 0.0582354 0.0595928 0.0606526 0.0614148 0.0618795 0.0620402 0.0618906 0.0614308 0.0606606 0.0595801 0.0581894 0.0564883 0.054477 0.0522536 0.0499163 0.0474651 0.0449 0.0422211 0.0394283 0.0365217 0.0335011 0.0304826 0.0275819 0.0247991 0.0221341 0.019587 0.0171577 0.0148462 0.0126526 0.0106193 0.00878842 0.00716014 0.00573441 0.00451123 0.0034906 0.00267252 0.002057 0.00157489 0.00115706 0.000803515 0.00051425 0.000289265 0.000128562 3.21406e-05 0 0 -1.31361e-05 -5.25445e-05 -0.000118225 -0.000210178 -0.000328403 -0.0004729 -0.00064367 -0.000840712 -0.00101372 -0.00111241 -0.00113676 -0.00108678 -0.000962474 -0.000763836 -0.000490868 -0.000143569 0.000283376 0.000795285 0.00139216 0.00207399 0.00284079 0.00369255 0.00462928 0.00565097 0.00669107 0.00768304 0.00862686 0.00952254 0.0103701 0.0111695 0.0119208 0.0126239 0.0132258 0.0136734 0.0139666 0.0141055 0.01409 0.0139203 0.0135961 0.0131177 0.0125185 0.0118321 0.0110586 0.0101978 0.00924991 0.00821482 0.00709255 0.0058831 0.00469647 0.00364264 0.00272161 0.00193339 0.00127798 0.000755368 0.000365563 0.000108562 6.89568e-05 0.000331336 0.0008957 0.00176205 0.00293038 0.0044007 0.00617301 0.00824729 0.0105835 0.0131417 0.0159218 0.0189237 0.0221476 0.0255934 0.0292612 0.0331508 0.037109 0.0409823 0.0447708 0.0484744 0.0520931 0.055627 0.059076 0.0624402 0.0655785 0.06835 0.0707547 0.0727926 0.0744636 0.0757678 0.0767052 0.0772758 0.077471 0.0772826 0.0767105 0.0757547 0.0744152 0.072692 0.0705851 0.0680945 0.0653408 0.0624447 0.059406 0.0562248 0.0529012 0.049435 0.0458264 0.0420753 0.0383245 0.0347168 0.0312523 0.0279309 0.0247527 0.0217176 0.0188257 0.0160768 0.013525 0.0112239 0.00917365 0.00737415 0.00582543 0.00452749 0.00348033 0.00268395 0.0020549 0.00150972 0.00104842 0.000670987 0.00037743 0.000167747 4.19367e-05 0 0 -1.27427e-05 -5.09708e-05 -0.000114684 -0.000203883 -0.000318568 -0.000458738 -0.000624393 -0.000815534 -0.000972186 -0.00103438 -0.0010021 -0.000875368 -0.000654171 -0.000338512 7.16097e-05 0.000576194 0.00117867 0.00188245 0.00268755 0.00359396 0.00460168 0.00571072 0.00692107 0.00823273 0.00956408 0.0108335 0.012041 0.0131866 0.0142703 0.015292 0.0162518 0.0171497 0.0179212 0.0185019 0.0188916 0.0190905 0.0190985 0.0189157 0.0185419 0.0179773 0.0172629 0.0164398 0.015508 0.0144675 0.0133182 0.0120603 0.0106936 0.00921821 0.00776798 0.00647679 0.00534463 0.00437151 0.00355742 0.00290237 0.00240636 0.00206937 0.00199451 0.00228484 0.00294036 0.00396108 0.00534699 0.0070981 0.0092144 0.0116959 0.0144947 0.0175628 0.0209004 0.0245073 0.0283836 0.0325292 0.0369442 0.0416286 0.0463971 0.0510642 0.0556299 0.0600944 0.0644575 0.0687193 0.0728797 0.0769389 0.0807258 0.0840697 0.0869706 0.0894284 0.0914432 0.093015 0.0941438 0.0948295 0.0950611 0.0948274 0.0941286 0.0929646 0.0913354 0.0892409 0.0866813 0.0836565 0.0803114 0.076791 0.0730954 0.0692245 0.0651782 0.0609567 0.05656 0.0519879 0.047413 0.0430078 0.0387722 0.0347063 0.0308101 0.0270835 0.0235266 0.0201394 0.0169892 0.0141436 0.0116025 0.00936593 0.00743387 0.00580634 0.00448334 0.00346486 0.00265279 0.00194899 0.00135346 0.000866216 0.000487246 0.000216554 5.41385e-05 0 0 -1.11573e-05 -4.4629e-05 -0.000100415 -0.000178516 -0.000278931 -0.000401661 -0.000546705 -0.000714064 -0.000833496 -0.000834759 -0.000717854 -0.00048278 -0.000129538 0.000341872 0.000931452 0.0016392 0.00246537 0.00341021 0.00447372 0.00565591 0.00695677 0.0083763 0.0099145 0.0115714 0.0132484 0.0148471 0.0163674 0.0178093 0.0191729 0.0204581 0.0216649 0.0227934 0.0237665 0.0245071 0.0250154 0.0252913 0.0253348 0.0251459 0.0247246 0.0240708 0.0232342 0.022264 0.0211604 0.0199233 0.0185527 0.0170486 0.0154111 0.01364 0.0118959 0.0103388 0.00896892 0.00778619 0.00679061 0.0059822 0.00536093 0.00492682 0.00480347 0.00511446 0.0058598 0.0070395 0.00865354 0.0107019 0.0131847 0.0161018 0.0193969 0.0230136 0.0269521 0.0312122 0.0357939 0.0406974 0.0459225 0.0514693 0.0571174 0.0626467 0.0680571 0.0733487 0.0785214 0.0835752 0.0885101 0.0933261 0.0978196 0.101787 0.105228 0.108143 0.110532 0.112394 0.11373 0.114541 0.11481 0.114525 0.113685 0.11229 0.110341 0.107836 0.104777 0.101163 0.0971652 0.0929554 0.0885333 0.0838989 0.0790523 0.0739935 0.0687224 0.063239 0.0577482 0.0524549 0.0473589 0.0424604 0.0377592 0.0332555 0.0289492 0.0248403 0.021012 0.0175474 0.0144467 0.0117097 0.00933657 0.00732718 0.00568157 0.00439974 0.00336855 0.00247486 0.00171865 0.00109994 0.000618714 0.000274984 6.8746e-05 0 0 -8.37975e-06 -3.3519e-05 -7.54177e-05 -0.000134076 -0.000209494 -0.000301671 -0.000410608 -0.000536304 -0.000597655 -0.000513558 -0.000284013 9.09819e-05 0.000611425 0.00127732 0.00208866 0.00304545 0.00414348 0.00537856 0.00675068 0.00825984 0.00990605 0.0116893 0.0136096 0.0156669 0.017744 0.0197237 0.0216059 0.0233906 0.0250778 0.0266676 0.0281599 0.0295548 0.0307614 0.0316892 0.032338 0.0327079 0.0327988 0.0326109 0.032144 0.0313982 0.0304322 0.0293047 0.0280157 0.0265653 0.0249533 0.0231799 0.021245 0.0191486 0.0170801 0.0152287 0.0135945 0.0121774 0.0109776 0.00999484 0.00922929 0.00868091 0.00849584 0.00882022 0.00965404 0.0109973 0.01285 0.0152122 0.0180838 0.0214649 0.0252901 0.029494 0.0340768 0.0390384 0.0443788 0.0500979 0.0561959 0.0626726 0.06927 0.0757299 0.0820524 0.0882373 0.0942847 0.100195 0.105967 0.111602 0.11686 0.121502 0.125527 0.128936 0.131729 0.133905 0.135465 0.136409 0.136719 0.136375 0.13538 0.133731 0.131431 0.128478 0.124872 0.120614 0.115902 0.110938 0.10572 0.100248 0.0945234 0.0885452 0.0823136 0.0758286 0.0693301 0.063058 0.0570123 0.051193 0.0456 0.0402334 0.0350933 0.0301795 0.0255932 0.0214354 0.0177063 0.0144056 0.0115335 0.00908999 0.00707501 0.00548859 0.0042022 0.00308733 0.00214398 0.00137215 0.000771832 0.000343037 8.57592e-05 0 0 -4.4102e-06 -1.76408e-05 -3.96918e-05 -7.05631e-05 -0.000110255 -0.000158767 -0.0002161 -0.000282253 -0.000264664 -7.0773e-05 0.000299421 0.000845918 0.00156872 0.00246782 0.00354323 0.00479494 0.00621301 0.0077875 0.00951842 0.0114058 0.0134495 0.0156497 0.0180063 0.0205193 0.023051 0.0254634 0.0277565 0.0299305 0.0319852 0.0339207 0.0357369 0.037434 0.0389062 0.0400479 0.0408593 0.0413402 0.0414906 0.0413107 0.0408002 0.0399594 0.038857 0.0375619 0.036074 0.0343934 0.0325201 0.0304541 0.0281954 0.0257439 0.0233207 0.0211464 0.0192213 0.0175452 0.0161182 0.0149403 0.0140114 0.0133316 0.0130716 0.0134021 0.0143231 0.0158345 0.0179365 0.0206289 0.0239118 0.0277853 0.0321743 0.0370041 0.0422747 0.047986 0.054138 0.0607309 0.0677645 0.0752388 0.0828549 0.0903139 0.0976156 0.10476 0.111748 0.118578 0.125251 0.131766 0.137847 0.143214 0.147868 0.151808 0.155035 0.157548 0.159348 0.160435 0.160786 0.160378 0.159213 0.157289 0.154606 0.151165 0.146966 0.142009 0.136523 0.130738 0.124655 0.118272 0.111592 0.104612 0.0973337 0.0897568 0.0821587 0.0748172 0.0677324 0.0609041 0.0543325 0.0480174 0.0419589 0.0361571 0.0307329 0.0258076 0.0213811 0.0174535 0.0140247 0.0110948 0.00866366 0.00673139 0.00515372 0.00378641 0.00262945 0.00168285 0.000946602 0.000420712 0.000105178 0 0 7.51401e-07 3.0056e-06 6.76261e-06 1.20224e-05 1.8785e-05 2.70504e-05 3.68186e-05 4.80896e-05 0.000165478 0.000493597 0.00103245 0.00178203 0.00274234 0.00391339 0.00529516 0.00688767 0.00867395 0.010637 0.0127769 0.0150937 0.0175872 0.0202575 0.0231047 0.0261287 0.0291692 0.0320661 0.0348194 0.037429 0.039895 0.0422173 0.0443959 0.046431 0.0482007 0.0495835 0.0505793 0.0511882 0.0514102 0.0512452 0.0506933 0.0497545 0.0485086 0.0470355 0.0453352 0.0434077 0.0412531 0.0388712 0.0362622 0.033426 0.0306176 0.0280921 0.0258494 0.0238896 0.0222127 0.0208186 0.0197074 0.018879 0.0185308 0.0188601 0.0198669 0.0215511 0.0239128 0.026952 0.0306687 0.0350629 0.0400496 0.0455438 0.0515456 0.0580549 0.0650718 0.0725962 0.0806282 0.0891677 0.0978721 0.106398 0.114747 0.122917 0.13091 0.138724 0.146361 0.153819 0.16078 0.166924 0.17225 0.176758 0.18045 0.183323 0.18538 0.186619 0.187013 0.186534 0.185184 0.182961 0.179866 0.175899 0.17106 0.165348 0.159026 0.152356 0.145338 0.137971 0.130257 0.122194 0.113783 0.105023 0.0962339 0.0877326 0.0795192 0.0715939 0.0639566 0.0566074 0.0495462 0.042773 0.0364311 0.0306639 0.0254714 0.0208535 0.0168102 0.0133415 0.0104475 0.00812817 0.00622313 0.00457209 0.00317507 0.00203204 0.00114302 0.00050801 0.000127003 0 0 7.10504e-06 2.84202e-05 6.39454e-05 0.000113681 0.000177626 0.000255782 0.000348147 0.000454723 0.00069277 0.00117955 0.00191507 0.00289931 0.0041323 0.00561401 0.00734446 0.00932364 0.0115263 0.0139272 0.0165263 0.0193235 0.0223191 0.0255128 0.0289047 0.0324949 0.0360988 0.0395319 0.0427944 0.0458861 0.0488071 0.0515574 0.0541369 0.0565457 0.0586449 0.0602957 0.0614981 0.062252 0.0625575 0.0624146 0.0618232 0.0607834 0.0593869 0.0577256 0.0557993 0.0536082 0.0511522 0.0484312 0.0454454 0.0421947 0.0389709 0.0360655 0.0334788 0.0312105 0.0292608 0.0276297 0.0263171 0.025323 0.0248734 0.0251942 0.0262855 0.0281471 0.0307792 0.0341816 0.0383545 0.0432978 0.0489158 0.0551131 0.0618895 0.0692452 0.07718 0.0856939 0.0947871 0.104459 0.114321 0.123984 0.133446 0.142709 0.151772 0.160635 0.169298 0.177761 0.18566 0.192631 0.198674 0.203788 0.207973 0.21123 0.213559 0.214959 0.215398 0.214843 0.213294 0.21075 0.207212 0.202679 0.197153 0.190632 0.183413 0.175792 0.16777 0.159345 0.150519 0.141291 0.13166 0.121628 0.111556 0.101804 0.0923728 0.0832622 0.0744724 0.0660033 0.0578549 0.0500272 0.0426879 0.0360044 0.029977 0.0246054 0.0198899 0.0158303 0.0124266 0.0096789 0.00741041 0.00544438 0.00378082 0.00241973 0.0013611 0.000604932 0.000151233 0 0 1.52972e-05 6.11889e-05 0.000137675 0.000244756 0.000382431 0.0005507 0.000749564 0.000979023 0.00136914 0.00204997 0.00302152 0.00428379 0.00583678 0.00768049 0.00981491 0.0122401 0.0149205 0.017821 0.0209414 0.0242818 0.0278422 0.0316225 0.0356228 0.039843 0.0440728 0.0481018 0.05193 0.0555573 0.0589838 0.0622095 0.0652344 0.0680584 0.0705246 0.0724758 0.0739122 0.0748336 0.0752401 0.0751317 0.0745084 0.0733701 0.0718212 0.069966 0.0678044 0.0653365 0.0625622 0.0594815 0.0560945 0.0524012 0.0487318 0.0454167 0.042456 0.0398496 0.0375975 0.0356997 0.0341562 0.0329671 0.0323885 0.0326768 0.0338318 0.0358537 0.0387425 0.042498 0.0471204 0.0526096 0.0588593 0.0657634 0.0733218 0.0815345 0.0904016 0.099923 0.110099 0.120929 0.131975 0.1428 0.153404 0.163786 0.173947 0.183887 0.193605 0.203102 0.211966 0.219788 0.226567 0.232304 0.236997 0.240648 0.243256 0.244821 0.245305 0.244667 0.242908 0.240029 0.236029 0.230907 0.224665 0.217302 0.209149 0.200537 0.191466 0.181937 0.171949 0.161503 0.150597 0.139233 0.127817 0.116753 0.106043 0.0956857 0.0856819 0.0760313 0.0667339 0.0577897 0.0493927 0.0417366 0.0348214 0.0286472 0.0232139 0.0185216 0.0145702 0.0113598 0.00869736 0.00638989 0.00443743 0.00283995 0.00159747 0.000709988 0.000177497 0 0 2.59745e-05 0.000103898 0.00023377 0.000415592 0.000649362 0.000935081 0.00127275 0.00166237 0.0022465 0.00316774 0.00442606 0.00602149 0.007954 0.0102236 0.0128303 0.0157741 0.0190072 0.0224816 0.0261975 0.0301548 0.0343535 0.0387936 0.0434751 0.0483981 0.0533246 0.0580168 0.0624746 0.0666982 0.0706874 0.0744423 0.0779629 0.0812492 0.0841252 0.0864148 0.088118 0.0892349 0.0897653 0.0897094 0.0890672 0.0878385 0.0861407 0.0840907 0.0816886 0.0789343 0.075828 0.0723695 0.0685589 0.0643962 0.0602517 0.0564955 0.0531277 0.0501483 0.0475573 0.0453547 0.0435405 0.0421147 0.0413652 0.0415799 0.0427589 0.0449022 0.0480097 0.0520815 0.0571176 0.0631179 0.0699662 0.0775461 0.0858576 0.0949008 0.104676 0.115182 0.12642 0.13839 0.150605 0.162579 0.174311 0.185802 0.197051 0.208059 0.218826 0.229351 0.239178 0.247847 0.255359 0.261715 0.266913 0.270955 0.27384 0.275568 0.276093 0.275369 0.273396 0.270174 0.265704 0.259984 0.253016 0.244798 0.235698 0.22608 0.215944 0.20529 0.194119 0.18243 0.170223 0.157499 0.144708 0.132301 0.120279 0.108641 0.0973868 0.0865171 0.0760316 0.0659304 0.0564353 0.0477679 0.0399283 0.0329165 0.0267325 0.0213762 0.0168478 0.0131471 0.0100657 0.00739524 0.00513559 0.00328677 0.00184881 0.000821694 0.000205423 0 0 3.91368e-05 0.000156547 0.000352231 0.000626188 0.000978419 0.00140892 0.0019177 0.00250475 0.00332487 0.00453285 0.00612869 0.00811239 0.010484 0.0132434 0.0163907 0.0199258 0.0237862 0.0279091 0.0322945 0.0369425 0.0418531 0.0470262 0.0524619 0.0581601 0.063854 0.0692767 0.0744283 0.0793086 0.0839178 0.0882558 0.0923226 0.0961182 0.0994468 0.102113 0.104116 0.105456 0.106133 0.106148 0.1055 0.104189 0.102345 0.1001 0.0974517 0.0944017 0.0909495 0.0870951 0.0828386 0.0781799 0.0735304 0.0693018 0.0654939 0.0621067 0.0591403 0.0565947 0.0544698 0.0527657 0.0518034 0.0519037 0.0530668 0.0552926 0.058581 0.0629322 0.0683462 0.0748228 0.0822364 0.0904611 0.099497 0.109344 0.120002 0.131472 0.143752 0.156844 0.170211 0.183319 0.196167 0.208755 0.221083 0.233152 0.244961 0.25651 0.267294 0.276807 0.28505 0.292021 0.297722 0.302152 0.305311 0.307199 0.307763 0.306948 0.304756 0.301185 0.296237 0.28991 0.282205 0.273122 0.263061 0.252421 0.241202 0.229404 0.217028 0.204073 0.190539 0.176426 0.162231 0.148449 0.135081 0.122127 0.109587 0.0974608 0.0857481 0.0744493 0.0638156 0.0540984 0.0452976 0.0374133 0.0304454 0.0243941 0.0192592 0.0150408 0.0115156 0.00846043 0.0058753 0.00376019 0.00211511 0.000940047 0.000235012 0 0 5.47841e-05 0.000219136 0.000493057 0.000876545 0.0013696 0.00197223 0.00268442 0.00350618 0.00460424 0.00614531 0.0081294 0.0105565 0.0134266 0.0167398 0.020496 0.0246951 0.0292575 0.0341033 0.0392325 0.044645 0.050341 0.0563203 0.062583 0.0691291 0.0756612 0.0818818 0.087791 0.0933887 0.098675 0.10365 0.108313 0.112665 0.116489 0.119569 0.121905 0.123497 0.124344 0.124447 0.123806 0.122421 0.120435 0.117993 0.115094 0.111739 0.107927 0.103658 0.0989335 0.0937521 0.0885682 0.0838356 0.0795545 0.0757248 0.0723466 0.0694197 0.0669443 0.0649203 0.0637031 0.0636481 0.0647553 0.0670247 0.0704563 0.0750501 0.0808061 0.0877243 0.09567 0.104508 0.11424 0.124864 0.136381 0.148791 0.162094 0.17629 0.190793 0.205021 0.218972 0.232646 0.246044 0.259165 0.27201 0.284578 0.296316 0.306669 0.315638 0.323222 0.329422 0.334237 0.337668 0.339715 0.340314 0.339406 0.336988 0.333062 0.327628 0.320685 0.312233 0.302273 0.291238 0.279561 0.267241 0.25428 0.240676 0.226431 0.211543 0.196014 0.180384 0.165196 0.15045 0.136146 0.122283 0.108862 0.0958835 0.0833464 0.0715337 0.060728 0.0509293 0.0421376 0.0343529 0.0275752 0.0218045 0.0170408 0.0130469 0.00958545 0.00665656 0.0042602 0.00239636 0.00106505 0.000266262 0 0 7.29165e-05 0.000291666 0.000656248 0.00116666 0.00182291 0.00262499 0.00357291 0.00466665 0.0060846 0.00800511 0.0104282 0.0133538 0.0167821 0.0207128 0.0251462 0.0300821 0.0354213 0.0410643 0.0470113 0.0532622 0.0598171 0.0666758 0.0738385 0.081305 0.088746 0.0958319 0.102563 0.108938 0.114959 0.120625 0.125935 0.13089 0.135253 0.138785 0.141486 0.143357 0.144397 0.144607 0.143986 0.142534 0.14041 0.13777 0.134615 0.130945 0.12676 0.122059 0.116844 0.111113 0.105365 0.100097 0.0953096 0.0910026 0.087176 0.0838297 0.0809639 0.0785784 0.0770645 0.0768132 0.0778247 0.0800988 0.0836356 0.0884352 0.0944974 0.101822 0.110267 0.119688 0.130086 0.141461 0.153813 0.167141 0.181446 0.196728 0.212352 0.227685 0.242726 0.257475 0.271932 0.286098 0.299973 0.313555 0.326243 0.337433 0.347125 0.355319 0.362015 0.367213 0.370913 0.373115 0.373748 0.372741 0.370093 0.365805 0.359877 0.352309 0.3431 0.332252 0.320229 0.307499 0.294061 0.279916 0.265064 0.249504 0.233237 0.216262 0.199168 0.182542 0.166385 0.150695 0.135474 0.120722 0.106438 0.0926216 0.0795895 0.0676568 0.0568234 0.0470894 0.0384548 0.0309196 0.0244837 0.0191472 0.0146596 0.0107703 0.00747938 0.0047868 0.00269258 0.0011967 0.000299175 0 0 9.35339e-05 0.000374136 0.000841805 0.00149654 0.00233835 0.00336722 0.00458316 0.00598617 0.00776596 0.0101123 0.0130251 0.0165044 0.0205502 0.0251625 0.0303414 0.0360867 0.0422774 0.0487922 0.0556311 0.0627942 0.0702814 0.0780928 0.0862283 0.0946879 0.103109 0.111127 0.118743 0.125958 0.13277 0.13918 0.145188 0.150794 0.155737 0.159759 0.162859 0.165037 0.166293 0.166627 0.166039 0.164529 0.162269 0.159431 0.156015 0.152021 0.147448 0.142298 0.136569 0.130262 0.12392 0.118086 0.112759 0.10794 0.103629 0.0998248 0.0965285 0.09374 0.0918873 0.0913989 0.0922747 0.0945147 0.0981189 0.103087 0.10942 0.117117 0.126027 0.136 0.147036 0.159135 0.172297 0.186521 0.201808 0.218158 0.234887 0.25131 0.267429 0.283242 0.298749 0.313952 0.328849 0.343442 0.357075 0.369098 0.37951 0.38831 0.395499 0.401077 0.405044 0.4074 0.408063 0.406954 0.40407 0.399414 0.392985 0.384782 0.374806 0.363057 0.350034 0.336235 0.321662 0.306314 0.290191 0.273293 0.25562 0.237172 0.218583 0.200488 0.182886 0.165777 0.149161 0.133039 0.11741 0.102275 0.0879831 0.0748847 0.0629799 0.0522688 0.0427512 0.0344272 0.0272968 0.02136 0.0163538 0.012015 0.00834375 0.00534 0.00300375 0.001335 0.00033375 0 0 0.000116636 0.000466545