<?xml version="1.0"?> 
<VTKFile type="StructuredGrid" version="0.1"> 
<StructuredGrid WholeExtent="0 128 0 128 0 0"> 
<Piece Extent="0 128 0 128 0 0"> 
<PointData>
<DataArray type="Float32" Name="u" format="ascii" NumberOfComponents="1"> 
0 0 0 0 0 0 0 0 0 0 0 0 0 0 0 0 0 0 0 0 0 0 0 0 0 0 0 0 0 0 0 0 0 0 0 0 0 0 0 0 0 0 0 0 0 0 0 0 0 0 0 0 0 0 0 0 0 0 0 0 0 0 0 0 0 0 0 0 0 0 0 0 0 0 0 0 0 0 0 0 0 0 0 0 0 0 0 0 0 0 0 0 0 0 0 0 0 0 0 0 0 0 0 0 0 0 0 0 0 0 0 0 0 0 0 0 0 0 0 0 0 0 0 0 0 0 0 0 0 0 1.27647e-07 5.10589e-07 1.14882e-06 2.04235e-06 3.19118e-06 4.5953e-06 6.25471e-06 8.16942e-06 1.05038e-05 1.34221e-05 1.69245e-05 2.10109e-05 2.56812e-05 3.09356e-05 3.6774e-05 4.31964e-05 5.00605e-05 5.7224e-05 6.46868e-05 7.24491e-05 8.05107e-05 8.88717e-05 9.75322e-05 0.000106492 0.000115575 0.000124604 0.000133581 0.000142504 0.000151374 0.00016019 0.000168954 0.000177664 0.000186232 0.00019457 0.000202678 0.000210556 0.000218204 0.000225621 0.000232808 0.000239765 0.00024649 0.00025298 0.000259235 0.000265256 0.000271042 0.000276594 0.000281911 0.000286994 0.000291881 0.00029661 0.000301182 0.000305597 0.000309855 0.000313955 0.000317899 0.000321685 0.000325331 0.000328857 0.000332261 0.000335544 0.000338706 0.000341746 0.000344666 0.000347464 0.000350099 0.000352528 0.000354752 0.000356771 0.000358585 0.000360194 0.000361597 0.000362795 0.000363698 0.000364215 0.000364345 0.00036409 0.00036345 0.000362423 0.00036101 0.000359212 0.000356948 0.000354141 0.000350789 0.000346892 0.000342451 0.000337466 0.000331937 0.000325863 0.00031925 0.000312101 0.000304416 0.000296196 0.000287441 0.00027815 0.000268324 0.000257962 0.0002472 0.000236174 0.000224884 0.00021333 0.000201512 0.00018943 0.000177083 0.000164473 0.000151873 0.000139557 0.000127526 0.000115779 0.000104317 9.31389e-05 8.22457e-05 7.1637e-05 6.15922e-05 5.23905e-05 4.40319e-05 3.65164e-05 2.98441e-05 2.40148e-05 1.90287e-05 1.48857e-05 1.13969e-05 8.37322e-06 5.81473e-06 3.72143e-06 2.0933e-06 9.30357e-07 2.32589e-07 0 0 5.10589e-07 2.04235e-06 4.5953e-06 8.16942e-06 1.27647e-05 1.83812e-05 2.50188e-05 3.26777e-05 4.20151e-05 5.36885e-05 6.7698e-05 8.40435e-05 0.000102725 0.000123743 0.000147096 0.000172786 0.000200242 0.000228896 0.000258747 0.000289796 0.000322043 0.000355487 0.000390129 0.000425968 0.000462299 0.000498418 0.000534323 0.000570016 0.000605495 0.000640761 0.000675815 0.000710655 0.000744928 0.000778281 0.000810713 0.000842224 0.000872814 0.000902484 0.000931232 0.00095906 0.000985959 0.00101192 0.00103694 0.00106102 0.00108417 0.00110638 0.00112765 0.00114798 0.00116752 0.00118644 0.00120473 0.00122239 0.00123942 0.00125582 0.00127159 0.00128674 0.00130133 0.00131543 0.00132904 0.00134218 0.00135482 0.00136699 0.00137866 0.00138985 0.00140039 0.00141011 0.00141901 0.00142709 0.00143434 0.00144078 0.00144639 0.00145118 0.00145479 0.00145686 0.00145738 0.00145636 0.0014538 0.00144969 0.00144404 0.00143685 0.00142779 0.00141656 0.00140315 0.00138757 0.00136981 0.00134987 0.00132775 0.00130345 0.001277 0.0012484 0.00121767 0.00118479 0.00114976 0.0011126 0.00107329 0.00103185 0.0009888 0.000944697 0.000899537 0.000853321 0.000806048 0.000757719 0.000708334 0.000657892 0.00060749 0.000558227 0.000510102 0.000463115 0.000417266 0.000372556 0.000328983 0.000286548 0.000246369 0.000209562 0.000176128 0.000146066 0.000119376 9.60593e-05 7.61148e-05 5.95429e-05 4.55875e-05 3.34929e-05 2.32589e-05 1.48857e-05 8.37322e-06 3.72143e-06 9.30357e-07 0 0 1.14882e-06 4.5953e-06 1.03394e-05 1.83812e-05 2.87206e-05 4.13577e-05 5.62924e-05 7.35248e-05 9.4534e-05 0.000120799 0.000152321 0.000189098 0.000231131 0.000278421 0.000330966 0.000388768 0.000450544 0.000515016 0.000582181 0.000652042 0.000724596 0.000799846 0.000877789 0.000958428 0.00104017 0.00112144 0.00120223 0.00128254 0.00136236 0.00144171 0.00152058 0.00159897 0.00167609 0.00175113 0.0018241 0.001895 0.00196383 0.00203059 0.00209527 0.00215789 0.00221841 0.00227682 0.00233312 0.0023873 0.00243938 0.00248935 0.0025372 0.00258295 0.00262693 0.00266949 0.00271064 0.00275038 0.00278869 0.0028256 0.00286109 0.00289516 0.00292798 0.00295971 0.00299035 0.0030199 0.00304835 0.00307572 0.00310199 0.00312717 0.00315089 0.00317275 0.00319277 0.00321094 0.00322727 0.00324175 0.00325438 0.00326516 0.00327328 0.00327793 0.00327911 0.00327681 0.00327105 0.00326181 0.00324909 0.00323291 0.00321254 0.00318727 0.0031571 0.00312203 0.00308206 0.0030372 0.00298743 0.00293277 0.00287325 0.00280891 0.00273975 0.00266577 0.00258697 0.00250335 0.00241491 0.00232165 0.0022248 0.00212557 0.00202396 0.00191997 0.00181361 0.00170487 0.00159375 0.00148026 0.00136685 0.00125601 0.00114773 0.00104201 0.000938849 0.00083825 0.000740211 0.000644733 0.00055433 0.000471514 0.000396287 0.000328648 0.000268596 0.000216133 0.000171258 0.000133971 0.000102572 7.53589e-05 5.23326e-05 3.34929e-05 1.88397e-05 8.37322e-06 2.0933e-06 0 0 2.04235e-06 8.16942e-06 1.83812e-05 3.26777e-05 5.10589e-05 7.35248e-05 0.000100075 0.000130711 0.00016806 0.000214754 0.000270792 0.000336174 0.0004109 0.00049497 0.000588384 0.000691142 0.000800968 0.000915583 0.00103499 0.00115919 0.00128817 0.00142195 0.00156051 0.00170387 0.0018492 0.00199367 0.00213729 0.00228006 0.00242198 0.00256305 0.00270326 0.00284262 0.00297971 0.00311312 0.00324285 0.0033689 0.00349126 0.00360994 0.00372493 0.00383624 0.00394384 0.00404768 0.00414776 0.0042441 0.00433668 0.00442551 0.00451058 0.0045919 0.00467009 0.00474576 0.00481892 0.00488956 0.00495768 0.00502329 0.00508638 0.00514695 0.0052053 0.00526171 0.00531618 0.00536871 0.00541929 0.00546794 0.00551465 0.00555942 0.00560158 0.00564045 0.00567604 0.00570834 0.00573736 0.0057631 0.00578556 0.00580473 0.00581917 0.00582743 0.00582953 0.00582545 0.00581519 0.00579877 0.00577617 0.00574739 0.00571118 0.00566625 0.00561262 0.00555027 0.00547922 0.00539946 0.00531099 0.00521381 0.005108 0.00499361 0.00487066 0.00473914 0.00459905 0.0044504 0.00429318 0.00412739 0.0039552 0.00377879 0.00359815 0.00341328 0.00322419 0.00303088 0.00283333 0.00263157 0.00242996 0.00223291 0.00204041 0.00185246 0.00166907 0.00149022 0.00131593 0.00114619 0.000985475 0.000838248 0.00070451 0.000584262 0.000477505 0.000384237 0.000304459 0.000238171 0.00018235 0.000133971 9.30357e-05 5.95429e-05 3.34929e-05 1.48857e-05 3.72143e-06 0 0 3.19118e-06 1.27647e-05 2.87206e-05 5.10589e-05 7.97795e-05 0.000114882 0.000156368 0.000204235 0.000262594 0.000335553 0.000423113 0.000525272 0.000642031 0.000773391 0.00091935 0.00107991 0.00125151 0.0014306 0.00161717 0.00181123 0.00201277 0.00222179 0.0024383 0.0026623 0.00288937 0.00311511 0.00333952 0.0035626 0.00378434 0.00400476 0.00422384 0.00444159 0.0046558 0.00486426 0.00506696 0.0052639 0.00545509 0.00564052 0.0058202 0.00599413 0.00616224 0.00632449 0.00648088 0.0066314 0.00677606 0.00691485 0.00704778 0.00717485 0.00729702 0.00741525 0.00752956 0.00763993 0.00774637 0.00784889 0.00794747 0.00804212 0.00813328 0.00822142 0.00830653 0.0083886 0.00846765 0.00854366 0.00861664 0.00868659 0.00875246 0.0088132 0.00886881 0.00891929 0.00896463 0.00900485 0.00903993 0.00906988 0.00909245 0.00910537 0.00910864 0.00910226 0.00908624 0.00906057 0.00902526 0.0089803 0.00892371 0.00885352 0.00876971 0.0086723 0.00856129 0.00843666 0.00829843 0.00814658 0.00798125 0.00780252 0.00761041 0.00740491 0.00718602 0.00695375 0.00670809 0.00644904 0.00618 0.00590435 0.00562211 0.00533326 0.0050378 0.00473574 0.00442709 0.00411182 0.00379681 0.00348892 0.00318814 0.00289447 0.00260791 0.00232847 0.00205614 0.00179093 0.0015398 0.00130976 0.0011008 0.00091291 0.000746101 0.00060037 0.000475718 0.000372143 0.000284922 0.00020933 0.000145368 9.30357e-05 5.23326e-05 2.32589e-05 5.81473e-06 0 0 4.5953e-06 1.83812e-05 4.13577e-05 7.35248e-05 0.000114882 0.000165431 0.00022517 0.000294099 0.000378136 0.000483197 0.000609282 0.000756391 0.000924525 0.00111368 0.00132386 0.00155507 0.00180218 0.00206006 0.00232873 0.00260817 0.00289839 0.00319938 0.00351116 0.00383371 0.00416069 0.00448576 0.00480891 0.00513014 0.00544945 0.00576685 0.00608233 0.00639589 0.00670436 0.00700453 0.00729642 0.00758002 0.00785533 0.00812235 0.00838109 0.00863154 0.00887363 0.00910727 0.00933247 0.00954922 0.00975753 0.00995739 0.0101488 0.0103318 0.0105077 0.010678 0.0108426 0.0110015 0.0111548 0.0113024 0.0114444 0.0115806 0.0117119 0.0118388 0.0119614 0.0120796 0.0121934 0.0123029 0.012408 0.0125087 0.0126035 0.012691 0.0127711 0.0128438 0.0129091 0.012967 0.0130175 0.0130606 0.0130931 0.0131117 0.0131164 0.0131073 0.0130842 0.0130472 0.0129964 0.0129316 0.0128501 0.0127491 0.0126284 0.0124881 0.0123283 0.0121488 0.0119497 0.0117311 0.011493 0.0112356 0.010959 0.0106631 0.0103479 0.0100134 0.00965965 0.00928662 0.0088992 0.00850227 0.00809583 0.00767989 0.00725443 0.00681947 0.006375 0.00592102 0.00546741 0.00502405 0.00459092 0.00416804 0.0037554 0.003353 0.00296085 0.00257893 0.00221732 0.00188606 0.00158515 0.00131459 0.00107439 0.000864533 0.000685033 0.000535886 0.000410288 0.000301436 0.00020933 0.000133971 7.53589e-05 3.34929e-05 8.37322e-06 0 0 6.25471e-06 2.50188e-05 5.62924e-05 0.000100075 0.000156368 0.00022517 0.000306481 0.000400301 0.000514685 0.000657685 0.000829301 0.00102953 0.00125838 0.00151585 0.00180193 0.00211662 0.00245296 0.00280397 0.00316965 0.00355 0.00394502 0.00435472 0.00477908 0.00521811 0.00566317 0.00610562 0.00654546 0.00698269 0.00741731 0.00784933 0.00827873 0.00870552 0.00912537 0.00953394 0.00993123 0.0103172 0.010692 0.0110554 0.0114076 0.0117485 0.012078 0.012396 0.0127025 0.0129975 0.0132811 0.0135531 0.0138137 0.0140627 0.0143022 0.0145339 0.0147579 0.0149743 0.0151829 0.0153838 0.015577 0.0157625 0.0159412 0.016114 0.0162808 0.0164417 0.0165966 0.0167456 0.0168886 0.0170257 0.0171548 0.0172739 0.0173829 0.0174818 0.0175707 0.0176495 0.0177183 0.017777 0.0178212 0.0178465 0.0178529 0.0178404 0.017809 0.0177587 0.0176895 0.0176014 0.0174905 0.0173529 0.0171886 0.0169977 0.0167801 0.0165359 0.0162649 0.0159673 0.0156432 0.0152929 0.0149164 0.0145136 0.0140846 0.0136293 0.0131479 0.0126401 0.0121128 0.0115725 0.0110193 0.0104532 0.00987409 0.00928206 0.00867709 0.00805917 0.00744176 0.00683828 0.00624875 0.00567316 0.00511151 0.00456381 0.00403004 0.00351021 0.00301802 0.00256713 0.00215756 0.0017893 0.00146236 0.00117673 0.000932407 0.0007294 0.000558447 0.000410288 0.000284922 0.00018235 0.000102572 4.55875e-05 1.13969e-05 0 0 8.16942e-06 3.26777e-05 7.35248e-05 0.000130711 0.000204235 0.000294099 0.000400301 0.000522843 0.000672242 0.000859017 0.00108317 0.0013447 0.0016436 0.00197988 0.00235354 0.00276457 0.00320387 0.00366233 0.00413996 0.00463674 0.00515269 0.00568779 0.00624206 0.00681548 0.00739679 0.00797468 0.00854917 0.00912025 0.00968792 0.0102522 0.010813 0.0113705 0.0119189 0.0124525 0.0129714 0.0134756 0.013965 0.0144397 0.0148997 0.015345 0.0157753 0.0161907 0.0165911 0.0169764 0.0173467 0.017702 0.0180423 0.0183676 0.0186804 0.018983 0.0192757 0.0195582 0.0198307 0.0200931 0.0203455 0.0205878 0.0208212 0.0210468 0.0212647 0.0214748 0.0216772 0.0218718 0.0220586 0.0222377 0.0224063 0.0225618 0.0227042 0.0228334 0.0229495 0.0230524 0.0231422 0.0232189 0.0232767 0.0233097 0.0233181 0.0233018 0.0232608 0.0231951 0.0231047 0.0229896 0.0228447 0.022665 0.0224505 0.0222011 0.0219169 0.0215978 0.021244 0.0208553 0.020432 0.0199745 0.0194826 0.0189566 0.0183962 0.0178016 0.0171727 0.0165095 0.0158208 0.0151151 0.0143926 0.0136531 0.0128968 0.0121235 0.0113333 0.0105263 0.00971985 0.00893164 0.00816164 0.00740984 0.00667626 0.00596089 0.00526372 0.00458477 0.0039419 0.00335299 0.00281804 0.00233705 0.00191002 0.00153695 0.00121784 0.000952686 0.0007294 0.000535886 0.000372143 0.000238171 0.000133971 5.95429e-05 1.48857e-05 0 0 1.05271e-05 4.21083e-05 9.47436e-05 0.000168433 0.000263177 0.000378974 0.000515826 0.000673732 0.000865892 0.00110551 0.00139257 0.00172709 0.00210907 0.0025385 0.00301538 0.00353972 0.00409991 0.00468436 0.00529307 0.00592603 0.00658326 0.00726474 0.00797048 0.00870048 0.00944045 0.0101761 0.0109074 0.0116345 0.0123572 0.0130756 0.0137896 0.0144994 0.0151976 0.0158771 0.0165379 0.01718 0.0178034 0.018408 0.0189939 0.0195611 0.0201094 0.0206385 0.0211485 0.0216393 0.0221109 0.0225635 0.0229968 0.0234111 0.0238092 0.0241945 0.0245668 0.0249262 0.0252727 0.0256062 0.0259268 0.0262345 0.0265307 0.0268169 0.027093 0.0273592 0.0276153 0.0278614 0.0280974 0.0283235 0.0285361 0.0287319 0.028911 0.0290732 0.0292186 0.0293472 0.0294591 0.0295541 0.029625 0.0296645 0.0296727 0.0296495 0.0295949 0.0295089 0.0293915 0.0292428 0.0290562 0.0288256 0.0285507 0.0282318 0.0278686 0.0274614 0.0270099 0.0265144 0.025975 0.0253923 0.0247663 0.0240968 0.0233841 0.0226279 0.0218284 0.0209855 0.0201103 0.0192137 0.0182958 0.0173566 0.016396 0.0154141 0.0144108 0.0133862 0.0123625 0.0113617 0.010384 0.00942933 0.00849766 0.00758902 0.00670339 0.0058408 0.00502387 0.00427525 0.00359496 0.00298298 0.00243931 0.00196397 0.00155694 0.00121822 0.000932701 0.00068525 0.000475868 0.000304555 0.000171312 7.61389e-05 1.90347e-05 0 0 1.35153e-05 5.40612e-05 0.000121638 0.000216245 0.000337882 0.000486551 0.00066225 0.000864979 0.00111072 0.00141546 0.0017792 0.00220194 0.00268367 0.00322441 0.00382414 0.00448287 0.00518608 0.00591926 0.00668241 0.00747554 0.00829863 0.00915169 0.0100347 0.0109477 0.0118731 0.012793 0.0137077 0.014617 0.015521 0.0164196 0.0173129 0.0182009 0.0190745 0.0199248 0.0207518 0.0215555 0.0223359 0.0230929 0.0238267 0.0245371 0.0252238 0.0258865 0.0265252 0.0271398 0.0277303 0.0282968 0.0288392 0.0293576 0.0298557 0.0303373 0.0308025 0.0312511 0.0316832 0.0320989 0.032498 0.0328806 0.0332486 0.0336036 0.0339456 0.0342748 0.034591 0.0348943 0.0351846 0.035462 0.0357224 0.0359615 0.0361793 0.036376 0.0365514 0.0367055 0.0368385 0.0369502 0.0370317 0.0370741 0.0370774 0.0370417 0.0369668 0.0368528 0.0366997 0.0365076 0.0362685 0.0359747 0.0356263 0.0352232 0.0347654 0.034253 0.0336858 0.033064 0.0323881 0.0316587 0.0308758 0.0300394 0.0291495 0.028206 0.0272091 0.0261587 0.0250684 0.0239519 0.0228093 0.0216404 0.0204453 0.0192241 0.0179766 0.016703 0.0154304 0.0141862 0.0129704 0.0117829 0.0106237 0.00949296 0.00839054 0.00731649 0.00629881 0.00536554 0.00451668 0.00375223 0.00307218 0.00247654 0.00196531 0.00153849 0.0011779 0.000865399 0.000600971 0.000384622 0.00021635 9.61554e-05 2.40389e-05 0 0 1.71341e-05 6.85365e-05 0.000154207 0.000274146 0.000428353 0.000616828 0.000839572 0.00109658 0.00140673 0.00178889 0.00224306 0.00276923 0.00336742 0.00403761 0.00477981 0.00559402 0.00646238 0.00736704 0.008308 0.00928525 0.0102988 0.0113487 0.0124348 0.0135572 0.0146946 0.0158255 0.0169499 0.0180678 0.0191793 0.0202843 0.0213829 0.0224749 0.0235495 0.0245956 0.0256131 0.0266021 0.0275626 0.0284946 0.029398 0.0302729 0.0311187 0.0319348 0.0327212 0.0334778 0.0342048 0.034902 0.0355695 0.0362073 0.0368198 0.0374116 0.0379826 0.0385328 0.0390623 0.0395711 0.040059 0.0405262 0.0409748 0.0414069 0.0418225 0.0422216 0.0426043 0.0429704 0.0433201 0.0436533 0.0439651 0.0442504 0.0445093 0.0447417 0.0449477 0.0451273 0.0452804 0.0454072 0.0454967 0.0455384 0.0455323 0.0454783 0.0453765 0.0452269 0.0450293 0.044784 0.0444815 0.0441126 0.0436772 0.0431755 0.0426073 0.0419727 0.0412717 0.0405043 0.0396713 0.0387736 0.0378113 0.0367842 0.0356924 0.034536 0.0333149 0.032029 0.0306951 0.0293297 0.0279329 0.0265046 0.0250448 0.0235535 0.0220307 0.0204765 0.0189237 0.0174051 0.0159206 0.0144705 0.0130545 0.0116727 0.0103252 0.00901184 0.00776674 0.00662386 0.00558322 0.00464481 0.00380863 0.00307468 0.00244297 0.00191348 0.00146501 0.00107633 0.000747453 0.00047837 0.000269083 0.000119593 2.98981e-05 0 0 2.13835e-05 8.55341e-05 0.000192452 0.000342136 0.000534588 0.000769807 0.00104779 0.00136855 0.00175392 0.00222579 0.00278414 0.00342898 0.0041603 0.00497811 0.0058824 0.00687318 0.00792882 0.00902771 0.0101698 0.0113552 0.0125838 0.0138556 0.0151707 0.016529 0.0179051 0.0192734 0.0206341 0.021987 0.0233322 0.0246697 0.0259995 0.0273216 0.0286226 0.0298893 0.0311217 0.0323198 0.0334835 0.0346128 0.0357079 0.0367686 0.037794 0.0387833 0.0397365 0.0406535 0.0415344 0.0423791 0.0431876 0.04396 0.0447015 0.0454172 0.0461072 0.0467715 0.04741 0.0480228 0.0486099 0.0491713 0.0497094 0.0502269 0.0507237 0.0511998 0.0516552 0.0520899 0.052504 0.0528974 0.0532642 0.0535987 0.0539008 0.0541704 0.0544077 0.0546125 0.054785 0.0549251 0.0550201 0.0550575 0.0550373 0.0549595 0.0548241 0.054631 0.0543803 0.054072 0.0536952 0.053239 0.0527034 0.0520885 0.0513942 0.0506205 0.0497675 0.0488351 0.0478245 0.046737 0.0455726 0.0443313 0.043013 0.0416178 0.0401456 0.0385966 0.0369904 0.0353472 0.0336667 0.0319491 0.0301943 0.0284023 0.0265732 0.0247069 0.0228423 0.0210183 0.0192349 0.0174921 0.0157899 0.0141283 0.0125073 0.0109269 0.00942764 0.00805021 0.00679457 0.00566072 0.00464866 0.00375838 0.0029899 0.0023432 0.00179401 0.00131805 0.000915314 0.000585801 0.000329513 0.00014645 3.66125e-05 0 0 2.62635e-05 0.000105054 0.000236372 0.000420216 0.000656588 0.000945487 0.00128691 0.00168087 0.0021523 0.00272616 0.00340245 0.00418117 0.00506232 0.0060459 0.00713191 0.00832035 0.0095854 0.0109012 0.0122679 0.0136853 0.0151536 0.0166726 0.0182424 0.019863 0.0215045 0.0231369 0.0247602 0.0263745 0.0279797 0.0295758 0.0311628 0.0327408 0.0342939 0.0358062 0.0372777 0.0387085 0.0400985 0.0414478 0.0427563 0.044024 0.0452497 0.0464321 0.0475711 0.0486667 0.0497191 0.050728 0.0516936 0.0526159 0.0535007 0.0543542 0.0551763 0.055967 0.0567263 0.0574542 0.0581507 0.0588158 0.0594524 0.0600635 0.0606491 0.0612092 0.0617437 0.0622527 0.0627362 0.0631942 0.0636199 0.0640064 0.0643538 0.0646621 0.0649312 0.0651612 0.0653521 0.0655039 0.0656018 0.0656314 0.0655925 0.0654852 0.0653094 0.0650653 0.0647526 0.0643716 0.0639096 0.063354 0.0627049 0.0619623 0.0611262 0.0601965 0.0591732 0.0580565 0.0568478 0.055549 0.0541599 0.0526806 0.0511111 0.0494514 0.0477015 0.0458613 0.0439544 0.0420042 0.0400107 0.0379739 0.0358939 0.0337705 0.0316039 0.029394 0.0271862 0.0250259 0.0229131 0.0208478 0.01883 0.0168597 0.0149369 0.0130615 0.0112815 0.00964459 0.00815073 0.00679995 0.00559226 0.00452764 0.00360611 0.00282765 0.00216492 0.00159056 0.00110455 0.000706914 0.000397639 0.000176728 4.41821e-05 0 0 3.17741e-05 0.000127096 0.000285967 0.000508386 0.000794352 0.00114387 0.00155693 0.00203354 0.00260185 0.00328999 0.00409798 0.00502581 0.00607348 0.00724098 0.00852833 0.00993552 0.0114321 0.0129877 0.0146022 0.0162757 0.0180081 0.0197995 0.0216499 0.0235593 0.0254928 0.0274159 0.0293283 0.0312303 0.0331217 0.0350025 0.0368728 0.0387326 0.0405632 0.042346 0.044081 0.0457683 0.0474077 0.0489994 0.0505433 0.0520394 0.0534859 0.0548811 0.056225 0.0575176 0.0587589 0.0599488 0.0610875 0.0621748 0.0632176 0.0642226 0.0651899 0.0661194 0.0670111 0.0678651 0.0686813 0.0694597 0.0702038 0.0709168 0.0715988 0.0722498 0.0728698 0.0734588 0.0740168 0.0745438 0.075032 0.0754735 0.0758684 0.0762167 0.0765183 0.0767734 0.0769818 0.0771436 0.0772419 0.07726 0.0771978 0.0770553 0.0768326 0.0765296 0.0761464 0.0756828 0.0751247 0.0744577 0.0736818 0.0727969 0.0718032 0.0707005 0.0694889 0.0681684 0.0667412 0.0652095 0.0635731 0.0618323 0.0599868 0.0580368 0.0559823 0.0538232 0.0515869 0.0493008 0.0469649 0.0445791 0.0421436 0.0396582 0.037123 0.0345379 0.0319554 0.0294279 0.0269552 0.0245375 0.0221747 0.0198669 0.0176139 0.0154159 0.0133284 0.011407 0.0096517 0.00806252 0.00663944 0.00538246 0.0042916 0.00336684 0.00257773 0.00189384 0.00131517 0.000841709 0.000473461 0.000210427 5.26068e-05 0 0 3.79153e-05 0.000151661 0.000341237 0.000606644 0.000947882 0.00136495 0.00185785 0.00242658 0.00310258 0.0039173 0.00487074 0.0059629 0.00719377 0.00856336 0.0100717 0.0117187 0.013469 0.015287 0.0171727 0.0191262 0.0211475 0.0232365 0.0253933 0.0276178 0.0298701 0.0321103 0.0343384 0.0365544 0.0387582 0.0409499 0.0431295 0.045297 0.0474307 0.0495089 0.0515318 0.0534992 0.0554111 0.0572677 0.0590688 0.0608145 0.0625024 0.0641303 0.0656982 0.067206 0.0686538 0.0700415 0.0713692 0.0726369 0.0738521 0.0750224 0.076148 0.0772287 0.0782645 0.0792556 0.0802018 0.0811031 0.0819635 0.0827867 0.0835728 0.0843218 0.0850336 0.0857082 0.0863457 0.0869461 0.0875005 0.088 0.0884445 0.0888342 0.0891691 0.089449 0.089674 0.0898442 0.0899403 0.0899433 0.0898532 0.08967 0.0893936 0.0890241 0.0885614 0.0880057 0.0873406 0.08655 0.0856339 0.0845923 0.0834252 0.0821327 0.0807146 0.079171 0.0775047 0.0757184 0.0738123 0.0717861 0.0696401 0.0673741 0.0649882 0.0624823 0.0598881 0.057237 0.0545293 0.0517647 0.0489433 0.0460652 0.0431303 0.0401386 0.03715 0.0342242 0.0313613 0.0285613 0.0258241 0.0231499 0.0205384 0.0179899 0.0155682 0.0133374 0.0112975 0.00944841 0.00779019 0.00632285 0.00504636 0.00396074 0.00303245 0.00222792 0.00154717 0.000990186 0.00055698 0.000247547 6.18866e-05 0 0 4.4687e-05 0.000178748 0.000402183 0.000714992 0.00111718 0.00160873 0.00218966 0.00285997 0.00365449 0.00460808 0.00572072 0.00699243 0.0084232 0.010013 0.0117619 0.0136699 0.0156959 0.0177992 0.0199795 0.022237 0.0245717 0.0269835 0.0294725 0.0320386 0.0346363 0.0372203 0.0397904 0.0423468 0.0448893 0.047418 0.0499329 0.0524339 0.0548962 0.0572949 0.0596298 0.0619011 0.0641087 0.0662526 0.0683329 0.0703494 0.0722994 0.0741798 0.0759907 0.077732 0.0794038 0.0810061 0.0825388 0.084002 0.0854041 0.0867536 0.0880505 0.0892948 0.0904865 0.0916256 0.0927121 0.093746 0.0947316 0.0956733 0.0965711 0.097425 0.0982349 0.0990009 0.099723 0.100401 0.101025 0.101586 0.102082 0.102515 0.102883 0.103188 0.103429 0.103606 0.103697 0.103681 0.103559 0.103329 0.102992 0.102549 0.101998 0.10134 0.100557 0.0996309 0.0985614 0.0973485 0.0959924 0.0944929 0.0928501 0.0910641 0.0891382 0.0870759 0.0848773 0.0825423 0.0800709 0.0774632 0.0747191 0.0718386 0.0688578 0.0658129 0.0627038 0.0595306 0.0562932 0.0529917 0.049626 0.0461961 0.0427699 0.0394149 0.0361314 0.0329191 0.0297782 0.0267087 0.0237105 0.0207836 0.0180011 0.0154359 0.0130881 0.0109576 0.00904453 0.00734879 0.00587041 0.00460938 0.00352906 0.00259278 0.00180054 0.00115235 0.000648194 0.000288086 7.20216e-05 0 0 5.20051e-05 0.00020802 0.000468046 0.000832082 0.00130013 0.00187218 0.00254825 0.00332833 0.00425072 0.00535373 0.00663736 0.00810161 0.00974648 0.011572 0.0135781 0.0157648 0.0180853 0.0204928 0.0229873 0.0255688 0.0282372 0.0309926 0.033835 0.0367643 0.0397293 0.0426787 0.0456124 0.0485305 0.0514329 0.0543197 0.0571908 0.0600462 0.0628577 0.0655966 0.068263 0.070857 0.0733785 0.0758276 0.0782041 0.0805082 0.0827362 0.0848844 0.0869529 0.0889416 0.0908505 0.0926797 0.0944291 0.0960988 0.097698 0.0992362 0.100713 0.102129 0.103484 0.104778 0.106011 0.107183 0.108298 0.109362 0.110375 0.111337 0.112247 0.113105 0.113913 0.114669 0.115363 0.115983 0.11653 0.117002 0.117402 0.117728 0.11798 0.118159 0.11824 0.118199 0.118037 0.117754 0.117348 0.116822 0.116173 0.115403 0.114491 0.113418 0.112182 0.110785 0.109226 0.107506 0.105623 0.103579 0.101377 0.0990219 0.0965134 0.0938516 0.0910364 0.0880679 0.0849461 0.081671 0.0782834 0.0748241 0.0712931 0.0676904 0.0640161 0.0602701 0.0564523 0.052563 0.0486778 0.0448729 0.0411481 0.0375034 0.0339389 0.0304546 0.0270505 0.0237265 0.0205651 0.0176487 0.0149773 0.012551 0.0103696 0.00843321 0.00674184 0.00529547 0.00405434 0.0029787 0.00206854 0.00132387 0.000744676 0.000330967 8.27417e-05 0 0 5.97853e-05 0.000239141 0.000538067 0.000956564 0.00149463 0.00215227 0.00292948 0.00382626 0.00488439 0.00614566 0.00761008 0.00927763 0.0111483 0.0132221 0.0154991 0.0179792 0.0206094 0.0233367 0.0261609 0.0290822 0.0321006 0.0352159 0.0384284 0.0417378 0.0450869 0.0484184 0.0517323 0.0550285 0.058307 0.0615679 0.0648112 0.0680368 0.0712127 0.0743068 0.0773192 0.0802498 0.0830987 0.0858658 0.0885512 0.0911549 0.0936723 0.0960991 0.0984352 0.100681 0.102835 0.1049 0.106873 0.108756 0.110558 0.11229 0.113952 0.115544 0.117065 0.118516 0.119897 0.121207 0.122453 0.123639 0.124766 0.125834 0.126842 0.12779 0.12868 0.12951 0.130268 0.130943 0.131534 0.132042 0.132465 0.132805 0.133062 0.133234 0.133297 0.133223 0.133012 0.132665 0.132181 0.131561 0.130805 0.129912 0.12886 0.127628 0.126216 0.124623 0.122849 0.120896 0.118761 0.116447 0.113957 0.111296 0.108466 0.105465 0.102294 0.0989523 0.0954406 0.0917586 0.087952 0.0840663 0.0801015 0.0760577 0.0719348 0.0677328 0.0634518 0.0590917 0.0547366 0.0504707 0.0462941 0.0422065 0.0382082 0.034299 0.0304791 0.0267483 0.0231987 0.0199223 0.0169192 0.0141892 0.0117325 0.00954904 0.00763877 0.00600173 0.00459507 0.00337597 0.00234443 0.00150043 0.000843993 0.000375108 9.3777e-05 0 0 6.80275e-05 0.00027211 0.000612247 0.00108844 0.00170069 0.00244899 0.00333335 0.00435376 0.00555551 0.00698388 0.00863887 0.0105205 0.0126287 0.0149636 0.017525 0.0203131 0.0232682 0.0263306 0.0295003 0.0327774 0.0361618 0.0396535 0.0432526 0.046959 0.0507092 0.0544395 0.05815 0.0618407 0.0655116 0.0691627 0.072794 0.0764054 0.0799612 0.0834255 0.0867983 0.0900795 0.0932692 0.0963674 0.0993741 0.102289 0.105108 0.107824 0.110438 0.112949 0.115358 0.117666 0.11987 0.121973 0.123984 0.125916 0.127767 0.129538 0.131228 0.132839 0.134369 0.13582 0.137196 0.138504 0.139744 0.140916 0.14202 0.143056 0.144024 0.144924 0.145742 0.146467 0.147097 0.147632 0.148074 0.148421 0.148673 0.148832 0.148867 0.148751 0.148482 0.148063 0.147491 0.146768 0.145892 0.144866 0.143663 0.142262 0.140661 0.13886 0.136861 0.134662 0.132264 0.129667 0.126877 0.123899 0.120734 0.117382 0.113843 0.110116 0.106202 0.102101 0.0978637 0.0935396 0.0891292 0.0846325 0.0800494 0.07538 0.0706243 0.0657823 0.0609463 0.0562086 0.0515694 0.0470285 0.042586 0.0382419 0.0339962 0.0298489 0.0259017 0.0222566 0.0189135 0.0158724 0.0131333 0.0106963 0.0085612 0.00672816 0.00515125 0.00378459 0.00262819 0.00168204 0.000946147 0.00042051 0.000105127 0 0 7.67318e-05 0.000306927 0.000690586 0.00122771 0.00191829 0.00276234 0.00375986 0.00491083 0.00626408 0.00786838 0.00972375 0.0118302 0.0141877 0.0167962 0.0196558 0.0227665 0.0260617 0.0294747 0.0330056 0.0366543 0.0404209 0.0443054 0.0483077 0.0524279 0.056596 0.0607419 0.0648657 0.0689673 0.0730468 0.0771041 0.0811393 0.0851523 0.0891034 0.0929527 0.0967003 0.100346 0.10389 0.107332 0.110673 0.113912 0.117042 0.120058 0.12296 0.125747 0.12842 0.130978 0.133421 0.13575 0.137977 0.140113 0.142158 0.144112 0.145975 0.147747 0.149429 0.15102 0.152527 0.153957 0.155309 0.156584 0.157781 0.158902 0.159945 0.16091 0.161784 0.162553 0.163216 0.163774 0.164227 0.164574 0.164815 0.164951 0.164951 0.164784 0.164449 0.163947 0.163277 0.16244 0.161436 0.160265 0.158901 0.157318 0.155518 0.153499 0.151262 0.148806 0.146132 0.143241 0.140137 0.13683 0.133319 0.129603 0.125683 0.12156 0.117232 0.112699 0.108018 0.103244 0.0983761 0.0934147 0.0883599 0.0832117 0.0779699 0.0726347 0.0673067 0.0620865 0.056974 0.0519693 0.0470724 0.0422832 0.0376019 0.0330283 0.0286743 0.0246517 0.0209604 0.0176005 0.014572 0.0118749 0.00950913 0.00747476 0.00572286 0.00420455 0.00291983 0.00186869 0.00105114 0.000467172 0.000116793 0 0 8.58982e-05 0.000343593 0.000773084 0.00137437 0.00214745 0.00309233 0.00420901 0.00549748 0.00701009 0.00879916 0.0108647 0.0132067 0.0158252 0.0187201 0.0218915 0.0253394 0.0289898 0.0327689 0.0366766 0.0407129 0.0448779 0.0491715 0.0535937 0.0581446 0.0627474 0.0673256 0.0718792 0.0764081 0.0809124 0.085392 0.089847 0.0942773 0.0986391 0.102888 0.107025 0.111049 0.114961 0.118761 0.122447 0.126022 0.129476 0.132803 0.136002 0.139074 0.142019 0.144836 0.147526 0.150088 0.152536 0.154881 0.157124 0.159265 0.161304 0.163241 0.165076 0.166809 0.168447 0.169997 0.171461 0.172837 0.174126 0.175328 0.176442 0.17747 0.178395 0.179203 0.179894 0.180468 0.180925 0.181265 0.181488 0.181594 0.181549 0.181322 0.180911 0.180317 0.17954 0.17858 0.177437 0.17611 0.174573 0.172799 0.170787 0.168538 0.166051 0.163327 0.160366 0.157167 0.153739 0.15009 0.146219 0.142128 0.137816 0.133282 0.128528 0.123552 0.118416 0.113179 0.107842 0.102404 0.0968663 0.0912277 0.0854886 0.0796491 0.073818 0.0681043 0.0625079 0.0570289 0.0516673 0.046423 0.0412961 0.0362865 0.0315163 0.0271074 0.0230598 0.0193735 0.0160486 0.0130849 0.0104826 0.00824153 0.00630992 0.00463586 0.00321935 0.00206038 0.00115896 0.000515095 0.000128774 0 0 9.55266e-05 0.000382107 0.00085974 0.00152843 0.00238817 0.00343896 0.0046808 0.0061137 0.00779355 0.00977622 0.0120617 0.0146501 0.0175413 0.0207353 0.0242321 0.0280318 0.0320527 0.0362132 0.0405134 0.0449533 0.0495327 0.0542518 0.0591106 0.0641089 0.0691635 0.0741907 0.0791906 0.0841632 0.0891085 0.0940265 0.0989172 0.103781 0.108568 0.113233 0.117773 0.12219 0.126483 0.130652 0.134698 0.13862 0.142409 0.146058 0.149565 0.152931 0.156157 0.159241 0.162184 0.164986 0.16766 0.170221 0.172667 0.174999 0.177217 0.17932 0.18131 0.183185 0.184955 0.186626 0.1882 0.189676 0.191054 0.192335 0.193517 0.194602 0.195573 0.196416 0.197129 0.197713 0.198168 0.198494 0.19869 0.198758 0.198661 0.198365 0.197869 0.197174 0.19628 0.195186 0.193893 0.1924 0.19068 0.188702 0.186468 0.183977 0.181229 0.178225 0.174964 0.171446 0.167681 0.163678 0.159436 0.154957 0.15024 0.145285 0.140092 0.134661 0.129057 0.123346 0.117527 0.111602 0.105569 0.0994282 0.0931804 0.0868253 0.0804801 0.0742621 0.0681712 0.0622074 0.0563708 0.0506613 0.0450789 0.0396236 0.0344279 0.0296239 0.0252118 0.0211915 0.017563 0.0143263 0.0114815 0.00902847 0.00691242 0.00507851 0.00352674 0.00225712 0.00126963 0.000564279 0.00014107 0 0 0.000105617 0.000422469 0.000950554 0.00168987 0.00264043 0.00380222 0.00517524 0.0067595 0.00861445 0.0107996 0.0133148 0.0161603 0.0193359 0.0228416 0.0266776 0.0308436 0.0352502 0.0398077 0.0445161 0.0493753 0.0543854 0.0595464 0.0648583 0.070321 0.0758441 0.0813371 0.0867999 0.0922326 0.0976352 0.103008 0.10835 0.113662 0.118891 0.123985 0.128944 0.133767 0.138455 0.143007 0.147424 0.151705 0.155842 0.159822 0.163648 0.167318 0.170832 0.174192 0