<?xml version="1.0"?> 
<VTKFile type="StructuredGrid" version="0.1"> 
<StructuredGrid WholeExtent="0 128 0 128 0 0"> 
<Piece Extent="0 128 0 128 0 0"> 
<PointData>
<DataArray type="Float32" Name="u" format="ascii" NumberOfComponents="1"> 
0 0 0 0 0 0 0 0 0 0 0 0 0 0 0 0 0 0 0 0 0 0 0 0 0 0 0 0 0 0 0 0 0 0 0 0 0 0 0 0 0 0 0 0 0 0 0 0 0 0 0 0 0 0 0 0 0 0 0 0 0 0 0 0 0 0 0 0 0 0 0 0 0 0 0 0 0 0 0 0 0 0 0 0 0 0 0 0 0 0 0 0 0 0 0 0 0 0 0 0 0 0 0 0 0 0 0 0 0 0 0 0 0 0 0 0 0 0 0 0 0 0 0 0 0 0 0 0 0 0 2.02365e-07 8.09461e-07 1.82129e-06 3.23784e-06 5.05913e-06 7.28515e-06 9.91589e-06 1.29514e-05 1.65756e-05 2.09727e-05 2.61427e-05 3.20855e-05 3.88011e-05 4.62896e-05 5.45509e-05 6.35851e-05 7.31222e-05 8.28922e-05 9.28951e-05 0.000103131 0.0001136 0.000124302 0.000135236 0.000146404 0.000157544 0.000168395 0.000178958 0.000189232 0.000199218 0.000208916 0.000218325 0.000227446 0.0002362 0.00024451 0.000252377 0.000259799 0.000266777 0.000273311 0.0002794 0.000285046 0.000290334 0.000295352 0.000300099 0.000304575 0.000308781 0.000312716 0.00031638 0.000319773 0.000323046 0.000326346 0.000329674 0.000333031 0.000336416 0.000339828 0.000343269 0.000346738 0.000350315 0.000354078 0.000358029 0.000362167 0.000366492 0.000371004 0.000375703 0.000380589 0.000385586 0.000390619 0.000395688 0.000400792 0.000405932 0.000411108 0.000416319 0.000421565 0.000426636 0.000431319 0.000435616 0.000439525 0.000443046 0.000446181 0.000448928 0.000451288 0.000453036 0.000453944 0.000454014 0.000453245 0.000451637 0.000449191 0.000445906 0.000441782 0.000436736 0.000430685 0.000423628 0.000415565 0.000406497 0.000396424 0.000385345 0.000373261 0.000360339 0.000346748 0.000332487 0.000317556 0.000301956 0.000285687 0.000268748 0.000251139 0.000233305 0.000215689 0.000198291 0.000181111 0.000164149 0.000147405 0.000130879 0.000114571 9.8996e-05 8.4668e-05 7.1587e-05 5.97531e-05 4.91663e-05 3.98265e-05 3.17338e-05 2.48882e-05 1.90551e-05 1.39996e-05 9.72197e-06 6.22206e-06 3.49991e-06 1.55551e-06 3.88879e-07 0 0 8.09461e-07 3.23784e-06 7.28515e-06 1.29514e-05 2.02365e-05 2.91406e-05 3.96636e-05 5.18055e-05 6.63025e-05 8.3891e-05 0.000104571 0.000128342 0.000155205 0.000185158 0.000218204 0.00025434 0.000292489 0.000331569 0.00037158 0.000412524 0.000454399 0.000497206 0.000540945 0.000585615 0.000630174 0.00067358 0.000715832 0.00075693 0.000796874 0.000835664 0.000873301 0.000909783 0.000944801 0.000978042 0.00100951 0.00103919 0.00106711 0.00109324 0.0011176 0.00114018 0.00116134 0.00118141 0.0012004 0.0012183 0.00123512 0.00125086 0.00126552 0.00127909 0.00129218 0.00130538 0.0013187 0.00133212 0.00134566 0.00135931 0.00137308 0.00138695 0.00140126 0.00141631 0.00143212 0.00144867 0.00146597 0.00148401 0.00150281 0.00152236 0.00154235 0.00156248 0.00158275 0.00160317 0.00162373 0.00164443 0.00166527 0.00168626 0.00170654 0.00172528 0.00174246 0.0017581 0.00177219 0.00178472 0.00179571 0.00180515 0.00181214 0.00181578 0.00181605 0.00181298 0.00180655 0.00179676 0.00178362 0.00176713 0.00174694 0.00172274 0.00169451 0.00166226 0.00162599 0.0015857 0.00154138 0.00149304 0.00144136 0.00138699 0.00132995 0.00127023 0.00120783 0.00114275 0.00107499 0.00100456 0.00093322 0.000862755 0.000793162 0.000724442 0.000656594 0.000589619 0.000523515 0.000458285 0.000395984 0.000338672 0.000286348 0.000239012 0.000196665 0.000159306 0.000126935 9.95529e-05 7.62202e-05 5.59985e-05 3.88879e-05 2.48882e-05 1.39996e-05 6.22206e-06 1.55551e-06 0 0 1.82129e-06 7.28515e-06 1.63916e-05 2.91406e-05 4.55322e-05 6.55663e-05 8.9243e-05 0.000116562 0.000149181 0.000188755 0.000235284 0.000288769 0.00034921 0.000416607 0.000490958 0.000572266 0.0006581 0.00074603 0.000836056 0.000928179 0.0010224 0.00111871 0.00121713 0.00131763 0.00141789 0.00151556 0.00161062 0.00170309 0.00179297 0.00188024 0.00196493 0.00204701 0.0021258 0.00220059 0.00227139 0.00233819 0.00240099 0.00245979 0.0025146 0.00256541 0.00261301 0.00265817 0.00270089 0.00274118 0.00277903 0.00281444 0.00284742 0.00287796 0.00290741 0.00293711 0.00296707 0.00299728 0.00302774 0.00305846 0.00308942 0.00312064 0.00315283 0.0031867 0.00322226 0.0032595 0.00329842 0.00333903 0.00338132 0.0034253 0.00347028 0.00351557 0.00356119 0.00360713 0.00365339 0.00369997 0.00374687 0.00379409 0.00383972 0.00388187 0.00392054 0.00395572 0.00398742 0.00401563 0.00404036 0.0040616 0.00407732 0.0040855 0.00408612 0.0040792 0.00406473 0.00404272 0.00401315 0.00397604 0.00393062 0.00387616 0.00381265 0.00374009 0.00365848 0.00356782 0.00346811 0.00335935 0.00324305 0.00312073 0.00299238 0.00285801 0.00271761 0.00257118 0.00241873 0.00226025 0.00209974 0.0019412 0.00178462 0.00162999 0.00147734 0.00132664 0.00117791 0.00103114 0.000890964 0.000762012 0.000644283 0.000537778 0.000442496 0.000358439 0.000285604 0.000223994 0.000171495 0.000125997 8.74977e-05 5.59985e-05 3.14992e-05 1.39996e-05 3.49991e-06 0 0 3.23784e-06 1.29514e-05 2.91406e-05 5.18055e-05 8.09461e-05 0.000116562 0.000158654 0.000207222 0.00026521 0.000335564 0.000418283 0.000513368 0.000620818 0.000740634 0.000872815 0.00101736 0.00116995 0.00132627 0.00148632 0.0016501 0.0018176 0.00198882 0.00216378 0.00234246 0.0025207 0.00269432 0.00286333 0.00302772 0.0031875 0.00334266 0.0034932 0.00363913 0.0037792 0.00391217 0.00403803 0.00415678 0.00426843 0.00437297 0.00447041 0.00456074 0.00464535 0.00472563 0.00480158 0.0048732 0.00494049 0.00500345 0.00506208 0.00511637 0.00516873 0.00522154 0.00527479 0.0053285 0.00538265 0.00543725 0.00549231 0.00554781 0.00560503 0.00566525 0.00572846 0.00579467 0.00586387 0.00593606 0.00601124 0.00608942 0.00616938 0.00624991 0.00633101 0.00641268 0.00649492 0.00657772 0.0066611 0.00674504 0.00682617 0.00690111 0.00696985 0.00703239 0.00708874 0.0071389 0.00718285 0.00722062 0.00724857 0.0072631 0.00726422 0.00725192 0.00722619 0.00718705 0.00713449 0.00706851 0.00698777 0.00689095 0.00677804 0.00664904 0.00650396 0.00634279 0.00616552 0.00597218 0.00576543 0.00554796 0.00531979 0.0050809 0.0048313 0.00457099 0.00429997 0.00401823 0.00373288 0.00345102 0.00317265 0.00289777 0.00262638 0.00235847 0.00209406 0.00183314 0.00158394 0.00135469 0.00114539 0.000956049 0.00078666 0.000637224 0.000507741 0.000398212 0.000304881 0.000223994 0.000155551 9.95529e-05 5.59985e-05 2.48882e-05 6.22206e-06 0 0 5.05913e-06 2.02365e-05 4.55322e-05 8.09461e-05 0.000126478 0.000182129 0.000247897 0.000323784 0.000414391 0.000524319 0.000653567 0.000802137 0.000970028 0.00115724 0.00136377 0.00158963 0.00182805 0.0020723 0.00232238 0.00257827 0.00283999 0.00310754 0.0033809 0.00366009 0.00393859 0.00420988 0.00447395 0.00473081 0.00498046 0.0052229 0.00545813 0.00568614 0.005905 0.00611276 0.00630942 0.00649497 0.00666942 0.00683276 0.00698501 0.00712615 0.00725836 0.0073838 0.00750247 0.00761438 0.00771952 0.00781789 0.00790949 0.00799433 0.00807614 0.00815865 0.00824186 0.00832577 0.00841039 0.00849571 0.00858173 0.00866845 0.00875786 0.00885195 0.00895072 0.00905417 0.00916229 0.00927509 0.00939257 0.00951472 0.00963966 0.00976549 0.0098922 0.0100198 0.0101483 0.0102777 0.010408 0.0105391 0.0106659 0.010783 0.0108904 0.0109881 0.0110762 0.0111545 0.0112232 0.0112822 0.0113259 0.0113486 0.0113503 0.0113311 0.0112909 0.0112298 0.0111476 0.0110445 0.0109184 0.0107671 0.0105907 0.0103891 0.0101624 0.0099106 0.00963363 0.00933152 0.00900848 0.00866869 0.00831217 0.00793891 0.00754891 0.00714217 0.0067187 0.00627848 0.00583262 0.00539222 0.00495726 0.00452776 0.00410371 0.00368512 0.00327197 0.00286428 0.0024749 0.0021167 0.00178967 0.00149383 0.00122916 0.000995663 0.000793346 0.000622206 0.000476376 0.000349991 0.000243049 0.000155551 8.74977e-05 3.88879e-05 9.72197e-06 0 0 7.28515e-06 2.91406e-05 6.55663e-05 0.000116562 0.000182129 0.000262265 0.000356972 0.000466249 0.000596723 0.000755019 0.000941137 0.00115508 0.00139684 0.00166643 0.00196383 0.00228906 0.0026324 0.00298412 0.00334422 0.00371271 0.00408959 0.00447485 0.0048685 0.00527054 0.00567157 0.00606222 0.00644249 0.00681237 0.00717186 0.00752098 0.0078597 0.00818805 0.00850321 0.00880238 0.00908556 0.00935275 0.00960396 0.00983918 0.0100584 0.0102617 0.010452 0.0106327 0.0108036 0.0109647 0.0111161 0.0112578 0.0113897 0.0115118 0.0116296 0.0117485 0.0118683 0.0119891 0.012111 0.0122338 0.0123577 0.0124826 0.0126113 0.0127468 0.012889 0.013038 0.0131937 0.0133561 0.0135253 0.0137012 0.0138811 0.0140623 0.0142448 0.0144285 0.0146136 0.0147999 0.0149875 0.0151763 0.0153589 0.0155275 0.0156822 0.0158229 0.0159497 0.0160625 0.0161614 0.0162464 0.0163093 0.016342 0.0163445 0.0163168 0.0162589 0.0161709 0.0160526 0.0159041 0.0157225 0.0155046 0.0152506 0.0149604 0.0146339 0.0142713 0.0138724 0.0134374 0.0129722 0.0124829 0.0119695 0.011432 0.0108704 0.0102847 0.00967492 0.00904101 0.00839898 0.00776479 0.00713846 0.00651998 0.00590935 0.00530657 0.00471164 0.00412456 0.00356386 0.00304805 0.00257713 0.00215111 0.00176999 0.00143375 0.00114242 0.000895976 0.000685982 0.000503987 0.000349991 0.000223994 0.000125997 5.59985e-05 1.39996e-05 0 0 9.91589e-06 3.96636e-05 8.9243e-05 0.000158654 0.000247897 0.000356972 0.000485879 0.000634617 0.000812206 0.00102766 0.00128099 0.00157219 0.00190126 0.00226819 0.002673 0.00311567 0.00358299 0.00406172 0.00455186 0.00505342 0.00556639 0.00609077 0.00662657 0.00717379 0.00771964 0.00825136 0.00876894 0.00927239 0.0097617 0.0102369 0.0106979 0.0111448 0.0115738 0.011981 0.0123665 0.0127301 0.0130721 0.0133922 0.0136906 0.0139673 0.0142264 0.0144722 0.0147048 0.0149242 0.0151303 0.0153231 0.0155026 0.0156689 0.0158292 0.015991 0.016154 0.0163185 0.0164844 0.0166516 0.0168202 0.0169902 0.0171654 0.0173498 0.0175434 0.0177462 0.0179581 0.0181792 0.0184094 0.0186489 0.0188937 0.0191404 0.0193887 0.0196388 0.0198907 0.0201443 0.0203996 0.0206567 0.0209052 0.0211346 0.0213452 0.0215367 0.0217093 0.0218629 0.0219975 0.0221131 0.0221987 0.0222433 0.0222467 0.022209 0.0221302 0.0220103 0.0218494 0.0216473 0.0214001 0.0211035 0.0207578 0.0203627 0.0199184 0.0194248 0.0188819 0.0182898 0.0176566 0.0169906 0.0162919 0.0155603 0.0147959 0.0139987 0.0131686 0.0123058 0.0114319 0.0105687 0.00971624 0.00887442 0.00804328 0.00722283 0.00641306 0.00561399 0.0048508 0.00414873 0.00350776 0.0029279 0.00240915 0.0019515 0.00155496 0.00121952 0.000933698 0.000685982 0.000476376 0.000304881 0.000171495 7.62202e-05 1.90551e-05 0 0 1.29514e-05 5.18055e-05 0.000116562 0.000207222 0.000323784 0.000466249 0.000634617 0.000828888 0.00106084 0.00134226 0.00167313 0.00205347 0.00248327 0.00296254 0.00349126 0.00406945 0.00467982 0.0053051 0.00594529 0.00660038 0.00727039 0.0079553 0.00865512 0.00936984 0.0100828 0.0107773 0.0114533 0.0121109 0.01275 0.0133706 0.0139728 0.0145565 0.0151168 0.0156487 0.0161521 0.0166271 0.0170737 0.0174919 0.0178816 0.0182429 0.0185814 0.0189025 0.0192063 0.0194928 0.019762 0.0200138 0.0202483 0.0204655 0.0206749 0.0208861 0.0210992 0.021314 0.0215306 0.021749 0.0219692 0.0221912 0.0224201 0.022661 0.0229138 0.0231787 0.0234555 0.0237442 0.024045 0.0243577 0.0246775 0.0249996 0.025324 0.0256507 0.0259797 0.0263109 0.0266444 0.0269802 0.0273047 0.0276044 0.0278794 0.0281296 0.028355 0.0285556 0.0287314 0.0288825 0.0289943 0.0290524 0.0290569 0.0290077 0.0289048 0.0287482 0.028538 0.028274 0.0279511 0.0275638 0.0271122 0.0265962 0.0260158 0.0253711 0.0246621 0.0238887 0.0230617 0.0221919 0.0212792 0.0203236 0.0193252 0.018284 0.0171999 0.0160729 0.0149315 0.0138041 0.0126906 0.0115911 0.0105055 0.0094339 0.00837625 0.00733255 0.00633575 0.00541875 0.00458157 0.0038242 0.00314664 0.0025489 0.00203097 0.00159285 0.00121952 0.000895976 0.000622206 0.000398212 0.000223994 9.95529e-05 2.48882e-05 0 0 1.66243e-05 6.64972e-05 0.000149619 0.000265989 0.000415608 0.000598475 0.000814591 0.00106396 0.00136131 0.00172138 0.00214417 0.00262969 0.00317793 0.00378889 0.00446258 0.00519898 0.00597617 0.00677218 0.00758703 0.00842071 0.00927322 0.0101446 0.0110347 0.0119437 0.0128505 0.0137338 0.0145937 0.0154303 0.0162434 0.0170332 0.0177995 0.0185425 0.0192557 0.0199329 0.020574 0.021179 0.021748 0.0222808 0.0227776 0.0232384 0.02367 0.0240796 0.0244671 0.0248325 0.0251757 0.0254969 0.0257961 0.0260731 0.0263401 0.0266092 0.0268804 0.0271536 0.027429 0.0277064 0.0279859 0.0282675 0.0285576 0.0288626 0.0291826 0.0295176 0.0298676 0.0302325 0.0306124 0.0310072 0.0314109 0.0318173 0.0322265 0.0326383 0.0330529 0.0334702 0.0338903 0.034313 0.0347214 0.0350984 0.0354438 0.0357578 0.0360403 0.0362914 0.036511 0.0366991 0.0368375 0.0369079 0.0369103 0.0368448 0.0367113 0.0365099 0.0362405 0.0359031 0.035491 0.0349975 0.0344226 0.0337662 0.0330285 0.0322094 0.0313088 0.0303268 0.0292771 0.0281731 0.027015 0.0258028 0.0245363 0.0232157 0.0218409 0.020412 0.0189647 0.017535 0.0161229 0.0147284 0.0133514 0.0119921 0.0106502 0.00932601 0.00806103 0.00689698 0.00583385 0.00487165 0.00401038 0.00325003 0.00259061 0.00203212 0.00155584 0.00114307 0.000793796 0.000508029 0.000285767 0.000127007 3.17518e-05 0 0 2.11674e-05 8.46697e-05 0.000190507 0.000338679 0.000529186 0.000762027 0.0010372 0.00135471 0.00173228 0.00218762 0.00272073 0.00333161 0.00402026 0.00478669 0.00563089 0.00655286 0.0075253 0.00852088 0.00953961 0.0105815 0.0116465 0.0127347 0.013846 0.0149805 0.0161121 0.0172147 0.0182883 0.019333 0.0203488 0.0213355 0.0222933 0.0232222 0.0241141 0.0249613 0.0257636 0.0265212 0.0272339 0.0279018 0.0285249 0.0291032 0.0296453 0.0301596 0.0306461 0.031105 0.0315361 0.0319395 0.0323152 0.0326631 0.0329982 0.0333353 0.0336744 0.0340156 0.0343588 0.034704 0.0350512 0.0354005 0.0357597 0.0361369 0.0365321 0.0369452 0.0373762 0.0378252 0.0382921 0.038777 0.0392723 0.0397706 0.0402718 0.0407759 0.0412829 0.0417929 0.0423058 0.0428216 0.0433193 0.0437779 0.0441974 0.0445777 0.0449189 0.0452209 0.0454839 0.0457077 0.0458699 0.0459481 0.0459423 0.0458525 0.0456787 0.0454208 0.045079 0.0446531 0.0441351 0.0435166 0.0427977 0.0419783 0.0410586 0.0400384 0.0389179 0.0376969 0.0363923 0.0350211 0.0335831 0.0320784 0.030507 0.0288689 0.0271641 0.0253926 0.0235985 0.0218258 0.0200746 0.0183448 0.0166365 0.0149496 0.0132841 0.0116401 0.010069 0.00862229 0.00729992 0.00610191 0.00502827 0.00407899 0.00325407 0.00255351 0.00195503 0.00143635 0.000997464 0.000638377 0.000359087 0.000159594 3.98986e-05 0 0 2.65807e-05 0.000106323 0.000239226 0.000425292 0.000664518 0.000956906 0.00130246 0.00170117 0.00217376 0.00274097 0.0034028 0.00415923 0.00501028 0.00595594 0.00699621 0.00813109 0.00932721 0.0105512 0.011803 0.0130827 0.0143903 0.0157257 0.017089 0.0184802 0.0198677 0.02122 0.0225372 0.0238192 0.025066 0.0262777 0.0274542 0.0285955 0.029692 0.0307338 0.031721 0.0326535 0.0335315 0.0343548 0.0351234 0.0358375 0.0365071 0.0371424 0.0377435 0.0383104 0.0388431 0.0393415 0.0398056 0.0402356 0.0406492 0.0410644 0.0414813 0.0418999 0.04232 0.0427418 0.0431653 0.0435904 0.0440267 0.044484 0.0449622 0.0454613 0.0459814 0.0465223 0.0470842 0.047667 0.0482618 0.0488594 0.0494599 0.0500633 0.0506696 0.0512788 0.0518908 0.0525058 0.0530983 0.0536431 0.0541401 0.0545892 0.0549907 0.0553443 0.0556502 0.0559083 0.0560916 0.0561731 0.0561528 0.0560307 0.0558068 0.0554811 0.0550536 0.0545242 0.0538834 0.0531211 0.0522375 0.0512325 0.0501061 0.0488584 0.0474893 0.0459988 0.0444075 0.0427356 0.0409833 0.0391506 0.0372374 0.0352437 0.0331696 0.031015 0.0288329 0.0266765 0.0245456 0.0224403 0.0203606 0.0183064 0.0162779 0.0142749 0.0123597 0.0105947 0.00897978 0.00751499 0.00620032 0.00503576 0.00402133 0.00315702 0.00241709 0.00177582 0.00123321 0.000789254 0.000443955 0.000197313 4.93284e-05 0 0 3.28642e-05 0.000131457 0.000295778 0.000525827 0.000821605 0.00118311 0.00161035 0.00210331 0.00268576 0.00338145 0.00419038 0.00511255 0.00614797 0.00729663 0.00855853 0.00993367 0.0113819 0.0128631 0.0143773 0.0159244 0.0175046 0.0191176 0.0207637 0.0224427 0.0241172 0.0257497 0.0273401 0.0288886 0.0303951 0.0318596 0.0332821 0.0346626 0.0359893 0.0372505 0.0384461 0.0395762 0.0406407 0.0416397 0.0425732 0.0434411 0.0442554 0.0450282 0.0457593 0.0464487 0.0470966 0.0477028 0.0482674 0.0487904 0.0492931 0.0497966 0.0503011 0.0508064 0.0513127 0.0518199 0.052328 0.052837 0.0533585 0.0539038 0.054473 0.0550661 0.055683 0.0563239 0.0569887 0.0576773 0.0583792 0.0590837 0.0597909 0.0605006 0.061213 0.0619279 0.0626455 0.0633657 0.0640585 0.0646939 0.0652719 0.0657925 0.0662557 0.0666615 0.0670098 0.0673008 0.0675025 0.0675828 0.0675417 0.0673793 0.0670956 0.0666905 0.0661641 0.0655164 0.0647359 0.0638111 0.062742 0.0615287 0.0601711 0.0586692 0.0570231 0.0552327 0.0533225 0.0513168 0.0492157 0.0470192 0.0447273 0.0423399 0.0398571 0.0372789 0.034668 0.032087 0.029536 0.0270149 0.0245238 0.0220627 0.0196315 0.0172303 0.0149331 0.0128142 0.0108734 0.00911087 0.00752652 0.00612036 0.0048924 0.00384264 0.00294202 0.00216149 0.00150103 0.000960661 0.000540372 0.000240165 6.00413e-05 0 0 4.00179e-05 0.000160071 0.000360161 0.000640286 0.00100045 0.00144064 0.00196088 0.00256114 0.00326826 0.00410904 0.00508348 0.00619158 0.00743334 0.00880876 0.0103178 0.0119606 0.0136894 0.0154567 0.0172624 0.0191066 0.0209893 0.0229104 0.02487 0.0268681 0.0288606 0.0308037 0.0326973 0.0345415 0.0363361 0.0380813 0.0397771 0.0414233 0.043006 0.0445112 0.0459389 0.047289 0.0485616 0.0497567 0.0508742 0.0519142 0.0528904 0.0538168 0.0546933 0.05552 0.0562967 0.0570236 0.0577006 0.0583277 0.0589299 0.0595318 0.0601337 0.0607353 0.0613369 0.0619382 0.0625395 0.0631405 0.063755 0.0643963 0.0650644 0.0657594 0.0664812 0.0672299 0.0680054 0.0688078 0.0696247 0.0704437 0.0712647 0.0720878 0.072913 0.0737404 0.0745698 0.0754012 0.0761998 0.0769303 0.0775928 0.0781873 0.0787139 0.0791724 0.0795629 0.0798854 0.0801026 0.0801772 0.0801091 0.0798985 0.0795452 0.0790493 0.0784108 0.0776296 0.0766926 0.0755865 0.0743112 0.0728669 0.0712534 0.0694709 0.0675192 0.0653985 0.0631374 0.0607646 0.0582803 0.0556844 0.0529768 0.0501577 0.0472269 0.0441845 0.0411037 0.0380574 0.0350457 0.0320686 0.0291262 0.0262183 0.023345 0.0205063 0.0177892 0.0152807 0.0129809 0.0108896 0.00900687 0.00733278 0.00586728 0.00461039 0.00352983 0.00259334 0.00180093 0.0011526 0.000648336 0.000288149 7.20373e-05 0 0 4.80417e-05 0.000192167 0.000432375 0.000768667 0.00120104 0.0017295 0.00235404 0.00307467 0.00392127 0.00492374 0.00608209 0.0073963 0.00886639 0.0104923 0.0122742 0.0142119 0.0162497 0.0183318 0.0204584 0.0226292 0.0248445 0.0271041 0.029408 0.0317563 0.034098 0.0363822 0.0386087 0.0407777 0.0428891 0.0449429 0.0469391 0.0488777 0.0507423 0.0525162 0.0541995 0.0557921 0.0572942 0.0587056 0.0600264 0.0612566 0.062412 0.0635083 0.0645457 0.0655241 0.0664434 0.0673038 0.0681051 0.0688475 0.0695596 0.0702701 0.0709791 0.0716865 0.0723924 0.0730968 0.0737996 0.0745009 0.0752163 0.0759615 0.0767365 0.0775413 0.0783759 0.0792403 0.0801346 0.0810586 0.0819982 0.0829391 0.0838814 0.0848249 0.0857698 0.0867161 0.0876636 0.0886125 0.0895222 0.0903523 0.0911029 0.0917739 0.0923653 0.0928771 0.0933093 0.093662 0.093892 0.0939564 0.0938551 0.0935881 0.0931555 0.0925573 0.0917934 0.0908638 0.0897535 0.0884473 0.0869452 0.0852472 0.0833532 0.0812635 0.0789778 0.0764962 0.0738522 0.0710791 0.0681771 0.065146 0.061986 0.0586969 0.0552789 0.0517318 0.04814 0.0445876 0.0410748 0.0376015 0.0341676 0.0307732 0.0274184 0.024103 0.020928 0.0179944 0.0153021 0.0128511 0.0106414 0.00867302 0.00694597 0.00546025 0.00418051 0.00307139 0.00213291 0.00136506 0.000767848 0.000341266 8.53164e-05 0 0 5.69357e-05 0.000227743 0.000512422 0.000910972 0.00142339 0.00204969 0.00278985 0.00364389 0.00464479 0.00582557 0.00718621 0.00872673 0.0104471 0.0123474 0.0144275 0.0166875 0.0190627 0.0214886 0.0239652 0.0264923 0.0290702 0.0316986 0.0343777 0.0371075 0.0398294 0.042485 0.0450743 0.0475972 0.0500539 0.0524442 0.0547682 0.0570258 0.0591979 0.0612653 0.0632278 0.0650855 0.0668384 0.0684866 0.0700299 0.0714685 0.0728201 0.0741028 0.0753164 0.0764611 0.0775367 0.0785434 0.079481 0.0803497 0.0811822 0.0820114 0.0828374 0.08366 0.0844794 0.0852956 0.0861084 0.086918 0.0877423 0.0885994 0.0894892 0.0904118 0.0913671 0.0923552 0.093376 0.0944296 0.0954997 0.0965702 0.0976409 0.098712 0.0997833 0.100855 0.101927 0.102999 0.104026 0.10496 0.105802 0.106552 0.10721 0.107776 0.108249 0.108631 0.108871 0.10892 0.10878 0.108448 0.107927 0.107215 0.106312 0.105219 0.103919 0.102394 0.100644 0.0986694 0.0964705 0.0940469 0.0913986 0.0885258 0.0854668 0.0822602 0.078906 0.0754042 0.0717547 0.0679577 0.064013 0.0599207 0.0557769 0.0516777 0.0476232 0.0436134 0.0396481 0.0357276 0.0318516 0.0280203 0.0243496 0.0209551 0.0178371 0.0149954 0.01243 0.0101411 0.00812847 0.00639223 0.00489405 0.00359563 0.00249697 0.00159806 0.000898908 0.000399515 9.98787e-05 0 0 6.66999e-05 0.0002668 0.000600299 0.0010672 0.0016675 0.0024012 0.0032683 0.0042688 0.00543882 0.00681451 0.00839585 0.0101829 0.0121755 0.0143738 0.0167778 0.0193874 0.0221286 0.024927 0.0277828 0.0306959 0.0336663 0.0366941 0.0397791 0.0429215 0.0460547 0.0491122 0.052094 0.0550002 0.0578306 0.0605853 0.0632643 0.0658676 0.0683731 0.0707585 0.0730238 0.0751691 0.0771943 0.0790995 0.0808846 0.0825497 0.0841148 0.0856001 0.0870054 0.0883309 0.0895766 0.0907423 0.0918282 0.0928343 0.0937977 0.0947557 0.0957085 0.0966559 0.0975979 0.0985346 0.099466 0.100392 0.101333 0.10231 0.103323 0.104371 0.105455 0.106574 0.10773 0.108921 0.110129 0.111337 0.112543 0.113749 0.114954 0.116157 0.11736 0.118562 0.11971 0.120753 0.12169 0.122522 0.123248 0.123868 0.124382 0.124791 0.125038 0.125069 0.124882 0.124479 0.123859 0.123021 0.121967 0.120695 0.119188 0.117425 0.115407 0.113134 0.110605 0.107821 0.104782 0.101487 0.0979814 0.094308 0.0904671 0.0864588 0.0822831 0.0779399 0.0734293 0.0687512 0.0640144 0.0593277 0.054691 0.0501044 0.0455678 0.0410812 0.0366448 0.0322583 0.0280538 0.024163 0.0205859 0.0173225 0.0143729 0.011737 0.00941478 0.00740634 0.00567048 0.00416606 0.0028931 0.00185158 0.00104152 0.000462896 0.000115724 0 0 7.71728e-05 0.000308691 0.000694555 0.00123476 0.00192932 0.00277822 0.00378147 0.00493906 0.00629025 0.0078743 0.00969121 0.011741 0.0140236 0.0165391 0.0192874 0.0222686 0.0253983 0.0285923 0.0318505 0.035173 0.0385597 0.0420107 0.0455259 0.0491053 0.0526741 0.0561572 0.0595548 0.0628668 0.0660932 0.0692341 0.0722893 0.0752589 0.0781177 0.0808402 0.0834266 0.0858767 0.0881906 0.0903684 0.0924099 0.0943153 0.0961067 0.0978066 0.0994149 0.100932 0.102357 0.10369 0.104932 0.106083 0.107184 0.108276 0.109361 0.110438 0.111507 0.112568 0.113622 0.114667 0.115727 0.116826 0.117964 0.119139 0.120353 0.121606 0.122897 0.124226 0.125573 0.126918 0.12826 0.1296 0.130937 0.132272 0.133605 0.134935 0.136204 0.137353 0.138383 0.139292 0.140082 0.140752 0.141302 0.141733 0.141981 0.141986 0.141745 0.141261 0.140532 0.139558 0.138341 0.136878 0.135151 0.133136 0.130834 0.128246 0.12537 0.122208 0.118759 0.115023 0.111049 0.106888 0.102538 0.0980013 0.0932763 0.0883635 0.0832629 0.0779744 0.0726198 0.0673207 0.0620773 0.0568894 0.0517572 0.0466805 0.0416595 0.036694 0.0319325 0.0275236 0.0234671 0.019763 0.0164115 0.0134124 0.0107658 0.00847164 0.0064861 0.0047653 0.00330923 0.00211791 0.00119132 0.000529478 0.000132369 0 0 8.81926e-05 0.00035277 0.000793734 0.00141108 0.00220482 0.00317493 0.00432144 0.00564433 0.00718595 0.00898867 0.0110525 0.0133774 0.0159633 0.0188104 0.0219185 0.0252878 0.0288232 0.0324298 0.0361077 0.0398569 0.0436772 0.0475688 0.0515317 0.0555658 0.0595876 0.0635135 0.0673435 0.0710777 0.0747159 0.0782584 0.0817049 0.0850555 0.0882817 0.0913549 0.094275 0.0970421 0.0996561 0.102117 0.104425 0.10658 0.108606 0.110529 0.112347 0.114061 0.115671 0.117177 0.118579 0.119877 0.121118 0.122347 0.123565 0.124771 0.125967 0.127151 0.128325 0.129487 0.130664 0.131881 0.133139 0.134438 0.135777 0.137157 0.138577 0.140038 0.141517 0.142992 0.144463 0.14593 0.147392 0.14885 0.150304 0.151753 0.153134 0.15438 0.155493 0.156471 0.157316 0.158027 0.158603 0.159046 0.159286 0.159254 0.15895 0.158374 0.157527 0.156408 0.155017 0.153354 0.151396 0.14912 0.146525 0.143612 0.14038 0.13683 0.132961 0.128774 0.124323 0.119665 0.114798 0.109723 0.10444 0.0989484 0.0932489 0.0873412 0.0813601 0.0754401 0.0695812 0.0637835 0.058047 0.0523716 0.0467574 0.0412044 0.0358777 0.0309427 0.0263994 0.0222476 0.0184876 0.0151191 0.0121424 0.00955724 0.00731726 0.00537595 0.0037333 0.00238931 0.00134399 0.000597327 0.000149332 0 0 9.97595e-05 0.000399038 0.000897836 0.00159615 0.00249399 0.00359134 0.00488822 0.00638461 0.00812594 0.0101576 0.0124796 0.015092 0.0179947 0.0211878 0.0246712 0.028445 0.0324031 0.0364396 0.0405543 0.0447474 0.0490188 0.0533685 0.0577966 0.062303 0.0667952 0.0711809 0.0754601 0.0796326 0.0836987 0.0876582 0.0915111 0.0952575 0.0988653 0.102303 0.105569 0.108665 0.111591 0.114346 0.11693 0.119344 0.121614 0.123766 0.125801 0.127719 0.12952 0.131203 0.132769 0.134217 0.135599 0.136967 0.138319 0.139655 0.140977 0.142284 0.143575 0.144852 0.146142 0.147474 0.148849 0.150266 0.151725 0.153227 0.154771 0.156357 0.157962 0.15956 0.161152 0.162737 0.164317 0.16589 0.167456 0.169017 0.1705 0.171835 0.173021 0.17406 0.174949 0.175691 0.176284 0.176729 0.176951 0.176873 0.176496 0.175819 0.174844 0.173569 0.171995 0.170122 0.167924 0.165376 0.162478 0.159231 0.155633 0.151686 0.147388 0.142741 0.137804 0.132639 0.127245 0.121624 0.115773 0.109694 0.103387 0.0968518 0.0902354 0.0836857 0.0772028 0.0707867 0.0644373 0.0581546 0.0519387 0.0457895 0.0398893 0.0344204 0.0293827 0.0247763 0.0206011 0.0168572 0.0135445 0.0106631 0.00816395 0.00599801 0.00416528 0.00266578 0.0014995 0.000666445 0.000166611 0 0 0.000111873 0.000447494 0.00100686 0.00178998 0.00279684 0.00402744 0.0054818 0.0071599 0.0091102 0.0113811 0.0139727 0.0168849 0.0201178 0.0236713 0.0275455 0.0317403 0.0361381 0.0406215 0.0451903 0.0498447 0.0545845 0.0594098 0.0643205 0.0693168 0.074297 0.0791595 0.0839045 0.0885318 0.0930415 0.0974335 0.101708 0.105865 0.109868 0.113683 0.117309 0.120746 0.123995 0.127054 0.129925 0.132607 0.135129 0.137519 0.139778 0.141906 0.143902 0.145767 0.147501 0.149103 0.150629 0.152136 0.153623 0.15509 0.156538 0.157966 0.159374 0.160762 0.162162 0.163606 0.165093 0.166624 0.168199 0.169817 0.171479 0.173184 0.174907 0.176621 0.178327 0.180024 0.181712 0.183392 0.185063 0.186726 0.188303 0.189717 0.190968 0.192057 0.192983 0.193746 0.194346 0.194784 0.194977 0.194843 0.194383 0.193596 0.192482 0.191042 0.189275 0.187182 0.184734 0.181905 0.178695 0.175103 0.17113 0.166776 0.16204 0.156923 0.151491 0.14581 0.139881 0.133703 0.127277 0.120602 0.113678 0.106506 0.0992457 0.0920577 0.0849421 0.0778989 0.0709279 0.0640294 0.0572032 0.0504493 0.0439673 0.0379566 0.0324171 0.027349 0.0227521 0.0186265 0.0149723 0.0117893 0.00902619 0.00663148 0.0046052 0.00294733 0.00165787 0.000736831 0.000184208 0 0 0.000124534 0.000498138 0.00112081 0.00199255 0.00311336 0.00448324 0.00610219 0.0079702 0.0101387 0.0126592 0.0155317 0.0187562 0.0223326 0.0262609 0.0305413 0.0351736 0.0400282 0.0449756 0.0500158 0.0551486 0.0603742 0.0656925 0.0711035 0.0766073 0.0820929 0.0874494 0.0926768 0.0977751 0.102744 0.107584 0.112295 0.116877 0.121291 0.125497 0.129495 0.133285 0.136868 0.140242 0.14341 0.146369 0.149152 0.151788 0.154278 0.156622 0.158819 0.16087 0.162775 0.164534 0.166207 0.167855 0.169478 0.171076 0.172649 0.174197 0.175719 0.177217 0.178724 0.180276 0.181872 0.183512 0.185197 0.186926 0.1887 0.190518 0.192353 0.194176 0.195988 0.197789 0.199578 0.201357 0.203124 0.20488 0.206542 0.208026 0.209333 0.210463 0.211415 0.212191 0.212789 0.213209 0.213364 0.213165 0.212612 0.211704 0.210443 0.208828 0.206858 0.204534 0.201827 0.198707 0.195175 0.19123 0.186872 0.182101 0.176918 0.171322 0.165385 0.159179 0.152705 0.145962 0.138951 0.13167 0.124121 0.116304 0.108391 0.100556 0.0927991 0.0851201 0.0775191 0.069996 0.062551 0.0551839 0.0481117 0.0415513 0.0355026 0.0299657 0.0249406 0.0204272 0.0164256 0.0129358 0.00990395 0.00727637 0.00505304 0.00323394 0.00181909 0.000808486 0.000202121 0 0 0.000137742 0.00055097 0.00123968 0.00220388 0.00344356 0.00495873 0.00674938 0.00881552 0.0112116 0.0139919 0.0171566 0.0207056 0.024639 0.0289566 0.0336586 0.0387449 0.0440734 0.049502 0.0550306 0.0606593 0.066388 0.0722168 0.0781456 0.0841745 0.090183 0.0960504 0.101777 0.107363 0.112807 0.118111 0.123273 0.128295 0.133133 0.137743 0.142126 0.146282 0.15021 0.153911 0.157384 0.160631 0.163682 0.166572 0.1693 0.171866 0.17427 0.176512 0.178592 0.180511 0.182333 0.184124 0.185884 0.187612 0.18931 0.190977 0.192612 0.194217 0.195828 0.197484 0.199185 0.200931 0.202721 0.204555 0.206435 0.208359 0.210298 0.212224 0.214135 0.216032 0.217915 0.219784 0.221639 0.223479 0.225217 0.226763 0.228116 0.229278 0.230248 0.231026 0.231611 0.232005 0.232112 0.231838 0.231182 0.230145 0.228726 0.226925 0.224743 0.222179 0.219203 0.215782 0.211918 0.207609 0.202857 0.197661 0.19202 0.185936 0.179485 0.172745 0.165717 0.1584 0.150795 0.1429 0.134717 0.126245 0.117671 0.109181 0.100774 0.0924503 0.0842106 0.0760545 0.067982 0.0599932 0.0523225 0.0452045 0.0386391 0.0326265 0.0271665 0.0222591 0.0179045 0.0141025 0.0107973 0.00793267 0.0055088 0.00352563 0.00198317 0.000881408 0.000220352 0 0 0.000151497 0.00060599 0.00136348 0.00242396 0.00378744 0.00545391 0.00742338 0.00969584 0.0123287 0.0153792 0.0188474 0.0227334 0.027037 0.0317584 0.0368975 0.0424543 0.0482737 0.0542005 0.0602349 0.0663766 0.0726259 0.0789826 0.0854468 0.0920184 0.0985672 0.104963 0.111205 0.117294 0.12323 0.129013 0.134642 0.140118 0.145394 0.150422 0.155203 0.159736 0.164021 0.168059 0.171849 0.175391 0.17872 0.181872 0.184844 0.187639 0.190255 0.192693 0.194952 0.197033 0.199007 0.200942 0.20284 0.2047 0.206522 0.208306 0.210053 0.211762 0.213475 0.215231 0.217033 0.218879 0.220769 0.222704 0.224683 0.226707 0.228745 0.230765 0.232768 0.234754 0.236722 0.238673 0.240607 0.242524 0.244329 0.245927 0.247318 0.248502 0.24948 0.250251 0.250815 0.251172