<?xml version="1.0"?> 
<VTKFile type="StructuredGrid" version="0.1"> 
<StructuredGrid WholeExtent="0 128 0 128 0 0"> 
<Piece Extent="0 128 0 128 0 0"> 
<PointData>
<DataArray type="Float32" Name="u" format="ascii" NumberOfComponents="1"> 
0 0 0 0 0 0 0 0 0 0 0 0 0 0 0 0 0 0 0 0 0 0 0 0 0 0 0 0 0 0 0 0 0 0 0 0 0 0 0 0 0 0 0 0 0 0 0 0 0 0 0 0 0 0 0 0 0 0 0 0 0 0 0 0 0 0 0 0 0 0 0 0 0 0 0 0 0 0 0 0 0 0 0 0 0 0 0 0 0 0 0 0 0 0 0 0 0 0 0 0 0 0 0 0 0 0 0 0 0 0 0 0 0 0 0 0 0 0 0 0 0 0 0 0 0 0 0 0 0 0 -4.52374e-07 -1.8095e-06 -4.07137e-06 -7.23799e-06 -1.13094e-05 -1.62855e-05 -2.21663e-05 -2.89519e-05 -3.65087e-05 -4.47029e-05 -5.35346e-05 -6.30038e-05 -7.31105e-05 -8.38546e-05 -9.52363e-05 -0.000107255 -0.000119468 -0.000131428 -0.000143138 -0.000154596 -0.000165803 -0.000176758 -0.000187462 -0.000197915 -0.000207935 -0.00021734 -0.000226131 -0.000234308 -0.00024187 -0.000248817 -0.000255151 -0.000260869 -0.000266014 -0.000270627 -0.000274707 -0.000278254 -0.000281269 -0.000283751 -0.0002857 -0.000287117 -0.000288214 -0.000289206 -0.000290091 -0.000290871 -0.000291544 -0.000292112 -0.000292574 -0.000292929 -0.000292827 -0.000291916 -0.000290195 -0.000287664 -0.000284324 -0.000280175 -0.000275216 -0.000269448 -0.000262131 -0.000252528 -0.000240638 -0.000226462 -0.000209998 -0.000191248 -0.000170212 -0.000146888 -0.000121627 -9.47745e-05 -6.6332e-05 -3.62992e-05 -4.67603e-06 2.85375e-05 6.33413e-05 9.97354e-05 0.00013625 0.000171416 0.000205233 0.0002377 0.000268819 0.000298589 0.000327009 0.000354081 0.00037876 0.000400004 0.000417813 0.000432186 0.000443124 0.000450627 0.000454694 0.000455327 0.000452703 0.000447004 0.000438229 0.000426377 0.00041145 0.000393448 0.000372369 0.000348214 0.000322312 0.000295992 0.000269254 0.000242097 0.000214523 0.00018653 0.000158119 0.00012929 0.000101552 7.64162e-05 5.38819e-05 3.39492e-05 1.66181e-05 1.88859e-06 -1.02393e-05 -1.97656e-05 -2.70655e-05 -3.25143e-05 -3.6112e-05 -3.78585e-05 -3.7754e-05 -3.57984e-05 -3.19916e-05 -2.63337e-05 -2.01618e-05 -1.48127e-05 -1.02866e-05 -6.58343e-06 -3.70318e-06 -1.64586e-06 -4.11464e-07 0 0 -1.8095e-06 -7.23799e-06 -1.62855e-05 -2.89519e-05 -4.52374e-05 -6.51419e-05 -8.86653e-05 -0.000115808 -0.000146035 -0.000178812 -0.000214138 -0.000252015 -0.000292442 -0.000335418 -0.000380945 -0.000429022 -0.00047787 -0.000525714 -0.000572552 -0.000618384 -0.000663211 -0.000707033 -0.00074985 -0.000791661 -0.00083174 -0.000869362 -0.000904525 -0.000937231 -0.000967479 -0.00099527 -0.0010206 -0.00104348 -0.00106406 -0.00108251 -0.00109883 -0.00111302 -0.00112507 -0.001135 -0.0011428 -0.00114847 -0.00115286 -0.00115682 -0.00116036 -0.00116348 -0.00116618 -0.00116845 -0.00117029 -0.00117172 -0.00117131 -0.00116766 -0.00116078 -0.00115066 -0.0011373 -0.0011207 -0.00110086 -0.00107779 -0.00104852 -0.00101011 -0.000962552 -0.000905846 -0.000839993 -0.000764993 -0.000680847 -0.000587554 -0.000486507 -0.000379098 -0.000265328 -0.000145197 -1.87041e-05 0.00011415 0.000253365 0.000398942 0.000545001 0.000685664 0.000820931 0.000950802 0.00107528 0.00119435 0.00130804 0.00141632 0.00151504 0.00160002 0.00167125 0.00172874 0.0017725 0.00180251 0.00181878 0.00182131 0.00181081 0.00178802 0.00175291 0.00170551 0.0016458 0.00157379 0.00148947 0.00139286 0.00128925 0.00118397 0.00107702 0.00096839 0.000858091 0.00074612 0.000632476 0.000517159 0.000406209 0.000305665 0.000215528 0.000135797 6.64724e-05 7.55438e-06 -4.09572e-05 -7.90623e-05 -0.000108262 -0.000130057 -0.000144448 -0.000151434 -0.000151016 -0.000143193 -0.000127966 -0.000105335 -8.0647e-05 -5.92509e-05 -4.11464e-05 -2.63337e-05 -1.48127e-05 -6.58343e-06 -1.64586e-06 0 0 -4.07137e-06 -1.62855e-05 -3.66423e-05 -6.51419e-05 -0.000101784 -0.000146569 -0.000199497 -0.000260568 -0.000328578 -0.000402326 -0.000481811 -0.000567034 -0.000657994 -0.000754691 -0.000857126 -0.000965298 -0.00107521 -0.00118286 -0.00128824 -0.00139136 -0.00149223 -0.00159082 -0.00168716 -0.00178124 -0.00187142 -0.00195606 -0.00203518 -0.00210877 -0.00217683 -0.00223936 -0.00229635 -0.00234782 -0.00239413 -0.00243564 -0.00247236 -0.00250429 -0.00253142 -0.00255376 -0.0025713 -0.00258405 -0.00259393 -0.00260285 -0.00261082 -0.00261784 -0.0026239 -0.00262901 -0.00263316 -0.00263636 -0.00263545 -0.00262724 -0.00261175 -0.00258898 -0.00255892 -0.00252157 -0.00247694 -0.00242503 -0.00235918 -0.00227275 -0.00216574 -0.00203815 -0.00188998 -0.00172124 -0.00153191 -0.001322 -0.00109464 -0.00085297 -0.000596988 -0.000326693 -4.20843e-05 0.000256837 0.000570072 0.000897619 0.00122625 0.00154274 0.00184709 0.0021393 0.00241937 0.0026873 0.00294308 0.00318672 0.00340884 0.00360003 0.00376031 0.00388967 0.00398812 0.00405564 0.00409225 0.00409794 0.00407433 0.00402303 0.00394406 0.0038374 0.00370305 0.00354103 0.00335132 0.00313393 0.00290081 0.00266393 0.00242328 0.00217888 0.00193071 0.00167877 0.00142307 0.00116361 0.000913969 0.000687746 0.000484937 0.000305543 0.000149563 1.69974e-05 -9.21536e-05 -0.00017789 -0.000243589 -0.000292629 -0.000325008 -0.000340727 -0.000339786 -0.000322185 -0.000287924 -0.000237003 -0.000181456 -0.000133314 -9.25795e-05 -5.92509e-05 -3.33286e-05 -1.48127e-05 -3.70318e-06 0 0 -7.23799e-06 -2.89519e-05 -6.51419e-05 -0.000115808 -0.00018095 -0.000260568 -0.000354661 -0.000463231 -0.000584139 -0.000715246 -0.000856554 -0.00100806 -0.00116977 -0.00134167 -0.00152378 -0.00171609 -0.00191148 -0.00210285 -0.00229021 -0.00247354 -0.00265285 -0.00282813 -0.0029994 -0.00316664 -0.00332696 -0.00347745 -0.0036181 -0.00374893 -0.00386992 -0.00398108 -0.00408241 -0.00417391 -0.00425623 -0.00433003 -0.00439531 -0.00445206 -0.0045003 -0.00454001 -0.0045712 -0.00459387 -0.00461143 -0.00462729 -0.00464146 -0.00465393 -0.00466471 -0.00467379 -0.00468118 -0.00468687 -0.00468524 -0.00467065 -0.00464312 -0.00460263 -0.00454919 -0.0044828 -0.00440346 -0.00431116 -0.0041941 -0.00404045 -0.00385021 -0.00362338 -0.00335997 -0.00305997 -0.00272339 -0.00235022 -0.00194603 -0.00151639 -0.00106131 -0.000580787 -7.48165e-05 0.000456599 0.00101346 0.00159577 0.00218 0.00274266 0.00328372 0.00380321 0.0043011 0.00477742 0.00523215 0.00566529 0.00606016 0.00640006 0.006685 0.00691497 0.00708998 0.00721003 0.00727511 0.00728522 0.00724325 0.00715206 0.00701166 0.00682204 0.00658321 0.00629516 0.0059579 0.00557142 0.00515699 0.00473587 0.00430806 0.00387356 0.00343236 0.00298448 0.0025299 0.00206864 0.00162483 0.00122266 0.00086211 0.000543187 0.000265889 3.02175e-05 -0.000163829 -0.000316249 -0.000433048 -0.000520228 -0.000577791 -0.000605737 -0.000604064 -0.000572774 -0.000511866 -0.00042134 -0.000322588 -0.000237003 -0.000164586 -0.000105335 -5.92509e-05 -2.63337e-05 -6.58343e-06 0 0 -1.13094e-05 -4.52374e-05 -0.000101784 -0.00018095 -0.000282734 -0.000407137 -0.000554158 -0.000723799 -0.000912717 -0.00111757 -0.00133836 -0.00157509 -0.00182776 -0.00209637 -0.00238091 -0.00268138 -0.00298669 -0.00328571 -0.00357845 -0.0038649 -0.00414507 -0.00441896 -0.00468656 -0.00494788 -0.00519838 -0.00543351 -0.00565328 -0.0058577 -0.00604675 -0.00622044 -0.00637876 -0.00652173 -0.00665036 -0.00676567 -0.00686767 -0.00695635 -0.00703172 -0.00709377 -0.0071425 -0.00717792 -0.00720536 -0.00723014 -0.00725228 -0.00727177 -0.00728861 -0.0073028 -0.00731434 -0.00732323 -0.00732068 -0.00729789 -0.00725487 -0.00719161 -0.00710811 -0.00700437 -0.0068804 -0.00673619 -0.00655328 -0.0063132 -0.00601595 -0.00566154 -0.00524996 -0.00478121 -0.00425529 -0.00367221 -0.00304067 -0.00236936 -0.0016583 -0.00090748 -0.000116901 0.000713436 0.00158353 0.00249339 0.00340626 0.0042854 0.00513082 0.00594251 0.00672047 0.00746471 0.00817523 0.00885201 0.009469 0.0100001 0.0104453 0.0108046 0.0110781 0.0112657 0.0113674 0.0113832 0.0113176 0.0111751 0.0109557 0.0106594 0.0102863 0.00983619 0.00930922 0.00870535 0.0080578 0.0073998 0.00673135 0.00605244 0.00536307 0.00466325 0.00395297 0.00323224 0.0025388 0.00191041 0.00134705 0.00084873 0.000415452 4.72149e-05 -0.000255982 -0.000494139 -0.000676637 -0.000812857 -0.000902799 -0.000946464 -0.00094385 -0.000894959 -0.00079979 -0.000658343 -0.000504044 -0.000370318 -0.000257165 -0.000164586 -9.25795e-05 -4.11464e-05 -1.02866e-05 0 0 -1.62855e-05 -6.51419e-05 -0.000146569 -0.000260568 -0.000407137 -0.000586277 -0.000797988 -0.00104227 -0.00131431 -0.0016093 -0.00192725 -0.00226814 -0.00263198 -0.00301877 -0.00342851 -0.00386119 -0.00430083 -0.00473142 -0.00515297 -0.00556546 -0.0059689 -0.0063633 -0.00674865 -0.00712495 -0.00748566 -0.00782425 -0.00814073 -0.00843508 -0.00870731 -0.00895743 -0.00918542 -0.00939129 -0.00957652 -0.00974257 -0.00988944 -0.0100171 -0.0101257 -0.010215 -0.0102852 -0.0103362 -0.0103757 -0.0104114 -0.0104433 -0.0104713 -0.0104956 -0.010516 -0.0105327 -0.0105455 -0.0105418 -0.010509 -0.010447 -0.0103559 -0.0102357 -0.0100863 -0.00990777 -0.00970011 -0.00943672 -0.009091 -0.00866297 -0.00815261 -0.00755994 -0.00688494 -0.00612762 -0.00528798 -0.00437856 -0.00341188 -0.00238795 -0.00130677 -0.000168337 0.00102735 0.00228029 0.00359048 0.00490501 0.00617098 0.00738838 0.00855721 0.00967748 0.0107492 0.0117723 0.0127469 0.0136354 0.0144001 0.0150413 0.0155587 0.0159525 0.0162226 0.016369 0.0163918 0.0162973 0.0160921 0.0157762 0.0153496 0.0148122 0.0141641 0.0134053 0.0125357 0.0116032 0.0106557 0.00969314 0.00871551 0.00772282 0.00671508 0.00569228 0.00465443 0.00365588 0.00275098 0.00193975 0.00122217 0.000598251 6.79894e-05 -0.000368614 -0.00071156 -0.000974357 -0.00117051 -0.00130003 -0.00136291 -0.00135914 -0.00128874 -0.0011517 -0.000948014 -0.000725823 -0.000533258 -0.000370318 -0.000237003 -0.000133314 -5.92509e-05 -1.48127e-05 0 0 -2.21663e-05 -8.86653e-05 -0.000199497 -0.000354661 -0.000554158 -0.000797988 -0.00108615 -0.00141865 -0.00178893 -0.00219044 -0.0026232 -0.00308719 -0.00358241 -0.00410888 -0.00466658 -0.00525551 -0.00585391 -0.00643999 -0.00701376 -0.00757521 -0.00812434 -0.00866116 -0.00918566 -0.00969784 -0.0101888 -0.0106497 -0.0110804 -0.0114811 -0.0118516 -0.0121921 -0.0125024 -0.0127826 -0.0130347 -0.0132607 -0.0134606 -0.0136344 -0.0137822 -0.0139038 -0.0139993 -0.0140687 -0.0141225 -0.0141711 -0.0142145 -0.0142527 -0.0142857 -0.0143135 -0.0143361 -0.0143535 -0.0143485 -0.0143039 -0.0142195 -0.0140955 -0.0139319 -0.0137286 -0.0134856 -0.0132029 -0.0128444 -0.0123739 -0.0117913 -0.0110966 -0.0102899 -0.00937117 -0.00834038 -0.00719753 -0.00595971 -0.00464395 -0.00325027 -0.00177866 -0.000229126 0.00139834 0.00310372 0.00488704 0.00667626 0.00839938 0.0100564 0.0116473 0.0131721 0.0146308 0.0160234 0.0173499 0.0185592 0.0196002 0.0204728 0.0211771 0.0217131 0.0220807 0.02228 0.022311 0.0221825 0.0219032 0.0214732 0.0208925 0.0201611 0.0192789 0.0182461 0.0170625 0.0157933 0.0145036 0.0131934 0.0118628 0.0105116 0.00913997 0.00774783 0.00633519 0.00497606 0.00374439 0.00264021 0.00166351 0.000814286 9.25411e-05 -0.000501725 -0.000968513 -0.00132621 -0.0015932 -0.00176949 -0.00185507 -0.00184995 -0.00175412 -0.00156759 -0.00129035 -0.000987926 -0.000725823 -0.000504044 -0.000322588 -0.000181456 -8.0647e-05 -2.01618e-05 0 0 -2.89519e-05 -0.000115808 -0.000260568 -0.000463231 -0.000723799 -0.00104227 -0.00141865 -0.00185292 -0.00233656 -0.00286099 -0.00342621 -0.00403224 -0.00467907 -0.0053667 -0.00609512 -0.00686434 -0.00764593 -0.00841142 -0.00916083 -0.00989415 -0.0106114 -0.0113125 -0.0119976 -0.0126666 -0.0133078 -0.0139098 -0.0144724 -0.0149957 -0.0154797 -0.0159243 -0.0163296 -0.0166956 -0.0170249 -0.0173201 -0.0175812 -0.0178083 -0.0180012 -0.01816 -0.0182848 -0.0183755 -0.0184457 -0.0185092 -0.0185658 -0.0186157 -0.0186588 -0.0186952 -0.0187247 -0.0187475 -0.0187409 -0.0186826 -0.0185725 -0.0184105 -0.0181968 -0.0179312 -0.0176138 -0.0172446 -0.0167764 -0.0161618 -0.0154008 -0.0144935 -0.0134399 -0.0122399 -0.0108936 -0.00940086 -0.0077841 -0.00606557 -0.00424525 -0.00232315 -0.000299266 0.0018264 0.00405384 0.00638307 0.00872002 0.0109706 0.0131349 0.0152128 0.0172044 0.0191097 0.0209286 0.0226612 0.0242406 0.0256002 0.02674 0.0276599 0.0283599 0.0288401 0.0291004 0.0291409 0.028973 0.0286082 0.0280466 0.0272882 0.0263328 0.0251806 0.0238316 0.0222857 0.020628 0.0189435 0.0172322 0.0154942 0.0137295 0.0119379 0.0101196 0.00827454 0.00649934 0.00489064 0.00344844 0.00217275 0.00106356 0.00012087 -0.000655314 -0.001265 -0.00173219 -0.00208091 -0.00231117 -0.00242295 -0.00241626 -0.00229109 -0.00204746 -0.00168536 -0.00129035 -0.000948014 -0.000658343 -0.00042134 -0.000237003 -0.000105335 -2.63337e-05 0 0 -3.60603e-05 -0.000144241 -0.000324543 -0.000576965 -0.000901507 -0.00129817 -0.00176695 -0.00230786 -0.00290913 -0.00355901 -0.0042575 -0.00500459 -0.0058003 -0.00664462 -0.00753755 -0.00847908 -0.00943375 -0.0103661 -0.0112761 -0.0121637 -0.013029 -0.0138719 -0.0146925 -0.0154908 -0.0162538 -0.0169686 -0.0176354 -0.0182539 -0.0188243 -0.0193466 -0.0198207 -0.0202467 -0.0206294 -0.0209738 -0.0212799 -0.0215475 -0.0217769 -0.0219679 -0.0221205 -0.0222348 -0.0223276 -0.0224158 -0.0224993 -0.0225782 -0.0226524 -0.0227219 -0.0227869 -0.0228471 -0.0228721 -0.022831 -0.0227239 -0.0225507 -0.0223115 -0.0220062 -0.0216349 -0.0211976 -0.0206325 -0.0198778 -0.0189336 -0.0177998 -0.0164765 -0.0149636 -0.0132612 -0.0113692 -0.00931593 -0.00712978 -0.00481069 -0.00235868 0.000226249 0.00294411 0.00579489 0.00877859 0.0117741 0.0146602 0.017437 0.0201044 0.0226625 0.0251112 0.0274505 0.0296805 0.0317146 0.0334661 0.0349351 0.0361216 0.0370256 0.0376471 0.0379861 0.0380425 0.0378308 0.0373653 0.0366461 0.0356731 0.0344463 0.0329658 0.0312316 0.0292435 0.0271107 0.0249423 0.0227381 0.0204982 0.0182226 0.0159114 0.0135644 0.0111817 0.00888685 0.00680347 0.00493153 0.00327103 0.00182197 0.000584349 -0.000441829 -0.00125657 -0.0018893 -0.00236945 -0.00269703 -0.00287204 -0.00289447 -0.00276433 -0.00248161 -0.00204632 -0.00156671 -0.00115105 -0.000799343 -0.000511579 -0.000287763 -0.000127895 -3.19737e-05 0 0 -4.29093e-05 -0.000171637 -0.000386184 -0.000686549 -0.00107273 -0.00154474 -0.00210256 -0.0027462 -0.00345857 -0.00422258 -0.00503823 -0.00590553 -0.00682446 -0.00779504 -0.00881726 -0.00989113 -0.0109743 -0.0120243 -0.0130413 -0.0140252 -0.0149761 -0.0158938 -0.0167785 -0.0176301 -0.0184377 -0.0191903 -0.019888 -0.0205307 -0.0211185 -0.0216513 -0.0221292 -0.0225521 -0.0229305 -0.0232749 -0.0235851 -0.0238613 -0.0241034 -0.0243114 -0.0244853 -0.0246251 -0.0247505 -0.024881 -0.0250167 -0.0251575 -0.0253035 -0.0254547 -0.025611 -0.0257724 -0.025895 -0.0259348 -0.0258918 -0.0257659 -0.0255572 -0.0252657 -0.0248914 -0.0244342 -0.0238126 -0.0229451 -0.0218315 -0.0204719 -0.0188664 -0.0170148 -0.0149172 -0.0125737 -0.0100194 -0.00728962 -0.0043844 -0.00130372 0.00195243 0.00538404 0.00899111 0.0127736 0.0165763 0.0202437 0.0237759 0.0271728 0.0304345 0.0335609 0.0365521 0.0394081 0.0420161 0.0442636 0.0461506 0.0476769 0.0488428 0.049648 0.0500927 0.0501768 0.0499176 0.0493324 0.0484212 0.0471838 0.0456205 0.0437311 0.0415156 0.0389742 0.0362451 0.0334669 0.0306395 0.0277631 0.0248374 0.0218627 0.0188388 0.0157658 0.0127997 0.0100966 0.00765656 0.00547949 0.00356542 0.00191435 0.000526283 -0.000598781 -0.00149452 -0.00219461 -0.00269905 -0.00300784 -0.00312098 -0.00303848 -0.00276032 -0.00228652 -0.00175061 -0.00128617 -0.00089317 -0.000571629 -0.000321541 -0.000142907 -3.57268e-05 0 0 -4.9499e-05 -0.000197996 -0.000445491 -0.000791985 -0.00123748 -0.00178197 -0.00242545 -0.00316794 -0.00398487 -0.0048517 -0.00576842 -0.00673504 -0.00775156 -0.00881797 -0.00993428 -0.0111005 -0.0122675 -0.0133862 -0.0144566 -0.0154788 -0.0164527 -0.0173783 -0.0182556 -0.0190846 -0.0198596 -0.0205748 -0.0212304 -0.0218261 -0.0223622 -0.0228385 -0.0232551 -0.0236119 -0.0239282 -0.0242233 -0.024497 -0.0247495 -0.0249806 -0.0251905 -0.0253791 -0.0255464 -0.0257143 -0.0259049 -0.0261181 -0.0263539 -0.0266123 -0.0268934 -0.027197 -0.0275233 -0.0278098 -0.0279941 -0.0280763 -0.0280563 -0.0279341 -0.0277097 -0.0273832 -0.0269545 -0.0263168 -0.0253635 -0.0240945 -0.0225098 -0.0206095 -0.0183935 -0.0158617 -0.0130143 -0.00989442 -0.00654509 -0.00296637 0.000841753 0.00487927 0.00914618 0.0136425 0.0183682 0.0231266 0.027721 0.0321515 0.0364179 0.0405204 0.0444588 0.0482333 0.0518438 0.0551453 0.0579928 0.0603863 0.0623258 0.0638113 0.0648428 0.0654203 0.0655439 0.0652336 0.0645095 0.0633718 0.0618204 0.0598552 0.0574764 0.0546839 0.0514776 0.048031 0.0445173 0.0409365 0.0372887 0.0335739 0.0297919 0.025943 0.0220269 0.0182379 0.0147701 0.0116235 0.00879813 0.00629391 0.00411087 0.00224902 0.000708361 -0.000547859 -0.00155638 -0.00231721 -0.00283035 -0.00309579 -0.00311354 -0.00288359 -0.00240595 -0.00184206 -0.00135335 -0.000939826 -0.000601488 -0.000338337 -0.000150372 -3.7593e-05 0 0 -5.58295e-05 -0.000223318 -0.000502465 -0.000893271 -0.00139574 -0.00200986 -0.00273564 -0.00357309 -0.00448804 -0.00544637 -0.00644807 -0.00749314 -0.00858158 -0.00971339 -0.0108886 -0.0121071 -0.0133134 -0.0144517 -0.015522 -0.0165244 -0.0174588 -0.0183252 -0.0191237 -0.0198542 -0.0205194 -0.0211222 -0.0216624 -0.0221402 -0.0225554 -0.0229081 -0.0231983 -0.023426 -0.0236225 -0.023819 -0.0240156 -0.0242121 -0.0244087 -0.0246053 -0.0248019 -0.0249986 -0.0252192 -0.0254874 -0.0258035 -0.0261673 -0.0265788 -0.0270381 -0.0275451 -0.0280998 -0.0286164 -0.0290089 -0.0292773 -0.0294217 -0.029442 -0.0293382 -0.0291103 -0.0287583 -0.028145 -0.0271332 -0.0257227 -0.0239136 -0.0217059 -0.0190996 -0.0160947 -0.0126912 -0.00894107 -0.0048962 -0.000556599 0.00407773 0.00900678 0.0142306 0.0197491 0.0255623 0.0314251 0.0370922 0.0425638 0.0478398 0.0529202 0.0578049 0.0624941 0.0669877 0.071102 0.0746535 0.0776423 0.0800682 0.0819313 0.0832316 0.083969 0.0841437 0.0837786 0.0828967 0.0814981 0.0795827 0.0771506 0.0742018 0.0707362 0.0667539 0.0624684 0.0580935 0.0536291 0.0490753 0.0444319 0.0396991 0.0348768 0.029965 0.0252015 0.020824 0.0168325 0.013227 0.0100074 0.00717392 0.00472639 0.00266486 0.000950685 -0.000454778 -0.00155153 -0.00233957 -0.0028189 -0.00298952 -0.00285143 -0.00240463 -0.00184104 -0.0013526 -0.000939309 -0.000601158 -0.000338151 -0.000150289 -3.75723e-05 0 0 -6.19006e-05 -0.000247602 -0.000557105 -0.000990409 -0.00154751 -0.00222842 -0.00303313 -0.00396164 -0.00496808 -0.00600659 -0.00707717 -0.00817982 -0.00931454 -0.0104813 -0.0116802 -0.0129111 -0.014112 -0.0152208 -0.0162374 -0.0171619 -0.0179944 -0.0187346 -0.0193828 -0.0199389 -0.0204172 -0.0208323 -0.0211842 -0.0214728 -0.0216981 -0.0218602 -0.021959 -0.0219945 -0.0220134 -0.0220621 -0.0221407 -0.0222492 -0.0223875 -0.0225557 -0.0227538 -0.0229818 -0.0232649 -0.0236286 -0.0240728 -0.0245976 -0.0252029 -0.0258887 -0.026655 -0.0275019 -0.0283148 -0.0289791 -0.0294949 -0.0298622 -0.0300809 -0.0301511 -0.0300727 -0.0298458 -0.0292973 -0.028254 -0.0267159 -0.0246831 -0.0221555 -0.0191332 -0.0156161 -0.0116043 -0.00715933 -0.00234294 0.00284491 0.0084042 0.0143349 0.0206371 0.0273108 0.0343559 0.0414717 0.0483573 0.0550129 0.0614385 0.0676339 0.0735993 0.0793345 0.0848397 0.0898863 0.0942459 0.0979185 0.100904 0.103203 0.104814 0.105739 0.105976 0.105553 0.104494 0.1028 0.100471 0.0975066 0.0939072 0.0896727 0.0848029 0.0795575 0.0741956 0.0687173 0.0631226 0.0574116 0.0515842 0.0456403 0.0395801 0.0336904 0.0282582 0.0232834 0.018766 0.014706 0.0111035 0.00795838 0.00527072 0.00300111 0.00111021 -0.000401997 -0.0015355 -0.00229031 -0.00266642 -0.00266383 -0.00228255 -0.00174757 -0.00128393 -0.00089162 -0.000570637 -0.000320983 -0.000142659 -3.56648e-05 0 0 -6.77124e-05 -0.00027085 -0.000609412 -0.0010834 -0.00169281 -0.00243765 -0.00331791 -0.00433359 -0.00542499 -0.00653236 -0.00765573 -0.00879508 -0.00995042 -0.0111217 -0.0123091 -0.0135124 -0.0146633 -0.0156934 -0.0166029 -0.0173915 -0.0180594 -0.0186066 -0.019033 -0.0193387 -0.019553 -0.0197053 -0.0197956 -0.0198239 -0.0197903 -0.0196946 -0.019537 -0.0193174 -0.0191008 -0.0189526 -0.0188725 -0.0188607 -0.0189172 -0.0190418 -0.0192348 -0.0194959 -0.0198517 -0.0203284 -0.0209262 -0.0216449 -0.0224846 -0.0234453 -0.024527 -0.0257296 -0.026905 -0.0279048 -0.0287291 -0.0293778 -0.0298509 -0.0301485 -0.0302705 -0.030217 -0.0297736 -0.028726 -0.0270743 -0.0248185 -0.0219585 -0.0184943 -0.014426 -0.00975352 -0.0045492 0.00111469 0.00723815 0.0138212 0.0208638 0.0283659 0.0363277 0.044749 0.0532664 0.0615163 0.0694988 0.0772139 0.0846616 0.0918418 0.0987546 0.1054 0.111498 0.11677 0.121215 0.124834 0.127625 0.129591 0.130729 0.131041 0.130556 0.129301 0.127277 0.124485 0.120923 0.116593 0.111493 0.105625 0.099298 0.0928234 0.086201 0.0794309 0.0725129 0.0654471 0.0582336 0.0508722 0.0437047 0.0370727 0.0309762 0.0254152 0.0203896 0.0158996 0.011945 0.00852593 0.00560342 0.00313858 0.00113139 -0.000418145 -0.00151002 -0.00214424 -0.0023208 -0.0020397 -0.00156165 -0.00114733 -0.000796758 -0.000509925 -0.000286833 -0.000127481 -3.18703e-05 0 0 -7.32649e-05 -0.00029306 -0.000659384 -0.00117224 -0.00183162 -0.00263754 -0.00358998 -0.00468895 -0.00585876 -0.00702369 -0.00818374 -0.00933893 -0.0104892 -0.0116347 -0.0127752 -0.0139109 -0.0149673 -0.0158697 -0.0166184 -0.0172131 -0.017654 -0.0179411 -0.0180743 -0.0180537 -0.0179267 -0.0177411 -0.0174968 -0.0171937 -0.016832 -0.0164115 -0.0159324 -0.0153945 -0.0148849 -0.0144904 -0.014211 -0.0140467 -0.0139976 -0.0140636 -0.0142447 -0.014541 -0.0149794 -0.0155869 -0.0163635 -0.0173092 -0.0184239 -0.0197078 -0.0211608 -0.0227829 -0.024387 -0.025786 -0.0269798 -0.0279684 -0.028752 -0.0293304 -0.0297036 -0.0298717 -0.0295739 -0.0285492 -0.0267978 -0.0243196 -0.0211146 -0.0171829 -0.0125243 -0.00713896 -0.00111068 0.00547668 0.0126231 0.0203287 0.0285933 0.037417 0.0467998 0.0567416 0.0668092 0.0765692 0.0860215 0.0951661 0.104003 0.112532 0.120754 0.128668 0.135938 0.142226 0.147532 0.151857 0.1552 0.157561 0.158941 0.159339 0.158788 0.157318 0.15493 0.151625 0.1474 0.142258 0.136198 0.12922 0.12169 0.113977 0.10608 0.0979999 0.0897358 0.081288 0.0726565 0.0638413 0.0552444 0.0472676 0.039911 0.0331745 0.0270583 0.0215622 0.0166863 0.0124305 0.00875762 0.00563033 0.00304862 0.0010125 -0.000478027 -0.00142297 -0.00182233 -0.0016761 -0.00128326 -0.000942804 -0.000654725 -0.000419024 -0.000235701 -0.000104756 -2.6189e-05 0 0 -7.85581e-05 -0.000314232 -0.000707023 -0.00125693 -0.00196395 -0.00282809 -0.00384935 -0.00502772 -0.00626939 -0.00748056 -0.00866121 -0.00981135 -0.010931 -0.0120201 -0.0130787 -0.0141068 -0.0150239 -0.0157496 -0.0162839 -0.0166267 -0.0167781 -0.0167381 -0.0165066 -0.0160838 -0.0155385 -0.0149397 -0.0142876 -0.0135821 -0.0128232 -0.0120109 -0.0111452 -0.010226 -0.0093655 -0.0086755 -0.00815605 -0.00780716 -0.00762881 -0.00762101 -0.00778375 -0.00811705 -0.00864807 -0.00940396 -0.0103847 -0.0115904 -0.0130209 -0.0146764 -0.0165567 -0.0186619 -0.0207609 -0.0226226 -0.024247 -0.0256342 -0.0267841 -0.0276967 -0.0283721 -0.0288101 -0.0286982 -0.0277237 -0.0258865 -0.0231866 -0.0196241 -0.0151989 -0.00991107 -0.00376058 0.00315624 0.010743 0.0189998 0.0279266 0.0375234 0.0477902 0.058727 0.0703338 0.0821002 0.0935159 0.104581 0.115295 0.125659 0.135671 0.145333 0.154645 0.163205 0.170613 0.176869 0.181973 0.185925 0.188726 0.190374 0.19087 0.190249 0.188546 0.185759 0.18189 0.176938 0.170904 0.163787 0.155587 0.146734 0.137657 0.128355 0.11883 0.10908 0.0991068 0.0889091 0.0784874 0.0683094 0.0588428 0.0500877 0.0420441 0.034712 0.0280913 0.0221821 0.0169844 0.0124637 0.00858546 0.00534971 0.00275644 0.000805668 -0.000502619 -0.00116842 -0.00119173 -0.000912418 -0.000670348 -0.000465519 -0.000297932 -0.000167587 -7.44831e-05 -1.86208e-05 0 0 -8.25168e-05 -0.000330067 -0.000742651 -0.00132027 -0.00206292 -0.0029706 -0.00404332 -0.00528107 -0.00656955 -0.00779444 -0.00895574 -0.0100535 -0.0110876 -0.0120581 -0.0129651 -0.0138085 -0.0145027 -0.0149622 -0.0151871 -0.0151773 -0.0149328 -0.0144536 -0.0137397 -0.0127912 -0.0117031 -0.0105707 -0.0093939 -0.00817278 -0.00690732 -0.00559751 -0.00424335 -0.00284485 -0.0015435 -0.000480801 0.000343246 0.000928641 0.00127538 0.00138347 0.00125291 0.000883702 0.000248995 -0.00067805 -0.00189743 -0.00340915 -0.00521321 -0.0073096 -0.00969833 -0.0123794 -0.0150717 -0.0174943 -0.0196471 -0.0215302 -0.0231434 -0.024487 -0.0255607 -0.0263646 -0.026528 -0.0256801 -0.0238207 -0.02095 -0.0170679 -0.0121745 -0.00626964 0.000646545 0.00846512 0.0170771 0.0264825 0.0366813 0.0476735 0.0594591 0.0720381 0.0854106 0.0989826 0.11216 0.124944 0.137333 0.149328 0.160929 0.172135 0.182947 0.192895 0.201508 0.208787 0.214732 0.219341 0.222616 0.224557 0.225163 0.224472 0.222521 0.21931 0.214839 0.209108 0.202117 0.193865 0.184354 0.174079 0.163534 0.152722 0.14164 0.13029 0.118672 0.106784 0.0946286 0.0827423 0.0716636 0.0613926 0.0519292 0.0432734 0.0354252 0.0283848 0.0221519 0.0166963 0.0119875 0.00802549 0.00481032 0.00234198 0.000620459 -0.000354242 -0.000582122 -0.000445687 -0.000327444 -0.000227391 -0.00014553 -8.18609e-05 -3.63826e-05 -9.09566e-06 0 0 -8.40656e-05 -0.000336262 -0.00075659 -0.00134505 -0.00210164 -0.00302636 -0.00411921 -0.0053802 -0.00667187 -0.00785678 -0.00893493 -0.00990633 -0.010771 -0.0115288 -0.01218 -0.0127243 -0.0130729 -0.0131367 -0.0129156 -0.0124097 -0.011619 -0.0105435 -0.0091832 -0.00753806 -0.00573561 -0.00390335 -0.00204128 -0.000149408 0.00177227 0.00372375 0.00570504 0.00771613 0.00958033 0.0111209 0.0123379 0.0132314 0.0138012 0.0140474 0.01397 0.013569 0.0128185 0.0116925 0.010191 0.00831408 0.00606165 0.00343374 0.000430355 -0.00294851 -0.00636491 -0.00948088 -0.0122964 -0.0148115 -0.0170262 -0.0189405 -0.0205544 -0.0218678 -0.0224447 -0.0218492 -0.0200811 -0.0171404 -0.0130273 -0.00774159 -0.00128338 0.00634735 0.0150296 0.0246422 0.0351853 0.0466588 0.0590627 0.0723971 0.0866619 0.101857 0.1173 0.132306 0.146877 0.161012 0.174711 0.187975 0.200802 0.213194 0.224604 0.234489 0.242847 0.24968 0.254986 0.258766 0.261021 0.261749 0.26099 0.258784 0.25513 0.250029 0.24348 0.235484 0.226039 0.215148 0.203374 0.191283 0.178876 0.166151 0.153109 0.139751 0.126075 0.112083 0.0983858 0.0855953 0.0737117 0.062735 0.0526652 0.0435023 0.0352463 0.0278971 0.02143 0.0158199 0.0110668 0.00717079 0.00413183 0.00194991 0.000625034 0.000157209 0.000120363 8.84298e-05 6.14096e-05 3.93022e-05 2.21075e-05 9.82554e-06 2.45638e-06 0 0 -8.32046e-05 -0.000332818 -0.000748841 -0.00133127 -0.00208011 -0.00299536 -0.00407702 -0.00532509 -0.00657635 -0.00766758 -0.00859879 -0.00936997 -0.00998113 -0.0104323 -0.0107234 -0.0108544 -0.0107346 -0.0102729 -0.0094694 -0.00832407 -0.00683691 -0.00500792 -0.0028371 -0.000324459 0.00236399 0.00506221 0.00777022 0.010488 0.0132156 0.0159529 0.0187 0.0214569 0.024006 0.0261297 0.027828 0.029101 0.0299485 0.0303707 0.0303675 0.0299389 0.0290605 0.0277077 0.0258807 0.0235793 0.0208036 0.0175537 0.0138294 0.00963078 0.00535965 0.00141776 -0.00219489 -0.0054783 -0.00843247 -0.0110574 -0.0133531 -0.0153196 -0.0164483 -0.016231 -0.0146675 -0.0117579 -0.00750215 -0.00190028 0.00504771 0.0133418 0.0228495 0.0334383 0.0451082 0.0578591 0.071691 0.0866041 0.102598 0.119673 0.137051 0.153954 0.170381 0.186332 0.201808 0.216809 0.231334 0.245383 0.258332 0.269554 0.279049 0.286818 0.29286 0.297175 0.299764 0.300626 0.299803 0.297334 0.293219 0.28746 0.280055 0.271005 0.260309 0.247968 0.23462 0.220903 0.206817 0.192362 0.177538 0.162344 0.146782 0.130851 0.11524 0.100638 0.0870451 0.0744616 0.0628874 0.0523224 0.0427666 0.0342201 0.0266648 0.0200827 0.0144737 0.00983786 0.00617521 0.00348573 0.00176941 0.00102626 0.000785732 0.000577272 0.000400884 0.000256565 0.000144318 6.41414e-05 1.60353e-05 0 0 -7.99337e-05 -0.000319735 -0.000719403 -0.00127894 -0.00199834 -0.00287761 -0.00391675 -0.00511576 -0.006283 -0.00722686 -0.00794732 -0.00844439 -0.00871807 -0.00876836 -0.00859526 -0.00819878 -0.00748773 -0.00637097 -0.00484849 -0.0029203 -0.000586389 0.00215324 0.00529858 0.00884965 0.0125957 0.016326 0.0200406 0.0237394 0.0274226 0.0310899 0.0347416 0.0383775 0.0417335 0.0445455 0.0468135 0.0485375 0.0497175 0.0503535 0.0504454 0.0499933 0.0489749 0.0473676 0.0451714 0.0423865 0.0390127 0.0350501 0.0304987 0.0253585 0.0201019 0.0152016 0.0106575 0.00646957 0.00263787 -0.000837612 -0.00395688 -0.00671994 -0.00853881 -0.0088255 -0.00758002 -0.00480237 -0.000492544 0.00534946 0.0127236 0.02163 0.0319251 0.0434655 0.0562512 0.0702822 0.0855585 0.10208 0.119847 0.138859 0.158238 0.177103 0.195455 0.213294 0.230619 0.247432 0.263731 0.279517 0.294079 0.306704 0.317393 0.326146 0.332963 0.337843 0.340788 0.341796 0.34091 0.33817 0.333578 0.327131 0.318832 0.30868 0.296674 0.282815 0.267817 0.252394 0.236546 0.220273 0.203575 0.186452 0.168905 0.150932 0.133304 0.116791 0.101393 0.087109 0.07394 0.0618856 0.0509459 0.0411208 0.0324007 0.0247758 0.0182461 0.0128115 0.00847212 0.00522791 0.00307889 0.00202504 0.00155042 0.00113908 0.00079103 0.000506259 0.000284771 0.000126565 3.16412e-05 0 0 -7.4253e-05 -0.000297012 -0.000668277 -0.00118805 -0.00185633 -0.00267311 -0.0036384 -0.00475219 -0.00579182 -0.00653459 -0.00698051 -0.00712958 -0.0069818 -0.00653716 -0.00579568 -0.00475734 -0.00333234 -0.00143085 0.000947122 0.00380158 0.00713252 0.0109399 0.0152239 0.0199843 0.0249595 0.0298881 0.0347699 0.0396049 0.0443932 0.0491348 0.0538297 0.0584778 0.0627628 0.0663684 0.0692944 0.071541 0.073108 0.0739956 0.0742037 0.0737324 0.0725617 0.0706721 0.0680634 0.0647357 0.0606889 0.0559232 0.0504384 0.0442346 0.0378619 0.0318706 0.0262607 0.021032 0.0161848 0.0117189 0.00763428 0.00393104 0.00128381 0.000367246 0.00118135 0.00372611 0.00800154 0.0140076 0.0217444 0.0312118 0.0422561 0.0547236 0.0686143 0.0839282 0.100665 0.118825 0.138409 0.159415 0.180859 0.201754 0.222099 0.241896 0.261144 0.279843 0.297993 0.315594 0.331844 0.345939 0.357879 0.367664 0.375294 0.38077 0.384092 0.385258 0.384312 0.381294 0.376205 0.369044 0.359812 0.348509 0.335134 0.319688 0.302964 0.285755 0.268062 0.249884 0.231222 0.212074 0.192443 0.172326 0.152579 0.134055 0.116755 0.100677 0.0858229 0.0721919 0.059784 0.0485993 0.0386378 0.0298994 0.022384 0.0160918 0.0110226 0.0071