<?xml version="1.0"?> 
<VTKFile type="StructuredGrid" version="0.1"> 
<StructuredGrid WholeExtent="0 128 0 128 0 0"> 
<Piece Extent="0 128 0 128 0 0"> 
<PointData>
<DataArray type="Float32" Name="u" format="ascii" NumberOfComponents="1"> 
0 0 0 0 0 0 0 0 0 0 0 0 0 0 0 0 0 0 0 0 0 0 0 0 0 0 0 0 0 0 0 0 0 0 0 0 0 0 0 0 0 0 0 0 0 0 0 0 0 0 0 0 0 0 0 0 0 0 0 0 0 0 0 0 0 0 0 0 0 0 0 0 0 0 0 0 0 0 0 0 0 0 0 0 0 0 0 0 0 0 0 0 0 0 0 0 0 0 0 0 0 0 0 0 0 0 0 0 0 0 0 0 0 0 0 0 0 0 0 0 0 0 0 0 0 0 0 0 0 0 2.09399e-07 8.37598e-07 1.8846e-06 3.35039e-06 5.23499e-06 7.53838e-06 1.02606e-05 1.34016e-05 1.71473e-05 2.16836e-05 2.70106e-05 3.31282e-05 4.00364e-05 4.77352e-05 5.62247e-05 6.55048e-05 7.52929e-05 8.53062e-05 9.55449e-05 0.000106009 0.000116698 0.000127613 0.000138752 0.000150117 0.000161438 0.000172446 0.000183141 0.000193523 0.000203591 0.000213346 0.000222788 0.000231916 0.000240655 0.000248928 0.000256734 0.000264074 0.000270948 0.000277356 0.000283297 0.000288772 0.000293877 0.000298708 0.000303266 0.00030755 0.00031156 0.000315297 0.00031876 0.000321949 0.000325026 0.000328152 0.000331326 0.00033455 0.000337823 0.000341144 0.000344515 0.000347934 0.000351489 0.000355265 0.000359263 0.000363482 0.000367922 0.000372583 0.000377466 0.000382571 0.000387817 0.000393127 0.000398499 0.000403934 0.000409432 0.000414993 0.000420617 0.000426304 0.000431829 0.000436969 0.000441722 0.000446091 0.000450073 0.00045367 0.00045688 0.000459705 0.000461903 0.000463232 0.000463693 0.000463284 0.000462007 0.000459861 0.000456846 0.000452962 0.000448117 0.000442217 0.000435262 0.000427252 0.000418188 0.000408069 0.000396895 0.000384666 0.000371553 0.000357728 0.000343191 0.000327941 0.000311978 0.000295303 0.000277916 0.000259816 0.000241465 0.000223324 0.000205393 0.000187673 0.000170162 0.000152862 0.000135772 0.000118892 0.000102761 8.79179e-05 7.43621e-05 6.20939e-05 5.11132e-05 4.14201e-05 3.30146e-05 2.58967e-05 1.98271e-05 1.45669e-05 1.01159e-05 6.47417e-06 3.64172e-06 1.61854e-06 4.04636e-07 0 0 8.37598e-07 3.35039e-06 7.53838e-06 1.34016e-05 2.09399e-05 3.01535e-05 4.10423e-05 5.36063e-05 6.85891e-05 8.67344e-05 0.000108042 0.000132513 0.000160146 0.000190941 0.000224899 0.000262019 0.000301172 0.000341225 0.000382179 0.000424035 0.000466792 0.00051045 0.000555009 0.000600469 0.000645754 0.000689786 0.000732564 0.00077409 0.000814363 0.000853384 0.000891151 0.000927666 0.000962621 0.000995712 0.00102694 0.0010563 0.00108379 0.00110942 0.00113319 0.00115509 0.00117551 0.00119483 0.00121306 0.0012302 0.00124624 0.00126119 0.00127504 0.0012878 0.0013001 0.00131261 0.00132531 0.0013382 0.00135129 0.00136458 0.00137806 0.00139174 0.00140596 0.00142106 0.00143705 0.00145393 0.00147169 0.00149033 0.00150987 0.00153028 0.00155127 0.00157251 0.001594 0.00161574 0.00163773 0.00165997 0.00168247 0.00170521 0.00172732 0.00174787 0.00176689 0.00178436 0.00180029 0.00181468 0.00182752 0.00183882 0.00184761 0.00185293 0.00185477 0.00185314 0.00184803 0.00183944 0.00182738 0.00181185 0.00179247 0.00176887 0.00174105 0.00170901 0.00167275 0.00163227 0.00158758 0.00153866 0.00148621 0.00143091 0.00137276 0.00131176 0.00124791 0.00118121 0.00111166 0.00103926 0.000965859 0.000893296 0.000821573 0.00075069 0.000680649 0.000611448 0.000543088 0.000475569 0.000411045 0.000351672 0.000297448 0.000248376 0.000204453 0.000165681 0.000132059 0.000103587 7.93086e-05 5.82675e-05 4.04636e-05 2.58967e-05 1.45669e-05 6.47417e-06 1.61854e-06 0 0 1.8846e-06 7.53838e-06 1.69614e-05 3.01535e-05 4.71149e-05 6.78454e-05 9.23452e-05 0.000120614 0.000154325 0.000195152 0.000243095 0.000298153 0.000360327 0.000429617 0.000506022 0.000589543 0.000677636 0.000767756 0.000859904 0.000954079 0.00105028 0.00114851 0.00124877 0.00135106 0.00145295 0.00155202 0.00164827 0.0017417 0.00183232 0.00192011 0.00200509 0.00208725 0.0021659 0.00224035 0.00231061 0.00237667 0.00243853 0.0024962 0.00254967 0.00259895 0.00264489 0.00268837 0.00272939 0.00276795 0.00280404 0.00283767 0.00286884 0.00289754 0.00292523 0.00295336 0.00298194 0.00301095 0.0030404 0.0030703 0.00310063 0.00313141 0.0031634 0.00319739 0.00323336 0.00327133 0.0033113 0.00335325 0.0033972 0.00344314 0.00349035 0.00353814 0.00358649 0.00363541 0.00368489 0.00373494 0.00378555 0.00383673 0.00388646 0.00393272 0.0039755 0.00401482 0.00405066 0.00408303 0.00411192 0.00413735 0.00415713 0.00416909 0.00417323 0.00416956 0.00415806 0.00413875 0.00411161 0.00407666 0.00403305 0.00397995 0.00391736 0.00384527 0.00376369 0.00367262 0.00357205 0.00346199 0.00334398 0.00321956 0.00308872 0.00295147 0.00280781 0.00265773 0.00250124 0.00233834 0.00217318 0.00200992 0.00184854 0.00168905 0.00153146 0.00137576 0.00122195 0.00107003 0.000924851 0.000791261 0.000669259 0.000558845 0.000460019 0.000372781 0.000297132 0.00023307 0.000178444 0.000131102 9.1043e-05 5.82675e-05 3.27755e-05 1.45669e-05 3.64172e-06 0 0 3.35039e-06 1.34016e-05 3.01535e-05 5.36063e-05 8.37598e-05 0.000120614 0.000164169 0.000214425 0.000274356 0.000346938 0.000432169 0.000530051 0.000640582 0.000763764 0.000899595 0.00104808 0.00120469 0.0013649 0.00152872 0.00169614 0.00186717 0.0020418 0.00222004 0.00240188 0.00258302 0.00275914 0.00293026 0.00309636 0.00325745 0.00341353 0.0035646 0.00371066 0.00385048 0.00398285 0.00410775 0.00422519 0.00433517 0.00443769 0.00453275 0.00462035 0.00470203 0.00477933 0.00485225 0.0049208 0.00498496 0.00504475 0.00510015 0.00515118 0.00520041 0.00525042 0.00530122 0.0053528 0.00540516 0.00545831 0.00551224 0.00556695 0.00562383 0.00568424 0.0057482 0.0058157 0.00588675 0.00596133 0.00603946 0.00612113 0.00620508 0.00629003 0.00637598 0.00646294 0.00655091 0.00663989 0.00672987 0.00682086 0.00690926 0.0069915 0.00706756 0.00713745 0.00720117 0.00725871 0.00731009 0.00735529 0.00739045 0.00741172 0.00741908 0.00741255 0.00739211 0.00735777 0.00730954 0.0072474 0.00716987 0.00707547 0.00696419 0.00683604 0.00669101 0.0065291 0.00635031 0.00615465 0.00594485 0.00572365 0.00549105 0.00524705 0.00499166 0.00472486 0.00444666 0.00415706 0.00386344 0.00357318 0.00328629 0.00300276 0.0027226 0.00244579 0.00217235 0.00190228 0.00164418 0.00140669 0.00118979 0.000993502 0.000817812 0.000662722 0.000528234 0.000414347 0.000317234 0.00023307 0.000161854 0.000103587 5.82675e-05 2.58967e-05 6.47417e-06 0 0 5.23499e-06 2.09399e-05 4.71149e-05 8.37598e-05 0.000130875 0.00018846 0.000256514 0.000335039 0.000428682 0.00054209 0.000675264 0.000828204 0.00100091 0.00119338 0.00140562 0.00163762 0.00188232 0.00213266 0.00238862 0.00265022 0.00291745 0.00319031 0.00346881 0.00375293 0.00403596 0.00431116 0.00457853 0.00483806 0.00508977 0.00533365 0.00556969 0.00579791 0.00601638 0.0062232 0.00641836 0.00660186 0.0067737 0.00693389 0.00708242 0.0072193 0.00734692 0.00746771 0.00758165 0.00768874 0.007789 0.00788242 0.00796899 0.00804872 0.00812564 0.00820379 0.00828316 0.00836375 0.00844557 0.00852861 0.00861287 0.00869836 0.00878723 0.00888163 0.00898157 0.00908704 0.00919804 0.00931458 0.00943666 0.00956427 0.00969543 0.00982816 0.00996247 0.0100984 0.0102358 0.0103748 0.0105154 0.0106576 0.0107957 0.0109242 0.0110431 0.0111523 0.0112518 0.0113417 0.011422 0.0114926 0.0115476 0.0115808 0.0115923 0.0115821 0.0115502 0.0114965 0.0114212 0.0113241 0.0112029 0.0110554 0.0108816 0.0106813 0.0104547 0.0102017 0.00992236 0.00961664 0.00928883 0.00894321 0.00857977 0.00819852 0.00779946 0.00738259 0.0069479 0.0064954 0.00603662 0.0055831 0.00513483 0.00469181 0.00425405 0.00382155 0.0033943 0.0029723 0.00256903 0.00219795 0.00185905 0.00155235 0.00127783 0.0010355 0.000825366 0.000647417 0.000495679 0.000364172 0.000252897 0.000161854 9.1043e-05 4.04636e-05 1.01159e-05 0 0 7.53838e-06 3.01535e-05 6.78454e-05 0.000120614 0.00018846 0.000271382 0.000369381 0.000482456 0.000617302 0.00078061 0.00097238 0.00119261 0.00144131 0.00171847 0.00202409 0.00235817 0.00271054 0.00307102 0.00343962 0.00381632 0.00420113 0.00459405 0.00499508 0.00540423 0.00581179 0.00620807 0.00659308 0.00696681 0.00732927 0.00768045 0.00802036 0.00834899 0.00866359 0.0089614 0.00924243 0.00950668 0.00975413 0.0099848 0.0101987 0.0103958 0.0105796 0.0107535 0.0109176 0.0110718 0.0112162 0.0113507 0.0114753 0.0115902 0.0117009 0.0118135 0.0119277 0.0120438 0.0121616 0.0122812 0.0124025 0.0125256 0.0126536 0.0127895 0.0129335 0.0130853 0.0132452 0.013413 0.0135888 0.0137725 0.0139614 0.0141526 0.014346 0.0145416 0.0147396 0.0149398 0.0151422 0.0153469 0.0155458 0.0157309 0.015902 0.0160593 0.0162026 0.0163321 0.0164477 0.0165494 0.0166285 0.0166764 0.0166929 0.0166782 0.0166322 0.016555 0.0164465 0.0163066 0.0161322 0.0159198 0.0156694 0.0153811 0.0150548 0.0146905 0.0142882 0.013848 0.0133759 0.0128782 0.0123549 0.0118059 0.0112312 0.0106309 0.010005 0.00935338 0.00869274 0.00803966 0.00739415 0.00675621 0.00612584 0.00550303 0.00488779 0.00428012 0.00369941 0.00316504 0.00267704 0.00223538 0.00184008 0.00149113 0.00118853 0.00093228 0.000713777 0.000524408 0.000364172 0.00023307 0.000131102 5.82675e-05 1.45669e-05 0 0 1.02606e-05 4.10423e-05 9.23452e-05 0.000164169 0.000256514 0.000369381 0.000502768 0.000656677 0.000840216 0.0010625 0.00132352 0.00162328 0.00196178 0.00233903 0.00275501 0.00320974 0.00368935 0.00418001 0.0046817 0.00519443 0.0057182 0.00625301 0.00679886 0.00735575 0.00791049 0.00844987 0.00897391 0.0094826 0.00997595 0.0104539 0.0109166 0.0113639 0.0117921 0.0121975 0.01258 0.0129396 0.0132765 0.0135904 0.0138815 0.0141498 0.0144 0.0146367 0.01486 0.0150699 0.0152664 0.0154495 0.0156192 0.0157755 0.0159263 0.0160794 0.016235 0.016393 0.0165533 0.0167161 0.0168812 0.0170488 0.017223 0.017408 0.0176039 0.0178106 0.0180282 0.0182566 0.0184959 0.018746 0.019003 0.0192632 0.0195264 0.0197928 0.0200622 0.0203347 0.0206102 0.0208889 0.0211596 0.0214115 0.0216444 0.0218584 0.0220536 0.0222298 0.0223871 0.0225256 0.0226333 0.0226984 0.0227209 0.0227009 0.0226383 0.0225332 0.0223855 0.0221952 0.0219577 0.0216686 0.0213278 0.0209354 0.0204912 0.0199954 0.0194478 0.0188486 0.0182061 0.0175287 0.0168164 0.0160691 0.0152869 0.0144699 0.0136179 0.012731 0.0118318 0.0109429 0.0100643 0.00919596 0.00833795 0.00749024 0.00665283 0.00582572 0.0050353 0.00430798 0.00364374 0.0030426 0.00250455 0.00202959 0.00161772 0.00126894 0.00097153 0.000713777 0.000495679 0.000317234 0.000178444 7.93086e-05 1.98271e-05 0 0 1.34016e-05 5.36063e-05 0.000120614 0.000214425 0.000335039 0.000482456 0.000656677 0.0008577 0.00109743 0.00138775 0.00172868 0.0021202 0.00256233 0.00305505 0.00359838 0.00419231 0.00481874 0.0054596 0.00611487 0.00678456 0.00746867 0.0081672 0.00888015 0.00960751 0.0103321 0.0110366 0.011721 0.0123854 0.0130298 0.0136541 0.0142584 0.0148426 0.0154019 0.0159314 0.016431 0.0169008 0.0173407 0.0177508 0.018131 0.0184814 0.0188081 0.0191173 0.019409 0.0196832 0.0199398 0.020179 0.0204006 0.0206047 0.0208016 0.0210017 0.0212049 0.0214112 0.0216207 0.0218332 0.022049 0.0222678 0.0224953 0.022737 0.0229928 0.0232628 0.023547 0.0238453 0.0241578 0.0244845 0.0248203 0.0251601 0.0255039 0.0258518 0.0262037 0.0265596 0.0269195 0.0272834 0.0276371 0.027966 0.0282702 0.0285498 0.0288047 0.0290348 0.0292403 0.0294212 0.0295618 0.0296469 0.0296763 0.0296502 0.0295684 0.0294311 0.0292381 0.0289896 0.0286795 0.0283019 0.0278568 0.0273441 0.026764 0.0261164 0.0254013 0.0246186 0.0237794 0.0228946 0.0219642 0.0209882 0.0199666 0.0188994 0.0177866 0.0166282 0.0154538 0.0142927 0.0131452 0.012011 0.0108904 0.00978317 0.00868941 0.0076091 0.00657672 0.00562675 0.00475918 0.00397401 0.00327125 0.00265089 0.00211294 0.00165739 0.00126894 0.00093228 0.000647417 0.000414347 0.00023307 0.000103587 2.58967e-05 0 0 1.71991e-05 6.87965e-05 0.000154792 0.000275186 0.000429978 0.000619169 0.000842757 0.00110074 0.00140801 0.00177944 0.00221503 0.00271478 0.00327869 0.00390677 0.004599 0.0053554 0.00615298 0.00696877 0.00780276 0.00865497 0.00952538 0.010414 0.0113208 0.0122459 0.0131673 0.0140633 0.014934 0.0157792 0.016599 0.0173934 0.0181625 0.0189061 0.0196181 0.0202922 0.0209284 0.0215268 0.0220873 0.0226099 0.0230947 0.0235416 0.0239584 0.0243528 0.0247249 0.0250747 0.0254022 0.0257073 0.02599 0.0262505 0.0265016 0.0267565 0.0270152 0.0272777 0.0275439 0.0278139 0.0280877 0.0283652 0.0286535 0.0289595 0.0292833 0.0296248 0.029984 0.030361 0.0307558 0.0311682 0.0315921 0.0320208 0.0324545 0.0328931 0.0333367 0.0337852 0.0342387 0.0346971 0.0351423 0.0355561 0.0359386 0.0362898 0.0366096 0.036898 0.0371551 0.0373809 0.0375558 0.0376603 0.0376944 0.0376581 0.0375514 0.0373743 0.0371267 0.0368088 0.036413 0.0359318 0.0353651 0.0347131 0.0339757 0.0331528 0.0322446 0.031251 0.0301858 0.029063 0.0278825 0.0266444 0.0253487 0.0239952 0.0225842 0.0211155 0.0196264 0.0181542 0.016699 0.0152607 0.0138394 0.0124349 0.0110474 0.00967684 0.00836682 0.007161 0.00605938 0.00506195 0.00416871 0.00337968 0.00269484 0.00211419 0.00161868 0.00118923 0.000825855 0.000528548 0.000297308 0.000132137 3.30342e-05 0 0 2.1891e-05 8.75642e-05 0.000197019 0.000350257 0.000547276 0.000788078 0.00107266 0.00140103 0.00179106 0.00226063 0.00280975 0.00343841 0.00414662 0.00493437 0.00580167 0.00674851 0.00774631 0.00876647 0.009809 0.0108739 0.0119612 0.0130708 0.0142028 0.0153571 0.016507 0.0176253 0.0187123 0.0197677 0.0207917 0.0217843 0.0227454 0.0236751 0.0245655 0.0254089 0.0262053 0.0269546 0.0276569 0.0283121 0.0289203 0.0294814 0.0300051 0.0305006 0.0309682 0.0314077 0.0318192 0.0322026 0.032558 0.0328853 0.0332007 0.0335202 0.0338438 0.0341715 0.0345033 0.0348393 0.0351793 0.0355235 0.0358803 0.0362586 0.0366582 0.0370793 0.0375217 0.0379854 0.0384706 0.0389771 0.0394972 0.0400229 0.0405543 0.0410913 0.041634 0.0421824 0.0427365 0.0432962 0.0438393 0.0443434 0.0448086 0.0452347 0.0456219 0.0459701 0.0462794 0.0465496 0.0467569 0.0468772 0.0469104 0.0468567 0.0467159 0.0464882 0.0461734 0.0457716 0.0452737 0.0446704 0.0439618 0.0431479 0.0422286 0.041204 0.040074 0.0388387 0.0375153 0.0361208 0.0346553 0.0331189 0.0315114 0.029833 0.0280835 0.026263 0.0244174 0.0225924 0.020788 0.0190042 0.0172411 0.0154986 0.0137767 0.0120755 0.0104488 0.00895039 0.00758039 0.00633876 0.00522549 0.00424059 0.00338407 0.00265591 0.00203343 0.00149395 0.00103746 0.000663976 0.000373487 0.000165994 4.14985e-05 0 0 2.74773e-05 0.000109909 0.000247296 0.000439637 0.000686933 0.000989183 0.00134639 0.00175855 0.00224656 0.00283132 0.00351283 0.0042911 0.00516611 0.00613787 0.00720639 0.00837165 0.00959874 0.0108527 0.0121336 0.0134414 0.014776 0.0161376 0.017526 0.0189414 0.0203511 0.0217226 0.0230559 0.024351 0.025608 0.0268267 0.0280073 0.0291497 0.0302443 0.0312816 0.0322615 0.0331841 0.0340493 0.0348572 0.0356078 0.036301 0.0369482 0.0375608 0.0381388 0.0386821 0.0391909 0.039665 0.0401045 0.0405093 0.0408989 0.0412927 0.0416906 0.0420927 0.042499 0.0429094 0.0433239 0.0437426 0.0441759 0.0446343 0.0451177 0.0456263 0.0461599 0.0467185 0.0473023 0.0479111 0.0485356 0.0491663 0.0498032 0.0504463 0.0510957 0.0517512 0.052413 0.0530809 0.0537282 0.054328 0.0548801 0.0553847 0.0558417 0.0562511 0.056613 0.0569273 0.0571651 0.0572975 0.0573244 0.057246 0.0570621 0.0567729 0.0563782 0.0558781 0.0552617 0.0545179 0.0536469 0.0526485 0.0515228 0.0502698 0.0488895 0.0473819 0.0457678 0.0440681 0.0422827 0.0404116 0.0384549 0.0364126 0.0342846 0.032071 0.0298268 0.0276072 0.0254121 0.0232416 0.0210956 0.0189742 0.0168774 0.0148051 0.0128225 0.0109949 0.00932222 0.00780444 0.00644158 0.00523364 0.00418063 0.00328253 0.00251319 0.00184642 0.00128224 0.000820633 0.000461606 0.000205158 5.12896e-05 0 0 3.39579e-05 0.000135832 0.000305621 0.000543327 0.000848948 0.00122248 0.00166394 0.00217331 0.00277452 0.00349152 0.00432429 0.00527284 0.00633716 0.00751727 0.00881315 0.0102248 0.0117103 0.0132275 0.0147765 0.0163573 0.01797 0.0196144 0.0212906 0.0229985 0.0246996 0.0263551 0.0279649 0.0295291 0.0310477 0.0325207 0.0339481 0.0353298 0.0366544 0.0379101 0.0390971 0.0402153 0.0412647 0.0422453 0.0431571 0.0440002 0.0447878 0.0455333 0.0462367 0.046898 0.0475173 0.0480944 0.0486295 0.0491224 0.0495963 0.0500741 0.0505557 0.0510413 0.0515308 0.0520241 0.0525214 0.0530226 0.0535401 0.0540865 0.0546617 0.0552658 0.0558987 0.0565604 0.0572509 0.0579703 0.0587074 0.0594511 0.0602014 0.0609582 0.0617216 0.0624915 0.0632681 0.0640512 0.064809 0.0655097 0.0661533 0.0667397 0.0672689 0.0677411 0.068156 0.0685139 0.0687803 0.0689212 0.0689364 0.068826 0.06859 0.0682283 0.0677411 0.0671282 0.0663769 0.0654742 0.0644202 0.0632149 0.0618583 0.0603503 0.0586911 0.0568805 0.0549434 0.0529048 0.0507645 0.0485227 0.0461792 0.0437342 0.0411875 0.0385393 0.0358546 0.0331986 0.0305713 0.0279727 0.0254029 0.0228617 0.0203493 0.0178656 0.0154882 0.0132946 0.0112849 0.00945899 0.00781698 0.00635882 0.00508452 0.00399407 0.00305796 0.00224667 0.00156018 0.000998518 0.000561667 0.00024963 6.24074e-05 0 0 4.13329e-05 0.000165331 0.000371996 0.000661326 0.00103332 0.00148798 0.00202531 0.0026453 0.00337494 0.00424121 0.00524411 0.00638363 0.00765978 0.00907256 0.010622 0.012308 0.0140809 0.0158908 0.0177378 0.0196219 0.021543 0.0235011 0.0254964 0.0275286 0.0295526 0.0315228 0.0334393 0.035302 0.037111 0.0388662 0.0405677 0.0422155 0.0437957 0.0452946 0.0467121 0.0480482 0.049303 0.0504764 0.0515684 0.052579 0.0535238 0.0544181 0.055262 0.0560554 0.0567984 0.0574909 0.058133 0.0587247 0.0592928 0.0598642 0.0604391 0.0610172 0.0615988 0.0621836 0.0627719 0.0633635 0.0639731 0.0646153 0.0652902 0.0659978 0.066738 0.0675109 0.0683165 0.0691547 0.0700126 0.0708773 0.0717487 0.0726268 0.0735117 0.0744034 0.0753018 0.076207 0.0770817 0.0778887 0.078628 0.0792997 0.0799036 0.0804399 0.0809085 0.0813094 0.0816027 0.0817483 0.0817463 0.0815967 0.0812994 0.0808546 0.0802621 0.0795219 0.0786193 0.0775393 0.0762819 0.0748472 0.073235 0.0714456 0.0694787 0.0673345 0.0650421 0.0626309 0.0601009 0.057452 0.0546842 0.0517976 0.0487922 0.0456679 0.0425007 0.0393666 0.0362656 0.0331977 0.0301629 0.0271612 0.0241926 0.021257 0.0184456 0.0158494 0.0134683 0.0113024 0.00935169 0.00761613 0.00609574 0.00479053 0.00366775 0.00269467 0.0018713 0.00119763 0.000673668 0.000299408 7.4852e-05 0 0 4.96022e-05 0.000198409 0.000446419 0.000793635 0.00124005 0.00178568 0.00243051 0.00317454 0.00404782 0.00508041 0.00627229 0.00762348 0.00913396 0.0108037 0.0126328 0.0146212 0.0167106 0.0188427 0.0210174 0.0232349 0.0254951 0.0277979 0.0301435 0.0325317 0.03491 0.0372258 0.039479 0.0416696 0.0437978 0.0458633 0.0478663 0.0498068 0.0516684 0.053435 0.0551065 0.0566829 0.0581642 0.0595504 0.0608415 0.0620376 0.0631562 0.0642152 0.0652146 0.0661542 0.0670342 0.0678545 0.0686151 0.069316 0.0699884 0.0706632 0.0713406 0.0720205 0.0727029 0.0733878 0.0740753 0.0747652 0.0754747 0.0762207 0.0770033 0.0778224 0.078678 0.0795702 0.0804989 0.0814642 0.0824511 0.0834448 0.0844452 0.0854523 0.0864662 0.0874868 0.0885142 0.0895483 0.0905462 0.0914649 0.0923044 0.0930647 0.0937458 0.0943477 0.0948704 0.0953139 0.0956321 0.0957789 0.0957542 0.0955581 0.0951906 0.0946516 0.0939411 0.0930593 0.091989 0.0907132 0.0892319 0.0875452 0.0856531 0.0835555 0.0812524 0.0787438 0.0760639 0.0732465 0.0702917 0.0671996 0.06397 0.060603 0.0570986 0.0534569 0.0497652 0.0461113 0.0424951 0.0389166 0.0353757 0.0318726 0.0284071 0.0249794 0.0216949 0.0186593 0.0158726 0.0133347 0.0110457 0.00900557 0.0072143 0.00567189 0.00434254 0.00319044 0.00221558 0.00141797 0.00079761 0.000354493 8.86233e-05 0 0 5.87658e-05 0.000235063 0.000528892 0.000940253 0.00146915 0.00211557 0.00287952 0.00376101 0.00479316 0.00600911 0.00740885 0.00899238 0.0107597 0.0127108 0.0148457 0.0171645 0.0195994 0.0220831 0.0246154 0.0271965 0.0298262 0.0325047 0.0352318 0.0380077 0.0407719 0.043464 0.046084 0.0486321 0.051108 0.0535119 0.0558438 0.0581036 0.0602724 0.0623313 0.0642802 0.0661192 0.0678483 0.0694674 0.0709766 0.0723758 0.0736851 0.0749247 0.0760945 0.0771945 0.0782247 0.0791851 0.0800757 0.0808965 0.0816831 0.0824711 0.0832604 0.0840512 0.0848433 0.0856368 0.0864316 0.0872278 0.088045 0.0889026 0.0898008 0.0907394 0.0917185 0.0927382 0.0937983 0.0948989 0.096023 0.0971537 0.0982909 0.0994346 0.100585 0.101742 0.102905 0.104075 0.105203 0.106238 0.107182 0.108035 0.108795 0.109464 0.110042 0.110527 0.110869 0.111013 0.11096 0.11071 0.110263 0.109619 0.108778 0.10774 0.106486 0.104996 0.10327 0.101309 0.0991124 0.0966801 0.0940122 0.0911086 0.0880087 0.0847515 0.0813371 0.0777654 0.0740365 0.0701503 0.0661069 0.0619062 0.0576482 0.0534327 0.0492597 0.0451292 0.0410413 0.0369959 0.032993 0.0290327 0.0252361 0.0217244 0.0184977 0.0155559 0.012899 0.0105271 0.00844018 0.00663817 0.00508235 0.00373397 0.00259303 0.00165954 0.000933492 0.000414885 0.000103721 0 0 6.88238e-05 0.000275295 0.000619414 0.00110118 0.0017206 0.00247766 0.00337237 0.00440472 0.00561096 0.00702731 0.00865377 0.0104903 0.012537 0.0147938 0.0172607 0.0199377 0.0227473 0.025612 0.0285318 0.0315066 0.0345365 0.0376214 0.0407615 0.0439566 0.0471381 0.0502374 0.0532545 0.0561893 0.0590418 0.0618121 0.0645002 0.067106 0.0696077 0.0719835 0.0742334 0.0763573 0.0783553 0.0802274 0.0819735 0.0835937 0.0851105 0.0865465 0.0879018 0.0891762 0.0903699 0.0914827 0.0925148 0.0934661 0.094377 0.0952878 0.0961985 0.0971092 0.0980198 0.0989304 0.0998409 0.100751 0.101684 0.102661 0.103683 0.104749 0.10586 0.107015 0.108215 0.109459 0.110728 0.112004 0.113286 0.114574 0.115868 0.117168 0.118475 0.119788 0.121051 0.122209 0.123262 0.12421 0.125052 0.12579 0.126422 0.12695 0.127312 0.12745 0.127364 0.127053 0.126518 0.125758 0.124774 0.123565 0.12211 0.120387 0.118397 0.116139 0.113613 0.110819 0.107758 0.104429 0.100877 0.097146 0.093237 0.0891496 0.0848837 0.0804395 0.0758169 0.0710159 0.0661495 0.0613306 0.0565594 0.0518357 0.0471596 0.0425311 0.0379502 0.0334169 0.029069 0.0250446 0.0213436 0.0179659 0.0149117 0.0121808 0.0097734 0.00768936 0.00588716 0.00432526 0.00300366 0.00192234 0.00108132 0.000480585 0.000120146 0 0 7.9608e-05 0.000318432 0.000716472 0.00127373 0.0019902 0.00286589 0.00390079 0.00509491 0.00648757 0.00811809 0.00998647 0.0120927 0.0144368 0.0170188 0.0198386 0.0228963 0.0261037 0.0293728 0.0327036 0.036096 0.0395501 0.0430659 0.0466433 0.0502824 0.0539058 0.0574363 0.0608737 0.0642182 0.0674696 0.0706281 0.0736936 0.0766661 0.0795206 0.0822323 0.0848012 0.0872272 0.0895103 0.0916506 0.093648 0.0955026 0.0972394 0.0988836 0.100435 0.101894 0.10326 0.104534 0.105715 0.106803 0.107845 0.108884 0.109921 0.110956 0.111989 0.11302 0.114049 0.115077 0.116127 0.117226 0.118373 0.119568 0.120812 0.122104 0.123444 0.124832 0.126248 0.127669 0.129096 0.130528 0.131966 0.133409 0.134858 0.136312 0.13771 0.138989 0.140148 0.141189 0.14211 0.142912 0.143595 0.144159 0.144537 0.144662 0.144534 0.144154 0.143521 0.142635 0.141496 0.140105 0.138436 0.136467 0.134197 0.131626 0.128754 0.125581 0.122108 0.118333 0.114308 0.110082 0.105657 0.101031 0.0962054 0.0911794 0.0859532 0.0805269 0.0750268 0.0695796 0.064185 0.0588433 0.0535543 0.048318 0.0431345 0.0380038 0.0330811 0.0285216 0.0243254 0.0204924 0.0170227 0.0139163 0.0111731 0.00879318 0.00673228 0.00494617 0.00343484 0.0021983 0.00123654 0.000549574 0.000137393 0 0 9.09504e-05 0.000363801 0.000818553 0.00145521 0.00227376 0.00327421 0.00445657 0.00582082 0.00740936 0.00926454 0.0113864 0.0137749 0.01643 0.0193518 0.0225402 0.0259953 0.0296179 0.0333088 0.037068 0.0408956 0.0447914 0.0487556 0.0527881 0.056889 0.0609719 0.0649507 0.0688253 0.0725957 0.076262 0.0798241 0.0832821 0.0866359 0.0898573 0.0929183 0.0958188 0.0985588 0.101138 0.103557 0.105816 0.107914 0.109879 0.111739 0.113493 0.115143 0.116687 0.118125 0.119459 0.120687 0.12186 0.123029 0.124193 0.125353 0.126508 0.127658 0.128804 0.129945 0.13111 0.132326 0.133594 0.134914 0.136285 0.137708 0.139182 0.140709 0.142263 0.143822 0.145386 0.146955 0.148528 0.150106 0.151689 0.153276 0.154799 0.156189 0.157446 0.15857 0.15956 0.160418 0.161142 0.161733 0.162116 0.162219 0.16204 0.161581 0.16084 0.159819 0.158516 0.156932 0.15504 0.152815 0.150256 0.147362 0.144135 0.140574 0.136679 0.132449 0.127942 0.123213 0.118262 0.11309 0.107695 0.102079 0.0962402 0.09018 0.0840379 0.0779537 0.0719275 0.0659592 0.0600488 0.0541963 0.0484018 0.0426652 0.0371594 0.032057 0.0273583 0.023063 0.0191713 0.0156831 0.0125985 0.00991737 0.00759298 0.00557852 0.00387397 0.00247934 0.00139463 0.000619835 0.000154959 0 0 0.000102851 0.000411403 0.000925657 0.00164561 0.00257127 0.00370263 0.00503969 0.00658245 0.00837631 0.0104666 0.0128535 0.0155368 0.0185166 0.0217929 0.0253656 0.0292349 0.0332899 0.03742 0.0416251 0.0459052 0.0502605 0.0546907 0.059196 0.0637764 0.0683364 0.0727806 0.0771091 0.0813219 0.0854189 0.0894001 0.0932656 0.0970154 0.100618 0.104041 0.107286 0.110352 0.113239 0.115947 0.118477 0.120827 0.123029 0.125112 0.127076 0.128922 0.130649 0.132257 0.133747 0.135117 0.136425 0.137724 0.139016 0.1403 0.141576 0.142844 0.144104 0.145356 0.146632 0.147962 0.149346 0.150786 0.152279 0.153828 0.15543 0.157087 0.158774 0.160464 0.162157 0.163854 0.165555 0.16726 0.168968 0.170679 0.172319 0.173811 0.175156 0.176354 0.177404 0.178307 0.179063 0.179671 0.18005 0.180121 0.179882 0.179333 0.178476 0.177308 0.175832 0.174046 0.171922 0.169431 0.166573 0.163348 0.159756 0.155797 0.151471 0.146778 0.14178 0.136538 0.131053 0.125325 0.119353 0.113137 0.106678 0.0999755 0.0931828 0.0864532 0.0797868 0.0731834 0.0666432 0.0601661 0.0537521 0.0474012 0.0413039 0.035651 0.0304422 0.0256777 0.0213574 0.0174813 0.0140495 0.0110619 0.00846927 0.00622232 0.00432106 0.00276548 0.00155558 0.000691369 0.000172842 0 0 0.000115309 0.000461237 0.00103778 0.00184495 0.00288273 0.00415114 0.00565016 0.0073798 0.00938843 0.0117244 0.0143878 0.0173785 0.0206966 0.024342 0.0283148 0.032615 0.0371197 0.0417063 0.0463748 0.0511251 0.0559572 0.0608711 0.0658669 0.0709445 0.0759992 0.0809261 0.0857252 0.0903966 0.0949403 0.0993561 0.103644 0.107805 0.111802 0.115602 0.119204 0.122607 0.125813 0.128821 0.131631 0.134243 0.13669 0.139004 0.141184 0.143232 0.145147 0.146929 0.148578 0.150094 0.151537 0.152969 0.154389 0.155797 0.157193 0.158577 0.15995 0.16131 0.162693 0.164133 0.16563 0.167184 0.168795 0.170463 0.172187 0.173969 0.17578 0.177594 0.179409 0.181227 0.183047 0.18487 0.186694 0.188521 0.190269 0.191854 0.193278 0.194541 0.195641 0.19658 0.197358 0.197973 0.198339 0.198368 0.198059 0.197412 0.196427 0.195105 0.193445 0.191447 0.189081 0.186315 0.183149 0.179583 0.175617 0.171251 0.166485 0.161319 0.155821 0.150058 0.14403 0.137736 0.131178 0.124355 0.117266 0.109913 0.102461 0.0950779 0.0877628 0.080516 0.0733374 0.0662272 0.0591853 0.0522116 0.0455148 0.0393033 0.0335772 0.0283364 0.023581 0.0193109 0.0155262 0.0122268 0.00936115 0.00687758 0.0047761 0.0030567 0.0017194 0.000764176 0.000191044 0 0 0.000128326 0.000513304 0.00115493 0.00205322 0.00320815 0.00461974 0.00628798 0.00821287 0.0104457 0.0130379 0.0159893 0.0193 0.02297 0.0269992 0.0313878 0.0361356 0.0411074 0.0461679 0.0513171 0.056555 0.0618816 0.0672968 0.0728008 0.0783935 0.0839604 0.0893871 0.0946736 0.09982 0.104826 0.109692 0.114418 0.119004 0.12341 0.127599 0.131571 0.135324 0.13886 0.142178 0.145279 0.148161 0.150861 0.153413 0.155817 0.158073 0.160181 0.162141 0.163953 0.165616 0.167198 0.168763 0.170312 0.171844 0.173359 0.174858 0.176341 0.177807 0.179294 0.18084 0.182445 0.184109 0.185832 0.187613 0.189454 0.191353 0.193282 0.195212 0.197142 0.199073 0.201004 0.202936 0.204869 0.206803 0.208649 0.210318 0.211812 0.21313 0.214271 0.215237 0.216027 0.216641 0.216983 0.21696 0.216571 0.215816 0.214695 0.213208 0.211355 0.209136 0.206518 0.203467 0.199983 0.196066 0.191717 0.186935 0.18172 0.176073 0.170065 0.163772 0.157191 0.150325 0.143172 0.135732 0.128006 0.119993 0.111874 0.103828 0.0958557 0.0879569 0.0801316 0.0723798 0.0647014 0.0570966 0.0497919 0.0430141 0.0367632 0.0310392 0.0258421 0.0211719 0.0170285 0.0134121 0.0102686 0.00754429 0.00523909 0.00335302 0.00188607 0.000838254 0.000209564 0 0 0.000141901 0.000567603 0.00127711 0.00227041 0.00354752 0.00510843 0.00695314 0.00908165 0.0115482 0.014407 0.017658 0.0213012 0.0253368 0.0297645 0.0345845 0.0397967 0.0452529 0.0508047 0.0564521 0.0621951 0.0680337 0.0739679 0.0799978 0.0861232 0.0922199 0.0981637 0.103954 0.109592 0.115077 0.120408 0.125587 0.130612 0.135442 0.140034 0.144388 0.148503 0.15238 0.156019 0.15942 0.162582 0.165543 0.168341 0.170975 0.173445 0.175751 0.177893 0.179871 0.181686 0.183407 0.185107 0.186785 0.188441 0.190075 0.191688 0.193278 0.194847 0.196435 0.198083 0.199791 0.20156 0.20339 0.205279 0.207229 0.209239 0.211279 0.213318 0.215355 0.217391 0.219426 0.22146 0.223492 0.225523 0.227459 0.229203 0.230758 0.232122 0.233295 0.234278 0.23507 0.235672 0.235982 0.235897 0.235418 0.234545 0.233278 0.231617 0.229561 0.227111 0.224232 0.220886 0.217075 0.212799 0.208057 0.20285 0.197177 0.191038 0.184513 0.17768 0.170539 0.16309 0.155333 0.147268 0.138896 0.130215 0.12142 0.112703 0.104065 0.0955061 0.0870256 0.0786237 0.0703006 0.0620561 0.0541353 0.0467834 0.0400003 0.0337861 0.0281407 0.0230642 0.0185565 0.0146177 0.0111917 0.00822245 0.00571003 0.00365442 0.00205561 0.000913605 0.000228401 0 0 0.000156034 0.000624135 0.0014043 0.00249654 0.00390084 0.00561721 0.00764565 0.00998615 0.0126958 0.0158317 0.0193939 0.0233823 0.0277969 0.0326378 0.037905 0.0435984 0.0495562 0.0556166 0.0617797 0.0680453 0.0744135 0.0808843 0.0874577 0.0941337 0.100778 0.107256 0.113567 0.119713 0.125692 0.131504 0.137151 0.142631 0.147898 0.152906 0.157654 0.162143 0.166373 0.170343 0.174054 0.177505 0.180736 0.183787 0.186657 0.189347 0.191856 0.194185 0.196333 0.198301 0.200165 0.202001 0.203808 0.205588 0.20734 0.209065 0.210761 0.212429 0.214115 0.215861 0.217669 0.219538 0.221469 0.223461 0.225514 0.227628 0.229772 0.231912 0.234049 0.236183 0.238313 0.240439 0.242563 0.244683 0.246699 0.24851 0.250115 0.251516 0.252712 0.253702 0.254488 0.255069 0.255335 0.25518 0.254602 0.2