<?xml version="1.0"?> 
<VTKFile type="StructuredGrid" version="0.1"> 
<StructuredGrid WholeExtent="0 128 0 128 0 0"> 
<Piece Extent="0 128 0 128 0 0"> 
<PointData>
<DataArray type="Float32" Name="u" format="ascii" NumberOfComponents="1"> 
0 0 0 0 0 0 0 0 0 0 0 0 0 0 0 0 0 0 0 0 0 0 0 0 0 0 0 0 0 0 0 0 0 0 0 0 0 0 0 0 0 0 0 0 0 0 0 0 0 0 0 0 0 0 0 0 0 0 0 0 0 0 0 0 0 0 0 0 0 0 0 0 0 0 0 0 0 0 0 0 0 0 0 0 0 0 0 0 0 0 0 0 0 0 0 0 0 0 0 0 0 0 0 0 0 0 0 0 0 0 0 0 0 0 0 0 0 0 0 0 0 0 0 0 0 0 0 0 0 0 1.42647e-07 5.70589e-07 1.28382e-06 2.28235e-06 3.56618e-06 5.1353e-06 6.98971e-06 9.12942e-06 1.17229e-05 1.49386e-05 1.87766e-05 2.32368e-05 2.83192e-05 3.40239e-05 4.03508e-05 4.72999e-05 5.47043e-05 6.23969e-05 7.03776e-05 7.86466e-05 8.72038e-05 9.60493e-05 0.000105183 0.000114605 0.000124122 0.000133543 0.000142866 0.000152093 0.000161222 0.000170254 0.00017919 0.000188028 0.000196683 0.000205067 0.000213181 0.000221024 0.000228596 0.000235898 0.000242929 0.000249689 0.000256193 0.000262455 0.000268474 0.000274251 0.000279786 0.000285078 0.000290128 0.000294936 0.00029956 0.00030406 0.000308436 0.000312687 0.000316814 0.000320817 0.000324696 0.00032845 0.00033211 0.000335703 0.000339231 0.000342692 0.000346088 0.000349418 0.000352682 0.00035588 0.000358964 0.000361884 0.000364642 0.000367236 0.000369668 0.000371936 0.000374041 0.000375984 0.00037765 0.000378927 0.000379816 0.000380315 0.000380426 0.000380147 0.00037948 0.000378423 0.000376872 0.000374719 0.000371964 0.000368608 0.000364651 0.000360092 0.000354932 0.00034917 0.000342795 0.000335796 0.000328173 0.000319926 0.000311055 0.000301559 0.000291439 0.000280695 0.000269469 0.000257904 0.000245999 0.000233755 0.000221171 0.000208247 0.000194984 0.000181382 0.000167746 0.000154385 0.000141297 0.000128483 0.000115944 0.000103677 9.16853e-05 7.99669e-05 6.88465e-05 5.86481e-05 4.93718e-05 4.10175e-05 3.35852e-05 2.7075e-05 2.14868e-05 1.68206e-05 1.28783e-05 9.46159e-06 6.57055e-06 4.20515e-06 2.3654e-06 1.05129e-06 2.62822e-07 0 0 5.70589e-07 2.28235e-06 5.1353e-06 9.12942e-06 1.42647e-05 2.05412e-05 2.79588e-05 3.65177e-05 4.68916e-05 5.97544e-05 7.51062e-05 9.2947e-05 0.000113277 0.000136095 0.000161403 0.0001892 0.000218817 0.000249587 0.000281511 0.000314587 0.000348815 0.000384197 0.000420732 0.000458419 0.000496489 0.00053417 0.000571464 0.00060837 0.000644888 0.000681018 0.00071676 0.000752114 0.000786733 0.000820269 0.000852723 0.000884095 0.000914384 0.000943591 0.000971715 0.000998758 0.00102477 0.00104982 0.0010739 0.00109701 0.00111914 0.00114031 0.00116051 0.00117974 0.00119824 0.00121624 0.00123374 0.00125075 0.00126726 0.00128327 0.00129878 0.0013138 0.00132844 0.00134281 0.00135692 0.00137077 0.00138435 0.00139767 0.00141073 0.00142352 0.00143585 0.00144754 0.00145857 0.00146894 0.00147867 0.00148774 0.00149617 0.00150393 0.0015106 0.00151571 0.00151926 0.00152126 0.0015217 0.00152059 0.00151792 0.00151369 0.00150749 0.00149887 0.00148786 0.00147443 0.0014586 0.00144037 0.00141973 0.00139668 0.00137118 0.00134319 0.00131269 0.0012797 0.00124422 0.00120624 0.00116576 0.00112278 0.00107788 0.00103162 0.000983997 0.000935019 0.000884683 0.000832989 0.000779937 0.000725527 0.000670986 0.00061754 0.000565189 0.000513934 0.000463774 0.00041471 0.000366741 0.000319868 0.000275386 0.000234592 0.000197487 0.00016407 0.000134341 0.0001083 8.59471e-05 6.72824e-05 5.15131e-05 3.78464e-05 2.62822e-05 1.68206e-05 9.46159e-06 4.20515e-06 1.05129e-06 0 0 1.28382e-06 5.1353e-06 1.15544e-05 2.05412e-05 3.20956e-05 4.62177e-05 6.29074e-05 8.21648e-05 0.000105506 0.000134447 0.000168989 0.000209131 0.000254873 0.000306215 0.000363157 0.000425699 0.000492339 0.000561572 0.000633399 0.00070782 0.000784835 0.000864443 0.000946646 0.00103144 0.0011171 0.00120188 0.00128579 0.00136883 0.001451 0.00153229 0.00161271 0.00169226 0.00177015 0.00184561 0.00191863 0.00198921 0.00205736 0.00212308 0.00218636 0.0022472 0.00230574 0.0023621 0.00241627 0.00246826 0.00251807 0.00256571 0.00261115 0.00265442 0.00269604 0.00273654 0.00277592 0.00281419 0.00285133 0.00288736 0.00292226 0.00295605 0.00298899 0.00302133 0.00305308 0.00308423 0.00311479 0.00314476 0.00317414 0.00320292 0.00323067 0.00325696 0.00328178 0.00330513 0.00332701 0.00334742 0.00336637 0.00338385 0.00339885 0.00341035 0.00341834 0.00342284 0.00342383 0.00342132 0.00341532 0.00340581 0.00339184 0.00337247 0.00334768 0.00331747 0.00328186 0.00324083 0.00319438 0.00314253 0.00308516 0.00302217 0.00295356 0.00287934 0.00279949 0.00271403 0.00262295 0.00252626 0.00242523 0.00232114 0.00221399 0.00210379 0.00199054 0.00187423 0.00175486 0.00163244 0.00150972 0.00138946 0.00127168 0.00115635 0.00104349 0.000933097 0.000825167 0.000719702 0.000619618 0.000527833 0.000444346 0.000369157 0.000302267 0.000243675 0.000193381 0.000151385 0.000115904 8.51543e-05 5.91349e-05 3.78464e-05 2.12886e-05 9.46159e-06 2.3654e-06 0 0 2.28235e-06 9.12942e-06 2.05412e-05 3.65177e-05 5.70589e-05 8.21648e-05 0.000111835 0.000146071 0.000187566 0.000239018 0.000300425 0.000371788 0.000453107 0.000544382 0.000645612 0.000756799 0.000875268 0.00099835 0.00112604 0.00125835 0.00139526 0.00153679 0.00168293 0.00183368 0.00198595 0.00213668 0.00228586 0.00243348 0.00257955 0.00272407 0.00286704 0.00300846 0.00314693 0.00328108 0.00341089 0.00353638 0.00365754 0.00377436 0.00388686 0.00399503 0.00409909 0.00419928 0.00429559 0.00438802 0.00447658 0.00456125 0.00464205 0.00471897 0.00479296 0.00486496 0.00493497 0.005003 0.00506903 0.00513308 0.00519514 0.00525521 0.00531376 0.00537125 0.00542769 0.00548308 0.00553741 0.00559069 0.00564291 0.00569408 0.00574342 0.00579015 0.00583427 0.00587578 0.00591468 0.00595098 0.00598466 0.00601574 0.0060424 0.00606284 0.00607705 0.00608504 0.00608681 0.00608235 0.00607167 0.00605477 0.00602995 0.0059955 0.00595143 0.00589773 0.00583441 0.00576147 0.0056789 0.00558672 0.00548472 0.00537274 0.00525077 0.00511882 0.00497688 0.00482495 0.00466303 0.00449113 0.00431151 0.00412647 0.00393599 0.00374008 0.00353873 0.00333196 0.00311975 0.00290211 0.00268394 0.00247016 0.00226076 0.00205574 0.0018551 0.00165884 0.00146696 0.00127947 0.00110154 0.00093837 0.000789949 0.00065628 0.000537363 0.0004332 0.000343788 0.00026913 0.000206052 0.000151385 0.000105129 6.72824e-05 3.78464e-05 1.68206e-05 4.20515e-06 0 0 3.56618e-06 1.42647e-05 3.20956e-05 5.70589e-05 8.91545e-05 0.000128382 0.000174743 0.000228235 0.000293072 0.000373465 0.000469414 0.000580919 0.00070798 0.000850596 0.00100877 0.0011825 0.00136761 0.00155992 0.00175944 0.00196617 0.0021801 0.00240123 0.00262957 0.00286512 0.00310305 0.00333857 0.00357165 0.00380231 0.00403055 0.00425636 0.00447975 0.00470071 0.00491708 0.00512668 0.00532952 0.00552559 0.0057149 0.00589744 0.00607322 0.00624223 0.00640484 0.00656138 0.00671186 0.00685629 0.00699465 0.00712696 0.00725321 0.0073734 0.007489 0.0076015 0.00771089 0.00781718 0.00792036 0.00802043 0.0081174 0.00821126 0.00830275 0.00839258 0.00848077 0.00856731 0.0086522 0.00873545 0.00881705 0.008897 0.00897409 0.0090471 0.00911604 0.0091809 0.00924169 0.0092984 0.00935103 0.00939959 0.00944125 0.00947318 0.00949539 0.00950788 0.00951064 0.00950368 0.00948699 0.00946058 0.00942179 0.00936797 0.0092991 0.0092152 0.00911627 0.0090023 0.00887329 0.00872924 0.00856988 0.00839491 0.00820433 0.00799815 0.00777637 0.00753898 0.00728598 0.00701738 0.00673674 0.0064476 0.00614998 0.00584387 0.00552927 0.00520618 0.00487461 0.00453454 0.00419366 0.00385962 0.00353243 0.00321209 0.00289859 0.00259194 0.00229213 0.00199917 0.00172116 0.0014662 0.00123429 0.00102544 0.00083963 0.000676874 0.000537169 0.000420515 0.000321957 0.00023654 0.000164264 0.000105129 5.91349e-05 2.62822e-05 6.57055e-06 0 0 5.1353e-06 2.05412e-05 4.62177e-05 8.21648e-05 0.000128382 0.000184871 0.00025163 0.000328659 0.000422024 0.00053779 0.000675956 0.000836523 0.00101949 0.00122486 0.00145263 0.0017028 0.00196935 0.00224629 0.0025336 0.00283128 0.00313934 0.00345777 0.00378658 0.00412577 0.0044684 0.00480753 0.00514318 0.00547533 0.00580399 0.00612916 0.00645084 0.00676902 0.00708059 0.00738242 0.00767451 0.00795685 0.00822946 0.00849232 0.00874544 0.00898882 0.00922296 0.00944838 0.00966508 0.00987305 0.0100723 0.0102628 0.0104446 0.0106177 0.0107842 0.0109462 0.0111037 0.0112567 0.0114053 0.0115494 0.0116891 0.0118242 0.011956 0.0120853 0.0122123 0.0123369 0.0124592 0.012579 0.0126966 0.0128117 0.0129227 0.0130278 0.0131271 0.0132205 0.013308 0.0133897 0.0134655 0.0135354 0.0135954 0.0136414 0.0136734 0.0136913 0.0136953 0.0136853 0.0136613 0.0136232 0.0135674 0.0134899 0.0133907 0.0132699 0.0131274 0.0129633 0.0127775 0.0125701 0.0123406 0.0120887 0.0118142 0.0115173 0.011198 0.0108561 0.0104918 0.010105 0.0097009 0.00928455 0.00885597 0.00841517 0.00796215 0.0074969 0.00701943 0.00652974 0.00603887 0.00555786 0.0050867 0.0046254 0.00417397 0.00373239 0.00330067 0.00287881 0.00247847 0.00211133 0.00177738 0.00147663 0.00120907 0.000974699 0.000773524 0.000605542 0.000463618 0.000340617 0.00023654 0.000151385 8.51543e-05 3.78464e-05 9.46159e-06 0 0 6.98971e-06 2.79588e-05 6.29074e-05 0.000111835 0.000174743 0.00025163 0.000342496 0.000447342 0.000574422 0.000731992 0.000920051 0.0011386 0.00138764 0.00166717 0.00197719 0.0023177 0.00268051 0.00305745 0.0034485 0.00385369 0.00427299 0.00470641 0.00515396 0.00561563 0.00608199 0.00654359 0.00700044 0.00745253 0.00789988 0.00834247 0.00878031 0.00921339 0.00963748 0.0100483 0.0104459 0.0108302 0.0112012 0.011559 0.0119035 0.0122348 0.0125535 0.0128603 0.0131552 0.0134383 0.0137095 0.0139688 0.0142163 0.0144519 0.0146784 0.0148989 0.0151134 0.0153217 0.0155239 0.0157201 0.0159101 0.0160941 0.0162734 0.0164495 0.0166223 0.0167919 0.0169583 0.0171215 0.0172814 0.0174381 0.0175892 0.0177323 0.0178674 0.0179946 0.0181137 0.0182249 0.018328 0.0184232 0.0185048 0.0185674 0.018611 0.0186354 0.0186409 0.0186272 0.0185945 0.0185427 0.0184667 0.0183612 0.0182262 0.0180618 0.0178679 0.0176445 0.0173916 0.0171093 0.016797 0.016454 0.0160805 0.0156764 0.0152417 0.0147764 0.0142805 0.0137541 0.013204 0.0126373 0.012054 0.011454 0.0108374 0.0102041 0.00955423 0.00888771 0.00821957 0.00756486 0.00692357 0.00629569 0.00568123 0.0050802 0.00449258 0.00391838 0.00337348 0.00287376 0.00241922 0.00200986 0.00164568 0.00132667 0.00105285 0.00082421 0.000631035 0.000463618 0.000321957 0.000206052 0.000115904 5.15131e-05 1.28783e-05 0 0 9.12942e-06 3.65177e-05 8.21648e-05 0.000146071 0.000228235 0.000328659 0.000447342 0.000584283 0.000750265 0.000956071 0.0012017 0.00148715 0.00181243 0.00217753 0.00258245 0.00302719 0.00350107 0.0039934 0.00450417 0.00503339 0.00558105 0.00614715 0.0067317 0.0073347 0.00794382 0.00854673 0.00914343 0.00973392 0.0103182 0.0108963 0.0114682 0.0120338 0.0125877 0.0131243 0.0136436 0.0141455 0.0146301 0.0150975 0.0155474 0.0159801 0.0163964 0.0167971 0.0171824 0.0175521 0.0179063 0.018245 0.0185682 0.0188759 0.0191718 0.0194598 0.0197399 0.020012 0.0202761 0.0205323 0.0207805 0.0210208 0.021255 0.021485 0.0217108 0.0219323 0.0221496 0.0223628 0.0225716 0.0227763 0.0229737 0.0231606 0.0233371 0.0235031 0.0236587 0.0238039 0.0239386 0.024063 0.0241696 0.0242513 0.0243082 0.0243402 0.0243472 0.0243294 0.0242867 0.0242191 0.0241198 0.023982 0.0238057 0.0235909 0.0233376 0.0230459 0.0227156 0.0223469 0.0219389 0.021491 0.0210031 0.0204753 0.0199075 0.0192998 0.0186521 0.0179645 0.017246 0.0165059 0.0157439 0.0149603 0.0141549 0.0133278 0.012479 0.0116084 0.0107358 0.00988063 0.00904302 0.00822294 0.00742039 0.00663536 0.00586786 0.00511788 0.00440618 0.00375348 0.00315979 0.00262512 0.00214945 0.0017328 0.00137515 0.00107652 0.00082421 0.000605542 0.000420515 0.00026913 0.000151385 6.72824e-05 1.68206e-05 0 0 1.17503e-05 4.70012e-05 0.000105753 0.000188005 0.000293757 0.000423011 0.000575765 0.000752019 0.000965296 0.00122912 0.00154348 0.00190839 0.00232384 0.00278984 0.00330638 0.00387347 0.0044775 0.00510488 0.00575559 0.00642966 0.00712707 0.00784782 0.00859192 0.00935936 0.0101345 0.0109019 0.0116613 0.0124129 0.0131566 0.0138925 0.0146205 0.0153406 0.0160458 0.016729 0.0173903 0.0180295 0.0186467 0.0192419 0.0198151 0.0203664 0.0208967 0.0214073 0.021898 0.022369 0.0228203 0.0232517 0.0236633 0.0240552 0.024432 0.0247986 0.025155 0.025501 0.0258369 0.0261624 0.0264777 0.0267828 0.0270799 0.0273715 0.0276576 0.0279381 0.0282131 0.0284826 0.0287465 0.0290049 0.0292538 0.0294894 0.0297116 0.0299204 0.0301158 0.0302978 0.0304665 0.0306217 0.0307545 0.0308557 0.0309252 0.0309631 0.0309693 0.0309439 0.0308869 0.0307983 0.0306695 0.0304919 0.0302655 0.0299903 0.0296664 0.0292937 0.0288722 0.0284019 0.027882 0.0273115 0.0266905 0.026019 0.0252969 0.0245242 0.023701 0.0228273 0.0219146 0.0209744 0.0200067 0.0190117 0.0179891 0.0169392 0.0158618 0.0147569 0.0136494 0.012564 0.0115008 0.0104598 0.00944084 0.00844407 0.00746944 0.00651695 0.00561289 0.00478351 0.00402881 0.00334881 0.00274349 0.00221286 0.00175691 0.00137566 0.00105324 0.000773806 0.000537365 0.000343914 0.000193452 8.59784e-05 2.14946e-05 0 0 1.50482e-05 6.01929e-05 0.000135434 0.000240772 0.000376206 0.000541736 0.000737363 0.000963086 0.00123526 0.00157022 0.00196798 0.00242853 0.00295188 0.00353803 0.00418697 0.0048987 0.00565624 0.0064426 0.00725778 0.00810178 0.0089746 0.00987624 0.0108067 0.011766 0.0127348 0.0136939 0.0146432 0.0155829 0.0165128 0.017433 0.0183434 0.0192441 0.0201263 0.0209811 0.0218085 0.0226086 0.0233813 0.0241266 0.0248445 0.0255351 0.0261995 0.0268391 0.0274539 0.0280438 0.0286089 0.0291492 0.0296646 0.0301552 0.0306267 0.0310851 0.0315303 0.0319622 0.032381 0.0327866 0.0331789 0.0335581 0.033927 0.0342885 0.0346426 0.0349894 0.0353287 0.0356607 0.0359853 0.0363025 0.0366075 0.0368955 0.0371665 0.0374205 0.0376576 0.0378776 0.0380806 0.0382666 0.0384245 0.0385429 0.038622 0.0386616 0.0386619 0.0386228 0.0385443 0.0384264 0.0382586 0.0380305 0.0377419 0.037393 0.0369837 0.0365141 0.0359841 0.0353937 0.0347419 0.0340278 0.0332513 0.0324124 0.0315112 0.0305476 0.0295217 0.0284334 0.027297 0.026127 0.0249232 0.0236856 0.0224143 0.0211093 0.0197706 0.0183982 0.0170224 0.015674 0.0143528 0.0130588 0.011792 0.0105525 0.00934025 0.00815523 0.00702993 0.00599684 0.00505597 0.00420731 0.00345087 0.00278663 0.00221461 0.00173481 0.00132821 0.000975828 0.000677658 0.000433701 0.000243957 0.000108425 2.71063e-05 0 0 1.90232e-05 7.60928e-05 0.000171209 0.000304371 0.00047558 0.000684835 0.000932136 0.00121748 0.00156014 0.00197938 0.00247519 0.00304758 0.00369654 0.00442208 0.0052242 0.00610289 0.0070373 0.00800659 0.00901074 0.0100498 0.0111237 0.0122324 0.013376 0.0145545 0.0157446 0.0169228 0.0180892 0.0192439 0.0203867 0.0215177 0.0226369 0.0237444 0.0248292 0.0258805 0.0268984 0.0278829 0.0288339 0.0297514 0.0306355 0.0314862 0.0323048 0.0330927 0.0338499 0.0345765 0.0352723 0.0359375 0.036572 0.0371758 0.0377559 0.0383192 0.0388658 0.0393956 0.0399086 0.0404048 0.0408842 0.0413469 0.0417964 0.042236 0.0426659 0.0430861 0.0434965 0.0438971 0.0442879 0.044669 0.0450346 0.0453789 0.0457019 0.0460036 0.0462841 0.0465432 0.0467811 0.0469976 0.0471795 0.0473131 0.0473986 0.0474359 0.0474251 0.047366 0.0472588 0.0471034 0.0468872 0.0465978 0.0462351 0.0457991 0.0452898 0.0447072 0.0440513 0.0433221 0.0425186 0.0416396 0.0406853 0.0396556 0.0385505 0.03737 0.0361141 0.0347828 0.0333935 0.0319636 0.0304932 0.0289821 0.0274305 0.0258383 0.0242055 0.0225321 0.0208549 0.0192104 0.0175988 0.0160199 0.0144739 0.0129607 0.0114803 0.0100327 0.0086573 0.00739349 0.00624127 0.00520064 0.00427159 0.00345413 0.00274826 0.00215397 0.00164913 0.00121161 0.000841395 0.000538493 0.000302902 0.000134623 3.36558e-05 0 0 2.36752e-05 9.47008e-05 0.000213077 0.000378803 0.00059188 0.000852307 0.00116009 0.00151521 0.00193996 0.00245659 0.00306512 0.00376552 0.00455782 0.005442 0.00641807 0.00748603 0.00862068 0.00979682 0.0110145 0.0122736 0.0135742 0.0149163 0.0163 0.0177251 0.0191639 0.0205886 0.0219993 0.0233958 0.0247783 0.0261467 0.027501 0.0288413 0.0301544 0.0314272 0.0326599 0.0338523 0.0350045 0.0361165 0.0371882 0.0382198 0.0392125 0.040168 0.0410861 0.041967 0.0428105 0.0436167 0.0443856 0.0451172 0.0458196 0.046501 0.0471615 0.047801 0.0484195 0.049017 0.0495936 0.0501492 0.0506879 0.051214 0.0517275 0.0522282 0.0527163 0.0531917 0.0536545 0.0541046 0.0545352 0.0549396 0.0553178 0.0556697 0.0559953 0.0562947 0.0565679 0.0568147 0.0570195 0.0571663 0.0572551 0.0572859 0.0572587 0.0571736 0.0570304 0.0568292 0.0565553 0.0561939 0.0557449 0.0552084 0.0545844 0.0538729 0.0530738 0.0521872 0.051212 0.0501472 0.0489927 0.0477486 0.0464148 0.0449914 0.0434783 0.0418755 0.040204 0.0384844 0.0367168 0.0349013 0.0330377 0.0311261 0.0291665 0.0271589 0.0251467 0.0231734 0.0212389 0.0193433 0.0174865 0.0156686 0.0138896 0.0121494 0.010495 0.00897346 0.00758471 0.00632878 0.00520566 0.00421534 0.00335784 0.00263315 0.002016 0.00148115 0.00102857 0.000658287 0.000370287 0.000164572 4.11429e-05 0 0 2.90043e-05 0.000116017 0.000261038 0.000464068 0.000725107 0.00104415 0.00142121 0.00185627 0.00237471 0.00300187 0.00373776 0.00458237 0.00553572 0.00659779 0.0077686 0.00904813 0.0104064 0.0118133 0.0132689 0.0147733 0.0163263 0.017928 0.0195784 0.0212776 0.0229927 0.0246913 0.0263734 0.0280388 0.0296877 0.03132 0.0329357 0.0345349 0.0361019 0.0376213 0.0390929 0.0405169 0.0418931 0.0432217 0.0445026 0.0457358 0.0469228 0.048065 0.0491625 0.0502153 0.0512234 0.0521867 0.0531053 0.0539792 0.0548177 0.0556305 0.0564174 0.0571786 0.0579139 0.0586234 0.059307 0.0599649 0.0606018 0.0612225 0.0618272 0.0624158 0.0629883 0.0635447 0.064085 0.0646092 0.0651094 0.0655777 0.0660141 0.0664186 0.0667913 0.0671321 0.067441 0.067718 0.0679446 0.0681024 0.0681914 0.0682116 0.0681629 0.0680454 0.0678591 0.067604 0.0672629 0.0668187 0.0662714 0.0656211 0.0648677 0.0640112 0.0630516 0.061989 0.0608222 0.0595504 0.0581734 0.0566913 0.055104 0.0534117 0.0516142 0.0497116 0.0477284 0.0456893 0.0435941 0.041443 0.0392358 0.0369727 0.0346535 0.0322784 0.0298979 0.0275628 0.0252731 0.0230288 0.0208299 0.0186763 0.0165681 0.0145053 0.012543 0.0107367 0.00908629 0.00759174 0.00625307 0.00507028 0.00404337 0.00317234 0.00242882 0.00178444 0.0012392 0.000793085 0.00044611 0.000198271 4.95678e-05 0 0 3.50104e-05 0.000140041 0.000315093 0.000560166 0.000875259 0.00126037 0.00171551 0.00224066 0.00286438 0.0036152 0.00449311 0.00549812 0.00663024 0.00788945 0.00927577 0.0107892 0.0123944 0.0140561 0.0157742 0.0175488 0.0193799 0.0212675 0.0232115 0.025212 0.0272311 0.0292309 0.0312115 0.0331728 0.0351148 0.0370375 0.038941 0.0408252 0.0426719 0.0444626 0.0461975 0.0478766 0.0494998 0.0510671 0.0525786 0.0540342 0.0554355 0.0567837 0.0580791 0.0593215 0.060511 0.0616475 0.0627311 0.0637618 0.0647504 0.0657076 0.0666336 0.0675283 0.0683917 0.0692237 0.0700245 0.070794 0.0715378 0.0722616 0.0729652 0.0736489 0.0743124 0.0749559 0.0755793 0.0761827 0.0767569 0.077293 0.0777909 0.0782505 0.078672 0.0790553 0.0794004 0.0797073 0.0799547 0.0801215 0.0802076 0.080213 0.0801377 0.0799817 0.079745 0.0794276 0.0790099 0.0784722 0.0778146 0.0770371 0.0761396 0.0751222 0.0739848 0.0727275 0.0713492 0.0698492 0.0682274 0.0664837 0.0646183 0.062631 0.0605219 0.058291 0.0559669 0.0535782 0.051125 0.0486072 0.0460249 0.043378 0.0406666 0.0378906 0.0351085 0.0323788 0.0297015 0.0270765 0.0245039 0.0219837 0.0195158 0.0171003 0.0148014 0.0126833 0.010746 0.00898952 0.00741382 0.00601893 0.00480484 0.00377155 0.00288759 0.0021215 0.00147326 0.000942887 0.000530374 0.000235722 5.89304e-05 0 0 4.16935e-05 0.000166774 0.000375242 0.000667096 0.00104234 0.00150097 0.00204298 0.00266839 0.00340898 0.00429658 0.00533118 0.00651278 0.00784138 0.00931698 0.0109396 0.0127092 0.0145847 0.016525 0.0185302 0.0206002 0.022735 0.0249346 0.0271991 0.0295284 0.031879 0.0342074 0.0365137 0.0387978 0.0410596 0.0432994 0.0455169 0.0477122 0.0498641 0.0519513 0.0539738 0.0559315 0.0578245 0.0596528 0.0614163 0.0631151 0.0647506 0.0663242 0.0678358 0.0692855 0.0706733 0.0719992 0.0732631 0.0744652 0.0756175 0.0767324 0.07781 0.0788501 0.0798528 0.0808182 0.0817461 0.0826366 0.0834961 0.0843311 0.0851415 0.0859274 0.0866887 0.0874254 0.0881376 0.0888253 0.089478 0.0900856 0.0906481 0.0911653 0.0916374 0.0920644 0.0924461 0.0927827 0.0930499 0.0932235 0.0933036 0.0932901 0.0931829 0.0929822 0.092688 0.0923001 0.0917964 0.0911545 0.0903745 0.0894564 0.0884002 0.0872058 0.0858733 0.0844026 0.082793 0.0810437 0.0791547 0.0771259 0.0749574 0.0726492 0.0702013 0.0676136 0.0649193 0.0621512 0.0593095 0.0563941 0.053405 0.0503422 0.0472058 0.0439956 0.0407786 0.0376213 0.0345239 0.0314864 0.0285087 0.0255908 0.0227328 0.0199346 0.0172701 0.0148132 0.0125639 0.0105221 0.00868792 0.0070613 0.00564225 0.00443077 0.00339231 0.00249231 0.00173077 0.00110769 0.000623077 0.000276923 6.92308e-05 0 0 4.90537e-05 0.000196215 0.000441484 0.00078486 0.00122634 0.00176593 0.00240363 0.00313944 0.00400851 0.00504602 0.00625196 0.00762634 0.00916914 0.0108804 0.01276 0.0148082 0.0169773 0.0192203 0.021537 0.0239274 0.0263916 0.0289296 0.0315413 0.0342268 0.0369364 0.0396208 0.0422799 0.0449137 0.0475222 0.0501054 0.0526634 0.055196 0.0576788 0.0600873 0.0624216 0.0646815 0.0668672 0.0689786 0.0710157 0.0729785 0.0748683 0.0766864 0.0784327 0.0801074 0.0817104 0.0832417 0.0847013 0.0860892 0.0874191 0.0887049 0.0899466 0.0911441 0.0922974 0.0934066 0.0944717 0.0954926 0.0964766 0.0974311 0.098356 0.0992513 0.100117 0.100953 0.10176 0.102537 0.103273 0.103956 0.104586 0.105163 0.105688 0.106159 0.106578 0.106944 0.10723 0.107409 0.107479 0.107443 0.107299 0.107047 0.106688 0.106221 0.105622 0.104866 0.103951 0.102879 0.101649 0.100262 0.098717 0.0970144 0.0951536 0.0931339 0.0909553 0.0886179 0.0861216 0.0834665 0.0806525 0.0776796 0.0745857 0.0714083 0.0681476 0.0648035 0.0613761 0.0578652 0.054271 0.0505934 0.046908 0.0432903 0.0397405 0.0362584 0.0328442 0.0294977 0.026219 0.0230081 0.0199492 0.0171264 0.0145399 0.0121895 0.0100754 0.00819738 0.0065556 0.00515 0.00394297 0.00289688 0.00201172 0.0012875 0.000724219 0.000321875 8.04688e-05 0 0 5.69904e-05 0.000227961 0.000512913 0.000911846 0.00142476 0.00205165 0.00279253 0.00364738 0.00465479 0.0058533 0.00724293 0.00882368 0.0105955 0.0125585 0.0147126 0.0170578 0.0195401 0.0221055 0.0247539 0.0274854 0.0303 0.0331976 0.0361783 0.0392421 0.0423331 0.0453955 0.0484293 0.0514345 0.054411 0.0573589 0.0602782 0.0631689 0.066003 0.0687527 0.0714179 0.0739986 0.0764949 0.0789067 0.0812341 0.0834769 0.0856365 0.0877138 0.0897089 0.0916217 0.0934524 0.0952008 0.096867 0.098451 0.0999681 0.101434 0.102848 0.10421 0.105521 0.10678 0.107988 0.109144 0.110257 0.111334 0.112377 0.113384 0.114356 0.115293 0.116195 0.117062 0.11788 0.118638 0.119334 0.11997 0.120544 0.121058 0.12151 0.121902 0.122201 0.122379 0.122435 0.122368 0.12218 0.121869 0.121437 0.120882 0.120178 0.119295 0.118235 0.116996 0.11558 0.113986 0.112215 0.110265 0.108137 0.10583 0.103345 0.100682 0.0978393 0.0948184 0.0916189 0.0882409 0.0847269 0.0811196 0.077419 0.0736251 0.0697379 0.0657574 0.0616836 0.0575166 0.0533408 0.0492412 0.0452176 0.04127 0.0373984 0.033603 0.0298835 0.0262401 0.0227678 0.0195614 0.016621 0.0139467 0.0115383 0.009396 0.00751966 0.00590932 0.00452433 0.00332399 0.00230833 0.00147733 0.000830999 0.000369333 9.23332e-05 0 0 6.54028e-05 0.000261611 0.000588625 0.00104645 0.00163507 0.0023545 0.00320474 0.00418578 0.00533961 0.00670821 0.00829157 0.0100897 0.0121026 0.0143303 0.0167727 0.0194299 0.0222408 0.0251442 0.0281403 0.031229 0.0344102 0.0376841 0.0410505 0.0445096 0.0479988 0.0514559 0.0548809 0.0582737 0.0616344 0.0649629 0.0682592 0.0715234 0.074724 0.0778293 0.0808396 0.0837546 0.0865745 0.0892992 0.0919288 0.0944632 0.0969033 0.09925 0.101503 0.103663 0.105729 0.107702 0.109582 0.111368 0.113077 0.114727 0.116317 0.117848 0.119318 0.120729 0.122081 0.123372 0.124614 0.125814 0.126972 0.128089 0.129165 0.1302 0.131193 0.132145 0.133041 0.133868 0.134625 0.135312 0.13593 0.136478 0.136956 0.137364 0.13767 0.137838 0.13787 0.137764 0.137522 0.137142 0.136626 0.135973 0.135152 0.134133 0.132916 0.1315 0.129886 0.128074 0.126064 0.123856 0.121449 0.118844 0.116041 0.113039 0.109839 0.106441 0.102844 0.0990492 0.0951037 0.091055 0.0869032 0.0826484 0.0782904 0.0738293 0.0692652 0.0645979 0.0599213 0.0553292 0.0508215 0.0463983 0.0420595 0.0378053 0.0336354 0.0295501 0.0256552 0.0220566 0.0187544 0.0157485 0.0130391 0.0106259 0.00850919 0.00668881 0.00512112 0.00376245 0.00261281 0.0016722 0.000940613 0.00041805 0.000104513 0 0 7.42911e-05 0.000297165 0.00066862 0.00118866 0.00185728 0.00267448 0.00364027 0.00475463 0.00606299 0.00761073 0.00939786 0.0114244 0.0136903 0.0161956 0.0189403 0.0219244 0.0250793 0.0283366 0.0316962 0.0351581 0.0387224 0.0423889 0.0461578 0.050029 0.0539335 0.057802 0.0616347 0.0654315 0.0691923 0.0729173 0.0766064 0.0802596 0.0838416 0.0873173 0.0906866 0.0939495 0.097106 0.100156 0.1031 0.105937 0.108669 0.111295 0.113816 0.116231 0.118541 0.120746 0.122846 0.12484 0.126747 0.128585 0.130355 0.132057 0.13369 0.135255 0.136751 0.138178 0.139548 0.140869 0.142142 0.143367 0.144544 0.145672 0.146753 0.147786 0.148755 0.149645 0.150457 0.151189 0.151843 0.152419 0.152915 0.153333 0.153635 0.153785 0.153784 0.15363 0.153324 0.152865 0.152255 0.151493 0.150545 0.149379 0.147994 0.14639 0.144567 0.142526 0.140266 0.137787 0.13509 0.132174 0.129041 0.12569 0.122121 0.118333 0.114328 0.110105 0.105716 0.101215 0.0966004 0.0918733 0.0870335 0.0820809 0.0770155 0.0718373 0.0666493 0.0615543 0.0565523 0.0516433 0.0468274 0.0421046 0.0374748 0.032938 0.0286113 0.024612 0.0209399 0.0175951 0.0145775 0.0118872 0.00952419 0.00748845 0.00573334 0.00421225 0.00292517 0.00187211 0.00105306 0.000468028 0.000117007 0 0 8.36553e-05 0.000334621 0.000752897 0.00133848 0.00209138 0.00301159 0.00409911 0.00535394 0.00682491 0.00856087 0.0105618 0.0128277 0.0153587 0.0181546 0.0212154 0.0245413 0.0280558 0.0316825 0.0354216 0.0392728 0.0432364 0.0473122 0.0515003 0.0558006 0.0601371 0.0644338 0.0686907 0.0729077 0.0770849 0.0812222 0.0853197 0.0893774 0.093356 0.0972166 0.100959 0.104583 0.108089 0.111478 0.114747 0.117899 0.120933 0.123849 0.126647 0.129327 0.131888 0.134332 0.136658 0.138866 0.140976 0.143008 0.144962 0.146838 0.148636 0.150356 0.151997 0.153561 0.155058 0.1565 0.157886 0.159217 0.160492 0.161711 0.162876 0.163984 0.165021 0.16597 0.16683 0.167602 0.168286 0.168881 0.169388 0.169807 0.170098 0.170221 0.170177 0.169965 0.169586 0.169039 0.168325 0.167443 0.166358 0.165033 0.163469 0.161666 0.159623 0.157341 0.154819 0.152058 0.149059 0.145822 0.142347 0.138634 0.134684 0.130496 0.126071 0.121407 0.116564 0.111598 0.10651 0.1013 0.0959672 0.0905121 0.0849347 0.0792349 0.0735248 0.0679165 0.06241 0.0570052 0.0517022 0.0465009 0.0414015 0.0364038 0.0316363 0.0272276 0.0231776 0.0194863 0.0161537 0.0131798 0.0105647 0.00830825 0.006361 0.00467339 0.00324541 0.00207706 0.00116835 0.000519266 0.000129816 0 0 9.34952e-05 0.000373981 0.000841457 0.00149592 0.00233738 0.00336583 0.00458127 0.0059837 0.00762539 0.00955864 0.0117834 0.0142998 0.0171077 0.0202071 0.0235981 0.0272807 0.0311702 0.0351821 0.0393164 0.0435732 0.0479523 0.0524539 0.0570778 0.0618242 0.0666098 0.0713514 0.0760489 0.0807025 0.0853121 0.0898776 0.0943992 0.0988768 0.103267 0.107527 0.111657 0.115656 0.119525 0.123263 0.126871 0.130349 0.133696 0.136911 0.139996 0.142949 0.14577 0.148461 0.15102 0.153448 0.155766 0.157996 0.160137 0.162191 0.164156 0.166033 0.167821 0.169521 0.171146 0.172707 0.174204 0.175639 0.177009 0.178317 0.179561 0.180741 0.181841 0.182842 0.183745 0.18455 0.185257 0.185865 0.186375 0.186786 0.187057 0.187145 0.187049 0.186771 0.186309 0.185663 0.184835 0.183823 0.18259 0.181096 0.179342 0.177328 0.175054 0.17252 0.169725 0.166671 0.163357 0.159786 0.155958 0.151873 0.14753 0.14293 0.138072 0.132957 0.127648 0.122206 0.116633 0.110928 0.105092 0.0991231 0.0930227 0.0867906 0.0805479 0.0744159 0.0683945 0.0624838 0.0566838 0.0509943 0.0454156 0.0399475 0.0347301 0.0299034 0.0254674 0.0214221 0.0177676 0.0145037 0.0116306 0.00914821 0.0070041 0.00514587 0.00357352 0.00228705 0.00128647 0.000571763 0.000142941 0 0 0.000103811 0.000415244 0.000934299 0.00166098 0.00259528 0.0037372 0.00508674 0.00664391 0.00846443 0.010604 0.0130627 0.0158405 0.0189373 0.0223533 0.0260883 0.0301424 0.0344225 0.0388352 0.0433808 0.0480591 0.0528702 0.057814 0.0628906 0.0680999 0.0733514 0.0785546 0.0837094 0.0888158 0.0938739 0.0988836 0.103845 0.108758 0.113575 0.118249 0.12278 0.127168 0.131412 0.135513 0.139472 0.143287 0.146957 0.150483 0.153863 0.157098 0.160188 0.163132 0.165931 0.168585 0.171116 0.173548 0.175881 0.178115 0.18025 0.182285 0.184222 0.186059 0.18781 0.18949 0.191097 0.192633 0.194097 0.195488 0.196808 0.198056 0.199213 0.200262 0.201202 0.202033 0.202756 0.20337 0.203875 0.204271 0.204514 0.204557 0.204401 0.204046 0.203492 0.202738 0.201785 0.200633 0.19924 0.197567 0.195612 0.193377 0.19086 0.188062 0.184983 0.181623 0.177984 0.174068 0.169875 0.165405 0.160658 0.155633 0.150332 0.144754 0.138967 0.133038 0.126969 0.120758 0.114407 0.107914 0.10128 0.0945045 0.0877186 0.0810524 0.074506 0.0680792 0.0617721 0.0555848 0.0495171 0.0435691 0.0378926 0.0326394 0.0278094 0.0234027 0.0194192 0.015859 0.012722 0.0100083 0.00766263 0.00562969 0.0039095 0.00250208 0.00140742 0.000625521 0.00015638 0 0 0.000114603 0.000458411 0.00103142 0.00183364 0.00286507 0.0041257 0.00561553 0.00733457 0.00934201 0.011697 0.0143997 0.0174499 0.0208477 0.0245931 0.028686 0.0331266 0.0378126 0.042642 0.0476146 0.0527306 0.0579899 0.0633925 0.0689384 0.0746276 0.080362 0.0860435 0.091672 0.0972476 0.10277 0.10824 0.113657 0.119021 0.12428 0.129382 0.134328 0.139118 0.143751 0.148228 0.152548 0.156712 0.160718 0.164563 0.168249 0.171774 0.17514 0.178345 0.181391 0.184276 0.187026 0.189665 0.192194 0.194611 0.196918 0.199114 0.201199 0.2031