<?xml version="1.0"?> 
<VTKFile type="StructuredGrid" version="0.1"> 
<StructuredGrid WholeExtent="0 128 0 128 0 0"> 
<Piece Extent="0 128 0 128 0 0"> 
<PointData>
<DataArray type="Float32" Name="u" format="ascii" NumberOfComponents="1"> 
0 0 0 0 0 0 0 0 0 0 0 0 0 0 0 0 0 0 0 0 0 0 0 0 0 0 0 0 0 0 0 0 0 0 0 0 0 0 0 0 0 0 0 0 0 0 0 0 0 0 0 0 0 0 0 0 0 0 0 0 0 0 0 0 0 0 0 0 0 0 0 0 0 0 0 0 0 0 0 0 0 0 0 0 0 0 0 0 0 0 0 0 0 0 0 0 0 0 0 0 0 0 0 0 0 0 0 0 0 0 0 0 0 0 0 0 0 0 0 0 0 0 0 0 0 0 0 0 0 0 2.08603e-07 8.34411e-07 1.87742e-06 3.33764e-06 5.21507e-06 7.5097e-06 1.02215e-05 1.33506e-05 1.72068e-05 2.21003e-05 2.80309e-05 3.49987e-05 4.30038e-05 5.2046e-05 6.21254e-05 7.3242e-05 8.49859e-05 9.6947e-05 0.000109125 0.000121521 0.000134134 0.000146964 0.000160011 0.000173276 0.000186219 0.000198302 0.000209524 0.000219887 0.000229389 0.000238031 0.000245812 0.000252734 0.000258635 0.000263355 0.000266895 0.000269255 0.000270434 0.000270432 0.00026925 0.000266888 0.000263722 0.000260131 0.000256113 0.00025167 0.000246801 0.000241507 0.000235786 0.000229639 0.000223738 0.000218755 0.000214688 0.000211538 0.000209306 0.000207991 0.000207592 0.000208111 0.00020997 0.00021359 0.000218972 0.000226116 0.000235022 0.00024569 0.000258119 0.000272311 0.000288011 0.000304968 0.000323182 0.000342651 0.000363377 0.000385359 0.000408597 0.000433092 0.000457993 0.00048245 0.000506463 0.000530033 0.000553158 0.00057584 0.000598078 0.000619872 0.000640342 0.000658609 0.000674671 0.00068853 0.000700185 0.000709637 0.000716884 0.000721928 0.000724474 0.000724229 0.000721192 0.000715364 0.000706744 0.000695333 0.000681131 0.000664137 0.000644851 0.000623773 0.000600903 0.00057624 0.000549785 0.000521538 0.000491499 0.000459667 0.00042711 0.000394893 0.000363017 0.000331481 0.000300287 0.000269432 0.000238919 0.000208746 0.000179925 0.000153468 0.000129375 0.000107645 8.82801e-05 7.12787e-05 5.6641e-05 4.43673e-05 3.39687e-05 2.49566e-05 1.7331e-05 1.10918e-05 6.23915e-06 2.77296e-06 6.93239e-07 0 0 8.34411e-07 3.33764e-06 7.5097e-06 1.33506e-05 2.08603e-05 3.00388e-05 4.08861e-05 5.34023e-05 6.88273e-05 8.8401e-05 0.000112124 0.000139995 0.000172015 0.000208184 0.000248502 0.000292968 0.000339944 0.000387788 0.000436501 0.000486084 0.000536535 0.000587855 0.000640045 0.000693103 0.000744875 0.000793207 0.000838097 0.000879547 0.000917555 0.000952123 0.000983249 0.00101093 0.00103454 0.00105342 0.00106758 0.00107702 0.00108174 0.00108173 0.001077 0.00106755 0.00105489 0.00104052 0.00102445 0.00100668 0.000987205 0.000966026 0.000943143 0.000918557 0.000894954 0.000875019 0.000858752 0.000846154 0.000837224 0.000831963 0.00083037 0.000832445 0.000839878 0.000854359 0.000875888 0.000904464 0.000940087 0.000982758 0.00103248 0.00108924 0.00115205 0.00121987 0.00129273 0.0013706 0.00145351 0.00154144 0.00163439 0.00173237 0.00183197 0.0019298 0.00202585 0.00212013 0.00221263 0.00230336 0.00239231 0.00247949 0.00256137 0.00263443 0.00269869 0.00275412 0.00280074 0.00283855 0.00286754 0.00288771 0.0028979 0.00289692 0.00288477 0.00286146 0.00282698 0.00278133 0.00272452 0.00265655 0.0025794 0.00249509 0.00240361 0.00230496 0.00219914 0.00208615 0.001966 0.00183867 0.00170844 0.00157957 0.00145207 0.00132593 0.00120115 0.00107773 0.000955674 0.000834982 0.000719699 0.000613871 0.000517499 0.000430582 0.000353121 0.000285115 0.000226564 0.000177469 0.000135875 9.98264e-05 6.93239e-05 4.43673e-05 2.49566e-05 1.10918e-05 2.77296e-06 0 0 1.87742e-06 7.5097e-06 1.68968e-05 3.00388e-05 4.69356e-05 6.75873e-05 9.19938e-05 0.000120155 0.000154861 0.000198902 0.000252278 0.000314989 0.000387034 0.000468414 0.000559129 0.000659178 0.000764873 0.000872523 0.000982128 0.00109369 0.0012072 0.00132267 0.0014401 0.00155948 0.00167597 0.00178472 0.00188572 0.00197898 0.0020645 0.00214228 0.00221231 0.0022746 0.00232771 0.0023702 0.00240206 0.00242329 0.0024339 0.00243389 0.00242325 0.00240199 0.0023735 0.00234118 0.00230502 0.00226503 0.00222121 0.00217356 0.00212207 0.00206675 0.00201365 0.00196879 0.00193219 0.00190385 0.00188375 0.00187192 0.00186833 0.001873 0.00188973 0.00192231 0.00197075 0.00203504 0.0021152 0.00221121 0.00232307 0.0024508 0.0025921 0.00274472 0.00290863 0.00308386 0.00327039 0.00346823 0.00367738 0.00389783 0.00412194 0.00434205 0.00455817 0.0047703 0.00497843 0.00518256 0.0053827 0.00557885 0.00576308 0.00592748 0.00607204 0.00619677 0.00630167 0.00638673 0.00645196 0.00649735 0.00652027 0.00651806 0.00649073 0.00643828 0.0063607 0.006258 0.00613018 0.00597723 0.00580366 0.00561396 0.00540812 0.00518616 0.00494807 0.00469384 0.00442349 0.00413701 0.00384399 0.00355404 0.00326715 0.00298333 0.00270258 0.00242489 0.00215027 0.00187871 0.00161932 0.00138121 0.00116437 0.000968809 0.000794521 0.000641508 0.000509769 0.000399306 0.000305718 0.000224609 0.000155979 9.98264e-05 5.61524e-05 2.49566e-05 6.23915e-06 0 0 3.33764e-06 1.33506e-05 3.00388e-05 5.34023e-05 8.34411e-05 0.000120155 0.000163545 0.000213609 0.000275309 0.000353604 0.000448494 0.00055998 0.00068806 0.000832736 0.000994007 0.00117187 0.00135977 0.00155115 0.00174601 0.00194433 0.00214614 0.00235142 0.00256018 0.00277241 0.0029795 0.00317283 0.00335239 0.00351819 0.00367022 0.00380849 0.003933 0.00404374 0.00413816 0.00421368 0.00427032 0.00430808 0.00432694 0.00432692 0.00430801 0.00427021 0.00421956 0.00416209 0.00409782 0.00402673 0.00394882 0.0038641 0.00377257 0.00367423 0.00357982 0.00350008 0.00343501 0.00338462 0.0033489 0.00332785 0.00332148 0.00332978 0.00335951 0.00341744 0.00350355 0.00361785 0.00376035 0.00393103 0.00412991 0.00435697 0.00460818 0.00487949 0.00517091 0.00548242 0.00581403 0.00616575 0.00653756 0.00692948 0.00732789 0.0077192 0.00810342 0.00848053 0.00885053 0.00921344 0.00956925 0.00991795 0.0102455 0.0105377 0.0107947 0.0110165 0.011203 0.0113542 0.0114701 0.0115508 0.0115916 0.0115877 0.0115391 0.0114458 0.0113079 0.0111253 0.0108981 0.0106262 0.0103176 0.00998037 0.00961444 0.00921984 0.00879657 0.00834461 0.00786398 0.00735468 0.00683376 0.00631829 0.00580827 0.0053037 0.00480458 0.00431092 0.0038227 0.00333993 0.0028788 0.00245548 0.00207 0.00172233 0.00141248 0.00114046 0.000906257 0.000709877 0.000543499 0.000399306 0.000277296 0.000177469 9.98264e-05 4.43673e-05 1.10918e-05 0 0 5.21507e-06 2.08603e-05 4.69356e-05 8.34411e-05 0.000130377 0.000187742 0.000255538 0.000333764 0.00043017 0.000552506 0.000700772 0.000874968 0.00107509 0.00130115 0.00155314 0.00183105 0.00212465 0.00242367 0.00272813 0.00303802 0.00335334 0.0036741 0.00400028 0.00433189 0.00465547 0.00495754 0.00523811 0.00549717 0.00573472 0.00595077 0.00614531 0.00631834 0.00646587 0.00658388 0.00667238 0.00673137 0.00676084 0.00676081 0.00673126 0.0066722 0.00659306 0.00650327 0.00640284 0.00629176 0.00617003 0.00603766 0.00589465 0.00574098 0.00559346 0.00546887 0.0053672 0.00528846 0.00523265 0.00519977 0.00518981 0.00520278 0.00524924 0.00533975 0.0054743 0.0056529 0.00587555 0.00614224 0.00645298 0.00680777 0.00720029 0.00762421 0.00807954 0.00856628 0.00908442 0.00963398 0.0102149 0.0108273 0.0114498 0.0120613 0.0126616 0.0132508 0.013829 0.014396 0.0149519 0.0154968 0.0160086 0.0164652 0.0168668 0.0172133 0.0175046 0.0177409 0.0179221 0.0180482 0.0181119 0.0181057 0.0180298 0.0178841 0.0176686 0.0173833 0.0170283 0.0166034 0.0161213 0.0155943 0.0150226 0.014406 0.0137446 0.0130385 0.0122875 0.0114917 0.0106777 0.00987233 0.00907542 0.00828704 0.00750716 0.00673581 0.00597296 0.00521864 0.00449812 0.00383669 0.00323437 0.00269114 0.002207 0.00178197 0.00141603 0.00110918 0.000849218 0.000623915 0.000433274 0.000277296 0.000155979 6.93239e-05 1.7331e-05 0 0 7.5097e-06 3.00388e-05 6.75873e-05 0.000120155 0.000187742 0.000270349 0.000367975 0.000480621 0.000619445 0.000795609 0.00100911 0.00125995 0.00154814 0.00187366 0.00223651 0.00263671 0.00305949 0.00349009 0.00392851 0.00437475 0.00482881 0.0052907 0.0057604 0.00623793 0.00670388 0.00713886 0.00754287 0.00791592 0.008258 0.0085691 0.00884924 0.00909841 0.00931085 0.00948079 0.00960823 0.00969317 0.00973562 0.00973556 0.00969301 0.00960796 0.009494 0.00936471 0.00922008 0.00906013 0.00888485 0.00869423 0.00848829 0.00826702 0.00805458 0.00787517 0.00772877 0.00761538 0.00753502 0.00748766 0.00747333 0.007492 0.0075589 0.00768923 0.00788299 0.00814017 0.00846079 0.00884483 0.00929229 0.00980319 0.0103684 0.0109789 0.0116345 0.0123354 0.0130816 0.0138729 0.0147095 0.0155913 0.0164878 0.0173682 0.0182327 0.0190812 0.0199137 0.0207302 0.0215308 0.0223154 0.0230523 0.0237099 0.0242882 0.0247871 0.0252067 0.0255469 0.0258078 0.0259894 0.0260811 0.0260722 0.0259629 0.0257531 0.0254428 0.025032 0.0245207 0.0239089 0.0232146 0.0224558 0.0216325 0.0207446 0.0197923 0.0187754 0.017694 0.016548 0.015376 0.0142162 0.0130686 0.0119333 0.0108103 0.00969956 0.00860107 0.00751484 0.00647729 0.00552484 0.00465749 0.00387524 0.00317809 0.00256603 0.00203908 0.00159722 0.00122287 0.000898438 0.000623915 0.000399306 0.000224609 9.98264e-05 2.49566e-05 0 0 1.02215e-05 4.08861e-05 9.19938e-05 0.000163545 0.000255538 0.000367975 0.000500855 0.000654178 0.000843134 0.00108291 0.00137351 0.00171494 0.00210718 0.00255025 0.00304415 0.00358886 0.00416431 0.0047504 0.00534714 0.00595452 0.00657255 0.00720123 0.00784055 0.00849051 0.00912472 0.00971678 0.0102667 0.0107744 0.0112401 0.0116635 0.0120448 0.012384 0.0126731 0.0129044 0.0130779 0.0131935 0.0132513 0.0132512 0.0131933 0.0130775 0.0129224 0.0127464 0.0125496 0.0123318 0.0120933 0.0118338 0.0115535 0.0112523 0.0109632 0.010719 0.0105197 0.0103654 0.010256 0.0101915 0.010172 0.0101975 0.0102885 0.0104659 0.0107296 0.0110797 0.0115161 0.0120388 0.0126478 0.0133432 0.0141126 0.0149435 0.0158359 0.0167899 0.0178055 0.0188826 0.0200213 0.0212215 0.0224417 0.0236401 0.0248167 0.0259716 0.0271048 0.0282162 0.0293058 0.0303737 0.0313768 0.0322718 0.0330589 0.033738 0.0343091 0.0347722 0.0351273 0.0353745 0.0354992 0.0354872 0.0353384 0.0350528 0.0346305 0.0340713 0.0333754 0.0325427 0.0315977 0.0305649 0.0294442 0.0282358 0.0269395 0.0255554 0.0240834 0.0225237 0.0209284 0.0193498 0.0177878 0.0162426 0.014714 0.0132022 0.011707 0.0102285 0.00881631 0.00751992 0.00633936 0.00527463 0.00432573 0.00349265 0.00277541 0.002174 0.00166447 0.00122287 0.000849218 0.000543499 0.000305718 0.000135875 3.39687e-05 0 0 1.33506e-05 5.34023e-05 0.000120155 0.000213609 0.000333764 0.000480621 0.000654178 0.000854437 0.00110124 0.00141442 0.00179398 0.00223992 0.00275224 0.00333094 0.00397603 0.00468749 0.0054391 0.00620461 0.00698402 0.00777734 0.00858456 0.00940569 0.0102407 0.0110896 0.011918 0.0126913 0.0134096 0.0140727 0.0146809 0.015234 0.015732 0.016175 0.0165526 0.0168547 0.0170813 0.0172323 0.0173078 0.0173077 0.017232 0.0170808 0.0168782 0.0166484 0.0163913 0.0161069 0.0157953 0.0154564 0.0150903 0.0146969 0.0143193 0.0140003 0.01374 0.0135385 0.0133956 0.0133114 0.0132859 0.0133191 0.0134381 0.0136697 0.0140142 0.0144714 0.0150414 0.0157241 0.0165196 0.0174279 0.0184327 0.019518 0.0206836 0.0219297 0.0232561 0.024663 0.0261502 0.0277179 0.0293116 0.0308768 0.0324137 0.0339221 0.0354021 0.0368538 0.038277 0.0396718 0.0409819 0.042151 0.043179 0.0440659 0.0448119 0.0454167 0.0458806 0.0462034 0.0463663 0.0463507 0.0461563 0.0457833 0.0452316 0.0445013 0.0435924 0.0425048 0.0412705 0.0399215 0.0384578 0.0368794 0.0351863 0.0333784 0.0314559 0.0294187 0.027335 0.0252732 0.0232331 0.0212148 0.0192183 0.0172437 0.0152908 0.0133597 0.0115152 0.00982194 0.00827998 0.00688931 0.00564993 0.00456183 0.00362503 0.00283951 0.002174 0.00159722 0.00110918 0.000709877 0.000399306 0.000177469 4.43673e-05 0 0 1.74149e-05 6.96595e-05 0.000156734 0.000278638 0.000435372 0.000626936 0.000853329 0.00111455 0.00143541 0.00184069 0.0023304 0.00290454 0.00356312 0.00430612 0.00513355 0.00604541 0.00700816 0.00798825 0.00898568 0.0100005 0.0110326 0.012082 0.0131488 0.014233 0.0152908 0.0162785 0.0171963 0.018044 0.0188216 0.0195292 0.0201668 0.0207344 0.021219 0.0216075 0.0219 0.0220966 0.0221971 0.0222016 0.0221101 0.0219226 0.0216697 0.0213819 0.0210592 0.0207017 0.0203093 0.0198821 0.01942 0.018923 0.0184455 0.0180421 0.0177125 0.0174569 0.0172753 0.0171676 0.0171339 0.0171742 0.0173226 0.0176135 0.0180469 0.0186227 0.019341 0.0202017 0.0212049 0.0223506 0.0236183 0.0249877 0.0264588 0.0280315 0.0297058 0.0314818 0.0333595 0.0353389 0.0373511 0.0393274 0.0412679 0.0431725 0.0450412 0.046874 0.0486709 0.050432 0.0520859 0.0535615 0.0548588 0.0559776 0.0569182 0.0576803 0.0582641 0.0586696 0.0588729 0.0588501 0.0586013 0.0581264 0.0574255 0.0564985 0.0553455 0.0539664 0.0524017 0.0506917 0.0488363 0.0468356 0.0446896 0.0423983 0.0399617 0.0373797 0.0347387 0.0321247 0.0295379 0.0269782 0.0244455 0.02194 0.0194616 0.0170103 0.0146682 0.0125174 0.0105579 0.0087897 0.00721276 0.00582711 0.00463276 0.00362969 0.00277898 0.0020417 0.00141785 0.000907423 0.000510425 0.000226856 5.67139e-05 0 0 2.29325e-05 9.173e-05 0.000206392 0.00036692 0.000573312 0.00082557 0.00112369 0.00146768 0.00188729 0.00241229 0.00304268 0.00377846 0.00461962 0.00556617 0.00661811 0.00777544 0.00899581 0.0102369 0.0114987 0.0127811 0.0140843 0.0154082 0.0167528 0.0181181 0.01945 0.0206945 0.0218516 0.0229212 0.0239034 0.0247981 0.0256054 0.0263253 0.0269417 0.0274385 0.0278156 0.0280732 0.0282112 0.0282296 0.0281284 0.0279076 0.027605 0.0272583 0.0268676 0.0264327 0.0259538 0.0254309 0.0248638 0.0242527 0.0236647 0.0231672 0.02276 0.0224432 0.0222167 0.0220807 0.022035 0.0220797 0.0222572 0.0226099 0.0231378 0.0238408 0.024719 0.0257724 0.027001 0.0284048 0.0299588 0.031638 0.0334424 0.035372 0.0374269 0.0396069 0.0419122 0.0443428 0.0468138 0.0492408 0.0516237 0.0539625 0.0562572 0.0585077 0.0607142 0.0628766 0.064907 0.0667177 0.0683086 0.0696798 0.0708311 0.0717627 0.0724745 0.0729666 0.0732093 0.0731731 0.072858 0.072264 0.0713911 0.0702394 0.0688087 0.0670991 0.0651602 0.0630415 0.060743 0.0582646 0.0556065 0.0527686 0.0497509 0.0465534 0.043282 0.0400428 0.0368358 0.0336608 0.030518 0.0274073 0.0243288 0.0212824 0.0183698 0.015693 0.0132518 0.0110462 0.00907629 0.00734204 0.00584344 0.00458049 0.00350694 0.00257652 0.00178925 0.00114512 0.000644131 0.00028628 7.15701e-05 0 0 2.99034e-05 0.000119614 0.000269131 0.000478455 0.000747586 0.00107652 0.00146527 0.00191382 0.0024569 0.00312924 0.00393082 0.00486167 0.00592176 0.00711111 0.00842971 0.00987756 0.011402 0.0129505 0.014523 0.0161194 0.0177398 0.0193842 0.0210526 0.022745 0.0243958 0.0259393 0.0273755 0.0287045 0.0299262 0.0310406 0.0320478 0.0329477 0.0337208 0.0343476 0.0348281 0.0351623 0.0353501 0.0353917 0.0352869 0.0350359 0.0346842 0.0342776 0.0338162 0.0332999 0.0327288 0.0321028 0.0314219 0.0306861 0.0299769 0.0293757 0.0288824 0.0284971 0.0282198 0.0280505 0.0279892 0.0280358 0.0282419 0.0286589 0.0292869 0.0301258 0.0311755 0.0324363 0.0339079 0.0355905 0.037454 0.0394687 0.0416345 0.0439513 0.0464192 0.0490383 0.0518084 0.0547296 0.0576998 0.060617 0.0634811 0.0662922 0.0690501 0.071755 0.0744069 0.0770057 0.0794453 0.0816196 0.0835286 0.0851723 0.0865507 0.0876639 0.0885117 0.0890943 0.0893756 0.0893196 0.0889265 0.0881962 0.0871286 0.0857239 0.0839819 0.0819028 0.0795459 0.0769709 0.0741778 0.0711665 0.067937 0.0644894 0.0608236 0.0569397 0.0529652 0.0490275 0.0451267 0.0412628 0.0374357 0.0336455 0.0298922 0.0261758 0.02262 0.0193485 0.0163615 0.0136588 0.0112405 0.0091066 0.00725706 0.0056919 0.00435786 0.00320169 0.0022234 0.00142297 0.000800423 0.000355744 8.89359e-05 0 0 3.83277e-05 0.000153311 0.000344949 0.000613243 0.000958192 0.0013798 0.00187806 0.00245297 0.00314423 0.00399151 0.00499482 0.00615416 0.00746953 0.00894092 0.0105683 0.0123518 0.0142269 0.0161291 0.0180586 0.0200152 0.0219991 0.0240101 0.0260483 0.0281138 0.0301281 0.0320128 0.0337681 0.0353938 0.03689 0.0382567 0.0394938 0.0406015 0.0415563 0.0423349 0.0429374 0.0433637 0.0436139 0.0436878 0.0435856 0.0433073 0.0429072 0.0424398 0.0419052 0.0413033 0.0406342 0.0398978 0.0390941 0.0382232 0.037382 0.0366675 0.0360798 0.0356188 0.0352846 0.0350771 0.0349964 0.0350425 0.0352767 0.0357606 0.0364942 0.0374775 0.0387105 0.0401932 0.0419256 0.0439076 0.0461041 0.0484799 0.051035 0.0537693 0.0566829 0.0597758 0.063048 0.0664994 0.0700091 0.073456 0.0768401 0.0801615 0.0834201 0.0866159 0.0897489 0.0928192 0.0957006 0.0982671 0.100519 0.102455 0.104077 0.105384 0.106376 0.107053 0.107372 0.10729 0.106807 0.105923 0.104638 0.102952 0.100865 0.0983774 0.0955589 0.09248 0.0891407 0.0855411 0.081681 0.0775606 0.0731799 0.0685387 0.063788 0.0590787 0.0544107 0.049784 0.0451986 0.0406546 0.0361519 0.0316906 0.0274186 0.0234841 0.0198871 0.0166276 0.0137055 0.0111208 0.00887364 0.00696392 0.00533175 0.00391721 0.00272028 0.00174098 0.000979302 0.000435245 0.000108811 0 0 4.82053e-05 0.000192821 0.000433847 0.000771284 0.00120513 0.00173539 0.00236206 0.00308514 0.00394928 0.00499913 0.00623468 0.00765595 0.00926293 0.0110556 0.013034 0.0151981 0.0174702 0.0197727 0.0221055 0.0244686 0.026862 0.0292858 0.0317399 0.0342243 0.0366468 0.0389151 0.0410292 0.0429891 0.0447948 0.0464463 0.0479436 0.0492867 0.0504482 0.0514005 0.0521436 0.0526775 0.0530024 0.053118 0.0530245 0.0527219 0.052274 0.0517449 0.0511346 0.0504429 0.0496701 0.0488159 0.0478805 0.0468639 0.0458799 0.0450427 0.0443521 0.0438083 0.0434111 0.0431606 0.0430567 0.0430996 0.0433615 0.043915 0.0447598 0.0458962 0.047324 0.0490433 0.051054 0.0533562 0.0559091 0.0586717 0.061644 0.0648261 0.068218 0.0718196 0.075631 0.0796522 0.0837416 0.0877578 0.0917008 0.0955705 0.099367 0.10309 0.10674 0.110317 0.113673 0.11666 0.119279 0.121529 0.12341 0.124923 0.126067 0.126842 0.127198 0.127083 0.126499 0.125444 0.123919 0.121924 0.119459 0.116523 0.113199 0.109569 0.105632 0.101388 0.0968387 0.0919824 0.0868196 0.0813504 0.0757506 0.0701964 0.0646877 0.0592245 0.0538068 0.0484346 0.043108 0.0378268 0.0327658 0.0280998 0.0238286 0.0199524 0.0164711 0.0133847 0.0106932 0.00839656 0.00642862 0.00472307 0.00327991 0.00209914 0.00118077 0.000524785 0.000131196 0 0 5.95362e-05 0.000238145 0.000535825 0.000952579 0.0014884 0.0021433 0.00291727 0.00381031 0.00487204 0.00615207 0.0076504 0.00936703 0.011302 0.0134552 0.0158267 0.0184166 0.0211322 0.0238813 0.0266637 0.0294796 0.0323288 0.0352114 0.0381273 0.0410767 0.0439521 0.0466462 0.049159 0.0514905 0.0536407 0.0556096 0.0573972 0.0590034 0.0603964 0.0615441 0.0624466 0.0631038 0.0635157 0.0636823 0.0636036 0.0632797 0.0627847 0.0621929 0.0615042 0.0607187 0.0598364 0.0588572 0.0577811 0.0566083 0.0554709 0.0545013 0.0536994 0.0530654 0.0525992 0.0523008 0.0521701 0.0522073 0.0524965 0.0531219 0.0540836 0.0553816 0.0570159 0.0589864 0.0612933 0.0639363 0.0668688 0.0700439 0.0734615 0.0771217 0.0810244 0.0851697 0.0895575 0.0941879 0.0988974 0.103522 0.108063 0.112519 0.116891 0.121178 0.125381 0.1295 0.133363 0.136799 0.139809 0.142393 0.14455 0.14628 0.147584 0.148462 0.148854 0.148701 0.148003 0.14676 0.144972 0.14264 0.139762 0.13634 0.132467 0.128237 0.123651 0.118709 0.11341 0.107755 0.101743 0.0953747 0.088853 0.0823807 0.0759578 0.0695844 0.0632603 0.0569856 0.0507603 0.0445844 0.0386616 0.0331954 0.028186 0.0236334 0.0195374 0.0158982 0.0127156 0.00998981 0.00764845 0.00561927 0.00390227 0.00249745 0.00140482 0.000624363 0.000156091 0 0 7.23204e-05 0.000289281 0.000650883 0.00115713 0.00180801 0.00260353 0.0035437 0.0046285 0.00591253 0.00745035 0.00924198 0.0112874 0.0135866 0.0161396 0.0189465 0.0220071 0.0252128 0.0284549 0.0317333 0.0350481 0.0383992 0.0417868 0.0452106 0.0486709 0.0520439 0.0552061 0.0581574 0.0608979 0.0634276 0.0657464 0.0678544 0.0697516 0.0714011 0.072766 0.0738465 0.0746424 0.0751537 0.0753806 0.0753229 0.0749807 0.0744392 0.0737838 0.0730142 0.0721307 0.0711331 0.0700216 0.068796 0.0674563 0.0661547 0.0650432 0.0641217 0.0633903 0.062849 0.0624978 0.0623366 0.0623655 0.0626815 0.0633815 0.0644657 0.0659339 0.0677863 0.0700227 0.0726433 0.0756479 0.0789834 0.0825966 0.0864874 0.0906559 0.0951021 0.0998259 0.104827 0.110107 0.115476 0.12075 0.125927 0.131007 0.135992 0.14088 0.145671 0.150366 0.154769 0.158683 0.162109 0.165047 0.167496 0.169456 0.170929 0.171912 0.172339 0.172141 0.171318 0.16987 0.167797 0.165099 0.161776 0.157827 0.153361 0.148485 0.143198 0.137502 0.131395 0.124877 0.11795 0.110612 0.103095 0.0956316 0.088221 0.0808635 0.0735589 0.0663074 0.0591089 0.0519634 0.0451058 0.0387712 0.0329594 0.0276705 0.0229044 0.0186613 0.014941 0.0117437 0.00899126 0.00660582 0.00458738 0.00293592 0.00165146 0.00073398 0.000183495 0 0 8.65579e-05 0.000346232 0.000779021 0.00138493 0.00216395 0.00311608 0.00424134 0.00553971 0.00707073 0.00889397 0.0110094 0.0134171 0.0161169 0.019109 0.0223932 0.0259697 0.0297119 0.0334934 0.0373142 0.0411742 0.0450734 0.049012 0.0529898 0.0570069 0.0609222 0.0645947 0.0680245 0.0712114 0.0741555 0.0768569 0.0793154 0.0815312 0.0834621 0.0850661 0.0863432 0.0872933 0.0879166 0.088213 0.0881824 0.0878249 0.0872376 0.0865175 0.0856646 0.0846789 0.0835604 0.0823091 0.0809249 0.079408 0.0779315 0.0766685 0.075619 0.074783 0.0741605 0.0737516 0.0735561 0.0735742 0.0739165 0.0746938 0.075906 0.0775531 0.0796351 0.0821522 0.0851041 0.088491 0.0922529 0.0963298 0.100722 0.105429 0.110451 0.115788 0.121441 0.127408 0.133479 0.13944 0.145292 0.151035 0.15667 0.162195 0.167611 0.172918 0.177893 0.182314 0.18618 0.189492 0.192249 0.194452 0.1961 0.197194 0.197655 0.197406 0.196446 0.194775 0.192394 0.189302 0.185499 0.180986 0.175883 0.170313 0.164274 0.157767 0.150793 0.14335 0.13544 0.127061 0.118477 0.109949 0.101477 0.0930619 0.0847029 0.0764002 0.0681538 0.0599638 0.0520986 0.0448269 0.0381486 0.0320636 0.0265722 0.0216741 0.0173694 0.0136582 0.010457 0.00768272 0.00533522 0.00341454 0.00192068 0.000853635 0.000213409 0 0 0.000102262 0.000409047 0.000920356 0.00163619 0.00255655 0.00368143 0.00501083 0.00654476 0.00834757 0.0104836 0.012953 0.0157556 0.0188914 0.0223605 0.0261628 0.0302984 0.0346216 0.0389867 0.0433936 0.0478425 0.0523332 0.0568658 0.0614404 0.0660568 0.0705557 0.0747777 0.0787229 0.0823912 0.0857826 0.0888971 0.0917348 0.0942956 0.0965319 0.0983962 0.0998885 0.101009 0.101757 0.102133 0.102138 0.10177 0.101139 0.100356 0.0994185 0.0983279 0.0970839 0.0956866 0.0941359 0.0924318 0.0907695 0.0893441 0.0881557 0.0872043 0.0864898 0.0860123 0.0857718 0.0857682 0.0861267 0.0869723 0.0883052 0.0901253 0.0924325 0.0952269 0.0985086 0.102277 0.106467 0.11101 0.115907 0.121158 0.126763 0.132722 0.139035 0.145701 0.152484 0.159145 0.165684 0.172102 0.178397 0.184571 0.190623 0.196554 0.202112 0.207049 0.211362 0.215054 0.218124 0.220571 0.222395 0.223598 0.22409 0.223783 0.222677 0.220772 0.218068 0.214565 0.210263 0.205163 0.199398 0.193106 0.186286 0.178938 0.171062 0.162658 0.153726 0.144266 0.134571 0.124936 0.11536 0.105842 0.0963843 0.0869852 0.0776452 0.0683643 0.0594461 0.0511944 0.0436091 0.0366903 0.0304379 0.024852 0.0199324 0.0156794 0.0120045 0.00881965 0.00612476 0.00391984 0.00220491 0.000979961 0.00024499 0 0 0.000119445 0.000477781 0.00107501 0.00191112 0.00298613 0.00430003 0.00585282 0.00764449 0.00974396 0.0122201 0.0150729 0.0183024 0.0219086 0.0258915 0.030251 0.0349872 0.0399338 0.0449244 0.049959 0.0550377 0.0601603 0.0653271 0.0705378 0.0757926 0.080913 0.0857206 0.0902155 0.0943975 0.0982668 0.101823 0.105067 0.107998 0.110563 0.112708 0.114434 0.115741 0.116628 0.117096 0.117144 0.116773 0.116105 0.11526 0.114239 0.113042 0.11167 0.110121 0.108396 0.106496 0.104637 0.103037 0.101697 0.100615 0.0997931 0.0992302 0.0989266 0.0988821 0.0992369 0.100131 0.101564 0.103537 0.106048 0.109099 0.11269 0.116819 0.121415 0.126403 0.131786 0.137561 0.143729 0.150291 0.157246 0.164594 0.172072 0.179416 0.186627 0.193704 0.200647 0.207457 0.214133 0.220675 0.226806 0.232248 0.237 0.241062 0.244435 0.247119 0.249113 0.250417 0.250934 0.250563 0.249304 0.247159 0.244126 0.240207 0.235399 0.229705 0.223273 0.216252 0.208643 0.200445 0.191658 0.182283 0.172319 0.161767 0.150951 0.140196 0.129501 0.118868 0.108295 0.097784 0.0873334 0.0769437 0.0669546 0.0577055 0.0491966 0.0414277 0.034399 0.0281104 0.0225619 0.0177535 0.0135925 0.00998632 0.00693494 0.00443836 0.00249658 0.00110959 0.000277398 0 0 0.000138108 0.000552433 0.00124297 0.00220973 0.0034527 0.00497189 0.0067673 0.00883892 0.0112599 0.0141033 0.0173693 0.0210577 0.0251685 0.0297019 0.0346577 0.040036 0.0456484 0.0513065 0.0570103 0.0627597 0.0685548 0.0743957 0.0802822 0.0862144 0.0919941 0.0974234 0.102502 0.10723 0.111608 0.115636 0.119312 0.122639 0.125555 0.128002 0.129981 0.13149 0.13253 0.133101 0.133202 0.132835 0.132133 0.13123 0.130126 0.128822 0.127318 0.125613 0.123707 0.1216 0.119534 0.117747 0.116241 0.115016 0.11407 0.113405 0.113021 0.112916 0.113247 0.11417 0.115683 0.117787 0.120483 0.123769 0.127647 0.132116 0.137097 0.14251 0.148357 0.154637 0.16135 0.168496 0.176075 0.184087 0.192243 0.200255 0.208121 0.215843 0.22342 0.230852 0.23814 0.245282 0.251975 0.257911 0.263091 0.267515 0.271183 0.274096 0.276252 0.277652 0.278186 0.277745 0.276328 0.273936 0.270568 0.266225 0.260907 0.254613 0.247506 0.23975 0.231344 0.222288 0.212582 0.202226 0.19122 0.179565 0.167615 0.155728 0.143902 0.132138 0.120436 0.108796 0.0972183 0.085702 0.0746239 0.0643602 0.0549109 0.046276 0.0384555 0.0314494 0.0252577 0.0198804 0.0152209 0.0111827 0.00776578 0.0049701 0.00279568 0.00124252 0.000310631 0 0 0.00015825 0.000633002 0.00142425 0.00253201 0.00395626 0.00569702 0.00775427 0.010128 0.0128954 0.0161333 0.019842 0.0240213 0.0286712 0.0337918 0.039383 0.0454449 0.0517655 0.058133 0.0645474 0.0710086 0.0775167 0.0840716 0.0906734 0.0973221 0.103799 0.109886 0.115583 0.12089 0.125807 0.130334 0.134471 0.138217 0.141508 0.144278 0.146527 0.148255 0.149462 0.150147 0.150312 0.149955 0.149224 0.148266 0.147081 0.145668 0.144028 0.142161 0.140067 0.137745 0.13546 0.133475 0.13179 0.130406 0.129322 0.128537 0.128054 0.12787 0.128158 0.129088 0.130661 0.132877 0.135736 0.139237 0.143381 0.148168 0.153512 0.159331 0.165622 0.172387 0.179625 0.187337 0.195521 0.20418 0.212997 0.221659 0.230166 0.238518 0.246715 0.254757 0.262643 0.270375 0.277618 0.284038 0.289637 0.294414 0.298369 0.301501 0.303812 0.305301 0.305847 0.305329 0.303748 0.301103 0.297394 0.292622 0.286786 0.279886 0.272099 0.2636 0.25439 0.244467 0.233833 0.222487 0.210429 0.19766 0.184565 0.171533 0.158562 0.145654 0.132807 0.120023 0.1073 0.0946392 0.0824541 0.0711584 0.0607521 0.051235 0.0426073 0.0348689 0.0280199 0.0220602 0.0168898 0.0124089 0.00861726 0.00551504 0.00310221 0.00137876 0.00034469 0 0 0.000179872 0.000719489 0.00161885 0.00287796 0.00449681 0.0064754 0.00881375 0.0115118 0.0146504 0.0183101 0.0224911 0.0271932 0.0324166 0.0381611 0.0444269 0.0512138 0.0582852 0.065404 0.0725704 0.0797844 0.0870459 0.094355 0.101712 0.109116 0.116328 0.123109 0.129458 0.135376 0.140863 0.145918 0.150542 0.154734 0.158423 0.161536 0.164074 0.166037 0.167424 0.168236 0.168472 0.168133 0.167379 0.166368 0.165101 0.163579 0.161801 0.159766 0.157476 0.15493 0.152416 0.15022 0.148343 0.146786 0.145547 0.144627 0.144026 0.143744 0.143968 0.144887 0.146499 0.148806 0.151807 0.155502 0.159892 0.164975 0.170662 0.176864 0.18358 0.19081 0.198554 0.206813 0.215585 0.224872 0.234334 0.243631 0.252763 0.26173 0.270533 0.279171 0.287644 0.295952 0.303735 0.31063 0.316638 0.321758 0.325991 0.329336 0.331794 0.333365 0.333916 0.333316 0.331564 0.328659 0.324604 0.319396 0.313037 0.305526 0.297051 0.287803 0.27778 0.266983 0.255412 0.243066 0.229946 0.216051 0.2018 0.18761 0.173482 0.159414 0.145408 0.131462 0.117578 0.103755 0.0904453 0.0781002 0.0667201 0.0563048 0.0468545 0.038369 0.0308485 0.0242928 0.0185992 0.0136647 0.00948939 0.00607321 0.00341618 0.0015183 0.000379575 0 0 0.000202974 0.000811895 0.00182676 0.00324758 0.00507434 0.00730705 0.00994571 0.0129903 0.016525 0.0206337 0.0253166 0.0305736 0.0364047 0.04281 0.0497893 0.0573428 0.0652073 0.0731194 0.0810794 0.0890871 0.0971425 0.105246 0.113397 0.121595 0.129581 0.137091 0.144127 0.150689 0.156776 0.162388 0.167526 0.172189 0.176299 0.179776 0.182622 0.184836 0.186417 0.187367 0.187684 0.18737 0.186596 0.185536 0.184189 0.182555 0.180635 0.178429 0.175935 0.173156 0.170401 0.167982 0.1659 0.164155 0.162746 0.161673 0.160937 0.160538 0.160679 0.161565 0.163197 0.165575 0.168697 0.172565 0.177179 0.182537 0.188546 0.195111 0.202231 0.209907 0.218138 0.226925 0.236267 0.246165 0.256254 0.266169 0.27591 0.285479 0.294873 0.304094 0.313142 0.322016 0.330327 0.337686 0.344093 0.349547 0.35405 0.3576 0.360198 0.361845 0.362395 0.361705 0.359775 0.356606 0.352197 0.346548 0.339659 0.33153 0.322363 0.312358 0.301515 0.289835 0.277318 0.263962 0.24977 0.23474 0.21932 0.203961 0.18866 0.173419 0.158238 0.143116 0.128053 0.11305 0.0985973 0.0851856 0.072815 0.0614855 0.051197 0.0419497 0.0337435 0.0265783 0.020349 0.0149503 0.0103822 0.00664459 0.00373758 0.00166115 0.000415287 0 0 0.000227555 0.000910218 0.00204799 0.00364087 0.00568886 0.00819196 0.0111502 0.0145635 0.0185191 0.0231041 0.0283185 0.0341623 0.0406356 0.0477383 0.0554704 0.0638319 0.0725318 0.0812793 0.0900742 0.0989166 0.107806 0.116744 0.125729 0.134761 0.143557 0.151834 0.159591 0.166828 0.173546 0.179744 0.185423 0.190582 0.195135 0.198998 0.20217 0.204651 0.206441 0.20754 0.207948 0.207665 0.206877 0.20577 0.204343 0.202597 0.200532 0.198148 0.195444 0.192421 0.189415 0.186762 0.184462 0.182514 0.180919 0.179677 0.178788 0.178251 0.17829 0.179124 0.180755 0.183182 0.186406 0.190426 0.195242 0.200855 0.207164 0.214071 0.221576 0.229677 0.238376 0.247673 0.257566 0.268057 0.278756 0.289273 0.299609 0.309763 0.319736 0.329527 0.339136 0.348564 0.357393 0.365206 0.372002 0.377782 0.382546 0.386293 0.389024 0.390739 0.391282 0.390496 0.388383 0.384943 0.380174 0.374077 0.366653 0.3579 0.348033 0.337265 0.325595 0.313024 0.299551 0.285177 0.269902 0.253725 0.237126 0.220583 0.204098 0.187669 0.171298 0.154983 0.138725 0.122524 0.