<?xml version="1.0"?> 
<VTKFile type="StructuredGrid" version="0.1"> 
<StructuredGrid WholeExtent="0 128 0 128 0 0"> 
<Piece Extent="0 128 0 128 0 0"> 
<PointData>
<DataArray type="Float32" Name="u" format="ascii" NumberOfComponents="1"> 
0 0 0 0 0 0 0 0 0 0 0 0 0 0 0 0 0 0 0 0 0 0 0 0 0 0 0 0 0 0 0 0 0 0 0 0 0 0 0 0 0 0 0 0 0 0 0 0 0 0 0 0 0 0 0 0 0 0 0 0 0 0 0 0 0 0 0 0 0 0 0 0 0 0 0 0 0 0 0 0 0 0 0 0 0 0 0 0 0 0 0 0 0 0 0 0 0 0 0 0 0 0 0 0 0 0 0 0 0 0 0 0 0 0 0 0 0 0 0 0 0 0 0 0 0 0 0 0 0 0 1.72085e-07 6.88338e-07 1.54876e-06 2.75335e-06 4.30211e-06 6.19504e-06 8.43214e-06 1.10134e-05 1.41151e-05 1.79133e-05 2.24082e-05 2.75996e-05 3.34877e-05 4.00723e-05 4.73536e-05 5.53314e-05 6.37891e-05 7.25099e-05 8.14937e-05 9.07406e-05 0.000100251 0.000110024 0.00012006 0.000130359 0.000140696 0.000150845 0.000160807 0.000170581 0.000180167 0.000189566 0.000198777 0.000207801 0.000216554 0.000224953 0.000233 0.000240693 0.000248032 0.000255019 0.000261652 0.000267932 0.000273906 0.000279624 0.000285085 0.000290289 0.000295236 0.000299926 0.00030436 0.000308536 0.000312557 0.000316524 0.000320437 0.000324296 0.000328102 0.000331853 0.000335551 0.000339194 0.000342837 0.000346531 0.000350276 0.000354073 0.000357921 0.000361821 0.000365773 0.000369776 0.000373769 0.00037769 0.000381539 0.000385317 0.000389023 0.000392657 0.00039622 0.000399711 0.00040297 0.000405839 0.000408317 0.000410405 0.000412102 0.000413408 0.000414323 0.000414848 0.00041482 0.000414076 0.000412617 0.000410442 0.000407552 0.000403946 0.000399624 0.000394587 0.00038879 0.000382187 0.000374779 0.000366566 0.000357547 0.000347723 0.000337093 0.000325658 0.000313573 0.000300992 0.000287915 0.000274343 0.000260276 0.000245713 0.000230655 0.000215101 0.000199424 0.000183996 0.000168817 0.000153887 0.000139205 0.000124773 0.00011059 9.66551e-05 8.33846e-05 7.11933e-05 6.00811e-05 5.0048e-05 4.10942e-05 3.32194e-05 2.64238e-05 2.07074e-05 1.58541e-05 1.16479e-05 8.08883e-06 5.17685e-06 2.91198e-06 1.29421e-06 3.23553e-07 0 0 6.88338e-07 2.75335e-06 6.19504e-06 1.10134e-05 1.72085e-05 2.47802e-05 3.37286e-05 4.40536e-05 5.64603e-05 7.16533e-05 8.96327e-05 0.000110398 0.000133951 0.000160289 0.000189414 0.000221326 0.000255156 0.000290039 0.000325975 0.000362963 0.000401003 0.000440095 0.000480239 0.000521436 0.000562784 0.000603381 0.000643228 0.000682324 0.00072067 0.000758264 0.000795109 0.000831202 0.000866214 0.000899813 0.000931998 0.00096277 0.000992129 0.00102008 0.00104661 0.00107173 0.00109563 0.0011185 0.00114034 0.00116116 0.00118094 0.00119971 0.00121744 0.00123414 0.00125023 0.0012661 0.00128175 0.00129719 0.00131241 0.00132741 0.0013422 0.00135678 0.00137135 0.00138612 0.0014011 0.00141629 0.00143169 0.00144729 0.00146309 0.0014791 0.00149508 0.00151076 0.00152616 0.00154127 0.00155609 0.00157063 0.00158488 0.00159884 0.00161188 0.00162336 0.00163327 0.00164162 0.00164841 0.00165363 0.00165729 0.00165939 0.00165928 0.0016563 0.00165047 0.00164177 0.00163021 0.00161578 0.0015985 0.00157835 0.00155516 0.00152875 0.00149912 0.00146626 0.00143019 0.00139089 0.00134837 0.00130263 0.00125429 0.00120397 0.00115166 0.00109737 0.0010411 0.000982853 0.00092262 0.000860405 0.000797697 0.000735985 0.000675268 0.000615547 0.000556822 0.000499092 0.000442359 0.00038662 0.000333538 0.000284773 0.000240324 0.000200192 0.000164377 0.000132878 0.000105695 8.28296e-05 6.34164e-05 4.65917e-05 3.23553e-05 2.07074e-05 1.16479e-05 5.17685e-06 1.29421e-06 0 0 1.54876e-06 6.19504e-06 1.39388e-05 2.47802e-05 3.8719e-05 5.57554e-05 7.58893e-05 9.91207e-05 0.000127036 0.00016122 0.000201674 0.000248397 0.000301389 0.000360651 0.000426182 0.000497983 0.000574102 0.000652589 0.000733443 0.000816666 0.000902256 0.000990213 0.00108054 0.00117323 0.00126626 0.00135761 0.00144726 0.00153523 0.00162151 0.00170609 0.00178899 0.00187021 0.00194898 0.00202458 0.002097 0.00216623 0.00223229 0.00229517 0.00235487 0.00241139 0.00246516 0.00251662 0.00256577 0.0026126 0.00265713 0.00269934 0.00273924 0.00277682 0.00281301 0.00284872 0.00288393 0.00291867 0.00295292 0.00298668 0.00301996 0.00305275 0.00308553 0.00311878 0.00315248 0.00318666 0.00322129 0.00325639 0.00329196 0.00332798 0.00336392 0.00339921 0.00343385 0.00346785 0.00350121 0.00353392 0.00356598 0.0035974 0.00362673 0.00365255 0.00367486 0.00369364 0.00370892 0.00372067 0.00372891 0.00373363 0.00373338 0.00372669 0.00371355 0.00369398 0.00366796 0.00363551 0.00359662 0.00355129 0.00349911 0.00343969 0.00337301 0.00329909 0.00321792 0.0031295 0.00303384 0.00293092 0.00282215 0.00270892 0.00259124 0.00246909 0.00234248 0.00221142 0.00207589 0.00193591 0.00179482 0.00165597 0.00151935 0.00138498 0.00125285 0.00112296 0.000995307 0.000869896 0.000750461 0.000640739 0.00054073 0.000450432 0.000369847 0.000298975 0.000237815 0.000186367 0.000142687 0.000104831 7.27995e-05 4.65917e-05 2.62078e-05 1.16479e-05 2.91198e-06 0 0 2.75335e-06 1.10134e-05 2.47802e-05 4.40536e-05 6.88338e-05 9.91207e-05 0.000134914 0.000176215 0.000225841 0.000286613 0.000358531 0.000441594 0.000535803 0.000641157 0.000757657 0.000885303 0.00102063 0.00116016 0.0013039 0.00145185 0.00160401 0.00176038 0.00192096 0.00208575 0.00225114 0.00241353 0.00257291 0.0027293 0.00288268 0.00303306 0.00318043 0.00332481 0.00346486 0.00359925 0.00372799 0.00385108 0.00396852 0.0040803 0.00418643 0.00428691 0.0043825 0.00447399 0.00456136 0.00464463 0.00472378 0.00479882 0.00486975 0.00493658 0.00500091 0.00506438 0.005127 0.00518874 0.00524963 0.00530965 0.00536881 0.00542711 0.00548539 0.00554449 0.00560442 0.00566517 0.00572674 0.00578914 0.00585237 0.00591641 0.0059803 0.00604304 0.00610463 0.00616507 0.00622437 0.00628252 0.00633952 0.00639537 0.00644752 0.00649343 0.00653308 0.00656648 0.00659363 0.00661453 0.00662917 0.00663757 0.00663712 0.00662522 0.00660187 0.00656707 0.00652083 0.00646313 0.00639399 0.0063134 0.00622064 0.006115 0.00599647 0.00586505 0.00572075 0.00556356 0.00539349 0.00521053 0.00501716 0.00481587 0.00460664 0.00438949 0.00416442 0.00393141 0.00369048 0.00344162 0.00319079 0.00294394 0.00270107 0.00246219 0.00222729 0.00199637 0.00176943 0.00154648 0.00133415 0.00113909 0.000961297 0.000800769 0.000657506 0.000531511 0.000422781 0.000331319 0.000253666 0.000186367 0.000129421 8.28296e-05 4.65917e-05 2.07074e-05 5.17685e-06 0 0 4.30211e-06 1.72085e-05 3.8719e-05 6.88338e-05 0.000107553 0.000154876 0.000210804 0.000275335 0.000352877 0.000447833 0.000560204 0.00068999 0.000837192 0.00100181 0.00118384 0.00138329 0.00159473 0.00181275 0.00203734 0.00226852 0.00250627 0.00275059 0.0030015 0.00325898 0.0035174 0.00377113 0.00402017 0.00426453 0.00450418 0.00473915 0.00496943 0.00519502 0.00541384 0.00562383 0.00582499 0.00601732 0.00620081 0.00637547 0.0065413 0.00669829 0.00684766 0.00699061 0.00712713 0.00725723 0.00738091 0.00749816 0.00760899 0.0077134 0.00781393 0.0079131 0.00801093 0.00810741 0.00820254 0.00829633 0.00838877 0.00847986 0.00857092 0.00866327 0.0087569 0.00885183 0.00894804 0.00904554 0.00914432 0.0092444 0.00934422 0.00944225 0.00953848 0.00963293 0.00972558 0.00981643 0.0099055 0.00999277 0.0100743 0.010146 0.0102079 0.0102601 0.0103025 0.0103352 0.0103581 0.0103712 0.0103705 0.0103519 0.0103154 0.010261 0.0101888 0.0100986 0.00999061 0.00986469 0.00971975 0.00955468 0.00936948 0.00916414 0.00893867 0.00869307 0.00842732 0.00814145 0.00783931 0.00752479 0.00719788 0.00685858 0.0065069 0.00614283 0.00576637 0.00537753 0.00498561 0.0045999 0.00422043 0.00384717 0.00348014 0.00311933 0.00276474 0.00241638 0.00208462 0.00177983 0.00150203 0.0012512 0.00102735 0.000830485 0.000660596 0.000517685 0.000396353 0.000291198 0.000202221 0.000129421 7.27995e-05 3.23553e-05 8.08883e-06 0 0 6.19504e-06 2.47802e-05 5.57554e-05 9.91207e-05 0.000154876 0.000223022 0.000303557 0.000396483 0.000508142 0.000644879 0.000806694 0.000993586 0.00120556 0.0014426 0.00170473 0.00199193 0.00229641 0.00261036 0.00293377 0.00326666 0.00360902 0.00396085 0.00432215 0.00469293 0.00506506 0.00543043 0.00578905 0.00614092 0.00648603 0.00682438 0.00715598 0.00748082 0.00779593 0.00809832 0.00838798 0.00866493 0.00892916 0.00918068 0.00941947 0.00964554 0.00986063 0.0100665 0.0102631 0.0104504 0.0106285 0.0107973 0.0109569 0.0111073 0.0112521 0.0113949 0.0115357 0.0116747 0.0118117 0.0119467 0.0120798 0.012211 0.0123421 0.0124751 0.0126099 0.0127466 0.0128852 0.0130256 0.0131678 0.0133119 0.0134557 0.0135968 0.0137354 0.0138714 0.0140048 0.0141357 0.0142639 0.0143896 0.0145069 0.0146102 0.0146994 0.0147746 0.0148357 0.0148827 0.0149156 0.0149345 0.0149335 0.0149067 0.0148542 0.0147759 0.0146719 0.014542 0.0143865 0.0142051 0.0139964 0.0137587 0.0134921 0.0131964 0.0128717 0.012518 0.0121353 0.0117237 0.0112886 0.0108357 0.0103649 0.00987636 0.00936994 0.00884568 0.00830358 0.00774364 0.00717927 0.00662386 0.00607741 0.00553992 0.0050114 0.00449183 0.00398123 0.00347958 0.00300185 0.00256296 0.00216292 0.00180173 0.00147939 0.0011959 0.000951258 0.000745467 0.000570748 0.000419325 0.000291198 0.000186367 0.000104831 4.65917e-05 1.16479e-05 0 0 8.43214e-06 3.37286e-05 7.58893e-05 0.000134914 0.000210804 0.000303557 0.000413175 0.000539657 0.000691638 0.000877752 0.001098 0.00135238 0.0016409 0.00196354 0.00232032 0.00271124 0.00312567 0.00355298 0.00399319 0.00444629 0.00491228 0.00539116 0.00588293 0.0063876 0.00689411 0.00739142 0.00787954 0.00835847 0.0088282 0.00928874 0.00974008 0.0101822 0.0106111 0.0110227 0.011417 0.0117939 0.0121536 0.0124959 0.0128209 0.0131287 0.0134214 0.0137016 0.0139692 0.0142242 0.0144666 0.0146964 0.0149136 0.0151183 0.0153153 0.0155097 0.0157014 0.0158905 0.016077 0.0162608 0.016442 0.0166205 0.016799 0.01698 0.0171635 0.0173496 0.0175382 0.0177293 0.0179229 0.018119 0.0183147 0.0185068 0.0186954 0.0188805 0.0190621 0.0192402 0.0194148 0.0195858 0.0197455 0.0198861 0.0200076 0.0201098 0.020193 0.020257 0.0203018 0.0203276 0.0203262 0.0202897 0.0202182 0.0201117 0.01997 0.0197933 0.0195816 0.0193348 0.0190507 0.0187272 0.0183642 0.0179617 0.0175198 0.0170384 0.0165176 0.0159572 0.0153651 0.0147486 0.0141078 0.0134428 0.0127535 0.0120399 0.0113021 0.01054 0.00977179 0.00901581 0.00827203 0.00754045 0.00682107 0.00611388 0.00541889 0.0047361 0.00408585 0.00348847 0.00294397 0.00245235 0.00201361 0.00162775 0.00129477 0.00101466 0.000776851 0.000570748 0.000396353 0.000253666 0.000142687 6.34164e-05 1.58541e-05 0 0 1.10134e-05 4.40536e-05 9.91207e-05 0.000176215 0.000275335 0.000396483 0.000539657 0.000704858 0.000903364 0.00114645 0.00143412 0.00176638 0.00214321 0.00256463 0.00303063 0.00354121 0.0040825 0.00464063 0.0052156 0.0058074 0.00641604 0.00704152 0.00768383 0.00834298 0.00900455 0.0096541 0.0102916 0.0109172 0.0115307 0.0121322 0.0127217 0.0132992 0.0138594 0.014397 0.014912 0.0154043 0.0158741 0.0163212 0.0167457 0.0171476 0.01753 0.017896 0.0182454 0.0185785 0.0188951 0.0191953 0.019479 0.0197463 0.0200036 0.0202575 0.020508 0.020755 0.0209985 0.0212386 0.0214752 0.0217084 0.0219416 0.022178 0.0224177 0.0226607 0.022907 0.0231566 0.0234095 0.0236657 0.0239212 0.0241722 0.0244185 0.0246603 0.0248975 0.0251301 0.0253581 0.0255815 0.0257901 0.0259737 0.0261323 0.0262659 0.0263745 0.0264581 0.0265167 0.0265503 0.0265485 0.0265009 0.0264075 0.0262683 0.0260833 0.0258525 0.025576 0.0252536 0.0248826 0.02446 0.0239859 0.0234602 0.022883 0.0222542 0.021574 0.0208421 0.0200686 0.0192635 0.0184266 0.017558 0.0166577 0.0157256 0.0147619 0.0137665 0.0127632 0.0117758 0.0108043 0.00984875 0.00890915 0.00798548 0.00707774 0.00618593 0.00533661 0.00455637 0.00384519 0.00320307 0.00263003 0.00212604 0.00169113 0.00132527 0.00101466 0.000745467 0.000517685 0.000331319 0.000186367 8.28296e-05 2.07074e-05 0 0 1.41518e-05 5.66073e-05 0.000127366 0.000226429 0.000353796 0.000509466 0.00069344 0.000905717 0.00116042 0.00147169 0.00183951 0.00226388 0.00274481 0.0032823 0.00387634 0.00452694 0.00521646 0.00592727 0.00665938 0.00741277 0.00818746 0.00898344 0.00980072 0.0106393 0.0114809 0.0123073 0.0131184 0.0139144 0.0146951 0.0154607 0.016211 0.016946 0.0176592 0.0183436 0.0189993 0.0196263 0.0202246 0.0207942 0.0213351 0.0218473 0.0223347 0.0228011 0.0232465 0.0236709 0.0240744 0.024457 0.0248185 0.0251591 0.0254869 0.0258102 0.0261289 0.026443 0.0267526 0.0270577 0.0273581 0.027654 0.0279497 0.0282492 0.0285528 0.0288604 0.0291719 0.0294874 0.0298069 0.0301304 0.0304528 0.0307693 0.0310798 0.0313844 0.0316829 0.0319755 0.0322622 0.0325428 0.0328046 0.0330346 0.0332329 0.0333994 0.0335341 0.0336371 0.0337083 0.0337478 0.0337424 0.0336789 0.0335575 0.0333781 0.0331407 0.0328452 0.0324918 0.0320803 0.0316073 0.031069 0.0304655 0.0297968 0.0290629 0.0282638 0.0273995 0.0264699 0.0254878 0.0244655 0.0234032 0.0223007 0.0211583 0.0199757 0.0187531 0.0174903 0.0162176 0.0149651 0.0137326 0.0125202 0.0113279 0.0101557 0.00900358 0.00787158 0.00679333 0.00580244 0.00489893 0.00408278 0.00335401 0.0027126 0.00215857 0.00169191 0.00129537 0.000951698 0.000660901 0.000422977 0.000237924 0.000105744 2.64361e-05 0 0 1.80604e-05 7.22415e-05 0.000162543 0.000288966 0.00045151 0.000650174 0.000884959 0.00115586 0.00147992 0.00187417 0.00233859 0.00287321 0.00347801 0.00415299 0.00489816 0.00571351 0.00657707 0.00746687 0.00838291 0.00932519 0.0102937 0.0112885 0.0123095 0.0133567 0.0144076 0.0154397 0.016453 0.0174474 0.018423 0.0193798 0.0203177 0.0212368 0.0221287 0.0229849 0.0238054 0.0245902 0.0253393 0.0260527 0.0267305 0.0273726 0.0279837 0.0285684 0.0291269 0.029659 0.0301648 0.0306443 0.0310975 0.0315243 0.0319349 0.0323394 0.0327377 0.0331298 0.0335157 0.0338955 0.0342692 0.0346366 0.0350032 0.0353741 0.0357494 0.0361291 0.0365132 0.0369016 0.0372944 0.0376916 0.0380871 0.0384747 0.0388545 0.0392265 0.0395906 0.0399469 0.0402954 0.040636 0.040953 0.0412304 0.0414684 0.0416667 0.0418256 0.041945 0.0420248 0.0420651 0.0420498 0.0419627 0.0418039 0.0415733 0.041271 0.040897 0.0404512 0.0399337 0.0393401 0.0386661 0.0379116 0.0370766 0.0361612 0.0351654 0.0340891 0.0329324 0.0317108 0.0304398 0.0291196 0.0277501 0.0263312 0.024863 0.0233455 0.0217787 0.0201996 0.0186451 0.0171152 0.01561 0.0141294 0.0126735 0.0112422 0.00983559 0.00849516 0.00726247 0.00613754 0.00512036 0.00421093 0.00340926 0.00271534 0.00212917 0.00163015 0.00119766 0.000831707 0.000532292 0.000299414 0.000133073 3.32683e-05 0 0 2.27391e-05 9.09563e-05 0.000204652 0.000363825 0.000568477 0.000818607 0.00111421 0.0014553 0.00186186 0.00235389 0.00293139 0.00359436 0.0043428 0.0051767 0.00609608 0.00710093 0.00816435 0.00925944 0.0103862 0.0115447 0.0127348 0.0139566 0.01521 0.0164952 0.0177847 0.0190514 0.0202953 0.0215163 0.0227144 0.0238897 0.0250421 0.0261716 0.027268 0.0283208 0.0293301 0.0302958 0.0312181 0.0320967 0.0329318 0.0337234 0.034477 0.0351981 0.0358866 0.0365427 0.0371663 0.0377573 0.0383159 0.038842 0.0393477 0.0398451 0.0403343 0.0408152 0.0412878 0.0417522 0.0422083 0.0426562 0.0431021 0.0435526 0.0440075 0.0444669 0.0449308 0.0453992 0.0458721 0.0463495 0.046824 0.0472884 0.0477426 0.0481866 0.0486205 0.0490442 0.0494578 0.0498612 0.0502353 0.0505612 0.0508388 0.0510681 0.0512491 0.0513817 0.0514661 0.0515022 0.0514707 0.0513521 0.0511466 0.050854 0.0504745 0.0500079 0.0494544 0.0488138 0.0480811 0.0472512 0.046324 0.0452996 0.0441779 0.042959 0.0416428 0.0402294 0.0387377 0.0371865 0.0355759 0.0339059 0.0321765 0.0303876 0.0285393 0.0266316 0.0247089 0.0228158 0.0209523 0.0191183 0.0173139 0.015539 0.0137937 0.012078 0.0104421 0.00893646 0.00756103 0.00631581 0.00520081 0.00421601 0.00336143 0.00263706 0.002019 0.00148335 0.0010301 0.000659265 0.000370837 0.000164816 4.12041e-05 0 0 2.81879e-05 0.000112752 0.000253691 0.000451006 0.000704697 0.00101476 0.00138121 0.00180403 0.00230624 0.00291086 0.00361789 0.00442733 0.00533918 0.00635344 0.00747011 0.00868919 0.00997828 0.011305 0.0126693 0.0140712 0.0155107 0.0169878 0.0185025 0.0200548 0.0216123 0.0231425 0.0246453 0.0261209 0.0275693 0.0289903 0.030384 0.0317504 0.0330771 0.0343515 0.0355736 0.0367434 0.0378609 0.0389262 0.0399391 0.0408998 0.0418146 0.0426899 0.0435257 0.044322 0.0450788 0.0457961 0.0464738 0.0471121 0.0477252 0.0483274 0.0489188 0.0494993 0.0500689 0.0506277 0.0511756 0.0517127 0.0522465 0.0527846 0.0533271 0.0538738 0.0544249 0.0549802 0.0555399 0.0561039 0.0566636 0.0572103 0.057744 0.0582648 0.0587726 0.0592675 0.0597493 0.0602182 0.0606516 0.0610269 0.0613442 0.0616033 0.0618044 0.0619474 0.0620324 0.0620592 0.0620051 0.0618473 0.0615856 0.0612202 0.060751 0.0601779 0.0595011 0.0587205 0.0578302 0.0568243 0.0557028 0.0544657 0.0531129 0.0516446 0.0500606 0.0483611 0.0465685 0.0447055 0.0427721 0.0407683 0.0386941 0.0365494 0.0343344 0.0320489 0.0297456 0.0274772 0.0252437 0.023045 0.0208811 0.0187521 0.016658 0.0145987 0.0126342 0.0108244 0.0091694 0.00766914 0.00632363 0.00513287 0.00409685 0.00321558 0.00246193 0.00180876 0.00125609 0.000803895 0.000452191 0.000200974 5.02435e-05 0 0 3.44069e-05 0.000137627 0.000309662 0.00055051 0.000860171 0.00123865 0.00168594 0.00220204 0.00281305 0.00354507 0.00439809 0.00537212 0.00646716 0.0076832 0.00902025 0.0104783 0.0120189 0.0136035 0.0152321 0.0169047 0.0186214 0.0203821 0.0221868 0.0240355 0.0258902 0.0277128 0.0295032 0.0312614 0.0329876 0.0346816 0.0363435 0.0379732 0.0395559 0.0410768 0.0425357 0.0439327 0.0452678 0.0465411 0.0477524 0.0489018 0.0499966 0.0510441 0.0520442 0.052997 0.0539024 0.0547605 0.0555712 0.0563346 0.0570674 0.0577862 0.0584911 0.059182 0.059859 0.060522 0.0611711 0.0618062 0.0624363 0.0630703 0.0637081 0.0643497 0.0649952 0.0656446 0.0662978 0.0669549 0.0676058 0.0682404 0.0688588 0.069461 0.0700469 0.0706166 0.07117 0.0717072 0.0722018 0.0726276 0.0729845 0.0732725 0.0734917 0.073642 0.0737234 0.073736 0.0736531 0.0734481 0.073121 0.0726718 0.0721005 0.0714071 0.0705915 0.0696539 0.0685875 0.0673855 0.066048 0.0645749 0.0629663 0.0612222 0.0593425 0.0573273 0.0552032 0.0529968 0.0507082 0.0483372 0.045884 0.0433485 0.0407308 0.0380307 0.0353098 0.0326294 0.0299895 0.0273901 0.0248313 0.0223129 0.0198351 0.0173977 0.0150713 0.0129263 0.0109627 0.00918035 0.0075794 0.00615982 0.00492159 0.00386473 0.00295893 0.00217391 0.00150966 0.000966183 0.000543478 0.000241546 6.03864e-05 0 0 4.13959e-05 0.000165584 0.000372564 0.000662335 0.0010349 0.00149025 0.0020284 0.00264934 0.0033823 0.00425653 0.00527201 0.00642874 0.00772674 0.00916599 0.0107465 0.0124683 0.0142861 0.0161549 0.0180747 0.0200453 0.0220669 0.0241395 0.0262629 0.0284374 0.0306185 0.0327623 0.0348687 0.0369378 0.0389694 0.0409637 0.0429205 0.04484 0.0467046 0.0484968 0.0502165 0.0518639 0.0534389 0.0549415 0.0563716 0.0577294 0.0590229 0.0602605 0.061442 0.0625675 0.0636371 0.0646506 0.0656081 0.0665096 0.0673744 0.0682216 0.0690513 0.0698634 0.070658 0.0714351 0.0721947 0.0729367 0.0736715 0.0744095 0.0751505 0.0758947 0.076642 0.0773924 0.0781459 0.0789025 0.0796507 0.0803788 0.081087 0.0817752 0.0824434 0.0830916 0.0837199 0.0843281 0.084886 0.0853632 0.0857598 0.0860757 0.0863109 0.0864655 0.0865394 0.0865327 0.0864146 0.0861546 0.0857527 0.0852089 0.0845231 0.0836953 0.0827256 0.081614 0.0803529 0.0789347 0.0773595 0.0756273 0.0737381 0.0716918 0.0694885 0.0671282 0.0646419 0.0620605 0.0593841 0.0566127 0.0537463 0.0507849 0.0477285 0.0445771 0.0414014 0.0382723 0.0351897 0.0321537 0.0291642 0.0262213 0.023325 0.0204752 0.0177536 0.0152422 0.0129408 0.0108494 0.00896812 0.00729687 0.00583566 0.00458451 0.00351001 0.00257879 0.00179082 0.00114613 0.000644697 0.000286532 7.1633e-05 0 0 4.91552e-05 0.000196621 0.000442397 0.000786483 0.00122888 0.00176959 0.0024086 0.00314593 0.004014 0.00504523 0.00623962 0.00759718 0.00911791 0.0108018 0.0126488 0.0146591 0.01678 0.0189593 0.021197 0.023493 0.0258473 0.02826 0.0307309 0.0332603 0.0357973 0.0382912 0.0407421 0.0431499 0.0455147 0.0478364 0.0501151 0.0523508 0.054523 0.0566114 0.0586161 0.060537 0.062374 0.0641273 0.0657968 0.0673825 0.0688936 0.0703391 0.0717192 0.0730337 0.0742828 0.0754664 0.0765845 0.077637 0.078646 0.0796335 0.0805993 0.0815435 0.0824661 0.083367 0.0842464 0.0851042 0.0859522 0.0868023 0.0876545 0.0885087 0.0893651 0.0902235 0.091084 0.0919466 0.0927982 0.0936255 0.0944286 0.0952075 0.0959622 0.0966926 0.0973988 0.0980809 0.098704 0.0992337 0.09967 0.100013 0.100262 0.100418 0.10048 0.100449 0.10029 0.0999669 0.0994808 0.0988314 0.0980187 0.0970427 0.0959033 0.0946007 0.0931264 0.091472 0.0896375 0.0876229 0.0854282 0.0830535 0.0804986 0.0777637 0.0748844 0.0718965 0.0687999 0.0655948 0.062281 0.0588586 0.0553275 0.0516879 0.0480204 0.0444059 0.0408443 0.0373357 0.0338801 0.0304774 0.0271277 0.0238309 0.0206811 0.017772 0.0151038 0.0126764 0.0104898 0.00854401 0.00683905 0.00537492 0.00411517 0.00302339 0.00209958 0.00134373 0.000755848 0.000335932 8.39831e-05 0 0 5.76845e-05 0.000230738 0.000519161 0.000922953 0.00144211 0.00207664 0.00282654 0.00369181 0.00470813 0.00591117 0.00730094 0.00887744 0.0106407 0.0125906 0.0147273 0.0170507 0.0195006 0.0220167 0.0245991 0.0272477 0.0299625 0.0327435 0.0355908 0.0385043 0.0414264 0.0442993 0.0471232 0.0498979 0.0526235 0.0552999 0.0579273 0.0605055 0.0630112 0.0654208 0.0677343 0.0699518 0.0720733 0.0740986 0.0760279 0.0778612 0.0796085 0.08128 0.0828757 0.0843956 0.0858396 0.0872079 0.0885003 0.0897169 0.0908825 0.0920219 0.0931351 0.0942222 0.0952831 0.0963178 0.0973263 0.0983086 0.0992783 0.100249 0.10122 0.102192 0.103165 0.104138 0.105112 0.106087 0.107048 0.10798 0.108884 0.109758 0.110603 0.111419 0.112207 0.112966 0.113656 0.114239 0.114715 0.115084 0.115345 0.115499 0.115546 0.115485 0.115278 0.114885 0.114305 0.113539 0.112587 0.111449 0.110125 0.108614 0.106908 0.104997 0.102882 0.100562 0.0980367 0.0953071 0.0923728 0.0892338 0.0859308 0.0825048 0.0789556 0.0752833 0.071488 0.0675695 0.0635279 0.0593632 0.0551668 0.0510302 0.0469533 0.0429361 0.0389788 0.0350811 0.0312432 0.027465 0.0238536 0.0205158 0.0174517 0.0146612 0.0121444 0.00990125 0.00793177 0.00623595 0.0047744 0.00350772 0.00243592 0.00155899 0.000876931 0.000389747 9.74368e-05 0 0 6.68524e-05 0.00026741 0.000601671 0.00106964 0.00167131 0.00240669 0.00327577 0.00427855 0.005454 0.00684106 0.00843974 0.01025 0.0122719 0.0145055 0.0169506 0.0196074 0.0224071 0.0252814 0.0282301 0.0312532 0.0343507 0.0375227 0.0407692 0.0440901 0.0474204 0.0506952 0.0539145 0.0570782 0.0601864 0.063239 0.0662362 0.0691777 0.072037 0.0747872 0.0774283 0.0799604 0.0823834 0.0846973 0.0869022 0.088998 0.0909958 0.0929067 0.0947306 0.0964677 0.0981178 0.099681 0.101157 0.102547 0.103877 0.105176 0.106443 0.10768 0.108884 0.110058 0.1112 0.112311 0.113406 0.114499 0.115592 0.116684 0.117775 0.118865 0.119954 0.121042 0.122112 0.123149 0.124151 0.12512 0.126054 0.126955 0.127821 0.128653 0.129408 0.130041 0.130552 0.130941 0.131209 0.131355 0.131379 0.131282 0.131018 0.130545 0.129862 0.128969 0.127867 0.126554 0.125031 0.123299 0.121347 0.119164 0.116751 0.114109 0.111236 0.108133 0.1048 0.101237 0.0974897 0.0936045 0.0895814 0.0854203 0.0811212 0.0766842 0.0721091 0.0673961 0.0626475 0.0579656 0.0533505 0.0488022 0.0443206 0.0399058 0.0355577 0.0312764 0.0271824 0.0233962 0.0199177 0.0167471 0.0138842 0.0113292 0.00908188 0.00714238 0.00546839 0.00401759 0.00278999 0.0017856 0.0010044 0.000446399 0.0001116 0 0 7.6527e-05 0.000306108 0.000688743 0.00122443 0.00191318 0.00275497 0.00374982 0.00489773 0.00624091 0.00782159 0.00963977 0.0116954 0.0139886 0.0165193 0.0192875 0.0222931 0.025459 0.0287076 0.032039 0.0354532 0.0389503 0.0425301 0.0461927 0.0499382 0.0536939 0.0573874 0.0610186 0.0645875 0.0680942 0.0715386 0.0749208 0.0782407 0.0814681 0.0845729 0.087555 0.0904144 0.0931512 0.0957652 0.0982566 0.100625 0.102883 0.105043 0.107103 0.109065 0.110928 0.112692 0.114357 0.115924 0.117423 0.118884 0.120309 0.121696 0.123046 0.124358 0.125634 0.126872 0.12809 0.129305 0.130517 0.131725 0.13293 0.134132 0.135331 0.136527 0.137701 0.138836 0.139931 0.140987 0.142003 0.14298 0.143918 0.144815 0.145625 0.146299 0.146836 0.147237 0.147502 0.14763 0.147622 0.147477 0.147148 0.146585 0.145788 0.144758 0.143494 0.141996 0.140265 0.1383 0.13609 0.133625 0.130905 0.127929 0.124698 0.121211 0.117469 0.113471 0.109269 0.104915 0.100408 0.0957476 0.0909347 0.0859692 0.0808509 0.0755798 0.0702692 0.0650326 0.0598698 0.0547809 0.0497658 0.0448247 0.0399574 0.0351639 0.0305786 0.0263358 0.0224353 0.0188772 0.0156615 0.0127883 0.0102574 0.00806897 0.00617781 0.0045388 0.00315194 0.00201724 0.0011347 0.000504311 0.000126078 0 0 8.67085e-05 0.000346834 0.000780377 0.00138734 0.00216771 0.00312151 0.00424872 0.00554934 0.00706887 0.00885277 0.010901 0.0132137 0.0157907 0.0186321 0.0217379 0.025108 0.028656 0.0322953 0.036026 0.0398479 0.0437611 0.0477656 0.0518615 0.0560486 0.0602468 0.0643757 0.0684354 0.0724257 0.0763468 0.0801986 0.0839812 0.0876945 0.0913047 0.094778 0.0981144 0.101314 0.104377 0.107302 0.110091 0.112743 0.115271 0.117688 0.119993 0.122187 0.124269 0.126241 0.1281 0.129849 0.13152 0.133147 0.134731 0.13627 0.137766 0.139219 0.140627 0.141992 0.143332 0.144666 0.145994 0.147315 0.148631 0.149941 0.151245 0.152543 0.153815 0.155042 0.156224 0.15736 0.158451 0.159497 0.160497 0.161452 0.162308 0.163014 0.163568 0.163972 0.164224 0.164325 0.164274 0.164073 0.163667 0.163004 0.162083 0.160905 0.159469 0.157776 0.155825 0.153617 0.15114 0.148382 0.145343 0.142023 0.138423 0.134542 0.13038 0.125937 0.12127 0.116436 0.111434 0.106265 0.100928 0.0954245 0.089753 0.0839142 0.0780321 0.0722311 0.0665112 0.0608723 0.0553146 0.0498378 0.0444422 0.0391276 0.0340423 0.0293346 0.0250043 0.0210516 0.0174763 0.0142786 0.0114584 0.00901572 0.00690266 0.00507134 0.00352177 0.00225393 0.00126784 0.000563483 0.000140871 0 0 9.73968e-05 0.000389587 0.000876571 0.00155835 0.00243492 0.00350629 0.00477244 0.0062334 0.00793787 0.00993459 0.0122236 0.0148048 0.0176782 0.0208439 0.0243019 0.0280521 0.0319984 0.0360447 0.0401909 0.0444371 0.0487832 0.0532293 0.0577754 0.0624215 0.0670792 0.0716603 0.0761649 0.0805929 0.0849443 0.0892191 0.0934174 0.0975391 0.101547 0.105402 0.109107 0.112659 0.11606 0.119309 0.122406 0.125352 0.128159 0.130842 0.1334 0.135834 0.138143 0.140327 0.142386 0.144321 0.146168 0.147964 0.14971 0.151404 0.153047 0.154639 0.15618 0.15767 0.159131 0.160581 0.162023 0.163455 0.164877 0.166291 0.167695 0.16909 0.170454 0.171767 0.173028 0.174238 0.175397 0.176503 0.177559 0.178562 0.179457 0.180186 0.180749 0.181145 0.181375 0.181439 0.181337 0.181068 0.180576 0.179803 0.178747 0.177411 0.175793 0.173894 0.171713 0.169251 0.166495 0.163433 0.160065 0.156391 0.15241 0.148124 0.143532 0.138634 0.133492 0.128167 0.122661 0.116973 0.111102 0.10505 0.0988157 0.0923993 0.0859361 0.0795612 0.0732747 0.0670765 0.0609667 0.0549452 0.0490122 0.0431674 0.0375735 0.0323926 0.0276248 0.0232702 0.0193286 0.0158002 0.0126848 0.00998263 0.00764295 0.00561523 0.00389947 0.00249566 0.00140381 0.000623915 0.000155979 0 0 0.000108592 0.000434368 0.000977327 0.00173747 0.0027148 0.00390931 0.005321 0.00694988 0.00884791 0.0110671 0.0136073 0.0164687 0.0196511 0.0231547 0.0269794 0.0311253 0.035486 0.0399555 0.0445338 0.0492208 0.0540166 0.0589212 0.0639345 0.0690566 0.074191 0.0792412 0.0842072 0.089089 0.0938866 0.0986001 0.103229 0.107774 0.112194 0.116446 0.120531 0.12445 0.128201 0.131784 0.135201 0.138451 0.141548 0.144506 0.147325 0.150006 0.152548 0.154951 0.157215 0.159341 0.161368 0.163336 0.165245 0.167096 0.168887 0.17062 0.172293 0.173908 0.175486 0.177052 0.178604 0.180143 0.181669 0.183182 0.184681 0.186167 0.187618 0.189011 0.190345 0.191622 0.19284 0.194001 0.195103 0.196147 0.197072 0.197815 0.198377 0.198757 0.198956 0.198973 0.198809 0.198464 0.197875 0.19698 0.19578 0.194275 0.192465 0.190349 0.187927 0.1852 0.182155 0.178778 0.175071 0.171032 0.166661 0.161959 0.156927 0.151562 0.145934 0.14011 0.134088 0.127871 0.121457 0.114846 0.108039 0.101035 0.0939811 0.0870228 0.0801602 0.0733934 0.0667223 0.0601469 0.0536673 0.0472834 0.041172 0.0355098 0.0302968 0.025533 0.0212184 0.0173529 0.0139367 0.0109697 0.00839868 0.00617046 0.00428504 0.00274243 0.00154261 0.000685606 0.000171402 0 0 0.000120294 0.000481175 0.00108264 0.0019247 0.00300735 0.00433058 0.0058944 0.00769881 0.009799 0.0122502 0.0150523 0.0182054 0.0217095 0.0255645 0.0297706 0.0343276 0.0391189 0.044028 0.0490547 0.0541992 0.0594614 0.0648412 0.0703388 0.0759541 0.0815822 0.0871182 0.0925622 0.097914 0.103174 0.108341 0.113417 0.118401 0.123247 0.127909 0.132389 0.136686 0.140799 0.144729 0.148476 0.152041 0.155436 0.158679 0.161767 0.164703 0.167484 0.170113 0.172587 0.174909 0.177119 0.179263 0.181338 0.183346 0.185287 0.18716 0.188966 0.190704 0.192399 0.194077 0.195738 0.197381 0.199006 0.200613 0.202203 0.203776 0.205307 0.206773 0.208175 0.209511 0.210782 0.211989 0.21313 0.214207 0.215152 0.215901 0.216453 0.216808 0.216966 0.216927 0.216691 0.216258 0.215563 0.214537 0.213183 0.211498 0.209484 0.207141 0.204468 0.201466 0.198121 0.194419 0.190361 0.185946 0.181175 0.176047 0.170563 0.164722 0.158598 0.152262 0.145716 0.138959 0.131991 0.124812 0.117422 0.109822 0.102167 0.0946159 0.0871678 0.0798229 0.0725813 0.0654428 0.0584076 0.0514755 0.044838 0.0386862 0.0330203 0.02784 0.0231456 0.0189369 0.015214 0.0119769 0.00916984 0.00673702 0.00467849 0.00299423 0.00168426 0.000748558 0.000187139 0 0 0.000132503 0.00053001 0.00119252 0.00212004 0.00331257 0.00477009 0.00649263 0.00848017 0.0107911 0.0134839 0.0165585 0.020015 0.0238532 0.0280733 0.0326753 0.037659 0.0428971 0.048262 0.0537536 0.0593721 0.0651174 0.0709894 0.0769883 0.083114 0.0892529 0.0952915 0.10123 0.107068 0.112806 0.118443 0.123981 0.129418 0.134705 0.139792 0.144679 0.149367 0.153855 0.158143 0.162232 0.166121 0.169825 0.173361 0.176727 0.179924 0.182953 0.185812 0.188502 0.191023 0.193422 0.195743 0.197988 0.200156 0.202247 0.204261 0.206198 0.208059 0.20987 0.211658 0.213424 0.215167 0.216888 0.218586 0.220262 0.221915 0.223521 0.225055 0.226516 