<?xml version="1.0"?> 
<VTKFile type="StructuredGrid" version="0.1"> 
<StructuredGrid WholeExtent="0 128 0 128 0 0"> 
<Piece Extent="0 128 0 128 0 0"> 
<PointData>
<DataArray type="Float32" Name="u" format="ascii" NumberOfComponents="1"> 
0 0 0 0 0 0 0 0 0 0 0 0 0 0 0 0 0 0 0 0 0 0 0 0 0 0 0 0 0 0 0 0 0 0 0 0 0 0 0 0 0 0 0 0 0 0 0 0 0 0 0 0 0 0 0 0 0 0 0 0 0 0 0 0 0 0 0 0 0 0 0 0 0 0 0 0 0 0 0 0 0 0 0 0 0 0 0 0 0 0 0 0 0 0 0 0 0 0 0 0 0 0 0 0 0 0 0 0 0 0 0 0 0 0 0 0 0 0 0 0 0 0 0 0 0 0 0 0 0 0 1.64569e-07 6.58277e-07 1.48112e-06 2.63311e-06 4.11423e-06 5.9245e-06 8.0639e-06 1.05324e-05 1.35044e-05 1.7154e-05 2.14813e-05 2.64862e-05 3.21689e-05 3.85292e-05 4.55671e-05 5.32828e-05 6.14722e-05 6.99315e-05 7.86607e-05 8.76598e-05 9.69287e-05 0.000106468 0.000116276 0.000126355 0.000136486 0.000146454 0.000156258 0.000165898 0.000175374 0.000184686 0.000193835 0.000202819 0.000211556 0.000219961 0.000228034 0.000235776 0.000243186 0.000250264 0.00025701 0.000263425 0.000269547 0.000275416 0.000281031 0.000286393 0.000291502 0.000296358 0.00030096 0.000305309 0.000309495 0.000313609 0.00031765 0.000321618 0.000325513 0.000329336 0.000333086 0.000336764 0.000340415 0.000344087 0.000347779 0.000351492 0.000355225 0.000358978 0.000362752 0.000366545 0.000370301 0.000373961 0.000377525 0.000380992 0.000384364 0.000387639 0.000390818 0.000393901 0.000396741 0.000399189 0.000401247 0.000402915 0.000404191 0.000405077 0.000405572 0.000405676 0.000405242 0.000404122 0.000402315 0.000399823 0.000396645 0.000392781 0.00038823 0.000382994 0.000377035 0.000370319 0.000362844 0.000354612 0.000345621 0.000335872 0.000325365 0.0003141 0.000302228 0.000289902 0.000277122 0.000263887 0.000250197 0.000236053 0.000221454 0.000206401 0.000191248 0.000176351 0.00016171 0.000147325 0.000133195 0.000119321 0.000105703 9.23408e-05 7.96257e-05 6.79492e-05 5.73113e-05 4.77121e-05 3.91515e-05 3.16296e-05 2.51462e-05 1.97015e-05 1.5084e-05 1.10821e-05 7.69591e-06 4.92539e-06 2.77053e-06 1.23135e-06 3.07837e-07 0 0 6.58277e-07 2.63311e-06 5.9245e-06 1.05324e-05 1.64569e-05 2.3698e-05 3.22556e-05 4.21298e-05 5.40175e-05 6.8616e-05 8.59252e-05 0.000105945 0.000128676 0.000154117 0.000182269 0.000213131 0.000245889 0.000279726 0.000314643 0.000350639 0.000387715 0.00042587 0.000465105 0.00050542 0.000545946 0.000585817 0.000625032 0.000663592 0.000701497 0.000738746 0.00077534 0.000811278 0.000846224 0.000879844 0.000912137 0.000943104 0.000972743 0.00100106 0.00102804 0.0010537 0.00107819 0.00110166 0.00112412 0.00114557 0.00116601 0.00118543 0.00120384 0.00122124 0.00123798 0.00125444 0.0012706 0.00128647 0.00130205 0.00131734 0.00133235 0.00134706 0.00136166 0.00137635 0.00139112 0.00140597 0.0014209 0.00143591 0.00145101 0.00146618 0.00148121 0.00149585 0.0015101 0.00152397 0.00153746 0.00155056 0.00156327 0.0015756 0.00158696 0.00159676 0.00160499 0.00161166 0.00161676 0.00162031 0.00162229 0.0016227 0.00162097 0.00161649 0.00160926 0.00159929 0.00158658 0.00157112 0.00155292 0.00153198 0.00150814 0.00148128 0.00145138 0.00141845 0.00138248 0.00134349 0.00130146 0.0012564 0.00120891 0.00115961 0.00110849 0.00105555 0.00100079 0.000944212 0.000885817 0.000825604 0.000764993 0.000705405 0.00064684 0.000589299 0.00053278 0.000477285 0.000422812 0.000369363 0.000318503 0.000271797 0.000229245 0.000190848 0.000156606 0.000126518 0.000100585 7.88062e-05 6.0336e-05 4.43285e-05 3.07837e-05 1.97015e-05 1.10821e-05 4.92539e-06 1.23135e-06 0 0 1.48112e-06 5.9245e-06 1.33301e-05 2.3698e-05 3.70281e-05 5.33205e-05 7.25751e-05 9.4792e-05 0.000121539 0.000154386 0.000193332 0.000238376 0.00028952 0.000346763 0.000410104 0.000479545 0.00055325 0.000629384 0.000707946 0.000788938 0.000872358 0.000958208 0.00104649 0.00113719 0.00122838 0.00131809 0.00140632 0.00149308 0.00157837 0.00166218 0.00174451 0.00182537 0.00190401 0.00197965 0.00205231 0.00212198 0.00218867 0.00225237 0.00231309 0.00237082 0.00242592 0.00247874 0.00252928 0.00257754 0.00262352 0.00266722 0.00270864 0.00274778 0.00278546 0.00282248 0.00285885 0.00289456 0.00292962 0.00296403 0.00299778 0.00303088 0.00306374 0.00309679 0.00313001 0.00316343 0.00319702 0.0032308 0.00326476 0.00329891 0.00333271 0.00336565 0.00339772 0.00342893 0.00345927 0.00348875 0.00351736 0.00354511 0.00357067 0.0035927 0.00361123 0.00362623 0.00363772 0.00364569 0.00365015 0.00365108 0.00364718 0.0036371 0.00362084 0.00359841 0.0035698 0.00353503 0.00349407 0.00344695 0.00339332 0.00333287 0.0032656 0.0031915 0.00311059 0.00302285 0.00292828 0.0028269 0.00272006 0.00260912 0.0024941 0.00237498 0.00225177 0.00212448 0.00199309 0.00185761 0.00172123 0.00158716 0.00145539 0.00132592 0.00119876 0.00107389 0.000951328 0.000831067 0.000716631 0.000611543 0.000515802 0.000429409 0.000352364 0.000284666 0.000226316 0.000177314 0.000135756 9.9739e-05 6.92632e-05 4.43285e-05 2.49348e-05 1.10821e-05 2.77053e-06 0 0 2.63311e-06 1.05324e-05 2.3698e-05 4.21298e-05 6.58277e-05 9.4792e-05 0.000129022 0.000168519 0.00021607 0.000274464 0.000343701 0.00042378 0.000514702 0.000616467 0.000729074 0.000852525 0.000983555 0.0011189 0.00125857 0.00140256 0.00155086 0.00170348 0.00186042 0.00202168 0.00218378 0.00234327 0.00250013 0.00265437 0.00280599 0.00295498 0.00310136 0.00324511 0.0033849 0.00351938 0.00364855 0.00377241 0.00389097 0.00400422 0.00411216 0.0042148 0.00431275 0.00440665 0.0044965 0.00458229 0.00466404 0.00474173 0.00481536 0.00488495 0.00495193 0.00501774 0.00508239 0.00514588 0.00520821 0.00526938 0.00532938 0.00538822 0.00544665 0.0055054 0.00556447 0.00562387 0.0056836 0.00574365 0.00580402 0.00586473 0.00592482 0.00598338 0.0060404 0.00609588 0.00614982 0.00620223 0.00625309 0.00630242 0.00634785 0.00638703 0.00641996 0.00644663 0.00646706 0.00648123 0.00648915 0.00649082 0.00648387 0.00646595 0.00643705 0.00639717 0.00634632 0.00628449 0.00621168 0.0061279 0.00603257 0.0059251 0.00580551 0.00567379 0.00552993 0.00537395 0.00520584 0.0050256 0.00483566 0.00463844 0.00443395 0.00422219 0.00400316 0.00377685 0.00354327 0.00330241 0.00305997 0.00282162 0.00258736 0.00235719 0.00213112 0.00190914 0.00169125 0.00147745 0.00127401 0.00108719 0.000916981 0.000763394 0.000626424 0.000506073 0.00040234 0.000315225 0.000241344 0.000177314 0.000123135 7.88062e-05 4.43285e-05 1.97015e-05 4.92539e-06 0 0 4.11423e-06 1.64569e-05 3.70281e-05 6.58277e-05 0.000102856 0.000148112 0.000201597 0.000263311 0.00033761 0.00042885 0.000537032 0.000662156 0.000804222 0.000963229 0.00113918 0.00133207 0.00153681 0.00174829 0.00196652 0.00219149 0.00242322 0.00266169 0.00290691 0.00315887 0.00341216 0.00366136 0.00390645 0.00414745 0.00438436 0.00461716 0.00484587 0.00507049 0.0052889 0.00549903 0.00570086 0.0058944 0.00607964 0.00625659 0.00642525 0.00658562 0.00673867 0.00688539 0.00702578 0.00715983 0.00728756 0.00740895 0.007524 0.00763273 0.00773738 0.00784022 0.00794124 0.00804044 0.00813783 0.0082334 0.00832716 0.0084191 0.00851039 0.00860218 0.00869449 0.0087873 0.00888062 0.00897445 0.00906879 0.00916364 0.00925754 0.00934903 0.00943812 0.00952481 0.0096091 0.00969098 0.00977046 0.00984753 0.00991852 0.00997973 0.0100312 0.0100729 0.0101048 0.0101269 0.0101393 0.0101419 0.010131 0.010103 0.0100579 0.00999558 0.00991612 0.00981952 0.00970576 0.00957485 0.00942589 0.00925797 0.00907111 0.00886529 0.00864052 0.0083968 0.00813412 0.0078525 0.00755571 0.00724756 0.00692805 0.00659717 0.00625493 0.00590132 0.00553636 0.00516002 0.0047812 0.00440878 0.00404275 0.00368312 0.00332988 0.00298303 0.00264258 0.00230852 0.00199064 0.00169873 0.00143278 0.0011928 0.000978788 0.000790739 0.000628656 0.000492539 0.0003771 0.000277053 0.000192398 0.000123135 6.92632e-05 3.07837e-05 7.69591e-06 0 0 5.9245e-06 2.3698e-05 5.33205e-05 9.4792e-05 0.000148112 0.000213282 0.0002903 0.000379168 0.000486158 0.000617544 0.000773326 0.000953505 0.00115808 0.00138705 0.00164042 0.00191818 0.002213 0.00251753 0.00283179 0.00315575 0.00348943 0.00383283 0.00418595 0.00454878 0.00491351 0.00527235 0.00562529 0.00597233 0.00631347 0.00664871 0.00697806 0.0073015 0.00761602 0.0079186 0.00820924 0.00848793 0.00875468 0.0090095 0.00925236 0.00948329 0.00970368 0.00991496 0.0101171 0.0103102 0.0104941 0.0106689 0.0108346 0.0109911 0.0111418 0.0112899 0.0114354 0.0115782 0.0117185 0.0118561 0.0119911 0.0121235 0.012255 0.0123871 0.0125201 0.0126537 0.0127881 0.0129232 0.0130591 0.0131956 0.0133309 0.0134626 0.0135909 0.0137157 0.0138371 0.013955 0.0140695 0.0141804 0.0142827 0.0143708 0.0144449 0.0145049 0.0145509 0.0145828 0.0146006 0.0146043 0.0145887 0.0145484 0.0144834 0.0143936 0.0142792 0.0141401 0.0139763 0.0137878 0.0135733 0.0133315 0.0130624 0.012766 0.0124424 0.0120914 0.0117131 0.0113076 0.0108802 0.0104365 0.00997639 0.00949993 0.0090071 0.00849791 0.00797235 0.00743043 0.00688493 0.00634864 0.00582156 0.00530369 0.00479502 0.00429556 0.00380531 0.00332427 0.00286652 0.00244617 0.00206321 0.00171764 0.00140945 0.00113866 0.000905265 0.000709255 0.000543024 0.000398956 0.000277053 0.000177314 9.9739e-05 4.43285e-05 1.10821e-05 0 0 8.0639e-06 3.22556e-05 7.25751e-05 0.000129022 0.000201597 0.0002903 0.000395131 0.00051609 0.000661715 0.000840546 0.00105258 0.00129783 0.00157627 0.00188793 0.00223279 0.00261086 0.00301214 0.00342664 0.00385437 0.00429533 0.00474951 0.00521691 0.00569754 0.00619139 0.00668784 0.00717626 0.00765665 0.00812901 0.00859334 0.00904964 0.00949791 0.00993815 0.0103663 0.0107781 0.0111737 0.011553 0.0119161 0.0122629 0.0125935 0.0129078 0.0132078 0.0134954 0.0137705 0.0140333 0.0142836 0.0145215 0.014747 0.0149602 0.0151653 0.0153668 0.0155648 0.0157593 0.0159501 0.0161375 0.0163212 0.0165014 0.0166804 0.0168603 0.0170412 0.0172231 0.017406 0.0175899 0.0177748 0.0179607 0.0181448 0.0183241 0.0184987 0.0186686 0.0188338 0.0189943 0.0191501 0.0193012 0.0194403 0.0195603 0.0196611 0.0197428 0.0198054 0.0198488 0.019873 0.0198781 0.0198569 0.019802 0.0197135 0.0195913 0.0194356 0.0192463 0.0190233 0.0187667 0.0184747 0.0181456 0.0177794 0.017376 0.0169354 0.0164577 0.0159429 0.0153909 0.0148092 0.0142052 0.013579 0.0129305 0.0122597 0.0115666 0.0108513 0.0101136 0.00937116 0.00864121 0.00792379 0.00721891 0.00652656 0.00584674 0.00517945 0.0045247 0.00390166 0.00332951 0.00280826 0.00233789 0.00191842 0.00154985 0.00123217 0.000965375 0.000739116 0.000543024 0.0003771 0.000241344 0.000135756 6.0336e-05 1.5084e-05 0 0 1.05324e-05 4.21298e-05 9.4792e-05 0.000168519 0.000263311 0.000379168 0.00051609 0.000674076 0.000864281 0.00109786 0.0013748 0.00169512 0.00205881 0.00246587 0.0029163 0.0034101 0.00393422 0.00447562 0.00503428 0.00561023 0.00620344 0.00681392 0.00744168 0.00808671 0.00873514 0.00937307 0.0100005 0.0106175 0.011224 0.0118199 0.0124054 0.0129804 0.0135396 0.0140775 0.0145942 0.0150897 0.0155639 0.0160169 0.0164486 0.0168592 0.017251 0.0176266 0.017986 0.0183292 0.0186561 0.0189669 0.0192615 0.0195398 0.0198077 0.020071 0.0203296 0.0205835 0.0208328 0.0210775 0.0213175 0.0215529 0.0217866 0.0220216 0.0222579 0.0224955 0.0227344 0.0229746 0.0232161 0.0234589 0.0236993 0.0239335 0.0241616 0.0243835 0.0245993 0.0248089 0.0250124 0.0252097 0.0253914 0.0255481 0.0256798 0.0257865 0.0258682 0.0259249 0.0259566 0.0259633 0.0259355 0.0258638 0.0257482 0.0255887 0.0253853 0.025138 0.0248467 0.0245116 0.0241303 0.0237004 0.023222 0.0226951 0.0221197 0.0214958 0.0208234 0.0201024 0.0193426 0.0185538 0.0177358 0.0168888 0.0160126 0.0151074 0.0141731 0.0132097 0.0122399 0.0112865 0.0103494 0.00942878 0.00852448 0.00763655 0.006765 0.00590981 0.00509604 0.00434875 0.00366793 0.00305358 0.0025057 0.00202429 0.00160936 0.0012609 0.000965375 0.000709255 0.000492539 0.000315225 0.000177314 7.88062e-05 1.97015e-05 0 0 1.35386e-05 5.41543e-05 0.000121847 0.000216617 0.000338465 0.000487389 0.00066339 0.000866469 0.0011106 0.00140975 0.00176394 0.00217314 0.00263737 0.00315663 0.00373091 0.00436022 0.00502796 0.00571755 0.00642899 0.00716228 0.00791741 0.00869439 0.00949322 0.0103139 0.0111389 0.0119505 0.0127489 0.013534 0.0143058 0.0150643 0.0158096 0.0165415 0.0172533 0.0179382 0.0185961 0.019227 0.019831 0.0204081 0.0209582 0.0214813 0.0219806 0.0224593 0.0229172 0.0233546 0.0237712 0.0241671 0.0245424 0.024897 0.0252383 0.0255735 0.0259025 0.0262255 0.0265425 0.0268533 0.0271581 0.0274568 0.0277532 0.0280511 0.0283504 0.0286511 0.0289533 0.029257 0.0295621 0.0298686 0.0301719 0.0304673 0.0307547 0.0310342 0.0313056 0.0315692 0.0318248 0.0320724 0.0323002 0.0324962 0.0326604 0.0327928 0.0328935 0.0329625 0.0329996 0.033005 0.0329667 0.0328728 0.0327233 0.0325181 0.0322574 0.031941 0.031569 0.0311413 0.0306552 0.0301077 0.0294988 0.0288285 0.0280969 0.0273038 0.0264494 0.0255335 0.0245686 0.023567 0.0225286 0.0214534 0.0203414 0.0191927 0.0180073 0.0167851 0.0155548 0.0143452 0.0131562 0.0119879 0.0108403 0.00971332 0.00860701 0.00752137 0.00648811 0.00553895 0.00467388 0.00389292 0.00319606 0.00258329 0.00205463 0.00161006 0.0012327 0.00090566 0.000628931 0.000402516 0.000226415 0.000100629 2.51572e-05 0 0 1.72908e-05 6.91631e-05 0.000155617 0.000276653 0.00043227 0.000622468 0.000847249 0.00110661 0.00141741 0.00179652 0.00224393 0.00275965 0.00334366 0.00399598 0.0047166 0.00550553 0.00634207 0.00720555 0.00809597 0.00901333 0.00995761 0.0109288 0.011927 0.0129521 0.0139824 0.0149963 0.0159938 0.0169748 0.0179394 0.0188875 0.0198192 0.0207344 0.0216247 0.0224814 0.0233047 0.0240944 0.0248506 0.0255733 0.0262624 0.0269181 0.027544 0.028144 0.028718 0.0292661 0.0297882 0.0302844 0.0307546 0.0311989 0.0316262 0.0320454 0.0324567 0.0328598 0.033255 0.0336421 0.0340211 0.0343922 0.0347598 0.0351287 0.0354988 0.0358702 0.0362429 0.0366168 0.036992 0.0373684 0.0377403 0.0381019 0.0384532 0.0387943 0.0391251 0.0394456 0.0397558 0.0400557 0.0403307 0.0405662 0.0407621 0.0409185 0.0410354 0.0411127 0.0411505 0.0411487 0.0410928 0.040968 0.0407745 0.0405121 0.040181 0.039781 0.0393123 0.0387747 0.0381649 0.0374793 0.0367181 0.0358811 0.0349683 0.0339799 0.0329157 0.0317758 0.0305754 0.0293298 0.028039 0.0267029 0.0253216 0.0238951 0.0224234 0.0209064 0.0193795 0.017878 0.0164018 0.0149509 0.0135255 0.0121253 0.0107506 0.00940115 0.00811629 0.00693517 0.0058578 0.00488417 0.00401429 0.00324815 0.00258576 0.00202711 0.001552 0.00114025 0.000791838 0.000506777 0.000285062 0.000126694 3.16735e-05 0 0 2.17891e-05 8.71562e-05 0.000196102 0.000348625 0.000544726 0.000784406 0.00106766 0.0013945 0.00178473 0.00225816 0.00281479 0.00345463 0.00417767 0.00498392 0.00587337 0.00684603 0.00787655 0.00893962 0.0100352 0.0111634 0.012324 0.0135173 0.014743 0.0160013 0.0172659 0.0185105 0.0197352 0.0209399 0.0221247 0.0232895 0.0244343 0.0255592 0.0266537 0.0277072 0.0287199 0.0296916 0.0306225 0.0315124 0.0323614 0.0331695 0.0339412 0.0346808 0.0353883 0.0360638 0.0367073 0.0373187 0.0378981 0.0384454 0.0389714 0.0394869 0.0399919 0.0404864 0.0409703 0.0414437 0.0419066 0.0423589 0.0428063 0.0432545 0.0437033 0.0441528 0.0446031 0.0450541 0.0455057 0.0459581 0.0464043 0.0468373 0.0472572 0.0476639 0.0480576 0.048438 0.0488054 0.0491596 0.0494831 0.0497582 0.049985 0.0501635 0.0502937 0.0503755 0.0504091 0.0503942 0.0503135 0.0501494 0.0499017 0.0495707 0.0491561 0.0486581 0.0480767 0.0474117 0.0466593 0.0458154 0.0448799 0.0438528 0.0427342 0.0415241 0.0402224 0.0388292 0.0373629 0.0358422 0.034267 0.0326373 0.0309531 0.0292145 0.0274213 0.0255737 0.0237141 0.0218849 0.0200861 0.0183178 0.01658 0.0148726 0.0131956 0.0115492 0.00998058 0.00853742 0.00721967 0.00602732 0.00496039 0.00401886 0.00320274 0.00251203 0.00192327 0.00141302 0.000981261 0.000628007 0.000353254 0.000157002 3.92504e-05 0 0 2.70334e-05 0.000108134 0.000243301 0.000432534 0.000675835 0.000973202 0.00132464 0.00173014 0.00221254 0.00279466 0.00347652 0.0042581 0.00513941 0.00612045 0.00720122 0.00838172 0.00963141 0.0109197 0.0122467 0.0136124 0.0150167 0.0164597 0.0179413 0.0194616 0.0209892 0.0224931 0.0239731 0.0254293 0.0268617 0.0282703 0.029655 0.0310159 0.0323404 0.0336157 0.0348418 0.0360188 0.0371467 0.0382255 0.0392552 0.0402357 0.0411721 0.0420696 0.0429282 0.0437478 0.0445284 0.04527 0.0459728 0.0466365 0.047274 0.0478979 0.0485083 0.0491052 0.0496885 0.0502582 0.0508144 0.051357 0.0518928 0.0524284 0.0529638 0.053499 0.054034 0.0545688 0.0551034 0.0556379 0.056164 0.0566735 0.0571666 0.0576431 0.0581031 0.0585466 0.0589736 0.0593841 0.0597572 0.0600722 0.0603291 0.0605279 0.0606685 0.060751 0.0607754 0.0607417 0.0606291 0.0604169 0.0601051 0.0596938 0.0591828 0.0585723 0.0578621 0.0570524 0.0561385 0.0551157 0.0539841 0.0527437 0.0513945 0.0499364 0.0483694 0.0466937 0.0449312 0.0431042 0.0412127 0.0392566 0.037236 0.0351509 0.0330012 0.030787 0.0285585 0.0263659 0.0242093 0.0220886 0.0200039 0.0179551 0.0159423 0.0139654 0.012081 0.0103457 0.00875949 0.00732238 0.00603436 0.00489543 0.00390558 0.00306483 0.00234651 0.00172397 0.0011972 0.000766208 0.000430992 0.000191552 4.7888e-05 0 0 3.30238e-05 0.000132095 0.000297214 0.000528381 0.000825595 0.00118886 0.00161817 0.00211352 0.00270084 0.00340604 0.00422911 0.00517005 0.00622887 0.00740557 0.00870015 0.0101126 0.0116066 0.0131459 0.0147305 0.0163604 0.0180356 0.0197561 0.0215218 0.0233328 0.0251524 0.026944 0.0287076 0.0304431 0.0321505 0.0338299 0.0354812 0.0371045 0.0386847 0.0402066 0.0416704 0.043076 0.0444234 0.0457126 0.0469436 0.0481164 0.0492368 0.0503105 0.0513375 0.0523178 0.0532515 0.0541384 0.0549787 0.0557722 0.0565339 0.0572784 0.0580059 0.0587162 0.0594095 0.0600856 0.0607446 0.0613866 0.0620192 0.0626505 0.0632802 0.0639086 0.0645355 0.065161 0.065785 0.0664076 0.0670193 0.0676106 0.0681814 0.0687318 0.0692618 0.0697713 0.0702605 0.0707292 0.0711532 0.0715083 0.0717944 0.0720116 0.0721599 0.0722392 0.0722496 0.072191 0.0720394 0.0717706 0.0713846 0.0708814 0.070261 0.0695234 0.0686687 0.0676967 0.0666024 0.0653805 0.0640309 0.0625538 0.0609491 0.0592167 0.0573568 0.0553692 0.0532802 0.0511158 0.048876 0.0465608 0.0441702 0.0417043 0.0391629 0.0365462 0.0339127 0.0313211 0.0287713 0.0262633 0.0237972 0.0213729 0.0189904 0.0166498 0.0144175 0.01236 0.0104773 0.00876934 0.0072362 0.00587785 0.00469428 0.00368551 0.00282172 0.0020731 0.00143965 0.000921378 0.000518275 0.000230344 5.75861e-05 0 0 3.97602e-05 0.000159041 0.000357842 0.000636164 0.000994006 0.00143137 0.00194825 0.00254466 0.00324964 0.00409228 0.00507256 0.00619049 0.00744606 0.00883928 0.0103702 0.0120387 0.0138022 0.0156182 0.0174866 0.0194075 0.0213807 0.0234064 0.0254845 0.0276151 0.0297555 0.0318633 0.0339385 0.0359811 0.037991 0.0399683 0.0419129 0.043825 0.0456866 0.0474802 0.0492057 0.0508631 0.0524524 0.0539737 0.0554268 0.0568119 0.0581353 0.0594035 0.0606164 0.0617741 0.0628766 0.0639238 0.0649158 0.0658525 0.0667511 0.0676284 0.0684846 0.0693196 0.0701333 0.0709259 0.0716973 0.0724475 0.0731856 0.0739207 0.0746527 0.0753817 0.0761077 0.0768306 0.0775505 0.0782674 0.0789703 0.0796484 0.0803016 0.08093 0.0815335 0.0821121 0.0826659 0.0831948 0.083671 0.0840663 0.0843809 0.0846147 0.0847678 0.08484 0.0848315 0.0847423 0.0845445 0.0842104 0.0837401 0.0831336 0.0823907 0.0815117 0.0804963 0.0793447 0.0780511 0.0766096 0.0750202 0.0732831 0.071398 0.0693652 0.0671845 0.0648559 0.06241 0.0598769 0.0572569 0.0545499 0.0517558 0.0488747 0.0459066 0.0428514 0.0397768 0.0367504 0.033772 0.0308419 0.0279598 0.0251259 0.0223401 0.0196025 0.0169901 0.0145803 0.012373 0.0103682 0.00856591 0.00696612 0.00556884 0.00437407 0.0033489 0.00246042 0.00170862 0.00109352 0.000615104 0.000273379 6.83449e-05 0 0 4.72428e-05 0.000188971 0.000425185 0.000755884 0.00118107 0.00170074 0.0023149 0.00302354 0.00385894 0.00485339 0.00600688 0.0073194 0.00879097 0.0104216 0.0122112 0.0141599 0.0162182 0.0183365 0.020515 0.0227535 0.0250521 0.0274107 0.0298295 0.0323084 0.0347985 0.037251 0.039666 0.0420434 0.0443832 0.0466855 0.0489502 0.0511773 0.0533462 0.0554363 0.0574476 0.0593801 0.0612338 0.0630087 0.0647047 0.066322 0.0678675 0.0693485 0.0707648 0.0721165 0.0734037 0.0746262 0.0757841 0.0768775 0.0779256 0.0789479 0.0799444 0.0809151 0.08186 0.0827791 0.0836724 0.0845399 0.085392 0.0862391 0.0870812 0.0879184 0.0887505 0.0895777 0.0903999 0.0912172 0.092017 0.092787 0.0935273 0.0942377 0.0949182 0.095569 0.09619 0.0967811 0.0973105 0.0977464 0.0980886 0.0983371 0.0984921 0.0985535 0.0985212 0.0983954 0.0981443 0.0977364 0.0971718 0.0964503 0.095572 0.0945369 0.093345 0.0919964 0.0904845 0.088803 0.0869521 0.0849315 0.0827414 0.0803817 0.0778525 0.0751537 0.0723204 0.0693877 0.0663555 0.0632238 0.0599927 0.0566621 0.0532321 0.0497026 0.0461508 0.0426538 0.0392116 0.0358243 0.0324918 0.0292142 0.0259913 0.0228233 0.0197989 0.0170067 0.0144467 0.012119 0.0100235 0.00816025 0.00652926 0.00513051 0.00392805 0.00288591 0.00200411 0.00128263 0.000721478 0.000320657 8.01642e-05 0 0 5.54714e-05 0.000221885 0.000499242 0.000887542 0.00138678 0.00199697 0.0027181 0.00355017 0.00452874 0.00568937 0.00703206 0.0085568 0.0102636 0.0121525 0.0142234 0.0164764 0.0188545 0.0213009 0.0238156 0.0263985 0.0290496 0.0317691 0.0345567 0.0374127 0.0402813 0.0431071 0.04589 0.04863 0.0513272 0.0539815 0.0565929 0.0591615 0.0616635 0.064075 0.0663963 0.0686271 0.0707676 0.0728177 0.0747774 0.0766468 0.0784335 0.0801455 0.0817827 0.0833452 0.0848328 0.0862457 0.0875837 0.088847 0.0900575 0.0912369 0.0923854 0.093503 0.0945896 0.0956452 0.0966699 0.0976636 0.0986383 0.0996056 0.100566 0.101518 0.102464 0.103402 0.104333 0.105257 0.106159 0.107026 0.107858 0.108655 0.109416 0.110142 0.110833 0.111488 0.112072 0.112548 0.112917 0.113179 0.113333 0.11338 0.113319 0.11315 0.112839 0.112349 0.11168 0.110832 0.109805 0.108599 0.107215 0.105652 0.103903 0.101961 0.0998264 0.0974991 0.0949791 0.0922664 0.0893609 0.0862627 0.0830117 0.079648 0.0761717 0.0725827 0.068881 0.0650666 0.0611395 0.0570997 0.0530345 0.0490313 0.04509 0.0412106 0.0373932 0.0336377 0.0299441 0.0263124 0.0228437 0.019639 0.0166983 0.0140216 0.0116089 0.00946024 0.00757554 0.00595483 0.00455917 0.00334959 0.00232611 0.00148871 0.000837398 0.000372177 9.30442e-05 0 0 6.43221e-05 0.000257289 0.000578899 0.00102915 0.00160805 0.0023156 0.00315178 0.00411662 0.00524896 0.00658769 0.0081328 0.00988429 0.0118422 0.0140064 0.016377 0.0189541 0.0216727 0.024468 0.0273401 0.030289 0.0333147 0.0364171 0.0395963 0.0428522 0.0461223 0.0493439 0.0525171 0.0556417 0.0587179 0.0617457 0.0647249 0.0676557 0.0705109 0.0732635 0.0759135 0.0784608 0.0809054 0.0832474 0.0854868 0.0876236 0.0896661 0.091623 0.093494 0.0952794 0.096979 0.0985929 0.100121 0.101563 0.102945 0.104289 0.105597 0.106868 0.108102 0.1093 0.11046 0.111585 0.112685 0.113776 0.114857 0.115928 0.116988 0.118039 0.11908 0.12011 0.121115 0.122079 0.123002 0.123883 0.124723 0.125522 0.12628 0.126996 0.127631 0.128144 0.128535 0.128804 0.128951 0.128976 0.128879 0.12866 0.128279 0.127697 0.126913 0.125928 0.124741 0.123352 0.121762 0.11997 0.117969 0.115751 0.113317 0.110666 0.107798 0.104714 0.101412 0.0978948 0.0942056 0.0903902 0.0864485 0.0823805 0.0781863 0.0738658 0.0694191 0.0648461 0.0602446 0.0557124 0.0512494 0.0468558 0.0425314 0.0382763 0.0340905 0.0299739 0.0260405 0.0224042 0.0190648 0.0160224 0.0132771 0.0108288 0.00867746 0.00682316 0.00522398 0.00383803 0.0026653 0.00170579 0.000959507 0.000426448 0.000106612 0 0 7.36712e-05 0.000294685 0.000663041 0.00117874 0.00184178 0.00265216 0.00360989 0.00471496 0.00600954 0.00753582 0.00929379 0.0112834 0.0135048 0.0159578 0.0186426 0.021559 0.024634 0.0277944 0.0310403 0.0343716 0.0377884 0.0412905 0.0448781 0.0485512 0.0522398 0.055874 0.0594539 0.0629794 0.0664506 0.0698674 0.0732299 0.076538 0.0797612 0.0828689 0.0858611 0.0887378 0.0914991 0.0941448 0.0966751 0.0990899 0.101398 0.103609 0.105723 0.107739 0.109657 0.111479 0.113202 0.114829 0.116385 0.117898 0.119368 0.120794 0.122177 0.123518 0.124815 0.126069 0.127294 0.128507 0.129706 0.130891 0.132064 0.133223 0.134369 0.135501 0.136603 0.137658 0.138665 0.139624 0.140536 0.1414 0.142217 0.142986 0.143663 0.144204 0.144608 0.144875 0.145005 0.144999 0.144856 0.144577 0.144117 0.143432 0.142523 0.14139 0.140032 0.138449 0.136642 0.13461 0.132346 0.129842 0.127096 0.124111 0.120884 0.117418 0.11371 0.109762 0.105624 0.101346 0.0969288 0.0923716 0.0876745 0.0828378 0.0778613 0.0727451 0.0675974 0.0625264 0.0575321 0.0526146 0.0477739 0.0430098 0.0383226 0.033712 0.0293051 0.0252287 0.0214829 0.0180676 0.0149828 0.0122285 0.00980483 0.00771165 0.00590423 0.0043378 0.00301236 0.00192791 0.00108445 0.000481978 0.000120495 0 0 8.35185e-05 0.000334074 0.000751667 0.0013363 0.00208796 0.00300667 0.00409241 0.00534519 0.00681048 0.00853376 0.010515 0.0127543 0.0152515 0.0180068 0.02102 0.0242912 0.0277386 0.0312802 0.0349161 0.0386463 0.0424707 0.0463894 0.0504024 0.0545096 0.0586337 0.0626973 0.0667004 0.070643 0.0745251 0.0783467 0.0821078 0.0858084 0.0894142 0.0928912 0.0962392 0.0994583 0.102548 0.10551 0.108342 0.111046 0.11363 0.116104 0.118468 0.120723 0.122868 0.124903 0.126828 0.128643 0.130378 0.132063 0.133698 0.135282 0.136816 0.1383 0.139733 0.141116 0.142465 0.143797 0.145112 0.14641 0.147691 0.148954 0.1502 0.15143 0.152623 0.153762 0.154847 0.155878 0.156855 0.157777 0.158645 0.159459 0.160169 0.160729 0.161136 0.161392 0.161497 0.16145 0.161251 0.160901 0.160351 0.159554 0.158509 0.157217 0.155677 0.15389 0.151856 0.149573 0.147035 0.144233 0.141166 0.137834 0.134239 0.130379 0.126254 0.121865 0.117267 0.112517 0.107613 0.102556 0.0973456 0.0919824 0.0864661 0.0807967 0.0750928 0.0694733 0.0639381 0.0584872 0.0531206 0.0478383 0.0426403 0.0375267 0.0326374 0.0281127 0.0239526 0.020157 0.016726 0.0136595 0.0109576 0.00862029 0.00659991 0.00484891 0.0033673 0.00215507 0.00121223 0.000538768 0.000134692 0 0 9.38642e-05 0.000375457 0.000844778 0.00150183 0.0023466 0.00337911 0.00459935 0.00600731 0.00765177 0.00958151 0.0117965 0.0142968 0.0170824 0.0201532 0.0235094 0.0271508 0.0309864 0.0349253 0.0389675 0.043113 0.0473617 0.0517137 0.056169 0.0607275 0.0653042 0.0698139 0.0742567 0.0786326 0.0829416 0.0871836 0.0913587 0.0954668 0.09947 0.10333 0.107048 0.110622 0.114054 0.117342 0.120488 0.123491 0.126361 0.129107 0.131731 0.134232 0.13661 0.138865 0.140997 0.143006 0.144925 0.146785 0.148587 0.150331 0.152017 0.153645 0.155215 0.156726 0.158198 0.159648 0.161076 0.162483 0.163868 0.165232 0.166574 0.167895 0.169175 0.170393 0.171549 0.172645 0.173679 0.174651 0.175563 0.176413 0.177149 0.177718 0.178121 0.178357 0.178426 0.178328 0.178064 0.177633 0.176983 0.176063 0.174872 0.17341 0.171678 0.169676 0.167402 0.164859 0.162035 0.158924 0.155524 0.151837 0.147861 0.143596 0.139044 0.134203 0.129135 0.123901 0.1185 0.112933 0.1072 0.1013 0.0952335 0.0890009 0.0827311 0.0765532 0.0704674 0.0644735 0.0585717 0.0527618 0.0470439 0.0414179 0.0360375 0.0310562 0.026474 0.0222908 0.0185068 0.0151218 0.0121359 0.00954908 0.00731102 0.00537136 0.00373011 0.00238727 0.00134284 0.000596818 0.000149204 0 0 0.000104708 0.000418833 0.000942373 0.00167533 0.0026177 0.00376949 0.0051307 0.00670132 0.00853343 0.0106791 0.0131383 0.015911 0.0189973 0.0223972 0.0261106 0.0301375 0.0343775 0.0387298 0.0431946 0.0477718 0.0524614 0.0572635 0.0621779 0.0672048 0.0722511 0.0772237 0.0821228 0.0869481 0.0916999 0.096378 0.100983 0.105513 0.109929 0.114186 0.118287 0.122229 0.126015 0.129642 0.133113 0.136425 0.139591 0.14262 0.145512 0.148267 0.150885 0.153366 0.155711 0.157919 0.160025 0.162064 0.164037 0.165942 0.167782 0.169554 0.17126 0.172899 0.174492 0.176058 0.177598 0.179111 0.180597 0.182057 0.183491 0.184898 0.186258 0.187549 0.188771 0.189924 0.191008 0.192024 0.192971 0.193849 0.194602 0.195172 0.195561 0.195767 0.195791 0.195633 0.195294 0.194771 0.194011 0.192958 0.19161 0.189969 0.188034 0.185805 0.183282 0.180466 0.177347 0.173916 0.170173 0.166117 0.16175 0.157071 0.15208 0.146777 0.141228 0.135499 0.129591 0.123504 0.117236 0.11079 0.104163 0.0973577 0.090512 0.0837661 0.07712 0.0705736 0.064127 0.0577801 0.0515331 0.0453858 0.0395054 0.0340591 0.029047 0.024469 0.0203251 0.0166153 0.0133396 0.010498 0.00803755 0.00590514 0.00410079 0.00262451 0.00147629 0.000656127 0.000164032 0 0 0.00011605 0.000464202 0.00104445 0.00185681 0.00290126 0.00417781 0.00568647 0.00742722 0.00945544 0.0118265 0.0145403 0.0175969 0.0209964 0.0247386 0.0288237 0.0332516 0.0379117 0.0426936 0.0475973 0.0526226 0.0577698 0.0630386 0.0684292 0.0739416 0.0794745 0.0849268 0.0902985 0.0955896 0.1008 0.10593 0.110979 0.115948 0.12079 0.125459 0.129956 0.13428 0.138432 0.14241 0.146216 0.149849 0.153321 0.156641 0.159809 0.162826 0.165692 0.168406 0.170969 0.17338 0.175678 0.177899 0.180045 0.182115 0.184109 0.186027 0.187869 0.189636 0.191348 0.193028 0.194677 0.196293 0.197877 0.19943 0.20095 0.202439 0.203873 0.20523 0.206511 0.207716 0.208844 0.209895 0.210869 0.211767 0.212528 0.213091 0.213457 0.213624 0.213594 0.213366 0.212941 0.212317 0.211437 0.210239 0.208724 0.206893 0.204744 0.202278 0.199496 0.196396 0.19297 0.189208 0.18511 0.180677 0.175908 0.170803 0.165362 0.159586 0.153545 0.147312 0.140886 0.134267 0.127456 0.120452 0.113256 0.105867 0.0984357 0.0911119 0.0838958 0.0767874 0.0697866 0.0628935 0.056108 0.0494302 0.043041 0.0371215 0.0316717 0.0266915 0.0221809 0.01814 0.0145687 0.0114671 0.00877952 0.00645026 0.00447935 0.00286678 0.00161256 0.000716695 0.000179174 0 0 0.000127891 0.000511564 0.00115102 0.00204625 0.00319727 0.00460407 0.00626666 0.00818502 0.0104178 0.0130236 0.0160025 0.0193545 0.0230795 0.0271776 0.0316487 0.0364929 0.0415892 0.0468168 0.0521756 0.0576656 0.0632868 0.0690392 0.0749229 0.0809378 0.0869744 0.0929231 0.098784 0.104557 0.110242 0.11584 0.121349 0.126771 0.132054 0.137149 0.142056 0.146774 0.151304 0.155645 0.159798 0.163763 0.16755 0.17117 0.174624 0.17791 0.18103 0.183984 0.18677 0.18939 0.191884 0.194291 0.196613 0.198849 0.200999 0.203064 0.205042 0.206935 0.208766 0.210558 0.212313 0.21403 0.215709 0.217349 0.218952 0.220517 0.22202 0.223438 0.22477