<?xml version="1.0"?> 
<VTKFile type="StructuredGrid" version="0.1"> 
<StructuredGrid WholeExtent="0 128 0 128 0 0"> 
<Piece Extent="0 128 0 128 0 0"> 
<PointData>
<DataArray type="Float32" Name="u" format="ascii" NumberOfComponents="1"> 
0 0 0 0 0 0 0 0 0 0 0 0 0 0 0 0 0 0 0 0 0 0 0 0 0 0 0 0 0 0 0 0 0 0 0 0 0 0 0 0 0 0 0 0 0 0 0 0 0 0 0 0 0 0 0 0 0 0 0 0 0 0 0 0 0 0 0 0 0 0 0 0 0 0 0 0 0 0 0 0 0 0 0 0 0 0 0 0 0 0 0 0 0 0 0 0 0 0 0 0 0 0 0 0 0 0 0 0 0 0 0 0 0 0 0 0 0 0 0 0 0 0 0 0 0 0 0 0 0 0 1.84412e-07 7.37649e-07 1.65971e-06 2.9506e-06 4.61031e-06 6.63884e-06 9.0362e-06 1.18024e-05 1.51168e-05 1.91588e-05 2.39285e-05 2.94257e-05 3.56506e-05 4.26031e-05 5.02832e-05 5.8691e-05 6.75882e-05 7.67367e-05 8.61366e-05 9.57878e-05 0.00010569 0.000115844 0.00012625 0.000136906 0.000147575 0.000158015 0.000168228 0.000178214 0.000187972 0.000197502 0.000206804 0.000215879 0.000224645 0.000233022 0.000241009 0.000248607 0.000255815 0.000262634 0.000269064 0.000275104 0.000280818 0.000286269 0.000291457 0.000296383 0.000301047 0.000305447 0.000309585 0.00031346 0.000317193 0.000320904 0.000324593 0.000328261 0.000331906 0.00033553 0.000339131 0.000342711 0.000346332 0.000350058 0.000353888 0.000357823 0.000361863 0.000366007 0.000370256 0.00037461 0.000379 0.000383361 0.000387693 0.000391994 0.000396265 0.000400507 0.000404718 0.0004089 0.000412872 0.000416454 0.000419646 0.000422449 0.000424861 0.000426884 0.000428516 0.000429759 0.000430425 0.000430326 0.000429462 0.000427833 0.00042544 0.000422282 0.00041836 0.000413673 0.000408161 0.000401764 0.000394482 0.000386316 0.000377265 0.000367329 0.000356508 0.000344802 0.000332372 0.000319378 0.000305819 0.000291695 0.000277007 0.000261755 0.000245938 0.000229557 0.000213012 0.000196704 0.000180634 0.0001648 0.000149203 0.000133843 0.00011872 0.000103834 8.96399e-05 7.65922e-05 6.4691e-05 5.39363e-05 4.4328e-05 3.58663e-05 2.8551e-05 2.23822e-05 1.71364e-05 1.259e-05 8.74305e-06 5.59555e-06 3.1475e-06 1.39889e-06 3.49722e-07 0 0 7.37649e-07 2.9506e-06 6.63884e-06 1.18024e-05 1.84412e-05 2.65554e-05 3.61448e-05 4.72095e-05 6.04672e-05 7.66353e-05 9.57138e-05 0.000117703 0.000142602 0.000170412 0.000201133 0.000234764 0.000270353 0.000306947 0.000344546 0.000383151 0.000422762 0.000463377 0.000504998 0.000547624 0.000590298 0.000632061 0.000672913 0.000712855 0.000751886 0.000790007 0.000827217 0.000863516 0.000898581 0.000932088 0.000964037 0.000994428 0.00102326 0.00105054 0.00107626 0.00110041 0.00112327 0.00114508 0.00116583 0.00118553 0.00120419 0.00122179 0.00123834 0.00125384 0.00126877 0.00128362 0.00129837 0.00131304 0.00132762 0.00134212 0.00135653 0.00137084 0.00138533 0.00140023 0.00141555 0.00143129 0.00144745 0.00146403 0.00148102 0.00149844 0.001516 0.00153345 0.00155077 0.00156798 0.00158506 0.00160203 0.00161887 0.0016356 0.00165149 0.00166582 0.00167859 0.0016898 0.00169944 0.00170754 0.00171407 0.00171904 0.0017217 0.0017213 0.00171785 0.00171133 0.00170176 0.00168913 0.00167344 0.00165469 0.00163264 0.00160706 0.00157793 0.00154526 0.00150906 0.00146932 0.00142603 0.00137921 0.00132949 0.00127751 0.00122327 0.00116678 0.00110803 0.00104702 0.000983753 0.000918228 0.000852049 0.000786818 0.000722534 0.000659199 0.000596811 0.000535372 0.00047488 0.000415336 0.00035856 0.000306369 0.000258764 0.000215745 0.000177312 0.000143465 0.000114204 8.95288e-05 6.85455e-05 5.036e-05 3.49722e-05 2.23822e-05 1.259e-05 5.59555e-06 1.39889e-06 0 0 1.65971e-06 6.63884e-06 1.49374e-05 2.65554e-05 4.14928e-05 5.97496e-05 8.13258e-05 0.000106221 0.000136051 0.000172429 0.000215356 0.000264831 0.000320855 0.000383428 0.000452549 0.000528219 0.000608293 0.00069063 0.000775229 0.00086209 0.000951214 0.0010426 0.00113625 0.00123215 0.00132817 0.00142214 0.00151406 0.00160392 0.00169174 0.00177752 0.00186124 0.00194291 0.00202181 0.0020972 0.00216908 0.00223746 0.00230234 0.00236371 0.00242157 0.00247593 0.00252736 0.00257642 0.00262312 0.00266745 0.00270942 0.00274902 0.00278627 0.00282114 0.00285474 0.00288814 0.00292134 0.00295435 0.00298716 0.00301977 0.00305218 0.0030844 0.00311699 0.00315052 0.00318499 0.00322041 0.00325677 0.00329406 0.0033323 0.00337149 0.003411 0.00345025 0.00348923 0.00352794 0.00356639 0.00360456 0.00364247 0.0036801 0.00371585 0.00374809 0.00377682 0.00380204 0.00382375 0.00384195 0.00385665 0.00386783 0.00387382 0.00387293 0.00386516 0.0038505 0.00382896 0.00380054 0.00376524 0.00372305 0.00367345 0.00361587 0.00355034 0.00347684 0.00339538 0.00330596 0.00320857 0.00310322 0.00299135 0.0028744 0.00275237 0.00262526 0.00249307 0.00235579 0.00221344 0.00206601 0.00191711 0.00177034 0.0016257 0.0014832 0.00134283 0.00120459 0.00106848 0.000934507 0.000806759 0.00068933 0.000582219 0.000485426 0.000398952 0.000322796 0.000256959 0.00020144 0.000154227 0.00011331 7.86874e-05 5.036e-05 2.83275e-05 1.259e-05 3.1475e-06 0 0 2.9506e-06 1.18024e-05 2.65554e-05 4.72095e-05 7.37649e-05 0.000106221 0.000144579 0.000188838 0.000241869 0.000306541 0.000382855 0.000470812 0.00057041 0.00068165 0.000804531 0.000939055 0.00108141 0.00122779 0.00137819 0.00153261 0.00169105 0.00185351 0.00201999 0.0021905 0.00236119 0.00252824 0.00269165 0.00285142 0.00300755 0.00316003 0.00330887 0.00345406 0.00359432 0.00372835 0.00385615 0.00397771 0.00409305 0.00420215 0.00430502 0.00440166 0.00449308 0.0045803 0.00466332 0.00474213 0.00481675 0.00488715 0.00495336 0.00501536 0.00507509 0.00513447 0.0051935 0.00525217 0.0053105 0.00536848 0.0054261 0.00548338 0.00554132 0.00560093 0.00566221 0.00572517 0.00578981 0.00585611 0.0059241 0.00599375 0.00606401 0.00613378 0.00620308 0.0062719 0.00634024 0.00640811 0.0064755 0.0065424 0.00660596 0.00666327 0.00671434 0.00675918 0.00679778 0.00683014 0.00685626 0.00687615 0.0068868 0.00688521 0.00687139 0.00684533 0.00680704 0.00675652 0.00669376 0.00661876 0.00653057 0.00642822 0.00631172 0.00618106 0.00603624 0.00587726 0.00570413 0.00551684 0.00531796 0.00511004 0.0048931 0.00466712 0.00443212 0.00418808 0.00393501 0.00367291 0.0034082 0.00314727 0.00289014 0.00263679 0.00238724 0.00214149 0.00189952 0.00166135 0.00143424 0.00122548 0.00103506 0.00086298 0.000709248 0.00057386 0.000456816 0.000358115 0.000274182 0.00020144 0.000139889 8.95288e-05 5.036e-05 2.23822e-05 5.59555e-06 0 0 4.61031e-06 1.84412e-05 4.14928e-05 7.37649e-05 0.000115258 0.000165971 0.000225905 0.00029506 0.00037792 0.00047897 0.000598211 0.000735643 0.000891265 0.00106508 0.00125708 0.00146727 0.0016897 0.00191842 0.00215342 0.0023947 0.00264226 0.00289611 0.00315624 0.00342265 0.00368936 0.00395038 0.00420571 0.00445534 0.00469929 0.00493754 0.0051701 0.00539697 0.00561613 0.00582555 0.00602523 0.00621518 0.00639539 0.00656586 0.00672659 0.00687759 0.00702044 0.00715672 0.00728644 0.00740958 0.00752616 0.00763618 0.00773963 0.00783651 0.00792983 0.00802261 0.00811484 0.00820652 0.00829765 0.00838824 0.00847828 0.00856778 0.00865831 0.00875145 0.00884721 0.00894558 0.00904657 0.00915018 0.0092564 0.00936524 0.00947501 0.00958404 0.00969231 0.00979985 0.00990663 0.0100127 0.010118 0.0102225 0.0103218 0.0104114 0.0104912 0.0105612 0.0106215 0.0106721 0.0107129 0.010744 0.0107606 0.0107581 0.0107365 0.0106958 0.010636 0.0105571 0.010459 0.0103418 0.010204 0.0100441 0.00986206 0.0096579 0.00943162 0.00918322 0.0089127 0.00862006 0.00830931 0.00798444 0.00764546 0.00729238 0.00692518 0.00654387 0.00614846 0.00573893 0.00532531 0.00491761 0.00451584 0.00411999 0.00373007 0.00334607 0.002968 0.00259585 0.002241 0.00191481 0.00161727 0.00134841 0.0011082 0.000896657 0.000713775 0.000559555 0.000428409 0.00031475 0.000218576 0.000139889 7.86874e-05 3.49722e-05 8.74305e-06 0 0 6.63884e-06 2.65554e-05 5.97496e-05 0.000106221 0.000165971 0.000238998 0.000325303 0.000424886 0.000544205 0.000689717 0.000861425 0.00105933 0.00128342 0.00153371 0.0018102 0.00211287 0.00243317 0.00276252 0.00310092 0.00344836 0.00380485 0.00417039 0.00454498 0.00492862 0.00531268 0.00568855 0.00605622 0.0064157 0.00676698 0.00711006 0.00744495 0.00777164 0.00808723 0.00838879 0.00867633 0.00894985 0.00920936 0.00945484 0.0096863 0.00990373 0.0101094 0.0103057 0.0104925 0.0106698 0.0108377 0.0109961 0.0111451 0.0112846 0.011419 0.0115526 0.0116854 0.0118174 0.0119486 0.0120791 0.0122087 0.0123376 0.012468 0.0126021 0.01274 0.0128816 0.0130271 0.0131763 0.0133292 0.0134859 0.013644 0.013801 0.0139569 0.0141118 0.0142655 0.0144182 0.0145699 0.0147204 0.0148634 0.0149924 0.0151073 0.0152082 0.015295 0.0153678 0.0154266 0.0154713 0.0154953 0.0154917 0.0154606 0.015402 0.0153158 0.0152022 0.015061 0.0148922 0.0146938 0.0144635 0.0142014 0.0139074 0.0135815 0.0132238 0.0128343 0.0124129 0.0119654 0.0114976 0.0110095 0.010501 0.00997226 0.00942318 0.00885378 0.00826406 0.00766844 0.00708136 0.00650281 0.00593279 0.0053713 0.00481834 0.00427392 0.00373803 0.00322704 0.00275732 0.00232888 0.00194171 0.00159581 0.00129119 0.00102784 0.000805759 0.000616909 0.00045324 0.00031475 0.00020144 0.00011331 5.036e-05 1.259e-05 0 0 9.0362e-06 3.61448e-05 8.13258e-05 0.000144579 0.000225905 0.000325303 0.000442774 0.000578317 0.000740723 0.000938782 0.00117249 0.00144186 0.00174688 0.00208755 0.00246388 0.00287586 0.00331182 0.0037601 0.00422069 0.0046936 0.00517883 0.00567637 0.00618623 0.0067084 0.00723115 0.00774275 0.00824319 0.00873248 0.00921061 0.00967758 0.0101334 0.0105781 0.0110076 0.0114181 0.0118095 0.0121817 0.012535 0.0128691 0.0131841 0.0134801 0.0137601 0.0140272 0.0142814 0.0145228 0.0147513 0.0149669 0.0151697 0.0153596 0.0155425 0.0157243 0.0159051 0.0160848 0.0162634 0.016441 0.0166174 0.0167928 0.0169703 0.0171528 0.0173405 0.0175333 0.0177313 0.0179344 0.0181425 0.0183559 0.018571 0.0187847 0.0189969 0.0192077 0.019417 0.0196248 0.0198312 0.0200361 0.0202307 0.0204063 0.0205627 0.0207 0.0208182 0.0209173 0.0209973 0.0210582 0.0210908 0.021086 0.0210436 0.0209638 0.0208466 0.0206918 0.0204996 0.02027 0.0199999 0.0196864 0.0193296 0.0189295 0.018486 0.0179991 0.0174689 0.0168953 0.0162862 0.0156495 0.0149851 0.0142931 0.0135734 0.012826 0.012051 0.0112483 0.0104376 0.00963852 0.00885104 0.00807518 0.00731094 0.0065583 0.00581728 0.00508787 0.00439235 0.00375302 0.00316986 0.00264288 0.00217207 0.00175745 0.001399 0.00109673 0.000839682 0.000616909 0.000428409 0.000274182 0.000154227 6.85455e-05 1.71364e-05 0 0 1.18024e-05 4.72095e-05 0.000106221 0.000188838 0.00029506 0.000424886 0.000578317 0.000755353 0.000967475 0.00122616 0.00153142 0.00188325 0.00228164 0.0027266 0.00321813 0.00375622 0.00432564 0.00491115 0.00551274 0.00613042 0.00676419 0.00741403 0.00807997 0.00876199 0.00944477 0.010113 0.0107666 0.0114057 0.0120302 0.0126401 0.0132355 0.0138163 0.0143773 0.0149134 0.0154246 0.0159109 0.0163722 0.0168086 0.0172201 0.0176066 0.0179723 0.0183212 0.0186533 0.0189685 0.019267 0.0195486 0.0198134 0.0200615 0.0203004 0.0205379 0.020774 0.0210087 0.021242 0.0214739 0.0217044 0.0219335 0.0221653 0.0224037 0.0226489 0.0229007 0.0231592 0.0234245 0.0236964 0.023975 0.024256 0.0245351 0.0248123 0.0250876 0.025361 0.0256324 0.025902 0.0261696 0.0264238 0.0266531 0.0268574 0.0270367 0.0271911 0.0273206 0.0274251 0.0275046 0.0275472 0.0275408 0.0274856 0.0273813 0.0272282 0.0270261 0.026775 0.026475 0.0261223 0.0257129 0.0252469 0.0247242 0.0241449 0.023509 0.0228165 0.0220674 0.0212718 0.0204402 0.0195724 0.0186685 0.0177285 0.0167523 0.01574 0.0146917 0.0136328 0.0125891 0.0115605 0.0105472 0.00954898 0.00856594 0.00759808 0.00664538 0.00573695 0.0049019 0.00414022 0.00345192 0.00283699 0.00229544 0.00182726 0.00143246 0.00109673 0.000805759 0.000559555 0.000358115 0.00020144 8.95288e-05 2.23822e-05 0 0 1.51581e-05 6.06323e-05 0.000136423 0.000242529 0.000378952 0.000545691 0.000742746 0.000970117 0.00124218 0.0015733 0.00196349 0.00241275 0.00292107 0.00348845 0.00411489 0.00480041 0.00552561 0.00627116 0.00703703 0.00782324 0.00862979 0.00945666 0.0103039 0.0111714 0.0120399 0.0128899 0.0137215 0.0145346 0.0153292 0.0161054 0.0168631 0.0176023 0.0183165 0.0189991 0.01965 0.0202693 0.0208569 0.0214129 0.0219373 0.02243 0.0228962 0.0233409 0.0237643 0.0241661 0.0245466 0.0249056 0.0252431 0.0255593 0.0258637 0.0261662 0.0264667 0.0267652 0.0270618 0.0273564 0.027649 0.0279397 0.0282335 0.0285356 0.028846 0.0291646 0.0294916 0.0298268 0.0301703 0.0305221 0.0308768 0.0312288 0.0315783 0.0319252 0.0322696 0.0326113 0.0329505 0.033287 0.0336065 0.0338942 0.0341503 0.0343747 0.0345674 0.0347284 0.0348577 0.0349553 0.0350061 0.0349949 0.0349217 0.0347866 0.0345894 0.0343303 0.0340092 0.0336261 0.0331763 0.0326547 0.0320615 0.0313967 0.0306603 0.0298521 0.0289724 0.028021 0.027011 0.0259553 0.0248539 0.0237069 0.0225142 0.0212759 0.0199919 0.0186622 0.0173193 0.0159955 0.0146909 0.0134053 0.0121389 0.0108916 0.00966341 0.00845435 0.00730126 0.00624097 0.00527349 0.00439882 0.00361695 0.00292789 0.00233163 0.00182818 0.0013997 0.00102835 0.000714135 0.000457046 0.000257089 0.000114262 2.85654e-05 0 0 1.9324e-05 7.72959e-05 0.000173916 0.000309184 0.0004831 0.000695663 0.000946875 0.00123673 0.00158255 0.00200164 0.002494 0.00305963 0.00369853 0.0044107 0.00519614 0.00605485 0.00696271 0.00789561 0.00885354 0.0098365 0.0108445 0.0118775 0.0129356 0.0140187 0.0151029 0.0161642 0.0172027 0.0182184 0.0192112 0.0201811 0.0211282 0.0220524 0.0229455 0.0237994 0.0246139 0.0253891 0.026125 0.0268216 0.0274788 0.0280968 0.0286816 0.0292395 0.0297705 0.0302746 0.0307518 0.0312021 0.0316255 0.032022 0.0324036 0.0327821 0.0331578 0.0335304 0.0339001 0.0342668 0.0346306 0.0349914 0.0353555 0.0357294 0.0361129 0.0365061 0.036909 0.0373217 0.037744 0.038176 0.038611 0.0390424 0.0394702 0.0398943 0.0403148 0.0407317 0.0411449 0.0415545 0.0419426 0.0422912 0.0426004 0.0428702 0.0431006 0.0432916 0.0434431 0.0435552 0.0436093 0.0435867 0.0434875 0.0433117 0.0430592 0.0427301 0.0423243 0.0418419 0.041277 0.0406238 0.0398821 0.0390521 0.0381337 0.0371269 0.0360318 0.0348483 0.0335925 0.0322805 0.0309123 0.0294879 0.0280072 0.0264704 0.0248774 0.0232282 0.0215626 0.0199203 0.0183015 0.0167061 0.0151341 0.0135855 0.0120604 0.0105586 0.0091257 0.00780724 0.00660319 0.00551355 0.00453833 0.00367751 0.00293111 0.00229913 0.00176027 0.00129326 0.000898096 0.000574782 0.000323315 0.000143695 3.59238e-05 0 0 2.43001e-05 9.72003e-05 0.000218701 0.000388801 0.000607502 0.000874803 0.0011907 0.00155521 0.0019886 0.00251118 0.00312294 0.00382389 0.00461403 0.00549335 0.00646186 0.00751955 0.00863693 0.0097845 0.0109623 0.0121702 0.0134083 0.0146766 0.0159752 0.0173039 0.0186338 0.019936 0.0212104 0.0224571 0.0236761 0.0248673 0.0260308 0.0271665 0.0282644 0.0293143 0.0303163 0.0312703 0.0321764 0.0330345 0.0338447 0.0346069 0.0353285 0.0360169 0.0366721 0.0372941 0.0378828 0.0384383 0.0389606 0.0394497 0.0399199 0.0403858 0.0408472 0.0413043 0.041757 0.0422052 0.0426491 0.0430886 0.0435313 0.043985 0.0444496 0.0449251 0.0454116 0.045909 0.0464173 0.0469365 0.0474587 0.0479758 0.0484878 0.0489948 0.0494967 0.0499935 0.0504853 0.050972 0.0514321 0.051844 0.0522078 0.0525234 0.0527908 0.0530101 0.0531812 0.0533042 0.0533567 0.0533162 0.0531828 0.0529566 0.0526374 0.0522253 0.0517203 0.0511224 0.0504246 0.04962 0.0487086 0.0476903 0.0465653 0.0453334 0.0439947 0.0425492 0.0410164 0.0394158 0.0377475 0.0360114 0.0342075 0.0323359 0.0303966 0.0283895 0.0263625 0.0243635 0.0223926 0.0204496 0.0185347 0.0166478 0.0147889 0.012958 0.0112103 0.00960069 0.00812931 0.00679612 0.00560112 0.00454431 0.0036257 0.00284529 0.00217842 0.00160047 0.00111144 0.000711321 0.000400118 0.00017783 4.44576e-05 0 0 3.00864e-05 0.000120346 0.000270778 0.000481382 0.00075216 0.00108311 0.00147423 0.00192553 0.00246032 0.00310191 0.00385032 0.00470554 0.00566757 0.0067364 0.00791205 0.00919451 0.0105483 0.0119378 0.0133632 0.0148243 0.0163213 0.017854 0.0194225 0.0210269 0.0226325 0.0242051 0.0257445 0.0272507 0.0287239 0.0301639 0.0315708 0.0329446 0.034273 0.0355439 0.0367572 0.037913 0.0390112 0.0400519 0.0410349 0.0419605 0.0428371 0.0436732 0.044469 0.0452244 0.0459395 0.0466141 0.0472484 0.0478422 0.0484128 0.0489771 0.0495351 0.0500869 0.0506324 0.0511716 0.0517046 0.0522314 0.052761 0.0533026 0.0538561 0.0544217 0.0549993 0.0555888 0.0561903 0.0568038 0.0574199 0.0580291 0.0586314 0.0592268 0.0598153 0.0603969 0.0609716 0.0615395 0.062075 0.0625526 0.0629723 0.0633341 0.063638 0.063884 0.0640722 0.0642024 0.0642483 0.0641835 0.0640078 0.0637213 0.0633241 0.062816 0.0621971 0.0614675 0.060619 0.0596434 0.0585409 0.0573115 0.055955 0.0544715 0.0528611 0.0511237 0.0492826 0.0473612 0.0453595 0.0432775 0.0411151 0.0388724 0.0365494 0.0341461 0.0317191 0.029325 0.026964 0.0246358 0.0223406 0.0200784 0.0178491 0.0156528 0.013555 0.0116213 0.00985185 0.00824652 0.00680533 0.00552829 0.0044154 0.00346666 0.00265416 0.00195 0.00135416 0.000866665 0.000487499 0.000216666 5.41666e-05 0 0 3.66829e-05 0.000146732 0.000330146 0.000586926 0.000917072 0.00132058 0.00179746 0.00234771 0.0029977 0.00377385 0.00467613 0.00570456 0.00685914 0.00813986 0.00954672 0.0110797 0.0126967 0.0143556 0.0160563 0.0177989 0.0195833 0.0214096 0.0232777 0.0251877 0.0270991 0.0289715 0.0308049 0.0325993 0.0343547 0.036071 0.0377484 0.0393867 0.0409715 0.0424881 0.0439367 0.0453171 0.0466293 0.0478735 0.0490495 0.0501575 0.0512071 0.0522084 0.0531612 0.0540657 0.0549218 0.0557295 0.0564888 0.0571997 0.0578821 0.058556 0.0592213 0.0598781 0.0605263 0.061166 0.0617971 0.0624197 0.0630444 0.063682 0.0643325 0.0649958 0.065672 0.0663611 0.067063 0.0677778 0.0684946 0.0692022 0.0699007 0.0705902 0.0712705 0.0719418 0.072604 0.0732571 0.0738713 0.0744169 0.0748939 0.0753023 0.0756421 0.0759133 0.0761158 0.0762498 0.0762842 0.0761884 0.0759623 0.0756059 0.0751192 0.0745022 0.0737549 0.0728773 0.0718601 0.0706941 0.0693792 0.0679155 0.0663028 0.0645414 0.062631 0.0605718 0.0583912 0.0561167 0.0537484 0.0512861 0.0487299 0.0460799 0.0433359 0.0404981 0.0376324 0.0348049 0.0320157 0.0292647 0.0265519 0.0238773 0.0212409 0.0186427 0.0161598 0.0138692 0.0117708 0.00986475 0.00815096 0.00662944 0.00530021 0.00416326 0.00318749 0.00234183 0.00162627 0.00104081 0.000585458 0.000260203 6.50509e-05 0 0 4.40896e-05 0.000176358 0.000396806 0.000705434 0.00110224 0.00158723 0.00216039 0.00282173 0.00360076 0.00452698 0.00560038 0.00682097 0.00818875 0.00970371 0.0113659 0.0131752 0.0150823 0.0170378 0.0190417 0.0210939 0.0231945 0.0253434 0.0275408 0.0297864 0.0320336 0.0342354 0.0363918 0.0385028 0.0405684 0.0425886 0.0445634 0.0464928 0.0483597 0.050147 0.0518546 0.0534825 0.0550308 0.0564995 0.0578885 0.0591978 0.0604387 0.0616224 0.0627488 0.0638179 0.0648298 0.0657845 0.0666819 0.0675221 0.068328 0.0691226 0.069906 0.0706781 0.0714389 0.0721884 0.0729266 0.0736536 0.0743817 0.0751234 0.0758786 0.0766475 0.0774299 0.0782259 0.0790354 0.0798586 0.0806827 0.0814951 0.0822959 0.083085 0.0838624 0.0846282 0.0853822 0.0861247 0.0868211 0.0874371 0.0879728 0.0884282 0.0888032 0.0890979 0.0893123 0.0894463 0.0894644 0.0893311 0.0890464 0.0886103 0.0880228 0.0872839 0.0863935 0.0853518 0.0841481 0.082772 0.0812234 0.0795023 0.0776088 0.0755429 0.0733044 0.0708936 0.0683422 0.0656824 0.0629141 0.0600373 0.057052 0.0539583 0.0507561 0.0474454 0.0441024 0.0408032 0.0375478 0.0343362 0.0311684 0.0280445 0.0249643 0.0219279 0.0190248 0.0163442 0.0138862 0.0116508 0.009638 0.00784777 0.00628013 0.00493507 0.00377841 0.00277598 0.00192776 0.00123377 0.000693994 0.000308442 7.71104e-05 0 0 5.23065e-05 0.000209226 0.000470759 0.000836904 0.00130766 0.00188303 0.00256302 0.00334762 0.00426949 0.00536131 0.00662306 0.00805476 0.00965639 0.011428 0.0133695 0.0154809 0.017705 0.0199845 0.0223192 0.0247093 0.0271547 0.0296555 0.0322116 0.034823 0.037436 0.0399967 0.0425051 0.0449612 0.0473651 0.0497167 0.052016 0.054263 0.0564378 0.0585205 0.060511 0.0624094 0.0642157 0.0659298 0.0675518 0.0690816 0.0705319 0.0719152 0.0732316 0.074481 0.0756635 0.0767791 0.0778277 0.0788094 0.0797504 0.0806769 0.081589 0.0824867 0.0833699 0.0842387 0.0850931 0.085933 0.0867727 0.0876266 0.0884946 0.0893766 0.0902728 0.0911831 0.0921075 0.0930461 0.0939843 0.0949079 0.0958169 0.0967113 0.097591 0.098456 0.0993065 0.100142 0.100924 0.101613 0.102209 0.102712 0.103121 0.103438 0.103661 0.103792 0.103789 0.103611 0.10326 0.102735 0.102035 0.101161 0.100113 0.0988909 0.0974829 0.0958771 0.0940735 0.0920721 0.089873 0.0874761 0.0848814 0.0820889 0.0791356 0.0760581 0.0728566 0.0695311 0.0660814 0.0625077 0.0588099 0.0549881 0.0511291 0.0473198 0.0435603 0.0398504 0.0361903 0.03258 0.0290193 0.0255084 0.0221499 0.0190464 0.016198 0.0136047 0.0112665 0.00918328 0.00735515 0.0057821 0.00442692 0.00325243 0.00225863 0.00144552 0.000813107 0.000361381 9.03452e-05 0 0 6.13336e-05 0.000245335 0.000552003 0.000981338 0.00153334 0.00220801 0.00300535 0.00392535 0.00500389 0.00627683 0.00774418 0.00940592 0.0112621 0.0133126 0.0155576 0.0179969 0.0205649 0.0231956 0.025889 0.0286452 0.0314641 0.0343458 0.0372903 0.0402975 0.0433062 0.0462553 0.0491448 0.0519745 0.0547447 0.0574552 0.060106 0.0626971 0.0652057 0.0676086 0.069906 0.0720977 0.0741839 0.0761644 0.0780394 0.0798087 0.0814866 0.0830869 0.0846097 0.0860551 0.0874229 0.0887133 0.0899262 0.0910616 0.0921493 0.0932189 0.0942705 0.095304 0.0963195 0.097317 0.0982965 0.0992579 0.100218 0.101192 0.10218 0.103183 0.104201 0.105233 0.106279 0.10734 0.108399 0.109441 0.110464 0.111469 0.112456 0.113425 0.114377 0.11531 0.116181 0.116945 0.117602 0.118153 0.118596 0.118933 0.119163 0.119287 0.119257 0.11903 0.118603 0.117979 0.117155 0.116134 0.114913 0.113495 0.111864 0.110009 0.107929 0.105625 0.103095 0.100341 0.0973618 0.0941579 0.0907713 0.087244 0.083576 0.0797674 0.0758181 0.0717281 0.0674975 0.0631261 0.0587125 0.0543548 0.0500531 0.0458073 0.0416176 0.0374838 0.033406 0.0293841 0.0255351 0.0219758 0.0187063 0.0157265 0.0130363 0.010636 0.00852529 0.00670434 0.00513301 0.00377119 0.00261888 0.00167609 0.000942798 0.000419021 0.000104755 0 0 7.10268e-05 0.000284107 0.000639241 0.00113643 0.00177567 0.00255697 0.00348031 0.00454572 0.00579226 0.00725902 0.00894601 0.0108532 0.0129807 0.0153283 0.0178962 0.0206843 0.0236177 0.0266216 0.029696 0.0328408 0.0360561 0.0393418 0.042698 0.0461247 0.0495528 0.0529135 0.0562068 0.0594326 0.0625909 0.0656818 0.0687053 0.0716613 0.0745236 0.0772661 0.0798888 0.0823916 0.0847745 0.0870376 0.0891808 0.0912042 0.0931233 0.0949535 0.0966949 0.0983474 0.0999111 0.101386 0.102772 0.104069 0.105311 0.10653 0.107728 0.108903 0.110056 0.111187 0.112295 0.113382 0.114464 0.115562 0.116673 0.117799 0.11894 0.120095 0.121264 0.122448 0.123628 0.124787 0.125924 0.127039 0.128133 0.129205 0.130255 0.131284 0.132241 0.133077 0.133792 0.134386 0.134858 0.13521 0.13544 0.13555 0.135487 0.1352 0.13469 0.133956 0.132999 0.131818 0.130413 0.128784 0.126917 0.124798 0.122426 0.119801 0.116924 0.113794 0.110411 0.106776 0.102936 0.0989374 0.0947815 0.0904678 0.0859964 0.0813672 0.0765803 0.0716357 0.0666434 0.0617136 0.0568462 0.0520411 0.0472985 0.0426183 0.0380006 0.0334452 0.0290839 0.0250483 0.0213384 0.0179542 0.0148956 0.0121628 0.00975571 0.00767429 0.00587563 0.00431679 0.00299777 0.00191857 0.0010792 0.000479643 0.000119911 0 0 8.12419e-05 0.000324968 0.000731177 0.00129987 0.00203105 0.00292471 0.00398085 0.00519948 0.00662288 0.00829333 0.0102108 0.0123754 0.014787 0.0174456 0.0203513 0.0235041 0.0268195 0.0302132 0.0336852 0.0372355 0.0408641 0.0445709 0.048356 0.0522195 0.0560842 0.0598734 0.063587 0.0672251 0.0707875 0.0742744 0.0776857 0.0810214 0.0842519 0.0873477 0.0903088 0.0931351 0.0958267 0.0983835 0.100806 0.103093 0.105262 0.107331 0.109299 0.111165 0.112931 0.114596 0.11616 0.117623 0.119022 0.120394 0.121739 0.123057 0.124348 0.125611 0.126848 0.128058 0.129262 0.130479 0.13171 0.132956 0.134215 0.135488 0.136775 0.138077 0.139372 0.140642 0.141885 0.143104 0.144296 0.145463 0.146604 0.147719 0.148754 0.149653 0.150417 0.151045 0.151537 0.151894 0.152115 0.152201 0.152094 0.151739 0.151135 0.150281 0.149179 0.147828 0.146228 0.14438 0.142266 0.139872 0.137198 0.134243 0.131008 0.127492 0.123696 0.119619 0.115315 0.110836 0.106182 0.101354 0.0963506 0.0911728 0.0858203 0.080293 0.0747129 0.0692017 0.0637594 0.058386 0.0530816 0.0478461 0.0426795 0.0375818 0.0326996 0.0281796 0.0240217 0.020226 0.0167924 0.0137209 0.0110116 0.00866443 0.0066337 0.00487374 0.00338454 0.00216611 0.00121844 0.000541527 0.000135382 0 0 9.1979e-05 0.000367916 0.000827811 0.00147166 0.00229947 0.00331124 0.00450697 0.00588665 0.00749576 0.00937976 0.0115386 0.0139724 0.0166811 0.0196646 0.022923 0.0264564 0.0301702 0.0339704 0.0378567 0.0418293 0.0458881 0.0500331 0.0542644 0.0585819 0.0629005 0.067135 0.0712855 0.075352 0.0793344 0.0832328 0.0870471 0.0907774 0.0943905 0.0978534 0.101166 0.104328 0.10734 0.110202 0.112914 0.115475 0.117904 0.120219 0.122421 0.124509 0.126483 0.128343 0.13009 0.131722 0.133282 0.134809 0.136303 0.137765 0.139194 0.140591 0.141955 0.143287 0.144609 0.145944 0.147292 0.148652 0.150026 0.151413 0.152813 0.154226 0.15563 0.157004 0.158348 0.159662 0.160946 0.1622 0.163423 0.164617 0.165721 0.166674 0.167477 0.16813 0.168633 0.168985 0.169187 0.169239 0.169079 0.168645 0.167936 0.166954 0.165697 0.164166 0.162361 0.160282 0.157911 0.155232 0.152246 0.14895 0.145347 0.141435 0.137215 0.132687 0.127909 0.122939 0.117778 0.112425 0.106881 0.101145 0.0952173 0.0890981 0.0829209 0.0768191 0.0707929 0.0648421 0.0589668 0.053167 0.0474427 0.0417938 0.0363823 0.0313698 0.0267563 0.0225419 0.0187265 0.0153102 0.012293 0.00967475 0.00740723 0.00544205 0.0037792 0.00241869 0.00136051 0.000604672 0.000151168 0 0 0.000103238 0.000412952 0.000929142 0.00165181 0.00258095 0.00371657 0.00505866 0.00660723 0.0084109 0.0105183 0.0129294 0.0156443 0.0186629 0.0219852 0.0256113 0.0295411 0.0336699 0.037893 0.0422104 0.0466221 0.0511281 0.0557284 0.060423 0.0652119 0.0700015 0.0746983 0.0793023 0.0838134 0.0882316 0.0925571 0.0967896 0.100929 0.104939 0.108783 0.11246 0.115971 0.119316 0.122493 0.125505 0.12835 0.131048 0.133619 0.136062 0.138378 0.140566 0.142628 0.144561 0.146368 0.148091 0.149775 0.151421 0.153028 0.154596 0.156125 0.157616 0.159068 0.160506 0.161956 0.163417 0.16489 0.166374 0.16787 0.169377 0.170895 0.172402 0.173874 0.175311 0.176714 0.178082 0.179415 0.180713 0.181977 0.183141 0.184139 0.184973 0.185642 0.186145 0.186484 0.186657 0.186666 0.186442 0.185919 0.185096 0.183974 0.182552 0.180831 0.17881 0.17649 0.173852 0.170878 0.167568 0.163923 0.159941 0.155623 0.15097 0.14598 0.140718 0.135248 0.129569 0.123683 0.117587 0.111284 0.104771 0.0980509 0.0912673 0.0845659 0.0779465 0.0714092 0.0649541 0.0585811 0.0522902 0.0460814 0.0401319 0.0346188 0.0295422 0.0249019 0.0206981 0.0169308 0.0135998 0.0107053 0.00819622 0.00602171 0.00418175 0.00267632 0.00150543 0.000669079 0.00016727 0 0 0.000115019 0.000460076 0.00103517 0.0018403 0.00287547 0.00414068 0.00563593 0.00736121 0.0093683 0.011709 0.0143832 0.0173911 0.0207325 0.0244075 0.0284161 0.0327583 0.0373185 0.0419812 0.0467463 0.051614 0.0565842 0.0616568 0.0668319 0.0721095 0.0773874 0.0825633 0.0876373 0.0926092 0.0974792 0.102247 0.106913 0.111477 0.115899 0.120137 0.124192 0.128064 0.131752 0.135257 0.13858 0.141718 0.144695 0.147529 0.150222 0.152773 0.155182 0.157449 0.159575 0.161559 0.163449 0.165293 0.167092 0.168845 0.170553 0.172215 0.173831 0.175402 0.176954 0.178516 0.180087 0.181668 0.183258 0.184858 0.186467 0.188085 0.189689 0.191252 0.192776 0.19426 0.195704 0.197109 0.198474 0.199799 0.201014 0.202049 0.202904 0.203579 0.204074 0.20439 0.204525 0.20448 0.204182 0.20356 0.202613 0.201341 0.199744 0.197822 0.195576 0.193004 0.190089 0.18681 0.183167 0.17916 0.17479 0.170056 0.164959 0.159498 0.153742 0.147762 0.141556 0.135125 0.128469 0.121589 0.114483 0.107152 0.0997523 0.0924419 0.0852203 0.0780875 0.0710435 0.0640884 0.057222 0.0504445 0.0439485 0.0379267 0.0323793 0.0273061 0.0227072 0.0185825 0.0149321 0.011756 0.00900066 0.00661273 0.00459218 0.00293899 0.00165318 0.000734748 0.000183687 0 0 0.000127322 0.000509287 0.0011459 0.00203715 0.00318304 0.00458358 0.00623876 0.00814859 0.010368 0.0129518 0.0159 0.0192127 0.0228898 0.0269314 0.0313374 0.0361079 0.041116 0.0462348 0.0514645 0.056805 0.0622562 0.0678183 0.0734912 0.0792748 0.0850581 0.09073 0.0962905 0.10174 0.107077 0.112303 0.117418 0.122421 0.127268 0.131915 0.136361 0.140606 0.14465 0.148494 0.152137 0.15558 0.158844 0.16195 0.1649 0.167693 0.170329 0.172808 0.175131 0.177296 0.179356 0.181363 0.183317 0.185218 0.187065 0.188859 0.1906 0.192288 0.193952 0.195624 0.197302 0.198987 0.200679 0.202378 0.204083 0.205796 0.20749 0.209138 0.210741 0.2123 0.213813 0.215281 0.216704 0.218082 0.21934 0.220403 0.221271 0.221943 0.222421 0.222703 0.22279 0.222681 0.2223 0.221569 0.220488 0.219056 0.217274 0.215141 0.212658 0.209825 0.206622 0.203026 0.19904 0.194663 0.189894 0.184734 0.179183 0.17324 0.166981 0.16048 0.153738 0.146754 0.139528 0.13206 0.124351 0.1164 0.108376 0.100447 0.0926143 0.0848769 0.0772351 0.0696888 0.0622381 0.054883 0.047832 0.0412935 0.0352676 0.0297543 0.0247536 0.0202654 0.0162899 0.0128269 0.00982056 0.00721511 0.00501049 0.00320672 0.00180378 0.000801679 0.00020042 0 0 0.000140147 0.000560586 0.00126132 0.00224234 0.00350366 0.00504527 0.00686718 0.00896938 0.0114099 0.0142467 0.0174798 0.0211092 0.0251349 0.029557 0.0343753 0.03959 0.0450624 0.050654 0.0563649 0.062195 0.0681443 0.0742129 0.0804007 0.0867077 0.0930137 0.0991985 0.105262 0.111204 0.117025 0.122725 0.128304 0.133761 0.139048 0.144117 0.148967 0.153598 0.15801 0.162204 0.166179 0.169935 0.173495 0.176882 0.180097 0.183139 0.186008 0.188705 0.191228 0.193579 0.195813 0.197985 0.200095 0.202144 0.204132 0.206058 0.207923 0.209726 0.2115 0.213278 0.21506 0.216846 0.218636 0.220429 0.222226 0.224027 0.225805 0.227532 0.229208 0.230833 0.232408 0.233932 0.235406 0.236828 0.23812 0.239202 0.240073 0.240733 0.241183 0.241423 0.241452 0.241271 0.240796 