<?xml version="1.0"?> 
<VTKFile type="StructuredGrid" version="0.1"> 
<StructuredGrid WholeExtent="0 128 0 128 0 0"> 
<Piece Extent="0 128 0 128 0 0"> 
<PointData>
<DataArray type="Float32" Name="u" format="ascii" NumberOfComponents="1"> 
0 0 0 0 0 0 0 0 0 0 0 0 0 0 0 0 0 0 0 0 0 0 0 0 0 0 0 0 0 0 0 0 0 0 0 0 0 0 0 0 0 0 0 0 0 0 0 0 0 0 0 0 0 0 0 0 0 0 0 0 0 0 0 0 0 0 0 0 0 0 0 0 0 0 0 0 0 0 0 0 0 0 0 0 0 0 0 0 0 0 0 0 0 0 0 0 0 0 0 0 0 0 0 0 0 0 0 0 0 0 0 0 0 0 0 0 0 0 0 0 0 0 0 0 0 0 0 0 0 0 2.3801e-07 9.5204e-07 2.14209e-06 3.80816e-06 5.95025e-06 8.56836e-06 1.16625e-05 1.52326e-05 1.94728e-05 2.45769e-05 3.0545e-05 3.73771e-05 4.50732e-05 5.36333e-05 6.30574e-05 7.33454e-05 8.41611e-05 9.51682e-05 0.000106367 0.000117756 0.000129338 0.00014111 0.000153074 0.000165229 0.00017727 0.000188889 0.000200088 0.000210865 0.000221221 0.000231157 0.000240671 0.000249764 0.000258365 0.000266404 0.000273879 0.000280792 0.000287142 0.000292929 0.000298154 0.000302815 0.000307053 0.000311006 0.000314673 0.000318055 0.000321152 0.000323964 0.00032649 0.000328731 0.000330902 0.000333217 0.000335676 0.000338279 0.000341025 0.000343916 0.000346951 0.00035013 0.00035357 0.000357386 0.000361579 0.000366149 0.000371095 0.000376418 0.000382118 0.000388195 0.000394554 0.000401099 0.000407832 0.000414752 0.000421859 0.000429153 0.000436635 0.000444303 0.000451876 0.000459073 0.000465891 0.000472333 0.000478397 0.000484084 0.000489394 0.000494327 0.00049857 0.000501813 0.000504054 0.000505294 0.000505532 0.00050477 0.000503006 0.000500242 0.000496341 0.000491167 0.000484722 0.000477004 0.000468014 0.000457753 0.000446219 0.000433413 0.00041952 0.000404726 0.000389031 0.000372435 0.000354937 0.000336538 0.000317238 0.000297037 0.000276473 0.000256084 0.00023587 0.000215831 0.000195968 0.000176281 0.000156768 0.000137431 0.000118913 0.000101856 8.62613e-05 7.21285e-05 5.94577e-05 4.82487e-05 3.85017e-05 3.02166e-05 2.31346e-05 1.69968e-05 1.18034e-05 7.55415e-06 4.24921e-06 1.88854e-06 4.72134e-07 0 0 9.5204e-07 3.80816e-06 8.56836e-06 1.52326e-05 2.3801e-05 3.42734e-05 4.66499e-05 6.09305e-05 7.78911e-05 9.83077e-05 0.00012218 0.000149509 0.000180293 0.000214533 0.000252229 0.000293382 0.000336644 0.000380673 0.000425467 0.000471026 0.000517351 0.000564441 0.000612297 0.000660918 0.00070908 0.000755557 0.000800351 0.00084346 0.000884885 0.000924626 0.000962683 0.000999055 0.00103346 0.00106561 0.00109552 0.00112317 0.00114857 0.00117172 0.00119262 0.00121126 0.00122821 0.00124402 0.00125869 0.00127222 0.00128461 0.00129585 0.00130596 0.00131493 0.00132361 0.00133287 0.0013427 0.00135311 0.0013641 0.00137567 0.00138781 0.00140052 0.00141428 0.00142954 0.00144632 0.0014646 0.00148438 0.00150567 0.00152847 0.00155278 0.00157821 0.0016044 0.00163133 0.00165901 0.00168744 0.00171661 0.00174654 0.00177721 0.00180751 0.00183629 0.00186357 0.00188933 0.00191359 0.00193634 0.00195758 0.00197731 0.00199428 0.00200725 0.00201621 0.00202117 0.00202213 0.00201908 0.00201203 0.00200097 0.00198536 0.00196467 0.00193889 0.00190802 0.00187206 0.00183101 0.00178487 0.00173365 0.00167808 0.0016189 0.00155612 0.00148974 0.00141975 0.00134615 0.00126895 0.00118815 0.00110589 0.00102433 0.000943479 0.000863326 0.000783874 0.000705123 0.000627073 0.000549724 0.00047565 0.000407424 0.000345045 0.000288514 0.000237831 0.000192995 0.000154007 0.000120866 9.25383e-05 6.79873e-05 4.72134e-05 3.02166e-05 1.69968e-05 7.55415e-06 1.88854e-06 0 0 2.14209e-06 8.56836e-06 1.92788e-05 3.42734e-05 5.35522e-05 7.71152e-05 0.000104962 0.000137094 0.000175255 0.000221192 0.000274905 0.000336394 0.000405659 0.0004827 0.000567516 0.000660109 0.00075745 0.000856514 0.0009573 0.00105981 0.00116404 0.00126999 0.00137767 0.00148706 0.00159543 0.0017 0.00180079 0.00189778 0.00199099 0.00208041 0.00216604 0.00224787 0.00232529 0.00239763 0.00246491 0.00252713 0.00258428 0.00263636 0.00268338 0.00272534 0.00276348 0.00279905 0.00283206 0.0028625 0.00289037 0.00291567 0.00293841 0.00295858 0.00297812 0.00299895 0.00302108 0.00304451 0.00306923 0.00309525 0.00312256 0.00315117 0.00318213 0.00321648 0.00325421 0.00329534 0.00333986 0.00338777 0.00343906 0.00349375 0.00355098 0.00360989 0.00367049 0.00373277 0.00379673 0.00386238 0.00392971 0.00399873 0.00406689 0.00413165 0.00419302 0.004251 0.00430558 0.00435676 0.00440455 0.00444894 0.00448713 0.00451631 0.00453648 0.00454764 0.00454979 0.00454293 0.00452706 0.00450218 0.00446706 0.0044205 0.00436249 0.00429304 0.00421213 0.00411977 0.00401597 0.00390071 0.00377568 0.00364254 0.00350128 0.00335191 0.00319443 0.00302884 0.00285514 0.00267333 0.00248825 0.00230475 0.00212283 0.00194248 0.00176372 0.00158653 0.00141091 0.00123688 0.00107021 0.000916704 0.000776352 0.000649157 0.000535119 0.000434238 0.000346515 0.000271949 0.000208211 0.000152971 0.00010623 6.79873e-05 3.82429e-05 1.69968e-05 4.24921e-06 0 0 3.80816e-06 1.52326e-05 3.42734e-05 6.09305e-05 9.5204e-05 0.000137094 0.0001866 0.000243722 0.000311565 0.000393231 0.000488721 0.000598034 0.000721172 0.000858133 0.00100892 0.00117353 0.00134658 0.00152269 0.00170187 0.0018841 0.0020694 0.00225776 0.00244919 0.00264367 0.00283632 0.00302223 0.0032014 0.00337384 0.00353954 0.0036985 0.00385073 0.00399622 0.00413384 0.00426246 0.00438207 0.00449267 0.00459427 0.00468687 0.00477046 0.00484505 0.00491285 0.00497609 0.00503477 0.00508888 0.00513843 0.00518342 0.00522384 0.0052597 0.00529443 0.00533147 0.00537081 0.00541246 0.00545641 0.00550266 0.00555122 0.00560209 0.00565712 0.00571818 0.00578527 0.00585838 0.00593752 0.00602269 0.00611389 0.00621112 0.00631286 0.00641759 0.00652531 0.00663603 0.00674974 0.00686645 0.00698615 0.00710885 0.00723002 0.00734516 0.00745426 0.00755733 0.00765436 0.00774535 0.00783031 0.00790923 0.00797712 0.008029 0.00806486 0.0080847 0.00808852 0.00807632 0.0080481 0.00800387 0.00794145 0.00785867 0.00775555 0.00763206 0.00748823 0.00732404 0.0071395 0.0069346 0.00671232 0.00647562 0.0062245 0.00595895 0.00567899 0.00538461 0.00507581 0.00475259 0.00442356 0.00409734 0.00377392 0.0034533 0.00313549 0.00282049 0.00250829 0.0021989 0.0019026 0.0016297 0.00138018 0.00115406 0.000951322 0.000771979 0.000616027 0.000483465 0.000370153 0.000271949 0.000188854 0.000120866 6.79873e-05 3.02166e-05 7.55415e-06 0 0 5.95025e-06 2.3801e-05 5.35522e-05 9.5204e-05 0.000148756 0.000214209 0.000291562 0.000380816 0.00048682 0.000614423 0.000763626 0.000934428 0.00112683 0.00134083 0.00157643 0.00183363 0.00210403 0.0023792 0.00265917 0.00294391 0.00323344 0.00352776 0.00382685 0.00413074 0.00443175 0.00472223 0.00500219 0.00527162 0.00553053 0.00577891 0.00601677 0.0062441 0.00645913 0.00666009 0.00684698 0.0070198 0.00717855 0.00732323 0.00745385 0.00757039 0.00767633 0.00777514 0.00786682 0.00795138 0.0080288 0.00809909 0.00816225 0.00821828 0.00827255 0.00833042 0.00839189 0.00845696 0.00852564 0.00859791 0.00867379 0.00875326 0.00883925 0.00893465 0.00903948 0.00915372 0.00927738 0.00941046 0.00955296 0.00970487 0.00986384 0.0100275 0.0101958 0.0103688 0.0105465 0.0107288 0.0109159 0.0111076 0.0112969 0.0114768 0.0116473 0.0118083 0.0119599 0.0121021 0.0122349 0.0123582 0.0124643 0.0125453 0.0126013 0.0126323 0.0126383 0.0126192 0.0125752 0.012506 0.0124085 0.0122792 0.012118 0.0119251 0.0117004 0.0114438 0.0111555 0.0108353 0.010488 0.0101182 0.00972578 0.00931087 0.00887343 0.00841346 0.00793095 0.00742592 0.00691181 0.00640209 0.00589675 0.00539579 0.00489921 0.00440702 0.00391921 0.00343578 0.00297281 0.0025464 0.00215653 0.00180321 0.00148644 0.00120622 0.000962542 0.000755415 0.000578364 0.000424921 0.000295084 0.000188854 0.00010623 4.72134e-05 1.18034e-05 0 0 8.56836e-06 3.42734e-05 7.71152e-05 0.000137094 0.000214209 0.000308461 0.000419849 0.000548375 0.00070102 0.000884769 0.00109962 0.00134558 0.00162264 0.0019308 0.00227006 0.00264043 0.0030298 0.00342605 0.0038292 0.00423923 0.00465616 0.00507997 0.00551067 0.00594826 0.00638172 0.00680001 0.00720316 0.00759114 0.00796397 0.00832163 0.00866415 0.0089915 0.00930114 0.00959053 0.00985965 0.0101085 0.0103371 0.0105455 0.0107335 0.0109014 0.0110539 0.0111962 0.0113282 0.01145 0.0115615 0.0116627 0.0117536 0.0118343 0.0119125 0.0119958 0.0120843 0.012178 0.0122769 0.012381 0.0124903 0.0126047 0.0127285 0.0128659 0.0130168 0.0131814 0.0133594 0.0135511 0.0137563 0.013975 0.0142039 0.0144396 0.014682 0.0149311 0.0151869 0.0154495 0.0157188 0.0159949 0.0162676 0.0165266 0.0167721 0.017004 0.0172223 0.017427 0.0176182 0.0177958 0.0179485 0.0180653 0.0181459 0.0181906 0.0181992 0.0181717 0.0181082 0.0180087 0.0178683 0.017682 0.01745 0.0171721 0.0168485 0.0164791 0.0160639 0.0156029 0.0151027 0.0145701 0.0140051 0.0134076 0.0127777 0.0121154 0.0114206 0.0106933 0.00995301 0.00921901 0.00849131 0.00776993 0.00705486 0.0063461 0.00564366 0.00494752 0.00428085 0.00366681 0.00310541 0.00259663 0.00214048 0.00173695 0.00138606 0.0010878 0.000832845 0.000611886 0.000424921 0.000271949 0.000152971 6.79873e-05 1.69968e-05 0 0 1.16625e-05 4.66499e-05 0.000104962 0.0001866 0.000291562 0.000419849 0.000571462 0.000746399 0.000954166 0.00120427 0.00149671 0.00183148 0.00220859 0.00262803 0.00308981 0.00359392 0.00412389 0.00466324 0.00521197 0.00577007 0.00633754 0.0069144 0.00750063 0.00809624 0.00868622 0.00925558 0.0098043 0.0103324 0.0108398 0.0113267 0.0117929 0.0122384 0.0126599 0.0130538 0.0134201 0.0137588 0.01407 0.0143535 0.0146095 0.014838 0.0150456 0.0152393 0.015419 0.0155847 0.0157364 0.0158742 0.015998 0.0161078 0.0162142 0.0163276 0.0164481 0.0165756 0.0167102 0.0168519 0.0170006 0.0171564 0.0173249 0.0175119 0.0177174 0.0179413 0.0181837 0.0184445 0.0187238 0.0190216 0.0193331 0.0196539 0.0199838 0.0203228 0.0206711 0.0210285 0.0213951 0.0217708 0.0221419 0.0224946 0.0228287 0.0231443 0.0234415 0.0237201 0.0239803 0.024222 0.0244299 0.0245888 0.0246986 0.0247594 0.0247711 0.0247337 0.0246473 0.0245118 0.0243207 0.0240672 0.0237514 0.0233732 0.0229327 0.0224299 0.0218647 0.0212372 0.0205565 0.0198316 0.0190625 0.0182493 0.0173919 0.0164904 0.0155447 0.0145548 0.0135472 0.0125481 0.0115576 0.0105757 0.00960245 0.00863775 0.00768164 0.00673412 0.00582672 0.00499094 0.0042268 0.0035343 0.00291343 0.00236419 0.00188658 0.00148061 0.00113359 0.000832845 0.000578364 0.000370153 0.000208211 9.25383e-05 2.31346e-05 0 0 1.52326e-05 6.09305e-05 0.000137094 0.000243722 0.000380816 0.000548375 0.000746399 0.000974888 0.00124626 0.00157292 0.00195488 0.00239214 0.00288469 0.00343253 0.00403567 0.0046941 0.00538631 0.00609076 0.00680747 0.00753641 0.00827761 0.00903105 0.00979674 0.0105747 0.0113453 0.0120889 0.0128056 0.0134954 0.0141582 0.014794 0.0154029 0.0159849 0.0165354 0.0170498 0.0175283 0.0179707 0.0183771 0.0187475 0.0190818 0.0193802 0.0196514 0.0199044 0.0201391 0.0203555 0.0205537 0.0207337 0.0208954 0.0210388 0.0211777 0.0213259 0.0214832 0.0216498 0.0218256 0.0220106 0.0222049 0.0224084 0.0226285 0.0228727 0.0231411 0.0234335 0.0237501 0.0240908 0.0244556 0.0248445 0.0252514 0.0256703 0.0261013 0.0265441 0.026999 0.0274658 0.0279446 0.0284354 0.0289201 0.0293806 0.029817 0.0302293 0.0306174 0.0309814 0.0313212 0.0316369 0.0319085 0.032116 0.0322594 0.0323388 0.0323541 0.0323053 0.0321924 0.0320155 0.0317658 0.0314347 0.0310222 0.0305283 0.0299529 0.0292962 0.028558 0.0277384 0.0268493 0.0259025 0.024898 0.0238358 0.022716 0.0215384 0.0203032 0.0190104 0.0176942 0.0163893 0.0150957 0.0138132 0.012542 0.011282 0.0100332 0.00879559 0.0076104 0.00651878 0.00552072 0.00461622 0.00380529 0.00308792 0.00246411 0.00193386 0.00148061 0.0010878 0.000755415 0.000483465 0.000271949 0.000120866 3.02166e-05 0 0 1.954e-05 7.81598e-05 0.00017586 0.000312639 0.000488499 0.000703438 0.000957458 0.00125056 0.00159825 0.00201604 0.00250393 0.00306192 0.00369001 0.0043882 0.00515649 0.00599488 0.00687604 0.00777264 0.00868468 0.00961216 0.0105551 0.0115134 0.0124872 0.0134765 0.0144564 0.0154021 0.0163137 0.0171911 0.0180344 0.0188435 0.0196185 0.0203593 0.0210602 0.0217153 0.0223248 0.0228886 0.0234066 0.023879 0.0243057 0.0246866 0.0250331 0.0253562 0.0256561 0.0259327 0.0261861 0.0264161 0.0266229 0.0268064 0.026984 0.027173 0.0273735 0.0275855 0.027809 0.0280439 0.0282902 0.0285481 0.0288268 0.0291359 0.0294753 0.029845 0.030245 0.0306754 0.0311361 0.0316271 0.0321408 0.0326695 0.0332133 0.033772 0.0343457 0.0349344 0.0355382 0.036157 0.0367679 0.0373482 0.0378978 0.0384168 0.0389052 0.0393629 0.03979 0.0401864 0.0405269 0.0407864 0.0409647 0.0410619 0.041078 0.041013 0.0408669 0.0406396 0.0403204 0.0398981 0.0393728 0.0387445 0.0380133 0.037179 0.0362418 0.0352015 0.0340733 0.0328722 0.0315981 0.0302511 0.0288312 0.0273383 0.0257725 0.0241337 0.0224656 0.0208114 0.0191714 0.0175454 0.0159335 0.0143357 0.012752 0.0111823 0.00967877 0.00829354 0.00702658 0.00587789 0.00484747 0.00393532 0.00314145 0.00246585 0.00188792 0.00138704 0.000963223 0.000616463 0.00034676 0.000154116 3.85289e-05 0 0 2.48456e-05 9.93824e-05 0.000223611 0.00039753 0.00062114 0.000894442 0.00121743 0.00159012 0.00203108 0.00255892 0.00317362 0.00387519 0.00466362 0.00553893 0.00650111 0.00755015 0.00865208 0.00977289 0.0109126 0.0120712 0.0132487 0.0144451 0.0156604 0.0168946 0.018117 0.0192972 0.0204351 0.0215307 0.022584 0.0235949 0.0245636 0.02549 0.0263669 0.027187 0.0279503 0.0286569 0.0293067 0.0298998 0.0304362 0.0309157 0.0313523 0.0317597 0.0321378 0.0324866 0.0328063 0.0330967 0.0333578 0.0335897 0.0338138 0.0340515 0.0343028 0.0345676 0.0348461 0.0351382 0.0354439 0.0357631 0.0361076 0.0364891 0.0369074 0.0373627 0.0378549 0.038384 0.03895 0.0395529 0.0401834 0.040832 0.0414987 0.0421835 0.0428864 0.0436075 0.0443466 0.0451039 0.0458513 0.0465605 0.0472317 0.0478648 0.0484598 0.0490167 0.0495356 0.0500164 0.050428 0.0507395 0.0509508 0.0510619 0.0510728 0.0509835 0.0507941 0.0505044 0.0501012 0.0495709 0.0489136 0.0481293 0.0472179 0.0461796 0.0450142 0.0437218 0.0423209 0.0408302 0.0392496 0.0375791 0.0358188 0.0339686 0.0320286 0.0299987 0.0279324 0.0258831 0.0238508 0.0218355 0.0198372 0.017856 0.0158918 0.0139446 0.0120787 0.0103584 0.00878377 0.00735475 0.00607136 0.00493358 0.00394143 0.00309489 0.00236953 0.00174088 0.00120894 0.000773723 0.000435219 0.000193431 4.83577e-05 0 0 3.11496e-05 0.000124598 0.000280346 0.000498394 0.00077874 0.00112139 0.00152633 0.00199357 0.00254477 0.00320156 0.00396395 0.00483195 0.00580554 0.00688473 0.00806953 0.00935992 0.0107144 0.0120915 0.0134912 0.0149136 0.0163585 0.017826 0.0193162 0.0208289 0.0223273 0.0237742 0.0251698 0.0265141 0.0278069 0.0290483 0.0302384 0.0313771 0.0324555 0.0334647 0.0344048 0.0352757 0.0360774 0.03681 0.0374734 0.0380676 0.0386092 0.0391147 0.039584 0.0400172 0.0404143 0.0407753 0.0411001 0.0413888 0.0416672 0.0419613 0.042271 0.0425962 0.0429371 0.0432936 0.0436657 0.0440534 0.0444709 0.0449322 0.0454375 0.0459866 0.0465795 0.0472164 0.0478972 0.0486218 0.049379 0.0501576 0.0509574 0.0517786 0.0526211 0.0534848 0.0543699 0.0552763 0.0561702 0.0570176 0.0578185 0.0585731 0.0592812 0.0599428 0.0605581 0.0611268 0.0616118 0.0619754 0.0622177 0.0623387 0.0623384 0.0622169 0.061974 0.0616098 0.0611082 0.0604531 0.0596445 0.0586824 0.0575668 0.0562977 0.0548751 0.053299 0.0515919 0.0497764 0.0478523 0.0458199 0.0436789 0.0414295 0.0390716 0.0366052 0.0340947 0.0316042 0.0291337 0.0266834 0.024253 0.0218428 0.0194526 0.0170824 0.0148101 0.0127134 0.0107923 0.00904683 0.00747696 0.00608269 0.00486403 0.00382098 0.00292544 0.0021493 0.00149257 0.000955245 0.000537325 0.000238811 5.97028e-05 0 0 3.84519e-05 0.000153808 0.000346067 0.000615231 0.000961298 0.00138427 0.00188414 0.00246092 0.0031393 0.00394397 0.00487494 0.0059322 0.00711575 0.0084256 0.00986175 0.0114242 0.0130631 0.0147285 0.0164206 0.0181392 0.0198844 0.0216562 0.0234546 0.0252795 0.0270871 0.0288332 0.0305179 0.0321412 0.0337032 0.0352037 0.0366428 0.0380205 0.039326 0.0405486 0.0416882 0.0427449 0.0437186 0.0446094 0.0454173 0.0461422 0.0468037 0.0474212 0.0479948 0.0485245 0.0490102 0.0494519 0.0498498 0.0502036 0.0505443 0.0509024 0.0512781 0.0516713 0.052082 0.0525102 0.0529558 0.053419 0.0539166 0.0544654 0.0550654 0.0557166 0.0564191 0.0571728 0.0579777 0.0588338 0.0597278 0.0606464 0.0615896 0.0625574 0.0635497 0.0645666 0.0656081 0.0666742 0.0677246 0.0687194 0.0696585 0.0705418 0.0713694 0.0721412 0.0728574 0.0735178 0.0740781 0.074494 0.0747655 0.0748924 0.0748749 0.074713 0.0744066 0.0739558 0.0733415 0.0725448 0.0715656 0.070404 0.06906 0.0675336 0.0658247 0.0639333 0.0618864 0.0597108 0.0574064 0.0549733 0.0524114 0.0497208 0.0469014 0.0439534 0.0409525 0.0379748 0.0350204 0.0320891 0.029181 0.0262961 0.0234344 0.0205959 0.0178731 0.0153585 0.0130522 0.0109541 0.00906427 0.00738265 0.00590927 0.00464412 0.00355565 0.00261232 0.00181411 0.00116103 0.000653079 0.000290257 7.25644e-05 0 0 4.67526e-05 0.00018701 0.000420773 0.000748041 0.00116881 0.00168309 0.00229088 0.00299216 0.00381468 0.00478615 0.00590657 0.00717594 0.00859427 0.0101615 0.0118778 0.0137429 0.015698 0.0176839 0.0197006 0.0217481 0.0238265 0.0259356 0.0280756 0.0302464 0.0323964 0.0344741 0.0364793 0.0384123 0.0402728 0.042061 0.0437768 0.0454202 0.0469784 0.0484385 0.0498006 0.0510645 0.0522304 0.0532982 0.0542679 0.0551396 0.0559358 0.0566794 0.0573702 0.0580084 0.0585939 0.0591267 0.0596068 0.0600342 0.0604449 0.0608749 0.0613242 0.0617928 0.0622806 0.0627878 0.0633142 0.0638599 0.0644448 0.0650885 0.0657913 0.0665529 0.0673735 0.068253 0.0691915 0.0701889 0.0712297 0.0722985 0.0733952 0.0745198 0.0756723 0.0768527 0.0780611 0.0792974 0.0805147 0.081666 0.0827514 0.0837709 0.0847244 0.085612 0.0864336 0.0871893 0.0878272 0.0882954 0.088594 0.088723 0.0886823 0.088472 0.088092 0.0875424 0.086801 0.0858459 0.0846769 0.0832941 0.0816975 0.079887 0.0778628 0.0756247 0.0732044 0.0706334 0.0679118 0.0650394 0.0620163 0.0588426 0.0555182 0.0520431 0.0485058 0.044995 0.0415106 0.0380526 0.0346211 0.0312159 0.0278372 0.0244849 0.0212676 0.0182938 0.0155634 0.0130766 0.0108333 0.00883346 0.00707713 0.00556431 0.00426017 0.00312992 0.00217356 0.00139108 0.000782481 0.000347769 8.69423e-05 0 0 5.60515e-05 0.000224206 0.000504464 0.000896825 0.00140129 0.00201786 0.00274653 0.0035873 0.00457091 0.00572809 0.00705885 0.00856317 0.0102411 0.0120925 0.0141176 0.0163162 0.0186193 0.0209576 0.0233313 0.0257403 0.0281847 0.0306643 0.0331793 0.0357295 0.0382553 0.0406969 0.0430541 0.0453271 0.0475158 0.0496202 0.0516404 0.0535763 0.0554127 0.0571346 0.0587419 0.0602346 0.0616127 0.0628763 0.0640252 0.0650596 0.0660055 0.0668891 0.0677102 0.068469 0.0691655 0.0697995 0.0703712 0.0708806 0.0713692 0.0718788 0.0724093 0.0729607 0.0735332 0.0741265 0.0747409 0.0753761 0.0760554 0.0768017 0.077615 0.0784954 0.0794428 0.0804572 0.0815386 0.0826871 0.0838847 0.0851138 0.0863741 0.0876658 0.0889889 0.0903432 0.091729 0.0931461 0.0945403 0.0958574 0.0970974 0.0982604 0.0993462 0.100355 0.101287 0.102141 0.102859 0.10338 0.103703 0.10383 0.10376 0.103494 0.10303 0.10237 0.101487 0.100356 0.0989783 0.0973526 0.0954792 0.0933582 0.0909895 0.0883732 0.0855459 0.0825443 0.0793684 0.0760182 0.0724937 0.0687949 0.0649218 0.0608744 0.0567546 0.0526647 0.0486045 0.044574 0.0405733 0.0366023 0.0326611 0.0287496 0.0249936 0.0215191 0.018326 0.0154143 0.012784 0.0104351 0.00836763 0.00658155 0.005039 0.00370212 0.00257092 0.00164539 0.00092553 0.000411347 0.000102837 0 0 6.63489e-05 0.000265395 0.00059714 0.00106158 0.00165872 0.00238856 0.00325109 0.00424633 0.00540799 0.0067698 0.00833177 0.0100939 0.0120562 0.0142186 0.0165812 0.019144 0.0218268 0.0245498 0.0273128 0.0301159 0.032959 0.0358423 0.0387656 0.041729 0.0446638 0.0475016 0.0502422 0.0528857 0.0554321 0.0578814 0.0602336 0.0624887 0.064629 0.0666368 0.0685122 0.0702551 0.0718656 0.0733437 0.0746893 0.0759024 0.0770129 0.0780503 0.0790148 0.0799063 0.0807249 0.0814704 0.082143 0.0827427 0.083317 0.0839139 0.0845333 0.0851752 0.0858395 0.0865264 0.0872358 0.0879676 0.0887485 0.0896048 0.0905367 0.091544 0.0926269 0.0937852 0.0950191 0.0963284 0.0976929 0.0990922 0.100526 0.101995 0.103499 0.105038 0.106612 0.10822 0.109801 0.111294 0.112696 0.11401 0.115235 0.11637 0.117417 0.118374 0.119173 0.119746 0.120094 0.120215 0.12011 0.119778 0.119221 0.118437 0.117399 0.116076 0.11447 0.112579 0.110405 0.107947 0.105205 0.102179 0.0989109 0.0954434 0.0917764 0.0879098 0.0838435 0.0795777 0.0751122 0.0704472 0.065699 0.0609839 0.056302 0.0516532 0.0470376 0.0424552 0.0379059 0.0333898 0.0290512 0.0250346 0.02134 0.0179672 0.0149165 0.0121876 0.00978076 0.00769583 0.00589212 0.00432891 0.00300618 0.00192396 0.00108223 0.00048099 0.000120247 0 0 7.76445e-05 0.000310578 0.0006988 0.00124231 0.00194111 0.0027952 0.00380458 0.00496925 0.00632591 0.00791128 0.00972534 0.0117681 0.0140396 0.0165398 0.0192686 0.0222262 0.0253207 0.0284603 0.0316449 0.0348747 0.0381495 0.0414695 0.0448345 0.0482446 0.0516219 0.0548882 0.0580436 0.0610882 0.0640218 0.0668446 0.0695564 0.0721574 0.0746271 0.0769451 0.0791114 0.0811261 0.082989 0.0847003 0.08626 0.0876679 0.0889578 0.0901631 0.091284 0.0923203 0.0932721 0.0941394 0.0949222 0.0956205 0.0962885 0.0969804 0.0976963 0.098436 0.0991997 0.0999874 0.100799 0.101634 0.102524 0.103498 0.104556 0.105699 0.106926 0.108237 0.109633 0.111113 0.112654 0.114234 0.115852 0.117509 0.119204 0.120937 0.122709 0.12452 0.126298 0.127974 0.129549 0.131021 0.13239 0.133658 0.134823 0.135887 0.13677 0.137396 0.137765 0.137876 0.137729 0.137326 0.136664 0.135746 0.134537 0.133006 0.131152 0.128975 0.126475 0.123653 0.120509 0.117041 0.113299 0.109331 0.105136 0.100714 0.0960658 0.091191 0.0860896 0.0807617 0.0753388 0.0699526 0.0646031 0.0592902 0.0540141 0.0487746 0.0435717 0.0384056 0.0334403 0.0288402 0.0246052 0.0207354 0.0172306 0.014091 0.0113165 0.00890717 0.00681955 0.00501028 0.00347936 0.00222679 0.00125257 0.000556698 0.000139175 0 0 8.9746e-05 0.000358984 0.000807714 0.00143594 0.00224365 0.00323086 0.00439756 0.00574375 0.00730907 0.00913318 0.0112161 0.0135577 0.0161582 0.0190174 0.0221355 0.0255123 0.0290436 0.0326251 0.0362569 0.039939 0.0436712 0.0474538 0.0512865 0.0551695 0.0590149 0.0627349 0.0663295 0.0697987 0.0731425 0.0763608 0.0794537 0.0824213 0.0852401 0.0878869 0.0903617 0.0926645 0.0947954 0.0967542 0.098541 0.100156 0.101636 0.10302 0.104306 0.105496 0.106588 0.107584 0.108482 0.109284 0.11005 0.110841 0.111656 0.112497 0.113362 0.114253 0.115168 0.116109 0.117108 0.118201 0.119387 0.120665 0.122038 0.123503 0.125061 0.126713 0.128432 0.130193 0.131996 0.133841 0.135728 0.137657 0.139628 0.141641 0.143617 0.145477 0.147222 0.148851 0.150364 0.151762 0.153044 0.15421 0.155174 0.155848 0.156232 0.156327 0.156132 0.155647 0.154872 0.153808 0.152418 0.150665 0.148549 0.146071 0.14323 0.140027 0.136461 0.132532 0.128296 0.123804 0.119059 0.114059 0.108804 0.103296 0.097533 0.0915157 0.0853913 0.0793072 0.0732632 0.0672595 0.0612959 0.0553726 0.0494894 0.0436464 0.0380285 0.0328203 0.028022 0.0236335 0.0196547 0.0160858 0.0129268 0.0101775 0.00779213 0.00572483 0.00397558 0.00254437 0.00143121 0.000636093 0.000159023 0 0 0.000102461 0.000409844 0.000922149 0.00163938 0.00256153 0.0036886 0.00502059 0.0065575 0.00834186 0.0104162 0.0127805 0.0154347 0.018379 0.0216131 0.0251373 0.0289514 0.0329382 0.0369804 0.0410779 0.0452309 0.0494392 0.0537029 0.058022 0.0623965 0.0667285 0.07092 0.074971 0.0788815 0.0826516 0.0862812 0.0897704 0.093119 0.0963009 0.0992896 0.102085 0.104688 0.107097 0.109313 0.111336 0.113166 0.114844 0.116412 0.117869 0.119217 0.120454 0.121581 0.122597 0.123504 0.124367 0.125257 0.126171 0.127111 0.128076 0.129066 0.130082 0.131123 0.132227 0.133433 0.13474 0.136149 0.13766 0.139272 0.140986 0.142801 0.144689 0.146623 0.148603 0.150627 0.152697 0.154812 0.156973 0.159179 0.161343 0.163378 0.165283 0.16706 0.168707 0.170226 0.171615 0.172875 0.17391 0.174622 0.175013 0.175082 0.174829 0.174254 0.173357 0.172138 0.170557 0.168573 0.166188 0.1634 0.160209 0.156616 0.152621 0.148223 0.143484 0.138462 0.133158 0.127572 0.121704 0.115554 0.109122 0.102407 0.0955738 0.088784 0.0820379 0.0753353 0.0686765 0.0620613 0.0554897 0.0489618 0.0426831 0.0368593 0.0314904 0.0265763 0.0221171 0.0181128 0.0145633 0.0114687 0.00878072 0.00645114 0.00447996 0.00286717 0.00161278 0.000716793 0.000179198 0 0 0.000115789 0.000463158 0.0010421 0.00185263 0.00289474 0.00416842 0.00567368 0.00741052 0.00942428 0.0117603 0.0144186 0.0173991 0.0207018 0.0243269 0.0282741 0.0325436 0.0370046 0.041526 0.046108 0.0507505 0.0554535 0.060217 0.0650411 0.0699257 0.0747625 0.0794433 0.083968 0.0883366 0.0925492 0.0966058 0.100506 0.104251 0.10781 0.111153 0.114282 0.117195 0.119894 0.122377 0.124645 0.126698 0.128581 0.13034 0.131974 0.133484 0.134869 0.13613 0.137267 0.138279 0.139241 0.140229 0.141241 0.142278 0.14334 0.144427 0.145539 0.146676 0.147881 0.149194 0.150618 0.15215 0.153793 0.155544 0.157406 0.159377 0.161427 0.163525 0.165672 0.167868 0.170112 0.172404 0.174745 0.177135 0.179477 0.181677 0.183734 0.185649 0.187421 0.18905 0.190537 0.191881 0.192977 0.193719 0.194107 0.19414 0.19382 0.193146 0.192117 0.190735 0.188955 0.186732 0.184068 0.180961 0.177413 0.173422 0.168989 0.164114 0.158864 0.153303 0.147433 0.141253 0.134764 0.127964 0.120855 0.113436 0.105886 0.0983831 0.0909269 0.0835178 0.0761557 0.0688407 0.0615726 0.0543516 0.0474042 0.0409572 0.0350104 0.0295639 0.0246177 0.0201718 0.0162261 0.0127808 0.0097853 0.0071892 0.0049925 0.0031952 0.0017973 0.0007988 0.0001997 0 0 0.000129731 0.000518925 0.00116758 0.0020757 0.00324328 0.00467033 0.00635683 0.0083028 0.0105563 0.0131655 0.0161303 0.0194507 0.0231268 0.0271586 0.031546 0.036289 0.0412427 0.046262 0.051347 0.0564977 0.061714 0.066996 0.0723436 0.0777569 0.083117 0.0883048 0.0933205 0.098164 0.102835 0.107334 0.111661 0.115816 0.119766 0.123478 0.126952 0.130188 0.133185 0.135946 0.138468 0.140752 0.142847 0.144803 0.14662 0.148297 0.149834 0.151232 0.152491 0.15361 0.154671 0.155757 0.156866 0.157999 0.159156 0.160337 0.161541 0.16277 0.164069 0.165485 0.167018 0.168669 0.170436 0.172321 0.174322 0.176441 0.178644 0.180898 0.183205 0.185562 0.187971 0.190432 0.192944 0.195508 0.198019 0.200374 0.202573 0.204617 0.206504 0.208234 0.209809 0.211228 0.212376 0.213137 0.213513 0.213502 0.213106 0.212323 0.211154 0.2096 0.207611 0.205141 0.202189 0.198755 0.19484 0.190444 0.185565 0.180205 0.174436 0.168329 0.161885 0.155103 0.147984 0.140528 0.132734 0.124603 0.116329 0.108104 0.0999304 0.0918069 0.0837336 0.0757107 0.0677382 0.0598159 0.0521919 0.0451139 0.0385821 0.0325963 0.0271565 0.0222629 0.0179153 0.0141138 0.0108059 0.00793902 0.00551321 0.00352845 0.00198476 0.000882114 0.000220528 0 0 0.000144287 0.000577146 0.00129858 0.00230859 0.00360716 0.00519432 0.00707004 0.00923434 0.011738 0.0146318 0.0179157 0.0215898 0.025654 0.0301083 0.0349528 0.0401874 0.0456525 0.0511884 0.056795 0.0624725 0.0682208 0.0740398 0.0799296 0.0858903 0.0917919 0.0975047 0.103029 0.108364 0.11351 0.118467 0.123236 0.127816 0.13217 0.136263 0.140095 0.143664 0.146973 0.150019 0.152804 0.155328 0.157643 0.159802 0.161807 0.163656 0.165349 0.166887 0.16827 0.169497 0.170658 0.171841 0.173046 0.174273 0.175522 0.176794 0.178087 0.179403 0.180792 0.182305 0.183942 0.185704 0.18759 0.1896 0.191734 0.193993 0.196341 0.198743 0.2012 0.203711 0.206276 0.208896 0.21157 0.214298 0.216969 0.21947 0.221802 0.223964 0.225956 0.227779 0.229432 0.230916 0.232106 0.232878 0.233232 0.233168 0.232686 0.231786 0.230468 0.228732 0.226526 0.223799 0.220551 0.216783 0.212493 0.207681 0.202349 0.196496 0.1902 0.183539 0.176512 0.169121 0.161365 0.153244 0.144758 0.135907 0.126901 0.117948 0.109048 0.100203 0.0914102 0.0826715 0.0739863 0.0653547 0.057046 0.0493296 0.0422053 0.0356733 0.0297336 0.0243861 0.0196308 0.0154677 0.0118425 0.0087006 0.00604208 0.00386693 0.00217515 0.000966733 0.000241683 0 0 0.000159455 0.000637821 0.0014351 0.00255129 0.00398638 0.00574039 0.00781331 0.0102051 0.0129693 0.0161592 0.0197748 0.0238162 0.0282833 0.0331761 0.0384946 0.0442389 0.0502341 0.0563051 0.0624521 0.068675 0.0749738 0.0813485 0.0877992 0.0943258 0.100787 0.107043 0.113092 0.118936 0.124573 0.130004 0.13523 0.140249 0.145022 0.149509 0.153711 0.157626 0.161255 0.164598 0.167655 0.170426 0.172968 0.175337 0.177535 0.17956 0.181413 0.183094 0.184603 0.18594 0.1872 0.188481 0.18978 0.1911 0.192439 0.193798 0.195177 0.196576 0.19805 0.199654 0.20139 0.203257 0.205254 0.207383 0.209643 0.212033 0.214518 0.217059 0.219658 0.222313 0.225026 0.227795 0.230622 0.233506 0.236326 0.238964 0.241419 0.24369 0.245778 0.247684 0.249406 0.250945 0.252168 0.252941 0.253264 0.253137 0.25256 0.251534 0.250057 0.248131 0.245699 0.242708 0.239155 0.235042 0.230369 0.225135 0.219341 0.212987 0.206156 0.198932 0.191316 0.183308 0.174907 0.166113 0.156928 0.147349 0.137603 0.127914 0.118281 0.108705 0.0991855 0.089723 0.0803171 0.070968 0.0619667 0.0536041 0.0458803 0.0387952 0.0323489 0.0265413 0.0213726 0.0168425 0.0128951 0.00947393 0.00657912 0.00421064 0.00236848 0.00105266 0.000263165 0 0 0.000175238 0.00070095 0.00157714 0.0028038 0.00438094 0.00630855 0.00858664 0.0112152 0.0142502 0.0177477 0.0217076 0.0261299 0.0310147 0.0363619 0.0421715 0.0484436 0.0549874 0.0616122 0.0683181 0.0751051 0.0819731 0.0889222 0.0959523 0.103063 0.110103 0.116919 0.123511 0.12988 0.136025 0.141946 0.147643 0.153116 0.158322 0.163217 0.1678 0.172072 0.176032 0.179682 0.183019 0.186046 0.188822 0.191408 0.193804 0.196011 0.198028 0.199854 0.201491 0.202939 0.204299 0.205676 0.20707 0.208481 0.209908 0.211351 0.212811 0.214288 0.215842 0.217533 0.219361 0.221327 0.22343 0.22567 0.228047 0.230561 0.233174 0.235847 0.238579 0.24137 0.244221 0.247131 0.250101 0.253131 0.256092 0.258856 0.261424 0.263796 0.26597 0.267949 0.26973 0.271315 0.272561 0.273326 0.273608 0.27341 0.272729 0.271567 0.269923 0.267798 0.265132 0.261866 0.258 0.253535 0.24847 0.242806 0.236541 0.229677 0.222304 0.21451 0.20629