<?xml version="1.0"?> 
<VTKFile type="StructuredGrid" version="0.1"> 
<StructuredGrid WholeExtent="0 128 0 128 0 0"> 
<Piece Extent="0 128 0 128 0 0"> 
<PointData>
<DataArray type="Float32" Name="u" format="ascii" NumberOfComponents="1"> 
0 0 0 0 0 0 0 0 0 0 0 0 0 0 0 0 0 0 0 0 0 0 0 0 0 0 0 0 0 0 0 0 0 0 0 0 0 0 0 0 0 0 0 0 0 0 0 0 0 0 0 0 0 0 0 0 0 0 0 0 0 0 0 0 0 0 0 0 0 0 0 0 0 0 0 0 0 0 0 0 0 0 0 0 0 0 0 0 0 0 0 0 0 0 0 0 0 0 0 0 0 0 0 0 0 0 0 0 0 0 0 0 0 0 0 0 0 0 0 0 0 0 0 0 0 0 0 0 0 0 1.39393e-07 5.57572e-07 1.25454e-06 2.23029e-06 3.48483e-06 5.01815e-06 6.83026e-06 8.92116e-06 1.14584e-05 1.46097e-05 1.83749e-05 2.27541e-05 2.77472e-05 3.33544e-05 3.95755e-05 4.64105e-05 5.3698e-05 6.12761e-05 6.9145e-05 7.73046e-05 8.57549e-05 9.4496e-05 0.000103528 0.00011285 0.000122275 0.000131611 0.000140861 0.000150023 0.000159098 0.000168085 0.000176985 0.000185798 0.000194436 0.000202812 0.000210927 0.00021878 0.000226371 0.0002337 0.000240768 0.000247574 0.000254129 0.000260443 0.000266516 0.000272349 0.000277941 0.000283292 0.000288403 0.000293273 0.000297956 0.000302509 0.000306929 0.000311218 0.000315376 0.000319402 0.000323296 0.000327059 0.000330717 0.000334297 0.000337798 0.000341222 0.000344567 0.000347835 0.000351024 0.000354134 0.00035712 0.000359933 0.000362574 0.000365042 0.000367338 0.000369462 0.000371413 0.000373191 0.000374689 0.000375799 0.00037652 0.000376853 0.000376798 0.000376354 0.000375521 0.0003743 0.000372591 0.000370292 0.000367405 0.000363928 0.000359862 0.000355208 0.000349964 0.000344131 0.000337702 0.000330667 0.000323028 0.000314784 0.000305935 0.000296482 0.000286424 0.000275761 0.000264634 0.000253184 0.000241411 0.000229315 0.000216897 0.000204155 0.00019109 0.000177703 0.000164292 0.000151157 0.000138299 0.000125717 0.000113411 0.000101382 8.96288e-05 7.8152e-05 6.72658e-05 5.72844e-05 4.8208e-05 4.00364e-05 3.27696e-05 2.64078e-05 2.09508e-05 1.63987e-05 1.25552e-05 9.22426e-06 6.40573e-06 4.09967e-06 2.30606e-06 1.02492e-06 2.56229e-07 0 0 5.57572e-07 2.23029e-06 5.01815e-06 8.92116e-06 1.39393e-05 2.00726e-05 2.7321e-05 3.56846e-05 4.58337e-05 5.84387e-05 7.34996e-05 9.10163e-05 0.000110989 0.000133417 0.000158302 0.000185642 0.000214792 0.000245104 0.00027658 0.000309218 0.00034302 0.000377984 0.000414111 0.000451401 0.000489098 0.000526446 0.000563444 0.000600092 0.000636391 0.000672341 0.000707941 0.000743191 0.000777744 0.000811249 0.000843708 0.000875119 0.000905484 0.000934802 0.000963072 0.000990296 0.00101651 0.00104177 0.00106606 0.0010894 0.00111176 0.00113317 0.00115361 0.00117309 0.00119183 0.00121003 0.00122772 0.00124487 0.0012615 0.00127761 0.00129319 0.00130824 0.00132287 0.00133719 0.00135119 0.00136489 0.00137827 0.00139134 0.00140409 0.00141654 0.00142848 0.00143973 0.0014503 0.00146017 0.00146935 0.00147785 0.00148565 0.00149276 0.00149876 0.0015032 0.00150608 0.00150741 0.00150719 0.00150541 0.00150208 0.0014972 0.00149036 0.00148117 0.00146962 0.00145571 0.00143945 0.00142083 0.00139986 0.00137652 0.00135081 0.00132267 0.00129211 0.00125914 0.00122374 0.00118593 0.00114569 0.00110304 0.00105853 0.00101274 0.000965644 0.000917261 0.000867586 0.00081662 0.000764361 0.000710811 0.000657168 0.000604629 0.000553196 0.000502868 0.000453645 0.000405528 0.000358515 0.000312608 0.000269063 0.000229138 0.000192832 0.000160145 0.000131079 0.000105631 8.38032e-05 6.55947e-05 5.0221e-05 3.6897e-05 2.56229e-05 1.63987e-05 9.22426e-06 4.09967e-06 1.02492e-06 0 0 1.25454e-06 5.01815e-06 1.12908e-05 2.00726e-05 3.13634e-05 4.51634e-05 6.14724e-05 8.02904e-05 0.000103126 0.000131487 0.000165374 0.000204787 0.000249725 0.000300189 0.000356179 0.000417695 0.000483282 0.000551485 0.000622305 0.000695741 0.000771794 0.000850464 0.00093175 0.00101565 0.00110047 0.0011845 0.00126775 0.00135021 0.00143188 0.00151277 0.00159287 0.00167218 0.00174992 0.00182531 0.00189834 0.00196902 0.00203734 0.0021033 0.00216691 0.00222817 0.00228716 0.00234399 0.00239865 0.00245114 0.00250147 0.00254963 0.00259562 0.00263945 0.00268161 0.00272258 0.00276236 0.00280097 0.00283838 0.00287462 0.00290967 0.00294353 0.00297645 0.00300867 0.00304019 0.003071 0.00310111 0.00313051 0.00315921 0.00318721 0.00321408 0.0032394 0.00326317 0.00328538 0.00330604 0.00332515 0.00334271 0.00335872 0.0033722 0.00338219 0.00338868 0.00339168 0.00339118 0.00338718 0.00337969 0.0033687 0.00335332 0.00333263 0.00330664 0.00327535 0.00323876 0.00319687 0.00314968 0.00309718 0.00303931 0.002976 0.00290725 0.00283306 0.00275342 0.00266834 0.00257781 0.00248184 0.0023817 0.00227865 0.0021727 0.00206384 0.00195207 0.00183739 0.00171981 0.00159932 0.00147863 0.00136042 0.00124469 0.00113145 0.0010207 0.000912438 0.00080666 0.000703368 0.000605392 0.00051556 0.000433872 0.000360327 0.000294927 0.00023767 0.000188557 0.000147588 0.000112997 8.30183e-05 5.76516e-05 3.6897e-05 2.07546e-05 9.22426e-06 2.30606e-06 0 0 2.23029e-06 8.92116e-06 2.00726e-05 3.56846e-05 5.57572e-05 8.02904e-05 0.000109284 0.000142739 0.000183335 0.000233755 0.000293998 0.000364065 0.000443956 0.00053367 0.000633207 0.000742569 0.000859167 0.000980418 0.00110632 0.00123687 0.00137208 0.00151194 0.00165644 0.00180561 0.00195639 0.00210578 0.00225377 0.00240037 0.00254556 0.00268936 0.00283176 0.00297277 0.00311097 0.003245 0.00337483 0.00350048 0.00362194 0.00373921 0.00385229 0.00396118 0.00406606 0.00416708 0.00426426 0.00435758 0.00444705 0.00453267 0.00461444 0.00469236 0.0047673 0.00484014 0.00491087 0.0049795 0.00504602 0.00511043 0.00517274 0.00523295 0.00529147 0.00534875 0.00540478 0.00545955 0.00551308 0.00556535 0.00561638 0.00566615 0.00571392 0.00575893 0.00580118 0.00584068 0.00587741 0.00591139 0.0059426 0.00597106 0.00599503 0.00601278 0.00602432 0.00602965 0.00602876 0.00602166 0.00600834 0.0059888 0.00596145 0.00592467 0.00587847 0.00582285 0.0057578 0.00568332 0.00559942 0.0055061 0.00540323 0.00529068 0.00516845 0.00503655 0.00489497 0.00474371 0.00458278 0.00441217 0.00423414 0.00405094 0.00386258 0.00366904 0.00347034 0.00326648 0.00305744 0.00284324 0.00262867 0.00241852 0.00221278 0.00201147 0.00181458 0.00162211 0.00143406 0.00125043 0.00107625 0.000916551 0.000771327 0.000640582 0.000524314 0.000422524 0.000335213 0.000262379 0.000200884 0.000147588 0.000102492 6.55947e-05 3.6897e-05 1.63987e-05 4.09967e-06 0 0 3.48483e-06 1.39393e-05 3.13634e-05 5.57572e-05 8.71207e-05 0.000125454 0.000170757 0.000223029 0.000286461 0.000365242 0.000459372 0.000568852 0.000693681 0.000833859 0.000989387 0.00116026 0.00134245 0.0015319 0.00172862 0.00193261 0.00214387 0.0023624 0.0025882 0.00282126 0.00305686 0.00329029 0.00352152 0.00375058 0.00397744 0.00420213 0.00442463 0.00464495 0.0048609 0.00507031 0.00527317 0.0054695 0.00565927 0.00584251 0.0060192 0.00618935 0.00635322 0.00651107 0.0066629 0.00680872 0.00694852 0.0070823 0.00721007 0.00733182 0.00744891 0.00756272 0.00767323 0.00778046 0.0078844 0.00798505 0.00808241 0.00817648 0.00826793 0.00835742 0.00844496 0.00853055 0.00861418 0.00869586 0.00877559 0.00885336 0.008928 0.00899833 0.00906435 0.00912606 0.00918345 0.00923654 0.00928531 0.00932978 0.00936723 0.00939497 0.00941301 0.00942133 0.00941994 0.00940884 0.00938803 0.00935751 0.00931477 0.0092573 0.00918511 0.0090982 0.00899656 0.00888019 0.0087491 0.00860328 0.00844254 0.00826668 0.0080757 0.0078696 0.00764838 0.00741205 0.00716059 0.00689401 0.00661584 0.00632959 0.00603527 0.00573288 0.00542241 0.00510387 0.00477726 0.00444257 0.0041073 0.00377893 0.00345748 0.00314293 0.00283528 0.00253455 0.00224072 0.0019538 0.00168165 0.00143211 0.0012052 0.00100091 0.000819241 0.000660194 0.00052377 0.000409967 0.000313881 0.000230606 0.000160143 0.000102492 5.76516e-05 2.56229e-05 6.40573e-06 0 0 5.01815e-06 2.00726e-05 4.51634e-05 8.02904e-05 0.000125454 0.000180653 0.000245889 0.000321162 0.000412504 0.000525948 0.000661496 0.000819147 0.000998901 0.00120076 0.00142472 0.00167078 0.00193313 0.00220594 0.00248922 0.00278297 0.00308718 0.00340186 0.003727 0.00406261 0.00440188 0.00473801 0.00507099 0.00540083 0.00572752 0.00605107 0.00637147 0.00668872 0.00699969 0.00730124 0.00759337 0.00787607 0.00814935 0.00841321 0.00866765 0.00891266 0.00914863 0.00937594 0.00959458 0.00980456 0.0100059 0.0101985 0.0103825 0.0105578 0.0107264 0.0108903 0.0110495 0.0112039 0.0113535 0.0114985 0.0116387 0.0117741 0.0119058 0.0120347 0.0121607 0.012284 0.0124044 0.012522 0.0126368 0.0127488 0.0128563 0.0129576 0.0130527 0.0131415 0.0132242 0.0133006 0.0133709 0.0134349 0.0134888 0.0135288 0.0135547 0.0135667 0.0135647 0.0135487 0.0135188 0.0134748 0.0134133 0.0133305 0.0132266 0.0131014 0.012955 0.0127875 0.0125987 0.0123887 0.0121573 0.011904 0.011629 0.0113322 0.0110137 0.0106733 0.0103112 0.00992738 0.00952681 0.00911462 0.00869079 0.00825535 0.00780827 0.00734958 0.00687925 0.0063973 0.00591451 0.00544166 0.00497877 0.00452581 0.00408281 0.00364975 0.00322664 0.00281347 0.00242157 0.00206224 0.00173549 0.00144131 0.00117971 0.00095068 0.000754228 0.000590353 0.000451989 0.000332073 0.000230606 0.000147588 8.30183e-05 3.6897e-05 9.22426e-06 0 0 6.83026e-06 2.7321e-05 6.14724e-05 0.000109284 0.000170757 0.000245889 0.000334683 0.000437137 0.000561463 0.000715874 0.00090037 0.00111495 0.00135961 0.00163436 0.0019392 0.00227412 0.0026312 0.00300253 0.0033881 0.00378793 0.00420199 0.0046303 0.00507286 0.00552967 0.00599145 0.00644896 0.00690218 0.00735113 0.00779579 0.00823617 0.00867227 0.00910409 0.00952736 0.0099378 0.0103354 0.0107202 0.0110922 0.0114513 0.0117976 0.0121311 0.0124523 0.0127617 0.0130593 0.0133451 0.0136191 0.0138813 0.0141317 0.0143704 0.0145999 0.0148229 0.0150395 0.0152497 0.0154534 0.0156507 0.0158415 0.0160259 0.0162051 0.0163805 0.0165521 0.0167199 0.0168838 0.0170439 0.0172002 0.0173526 0.0174989 0.0176367 0.0177661 0.0178871 0.0179996 0.0181036 0.0181992 0.0182864 0.0183598 0.0184141 0.0184495 0.0184658 0.0184631 0.0184413 0.0184005 0.0183407 0.0182569 0.0181443 0.0180028 0.0178325 0.0176333 0.0174052 0.0171482 0.0168624 0.0165474 0.0162027 0.0158284 0.0154244 0.0149908 0.0145276 0.0140348 0.0135123 0.012967 0.012406 0.0118291 0.0112364 0.0106279 0.0100036 0.00936342 0.00870743 0.0080503 0.00740671 0.00677665 0.00616014 0.00555716 0.00496772 0.00439181 0.00382945 0.00329602 0.00280694 0.00236219 0.00196178 0.00160571 0.00129398 0.00102659 0.000803535 0.000615207 0.000451989 0.000313881 0.000200884 0.000112997 5.0221e-05 1.25552e-05 0 0 8.92116e-06 3.56846e-05 8.02904e-05 0.000142739 0.000223029 0.000321162 0.000437137 0.000570954 0.00073334 0.000935019 0.00117599 0.00145626 0.00177582 0.00213468 0.00253283 0.00297027 0.00343667 0.00392167 0.00442528 0.00494749 0.00548832 0.00604774 0.00662578 0.00722242 0.00782557 0.00842313 0.0090151 0.00960147 0.0101823 0.0107574 0.0113271 0.0118911 0.0124439 0.01298 0.0134993 0.0140019 0.0144877 0.0149568 0.0154092 0.0158447 0.0162642 0.0166683 0.017057 0.0174303 0.0177882 0.0181307 0.0184578 0.0187695 0.0190692 0.0193606 0.0196435 0.019918 0.0201841 0.0204417 0.020691 0.0209318 0.0211659 0.021395 0.0216191 0.0218382 0.0220523 0.0222614 0.0224655 0.0226646 0.0228557 0.0230357 0.0232047 0.0233627 0.0235096 0.0236455 0.0237704 0.0238842 0.0239801 0.0240511 0.0240973 0.0241186 0.024115 0.0240866 0.0240334 0.0239552 0.0238458 0.0236987 0.0235139 0.0232914 0.0230312 0.0227333 0.0223977 0.0220244 0.0216129 0.0211627 0.0206738 0.0201462 0.0195799 0.0189748 0.0183311 0.0176487 0.0169366 0.0162038 0.0154503 0.0146762 0.0138814 0.0130659 0.0122298 0.011373 0.0105147 0.00967407 0.00885114 0.00804589 0.00725833 0.00648845 0.00573625 0.00500173 0.00430501 0.0036662 0.00308531 0.00256233 0.00209726 0.0016901 0.00134085 0.00104952 0.000803535 0.000590353 0.000409967 0.000262379 0.000147588 6.55947e-05 1.63987e-05 0 0 1.14849e-05 4.59396e-05 0.000103364 0.000183759 0.000287123 0.000413457 0.000562761 0.000735034 0.000943731 0.0012023 0.00151075 0.00186907 0.00227727 0.00273535 0.0032433 0.00380113 0.00439567 0.00501376 0.0056554 0.00632059 0.00700933 0.00772163 0.00845747 0.00921687 0.00998449 0.010745 0.0114985 0.0122449 0.0129842 0.0137164 0.0144415 0.0151596 0.0158634 0.016546 0.0172073 0.0178474 0.0184661 0.0190636 0.0196398 0.0201947 0.0207292 0.021244 0.0217391 0.0222147 0.0226705 0.0231068 0.0235234 0.0239203 0.024302 0.0246728 0.0250328 0.0253819 0.0257202 0.0260477 0.0263643 0.02667 0.026967 0.0272576 0.0275416 0.027819 0.0280899 0.0283543 0.0286122 0.0288636 0.0291046 0.0293314 0.0295442 0.0297428 0.0299272 0.0300975 0.0302537 0.0303957 0.0305148 0.0306024 0.0306584 0.0306828 0.0306756 0.0306368 0.0305664 0.0304645 0.0303228 0.0301334 0.0298963 0.0296113 0.0292786 0.0288981 0.0284699 0.0279939 0.0274695 0.0268961 0.0262738 0.0256025 0.0248822 0.0241129 0.0232947 0.0224275 0.0215228 0.0205919 0.019635 0.0186519 0.0176428 0.0166075 0.0155461 0.0144587 0.0133693 0.0123023 0.0112577 0.0102354 0.00923543 0.00825782 0.00730256 0.00636964 0.00548454 0.00467275 0.00393426 0.00326907 0.00267718 0.00215859 0.00171331 0.00134133 0.00102695 0.000754496 0.000523955 0.000335331 0.000188624 8.38328e-05 2.09582e-05 0 0 1.47156e-05 5.88623e-05 0.00013244 0.000235449 0.00036789 0.000529761 0.000721064 0.000941797 0.00120823 0.00153664 0.00192703 0.00237939 0.00289372 0.00347002 0.0041083 0.00480855 0.00555433 0.00632919 0.00713313 0.00796614 0.00882823 0.00971941 0.0106397 0.011589 0.0125485 0.0134992 0.0144412 0.0153744 0.0162988 0.0172145 0.0181214 0.0190196 0.0199001 0.0207541 0.0215817 0.0223828 0.0231574 0.0239055 0.0246271 0.0253223 0.0259918 0.0266367 0.027257 0.0278525 0.0284234 0.0289696 0.0294912 0.0299881 0.0304657 0.0309293 0.031379 0.0318148 0.0322367 0.0326446 0.0330387 0.0334187 0.0337876 0.0341478 0.0344993 0.0348423 0.0351767 0.0355025 0.0358196 0.0361281 0.0364234 0.0367007 0.0369601 0.0372015 0.037425 0.0376306 0.0378182 0.0379879 0.0381289 0.0382306 0.038293 0.038316 0.0382996 0.038244 0.0381489 0.0380146 0.037831 0.0375883 0.0372864 0.0369254 0.0365053 0.036026 0.0354876 0.03489 0.0342327 0.033515 0.0327368 0.0318982 0.0309992 0.0300398 0.0290199 0.0279396 0.0268131 0.0256545 0.0244638 0.0232411 0.0219862 0.0206993 0.0193804 0.0180293 0.016676 0.0153501 0.0140518 0.0127809 0.0115376 0.0103217 0.00913336 0.00797249 0.00687062 0.00585927 0.00493844 0.00410812 0.00336832 0.00271903 0.00216025 0.001692 0.00129544 0.000951749 0.000660937 0.000422999 0.000237937 0.00010575 2.64375e-05 0 0 1.86132e-05 7.44527e-05 0.000167519 0.000297811 0.00046533 0.000670075 0.000912046 0.00119124 0.00152685 0.00193804 0.00242482 0.00298719 0.00362515 0.0043387 0.00512783 0.00599255 0.00691266 0.00786796 0.00885846 0.00988414 0.010945 0.0120411 0.0131723 0.0143388 0.0155175 0.0166856 0.0178431 0.0189899 0.0201261 0.0212517 0.0223667 0.023471 0.0245539 0.0256043 0.0266224 0.0276082 0.0285615 0.0294825 0.0303712 0.0312274 0.0320523 0.0328466 0.0336105 0.0343439 0.0350469 0.0357193 0.0363613 0.0369728 0.0375603 0.0381301 0.0386822 0.0392167 0.0397335 0.0402327 0.0407142 0.041178 0.0416274 0.0420656 0.0424925 0.0429082 0.0433126 0.0437057 0.0440876 0.0444583 0.0448121 0.0451435 0.0454525 0.045739 0.0460031 0.0462448 0.046464 0.0466608 0.0468224 0.0469358 0.0470011 0.0470182 0.0469872 0.0469082 0.0467809 0.0466056 0.0463703 0.0460632 0.0456843 0.0452336 0.0447111 0.0441169 0.0434508 0.0427129 0.0419026 0.0410193 0.0400629 0.0390334 0.0379309 0.0367553 0.0355067 0.0341851 0.0328076 0.0313915 0.0299369 0.0284436 0.0269118 0.0253414 0.0237325 0.0220849 0.0204346 0.0188175 0.0172334 0.0156826 0.0141648 0.0126802 0.0112287 0.00981029 0.00846326 0.00722578 0.00609786 0.00507949 0.00417067 0.0033714 0.00268169 0.00210153 0.00160899 0.00118211 0.000820911 0.000525383 0.000295528 0.000131346 3.28364e-05 0 0 2.31777e-05 9.27108e-05 0.000208599 0.000370843 0.000579443 0.000834397 0.00113571 0.00148337 0.00189958 0.0024065 0.00300414 0.0036925 0.00447157 0.00534137 0.00630189 0.00735312 0.00847066 0.00963008 0.0108314 0.0120746 0.0133597 0.0146866 0.0160555 0.0174663 0.0188916 0.0203043 0.0217043 0.0230916 0.0244662 0.0258281 0.0271774 0.028514 0.0298247 0.0310966 0.0323295 0.0335235 0.0346786 0.0357947 0.0368719 0.0379101 0.0389104 0.0398736 0.0407998 0.0416888 0.0425409 0.0433558 0.0441337 0.0448745 0.0455858 0.046275 0.0469422 0.0475874 0.0482106 0.0488117 0.0493908 0.0499478 0.0504867 0.051011 0.051521 0.0520165 0.0524976 0.0529642 0.0534164 0.0538541 0.0542708 0.0546599 0.0550214 0.0553553 0.0556615 0.0559402 0.0561912 0.0564146 0.0565952 0.0567179 0.0567827 0.0567895 0.0567384 0.0566294 0.0564624 0.0562375 0.0559408 0.0555583 0.05509 0.054536 0.0538963 0.0531708 0.0523595 0.0514625 0.0504792 0.049409 0.048252 0.0470081 0.0456773 0.0442597 0.0427552 0.0411638 0.0395062 0.0378029 0.0360541 0.0342596 0.0324195 0.0305337 0.0286024 0.0266254 0.0246452 0.0227043 0.0208026 0.0189402 0.017117 0.0153331 0.0135885 0.011883 0.0102624 0.00877227 0.00741251 0.00618317 0.00508424 0.00411572 0.00327762 0.00256993 0.0019676 0.00144558 0.00100388 0.000642482 0.000361396 0.000160621 4.01551e-05 0 0 2.84092e-05 0.000113637 0.000255682 0.000454546 0.000710229 0.00102273 0.00139205 0.00181819 0.00232642 0.00294201 0.00366497 0.0044953 0.00543299 0.00647805 0.00763047 0.00889026 0.0102283 0.0116155 0.0130519 0.0145375 0.0160722 0.0176561 0.0192892 0.0209714 0.0226708 0.0243552 0.0260247 0.0276793 0.0293189 0.0309437 0.0325535 0.0341484 0.0357128 0.0372309 0.0387029 0.0401288 0.0415085 0.042842 0.0441293 0.0453705 0.0465663 0.0477177 0.0488247 0.0498873 0.0509054 0.0518791 0.0528083 0.0536932 0.0545422 0.0553643 0.0561592 0.0569271 0.057668 0.0583818 0.0590685 0.0597282 0.0603653 0.0609841 0.0615848 0.0621673 0.0627317 0.0632778 0.0638058 0.0643155 0.0647995 0.0652499 0.0656668 0.0660503 0.0664002 0.0667167 0.0669996 0.0672491 0.0674474 0.067577 0.0676378 0.0676298 0.0675531 0.0674076 0.0671933 0.0669103 0.0665423 0.0660734 0.0655035 0.0648326 0.0640606 0.0631877 0.0622138 0.0611389 0.0599625 0.0586843 0.0573042 0.0558222 0.0542384 0.0525528 0.0507652 0.0488759 0.0469089 0.0448888 0.0428155 0.040689 0.0385092 0.0362763 0.0339902 0.0316508 0.0293078 0.0270107 0.0247594 0.0225539 0.0203943 0.0182806 0.0162127 0.0141907 0.0122682 0.0104987 0.00888241 0.00741917 0.00610902 0.00495198 0.00394803 0.00309719 0.00237128 0.00174217 0.00120984 0.000774297 0.000435542 0.000193574 4.83935e-05 0 0 3.43075e-05 0.00013723 0.000308768 0.00054892 0.000857688 0.00123507 0.00168107 0.00219568 0.00280737 0.00354458 0.00440732 0.0053956 0.0065094 0.00774873 0.00911358 0.010604 0.0121856 0.0138243 0.0155201 0.0172728 0.0190826 0.0209495 0.0228733 0.0248542 0.026855 0.0288383 0.0308044 0.0327531 0.0346844 0.0365984 0.038495 0.0403743 0.0422179 0.0440074 0.0457427 0.047424 0.0490513 0.0506244 0.0521434 0.0536083 0.05502 0.056379 0.0576854 0.0589392 0.0601405 0.0612892 0.0623853 0.0634288 0.0644296 0.0653977 0.0663331 0.0672357 0.0681057 0.0689429 0.0697473 0.0705191 0.0712632 0.0719848 0.072684 0.0733607 0.0740149 0.0746466 0.0752558 0.0758425 0.076398 0.0769134 0.0773887 0.077824 0.0782192 0.0785743 0.0788894 0.0791643 0.079379 0.079513 0.0795664 0.0795391 0.0794313 0.0792428 0.0789737 0.0786239 0.0781751 0.0776087 0.0769248 0.0761233 0.0752043 0.0741677 0.0730136 0.0717419 0.0703524 0.0688449 0.0672194 0.0654758 0.0636142 0.0616346 0.0595369 0.0573212 0.0550158 0.0526491 0.0502211 0.0477317 0.0451811 0.0425691 0.0398958 0.0371612 0.0344224 0.0317366 0.0291036 0.0265237 0.0239967 0.0215226 0.0191015 0.0167334 0.0144805 0.0124052 0.0105075 0.00878748 0.00724502 0.00588018 0.00469294 0.00368331 0.00282003 0.00207186 0.00143879 0.000920827 0.000517965 0.000230207 5.75517e-05 0 0 4.08728e-05 0.000163491 0.000367855 0.000653965 0.00102182 0.00147142 0.00200277 0.00261586 0.00334243 0.00421421 0.00523119 0.00639339 0.00770079 0.00915341 0.0107512 0.0124943 0.0143426 0.0162565 0.0182358 0.0202806 0.0223909 0.0245667 0.026808 0.0291147 0.0314442 0.0337538 0.0360433 0.0383129 0.0405626 0.0427923 0.045002 0.0471917 0.0493401 0.0514259 0.0534489 0.0554093 0.0573069 0.0591419 0.0609142 0.0626238 0.0642713 0.0658573 0.0673818 0.0688447 0.0702462 0.0715861 0.0728644 0.0740813 0.0752479 0.0763754 0.0774639 0.0785133 0.0795237 0.080495 0.0814273 0.0823205 0.0831805 0.0840132 0.0848185 0.0855966 0.0863472 0.0870705 0.0877665 0.0884352 0.0890665 0.0896505 0.0901871 0.0906764 0.0911184 0.0915131 0.0918604 0.0921604 0.0923899 0.092526 0.0925685 0.0925175 0.092373 0.092135 0.0918035 0.0913784 0.090839 0.0901641 0.0893538 0.0884081 0.0873271 0.0861107 0.0847589 0.0832717 0.0816491 0.0798911 0.0779977 0.0759689 0.0738047 0.0715052 0.0690702 0.0664999 0.0638268 0.0610838 0.0582709 0.0553879 0.052435 0.0494121 0.0463193 0.0431565 0.039989 0.036882 0.0338355 0.0308495 0.0279241 0.0250592 0.0222548 0.0195109 0.0168993 0.0144916 0.0122879 0.0102881 0.00849224 0.00690032 0.00551233 0.00432829 0.00331385 0.00243466 0.00169074 0.00108207 0.000608666 0.000270518 6.76295e-05 0 0 4.8105e-05 0.00019242 0.000432945 0.000769681 0.00120263 0.00173178 0.00235715 0.00307872 0.00393161 0.00495089 0.00613658 0.00748868 0.00900718 0.0106921 0.0125434 0.0145611 0.0166993 0.018912 0.0211992 0.0235609 0.0259971 0.0285079 0.0310931 0.0337529 0.0364386 0.0391014 0.0417415 0.0443589 0.0469535 0.0495253 0.0520743 0.0546006 0.0570795 0.0594864 0.0618214 0.0640844 0.0662755 0.0683946 0.0704417 0.0724169 0.0743205 0.0761528 0.0779139 0.0796037 0.0812224 0.0827697 0.0842459 0.0856508 0.0869971 0.0882973 0.0895516 0.0907598 0.091922 0.0930382 0.0941083 0.0951324 0.0961172 0.0970692 0.0979884 0.0988749 0.0997287 0.10055 0.101338 0.102093 0.102805 0.103461 0.104062 0.104608 0.105098 0.105533 0.105913 0.106237 0.10648 0.106616 0.106644 0.106565 0.106378 0.106084 0.105683 0.105174 0.104534 0.10374 0.102791 0.101687 0.100429 0.0990167 0.0974497 0.0957281 0.0938524 0.0918227 0.089639 0.0873015 0.08481 0.0821645 0.0793651 0.0764118 0.073342 0.070193 0.0669648 0.0636575 0.060271 0.0568054 0.0532607 0.0496367 0.0460075 0.0424469 0.0389548 0.0355314 0.0321765 0.0288903 0.0256726 0.0225235 0.0195247 0.0167581 0.0142235 0.011921 0.00985067 0.0080124 0.00640622 0.00503214 0.00385273 0.00283058 0.00196568 0.00125803 0.000707644 0.000314508 7.86271e-05 0 0 5.59071e-05 0.000223628 0.000503164 0.000894514 0.00139768 0.00201266 0.00273945 0.00357805 0.00456699 0.00574477 0.00711139 0.00866685 0.0104112 0.0123443 0.0144663 0.0167771 0.0192244 0.0217555 0.0243707 0.0270697 0.0298527 0.0327197 0.0356706 0.0387055 0.0417694 0.0448076 0.04782 0.0508066 0.0537675 0.0567027 0.059612 0.0624956 0.0653254 0.0680734 0.0707395 0.0733238 0.0758263 0.0782469 0.0805857 0.0828426 0.0850178 0.0871113 0.0891231 0.0910532 0.0929017 0.0946684 0.0963534 0.0979568 0.0994925 0.100974 0.102403 0.103777 0.105098 0.106366 0.107579 0.108739 0.109853 0.110928 0.111965 0.112962 0.113921 0.114841 0.115722 0.116565 0.117356 0.118084 0.118748 0.119348 0.119884 0.120356 0.120764 0.121109 0.121361 0.12149 0.121498 0.121384 0.121147 0.120789 0.120309 0.119706 0.118956 0.118031 0.116932 0.115658 0.11421 0.112587 0.110791 0.10882 0.106675 0.104357 0.101866 0.0992017 0.0963646 0.0933544 0.0901712 0.0868149 0.0833278 0.0797522 0.076088 0.0723353 0.068494 0.0645642 0.0605458 0.0564389 0.0523262 0.0482904 0.0443317 0.0404499 0.0366451 0.0329173 0.0292664 0.0256925 0.0222879 0.0191446 0.0162629 0.0136425 0.0112836 0.00918612 0.00735009 0.00577549 0.00442186 0.00324871 0.00225605 0.00144387 0.000812179 0.000360968 9.02421e-05 0 0 6.41819e-05 0.000256728 0.000577637 0.00102691 0.00160455 0.00231055 0.00314491 0.00410764 0.00524068 0.00658596 0.0081435 0.00991328 0.0118953 0.0140896 0.0164961 0.0191149 0.0218866 0.0247519 0.0277108 0.0307633 0.0339093 0.037149 0.0404823 0.0439091 0.0473682 0.0507984 0.0541997 0.057572 0.0609153 0.0642296 0.067515 0.0707715 0.0739673 0.077071 0.0800824 0.0830016 0.0858285 0.0885633 0.0912058 0.0937561 0.0962139 0.0985788 0.100851 0.10303 0.105117 0.10711 0.109011 0.110819 0.112549 0.114218 0.115824 0.117369 0.118851 0.120271 0.12163 0.122926 0.124168 0.125366 0.126518 0.127624 0.128686 0.129702 0.130672 0.131598 0.132464 0.133258 0.133978 0.134626 0.135201 0.135704 0.136133 0.13649 0.136742 0.136857 0.136835 0.136676 0.13638 0.135948 0.135378 0.134672 0.1338 0.132734 0.131473 0.130018 0.128369 0.126525 0.124487 0.122254 0.119828 0.11721 0.1144 0.111398 0.108203 0.104817 0.101238 0.0974669 0.0935509 0.0895371 0.0854254 0.081216 0.0769087 0.0725036 0.0680007 0.0634 0.0587931 0.0542718 0.0498359 0.0454857 0.0412209 0.0370416 0.0329479 0.0289397 0.02512 0.0215915 0.0183545 0.0154087 0.0127543 0.0103912 0.00831943 0.00653901 0.00500643 0.0036782 0.0025543 0.00163475 0.000919549 0.000408688 0.000102172 0 0 7.29295e-05 0.000291718 0.000656365 0.00116687 0.00182324 0.00262546 0.00357354 0.00466749 0.00595267 0.00747448 0.00923292 0.011228 0.0134597 0.015928 0.0186329 0.0215745 0.0246861 0.0279011 0.0312196 0.0346416 0.0381669 0.0417958 0.0455281 0.0493638 0.0532351 0.057074 0.0608806 0.0646548 0.0683967 0.0721062 0.0757833 0.0794282 0.0830052 0.0864792 0.08985 0.0931177 0.0962823 0.0993438 0.102302 0.105157 0.107909 0.110555 0.113097 0.115535 0.117867 0.120095 0.122218 0.124237 0.126168 0.128027 0.129816 0.131533 0.133179 0.134755 0.136259 0.137692 0.139063 0.140382 0.141648 0.142862 0.144023 0.145132 0.146188 0.147192 0.148128 0.148982 0.149754 0.150444 0.151051 0.151576 0.152019 0.15238 0.152623 0.152715 0.152654 0.152442 0.152077 0.15156 0.150892 0.150071 0.149067 0.147848 0.146415 0.144767 0.142905 0.140829 0.138537 0.136032 0.133313 0.130383 0.127242 0.12389 0.120326 0.116551 0.112565 0.108368 0.104011 0.0995476 0.0949771 0.0902997 0.0855152 0.0806238 0.0756254 0.0705201 0.0654083 0.0603909 0.0554676 0.0506386 0.0459039 0.0412633 0.0367171 0.032265 0.028021 0.0240988 0.0204983 0.0172196 0.0142627 0.0116276 0.00931426 0.0073227 0.00560644 0.00411902 0.00286043 0.00183067 0.00102975 0.000457669 0.000114417 0 0 8.21498e-05 0.000328599 0.000739348 0.0013144 0.00205374 0.00295739 0.00402534 0.00525759 0.00670297 0.00841032 0.0103796 0.0126109 0.0151042 0.0178594 0.0208766 0.0241558 0.0276227 0.0312031 0.0348971 0.0387045 0.0426255 0.04666 0.0508081 0.0550696 0.0593699 0.0636343 0.0678627 0.0720552 0.0762117 0.0803323 0.084417 0.0884657 0.0924391 0.096298 0.100042 0.103672 0.107188 0.110588 0.113875 0.117046 0.120102 0.123041 0.125862 0.128566 0.131153 0.133623 0.135976 0.138211 0.140347 0.142403 0.144377 0.146271 0.148084 0.149816 0.151467 0.153037 0.154537 0.155976 0.157355 0.158674 0.159933 0.161131 0.162269 0.163347 0.164348 0.165257 0.166075 0.1668 0.167433 0.167974 0.168422 0.168779 0.169006 0.169065 0.168957 0.168681 0.168238 0.167627 0.166849 0.165903 0.164756 0.163374 0.161757 0.159906 0.15782 0.155499 0.152943 0.150152 0.147129 0.143876 0.140392 0.136678 0.132733 0.128558 0.124153 0.119517 0.114709 0.109784 0.104743 0.0995863 0.0943135 0.0889247 0.0834199 0.0777991 0.0721718 0.0666477 0.0612267 0.0559088 0.050694 0.0455824 0.0405739 0.0356685 0.030991 0.0266663 0.0226944 0.0190753 0.0158089 0.0128954 0.0103346 0.00812654 0.00622188 0.00457118 0.00317443 0.00203164 0.00114279 0.000507909 0.000126977 0 0 9.18429e-05 0.000367371 0.000826586 0.00146949 0.00229607 0.00330634 0.0045003 0.00587794 0.00749157 0.00939348 0.0115837 0.0140621 0.0168289 0.0198839 0.0232273 0.0268589 0.0306965 0.034658 0.0387432 0.0429523 0.0472851 0.0517418 0.0563222 0.0610265 0.0657727 0.0704793 0.0751461 0.0797731 0.0843605 0.088908 0.0934159 0.097884 0.102269 0.106528 0.11066 0.114665 0.118544 0.122297 0.125923 0.129423 0.132795 0.136035 0.139146 0.142126 0.144975 0.147694 0.150283 0.152741 0.155088 0.157344 0.159509 0.161582 0.163564 0.165455 0.167254 0.168962 0.17059 0.172149 0.17364 0.175062 0.176415 0.1777 0.178916 0.180063 0.181124 0.182084 0.18294 0.183695 0.184346 0.184896 0.185343 0.185687 0.185889 0.185907 0.185742 0.185394 0.184862 0.184147 0.183249 0.182168 0.180867 0.179311 0.1775 0.175434 0.173112 0.170536 0.167704 0.164616 0.161277 0.157688 0.153849 0.149762 0.145424 0.140838 0.136002 0.130916 0.125643 0.120246 0.114723 0.109076 0.103304 0.0974063 0.0913841 0.0852371 0.0790836 0.0730423 0.0671132 0.0612962 0.0555914 0.0499988 0.0445183 0.03915 0.0340299 0.0292942 0.0249428 0.0209757 0.0173929 0.0141945 0.0113803 0.00895055 0.00685276 0.00503468 0.00349631 0.00223764 0.00125867 0.000559409 0.000139852 0 0 0.000102009 0.000408035 0.000918078 0.00163214 0.00255022 0.00367231 0.00499843 0.00652856 0.00831848 0.010424 0.012845 0.0155816 0.0186338 0.0220015 0.0256848 0.0296837 0.0339075 0.0382656 0.042758 0.0473847 0.0521457 0.057041 0.0620705 0.0672344 0.0724436 0.077609 0.0827307 0.0878086 0.0928429 0.0978334 0.10278 0.107683 0.112495 0.117168 0.121702 0.126097 0.130353 0.13447 0.138448 0.142288 0.145986 0.149539 0.152948 0.156213 0.159333 0.162309 0.16514 0.167827 0.170391 0.172852 0.175211 0.177467 0.179621 0.181672 0.18362 0.185466 0.187223 0.188901 0.190502 0.192025 0.19347 0.194838 0.196128 0.19734 0.198457 0.19946 0.200351 0.201128 0.201792 0.202343 0.20278 0.203104 0.203272 0.203241 0.20301 0.20258 0.201951 0.201122 0.200094 0.198866 0.197401 0.19566 0.193644 0.191351 0.188783 0.185939 0.182819 0.179423 0.175756 0.171819 0.167614 0.163141 0.1584 0.153389 0.148111 0.142564 0.136815 0.130933 0.124918 0.118768 0.112485 0.106069 0.0995181 0.092834 0.0861436 0.0795747 0.0731271 0.0668009 0.060596 0.0545125 0.0485504 0.0427097 0.0371378 0.0319824 0.0272434 0.0229208 0.0190147 0.0155249 0.0124516 0.00979472 0.00749908 0.00550953 0.00382606 0.00244868 0.00137738 0.00061217 0.000153043 0 0 0.000112647 0.000450589 0.00101383 0.00180236 0.00281618 0.0040553 0.00551972 0.00720942 0.00918369 0.0115018 0.0141637 0.0171694 0.0205189 0.0242122 0.0282494 0.0326303 0.0372557 0.0420261 0.0469415 0.0520018 0.0572072 0.0625576 0.068053 0.0736934 0.0793824 0.0850234 0.0906165 0.0961617 0.101659 0.107108 0.11251 0.117863 0.123117 0.128218 0.133168 0.137966 0.142613 0.147107 0.151449 0.15564 0.159675 0.163551 0.167269 0.170827 0.174226 0.177466 0.180547 0.183469 0.186255 0.188926 0