<?xml version="1.0"?> 
<VTKFile type="StructuredGrid" version="0.1"> 
<StructuredGrid WholeExtent="0 128 0 128 0 0"> 
<Piece Extent="0 128 0 128 0 0"> 
<PointData>
<DataArray type="Float32" Name="u" format="ascii" NumberOfComponents="1"> 
0 0 0 0 0 0 0 0 0 0 0 0 0 0 0 0 0 0 0 0 0 0 0 0 0 0 0 0 0 0 0 0 0 0 0 0 0 0 0 0 0 0 0 0 0 0 0 0 0 0 0 0 0 0 0 0 0 0 0 0 0 0 0 0 0 0 0 0 0 0 0 0 0 0 0 0 0 0 0 0 0 0 0 0 0 0 0 0 0 0 0 0 0 0 0 0 0 0 0 0 0 0 0 0 0 0 0 0 0 0 0 0 0 0 0 0 0 0 0 0 0 0 0 0 0 0 0 0 0 0 2.79335e-07 1.11734e-06 2.51401e-06 4.46936e-06 6.98337e-06 1.00561e-05 1.36874e-05 1.78774e-05 2.28377e-05 2.87797e-05 3.57034e-05 4.3609e-05 5.24962e-05 6.23653e-05 7.32161e-05 8.50487e-05 9.74376e-05 0.000109957 0.000122608 0.00013539 0.000148303 0.000161347 0.000174521 0.000187827 0.000200887 0.000213326 0.000225143 0.000236339 0.000246912 0.000256864 0.000266195 0.000274903 0.000282927 0.000290203 0.000296731 0.00030251 0.000307541 0.000311825 0.00031536 0.000318147 0.000320409 0.000322368 0.000324025 0.00032538 0.000326433 0.000327183 0.000327631 0.000327777 0.000327946 0.000328464 0.000329331 0.000330548 0.000332114 0.000334029 0.000336294 0.000338907 0.000342051 0.000345905 0.00035047 0.000355745 0.000361731 0.000368428 0.000375836 0.000383954 0.000392654 0.000401807 0.000411413 0.000421473 0.000431986 0.000442952 0.000454371 0.000466243 0.000478163 0.000489723 0.000500925 0.000511767 0.000522251 0.000532376 0.000542141 0.000551548 0.000560138 0.000567454 0.000573496 0.000578263 0.000581757 0.000583976 0.00058492 0.000584591 0.000582771 0.000579245 0.000574012 0.000567072 0.000558426 0.000548074 0.000536015 0.000522249 0.000506999 0.000490486 0.000472711 0.000453673 0.000433373 0.00041181 0.000388984 0.000364896 0.000340236 0.000315694 0.000291271 0.000266966 0.000242779 0.00021871 0.00019476 0.000170928 0.000148048 0.000126955 0.000107649 9.01296e-05 7.43968e-05 6.04506e-05 4.8291e-05 3.79182e-05 2.90311e-05 2.1329e-05 1.48118e-05 9.47954e-06 5.33224e-06 2.36989e-06 5.92471e-07 0 0 1.11734e-06 4.46936e-06 1.00561e-05 1.78774e-05 2.79335e-05 4.02242e-05 5.47497e-05 7.15097e-05 9.13507e-05 0.000115119 0.000142814 0.000174436 0.000209985 0.000249461 0.000292864 0.000340195 0.00038975 0.00043983 0.000490433 0.000541561 0.000593212 0.000645387 0.000698086 0.000751308 0.00080355 0.000853305 0.000900573 0.000945354 0.000987649 0.00102746 0.00106478 0.00109961 0.00113171 0.00116081 0.00118692 0.00121004 0.00123017 0.0012473 0.00126144 0.00127259 0.00128163 0.00128947 0.0012961 0.00130152 0.00130573 0.00130873 0.00131052 0.00131111 0.00131178 0.00131386 0.00131733 0.00132219 0.00132846 0.00133612 0.00134517 0.00135563 0.0013682 0.00138362 0.00140188 0.00142298 0.00144693 0.00147371 0.00150334 0.00153581 0.00157061 0.00160723 0.00164565 0.00168589 0.00172794 0.00177181 0.00181748 0.00186497 0.00191265 0.00195889 0.0020037 0.00204707 0.002089 0.0021295 0.00216857 0.00220619 0.00224055 0.00226982 0.00229398 0.00231305 0.00232703 0.0023359 0.00233968 0.00233836 0.00233108 0.00231698 0.00229605 0.00226829 0.00223371 0.0021923 0.00214406 0.002089 0.002028 0.00196195 0.00189084 0.00181469 0.00173349 0.00164724 0.00155594 0.00145959 0.00136094 0.00126278 0.00116508 0.00106786 0.000971114 0.00087484 0.000779039 0.000683711 0.000592193 0.000507821 0.000430597 0.000360518 0.000297587 0.000241802 0.000193164 0.000151673 0.000116124 8.53159e-05 5.92471e-05 3.79182e-05 2.1329e-05 9.47954e-06 2.36989e-06 0 0 2.51401e-06 1.00561e-05 2.26261e-05 4.02242e-05 6.28504e-05 9.05045e-05 0.000123187 0.000160897 0.000205539 0.000259017 0.000321331 0.000392481 0.000472466 0.000561288 0.000658945 0.000765438 0.000876938 0.000989617 0.00110348 0.00121851 0.00133473 0.00145212 0.00157069 0.00169044 0.00180799 0.00191994 0.00202629 0.00212705 0.00222221 0.00231178 0.00239575 0.00247413 0.00254635 0.00261183 0.00267058 0.00272259 0.00276787 0.00280642 0.00283824 0.00286332 0.00288368 0.00290131 0.00291623 0.00292842 0.00293789 0.00294465 0.00294868 0.00294999 0.00295151 0.00295617 0.00296398 0.00297493 0.00298903 0.00300626 0.00302664 0.00305017 0.00307846 0.00311315 0.00315423 0.00320171 0.00325558 0.00331585 0.00338252 0.00345558 0.00353388 0.00361626 0.00370272 0.00379325 0.00388787 0.00398656 0.00408934 0.00419619 0.00430346 0.00440751 0.00450832 0.00460591 0.00470026 0.00479138 0.00487927 0.00496393 0.00504125 0.00510709 0.00516146 0.00520437 0.00523581 0.00525578 0.00526428 0.00526132 0.00524494 0.0052132 0.00516611 0.00510365 0.00502584 0.00493266 0.00482413 0.00470024 0.00456299 0.00441438 0.0042544 0.00408306 0.00390036 0.00370629 0.00350086 0.00328407 0.00306213 0.00284125 0.00262144 0.00240269 0.00218501 0.00196839 0.00175284 0.00153835 0.00133243 0.0011426 0.000968842 0.000811167 0.000669571 0.000544055 0.000434619 0.000341263 0.00026128 0.000191961 0.000133306 8.53159e-05 4.79902e-05 2.1329e-05 5.33224e-06 0 0 4.46936e-06 1.78774e-05 4.02242e-05 7.15097e-05 0.000111734 0.000160897 0.000218999 0.000286039 0.000365403 0.000460475 0.000571255 0.000697743 0.00083994 0.000997845 0.00117146 0.00136078 0.001559 0.00175932 0.00196173 0.00216624 0.00237285 0.00258155 0.00279234 0.00300523 0.0032142 0.00341322 0.00360229 0.00378142 0.0039506 0.00410983 0.00425911 0.00439845 0.00452684 0.00464325 0.00474769 0.00484016 0.00492066 0.0049892 0.00504576 0.00509035 0.00512654 0.00515789 0.00518441 0.00520608 0.00522292 0.00523493 0.00524209 0.00524442 0.00524713 0.00525542 0.0052693 0.00528877 0.00531382 0.00534447 0.0053807 0.00542252 0.00547281 0.00553448 0.00560752 0.00569193 0.0057877 0.00589485 0.00601337 0.00614326 0.00628246 0.00642891 0.00658261 0.00674356 0.00691177 0.00708722 0.00726993 0.00745989 0.0076506 0.00783557 0.0080148 0.00818828 0.00835602 0.00851801 0.00867426 0.00882477 0.00896221 0.00907927 0.00917594 0.00925222 0.00930811 0.00934361 0.00935873 0.00935346 0.00932434 0.00926792 0.00918419 0.00907316 0.00893482 0.00876918 0.00857624 0.00835599 0.00811199 0.00784778 0.00756338 0.00725877 0.00693397 0.00658896 0.00622375 0.00583834 0.00544378 0.00505111 0.00466033 0.00427145 0.00388446 0.00349936 0.00311615 0.00273484 0.00236877 0.00203129 0.00172239 0.00144207 0.00119035 0.000967209 0.000772657 0.000606691 0.000464497 0.000341263 0.000236989 0.000151673 8.53159e-05 3.79182e-05 9.47954e-06 0 0 6.98337e-06 2.79335e-05 6.28504e-05 0.000111734 0.000174584 0.000251401 0.000342185 0.000446936 0.000570942 0.000719492 0.000892586 0.00109022 0.00131241 0.00155913 0.0018304 0.00212622 0.00243594 0.00274894 0.00306521 0.00338475 0.00370757 0.00403367 0.00436304 0.00469568 0.00502219 0.00533315 0.00562858 0.00590846 0.00617281 0.00642161 0.00665487 0.00687259 0.00707318 0.00725507 0.00741826 0.00756275 0.00768854 0.00779562 0.007884 0.00795367 0.00801022 0.0080592 0.00810063 0.00813451 0.00816082 0.00817957 0.00819077 0.00819441 0.00819864 0.0082116 0.00823328 0.0082637 0.00830285 0.00835073 0.00840734 0.00847268 0.00855127 0.00864763 0.00876175 0.00889363 0.00904329 0.00921071 0.00939589 0.00959884 0.00981634 0.0100452 0.0102853 0.0105368 0.0107996 0.0110738 0.0113593 0.0116561 0.0119541 0.0122431 0.0125231 0.0127942 0.0130563 0.0133094 0.0135535 0.0137887 0.0140035 0.0141864 0.0143374 0.0144566 0.0145439 0.0145994 0.014623 0.0146148 0.0145693 0.0144811 0.0143503 0.0141768 0.0139607 0.0137018 0.0134004 0.0130562 0.012675 0.0122622 0.0118178 0.0113418 0.0108343 0.0102952 0.00972461 0.00912241 0.00850591 0.00789236 0.00728177 0.00667414 0.00606947 0.00546775 0.00486899 0.00427319 0.0037012 0.00317388 0.00269123 0.00225324 0.00185992 0.00151126 0.00120728 0.000947954 0.000725777 0.000533224 0.000370295 0.000236989 0.000133306 5.92471e-05 1.48118e-05 0 0 1.00561e-05 4.02242e-05 9.05045e-05 0.000160897 0.000251401 0.000362018 0.000492747 0.000643588 0.000822156 0.00103607 0.00128532 0.00156992 0.00188986 0.00224515 0.00263578 0.00306175 0.00350775 0.00395847 0.0044139 0.00487405 0.00533891 0.00580848 0.00628277 0.00676178 0.00723195 0.00767974 0.00810515 0.00850819 0.00888884 0.00924711 0.00958301 0.00989652 0.0101854 0.0104473 0.0106823 0.0108904 0.0110715 0.0112257 0.011353 0.0114533 0.0115347 0.0116053 0.0116649 0.0117137 0.0117516 0.0117786 0.0117947 0.0118 0.011806 0.0118247 0.0118559 0.0118997 0.0119561 0.0120251 0.0121066 0.0122007 0.0123138 0.0124526 0.0126169 0.0128068 0.0130223 0.0132634 0.0135301 0.0138223 0.0141355 0.014465 0.0148109 0.015173 0.0155515 0.0159463 0.0163573 0.0167848 0.0172139 0.01763 0.0180333 0.0184236 0.018801 0.0191655 0.0195171 0.0198557 0.020165 0.0204284 0.0206459 0.0208175 0.0209432 0.0210231 0.0210571 0.0210453 0.0209798 0.0208528 0.0206644 0.0204146 0.0201033 0.0197307 0.0192965 0.018801 0.018252 0.0176575 0.0170176 0.0163322 0.0156014 0.0148252 0.0140034 0.0131363 0.0122485 0.011365 0.0104857 0.00961076 0.00874003 0.00787356 0.00701135 0.0061534 0.00532973 0.00457039 0.00387537 0.00324467 0.00267828 0.00217622 0.00173848 0.00136505 0.00104512 0.000767843 0.000533224 0.000341263 0.000191961 8.53159e-05 2.1329e-05 0 0 1.36874e-05 5.47497e-05 0.000123187 0.000218999 0.000342185 0.000492747 0.000670683 0.000875994 0.00111905 0.0014102 0.00174947 0.00213684 0.00257232 0.0030559 0.00358759 0.00416738 0.00477444 0.00538792 0.00600781 0.00663412 0.00726684 0.00790599 0.00855155 0.00920353 0.00984348 0.010453 0.011032 0.0115806 0.0120987 0.0125863 0.0130435 0.0134703 0.0138634 0.0142199 0.0145398 0.014823 0.0150695 0.0152794 0.0154526 0.0155892 0.0157 0.015796 0.0158772 0.0159436 0.0159952 0.016032 0.0160539 0.016061 0.0160693 0.0160947 0.0161372 0.0161969 0.0162736 0.0163674 0.0164784 0.0166065 0.0167605 0.0169493 0.017173 0.0174315 0.0177248 0.018053 0.0184159 0.0188137 0.01924 0.0196885 0.0201592 0.0206522 0.0211673 0.0217046 0.0222642 0.0228459 0.02343 0.0239964 0.0245453 0.0250766 0.0255903 0.0260864 0.0265649 0.0270259 0.0274468 0.0278053 0.0281013 0.0283349 0.0285061 0.0286148 0.0286611 0.028645 0.0285558 0.028383 0.0281266 0.0277865 0.0273629 0.0268556 0.0262647 0.0255902 0.024843 0.0240338 0.0231628 0.02223 0.0212353 0.0201787 0.0190602 0.0178799 0.0166716 0.015469 0.0142723 0.0130813 0.0118962 0.0107168 0.00954322 0.00837546 0.00725436 0.00622081 0.00527481 0.00441635 0.00364544 0.00296208 0.00236626 0.00185799 0.00142252 0.00104512 0.000725777 0.000464497 0.00026128 0.000116124 2.90311e-05 0 0 1.78774e-05 7.15097e-05 0.000160897 0.000286039 0.000446936 0.000643588 0.000875994 0.00114416 0.00146161 0.0018419 0.00228502 0.00279097 0.00335976 0.00399138 0.00468583 0.00544311 0.00623601 0.00703728 0.00784693 0.00866497 0.00949139 0.0103262 0.0111694 0.0120209 0.0128568 0.0136529 0.0144092 0.0151257 0.0158024 0.0164393 0.0170365 0.0175938 0.0181073 0.018573 0.0189908 0.0193606 0.0196827 0.0199568 0.020183 0.0203614 0.0205062 0.0206316 0.0207376 0.0208243 0.0208917 0.0209397 0.0209684 0.0209777 0.0209885 0.0210217 0.0210772 0.0211551 0.0212553 0.0213779 0.0215228 0.0216901 0.0218913 0.0221379 0.0224301 0.0227677 0.0231508 0.0235794 0.0240535 0.024573 0.0251298 0.0257156 0.0263304 0.0269743 0.0276471 0.0283489 0.0290797 0.0298396 0.0306024 0.0313423 0.0320592 0.0327531 0.0334241 0.034072 0.0346971 0.0352991 0.0358489 0.0363171 0.0367037 0.0370089 0.0372324 0.0373744 0.0374349 0.0374138 0.0372974 0.0370717 0.0367368 0.0362926 0.0357393 0.0350767 0.0343049 0.0334239 0.0324479 0.0313911 0.0302535 0.0290351 0.0277359 0.0263558 0.024895 0.0233534 0.0217751 0.0202044 0.0186413 0.0170858 0.0155378 0.0139974 0.0124646 0.0109394 0.00947508 0.00812514 0.00688954 0.0057683 0.00476139 0.00386884 0.00309063 0.00242676 0.00185799 0.00136505 0.000947954 0.000606691 0.000341263 0.000151673 3.79182e-05 0 0 2.29415e-05 9.17658e-05 0.000206473 0.000367063 0.000573536 0.000825893 0.00112413 0.00146825 0.00187515 0.0023617 0.00292791 0.00357378 0.00429931 0.0051045 0.00598935 0.00695386 0.00796345 0.00898354 0.0100141 0.0110552 0.0121069 0.013169 0.0142416 0.0153247 0.0163879 0.0174006 0.0183628 0.0192746 0.020136 0.0209469 0.0217074 0.0224174 0.0230718 0.0236654 0.0241983 0.0246704 0.0250818 0.0254324 0.0257222 0.0259513 0.0261377 0.0262993 0.0264363 0.0265485 0.0266361 0.0266989 0.026737 0.0267505 0.0267656 0.0268088 0.02688 0.0269793 0.0271067 0.0272622 0.0274457 0.0276572 0.0279115 0.0282232 0.0285922 0.0290186 0.0295024 0.0300435 0.030642 0.0312978 0.0320007 0.0327401 0.0335161 0.0343286 0.0351777 0.0360634 0.0369857 0.0379446 0.0389071 0.0398405 0.0407448 0.04162 0.042466 0.0432829 0.0440706 0.0448293 0.0455217 0.0461109 0.046597 0.0469798 0.0472595 0.0474359 0.0475092 0.0474793 0.0473286 0.0470398 0.0466129 0.0460478 0.0453445 0.0445031 0.0435235 0.0424057 0.0411678 0.0398276 0.0383853 0.0368407 0.0351939 0.0334449 0.0315937 0.0296403 0.0276405 0.0256501 0.0236691 0.0216974 0.0197351 0.0177823 0.0158388 0.0139047 0.0120475 0.0103349 0.0087667 0.00734306 0.00606392 0.00492928 0.00393914 0.00309351 0.00236847 0.0017401 0.0012084 0.000773378 0.000435025 0.000193345 4.83361e-05 0 0 2.91948e-05 0.000116779 0.000262753 0.000467117 0.00072987 0.00105101 0.00143055 0.00186847 0.00238495 0.00300015 0.00371407 0.00452672 0.00543809 0.00644818 0.00755699 0.00876453 0.0100278 0.0113037 0.0125923 0.0138936 0.0152076 0.0165342 0.0178736 0.0192256 0.0205527 0.0218172 0.0230192 0.0241587 0.0252356 0.02625 0.0272018 0.0280911 0.0289114 0.0296562 0.0303256 0.0309195 0.0314379 0.0318808 0.0322483 0.0325404 0.0327791 0.0329868 0.0331634 0.0333089 0.0334233 0.0335066 0.0335588 0.03358 0.0336026 0.0336592 0.0337499 0.0338746 0.0340333 0.0342261 0.0344529 0.0347137 0.0350267 0.03541 0.0358636 0.0363874 0.0369816 0.037646 0.0383807 0.0391857 0.0400483 0.0409556 0.0419077 0.0429045 0.0439462 0.0450326 0.0461638 0.0473398 0.04852 0.0496642 0.0507722 0.0518441 0.0528798 0.0538794 0.0548429 0.0557702 0.0566158 0.057334 0.0579249 0.0583883 0.0587245 0.0589332 0.0590146 0.0589686 0.0587738 0.0584085 0.0578729 0.0571669 0.0562905 0.0552438 0.0540266 0.0526391 0.0511033 0.0494416 0.0476538 0.04574 0.0437002 0.0415343 0.0392425 0.0368246 0.0343492 0.0318849 0.0294316 0.0269894 0.0245582 0.022138 0.0197289 0.0173309 0.0150272 0.0129014 0.0109534 0.0091832 0.00759079 0.00617618 0.00493938 0.00388038 0.00297092 0.00218271 0.00151577 0.000970095 0.000545679 0.000242524 6.0631e-05 0 0 3.66375e-05 0.00014655 0.000329737 0.0005862 0.000915937 0.00131895 0.00179524 0.0023448 0.00299101 0.00375725 0.0046435 0.00564978 0.00677609 0.00802241 0.00938876 0.0108751 0.012429 0.0139977 0.0155814 0.01718 0.0187935 0.0204219 0.0220653 0.0237235 0.0253512 0.0269028 0.0283783 0.0297778 0.0311012 0.0323485 0.0335198 0.034615 0.0356262 0.0365454 0.0373725 0.0381077 0.0387509 0.0393021 0.0397613 0.0401286 0.0404305 0.040694 0.040919 0.0411054 0.0412534 0.0413628 0.0414337 0.0414661 0.0414994 0.041573 0.0416868 0.0418408 0.0420351 0.0422697 0.0425445 0.0428596 0.0432369 0.0436984 0.0442442 0.0448742 0.0455885 0.046387 0.0472697 0.0482367 0.0492726 0.0503622 0.0515053 0.052702 0.0539524 0.0552564 0.056614 0.0580252 0.0594412 0.0608132 0.0621413 0.0634254 0.0646655 0.0658616 0.0670138 0.068122 0.0691311 0.0699863 0.0706873 0.0712343 0.0716273 0.0718662 0.0719511 0.0718819 0.0716328 0.0711778 0.0705168 0.06965 0.0685774 0.0672988 0.0658143 0.064124 0.0622546 0.060233 0.0580591 0.055733 0.0532546 0.050624 0.0478412 0.0449061 0.0419011 0.0389088 0.0359289 0.0329616 0.0300069 0.0270647 0.0241351 0.021218 0.0184143 0.0158249 0.0134497 0.0112887 0.00934201 0.00760955 0.00609134 0.00478737 0.00366533 0.0026929 0.00187007 0.00119684 0.000673224 0.000299211 7.48027e-05 0 0 4.52695e-05 0.000181078 0.000407425 0.000724312 0.00113174 0.0016297 0.00221821 0.00289725 0.00369334 0.00463299 0.0057162 0.00694298 0.00831331 0.0098272 0.0114847 0.0132857 0.0151671 0.0170657 0.0189815 0.0209145 0.0228647 0.0248321 0.0268167 0.0288185 0.0307835 0.0326573 0.0344402 0.036132 0.0377328 0.0392426 0.0406614 0.0419891 0.0432162 0.0443329 0.0453392 0.0462352 0.0470209 0.0476963 0.0482612 0.0487159 0.0490919 0.0494209 0.049703 0.0499381 0.0501263 0.0502675 0.0503618 0.050409 0.0504562 0.0505501 0.0506907 0.0508781 0.0511121 0.0513929 0.0517204 0.0520947 0.0525419 0.0530884 0.053734 0.0544789 0.0553231 0.0562664 0.057309 0.0584508 0.0596738 0.0609598 0.0623089 0.0637211 0.0651964 0.0667348 0.0683362 0.0700008 0.0716705 0.0732876 0.0748521 0.0763638 0.077823 0.0792295 0.0805833 0.0818845 0.0830677 0.0840677 0.0848844 0.0855179 0.0859681 0.086235 0.0863187 0.0862192 0.0859057 0.0853475 0.0845447 0.0834972 0.082205 0.0806682 0.0788867 0.0768605 0.0746216 0.0722018 0.0696012 0.0668196 0.0638572 0.060714 0.0573898 0.0538848 0.0502963 0.0467217 0.043161 0.0396142 0.0360813 0.0325623 0.0290572 0.025566 0.0222087 0.0191051 0.0162555 0.0136596 0.0113176 0.00922938 0.00739501 0.00581448 0.00445171 0.00327064 0.00227128 0.00145362 0.000817661 0.000363405 9.08512e-05 0 0 5.50908e-05 0.000220363 0.000495817 0.000881453 0.00137727 0.00198327 0.00269945 0.00352581 0.00449193 0.00562739 0.00693218 0.0084063 0.0100498 0.0118625 0.0138447 0.0159961 0.018242 0.0205075 0.0227925 0.025097 0.0274211 0.0297647 0.0321279 0.0345107 0.0368494 0.0390808 0.0412048 0.0432213 0.0451305 0.0469322 0.0486265 0.0502134 0.0516813 0.0530187 0.0542256 0.055302 0.0562479 0.0570632 0.057748 0.0583024 0.0587632 0.0591676 0.0595156 0.0598071 0.0600421 0.0602207 0.0603429 0.0604086 0.0604729 0.0605905 0.0607617 0.0609863 0.0612643 0.0615958 0.0619808 0.0624192 0.0629419 0.0635799 0.0643331 0.0652016 0.0661853 0.0672843 0.0684985 0.069828 0.0712517 0.0727485 0.0743186 0.0759618 0.0776782 0.0794678 0.0813306 0.0832666 0.0852081 0.0870874 0.0889046 0.0906595 0.0923524 0.093983 0.0955515 0.0970578 0.0984256 0.0995783 0.100516 0.101239 0.101747 0.10204 0.102117 0.10198 0.101592 0.100918 0.0999564 0.0987083 0.0971734 0.0953519 0.0932436 0.0908486 0.0882043 0.0853481 0.08228 0.079 0.075508 0.0718042 0.0678885 0.0637608 0.0595348 0.0553238 0.051128 0.0469472 0.0427815 0.0386309 0.0344954 0.0303749 0.0264103 0.0227423 0.0193708 0.0162959 0.0135175 0.0110357 0.00885041 0.00696171 0.00533006 0.00391596 0.00271942 0.00174043 0.00097899 0.000435107 0.000108777 0 0 6.61015e-05 0.000264406 0.000594913 0.00105762 0.00165254 0.00237965 0.00323897 0.0042305 0.00538679 0.00674043 0.00829142 0.0100398 0.0119854 0.0141284 0.0164688 0.0190065 0.0216539 0.0243232 0.0270144 0.0297276 0.0324628 0.0352198 0.0379989 0.0407998 0.0435492 0.0461733 0.0486721 0.0510457 0.0532941 0.0554173 0.0574152 0.0592879 0.0610217 0.0626029 0.0640317 0.065308 0.0664318 0.067403 0.0682217 0.068888 0.0694445 0.069934 0.0703566 0.0707122 0.0710008 0.0712225 0.0713772 0.0714649 0.0715494 0.0716943 0.0718997 0.0721655 0.0724917 0.0728783 0.0733254 0.0738329 0.0744368 0.075173 0.0760415 0.0770422 0.0781753 0.0794406 0.0808383 0.0823682 0.0840063 0.0857283 0.0875342 0.089424 0.0913978 0.0934555 0.0955971 0.0978226 0.100054 0.102213 0.104299 0.106312 0.108254 0.110122 0.111918 0.113642 0.115205 0.116518 0.117582 0.118398 0.118963 0.11928 0.119347 0.119166 0.118693 0.117889 0.116752 0.115283 0.113483 0.11135 0.108885 0.106088 0.103003 0.0996718 0.0960956 0.092274 0.088207 0.0838947 0.0793371 0.0745341 0.0696165 0.064715 0.0598297 0.0549605 0.0501074 0.0452704 0.0404495 0.0356448 0.0310193 0.0267363 0.0227957 0.0191975 0.0159418 0.0130284 0.0104575 0.00822905 0.00630037 0.00462884 0.00321447 0.00205726 0.00115721 0.000514316 0.000128579 0 0 7.83015e-05 0.000313206 0.000704713 0.00125282 0.00195754 0.00281885 0.00383677 0.0050113 0.00637792 0.00797213 0.00979393 0.0118433 0.0141203 0.0166249 0.0193571 0.0223168 0.0254026 0.0285128 0.0316473 0.0348063 0.0379897 0.0411974 0.0444296 0.0476861 0.0508826 0.0539347 0.0568422 0.0596052 0.0622238 0.0646978 0.0670274 0.0692125 0.0712372 0.0730855 0.0747576 0.0762532 0.0775726 0.0787156 0.0796823 0.0804727 0.0811357 0.0817201 0.082226 0.0826534 0.0830023 0.0832727 0.0834646 0.0835779 0.0836859 0.0838615 0.0841047 0.0844157 0.0847943 0.0852405 0.0857544 0.086336 0.0870267 0.0878677 0.088859 0.0900008 0.0912929 0.0927354 0.0943283 0.0960716 0.0979377 0.0998991 0.101956 0.104108 0.106355 0.108698 0.111136 0.113669 0.116208 0.118663 0.121035 0.123323 0.125527 0.127647 0.129684 0.131637 0.133405 0.134887 0.136083 0.136994 0.137618 0.137956 0.138008 0.137775 0.137208 0.13626 0.134931 0.133222 0.131133 0.128662 0.125811 0.12258 0.119017 0.115173 0.111048 0.106642 0.101954 0.0969856 0.0917357 0.0862046 0.0805415 0.0748953 0.0692662 0.0636541 0.0580589 0.0524808 0.0469197 0.0413755 0.0360356 0.0310872 0.0265301 0.0223645 0.0185904 0.0152077 0.0122164 0.00961652 0.00736265 0.00540929 0.00375645 0.00240413 0.00135232 0.000601032 0.000150258 0 0 9.16908e-05 0.000366763 0.000825217 0.00146705 0.00229227 0.00330087 0.00449285 0.00586821 0.0074653 0.00932247 0.0114397 0.013817 0.0164544 0.0193519 0.0225095 0.0259271 0.0294882 0.0330762 0.0366912 0.040333 0.0440018 0.0476974 0.05142 0.0551695 0.0588498 0.062365 0.065715 0.0688998 0.0719195 0.0747739 0.0774632 0.0799873 0.0823279 0.0844665 0.0864031 0.0881377 0.0896704 0.0910011 0.0921298 0.0930566 0.0938368 0.0945259 0.095124 0.0956309 0.0960467 0.0963715 0.0966051 0.0967477 0.0968822 0.0970919 0.0973768 0.0977368 0.098172 0.0986823 0.0992678 0.0999285 0.100711 0.101664 0.102786 0.104077 0.105538 0.107169 0.108969 0.110938 0.113046 0.115261 0.117583 0.120013 0.12255 0.125195 0.127946 0.130805 0.13367 0.136439 0.139112 0.14169 0.144172 0.146558 0.148848 0.151043 0.153027 0.154685 0.156019 0.157027 0.15771 0.158068 0.1581 0.157808 0.157136 0.156032 0.154495 0.152525 0.150124 0.147289 0.144022 0.140322 0.136247 0.131852 0.127137 0.122103 0.11675 0.111077 0.105084 0.0987724 0.0923097 0.0858648 0.0794375 0.073028 0.0666362 0.0602621 0.0539058 0.0475672 0.0414592 0.0357949 0.0305741 0.0257969 0.0214633 0.0175733 0.0141269 0.0111241 0.00851689 0.00625731 0.00434535 0.00278103 0.00156433 0.000695256 0.000173814 0 0 0.000106057 0.000424228 0.000954512 0.00169691 0.00265142 0.00381805 0.00519679 0.00678764 0.00863171 0.0107701 0.0132028 0.0159299 0.0189513 0.022267 0.025877 0.0297814 0.0338476 0.0379432 0.0420682 0.0462225 0.0504062 0.0546193 0.0588618 0.0631336 0.0673266 0.0713327 0.0751518 0.0787839 0.082229 0.0854872 0.0885583 0.0914425 0.0941187 0.0965658 0.0987838 0.100773 0.102533 0.104063 0.105365 0.106438 0.107344 0.108145 0.108841 0.109433 0.109919 0.110301 0.110579 0.110752 0.110913 0.111157 0.111483 0.111892 0.112383 0.112956 0.113612 0.11435 0.115224 0.116287 0.117539 0.11898 0.12061 0.122428 0.124436 0.126632 0.128983 0.131454 0.134044 0.136754 0.139583 0.142532 0.145601 0.148789 0.151983 0.155069 0.158046 0.160916 0.163678 0.166331 0.168877 0.171314 0.173514 0.175349 0.176818 0.177921 0.178659 0.179031 0.179037 0.178678 0.177892 0.176621 0.174864 0.172621 0.169891 0.166676 0.162975 0.158788 0.154178 0.149209 0.143881 0.138195 0.132149 0.125745 0.118982 0.11186 0.104567 0.0972926 0.0900365 0.0827987 0.0755792 0.0683779 0.0611948 0.05403 0.0471231 0.0407136 0.0348016 0.0293871 0.02447 0.0200504 0.0161283 0.0127037 0.00972624 0.00714581 0.00496237 0.00317592 0.00178645 0.000793979 0.000198495 0 0 0.000121187 0.000484749 0.00109068 0.00193899 0.00302968 0.00436274 0.00593817 0.00775598 0.00985991 0.0122937 0.0150574 0.018151 0.0215744 0.0253277 0.0294109 0.0338239 0.0384178 0.0430433 0.0477006 0.0523895 0.0571101 0.0618625 0.0666465 0.0714622 0.076189 0.0807062 0.0850138 0.0891119 0.0930003 0.0966792 0.100149 0.103408 0.106435 0.109204 0.111715 0.11397 0.115967 0.117707 0.119189 0.120415 0.121452 0.122369 0.123167 0.123846 0.124406 0.124845 0.125166 0.125367 0.125553 0.125827 0.126191 0.126644 0.127185 0.127815 0.128534 0.129342 0.130299 0.131463 0.132836 0.134416 0.136205 0.138202 0.140407 0.14282 0.145402 0.148117 0.150964 0.153943 0.157053 0.160296 0.16367 0.167176 0.170688 0.17408 0.177352 0.180503 0.183534 0.186445 0.189235 0.191905 0.194312 0.196314 0.197909 0.199099 0.199882 0.20026 0.200232 0.199798 0.198891 0.197446 0.195461 0.192936 0.189873 0.18627 0.182127 0.177446 0.172296 0.166747 0.1608 0.154454 0.14771 0.140568 0.133027 0.125088 0.116959 0.108848 0.100756 0.0926827 0.0846277 0.0765913 0.0685735 0.0605742 0.05286 0.0456975 0.0390866 0.0330274 0.0275198 0.0225639 0.0181597 0.0143071 0.0109538 0.00804772 0.0055887 0.00357677 0.00201193 0.000894192 0.000223548 0 0 0.000137082 0.000548327 0.00123373 0.00219331 0.00342704 0.00493494 0.006717 0.00877322 0.0111499 0.0138933 0.0170034 0.0204802 0.0243237 0.028534 0.033111 0.0380547 0.0431987 0.0483766 0.0535883 0.058834 0.0641135 0.0694269 0.0747741 0.0801553 0.0854369 0.0904855 0.0953011 0.0998838 0.104233 0.10835 0.112234 0.115884 0.119275 0.12238 0.125197 0.127729 0.129973 0.131931 0.133603 0.134987 0.136161 0.1372 0.138104 0.138872 0.139505 0.140003 0.140366 0.140594 0.140802 0.141104 0.1415 0.141992 0.142578 0.143258 0.144034 0.144904 0.145934 0.147192 0.148676 0.150387 0.152325 0.15449 0.156881 0.159499 0.162303 0.165251 0.168344 0.17158 0.174961 0.178486 0.182155 0.185968 0.189787 0.193474 0.197028 0.200451 0.203741 0.206899 0.209924 0.212817 0.215421 0.21758 0.219292 0.220559 0.22138 0.221755 0.221685 0.221168 0.220133 0.218505 0.216285 0.213472 0.210067 0.206069 0.20148 0.196298 0.1906 0.184465 0.177892 0.170881 0.163432 0.155545 0.14722 0.138458 0.129485 0.120532 0.111596 0.10268 0.0937819 0.0849026 0.0760419 0.0671998 0.0586701 0.0507465 0.0434291 0.0367178 0.0306127 0.0251138 0.020221 0.0159343 0.0121997 0.00896305 0.00622434 0.00398358 0.00224076 0.000995894 0.000248973 0 0 0.00015374 0.000614961 0.00138366 0.00245985 0.00384351 0.00553465 0.00753328 0.00983938 0.0125017 0.0155688 0.0190408 0.0229176 0.0271993 0.0318859 0.0369773 0.0424736 0.0481903 0.0539429 0.0597314 0.0655559 0.0714162 0.0773125 0.0832447 0.0892128 0.0950703 0.100671 0.106014 0.1111 0.115928 0.1205 0.124814 0.128871 0.132641 0.136094 0.13923 0.142049 0.144551 0.146736 0.148604 0.150156 0.151472 0.152637 0.153649 0.15451 0.155219 0.155775 0.15618 0.156433 0.156659 0.156986 0.157411 0.157937 0.158562 0.159287 0.160111 0.161035 0.162131 0.163473 0.16506 0.166892 0.168969 0.171291 0.173859 0.176672 0.179686 0.182856 0.186183 0.189666 0.193306 0.197102 0.201054 0.205163 0.209278 0.213249 0.217076 0.220759 0.224298 0.227693 0.230943 0.23405 0.236841 0.239147 0.240968 0.242303 0.243153 0.243517 0.243396 0.242789 0.241617 0.239799 0.237336 0.234228 0.230475 0.226076 0.221032 0.215342 0.209092 0.202364 0.195158 0.187475 0.179315 0.170677 0.161561 0.151969 0.142146 0.132343 0.122557 0.11279 0.103042 0.0933117 0.0836 0.0739068 0.0645532 0.0558607 0.0478291 0.0404584 0.0337487 0.0277 0.0223122 0.0175854 0.0134638 0.00989177 0.00686929 0.00439634 0.00247294 0.00109909 0.000274772 0 0 0.000171163 0.000684653 0.00154047 0.00273861 0.00427908 0.00616187 0.008387 0.0109544 0.0139152 0.0173203 0.0211696 0.0254633 0.0302012 0.0353834 0.04101 0.0470808 0.0533927 0.0597424 0.0661299 0.0725553 0.0790184 0.0855194 0.0920582 0.0986348 0.105089 0.111261 0.117151 0.122759 0.128085 0.133128 0.13789 0.142369 0.146532 0.150347 0.153814 0.156932 0.159702 0.162123 0.164195 0.165919 0.167384 0.168679 0.169804 0.17076 0.171545 0.172161 0.172607 0.172883 0.173126 0.173473 0.173924 0.174478 0.175137 0.175899 0.176766 0.177736 0.17889 0.180307 0.181987 0.18393 0.186137 0.188607 0.191341 0.194338 0.19755 0.200932 0.204482 0.208201 0.212088 0.216144 0.220369 0.224763 0.229163 0.233407 0.237495 0.241428 0.245205 0.248827 0.252292 0.255602 0.258572 0.261016 0.262936 0.26433 0.2652 0.265545 0.265365 0.264659 0.263343 0.261328 0.258615 0.255204 0.251095 0.246288 0.240784 0.23458 0.22777 0.220442 0.212598 0.204236 0.195358 0.185963 0.17605 0.165621 0.154942 0.144281 0.133639 0.123014 0.112407 0.101818 0.0912478 0.0806951 0.0705095 0.06104 0.0522865 0.0442491 0.0369278 0.0303226 0.0244334 0.0192603 0.0147462 0.0108339 0.00752355 0.00481507 0.00270848 0.00120377 0.000300942 0 0 0.00018935 0.000757401 0.00170415 0.0030296 0.00473376 0.00681661 0.00927816 0.0121184 0.0153905 0.0191477 0.0233899 0.0281171 0.0333293 0.0390266 0.0452088 0.0518762 0.0588058 0.065775 0.0727838 0.0798321 0.08692 0.0940475 0.101215 0.108421 0.115494 0.122258 0.128715 0.134863 0.140703 0.146236 0.15146 0.156376 0.160948 0.165139 0.168948 0.172377 0.175424 0.17809 0.180375 0.182279 0.183898 0.185328 0.186569 0.187622 0.188486 0.189161 0.189647 0.189945 0.190202 0.190566 0.191038 0.191617 0.192303 0.193097 0.193998 0.195007 0.196209 0.197693 0.199458 0.201503 0.20383 0.206438 0.209326 0.212496 0.215896 0.219478 0.22324 0.227184 0.231308 0.235613 0.240099 0.244766 0.24944 0.253946 0.258286 0.262458 0.266463 0.270301 0.273972 0.277475 0.280613 0.283186 0.285196 0.286641 0.287522 0.287839 0.287592 0.28678 0.285311 0.283092 0.280122 0.276401 0.27193 0.266708 0.260735 0.254012 0.246635 0.238702 0.230212 0.221165 0.211562 0.201403 0.190687 0.179415 0.167873 0.156348 0.144841 0.133351 0.121878 0.110423 0.0989853 0.0875649 0.0765389 0.0662845 0.0568015 0.04809 0.04015 0.0329815 0.0265845 0.020959 0.0160468 0.0117895 0.00818712 0.00523976 0.00294736 0.00130994 0.000327485 0 0 0.000208302 0.000833206 0.00187471 0.00333282 0.00520754 0.00749885 0.0102068 0.0133313 0.0169277 0.0210511 0.0257015 0.0308791 0.0365836 0.0428153 0.049574 0.0568597 0.0644296 0.0720407 0.079693 0.0873864 0.0951211 0.102897 0.110714 0.118572 0.126284 0.133661 0.140703 0.14741 0.153783 0.159822 0.165526 0.170895 0.175889 0.180469 0.184633 0.188383 0.191718 0.194638 0.197143 0.199234 0.201013 0.202583 0.203944 0.205096 0.20604 0.206775 0.207301 0.207618 0.207887 0.208265 0.208753 0.209352 0.21006 0.210879 0.211808 0.212847 0.21409 0.215632 0.217472 0.21961 0.222047 0.224782 0.227815 0.231147 0.234724 0.238495 0.242459 0.246615 0.250965 0.255508 0.260244 0.265173 0.27011 0.274868 0.279448 0.283849 0.288071 0.292115 0.295981 0.299668 0.302965 0.305658 0.307748 0.309235 0.310119 0.310399 0.310077 0.309151 0.307522 0.305091 0.301856 0.297818 0.292977 0.287333 0.280886 0.273636 0.265687 0.257141 0.247999 0.238262 0.227928 0.216998 0.205472 0.19335 0.180938 0.168542 0.156163 0.143801 0.131455 0.119125 0.106813 0.0945161 0.0