<?xml version="1.0"?> 
<VTKFile type="StructuredGrid" version="0.1"> 
<StructuredGrid WholeExtent="0 64 0 64 0 0"> 
<Piece Extent="0 64 0 64 0 0"> 
<PointData>
<DataArray type="Float32" Name="u" format="ascii" NumberOfComponents="1"> 
0.501994 0.580145 0.658296 0.736448 0.814599 0.680134 0.545669 0.411204 0.276739 0.3751 0.47346 0.57182 0.67018 0.653835 0.63749 0.621145 0.6048 0.597914 0.591028 0.584143 0.577257 0.562384 0.547512 0.53264 0.517767 0.52854 0.539312 0.550085 0.560857 0.538865 0.516873 0.49488 0.472888 0.41839 0.363893 0.309396 0.254898 0.288249 0.321601 0.354952 0.388303 0.430423 0.472544 0.514664 0.556784 0.568005 0.579227 0.590449 0.60167 0.647876 0.694082 0.740287 0.786493 0.794077 0.801661 0.809245 0.816829 0.678245 0.539662 0.401079 0.262496 0.354684 0.446872 0.53906 0.631247 0.522793 0.57688 0.630968 0.685056 0.739143 0.633425 0.527708 0.42199 0.316272 0.394855 0.473439 0.552022 0.630606 0.626019 0.621433 0.616846 0.61226 0.618456 0.624652 0.630848 0.637044 0.591602 0.546159 0.500716 0.455274 0.491263 0.527253 0.563242 0.599232 0.574571 0.54991 0.525249 0.500588 0.472325 0.444062 0.4158 0.387537 0.380645 0.373752 0.36686 0.359968 0.399158 0.438348 0.477538 0.516728 0.515638 0.514548 0.513459 0.512369 0.564874 0.617378 0.669883 0.722387 0.738503 0.754619 0.770734 0.78685 0.663623 0.540396 0.417169 0.293941 0.361134 0.428327 0.495521 0.562714 0.543591 0.573615 0.603639 0.633664 0.663688 0.586717 0.509746 0.432775 0.355805 0.414611 0.473418 0.532225 0.591032 0.598203 0.605375 0.612547 0.619719 0.638998 0.658276 0.677554 0.696832 0.620819 0.544806 0.468793 0.39278 0.453986 0.515193 0.5764 0.637606 0.610277 0.582947 0.555618 0.528288 0.52626 0.524232 0.522204 0.520176 0.47304 0.425904 0.378768 0.331632 0.367892 0.404152 0.440412 0.476672 0.463271 0.44987 0.436469 0.423067 0.481871 0.540675 0.599478 0.658282 0.682929 0.707577 0.732224 0.756871 0.649 0.541129 0.433258 0.325387 0.367585 0.409783 0.451982 0.49418 0.56439 0.57035 0.576311 0.582272 0.588232 0.540008 0.491785 0.443561 0.395337 0.434367 0.473397 0.512427 0.551457 0.570388 0.589318 0.608249 0.627179 0.659539 0.691899 0.724259 0.756619 0.650036 0.543453 0.43687 0.330286 0.41671 0.503133 0.589557 0.675981 0.645982 0.615984 0.585986 0.555988 0.580195 0.604401 0.628608 0.652815 0.565435 0.478056 0.390676 0.303296 0.336626 0.369956 0.403286 0.436616 0.410904 0.385191 0.359479 0.333766 0.398869 0.463971 0.529074 0.594176 0.627355 0.660535 0.693714 0.726893 0.634378 0.541862 0.449347 0.356832 0.374036 0.391239 0.408443 0.425646 0.585188 0.567085 0.548982 0.53088 0.512777 0.4933 0.473823 0.454346 0.43487 0.454123 0.473376 0.49263 0.511883 0.542572 0.573261 0.60395 0.634639 0.680081 0.725523 0.770965 0.816407 0.679253 0.5421 0.404946 0.267792 0.379433 0.491074 0.602714 0.714355 0.681688 0.649021 0.616355 0.583688 0.63413 0.684571 0.735012 0.785454 0.657831 0.530207 0.402584 0.27496 0.30536 0.33576 0.36616 0.39656 0.358536 0.320512 0.282488 0.244465 0.315866 0.387267 0.458669 0.53007 0.571781 0.613492 0.655203 0.696914 0.619755 0.542596 0.465437 0.388277 0.380486 0.372695 0.364904 0.357112 0.542125 0.533753 0.525381 0.517009 0.508636 0.505133 0.501629 0.498125 0.494621 0.500113 0.505604 0.511096 0.516587 0.534585 0.552582 0.570579 0.588577 0.643252 0.697928 0.752603 0.807278 0.706769 0.60626 0.505751 0.405242 0.475702 0.546163 0.616623 0.687083 0.64305 0.599017 0.554984 0.510951 0.56794 0.624928 0.681917 0.738905 0.633917 0.528929 0.423941 0.318952 0.365687 0.412422 0.459157 0.505892 0.449642 0.393393 0.337144 0.280895 0.350934 0.420974 0.491014 0.561053 0.585649 0.610245 0.634841 0.659438 0.58796 0.516482 0.445004 0.373526 0.387848 0.402171 0.416493 0.430815 0.499061 0.50042 0.501779 0.503138 0.504496 0.516965 0.529434 0.541903 0.554372 0.546102 0.537832 0.529562 0.521292 0.526597 0.531903 0.537209 0.542515 0.606423 0.670332 0.734241 0.79815 0.734285 0.670421 0.606556 0.542692 0.571972 0.601252 0.630532 0.659812 0.604413 0.549013 0.493614 0.438215 0.50175 0.565285 0.628821 0.692356 0.610003 0.52765 0.445297 0.362945 0.426014 0.489084 0.552153 0.615223 0.540748 0.466274 0.391799 0.317325 0.386002 0.45468 0.523358 0.592036 0.599517 0.606998 0.61448 0.621961 0.556165 0.490368 0.424572 0.358776 0.395211 0.431646 0.468081 0.504517 0.455998 0.467087 0.478177 0.489267 0.500356 0.528798 0.55724 0.585682 0.614123 0.592091 0.57006 0.548028 0.525996 0.51861 0.511224 0.503838 0.496452 0.569595 0.642737 0.715879 0.789021 0.761801 0.734581 0.707361 0.680141 0.668241 0.656341 0.64444 0.63254 0.565775 0.499009 0.432244 0.365478 0.43556 0.505642 0.575725 0.645807 0.586089 0.526372 0.466654 0.406937 0.486341 0.565746 0.64515 0.724554 0.631854 0.539154 0.446455 0.353755 0.421071 0.488387 0.555703 0.623019 0.613385 0.603751 0.594118 0.584484 0.524369 0.464254 0.40414 0.344025 0.402573 0.461122 0.51967 0.578219 0.412934 0.433755 0.454575 0.475396 0.496216 0.540631 0.585045 0.62946 0.673875 0.638081 0.602287 0.566494 0.5307 0.510623 0.490545 0.470468 0.45039 0.532766 0.615142 0.697517 0.779893 0.789317 0.798742 0.808166 0.817591 0.76451 0.71143 0.658349 0.605269 0.527137 0.449005 0.370873 0.292742 0.369371 0.446 0.522629 0.599258 0.562175 0.525093 0.488011 0.450929 0.546668 0.642407 0.738146 0.833886 0.72296 0.612035 0.50111 0.390185 0.456139 0.522093 0.588047 0.654001 0.627253 0.600504 0.573756 0.547007 0.492574 0.438141 0.383707 0.329274 0.409936 0.490597 0.571259 0.651921 0.36946 0.390581 0.411701 0.432822 0.453942 0.481721 0.5095 0.537279 0.565057 0.571282 0.577507 0.583732 0.589957 0.573112 0.556267 0.539422 0.522577 0.555948 0.589318 0.622688 0.656058 0.674632 0.693206 0.71178 0.730354 0.679119 0.627884 0.57665 0.525415 0.484605 0.443796 0.402987 0.362177 0.434501 0.506824 0.579147 0.651471 0.596376 0.541282 0.486188 0.431093 0.531778 0.632462 0.733147 0.833831 0.725441 0.61705 0.50866 0.400269 0.444164 0.488058 0.531953 0.575848 0.573833 0.571818 0.569804 0.567789 0.538909 0.510029 0.481149 0.452269 0.499541 0.546813 0.594085 0.641357 0.325987 0.347407 0.368828 0.390248 0.411669 0.422811 0.433954 0.445097 0.45624 0.504484 0.552727 0.60097 0.649213 0.635601 0.621989 0.608376 0.594764 0.579129 0.563494 0.547859 0.532224 0.559947 0.587671 0.615394 0.643117 0.593728 0.544339 0.49495 0.445561 0.442074 0.438587 0.4351 0.431613 0.49963 0.567648 0.635666 0.703684 0.630577 0.557471 0.484364 0.411258 0.516888 0.622517 0.728147 0.833777 0.727921 0.622065 0.51621 0.410354 0.432189 0.454024 0.475859 0.497694 0.520413 0.543132 0.565851 0.58857 0.585244 0.581918 0.578591 0.575265 0.589147 0.603029 0.616911 0.630792 0.282513 0.304233 0.325954 0.347674 0.369395 0.363902 0.358409 0.352916 0.347423 0.437685 0.527946 0.618208 0.70847 0.69809 0.68771 0.677331 0.666951 0.602311 0.53767 0.47303 0.408389 0.445262 0.482135 0.519008 0.555881 0.508337 0.460794 0.41325 0.365707 0.399542 0.433377 0.467213 0.501048 0.56476 0.628472 0.692185 0.755897 0.664778 0.573659 0.482541 0.391422 0.501997 0.612573 0.723148 0.833723 0.730402 0.627081 0.52376 0.420438 0.420214 0.419989 0.419765 0.41954 0.466993 0.514446 0.561899 0.609352 0.631579 0.653806 0.676033 0.698261 0.678752 0.659244 0.639736 0.620228 0.239039 0.261059 0.28308 0.3051 0.327121 0.304992 0.282864 0.260735 0.238606 0.370886 0.503166 0.635446 0.767726 0.760579 0.753432 0.746285 0.739138 0.625492 0.511846 0.3982 0.284554 0.330577 0.376599 0.422622 0.468644 0.422946 0.377248 0.331551 0.285853 0.357011 0.428168 0.499326 0.570483 0.62989 0.689297 0.748703 0.80811 0.698979 0.589848 0.480717 0.371587 0.487107 0.602628 0.718148 0.833669 0.732882 0.632096 0.531309 0.430523 0.408239 0.385955 0.363671 0.341386 0.413573 0.48576 0.557947 0.630134 0.677914 0.725695 0.773476 0.821256 0.768358 0.71546 0.662562 0.609664 0.241015 0.269974 0.298933 0.327891 0.35685 0.332031 0.307212 0.282393 0.257574 0.35936 0.461146 0.562932 0.664718 0.652303 0.639888 0.627473 0.615058 0.563273 0.511488 0.459704 0.407919 0.438165 0.468411 0.498657 0.528904 0.478083 0.427263 0.376442 0.325622 0.397063 0.468505 0.539947 0.611389 0.652865 0.694341 0.735817 0.777293 0.690249 0.603204 0.51616 0.429116 0.506787 0.584458 0.66213 0.739801 0.662843 0.585885 0.508926 0.431968 0.404598 0.377228 0.349857 0.322487 0.386616 0.450745 0.514874 0.579003 0.62286 0.666717 0.710575 0.754432 0.711773 0.669114 0.626455 0.583795 0.242992 0.278888 0.314785 0.350682 0.386579 0.35907 0.33156 0.304051 0.276542 0.347834 0.419126 0.490418 0.561709 0.544027 0.526344 0.508661 0.490978 0.501054 0.511131 0.521207 0.531283 0.545753 0.560223 0.574693 0.589163 0.53322 0.477277 0.421334 0.36539 0.437116 0.508842 0.580568 0.652294 0.67584 0.699386 0.722931 0.746477 0.681519 0.616561 0.551603 0.486645 0.526467 0.566289 0.606111 0.645933 0.592803 0.539673 0.486543 0.433413 0.400957 0.3685 0.336044 0.303587 0.359659 0.41573 0.471801 0.527872 0.567806 0.60774 0.647674 0.687608 0.655188 0.622767 0.590347 0.557927 0.244968 0.287803 0.330638 0.373473 0.416308 0.386108 0.355909 0.325709 0.29551 0.336308 0.377106 0.417903 0.458701 0.43575 0.4128 0.389849 0.366898 0.438835 0.510773 0.58271 0.654647 0.653341 0.652035 0.650729 0.649423 0.588357 0.527291 0.466225 0.405159 0.477169 0.54918 0.62119 0.6932 0.698815 0.70443 0.710045 0.71566 0.672789 0.629917 0.587046 0.544174 0.546147 0.54812 0.550093 0.552066 0.522764 0.493462 0.46416 0.434858 0.397316 0.359773 0.32223 0.284688 0.332701 0.380715 0.428728 0.476741 0.512752 0.548763 0.584773 0.620784 0.598603 0.576421 0.55424 0.532059 0.246944 0.296717 0.34649 0.396263 0.446036 0.413147 0.380257 0.347368 0.314478 0.324782 0.335085 0.345389 0.355693 0.327474 0.299255 0.271037 0.242818 0.376617 0.510415 0.644213 0.778012 0.760929 0.743847 0.726765 0.709683 0.643494 0.577305 0.511117 0.444928 0.517222 0.589517 0.661811 0.734106 0.72179 0.709475 0.697159 0.684844 0.664059 0.643273 0.622488 0.601703 0.565827 0.529951 0.494074 0.458198 0.452725 0.447251 0.441777 0.436304 0.393675 0.351046 0.308417 0.265788 0.305744 0.345699 0.385655 0.425611 0.457698 0.489785 0.521873 0.55396 0.542017 0.530075 0.518133 0.50619 0.337499 0.370224 0.402948 0.435673 0.468397 0.455419 0.442441 0.429462 0.416484 0.396015 0.375546 0.355078 0.334609 0.327865 0.32112 0.314376 0.307631 0.412948 0.518265 0.623581 0.728898 0.700233 0.671567 0.642902 0.614237 0.581295 0.548354 0.515412 0.482471 0.514668 0.546864 0.579061 0.611257 0.622643 0.634028 0.645414 0.656799 0.651708 0.646617 0.641525 0.636434 0.596037 0.555639 0.515242 0.474844 0.468353 0.461861 0.45537 0.448878 0.405477 0.362076 0.318674 0.275273 0.300534 0.325795 0.351056 0.376317 0.428875 0.481434 0.533993 0.586551 0.579835 0.573119 0.566403 0.559687 0.428054 0.44373 0.459406 0.475082 0.490758 0.497691 0.504624 0.511557 0.51849 0.467249 0.416007 0.364766 0.313525 0.328255 0.342985 0.357715 0.372445 0.44928 0.526115 0.60295 0.679785 0.639536 0.599288 0.559039 0.51879 0.519096 0.519402 0.519708 0.520014 0.512113 0.504211 0.49631 0.488409 0.523495 0.558582 0.593668 0.628755 0.639357 0.64996 0.660562 0.671165 0.626246 0.581328 0.536409 0.49149 0.483981 0.476471 0.468962 0.461452 0.417279 0.373105 0.328932 0.284758 0.295324 0.30589 0.316456 0.327022 0.400053 0.473083 0.546113 0.619143 0.617653 0.616163 0.614673 0.613183 0.518609 0.517237 0.515864 0.514491 0.513119 0.539963 0.566807 0.593651 0.620496 0.538482 0.456469 0.374455 0.292441 0.328646 0.36485 0.401054 0.437258 0.485611 0.533965 0.582318 0.630671 0.57884 0.527008 0.475176 0.423344 0.456897 0.490451 0.524004 0.557557 0.509558 0.461559 0.413559 0.36556 0.424348 0.483135 0.541923 0.60071 0.627006 0.653303 0.6796 0.705896 0.656456 0.607016 0.557576 0.508136 0.499609 0.491082 0.482554 0.474027 0.429081 0.384135 0.339189 0.294243 0.290114 0.285986 0.281857 0.277728 0.37123 0.464732 0.558233 0.651735 0.655471 0.659207 0.662943 0.66668 0.609164 0.590743 0.572322 0.553901 0.535479 0.582235 0.628991 0.675746 0.722502 0.609716 0.49693 0.384144 0.271358 0.329036 0.386714 0.444393 0.502071 0.521943 0.541815 0.561686 0.581558 0.518143 0.454728 0.391313 0.327898 0.394698 0.461499 0.5283 0.5951 0.507003 0.418906 0.330809 0.242712 0.3252 0.407689 0.490177 0.572665 0.614656 0.656646 0.698637 0.740627 0.686666 0.632705 0.578744 0.524782 0.515237 0.505692 0.496147 0.486601 0.440883 0.395165 0.349446 0.303728 0.284904 0.266081 0.247258 0.228434 0.342407 0.45638 0.570353 0.684326 0.693289 0.702251 0.711214 0.720176 0.554409 0.533949 0.513488 0.493028 0.472567 0.517765 0.562963 0.608161 0.653358 0.586663 0.519967 0.453272 0.386576 0.430335 0.474094 0.517853 0.561611 0.569566 0.577522 0.585477 0.593432 0.557481 0.52153 0.485579 0.449628 0.499058 0.548489 0.597919 0.647349 0.548582 0.449814 0.351046 0.252278 0.335231 0.418185 0.501138 0.584091 0.60899 0.633889 0.658788 0.683687 0.626904 0.570122 0.513339 0.456557 0.482127 0.507698 0.533269 0.55884 0.508774 0.458708 0.408642 0.358576 0.355275 0.351975 0.348674 0.345373 0.402765 0.460156 0.517548 0.57494 0.589981 0.605023 0.620064 0.635106 0.499654 0.477154 0.454654 0.432154 0.409655 0.453295 0.496935 0.540575 0.584215 0.56361 0.543005 0.5224 0.501795 0.531634 0.561473 0.591312 0.621152 0.61719 0.613229 0.609267 0.605306 0.596819 0.588332 0.579845 0.571358 0.603418 0.635478 0.667539 0.699599 0.59016 0.480721 0.371283 0.261844 0.345262 0.428681 0.512099 0.595517 0.603325 0.611132 0.618939 0.626746 0.567142 0.507538 0.447935 0.388331 0.449017 0.509704 0.570391 0.631078 0.576664 0.522251 0.467838 0.413424 0.425646 0.437868 0.45009 0.462312 0.463122 0.463933 0.464743 0.465553 0.486674 0.507795 0.528915 0.550036 0.444898 0.420359 0.39582 0.371281 0.346742 0.388825 0.430907 0.472989 0.515072 0.540557 0.566043 0.591528 0.617014 0.632933 0.648853 0.664772 0.680692 0.664814 0.648936 0.633058 0.61718 0.636157 0.655134 0.674111 0.693088 0.707778 0.722468 0.737158 0.751848 0.631738 0.511629 0.391519 0.27141 0.355293 0.439177 0.52306 0.606944 0.597659 0.588375 0.57909 0.569806 0.50738 0.444955 0.38253 0.320105 0.415908 0.51171 0.607513 0.703316 0.644555 0.585794 0.527034 0.468273 0.496017 0.523762 0.551507 0.579251 0.52348 0.467709 0.411937 0.356166 0.383366 0.410566 0.437766 0.464966 0.390143 0.363565 0.336987 0.310408 0.28383 0.324355 0.364879 0.405404 0.445929 0.517505 0.589081 0.660657 0.732233 0.734233 0.736232 0.738232 0.740232 0.712438 0.684643 0.656848 0.629053 0.675495 0.721936 0.768377 0.814818 0.812138 0.809458 0.806778 0.804097 0.673317 0.542537 0.411756 0.280976 0.365324 0.449673 0.534021 0.61837 0.591994 0.565617 0.539241 0.512865 0.447619 0.382372 0.317125 0.251879 0.382798 0.513717 0.644635 0.775554 0.712446 0.649338 0.586229 0.523121 0.566388 0.609656 0.652923 0.69619 0.583838 0.471485 0.359132 0.246779 0.280059 0.313338 0.346617 0.379897 0.445769 0.406055 0.36634 0.326625 0.28691 0.337025 0.387141 0.437256 0.487371 0.531111 0.57485 0.61859 0.66233 0.67881 0.695289 0.711769 0.728248 0.702965 0.677681 0.652398 0.627115 0.651258 0.675402 0.699545 0.723689 0.718471 0.713253 0.708036 0.702818 0.606313 0.509807 0.413301 0.316795 0.402845 0.488894 0.574943 0.660992 0.622994 0.584997 0.546999 0.509001 0.459524 0.410046 0.360569 0.311092 0.409742 0.508393 0.607043 0.705694 0.677694 0.649694 0.621694 0.593694 0.597569 0.601445 0.60532 0.609196 0.550988 0.492781 0.434573 0.376366 0.367581 0.358796 0.350012 0.341227 0.501395 0.448544 0.395693 0.342842 0.28999 0.349696 0.409402 0.469108 0.528813 0.544717 0.56062 0.576524 0.592427 0.623387 0.654346 0.685305 0.716264 0.693492 0.67072 0.647948 0.625176 0.627021 0.628867 0.630713 0.632559 0.624804 0.617049 0.609294 0.601539 0.539308 0.477077 0.414846 0.352615 0.440365 0.528115 0.615865 0.703615 0.653995 0.604376 0.554757 0.505137 0.471429 0.437721 0.404013 0.370305 0.436687 0.503069 0.569451 0.635833 0.642941 0.65005 0.657158 0.664266 0.62875 0.593234 0.557718 0.522201 0.518139 0.514077 0.510014 0.505952 0.455104 0.404255 0.353406 0.302558 0.557022 0.491034 0.425046 0.359058 0.293071 0.362367 0.431663 0.500959 0.570256 0.558323 0.54639 0.534458 0.522525 0.567964 0.613402 0.658841 0.70428 0.684019 0.663758 0.643498 0.623237 0.602785 0.582333 0.561881 0.541429 0.531137 0.520845 0.510552 0.50026 0.472304 0.444347 0.416391 0.388435 0.477885 0.567336 0.656787 0.746237 0.684996 0.623755 0.562514 0.501273 0.483334 0.465395 0.447457 0.429518 0.463631 0.497745 0.531859 0.565972 0.608189 0.650406 0.692622 0.734839 0.659931 0.585023 0.510115 0.435207 0.48529 0.535373 0.585456 0.635538 0.542626 0.449713 0.356801 0.263888 0.612648 0.533524 0.454399 0.375275 0.296151 0.375038 0.453924 0.532811 0.611698 0.571929 0.53216 0.492391 0.452622 0.512541 0.572459 0.632378 0.692296 0.674547 0.656797 0.639047 0.621298 0.578548 0.535799 0.493049 0.4503 0.43747 0.42464 0.411811 0.398981 0.405299 0.411617 0.417936 0.424254 0.515406 0.606557 0.697709 0.78886 0.715997 0.643135 0.570272 0.497409 0.49524 0.49307 0.4909 0.488731 0.490576 0.492421 0.494266 0.496112 0.573437 0.650762 0.728086 0.805411 0.691112 0.576812 0.462512 0.348213 0.452441 0.556669 0.660897 0.765125 0.630148 0.495172 0.360195 0.225219 0.564523 0.52229 0.480058 0.437825 0.395592 0.437985 0.480378 0.522771 0.565164 0.546234 0.527303 0.508372 0.489441 0.527845 0.566249 0.604653 0.643056 0.61231 0.581564 0.550818 0.520071 0.511195 0.502319 0.493444 0.484568 0.475043 0.465519 0.455995 0.446471 0.453094 0.459716 0.466339 0.472961 0.52925 0.585538 0.641826 0.698115 0.649397 0.600678 0.55196 0.503242 0.509822 0.516402 0.522981 0.529561 0.538273 0.546985 0.555696 0.564408 0.589602 0.614796 0.63999 0.665185 0.581213 0.497241 0.413269 0.329297 0.429 0.528702 0.628405 0.728107 0.632043 0.535979 0.439914 0.34385 0.516399 0.511057 0.505716 0.500375 0.495033 0.500933 0.506832 0.512731 0.518631 0.520538 0.522446 0.524353 0.52626 0.543149 0.560038 0.576927 0.593817 0.550074 0.506331 0.462588 0.418845 0.443843 0.46884 0.493838 0.518836 0.512617 0.506398 0.50018 0.493961 0.500888 0.507815 0.514742 0.521669 0.543094 0.564519 0.585944 0.60737 0.582796 0.558222 0.533648 0.509075 0.524404 0.539733 0.555063 0.570392 0.58597 0.601548 0.617126 0.632704 0.605768 0.578831 0.551894 0.524958 0.471314 0.41767 0.364026 0.310382 0.405559 0.500736 0.595912 0.691089 0.633937 0.576785 0.519634 0.462482 0.468274 0.499824 0.531374 0.562924 0.594474 0.56388 0.533286 0.502692 0.472097 0.494843 0.517588 0.540334 0.563079 0.558454 0.553828 0.549202 0.544577 0.487837 0.431098 0.374358 0.317618 0.37649 0.435361 0.494232 0.553104 0.550191 0.547277 0.544364 0.541451 0.548682 0.555913 0.563145 0.570376 0.556938 0.5435 0.530062 0.516624 0.516195 0.515766 0.515336 0.514907 0.538986 0.563065 0.587144 0.611223 0.633667 0.656112 0.678556 0.701001 0.621933 0.542866 0.463798 0.384731 0.361415 0.338099 0.314783 0.291467 0.382118 0.472769 0.56342 0.654071 0.635831 0.617592 0.599353 0.581113 0.42015 0.488591 0.557033 0.625474 0.693915 0.626827 0.55974 0.492652 0.425564 0.469147 0.512731 0.556315 0.599898 0.573758 0.547618 0.521477 0.495337 0.425601 0.355864 0.286128 0.216392 0.309137 0.401882 0.494627 0.587372 0.587764 0.588156 0.588549 0.588941 0.596476 0.604012 0.611548 0.619083 0.570782 0.522481 0.47418 0.425879 0.449594 0.473309 0.497024 0.52074 0.553568 0.586396 0.619225 0.652053 0.681364 0.710675 0.739986 0.769297 0.638099 0.506901 0.375702 0.244504 0.251516 0.258528 0.26554 0.272552 0.358677 0.444802 0.530928 0.617053 0.637726 0.658399 0.679072 0.699745 0.52069 0.538853 0.557016 0.575179 0.593341 0.552228 0.511115 0.470002 0.428889 0.473908 0.518927 0.563946 0.608965 0.577515 0.546064 0.514613 0.483162 0.450066 0.41697 0.383873 0.350777 0.397834 0.444892 0.491949 0.539006 0.53306 0.527114 0.521168 0.515222 0.542102 0.568982 0.595862 0.622742 0.568009 0.513276 0.458542 0.403809 0.447815 0.49182 0.535826 0.579831 0.599831 0.619831 0.63983 0.65983 0.668754 0.677679 0.686603 0.695527 0.580612 0.465696 0.350781 0.235866 0.247053 0.25824 0.269427 0.280614 0.349908 0.419202 0.488496 0.55779 0.597597 0.637403 0.67721 0.717017 0.62123 0.589115 0.556999 0.524883 0.492768 0.477629 0.462491 0.447352 0.432214 0.478669 0.525123 0.571578 0.618032 0.581271 0.54451 0.507749 0.470988 0.474531 0.478075 0.481618 0.485162 0.486531 0.487901 0.489271 0.490641 0.478356 0.466072 0.453788 0.441503 0.487728 0.533952 0.580176 0.626401 0.565235 0.50407 0.442905 0.381739 0.446035 0.510331 0.574627 0.638923 0.646094 0.653265 0.660436 0.667607 0.656145 0.644682 0.63322 0.621758 0.523125 0.424492 0.32586 0.227227 0.24259 0.257952 0.273315 0.288677 0.341139 0.393602 0.446064 0.498527 0.557467 0.616408 0.675349 0.73429 0.721771 0.639376 0.556982 0.474588 0.392194 0.40303 0.413866 0.424703 0.435539 0.483429 0.531319 0.579209 0.627099 0.585028 0.542956 0.500885 0.458814 0.498997 0.53918 0.579363 0.619547 0.575229 0.530911 0.486593 0.442275 0.423652 0.40503 0.386407 0.367785 0.433353 0.498922 0.564491 0.630059 0.562462 0.494865 0.427267 0.35967 0.444256 0.528842 0.613428 0.698015 0.692357 0.686699 0.681042 0.675384 0.643535 0.611686 0.579837 0.547988 0.465638 0.383288 0.300938 0.218589 0.238126 0.257664 0.277202 0.29674 0.332371 0.368002 0.403633 0.439264 0.517338 0.595413 0.673487 0.751562 0.822311 0.689638 0.556965 0.424293 0.29162 0.328431 0.365242 0.402053 0.438864 0.48819 0.537515 0.586841 0.636166 0.588785 0.541403 0.494021 0.446639 0.523462 0.600285 0.677109 0.753932 0.663926 0.57392 0.483915 0.393909 0.368948 0.343988 0.319027 0.294066 0.378979 0.463892 0.548805 0.633718 0.559689 0.485659 0.411629 0.3376 0.442476 0.547353 0.65223 0.757106 0.73862 0.720134 0.701647 0.683161 0.630925 0.578689 0.526454 0.474218 0.408151 0.342084 0.276017 0.20995 0.233663 0.257376 0.281089 0.304802 0.323602 0.342401 0.361201 0.38 0.477209 0.574418 0.671626 0.768835 0.762144 0.652176 0.542207 0.432238 0.32227 0.348275 0.37428 0.400285 0.426289 0.46927 0.512251 0.555231 0.598212 0.581108 0.564004 0.546901 0.529797 0.588258 0.646718 0.705179 0.76364 0.679606 0.595572 0.511539 0.427505 0.413599 0.399693 0.385788 0.371882 0.439176 0.506471 0.573765 0.64106 0.55816 0.475261 0.392361 0.309462 0.409814 0.510167 0.610519 0.710872 0.676202 0.641532 0.606862 0.572192 0.547823 0.523454 0.499085 0.474716 0.42693 0.379145 0.33136 0.283574 0.28389 0.284205 0.28452 0.284835 0.300401 0.315967 0.331532 0.347098 0.454586 0.562074 0.669562 0.77705 0.701977 0.614713 0.527448 0.440184 0.352919 0.368118 0.383317 0.398516 0.413715 0.45035 0.486986 0.523621 0.560257 0.573432 0.586606 0.599781 0.612955 0.653053 0.693151 0.733249 0.773348 0.695286 0.617224 0.539162 0.4611 0.45825 0.455399 0.452549 0.449698 0.499374 0.54905 0.598726 0.648401 0.556632 0.464863 0.373094 0.281324 0.377152 0.47298 0.568809 0.664637 0.613783 0.56293 0.512076 0.461223 0.464721 0.468218 0.471716 0.475213 0.44571 0.416206 0.386702 0.357199 0.334116 0.311034 0.287951 0.264868 0.2772 0.289532 0.301864 0.314195 0.431963 0.54973 0.667497 0.785265 0.641811 0.57725 0.51269 0.44813 0.383569 0.387962 0.392355 0.396747 0.40114 0.431431 0.461721 0.492012 0.522302 0.565755 0.609208 0.652661 0.696114 0.717849 0.739584 0.76132 0.783055 0.710966 0.638876 0.566786 0.494696 0.502901 0.511105 0.51931 0.527514 0.559571 0.591629 0.623686 0.655743 0.555104 0.454465 0.353826 0.253187 0.34449 0.435794 0.527098 0.618402 0.551365 0.484328 0.417291 0.350254 0.381618 0.412983 0.444347 0.475711 0.464489 0.453267 0.442045 0.430823 0.384343 0.337862 0.291382 0.244902 0.253999 0.263097 0.272195 0.281293 0.409339 0.537386 0.665433 0.79348 0.581644 0.539788 0.497931 0.456075 0.414219 0.407805 0.401392 0.394979 0.388565 0.412511 0.436456 0.460402 0.484347 0.558079 0.63181 0.705541 0.779272 0.782645 0.786018 0.78939 0.792763 0.726645 0.660528 0.59441 0.528292 0.547551 0.566811 0.586071 0.60533 0.619769 0.634207 0.648646 0.663084 0.553576 0.444067 0.334558 0.225049 0.311828 0.398608 0.485387 0.572167 0.488946 0.405726 0.322506 0.239285 0.298516 0.357747 0.416978 0.476209 0.483268 0.490328 0.497388 0.504447 0.434569 0.364691 0.294813 0.224935 0.230799 0.236662 0.242526 0.24839 0.386716 0.525042 0.663369 0.801695 0.571201 0.533742 0.496283 0.458824 0.421366 0.416304 0.411241 0.406179 0.401117 0.410744 0.420372 0.429999 0.439627 0.494845 0.550063 0.605281 0.6605 0.670954 0.681408 0.691862 0.702317 0.652143 0.601969 0.551795 0.501622 0.533708 0.565794 0.59788 0.629966 0.62909 0.628215 0.627339 0.626463 0.543467 0.460471 0.377475 0.294479 0.346432 0.398385 0.450338 0.502291 0.469606 0.436921 0.404236 0.37155 0.407637 0.443724 0.47981 0.515897 0.5275 0.539103 0.550706 0.562308 0.502922 0.443536 0.38415 0.324763 0.341838 0.358913 0.375988 0.393063 0.497446 0.601828 0.706211 0.810593 0.560757 0.527696 0.494635 0.461574 0.428513 0.424802 0.42109 0.417379 0.413668 0.408978 0.404287 0.399596 0.394906 0.431611 0.468317 0.505022 0.541728 0.559263 0.576799 0.594334 0.61187 0.57764 0.543411 0.509181 0.474952 0.519864 0.564777 0.609689 0.654602 0.638412 0.622222 0.606031 0.589841 0.533358 0.476876 0.420393 0.36391 0.381036 0.398162 0.415288 0.432415 0.450265 0.468115 0.485965 0.503816 0.516758 0.529701 0.542643 0.555586 0.571732 0.587878 0.604024 0.620169 0.571275 0.522381 0.473486 0.424592 0.452878 0.481164 0.509451 0.537737 0.608176 0.678614 0.749053 0.819492 0.550314 0.52165 0.492987 0.464323 0.43566 0.4333 0.43094 0.42858 0.42622 0.407211 0.388202 0.369193 0.350185 0.368377 0.38657 0.404763 0.422956 0.447573 0.472189 0.496806 0.521423 0.503138 0.484852 0.466567 0.448282 0.506021 0.56376 0.621499 0.679238 0.647733 0.616229 0.584724 0.55322 0.52325 0.49328 0.46331 0.43334 0.41564 0.397939 0.380239 0.362538 0.430924 0.49931 0.567695 0.636081 0.625879 0.615678 0.605476 0.595274 0.615963 0.636652 0.657341 0.678031 0.639628 0.601226 0.562823 0.524421 0.563918 0.603415 0.642913 0.68241 0.718905 0.7554 0.791896 0.828391 0.539871 0.515605 0.491339 0.467072 0.442806 0.441798 0.440789 0.43978 0.438771 0.405444 0.372118 0.338791 0.305464 0.305144 0.304824 0.304504 0.304184 0.335882 0.36758 0.399278 0.430976 0.428635 0.426294 0.423953 0.421612 0.492177 0.562743 0.633308 0.703873 0.657055 0.610236 0.563417 0.516598 0.513141 0.509684 0.506228 0.502771 0.450244 0.397717 0.345189 0.292662 0.411583 0.530504 0.649425 0.768346 0.735 0.701654 0.668309 0.634963 0.660195 0.685427 0.710659 0.735892 0.707981 0.68007 0.65216 0.624249 0.674958 0.725666 0.776375 0.827084 0.829635 0.832186 0.834738 0.837289 0.495693 0.492586 0.489479 0.486371 0.483264 0.486496 0.489727 0.492958 0.496189 0.462161 0.428132 0.394103 0.360074 0.373674 0.387275 0.400875 0.414475 0.412307 0.410138 0.407969 0.4058 0.401416 0.397032 0.392649 0.388265 0.436411 0.484556 0.532702 0.580848 0.551645 0.522443 0.493241 0.464038 0.476455 0.488873 0.50129 0.513707 0.473385 0.433062 0.39274 0.352418 0.436669 0.520921 0.605173 0.689424 0.66148 0.633537 0.605593 0.577649 0.584475 0.5913 0.598125 0.604951 0.616011 0.627072 0.638132 0.649193 0.680135 0.711076 0.742018 0.77296 0.767865 0.762769 0.757673 0.752578 0.451515 0.469567 0.487618 0.50567 0.523722 0.531194 0.538665 0.546136 0.553608 0.518877 0.484146 0.449415 0.414684 0.442205 0.469726 0.497246 0.524767 0.488731 0.452695 0.41666 0.380624 0.374197 0.367771 0.361344 0.354918 0.380644 0.40637 0.432096 0.457822 0.446236 0.43465 0.423064 0.411478 0.43977 0.468061 0.496352 0.524643 0.496526 0.468408 0.440291 0.412173 0.461756 0.511338 0.56092 0.610502 0.587961 0.565419 0.542877 0.520336 0.508754 0.497173 0.485591 0.47401 0.524041 0.574073 0.624104 0.674136 0.685311 0.696487 0.707662 0.718837 0.706094 0.693352 0.680609 0.667866 0.407337 0.446548 0.485758 0.524969 0.56418 0.575891 0.587603 0.599314 0.611026 0.575593 0.54016 0.504727 0.469294 0.510735 0.552176 0.593617 0.635058 0.565156 0.495253 0.42535 0.355448 0.346978 0.338509 0.33004 0.32157 0.324877 0.328183 0.33149 0.334796 0.340827 0.346857 0.352888 0.358918 0.403084 0.447249 0.491414 0.535579 0.519667 0.503754 0.487842 0.471929 0.486842 0.501755 0.516668 0.53158 0.514441 0.497301 0.480162 0.463022 0.433034 0.403045 0.373057 0.343068 0.432071 0.521074 0.610076 0.699079 0.690488 0.681897 0.673305 0.664714 0.644324 0.623934 0.603544 0.583154 0.363159 0.423528 0.483898 0.544268 0.604638 0.620589 0.636541 0.652492 0.668444 0.632309 0.596174 0.560039 0.523904 0.579266 0.634627 0.689989 0.74535 0.64158 0.537811 0.434041 0.330271 0.319759 0.309247 0.298735 0.288223 0.26911 0.249997 0.230884 0.211771 0.235418 0.259065 0.282712 0.306359 0.366398 0.426437 0.486476 0.546516 0.542808 0.5391 0.535392 0.531684 0.511928 0.492171 0.472415 0.452659 0.440921 0.429183 0.417446 0.405708 0.357313 0.308918 0.260523 0.212127 0.340101 0.468075 0.596048 0.724022 0.695664 0.667307 0.638949 0.610591 0.582554 0.554517 0.52648 0.498443 0.362187 0.429833 0.49748 0.565126 0.632773 0.645453 0.658133 0.670813 0.683493 0.65753 0.631567 0.605604 0.579641 0.605993 0.632346 0.658698 0.68505 0.627053 0.569056 0.511058 0.453061 0.440074 0.427087 0.4141 0.401113 0.356751 0.31239 0.268028 0.223667 0.247666 0.271664 0.295663 0.319662 0.387522 0.455382 0.523243 0.591103 0.572114 0.553126 0.534137 0.515149 0.502714 0.490279 0.477843 0.465408 0.475709 0.48601 0.496311 0.506612 0.470835 0.435057 0.39928 0.363502 0.451668 0.539833 0.627999 0.716164 0.687182 0.658199 0.629216 0.600234 0.593414 0.586595 0.579776 0.572956 0.361215 0.436138 0.511061 0.585984 0.660907 0.670316 0.679725 0.689134 0.698542 0.682751 0.66696 0.651169 0.635378 0.632721 0.630064 0.627408 0.624751 0.612526 0.600301 0.588076 0.575851 0.560389 0.544927 0.529465 0.514003 0.444393 0.374783 0.305173 0.235563 0.259914 0.284264 0.308615 0.332965 0.408647 0.484328 0.560009 0.63569 0.601421 0.567151 0.532882 0.498613 0.493499 0.488386 0.483272 0.478158 0.510498 0.542837 0.575177 0.607516 0.584356 0.561197 0.538037 0.514877 0.563234 0.611592 0.659949 0.708306 0.678699 0.649091 0.619484 0.589877 0.604275 0.618673 0.633072 0.64747 0.360243 0.442443 0.524642 0.606842 0.689042 0.695179 0.701317 0.707454 0.713592 0.707972 0.702353 0.696734 0.691115 0.659449 0.627783 0.596117 0.564451 0.597999 0.631546 0.665093 0.69864 0.680703 0.662767 0.64483 0.626893 0.532034 0.437176 0.342317 0.247459 0.272161 0.296864 0.321566 0.346269 0.429771 0.513273 0.596775 0