<?xml version="1.0"?> 
<VTKFile type="StructuredGrid" version="0.1"> 
<StructuredGrid WholeExtent="0 128 0 128 0 0"> 
<Piece Extent="0 128 0 128 0 0"> 
<PointData>
<DataArray type="Float32" Name="u" format="ascii" NumberOfComponents="1"> 
0 0 0 0 0 0 0 0 0 0 0 0 0 0 0 0 0 0 0 0 0 0 0 0 0 0 0 0 0 0 0 0 0 0 0 0 0 0 0 0 0 0 0 0 0 0 0 0 0 0 0 0 0 0 0 0 0 0 0 0 0 0 0 0 0 0 0 0 0 0 0 0 0 0 0 0 0 0 0 0 0 0 0 0 0 0 0 0 0 0 0 0 0 0 0 0 0 0 0 0 0 0 0 0 0 0 0 0 0 0 0 0 0 0 0 0 0 0 0 0 0 0 0 0 0 0 0 0 0 0 2.85423e-07 1.14169e-06 2.56881e-06 4.56677e-06 7.13557e-06 1.02752e-05 1.39857e-05 1.82671e-05 2.33364e-05 2.94107e-05 3.64902e-05 4.45747e-05 5.36643e-05 6.3759e-05 7.48588e-05 8.69636e-05 9.96307e-05 0.000112417 0.000125323 0.000138348 0.000151493 0.000164757 0.00017814 0.000191643 0.000204872 0.000217431 0.000229323 0.000240546 0.0002511 0.000260986 0.000270204 0.000278753 0.00028657 0.000293592 0.00029982 0.000305252 0.000309889 0.000313732 0.000316779 0.000319032 0.000320733 0.000322128 0.000323216 0.000323998 0.000324473 0.000324641 0.000324502 0.000324057 0.000323661 0.000323671 0.000324088 0.000324911 0.000326141 0.000327776 0.000329818 0.000332266 0.000335319 0.000339177 0.00034384 0.000349307 0.000355579 0.000362655 0.000370536 0.000379221 0.000388573 0.000398451 0.000408857 0.00041979 0.00043125 0.000443237 0.000455752 0.000468794 0.000481921 0.000494692 0.000507108 0.000519167 0.00053087 0.000542217 0.000553208 0.000563843 0.000573624 0.000582055 0.000589135 0.000594865 0.000599244 0.000602272 0.00060395 0.000604277 0.000603019 0.000599939 0.00059504 0.00058832 0.000579779 0.000569418 0.000557237 0.000543235 0.000527647 0.00051071 0.000492423 0.000472786 0.000451799 0.000429462 0.000405775 0.000380739 0.000355082 0.000329536 0.0003041 0.000278774 0.000253559 0.000228454 0.000203459 0.000178574 0.000154677 0.000132646 0.000112479 9.41785e-05 7.77429e-05 6.31727e-05 5.04677e-05 3.9628e-05 3.03402e-05 2.22908e-05 1.54797e-05 9.90701e-06 5.57269e-06 2.47675e-06 6.19188e-07 0 0 1.14169e-06 4.56677e-06 1.02752e-05 1.82671e-05 2.85423e-05 4.11009e-05 5.59429e-05 7.30682e-05 9.33455e-05 0.000117643 0.000145961 0.000178299 0.000214657 0.000255036 0.000299435 0.000347855 0.000398523 0.000449669 0.000501292 0.000553393 0.000605972 0.000659028 0.000712562 0.000766573 0.000819486 0.000869726 0.000917291 0.000962183 0.0010044 0.00104394 0.00108081 0.00111501 0.00114628 0.00117437 0.00119928 0.00122101 0.00123956 0.00125493 0.00126712 0.00127613 0.00128293 0.00128851 0.00129287 0.00129599 0.00129789 0.00129856 0.00129801 0.00129623 0.00129464 0.00129469 0.00129635 0.00129965 0.00130456 0.0013111 0.00131927 0.00132906 0.00134128 0.00135671 0.00137536 0.00139723 0.00142232 0.00145062 0.00148214 0.00151689 0.00155429 0.0015938 0.00163543 0.00167916 0.001725 0.00177295 0.00182301 0.00187517 0.00192768 0.00197877 0.00202843 0.00207667 0.00212348 0.00216887 0.00221283 0.00225537 0.0022945 0.00232822 0.00235654 0.00237946 0.00239698 0.00240909 0.0024158 0.00241711 0.00241207 0.00239976 0.00238016 0.00235328 0.00231912 0.00227767 0.00222895 0.00217294 0.00211059 0.00204284 0.00196969 0.00189114 0.0018072 0.00171785 0.0016231 0.00152295 0.00142033 0.00131814 0.0012164 0.0011151 0.00101424 0.000913814 0.000813835 0.000714296 0.000618709 0.000530583 0.000449918 0.000376714 0.000310972 0.000252691 0.000201871 0.000158512 0.000121361 8.91631e-05 6.19188e-05 3.9628e-05 2.22908e-05 9.90701e-06 2.47675e-06 0 0 2.56881e-06 1.02752e-05 2.31192e-05 4.11009e-05 6.42201e-05 9.2477e-05 0.000125871 0.000164404 0.000210027 0.000264697 0.000328412 0.000401173 0.000482979 0.000573831 0.000673729 0.000782673 0.000896676 0.00101175 0.00112791 0.00124513 0.00136344 0.00148281 0.00160326 0.00172479 0.00184384 0.00195688 0.00206391 0.00216491 0.0022599 0.00234887 0.00243183 0.00250877 0.00257913 0.00264233 0.00269838 0.00274727 0.002789 0.00282359 0.00285101 0.00287128 0.0028866 0.00289915 0.00290895 0.00291598 0.00292025 0.00292177 0.00292052 0.00291651 0.00291295 0.00291304 0.00291679 0.0029242 0.00293527 0.00294999 0.00296836 0.00299039 0.00301787 0.0030526 0.00309456 0.00314376 0.00320021 0.0032639 0.00333482 0.00341299 0.00349715 0.00358606 0.00367971 0.00377811 0.00388125 0.00398914 0.00410177 0.00421914 0.00433729 0.00445223 0.00456397 0.0046725 0.00477783 0.00487995 0.00497887 0.00507458 0.00516262 0.0052385 0.00530222 0.00535379 0.0053932 0.00542045 0.00543555 0.00543849 0.00542717 0.00539946 0.00535536 0.00529488 0.00521801 0.00512476 0.00501513 0.00488911 0.00474882 0.00459639 0.00443181 0.00425507 0.00406619 0.00386516 0.00365198 0.00342665 0.00319574 0.00296582 0.0027369 0.00250897 0.00228203 0.00205608 0.00183113 0.00160717 0.00139209 0.00119381 0.00101232 0.000847607 0.000699687 0.000568554 0.000454209 0.000356652 0.000273062 0.000200617 0.000139317 8.91631e-05 5.01542e-05 2.22908e-05 5.57269e-06 0 0 4.56677e-06 1.82671e-05 4.11009e-05 7.30682e-05 0.000114169 0.000164404 0.000223771 0.000292273 0.000373382 0.000470572 0.000583843 0.000713196 0.00085863 0.00102014 0.00119774 0.00139142 0.00159409 0.00179867 0.00200517 0.00221357 0.00242389 0.00263611 0.00285025 0.00306629 0.00327795 0.0034789 0.00366916 0.00384873 0.0040176 0.00417578 0.00432326 0.00446004 0.00458512 0.00469748 0.00479711 0.00488403 0.00495823 0.00501971 0.00506847 0.00510451 0.00513173 0.00515405 0.00517146 0.00518396 0.00519156 0.00519425 0.00519203 0.0051849 0.00517857 0.00517874 0.00518541 0.00519858 0.00521825 0.00524442 0.00527709 0.00531626 0.00536511 0.00542684 0.00550144 0.00558891 0.00568926 0.00580248 0.00592857 0.00606754 0.00621716 0.00637522 0.00654171 0.00671664 0.0069 0.0070918 0.00729203 0.0075007 0.00771074 0.00791508 0.00811372 0.00830667 0.00849392 0.00867547 0.00885133 0.00902148 0.00917799 0.00931288 0.00942617 0.00951784 0.0095879 0.00963636 0.0096632 0.00966843 0.0096483 0.00959903 0.00952064 0.00941312 0.00927647 0.00911069 0.00891579 0.00869175 0.00844236 0.00817136 0.00787877 0.00756457 0.00722878 0.00687139 0.0064924 0.00609182 0.00568131 0.00527257 0.0048656 0.00446039 0.00405694 0.00365526 0.00325534 0.00285719 0.00247484 0.00212233 0.00179967 0.00150686 0.00124389 0.00101076 0.000807483 0.000634048 0.000485443 0.000356652 0.000247675 0.000158512 8.91631e-05 3.9628e-05 9.90701e-06 0 0 7.13557e-06 2.85423e-05 6.42201e-05 0.000114169 0.000178389 0.000256881 0.000349643 0.000456677 0.000583409 0.000735269 0.000912255 0.00111437 0.00134161 0.00159398 0.00187147 0.00217409 0.00249077 0.00281043 0.00313308 0.00345871 0.00378732 0.00411893 0.00445351 0.00479108 0.00512179 0.00543579 0.00573307 0.00601364 0.0062775 0.00652465 0.00675509 0.00696882 0.00716425 0.00733981 0.00749549 0.0076313 0.00774723 0.00784329 0.00791948 0.00797579 0.00801833 0.0080532 0.00808041 0.00809994 0.00811181 0.00811601 0.00811255 0.00810141 0.00809152 0.00809179 0.00810221 0.00812278 0.00815352 0.00819441 0.00824545 0.00830665 0.00838299 0.00847944 0.008596 0.00873268 0.00888947 0.00906638 0.0092634 0.00948053 0.00971432 0.00996128 0.0102214 0.0104947 0.0107812 0.0110809 0.0113938 0.0117198 0.012048 0.0123673 0.0126777 0.0129792 0.0132717 0.0135554 0.0138302 0.0140961 0.0143406 0.0145514 0.0147284 0.0148716 0.0149811 0.0150568 0.0150988 0.0151069 0.0150755 0.0149985 0.014876 0.014708 0.0144945 0.0142355 0.0139309 0.0135809 0.0131912 0.0127677 0.0123106 0.0118196 0.011295 0.0107365 0.0101444 0.00951846 0.00887705 0.0082384 0.0076025 0.00696936 0.00633897 0.00571134 0.00508647 0.00446435 0.00386693 0.00331614 0.00281199 0.00235446 0.00194357 0.00157932 0.00126169 0.000990701 0.000758505 0.000557269 0.000386992 0.000247675 0.000139317 6.19188e-05 1.54797e-05 0 0 1.02752e-05 4.11009e-05 9.2477e-05 0.000164404 0.000256881 0.000369908 0.000503486 0.000657614 0.000840109 0.00105879 0.00131365 0.00160469 0.00193192 0.00229533 0.00269492 0.00313069 0.00358671 0.00404702 0.00451163 0.00498054 0.00545375 0.00593125 0.00641306 0.00689916 0.00737538 0.00782753 0.00825562 0.00865964 0.0090396 0.0093955 0.00972733 0.0100351 0.0103165 0.0105693 0.0107935 0.0109891 0.011156 0.0112943 0.0114041 0.0114851 0.0115464 0.0115966 0.0116358 0.0116639 0.011681 0.0116871 0.0116821 0.011666 0.0116518 0.0116522 0.0116672 0.0116968 0.0117411 0.0117999 0.0118734 0.0119616 0.0120715 0.0122104 0.0123782 0.0125751 0.0128008 0.0130556 0.0133393 0.013652 0.0139886 0.0143442 0.0147188 0.0151124 0.015525 0.0159565 0.0164071 0.0168766 0.0173492 0.0178089 0.0182559 0.01869 0.0191113 0.0195198 0.0199155 0.0202983 0.0206505 0.020954 0.0212089 0.0214151 0.0215728 0.0216818 0.0217422 0.021754 0.0217087 0.0215978 0.0214214 0.0211795 0.0208721 0.0204991 0.0200605 0.0195564 0.0189953 0.0183856 0.0177272 0.0170203 0.0162648 0.0154606 0.0146079 0.0137066 0.012783 0.0118633 0.0109476 0.0100359 0.00912812 0.00822433 0.00732451 0.00642867 0.00556838 0.00477524 0.00404926 0.00339043 0.00279875 0.00227422 0.00181684 0.00142661 0.00109225 0.000802467 0.000557269 0.000356652 0.000200617 8.91631e-05 2.22908e-05 0 0 1.39857e-05 5.59429e-05 0.000125871 0.000223771 0.000349643 0.000503486 0.0006853 0.000895086 0.00114348 0.00144113 0.00178802 0.00218416 0.00262955 0.00312419 0.00366808 0.00426122 0.0048819 0.00550844 0.00614083 0.00677907 0.00742316 0.00807309 0.00872888 0.00939052 0.0100387 0.0106541 0.0112368 0.0117867 0.0123039 0.0127883 0.01324 0.0136589 0.0140419 0.014386 0.0146912 0.0149573 0.0151846 0.0153729 0.0155222 0.0156326 0.0157159 0.0157843 0.0158376 0.0158759 0.0158992 0.0159074 0.0159006 0.0158788 0.0158594 0.0158599 0.0158803 0.0159207 0.0159809 0.016061 0.0161611 0.016281 0.0164307 0.0166197 0.0168482 0.017116 0.0174234 0.0177701 0.0181563 0.0185818 0.0190401 0.0195241 0.020034 0.0205697 0.0211312 0.0217186 0.0223318 0.0229709 0.0236141 0.0242399 0.0248483 0.0254392 0.0260126 0.0265686 0.0271072 0.0276283 0.0281076 0.0285207 0.0288676 0.0291484 0.029363 0.0295113 0.0295936 0.0296096 0.0295479 0.029397 0.029157 0.0288277 0.0284092 0.0279015 0.0273046 0.0266185 0.0258547 0.0250248 0.0241287 0.0231665 0.0221381 0.0210436 0.019883 0.0186562 0.017399 0.0161473 0.0149009 0.0136599 0.0124244 0.0111942 0.00996948 0.00875013 0.00757918 0.00649964 0.00551149 0.00461475 0.0038094 0.00309546 0.00247292 0.00194177 0.00148667 0.00109225 0.000758505 0.000485443 0.000273062 0.000121361 3.03402e-05 0 0 1.82671e-05 7.30682e-05 0.000164404 0.000292273 0.000456677 0.000657614 0.000895086 0.00116909 0.00149353 0.00188229 0.00233537 0.00285278 0.00343452 0.00408058 0.00479096 0.00556567 0.00637637 0.0071947 0.00802068 0.00885429 0.00969555 0.0105444 0.011401 0.0122652 0.0131118 0.0139156 0.0146767 0.0153949 0.0160704 0.0167031 0.017293 0.0178402 0.0183405 0.0187899 0.0191885 0.0195361 0.0198329 0.0200788 0.0202739 0.020418 0.0205269 0.0206162 0.0206858 0.0207359 0.0207662 0.020777 0.0207681 0.0207396 0.0207143 0.020715 0.0207417 0.0207943 0.020873 0.0209777 0.0211084 0.021265 0.0214604 0.0217074 0.0220058 0.0223557 0.022757 0.0232099 0.0237143 0.0242702 0.0248686 0.0255009 0.0261668 0.0268665 0.0276 0.0283672 0.0291681 0.0300028 0.030843 0.0316603 0.0324549 0.0332267 0.0339757 0.0347019 0.0354053 0.0360859 0.036712 0.0372515 0.0377047 0.0380714 0.0383516 0.0385454 0.0386528 0.0386737 0.0385932 0.0383961 0.0380826 0.0376525 0.0371059 0.0364428 0.0356631 0.034767 0.0337694 0.0326854 0.0315151 0.0302583 0.0289151 0.0274856 0.0259696 0.0243673 0.0227253 0.0210903 0.0194624 0.0178415 0.0162278 0.014621 0.0130214 0.0114287 0.00989934 0.00848932 0.00719869 0.00602743 0.00497555 0.00404305 0.00322993 0.00253619 0.00194177 0.00142661 0.000990701 0.000634048 0.000356652 0.000158512 3.9628e-05 0 0 2.34509e-05 9.38037e-05 0.000211058 0.000375215 0.000586273 0.000844234 0.0011491 0.00150086 0.00191685 0.00241441 0.00299352 0.0036542 0.00439643 0.00522023 0.00612558 0.0071125 0.00814497 0.009187 0.0102386 0.0112997 0.0123704 0.0134507 0.0145405 0.0156398 0.0167168 0.0177396 0.0187081 0.0196223 0.0204823 0.021288 0.0220395 0.0227367 0.0233745 0.0239478 0.0244564 0.0249005 0.02528 0.025595 0.0258454 0.0260312 0.0261721 0.026288 0.0263789 0.0264447 0.0264854 0.026501 0.0264916 0.026457 0.0264263 0.0264283 0.026463 0.0265303 0.0266303 0.0267629 0.0269283 0.0271263 0.0273731 0.027685 0.0280618 0.0285035 0.0290102 0.029582 0.0302186 0.0309203 0.0316757 0.0324737 0.0333143 0.0341974 0.0351231 0.0360914 0.0371023 0.0381557 0.0392159 0.0402473 0.0412498 0.0422234 0.0431681 0.0440839 0.0449708 0.0458288 0.0466176 0.0472971 0.0478673 0.048328 0.0486794 0.0489214 0.049054 0.0490772 0.048972 0.0487195 0.0483196 0.0477723 0.0470775 0.0462354 0.045246 0.0441091 0.0428439 0.0414694 0.0399856 0.0383925 0.0366901 0.0348784 0.0329575 0.0309272 0.0288467 0.0267749 0.0247118 0.0226574 0.0206117 0.0185747 0.0165465 0.014527 0.0125872 0.0107983 0.00916032 0.00767316 0.00633686 0.00515142 0.00411685 0.00323313 0.00247537 0.00181864 0.00126294 0.000808284 0.00045466 0.000202071 5.05177e-05 0 0 2.9869e-05 0.000119476 0.000268821 0.000477904 0.000746726 0.00107528 0.00146358 0.00191162 0.00244007 0.00306963 0.00380029 0.00463206 0.00556492 0.00659889 0.00773396 0.00897014 0.0102626 0.0115665 0.012882 0.0142089 0.0155472 0.0168971 0.0182584 0.0196312 0.0209761 0.0222537 0.023464 0.0246071 0.0256828 0.0266913 0.0276325 0.0285064 0.0293065 0.0300264 0.0306661 0.0312256 0.0317049 0.032104 0.0324229 0.0326615 0.0328443 0.0329955 0.0331151 0.0332031 0.0332596 0.0332845 0.0332778 0.0332395 0.0332053 0.0332109 0.0332561 0.033341 0.0334656 0.0336299 0.0338339 0.0340776 0.034381 0.0347641 0.0352269 0.0357693 0.0363913 0.0370931 0.0378745 0.0387356 0.0396626 0.0406418 0.0416732 0.0427568 0.0438925 0.0450805 0.0463206 0.0476129 0.0489134 0.0501781 0.051407 0.0526001 0.0537574 0.0548788 0.0559645 0.0570143 0.0579787 0.0588082 0.0595027 0.0600622 0.0604868 0.0607764 0.060931 0.0609507 0.060812 0.0604916 0.0599894 0.0593054 0.0584396 0.0573921 0.0561628 0.0547518 0.0531825 0.0514784 0.0496395 0.0476659 0.0455574 0.0433142 0.0409362 0.0384235 0.0358484 0.0332835 0.0307287 0.0281841 0.0256496 0.0231254 0.0206112 0.0181073 0.0157012 0.0134807 0.0114459 0.00959665 0.00793303 0.00645502 0.00516264 0.00405586 0.00310527 0.00228142 0.00158432 0.00101397 0.000570356 0.000253491 6.33729e-05 0 0 3.75213e-05 0.000150085 0.000337692 0.000600341 0.000938033 0.00135077 0.00183855 0.00240137 0.00306318 0.00384795 0.00475568 0.00578635 0.00693998 0.00821656 0.0096161 0.0111386 0.0127293 0.0143333 0.0159508 0.0175817 0.019226 0.0208837 0.0225548 0.0242393 0.0258896 0.027458 0.0289445 0.0303492 0.031672 0.0329129 0.0340719 0.035149 0.0361363 0.0370259 0.0378176 0.0385115 0.0391076 0.0396059 0.0400064 0.0403092 0.0405434 0.0407385 0.0408945 0.0410113 0.041089 0.0411275 0.0411269 0.0410871 0.0410513 0.0410626 0.0411209 0.0412264 0.0413789 0.0415785 0.0418252 0.042119 0.0424841 0.0429448 0.0435011 0.0441529 0.0449003 0.0457433 0.0466819 0.0477161 0.0488293 0.0500051 0.0512435 0.0525446 0.0539082 0.0553344 0.0568232 0.0583746 0.0599355 0.0614528 0.0629266 0.0643569 0.0657436 0.0670868 0.0683864 0.0696425 0.0707952 0.0717847 0.072611 0.073274 0.0737739 0.0741106 0.074284 0.0742943 0.0741131 0.0737123 0.0730919 0.0722518 0.0711921 0.0699128 0.0684138 0.0666951 0.0647853 0.0627125 0.0604769 0.0580785 0.0555171 0.0527929 0.0499059 0.046856 0.0437303 0.040616 0.0375132 0.0344217 0.0313416 0.0282729 0.0252156 0.0221697 0.0192412 0.0165365 0.0140554 0.0117979 0.00976404 0.00795385 0.00636729 0.00500438 0.00383148 0.00281496 0.00195483 0.00125109 0.00070374 0.000312774 7.81934e-05 0 0 4.64079e-05 0.000185631 0.000417671 0.000742526 0.0011602 0.00167068 0.00227399 0.0029701 0.00378618 0.00474938 0.00585968 0.00711709 0.00852162 0.0100733 0.011772 0.0136179 0.0155449 0.0174874 0.0194451 0.0214182 0.0234067 0.0254105 0.0274297 0.0294641 0.0314573 0.0333524 0.0351495 0.0368486 0.0384497 0.0399527 0.0413578 0.0426648 0.0438641 0.0449461 0.0459107 0.046758 0.047488 0.0481007 0.048596 0.048974 0.0492695 0.0495171 0.049717 0.0498691 0.0499734 0.05003 0.0500387 0.0499997 0.0499642 0.0499835 0.0500576 0.0501866 0.0503703 0.0506089 0.0509022 0.0512504 0.0516824 0.052227 0.0528844 0.0536544 0.0545372 0.0555327 0.0566408 0.0578617 0.0591758 0.0605637 0.0620254 0.0635608 0.0651701 0.0668531 0.0686099 0.0704405 0.072282 0.0740713 0.0758086 0.0774937 0.0791268 0.0807078 0.0822366 0.0837134 0.085067 0.0862266 0.0871921 0.0879634 0.0885407 0.0889239 0.089113 0.0891079 0.0888754 0.0883818 0.0876272 0.0866116 0.085335 0.0837974 0.0819988 0.0799391 0.0776522 0.0751718 0.0724978 0.0696303 0.0665692 0.0633146 0.0598664 0.0562247 0.0524925 0.0487726 0.0450652 0.0413701 0.0376875 0.0340173 0.0303595 0.0267141 0.0232074 0.0199656 0.0169888 0.0142769 0.0118299 0.00964789 0.00773082 0.00607868 0.00465399 0.00341926 0.00237448 0.00151967 0.000854814 0.000379917 9.49793e-05 0 0 5.65286e-05 0.000226114 0.000508757 0.000904458 0.00141322 0.00203503 0.0027699 0.00361783 0.00460908 0.0057739 0.0071123 0.00862427 0.0103098 0.0121689 0.0142016 0.0164079 0.0187096 0.0210286 0.0233649 0.0257185 0.0280894 0.0304775 0.032883 0.0353057 0.0376792 0.039937 0.0420791 0.0441054 0.046016 0.0478109 0.0494901 0.0510535 0.0524897 0.0537871 0.0549456 0.0559653 0.0568463 0.0575884 0.0581917 0.0586561 0.0590225 0.0593313 0.0595827 0.0597766 0.059913 0.0599919 0.0600134 0.0599774 0.059944 0.0599736 0.0600661 0.0602215 0.0604397 0.0607209 0.061065 0.0614719 0.0619758 0.0626108 0.0633768 0.0642739 0.065302 0.0664611 0.0677513 0.0691725 0.0707021 0.0723175 0.0740187 0.0758056 0.0776783 0.0796367 0.0816809 0.0838109 0.085953 0.0880337 0.0900529 0.0920106 0.0939069 0.0957417 0.0975151 0.099227 0.100794 0.102134 0.103246 0.10413 0.104787 0.105216 0.105418 0.105392 0.105099 0.1045 0.103595 0.102385 0.100868 0.099046 0.0969178 0.0944838 0.0917834 0.0888562 0.0857021 0.0823213 0.0787136 0.0748792 0.0708179 0.0665298 0.0621349 0.0577532 0.0533848 0.0490295 0.0446875 0.0403586 0.036043 0.0317407 0.0275996 0.0237681 0.0202461 0.0170336 0.0141306 0.0115372 0.00925321 0.00727876 0.0055728 0.0040943 0.00284327 0.00181969 0.00102358 0.000454923 0.000113731 0 0 6.78836e-05 0.000271534 0.000610952 0.00108614 0.00169709 0.00244381 0.00332629 0.00434455 0.00553186 0.00692152 0.00851353 0.0103079 0.0123046 0.0145037 0.0169051 0.0195088 0.0222234 0.0249572 0.0277102 0.0304825 0.033274 0.0360847 0.0389147 0.041764 0.0445554 0.0472117 0.0497331 0.0521196 0.054371 0.0564874 0.0584689 0.0603154 0.0620132 0.0635488 0.0649222 0.0661334 0.0671822 0.0680689 0.0687933 0.0693555 0.0698024 0.0701811 0.0704916 0.0707338 0.0709077 0.0710134 0.0710509 0.0710201 0.0709908 0.0710329 0.0711464 0.0713311 0.0715872 0.0719146 0.0723134 0.0727834 0.0733645 0.0740961 0.0749783 0.0760112 0.0771946 0.0785286 0.0800132 0.0816485 0.0834082 0.0852666 0.0872234 0.0892788 0.0914327 0.0936851 0.0960361 0.0984856 0.100949 0.10334 0.10566 0.107908 0.110084 0.112189 0.114222 0.116183 0.117977 0.119507 0.120773 0.121775 0.122513 0.122988 0.123199 0.123145 0.122783 0.122067 0.120996 0.119571 0.117792 0.115659 0.113171 0.110329 0.107179 0.103766 0.10009 0.0961515 0.0919505 0.0874867 0.0827603 0.0777711 0.0726576 0.0675578 0.0624719 0.0573997 0.0523414 0.0472969 0.0422662 0.0372493 0.0324179 0.027944 0.0238274 0.0200681 0.0166662 0.0136217 0.0109345 0.00860464 0.00658792 0.00484011 0.00336119 0.00215116 0.00121003 0.00053779 0.000134447 0 0 8.04728e-05 0.000321891 0.000724255 0.00128756 0.00201182 0.00289702 0.00394316 0.00515026 0.00655454 0.00819224 0.0100634 0.012168 0.0145059 0.0170774 0.0198822 0.0229205 0.0260861 0.0292729 0.0324809 0.0357101 0.0389606 0.0422322 0.045525 0.048839 0.0520857 0.0551766 0.0581117 0.060891 0.0635145 0.0659822 0.0682941 0.0704502 0.0724346 0.0742314 0.0758405 0.0772621 0.078496 0.0795423 0.080401 0.0810721 0.0816093 0.0820665 0.0824436 0.0827406 0.0829575 0.0830944 0.0831512 0.0831279 0.0831046 0.0831614 0.0832984 0.0835155 0.0838127 0.08419 0.0846474 0.085185 0.0858483 0.086683 0.087689 0.0888664 0.0902151 0.0917353 0.0934268 0.0952896 0.0972942 0.0994109 0.10164 0.10398 0.106433 0.108998 0.111676 0.114465 0.117269 0.11999 0.122629 0.125185 0.127658 0.130049 0.132357 0.134582 0.136615 0.138345 0.139772 0.140897 0.141719 0.142239 0.142455 0.142369 0.141929 0.141082 0.13983 0.138171 0.136106 0.133635 0.130758 0.127475 0.123838 0.1199 0.115661 0.111121 0.10628 0.101137 0.0956935 0.0899487 0.0840605 0.0781864 0.0723265 0.0664809 0.0606494 0.054832 0.0490289 0.04324 0.0376624 0.0324932 0.0277326 0.0233804 0.0194366 0.0159014 0.0127746 0.0100563 0.00769935 0.00565667 0.00392824 0.00251407 0.00141417 0.000628518 0.00015713 0 0 9.42961e-05 0.000377185 0.000848665 0.00150874 0.0023574 0.00339466 0.00462051 0.00603495 0.0076771 0.00958607 0.0117619 0.0142045 0.0169139 0.0198901 0.0231332 0.026643 0.0302979 0.0339759 0.0376772 0.0414015 0.0451491 0.0489198 0.0527137 0.0565307 0.0602703 0.0638317 0.0672149 0.0704199 0.0734467 0.0762954 0.0789659 0.0814582 0.0837539 0.0858347 0.0877006 0.0893516 0.0907876 0.0920086 0.0930148 0.093806 0.0944432 0.0949875 0.0954388 0.0957971 0.0960625 0.0962349 0.0963143 0.0963007 0.0962853 0.0963591 0.0965222 0.0967746 0.0971162 0.0975471 0.0980672 0.0986766 0.0994273 0.100371 0.101509 0.102839 0.104364 0.106081 0.107992 0.110096 0.11236 0.11475 0.117267 0.119911 0.12268 0.125577 0.128599 0.131748 0.134913 0.137984 0.14096 0.143842 0.146629 0.149322 0.15192 0.154424 0.156708 0.158649 0.160245 0.161497 0.162405 0.162968 0.163188 0.163063 0.162536 0.161546 0.160096 0.158184 0.155811 0.152976 0.149679 0.145921 0.141762 0.13726 0.132416 0.12723 0.121701 0.115831 0.109618 0.103063 0.0963436 0.089639 0.0829488 0.0762728 0.0696113 0.0629641 0.0563312 0.0497127 0.0433329 0.0374158 0.0319617 0.0269704 0.0224419 0.0183763 0.0147736 0.0116337 0.00890708 0.00654398 0.00454443 0.00290843 0.00163599 0.000727109 0.000181777 0 0 0.000109144 0.000436576 0.000982296 0.0017463 0.0027286 0.00392918 0.00534806 0.00698522 0.00888254 0.0110819 0.0135833 0.0163868 0.0194923 0.0228998 0.0266094 0.030621 0.0347962 0.0389964 0.0432217 0.0474721 0.0517474 0.0560479 0.0603734 0.0647239 0.0689861 0.0730465 0.0769052 0.080562 0.0840171 0.0872704 0.090322 0.0931718 0.0957987 0.0981819 0.100321 0.102217 0.103868 0.105276 0.10644 0.10736 0.108105 0.108743 0.109274 0.109698 0.110015 0.110225 0.110328 0.110324 0.110316 0.110406 0.110594 0.11088 0.111264 0.111747 0.112328 0.113007 0.113843 0.114894 0.116162 0.117645 0.119344 0.121259 0.12339 0.125736 0.128261 0.130927 0.133734 0.136683 0.139772 0.143003 0.146375 0.149888 0.153418 0.156842 0.16016 0.16337 0.166475 0.169472 0.172363 0.175148 0.177686 0.179837 0.181601 0.182978 0.183968 0.184572 0.184788 0.184618 0.183995 0.182854 0.181194 0.179015 0.176318 0.173103 0.169369 0.165117 0.160413 0.155324 0.149851 0.143994 0.137752 0.131125 0.124114 0.116718 0.109137 0.10157 0.0940176 0.0864794 0.0789554 0.0714458 0.0639504 0.0564693 0.0492548 0.0425594 0.036383 0.0307257 0.0255874 0.0209681 0.0168679 0.0132867 0.0101726 0.00747376 0.00519011 0.00332167 0.00186844 0.000830417 0.000207604 0 0 0.000124807 0.000499227 0.00112326 0.00199691 0.00312017 0.00449304 0.00611553 0.00798763 0.0101538 0.0126587 0.0155022 0.0186843 0.0222051 0.0260645 0.0302625 0.0347992 0.0395185 0.0442647 0.0490375 0.0538372 0.0586636 0.0635167 0.0683966 0.0733033 0.0781102 0.0826909 0.0870453 0.0911735 0.0950754 0.0987511 0.1022 0.105424 0.108397 0.111096 0.113521 0.115673 0.11755 0.119154 0.120483 0.121539 0.122397 0.123133 0.123746 0.124238 0.124607 0.124855 0.12498 0.124983 0.124979 0.12508 0.125288 0.125603 0.126024 0.126551 0.127184 0.127924 0.128836 0.129986 0.131373 0.132999 0.134862 0.136963 0.139302 0.141879 0.144653 0.147583 0.150668 0.15391 0.157307 0.160861 0.16457 0.168436 0.17232 0.176086 0.179733 0.183262 0.186673 0.189965 0.193138 0.196194 0.198975 0.201327 0.20325 0.204743 0.205808 0.206443 0.206648 0.206425 0.205699 0.204398 0.202521 0.200069 0.197042 0.19344 0.189262 0.184509 0.179255 0.173574 0.167465 0.16093 0.153968 0.146579 0.138763 0.130519 0.12207 0.113634 0.105212 0.096804 0.08841 0.0800298 0.0716636 0.0633112 0.0552536 0.0477715 0.0408649 0.0345338 0.0287783 0.0235983 0.0189938 0.0149648 0.0114574 0.00841771 0.00584563 0.00374121 0.00210443 0.000935301 0.000233825 0 0 0.000141284 0.000565136 0.00127156 0.00226054 0.0035321 0.00508622 0.00692292 0.00904218 0.011491 0.0143164 0.0175185 0.0210971 0.0250523 0.0293841 0.0340925 0.0391775 0.0444649 0.0497806 0.0551246 0.0604969 0.0658974 0.0713263 0.0767834 0.0822688 0.0876426 0.0927647 0.0976353 0.102254 0.106622 0.110737 0.114601 0.118214 0.121548 0.124577 0.127301 0.129719 0.131833 0.133641 0.135144 0.136342 0.137318 0.138156 0.138855 0.139417 0.13984 0.140124 0.14027 0.140278 0.140274 0.140384 0.140607 0.140944 0.141394 0.141958 0.142636 0.143428 0.144407 0.145645 0.147142 0.148899 0.150916 0.153193 0.155729 0.158525 0.161535 0.164717 0.168069 0.171592 0.175286 0.179151 0.183186 0.187392 0.191619 0.195715 0.199681 0.203517 0.207223 0.210799 0.214245 0.217561 0.220576 0.22312 0.225193 0.226794 0.227923 0.228581 0.228768 0.228483 0.227647 0.226179 0.224079 0.221346 0.217982 0.213986 0.209358 0.204098 0.198287 0.192007 0.185257 0.178038 0.17035 0.162192 0.153564 0.144467 0.135142 0.125831 0.116532 0.107247 0.0979749 0.0887162 0.0794708 0.0702386 0.0613292 0.0530521 0.0454073 0.0383949 0.0320147 0.0262669 0.0211514 0.0166682 0.0127616 0.00937585 0.006511 0.00416704 0.00234396 0.00104176 0.00026044 0 0 0.000158576 0.000634304 0.00142718 0.00253722 0.0039644 0.00570874 0.00777023 0.0101489 0.012894 0.0160551 0.0196321 0.0236251 0.0280339 0.0328587 0.0380993 0.0437559 0.0496353 0.0555443 0.0614829 0.0674512 0.0734491 0.0794766 0.0855338 0.0916206 0.0975833 0.103268 0.108675 0.113804 0.118656 0.123229 0.127525 0.131542 0.135252 0.138625 0.141659 0.144357 0.146716 0.148738 0.150422 0.151769 0.152869 0.153813 0.154602 0.155234 0.155712 0.156033 0.156199 0.15621 0.156202 0.156315 0.156548 0.156902 0.157376 0.15797 0.158685 0.159519 0.160555 0.161872 0.163469 0.165348 0.167508 0.169948 0.17267 0.175673 0.178909 0.18233 0.185937 0.18973 0.193708 0.197872 0.202222 0.206757 0.211314 0.215729 0.220003 0.224136 0.228127 0.231976 0.235684 0.239251 0.24249 0.245216 0.247429 0.249128 0.250315 0.250988 0.251147 0.250794 0.24984 0.248197 0.245866 0.242846 0.239138 0.234742 0.229657 0.223884 0.217511 0.210625 0.203228 0.195318 0.186897 0.177964 0.168519 0.158562 0.148355 0.13816 0.127978 0.117808 0.10765 0.097505 0.087372 0.0772513 0.0674816 0.0584012 0.0500103 0.0423087 0.0352966 0.0289739 0.0233406 0.0183967 0.014085 0.0103482 0.00718622 0.00459918 0.00258704 0.0011498 0.000287449 0 0 0.000176683 0.000706732 0.00159015 0.00282693 0.00441707 0.00636059 0.00865746 0.0113077 0.0143629 0.0178748 0.0218432 0.0262683 0.0311499 0.0364882 0.042283 0.0485345 0.0550297 0.0615556 0.0681124 0.0747 0.0813184 0.0879676 0.0946477 0.101358 0.107932 0.114201 0.120165 0.125824 0.131177 0.136226 0.14097 0.145409 0.14951 0.153239 0.156598 0.159585 0.1622 0.164445 0.166318 0.16782 0.169049 0.170104 0.170985 0.171691 0.172224 0.172582 0.172766 0.172776 0.172763 0.172875 0.173113 0.173478 0.173969 0.174585 0.175328 0.176198 0.177281 0.178667 0.180354 0.182344 0.184636 0.187229 0.190125 0.193323 0.196773 0.200423 0.204273 0.208323 0.212574 0.217025 0.221677 0.226529 0.231405 0.236129 0.240699 0.245117 0.249382 0.253495 0.257455 0.261262 0.264716 0.267615 0.269959 0.271748 0.272982 0.273662 0.273787 0.273357 0.272277 0.270452 0.267883 0.264569 0.260511 0.255707 0.250159 0.243867 0.236924 0.229428 0.221376 0.212771 0.20361 0.193896 0.183626 0.172802 0.161707 0.150622 0.139549 0.128487 0.117436 0.106396 0.0953672 0.0843495 0.0737108 0.0638189 0.0546738 0.0462755 0.038624 0.0317194 0.0255615 0.0201505 0.0154277 0.0113346 0.00787128 0.00503762 0.00283366 0.00125941 0.000314851 0 0 0.000195604 0.000782418 0.00176044 0.00312967 0.00489011 0.00704176 0.00958462 0.0125187 0.0158977 0.0197754 0.0241517 0.0290267 0.0344003 0.0402726 0.0466436 0.0535132 0.0606481 0.0678148 0.0750132 0.0822435 0.0895056 0.0967994 0.104125 0.111483 0.118689 0.125563 0.132104 0.138312 0.144187 0.149729 0.154938 0.159814 0.164321 0.168421 0.172115 0.175403 0.178285 0.180761 0.182831 0.184495 0.185858 0.187028 0.188005 0.188787 0.189376 0.189771 0.189972 0.189979 0.189956 0.190063 0.190302 0.190671 0.191172 0.191805 0.192568 0.193463 0.194585 0.196029 0.197797 0.199887 0.2023 0.205036 0.208095 0.211477 0.215128 0.218994 0.223075 0.227371 0.231883 0.23661 0.241553 0.24671 0.251893 0.256913 0.261769 0.266462 0.270991 0.275356 0.279558 0.283596 0.287254 0.290316 0.292782 0.294652 0.295926 0.296604 0.296685 0.296171 0.294958 0.292945 0.29013 0.286515 0.282099 0.276882 0.270865 0.264046 0.256529 0.248415 0.239703 0.230395 0.220489 0.209986 0.198886 0.187189 0.175199 0.163218 0.151246 0.139284 0.127332 0.11539 0.103457 0.0915331 0.0800168 0.0693051 0.0593978 0.0502951 0.0419969 0.0345032 0.0278141 0.0219294 0.0167897 0.0123353 0.00856619 0.00548236 0.00308383 0.00137059 0.000342648 0 0 0.000215341 0.000861363 0.00193807 0.00344545 0.00538352 0.00775227 0.0105517 0.0137818 0.0174983 0.0217569 0.0265575 0.0319003 0.0377851 0.044212 0.051181 0.0586921 0.0664905 0.0743216 0.0821852 0.0900815 0.0980104 0.105972 0.113966 0.121993 0.129855 0.137355 0.144494 0.15127 0.157685 0.163738 0.169428 0.174757 0.179684 0.184169 0.188212 0.191813 0.194971 0.197687 0.199962 0.201794 0.203298 0.204587 0.205662 0.206522 0.207168 0.207599 0.207816 0.207818 0.207781 0.207879 0.208113 0.208483 0.208988 0.209628 0.210404 0.211315 0.212466 0.21396 0.215798 0.217978 0.220502 0.223369 0.226579 0.230133 0.233973 0.238044 0.242344 0.246875 0.251636 0.256627 0.261848 0.267299 0.272778 0.278083 0.283214 0.28817 0.292952 0.297559 0.301992 0.306251 0.310104 0.31332 0.315899 0.317841 0.319146 0.319813 0.319844 0.319237 0.317884 0.315674 0.312607 0.308684 0.303904 0.298267 0.291773 0.284423 0.276325 0.267586 0.258208 0.248191 0.237533 0.226236 0.214299 0.201723 0.18883 0.175946 0.163069 0.1502 0.137339 0.124485 0.11164 0.0988022 0.0863997 0.07485