<?xml version="1.0"?> 
<VTKFile type="StructuredGrid" version="0.1"> 
<StructuredGrid WholeExtent="0 128 0 128 0 0"> 
<Piece Extent="0 128 0 128 0 0"> 
<PointData>
<DataArray type="Float32" Name="u" format="ascii" NumberOfComponents="1"> 
0 0 0 0 0 0 0 0 0 0 0 0 0 0 0 0 0 0 0 0 0 0 0 0 0 0 0 0 0 0 0 0 0 0 0 0 0 0 0 0 0 0 0 0 0 0 0 0 0 0 0 0 0 0 0 0 0 0 0 0 0 0 0 0 0 0 0 0 0 0 0 0 0 0 0 0 0 0 0 0 0 0 0 0 0 0 0 0 0 0 0 0 0 0 0 0 0 0 0 0 0 0 0 0 0 0 0 0 0 0 0 0 0 0 0 0 0 0 0 0 0 0 0 0 0 0 0 0 0 0 1.81811e-07 7.27243e-07 1.6363e-06 2.90897e-06 4.54527e-06 6.54519e-06 8.90873e-06 1.16359e-05 1.50549e-05 1.94939e-05 2.4953e-05 3.14321e-05 3.89312e-05 4.74504e-05 5.69896e-05 6.75489e-05 7.8749e-05 9.02107e-05 0.000101934 0.000113919 0.000126165 0.000138673 0.000151443 0.000164474 0.000177212 0.000189099 0.000200137 0.000210326 0.000219665 0.000228154 0.000235793 0.000242583 0.000248336 0.000252863 0.000256165 0.000258241 0.000259092 0.000258717 0.000257118 0.000254292 0.000250626 0.000246502 0.00024192 0.000236881 0.000231384 0.00022543 0.000219018 0.000212148 0.000205538 0.000199901 0.00019524 0.000191552 0.00018884 0.000187102 0.000186339 0.00018655 0.000188195 0.000191734 0.000197167 0.000204493 0.000213713 0.000224826 0.000237833 0.000252734 0.000269259 0.000287139 0.000306373 0.000326962 0.000348906 0.000372205 0.000396858 0.000422866 0.000449314 0.000475291 0.000500794 0.000525825 0.000550383 0.000574469 0.000598081 0.000621222 0.000642958 0.000662357 0.000679421 0.00069415 0.000706542 0.000716598 0.000724318 0.000729703 0.000732467 0.000732326 0.00072928 0.000723329 0.000714474 0.000702714 0.000688048 0.000670478 0.000650558 0.000628843 0.000605333 0.000580028 0.000552927 0.000524032 0.000493341 0.000460855 0.00042768 0.000394922 0.00036258 0.000330655 0.000299147 0.000268055 0.00023738 0.000207122 0.00017827 0.000151817 0.000127763 0.000106106 8.68474e-05 6.99869e-05 5.55246e-05 4.34604e-05 3.32744e-05 2.44465e-05 1.69767e-05 1.08651e-05 6.11162e-06 2.71628e-06 6.79069e-07 0 0 7.27243e-07 2.90897e-06 6.54519e-06 1.16359e-05 1.81811e-05 2.61808e-05 3.56349e-05 4.65436e-05 6.02195e-05 7.79757e-05 9.98119e-05 0.000125728 0.000155725 0.000189802 0.000227959 0.000270196 0.000314996 0.000360843 0.000407736 0.000455675 0.000504661 0.000554694 0.000605772 0.000657898 0.000708847 0.000756397 0.00080055 0.000841303 0.000878658 0.000912615 0.000943173 0.000970333 0.000993343 0.00101145 0.00102466 0.00103296 0.00103637 0.00103487 0.00102847 0.00101717 0.0010025 0.000986006 0.00096768 0.000947523 0.000925536 0.000901718 0.000876071 0.000848594 0.00082215 0.000799605 0.000780958 0.00076621 0.00075536 0.000748408 0.000745354 0.000746199 0.00075278 0.000766936 0.000788666 0.000817971 0.000854851 0.000899305 0.000951334 0.00101094 0.00107704 0.00114856 0.00122549 0.00130785 0.00139562 0.00148882 0.00158743 0.00169146 0.00179726 0.00190116 0.00200318 0.0021033 0.00220153 0.00229787 0.00239233 0.00248489 0.00257183 0.00264943 0.00271769 0.0027766 0.00282617 0.00286639 0.00289727 0.00291881 0.00292987 0.0029293 0.00291712 0.00289332 0.0028579 0.00281085 0.00275219 0.00268191 0.00260223 0.00251537 0.00242133 0.00232011 0.00221171 0.00209613 0.00197336 0.00184342 0.00171072 0.00157969 0.00145032 0.00132262 0.00119659 0.00107222 0.00094952 0.000828486 0.000713082 0.00060727 0.00051105 0.000424424 0.000347389 0.000279948 0.000222098 0.000173842 0.000133098 9.7786e-05 6.79069e-05 4.34604e-05 2.44465e-05 1.08651e-05 2.71628e-06 0 0 1.6363e-06 6.54519e-06 1.47267e-05 2.61808e-05 4.09074e-05 5.89067e-05 8.01786e-05 0.000104723 0.000135494 0.000175445 0.000224577 0.000282889 0.000350381 0.000427054 0.000512907 0.00060794 0.000708741 0.000811896 0.000917406 0.00102527 0.00113549 0.00124806 0.00136299 0.00148027 0.00159491 0.00170189 0.00180124 0.00189293 0.00197698 0.00205338 0.00212214 0.00218325 0.00223502 0.00227577 0.00230548 0.00232417 0.00233183 0.00232846 0.00231406 0.00228863 0.00225563 0.00221851 0.00217728 0.00213193 0.00208245 0.00202887 0.00197116 0.00190934 0.00184984 0.00179911 0.00175716 0.00172397 0.00169956 0.00168392 0.00167705 0.00167895 0.00169376 0.00172561 0.0017745 0.00184044 0.00192341 0.00202344 0.0021405 0.00227461 0.00242333 0.00258425 0.00275736 0.00294266 0.00314015 0.00334984 0.00357172 0.00380579 0.00404383 0.00427762 0.00450715 0.00473242 0.00495345 0.00517022 0.00538273 0.00559099 0.00578662 0.00596122 0.00611479 0.00624735 0.00635888 0.00644938 0.00651886 0.00656732 0.0065922 0.00659093 0.00656352 0.00650996 0.00643027 0.00632442 0.00619244 0.0060343 0.00585502 0.00565959 0.005448 0.00522025 0.00497634 0.00471628 0.00444007 0.0041477 0.00384912 0.0035543 0.00326322 0.0029759 0.00269232 0.0024125 0.00213642 0.00186409 0.00160443 0.00136636 0.00114986 0.000954953 0.000781626 0.000629882 0.000499721 0.000391144 0.00029947 0.000220018 0.000152791 9.7786e-05 5.50046e-05 2.44465e-05 6.11162e-06 0 0 2.90897e-06 1.16359e-05 2.61808e-05 4.65436e-05 7.27243e-05 0.000104723 0.00014254 0.000186174 0.000240878 0.000311903 0.000399248 0.000502913 0.0006229 0.000759207 0.000911834 0.00108078 0.00125998 0.00144337 0.00163094 0.0018227 0.00201865 0.00221877 0.00242309 0.00263159 0.00283539 0.00302559 0.0032022 0.00336521 0.00351463 0.00365046 0.00377269 0.00388133 0.00397337 0.00404581 0.00409863 0.00413185 0.00414547 0.00413948 0.00411388 0.00406868 0.00401001 0.00394403 0.00387072 0.00379009 0.00370214 0.00360687 0.00350428 0.00339437 0.0032886 0.00319842 0.00312383 0.00306484 0.00302144 0.00299363 0.00298142 0.0029848 0.00301112 0.00306774 0.00315467 0.00327188 0.0034194 0.00359722 0.00380533 0.00404375 0.00430815 0.00459422 0.00490197 0.0052314 0.0055825 0.00595527 0.00634972 0.00676585 0.00718903 0.00760465 0.00801271 0.0084132 0.00880613 0.0091915 0.0095693 0.00993955 0.0102873 0.0105977 0.0108707 0.0111064 0.0113047 0.0114656 0.0115891 0.0116752 0.0117195 0.0117172 0.0116685 0.0115733 0.0114316 0.0112434 0.0110088 0.0107277 0.0104089 0.0100615 0.00968533 0.00928044 0.00884683 0.0083845 0.00789345 0.00737368 0.00684288 0.00631875 0.00580128 0.00529048 0.00478635 0.00428888 0.00379808 0.00331394 0.00285233 0.00242908 0.0020442 0.00169769 0.00138956 0.00111979 0.000888394 0.000695367 0.00053239 0.000391144 0.000271628 0.000173842 9.7786e-05 4.34604e-05 1.08651e-05 0 0 4.54527e-06 1.81811e-05 4.09074e-05 7.27243e-05 0.000113632 0.00016363 0.000222718 0.000290897 0.000376372 0.000487348 0.000623825 0.000785802 0.000973281 0.00118626 0.00142474 0.00168872 0.00196872 0.00225527 0.00254835 0.00284797 0.00315413 0.00346684 0.00378608 0.00411186 0.00443029 0.00472748 0.00500343 0.00525814 0.00549162 0.00570384 0.00589483 0.00606458 0.00620839 0.00632157 0.00640411 0.00645602 0.00647729 0.00646793 0.00642794 0.00635731 0.00626564 0.00616254 0.006048 0.00592202 0.0057846 0.00563574 0.00547544 0.00530371 0.00513844 0.00499753 0.00488099 0.00478881 0.004721 0.00467755 0.00465846 0.00466374 0.00470488 0.00479335 0.00492916 0.00511232 0.00534282 0.00562066 0.00594583 0.00631836 0.00673148 0.00717847 0.00765933 0.00817406 0.00872265 0.00930511 0.00992144 0.0105716 0.0112329 0.0118823 0.0125199 0.0131456 0.0137596 0.0143617 0.014952 0.0155305 0.0160739 0.0165589 0.0169855 0.0173537 0.0176635 0.0179149 0.018108 0.0182426 0.0183117 0.0183081 0.018232 0.0180832 0.0178618 0.0175678 0.0172012 0.016762 0.016264 0.0157211 0.0151333 0.0145007 0.0138232 0.0131008 0.0123335 0.0115214 0.010692 0.00987305 0.00906451 0.00826638 0.00747867 0.00670138 0.0059345 0.00517804 0.00445676 0.00379544 0.00319407 0.00265265 0.00217118 0.00174967 0.00138812 0.00108651 0.00083186 0.000611162 0.000424418 0.000271628 0.000152791 6.79069e-05 1.69767e-05 0 0 6.54519e-06 2.61808e-05 5.89067e-05 0.000104723 0.00016363 0.000235627 0.000320714 0.000418892 0.000541976 0.000701781 0.000898307 0.00113156 0.00140152 0.00170822 0.00205163 0.00243176 0.00283496 0.00324758 0.00366962 0.00410108 0.00454195 0.00499224 0.00545195 0.00592108 0.00637962 0.00680758 0.00720495 0.00757173 0.00790793 0.00821354 0.00848856 0.008733 0.00894009 0.00910306 0.00922192 0.00929667 0.0093273 0.00931383 0.00925623 0.00915453 0.00902253 0.00887406 0.00870912 0.0085277 0.00832982 0.00811546 0.00788464 0.00763734 0.00739935 0.00719645 0.00702863 0.00689589 0.00679824 0.00673567 0.00670819 0.00671579 0.00677502 0.00690242 0.007098 0.00736174 0.00769366 0.00809374 0.008562 0.00909843 0.00969333 0.010337 0.0110294 0.0117706 0.0125606 0.0133994 0.0142869 0.0152232 0.0161753 0.0171105 0.0180286 0.0189297 0.0198138 0.0206809 0.0215309 0.022364 0.0231465 0.0238449 0.0244592 0.0249894 0.0254355 0.0257975 0.0260755 0.0262693 0.0263688 0.0263637 0.0262541 0.0260399 0.0257211 0.0252977 0.0247697 0.0241372 0.0234201 0.0226384 0.021792 0.020881 0.0199054 0.0188651 0.0177603 0.0165908 0.0153965 0.0142172 0.0130529 0.0119036 0.0107693 0.00964998 0.00854568 0.00745637 0.00641774 0.00546543 0.00459945 0.00381981 0.0031265 0.00251953 0.00199889 0.00156458 0.00119788 0.000880074 0.000611162 0.000391144 0.000220018 9.7786e-05 2.44465e-05 0 0 8.90873e-06 3.56349e-05 8.01786e-05 0.00014254 0.000222718 0.000320714 0.000436528 0.000570159 0.000737689 0.000955202 0.0012227 0.00154017 0.00190763 0.00232507 0.00279249 0.0033099 0.0038587 0.00442032 0.00499476 0.00558202 0.0061821 0.006795 0.00742071 0.00805925 0.00868337 0.00926587 0.00980673 0.010306 0.0107636 0.0111795 0.0115539 0.0118866 0.0121685 0.0123903 0.0125521 0.0126538 0.0126955 0.0126772 0.0125988 0.0124603 0.0122807 0.0120786 0.0118541 0.0116072 0.0113378 0.011046 0.0107319 0.0103953 0.0100713 0.00979516 0.00956674 0.00938607 0.00925316 0.009168 0.00913059 0.00914094 0.00922156 0.00939497 0.00966116 0.0100201 0.0104719 0.0110165 0.0116538 0.012384 0.0131937 0.0140698 0.0150123 0.0160212 0.0170964 0.018238 0.019446 0.0207204 0.0220164 0.0232892 0.0245389 0.0257654 0.0269688 0.028149 0.029306 0.0304399 0.0315049 0.0324555 0.0332917 0.0340133 0.0346205 0.0351133 0.0354916 0.0357554 0.0358909 0.035884 0.0357347 0.0354431 0.0350092 0.034433 0.0337144 0.0328534 0.0318774 0.0308133 0.0296613 0.0284213 0.0270934 0.0256775 0.0241737 0.0225819 0.0209563 0.0193512 0.0177664 0.0162021 0.0146582 0.0131347 0.0116316 0.010149 0.00873525 0.00743906 0.00626037 0.00519919 0.00425552 0.00342936 0.00272071 0.00212956 0.00163045 0.00119788 0.00083186 0.00053239 0.00029947 0.000133098 3.32744e-05 0 0 1.16359e-05 4.65436e-05 0.000104723 0.000186174 0.000290897 0.000418892 0.000570159 0.000744697 0.000963513 0.00124761 0.00159699 0.00201165 0.0024916 0.00303683 0.00364734 0.00432313 0.00503994 0.00577348 0.00652377 0.00729081 0.00807458 0.0088751 0.00969236 0.0105264 0.0113415 0.0121024 0.0128088 0.0134609 0.0140585 0.0146018 0.0150908 0.0155253 0.0158935 0.0161832 0.0163945 0.0165274 0.0165819 0.0165579 0.0164555 0.0162747 0.01604 0.0157761 0.0154829 0.0151604 0.0148086 0.0144275 0.0140171 0.0135775 0.0131544 0.0127937 0.0124953 0.0122594 0.0120858 0.0119745 0.0119257 0.0119392 0.0120445 0.012271 0.0126187 0.0130875 0.0136776 0.0143889 0.0152213 0.016175 0.0172326 0.0183769 0.0196079 0.0209256 0.02233 0.0238211 0.0253989 0.0270634 0.0287561 0.0304186 0.0320508 0.0336528 0.0352245 0.036766 0.0382772 0.0397582 0.0411493 0.0423909 0.043483 0.0444256 0.0452187 0.0458623 0.0463564 0.046701 0.0468779 0.0468688 0.0466739 0.0462931 0.0457263 0.0449737 0.0440351 0.0429106 0.0416357 0.040246 0.0387413 0.0371218 0.0353873 0.033538 0.0315738 0.0294947 0.0273715 0.025275 0.0232051 0.0211619 0.0191454 0.0171555 0.0151923 0.0132558 0.0114093 0.00971632 0.00817681 0.00679078 0.00555823 0.00447916 0.00355357 0.00278147 0.00212956 0.00156458 0.00108651 0.000695367 0.000391144 0.000173842 4.34604e-05 0 0 1.52714e-05 6.10854e-05 0.000137442 0.000244342 0.000381784 0.000549769 0.000748296 0.000977367 0.00126325 0.00163223 0.00208431 0.00261947 0.00323773 0.00393908 0.00472352 0.00559106 0.0065106 0.00745105 0.00841241 0.00939469 0.0103979 0.011422 0.012467 0.0135329 0.0145747 0.0155473 0.0164506 0.0172848 0.0180497 0.0187454 0.0193719 0.0199292 0.020402 0.0207751 0.0210486 0.0212224 0.0212965 0.021271 0.0211457 0.0209208 0.0206273 0.0202964 0.019928 0.0195222 0.0190789 0.0185981 0.0180799 0.0175242 0.0169892 0.0165327 0.0161548 0.0158555 0.0156347 0.0154926 0.0154291 0.0154442 0.0155751 0.0158592 0.0162964 0.0168867 0.0176301 0.0185267 0.0195764 0.0207792 0.0221134 0.0235573 0.0251108 0.0267739 0.0285466 0.030429 0.0324211 0.0345227 0.0366601 0.0387593 0.0408203 0.0428431 0.0448277 0.0467741 0.0486823 0.0505524 0.0523088 0.0538762 0.0552545 0.0564438 0.057444 0.0582553 0.0588774 0.0593106 0.0595316 0.0595173 0.0592678 0.0587831 0.0580631 0.0571079 0.0559175 0.0544918 0.0528756 0.0511139 0.0492066 0.0471538 0.0449553 0.0426112 0.0401216 0.0374863 0.0347949 0.0321367 0.0295117 0.0269199 0.0243614 0.0218361 0.019344 0.0168851 0.0145399 0.0123888 0.0104318 0.00866885 0.00710001 0.00572526 0.00454461 0.00355805 0.00272413 0.0020014 0.00138986 0.000889513 0.000500351 0.000222378 5.55946e-05 0 0 2.03598e-05 8.14392e-05 0.000183238 0.000325757 0.000508995 0.000732952 0.00099763 0.00130303 0.00168072 0.0021623 0.00274776 0.0034371 0.00423032 0.00512743 0.00612841 0.00723328 0.00840261 0.009597 0.0108164 0.0120609 0.0133305 0.0146251 0.0159448 0.0172895 0.0186034 0.0198309 0.0209718 0.0220261 0.0229939 0.0238751 0.0246698 0.025378 0.0259807 0.0264593 0.0268136 0.0270437 0.0271495 0.0271312 0.0269886 0.0267218 0.0263692 0.0259692 0.025522 0.0250274 0.0244855 0.0238962 0.0232597 0.0225758 0.0219162 0.0213528 0.0208854 0.0205141 0.0202388 0.0200597 0.0199766 0.0199895 0.0201447 0.0204883 0.0210201 0.0217403 0.0226488 0.0237457 0.0250309 0.0265044 0.0281397 0.02991 0.0318154 0.033856 0.0360316 0.0383423 0.0407881 0.043369 0.045994 0.0485721 0.0511033 0.0535876 0.056025 0.0584155 0.0607591 0.0630558 0.0652126 0.0671366 0.0688276 0.0702856 0.0715108 0.0725031 0.0732624 0.0737889 0.0740537 0.0740283 0.0737126 0.0731066 0.0722103 0.0710238 0.069547 0.0677799 0.0657775 0.0635949 0.061232 0.0586889 0.0559655 0.0530618 0.0499779 0.0467137 0.0433792 0.0400842 0.0368288 0.033613 0.0304367 0.0273 0.0242029 0.0211453 0.0182271 0.0155481 0.0131083 0.0109077 0.00894623 0.00722399 0.00574093 0.00449707 0.00344307 0.0025296 0.00175667 0.00112427 0.000632401 0.000281067 7.02667e-05 0 0 2.69012e-05 0.000107605 0.000242111 0.000430419 0.00067253 0.000968443 0.00131816 0.00172168 0.00221592 0.00283781 0.00358735 0.00446454 0.00546938 0.00660187 0.007862 0.00924978 0.010716 0.0122113 0.0137359 0.0152895 0.0168724 0.0184844 0.0201256 0.021796 0.0234277 0.0249531 0.0263722 0.0276848 0.0288911 0.029991 0.0309846 0.0318717 0.0326297 0.0332356 0.0336894 0.0339912 0.0341409 0.0341385 0.0339841 0.0336775 0.0332655 0.0327946 0.0322648 0.0316761 0.0310284 0.0303219 0.0295564 0.028732 0.0279356 0.027254 0.0266872 0.0262352 0.025898 0.0256756 0.0255681 0.0255753 0.0257534 0.0261582 0.0267899 0.0276484 0.0287338 0.0300459 0.0315848 0.0333506 0.0353113 0.0374351 0.0397219 0.0421719 0.0447848 0.0475609 0.0505 0.0536022 0.0567577 0.0598569 0.0628998 0.0658862 0.0688164 0.0716901 0.0745075 0.0772686 0.0798609 0.0821721 0.0842022 0.0859511 0.087419 0.0886057 0.0895114 0.0901359 0.0904443 0.0904018 0.0900082 0.0892636 0.0881679 0.0867213 0.0849236 0.082775 0.0803413 0.0776888 0.0748174 0.0717271 0.0684179 0.0648898 0.0611428 0.0571769 0.0531244 0.0491176 0.0451565 0.0412411 0.0373714 0.0335474 0.029769 0.0260363 0.0224709 0.0191942 0.0162064 0.0135072 0.0110969 0.00897533 0.00714254 0.00559852 0.00428637 0.00314917 0.00218692 0.00139963 0.000787292 0.000349908 8.74769e-05 0 0 3.48956e-05 0.000139582 0.00031406 0.000558329 0.00087239 0.00125624 0.00170988 0.00223332 0.00286884 0.00365877 0.00460308 0.00570179 0.0069549 0.0083624 0.00992429 0.0116406 0.0134507 0.0152941 0.0171707 0.0190805 0.0210236 0.023 0.0250096 0.0270525 0.0290476 0.0309141 0.0326518 0.0342609 0.0357413 0.0370931 0.0383161 0.0394105 0.0403489 0.0411042 0.0416762 0.042065 0.0422706 0.042293 0.0421322 0.0417882 0.0413165 0.0407726 0.0401565 0.0394682 0.0387077 0.037875 0.0369701 0.035993 0.0350473 0.0342363 0.0335601 0.0330188 0.0326122 0.0323405 0.0322036 0.0322014 0.032401 0.0328691 0.0336058 0.0346111 0.0358849 0.0374273 0.0392382 0.0413178 0.0436284 0.0461325 0.0488302 0.0517215 0.0548064 0.0580848 0.0615568 0.0652224 0.0689514 0.0726139 0.0762098 0.0797391 0.0832018 0.086598 0.0899276 0.0931906 0.0962535 0.0989827 0.101378 0.10344 0.105169 0.106563 0.107624 0.108352 0.108703 0.108638 0.108155 0.107254 0.105936 0.1042 0.102047 0.099477 0.0965671 0.0933957 0.0899628 0.0862684 0.0823125 0.0780951 0.0736163 0.0688759 0.0640306 0.0592369 0.0544948 0.0498043 0.0451654 0.0405781 0.0360423 0.0315582 0.0272713 0.0233272 0.019726 0.0164676 0.013552 0.0109793 0.00874944 0.00686241 0.00525403 0.00386011 0.00268063 0.0017156 0.000965027 0.000428901 0.000107225 0 0 4.4343e-05 0.000177372 0.000399087 0.000709487 0.00110857 0.00159635 0.0021728 0.00283795 0.0036395 0.00462516 0.00579495 0.00714885 0.00868688 0.010409 0.0123153 0.0144057 0.0166068 0.0188452 0.0211209 0.0234339 0.0257842 0.0281718 0.0305967 0.0330589 0.035463 0.0377136 0.0398108 0.0417545 0.0435446 0.0451813 0.0466645 0.0479942 0.0491384 0.0500649 0.0507738 0.051265 0.0515386 0.0515946 0.0514329 0.0510536 0.0505219 0.049903 0.0491969 0.0484037 0.0475232 0.0465556 0.0455008 0.0443588 0.0432513 0.0422998 0.0415043 0.0408649 0.0403816 0.0400543 0.0398831 0.039868 0.0400876 0.0406209 0.0414677 0.0426282 0.0441022 0.0458899 0.0479911 0.0504059 0.0530908 0.0560023 0.0591403 0.062505 0.0660962 0.0699141 0.0739585 0.0782295 0.082575 0.0868429 0.0910333 0.0951461 0.0991814 0.103139 0.107019 0.110822 0.11439 0.117568 0.120356 0.122753 0.12476 0.126376 0.127601 0.128436 0.128831 0.128736 0.128152 0.127078 0.125514 0.123461 0.120918 0.117886 0.114455 0.110716 0.106668 0.102313 0.0976494 0.0926779 0.0873983 0.0818107 0.0760978 0.0704421 0.0648437 0.0593025 0.0538187 0.0483921 0.0430228 0.0377109 0.0326282 0.027947 0.0236671 0.0197886 0.0163116 0.0132359 0.0105616 0.00828873 0.00634606 0.00466241 0.00323779 0.00207218 0.0011656 0.000518046 0.000129511 0 0 5.52433e-05 0.000220973 0.00049719 0.000883893 0.00138108 0.00198876 0.00270692 0.00353557 0.00452788 0.005737 0.00716295 0.00880573 0.0106653 0.0127417 0.015035 0.017545 0.0201842 0.0228647 0.0255864 0.0283496 0.031154 0.0339998 0.0368869 0.0398153 0.042674 0.0453519 0.047849 0.0501654 0.052301 0.0542557 0.0560297 0.057623 0.0589981 0.0601179 0.0609823 0.0615914 0.0619451 0.0620434 0.0618864 0.061474 0.0608819 0.060186 0.0593863 0.0584826 0.0574751 0.0563637 0.0551485 0.0538293 0.0525475 0.0514443 0.0505197 0.0497736 0.049206 0.0488171 0.0486067 0.0485749 0.0488133 0.0494136 0.0503757 0.0516998 0.0533858 0.0554336 0.0578434 0.060615 0.0636986 0.0670444 0.0706523 0.0745223 0.0786544 0.0830486 0.087705 0.0926235 0.0976284 0.102544 0.10737 0.112107 0.116755 0.121313 0.125783 0.130162 0.134272 0.137929 0.141135 0.143889 0.146192 0.148043 0.149442 0.150389 0.150827 0.150697 0.15 0.148735 0.146903 0.144504 0.141537 0.138002 0.134005 0.129648 0.124934 0.11986 0.114428 0.108638 0.102489 0.0959814 0.0893258 0.0827331 0.0762031 0.0697358 0.0633313 0.0569896 0.0507106 0.0444944 0.0385417 0.0330535 0.0280298 0.0234705 0.0193756 0.0157451 0.0125791 0.00987749 0.00756245 0.00555609 0.00385839 0.00246937 0.00138902 0.000617343 0.000154336 0 0 6.75966e-05 0.000270386 0.00060837 0.00108155 0.00168992 0.00243348 0.00331223 0.00432618 0.00553398 0.00699429 0.00870709 0.0106724 0.0128902 0.0153606 0.0180834 0.0210587 0.024183 0.0273525 0.0305674 0.0338276 0.0371332 0.040484 0.0438802 0.0473217 0.0506805 0.0538288 0.0567666 0.0594937 0.0620103 0.0643163 0.0664118 0.0682967 0.0699281 0.0712631 0.0723017 0.073044 0.0734898 0.0736393 0.0734924 0.0730491 0.0723965 0.0716216 0.0707244 0.069705 0.0685633 0.0672994 0.0659131 0.0644046 0.0629361 0.06167 0.0606062 0.0597447 0.0590856 0.0586288 0.0583743 0.0583222 0.0585779 0.0592471 0.0603298 0.0618259 0.0637355 0.0660586 0.0687951 0.0719451 0.0754518 0.0792588 0.083366 0.0877733 0.0924808 0.0974885 0.102796 0.108405 0.114112 0.119717 0.125221 0.130623 0.135923 0.141121 0.146218 0.151212 0.155897 0.160065 0.163716 0.16685 0.169466 0.171565 0.173146 0.174211 0.174691 0.174521 0.173699 0.172226 0.170103 0.167328 0.163902 0.159825 0.155216 0.150194 0.144759 0.138911 0.13265 0.125976 0.118888 0.111388 0.103715 0.0961099 0.088573 0.0811041 0.0737033 0.0663704 0.0591055 0.0519087 0.0450118 0.0386469 0.032814 0.027513 0.022744 0.0185069 0.0148018 0.0116287 0.00890321 0.00654113 0.00454245 0.00290717 0.00163528 0.000726793 0.000181698 0 0 8.14029e-05 0.000325612 0.000732626 0.00130245 0.00203507 0.0029305 0.00398874 0.00520979 0.00665782 0.00839701 0.0104274 0.0127489 0.0153616 0.0182655 0.0214605 0.0249467 0.0286031 0.0323088 0.0360638 0.0398681 0.0437216 0.0476245 0.0515766 0.055578 0.0594826 0.0631444 0.0665634 0.0697395 0.0726727 0.0753631 0.0778107 0.0800154 0.0819283 0.0835005 0.084732 0.0856228 0.086173 0.0863824 0.0862511 0.0857791 0.0850656 0.0842097 0.0832115 0.0820708 0.0807878 0.0793625 0.0777947 0.0760847 0.0744171 0.0729768 0.0717639 0.0707784 0.0700202 0.0694894 0.0691859 0.0691098 0.0693816 0.0701216 0.0713299 0.0730066 0.0751515 0.0777647 0.0808463 0.0843961 0.0883505 0.0926456 0.0972815 0.102258 0.107576 0.113234 0.119233 0.125572 0.132025 0.138363 0.144585 0.150692 0.156685 0.162562 0.168324 0.173971 0.179267 0.183976 0.188098 0.191633 0.194581 0.196942 0.198715 0.199902 0.200424 0.200207 0.199249 0.197551 0.195112 0.191934 0.188014 0.183355 0.17809 0.172353 0.166145 0.159465 0.152313 0.14469 0.136596 0.12803 0.119265 0.110573 0.101954 0.0934075 0.0849345 0.0765346 0.0682077 0.0599539 0.0520385 0.0447272 0.0380198 0.0319163 0.0264169 0.0215214 0.0172299 0.0135423 0.0103683 0.00761755 0.00528996 0.00338558 0.00190439 0.000846394 0.000211599 0 0 9.67272e-05 0.000386909 0.000870544 0.00154763 0.00241818 0.00348218 0.00473963 0.00619054 0.00790447 0.00995098 0.0123301 0.0150418 0.0180861 0.0214629 0.0251724 0.0292144 0.0334493 0.0377371 0.0420778 0.0464716 0.0509184 0.0554181 0.0599708 0.0645764 0.0690699 0.0732861 0.0772248 0.0808863 0.0842704 0.0873771 0.0902064 0.0927585 0.0949778 0.0968093 0.0982529 0.0993085 0.0999763 0.100256 0.100148 0.0996521 0.09888 0.0979435 0.0968425 0.0955772 0.0941474 0.0925533 0.0907947 0.0888718 0.0869928 0.0853662 0.083992 0.0828702 0.0820008 0.0813838 0.0810191 0.0809069 0.0811832 0.0819841 0.0833098 0.0851602 0.0875352 0.090435 0.0938594 0.0978086 0.102212 0.106997 0.112166 0.117718 0.123652 0.12997 0.13667 0.143753 0.150964 0.158046 0.165 0.171826 0.178523 0.185092 0.191533 0.197846 0.203765 0.209025 0.213627 0.21757 0.220854 0.223479 0.225445 0.226753 0.227315 0.227044 0.225941 0.224006 0.221238 0.217638 0.213205 0.20794 0.201993 0.195513 0.1885 0.180956 0.172879 0.16427 0.155128 0.145454 0.135553 0.125729 0.115983 0.106314 0.0967223 0.0872084 0.077772 0.0684131 0.0594322 0.0511299 0.0435062 0.036561 0.0302944 0.0247064 0.019797 0.0155662 0.0119179 0.00875598 0.00608054 0.00389155 0.002189 0.000972887 0.000243222 0 0 0.000113634 0.000454537 0.00102271 0.00181815 0.00284086 0.00409084 0.00556808 0.0072726 0.00927902 0.011662 0.0144215 0.0175576 0.0210703 0.0249594 0.0292252 0.0338675 0.0387261 0.0436409 0.0486119 0.053639 0.0587223 0.0638617 0.0690573 0.0743091 0.079432 0.0842411 0.0887364 0.0929178 0.0967855 0.100339 0.103579 0.106505 0.109056 0.111169 0.112844 0.114082 0.114882 0.115244 0.115169 0.114656 0.11383 0.112816 0.111613 0.110221 0.108641 0.106872 0.104914 0.102768 0.100666 0.0988397 0.0972897 0.0960158 0.0950182 0.0942967 0.0938514 0.0936822 0.0939416 0.0947819 0.0962031 0.0982053 0.100788 0.103952 0.107697 0.112023 0.116852 0.122107 0.127787 0.133893 0.140424 0.147382 0.154764 0.162573 0.170524 0.178334 0.186004 0.193533 0.200921 0.208169 0.215276 0.222243 0.228774 0.234575 0.239647 0.243988 0.2476 0.250482 0.252634 0.254056 0.254651 0.254321 0.253067 0.250888 0.247785 0.243757 0.238805 0.232928 0.226291 0.219061 0.211237 0.202819 0.193807 0.184201 0.174001 0.163207 0.152156 0.141187 0.130298 0.11949 0.108764 0.0981181 0.0875533 0.0770695 0.0670032 0.0576907 0.0491322 0.0413276 0.0342768 0.02798 0.0224371 0.0176481 0.0135119 0.00992708 0.00689381 0.00441204 0.00248177 0.00110301 0.000275752 0 0 0.000132124 0.000528498 0.00118912 0.00211399 0.00330311 0.00475648 0.0064741 0.00845596 0.0107815 0.0135301 0.0167017 0.0202964 0.0243142 0.028755 0.0336189 0.0389058 0.0444337 0.0500204 0.0556659 0.0613703 0.0671335 0.0729555 0.0788363 0.084776 0.0905689 0.0960096 0.101098 0.105834 0.110218 0.11425 0.117929 0.121256 0.124162 0.126579 0.128505 0.129942 0.130889 0.131346 0.131314 0.130792 0.129917 0.128827 0.127522 0.126003 0.124268 0.122318 0.120154 0.117774 0.115436 0.113397 0.111657 0.110215 0.109072 0.108228 0.107683 0.107436 0.107657 0.108515 0.11001 0.112142 0.114911 0.118317 0.122359 0.127039 0.132272 0.137974 0.144144 0.150784 0.157892 0.16547 0.173516 0.182031 0.190705 0.199226 0.207596 0.215813 0.223878 0.231791 0.239552 0.247161 0.254293 0.260626 0.266157 0.270889 0.27482 0.277951 0.280282 0.281812 0.282434 0.282039 0.280627 0.278199 0.274754 0.270292 0.264814 0.258318 0.250987 0.242998 0.234354 0.225053 0.215096 0.204483 0.193213 0.181287 0.169075 0.156946 0.1449 0.132938 0.121059 0.109264 0.0975517 0.0859233 0.0747515 0.0644097 0.0548979 0.046216 0.0383641 0.0313422 0.0251502 0.0197882 0.0151503 0.0111308 0.00772976 0.00494704 0.00278271 0.00123676 0.00030919 0 0 0.000152197 0.00060879 0.00136978 0.00243516 0.00380494 0.00547911 0.00745768 0.00974064 0.0124119 0.0155552 0.0191706 0.0232582 0.0278178 0.0328496 0.0383535 0.0443295 0.050572 0.0568755 0.06324 0.0696655 0.0761519 0.0826993 0.0893077 0.095977 0.102481 0.108591 0.11431 0.119635 0.124568 0.129108 0.133256 0.137011 0.140297 0.143039 0.145237 0.14689 0.147999 0.148563 0.148583 0.148058 0.147139 0.145977 0.144571 0.142922 0.141029 0.138893 0.136513 0.133889 0.131304 0.129039 0.127094 0.125469 0.124163 0.123178 0.122513 0.122168 0.122329 0.123183 0.12473 0.12697 0.129902 0.133528 0.137846 0.142857 0.148471 0.154598 0.161238 0.16839 0.176055 0.184234 0.192925 0.202128 0.211507 0.220723 0.229777 0.238667 0.247395 0.25596 0.264362 0.272601 0.280324 0.287177 0.293159 0.298272 0.302514 0.305886 0.308388 0.31002 0.310663 0.310196 0.308621 0.305937 0.302144 0.297242 0.291231 0.284112 0.276078 0.267325 0.257852 0.24766 0.236748 0.225117 0.212766 0.199696 0.186308 0.173006 0.159788 0.146656 0.133608 0.120645 0.107767 0.0949743 0.0826772 0.0712869 0.0608033 0.0512264 0.0425563 0.0347929 0.0279362 0.0219863 0.0168332 0.0123673 0.00858839 0.00549657 0.00309182 0.00137414 0.000343536 0 0 0.000173853 0.000695414 0.00156468 0.00278165 0.00434634 0.00625872 0.00851882 0.0111266 0.0141701 0.0177373 0.0218283 0.0264429 0.0315812 0.0372432 0.043429 0.0501384 0.057141 0.0642062 0.071334 0.0785245 0.0857775 0.0930932 0.100471 0.107912 0.115167 0.121987 0.128371 0.134321 0.139836 0.144915 0.14956 0.15377 0.157461 0.160551 0.163039 0.164925 0.16621 0.166894 0.166975 0.166456 0.165498 0.164266 0.16276 0.160979 0.158924 0.156595 0.153992 0.151114 0.148269 0.145765 0.1436 0.141776 0.140291 0.139147 0.138342 0.137878 0.137958 0.138787 0.140364 0.142689 0.145764 0.149586 0.154158 0.159477 0.16545 0.17198 0.179067 0.186712 0.194914 0.203674 0.21299 0.222864 0.232931 0.242824 0.252546 0.262094 0.27147 0.280674 0.289705 0.298563 0.306865 0.314228 0.320652 0.326136 0.330681 0.334287 0.336954 0.338681 0.339338 0.338794 0.337049 0.334103 0.329956 0.324608 0.318058 0.310308 0.301566 0.29204 0.28173 0.270638 0.258761 0.246102 0.232659 0.218433 0.203857 0.189367 0.174963 0.160644 0.14641 0.132262 0.1182 0.104223 0.0907803 0.0783222 0.0668484 0.0563587 0.0468533 0.0383321 0.0307952 0.0242425 0.0185606 0.0136364 0.00946971 0.00606061 0.0034091 0.00151515 0.000378788 0 0 0.000197092 0.000788369 0.00177383 0.00315348 0.00492731 0.00709532 0.00965752 0.0126139 0.0160563 0.0200765 0.0246746 0.0298505 0.0356043 0.0419359 0.0488454 0.0563326 0.0641407 0.0720125 0.0799481 0.0879473 0.0960104 0.104137 0.112328 0.120582 0.128628 0.136195 0.143283 0.149892 0.156021 0.16167 0.166841 0.171532 0.175653 0.179112 0.181911 0.184048 0.185524 0.186339 0.186492 0.185984 0.184992 0.183693 0.182087 0.180174 0.177953 0.175425 0.17259 0.169448 0.166332 0.163575 0.161176 0.159136 0.157456 0.156134 0.155171 0.154567 0.154544 0.155325 0.156911 0.1593 0.162494 0.166492 0.171293 0.176899 0.183208 0.19012 0.197633 0.20575 0.214468 0.22379 0.233713 0.244239 0.254975 0.26553 0.275903 0.286095 0.296105 0.305934 0.315581 0.325047 0.333917 0.341781 0.348636 0.354483 0.359323 0.363154 0.365978 0.367794 0.36846 0.367832 0.365911 0.362697 0.358189 0.352388 0.345294 0.336907 0.327449 0.317143 0.305989 0.293987 0.281137 0.267438 0.252892 0.237497 0.221721 0.20603 0.190424 0.174903 0.159467 0.144116 0.128849 0.113668 0.0990607 0.0855157 0.0730331 0.0616129 0.0512552 0.0419599 0.0337271 0.0265567 0.0203325 0.0149381 0.0103737 0.00663918 0.00373454 0.00165979 0.000414949 0 0 0.000221914 0.000887656 0.00199723 0.00355063 0.00554785 0.00798891 0.0108738 0.0142025 0.0180704 0.0225728 0.0277097 0.0334812 0.0398871 0.0469276 0.0546026 0.0629122 0.0715711 0.0802944 0.0890821 0.0979341 0.10685 0.115831 0.124876 0.133986 0.142864 0.151217 0.159045 0.166347 0.173123 0.179374 0.185099 0.190298 0.194873 0.198725 0.201853 0.204258 0.205939 0.206898 0.207133 0.206644 0.205623 0.204259 0.202554 0.200506 0.198116 0.195383 0.192309 0.188892 0.185492 0.182469 0.179822 0.177551 0.175657 0.174139 0.172998 0.172234 0.172087 0.172799 0.174371 0.176803 0.180094 0.184244 0.189254 0.195123 0.201746 0.209017 0.216936 0.225503 0.234718 0.244582 0.255093 0.266252 0.277641 0.28884 0.29985 0.310669 0.3213 0.33174 0.341991 0.352052 0.361481 0.369834 0.377111 0.383312 0.388437 0.392487 0.395461 0.39736 0.398027 0.39731 0.395207 0.391718 0.386844 0.380584 0.37294 0.363909 0.353729 0.342636 0.330629 0.317708 0.303874 0.289127 0.273465 0.25689 0.239901 0.222994 0.206172 0.189432