<?xml version="1.0"?> 
<VTKFile type="StructuredGrid" version="0.1"> 
<StructuredGrid WholeExtent="0 128 0 128 0 0"> 
<Piece Extent="0 128 0 128 0 0"> 
<PointData>
<DataArray type="Float32" Name="u" format="ascii" NumberOfComponents="1"> 
0 0 0 0 0 0 0 0 0 0 0 0 0 0 0 0 0 0 0 0 0 0 0 0 0 0 0 0 0 0 0 0 0 0 0 0 0 0 0 0 0 0 0 0 0 0 0 0 0 0 0 0 0 0 0 0 0 0 0 0 0 0 0 0 0 0 0 0 0 0 0 0 0 0 0 0 0 0 0 0 0 0 0 0 0 0 0 0 0 0 0 0 0 0 0 0 0 0 0 0 0 0 0 0 0 0 0 0 0 0 0 0 0 0 0 0 0 0 0 0 0 0 0 0 0 0 0 0 0 0 4.66634e-08 1.86653e-07 4.1997e-07 7.46614e-07 1.16658e-06 1.67988e-06 2.2865e-06 2.98646e-06 4.19046e-06 6.30925e-06 9.34283e-06 1.32912e-05 1.81543e-05 2.39323e-05 3.0625e-05 3.82325e-05 4.6547e-05 5.53606e-05 6.46735e-05 7.44855e-05 8.47967e-05 9.5607e-05 0.000106917 0.000118725 0.000130416 0.000141373 0.000151595 0.000161083 0.000169837 0.000177856 0.000185141 0.000191691 0.000197179 0.000201278 0.000203987 0.000205306 0.000205236 0.000203776 0.000200927 0.000196688 0.000191444 0.000185582 0.000179101 0.000172001 0.000164282 0.000155944 0.000146987 0.000137411 0.000128114 0.00011999 0.000113042 0.000107268 0.000102668 9.92436e-05 9.69935e-05 9.5918e-05 9.66412e-05 9.97871e-05 0.000105356 0.000113347 0.000123761 0.000136597 0.000151857 0.000169538 0.000189307 0.000210827 0.000234098 0.000259121 0.000285894 0.000314419 0.000344695 0.000376722 0.000409313 0.000441284 0.000472632 0.000503359 0.000533465 0.000562948 0.000591811 0.000620051 0.000646527 0.000670094 0.000690753 0.000708503 0.000723345 0.000735278 0.000744302 0.000750419 0.000753412 0.000753066 0.000749382 0.00074236 0.000731999 0.0007183 0.000701263 0.000680887 0.000657991 0.000633394 0.000607095 0.000579095 0.000549393 0.00051799 0.000484886 0.00045008 0.00041483 0.000380393 0.00034677 0.00031396 0.000281963 0.00025078 0.00022041 0.000190853 0.000162945 0.00013752 0.000114579 9.41213e-05 7.61473e-05 6.06568e-05 4.76499e-05 3.71265e-05 2.84249e-05 2.08836e-05 1.45025e-05 9.28161e-06 5.22091e-06 2.3204e-06 5.80101e-07 0 0 1.86653e-07 7.46614e-07 1.67988e-06 2.98646e-06 4.66634e-06 6.71952e-06 9.14602e-06 1.19458e-05 1.67618e-05 2.5237e-05 3.73713e-05 5.31648e-05 7.26173e-05 9.57291e-05 0.0001225 0.00015293 0.000186188 0.000221442 0.000258694 0.000297942 0.000339187 0.000382428 0.000427666 0.000474901 0.000521666 0.000565493 0.000606382 0.000644333 0.000679347 0.000711424 0.000740563 0.000766764 0.000788717 0.000805112 0.000815948 0.000821225 0.000820945 0.000815105 0.000803707 0.000786751 0.000765778 0.000742329 0.000716404 0.000688004 0.000657128 0.000623776 0.000587949 0.000549646 0.000512454 0.000479961 0.000452167 0.000429071 0.000410673 0.000396975 0.000387974 0.000383672 0.000386565 0.000399148 0.000421422 0.000453387 0.000495043 0.000546389 0.000607426 0.000678154 0.000757229 0.000843309 0.000936394 0.00103648 0.00114358 0.00125768 0.00137878 0.00150689 0.00163725 0.00176513 0.00189053 0.00201344 0.00213386 0.00225179 0.00236724 0.0024802 0.00258611 0.00268038 0.00276301 0.00283401 0.00289338 0.00294111 0.00297721 0.00300168 0.00301365 0.00301226 0.00299753 0.00296944 0.002928 0.0028732 0.00280505 0.00272355 0.00263196 0.00253358 0.00242838 0.00231638 0.00219757 0.00207196 0.00193954 0.00180032 0.00165932 0.00152157 0.00138708 0.00125584 0.00112785 0.00100312 0.000881639 0.000763412 0.000651779 0.00055008 0.000458316 0.000376485 0.000304589 0.000242627 0.000190599 0.000148506 0.0001137 8.35345e-05 5.80101e-05 3.71265e-05 2.08836e-05 9.28161e-06 2.3204e-06 0 0 4.1997e-07 1.67988e-06 3.77973e-06 6.71952e-06 1.04993e-05 1.51189e-05 2.05785e-05 2.68781e-05 3.77142e-05 5.67833e-05 8.40855e-05 0.000119621 0.000163389 0.00021539 0.000275625 0.000344092 0.000418923 0.000498246 0.000582061 0.000670369 0.00076317 0.000860463 0.000962249 0.00106853 0.00117375 0.00127236 0.00136436 0.00144975 0.00152853 0.0016007 0.00166627 0.00172522 0.00177461 0.0018115 0.00183588 0.00184776 0.00184713 0.00183399 0.00180834 0.00177019 0.001723 0.00167024 0.00161191 0.00154801 0.00147854 0.0014035 0.00132288 0.0012367 0.00115302 0.00107991 0.00101738 0.00096541 0.000924015 0.000893193 0.000872942 0.000863262 0.000869771 0.000898084 0.0009482 0.00102012 0.00111385 0.00122938 0.00136671 0.00152585 0.00170377 0.00189745 0.00210689 0.00233209 0.00257305 0.00282977 0.00310225 0.0033905 0.00368382 0.00397155 0.00425369 0.00453023 0.00480118 0.00506654 0.0053263 0.00558046 0.00581874 0.00603085 0.00621677 0.00637653 0.0065101 0.0066175 0.00669872 0.00675377 0.0067807 0.00677759 0.00674444 0.00668124 0.00658799 0.0064647 0.00631136 0.00612798 0.00592192 0.00570054 0.00546386 0.00521186 0.00494454 0.00466191 0.00436397 0.00405072 0.00373347 0.00342354 0.00312093 0.00282564 0.00253767 0.00225702 0.00198369 0.00171768 0.0014665 0.00123768 0.00103121 0.000847092 0.000685326 0.000545911 0.000428849 0.000334138 0.000255825 0.000187953 0.000130523 8.35345e-05 4.69882e-05 2.08836e-05 5.22091e-06 0 0 7.46614e-07 2.98646e-06 6.71952e-06 1.19458e-05 1.86653e-05 2.68781e-05 3.65841e-05 4.77833e-05 6.70474e-05 0.000100948 0.000149485 0.000212659 0.000290469 0.000382916 0.00049 0.00061172 0.000744751 0.00088577 0.00103478 0.00119177 0.00135675 0.00152971 0.00171067 0.00189961 0.00208666 0.00226197 0.00242553 0.00257733 0.00271739 0.0028457 0.00296225 0.00306706 0.00315487 0.00322045 0.00326379 0.0032849 0.00328378 0.00326042 0.00321483 0.003147 0.00306311 0.00296931 0.00286562 0.00275201 0.00262851 0.0024951 0.0023518 0.00219858 0.00204982 0.00191985 0.00180867 0.00171628 0.00164269 0.0015879 0.0015519 0.00153469 0.00154626 0.00159659 0.00168569 0.00181355 0.00198017 0.00218556 0.0024297 0.00271261 0.00302892 0.00337324 0.00374558 0.00414593 0.00457431 0.0050307 0.00551512 0.00602755 0.00654901 0.00706054 0.00756211 0.00805375 0.00853543 0.00900717 0.00946897 0.00992082 0.0103444 0.0107215 0.011052 0.011336 0.0115735 0.0117644 0.0119088 0.0120067 0.0120546 0.0120491 0.0119901 0.0118778 0.011712 0.0114928 0.0112202 0.0108942 0.0105279 0.0101343 0.00971352 0.00926552 0.0087903 0.00828785 0.00775817 0.00720128 0.00663728 0.00608629 0.00554832 0.00502336 0.00451141 0.00401248 0.00352656 0.00305365 0.00260712 0.00220032 0.00183326 0.00150594 0.00121836 0.000970509 0.000762398 0.000594023 0.000454799 0.000334138 0.00023204 0.000148506 8.35345e-05 3.71265e-05 9.28161e-06 0 0 1.16658e-06 4.66634e-06 1.04993e-05 1.86653e-05 2.91646e-05 4.1997e-05 5.71626e-05 7.46614e-05 0.000104762 0.000157731 0.000233571 0.00033228 0.000453858 0.000598307 0.000765625 0.000955812 0.00116367 0.00138402 0.00161684 0.00186214 0.00211992 0.00239018 0.00267291 0.00296813 0.00326041 0.00353433 0.00378989 0.00402708 0.00424592 0.0044464 0.00462852 0.00479227 0.00492948 0.00503195 0.00509967 0.00513266 0.0051309 0.00509441 0.00502317 0.00491719 0.00478611 0.00463955 0.00447753 0.00430002 0.00410705 0.0038986 0.00367468 0.00343529 0.00320284 0.00299976 0.00282604 0.00268169 0.00256671 0.00248109 0.00242484 0.00239795 0.00241603 0.00249468 0.00263389 0.00283367 0.00309402 0.00341493 0.00379641 0.00423846 0.00473268 0.00527068 0.00585246 0.00647802 0.00714736 0.00786047 0.00861737 0.00941804 0.0102328 0.0110321 0.0118158 0.012584 0.0133366 0.0140737 0.0147953 0.0155013 0.0161632 0.0167523 0.0172688 0.0177126 0.0180836 0.0183819 0.0186076 0.0187605 0.0188353 0.0188267 0.0187346 0.018559 0.0183 0.0179575 0.0175316 0.0170222 0.0164498 0.0158348 0.0151774 0.0144774 0.0137348 0.0129498 0.0121221 0.011252 0.0103707 0.00950983 0.00866925 0.007849 0.00704908 0.0062695 0.00551024 0.00477133 0.00407362 0.003438 0.00286447 0.00235303 0.00190368 0.00151642 0.00119125 0.000928161 0.000710624 0.000522091 0.000362563 0.00023204 0.000130523 5.80101e-05 1.45025e-05 0 0 1.67988e-06 6.71952e-06 1.51189e-05 2.68781e-05 4.1997e-05 6.04757e-05 8.23142e-05 0.000107512 0.000150857 0.000227133 0.000336342 0.000478483 0.000653556 0.000861562 0.0011025 0.00137637 0.00167569 0.00199298 0.00232824 0.00268148 0.00305268 0.00344185 0.003849 0.00427411 0.00469499 0.00508943 0.00545744 0.005799 0.00611413 0.00640281 0.00666506 0.00690087 0.00709845 0.007246 0.00734353 0.00739103 0.0073885 0.00733595 0.00723337 0.00708076 0.006892 0.00668096 0.00644764 0.00619203 0.00591415 0.00561398 0.00529154 0.00494681 0.00461209 0.00431965 0.0040695 0.00386164 0.00369606 0.00357277 0.00349177 0.00345305 0.00347908 0.00359233 0.0037928 0.00408048 0.00445538 0.0049175 0.00546683 0.00610338 0.00681506 0.00758978 0.00842754 0.00932835 0.0102922 0.0113191 0.012409 0.013562 0.0147353 0.0158862 0.0170148 0.0181209 0.0192047 0.0202661 0.0213052 0.0223218 0.023275 0.0241234 0.0248671 0.0255061 0.0260404 0.02647 0.0267949 0.0270151 0.0271228 0.0271104 0.0269778 0.026725 0.026352 0.0258588 0.0252455 0.0245119 0.0236877 0.0228022 0.0218554 0.0208474 0.0197782 0.0186477 0.0174559 0.0162029 0.0149339 0.0136942 0.0124837 0.0113026 0.0101507 0.00902807 0.00793475 0.00687071 0.00586601 0.00495072 0.00412484 0.00338837 0.0027413 0.00218364 0.00171539 0.00133655 0.0010233 0.000751811 0.000522091 0.000334138 0.000187953 8.35345e-05 2.08836e-05 0 0 2.2865e-06 9.14602e-06 2.05785e-05 3.65841e-05 5.71626e-05 8.23142e-05 0.000112039 0.000146336 0.000205333 0.000309153 0.000457799 0.000651268 0.000889562 0.00117268 0.00150062 0.00187339 0.0022808 0.00271267 0.003169 0.00364979 0.00415504 0.00468474 0.00523891 0.00581754 0.00639041 0.00692728 0.00742818 0.00789308 0.00832201 0.00871494 0.00907189 0.00939286 0.00966178 0.00986262 0.00999536 0.01006 0.0100566 0.00998504 0.00984542 0.0096377 0.00938078 0.00909353 0.00877595 0.00842805 0.00804981 0.00764126 0.00720237 0.00673316 0.00627757 0.00587953 0.00553904 0.00525612 0.00503075 0.00486294 0.00475268 0.00469998 0.00473542 0.00488957 0.00516242 0.00555399 0.00606427 0.00669327 0.00744097 0.00830738 0.00927606 0.0103305 0.0114708 0.0126969 0.0140088 0.0154065 0.01689 0.0184594 0.0200564 0.0216229 0.023159 0.0246646 0.0261398 0.0275845 0.0289987 0.0303825 0.0316798 0.0328346 0.0338469 0.0347166 0.0354439 0.0360286 0.0364708 0.0367705 0.0369172 0.0369002 0.0367197 0.0363756 0.035868 0.0351967 0.0343619 0.0333635 0.0322416 0.0310363 0.0297477 0.0283757 0.0269203 0.0253815 0.0237594 0.0220539 0.0203267 0.0186393 0.0169917 0.015384 0.0138162 0.0122882 0.0108001 0.0093518 0.0079843 0.00673849 0.00561437 0.00461195 0.00373122 0.00297218 0.00233484 0.0018192 0.00139282 0.0010233 0.000710624 0.000454799 0.000255825 0.0001137 2.84249e-05 0 0 2.98646e-06 1.19458e-05 2.68781e-05 4.77833e-05 7.46614e-05 0.000107512 0.000146336 0.000191133 0.00026819 0.000403792 0.000597941 0.000850636 0.00116188 0.00153166 0.00196 0.00244688 0.00297901 0.00354308 0.0041391 0.00476707 0.00542699 0.00611885 0.00684266 0.00759842 0.00834665 0.00904788 0.00970211 0.0103093 0.0108696 0.0113828 0.011849 0.0122682 0.0126195 0.0128818 0.0130552 0.0131396 0.0131351 0.0130417 0.0128593 0.012588 0.0122524 0.0118773 0.0114625 0.0110081 0.010514 0.00998042 0.00940718 0.00879433 0.00819927 0.00767938 0.00723467 0.00686514 0.00657078 0.00635159 0.00620759 0.00613875 0.00618504 0.00638637 0.00674276 0.00725419 0.00792068 0.00874222 0.00971882 0.0108505 0.0121157 0.0134929 0.0149823 0.0165837 0.0182972 0.0201228 0.0220605 0.0241102 0.0261961 0.0282421 0.0302485 0.032215 0.0341417 0.0360287 0.0378759 0.0396833 0.0413777 0.042886 0.0442082 0.0453442 0.046294 0.0470578 0.0476354 0.0480268 0.0482183 0.0481962 0.0479605 0.047511 0.0468479 0.0459712 0.0448808 0.0435768 0.0421114 0.0405372 0.0388541 0.0370621 0.0351612 0.0331514 0.0310327 0.0288051 0.0265491 0.0243452 0.0221933 0.0200934 0.0180456 0.0160499 0.0141062 0.0122146 0.0104285 0.00880129 0.00733305 0.00602377 0.00487343 0.00388203 0.00304959 0.00237609 0.0018192 0.00133655 0.000928161 0.000594023 0.000334138 0.000148506 3.71265e-05 0 0 4.42858e-06 1.77143e-05 3.98572e-05 7.08573e-05 0.000110715 0.000159429 0.000217 0.000283429 0.00039169 0.000574758 0.000832634 0.00116532 0.00157281 0.0020551 0.00261221 0.00324412 0.00393348 0.00466292 0.00543244 0.00624204 0.00709172 0.00798148 0.00891133 0.00988126 0.0108412 0.011741 0.0125808 0.0133605 0.0140801 0.0147396 0.0153391 0.0158785 0.0163312 0.0166708 0.0168972 0.0170105 0.0170106 0.0168976 0.0166714 0.016332 0.0159107 0.0154388 0.0149163 0.0143431 0.0137192 0.0130448 0.0123197 0.0115439 0.0107902 0.0101313 0.00956715 0.00909773 0.00872307 0.00844317 0.00825802 0.00816763 0.00822261 0.00847358 0.00892055 0.0095635 0.0104024 0.0114374 0.0126683 0.0140952 0.015691 0.0174287 0.0193081 0.0213294 0.0234924 0.0257973 0.028244 0.0308325 0.0334668 0.036051 0.038585 0.0410689 0.0435026 0.0458861 0.0482195 0.0505027 0.0526431 0.0545483 0.056218 0.0576524 0.0588514 0.0598151 0.0605435 0.0610365 0.0612765 0.0612462 0.0609455 0.0603743 0.0595327 0.0584206 0.0570382 0.0553853 0.0535281 0.0515327 0.0493991 0.0471272 0.0447172 0.0421689 0.0394825 0.0366578 0.0337966 0.0310006 0.0282698 0.0256042 0.0230037 0.0204684 0.0179983 0.0155934 0.0133217 0.0112511 0.00938171 0.00771346 0.00624637 0.00498045 0.00391569 0.00305208 0.00233675 0.0017168 0.00119222 0.000763021 0.000429199 0.000190755 4.76888e-05 0 0 7.26173e-06 2.90469e-05 6.53556e-05 0.000116188 0.000181543 0.000261422 0.000355825 0.000464751 0.000628097 0.000885761 0.00123774 0.00168404 0.00222466 0.00285959 0.00358884 0.00441241 0.00530739 0.00625088 0.00724289 0.0082834 0.00937242 0.01051 0.011696 0.0129306 0.0141515 0.0152966 0.0163658 0.0173593 0.018277 0.0191188 0.0198849 0.0205751 0.0211567 0.021597 0.0218959 0.0220535 0.0220696 0.0219444 0.0216778 0.0212699 0.0207593 0.0201848 0.0195464 0.018844 0.0180778 0.0172476 0.0163535 0.0153955 0.0144635 0.0136474 0.0129472 0.0123629 0.0118946 0.0115421 0.0113055 0.0111849 0.0112428 0.011542 0.0120825 0.0128643 0.0138874 0.0151517 0.0166574 0.0184043 0.0203593 0.0224894 0.0247944 0.0272744 0.0299294 0.0327594 0.0357644 0.0389444 0.0421811 0.0453565 0.0484705 0.051523 0.0545142 0.0574439 0.0603123 0.0631193 0.0657506 0.068092 0.0701434 0.071905 0.0733766 0.0745583 0.0754501 0.076052 0.076342 0.076298 0.0759202 0.0752085 0.0741629 0.0727833 0.0710699 0.0690225 0.0667224 0.0642505 0.061607 0.0587917 0.0558047 0.0526459 0.0493155 0.0458133 0.0422646 0.0387944 0.0354027 0.0320896 0.028855 0.025699 0.0226215 0.0196226 0.0167871 0.0142 0.0118612 0.00977066 0.0079285 0.00633467 0.00498918 0.00389201 0.00297982 0.00218925 0.00152032 0.000973002 0.000547314 0.00024325 6.08126e-05 0 0 1.14859e-05 4.59436e-05 0.000103373 0.000183774 0.000287147 0.000413492 0.000562809 0.000735097 0.00097741 0.0013368 0.00181327 0.00240681 0.00311743 0.00394512 0.00488989 0.00595174 0.00710075 0.00830699 0.00957046 0.0108912 0.0122691 0.0137043 0.0151967 0.0167463 0.0182775 0.0197145 0.0210572 0.0223058 0.0234602 0.0245204 0.0254863 0.0263581 0.027096 0.0276604 0.0280512 0.0282684 0.0283121 0.0281822 0.0278787 0.0274017 0.0267982 0.0261153 0.0253529 0.024511 0.0235897 0.022589 0.0215088 0.0203492 0.0192191 0.0182277 0.0173749 0.0166608 0.0160853 0.0156484 0.0153501 0.0151905 0.0152456 0.0155917 0.0162287 0.0171566 0.0183755 0.0198853 0.021686 0.0237776 0.0261205 0.028675 0.0314412 0.0344189 0.0376082 0.0410091 0.0446216 0.0484458 0.0523389 0.0561586 0.0599048 0.0635774 0.0671766 0.0707022 0.0741544 0.077533 0.0807 0.0835171 0.0859844 0.0881019 0.0898695 0.0912873 0.0923553 0.0930735 0.0934146 0.0933517 0.0928847 0.0920137 0.0907385 0.0890593 0.0869759 0.0844885 0.0816943 0.0786908 0.0754778 0.0720554 0.0684235 0.0645823 0.0605317 0.0562716 0.0519529 0.0477264 0.043592 0.0395498 0.0355996 0.0317417 0.0279759 0.0243022 0.0208248 0.0176479 0.0147714 0.0121954 0.00991981 0.00794471 0.00627006 0.00489587 0.0037484 0.00275392 0.00191245 0.00122397 0.000688481 0.000305992 7.64979e-05 0 0 1.71011e-05 6.84044e-05 0.00015391 0.000273617 0.000427527 0.000615639 0.000837953 0.00109447 0.00143963 0.00192787 0.0025592 0.00333362 0.00425112 0.0053117 0.00651537 0.00786212 0.00931354 0.0108312 0.0124151 0.0140653 0.0157818 0.0175644 0.0194134 0.0213286 0.0232193 0.0249947 0.0266549 0.0281999 0.0296297 0.0309442 0.0321435 0.0332275 0.0341491 0.0348609 0.035363 0.0356554 0.035738 0.0356109 0.0352741 0.0347275 0.0340275 0.0332302 0.0323357 0.031344 0.030255 0.0290688 0.0277854 0.0264048 0.025057 0.0238722 0.0228503 0.0219913 0.0212952 0.020762 0.0203918 0.0201845 0.0202311 0.0206226 0.0213591 0.0224405 0.0238668 0.025638 0.0277542 0.0302153 0.0329747 0.0359857 0.0392484 0.0427627 0.0465287 0.0505464 0.0548157 0.0593367 0.0639403 0.0684574 0.072888 0.0772321 0.0814898 0.085661 0.0897457 0.093744 0.0974914 0.100824 0.103741 0.106243 0.10833 0.110002 0.111259 0.112101 0.112495 0.112407 0.111839 0.11079 0.10926 0.107248 0.104756 0.101783 0.0984439 0.0948533 0.0910115 0.0869183 0.0825739 0.0779781 0.0731311 0.0680328 0.0628618 0.0577968 0.0528377 0.0479846 0.0432375 0.0385964 0.0340613 0.0296321 0.0254347 0.0215948 0.0181124 0.0149876 0.0122203 0.00981056 0.00775834 0.00606366 0.00464249 0.00341081 0.00236862 0.00151591 0.000852702 0.000378979 9.47446e-05 0 0 2.41073e-05 9.64292e-05 0.000216966 0.000385717 0.000602683 0.000867863 0.00118126 0.00154287 0.00201476 0.00265899 0.00347556 0.00446447 0.00562573 0.00695933 0.00846527 0.0101435 0.0119458 0.0138236 0.0157769 0.0178059 0.0199104 0.0220904 0.0243461 0.0266773 0.0289768 0.0311373 0.033159 0.0350417 0.0367855 0.0383904 0.0398563 0.0411833 0.0423159 0.0431986 0.0438315 0.0442144 0.0443474 0.0442306 0.0438638 0.0432472 0.042447 0.0415296 0.0404948 0.0393429 0.0380737 0.0366872 0.0351835 0.0335625 0.0319773 0.0305808 0.0293732 0.0283543 0.0275243 0.026883 0.0264305 0.0261668 0.0261992 0.0266348 0.0274737 0.0287158 0.0303613 0.03241 0.034862 0.0377172 0.0409217 0.0444213 0.0482161 0.052306 0.0566911 0.0613713 0.0663467 0.0716172 0.0769851 0.0822527 0.0874201 0.0924871 0.0974538 0.10232 0.107086 0.111752 0.116125 0.120012 0.123413 0.126329 0.128759 0.130703 0.132161 0.133134 0.133582 0.133465 0.132783 0.131537 0.129726 0.127351 0.124411 0.120907 0.116971 0.112738 0.108208 0.103381 0.0982557 0.0928334 0.0871137 0.0810967 0.0749911 0.0690054 0.0631398 0.0573942 0.0517687 0.0462632 0.0408778 0.0356124 0.0306167 0.0260407 0.0218842 0.0181473 0.01483 0.0119322 0.00945401 0.00739538 0.00566209 0.0041599 0.00288882 0.00184885 0.00103998 0.000462211 0.000115553 0 0 3.25045e-05 0.000130018 0.000292541 0.000520073 0.000812614 0.00117016 0.00159272 0.00208029 0.00270279 0.00353013 0.00456233 0.00579937 0.00724126 0.008888 0.0107396 0.012796 0.0149975 0.0172841 0.0196559 0.0221128 0.024655 0.0272823 0.0299948 0.0327924 0.03555 0.0381423 0.0405694 0.0428312 0.0449277 0.0468589 0.0486248 0.0502255 0.0515965 0.0526735 0.0534565 0.0539454 0.0541403 0.0540412 0.053648 0.0529609 0.0520569 0.0510134 0.0498304 0.0485078 0.0470457 0.045444 0.0437029 0.0418222 0.0399798 0.0383537 0.0369437 0.0357501 0.0347726 0.0340114 0.0334664 0.0331376 0.0331499 0.0336282 0.0345725 0.0359827 0.0378589 0.0402011 0.0430093 0.0462835 0.0499617 0.0539819 0.0583443 0.0630487 0.0680952 0.0734838 0.0792144 0.0852872 0.0914735 0.0975448 0.103501 0.109342 0.115069 0.12068 0.126176 0.131557 0.1366 0.141081 0.145001 0.148359 0.151155 0.153389 0.155062 0.156173 0.156676 0.156524 0.155717 0.154255 0.152138 0.149367 0.14594 0.141859 0.137276 0.132346 0.127068 0.121442 0.115469 0.109148 0.10248 0.0954635 0.0883408 0.0813524 0.0744983 0.0677786 0.0611932 0.0547421 0.0484254 0.042243 0.036371 0.0309857 0.0260868 0.0216746 0.0177488 0.0143097 0.0113571 0.00889104 0.0068072 0.00500121 0.00347306 0.00222276 0.0012503 0.00055569 0.000138923 0 0 4.22928e-05 0.000169171 0.000380635 0.000676685 0.00105732 0.00152254 0.00207235 0.00270674 0.00350373 0.00454132 0.00581951 0.00733831 0.00909771 0.0110977 0.0133383 0.0158195 0.0184686 0.0212127 0.0240519 0.0269862 0.0300155 0.03314 0.0363595 0.039674 0.042939 0.0460097 0.0488861 0.0515683 0.0540561 0.0563497 0.058449 0.0603541 0.0619909 0.0632856 0.0642381 0.0648485 0.0651167 0.0650428 0.0646267 0.0638684 0.0628571 0.0616817 0.0603422 0.0588387 0.0571711 0.0553394 0.0533437 0.0511839 0.0490646 0.0471907 0.0455619 0.0441784 0.0430401 0.0421471 0.0414993 0.0410967 0.0410832 0.0416028 0.0426554 0.0442411 0.0463598 0.0490115 0.0521962 0.055914 0.0600945 0.0646675 0.0696329 0.0749908 0.0807411 0.0868839 0.0934191 0.100347 0.107405 0.114333 0.121131 0.127798 0.134334 0.14074 0.147015 0.15316 0.158918 0.164032 0.168504 0.172333 0.175519 0.178062 0.179962 0.181218 0.181778 0.181585 0.18064 0.178944 0.176496 0.173296 0.169343 0.164639 0.159358 0.153675 0.14759 0.141103 0.134214 0.126922 0.119229 0.111133 0.102911 0.0948376 0.0869132 0.0791376 0.0715109 0.0640331 0.0567041 0.049524 0.0426976 0.0364296 0.0307202 0.0255693 0.0209769 0.016943 0.0134675 0.0105506 0.00807783 0.00593473 0.00412134 0.00263766 0.00148368 0.000659415 0.000164854 0 0 5.34721e-05 0.000213888 0.000481249 0.000855553 0.0013368 0.001925 0.00262013 0.00342221 0.00441757 0.00569254 0.00724711 0.00908129 0.0111951 0.0135885 0.0162615 0.0192141 0.0223592 0.0256095 0.0289651 0.0324259 0.0359921 0.0396635 0.0434402 0.0473221 0.0511437 0.0547394 0.0581092 0.061253 0.0641709 0.0668629 0.0693289 0.071569 0.073499 0.0750348 0.0761763 0.0769235 0.0772765 0.0772353 0.0767997 0.0759699 0.0748476 0.0735344 0.0720304 0.0703355 0.0684498 0.0663732 0.0641058 0.0616476 0.0592318 0.0570918 0.0552277 0.0536394 0.0523268 0.0512901 0.0505292 0.0500442 0.0499992 0.0505587 0.0517226 0.053491 0.0558638 0.058841 0.0624227 0.0666088 0.0713203 0.076478 0.082082 0.0881323 0.0946288 0.101572 0.108961 0.116796 0.124781 0.132619 0.14031 0.147854 0.15525 0.1625 0.169603 0.176559 0.183077 0.188865 0.193923 0.198252 0.201851 0.20472 0.206859 0.208269 0.208886 0.208648 0.207554 0.205604 0.202799 0.199138 0.194621 0.189249 0.183218 0.176727 0.169775 0.162363 0.15449 0.146156 0.137361 0.128106 0.118702 0.109461 0.100384 0.0914714 0.0827219 0.0741361 0.0657139 0.0574553 0.0495963 0.0423726 0.0357844 0.0298315 0.0245141 0.019832 0.0157854 0.0123742 0.00947397 0.00696047 0.00483366 0.00309354 0.00174012 0.000773385 0.000193346 0 0 6.63495e-05 0.000265398 0.000597145 0.00106159 0.00165874 0.00238858 0.00325112 0.00424636 0.0054689 0.0070133 0.00887959 0.0110678 0.0135778 0.0164097 0.0195635 0.0230392 0.0267335 0.0305431 0.034468 0.0385083 0.0426639 0.0469348 0.0513211 0.0558227 0.0602518 0.0644208 0.0683295 0.0719781 0.0753664 0.0784946 0.0813626 0.0839703 0.086223 0.0880256 0.0893782 0.0902807 0.0907333 0.0907358 0.0902882 0.0893907 0.088158 0.0867051 0.085032 0.0831388 0.0810253 0.0786916 0.0761377 0.0733636 0.0706326 0.068208 0.0660899 0.0642783 0.062773 0.0615742 0.0606818 0.0600959 0.0600022 0.0605866 0.0618491 0.0637896 0.0664082 0.0697049 0.0736796 0.0783324 0.0835754 0.0893207 0.0955684 0.102318 0.109571 0.117325 0.125582 0.134341 0.14327 0.152036 0.160638 0.169077 0.177352 0.185465 0.193414 0.2012 0.208495 0.214971 0.220629 0.225468 0.229488 0.232689 0.235072 0.236636 0.237309 0.237019 0.235767 0.233551 0.230373 0.226231 0.221127 0.21506 0.20825 0.200919 0.193065 0.184689 0.175791 0.166371 0.156428 0.145964 0.135327 0.124868 0.114588 0.104485 0.0945593 0.0848119 0.0752424 0.0658507 0.0569056 0.0486759 0.0411615 0.0343625 0.0282788 0.0229105 0.0182575 0.0143198 0.0109636 0.00805491 0.00559369 0.00357996 0.00201373 0.00089499 0.000223748 0 0 8.1232e-05 0.000324928 0.000731088 0.00129971 0.0020308 0.00292435 0.00398037 0.00519885 0.00668227 0.00853313 0.0107514 0.0133371 0.0162903 0.0196109 0.0232989 0.0273543 0.0316559 0.0360822 0.0406334 0.0453094 0.0501102 0.0550359 0.0600863 0.0652616 0.0703507 0.0751429 0.079638 0.083836 0.087737 0.091341 0.094648 0.0976579 0.100265 0.102362 0.103951 0.10503 0.1056 0.105661 0.105213 0.104256 0.102918 0.101327 0.0994842 0.0973887 0.0950407 0.0924403 0.0895874 0.0864821 0.0834183 0.0806901 0.0782975 0.0762404 0.0745189 0.073133 0.0720826 0.0713678 0.0711967 0.0717774 0.0731099 0.0751942 0.0780302 0.0816181 0.0859577 0.0910492 0.0967962 0.103103 0.109969 0.117394 0.125379 0.133923 0.143027 0.15269 0.162544 0.172219 0.181716 0.191035 0.200175 0.209137 0.217921 0.226526 0.234589 0.241744 0.247993 0.253334 0.257768 0.261295 0.263915 0.265628 0.266352 0.266006 0.264589 0.262101 0.258543 0.253915 0.248216 0.241446 0.233849 0.225667 0.2169 0.207548 0.197611 0.187089 0.175983 0.164291 0.152403 0.140705 0.129198 0.117882 0.106756 0.0958212 0.0850771 0.0745238 0.064464 0.0552007 0.0467338 0.0390633 0.0321893 0.0261117 0.0208306 0.0163459 0.0125148 0.00919457 0.00638512 0.00408648 0.00229864 0.00102162 0.000255405 0 0 9.81196e-05 0.000392478 0.000883077 0.00156991 0.00245299 0.00353231 0.00480786 0.00627966 0.0080577 0.010252 0.0128626 0.0158894 0.0193325 0.0231919 0.0274675 0.0321594 0.0371263 0.0422269 0.0474613 0.0528293 0.0583312 0.0639667 0.069736 0.0756389 0.0814406 0.0869058 0.0920345 0.0968269 0.101283 0.105402 0.109185 0.112632 0.115624 0.118045 0.119894 0.121172 0.121878 0.122012 0.121575 0.120566 0.119127 0.117401 0.115387 0.113085 0.110496 0.10762 0.104455 0.101003 0.097589 0.094538 0.0918503 0.0895258 0.0875645 0.0859664 0.0847315 0.0838599 0.0835827 0.0841311 0.0855051 0.0877047 0.0907299 0.0945807 0.0992571 0.104759 0.110983 0.117824 0.125283 0.133359 0.142054 0.151365 0.161295 0.171842 0.182601 0.193169 0.203544 0.213727 0.223718 0.233516 0.243123 0.252537 0.261357 0.269183 0.276014 0.28185 0.286691 0.290538 0.293389 0.295246 0.296016 0.295607 0.29402 0.291255 0.287311 0.282188 0.275887 0.268407 0.260014 0.250971 0.24128 0.230939 0.21995 0.208311 0.196024 0.183088 0.169928 0.156971 0.144215 0.131663 0.119312 0.107164 0.0952181 0.0834745 0.0722714 0.0619469 0.0525012 0.043934 0.0362456 0.0294358 0.0235048 0.0184523 0.0141276 0.0103794 0.00720794 0.00461308 0.00259486 0.00115327 0.000288318 0 0 0.000117012 0.00046805 0.00105311 0.0018722 0.00292531 0.00421245 0.00573361 0.0074888 0.00959518 0.01217 0.0152131 0.0187246 0.0227045 0.0271528 0.0320695 0.0374545 0.0431448 0.0489772 0.0549516 0.0610681 0.0673266 0.0737273 0.0802699 0.0869547 0.0935213 0.0997095 0.105519 0.110951 0.116004 0.120678 0.124974 0.128892 0.132302 0.135074 0.137209 0.138706 0.139566 0.139788 0.139373 0.13832 0.136786 0.134926 0.13274 0.130229 0.127392 0.124229 0.120741 0.116927 0.113145 0.109752 0.106748 0.104134 0.10191 0.100075 0.0986286 0.0975722 0.0971601 0.0976476 0.0990346 0.101321 0.104507 0.108593 0.113578 0.119462 0.126135 0.133485 0.141511 0.150215 0.159595 0.169652 0.180386 0.191797 0.203443 0.214885 0.226122 0.237154 0.247981 0.258603 0.26902 0.279233 0.288802 0.297288 0.304693 0.311016 0.316258 0.320417 0.323494 0.325489 0.3263 0.325824 0.324061 0.321011 0.316675 0.311051 0.30414 0.295943 0.286745 0.276832 0.266205 0.254863 0.242807 0.230037 0.216552 0.202353 0.187903 0.173665 0.15964 0.145828 0.132228 0.11884 0.105665 0.0927029 0.0803278 0.0689147 0.0584636 0.0489747 0.0404477 0.0328828 0.02628 0.0206391 0.0158018 0.0116095 0.00806217 0.00515979 0.00290238 0.00128995 0.000322487 0 0 0.00013791 0.000551641 0.00124119 0.00220657 0.00344776 0.00496477 0.00675761 0.00882626 0.0112947 0.014287 0.017803 0.0218428 0.0264063 0.0314937 0.0371048 0.0432397 0.0497114 0.056333 0.0631043 0.0700256 0.0770966 0.0843176 0.0916883 0.0992089 0.106593 0.113554 0.120092 0.126207 0.131899 0.137169 0.142015 0.146438 0.150297 0.153449 0.155894 0.157632 0.158664 0.158989 0.158607 0.157519 0.155894 0.153902 0.151544 0.148819 0.145727 0.142269 0.138444 0.134253 0.130085 0.126331 0.122992 0.120066 0.117555 0.115457 0.113774 0.112505 0.111929 0.112327 0.113698 0.116043 0.119362 0.123654 0.12892 0.135159 0.142253 0.150085 0.158653 0.167959 0.178002 0.188783 0.2003 0.212555 0.22507 0.237368 0.24945 0.261316 0.272965 0.284398 0.295614 0.306614 0.316921 0.32606 0.334031 0.340833 0.346467 0.350932 0.354229 0.356358 0.357205 0.356656 0.354711 0.351371 0.346635 0.340504 0.332976 0.324053 0.314042 0.303249 0.291675 0.27932 0.266184 0.252266 0.237568 0.222088 0.206328 0.190789 0.175472 0.160377 0.145503 0.13085 0.116419 0.102209 0.0886332 0.0761039 0.0646213 0.0541852 0.0447956 0.0364526 0.0291562 0.0229063 0.0175377 0.0128848 0.00894779 0.00572658 0.0032212 0.00143165 0.000357911 0 0 0.000160813 0.000643254 0.00144732 0.00257302 0.00402034 0.00578928 0.00787986 0.0102921 0.0131563 0.016603 0.0206322 0.0252438 0.0304379 0.0362144 0.0425734 0.0495149 0.0568261 0.0642943 0.0719196 0.0797019 0.0876412 0.0957376 0.103991 0.112401 0.120655 0.128439 0.135753 0.142597 0.148971 0.154874 0.160308 0.165271 0.16961 0.173169 0.17595 0.177951 0.179173 0.179615 0.179278 0.178162 0.176451 0.17433 0.171798 0.168856 0.165503 0.16174 0.157566 0.152982 0.148411 0.144277 0.140581 0.137321 0.134499 0.132115 0.130167 0.128657 0.127889 0.128169 0.129497 0.131872 0.135295 0.139765 0.145283 0.151848 0.159337 0.167624 0.17671 0.186594 0.197277 0.208758 0.221038 0.234116 0.24748 0.260617 0.273528 0.286212 0.298669 0.310899 0.322903 0.33468 0.345716 0.355498 0.364026 0.3713 0.377319 0.382085 0.385596 0.387853 0.38873 0.388103 0.385971 0.382334 0.377192 0.370546 0.362395 0.352739 0.341906 0.330223 0.317691 0.30431 0.290079 0.274999 0.25907 0.242291 0.225202 0.208342 0.191712 0.17531 0.159137 0.143193 0.127478 0.111993 0.0971876 0.0835147 0.070974 0.0595655 0.0492893 0.0401453 0.0321335 0.0252539 0.019335 0.0142053 0.0098648 0.00631347 0.00355133 0.00157837 0.000394592 0 0 0.000185722 0.000742887 0.0016715 0.00297155 0.00464304 0.00668598 0.00910036 0.0118862 0.0151799 0.0191181 0.0237007 0.0289277 0.0347992 0.041315 0.0484753 0.05628 0.0644888 0.0728612 0.0813972 0.090097 0.0989604 0.107987 0.117178 0.126532 0.135709 0.144365 0.152502 0.160119 0.167217 0.173794 0.179852 0.18539 0.190241 0.194236 0.197376 0.199662 0.201091 0.201666 0.201386 0.20025 0.198458 0.196209 0.193503 0.190339 0.186719 0.182641 0.178105 0.173113 0.168121 0.163588 0.159515 0.1559 0.152744 0.150047 0.147809 0.14603 0.145041 0.145174 0.146429 0.148806 0.152305 0.156925 0.162667 0.169531 0.177386 0.186103 0.19568 0.206118 0.217417 0.229577 0.242598 0.25648 0.270675 0.284633 0.298356 0.311843 0.325094 0.338109 0.350888 0.363431 0.375186 0.385602 0.394679 0.402416 0.408814 0.413873 0.417593 0.419