<?xml version="1.0"?> 
<VTKFile type="StructuredGrid" version="0.1"> 
<StructuredGrid WholeExtent="0 64 0 64 0 0"> 
<Piece Extent="0 64 0 64 0 0"> 
<PointData>
<DataArray type="Float32" Name="u" format="ascii" NumberOfComponents="1"> 
0.499939 0.576695 0.653452 0.730209 0.806966 0.673854 0.540741 0.407629 0.274516 0.371977 0.469437 0.566897 0.664358 0.648167 0.631977 0.615787 0.599597 0.592767 0.585937 0.579106 0.572276 0.557533 0.54279 0.528047 0.513304 0.523983 0.534663 0.545342 0.556021 0.534219 0.512416 0.490613 0.46881 0.414783 0.360756 0.306728 0.252701 0.285764 0.318827 0.351891 0.384954 0.426712 0.468471 0.510229 0.551987 0.563107 0.574227 0.585348 0.596468 0.642293 0.688117 0.733942 0.779766 0.78722 0.794674 0.802128 0.809581 0.672435 0.535288 0.398141 0.260995 0.351486 0.441978 0.532469 0.62296 0.519837 0.572801 0.625766 0.67873 0.731694 0.627103 0.522512 0.417921 0.31333 0.391156 0.468982 0.546808 0.624634 0.620081 0.615528 0.610975 0.606422 0.61253 0.618638 0.624746 0.630854 0.585905 0.540956 0.496007 0.451058 0.486655 0.522253 0.55785 0.593447 0.569026 0.544605 0.520185 0.495764 0.467719 0.439675 0.41163 0.383586 0.376837 0.370089 0.36334 0.356592 0.395415 0.434239 0.473062 0.511886 0.510827 0.509767 0.508708 0.507649 0.559655 0.611662 0.663668 0.715674 0.731567 0.747459 0.763352 0.779245 0.657358 0.535472 0.413586 0.2917 0.357567 0.423434 0.489301 0.555168 0.539736 0.568907 0.598079 0.62725 0.656422 0.580352 0.504282 0.428212 0.352143 0.410335 0.468527 0.526719 0.584911 0.591995 0.599079 0.606163 0.613247 0.632293 0.65134 0.670386 0.689433 0.614278 0.539123 0.463968 0.388813 0.449328 0.509843 0.570357 0.630872 0.603834 0.576795 0.549756 0.522717 0.520656 0.518594 0.516532 0.514471 0.46791 0.42135 0.37479 0.32823 0.364119 0.400007 0.435896 0.471784 0.458546 0.445307 0.432069 0.41883 0.477018 0.535206 0.593394 0.651581 0.675913 0.700244 0.724576 0.748908 0.642282 0.535657 0.429031 0.322405 0.363648 0.40489 0.446133 0.487375 0.559635 0.565013 0.570392 0.575771 0.581149 0.533601 0.486052 0.438504 0.390956 0.429514 0.468072 0.50663 0.545188 0.563909 0.58263 0.601351 0.620072 0.652056 0.684041 0.716026 0.748011 0.64265 0.537289 0.431928 0.326567 0.412 0.497433 0.582865 0.668298 0.638641 0.608984 0.579328 0.549671 0.573592 0.597513 0.621434 0.645356 0.558984 0.472612 0.38624 0.299868 0.332822 0.365775 0.398729 0.431683 0.406265 0.380847 0.35543 0.330012 0.394381 0.45875 0.523119 0.587489 0.620259 0.65303 0.6858 0.718571 0.627206 0.535841 0.444476 0.353111 0.369729 0.386347 0.402965 0.419583 0.579534 0.561119 0.542705 0.524291 0.505877 0.48685 0.467823 0.448796 0.429769 0.448693 0.467617 0.486541 0.505465 0.535823 0.566181 0.596538 0.626896 0.67182 0.716743 0.761666 0.806589 0.671022 0.535455 0.399889 0.264322 0.374672 0.485022 0.595373 0.705723 0.673448 0.641174 0.608899 0.576624 0.626528 0.676432 0.726336 0.776241 0.650057 0.523873 0.397689 0.271506 0.301525 0.331544 0.361563 0.391582 0.353984 0.316387 0.27879 0.241193 0.311744 0.382295 0.452845 0.523396 0.564606 0.605815 0.647025 0.688234 0.61213 0.536025 0.45992 0.383816 0.37581 0.367803 0.359797 0.351791 0.537034 0.528275 0.519515 0.510756 0.501996 0.498721 0.495447 0.492172 0.488897 0.494243 0.499588 0.504933 0.510279 0.528086 0.545894 0.563702 0.58151 0.635559 0.689608 0.743657 0.797706 0.698359 0.599012 0.499666 0.400319 0.469964 0.53961 0.609255 0.678901 0.635385 0.591869 0.548353 0.504838 0.5612 0.617563 0.673925 0.730288 0.626488 0.522687 0.418887 0.315087 0.361263 0.40744 0.453617 0.499793 0.444182 0.388571 0.33296 0.277349 0.346567 0.415785 0.485002 0.55422 0.578506 0.602792 0.627078 0.651364 0.580868 0.510371 0.439875 0.369378 0.383159 0.39694 0.41072 0.424501 0.494535 0.49543 0.496325 0.49722 0.498115 0.510593 0.523071 0.535548 0.548026 0.539793 0.531559 0.523326 0.515093 0.52035 0.525608 0.530865 0.536123 0.599298 0.662473 0.725647 0.788822 0.725696 0.662569 0.599443 0.536316 0.565257 0.594197 0.623138 0.652079 0.597322 0.542565 0.487808 0.433051 0.495872 0.558693 0.621514 0.684335 0.602918 0.521502 0.440085 0.358668 0.421002 0.483337 0.545671 0.608005 0.53438 0.460755 0.38713 0.313506 0.38139 0.449275 0.517159 0.585044 0.592406 0.599769 0.607132 0.614495 0.549606 0.484718 0.419829 0.354941 0.390508 0.426076 0.461644 0.497212 0.452036 0.462586 0.473135 0.483685 0.494234 0.522464 0.550695 0.578925 0.607155 0.585343 0.563531 0.541719 0.519907 0.512614 0.505321 0.498029 0.490736 0.563037 0.635338 0.707638 0.779939 0.753032 0.726126 0.69922 0.672313 0.660549 0.648785 0.637021 0.625256 0.559258 0.49326 0.427262 0.361264 0.430544 0.499823 0.569103 0.638382 0.579349 0.520316 0.461283 0.402249 0.480741 0.559233 0.637725 0.716217 0.624578 0.532939 0.441301 0.349662 0.416213 0.482765 0.549316 0.615867 0.606307 0.596746 0.587186 0.577625 0.518345 0.459064 0.399783 0.340503 0.397858 0.455212 0.512567 0.569922 0.409537 0.429741 0.449945 0.470149 0.490353 0.534336 0.578318 0.622301 0.666283 0.630893 0.595502 0.560111 0.52472 0.504878 0.485035 0.465192 0.44535 0.526776 0.608203 0.689629 0.771055 0.780369 0.789683 0.798997 0.80831 0.755841 0.703372 0.650903 0.598434 0.521195 0.443956 0.366717 0.289478 0.365216 0.440954 0.516692 0.59243 0.55578 0.51913 0.48248 0.445831 0.54048 0.63513 0.729779 0.824428 0.714776 0.605123 0.495471 0.385818 0.451036 0.516255 0.581473 0.646691 0.620207 0.593723 0.56724 0.540756 0.487083 0.43341 0.379738 0.326065 0.405207 0.484349 0.563491 0.642632 0.366386 0.386927 0.407468 0.428009 0.44855 0.476085 0.503619 0.531153 0.558687 0.564829 0.570972 0.577114 0.583256 0.566609 0.549962 0.533315 0.516668 0.549652 0.582636 0.615621 0.648605 0.666964 0.685323 0.703682 0.722042 0.671396 0.620751 0.570106 0.519461 0.479117 0.438773 0.398429 0.358085 0.429571 0.501056 0.572541 0.644027 0.589569 0.535112 0.480655 0.426198 0.525733 0.625268 0.724803 0.824338 0.717191 0.610043 0.502896 0.395748 0.439157 0.482565 0.525974 0.569382 0.567349 0.565316 0.563283 0.561249 0.532841 0.504433 0.476025 0.447617 0.493763 0.53991 0.586056 0.632202 0.323235 0.344113 0.364992 0.38587 0.406748 0.417833 0.428919 0.440005 0.451091 0.498766 0.546441 0.594116 0.641791 0.62834 0.614889 0.601437 0.587986 0.572528 0.55707 0.541613 0.526155 0.553559 0.580964 0.608368 0.635773 0.586951 0.53813 0.489309 0.440487 0.437038 0.43359 0.430141 0.426693 0.493925 0.561158 0.628391 0.695624 0.623359 0.551094 0.478829 0.406564 0.510985 0.615406 0.719827 0.824248 0.719606 0.614963 0.510321 0.405678 0.427277 0.448876 0.470475 0.492074 0.514491 0.536908 0.559326 0.581743 0.5786 0.575456 0.572313 0.569169 0.58232 0.59547 0.608621 0.621772 0.280085 0.3013 0.322515 0.34373 0.364945 0.359582 0.35422 0.348858 0.343495 0.432703 0.521911 0.611119 0.700327 0.690071 0.679815 0.66956 0.659304 0.595404 0.531504 0.467605 0.403705 0.440155 0.476604 0.513054 0.549504 0.502506 0.455509 0.408511 0.361514 0.39496 0.428407 0.461853 0.4953 0.55828 0.62126 0.68424 0.747221 0.657148 0.567076 0.477004 0.386931 0.496238 0.605545 0.714852 0.824159 0.722021 0.619883 0.517746 0.415608 0.415397 0.415187 0.414976 0.414765 0.461633 0.508501 0.555369 0.602237 0.624358 0.646479 0.6686 0.690721 0.670876 0.651031 0.631186 0.611342 0.236934 0.258486 0.280038 0.30159 0.323142 0.301331 0.27952 0.25771 0.235899 0.36664 0.497381 0.628121 0.758862 0.751802 0.744742 0.737682 0.730622 0.61828 0.505938 0.393596 0.281255 0.32675 0.372245 0.41774 0.463235 0.418061 0.372888 0.327714 0.28254 0.352882 0.423224 0.493566 0.563907 0.622635 0.681362 0.74009 0.798818 0.690938 0.583058 0.475178 0.367298 0.481491 0.595683 0.709876 0.824069 0.724436 0.624803 0.525171 0.425538 0.403518 0.381497 0.359477 0.337457 0.408775 0.480094 0.551412 0.62273 0.670116 0.717502 0.764887 0.812273 0.759432 0.706592 0.653752 0.600911 0.238907 0.267315 0.295724 0.324132 0.35254 0.328069 0.303598 0.279126 0.254655 0.355253 0.455851 0.55645 0.657048 0.64478 0.632512 0.620245 0.607977 0.556786 0.505595 0.454404 0.403213 0.433112 0.463012 0.492912 0.522812 0.472574 0.422337 0.372099 0.321862 0.392484 0.463107 0.533729 0.604352 0.645353 0.686355 0.727357 0.768359 0.682313 0.596266 0.51022 0.424174 0.500952 0.577731 0.65451 0.731288 0.655211 0.579133 0.503055 0.426977 0.39993 0.372882 0.345834 0.318787 0.382141 0.445496 0.508851 0.572206 0.615705 0.659204 0.702703 0.746202 0.703506 0.66081 0.618114 0.575418 0.24088 0.276145 0.31141 0.346675 0.381939 0.354807 0.327675 0.300543 0.273411 0.343866 0.414322 0.484778 0.555234 0.537758 0.520283 0.502808 0.485332 0.495292 0.505251 0.515211 0.52517 0.539475 0.55378 0.568084 0.582389 0.527088 0.471786 0.416485 0.361184 0.432087 0.50299 0.573893 0.644796 0.668072 0.691348 0.714625 0.737901 0.673688 0.609475 0.545262 0.481049 0.520414 0.559779 0.599143 0.638508 0.585985 0.533463 0.48094 0.428417 0.396342 0.364267 0.332191 0.300116 0.355508 0.410899 0.46629 0.521681 0.561294 0.600907 0.640519 0.680132 0.64758 0.615029 0.582477 0.549925 0.242854 0.284975 0.327096 0.369217 0.411338 0.381545 0.351752 0.321959 0.292167 0.33248 0.372793 0.413106 0.453419 0.430736 0.408053 0.385371 0.362688 0.433798 0.504908 0.576018 0.647128 0.645838 0.644547 0.643256 0.641966 0.581601 0.521236 0.460871 0.400506 0.471689 0.542873 0.614056 0.68524 0.690791 0.696341 0.701892 0.707443 0.665063 0.622684 0.580304 0.537924 0.539875 0.541826 0.543777 0.545728 0.51676 0.487792 0.458824 0.429856 0.392754 0.355651 0.318549 0.281446 0.328874 0.376301 0.423729 0.471157 0.506883 0.542609 0.578336 0.614062 0.591654 0.569247 0.54684 0.524432 0.244827 0.293804 0.342782 0.391759 0.440737 0.408283 0.37583 0.343376 0.310922 0.321093 0.331264 0.341434 0.351605 0.323714 0.295824 0.267933 0.240043 0.372304 0.504565 0.636825 0.769086 0.7522 0.735314 0.718428 0.701543 0.636114 0.570685 0.505257 0.439828 0.511292 0.582756 0.65422 0.725684 0.713509 0.701334 0.68916 0.676985 0.656439 0.635892 0.615346 0.5948 0.559337 0.523874 0.488411 0.452948 0.447535 0.442122 0.436709 0.431296 0.389166 0.347036 0.304906 0.262776 0.30224 0.341704 0.381168 0.420632 0.452472 0.484312 0.516152 0.547991 0.535728 0.523466 0.511203 0.49894 0.334597 0.36664 0.398683 0.430725 0.462768 0.45002 0.437271 0.424523 0.411774 0.39152 0.371265 0.35101 0.330755 0.324094 0.317433 0.310772 0.30411 0.408216 0.512322 0.616428 0.720534 0.692198 0.663862 0.635526 0.60719 0.574627 0.542064 0.5095 0.476937 0.508764 0.54059 0.572417 0.604244 0.615498 0.626752 0.638007 0.649261 0.644228 0.639196 0.634163 0.62913 0.589198 0.549265 0.509333 0.4694 0.462981 0.456561 0.450142 0.443722 0.400829 0.357937 0.315044 0.272151 0.297086 0.32202 0.346955 0.371889 0.423979 0.476069 0.528158 0.580248 0.573103 0.565958 0.558813 0.551668 0.424368 0.439476 0.454584 0.469692 0.484799 0.491756 0.498713 0.50567 0.512626 0.461946 0.411266 0.360586 0.309906 0.324474 0.339042 0.35361 0.368178 0.444129 0.52008 0.59603 0.671981 0.632195 0.592409 0.552623 0.512837 0.513139 0.513442 0.513744 0.514046 0.506236 0.498425 0.490614 0.482804 0.517487 0.55217 0.586854 0.621537 0.632018 0.642499 0.65298 0.663461 0.619059 0.574657 0.530255 0.485853 0.478427 0.471001 0.463575 0.456149 0.412493 0.368838 0.325182 0.281527 0.291932 0.302337 0.312742 0.323147 0.395486 0.467826 0.540165 0.612505 0.610478 0.608451 0.606423 0.604396 0.514138 0.512311 0.510484 0.508658 0.506831 0.533492 0.560154 0.586816 0.613478 0.532373 0.451267 0.370161 0.289056 0.324853 0.360651 0.396448 0.432245 0.480041 0.527837 0.575633 0.623429 0.572193 0.520957 0.469721 0.418484 0.451652 0.48482 0.517988 0.551156 0.503708 0.45626 0.408812 0.361363 0.419476 0.477588 0.535701 0.593813 0.619808 0.645802 0.671797 0.697791 0.64892 0.600048 0.551177 0.502305 0.493873 0.48544 0.477008 0.468575 0.424157 0.379738 0.33532 0.290902 0.286777 0.282653 0.278528 0.274404 0.366993 0.459583 0.552172 0.644761 0.647852 0.650943 0.654034 0.657125 0.603909 0.585147 0.566385 0.547624 0.528862 0.575229 0.621596 0.667963 0.71433 0.602799 0.491268 0.379737 0.268206 0.325233 0.38226 0.439286 0.496313 0.515954 0.535595 0.555235 0.574876 0.51219 0.449504 0.386818 0.324132 0.390165 0.456198 0.522232 0.588265 0.50118 0.414094 0.327009 0.239923 0.321465 0.403006 0.484548 0.566089 0.607597 0.649105 0.690613 0.732121 0.67878 0.62544 0.572099 0.518758 0.509319 0.49988 0.490441 0.481001 0.43582 0.390639 0.345458 0.300277 0.281623 0.262969 0.244315 0.225661 0.3385 0.451339 0.564179 0.677018 0.685227 0.693436 0.701644 0.709853 0.549627 0.528899 0.508171 0.487443 0.466715 0.511528 0.556342 0.601156 0.64597 0.580004 0.514038 0.448072 0.382106 0.425372 0.468638 0.511904 0.55517 0.563031 0.570892 0.578753 0.586615 0.551077 0.51554 0.480002 0.444465 0.493327 0.54219 0.591053 0.639915 0.542281 0.444648 0.347014 0.24938 0.331381 0.413382 0.495383 0.577385 0.601997 0.62661 0.651223 0.675835 0.619705 0.563575 0.507445 0.451316 0.47659 0.501864 0.527138 0.552412 0.502932 0.453452 0.403972 0.354492 0.351188 0.347884 0.34458 0.341276 0.398163 0.455049 0.511936 0.568823 0.583118 0.597413 0.611708 0.626003 0.495344 0.47265 0.449956 0.427262 0.404567 0.447828 0.491088 0.534349 0.57761 0.557209 0.536807 0.516406 0.496005 0.525511 0.555016 0.584521 0.614026 0.610108 0.60619 0.602271 0.598353 0.589964 0.581576 0.573187 0.564798 0.59649 0.628182 0.659873 0.691565 0.583383 0.475201 0.367019 0.258837 0.341298 0.423758 0.506219 0.58868 0.596397 0.604114 0.611832 0.619549 0.56063 0.501711 0.442792 0.383873 0.443861 0.503848 0.563836 0.623823 0.570044 0.516265 0.462486 0.408707 0.420753 0.432799 0.444845 0.456891 0.457825 0.458759 0.459693 0.460627 0.481009 0.50139 0.521771 0.542153 0.441062 0.416402 0.391741 0.367081 0.34242 0.384128 0.425835 0.467542 0.509249 0.534413 0.559577 0.584741 0.609905 0.62565 0.641394 0.657139 0.672883 0.657185 0.641487 0.625789 0.610092 0.628851 0.647611 0.666371 0.685131 0.699652 0.714173 0.728694 0.743215 0.624485 0.505755 0.387024 0.268294 0.351214 0.434134 0.517055 0.599975 0.590797 0.581619 0.572441 0.563263 0.501555 0.439847 0.378139 0.316431 0.411132 0.505833 0.600533 0.695234 0.637156 0.579078 0.521 0.462922 0.490318 0.517713 0.545109 0.572505 0.517487 0.462469 0.40745 0.352432 0.3789 0.405367 0.431835 0.458302 0.38678 0.360153 0.333527 0.3069 0.280273 0.320427 0.360581 0.400735 0.440889 0.511618 0.582347 0.653076 0.723805 0.725788 0.727772 0.729756 0.73174 0.704262 0.676785 0.649307 0.62183 0.667739 0.713647 0.759556 0.805464 0.802814 0.800165 0.797515 0.794866 0.665587 0.536308 0.407029 0.27775 0.36113 0.44451 0.52789 0.61127 0.585197 0.559123 0.53305 0.506977 0.44248 0.377983 0.313486 0.248989 0.378403 0.507817 0.637231 0.766645 0.704268 0.641891 0.579514 0.517137 0.559882 0.602628 0.645374 0.68812 0.577149 0.466178 0.355207 0.244237 0.27679 0.309344 0.341898 0.374452 0.441926 0.402264 0.362601 0.322938 0.283275 0.332923 0.382571 0.432219 0.481867 0.525076 0.568284 0.611493 0.654701 0.671 0.687298 0.703596 0.719894 0.694899 0.669903 0.644908 0.619913 0.64378 0.667647 0.691514 0.715381 0.710223 0.705065 0.699907 0.694749 0.599351 0.503954 0.408556 0.313159 0.39822 0.483281 0.568342 0.653403 0.615842 0.57828 0.540719 0.503157 0.454248 0.405339 0.356431 0.307522 0.405038 0.502554 0.60007 0.697587 0.669914 0.642242 0.614569 0.586896 0.590705 0.594514 0.598323 0.602132 0.544675 0.487219 0.429762 0.372305 0.363313 0.354321 0.345329 0.336337 0.497073 0.444374 0.391675 0.338976 0.286277 0.345419 0.404561 0.463703 0.522845 0.538533 0.554221 0.56991 0.585598 0.616211 0.646823 0.677436 0.708048 0.685535 0.663022 0.640509 0.617996 0.619821 0.621646 0.623472 0.625297 0.617631 0.609965 0.602299 0.594633 0.533116 0.4716 0.410083 0.348567 0.435309 0.522052 0.608794 0.695537 0.646487 0.597437 0.548387 0.499337 0.466017 0.432696 0.399375 0.366054 0.431673 0.497291 0.56291 0.628528 0.63556 0.642592 0.649624 0.656656 0.621528 0.5864 0.551272 0.516144 0.512202 0.508259 0.504317 0.500374 0.449836 0.399298 0.34876 0.298222 0.552219 0.486484 0.420749 0.355014 0.289279 0.357915 0.426551 0.495187 0.563823 0.551991 0.540159 0.528327 0.516495 0.561422 0.606349 0.651275 0.696202 0.676171 0.656141 0.63611 0.616079 0.595863 0.575646 0.55543 0.535214 0.525039 0.514865 0.50469 0.494516 0.466881 0.439245 0.41161 0.383975 0.472399 0.560822 0.649246 0.73767 0.677132 0.616594 0.556056 0.495518 0.477785 0.460052 0.44232 0.424587 0.458308 0.492029 0.52575 0.55947 0.601207 0.642943 0.68468 0.726416 0.652351 0.578286 0.504221 0.430156 0.479728 0.5293 0.578871 0.628443 0.536359 0.444275 0.352191 0.260106 0.607365 0.528594 0.449823 0.371052 0.292281 0.370411 0.448541 0.526671 0.6048 0.565448 0.526096 0.486744 0.447392 0.506633 0.565874 0.625115 0.684356 0.666808 0.649259 0.63171 0.614162 0.571904 0.529646 0.487388 0.44513 0.432447 0.419765 0.407082 0.3944 0.400645 0.406891 0.413137 0.419383 0.509488 0.599593 0.689698 0.779803 0.707777 0.63575 0.563724 0.491698 0.489554 0.487409 0.485264 0.48312 0.484943 0.486766 0.488589 0.490412 0.566853 0.643294 0.719735 0.796176 0.683174 0.570172 0.45717 0.344168 0.447254 0.55034 0.653426 0.756512 0.622882 0.489252 0.355621 0.221991 0.559656 0.517396 0.475137 0.432877 0.390617 0.432661 0.474704 0.516748 0.558791 0.540041 0.521291 0.502541 0.483791 0.521763 0.559736 0.597709 0.635681 0.605285 0.57489 0.544494 0.514098 0.505324 0.496551 0.487778 0.479005 0.46959 0.460175 0.45076 0.441344 0.447891 0.454438 0.460984 0.467531 0.523173 0.578815 0.634457 0.690099 0.64194 0.593782 0.545623 0.497464 0.503968 0.510473 0.516978 0.523482 0.532092 0.540702 0.549313 0.557923 0.582833 0.607744 0.632655 0.657566 0.574536 0.491506 0.408476 0.325446 0.424087 0.522728 0.621369 0.72001 0.624738 0.529466 0.434194 0.338922 0.511946 0.506198 0.50045 0.494702 0.488954 0.494911 0.500868 0.506825 0.512782 0.514634 0.516486 0.518338 0.520189 0.536894 0.553598 0.570302 0.587006 0.543763 0.50052 0.457277 0.414034 0.438745 0.463457 0.488168 0.512879 0.506732 0.500584 0.494437 0.488289 0.495137 0.501984 0.508832 0.515679 0.536858 0.558038 0.579217 0.600396 0.576104 0.551813 0.527521 0.503229 0.518383 0.533537 0.548691 0.563845 0.579242 0.594639 0.610036 0.625433 0.598814 0.572194 0.545575 0.518956 0.465898 0.41284 0.359782 0.306724 0.40092 0.495116 0.589311 0.683507 0.626594 0.56968 0.512767 0.455853 0.464237 0.495 0.525763 0.556527 0.58729 0.557161 0.527032 0.496902 0.466773 0.489227 0.511681 0.534135 0.556588 0.552024 0.54746 0.542895 0.538331 0.482241 0.42615 0.37006 0.31397 0.372166 0.430362 0.488558 0.546754 0.543874 0.540994 0.538114 0.535234 0.542382 0.549531 0.556679 0.563827 0.550543 0.53726 0.523976 0.510693 0.510268 0.509844 0.509419 0.508995 0.532798 0.556601 0.580404 0.604207 0.626391 0.648575 0.670759 0.692944 0.614794 0.536645 0.458495 0.380346 0.35726 0.334174 0.311088 0.288002 0.377752 0.467503 0.557254 0.647005 0.62845 0.609895 0.59134 0.572785 0.416527 0.483802 0.551077 0.618351 0.685626 0.619411 0.553195 0.48698 0.420764 0.46382 0.506876 0.549932 0.592987 0.567155 0.541322 0.515489 0.489656 0.420718 0.351781 0.282843 0.213906 0.305586 0.397267 0.488948 0.580628 0.581016 0.581404 0.581791 0.582179 0.589628 0.597077 0.604526 0.611975 0.564229 0.516482 0.468736 0.420989 0.444432 0.467875 0.491317 0.51476 0.547212 0.579665 0.612117 0.644569 0.673541 0.702512 0.731483 0.760454 0.630774 0.501095 0.371415 0.241735 0.248621 0.255507 0.262393 0.269279 0.354585 0.439891 0.525197 0.610503 0.630306 0.650109 0.669913 0.689716 0.516201 0.533683 0.551165 0.568648 0.58613 0.545615 0.505101 0.464586 0.424072 0.46854 0.513008 0.557477 0.601945 0.570864 0.539784 0.508703 0.477623 0.444904 0.412185 0.379466 0.346747 0.393265 0.439783 0.486301 0.532818 0.52694 0.521062 0.515185 0.509307 0.535878 0.562449 0.589021 0.615592 0.561487 0.507382 0.453278 0.399173 0.442673 0.486173 0.529673 0.573173 0.592944 0.612715 0.632486 0.652257 0.661076 0.669894 0.678713 0.687531 0.573948 0.460364 0.346781 0.233197 0.244209 0.255221 0.266234 0.277246 0.345918 0.41459 0.483261 0.551933 0.590635 0.629337 0.668039 0.706741 0.615874 0.583564 0.551254 0.518944 0.486634 0.47182 0.457007 0.442193 0.427379 0.47326 0.519141 0.565021 0.610902 0.574574 0.538246 0.501918 0.46559 0.469089 0.472589 0.476089 0.479589 0.480944 0.482299 0.483653 0.485008 0.472865 0.460721 0.448578 0.436434 0.482128 0.527821 0.573515 0.619209 0.558746 0.498283 0.43782 0.377357 0.440914 0.504472 0.568029 0.631587 0.638676 0.645766 0.652855 0.659945 0.648611 0.637277 0.625942 0.614608 0.517121 0.419633 0.322146 0.224659 0.239797 0.254935 0.270074 0.285212 0.33725 0.389288 0.441326 0.493364 0.550964 0.608565 0.666165 0.723766 0.715547 0.633445 0.551343 0.46924 0.387138 0.398025 0.408912 0.4198 0.430687 0.47798 0.525273 0.572566 0.61986 0.578284 0.536708 0.495132 0.453557 0.493275 0.532994 0.572712 0.612431 0.568622 0.524814 0.481006 0.437198 0.418789 0.40038 0.381971 0.363562 0.428378 0.493194 0.55801 0.622826 0.556004 0.489183 0.422362 0.35554 0.439155 0.52277 0.606385 0.69 0.684408 0.678816 0.673224 0.667633 0.636146 0.604659 0.573172 0.541685 0.460294 0.378903 0.297511 0.21612 0.235385 0.25465 0.273914 0.293179 0.328583 0.363987 0.39939 0.434794 0.511293 0.587793 0.664292 0.740791 0.815221 0.683326 0.551431 0.419537 0.287642 0.32423 0.360818 0.397406 0.433994 0.4827 0.531406 0.580111 0.628817 0.581994 0.53517 0.488347 0.441523 0.517461 0.593398 0.669335 0.745272 0.656301 0.56733 0.478359 0.389388 0.364713 0.340039 0.315364 0.29069 0.374628 0.458566 0.542504 0.626442 0.553263 0.480083 0.406904 0.333724 0.437396 0.541069 0.644741 0.748413 0.73014 0.711867 0.693593 0.67532 0.623681 0.572041 0.520402 0.468762 0.403467 0.338172 0.272877 0.207582 0.230973 0.254364 0.277755 0.301146 0.319915 0.338685 0.357455 0.376225 0.471623 0.56702 0.662418 0.757816 0.755573 0.646176 0.536779 0.427382 0.317986 0.343877 0.369769 0.39566 0.421551 0.463989 0.506426 0.548864 0.591301 0.574407 0.557514 0.54062 0.523726 0.581511 0.639297 0.697083 0.754869 0.671801 0.588733 0.505665 0.422597 0.408851 0.395105 0.381358 0.367612 0.434134 0.500656 0.567178 0.633699 0.551752 0.469804 0.387857 0.305909 0.405109 0.504309 0.603509 0.702709 0.668438 0.634167 0.599896 0.565625 0.541533 0.51744 0.493347 0.469254 0.422031 0.374807 0.327584 0.280361 0.280622 0.280884 0.281145 0.281406 0.296981 0.312556 0.328131 0.343706 0.449258 0.55481 0.660361 0.765913 0.695925 0.609026 0.522127 0.435228 0.34833 0.363524 0.378719 0.393914 0.409109 0.445278 0.481447 0.517616 0.553786 0.566821 0.579857 0.592892 0.605928 0.645562 0.685197 0.724831 0.764465 0.687301 0.610136 0.532971 0.455807 0.452989 0.450171 0.447353 0.444535 0.49364 0.542746 0.591851 0.640957 0.550241 0.459525 0.36881 0.278094 0.372822 0.467549 0.562277 0.657005 0.606736 0.556468 0.506199 0.455931 0.459384 0.462838 0.466292 0.469745 0.440594 0.411443 0.382292 0.35314 0.330272 0.307403 0.284535 0.261666 0.274047 0.286427 0.298807 0.311187 0.426893 0.542599 0.658304 0.77401 0.636276 0.571876 0.507475 0.443074 0.378673 0.383171 0.38767 0.392168 0.396666 0.426567 0.456468 0.486369 0.51627 0.559235 0.6022 0.645165 0.68813 0.709613 0.731096 0.752579 0.774062 0.702801 0.631539 0.560278 0.489016 0.497127 0.505237 0.513347 0.521457 0.553146 0.584835 0.616525 0.648214 0.54873 0.449247 0.349763 0.250279 0.340535 0.43079 0.521045 0.6113 0.545034 0.478768 0.412502 0.346236 0.377236 0.408236 0.439237 0.470237 0.459158 0.448078 0.436999 0.42592 0.379922 0.333923 0.287925 0.241927 0.251112 0.260298 0.269483 0.278669 0.404528 0.530388 0.656248 0.782107 0.576628 0.534726 0.492823 0.45092 0.409017 0.402819 0.39662 0.390422 0.384223 0.407856 0.431489 0.455121 0.478754 0.551649 0.624543 0.697438 0.770332 0.773664 0.776996 0.780327 0.783659 0.718301 0.652942 0.587584 0.522226 0.541265 0.560303 0.579341 0.59838 0.612653 0.626925 0.641198 0.655471 0.547219 0.438968 0.330716 0.222465 0.308247 0.39403 0.479813 0.565596 0.483332 0.401068 0.318805 0.236541 0.295088 0.353635 0.412182 0.470729 0.477721 0.484714 0.491707 0.498699 0.429571 0.360443 0.291315 0.222187 0.228178 0.234169 0.240159 0.24615 0.382163 0.518177 0.654191 0.790204 0.566276 0.528729 0.491183 0.453637 0.41609 0.411225 0.40636 0.401494 0.396629 0.406108 0.415588 0.425068 0.434548 0.489142 0.543736 0.59833 0.652925 0.663256 0.673588 0.683919 0.694251 0.644654 0.595057 0.54546 0.495863 0.527581 0.559298 0.591016 0.622733 0.621867 0.621002 0.620136 0.61927 0.537227 0.455184 0.373142 0.291099 0.342455 0.393811 0.445167 0.496523 0.464214 0.431905 0.399597 0.367288 0.402956 0.438625 0.474294 0.509962 0.521446 0.532929 0.544413 0.555897 0.49714 0.438383 0.379626 0.320869 0.337944 0.355019 0.372095 0.38917 0.491621 0.594073 0.696524 0.798976 0.555923 0.522733 0.489543 0.456353 0.423164 0.419631 0.416099 0.412567 0.409034 0.404361 0.399688 0.395014 0.390341 0.426635 0.462929 0.499223 0.535517 0.552849 0.57018 0.587511 0.604843 0.571007 0.537171 0.503336 0.4695 0.513897 0.558293 0.60269 0.647087 0.631082 0.615078 0.599074 0.583069 0.527235 0.471401 0.415567 0.359733 0.376662 0.393591 0.41052 0.427449 0.445096 0.462742 0.480388 0.498035 0.510825 0.523615 0.536405 0.549196 0.56517 0.581145 0.59712 0.613094 0.564708 0.516322 0.467936 0.41955 0.44771 0.47587 0.50403 0.53219 0.601079 0.669969 0.738858 0.807748 0.54557 0.516737 0.487903 0.45907 0.430237 0.428038 0.425838 0.423639 0.42144 0.402614 0.383787 0.364961 0.346134 0.364128 0.382122 0.400116 0.41811 0.442441 0.466772 0.491103 0.515435 0.49736 0.479286 0.461212 0.443137 0.500213 0.557289 0.614364 0.67144 0.640297 0.609154 0.578012 0.546869 0.517243 0.487618 0.457992 0.428367 0.410869 0.393371 0.375874 0.358376 0.425978 0.493579 0.56118 0.628782 0.618694 0.608605 0.598517 0.588429 0.608895 0.62936 0.649826 0.670292 0.632277 0.594262 0.556247 0.518232 0.557477 0.596721 0.635965 0.67521 0.710537 0.745864 0.781192 0.816519 0.535217 0.510741 0.486264 0.461787 0.43731 0.436444 0.435578 0.434712 0.433846 0.400866 0.367887 0.334907 0.301928 0.301621 0.301315 0.301008 0.300702 0.332033 0.363364 0.394695 0.426027 0.423713 0.4214 0.419087 0.416774 0.486529 0.556284 0.626039 0.695794 0.649512 0.603231 0.556949 0.510668 0.507251 0.503834 0.500418 0.497001 0.445076 0.393152 0.341227 0.289303 0.406859 0.524416 0.641972 0.759529 0.726562 0.693596 0.660629 0.627662 0.652619 0.677576 0.702533 0.72749 0.699846 0.672202 0.644558 0.616914 0.667243 0.717572 0.767901 0.81823 0.819995 0.82176 0.823525 0.825291 0.491418 0.487898 0.484377 0.480856 0.477336 0.48065 0.483965 0.487279 0.490594 0.456924 0.423253 0.389583 0.355912 0.369365 0.382818 0.396271 0.409723 0.407577 0.405431 0.403285 0.401139 0.396806 0.392473 0.38814 0.383807 0.4314 0.478993 0.526586 0.574178 0.545311 0.516444 0.487577 0.45871 0.470985 0.483259 0.495534 0.507809 0.467949 0.42809 0.38823 0.34837 0.431656 0.514941 0.598226 0.681511 0.653885 0.626258 0.598632 0.571005 0.577766 0.584526 0.591286 0.598046 0.60893 0.619815 0.6307 0.641584 0.672353 0.703122 0.733891 0.76466 0.758943 0.753226 0.747509 0.741792 0.44762 0.465055 0.482491 0.499926 0.517361 0.524857 0.532352 0.539847 0.547342 0.512981 0.478619 0.444258 0.409897 0.437109 0.464321 0.491533 0.518745 0.483121 0.447498 0.411874 0.376251 0.369898 0.363545 0.357193 0.35084 0.376271 0.401701 0.427132 0.452563 0.44111 0.429657 0.418205 0.406752 0.434718 0.462684 0.49065 0.518616 0.490822 0.463027 0.435233 0.407438 0.456452 0.505466 0.55448 0.603494 0.581208 0.558921 0.536635 0.514349 0.502912 0.491475 0.480039 0.468602 0.518015 0.567429 0.616842 0.666255 0.677464 0.688673 0.699881 0.71109 0.697891 0.684691 0.671492 0.658292 0.403821 0.442212 0.480604 0.518996 0.557387 0.569063 0.580739 0.592414 0.60409 0.569038 0.533986 0.498934 0.463881 0.504853 0.545824 0.586795 0.627766 0.558665 0.489565 0.420464 0.351363 0.34299 0.334618 0.326245 0.317873 0.321141 0.32441 0.327679 0.330948 0.336909 0.342871 0.348832 0.354794 0.398451 0.442109 0.485767 0.529424 0.513694 0.497965 0.482235 0.466506 0.481248 0.495991 0.510734 0.525477 0.50853 0.491584 0.474638 0.457692 0.428058 0.398425 0.368792 0.339158 0.4271 0.515042 0.602984 0.690926 0.682574 0.674223 0.665871 0.65752 0.636838 0.616157 0.595475 0.574793 0.360022 0.41937 0.478717 0.538065 0.597413 0.613269 0.629126 0.644982 0.660838 0.625095 0.589352 0.553609 0.517866 0.572596 0.627327 0.682057 0.736788 0.63421 0.531631 0.429053 0.326475 0.316082 0.30569 0.295298 0.284905 0.266012 0.247119 0.228225 0.209332 0.232708 0.256084 0.27946 0.302836 0.362185 0.421534 0.480883 0.540232 0.536567 0.532903 0.529238 0.525573 0.506045 0.486516 0.466988 0.447459 0.435853 0.424247 0.412641 0.401035 0.353205 0.305375 0.257545 0.209714 0.336185 0.462655 0.589126 0.715596 0.687685 0.659773 0.631862 0.60395 0.575786 0.547622 0.519458 0.491294 0.359065 0.425606 0.492148 0.558689 0.625231 0.637853 0.650476 0.663098 0.675721 0.650032 0.624344 0.598655 0.572967 0.599023 0.625079 0.651136 0.677192 0.619859 0.562525 0.505192 0.447858 0.435021 0.422184 0.409347 0.39651 0.352657 0.308805 0.264952 0.2211 0.244823 0.268546 0.29227 0.315993 0.383074 0.450155 0.517237 0.584318 0.565547 0.546776 0.528005 0.509235 0.496943 0.484651 0.47236 0.460068 0.470248 0.480428 0.490608 0.500789 0.465432 0.430075 0.394718 0.359361 0.446477 0.533594 0.62071 0.707826 0.679315 0.650804 0.622293 0.593782 0.586523 0.579264 0.572005 0.564746 0.358108 0.431843 0.505578 0.579314 0.653049 0.662438 0.671826 0.681215 0.690604 0.67497 0.659336 0.643702 0.628068 0.62545 0.622832 0.620214 0.617596 0.605508 0.593419 0.581331 0.569242 0.55396 0.538678 0.523396 0.508114 0.439302 0.370491 0.301679 0.232868 0.256938 0.281009 0.305079 0.32915 0.403964 0.478777 0.553591 0.628404 0.594527 0.56065 0.526773 0.492896 0.487841 0.482786 0.477731 0.472676 0.504643 0.53661 0.568576 0.600543 0.577659 0.554775 0.531891 0.509008 0.55677 0.604532 0.652294 0.700056 0.670946 0.641835 0.612724 0.583614 0.59726 0.610905 0.624551 0.638197 0.357151 0.43808 0.519009 0.599938 0.680867 0.687022 0.693177 0.699332 0.705487 0.699907 0.694327 0.688748 0.683168 0.651876 0.620585 0.589293 0.558001 0.591157 0.624313 0.657469 0.690625 0.672899 0.655172 0.637445 0.619718 0.525947 0.432177 0.338406 0.244635 0.269053 0.293471 0.317889 0.342307 0.424853 0.507399 0.589945 0.6