<?xml version="1.0"?> 
<VTKFile type="StructuredGrid" version="0.1"> 
<StructuredGrid WholeExtent="0 128 0 128 0 0"> 
<Piece Extent="0 128 0 128 0 0"> 
<PointData>
<DataArray type="Float32" Name="u" format="ascii" NumberOfComponents="1"> 
0 0 0 0 0 0 0 0 0 0 0 0 0 0 0 0 0 0 0 0 0 0 0 0 0 0 0 0 0 0 0 0 0 0 0 0 0 0 0 0 0 0 0 0 0 0 0 0 0 0 0 0 0 0 0 0 0 0 0 0 0 0 0 0 0 0 0 0 0 0 0 0 0 0 0 0 0 0 0 0 0 0 0 0 0 0 0 0 0 0 0 0 0 0 0 0 0 0 0 0 0 0 0 0 0 0 0 0 0 0 0 0 0 0 0 0 0 0 0 0 0 0 0 0 0 0 0 0 0 0 1.93567e-07 7.74267e-07 1.7421e-06 3.09707e-06 4.83917e-06 6.9684e-06 9.48477e-06 1.23883e-05 1.58607e-05 2.00837e-05 2.50574e-05 3.07818e-05 3.72569e-05 4.44826e-05 5.24589e-05 6.11859e-05 7.04094e-05 7.98749e-05 8.95827e-05 9.95326e-05 0.000109725 0.000120159 0.000130835 0.000141754 0.000152664 0.000163316 0.00017371 0.000183846 0.000193723 0.000203342 0.000212703 0.000221806 0.000230571 0.000238919 0.00024685 0.000254364 0.000261461 0.00026814 0.000274403 0.000280249 0.000285753 0.000290991 0.000295961 0.000300665 0.000305102 0.000309272 0.000313175 0.000316811 0.000320316 0.000323823 0.000327334 0.000330847 0.000334364 0.000337884 0.000341407 0.000344933 0.000348533 0.000352279 0.000356171 0.000360209 0.000364393 0.000368723 0.000373198 0.000377819 0.000382515 0.000387213 0.000391914 0.000396618 0.000401325 0.000406035 0.000410747 0.000415462 0.000419984 0.000424118 0.000427862 0.000431218 0.000434185 0.000436764 0.000438954 0.000440755 0.00044196 0.000442364 0.000441965 0.000440765 0.000438763 0.000435958 0.000432352 0.000427943 0.000422661 0.000416434 0.000409261 0.000401142 0.000392078 0.000382068 0.000371113 0.000359212 0.00034653 0.000333231 0.000319314 0.00030478 0.000289629 0.000273861 0.000257475 0.000240472 0.000223274 0.000206304 0.000189561 0.000173046 0.000156759 0.000140699 0.000124867 0.000109262 9.43695e-05 8.06746e-05 6.81769e-05 5.68767e-05 4.67737e-05 3.78681e-05 3.01599e-05 2.3649e-05 1.81062e-05 1.33025e-05 9.23788e-06 5.91224e-06 3.32564e-06 1.47806e-06 3.69515e-07 0 0 7.74267e-07 3.09707e-06 6.9684e-06 1.23883e-05 1.93567e-05 2.78736e-05 3.79391e-05 4.95531e-05 6.34427e-05 8.03349e-05 0.00010023 0.000123127 0.000149027 0.00017793 0.000209836 0.000244744 0.000281637 0.0003195 0.000358331 0.00039813 0.000438898 0.000480635 0.00052334 0.000567014 0.000610656 0.000653265 0.00069484 0.000735383 0.000774892 0.000813369 0.000850812 0.000887223 0.000922283 0.000955675 0.000987398 0.00101745 0.00104584 0.00107256 0.00109761 0.001121 0.00114301 0.00116396 0.00118384 0.00120266 0.00122041 0.00123709 0.0012527 0.00126724 0.00128126 0.00129529 0.00130934 0.00132339 0.00133746 0.00135154 0.00136563 0.00137973 0.00139413 0.00140912 0.00142469 0.00144084 0.00145757 0.00147489 0.00149279 0.00151128 0.00153006 0.00154885 0.00156766 0.00158647 0.0016053 0.00162414 0.00164299 0.00166185 0.00167994 0.00169647 0.00171145 0.00172487 0.00173674 0.00174706 0.00175581 0.00176302 0.00176784 0.00176946 0.00176786 0.00176306 0.00175505 0.00174383 0.00172941 0.00171177 0.00169065 0.00166573 0.00163704 0.00160457 0.00156831 0.00152827 0.00148445 0.00143685 0.00138612 0.00133292 0.00127726 0.00121912 0.00115852 0.00109544 0.0010299 0.000961888 0.000893097 0.000825216 0.000758245 0.000692185 0.000627035 0.000562796 0.000499466 0.000437047 0.000377478 0.000322698 0.000272708 0.000227507 0.000187095 0.000151473 0.00012064 9.45959e-05 7.2425e-05 5.32102e-05 3.69515e-05 2.3649e-05 1.33025e-05 5.91224e-06 1.47806e-06 0 0 1.7421e-06 6.9684e-06 1.56789e-05 2.78736e-05 4.35525e-05 6.27156e-05 8.53629e-05 0.000111494 0.000142746 0.000180754 0.000225517 0.000277036 0.000335312 0.000400343 0.00047213 0.000550674 0.000633684 0.000718875 0.000806244 0.000895793 0.000987521 0.00108143 0.00117752 0.00127578 0.00137398 0.00146985 0.00156339 0.00165461 0.00174351 0.00183008 0.00191433 0.00199625 0.00207514 0.00215027 0.00222165 0.00228927 0.00235314 0.00241326 0.00246963 0.00252224 0.00257178 0.00261892 0.00266365 0.00270598 0.00274591 0.00278344 0.00281857 0.0028513 0.00288284 0.00291441 0.002946 0.00297763 0.00300928 0.00304096 0.00307266 0.00310439 0.0031368 0.00317051 0.00320554 0.00324188 0.00327954 0.0033185 0.00335878 0.00340037 0.00344263 0.00348492 0.00352723 0.00356957 0.00361193 0.00365431 0.00369672 0.00373916 0.00377986 0.00381706 0.00385076 0.00388096 0.00390767 0.00393088 0.00395058 0.00396679 0.00397764 0.00398127 0.00397769 0.00396688 0.00394886 0.00392362 0.00389117 0.00385149 0.00380395 0.0037479 0.00368334 0.00361028 0.0035287 0.00343861 0.00334002 0.00323291 0.00311877 0.00299908 0.00287383 0.00274302 0.00260666 0.00246474 0.00231727 0.00216425 0.00200947 0.00185674 0.00170605 0.00155742 0.00141083 0.00126629 0.0011238 0.000983356 0.000849326 0.000726071 0.000613592 0.00051189 0.000420964 0.000340813 0.000271439 0.000212841 0.000162956 0.000119723 8.31409e-05 5.32102e-05 2.99307e-05 1.33025e-05 3.32564e-06 0 0 3.09707e-06 1.23883e-05 2.78736e-05 4.95531e-05 7.74267e-05 0.000111494 0.000151756 0.000198212 0.000253771 0.00032134 0.000400919 0.000492509 0.00059611 0.000711721 0.000839343 0.000978975 0.00112655 0.001278 0.00143332 0.00159252 0.00175559 0.00192254 0.00209336 0.00226806 0.00244262 0.00261306 0.00277936 0.00294153 0.00309957 0.00325348 0.00340325 0.00354889 0.00368913 0.0038227 0.00394959 0.00406982 0.00418337 0.00429025 0.00439046 0.00448399 0.00457206 0.00465585 0.00473538 0.00481064 0.00488162 0.00494834 0.0050108 0.00506898 0.00512505 0.00518117 0.00523734 0.00529356 0.00534983 0.00540614 0.00546251 0.00551892 0.00557653 0.00563647 0.00569874 0.00576335 0.00583029 0.00589956 0.00597117 0.00604511 0.00612024 0.00619541 0.00627063 0.00634589 0.0064212 0.00649655 0.00657195 0.00664739 0.00671975 0.00678588 0.0068458 0.00689949 0.00694697 0.00698822 0.00702326 0.00705207 0.00707136 0.00707782 0.00707145 0.00705224 0.0070202 0.00697533 0.00691763 0.0068471 0.00676258 0.00666294 0.00654817 0.00641827 0.00627324 0.00611309 0.0059378 0.00574739 0.00554448 0.00533169 0.00510902 0.00487648 0.00463406 0.00438177 0.0041196 0.00384755 0.00357239 0.00330086 0.00303298 0.00276874 0.00250814 0.00225118 0.00199786 0.00174819 0.00150991 0.00129079 0.00109083 0.000910027 0.00074838 0.00060589 0.000482558 0.000378384 0.0002897 0.000212841 0.000147806 9.45959e-05 5.32102e-05 2.3649e-05 5.91224e-06 0 0 4.83917e-06 1.93567e-05 4.35525e-05 7.74267e-05 0.000120979 0.00017421 0.000237119 0.000309707 0.000396517 0.000502093 0.000626436 0.000769546 0.000931422 0.00111206 0.00131147 0.00152965 0.00176023 0.00199687 0.00223957 0.00248831 0.00274311 0.00300397 0.00327088 0.00354384 0.0038166 0.0040829 0.00434275 0.00459614 0.00484308 0.00508356 0.00531758 0.00554514 0.00576427 0.00597297 0.00617124 0.00635909 0.00653651 0.00670351 0.00686009 0.00700624 0.00714384 0.00727477 0.00739903 0.00751662 0.00762754 0.00773179 0.00782937 0.00792028 0.00800789 0.00809558 0.00818335 0.00827119 0.00835911 0.0084471 0.00853517 0.00862332 0.00871333 0.00880698 0.00890428 0.00900523 0.00910982 0.00921806 0.00932995 0.00944548 0.00956287 0.00968033 0.00979786 0.00991546 0.0100331 0.0101509 0.0102687 0.0103866 0.0104996 0.0106029 0.0106966 0.0107805 0.0108546 0.0109191 0.0109738 0.0110189 0.011049 0.0110591 0.0110491 0.0110191 0.0109691 0.010899 0.0108088 0.0106986 0.0105665 0.0104108 0.0102315 0.0100285 0.00980194 0.0095517 0.00927782 0.0089803 0.00866325 0.00833076 0.00798285 0.0076195 0.00724072 0.00684651 0.00643687 0.0060118 0.00558185 0.0051576 0.00473903 0.00432616 0.00391897 0.00351747 0.00312166 0.00273155 0.00235924 0.00201686 0.00170442 0.00142192 0.00116934 0.000946704 0.000753997 0.000591224 0.000452656 0.000332564 0.000230947 0.000147806 8.31409e-05 3.69515e-05 9.23788e-06 0 0 6.9684e-06 2.78736e-05 6.27156e-05 0.000111494 0.00017421 0.000250863 0.000341452 0.000445978 0.000570984 0.000723014 0.000902068 0.00110815 0.00134125 0.00160137 0.00188852 0.00220269 0.00253474 0.0028755 0.00322498 0.00358317 0.00395008 0.00432572 0.00471006 0.00510313 0.0054959 0.00587938 0.00625356 0.00661845 0.00697403 0.00732032 0.00765731 0.007985 0.00830054 0.00860107 0.00888659 0.00915709 0.00941258 0.00965306 0.00987852 0.010089 0.0102871 0.0104757 0.0106546 0.0108239 0.0109837 0.0111338 0.0112743 0.0114052 0.0115314 0.0116576 0.011784 0.0119105 0.0120371 0.0121638 0.0122906 0.0124176 0.0125472 0.0126821 0.0128222 0.0129675 0.0131181 0.013274 0.0134351 0.0136015 0.0137705 0.0139397 0.0141089 0.0142783 0.0144477 0.0146172 0.0147869 0.0149566 0.0151194 0.0152682 0.015403 0.0155239 0.0156307 0.0157235 0.0158023 0.0158672 0.0159106 0.0159251 0.0159108 0.0158675 0.0157955 0.0156945 0.0155647 0.015406 0.0152158 0.0149916 0.0147334 0.0144411 0.0141148 0.0137544 0.0133601 0.0129316 0.0124751 0.0119963 0.0114953 0.0109721 0.0104266 0.00985898 0.00926909 0.00865699 0.00803787 0.00742694 0.00682421 0.00622967 0.00564332 0.00506516 0.0044952 0.00393342 0.0033973 0.00290428 0.00245437 0.00204756 0.00168385 0.00136325 0.00108576 0.000851363 0.000651825 0.000478892 0.000332564 0.000212841 0.000119723 5.32102e-05 1.33025e-05 0 0 9.48477e-06 3.79391e-05 8.53629e-05 0.000151756 0.000237119 0.000341452 0.000464754 0.000607025 0.000777173 0.000984103 0.00122782 0.00150831 0.00182559 0.00217965 0.00257049 0.00299811 0.00345006 0.00391387 0.00438955 0.0048771 0.0053765 0.00588778 0.00641092 0.00694592 0.00748054 0.00800249 0.00851179 0.00900844 0.00949243 0.00996377 0.0104225 0.0108685 0.011298 0.011707 0.0120956 0.0124638 0.0128116 0.0131389 0.0134458 0.0137322 0.0140019 0.0142585 0.0145021 0.0147326 0.01495 0.0151543 0.0153456 0.0155237 0.0156955 0.0158673 0.0160394 0.0162115 0.0163838 0.0165563 0.0167289 0.0169017 0.0170781 0.0172617 0.0174524 0.0176503 0.0178553 0.0180674 0.0182867 0.0185131 0.0187432 0.0189734 0.0192038 0.0194343 0.0196649 0.0198957 0.0201266 0.0203576 0.0205792 0.0207818 0.0209653 0.0211297 0.0212751 0.0214014 0.0215087 0.021597 0.021656 0.0216758 0.0216563 0.0215975 0.0214994 0.021362 0.0211852 0.0209692 0.0207104 0.0204053 0.0200538 0.019656 0.0192118 0.0187213 0.0181845 0.0176014 0.01698 0.0163283 0.0156464 0.0149342 0.0141918 0.0134192 0.0126163 0.0117831 0.0109404 0.0101089 0.0092885 0.00847927 0.00768118 0.00689425 0.00611846 0.00535383 0.00462411 0.00395305 0.00334067 0.00278696 0.00229191 0.00185554 0.00147783 0.0011588 0.000887206 0.000651825 0.000452656 0.0002897 0.000162956 7.2425e-05 1.81062e-05 0 0 1.23883e-05 4.95531e-05 0.000111494 0.000198212 0.000309707 0.000445978 0.000607025 0.000792849 0.00101508 0.00128536 0.00160368 0.00197004 0.00238444 0.00284688 0.00335737 0.0039159 0.0045062 0.005112 0.00573329 0.00637008 0.00702237 0.00769016 0.00837345 0.00907223 0.0097705 0.0104522 0.0111174 0.0117661 0.0123983 0.0130139 0.013613 0.0141956 0.0147565 0.0152908 0.0157984 0.0162793 0.0167335 0.017161 0.0175618 0.017936 0.0182882 0.0186234 0.0189415 0.0192425 0.0195265 0.0197934 0.0200432 0.0202759 0.0205002 0.0207247 0.0209494 0.0211742 0.0213993 0.0216246 0.02185 0.0220757 0.0223061 0.0225459 0.022795 0.0230534 0.0233211 0.0235982 0.0238847 0.0241804 0.024481 0.0247816 0.0250825 0.0253836 0.0256848 0.0259862 0.0262878 0.0265896 0.026879 0.0271435 0.0273832 0.027598 0.0277879 0.0279529 0.028093 0.0282083 0.0282854 0.0283113 0.0282858 0.028209 0.0280808 0.0279013 0.0276705 0.0273884 0.0270503 0.0266518 0.0261927 0.0256731 0.025093 0.0244524 0.0237512 0.0229896 0.0221779 0.0213268 0.0204361 0.0195059 0.0185363 0.0175271 0.0164784 0.0153902 0.0142895 0.0132035 0.0121319 0.011075 0.0100326 0.00900473 0.00799146 0.00699276 0.00603965 0.00516317 0.00436332 0.00364011 0.00299352 0.00242356 0.00193023 0.00151353 0.0011588 0.000851363 0.000591224 0.000378384 0.000212841 9.45959e-05 2.3649e-05 0 0 1.59056e-05 6.36224e-05 0.00014315 0.00025449 0.00039764 0.000572602 0.000779374 0.00101796 0.00130291 0.00164879 0.0020556 0.00252334 0.003052 0.0036416 0.00429212 0.00500356 0.00575527 0.00652656 0.00731743 0.00812788 0.00895792 0.00980754 0.0106767 0.0115655 0.0124536 0.0133208 0.014167 0.0149923 0.0157966 0.01658 0.0173425 0.018084 0.0187981 0.0194783 0.0201246 0.0207371 0.0213157 0.0218604 0.0223713 0.0228483 0.0232974 0.0237248 0.0241304 0.0245143 0.0248763 0.0252166 0.0255351 0.0258319 0.0261177 0.0264037 0.0266896 0.0269757 0.0272618 0.0275479 0.0278341 0.0281204 0.0284124 0.0287161 0.0290315 0.0293584 0.029697 0.0300472 0.030409 0.0307824 0.0311617 0.0315411 0.0319205 0.0323 0.0326795 0.0330591 0.0334388 0.0338186 0.0341826 0.0345149 0.0348157 0.035085 0.0353226 0.0355286 0.035703 0.0358458 0.0359404 0.0359699 0.0359344 0.035834 0.0356685 0.035438 0.0351426 0.0347821 0.0343508 0.033843 0.0332587 0.0325978 0.0318603 0.0310462 0.0301557 0.0291885 0.0281581 0.0270778 0.0259475 0.0247673 0.0235372 0.0222571 0.0209271 0.0195471 0.0181514 0.016774 0.0154149 0.0140742 0.0127519 0.0114479 0.0101623 0.00889498 0.00768532 0.00657258 0.00555675 0.00463783 0.00381582 0.00309072 0.00246254 0.00193127 0.00147863 0.00108634 0.000754401 0.000482817 0.000271585 0.000120704 3.01761e-05 0 0 2.02634e-05 8.10537e-05 0.000182371 0.000324215 0.000506586 0.000729484 0.000992908 0.00129686 0.00165886 0.00209642 0.00260954 0.00319823 0.00386248 0.00460229 0.00541767 0.00630861 0.00724937 0.00821424 0.00920319 0.0102162 0.0112534 0.0123146 0.0133999 0.0145094 0.0156179 0.0167004 0.0177571 0.0187878 0.0197926 0.0207715 0.0217244 0.0226514 0.0235445 0.0243954 0.0252042 0.025971 0.0266957 0.0273783 0.0280188 0.0286172 0.0291809 0.0297173 0.0302264 0.0307081 0.0311625 0.0315896 0.0319893 0.0323617 0.0327202 0.0330783 0.0334358 0.0337929 0.0341495 0.0345056 0.0348613 0.0352165 0.0355783 0.035954 0.0363435 0.0367468 0.0371639 0.0375949 0.0380397 0.0384982 0.0389636 0.0394285 0.0398931 0.0403574 0.0408213 0.0412848 0.041748 0.0422108 0.0426537 0.0430574 0.0434218 0.0437469 0.0440327 0.0442792 0.0444864 0.0446543 0.0447624 0.0447901 0.0447375 0.0446045 0.0443912 0.0440975 0.0437234 0.043269 0.0427272 0.042091 0.0413603 0.0405352 0.0396157 0.0386017 0.0374934 0.0362905 0.0350097 0.0336675 0.0322637 0.0307985 0.0292718 0.0276836 0.0260339 0.0243227 0.0225921 0.0208838 0.019198 0.0175346 0.0158936 0.0142751 0.0126789 0.0111053 0.00960252 0.00821922 0.00695536 0.00581094 0.00478597 0.00388044 0.00309435 0.0024277 0.00185871 0.00136558 0.00094832 0.000606925 0.000341395 0.000151731 3.79328e-05 0 0 2.54618e-05 0.000101847 0.000229156 0.000407389 0.000636545 0.000916624 0.00124763 0.00162955 0.00208292 0.00262823 0.00326549 0.0039947 0.00481586 0.00572896 0.00673402 0.00783103 0.00898852 0.010175 0.0113906 0.0126351 0.0139087 0.0152114 0.016543 0.0179037 0.0192631 0.0205911 0.0218876 0.0231526 0.0243862 0.0255882 0.0267588 0.027898 0.0289957 0.0300421 0.0310372 0.0319809 0.0328734 0.0337145 0.0345043 0.0352428 0.0359388 0.036601 0.0372294 0.0378241 0.0383851 0.0389123 0.0394058 0.0398655 0.0403077 0.0407485 0.0411879 0.0416259 0.0420625 0.0424977 0.0429316 0.0433641 0.0438038 0.0442595 0.044731 0.0452186 0.045722 0.0462414 0.0467766 0.0473278 0.0478865 0.048444 0.0490004 0.0495558 0.05011 0.0506632 0.0512152 0.0517662 0.0522926 0.052771 0.0532014 0.0535839 0.0539183 0.0542048 0.0544433 0.0546338 0.0547516 0.054772 0.054695 0.0545206 0.0542488 0.0538797 0.0534131 0.0528492 0.0521795 0.0513956 0.0504976 0.0494855 0.0483593 0.0471188 0.0457643 0.0442956 0.0427328 0.0410958 0.0393847 0.0375995 0.0357401 0.0338066 0.0317989 0.0297171 0.0276116 0.0255329 0.023481 0.021456 0.0194577 0.0174862 0.0155415 0.0136236 0.0117912 0.0101031 0.00855915 0.00715944 0.00590396 0.00479269 0.00382565 0.00300283 0.00229904 0.00168909 0.00117298 0.000750708 0.000422273 0.000187677 4.69193e-05 0 0 3.15006e-05 0.000126003 0.000283506 0.00050401 0.000787516 0.00113402 0.00154353 0.00201604 0.00257509 0.00324423 0.00402345 0.00491276 0.00591215 0.00702162 0.00824118 0.00957082 0.0109727 0.012409 0.0138796 0.0153846 0.016924 0.0184978 0.020106 0.0217485 0.0233895 0.0249928 0.0265586 0.0280868 0.0295773 0.0310303 0.0324457 0.0338235 0.0351517 0.0364184 0.0376234 0.0387669 0.0398488 0.0408691 0.0418279 0.042725 0.0435709 0.0443757 0.0451395 0.0458623 0.0465441 0.0471848 0.0477846 0.0483433 0.0488801 0.0494143 0.0499458 0.0504746 0.0510008 0.0515242 0.052045 0.0525631 0.0530888 0.0536325 0.0541941 0.0547737 0.0553712 0.0559866 0.0566199 0.0572712 0.0579304 0.0585875 0.0592424 0.0598952 0.0605458 0.0611942 0.0618406 0.0624847 0.063099 0.0636556 0.0641545 0.0645958 0.0649794 0.0653053 0.0655736 0.0657841 0.0659078 0.0659154 0.0658069 0.0655822 0.0652415 0.0647846 0.0642117 0.0635226 0.0627076 0.0617569 0.0606706 0.0594486 0.0580909 0.0565976 0.0549685 0.0532038 0.0513273 0.0493629 0.0473105 0.0451703 0.0429421 0.0406261 0.0382221 0.0357302 0.03321 0.0307214 0.0282642 0.0258384 0.0234441 0.0210813 0.0187499 0.01645 0.0142515 0.0122242 0.0103681 0.00868334 0.00716979 0.0058275 0.00465646 0.00365666 0.00279963 0.00205687 0.00142838 0.000914166 0.000514218 0.000228542 5.71354e-05 0 0 3.838e-05 0.00015352 0.00034542 0.00061408 0.000959501 0.00138168 0.00188062 0.00245632 0.00313539 0.00394442 0.00488343 0.0059524 0.00715135 0.00848026 0.00993914 0.011528 0.0132019 0.014916 0.0166702 0.0184646 0.0202992 0.0221739 0.0240888 0.0260439 0.0279969 0.0299056 0.03177 0.0335902 0.0353661 0.0370977 0.038785 0.0404281 0.0420126 0.0435243 0.044963 0.0463289 0.047622 0.0488421 0.0499894 0.0510639 0.0520773 0.0530416 0.0539567 0.0548227 0.0556395 0.0564071 0.0571256 0.057795 0.0584375 0.0590758 0.0597096 0.0603391 0.0609643 0.0615851 0.0622015 0.0628136 0.0634335 0.0640732 0.0647327 0.0654122 0.0661114 0.0668306 0.0675696 0.0683284 0.0690955 0.069859 0.070619 0.0713756 0.0721286 0.0728781 0.0736241 0.0743665 0.0750731 0.0757113 0.0762812 0.0767827 0.0772159 0.0775808 0.0778773 0.0781055 0.0782312 0.0782205 0.0780732 0.0777894 0.0773691 0.0768123 0.076119 0.0752892 0.0743116 0.0731749 0.0718792 0.0704245 0.0688107 0.0670379 0.065106 0.0630151 0.0607932 0.0584686 0.0560411 0.0535109 0.0508779 0.048142 0.0453034 0.042362 0.0393873 0.0364491 0.0335473 0.0306819 0.027853 0.0250604 0.0223042 0.0195845 0.0169832 0.0145825 0.0123823 0.0103826 0.00858347 0.00698485 0.00558676 0.0043892 0.00336048 0.00246892 0.00171453 0.0010973 0.000617231 0.000274325 6.85812e-05 0 0 4.60999e-05 0.0001844 0.000414899 0.000737599 0.0011525 0.0016596 0.0022589 0.00295039 0.0037638 0.0047288 0.00584541 0.00711363 0.00853345 0.0101049 0.0118279 0.0137025 0.0156762 0.0176962 0.0197625 0.0218752 0.0240343 0.0262397 0.0284916 0.0307897 0.0330853 0.0353294 0.0375219 0.0396629 0.0417524 0.0437904 0.0457769 0.0477118 0.0495783 0.0513597 0.053056 0.054667 0.0561929 0.0576335 0.058989 0.0602594 0.061458 0.0625986 0.0636809 0.0647052 0.0656712 0.0665792 0.0674289 0.0682206 0.0689799 0.0697328 0.0704793 0.0712194 0.0719531 0.0726804 0.0734012 0.0741156 0.0748377 0.0755814 0.0763469 0.077134 0.0779428 0.0787733 0.0796255 0.0804994 0.0813816 0.0822586 0.0831304 0.083997 0.0848584 0.0857146 0.0865657 0.0874115 0.0882148 0.0889381 0.0895814 0.0901446 0.0906279 0.0910312 0.0913545 0.0915977 0.0917217 0.0916871 0.0914939 0.0911421 0.0906317 0.0899628 0.0891352 0.088149 0.0869914 0.0856496 0.0841235 0.0824132 0.0805186 0.0784398 0.0761767 0.0737294 0.0711306 0.068413 0.0655765 0.0626213 0.0595473 0.0563545 0.0530429 0.0496125 0.0461435 0.0427162 0.0393305 0.0359865 0.0326842 0.0294235 0.0262044 0.0230271 0.0199865 0.0171781 0.0146017 0.0122573 0.010145 0.00826475 0.00661656 0.00520043 0.00398158 0.00292524 0.00203142 0.00130011 0.00073131 0.000325027 8.12567e-05 0 0 5.46603e-05 0.000218641 0.000491943 0.000874565 0.00136651 0.00196777 0.00267836 0.00349826 0.00446032 0.00559737 0.00690941 0.00839645 0.0100585 0.0118955 0.0139075 0.0160945 0.0183955 0.0207494 0.0231564 0.0256164 0.0281293 0.0306952 0.0333142 0.0359861 0.0386548 0.0412642 0.0438143 0.046305 0.0487364 0.0511084 0.0534211 0.0556745 0.0578489 0.0599248 0.0619022 0.0637811 0.0655615 0.0672433 0.0688267 0.0703115 0.0717131 0.0730467 0.0743122 0.0755098 0.0766394 0.0777009 0.0786945 0.0796201 0.0805072 0.0813855 0.0822549 0.0831155 0.0839672 0.08481 0.085644 0.0864691 0.0873014 0.0881573 0.0890365 0.0899392 0.0908653 0.0918148 0.0927878 0.0937842 0.0947888 0.0957862 0.0967763 0.0977594 0.0987352 0.0997039 0.100665 0.10162 0.102524 0.103336 0.104055 0.104682 0.105215 0.105657 0.106005 0.106261 0.106379 0.106315 0.106069 0.10564 0.105029 0.104236 0.10326 0.102102 0.100747 0.099181 0.0974035 0.0954147 0.0932147 0.0908033 0.0881807 0.0853469 0.0823394 0.079196 0.0759167 0.0725015 0.0689504 0.0652634 0.0614405 0.0574817 0.0534785 0.0495225 0.0456138 0.0417522 0.0379377 0.0341705 0.0304505 0.0267777 0.0232613 0.0200109 0.0170262 0.0143074 0.0118544 0.0096672 0.00774586 0.00609036 0.00466293 0.00342583 0.00237905 0.00152259 0.000856456 0.000380647 9.51618e-05 0 0 6.40612e-05 0.000256245 0.000576551 0.00102498 0.00160153 0.0023062 0.003139 0.00409992 0.00522496 0.00655013 0.00807542 0.00980085 0.0117264 0.0138521 0.0161779 0.0187038 0.0213598 0.0240758 0.0268519 0.0296881 0.0325842 0.0355404 0.0385567 0.041633 0.0447054 0.0477101 0.0506471 0.0535164 0.0563179 0.0590517 0.0617178 0.0643162 0.0668243 0.0692195 0.0715018 0.0736713 0.0757278 0.0776715 0.0795023 0.0812203 0.0828424 0.0843859 0.0858506 0.0872366 0.0885439 0.0897725 0.0909224 0.0919936 0.0930195 0.0940338 0.0950364 0.0960273 0.0970065 0.097974 0.0989298 0.099874 0.100825 0.101801 0.102802 0.103828 0.104879 0.105955 0.107056 0.108183 0.109317 0.110442 0.111557 0.112663 0.113759 0.114846 0.115923 0.116991 0.118001 0.118905 0.119702 0.120393 0.120978 0.121457 0.121829 0.122095 0.122204 0.122105 0.121799 0.121284 0.120562 0.119632 0.118494 0.117148 0.115579 0.113769 0.111719 0.109429 0.106899 0.104128 0.101118 0.0978674 0.0944196 0.0908177 0.0870617 0.0831516 0.0790873 0.0748689 0.0704963 0.0659697 0.0613924 0.0568682 0.052397 0.0479789 0.0436137 0.0393016 0.0350424 0.0308363 0.0268077 0.0230809 0.0196559 0.0165328 0.0137116 0.0111922 0.00897466 0.00705899 0.00540454 0.00397068 0.00275742 0.00176475 0.00099267 0.000441187 0.000110297 0 0 7.41495e-05 0.000296598 0.000667346 0.00118639 0.00185374 0.00266938 0.00363333 0.00474557 0.00604528 0.00757164 0.00932465 0.0113043 0.0135106 0.0159435 0.0186031 0.0214894 0.0245226 0.0276232 0.0307911 0.0340264 0.0373291 0.040699 0.0441364 0.0476411 0.0511412 0.0545647 0.0579116 0.061182 0.0643758 0.067493 0.0705336 0.0734977 0.0763595 0.0790931 0.0816987 0.0841762 0.0865256 0.0887469 0.0908402 0.0928053 0.0946613 0.0964271 0.0981026 0.0996879 0.101183 0.102588 0.103902 0.105127 0.106298 0.107455 0.108597 0.109723 0.110835 0.111931 0.113012 0.114079 0.115151 0.116249 0.117374 0.118525 0.119703 0.120907 0.122138 0.123395 0.124659 0.125911 0.127152 0.12838 0.129595 0.130799 0.131991 0.133171 0.134284 0.135277 0.136149 0.136901 0.137533 0.138044 0.138434 0.138704 0.138797 0.138656 0.13828 0.13767 0.136827 0.135749 0.134437 0.132891 0.131093 0.129025 0.126687 0.124079 0.121202 0.118054 0.114637 0.11095 0.107041 0.102959 0.0987049 0.0942776 0.0896774 0.0849044 0.0799585 0.0748398 0.0696641 0.0645474 0.0594897 0.0544911 0.0495514 0.0446708 0.0398492 0.0350866 0.0305231 0.0262988 0.0224138 0.018868 0.0156614 0.0127941 0.010266 0.00807708 0.00618401 0.00454336 0.00315511 0.00201927 0.00113584 0.000504817 0.000126204 0 0 8.4772e-05 0.000339088 0.000762948 0.00135635 0.0021193 0.00305179 0.00415383 0.00542541 0.00690885 0.00864648 0.0106383 0.0128843 0.0153845 0.0181388 0.0211474 0.0244101 0.0278373 0.0313393 0.0349161 0.0385676 0.0422938 0.0460949 0.0499707 0.0539212 0.0578663 0.0617255 0.065499 0.0691867 0.0727886 0.0763047 0.0797351 0.0830796 0.0863093 0.089395 0.0923368 0.0951346 0.0977884 0.100298 0.102664 0.104886 0.106985 0.108981 0.110875 0.112666 0.114355 0.115941 0.117424 0.118805 0.120125 0.121427 0.122709 0.123971 0.125215 0.12644 0.127645 0.128832 0.130023 0.13124 0.132486 0.133758 0.135058 0.136385 0.137739 0.139121 0.140509 0.141881 0.143239 0.144582 0.14591 0.147223 0.148521 0.149804 0.151012 0.152085 0.153023 0.153827 0.154495 0.155029 0.155428 0.155692 0.155759 0.155565 0.155111 0.154396 0.153421 0.152185 0.150689 0.148932 0.146896 0.14456 0.141924 0.138989 0.135754 0.132219 0.128385 0.124252 0.119873 0.115302 0.11054 0.105586 0.100441 0.0951037 0.0895754 0.0838555 0.0780724 0.0723543 0.0667013 0.0611133 0.0555904 0.0501325 0.0447397 0.0394119 0.0343051 0.0295755 0.0252228 0.0212472 0.0176487 0.0144272 0.0115828 0.0091154 0.00697898 0.00512741 0.0035607 0.00227885 0.00128185 0.000569713 0.000142428 0 0 9.59287e-05 0.000383715 0.000863359 0.00153486 0.00239822 0.00345343 0.00470051 0.00613944 0.00781567 0.00977464 0.0120164 0.0145408 0.017348 0.020438 0.0238106 0.0274661 0.031304 0.0352242 0.0392267 0.0433115 0.0474785 0.0517279 0.0560595 0.0604734 0.0648807 0.0691927 0.0734093 0.0775305 0.0815564 0.0854869 0.0893221 0.0930619 0.0966738 0.100125 0.103416 0.106546 0.109516 0.112326 0.114975 0.117463 0.119813 0.122048 0.124167 0.126171 0.128059 0.129831 0.131488 0.133029 0.134501 0.135948 0.137372 0.138772 0.140148 0.1415 0.142829 0.144133 0.14544 0.146774 0.148136 0.149525 0.150943 0.152387 0.15386 0.15536 0.156865 0.158352 0.15982 0.161271 0.162703 0.164117 0.165512 0.16689 0.168184 0.169328 0.170323 0.171169 0.171866 0.172413 0.172811 0.173059 0.17309 0.172834 0.172291 0.171461 0.170344 0.16894 0.16725 0.165273 0.162988 0.160374 0.15743 0.154157 0.150555 0.146624 0.142364 0.137774 0.132915 0.127845 0.122566 0.117076 0.111377 0.105467 0.0993469 0.0930169 0.0866174 0.080289 0.0740317 0.0678456 0.0617306 0.0556867 0.0497139 0.0438123 0.0381538 0.0329107 0.028083 0.0236705 0.0196734 0.0160916 0.0129251 0.010174 0.00778944 0.00572285 0.0039742 0.00254349 0.00143071 0.000635872 0.000158968 0 0 0.00010762 0.000430479 0.000968577 0.00172191 0.00269049 0.00387431 0.00527336 0.00688766 0.00876573 0.0109561 0.0134588 0.0162739 0.0194012 0.0228409 0.0265929 0.0306572 0.0349226 0.0392779 0.0437231 0.0482582 0.0528832 0.0575981 0.0624028 0.0672975 0.0721845 0.0769661 0.0816425 0.0862135 0.0906792 0.0950397 0.0992948 0.103445 0.107453 0.111284 0.114937 0.118412 0.121709 0.124829 0.127771 0.130536 0.133147 0.135628 0.13798 0.140203 0.142296 0.14426 0.146094 0.147799 0.149424 0.15102 0.152587 0.154125 0.155633 0.157113 0.158563 0.159983 0.161403 0.162851 0.164325 0.165828 0.167358 0.168915 0.1705 0.172113 0.173728 0.175322 0.176894 0.178445 0.179974 0.181481 0.182966 0.18443 0.1858 0.187007 0.18805 0.188929 0.189644 0.190195 0.190582 0.190805 0.19079 0.190461 0.18982 0.188865 0.187597 0.186015 0.184121 0.181913 0.179369 0.176467 0.173205 0.169585 0.165606 0.161269 0.156572 0.151517 0.146168 0.14059 0.134784 0.128749 0.122486 0.115994 0.109273 0.102324 0.095299 0.0883514 0.081481 0.0746879 0.067972 0.0613333 0.0547719 0.0482877 0.0420692 0.0363047 0.0309942 0.0261379 0.0217355 0.0177872 0.0142929 0.0112527 0.00861538 0.00632967 0.0043956 0.00281318 0.00158242 0.000703296 0.000175824 0 0 0.000119845 0.000479379 0.0010786 0.00191752 0.00299612 0.00431441 0.0058724 0.00767007 0.00975905 0.0121909 0.0149657 0.0180835 0.0215441 0.0253476 0.0294941 0.0339835 0.0386931 0.0435004 0.0484053 0.0534077 0.0585078 0.0637055 0.0690008 0.0743937 0.0797776 0.0850458 0.0901985 0.0952356 0.100157 0.104963 0.109653 0.114228 0.118647 0.12287 0.126898 0.130731 0.134367 0.137809 0.141054 0.144105 0.146985 0.149721 0.152313 0.154761 0.157066 0.159226 0.161242 0.163114 0.164896 0.166643 0.168354 0.17003 0.171671 0.173277 0.174847 0.176382 0.177912 0.17947 0.181054 0.182665 0.184303 0.185968 0.18766 0.189379 0.191099 0.192793 0.194462 0.196105 0.197722 0.199315 0.200881 0.202422 0.203861 0.205122 0.206203 0.207106 0.20783 0.208376 0.208742 0.20893 0.208859 0.208448 0.207698 0.206608 0.205178 0.203409 0.2013 0.198852 0.19604 0.192839 0.18925 0.185272 0.180907 0.176153 0.17101 0.165479 0.159631 0.153536 0.147193 0.140604 0.133768 0.126684 0.119354 0.111776 0.104117 0.0965415 0.0890491 0.0816401 0.0743146 0.0670724 0.0599136 0.0528382 0.0460512 0.0397573 0.0339567 0.0286492 0.023835 0.0195141 0.0156863 0.0123518 0.00945681 0.00694786 0.0048249 0.00308794 0.00173697 0.000771985 0.000192996 0 0 0.000132604 0.000530417 0.00119344 0.00212167 0.00331511 0.00477375 0.00649761 0.00848667 0.0107956 0.0134791 0.0165371 0.0199696 0.0237766 0.0279582 0.0325143 0.037445 0.0426156 0.0478916 0.0532731 0.05876 0.0643523 0.0700501 0.0758532 0.0817618 0.08766 0.0934319 0.0990775 0.104597 0.10999 0.115257 0.120397 0.125411 0.130255 0.134885 0.139301 0.143503 0.147491 0.151264 0.154824 0.158169 0.161328 0.164327 0.167167 0.169847 0.172368 0.174729 0.176931 0.178974 0.180916 0.182815 0.184673 0.186488 0.188261 0.189992 0.191681 0.193328 0.194967 0.196631 0.198321 0.200037 0.201779 0.203547 0.20534 0.207159 0.208976 0.210764 0.212522 0.214251 0.215949 0.217619 0.219258 0.220869 0.222367 0.223672 0.224783 0.225701 0.226425 0.226955 0.227291 0.227434 0.227298 0.226795 0.225926 0.224691 0.22309 0.221122 0.218789 0.21609 0.212999 0.20949 0.205563 0.201219 0.196456 0.191276 0.185678 0.179662 0.173305 0.166682 0.159794 0.152641 0.145223 0.137539 0.129589 0.121375 0.113072 0.104859 0.0967361 0.0887024 0.0807584 0.0729039 0.0651391 0.0574638 0.0500998 0.0432686 0.0369702 0.0312047 0.025972 0.0212722 0.0171052 0.013471 0.0103137 0.00757743 0.00526211 0.00336775 0.00189436 0.000841937 0.000210484 0 0 0.000145898 0.000583591 0.00131308 0.00233437 0.00364745 0.00525232 0.00714899 0.00933746 0.0118754 0.0148205 0.0181728 0.0219322 0.0260988 0.0306726 0.0356535 0.0410416 0.04669 0.0524517 0.0583267 0.0643151 0.0704168 0.0766318 0.0829602 0.089402 0.0958317 0.102124 0.108279 0.114297 0.120178 0.125921 0.131527 0.136995 0.142279 0.147329 0.152145 0.156729 0.161079 0.165196 0.169079 0.17273 0.176175 0.179446 0.18254 0.185459 0.188203 0.190771 0.193163 0.19538 0.197484 0.199538 0.201543 0.203498 0.205404 0.20726 0.209066 0.210823 0.212567 0.214335 0.216128 0.217944 0.219785 0.22165 0.223539 0.225453 0.227361 0.229235 0.231076 0.232882 0.234655 0.236393 0.238098 0.239768 0.241317 0.242658 0.243789 0.244712 0.245427 0.245932 0.246229 0.2463