<?xml version="1.0"?> 
<VTKFile type="StructuredGrid" version="0.1"> 
<StructuredGrid WholeExtent="0 128 0 128 0 0"> 
<Piece Extent="0 128 0 128 0 0"> 
<PointData>
<DataArray type="Float32" Name="u" format="ascii" NumberOfComponents="1"> 
0 0 0 0 0 0 0 0 0 0 0 0 0 0 0 0 0 0 0 0 0 0 0 0 0 0 0 0 0 0 0 0 0 0 0 0 0 0 0 0 0 0 0 0 0 0 0 0 0 0 0 0 0 0 0 0 0 0 0 0 0 0 0 0 0 0 0 0 0 0 0 0 0 0 0 0 0 0 0 0 0 0 0 0 0 0 0 0 0 0 0 0 0 0 0 0 0 0 0 0 0 0 0 0 0 0 0 0 0 0 0 0 0 0 0 0 0 0 0 0 0 0 0 0 0 0 0 0 0 0 2.72952e-07 1.09181e-06 2.45657e-06 4.36723e-06 6.82379e-06 9.82626e-06 1.33746e-05 1.74689e-05 2.23674e-05 2.83284e-05 3.5352e-05 4.34381e-05 5.25868e-05 6.2798e-05 7.40717e-05 8.6408e-05 9.9336e-05 0.000112385 0.000125555 0.000138846 0.000152257 0.00016579 0.000179443 0.000193218 0.000206635 0.000219217 0.000230963 0.000241874 0.00025195 0.000261189 0.000269594 0.000277163 0.000283805 0.000289427 0.00029403 0.000297613 0.000300177 0.000301721 0.000302246 0.000301752 0.000300574 0.000299047 0.000297172 0.000294948 0.000292376 0.000289456 0.000286187 0.00028257 0.00027913 0.000276391 0.000274354 0.000273019 0.000272386 0.000272454 0.000273225 0.000274697 0.00027718 0.000280986 0.000286114 0.000292564 0.000300336 0.00030943 0.000319845 0.000331583 0.000344445 0.000358232 0.000372946 0.000388585 0.00040515 0.000422641 0.000441058 0.000460401 0.000480019 0.000499262 0.000518129 0.000536621 0.000554738 0.000572479 0.000589844 0.000606835 0.000622742 0.000636859 0.000649187 0.000659724 0.000668471 0.000675428 0.000680595 0.000683972 0.000685262 0.000684168 0.00068069 0.000674829 0.000666584 0.000655955 0.000642943 0.000627547 0.000610114 0.000590992 0.000570181 0.000547681 0.000523491 0.000497612 0.000470044 0.000440787 0.000410766 0.000380905 0.000351206 0.000321668 0.000292291 0.000263075 0.00023402 0.000205127 0.000177412 0.000151895 0.000128575 0.000107453 8.8528e-05 7.18003e-05 5.727e-05 4.49371e-05 3.44049e-05 2.52771e-05 1.75535e-05 1.12343e-05 6.31928e-06 2.80857e-06 7.02142e-07 0 0 1.09181e-06 4.36723e-06 9.82626e-06 1.74689e-05 2.72952e-05 3.9305e-05 5.34985e-05 6.98756e-05 8.94696e-05 0.000113314 0.000141408 0.000173753 0.000210347 0.000251192 0.000296287 0.000345632 0.000397344 0.00044954 0.000502219 0.000555382 0.000609029 0.000663159 0.000717774 0.000772872 0.000826541 0.000876868 0.000923853 0.000967496 0.0010078 0.00104476 0.00107838 0.00110865 0.00113522 0.00115771 0.00117612 0.00119045 0.00120071 0.00120689 0.00120899 0.00120701 0.00120229 0.00119619 0.00118869 0.00117979 0.00116951 0.00115782 0.00114475 0.00113028 0.00111652 0.00110556 0.00109742 0.00109208 0.00108954 0.00108982 0.0010929 0.00109879 0.00110872 0.00112395 0.00114446 0.00117026 0.00120134 0.00123772 0.00127938 0.00132633 0.00137778 0.00143293 0.00149178 0.00155434 0.0016206 0.00169057 0.00176423 0.0018416 0.00192008 0.00199705 0.00207252 0.00214649 0.00221895 0.00228992 0.00235938 0.00242734 0.00249097 0.00254744 0.00259675 0.0026389 0.00267388 0.00270171 0.00272238 0.00273589 0.00274105 0.00273667 0.00272276 0.00269932 0.00266634 0.00262382 0.00257177 0.00251019 0.00244046 0.00236397 0.00228072 0.00219072 0.00209396 0.00199045 0.00188018 0.00176315 0.00164306 0.00152362 0.00140482 0.00128667 0.00116916 0.0010523 0.000936082 0.000820507 0.000709649 0.000607581 0.000514302 0.000429812 0.000354112 0.000287201 0.00022908 0.000179748 0.00013762 0.000101108 7.02142e-05 4.49371e-05 2.52771e-05 1.12343e-05 2.80857e-06 0 0 2.45657e-06 9.82626e-06 2.21091e-05 3.9305e-05 6.14141e-05 8.84364e-05 0.000120372 0.00015722 0.000201307 0.000254956 0.000318168 0.000390943 0.000473281 0.000565182 0.000666645 0.000777672 0.000894024 0.00101146 0.00112999 0.00124961 0.00137032 0.00149211 0.00161499 0.00173896 0.00185972 0.00197295 0.00207867 0.00217687 0.00226755 0.00235071 0.00242635 0.00249447 0.00255424 0.00260484 0.00264627 0.00267852 0.00270159 0.00271549 0.00272022 0.00271577 0.00270516 0.00269142 0.00267455 0.00265453 0.00263139 0.0026051 0.00257569 0.00254313 0.00251217 0.00248752 0.00246919 0.00245717 0.00245147 0.00245209 0.00245902 0.00247227 0.00249462 0.00252888 0.00257503 0.00263308 0.00270302 0.00278487 0.00287861 0.00298425 0.0031 0.00322409 0.00335651 0.00349727 0.00364635 0.00380377 0.00396953 0.00414361 0.00432017 0.00449336 0.00466316 0.00482959 0.00499264 0.00515231 0.0053086 0.00546151 0.00560468 0.00573173 0.00584268 0.00593752 0.00601624 0.00607885 0.00612535 0.00615575 0.00616735 0.00615751 0.00612621 0.00607346 0.00599926 0.0059036 0.00578649 0.00564792 0.00549103 0.00531893 0.00513163 0.00492913 0.00471142 0.00447851 0.0042304 0.00396708 0.00369689 0.00342815 0.00316086 0.00289501 0.00263062 0.00236768 0.00210618 0.00184614 0.00159671 0.00136706 0.00115718 0.000967077 0.000796752 0.000646203 0.00051543 0.000404434 0.000309645 0.000227494 0.000157982 0.000101108 5.68735e-05 2.52771e-05 6.31928e-06 0 0 4.36723e-06 1.74689e-05 3.9305e-05 6.98756e-05 0.000109181 0.00015722 0.000213994 0.000279503 0.000357878 0.000453255 0.000565632 0.00069501 0.000841388 0.00100477 0.00118515 0.00138253 0.00158938 0.00179816 0.00200888 0.00222153 0.00243612 0.00265264 0.00287109 0.00309149 0.00330616 0.00350747 0.00369541 0.00386999 0.00403119 0.00417903 0.0043135 0.00443461 0.00454088 0.00463083 0.00470447 0.00476181 0.00480283 0.00482754 0.00483594 0.00482803 0.00480918 0.00478475 0.00475475 0.00471917 0.00467802 0.0046313 0.004579 0.00452112 0.00446608 0.00442226 0.00438967 0.00436831 0.00435817 0.00435927 0.00437159 0.00439515 0.00443489 0.00449578 0.00457783 0.00468102 0.00480537 0.00495087 0.00511752 0.00530533 0.00551111 0.00573172 0.00596713 0.00621736 0.0064824 0.00676226 0.00705693 0.00736642 0.00768031 0.00798819 0.00829007 0.00858594 0.0088758 0.00915966 0.00943751 0.00970935 0.00996387 0.0101898 0.010387 0.0105556 0.0106955 0.0108068 0.0108895 0.0109435 0.0109642 0.0109467 0.010891 0.0107973 0.0106653 0.0104953 0.0102871 0.0100407 0.00976183 0.00945588 0.0091229 0.00876289 0.00837586 0.0079618 0.00752071 0.00705259 0.00657225 0.00609449 0.0056193 0.00514669 0.00467666 0.0042092 0.00374433 0.00328203 0.0028386 0.00243032 0.00205721 0.00171925 0.00141645 0.00114881 0.00091632 0.000718993 0.000550479 0.000404434 0.000280857 0.000179748 0.000101108 4.49371e-05 1.12343e-05 0 0 6.82379e-06 2.72952e-05 6.14141e-05 0.000109181 0.000170595 0.000245657 0.000334366 0.000436723 0.000559185 0.000708211 0.0008838 0.00108595 0.00131467 0.00156995 0.00185179 0.0021602 0.0024834 0.00280962 0.00313887 0.00347114 0.00380643 0.00414475 0.00448609 0.00483045 0.00516588 0.00548042 0.00577408 0.00604685 0.00629874 0.00652974 0.00673985 0.00692908 0.00709512 0.00723567 0.00735074 0.00744033 0.00750442 0.00754303 0.00755616 0.0075438 0.00751434 0.00747617 0.0074293 0.00737371 0.00730941 0.0072364 0.00715468 0.00706426 0.00697825 0.00690978 0.00685886 0.00682548 0.00680965 0.00681136 0.00683061 0.00686741 0.00692951 0.00702466 0.00715285 0.0073141 0.00750839 0.00773574 0.00799613 0.00828958 0.00861112 0.00895581 0.00932364 0.00971463 0.0101288 0.010566 0.0110265 0.01151 0.0120005 0.0124816 0.0129532 0.0134155 0.0138684 0.014312 0.0147461 0.0151709 0.0155686 0.0159215 0.0162297 0.0164931 0.0167118 0.0168857 0.0170149 0.0170993 0.0171315 0.0171042 0.0170173 0.0168707 0.0166646 0.0163989 0.0160736 0.0156887 0.0152529 0.0147748 0.0142545 0.013692 0.0130873 0.0124403 0.0117511 0.0110197 0.0102691 0.00952263 0.00878015 0.0080417 0.00730728 0.00657688 0.00585051 0.00512817 0.00443531 0.00379738 0.00321439 0.00268633 0.0022132 0.00179501 0.00143175 0.00112343 0.000860124 0.000631928 0.000438839 0.000280857 0.000157982 7.02142e-05 1.75535e-05 0 0 9.82626e-06 3.9305e-05 8.84364e-05 0.00015722 0.000245657 0.000353745 0.000481487 0.000628881 0.000805227 0.00101982 0.00127267 0.00156377 0.00189312 0.00226073 0.00266658 0.00311069 0.00357609 0.00404586 0.00451997 0.00499844 0.00548126 0.00596843 0.00645996 0.00695584 0.00743886 0.00789181 0.00831468 0.00870747 0.00907018 0.00940282 0.00970538 0.00997787 0.010217 0.0104194 0.0105851 0.0107141 0.0108064 0.010862 0.0108809 0.0108631 0.0108207 0.0107657 0.0106982 0.0106181 0.0105255 0.0104204 0.0103027 0.0101725 0.0100487 0.00995008 0.00987676 0.00982869 0.00980589 0.00980836 0.00983609 0.00988908 0.0099785 0.0101155 0.0103001 0.0105323 0.0108121 0.0111395 0.0115144 0.011937 0.0124 0.0128964 0.013426 0.0139891 0.0145854 0.0152151 0.0158781 0.0165744 0.0172807 0.0179734 0.0186527 0.0193184 0.0199706 0.0206092 0.0212344 0.021846 0.0224187 0.0229269 0.0233707 0.0237501 0.024065 0.0243154 0.0245014 0.024623 0.0246694 0.02463 0.0245049 0.0242938 0.023997 0.0236144 0.0231459 0.0225917 0.0219641 0.0212757 0.0205265 0.0197165 0.0188457 0.017914 0.0169216 0.0158683 0.0147876 0.0137126 0.0126434 0.0115801 0.0105225 0.00947071 0.00842474 0.00738456 0.00638684 0.00546823 0.00462871 0.00386831 0.00318701 0.00258481 0.00206172 0.00161773 0.00123858 0.000909976 0.000631928 0.000404434 0.000227494 0.000101108 2.52771e-05 0 0 1.33746e-05 5.34985e-05 0.000120372 0.000213994 0.000334366 0.000481487 0.000655357 0.000855977 0.001096 0.00138809 0.00173225 0.00212847 0.00257675 0.0030771 0.00362951 0.00423399 0.00486746 0.00550686 0.00615218 0.00680343 0.0074606 0.0081237 0.00879273 0.00946768 0.0101251 0.0107416 0.0113172 0.0118518 0.0123455 0.0127983 0.0132101 0.013581 0.0139064 0.0141819 0.0144075 0.014583 0.0147087 0.0147843 0.0148101 0.0147858 0.0147281 0.0146533 0.0145614 0.0144525 0.0143264 0.0141833 0.0140232 0.0138459 0.0136774 0.0135432 0.0134434 0.0133779 0.0133469 0.0133503 0.013388 0.0134601 0.0135818 0.0137683 0.0140196 0.0143356 0.0147165 0.015162 0.0156724 0.0162476 0.0168778 0.0175534 0.0182743 0.0190407 0.0198524 0.0207094 0.0216119 0.0225597 0.0235209 0.0244638 0.0253883 0.0262944 0.0271821 0.0280515 0.0289024 0.0297349 0.0305144 0.0312061 0.0318101 0.0323265 0.0327551 0.033096 0.0333492 0.0335146 0.0335778 0.0335242 0.0333538 0.0330666 0.0326626 0.0321418 0.0315042 0.0307498 0.0298956 0.0289586 0.0279389 0.0268364 0.0256511 0.024383 0.0230322 0.0215986 0.0201275 0.0186644 0.0172091 0.0157617 0.0143223 0.0128907 0.011467 0.0100512 0.0086932 0.00744286 0.0063002 0.0052652 0.00433787 0.00351822 0.00280623 0.00220192 0.00168584 0.00123858 0.000860124 0.000550479 0.000309645 0.00013762 3.44049e-05 0 0 1.74689e-05 6.98756e-05 0.00015722 0.000279503 0.000436723 0.000628881 0.000855977 0.00111801 0.00143151 0.00181302 0.00226253 0.00278004 0.00336555 0.00401907 0.00474059 0.00553011 0.0063575 0.00719263 0.0080355 0.00888611 0.00974446 0.0106106 0.0114844 0.0123659 0.0132246 0.0140299 0.0147816 0.0154799 0.0161248 0.0167161 0.017254 0.0177384 0.0181635 0.0185233 0.0188179 0.0190472 0.0192113 0.0193102 0.0193438 0.0193121 0.0192367 0.019139 0.019019 0.0188767 0.0187121 0.0185252 0.018316 0.0180845 0.0178643 0.017689 0.0175587 0.0174732 0.0174327 0.0174371 0.0174864 0.0175806 0.0177396 0.0179831 0.0183113 0.0187241 0.0192215 0.0198035 0.0204701 0.0212213 0.0220445 0.0229269 0.0238685 0.0248694 0.0259296 0.027049 0.0282277 0.0294657 0.0307212 0.0319528 0.0331603 0.0343438 0.0355032 0.0366386 0.03775 0.0388374 0.0398555 0.040759 0.0415479 0.0422223 0.0427821 0.0432274 0.0435581 0.0437742 0.0438567 0.0437867 0.0435642 0.0431891 0.0426614 0.0419811 0.0411483 0.040163 0.0390473 0.0378235 0.0364916 0.0350516 0.0335034 0.0318472 0.0300828 0.0282104 0.026289 0.0243779 0.0224772 0.0205868 0.0187066 0.0168368 0.0149773 0.0131281 0.0113544 0.00972129 0.00822883 0.00687699 0.00566579 0.00459522 0.00366528 0.00287597 0.00220192 0.00161773 0.00112343 0.000718993 0.000404434 0.000179748 4.49371e-05 0 0 2.25385e-05 9.01541e-05 0.000202847 0.000360617 0.000563463 0.000811387 0.00110439 0.00144247 0.00184625 0.00233636 0.00291281 0.00357558 0.00432469 0.00516012 0.00608189 0.00708999 0.00814605 0.00921173 0.010287 0.0113719 0.0124664 0.0135705 0.0146842 0.0158075 0.0169017 0.017928 0.0188864 0.0197769 0.0205995 0.0213542 0.022041 0.0226599 0.0232034 0.0236641 0.0240419 0.0243369 0.024549 0.0246783 0.0247247 0.0246882 0.0245961 0.0244755 0.0243263 0.0241486 0.0239424 0.0237076 0.0234444 0.0231526 0.0228749 0.0226537 0.022489 0.0223809 0.0223294 0.0223345 0.0223961 0.0225142 0.0227141 0.0230209 0.0234344 0.0239549 0.0245822 0.0253163 0.0261573 0.0271052 0.0281439 0.0292576 0.030446 0.0317094 0.0330477 0.0344608 0.0359488 0.0375117 0.0390968 0.0406515 0.0421758 0.0436697 0.0451332 0.0465663 0.047969 0.0493413 0.050626 0.0517657 0.0527606 0.0536105 0.0543155 0.0548756 0.0552908 0.0555611 0.0556624 0.0555707 0.055286 0.0548084 0.0541377 0.053274 0.0522173 0.0509676 0.049553 0.0480015 0.0463132 0.044488 0.042526 0.0404271 0.0381914 0.0358188 0.0333842 0.0309622 0.028553 0.0261564 0.0237726 0.0214014 0.019043 0.0166972 0.0144467 0.0123739 0.0104789 0.00876156 0.00722201 0.0058602 0.00467613 0.00366981 0.0028097 0.00206427 0.00143352 0.000917452 0.000516067 0.000229363 5.73407e-05 0 0 2.9013e-05 0.000116052 0.000261117 0.000464207 0.000725324 0.00104447 0.00142164 0.00185683 0.00237469 0.00299987 0.00373237 0.00457218 0.0055193 0.00657374 0.0077355 0.00900457 0.010333 0.0116727 0.0130238 0.0143862 0.01576 0.0171451 0.0185416 0.0199494 0.0213206 0.0226074 0.0238098 0.0249277 0.0259612 0.0269103 0.0277749 0.028555 0.0292414 0.0298248 0.0303051 0.0306823 0.0309564 0.0311275 0.0311956 0.0311605 0.0310559 0.0309153 0.0307387 0.030526 0.0302772 0.0299924 0.0296716 0.0293147 0.0289743 0.028703 0.0285007 0.0283675 0.0283033 0.0283081 0.028382 0.028525 0.0287681 0.0291425 0.0296482 0.0302852 0.0310535 0.0319531 0.032984 0.0341462 0.0354202 0.0367862 0.0382443 0.0397946 0.041437 0.0431715 0.0449981 0.0469168 0.0488628 0.0507713 0.0526423 0.0544757 0.0562717 0.0580301 0.059751 0.0614344 0.0630097 0.0644064 0.0656244 0.0666638 0.0675245 0.0682065 0.0687099 0.0690346 0.069151 0.0690293 0.0686696 0.0680717 0.0672359 0.066162 0.06485 0.0633 0.0615464 0.0596238 0.0575322 0.0552716 0.052842 0.0502433 0.0474757 0.044539 0.0415252 0.038526 0.0355416 0.032572 0.029617 0.0266768 0.0237512 0.0208404 0.0180464 0.0154711 0.0131145 0.0109768 0.00905776 0.00735751 0.00587604 0.00461332 0.00353208 0.00259499 0.00180208 0.00115333 0.000648749 0.000288333 7.20832e-05 0 0 3.68922e-05 0.000147569 0.00033203 0.000590275 0.000922305 0.00132812 0.00180772 0.0023611 0.00301685 0.00380356 0.00472122 0.00576984 0.00694941 0.00825993 0.00970141 0.0112738 0.0129182 0.0145756 0.0162458 0.0179291 0.0196252 0.0213343 0.0230564 0.0247914 0.0264813 0.0280682 0.0295519 0.0309325 0.03221 0.0333844 0.0344557 0.0354238 0.0362775 0.0370053 0.0376073 0.0380834 0.0384336 0.0386579 0.0387564 0.038729 0.0386162 0.0384586 0.0382561 0.0380088 0.0377166 0.0373795 0.0369976 0.0365708 0.0361627 0.035837 0.0355937 0.0354328 0.0353542 0.035358 0.0354442 0.0356127 0.0359014 0.036348 0.0369526 0.0377151 0.0386355 0.0397139 0.0409502 0.0423444 0.0438731 0.0455128 0.0472634 0.049125 0.0510976 0.0531811 0.0553756 0.057681 0.0600192 0.0623121 0.0645596 0.0667618 0.0689185 0.0710299 0.073096 0.0751167 0.0770068 0.078681 0.0801395 0.0813822 0.0824091 0.0832201 0.0838154 0.0841948 0.0843225 0.0841625 0.0837147 0.0829792 0.081956 0.0806451 0.0790464 0.0771601 0.0750276 0.0726904 0.0701487 0.0674023 0.0644514 0.0612958 0.0579356 0.0543709 0.050712 0.0470694 0.0434433 0.0398334 0.03624 0.0326629 0.0291022 0.0255578 0.0221535 0.0190128 0.0161359 0.0135226 0.011173 0.00908717 0.007265 0.00570652 0.00436906 0.00320992 0.00222911 0.00142663 0.00080248 0.000356658 8.91644e-05 0 0 4.61762e-05 0.000184705 0.000415586 0.00073882 0.00115441 0.00166234 0.00226264 0.00295528 0.00377272 0.00474742 0.00587936 0.00716855 0.008615 0.0102187 0.0119796 0.0138978 0.0159018 0.0179203 0.0199531 0.0220004 0.0240621 0.0261382 0.0282287 0.0303337 0.0323839 0.0343102 0.0361126 0.0377912 0.0393458 0.0407765 0.0420834 0.0432663 0.0443117 0.0452058 0.0459486 0.0465402 0.0469804 0.0472694 0.0474072 0.0473936 0.0472769 0.0471053 0.0468787 0.046597 0.0462604 0.0458689 0.0454223 0.0449208 0.04444 0.0440558 0.0437681 0.0435769 0.0434823 0.0434842 0.0435826 0.0437775 0.0441141 0.0446374 0.0453475 0.0462444 0.0473281 0.0485985 0.0500558 0.0516997 0.0535028 0.0554373 0.0575033 0.0597006 0.0620294 0.0644896 0.0670813 0.0698043 0.0725661 0.075274 0.0779279 0.0805278 0.0830738 0.0855659 0.0880039 0.0903881 0.092617 0.0945896 0.0963059 0.0977658 0.0989693 0.0999164 0.100607 0.101042 0.101177 0.10097 0.100421 0.0995308 0.0982981 0.0967233 0.0948066 0.0925479 0.0899964 0.0872013 0.0841625 0.0808802 0.0773542 0.0735846 0.0695713 0.0653145 0.0609446 0.0565924 0.0522578 0.0479408 0.0436415 0.0393598 0.0350957 0.0308493 0.0267679 0.0229991 0.0195428 0.0163991 0.0135679 0.0110492 0.00884302 0.0069494 0.00532064 0.00390904 0.00271461 0.00173735 0.00097726 0.000434338 0.000108584 0 0 5.68651e-05 0.00022746 0.000511786 0.000909841 0.00142163 0.00204714 0.00278639 0.00363936 0.00464231 0.00583145 0.00720679 0.00876833 0.0105161 0.01245 0.0145702 0.0168765 0.0192838 0.0217069 0.0241457 0.0266003 0.0290706 0.0315567 0.0340586 0.0365762 0.0390283 0.0413336 0.043492 0.0455037 0.0473686 0.0490867 0.050658 0.0520825 0.053344 0.0544262 0.0553291 0.0560527 0.056597 0.0569621 0.0571479 0.0571544 0.0570381 0.0568554 0.0566063 0.0562908 0.0559089 0.0554606 0.0549459 0.0543648 0.0538063 0.0533593 0.0530238 0.0527999 0.0526875 0.0526866 0.0527972 0.0530193 0.0534061 0.0540107 0.0548332 0.0558734 0.0571314 0.0586072 0.0603008 0.0622122 0.0643093 0.0665598 0.0689639 0.0715215 0.0742326 0.0770971 0.0801152 0.0832868 0.0865035 0.0896569 0.0927471 0.0957739 0.0987375 0.101638 0.104475 0.107249 0.109841 0.112132 0.114123 0.115814 0.117205 0.118295 0.119085 0.119575 0.119714 0.119453 0.11879 0.117726 0.116262 0.114397 0.112131 0.109464 0.106453 0.103156 0.0995738 0.0957052 0.0915504 0.0871096 0.0823827 0.0773698 0.0722231 0.0670949 0.0619852 0.0568941 0.0518215 0.0467675 0.0417319 0.0367149 0.0318898 0.02743 0.0233354 0.0196062 0.0162422 0.0132435 0.0106101 0.00834197 0.00638682 0.00469236 0.00325858 0.00208549 0.00117309 0.000521373 0.000130343 0 0 6.89587e-05 0.000275835 0.000620628 0.00110334 0.00172397 0.00248251 0.00337898 0.00441336 0.0056256 0.00705565 0.0087035 0.0105692 0.0126526 0.0149539 0.017473 0.0202099 0.0230642 0.0259354 0.0288236 0.0317287 0.0346508 0.0375899 0.0405459 0.0435189 0.0464145 0.0491382 0.0516901 0.0540702 0.0562785 0.0583149 0.0601796 0.0618724 0.0633743 0.0646664 0.0657486 0.0666209 0.0672834 0.0677359 0.0679786 0.0680114 0.0678997 0.0677089 0.067439 0.06709 0.0666618 0.0661546 0.0655683 0.0649028 0.0642615 0.0637475 0.0633609 0.0631017 0.0629698 0.0629652 0.063088 0.0633382 0.0637776 0.064468 0.0654094 0.0666018 0.0680453 0.0697398 0.0716853 0.0738818 0.0762924 0.0788803 0.0816453 0.0845875 0.087707 0.0910036 0.0944774 0.0981284 0.101831 0.105461 0.109017 0.1125 0.11591 0.119246 0.122509 0.125698 0.128677 0.131309 0.133592 0.135528 0.137117 0.138357 0.13925 0.139795 0.139935 0.139609 0.13882 0.137566 0.135848 0.133665 0.131018 0.127907 0.124397 0.120556 0.116383 0.111877 0.10704 0.101871 0.0963698 0.0905368 0.0845474 0.078577 0.0726256 0.0666933 0.0607801 0.0548859 0.0490108 0.0431547 0.0375191 0.0323054 0.0275137 0.0231439 0.0191961 0.0156702 0.0125662 0.00988421 0.0075676 0.00555987 0.00386102 0.00247105 0.00138997 0.000617763 0.000154441 0 0 8.24571e-05 0.000329829 0.000742114 0.00131931 0.00206143 0.00296846 0.0040404 0.00527726 0.00672261 0.00842002 0.0103695 0.0125711 0.0150247 0.0177304 0.0206881 0.023898 0.0272428 0.0306057 0.0339867 0.0373857 0.0408027 0.0442377 0.0476908 0.0511619 0.0545425 0.0577242 0.0607069 0.0634906 0.0660754 0.0684612 0.070648 0.0726359 0.0744028 0.0759265 0.0772072 0.0782449 0.0790394 0.0795909 0.0798992 0.0799645 0.0798617 0.0796658 0.0793768 0.0789946 0.0785193 0.0779509 0.0772894 0.0765348 0.0758056 0.0752204 0.0747793 0.0744822 0.0743292 0.0743201 0.0744551 0.0747341 0.0752284 0.0760091 0.0770762 0.0784298 0.0800698 0.0819963 0.0842092 0.0867085 0.0894523 0.0923987 0.0955475 0.0988988 0.102453 0.106209 0.110168 0.114329 0.11855 0.122686 0.126738 0.130706 0.13459 0.13839 0.142106 0.145737 0.149127 0.152119 0.154712 0.156907 0.158704 0.160102 0.161101 0.161702 0.161838 0.161441 0.160512 0.15905 0.157056 0.154529 0.15147 0.147878 0.143829 0.1394 0.134589 0.129396 0.123823 0.117868 0.111533 0.104816 0.0979175 0.0910386 0.0841789 0.0773385 0.0705172 0.0637151 0.0569322 0.0501686 0.0436558 0.0376254 0.0320776 0.0270123 0.0224295 0.0183292 0.0147114 0.0115761 0.00886298 0.00651158 0.00452193 0.00289403 0.00162789 0.000723509 0.000180877 0 0 9.73604e-05 0.000389442 0.000876243 0.00155777 0.00243401 0.00350497 0.00477066 0.00623106 0.00793332 0.00992457 0.0122048 0.014774 0.0176322 0.0207794 0.0242156 0.0279407 0.0318199 0.035718 0.0396351 0.0435711 0.0475261 0.0515001 0.0554931 0.059505 0.0634123 0.0670914 0.0705423 0.0737649 0.0767593 0.0795255 0.0820634 0.0843731 0.0864293 0.0882066 0.089705 0.0909245 0.0918652 0.0925269 0.0929098 0.0930138 0.0929242 0.0927261 0.0924196 0.0920047 0.0914814 0.0908496 0.0901094 0.0892607 0.0884386 0.0877781 0.0872791 0.0869416 0.0867657 0.0867513 0.0868984 0.0872071 0.0877586 0.0886341 0.0898337 0.0913573 0.093205 0.0953767 0.0978725 0.100692 0.103789 0.107115 0.11067 0.114455 0.11847 0.122713 0.127186 0.131889 0.136658 0.141332 0.14591 0.150393 0.154779 0.15907 0.163266 0.167365 0.171191 0.174563 0.177484 0.179951 0.181966 0.183529 0.184639 0.185296 0.185424 0.184947 0.183865 0.182178 0.179885 0.176988 0.173485 0.169377 0.164749 0.159688 0.154192 0.148263 0.1419 0.135102 0.127871 0.120206 0.112333 0.10448 0.0966452 0.0888295 0.0810328 0.0732551 0.0654964 0.0577566 0.0502998 0.04339 0.0370272 0.0312113 0.0259425 0.0212206 0.0170457 0.0134177 0.010273 0.00754748 0.00524131 0.00335444 0.00188687 0.000838609 0.000209652 0 0 0.00011354 0.00045416 0.00102186 0.00181664 0.0028385 0.00408744 0.00556346 0.00726657 0.00924729 0.0115562 0.0141932 0.0171584 0.0204518 0.0240733 0.028023 0.0323008 0.0367525 0.041224 0.045715 0.0502258 0.0547562 0.0593063 0.063876 0.0684654 0.072935 0.0771454 0.0810966 0.0847885 0.0882212 0.0913946 0.0943089 0.0969639 0.0993308 0.101381 0.103114 0.104531 0.10563 0.106413 0.106879 0.107028 0.106956 0.106759 0.106436 0.105989 0.105416 0.104718 0.103895 0.102947 0.102026 0.101284 0.10072 0.100336 0.100131 0.100104 0.100257 0.100589 0.101191 0.102156 0.103484 0.105174 0.107227 0.109642 0.112421 0.115561 0.119012 0.12272 0.126685 0.130908 0.135388 0.140125 0.145119 0.150371 0.155698 0.160917 0.166029 0.171034 0.175931 0.180721 0.185404 0.189979 0.194247 0.198006 0.201257 0.204 0.206234 0.207961 0.209179 0.209889 0.210004 0.20944 0.208195 0.20627 0.203666 0.200381 0.196416 0.19177 0.186541 0.180823 0.174616 0.167921 0.160738 0.153066 0.144905 0.136256 0.127372 0.118506 0.109658 0.100829 0.092018 0.0832252 0.0744507 0.0656944 0.057254 0.0494273 0.0422142 0.0356147 0.0296288 0.0242566 0.0194979 0.0153529 0.0117546 0.00863601 0.00599723 0.00383822 0.002159 0.000959556 0.000239889 0 0 0.000130868 0.000523472 0.00117781 0.00209389 0.0032717 0.00471125 0.00641253 0.00837555 0.010654 0.0133017 0.0163186 0.0197046 0.0234599 0.0275843 0.0320779 0.0369407 0.0419981 0.0470755 0.0521729 0.0572903 0.0624277 0.0675851 0.0727626 0.07796 0.0830216 0.0877916 0.09227 0.0964568 0.100352 0.103956 0.107268 0.110288 0.112984 0.115324 0.117307 0.118934 0.120204 0.121117 0.121674 0.121875 0.121825 0.121632 0.121295 0.120815 0.120192 0.119425 0.118514 0.11746 0.116433 0.1156 0.114963 0.114522 0.114275 0.114225 0.11437 0.11471 0.115348 0.116388 0.117828 0.119669 0.121911 0.124554 0.127598 0.131043 0.134831 0.138905 0.143263 0.147908 0.152837 0.158052 0.163553 0.169339 0.175208 0.180959 0.186591 0.192105 0.1975 0.202777 0.207936 0.212976 0.217675 0.22181 0.225383 0.228391 0.230837 0.232719 0.234038 0.234793 0.234889 0.23423 0.232817 0.230648 0.227725 0.224047 0.219614 0.214426 0.208589 0.202208 0.195284 0.187817 0.179806 0.171252 0.162155 0.152514 0.14261 0.132723 0.122853 0.113 0.103164 0.0933448 0.0835426 0.0737575 0.0643212 0.0555655 0.0474905 0.0400962 0.0333825 0.0273495 0.0219971 0.0173255 0.0132648 0.00974557 0.00676775 0.00433136 0.00243639 0.00108284 0.00027071 0 0 0.000149344 0.000597376 0.0013441 0.0023895 0.0037336 0.00537638 0.00731785 0.00955801 0.0121536 0.0151612 0.0185809 0.0224126 0.0266565 0.0313124 0.0363804 0.0418605 0.0475566 0.0532726 0.0590087 0.0647647 0.0705408 0.0763368 0.0821527 0.0879887 0.093672 0.0990299 0.104062 0.10877 0.113152 0.117208 0.120939 0.124345 0.127389 0.130036 0.132284 0.134134 0.135586 0.13664 0.137296 0.137554 0.137532 0.137346 0.136997 0.136484 0.135808 0.134969 0.133967 0.132801 0.131659 0.130728 0.130007 0.129498 0.1292 0.129113 0.129236 0.129571 0.130231 0.131329 0.132867 0.134843 0.137258 0.140113 0.143406 0.147138 0.151246 0.155669 0.160405 0.165455 0.170818 0.176496 0.182487 0.188792 0.195189 0.201457 0.207596 0.213606 0.219487 0.225239 0.230861 0.236355 0.241475 0.245977 0.249861 0.253127 0.255774 0.257804 0.259216 0.260009 0.260079 0.259319 0.25773 0.255312 0.252064 0.247986 0.243079 0.237343 0.230892 0.223843 0.216196 0.20795 0.199105 0.189662 0.17962 0.16898 0.158048 0.147131 0.136229 0.125342 0.11447 0.103614 0.0927723 0.081946 0.0715013 0.0618046 0.0528561 0.0446558 0.0372035 0.0304993 0.0245433 0.0193354 0.0148037 0.0108762 0.00755289 0.00483385 0.00271904 0.00120846 0.000302116 0 0 0.000168968 0.000675872 0.00152071 0.00270349 0.0042242 0.00608285 0.00827943 0.010814 0.0137459 0.0171346 0.0209801 0.0252825 0.0300416 0.0352576 0.0409304 0.0470601 0.0534279 0.0598154 0.0662224 0.072649 0.0790953 0.0855611 0.0920466 0.0985516 0.104886 0.11086 0.116474 0.121727 0.12662 0.131153 0.135324 0.139136 0.142546 0.145516 0.148044 0.150131 0.151777 0.152981 0.153745 0.154067 0.154076 0.153901 0.15354 0.152995 0.152266 0.151351 0.150252 0.148968 0.147704 0.146666 0.145853 0.145266 0.144904 0.144768 0.144857 0.145172 0.145838 0.14698 0.148599 0.150695 0.153268 0.156317 0.159843 0.163846 0.168258 0.173012 0.178109 0.183549 0.18933 0.195454 0.201921 0.20873 0.215641 0.222412 0.229044 0.235537 0.241891 0.248105 0.254181 0.260117 0.265647 0.270505 0.274691 0.278205 0.281047 0.283216 0.284713 0.285537 0.285574 0.284707 0.282936 0.280261 0.276682 0.272199 0.266812 0.260522 0.253452 0.245729 0.237351 0.228319 0.218634 0.208294 0.197301 0.185653 0.173685 0.161729 0.149786 0.137855 0.125937 0.114032 0.10214 0.0902599 0.0787943 0.0681447 0.0583111 0.0492934 0.0410918 0.0337061 0.0271365 0.0213828 0.0163712 0.0120278 0.00835264 0.00534569 0.00300695 0.00133642 0.000334106 0 0 0.00018974 0.000758961 0.00170766 0.00303584 0.00474351 0.00683065 0.00929727 0.0121434 0.0154309 0.0192219 0.0235163 0.0283141 0.0336153 0.03942 0.0457281 0.0525395 0.0596122 0.0667037 0.073814 0.0809432 0.0880913 0.0952582 0.102444 0.109649 0.116664 0.123283 0.129505 0.13533 0.140758 0.145789 0.150423 0.15466 0.158455 0.161765 0.164588 0.166925 0.168776 0.170141 0.17102 0.171413 0.171458 0.171296 0.170927 0.170349 0.169564 0.168571 0.16737 0.165962 0.164569 0.163416 0.162501 0.161825 0.161389 0.161191 0.161233 0.161513 0.16217 0.163341 0.165027 0.167226 0.16994 0.173168 0.17691 0.181166 0.185865 0.190935 0.196377 0.20219 0.208374 0.214929 0.221856 0.229154 0.236563 0.243823 0.250935 0.257898 0.264712 0.271377 0.277894 0.284261 0.290192 0.295396 0.299874 0.303627 0.306653 0.308954 0.310529 0.311377 0.311374 0.310392 0.308433 0.305495 0.301579 0.296685 0.290813 0.283962 0.276268 0.267864 0.25875 0.248926 0.238393 0.22715 0.215197 0.202534 0.189521 0.176518 0.163524 0.15054 0.137565 0.1246 0.111645 0.0986991 0.0862002 0.0745856 0.0638553 0.0540092 0.0450474 0.0369698 0.0297765 0.0234675 0.0179673 0.0132005 0.009167 0.00586688 0.00330012 0.00146672 0.00036668 0 0 0.000211661 0.000846643 0.00190495 0.00338657 0.00529152 0.00761978 0.0103714 0.0135463 0.0172088 0.0214232 0.0261894 0.0315076 0.0373776 0.0437995 0.0507732 0.0582989 0.0661093 0.0739375 0.0817835 0.0896473 0.0975288 0.105428 0.113345 0.12128 0.129006 0.136298 0.143155 0.149577 0.155564 0.161116 0.166234 0.170917 0.175116 0.178783 0.181916 0.184517 0.186585 0.18812 0.189122 0.189591 0.189678 0.189533 0.189155 0.188545 0.187703 0.186629 0.185322 0.183783 0.182254 0.180976 0.17995 0.179176 0.178653 0.178381 0.178362 0.178594 0.179227 0.180412 0.182148 0.184436 0.187275 0.190665 0.194607 0.1991 0.204069 0.209438 0.215208 0.221378 0.227949 0.23492 0.242291 0.250063 0.257956 0.265692 0.273269 0.280689 0.287951 0.295054 0.302001 0.308789 0.315108 0.320649 0.32541 0.329392 0.332595 0.335019 0.336663 0.337529 0.337479 0.336376 0.334221 0.331014 0.326755 0.321444 0.31508 0.307665 0.29934 0.290249 0.280393 0.26977 0.258382 0.246228 0.233308 0.219623 0.205557 0.191497 0.177443 0.163395 0.149354 0.135318 0.121288 0.107264 0.0937191 0.0811274 0.0694887 0.058803 0.0490703 0.0402905 0.0324636 0.0255897 0.0195921 0.0143942 0.00999597 0.00639742 0.00359855 0.00159936 0.000399839 0 0 0.000234729 0.000938917 0.00211256 0.00375567 0.00586823 0.00845025 0.0115017 0.0150227 0.0190794 0.0237384 0.0289995 0.0348628 0.0413284 0.0483961 0.056066 0.064338 0.0729194 0.081517 0.090131 0.0987612 0.107408 0.116071 0.12475 0.133445 0.141912 0.149905 0.157424 0.164468 0.171039 0.177136 0.182759 0.187908 0.192529 0.196569 0.200028 0.202905 0.205202 0.206917 0.20805 0.208603 0.208736 0.20861 0.208226 0.207584 0.206683 0.205524 0.204107 0.202431 0.200758 0.199347 0.198201 0.197317 0.196697 0.196339 0.196245 0.196415 0.19701 0.198193 0.199964 0.202324 0.205272 0.208809 0.212933 0.217646 0.222868 0.22852 0.234602 0.241113 0.248055 0.255426 0.263227 0.271458 0.27982 0.288017 0.296046 0.30391 0.311606 0.319137 0.326501 0.333699 0.340397 0.346264 0.351298 0.355501 0.358872 0.36141 0.363117 0.363992 0.363888 0.362658 0.360302 0.356819 0.352211 0.346476 0.339616 0.331629 0.322668 0.312885 0.302279 0.290852 0.278602 0.26553 0.251635 0.236919 0.221792 0.206667 0.191544 0.176422 0.161303 0.146185 0.131068 0.115954 0.101351 0.0877702 0.0752115 0.063675 0.0531605 0.043668 0.0351976 0.0277493 0.0212455 0.015609 0.0108396 0.00