<?xml version="1.0"?> 
<VTKFile type="StructuredGrid" version="0.1"> 
<StructuredGrid WholeExtent="0 128 0 128 0 0"> 
<Piece Extent="0 128 0 128 0 0"> 
<PointData>
<DataArray type="Float32" Name="u" format="ascii" NumberOfComponents="1"> 
0 0 0 0 0 0 0 0 0 0 0 0 0 0 0 0 0 0 0 0 0 0 0 0 0 0 0 0 0 0 0 0 0 0 0 0 0 0 0 0 0 0 0 0 0 0 0 0 0 0 0 0 0 0 0 0 0 0 0 0 0 0 0 0 0 0 0 0 0 0 0 0 0 0 0 0 0 0 0 0 0 0 0 0 0 0 0 0 0 0 0 0 0 0 0 0 0 0 0 0 0 0 0 0 0 0 0 0 0 0 0 0 0 0 0 0 0 0 0 0 0 0 0 0 0 0 0 0 0 0 2.24793e-07 8.99171e-07 2.02313e-06 3.59668e-06 5.61982e-06 8.09253e-06 1.10148e-05 1.43867e-05 1.83983e-05 2.32397e-05 2.8911e-05 3.5412e-05 4.27429e-05 5.09036e-05 5.98941e-05 6.97144e-05 8.00535e-05 9.06002e-05 0.000101354 0.000112316 0.000123486 0.000134863 0.000146448 0.00015824 0.000169952 0.000181294 0.000192266 0.000202869 0.000213102 0.000222965 0.000232459 0.000241584 0.000250265 0.000258429 0.000266077 0.000273208 0.000279822 0.00028592 0.000291501 0.000296565 0.00030123 0.000305616 0.000309722 0.000313548 0.000317093 0.000320359 0.000323345 0.00032605 0.000328665 0.000331377 0.000334187 0.000337095 0.000340101 0.000343204 0.000346405 0.000349704 0.000353202 0.000357002 0.000361102 0.000365504 0.000370208 0.000375212 0.000380518 0.000386125 0.000391947 0.000397894 0.000403969 0.00041017 0.000416498 0.000422953 0.000429534 0.000436243 0.000442823 0.000449022 0.00045484 0.000460275 0.000465329 0.000470002 0.000474293 0.000478202 0.000481451 0.000483763 0.000485138 0.000485575 0.000485074 0.000483636 0.00048126 0.000477946 0.000473581 0.000468047 0.000461345 0.000453476 0.000444439 0.000434235 0.000422862 0.000410322 0.000396793 0.000382453 0.000367301 0.00035134 0.000334567 0.000316983 0.000298589 0.000279383 0.000259868 0.000240546 0.000221415 0.000202476 0.000183729 0.000165174 0.000146811 0.00012864 0.000111255 9.52483e-05 8.0621e-05 6.73727e-05 5.55034e-05 4.50133e-05 3.59022e-05 2.81701e-05 2.15677e-05 1.58457e-05 1.10039e-05 7.04252e-06 3.96142e-06 1.76063e-06 4.40158e-07 0 0 8.99171e-07 3.59668e-06 8.09253e-06 1.43867e-05 2.24793e-05 3.23701e-05 4.40594e-05 5.75469e-05 7.35933e-05 9.29589e-05 0.000115644 0.000141648 0.000170972 0.000203614 0.000239576 0.000278858 0.000320214 0.000362401 0.000405418 0.000449266 0.000493944 0.000539453 0.000585792 0.000632962 0.000679808 0.000725175 0.000769065 0.000811475 0.000852408 0.000891862 0.000929837 0.000966334 0.00100106 0.00103372 0.00106431 0.00109283 0.00111929 0.00114368 0.001166 0.00118626 0.00120492 0.00122246 0.00123889 0.00125419 0.00126837 0.00128144 0.00129338 0.0013042 0.00131466 0.00132551 0.00133675 0.00134838 0.0013604 0.00137282 0.00138562 0.00139881 0.00141281 0.00142801 0.00144441 0.00146202 0.00148083 0.00150085 0.00152207 0.0015445 0.00156779 0.00159158 0.00161588 0.00164068 0.00166599 0.00169181 0.00171814 0.00174497 0.00177129 0.00179609 0.00181936 0.0018411 0.00186132 0.00188001 0.00189717 0.00191281 0.00192581 0.00193505 0.00194055 0.0019423 0.0019403 0.00193454 0.00192504 0.00191179 0.00189432 0.00187219 0.00184538 0.0018139 0.00177776 0.00173694 0.00169145 0.00164129 0.00158717 0.00152981 0.00146921 0.00140536 0.00133827 0.00126793 0.00119435 0.00111753 0.00103947 0.000962183 0.000885659 0.000809904 0.000734916 0.000660697 0.000587245 0.000514561 0.000445019 0.000380993 0.000322484 0.000269491 0.000222014 0.000180053 0.000143609 0.00011268 8.62709e-05 6.33827e-05 4.40158e-05 2.81701e-05 1.58457e-05 7.04252e-06 1.76063e-06 0 0 2.02313e-06 8.09253e-06 1.82082e-05 3.23701e-05 5.05783e-05 7.28328e-05 9.91336e-05 0.000129481 0.000165585 0.000209158 0.000260199 0.000318708 0.000384686 0.000458132 0.000539047 0.00062743 0.000720481 0.000815401 0.00091219 0.00101085 0.00111137 0.00121377 0.00131803 0.00142416 0.00152957 0.00163164 0.0017304 0.00182582 0.00191792 0.00200669 0.00209213 0.00217425 0.00225238 0.00232586 0.00239469 0.00245887 0.0025184 0.00257328 0.0026235 0.00266908 0.00271107 0.00275054 0.0027875 0.00282193 0.00285384 0.00288323 0.0029101 0.00293445 0.00295798 0.00298239 0.00300768 0.00303385 0.0030609 0.00308883 0.00311764 0.00314733 0.00317882 0.00321301 0.00324992 0.00328954 0.00333187 0.00337691 0.00342466 0.00347513 0.00352752 0.00358105 0.00363572 0.00369153 0.00374848 0.00380658 0.00386581 0.00392618 0.00398541 0.0040412 0.00409356 0.00414248 0.00418797 0.00423002 0.00426863 0.00430382 0.00433306 0.00435387 0.00436624 0.00437017 0.00436566 0.00435272 0.00433134 0.00430152 0.00426222 0.00421242 0.00415211 0.00408129 0.00399995 0.00390811 0.00380576 0.0036929 0.00357114 0.00344207 0.00330571 0.00316206 0.0030111 0.00285285 0.0026873 0.00251445 0.00233882 0.00216491 0.00199273 0.00182228 0.00165356 0.00148657 0.0013213 0.00115776 0.00100129 0.000857235 0.000725589 0.000606354 0.000499531 0.000405119 0.000323119 0.000253531 0.00019411 0.000142611 9.90355e-05 6.33827e-05 3.56528e-05 1.58457e-05 3.96142e-06 0 0 3.59668e-06 1.43867e-05 3.23701e-05 5.75469e-05 8.99171e-05 0.000129481 0.000176237 0.000230188 0.000294373 0.000371836 0.000462575 0.000566592 0.000683886 0.000814457 0.000958305 0.00111543 0.00128086 0.0014496 0.00162167 0.00179706 0.00197578 0.00215781 0.00234317 0.00253185 0.00271923 0.0029007 0.00307626 0.0032459 0.00340963 0.00356745 0.00371935 0.00386534 0.00400424 0.00413487 0.00425723 0.00437133 0.00447715 0.00457471 0.00466401 0.00474503 0.00481969 0.00488986 0.00495555 0.00501676 0.00507349 0.00512574 0.00517351 0.0052168 0.00525864 0.00530203 0.005347 0.00539352 0.00544161 0.00549126 0.00554248 0.00559526 0.00565123 0.00571202 0.00577764 0.00584807 0.00592333 0.0060034 0.00608829 0.00617801 0.00627115 0.00636631 0.0064635 0.00656272 0.00666397 0.00676725 0.00687255 0.00697988 0.00708517 0.00718436 0.00727744 0.00736441 0.00744527 0.00752003 0.00758868 0.00765123 0.00770322 0.00774021 0.0077622 0.00776919 0.00776118 0.00773817 0.00770016 0.00764714 0.00757729 0.00748875 0.00738153 0.00725562 0.00711103 0.00694775 0.0067658 0.00656516 0.00634868 0.00611924 0.00587682 0.00562143 0.00535307 0.00507173 0.00477742 0.00447013 0.0041579 0.00384873 0.00354264 0.00323962 0.00293967 0.00264279 0.00234898 0.00205824 0.00178008 0.00152397 0.00128994 0.00107796 0.000888055 0.000720212 0.000574434 0.000450722 0.000345084 0.000253531 0.000176063 0.00011268 6.33827e-05 2.81701e-05 7.04252e-06 0 0 5.61982e-06 2.24793e-05 5.05783e-05 8.99171e-05 0.000140495 0.000202313 0.000275371 0.000359668 0.000459958 0.000580993 0.000722774 0.0008853 0.00106857 0.00127259 0.00149735 0.00174286 0.00200134 0.002265 0.00253386 0.00280791 0.00308715 0.00337158 0.0036612 0.00395601 0.0042488 0.00453235 0.00480665 0.00507172 0.00532755 0.00557414 0.00581148 0.00603959 0.00625662 0.00646073 0.00665192 0.0068302 0.00699555 0.00714799 0.00728751 0.00741412 0.00753076 0.0076404 0.00774305 0.00783869 0.00792733 0.00800897 0.00808362 0.00815126 0.00821662 0.00828443 0.00835468 0.00842737 0.00850251 0.0085801 0.00866012 0.00874259 0.00883005 0.00892504 0.00902756 0.00913761 0.0092552 0.00938031 0.00951296 0.00965314 0.00979866 0.00994736 0.0100992 0.0102543 0.0104125 0.0105738 0.0107384 0.0109061 0.0110706 0.0112256 0.011371 0.0115069 0.0116332 0.01175 0.0118573 0.011955 0.0120363 0.0120941 0.0121284 0.0121394 0.0121268 0.0120909 0.0120315 0.0119487 0.0118395 0.0117012 0.0115336 0.0113369 0.011111 0.0108559 0.0105716 0.0102581 0.00991982 0.00956131 0.00918254 0.00878349 0.00836417 0.00792458 0.00746471 0.00698458 0.00649671 0.00601364 0.00553537 0.0050619 0.00459323 0.00412935 0.00367028 0.003216 0.00278137 0.00238121 0.00201552 0.00168432 0.00138759 0.00112533 0.000897554 0.000704252 0.000539193 0.000396142 0.000275099 0.000176063 9.90355e-05 4.40158e-05 1.10039e-05 0 0 8.09253e-06 3.23701e-05 7.28328e-05 0.000129481 0.000202313 0.000291331 0.000396534 0.000517922 0.00066234 0.00083663 0.00104079 0.00127483 0.00153874 0.00183253 0.00215619 0.00250972 0.00288193 0.00326161 0.00364876 0.00404339 0.0044455 0.00485508 0.00527213 0.00569666 0.00611827 0.00652658 0.00692158 0.00730328 0.00767167 0.00802675 0.00836854 0.00869701 0.00900953 0.00930345 0.00957877 0.00983548 0.0100736 0.0102931 0.010494 0.0106763 0.0108443 0.0110022 0.01115 0.0112877 0.0114154 0.0115329 0.0116404 0.0117378 0.0118319 0.0119296 0.0120307 0.0121354 0.0122436 0.0123553 0.0124706 0.0125893 0.0127153 0.0128521 0.0129997 0.0131582 0.0133275 0.0135076 0.0136987 0.0139005 0.0141101 0.0143242 0.0145429 0.0147661 0.0149939 0.0152263 0.0154632 0.0157047 0.0159416 0.0161648 0.0163742 0.0165699 0.0167519 0.0169201 0.0170745 0.0172153 0.0173322 0.0174155 0.017465 0.0174807 0.0174627 0.0174109 0.0173254 0.0172061 0.0170489 0.0168497 0.0166084 0.0163251 0.0159998 0.0156324 0.015223 0.0147716 0.0142845 0.0137683 0.0132229 0.0126482 0.0120444 0.0114114 0.0107492 0.0100578 0.00935527 0.00865964 0.00797093 0.00728913 0.00661425 0.00594627 0.0052852 0.00463105 0.00400517 0.00342894 0.00290235 0.00242542 0.00199812 0.00162048 0.00129248 0.00101412 0.000776438 0.000570445 0.000396142 0.000253531 0.000142611 6.33827e-05 1.58457e-05 0 0 1.10148e-05 4.40594e-05 9.91336e-05 0.000176237 0.000275371 0.000396534 0.000539727 0.00070495 0.000901518 0.00113875 0.00141664 0.00173519 0.0020944 0.00249428 0.00293481 0.00341601 0.00392262 0.00443941 0.00496637 0.0055035 0.00605081 0.0066083 0.00717595 0.00775378 0.00832765 0.0088834 0.00942104 0.00994057 0.010442 0.0109253 0.0113905 0.0118376 0.012263 0.012663 0.0130378 0.0133872 0.0137113 0.0140101 0.0142835 0.0145317 0.0147603 0.0149752 0.0151764 0.0153638 0.0155376 0.0156976 0.0158439 0.0159765 0.0161046 0.0162375 0.0163752 0.0165177 0.0166649 0.016817 0.0169738 0.0171355 0.0173069 0.0174931 0.017694 0.0179097 0.0181402 0.0183854 0.0186454 0.0189201 0.0192054 0.0194968 0.0197945 0.0200983 0.0204084 0.0207247 0.0210472 0.0213759 0.0216983 0.0220021 0.0222871 0.0225535 0.0228011 0.0230301 0.0232403 0.0234319 0.0235911 0.0237044 0.0237717 0.0237932 0.0237686 0.0236981 0.0235817 0.0234194 0.0232054 0.0229343 0.0226059 0.0222203 0.0217775 0.0212775 0.0207203 0.0201058 0.0194428 0.0187402 0.0179978 0.0172156 0.0163938 0.0155322 0.0146308 0.0136898 0.0127336 0.0117867 0.0108493 0.00992132 0.00900272 0.00809353 0.00719375 0.00630337 0.00545148 0.00466717 0.00395043 0.00330126 0.00271967 0.00220565 0.00175921 0.00138033 0.00105682 0.000776438 0.000539193 0.000345084 0.00019411 8.62709e-05 2.15677e-05 0 0 1.43867e-05 5.75469e-05 0.000129481 0.000230188 0.000359668 0.000517922 0.00070495 0.000920751 0.00117749 0.00148734 0.0018503 0.00226637 0.00273554 0.00325783 0.00383322 0.00446172 0.00512342 0.00579841 0.00648669 0.00718825 0.0079031 0.00863124 0.00937267 0.0101274 0.0108769 0.0116028 0.012305 0.0129836 0.0136385 0.0142698 0.0148774 0.0154614 0.0160169 0.0165395 0.0170289 0.0174853 0.0179086 0.0182989 0.018656 0.0189801 0.0192787 0.0195594 0.0198222 0.020067 0.020294 0.020503 0.0206941 0.0208672 0.0210346 0.0212081 0.021388 0.0215741 0.0217664 0.021965 0.0221699 0.022381 0.0226049 0.0228481 0.0231106 0.0233923 0.0236933 0.0240136 0.0243532 0.024712 0.0250846 0.0254652 0.025854 0.0262509 0.0266559 0.027069 0.0274902 0.0279195 0.0283407 0.0287374 0.0291097 0.0294576 0.0297811 0.0300801 0.0303547 0.0306049 0.0308129 0.0309608 0.0310488 0.0310768 0.0310447 0.0309527 0.0308006 0.0305886 0.0303092 0.029955 0.0295261 0.0290225 0.0284441 0.027791 0.0270632 0.0262606 0.0253947 0.024477 0.0235073 0.0224857 0.0214123 0.0202869 0.0191097 0.0178805 0.0166316 0.0153949 0.0141705 0.0129585 0.0117587 0.0105711 0.00939592 0.00823297 0.0071203 0.00609589 0.00515974 0.00431185 0.00355222 0.00288085 0.00229774 0.00180289 0.00138033 0.00101412 0.000704252 0.000450722 0.000253531 0.00011268 2.81701e-05 0 0 1.84579e-05 7.38315e-05 0.000166121 0.000295326 0.000461447 0.000664484 0.000904436 0.0011813 0.0015103 0.00190662 0.00237028 0.00290128 0.0034996 0.00416526 0.00489826 0.00569859 0.00654096 0.00740011 0.00827602 0.0091687 0.0100781 0.0110044 0.0119473 0.0129071 0.0138602 0.0147834 0.0156766 0.0165398 0.017373 0.0181763 0.0189495 0.0196928 0.0204002 0.0210655 0.0216889 0.0222703 0.0228098 0.0233073 0.0237628 0.0241764 0.0245576 0.0249159 0.0252513 0.0255639 0.0258537 0.0261206 0.0263646 0.0265858 0.0267994 0.0270207 0.0272498 0.0274866 0.027731 0.0279832 0.0282432 0.0285108 0.0287944 0.0291022 0.0294343 0.0297905 0.030171 0.0305757 0.0310045 0.0314576 0.0319279 0.0324083 0.0328988 0.0333994 0.0339101 0.0344309 0.0349618 0.0355029 0.0360335 0.0365331 0.0370017 0.0374393 0.0378458 0.0382214 0.038566 0.0388795 0.0391396 0.0393237 0.0394318 0.039464 0.0394202 0.0393004 0.0391047 0.038833 0.038476 0.0380245 0.0374785 0.0368379 0.0361028 0.0352731 0.0343489 0.0333301 0.0322312 0.0310668 0.0298367 0.028541 0.0271797 0.0257528 0.0242602 0.0227021 0.0211188 0.019551 0.0179987 0.0164617 0.0149402 0.0134342 0.0119435 0.0104684 0.00905668 0.00775658 0.00656807 0.00549114 0.00452579 0.00367202 0.00292984 0.00229924 0.00176035 0.00129332 0.00089814 0.000574809 0.00032333 0.000143702 3.59256e-05 0 0 2.3478e-05 9.3912e-05 0.000211302 0.000375648 0.00058695 0.000845208 0.00115042 0.00150259 0.00191997 0.0024208 0.00300508 0.00367282 0.00442401 0.00525866 0.00617676 0.00717831 0.00823187 0.00930599 0.0104007 0.0115159 0.0126517 0.0138081 0.014985 0.0161824 0.0173716 0.0185237 0.0196387 0.0207165 0.0217572 0.0227608 0.0237272 0.0246566 0.0255413 0.0263739 0.0271544 0.0278828 0.0285591 0.0291832 0.0297553 0.0302752 0.0307547 0.0312055 0.0316277 0.0320211 0.0323858 0.0327219 0.0330292 0.0333079 0.0335767 0.0338545 0.0341412 0.0344369 0.0347416 0.0350553 0.035378 0.0357096 0.0360605 0.0364406 0.0368502 0.0372891 0.0377574 0.0382551 0.0387821 0.0393385 0.0399156 0.0405048 0.041106 0.0417193 0.0423447 0.0429822 0.0436317 0.0442932 0.0449416 0.0455514 0.0461226 0.0466554 0.0471496 0.0476052 0.0480223 0.0484009 0.0487133 0.0489318 0.0490564 0.0490872 0.0490242 0.0488673 0.0486165 0.0482719 0.0478221 0.0472556 0.0465726 0.0457729 0.0448566 0.0438238 0.0426743 0.0414082 0.0400434 0.0385977 0.0370712 0.0354639 0.0337758 0.0320069 0.0301571 0.0282265 0.0262648 0.0243219 0.0223977 0.0204923 0.0186056 0.0167377 0.0148885 0.013058 0.0113056 0.0096907 0.00821317 0.00687306 0.00567038 0.00460511 0.00367727 0.00288685 0.00221024 0.00162385 0.00112768 0.000721712 0.000405963 0.000180428 4.5107e-05 0 0 2.9447e-05 0.000117788 0.000265023 0.000471153 0.000736176 0.00106009 0.0014429 0.00188461 0.0024065 0.00302986 0.00375469 0.00458099 0.00550876 0.006538 0.00766872 0.0089009 0.0101962 0.0115161 0.0128606 0.0142299 0.0156238 0.0170424 0.0184856 0.0199535 0.0214112 0.0228238 0.0241913 0.0255137 0.0267911 0.0280233 0.0292105 0.0303526 0.0314404 0.0324647 0.0334254 0.0343227 0.0351564 0.0359266 0.0366333 0.0372764 0.0378701 0.0384284 0.0389512 0.0394385 0.0398904 0.0403069 0.0406879 0.0410335 0.0413664 0.0417093 0.0420623 0.0424252 0.0427983 0.0431813 0.0435744 0.0439775 0.044403 0.0448633 0.0453583 0.045888 0.0464525 0.0470518 0.0476858 0.0483545 0.0490476 0.0497547 0.0504758 0.0512108 0.0519598 0.0527227 0.0534997 0.0542906 0.0550649 0.0557923 0.0564726 0.0571059 0.0576922 0.0582315 0.0587238 0.059169 0.0595339 0.0597851 0.0599227 0.0599465 0.0598568 0.0596533 0.0593362 0.0589054 0.0583473 0.0576483 0.0568084 0.0558275 0.0547058 0.0534431 0.0520394 0.0504949 0.0488311 0.0470698 0.045211 0.0432546 0.0412006 0.0390492 0.0368002 0.0344537 0.0320695 0.0297075 0.0273677 0.0250501 0.0227548 0.0204816 0.0182307 0.0160019 0.0138672 0.0118982 0.010095 0.00845763 0.00698599 0.00568013 0.00454004 0.00356572 0.00273 0.00200572 0.00139286 0.00089143 0.000501429 0.000222857 5.57144e-05 0 0 3.6365e-05 0.00014546 0.000327285 0.000581841 0.000909126 0.00130914 0.00178189 0.00232736 0.00296989 0.00373381 0.00461911 0.00562579 0.00675386 0.00800331 0.00937414 0.0108664 0.0124338 0.0140303 0.0156559 0.0173106 0.0189944 0.0207073 0.0224492 0.0242202 0.0259788 0.0276836 0.0293345 0.0309315 0.0324746 0.0339639 0.0353993 0.0367809 0.0380974 0.0393378 0.0405019 0.0415899 0.0426018 0.0435374 0.0443969 0.0451802 0.0459038 0.0465844 0.0472218 0.0478162 0.0483675 0.0488756 0.0493407 0.0497627 0.0501685 0.0505853 0.0510129 0.0514514 0.0519009 0.0523611 0.0528323 0.0533144 0.0538221 0.0543701 0.0549585 0.0555873 0.0562564 0.0569658 0.0577156 0.0585058 0.059324 0.0601581 0.061008 0.0618737 0.0627553 0.0636526 0.0645658 0.0654948 0.0664036 0.0672558 0.0680516 0.068791 0.0694739 0.0701003 0.0706703 0.0711839 0.0716015 0.0718837 0.0720305 0.0720419 0.0719179 0.0716585 0.0712637 0.0707334 0.0700518 0.0692026 0.0681859 0.0670018 0.0656501 0.064131 0.0624444 0.0605902 0.0585945 0.056483 0.0542558 0.0519129 0.0494542 0.0468798 0.0441896 0.0413837 0.0385328 0.0357078 0.0329086 0.0301353 0.0273877 0.024666 0.0219702 0.0193002 0.0167414 0.0143792 0.0122137 0.0102448 0.00847263 0.00689706 0.00551813 0.00433585 0.00331963 0.00243892 0.00169369 0.00108396 0.000609729 0.000270991 6.77476e-05 0 0 4.4232e-05 0.000176928 0.000398088 0.000707712 0.0011058 0.00159235 0.00216737 0.00283085 0.00361015 0.00453265 0.00559835 0.00680723 0.0081593 0.00965457 0.011293 0.0130747 0.0149448 0.0168488 0.0187866 0.0207582 0.0227635 0.0248028 0.0268758 0.0289826 0.0310746 0.0331031 0.0350682 0.0369698 0.0388079 0.0405826 0.0422938 0.0439415 0.0455124 0.0469932 0.048384 0.0496847 0.0508952 0.0520157 0.0530461 0.0539864 0.0548558 0.0556736 0.0564397 0.0571542 0.0578169 0.0584281 0.0589875 0.0594953 0.0599831 0.0604824 0.0609932 0.0615156 0.0620494 0.0625949 0.0631519 0.0637204 0.0643177 0.0649613 0.065651 0.0663869 0.067169 0.0679972 0.0688717 0.0697923 0.0707448 0.0717149 0.0727027 0.0737081 0.0747312 0.0757719 0.0768302 0.0779061 0.0789575 0.079942 0.0808596 0.0817105 0.0824945 0.0832116 0.083862 0.0844455 0.084916 0.0852275 0.0853799 0.0853733 0.0852076 0.0848828 0.0843989 0.083756 0.0829354 0.0819184 0.0807052 0.0792956 0.0776897 0.0758875 0.073889 0.0716942 0.0693335 0.0668374 0.0642058 0.0614388 0.0585364 0.0554986 0.0523253 0.0490166 0.0456549 0.0423229 0.0390205 0.0357477 0.0325045 0.0292909 0.026107 0.0229526 0.0199281 0.0171336 0.0145691 0.0122347 0.0101303 0.00825592 0.00661156 0.00519724 0.00397914 0.00292345 0.00203017 0.00129931 0.000730862 0.000324827 8.12069e-05 0 0 5.30479e-05 0.000212192 0.000477431 0.000848766 0.0013262 0.00190972 0.00259935 0.00339506 0.00432728 0.00542639 0.00669239 0.0081253 0.00972509 0.0114918 0.0134254 0.0155259 0.0177292 0.0199714 0.0222525 0.0245724 0.0269312 0.0293288 0.0317653 0.0342407 0.0366985 0.0390824 0.0413925 0.0436286 0.0457909 0.0478793 0.0498937 0.0518343 0.0536853 0.0554311 0.0570715 0.0586068 0.0600368 0.0613615 0.0625809 0.0636951 0.0647261 0.065696 0.0666047 0.0674524 0.0682389 0.0689642 0.0696285 0.0702316 0.0708101 0.0714006 0.0720031 0.0726176 0.073244 0.0738825 0.0745329 0.0751953 0.0758899 0.0766366 0.0774356 0.0782868 0.0791903 0.0801459 0.0811538 0.082214 0.0833099 0.0844252 0.08556 0.0867141 0.0878875 0.0890804 0.0902927 0.0915244 0.0927266 0.0938507 0.0948967 0.0958644 0.096754 0.0975655 0.0982988 0.0989539 0.0994776 0.0998166 0.099971 0.0999407 0.0997258 0.0993262 0.098742 0.0979731 0.0969981 0.0957958 0.0943661 0.092709 0.0908246 0.0887127 0.0863734 0.0838068 0.0810482 0.0781329 0.075061 0.0718325 0.0684474 0.0649056 0.0612072 0.0573522 0.0534357 0.0495527 0.0457033 0.0418874 0.0381051 0.0343563 0.0306411 0.0269594 0.0234275 0.0201614 0.0171614 0.0144272 0.011959 0.00975669 0.00782032 0.00614989 0.00470851 0.00345931 0.0024023 0.00153747 0.000864828 0.000384368 9.6092e-05 0 0 6.28127e-05 0.000251251 0.000565315 0.001005 0.00157032 0.00226126 0.00307782 0.00402001 0.00512127 0.00641501 0.00790126 0.00957999 0.0114512 0.013515 0.0157712 0.0182199 0.020787 0.0233983 0.0260538 0.0287535 0.0314974 0.0342855 0.0371179 0.0399944 0.0428505 0.0456215 0.0483073 0.050908 0.0534236 0.055854 0.0581993 0.0604594 0.0626162 0.0646512 0.0665646 0.0683563 0.0700263 0.0715747 0.0730013 0.0743063 0.0755147 0.0766516 0.077717 0.0787108 0.0796332 0.0804841 0.0812634 0.0819713 0.0826495 0.0833399 0.0840426 0.0847575 0.0854846 0.086224 0.0869756 0.0877394 0.0885386 0.0893962 0.0903124 0.0912871 0.0923203 0.093412 0.0945622 0.0957709 0.0970194 0.098289 0.0995797 0.100891 0.102224 0.103578 0.104953 0.10635 0.107711 0.108982 0.110163 0.111253 0.112253 0.113162 0.113981 0.114709 0.115286 0.115651 0.115804 0.115744 0.115473 0.114989 0.114293 0.113385 0.11224 0.110835 0.109169 0.107242 0.105055 0.102606 0.0998976 0.096928 0.0937384 0.0903695 0.0868213 0.0830938 0.079187 0.0751009 0.0708355 0.0663908 0.0618752 0.0573973 0.052957 0.0485544 0.0441895 0.0398621 0.0355725 0.0313204 0.0272394 0.0234627 0.0199904 0.0168224 0.0139587 0.0113994 0.00914442 0.0071938 0.00550775 0.00404651 0.00281008 0.00179845 0.00101163 0.000449612 0.000112403 0 0 7.35265e-05 0.000294106 0.000661739 0.00117642 0.00183816 0.00264695 0.0036028 0.0047057 0.00599212 0.00749853 0.00922493 0.0111713 0.0133377 0.0157241 0.0183305 0.0211568 0.0241181 0.0271293 0.0301904 0.0333013 0.0364621 0.0396728 0.0429334 0.0462439 0.0495307 0.0527203 0.0558127 0.0588079 0.0617059 0.0645068 0.0672104 0.0698168 0.072305 0.0746538 0.0768632 0.0789333 0.080864 0.0826554 0.0843074 0.08582 0.0872216 0.0885404 0.0897764 0.0909296 0.092 0.0929876 0.0938925 0.0947146 0.0955014 0.0963004 0.0971118 0.0979354 0.0987712 0.0996194 0.10048 0.101352 0.102264 0.10324 0.104281 0.105388 0.106559 0.107795 0.109097 0.110463 0.111873 0.113306 0.114762 0.11624 0.117742 0.119266 0.120812 0.122382 0.123911 0.125336 0.126658 0.127876 0.12899 0.130001 0.130908 0.131711 0.132342 0.132731 0.132878 0.132784 0.132448 0.13187 0.131051 0.129991 0.128661 0.127035 0.125113 0.122895 0.12038 0.117569 0.114462 0.111058 0.107404 0.103547 0.0994868 0.0952228 0.0907554 0.0860844 0.08121 0.0761321 0.0709734 0.0658566 0.0607817 0.0557487 0.0507576 0.0458084 0.0409011 0.0360357 0.0313639 0.0270374 0.0230561 0.0194201 0.0161294 0.013184 0.0105838 0.00832896 0.00637686 0.00468504 0.0032535 0.00208224 0.00117126 0.00052056 0.00013014 0 0 8.50075e-05 0.00034003 0.000765068 0.00136012 0.00212519 0.00306027 0.00416537 0.00544048 0.00692509 0.00865866 0.0106412 0.0128727 0.0153532 0.0180827 0.0210611 0.0242885 0.0276683 0.0311037 0.0345949 0.0381418 0.0417445 0.0454028 0.0491169 0.0528867 0.0566294 0.0602622 0.0637851 0.0671981 0.0705012 0.0736944 0.0767776 0.079751 0.0825904 0.0852717 0.087795 0.0901602 0.0923674 0.0944165 0.0963076 0.0980406 0.0996472 0.101159 0.102575 0.103897 0.105124 0.106256 0.107293 0.108235 0.109135 0.110047 0.110971 0.111907 0.112855 0.113815 0.114787 0.11577 0.116795 0.117892 0.119059 0.120299 0.121609 0.122991 0.124445 0.12597 0.127542 0.129139 0.13076 0.132406 0.134076 0.13577 0.137488 0.139231 0.140927 0.142506 0.143967 0.145311 0.146537 0.147646 0.148638 0.149512 0.150191 0.150599 0.150734 0.150598 0.15019 0.149509 0.148557 0.147332 0.145805 0.143946 0.141753 0.139227 0.136368 0.133177 0.129652 0.125795 0.121656 0.11729 0.112695 0.107872 0.10282 0.0975398 0.0920314 0.0862946 0.0804667 0.074685 0.0689495 0.0632603 0.0576172 0.0520204 0.0464697 0.0409653 0.0356779 0.030778 0.0262659 0.0221414 0.0184046 0.0150554 0.0120939 0.00952005 0.00728879 0.00535503 0.00371877 0.00238001 0.00133876 0.000595003 0.000148751 0 0 9.7074e-05 0.000388296 0.000873666 0.00155318 0.00242685 0.00349466 0.00475663 0.00621273 0.00790543 0.00987715 0.0121279 0.0146576 0.0174664 0.0205542 0.0239211 0.0275669 0.0313831 0.0352608 0.0392002 0.0432011 0.0472636 0.0513878 0.0555735 0.0598208 0.0640373 0.0681308 0.0721012 0.0759484 0.0796726 0.0832736 0.0867516 0.0901065 0.093311 0.0963381 0.0991876 0.10186 0.104354 0.106671 0.108811 0.110773 0.112592 0.114303 0.115907 0.117402 0.11879 0.120069 0.121241 0.122305 0.12332 0.124346 0.125382 0.12643 0.127488 0.128557 0.129637 0.130727 0.131862 0.133074 0.134363 0.13573 0.137174 0.138695 0.140294 0.14197 0.143697 0.145451 0.147229 0.149033 0.150863 0.152719 0.1546 0.156507 0.15836 0.160083 0.161675 0.163135 0.164464 0.165662 0.166729 0.167664 0.168383 0.1688 0.168914 0.168726 0.168235 0.167442 0.166347 0.16495 0.163217 0.161114 0.158641 0.1558 0.152588 0.149007 0.145057 0.140737 0.136105 0.131221 0.126083 0.120692 0.115048 0.109151 0.103 0.0965964 0.0900913 0.0836367 0.0772326 0.0708789 0.0645757 0.0583231 0.0521209 0.0459692 0.040058 0.0345772 0.0295269 0.024907 0.0207175 0.0169585 0.0136299 0.0107317 0.00821648 0.0060366 0.00419208 0.00268293 0.00150915 0.000670733 0.000167683 0 0 0.000109726 0.000438904 0.000987533 0.00175561 0.00274315 0.00395013 0.00537657 0.00702246 0.00893315 0.011154 0.013685 0.0165261 0.0196774 0.0231388 0.0269103 0.030992 0.0352626 0.0396006 0.0440061 0.0484791 0.0530196 0.0576276 0.062303 0.067046 0.0717544 0.0763259 0.0807607 0.0850588 0.08922 0.0932445 0.0971323 0.100883 0.104467 0.107853 0.111041 0.114032 0.116824 0.119419 0.121816 0.124016 0.126056 0.127974 0.12977 0.131444 0.132997 0.134428 0.135737 0.136924 0.138055 0.139196 0.140345 0.141503 0.14267 0.143846 0.145031 0.146225 0.147465 0.148787 0.150193 0.151682 0.153253 0.154907 0.156644 0.158464 0.160339 0.16224 0.164168 0.166123 0.168104 0.170113 0.172147 0.174209 0.176211 0.178069 0.179781 0.181349 0.182771 0.184048 0.185181 0.186168 0.186916 0.187332 0.187416 0.187167 0.186585 0.18567 0.184423 0.182844 0.180895 0.17854 0.175779 0.172612 0.169039 0.16506 0.160675 0.155884 0.150751 0.14534 0.139652 0.133685 0.12744 0.120917 0.114116 0.107038 0.0998473 0.0927117 0.0856308 0.0786047 0.0716333 0.0647166 0.0578546 0.0510474 0.0445043 0.0384349 0.0328391 0.0277168 0.0230682 0.0188932 0.0151918 0.011964 0.00915993 0.00672974 0.00467343 0.002991 0.00168244 0.000747749 0.000186937 0 0 0.000122963 0.000491853 0.00110667 0.00196741 0.00307408 0.00442668 0.0060252 0.00786965 0.0100082 0.0124892 0.0153124 0.018478 0.021986 0.0258363 0.0300289 0.0345639 0.0393067 0.044123 0.0490127 0.0539758 0.0590123 0.0641223 0.0693056 0.0745624 0.0797805 0.0848476 0.0897639 0.0945292 0.0991436 0.103607 0.10792 0.112081 0.116058 0.119816 0.123355 0.126676 0.129778 0.132661 0.135325 0.137771 0.140038 0.14217 0.144165 0.146024 0.147746 0.149332 0.150781 0.152094 0.153342 0.154597 0.155858 0.157126 0.1584 0.159681 0.160968 0.162262 0.163603 0.165032 0.166549 0.168154 0.169846 0.171627 0.173496 0.175452 0.177466 0.179508 0.181577 0.183674 0.185799 0.187951 0.190131 0.192338 0.19448 0.196463 0.198287 0.199952 0.201458 0.202805 0.203994 0.205023 0.205792 0.206198 0.206241 0.205921 0.205238 0.204193 0.202784 0.201013 0.19884 0.196224 0.193165 0.189664 0.185721 0.181335 0.176507 0.171237 0.165594 0.159648 0.1534 0.146849 0.139995 0.132839 0.12538 0.117618 0.109735 0.10191 0.0941444 0.0864376 0.0787897 0.0712008 0.0636709 0.0561999 0.0490169 0.0423511 0.0362025 0.030571 0.0254567 0.0208596 0.0167796 0.0132168 0.0101191 0.00743447 0.00516283 0.00330421 0.00185862 0.000826052 0.000206513 0 0 0.000136786 0.000547145 0.00123108 0.00218858 0.00341965 0.0049243 0.00670252 0.00875432 0.0111307 0.0138827 0.0170103 0.0205135 0.0243923 0.0286467 0.0332767 0.0382824 0.0435155 0.048828 0.0542199 0.0596912 0.0652418 0.0708719 0.0765813 0.0823701 0.0881158 0.0936959 0.0991106 0.10436 0.109443 0.114361 0.119114 0.123701 0.128085 0.132228 0.136131 0.139793 0.143215 0.146396 0.149337 0.152037 0.15454 0.156892 0.159092 0.161141 0.163037 0.164781 0.166374 0.167814 0.16918 0.17055 0.171923 0.173299 0.174679 0.176062 0.177449 0.178839 0.180277 0.181807 0.18343 0.185146 0.186954 0.188855 0.190848 0.192934 0.19508 0.197254 0.199457 0.201688 0.203947 0.206234 0.20855 0.210894 0.213166 0.215265 0.217191 0.218944 0.220525 0.221933 0.223168 0.22423 0.225009 0.225395 0.225388 0.224989 0.224196 0.22301 0.221431 0.219459 0.217052 0.214165 0.2108 0.206956 0.202634 0.197833 0.192553 0.186795 0.180634 0.174145 0.167329 0.160185 0.152715 0.144917 0.136791 0.128338 0.119754 0.111232 0.102773 0.0943776 0.0860452 0.0777759 0.0695697 0.0614266 0.0535957 0.0463258 0.0396171 0.0334695 0.027883 0.0228576 0.0183934 0.0144903 0.0110941 0.00815078 0.00566026 0.00362257 0.00203769 0.000905642 0.00022641 0 0 0.000151195 0.000604778 0.00136075 0.00241911 0.00377986 0.005443 0.00740853 0.00967645 0.0123005 0.0153346 0.0187785 0.0226325 0.0268963 0.0315701 0.0366539 0.0421476 0.047889 0.0537157 0.0596278 0.0656253 0.0717081 0.0778763 0.0841299 0.0904689 0.0967602 0.102871 0.108801 0.11455 0.120119 0.125507 0.130715 0.135741 0.140546 0.145088 0.149367 0.153382 0.157135 0.160624 0.163851 0.166814 0.169562 0.172141 0.174552 0.176795 0.178869 0.180776 0.182514 0.184084 0.185569 0.187055 0.188539 0.190023 0.191507 0.192991 0.194474 0.195956 0.197487 0.199114 0.200838 0.202659 0.204576 0.20659 0.208701 0.210909 0.213179 0.215478 0.217806 0.220163 0.222548 0.224962 0.227405 0.229877 0.232269 0.234475 0.236494 0.238326 0.239972 0.241431 0.242702 0.243788 0.244568 0.244925 0.244859 0.24437 0.243457 0.242122 0.240363 0.238181 0.23553 0.232365 0.228684 0.224489 0.219778 0.214553 0.208813 0.202558 0.19587 0.18883 0.181438 0.173693 0.165597 0.15715 0.14835 0.139198 0.129904 0.120677 0.111517 0.102425 0.0933996 0.0844417 0.0755511 0.0667277 0.0582406 0.050359 0.0430829 0.0364123 0.0303471 0.0248874 0.0200331 0.0157843 0.0120848 0.00887866 0.00616574 0.00394607 0.00221966 0.000986518 0.000246629 0 0 0.000166188 0.000664753 0.0014957 0.00265901 0.00415471 0.00598278 0.00814323 0.0106361 0.0135177 0.0168448 0.0206172 0.024835 0.0294981 0.0346065 0.0401604 0.0461595 0.0524271 0.058786 0.0652364 0.0717781 0.0784112 0.0851357 0.0919516 0.0988588 0.105714 0.112372 0.118835 0.125101 0.131171 0.137045 0.142722 0.148203 0.153443 0.158397 0.163064 0.167444 0.171539 0.175346 0.178868 0.182103 0.185102 0.187915 0.190544 0.192986 0.195244 0.197316 0.199202 0.200904 0.20251 0.204111 0.205707 0.207298 0.208884 0.210465 0.212042 0.213613 0.215232 0.216951 0.218771 0.220692 0.222713 0.224834 0.227056 0.229378 0.231765 0.234181 0.236626 0.2391 0.241603 0.244135 0.246696 0.249286 0.25179 0.254093 0.256196 0.258098 0.259799 0.261299 0.262598 0.263697 0.264469 0.264787 0.264652 0.264064 0.263023 0.261528 0.25958 0.257179 0.254276 0.250822 0.246817 0.242