<?xml version="1.0"?> 
<VTKFile type="StructuredGrid" version="0.1"> 
<StructuredGrid WholeExtent="0 128 0 128 0 0"> 
<Piece Extent="0 128 0 128 0 0"> 
<PointData>
<DataArray type="Float32" Name="u" format="ascii" NumberOfComponents="1"> 
0 0 0 0 0 0 0 0 0 0 0 0 0 0 0 0 0 0 0 0 0 0 0 0 0 0 0 0 0 0 0 0 0 0 0 0 0 0 0 0 0 0 0 0 0 0 0 0 0 0 0 0 0 0 0 0 0 0 0 0 0 0 0 0 0 0 0 0 0 0 0 0 0 0 0 0 0 0 0 0 0 0 0 0 0 0 0 0 0 0 0 0 0 0 0 0 0 0 0 0 0 0 0 0 0 0 0 0 0 0 0 0 0 0 0 0 0 0 0 0 0 0 0 0 0 0 0 0 0 0 2.77408e-07 1.10963e-06 2.49667e-06 4.43853e-06 6.9352e-06 9.98669e-06 1.3593e-05 1.77541e-05 2.26803e-05 2.85816e-05 3.54583e-05 4.33101e-05 5.21372e-05 6.19396e-05 7.27171e-05 8.447e-05 9.67776e-05 0.000109219 0.000121796 0.000134506 0.000147351 0.00016033 0.000173444 0.000186692 0.000199702 0.000212104 0.000223896 0.000235079 0.000245652 0.000255617 0.000264972 0.000273718 0.000281792 0.000289129 0.000295731 0.000301596 0.000306726 0.00031112 0.000314777 0.000317699 0.000320101 0.000322203 0.000324003 0.000325503 0.0003267 0.000327597 0.000328192 0.000328487 0.000328798 0.000329443 0.000330424 0.000331739 0.00033339 0.000335375 0.000337695 0.00034035 0.000343515 0.000347368 0.000351908 0.000357135 0.000363049 0.00036965 0.000376938 0.000384914 0.00039345 0.00040242 0.000411825 0.000421665 0.00043194 0.000442648 0.000453792 0.00046537 0.000476985 0.000488241 0.000499136 0.000509672 0.000519847 0.000529663 0.000539119 0.000548215 0.000556503 0.000563536 0.000569315 0.000573838 0.000577106 0.000579118 0.000579876 0.000579379 0.000577415 0.000573774 0.000568456 0.00056146 0.000552787 0.000542437 0.000530409 0.000516704 0.00050154 0.000485137 0.000467494 0.000448612 0.00042849 0.000407129 0.000384528 0.000360688 0.000336288 0.000312009 0.000287852 0.000263815 0.0002399 0.000216105 0.000192431 0.000168879 0.00014627 0.000125427 0.00010635 8.90388e-05 7.34939e-05 5.9715e-05 4.77021e-05 3.74553e-05 2.86767e-05 2.10686e-05 1.4631e-05 9.36382e-06 5.26715e-06 2.34095e-06 5.85238e-07 0 0 1.10963e-06 4.43853e-06 9.98669e-06 1.77541e-05 2.77408e-05 3.99467e-05 5.4372e-05 7.10164e-05 9.0721e-05 0.000114327 0.000141833 0.000173241 0.000208549 0.000247758 0.000290869 0.00033788 0.00038711 0.000436878 0.000487183 0.000538025 0.000589405 0.000641322 0.000693776 0.000746767 0.000798809 0.000848414 0.000895583 0.000940314 0.000982609 0.00102247 0.00105989 0.00109487 0.00112717 0.00115652 0.00118292 0.00120639 0.0012269 0.00124448 0.00125911 0.00127079 0.00128041 0.00128881 0.00129601 0.00130201 0.0013068 0.00131039 0.00131277 0.00131395 0.00131519 0.00131777 0.0013217 0.00132696 0.00133356 0.0013415 0.00135078 0.0013614 0.00137406 0.00138947 0.00140763 0.00142854 0.0014522 0.0014786 0.00150775 0.00153965 0.0015738 0.00160968 0.0016473 0.00168666 0.00172776 0.00177059 0.00181517 0.00186148 0.00190794 0.00195296 0.00199654 0.00203869 0.00207939 0.00211865 0.00215648 0.00219286 0.00222601 0.00225415 0.00227726 0.00229535 0.00230842 0.00231647 0.0023195 0.00231751 0.00230966 0.0022951 0.00227382 0.00224584 0.00221115 0.00216975 0.00212163 0.00206681 0.00200616 0.00194055 0.00186998 0.00179445 0.00171396 0.00162852 0.00153811 0.00144275 0.00134515 0.00124804 0.00115141 0.00105526 0.000959599 0.00086442 0.000769726 0.000675515 0.000585079 0.000501707 0.000425399 0.000356155 0.000293975 0.00023886 0.000190808 0.000149821 0.000114707 8.42743e-05 5.85238e-05 3.74553e-05 2.10686e-05 9.36382e-06 2.34095e-06 0 0 2.49667e-06 9.98669e-06 2.247e-05 3.99467e-05 6.24168e-05 8.98802e-05 0.000122337 0.000159787 0.000204122 0.000257235 0.000319124 0.000389791 0.000469235 0.000557456 0.000654454 0.00076023 0.000870998 0.000982975 0.00109616 0.00121056 0.00132616 0.00144297 0.001561 0.00168023 0.00179732 0.00190893 0.00201506 0.00211571 0.00221087 0.00230055 0.00238475 0.00246346 0.00253613 0.00260216 0.00266158 0.00271437 0.00276053 0.00280008 0.00283299 0.00285929 0.00288091 0.00289983 0.00291603 0.00292952 0.0029403 0.00294837 0.00295373 0.00295638 0.00295918 0.00296499 0.00297382 0.00298566 0.00300051 0.00301837 0.00303925 0.00306315 0.00309164 0.00312631 0.00316717 0.00321422 0.00326744 0.00332685 0.00339245 0.00346422 0.00354105 0.00362178 0.00370643 0.00379499 0.00388746 0.00398384 0.00408413 0.00418833 0.00429287 0.00439417 0.00449222 0.00458704 0.00467863 0.00476697 0.00485207 0.00493393 0.00500853 0.00507183 0.00512383 0.00516454 0.00519395 0.00521207 0.00521888 0.00521441 0.00519674 0.00516397 0.0051161 0.00505314 0.00497508 0.00488193 0.00477368 0.00465033 0.00451386 0.00436623 0.00420745 0.00403751 0.00385641 0.00366416 0.00346075 0.00324619 0.00302659 0.00280809 0.00259067 0.00237434 0.0021591 0.00194495 0.00173188 0.00151991 0.00131643 0.00112884 0.000957148 0.000801349 0.000661445 0.000537435 0.000429319 0.000337097 0.00025809 0.000189617 0.000131679 8.42743e-05 4.74043e-05 2.10686e-05 5.26715e-06 0 0 4.43853e-06 1.77541e-05 3.99467e-05 7.10164e-05 0.000110963 0.000159787 0.000217488 0.000284066 0.000362884 0.000457306 0.000567332 0.000692962 0.000834196 0.000991033 0.00116347 0.00135152 0.00154844 0.00174751 0.00194873 0.0021521 0.00235762 0.00256529 0.0027751 0.00298707 0.00319524 0.00339366 0.00358233 0.00376126 0.00393044 0.00408987 0.00423955 0.00437949 0.00450867 0.00462607 0.0047317 0.00482554 0.00490762 0.00497791 0.00503643 0.00508318 0.00512162 0.00515525 0.00518405 0.00520804 0.00522721 0.00524155 0.00525108 0.00525579 0.00526076 0.00527109 0.00528678 0.00530783 0.00533424 0.005366 0.00540312 0.00544559 0.00549625 0.00555789 0.00563053 0.00571416 0.00580878 0.0059144 0.00603101 0.00615862 0.00629519 0.00643872 0.00658921 0.00674664 0.00691103 0.00708237 0.00726067 0.00744592 0.00763176 0.00781185 0.00798618 0.00815475 0.00831756 0.00847461 0.0086259 0.00877144 0.00890405 0.00901658 0.00910903 0.0091814 0.00923369 0.00926589 0.00927802 0.00927006 0.00923864 0.00918039 0.00909529 0.00898336 0.00884459 0.00867898 0.00848654 0.00826726 0.00802464 0.00776219 0.00747991 0.00717779 0.00685584 0.00651406 0.00615245 0.005771 0.00538061 0.00499215 0.00460563 0.00422104 0.00383839 0.00345768 0.0030789 0.00270206 0.00234032 0.00200683 0.0017016 0.00142462 0.0011759 0.000955439 0.000763233 0.000599284 0.000458827 0.000337097 0.000234095 0.000149821 8.42743e-05 3.74553e-05 9.36382e-06 0 0 6.9352e-06 2.77408e-05 6.24168e-05 0.000110963 0.00017338 0.000249667 0.000339825 0.000443853 0.000567006 0.000714541 0.000886457 0.00108275 0.00130343 0.00154849 0.00181793 0.00211175 0.00241944 0.00273049 0.00304489 0.00336266 0.00368378 0.00400826 0.0043361 0.0046673 0.00499256 0.00530259 0.00559739 0.00587696 0.00614131 0.00639042 0.0066243 0.00684296 0.0070448 0.00722824 0.00739327 0.00753991 0.00766815 0.00777799 0.00786943 0.00794246 0.00800254 0.00805508 0.00810009 0.00813756 0.00816751 0.00818993 0.00820481 0.00821217 0.00821994 0.00823608 0.0082606 0.00829349 0.00833474 0.00838437 0.00844237 0.00850874 0.00858788 0.0086842 0.0087977 0.00892838 0.00907623 0.00924125 0.00942346 0.00962284 0.00983624 0.0100605 0.0102956 0.0105416 0.0107985 0.0110662 0.0113448 0.0116342 0.0119246 0.012206 0.0124784 0.0127418 0.0129962 0.0132416 0.013478 0.0137054 0.0139126 0.0140884 0.0142329 0.0143459 0.0144276 0.014478 0.0144969 0.0144845 0.0144354 0.0143444 0.0142114 0.0140365 0.0138197 0.0135609 0.0132602 0.0129176 0.0125385 0.0121284 0.0116874 0.0112153 0.0107123 0.0101782 0.0096132 0.00901719 0.0084072 0.00780024 0.0071963 0.00659538 0.00599749 0.00540263 0.00481079 0.00422197 0.00365674 0.00313567 0.00265874 0.00222597 0.00183735 0.00149287 0.00119255 0.000936382 0.000716917 0.000526715 0.000365774 0.000234095 0.000131679 5.85238e-05 1.4631e-05 0 0 9.98669e-06 3.99467e-05 8.98802e-05 0.000159787 0.000249667 0.000359521 0.000489348 0.000639148 0.000816489 0.00102894 0.0012765 0.00155916 0.00187694 0.00222982 0.00261782 0.00304092 0.00348399 0.0039319 0.00438465 0.00484223 0.00530464 0.0057719 0.00624398 0.00672091 0.00718928 0.00763573 0.00806024 0.00846283 0.00884348 0.0092022 0.009539 0.00985386 0.0101445 0.0104087 0.0106463 0.0108575 0.0110421 0.0112003 0.011332 0.0114371 0.0115237 0.0115993 0.0116641 0.0117181 0.0117612 0.0117935 0.0118149 0.0118255 0.0118367 0.01186 0.0118953 0.0119426 0.012002 0.0120735 0.012157 0.0122526 0.0123666 0.0125053 0.0126687 0.0128569 0.0130698 0.0133074 0.0135698 0.0138569 0.0141642 0.0144871 0.0148257 0.0151799 0.0155498 0.0159353 0.0163365 0.0167533 0.0171715 0.0175767 0.0179689 0.0183482 0.0187145 0.0190679 0.0194083 0.0197357 0.0200341 0.0202873 0.0204953 0.0206582 0.0207758 0.0208483 0.0208755 0.0208576 0.0207869 0.0206559 0.0204644 0.0202126 0.0199003 0.0195277 0.0190947 0.0186013 0.0180554 0.0174649 0.0168298 0.01615 0.0154256 0.0146566 0.013843 0.0129848 0.0121064 0.0112323 0.0103627 0.00949735 0.00863639 0.00777978 0.00692753 0.00607964 0.00526571 0.00451536 0.00382859 0.0032054 0.00264578 0.00214974 0.00171728 0.00134839 0.00103236 0.000758469 0.000526715 0.000337097 0.000189617 8.42743e-05 2.10686e-05 0 0 1.3593e-05 5.4372e-05 0.000122337 0.000217488 0.000339825 0.000489348 0.000666057 0.000869951 0.00111133 0.0014005 0.00173746 0.0021222 0.00255472 0.00303504 0.00356314 0.00413903 0.0047421 0.00535175 0.00596799 0.00659081 0.00722021 0.00785619 0.00849876 0.0091479 0.00978541 0.0103931 0.0109709 0.0115188 0.012037 0.0125252 0.0129836 0.0134122 0.0138078 0.0141673 0.0144908 0.0147782 0.0150296 0.0152449 0.0154241 0.0155672 0.015685 0.0157879 0.0158762 0.0159496 0.0160083 0.0160523 0.0160814 0.0160958 0.0161111 0.0161427 0.0161908 0.0162552 0.0163361 0.0164334 0.016547 0.0166771 0.0168323 0.017021 0.0172435 0.0174996 0.0177894 0.0181129 0.01847 0.0188608 0.019279 0.0197186 0.0201794 0.0206616 0.021165 0.0216898 0.0222358 0.0228031 0.0233723 0.0239238 0.0244577 0.0249739 0.0254725 0.0259535 0.0264168 0.0268625 0.0272687 0.0276133 0.0278964 0.028118 0.0282782 0.0283768 0.0284139 0.0283896 0.0282933 0.0281149 0.0278543 0.0275115 0.0270866 0.0265794 0.02599 0.0253185 0.0245755 0.0237717 0.0229072 0.021982 0.020996 0.0199493 0.0188419 0.0176737 0.0164781 0.0152885 0.0141047 0.0129269 0.0117551 0.0105891 0.00942914 0.00827506 0.00716722 0.00614591 0.00521114 0.0043629 0.0036012 0.00292603 0.0023374 0.00183531 0.00140516 0.00103236 0.000716917 0.000458827 0.00025809 0.000114707 2.86767e-05 0 0 1.77541e-05 7.10164e-05 0.000159787 0.000284066 0.000443853 0.000639148 0.000869951 0.00113626 0.00145154 0.00182923 0.00226933 0.00277185 0.00333678 0.00396413 0.0046539 0.00540608 0.00619376 0.00699005 0.00779493 0.0086084 0.00943048 0.0102611 0.0111004 0.0119483 0.0127809 0.0135746 0.0143293 0.015045 0.0157217 0.0163595 0.0169582 0.017518 0.0180347 0.0185043 0.0189268 0.0193022 0.0196305 0.0199117 0.0201457 0.0203327 0.0204865 0.020621 0.0207362 0.0208322 0.0209088 0.0209662 0.0210043 0.0210231 0.021043 0.0210844 0.0211471 0.0212313 0.0213369 0.021464 0.0216125 0.0217824 0.021985 0.0222316 0.0225221 0.0228566 0.0232351 0.0236576 0.0241241 0.0246345 0.0251808 0.0257549 0.0263568 0.0269866 0.0276441 0.0283295 0.0290427 0.0297837 0.0305271 0.0312474 0.0319447 0.032619 0.0332702 0.0338984 0.0345036 0.0350857 0.0356162 0.0360663 0.0364361 0.0367256 0.0369348 0.0370636 0.0371121 0.0370802 0.0369546 0.0367215 0.0363812 0.0359334 0.0353784 0.0347159 0.0339462 0.033069 0.0320986 0.0310488 0.0299196 0.0287112 0.0274234 0.0260563 0.0246098 0.023084 0.0215224 0.0199686 0.0184225 0.0168842 0.0153536 0.0138307 0.0123156 0.0108082 0.00936127 0.00802731 0.00680638 0.00569848 0.00470361 0.00382176 0.00305293 0.00239714 0.00183531 0.00134839 0.000936382 0.000599284 0.000337097 0.000149821 3.74553e-05 0 0 2.27813e-05 9.11254e-05 0.000205032 0.000364502 0.000569534 0.000820129 0.00111629 0.00145801 0.00186207 0.00234527 0.00290759 0.00354904 0.00426962 0.00506933 0.00594816 0.00690613 0.00790905 0.00892275 0.00994722 0.0109825 0.0120285 0.0130853 0.0141529 0.0152313 0.0162904 0.0173 0.0182602 0.0191709 0.0200322 0.0208441 0.0216066 0.0223196 0.022978 0.0235766 0.0241155 0.0245945 0.0250138 0.0253734 0.0256731 0.0259131 0.0261108 0.026284 0.0264326 0.0265565 0.0266558 0.0267305 0.0267806 0.0268061 0.0268328 0.0268863 0.0269667 0.0270741 0.0272083 0.0273695 0.0275575 0.0277724 0.0280286 0.0283401 0.0287072 0.0291297 0.0296076 0.0301411 0.0307299 0.0313743 0.0320639 0.0327885 0.0335482 0.034343 0.0351729 0.0360378 0.0369378 0.0378728 0.0388107 0.0397195 0.040599 0.0414493 0.0422704 0.0430623 0.043825 0.0445584 0.0452264 0.0457928 0.0462575 0.0466206 0.046882 0.0470417 0.0470998 0.0470563 0.046894 0.046596 0.0461621 0.0455924 0.0448869 0.0440457 0.0430686 0.0419557 0.0407248 0.0393935 0.0379619 0.0364299 0.0347976 0.0330649 0.0312319 0.0292986 0.0273199 0.0253508 0.0233913 0.0214414 0.0195011 0.0175705 0.0156494 0.013738 0.0119028 0.0102104 0.00866088 0.00725418 0.00599031 0.00486928 0.00389109 0.00305574 0.00233955 0.00171885 0.00119365 0.000763935 0.000429713 0.000190984 4.77459e-05 0 0 2.8986e-05 0.000115944 0.000260874 0.000463776 0.00072465 0.0010435 0.00142031 0.0018551 0.00236791 0.00297878 0.0036877 0.00449469 0.00539974 0.00640285 0.00750401 0.00870324 0.00995802 0.0112258 0.0125067 0.0138005 0.0151074 0.0164273 0.0177603 0.0191063 0.0204282 0.0216887 0.0228881 0.0240261 0.0251028 0.0261183 0.0270725 0.0279654 0.0287905 0.0295414 0.0302181 0.0308205 0.0313487 0.0318026 0.0321823 0.0324878 0.0327407 0.0329626 0.0331535 0.0333134 0.0334424 0.0335404 0.0336075 0.0336436 0.0336804 0.0337499 0.033852 0.0339867 0.034154 0.0343539 0.0345864 0.0348515 0.0351668 0.0355501 0.0360013 0.0365205 0.0371076 0.0377626 0.0384855 0.0392764 0.0401227 0.0410119 0.0419441 0.0429191 0.043937 0.0449979 0.0461016 0.0472483 0.0483983 0.0495121 0.0505896 0.0516309 0.0526359 0.0536047 0.0545373 0.0554336 0.0562491 0.0569391 0.0575036 0.0579427 0.0582563 0.0584445 0.0585072 0.0584444 0.0582351 0.0578584 0.0573143 0.0566026 0.0557235 0.0546769 0.0534628 0.0520813 0.0505542 0.0489033 0.0471288 0.0452305 0.0432085 0.0410628 0.0387934 0.0364003 0.033951 0.031513 0.0290863 0.026671 0.0242671 0.0218744 0.0194931 0.0171232 0.0148467 0.0127461 0.0108212 0.00907201 0.00749862 0.00610098 0.0048791 0.00383298 0.00293462 0.00215605 0.00149726 0.000958245 0.000539013 0.000239561 5.98903e-05 0 0 3.63681e-05 0.000145472 0.000327313 0.00058189 0.000909202 0.00130925 0.00178204 0.00232756 0.00296905 0.00372976 0.00460968 0.0056088 0.00672714 0.00796469 0.00932145 0.0107974 0.0123407 0.0138993 0.0154732 0.0170625 0.0186672 0.0202872 0.0219225 0.0235732 0.0251943 0.0267409 0.028213 0.0296105 0.0309335 0.032182 0.033356 0.0344554 0.0354723 0.0363987 0.0372347 0.0379801 0.0386351 0.0391995 0.0396735 0.0400569 0.040376 0.0406567 0.040899 0.041103 0.0412686 0.0413959 0.0414848 0.0415354 0.041586 0.0416752 0.0418029 0.0419692 0.0421739 0.0424172 0.0426991 0.0430194 0.0433997 0.0438614 0.0444045 0.045029 0.0457349 0.0465222 0.0473909 0.0483409 0.0493574 0.0504252 0.0515443 0.0527148 0.0539366 0.0552098 0.0565344 0.0579102 0.0592897 0.0606251 0.0619164 0.0631636 0.0643667 0.0655256 0.0666405 0.0677112 0.0686841 0.0695051 0.0701744 0.0706919 0.0710577 0.0712717 0.071334 0.0712445 0.0709779 0.070509 0.0698377 0.068964 0.067888 0.0666096 0.0651289 0.0634458 0.0615867 0.0595783 0.0574204 0.055113 0.0526562 0.05005 0.0472943 0.0443891 0.0414157 0.0384552 0.0355077 0.032573 0.0296513 0.0267425 0.0238467 0.0209637 0.0181931 0.0156343 0.0132872 0.011152 0.00922853 0.00751686 0.00601696 0.00472886 0.00362053 0.00265998 0.00184721 0.00118221 0.000664995 0.000295554 7.38884e-05 0 0 4.49276e-05 0.00017971 0.000404348 0.000718842 0.00112319 0.00161739 0.00220145 0.00287537 0.0036655 0.00459821 0.0056735 0.00689137 0.00825182 0.00975486 0.0114005 0.0131887 0.015057 0.0169431 0.0188469 0.0207685 0.0227078 0.0246648 0.0266396 0.0286321 0.0305889 0.0324565 0.0342349 0.0359242 0.0375243 0.0390352 0.040457 0.0417896 0.0430234 0.0441486 0.0451652 0.0460733 0.0468729 0.047564 0.0481465 0.0486204 0.0490167 0.0493663 0.0496691 0.0499251 0.0501344 0.0502969 0.0504126 0.0504816 0.0505496 0.0506622 0.0508195 0.0510215 0.0512682 0.0515595 0.0518956 0.0522763 0.0527273 0.0532741 0.0539168 0.0546553 0.0554897 0.0564199 0.0574459 0.0585678 0.0597678 0.0610282 0.0623489 0.0637301 0.0651716 0.0666736 0.0682359 0.0698586 0.071485 0.0730587 0.0745795 0.0760476 0.0774627 0.0788251 0.0801347 0.0813914 0.0825314 0.0834909 0.0842699 0.0848683 0.0852862 0.0855235 0.0855803 0.0854566 0.0851223 0.0845476 0.0837324 0.0826767 0.0813805 0.0798439 0.0780667 0.0760491 0.0738225 0.0714183 0.0688366 0.0660774 0.0631406 0.0600263 0.0567345 0.0532651 0.0497141 0.0461775 0.0426553 0.0391474 0.0356539 0.0321748 0.02871 0.0252596 0.0219419 0.018875 0.0160591 0.0134941 0.0111801 0.0091169 0.00730468 0.00574337 0.00439727 0.00323065 0.0022435 0.00143584 0.000807662 0.000358961 8.97402e-05 0 0 5.46645e-05 0.000218658 0.000491981 0.000874633 0.00136661 0.00196792 0.00267856 0.00349853 0.00445725 0.00558413 0.00687918 0.0083424 0.00997379 0.0117733 0.0137411 0.015877 0.018107 0.0203573 0.0226277 0.0249184 0.0272292 0.0295602 0.0319115 0.0342829 0.0366118 0.0388354 0.0409539 0.0429672 0.0448752 0.046678 0.0483756 0.049968 0.0514437 0.0527909 0.0540097 0.0551002 0.0560623 0.056896 0.0576014 0.0581783 0.058663 0.0590915 0.0594638 0.0597798 0.0600397 0.0602435 0.060391 0.0604823 0.060571 0.0607109 0.0609017 0.0611437 0.0614367 0.0617808 0.0621759 0.0626222 0.0631495 0.0637882 0.0645381 0.0653994 0.0663719 0.0674556 0.0686507 0.069957 0.071354 0.072821 0.074358 0.075965 0.0776421 0.0793891 0.0812062 0.0830933 0.0849842 0.0868128 0.0885789 0.0902827 0.0919241 0.0935031 0.0950198 0.096474 0.0977912 0.0988965 0.0997901 0.100472 0.100942 0.1012 0.101246 0.101081 0.100668 0.0999743 0.0989983 0.0977406 0.096201 0.0943796 0.0922764 0.0898913 0.0872614 0.0844234 0.0813775 0.0781236 0.0746618 0.0709919 0.067114 0.0630282 0.0588462 0.0546799 0.0505292 0.0463942 0.0422749 0.0381713 0.0340833 0.030011 0.0260931 0.0224683 0.0191368 0.0160984 0.0133532 0.0109011 0.00874224 0.00687652 0.00526484 0.00386804 0.00268614 0.00171913 0.000967011 0.000429783 0.000107446 0 0 6.55789e-05 0.000262316 0.00059021 0.00104926 0.00163947 0.00236084 0.00321337 0.00419705 0.0053443 0.00668752 0.00822672 0.00996189 0.011893 0.0140202 0.0163433 0.0188623 0.0214907 0.0241419 0.0268157 0.0295123 0.0322315 0.0349735 0.0377382 0.0405256 0.043263 0.0458778 0.0483699 0.0507394 0.0529862 0.0551103 0.0571118 0.0589907 0.0607332 0.0623257 0.0637682 0.0650607 0.0662032 0.0671956 0.0680381 0.0687306 0.0693147 0.0698322 0.070283 0.0706672 0.0709847 0.0712356 0.0714198 0.0715374 0.0716504 0.0718212 0.0720496 0.0723357 0.0726795 0.073081 0.0735401 0.074057 0.0746665 0.0754037 0.0762686 0.0772612 0.0783815 0.0796295 0.0810052 0.0825086 0.084116 0.0858036 0.0875714 0.0894196 0.0913479 0.0933565 0.0954453 0.0976144 0.0997873 0.101887 0.103915 0.105869 0.107751 0.10956 0.111296 0.112959 0.114463 0.115722 0.116735 0.117502 0.118024 0.118301 0.118332 0.118117 0.117616 0.116789 0.115636 0.114156 0.112349 0.110217 0.107758 0.104972 0.101903 0.0985937 0.0950431 0.0912518 0.0872196 0.0829467 0.078433 0.0736784 0.0688119 0.0639622 0.0591294 0.0543134 0.0495142 0.0447319 0.0399664 0.0352177 0.0306467 0.0264142 0.0225202 0.0189648 0.0157479 0.0128695 0.0103297 0.00812831 0.00622324 0.00457218 0.00317512 0.00203208 0.00114304 0.000508019 0.000127005 0 0 7.76707e-05 0.000310683 0.000699036 0.00124273 0.00194177 0.00279614 0.00380586 0.00497092 0.00632665 0.00790838 0.00971611 0.0117498 0.0140096 0.0164953 0.019207 0.0221448 0.0252081 0.0282968 0.0314108 0.0345501 0.0377147 0.0409046 0.0441198 0.0473603 0.0505427 0.0535836 0.056483 0.0592409 0.0618573 0.0643322 0.0666656 0.0688575 0.070892 0.072753 0.0744406 0.0759548 0.0772955 0.0784628 0.0794567 0.0802772 0.0809719 0.0815884 0.0821268 0.0825871 0.0829693 0.0832733 0.0834991 0.0836469 0.0837878 0.0839932 0.0842632 0.0845976 0.0849966 0.0854601 0.0859882 0.0865807 0.087278 0.0881205 0.0891081 0.0902407 0.0915185 0.0929414 0.0945094 0.0962225 0.0980537 0.099976 0.101989 0.104094 0.106289 0.108576 0.110953 0.113422 0.115894 0.118282 0.120586 0.122807 0.124943 0.126995 0.128963 0.130847 0.132548 0.133967 0.135105 0.13596 0.136534 0.136826 0.136836 0.136565 0.135965 0.134992 0.133644 0.131922 0.129826 0.127356 0.124511 0.121292 0.117749 0.113929 0.109833 0.105462 0.100814 0.0958907 0.0906912 0.0852158 0.0796113 0.0740247 0.0684559 0.062905 0.0573719 0.0518567 0.0463593 0.0408798 0.0356027 0.0307126 0.0262095 0.0220934 0.0183642 0.0150221 0.0120669 0.00949874 0.00727247 0.00534304 0.00371044 0.00237468 0.00133576 0.000593671 0.000148418 0 0 9.09399e-05 0.000363759 0.000818459 0.00145504 0.0022735 0.00327384 0.00445605 0.00582015 0.00740431 0.00924671 0.0113474 0.0137062 0.0163234 0.0191988 0.0223324 0.0257242 0.0292592 0.0328221 0.036413 0.0400319 0.0436787 0.0473534 0.0510562 0.0547869 0.0584507 0.0619527 0.0652931 0.0684716 0.0714885 0.0743436 0.077037 0.0795686 0.08192 0.0840728 0.086027 0.0877825 0.0893394 0.0906976 0.0918572 0.0928182 0.0936345 0.0943602 0.0949953 0.0955396 0.0959934 0.0963565 0.096629 0.0968108 0.0969831 0.0972269 0.0975424 0.0979294 0.098388 0.0989182 0.09952 0.100193 0.100984 0.101939 0.103057 0.104338 0.105783 0.107391 0.109163 0.111099 0.113167 0.115338 0.117612 0.119987 0.122466 0.125047 0.12773 0.130516 0.133305 0.135998 0.138595 0.141095 0.1435 0.145808 0.148021 0.150137 0.152045 0.153632 0.154899 0.155845 0.156471 0.156776 0.156761 0.156425 0.155716 0.154583 0.153024 0.15104 0.14863 0.145796 0.142536 0.138851 0.134797 0.130429 0.125748 0.120754 0.115446 0.109824 0.103889 0.0976403 0.0912443 0.0848671 0.0785086 0.0721689 0.0658479 0.0595456 0.0532621 0.0469973 0.0409612 0.0353636 0.0302045 0.0254841 0.0212022 0.0173588 0.013954 0.0109878 0.00841254 0.00618064 0.00429211 0.00274695 0.00154516 0.000686738 0.000171684 0 0 0.000105174 0.000420695 0.000946564 0.00168278 0.00262935 0.00378626 0.00515352 0.00673112 0.00856002 0.0106812 0.0130945 0.0158001 0.018798 0.0220881 0.0256704 0.0295449 0.0335809 0.0376475 0.0417446 0.0458723 0.0500306 0.0542195 0.058439 0.0626891 0.0668629 0.0708537 0.0746614 0.078286 0.0817275 0.084986 0.0880614 0.0909537 0.0936419 0.0961048 0.0983423 0.100355 0.102142 0.103703 0.10504 0.106151 0.107097 0.10794 0.108678 0.109311 0.109841 0.110267 0.110588 0.110805 0.111009 0.111292 0.111653 0.112092 0.11261 0.113206 0.113881 0.114634 0.115517 0.116582 0.11783 0.11926 0.120872 0.122666 0.124643 0.126802 0.129109 0.13153 0.134065 0.136715 0.139478 0.142356 0.145349 0.148455 0.151564 0.154564 0.157456 0.16024 0.162915 0.165481 0.167939 0.170288 0.172403 0.174158 0.175552 0.176585 0.177259 0.177572 0.177524 0.177116 0.17629 0.174985 0.173203 0.170943 0.168205 0.16499 0.161297 0.157126 0.15254 0.147602 0.142312 0.13667 0.130675 0.124329 0.11763 0.110579 0.103361 0.096163 0.0889843 0.0818251 0.0746854 0.0675651 0.0604642 0.0533828 0.046557 0.040223 0.0343809 0.0290306 0.0241722 0.0198056 0.0159309 0.012548 0.00960702 0.00705822 0.00490154 0.00313699 0.00176456 0.000784247 0.000196062 0 0 0.00012016 0.000480639 0.00108144 0.00192256 0.003004 0.00432575 0.00588783 0.00769023 0.00977654 0.0121904 0.0149317 0.0180005 0.0213969 0.0251207 0.0291721 0.033551 0.0381102 0.0427024 0.0473278 0.0519862 0.0566777 0.0614022 0.0661599 0.0709506 0.0756553 0.0801548 0.0844491 0.0885382 0.0924222 0.0961009 0.0995745 0.102843 0.105882 0.108668 0.111202 0.113482 0.115509 0.117283 0.118804 0.120073 0.121155 0.122118 0.122963 0.123689 0.124296 0.124785 0.125154 0.125405 0.125639 0.125957 0.12636 0.126847 0.127418 0.128074 0.128815 0.12964 0.130607 0.131775 0.133144 0.134713 0.136483 0.138453 0.140624 0.142995 0.14553 0.148191 0.150977 0.153889 0.156928 0.160092 0.163381 0.166797 0.170215 0.173513 0.176689 0.179745 0.18268 0.185494 0.188188 0.19076 0.193073 0.194985 0.196497 0.197609 0.198321 0.198633 0.198546 0.198058 0.197105 0.195622 0.193609 0.191066 0.187993 0.18439 0.180256 0.175593 0.170469 0.164955 0.159049 0.152753 0.146065 0.138987 0.131517 0.123657 0.115611 0.107586 0.0995796 0.0915936 0.0836275 0.0756813 0.0677551 0.0598488 0.0522251 0.0451469 0.0386141 0.0326267 0.0271848 0.0222883 0.0179373 0.0141316 0.0108195 0.00794904 0.00552017 0.00353291 0.00198726 0.000883227 0.000220807 0 0 0.000135898 0.000543592 0.00122308 0.00217437 0.00339745 0.00489232 0.006659 0.00869747 0.0110539 0.0137743 0.0168588 0.0203074 0.0241201 0.0282968 0.0328376 0.0377424 0.042847 0.047987 0.0531625 0.0583734 0.0636198 0.0689015 0.0742188 0.0795715 0.0848278 0.0898561 0.0946563 0.0992284 0.103572 0.107688 0.111576 0.115236 0.118641 0.121764 0.124605 0.127164 0.129442 0.131438 0.133151 0.134583 0.135807 0.136897 0.137852 0.138673 0.139359 0.139911 0.140328 0.140612 0.140872 0.141223 0.141663 0.142193 0.142813 0.143523 0.144323 0.145212 0.146255 0.147517 0.148998 0.150697 0.152615 0.154752 0.157107 0.15968 0.162432 0.165321 0.168347 0.171511 0.174813 0.178252 0.181829 0.185543 0.189259 0.192843 0.196293 0.199611 0.202796 0.205848 0.208767 0.211553 0.214053 0.216113 0.217734 0.218916 0.219659 0.219962 0.219825 0.219249 0.218163 0.216494 0.214243 0.211409 0.207994 0.203996 0.199416 0.194253 0.188585 0.182487 0.175959 0.169002 0.161615 0.153798 0.145552 0.136876 0.127995 0.119135 0.110294 0.101474 0.0926743 0.0838944 0.0751348 0.0663953 0.0579656 0.0501352 0.0429041 0.0362724 0.03024 0.0248069 0.0199732 0.0157388 0.0120501 0.0088531 0.00614799 0.00393471 0.00221328 0.000983678 0.00024592 0 0 0.000152388 0.000609552 0.00137149 0.00243821 0.0038097 0.00548597 0.00746702 0.00975284 0.012392 0.015433 0.018876 0.0227208 0.0269676 0.0316162 0.0366667 0.0421192 0.0477914 0.0535012 0.0592488 0.065034 0.0708569 0.0767175 0.0826157 0.0885516 0.0943804 0.0999575 0.105283 0.110356 0.115178 0.119748 0.124067 0.128133 0.131918 0.135391 0.138552 0.141402 0.14394 0.146166 0.14808 0.149683 0.151055 0.152275 0.153344 0.154262 0.155029 0.155645 0.15611 0.156424 0.156709 0.157089 0.157563 0.158132 0.158795 0.159552 0.160404 0.16135 0.162461 0.163809 0.165393 0.167213 0.169269 0.171562 0.174091 0.176856 0.179813 0.18292 0.186176 0.189581 0.193135 0.196838 0.200691 0.204692 0.208696 0.212554 0.216268 0.219837 0.223262 0.226541 0.229676 0.232666 0.235344 0.237543 0.239264 0.240507 0.241271 0.241556 0.241363 0.240691 0.239463 0.2376 0.235104 0.231973 0.228207 0.223808 0.218774 0.213106 0.206886 0.200199 0.193042 0.185418 0.177325 0.168763 0.159733 0.150235 0.140513 0.130811 0.121129 0.111467 0.101826 0.0922044 0.0826033 0.0730224 0.0637784 0.0551879 0.047251 0.0399676 0.0333378 0.0273615 0.0220388 0.0173696 0.0132986 0.0097704 0.006785 0.0043424 0.0024426 0.0010856 0.0002714 0 0 0.00016963 0.000678521 0.00152667 0.00271408 0.00424076 0.00610669 0.00831188 0.0108563 0.0137909 0.0171665 0.0209831 0.0252407 0.0299394 0.035079 0.0406596 0.0466813 0.0529433 0.0592451 0.0655867 0.071968 0.0783891 0.08485 0.0913506 0.097891 0.104313 0.110459 0.116329 0.121922 0.12724 0.132281 0.137046 0.141534 0.145713 0.14955 0.153044 0.156195 0.159003 0.161469 0.163592 0.165372 0.166897 0.168252 0.169439 0.170458 0.171307 0.171988 0.172499 0.172842 0.17315 0.173556 0.17406 0.174663 0.175363 0.176162 0.177059 0.178054 0.179225 0.18065 0.182328 0.18426 0.186445 0.188884 0.191576 0.194522 0.197675 0.200988 0.204463 0.208098 0.211893 0.21585 0.219967 0.224245 0.228525 0.232648 0.236614 0.240425 0.244078 0.247575 0.250915 0.254099 0.256946 0.259275 0.261087 0.262381 0.263158 0.263417 0.263159 0.262383 0.261005 0.258942 0.256192 0.252756 0.248634 0.243826 0.238332 0.232151 0.225374 0.21809 0.210299 0.202 0.193195 0.183882 0.174062 0.163735 0.153164 0.142614 0.132083 0.121572 0.111082 0.100611 0.0901605 0.07973 0.0696635 0.060305 0.0516546 0.0437124 0.0364781 0.029952 0.0241339 0.0190239 0.0145652 0.0107009 0.0074312 0.00475597 0.00267523 0.00118899 0.000297248 0 0 0.000187625 0.000750498 0.00168862 0.00300199 0.00469062 0.00675449 0.00919361 0.012008 0.0152507 0.0189748 0.0231803 0.0278672 0.0330355 0.0386852 0.0448162 0.0514287 0.0583028 0.0652186 0.0721761 0.0791754 0.0862164 0.0932991 0.100424 0.10759 0.114626 0.121361 0.127794 0.133926 0.139757 0.145286 0.150513 0.155439 0.160027 0.16424 0.168079 0.171542 0.174631 0.177346 0.179685 0.18165 0.183333 0.184829 0.186138 0.187259 0.188192 0.188938 0.189496 0.189867 0.190195 0.190623 0.191154 0.191785 0.192518 0.193352 0.194288 0.195324 0.196547 0.19804 0.199804 0.201838 0.204143 0.206718 0.209563 0.212679 0.216016 0.219526 0.223208 0.227062 0.231088 0.235287 0.239658 0.244201 0.248746 0.253123 0.257332 0.261372 0.265245 0.268949 0.272485 0.275853 0.278859 0.281308 0.283201 0.284538 0.285319 0.285544 0.285213 0.284325 0.28279 0.280518 0.277508 0.27376 0.269274 0.26405 0.258089 0.251389 0.244048 0.236161 0.227728 0.218749 0.209225 0.199154 0.188537 0.177375 0.165949 0.154543 0.143157 0.13179 0.120442 0.109115 0.0978066 0.0865181 0.0756209 0.0654866 0.0561152 0.0475067 0.0396611 0.0325784 0.0262586 0.0207017 0.0158497 0.0116447 0.0080866 0.00517543 0.00291118 0.00129386 0.000323464 0 0 0.000206371 0.000825484 0.00185734 0.00330194 0.00515927 0.00742936 0.0101122 0.0132077 0.0167712 0.0208578 0.0254674 0.0306001 0.0362558 0.0424347 0.0491366 0.0563616 0.0638699 0.0714217 0.0790172 0.0866562 0.0943387 0.102065 0.109835 0.117648 0.125319 0.132663 0.139679 0.146368 0.152729 0.158763 0.164469 0.169848 0.174859 0.179463 0.183658 0.187446 0.190825 0.193797 0.196361 0.198517 0.200365 0.202006 0.20344 0.204666 0.205685 0.206497 0.207101 0.207498 0.207843 0.208291 0.208844 0.2095 0.21026 0.211123 0.21209 0.213161 0.214427 0.21598 0.21782 0.219947 0.222362 0.225063 0.228052 0.231327 0.234838 0.238533 0.242411 0.246474 0.25072 0.255149 0.259763 0.26456 0.26936 0.27398 0.27842 0.282681 0.286762 0.290663 0.294385 0.297927 0.301082 0.303643 0.305608 0.30698 0.307756 0.307938 0.307525 0.306517 0.304818 0.302329 0.299051 0.294983 0.290126 0.28448 0.278045 0.27082 0.262908 0.254412 0.245331 0.235665 0.225415 0.214579 0.20316 0.191155 0.178868 0.166599 0.15435 0.142119 0.129908 0.117715 0.105541 0.0933868 0.0816507