<?xml version="1.0"?> 
<VTKFile type="StructuredGrid" version="0.1"> 
<StructuredGrid WholeExtent="0 128 0 128 0 0"> 
<Piece Extent="0 128 0 128 0 0"> 
<PointData>
<DataArray type="Float32" Name="u" format="ascii" NumberOfComponents="1"> 
0 0 0 0 0 0 0 0 0 0 0 0 0 0 0 0 0 0 0 0 0 0 0 0 0 0 0 0 0 0 0 0 0 0 0 0 0 0 0 0 0 0 0 0 0 0 0 0 0 0 0 0 0 0 0 0 0 0 0 0 0 0 0 0 0 0 0 0 0 0 0 0 0 0 0 0 0 0 0 0 0 0 0 0 0 0 0 0 0 0 0 0 0 0 0 0 0 0 0 0 0 0 0 0 0 0 0 0 0 0 0 0 0 0 0 0 0 0 0 0 0 0 0 0 0 0 0 0 0 0 2.89431e-07 1.15772e-06 2.60488e-06 4.6309e-06 7.23577e-06 1.04195e-05 1.41821e-05 1.85236e-05 2.36766e-05 2.98737e-05 3.71149e-05 4.54003e-05 5.47299e-05 6.51036e-05 7.65215e-05 8.89834e-05 0.00010202 0.000115162 0.00012841 0.000141763 0.000155222 0.000168786 0.000182455 0.00019623 0.000209677 0.000222364 0.000234289 0.000245454 0.000255859 0.000265502 0.000274385 0.000282507 0.0002898 0.000296193 0.000301686 0.000306281 0.000309976 0.000312772 0.000314668 0.000315666 0.000316054 0.000316121 0.000315869 0.000315297 0.000314405 0.000313193 0.000311661 0.000309809 0.000308067 0.000306865 0.000306203 0.00030608 0.000306498 0.000307456 0.000308953 0.000310991 0.000313814 0.000317667 0.000322551 0.000328465 0.00033541 0.000343385 0.000352391 0.000362427 0.00037333 0.000384936 0.000397245 0.000410258 0.000423973 0.000438392 0.000453514 0.000469339 0.000485337 0.000500978 0.000516264 0.000531193 0.000545765 0.000559981 0.00057384 0.000587343 0.000599899 0.000610918 0.000620399 0.000628342 0.000634748 0.000639616 0.000642947 0.00064474 0.000644725 0.00064263 0.000638456 0.000632202 0.000623869 0.000613456 0.000600964 0.000586392 0.000570016 0.000552111 0.000532678 0.000511716 0.000489226 0.000465207 0.00043966 0.000412584 0.000384799 0.000357126 0.000329564 0.000302113 0.000274773 0.000247545 0.000220428 0.000193422 0.000167487 0.000143583 0.000121711 0.000101869 8.40577e-05 6.82777e-05 5.45286e-05 4.28105e-05 3.27768e-05 2.40809e-05 1.67229e-05 1.07026e-05 6.02023e-06 2.67566e-06 6.68914e-07 0 0 1.15772e-06 4.6309e-06 1.04195e-05 1.85236e-05 2.89431e-05 4.16781e-05 5.67285e-05 7.40943e-05 9.47062e-05 0.000119495 0.00014846 0.000181601 0.00021892 0.000260414 0.000306086 0.000355934 0.000408081 0.00046065 0.00051364 0.000567053 0.000620887 0.000675143 0.00072982 0.00078492 0.000838708 0.000889454 0.000937157 0.000981818 0.00102343 0.00106201 0.00109754 0.00113003 0.0011592 0.00118477 0.00120674 0.00122512 0.0012399 0.00125109 0.00125867 0.00126266 0.00126421 0.00126449 0.00126348 0.00126119 0.00125762 0.00125277 0.00124664 0.00123924 0.00123227 0.00122746 0.00122481 0.00122432 0.00122599 0.00122982 0.00123581 0.00124396 0.00125525 0.00127067 0.0012902 0.00131386 0.00134164 0.00137354 0.00140956 0.00144971 0.00149332 0.00153974 0.00158898 0.00164103 0.00169589 0.00175357 0.00181405 0.00187735 0.00194135 0.00200391 0.00206505 0.00212477 0.00218306 0.00223992 0.00229536 0.00234937 0.0023996 0.00244367 0.00248159 0.00251337 0.00253899 0.00255847 0.00257179 0.00257896 0.0025789 0.00257052 0.00255382 0.00252881 0.00249548 0.00245382 0.00240385 0.00234557 0.00228006 0.00220844 0.00213071 0.00204687 0.0019569 0.00186083 0.00175864 0.00165034 0.0015392 0.0014285 0.00131826 0.00120845 0.00109909 0.00099018 0.000881711 0.000773688 0.000669949 0.000574334 0.000486842 0.000407475 0.000336231 0.000273111 0.000218114 0.000171242 0.000131107 9.63237e-05 6.68914e-05 4.28105e-05 2.40809e-05 1.07026e-05 2.67566e-06 0 0 2.60488e-06 1.04195e-05 2.34439e-05 4.16781e-05 6.5122e-05 9.37756e-05 0.000127639 0.000166712 0.000213089 0.000268863 0.000334034 0.000408603 0.000492569 0.000585932 0.000688693 0.000800851 0.000918182 0.00103646 0.00115569 0.00127587 0.001397 0.00151907 0.0016421 0.00176607 0.00188709 0.00200127 0.0021086 0.00220909 0.00230273 0.00238952 0.00246947 0.00254257 0.0026082 0.00266573 0.00271518 0.00275653 0.00278978 0.00281495 0.00283202 0.00284099 0.00284448 0.00284509 0.00284282 0.00283767 0.00282965 0.00281874 0.00280495 0.00278828 0.0027726 0.00276178 0.00275582 0.00275472 0.00275848 0.0027671 0.00278058 0.00279892 0.00282432 0.002859 0.00290296 0.00295618 0.00301869 0.00309046 0.00317152 0.00326184 0.00335997 0.00346442 0.00357521 0.00369232 0.00381576 0.00394553 0.00408162 0.00422405 0.00436803 0.00450881 0.00464637 0.00478073 0.00491188 0.00503983 0.00516456 0.00528609 0.00539909 0.00549826 0.00558359 0.00565508 0.00571273 0.00575655 0.00578652 0.00580266 0.00580253 0.00578367 0.0057461 0.00568982 0.00561482 0.0055211 0.00540867 0.00527753 0.00513014 0.004969 0.0047941 0.00460545 0.00440304 0.00418687 0.00395694 0.00371326 0.00346319 0.00321413 0.00296607 0.00271902 0.00247296 0.0022279 0.00198385 0.0017408 0.00150738 0.00129225 0.00109539 0.000916818 0.000756519 0.000614499 0.000490758 0.000385295 0.000294991 0.000216728 0.000150506 9.63237e-05 5.41821e-05 2.40809e-05 6.02023e-06 0 0 4.6309e-06 1.85236e-05 4.16781e-05 7.40943e-05 0.000115772 0.000166712 0.000226914 0.000296377 0.000378825 0.000477979 0.000593839 0.000726405 0.000875678 0.00104166 0.00122434 0.00142374 0.00163232 0.0018426 0.00205456 0.00226821 0.00248355 0.00270057 0.00291928 0.00313968 0.00335483 0.00355782 0.00374863 0.00392727 0.00409374 0.00424804 0.00439016 0.00452012 0.00463679 0.00473908 0.00482698 0.00490049 0.00495961 0.00500435 0.00503469 0.00505065 0.00505686 0.00505794 0.00505391 0.00504475 0.00503048 0.00501109 0.00498658 0.00495694 0.00492907 0.00490984 0.00489924 0.00489729 0.00490397 0.00491929 0.00494326 0.00497586 0.00502102 0.00508267 0.00516081 0.00525544 0.00536656 0.00549416 0.00563825 0.00579883 0.00597328 0.00615898 0.00635593 0.00656412 0.00678357 0.00701427 0.00725622 0.00750942 0.00776539 0.00801566 0.00826022 0.00849908 0.00873224 0.00895969 0.00918144 0.00939749 0.00959839 0.00977468 0.00992638 0.0100535 0.010156 0.0102339 0.0102872 0.0103158 0.0103156 0.0102821 0.0102153 0.0101152 0.0099819 0.0098153 0.00961542 0.00938227 0.00912025 0.00883378 0.00852285 0.00818746 0.00782762 0.00744332 0.00703456 0.00660134 0.00615679 0.00571401 0.00527302 0.00483381 0.00439637 0.00396072 0.00352684 0.00309475 0.0026798 0.00229733 0.00194737 0.0016299 0.00134492 0.00109244 0.000872458 0.000684968 0.000524429 0.000385295 0.000267566 0.000171242 9.63237e-05 4.28105e-05 1.07026e-05 0 0 7.23577e-06 2.89431e-05 6.5122e-05 0.000115772 0.000180894 0.000260488 0.000354553 0.00046309 0.000591914 0.000746842 0.000927873 0.00113501 0.00136825 0.00162759 0.00191304 0.00222459 0.00255051 0.00287906 0.00321025 0.00354408 0.00388054 0.00421964 0.00456138 0.00490575 0.00524193 0.00555909 0.00585723 0.00613636 0.00639647 0.00663756 0.00685963 0.00706269 0.00724499 0.00740481 0.00754216 0.00765702 0.0077494 0.00781929 0.00786671 0.00789165 0.00790134 0.00790304 0.00789673 0.00788243 0.00786013 0.00782982 0.00779152 0.00774522 0.00770167 0.00767162 0.00765507 0.00765201 0.00766245 0.0076864 0.00772384 0.00777477 0.00784534 0.00794167 0.00806377 0.00821162 0.00838524 0.00858462 0.00880977 0.00906067 0.00933325 0.0096234 0.00993113 0.0102564 0.0105993 0.0109598 0.0113378 0.0117335 0.0121334 0.0125245 0.0129066 0.0132798 0.0136441 0.0139995 0.014346 0.0146836 0.0149975 0.0152729 0.01551 0.0157086 0.0158687 0.0159904 0.0160737 0.0161185 0.0161181 0.0160658 0.0159614 0.0158051 0.0155967 0.0153364 0.0150241 0.0146598 0.0142504 0.0138028 0.013317 0.0127929 0.0122307 0.0116302 0.0109915 0.0103146 0.00961998 0.00892815 0.00823909 0.00755282 0.00686933 0.00618862 0.0055107 0.00483555 0.00418718 0.00358958 0.00304276 0.00254672 0.00210144 0.00170694 0.00136322 0.00107026 0.00081942 0.000602023 0.000418071 0.000267566 0.000150506 6.68914e-05 1.67229e-05 0 0 1.04195e-05 4.16781e-05 9.37756e-05 0.000166712 0.000260488 0.000375103 0.000510556 0.000666849 0.000852356 0.00107545 0.00133614 0.00163441 0.00197028 0.00234373 0.00275477 0.0032034 0.00367273 0.00414585 0.00462276 0.00510348 0.00558798 0.00607629 0.00656838 0.00706428 0.00754838 0.00800509 0.00843442 0.00883636 0.00921091 0.00955808 0.00987787 0.0101703 0.0104328 0.0106629 0.0108607 0.0110261 0.0111591 0.0112598 0.0113281 0.011364 0.0113779 0.0113804 0.0113713 0.0113507 0.0113186 0.0112749 0.0112198 0.0111531 0.0110904 0.0110471 0.0110233 0.0110189 0.0110339 0.0110684 0.0111223 0.0111957 0.0112973 0.011436 0.0116118 0.0118247 0.0120747 0.0123619 0.0126861 0.0130474 0.0134399 0.0138577 0.0143008 0.0147693 0.015263 0.0157821 0.0163265 0.0168962 0.0174721 0.0180352 0.0185855 0.0191229 0.0196475 0.0201593 0.0206583 0.0211444 0.0215964 0.021993 0.0223344 0.0226203 0.0228509 0.0230262 0.0231461 0.0232107 0.0232101 0.0231347 0.0229844 0.0227593 0.0224593 0.0220844 0.0216347 0.0211101 0.0205206 0.019876 0.0191764 0.0184218 0.0176121 0.0167475 0.0158278 0.014853 0.0138528 0.0128565 0.0118643 0.0108761 0.00989184 0.00891162 0.0079354 0.00696319 0.00602954 0.005169 0.00438158 0.00366727 0.00302608 0.002458 0.00196303 0.00154118 0.00117996 0.000866913 0.000602023 0.000385295 0.000216728 9.63237e-05 2.40809e-05 0 0 1.41821e-05 5.67285e-05 0.000127639 0.000226914 0.000354553 0.000510556 0.000694924 0.000907656 0.00116015 0.00146381 0.00181863 0.00222462 0.00268176 0.00319008 0.00374955 0.00436019 0.00499899 0.00564296 0.0062921 0.0069464 0.00760586 0.0082705 0.0089403 0.00961527 0.0102742 0.0108958 0.0114802 0.0120273 0.0125371 0.0130096 0.0134449 0.0138429 0.0142002 0.0145134 0.0147826 0.0150078 0.0151888 0.0153258 0.0154188 0.0154676 0.0154866 0.0154899 0.0154776 0.0154496 0.0154058 0.0153465 0.0152714 0.0151806 0.0150953 0.0150364 0.0150039 0.0149979 0.0150184 0.0150653 0.0151387 0.0152386 0.0153769 0.0155657 0.015805 0.0160948 0.0164351 0.0168259 0.0172671 0.0177589 0.0182932 0.0188619 0.019465 0.0201026 0.0207747 0.0214812 0.0222222 0.0229976 0.0237815 0.0245479 0.0252969 0.0260284 0.0267425 0.0274391 0.0281182 0.0287798 0.0293951 0.029935 0.0303995 0.0307888 0.0311026 0.0313412 0.0315044 0.0315923 0.0315915 0.0314889 0.0312843 0.0309779 0.0305696 0.0300593 0.0294472 0.0287332 0.0279308 0.0270534 0.0261012 0.0250741 0.0239721 0.0227952 0.0215433 0.0202166 0.0188552 0.0174992 0.0161486 0.0148035 0.0134639 0.0121297 0.010801 0.00947768 0.00820687 0.00703559 0.00596382 0.00499156 0.00411883 0.00334561 0.0026719 0.00209772 0.00160606 0.00117996 0.00081942 0.000524429 0.000294991 0.000131107 3.27768e-05 0 0 1.85236e-05 7.40943e-05 0.000166712 0.000296377 0.00046309 0.000666849 0.000907656 0.00118551 0.0015153 0.00191191 0.00237536 0.00290562 0.00350271 0.00416663 0.00489737 0.00569494 0.0065293 0.0073704 0.00821825 0.00907285 0.00993419 0.0108023 0.0116771 0.0125587 0.0134193 0.0142313 0.0149945 0.0157091 0.016375 0.0169921 0.0175607 0.0180805 0.0185472 0.0189563 0.0193079 0.019602 0.0198385 0.0200174 0.0201388 0.0202026 0.0202274 0.0202318 0.0202156 0.020179 0.0201219 0.0200444 0.0199463 0.0198278 0.0197163 0.0196393 0.019597 0.0195891 0.0196159 0.0196772 0.019773 0.0199034 0.0200841 0.0203307 0.0206432 0.0210218 0.0214662 0.0219766 0.022553 0.0231953 0.0238931 0.0246359 0.0254237 0.0262565 0.0271343 0.0280571 0.0290249 0.0300377 0.0310615 0.0320626 0.0330409 0.0339963 0.034929 0.0358388 0.0367258 0.03759 0.0383936 0.0390987 0.0397055 0.0402139 0.0406239 0.0409354 0.0411486 0.0412634 0.0412624 0.0411283 0.0408612 0.0404609 0.0399276 0.0392612 0.0384617 0.0375291 0.036481 0.0353351 0.0340914 0.0327498 0.0313105 0.0297733 0.0281382 0.0264054 0.0246272 0.0228561 0.0210921 0.0193352 0.0175855 0.0158429 0.0141074 0.012379 0.0107192 0.00918934 0.00778947 0.00651959 0.00537969 0.00436977 0.00348983 0.00273987 0.00209772 0.00154118 0.00107026 0.000684968 0.000385295 0.000171242 4.28105e-05 0 0 2.38169e-05 9.52675e-05 0.000214352 0.00038107 0.000595422 0.000857407 0.00116703 0.00152428 0.00194773 0.00245595 0.00304893 0.00372668 0.0044892 0.00533648 0.00626853 0.00728534 0.00834873 0.00942052 0.0105007 0.0115893 0.0126862 0.0137916 0.0149054 0.0160275 0.017123 0.0181567 0.0191286 0.0200387 0.0208871 0.0216737 0.0223986 0.0230616 0.0236573 0.0241798 0.0246294 0.0250058 0.0253092 0.0255396 0.0256969 0.0257811 0.0258157 0.0258241 0.0258064 0.0257625 0.0256924 0.0255961 0.0254737 0.0253251 0.0251851 0.0250887 0.0250357 0.0250262 0.0250602 0.0251376 0.0252586 0.025423 0.0256508 0.0259619 0.0263562 0.0268338 0.0273946 0.0280388 0.0287661 0.0295768 0.0304575 0.031395 0.0323893 0.0334405 0.0345485 0.0357133 0.0369349 0.0382134 0.0395058 0.0407693 0.042004 0.0432097 0.0443865 0.0455344 0.0466535 0.0477436 0.048757 0.0496459 0.0504104 0.0510503 0.0515658 0.0519568 0.0522232 0.0523652 0.0523608 0.052188 0.0518469 0.0513373 0.0506595 0.0498132 0.0487986 0.0476156 0.0462866 0.0448337 0.0432571 0.0415567 0.0397325 0.0377846 0.0357128 0.0335173 0.0312642 0.0290199 0.0267843 0.0245574 0.0223393 0.02013 0.0179294 0.0157375 0.0136321 0.011691 0.00991412 0.00830153 0.00685319 0.00556911 0.00444929 0.00349373 0.00267488 0.00196522 0.00136474 0.000873431 0.000491305 0.000218358 5.45895e-05 0 0 3.04349e-05 0.00012174 0.000273915 0.000486959 0.000760874 0.00109566 0.00149131 0.00194784 0.00248738 0.0031321 0.003882 0.00473706 0.0056973 0.00676272 0.0079333 0.00920906 0.0105424 0.0118857 0.0132389 0.0146021 0.0159753 0.0173584 0.0187515 0.0201546 0.0215243 0.0228173 0.0240336 0.0251732 0.0262361 0.0272224 0.0281319 0.0289648 0.0297139 0.0303722 0.0309397 0.0314164 0.0318023 0.0320974 0.0323017 0.0324152 0.0324668 0.0324854 0.0324709 0.0324234 0.0323429 0.0322293 0.0320828 0.0319032 0.0317336 0.031617 0.0315533 0.0315427 0.0315851 0.0316804 0.0318287 0.03203 0.0323089 0.0326901 0.0331734 0.033759 0.0344468 0.0352368 0.036129 0.0371235 0.038204 0.0393542 0.0405743 0.0418642 0.0432239 0.0446534 0.0461526 0.0477217 0.0493079 0.0508582 0.0523728 0.0538517 0.0552947 0.0567021 0.0580736 0.0594094 0.0606506 0.0617381 0.0626722 0.0634527 0.0640796 0.064553 0.0648728 0.0650391 0.0650248 0.0648029 0.0643733 0.0637361 0.0628912 0.0618387 0.0605786 0.0591108 0.0574628 0.0556621 0.0537086 0.0516024 0.0493435 0.0469318 0.0443674 0.0416502 0.0388617 0.0360832 0.0333148 0.0305564 0.0278081 0.0250698 0.0223416 0.0196234 0.0170113 0.0146012 0.0123933 0.0103875 0.00858383 0.00698223 0.00558273 0.00438535 0.00335753 0.00246676 0.00171303 0.00109634 0.000616689 0.000274084 6.8521e-05 0 0 3.83778e-05 0.000153511 0.0003454 0.000614045 0.000959445 0.0013816 0.00188051 0.00245618 0.00313425 0.00394037 0.00487454 0.00593675 0.00712702 0.00844533 0.0098917 0.0114661 0.0131103 0.0147659 0.0164329 0.0181114 0.0198014 0.0215028 0.0232156 0.0249399 0.0266232 0.0282131 0.0297095 0.0311125 0.032422 0.0336381 0.0347608 0.03579 0.0367171 0.0375334 0.038239 0.0388338 0.0393177 0.0396909 0.0399534 0.040105 0.0401807 0.0402154 0.0402091 0.0401618 0.0400734 0.039944 0.0397735 0.0395621 0.0393616 0.0392243 0.03915 0.0391387 0.0391906 0.0393055 0.0394834 0.0397245 0.0400585 0.0405153 0.0410949 0.0417974 0.0426226 0.0435707 0.0446417 0.0458354 0.0471326 0.0485137 0.0499787 0.0515276 0.0531605 0.0548773 0.056678 0.0585627 0.0604677 0.0623292 0.0641474 0.0659222 0.0676536 0.0693416 0.0709862 0.0725875 0.0740742 0.0753754 0.076491 0.077421 0.0781654 0.0787242 0.0790974 0.079285 0.0792544 0.0789729 0.0784405 0.0776571 0.0766228 0.0753376 0.0738015 0.0720145 0.0700096 0.0678201 0.0654459 0.0628869 0.0601433 0.057215 0.054102 0.0508043 0.0474197 0.0440462 0.0406837 0.0373322 0.0339918 0.0306624 0.0273441 0.0240367 0.0208567 0.0179201 0.0152271 0.0127776 0.0105716 0.00860913 0.00689018 0.00541473 0.00414566 0.00304579 0.00211513 0.00135368 0.000761447 0.000338421 8.46052e-05 0 0 4.76455e-05 0.000190582 0.000428809 0.000762327 0.00119114 0.00171524 0.00233463 0.00304931 0.00388833 0.00488075 0.00602656 0.00732576 0.00877835 0.0103843 0.0121437 0.0140565 0.0160524 0.0180611 0.0200827 0.0221172 0.0241645 0.0262246 0.0282976 0.0303835 0.0324198 0.034344 0.0361563 0.0378565 0.0394447 0.0409209 0.0422851 0.0435372 0.0446669 0.0456635 0.0465272 0.0472578 0.0478555 0.0483201 0.0486518 0.0488504 0.0489575 0.0490144 0.049021 0.0489775 0.0488839 0.04874 0.0485459 0.0483017 0.0480693 0.0479105 0.0478255 0.0478142 0.0478767 0.0480128 0.0482227 0.0485064 0.0488994 0.0494375 0.0501207 0.0509489 0.0519222 0.0530406 0.0543041 0.0557126 0.0572433 0.0588733 0.0606024 0.0624307 0.0643583 0.0663851 0.0685111 0.0707363 0.0729853 0.0751824 0.0773278 0.0794214 0.0814631 0.0834531 0.0853914 0.0872778 0.089028 0.0905577 0.0918667 0.0929551 0.093823 0.0944703 0.0948969 0.095103 0.0950497 0.0946981 0.0940484 0.0931005 0.0918544 0.09031 0.0884675 0.0863268 0.0839271 0.0813078 0.0784689 0.0754103 0.072132 0.0686341 0.0649166 0.0609794 0.0569382 0.0529087 0.0488909 0.0448848 0.0408905 0.0369078 0.0329368 0.0289775 0.0251683 0.0216476 0.0184154 0.0154717 0.0128165 0.0104498 0.00837161 0.00658189 0.00503926 0.00370231 0.00257105 0.00164547 0.000925578 0.000411368 0.000102842 0 0 5.82379e-05 0.000232952 0.000524141 0.000931806 0.00145595 0.00209656 0.00285366 0.00372723 0.00474963 0.00595325 0.00733806 0.00890408 0.0106513 0.0125797 0.0146894 0.0169802 0.0193687 0.0217714 0.0241883 0.0266193 0.0290646 0.031524 0.0339976 0.0364853 0.038914 0.0412102 0.043374 0.0454053 0.0473043 0.0490708 0.0507048 0.0522065 0.0535632 0.0547625 0.0558043 0.0566886 0.0574155 0.057985 0.058397 0.0586515 0.0587971 0.0588821 0.0589067 0.0588708 0.0587744 0.0586174 0.0584 0.0581221 0.0578565 0.0576758 0.05758 0.0575692 0.0576434 0.0578025 0.0580466 0.0583757 0.0588317 0.0594567 0.0602507 0.0612136 0.0623455 0.0636464 0.0651163 0.0667551 0.0685363 0.070433 0.0724455 0.0745736 0.0768174 0.0791768 0.0816518 0.0842426 0.0868606 0.0894177 0.0919139 0.0943491 0.0967233 0.0990366 0.101289 0.10348 0.105512 0.107285 0.108799 0.110055 0.111053 0.111791 0.112271 0.112493 0.11241 0.111979 0.111197 0.110066 0.108586 0.106756 0.104577 0.102048 0.0992153 0.0961253 0.0927777 0.0891725 0.0853097 0.0811892 0.0768112 0.0721756 0.0674172 0.0626708 0.0579365 0.0532142 0.048504 0.0438059 0.0391198 0.0344457 0.0299462 0.0257838 0.0219583 0.01847 0.0153186 0.0125043 0.010027 0.00788681 0.00603834 0.00443633 0.00308079 0.0019717 0.00110908 0.000492926 0.000123231 0 0 7.01551e-05 0.000280621 0.000631396 0.00112248 0.00175388 0.00252558 0.0034376 0.00448993 0.00571815 0.00715786 0.00880904 0.0106717 0.0127459 0.0150315 0.0175286 0.0202372 0.0230593 0.0258967 0.0287496 0.031618 0.0345017 0.0374008 0.0403154 0.0432454 0.0461058 0.0488115 0.0513626 0.0537589 0.0560007 0.0580877 0.0600201 0.0617978 0.0634061 0.0648303 0.0660703 0.0671262 0.0679979 0.0686855 0.0691889 0.0695082 0.0696995 0.0698188 0.0698661 0.0698414 0.0697448 0.0695763 0.0693358 0.0690233 0.0687233 0.06852 0.0684135 0.0684037 0.0684907 0.0686745 0.0689551 0.0693325 0.0698554 0.0705729 0.071485 0.0725915 0.0738926 0.0753881 0.0770782 0.0789628 0.0810113 0.083193 0.085508 0.0879562 0.0905376 0.0932523 0.0961002 0.0990814 0.102094 0.105035 0.107906 0.110705 0.113434 0.116092 0.118679 0.121195 0.123526 0.125557 0.127289 0.128721 0.129854 0.130687 0.131221 0.131455 0.131337 0.130814 0.129887 0.128554 0.126817 0.124675 0.122129 0.119177 0.115874 0.112272 0.108372 0.104173 0.0996762 0.0948803 0.0897859 0.0843929 0.0788566 0.0733325 0.0678204 0.0623204 0.0568326 0.0513567 0.045893 0.0404414 0.0351904 0.0303285 0.0258558 0.0217722 0.0180778 0.0147726 0.0118565 0.00932951 0.0071429 0.00524785 0.00364434 0.00233238 0.00131196 0.000583094 0.000145774 0 0 8.33971e-05 0.000333589 0.000750574 0.00133435 0.00208493 0.0030023 0.00408646 0.00533742 0.00679389 0.00849458 0.0104395 0.0126287 0.015062 0.0177397 0.0206615 0.0238276 0.0271241 0.0304371 0.0337668 0.037113 0.0404758 0.0438552 0.0472512 0.0506638 0.0539953 0.057148 0.0601221 0.0629174 0.0655339 0.0679717 0.0702308 0.0723112 0.0741956 0.075867 0.0773253 0.0785705 0.0796026 0.0804217 0.0810277 0.0814206 0.0816647 0.0818242 0.0818992 0.0818895 0.0817953 0.0816166 0.0813532 0.0810053 0.0806696 0.0804432 0.0803258 0.0803177 0.0804187 0.0806289 0.0809482 0.0813767 0.0819706 0.0827862 0.0838235 0.0850826 0.0865633 0.0882658 0.0901899 0.0923358 0.0946685 0.0971532 0.0997898 0.102578 0.105519 0.108612 0.111856 0.115253 0.118685 0.122035 0.125303 0.12849 0.131596 0.134619 0.137562 0.140422 0.14307 0.145375 0.147336 0.148953 0.150227 0.151158 0.151745 0.151989 0.151829 0.151205 0.150117 0.148565 0.146548 0.144068 0.141124 0.137715 0.133903 0.129749 0.125253 0.120413 0.115232 0.109707 0.103841 0.0976312 0.0912566 0.0848937 0.0785427 0.0722034 0.065876 0.0595604 0.0532565 0.0469645 0.0409008 0.0352819 0.0301078 0.0253786 0.0210942 0.0172546 0.0138599 0.01091 0.00835294 0.00613686 0.00426171 0.00272749 0.00153421 0.000681873 0.000170468 0 0 9.79639e-05 0.000391856 0.000881675 0.00156742 0.0024491 0.0035267 0.00480023 0.00626969 0.00797684 0.00996342 0.0122295 0.0147749 0.0175998 0.0207042 0.024088 0.0277513 0.0315631 0.0353925 0.0392397 0.0431045 0.0469869 0.0508871 0.0548049 0.0587404 0.0625824 0.0662197 0.0696525 0.0728806 0.075904 0.0787228 0.081337 0.0837465 0.0859316 0.0878725 0.0895691 0.0910215 0.0922297 0.0931936 0.0939132 0.0943886 0.0946928 0.0948986 0.095006 0.0950151 0.0949258 0.0947382 0.0944523 0.094068 0.0936956 0.0934453 0.0933172 0.0933112 0.0934273 0.0936655 0.0940258 0.0945083 0.0951771 0.0960965 0.0972664 0.0986868 0.100358 0.102279 0.104451 0.106874 0.109508 0.112313 0.115291 0.11844 0.121762 0.125255 0.12892 0.132757 0.136633 0.140417 0.144107 0.147704 0.151208 0.154619 0.157937 0.161161 0.164144 0.166737 0.168939 0.170751 0.172173 0.173204 0.173845 0.174095 0.173887 0.173151 0.171888 0.170097 0.167779 0.164934 0.161562 0.157662 0.153304 0.148556 0.143419 0.137892 0.131976 0.12567 0.118975 0.111891 0.104617 0.0973545 0.0901033 0.0828632 0.0756344 0.0684167 0.0612103 0.054015 0.0470774 0.0406439 0.0347144 0.029289 0.0243677 0.0199504 0.0160373 0.0126282 0.00966846 0.00710336 0.00493289 0.00315705 0.00177584 0.000789262 0.000197316 0 0 0.000113668 0.000454672 0.00102301 0.00181869 0.0028417 0.00409205 0.00556974 0.00727476 0.00925178 0.0115455 0.0141558 0.0170829 0.0203266 0.023887 0.027764 0.0319578 0.0363191 0.040699 0.0450975 0.0495146 0.0539503 0.0584046 0.0628774 0.0673688 0.0717535 0.0759063 0.079827 0.0835157 0.0869724 0.0901972 0.0931899 0.0959507 0.0984568 0.100686 0.102637 0.104312 0.105709 0.106829 0.107672 0.108237 0.108607 0.108864 0.109008 0.109038 0.108955 0.108758 0.108449 0.108025 0.107613 0.107336 0.107193 0.107186 0.107313 0.107575 0.107973 0.108505 0.109245 0.110265 0.111565 0.113145 0.115005 0.117145 0.119565 0.122265 0.125201 0.12833 0.131651 0.135165 0.138871 0.142769 0.14686 0.151143 0.15547 0.159692 0.16381 0.167823 0.171731 0.175534 0.179232 0.182826 0.186148 0.189031 0.191476 0.193482 0.19505 0.196179 0.196869 0.197121 0.196857 0.196001 0.194553 0.192511 0.189877 0.186651 0.182832 0.178421 0.173494 0.168129 0.162327 0.156086 0.149408 0.142291 0.134736 0.126744 0.118537 0.110341 0.102155 0.0939795 0.085814 0.0776587 0.0695137 0.0613789 0.0535318 0.0462501 0.0395336 0.0333823 0.0277964 0.0227757 0.0183203 0.0144301 0.011048 0.00811693 0.00563676 0.00360752 0.00202923 0.000901881 0.00022547 0 0 0.000130322 0.000521289 0.0011729 0.00208516 0.00325806 0.0046916 0.00638579 0.00834062 0.0106035 0.0132219 0.0161957 0.0195249 0.0232096 0.0272498 0.0316455 0.0363966 0.041335 0.0462927 0.0512696 0.0562658 0.0612811 0.0663158 0.0713696 0.0764427 0.0813952 0.0860872 0.0905188 0.09469 0.0986007 0.102251 0.105641 0.10877 0.111614 0.114145 0.116365 0.118274 0.119871 0.121156 0.122129 0.122791 0.123232 0.123544 0.123726 0.123778 0.123701 0.123494 0.123158 0.122691 0.122234 0.121923 0.121759 0.121743 0.121873 0.12215 0.122574 0.123145 0.123944 0.125052 0.12647 0.128197 0.130233 0.132578 0.135232 0.138196 0.141421 0.144859 0.14851 0.152374 0.156451 0.160742 0.165245 0.169961 0.174726 0.179375 0.183907 0.188324 0.192624 0.196808 0.200876 0.204828 0.208479 0.211644 0.214322 0.216513 0.218218 0.219437 0.220169 0.220415 0.220089 0.219106 0.217465 0.215166 0.21221 0.208596 0.204325 0.199396 0.193895 0.187908 0.181434 0.174473 0.167025 0.159091 0.150671 0.141763 0.132617 0.12348 0.114351 0.105232 0.096121 0.0870191 0.0779261 0.068842 0.0600757 0.0519361 0.0444234 0.0375375 0.0312783 0.0256459 0.0206404 0.0162616 0.0124503 0.00914714 0.00635218 0.00406539 0.00228678 0.00101635 0.000254087 0 0 0.000147926 0.000591705 0.00133134 0.00236682 0.00369816 0.00532535 0.00724839 0.00946728 0.012032 0.0149925 0.0183489 0.022101 0.026249 0.0307927 0.0357323 0.0410677 0.0466108 0.0521735 0.0577559 0.0633578 0.0689794 0.0746207 0.0802815 0.085962 0.0915073 0.0967627 0.101728 0.106403 0.110789 0.114884 0.11869 0.122205 0.125402 0.128251 0.130753 0.132908 0.134715 0.136174 0.137286 0.138051 0.138568 0.138938 0.139161 0.139236 0.139164 0.138945 0.138579 0.138066 0.137558 0.137208 0.137016 0.136982 0.137106 0.137389 0.137829 0.138428 0.139274 0.140459 0.141982 0.143843 0.146042 0.148579 0.151454 0.154668 0.158167 0.161901 0.165868 0.170069 0.174503 0.179172 0.184075 0.189211 0.1944 0.199463 0.204399 0.209207 0.213888 0.218442 0.22287 0.22717 0.231139 0.234575 0.237477 0.239845 0.241679 0.242979 0.243745 0.243978 0.243582 0.242464 0.240624 0.238061 0.234776 0.230769 0.226039 0.220587 0.214507 0.20789 0.200739 0.193052 0.184829 0.176071 0.166778 0.156949 0.146856 0.13677 0.126692 0.11662 0.106555 0.096498 0.0864476 0.0764043 0.0667089 0.0577021 0.0493839 0.0417544 0.0348135 0.0285612 0.0229976 0.0181226 0.0138751 0.010194 0.00707915 0.00453066 0.0025485 0.00113266 0.000283166 0 0 0.00016648 0.000665921 0.00149832 0.00266368 0.00416201 0.00599329 0.00815753 0.0106547 0.0135373 0.0168575 0.0206155 0.0248112 0.0294446 0.0345157 0.0400246 0.0459711 0.0521464 0.0583415 0.0645563 0.0707909 0.0770452 0.0833193 0.0896131 0.0959267 0.10209 0.107933 0.113455 0.118656 0.123537 0.128097 0.132337 0.136256 0.139822 0.143004 0.145801 0.148213 0.150241 0.151884 0.153142 0.154015 0.154614 0.155046 0.155311 0.155411 0.155345 0.155112 0.154714 0.154149 0.153585 0.15319 0.152963 0.152904 0.153014 0.153292 0.153738 0.154353 0.155236 0.156485 0.1581 0.160083 0.162432 0.165148 0.16823 0.17168 0.17544 0.179454 0.183724 0.188248 0.193027 0.198061 0.203349 0.208892 0.214494 0.219958 0.225284 0.230472 0.235523 0.240436 0.245211 0.249849 0.254127 0.257824 0.260941 0.263476 0.26543 0.266804 0.267597 0.267808 0.267336 0.266077 0.26403 0.261197 0.257577 0.25317 0.247976 0.241995 0.235329 0.228078 0.220242 0.211823 0.202819 0.193231 0.183058 0.172301 0.161255 0.150213 0.139176 0.128144 0.117117 0.106095 0.0950782 0.0840659 0.0734314 0.0635478 0.054415 0.0460331 0.0384019 0.0315215 0.025392 0.0200133 0.0153227 0.0112575 0.00781768 0.00500332 0.00281437 0.00125083 0.000312707 0 0 0.000185984 0.000743937 0.00167386 0.00297575 0.00464961 0.00669543 0.00911323 0.011903 0.0151193 0.0188169 0.0229956 0.0276555 0.0327965 0.0384188 0.0445223 0.0511069 0.0579419 0.0647966 0.0716709 0.0785648 0.0854784 0.0924116 0.0993644 0.106337 0.113143 0.119597 0.125698 0.131448 0.136845 0.141889 0.146582 0.150922 0.154874 0.158403 0.161508 0.164191 0.166449 0.168285 0.169697 0.170686 0.17137 0.171867 0.172179 0.172304 0.172242 0.171995 0.171561 0.17094 0.170316 0.169869 0.1696 0.169509 0.169595 0.16986 0.170302 0.170922 0.171828 0.173129 0.174826 0.176917 0.179403 0.182284 0.185561 0.189232 0.193238 0.197521 0.202079 0.206913 0.212022 0.217407 0.223068 0.229005 0.235006 0.240859 0.246563 0.25212 0.257528 0.262789 0.267902 0.272866 0.277443 0.281392 0.284714 0.287408 0.289474 0.290913 0.291723 0.291907 0.29135 0.289943 0.287684 0.284574 0.280612 0.275799 0.270135 0.263619 0.256361 0.248469 0.239945 0.230786 0.220995 0.21057 0.199512 0.18782 0.175813 0.163808 0.151805 0.139805 0.127807 0.115811 0.103818 0.0918267 0.0802434 0.0694735 0.0595168 0.0503735 0.0420435 0.0345269 0.0278235 0.0219335 0.0167928 0.0123376 0.00856777 0.00548337 0.0030844 0.00137084 0.000342711 0 0 0.000206438 0.000825753 0.00185794 0.00330301 0.00516095 0.00743177 0.0101155 0.013212 0.0167782 0.0208705 0.025489 0.0306338 0.0363048 0.0425019 0.0492253 0.0564749 0.0639973 0.0715389 0.0790997 0.0866798 0.0942791 0.101898 0.109535 0.117192 0.124667 0.131756 0.13846 0.144778 0.150712 0.156261 0.161425 0.166203 0.170557 0.174448 0.177876 0.18084 0.18334 0.185377 0.186951 0.188061 0.188836 0.189403 0.189762 0.189913 0.189857 0.189592 0.18912 0.18844 0.18775 0.187246 0.186928 0.186796 0.186851 0.187092 0.187519 0.188133 0.189052 0.190393 0.192158 0.194345 0.196955 0.199989 0.203445 0.207324 0.211563 0.216099 0.220932 0.226062 0.231489 0.237212 0.243233 0.24955 0.255937 0.262166 0.268237 0.27415 0.279905 0.285502 0.290941 0.296222 0.301088 0.305279 0.308796 0.31164 0.313809 0.315305 0.316126 0.316273 0.315626 0.314063 0.311585 0.308191 0.303881 0.298656 0.292515 0.285459 0.277604 0.269066 0.259845 0.249942 0.239357 0.228089 0.216138 0.203505 0.19053 0.177554 0.164578 0.151601 0.138624 0.125645 0.112666 0.0996867 0.0871447 0.0754789 0.0646893 0.0547758 0.0457384 0.0375772 0.0302922 0.0238833 0.0182856 0.0134343 0.00932941 0.00597082 0.00335859 0.00149271 0.000373176 0 0 0.000227842 0.000911368 0.00205058 0.00364547 0.00569605 0.00820231 0.0111643 0.0145819 0.0185138 0.0230184 0.0280959 0.0337462 0.0399693 0.0467652 0.0541338 0.0620753 0.0703125 0.0785683 0.0868427 0.0951356 0.103447 0.111777 0.120126 0.128493 0.136661 0.144409 0.151738 0.158648 0.16514 0.171212 0.176865 0.1821 0.186872 0.19114 0.194903 0.198161 0.200913 0.203161 0.204904 0.206142 0.207013 0.207653 0.208062 0.20824 0.208188 0.207906 0.207393 0.206649 0.205887 0.205319 0.204945 0.204766 0.20478 0.204989 0.205391 0.205988 0.206907 0.208276 0.210096 0.212367 0.215089 0.218261 0.221884 0.225957 0.230415 0.23519 0.240284 0.245696 0.251427 0.257475 0.263842 0.270526 0.277286 0.283879 0.290304 0.296561 0.302651 0.308574 0.314329 0.319916 0.32506 0.329484 0.333188 0.336172 0.338436 0.33998 0.340804 0.340908 0.340163 0.338437 0.335733 0.332048 0.327384 0.321741 0.315118 0.307515 0.299057 0.289867 0.279944 0.26929 0.257905 0.245787 0.232937 0.219356 0.205407 0.191453 0.177495 0.163534 0.149568 0.135598 0.121624 0.107646 0.0941354 0.0815642 0.0699324 0