<?xml version="1.0"?> 
<VTKFile type="StructuredGrid" version="0.1"> 
<StructuredGrid WholeExtent="0 128 0 128 0 0"> 
<Piece Extent="0 128 0 128 0 0"> 
<PointData>
<DataArray type="Float32" Name="u" format="ascii" NumberOfComponents="1"> 
0 0 0 0 0 0 0 0 0 0 0 0 0 0 0 0 0 0 0 0 0 0 0 0 0 0 0 0 0 0 0 0 0 0 0 0 0 0 0 0 0 0 0 0 0 0 0 0 0 0 0 0 0 0 0 0 0 0 0 0 0 0 0 0 0 0 0 0 0 0 0 0 0 0 0 0 0 0 0 0 0 0 0 0 0 0 0 0 0 0 0 0 0 0 0 0 0 0 0 0 0 0 0 0 0 0 0 0 0 0 0 0 0 0 0 0 0 0 0 0 0 0 0 0 0 0 0 0 0 0 2.88463e-07 1.15385e-06 2.59617e-06 4.61542e-06 7.21159e-06 1.03847e-05 1.41347e-05 1.84617e-05 2.36016e-05 2.97907e-05 3.70289e-05 4.53162e-05 5.46526e-05 6.50382e-05 7.64728e-05 8.89566e-05 0.000102018 0.000115184 0.000128455 0.000141832 0.000155314 0.000168901 0.000182594 0.000196391 0.000209854 0.000222542 0.000234454 0.000245591 0.000255953 0.00026554 0.000274351 0.000282387 0.000289577 0.000295848 0.0003012 0.000305634 0.00030915 0.000311748 0.000313427 0.000314188 0.000314328 0.000314144 0.000313637 0.000312808 0.000311654 0.000310178 0.000308378 0.000306255 0.000304253 0.000302816 0.000301944 0.000301638 0.000301897 0.000302721 0.000304111 0.000306066 0.000308841 0.00031269 0.000317614 0.000323613 0.000330686 0.000338834 0.000348056 0.000358354 0.000369557 0.000381497 0.000394174 0.000407588 0.000421739 0.000436628 0.000452254 0.000468616 0.000485169 0.000501363 0.0005172 0.000532678 0.000547799 0.000562561 0.000576966 0.000591013 0.000604093 0.000615599 0.00062553 0.000633886 0.000640667 0.000645874 0.000649505 0.000651562 0.000651768 0.000649846 0.000645796 0.000639619 0.000631314 0.000620881 0.000608321 0.000593633 0.000577103 0.000559014 0.000539367 0.000518163 0.0004954 0.000471079 0.000445201 0.000417764 0.000389606 0.000361564 0.000333636 0.000305824 0.000278126 0.000250544 0.000223077 0.000195725 0.000169461 0.000145256 0.00012311 0.000103024 8.49976e-05 6.90304e-05 5.51227e-05 4.32743e-05 3.31319e-05 2.43418e-05 1.6904e-05 1.08186e-05 6.08546e-06 2.70465e-06 6.76162e-07 0 0 1.15385e-06 4.61542e-06 1.03847e-05 1.84617e-05 2.88463e-05 4.15387e-05 5.65388e-05 7.38467e-05 9.44065e-05 0.000119163 0.000148116 0.000181265 0.000218611 0.000260153 0.000305891 0.000355826 0.00040807 0.000460735 0.000513821 0.000567328 0.000621256 0.000675605 0.000730375 0.000785566 0.000839417 0.000890167 0.000937816 0.000982365 0.00102381 0.00106216 0.0010974 0.00112955 0.00115831 0.00118339 0.0012048 0.00122254 0.0012366 0.00124699 0.00125371 0.00125675 0.00125731 0.00125658 0.00125455 0.00125123 0.00124662 0.00124071 0.00123351 0.00122502 0.00121701 0.00121126 0.00120778 0.00120655 0.00120759 0.00121088 0.00121644 0.00122426 0.00123536 0.00125076 0.00127046 0.00129445 0.00132274 0.00135534 0.00139223 0.00143341 0.00147823 0.00152599 0.0015767 0.00163035 0.00168696 0.00174651 0.00180901 0.00187447 0.00194068 0.00200545 0.0020688 0.00213071 0.0021912 0.00225025 0.00230786 0.00236405 0.00241637 0.0024624 0.00250212 0.00253554 0.00256267 0.00258349 0.00259802 0.00260625 0.00260707 0.00259938 0.00258319 0.00255848 0.00252526 0.00248353 0.00243328 0.00237453 0.00230841 0.00223606 0.00215747 0.00207265 0.0019816 0.00188432 0.0017808 0.00167106 0.00155843 0.00144625 0.00133454 0.00122329 0.00111251 0.00100218 0.000892309 0.000782902 0.000677844 0.000581024 0.000492442 0.000412097 0.000339991 0.000276122 0.000220491 0.000173097 0.000132528 9.73673e-05 6.76162e-05 4.32743e-05 2.43418e-05 1.08186e-05 2.70465e-06 0 0 2.59617e-06 1.03847e-05 2.33655e-05 4.15387e-05 6.49043e-05 9.34622e-05 0.000127212 0.000166155 0.000212415 0.000268116 0.00033326 0.000407846 0.000491874 0.000585344 0.000688255 0.000800609 0.000918158 0.00103665 0.0011561 0.00127649 0.00139783 0.00152011 0.00164334 0.00176752 0.00188869 0.00200288 0.00211009 0.00221032 0.00230358 0.00238986 0.00246916 0.00254148 0.00260619 0.00266263 0.0027108 0.00275071 0.00278235 0.00280573 0.00282084 0.00282769 0.00282895 0.0028273 0.00282274 0.00281527 0.00280489 0.0027916 0.0027754 0.00275629 0.00273827 0.00272534 0.0027175 0.00271474 0.00271707 0.00272449 0.002737 0.00275459 0.00277957 0.00281421 0.00285853 0.00291252 0.00297617 0.00304951 0.00313251 0.00322518 0.00332601 0.00343347 0.00354756 0.00366829 0.00379566 0.00392965 0.00407028 0.00421755 0.00436652 0.00451227 0.0046548 0.0047941 0.00493019 0.00506305 0.0051927 0.00531912 0.00543684 0.00554039 0.00562977 0.00570497 0.00576601 0.00581286 0.00584555 0.00586406 0.00586591 0.00584861 0.00581217 0.00575657 0.00568183 0.00558793 0.00547489 0.0053427 0.00519392 0.00503113 0.00485431 0.00466346 0.0044586 0.00423972 0.00400681 0.00375988 0.00350646 0.00325407 0.00300272 0.00275241 0.00250314 0.0022549 0.0020077 0.00176153 0.00152515 0.0013073 0.00110799 0.000927219 0.000764979 0.000621274 0.000496104 0.000389469 0.000298187 0.000219076 0.000152136 9.73673e-05 5.47691e-05 2.43418e-05 6.08546e-06 0 0 4.61542e-06 1.84617e-05 4.15387e-05 7.38467e-05 0.000115385 0.000166155 0.000226155 0.000295387 0.000377626 0.000476652 0.000592463 0.00072506 0.000874442 0.00104061 0.00122357 0.00142331 0.00163228 0.00184294 0.00205528 0.00226931 0.00248502 0.00270242 0.0029215 0.00314226 0.00335767 0.00356067 0.00375127 0.00392946 0.00409525 0.00424863 0.00438962 0.0045182 0.00463322 0.00473356 0.0048192 0.00489015 0.0049464 0.00498796 0.00501483 0.005027 0.00502924 0.00502631 0.0050182 0.00500492 0.00498647 0.00496284 0.00493405 0.00490007 0.00486804 0.00484505 0.00483111 0.00482621 0.00483035 0.00484354 0.00486577 0.00489705 0.00494145 0.00500304 0.00508183 0.0051778 0.00529098 0.00542134 0.0055689 0.00573366 0.0059129 0.00610395 0.00630678 0.00652141 0.00674783 0.00698605 0.00723606 0.00749786 0.0077627 0.00802181 0.00827519 0.00852285 0.00876478 0.00900098 0.00923146 0.00945621 0.0096655 0.00984959 0.0100085 0.0101422 0.0102507 0.010334 0.0103921 0.010425 0.0104283 0.0103975 0.0103327 0.0102339 0.010101 0.0099341 0.00973314 0.00949813 0.00923364 0.00894422 0.00862988 0.0082906 0.0079264 0.00753727 0.00712321 0.00668423 0.0062337 0.00578502 0.00533818 0.00489318 0.00445002 0.00400871 0.00356924 0.00313161 0.00271138 0.0023241 0.00196977 0.00164839 0.00135996 0.00110449 0.000881963 0.00069239 0.000530111 0.000389469 0.000270465 0.000173097 9.73673e-05 4.32743e-05 1.08186e-05 0 0 7.21159e-06 2.88463e-05 6.49043e-05 0.000115385 0.00018029 0.000259617 0.000353368 0.000461542 0.000590041 0.000744768 0.000925723 0.00113291 0.00136632 0.00162595 0.00191182 0.00222391 0.00255044 0.00287959 0.00321138 0.0035458 0.00388285 0.00422253 0.00456484 0.00490979 0.00524636 0.00556354 0.00586135 0.00613978 0.00639883 0.00663849 0.00685878 0.00705968 0.00723941 0.00739619 0.00753 0.00764086 0.00772876 0.00779369 0.00783567 0.00785469 0.00785819 0.0078536 0.00784094 0.00782019 0.00779136 0.00775444 0.00770945 0.00765637 0.00760631 0.00757039 0.0075486 0.00754095 0.00754742 0.00756803 0.00760277 0.00765164 0.00772101 0.00781725 0.00794035 0.00809032 0.00826715 0.00847085 0.00870141 0.00895884 0.00923891 0.00953741 0.00985434 0.0101897 0.0105435 0.0109157 0.0113063 0.0117154 0.0121292 0.0125341 0.01293 0.013317 0.013695 0.014064 0.0144242 0.0147753 0.0151023 0.01539 0.0156382 0.0158472 0.0160167 0.0161468 0.0162376 0.0162891 0.0162942 0.0162461 0.0161449 0.0159905 0.0157829 0.015522 0.015208 0.0148408 0.0144276 0.0139753 0.0134842 0.0129541 0.012385 0.011777 0.01113 0.0104441 0.00974016 0.00903909 0.0083409 0.00764559 0.00695316 0.00626361 0.00557693 0.00489314 0.00423653 0.0036314 0.00307776 0.00257561 0.00212494 0.00172576 0.00137807 0.00108186 0.000828298 0.000608546 0.000422601 0.000270465 0.000152136 6.76162e-05 1.6904e-05 0 0 1.03847e-05 4.15387e-05 9.34622e-05 0.000166155 0.000259617 0.000373849 0.00050885 0.00066462 0.000849659 0.00107247 0.00133304 0.00163138 0.0019675 0.00234137 0.00275302 0.00320244 0.00367263 0.00414661 0.00462439 0.00510595 0.0055913 0.00608044 0.00657337 0.00707009 0.00755475 0.0080115 0.00844035 0.00884128 0.00921431 0.00955943 0.00987664 0.0101659 0.0104248 0.0106505 0.0108432 0.0110028 0.0111294 0.0112229 0.0112834 0.0113108 0.0113158 0.0113092 0.0112909 0.0112611 0.0112196 0.0111664 0.0111016 0.0110252 0.0109531 0.0109014 0.01087 0.010859 0.0108683 0.010898 0.010948 0.0110184 0.0111183 0.0112568 0.0114341 0.0116501 0.0119047 0.012198 0.01253 0.0129007 0.013304 0.0137339 0.0141903 0.0146732 0.0151826 0.0157186 0.0162811 0.0168702 0.0174661 0.0180491 0.0186192 0.0191764 0.0197208 0.0202522 0.0207708 0.0212765 0.0217474 0.0221616 0.0225191 0.0228199 0.023064 0.0232515 0.0233822 0.0234562 0.0234636 0.0233945 0.0232487 0.0230263 0.0227273 0.0223517 0.0218996 0.0213708 0.0207757 0.0201245 0.0194172 0.0186539 0.0178344 0.0169589 0.0160272 0.0150395 0.0140258 0.0130163 0.0120109 0.0110096 0.0100125 0.00901959 0.00803078 0.00704612 0.0061006 0.00522922 0.00443198 0.00370888 0.00305992 0.0024851 0.00198442 0.00155788 0.00119275 0.000876306 0.000608546 0.000389469 0.000219076 9.73673e-05 2.43418e-05 0 0 1.41347e-05 5.65388e-05 0.000127212 0.000226155 0.000353368 0.00050885 0.000692601 0.000904622 0.00115648 0.00145975 0.00181442 0.00222049 0.00267798 0.00318687 0.00374717 0.00435887 0.00499886 0.005644 0.0062943 0.00694976 0.00761038 0.00827616 0.00894709 0.00962318 0.0102829 0.0109045 0.0114883 0.012034 0.0125417 0.0130114 0.0134432 0.013837 0.0141893 0.0144965 0.0147588 0.0149761 0.0151484 0.0152756 0.0153579 0.0153952 0.015402 0.0153931 0.0153682 0.0153276 0.0152711 0.0151987 0.0151105 0.0150065 0.0149084 0.014838 0.0147953 0.0147803 0.0147929 0.0148333 0.0149014 0.0149972 0.0151332 0.0153218 0.0155631 0.015857 0.0162036 0.0166029 0.0170548 0.0175593 0.0181083 0.0186933 0.0193145 0.0199718 0.0206652 0.0213948 0.0221604 0.0229622 0.0237733 0.0245668 0.0253428 0.0261012 0.0268421 0.0275655 0.0282713 0.0289596 0.0296006 0.0301644 0.030651 0.0310604 0.0313927 0.0316478 0.0318258 0.0319266 0.0319366 0.0318424 0.031644 0.0313413 0.0309344 0.0304232 0.0298077 0.029088 0.028278 0.0273917 0.026429 0.02539 0.0242746 0.0230829 0.0218148 0.0204705 0.0190907 0.0177166 0.0163482 0.0149854 0.0136282 0.0122767 0.0109308 0.00959055 0.00830359 0.00711754 0.00603241 0.00504819 0.00416488 0.00338249 0.00270101 0.00212044 0.00162346 0.00119275 0.000828298 0.000530111 0.000298187 0.000132528 3.31319e-05 0 0 1.84617e-05 7.38467e-05 0.000166155 0.000295387 0.000461542 0.00066462 0.000904622 0.00118155 0.0015105 0.00190661 0.00236985 0.00290024 0.00349777 0.00416244 0.00489426 0.00569322 0.00652912 0.00737176 0.00822113 0.00907724 0.00994009 0.0108097 0.011686 0.0125691 0.0134307 0.0142427 0.0150051 0.0157178 0.016381 0.0169945 0.0175585 0.0180728 0.0185329 0.0189342 0.0192768 0.0195606 0.0197856 0.0199519 0.0200593 0.020108 0.020117 0.0201052 0.0200728 0.0200197 0.0199459 0.0198514 0.0197362 0.0196003 0.0194722 0.0193802 0.0193244 0.0193048 0.0193214 0.0193742 0.0194631 0.0195882 0.0197658 0.0200122 0.0203273 0.0207112 0.0211639 0.0216854 0.0222756 0.0229346 0.0236516 0.0244158 0.0252271 0.0260856 0.0269913 0.0279442 0.0289442 0.0299915 0.0310508 0.0320872 0.0331008 0.0340914 0.0350591 0.0360039 0.0369258 0.0378248 0.038662 0.0393983 0.0400339 0.0405687 0.0410027 0.0413359 0.0415683 0.0417 0.0417131 0.0415901 0.041331 0.0409356 0.0404041 0.0397364 0.0389326 0.0379925 0.0369346 0.0357769 0.0345195 0.0331624 0.0317056 0.0301491 0.0284929 0.0267369 0.0249348 0.0231401 0.0213527 0.0195727 0.0178001 0.0160348 0.0142769 0.0125264 0.0108455 0.00929638 0.00787907 0.00659356 0.00543985 0.00441795 0.00352785 0.00276956 0.00212044 0.00155788 0.00108186 0.00069239 0.000389469 0.000173097 4.32743e-05 0 0 2.37469e-05 9.49874e-05 0.000213722 0.00037995 0.000593671 0.000854887 0.0011636 0.0015198 0.00194234 0.00245005 0.00304295 0.00372102 0.00448427 0.00533269 0.0062663 0.00728508 0.00835064 0.00942457 0.0105069 0.0115976 0.0126966 0.013804 0.0149199 0.016044 0.0171409 0.0181748 0.0191458 0.0200538 0.0208989 0.021681 0.0224001 0.0230563 0.0236437 0.0241565 0.0245946 0.0249582 0.0252471 0.0254614 0.0256011 0.0256662 0.0256807 0.0256688 0.0256305 0.0255657 0.0254744 0.0253567 0.0252126 0.025042 0.0248809 0.0247654 0.0246954 0.0246709 0.024692 0.0247586 0.0248707 0.0250284 0.0252523 0.025563 0.0259605 0.0264448 0.027016 0.027674 0.0284189 0.0292506 0.0301555 0.0311199 0.032144 0.0332276 0.0343708 0.0355736 0.036836 0.038158 0.0394952 0.0408034 0.0420826 0.0433328 0.044554 0.0457461 0.0469093 0.0480434 0.0490993 0.0500276 0.0508285 0.0515018 0.0520477 0.0524661 0.0527569 0.0529202 0.0529337 0.0527749 0.0524439 0.0519405 0.051265 0.0504171 0.049397 0.0482047 0.0468631 0.0453954 0.0438014 0.0420813 0.0402351 0.0382626 0.036164 0.0339392 0.0316559 0.0293816 0.0271163 0.0248601 0.0226129 0.0203748 0.0181457 0.0159257 0.0137935 0.0118279 0.0100288 0.00839626 0.00693031 0.00563093 0.00449811 0.00353186 0.00270408 0.00198667 0.00137963 0.000882965 0.000496668 0.000220741 5.51853e-05 0 0 3.03716e-05 0.000121486 0.000273344 0.000485945 0.00075929 0.00109338 0.00148821 0.00194378 0.00248258 0.00312709 0.00387731 0.00473324 0.00569488 0.00676223 0.00793528 0.00921405 0.0105506 0.0118971 0.0132536 0.0146199 0.0159961 0.0173823 0.0187784 0.0201844 0.0215563 0.02285 0.0240656 0.0252029 0.0262621 0.027243 0.0281458 0.0289705 0.0297096 0.030356 0.0309097 0.0313706 0.0317388 0.0320142 0.0321969 0.0322868 0.0323136 0.0323071 0.0322672 0.0321939 0.0320872 0.0319472 0.0317737 0.0315669 0.0313711 0.0312309 0.0311461 0.0311169 0.0311431 0.0312249 0.0313622 0.0315549 0.0318288 0.0322092 0.0326963 0.03329 0.0339904 0.0347973 0.0357109 0.0367311 0.0378412 0.0390245 0.040281 0.0416107 0.0430137 0.0444898 0.0460392 0.0476618 0.049303 0.0509083 0.0524778 0.0540113 0.055509 0.0569708 0.0583967 0.0597867 0.0610801 0.0622163 0.0631953 0.0640169 0.0646813 0.0651885 0.0655384 0.065731 0.0657388 0.0655342 0.0651171 0.0644875 0.0636455 0.0625911 0.0613242 0.0598448 0.0581814 0.0563623 0.0543875 0.0522569 0.0499707 0.0475287 0.044931 0.0421777 0.0393516 0.036536 0.0337307 0.0309359 0.0281514 0.0253773 0.0226136 0.0198604 0.0172147 0.0147741 0.0125383 0.0105076 0.00868176 0.00706089 0.00564496 0.00443399 0.00339478 0.00249412 0.00173203 0.0011085 0.00062353 0.000277125 6.92811e-05 0 0 3.83359e-05 0.000153343 0.000345023 0.000613374 0.000958396 0.00138009 0.00187846 0.00245349 0.00313124 0.00393772 0.00487294 0.0059369 0.0071296 0.00845104 0.00990121 0.0114801 0.0131291 0.0147894 0.0164612 0.0181442 0.0198387 0.0215445 0.0232617 0.0249903 0.0266769 0.0282682 0.0297643 0.031165 0.0324705 0.0336807 0.0347956 0.0358153 0.0367307 0.0375329 0.038222 0.0387979 0.0392606 0.0396102 0.0398465 0.0399697 0.0400156 0.04002 0.0399829 0.0399043 0.0397842 0.0396226 0.0394196 0.039175 0.0389428 0.0387766 0.0386766 0.0386426 0.0386748 0.038773 0.0389374 0.0391678 0.0394953 0.039951 0.0405349 0.0412468 0.0420869 0.0430552 0.0441516 0.0453761 0.0467088 0.0481295 0.0496382 0.051235 0.0529199 0.0546928 0.0565538 0.0585029 0.0604742 0.062402 0.0642862 0.066127 0.0679242 0.0696779 0.0713881 0.0730547 0.0746046 0.0759644 0.0771342 0.0781139 0.0789036 0.0795033 0.0799128 0.0801324 0.0801285 0.079868 0.0793506 0.0785766 0.0775458 0.0762583 0.074714 0.072913 0.0708895 0.0686777 0.0662776 0.0636891 0.0609124 0.0579473 0.0547939 0.0514522 0.0480221 0.0446033 0.041196 0.0378 0.0344155 0.0310424 0.0276807 0.0243304 0.0211092 0.018135 0.0154078 0.0129275 0.0106942 0.00870783 0.00696841 0.00547595 0.00419252 0.00308022 0.00213904 0.00136899 0.000770055 0.000342247 8.55617e-05 0 0 4.76397e-05 0.000190559 0.000428757 0.000762235 0.00119099 0.00171503 0.00233434 0.00304894 0.00388831 0.00488194 0.00602984 0.007332 0.00878843 0.0103991 0.0121641 0.0140833 0.016086 0.0181015 0.0201297 0.0221706 0.0242242 0.0262906 0.0283697 0.0304615 0.0325026 0.0344294 0.036242 0.0379402 0.0395243 0.040994 0.0423495 0.0435907 0.0447069 0.0456872 0.0465316 0.04724 0.0478126 0.0482493 0.0485501 0.0487151 0.0487867 0.0488075 0.0487775 0.0486968 0.0485654 0.0483831 0.0481501 0.0478664 0.0475959 0.0474027 0.0472868 0.0472482 0.0472869 0.047403 0.0475963 0.0478669 0.0482519 0.0487883 0.0494761 0.0503152 0.0513058 0.0524477 0.053741 0.0551857 0.0567582 0.0584348 0.0602156 0.0621004 0.0640894 0.0661826 0.0683798 0.0706812 0.0730088 0.0752843 0.077508 0.0796797 0.0817996 0.0838675 0.0858834 0.0878475 0.0896727 0.0912719 0.0926453 0.0937929 0.0947145 0.0954103 0.0958802 0.0961243 0.0961028 0.0957762 0.0951445 0.0942077 0.0929658 0.0914187 0.0895666 0.0874093 0.0849874 0.0823416 0.0794718 0.076378 0.0730602 0.0695184 0.0657527 0.0617629 0.0576672 0.0535836 0.0495121 0.0454526 0.0414053 0.03737 0.0333468 0.0293357 0.0254769 0.0219107 0.0186371 0.0156561 0.0129676 0.0105718 0.00846846 0.00665773 0.00509733 0.00374498 0.00260068 0.00166443 0.000936244 0.000416108 0.000104027 0 0 5.8283e-05 0.000233132 0.000524547 0.000932528 0.00145708 0.00209819 0.00285587 0.00373011 0.00475379 0.00595975 0.007348 0.00891855 0.0106714 0.0126065 0.0147239 0.0170236 0.0194215 0.0218333 0.0242591 0.026699 0.0291528 0.0316206 0.0341024 0.0365982 0.0390335 0.0413336 0.0434986 0.0455285 0.0474233 0.0491829 0.0508075 0.0522969 0.0536383 0.0548187 0.0558383 0.056697 0.0573948 0.0579317 0.0583077 0.0585228 0.0586268 0.0586696 0.0586512 0.0585716 0.0584307 0.0582287 0.0579654 0.0576409 0.0573304 0.057109 0.0569768 0.0569336 0.0569796 0.0571148 0.057339 0.0576524 0.0580986 0.0587211 0.05952 0.0604952 0.0616469 0.0629748 0.0644792 0.0661599 0.0679896 0.0699406 0.0720131 0.074207 0.0765223 0.0789591 0.0815173 0.0841969 0.0869067 0.0895554 0.0921431 0.0946696 0.0971351 0.0995395 0.101883 0.104165 0.106284 0.108139 0.109729 0.111054 0.112114 0.11291 0.113441 0.113707 0.113662 0.113259 0.112499 0.111381 0.109905 0.108072 0.105882 0.103334 0.100475 0.097354 0.0939701 0.0903235 0.0864142 0.0822421 0.0778073 0.0731098 0.0682871 0.0634768 0.058679 0.0538936 0.0491207 0.0443601 0.0396121 0.0348764 0.0303179 0.0261012 0.0222263 0.0186933 0.0155021 0.0126527 0.0101451 0.00797935 0.00610919 0.00448838 0.00311693 0.00199484 0.0011221 0.000498709 0.000124677 0 0 7.02659e-05 0.000281064 0.000632393 0.00112425 0.00175665 0.00252957 0.00344303 0.00449702 0.00572768 0.00717115 0.00882744 0.0106965 0.0127784 0.0150732 0.0175807 0.020301 0.0231354 0.0259849 0.0288495 0.0317294 0.0346244 0.0375345 0.0404599 0.0434004 0.0462695 0.0489808 0.0515343 0.0539299 0.0561676 0.0582475 0.0601695 0.0619336 0.0635247 0.0649277 0.0661424 0.0671689 0.0680072 0.0686573 0.0691192 0.0693929 0.069536 0.0696064 0.0696039 0.0695285 0.0693803 0.0691593 0.0688654 0.0684987 0.0681464 0.0678956 0.0677464 0.0676988 0.0677528 0.0679084 0.0681655 0.0685242 0.0690353 0.0697494 0.0706666 0.0717868 0.0731102 0.0746366 0.0763661 0.0782987 0.0804028 0.0826468 0.0850308 0.0875547 0.0902186 0.0930224 0.0959662 0.0990499 0.102168 0.105215 0.108191 0.111097 0.113931 0.116694 0.119386 0.122007 0.12444 0.126565 0.128384 0.129897 0.131102 0.132001 0.132594 0.13288 0.132805 0.132316 0.131413 0.130096 0.128365 0.126219 0.12366 0.120686 0.117353 0.113715 0.109773 0.105526 0.100974 0.0961183 0.0909578 0.0854927 0.0798816 0.074283 0.0686967 0.063123 0.0575617 0.0520128 0.0464764 0.0409525 0.0356321 0.0307064 0.0261754 0.0220391 0.0182975 0.0149506 0.0119983 0.00944079 0.0072281 0.00531044 0.00368781 0.0023602 0.00132761 0.000590049 0.000147512 0 0 8.35884e-05 0.000334354 0.000752295 0.00133741 0.00208971 0.00300918 0.00409583 0.00534966 0.00680999 0.00851614 0.0104681 0.012666 0.0151096 0.0177991 0.0207344 0.0239155 0.0272277 0.0305562 0.0339008 0.0372618 0.0406389 0.0440323 0.047442 0.0508679 0.0542107 0.0573711 0.0603489 0.0631443 0.0657572 0.0681876 0.0704356 0.072501 0.0743664 0.0760139 0.0774436 0.0786556 0.0796497 0.0804261 0.0809846 0.0813254 0.0815144 0.0816178 0.0816355 0.0815676 0.0814141 0.081175 0.0808502 0.0804397 0.0800438 0.0797625 0.0795959 0.0795439 0.0796065 0.0797838 0.0800758 0.0804823 0.081062 0.0818732 0.0829158 0.08419 0.0856957 0.087433 0.0894017 0.091602 0.0939978 0.0965534 0.0992686 0.102144 0.105178 0.108372 0.111726 0.11524 0.118793 0.122264 0.125653 0.128961 0.132187 0.135331 0.138393 0.141374 0.144138 0.146551 0.148612 0.150321 0.151679 0.152685 0.15334 0.153643 0.153533 0.152948 0.151888 0.150353 0.148344 0.145859 0.1429 0.139466 0.13562 0.131424 0.126879 0.121984 0.11674 0.111147 0.105204 0.0989118 0.0924509 0.086002 0.0795653 0.0731408 0.0667283 0.0603281 0.0539399 0.0475639 0.0414195 0.0357264 0.0304844 0.0256935 0.0213539 0.0174654 0.0140282 0.0110421 0.00845407 0.00621116 0.0043133 0.00276051 0.00155279 0.000690128 0.000172532 0 0 9.82504e-05 0.000393001 0.000884253 0.00157201 0.00245626 0.00353701 0.00481427 0.00628802 0.0080007 0.00999473 0.0122701 0.0148268 0.0176649 0.0207843 0.0241851 0.0278672 0.0316986 0.0355472 0.0394131 0.0432962 0.0471965 0.0511141 0.0550489 0.0590009 0.0628571 0.0665043 0.0699425 0.0731718 0.0761921 0.0790034 0.0816057 0.0839991 0.0861631 0.0880775 0.0897422 0.0911571 0.0923224 0.093238 0.093904 0.0943202 0.0945618 0.0947038 0.0947462 0.0946889 0.0945321 0.0942757 0.0939196 0.093464 0.0930227 0.0927097 0.0925251 0.0924688 0.0925408 0.0927411 0.0930698 0.0935268 0.0941788 0.0950924 0.0962678 0.0977048 0.0994036 0.101364 0.103586 0.10607 0.108775 0.11166 0.114727 0.117974 0.121401 0.125009 0.128798 0.132768 0.136781 0.140701 0.144528 0.148262 0.151903 0.15545 0.158905 0.162266 0.165381 0.168096 0.170412 0.172328 0.173845 0.174962 0.175679 0.175997 0.175845 0.175154 0.173923 0.172153 0.169843 0.166993 0.163603 0.159674 0.155277 0.150482 0.14529 0.1397 0.133713 0.127328 0.120546 0.113367 0.105995 0.098634 0.0912848 0.083947 0.0766206 0.0693058 0.0620025 0.0547107 0.0476802 0.0411611 0.0351532 0.0296566 0.0246713 0.0201973 0.0162346 0.0127831 0.0097871 0.00719052 0.00499342 0.00319579 0.00179763 0.000798947 0.000199737 0 0 0.000114071 0.000456285 0.00102664 0.00182514 0.00285178 0.00410657 0.00558949 0.00730056 0.00928516 0.0115887 0.0142111 0.0171524 0.0204127 0.0239918 0.0278899 0.0321069 0.0364924 0.0408959 0.0453174 0.049757 0.0542146 0.0586902 0.0631839 0.0676956 0.0720979 0.0762632 0.0801915 0.0838829 0.0873372 0.0905546 0.0935351 0.0962785 0.0987618 0.100962 0.102878 0.104511 0.10586 0.106926 0.107709 0.108208 0.108508 0.108693 0.108763 0.108719 0.108559 0.108285 0.107896 0.107392 0.106902 0.106553 0.106347 0.106282 0.106359 0.106579 0.106939 0.107442 0.108162 0.109175 0.11048 0.112078 0.113968 0.116151 0.118627 0.121395 0.12441 0.127628 0.131048 0.134671 0.138495 0.142522 0.146752 0.151183 0.155663 0.160039 0.16431 0.168476 0.172537 0.176493 0.180345 0.184092 0.187562 0.190583 0.193155 0.195278 0.196953 0.198178 0.198955 0.199283 0.199083 0.198277 0.196865 0.194846 0.192221 0.18899 0.185152 0.180708 0.175737 0.170319 0.164454 0.158143 0.151384 0.144178 0.136526 0.128426 0.120108 0.111801 0.103504 0.0952176 0.0869416 0.0786761 0.070421 0.0621764 0.0542237 0.0468444 0.0400385 0.0338059 0.0281467 0.0230609 0.0185485 0.0146095 0.0111854 0.00821782 0.00570682 0.00365237 0.00205446 0.000913091 0.000228273 0 0 0.000130871 0.000523483 0.00117784 0.00209393 0.00327177 0.00471134 0.00641266 0.00837572 0.0106487 0.0132797 0.0162689 0.0196161 0.0233214 0.0273848 0.0318062 0.0365858 0.0415536 0.04654 0.051545 0.0565686 0.0616107 0.0666714 0.0717506 0.0768484 0.0818225 0.0865304 0.0909723 0.095148 0.0990577 0.102701 0.106079 0.10919 0.112009 0.114509 0.116691 0.118554 0.120098 0.121324 0.122231 0.122819 0.123182 0.123414 0.123514 0.123483 0.123321 0.123027 0.122602 0.122045 0.1215 0.12111 0.120874 0.120793 0.120866 0.121094 0.121477 0.122014 0.12279 0.123889 0.125311 0.127057 0.129125 0.131517 0.134232 0.13727 0.140581 0.144117 0.147877 0.15186 0.156068 0.1605 0.165157 0.170037 0.174971 0.179789 0.184491 0.189077 0.193547 0.197901 0.202139 0.206261 0.210076 0.213393 0.216212 0.218534 0.220357 0.221683 0.222512 0.222842 0.222587 0.221659 0.220059 0.217785 0.214839 0.21122 0.206927 0.201962 0.196413 0.190366 0.183823 0.176783 0.169247 0.161213 0.152683 0.143657 0.134386 0.125125 0.115872 0.106629 0.0973943 0.0881688 0.0789523 0.0697448 0.0608597 0.0526104 0.0449969 0.0380192 0.0316773 0.0259712 0.0209009 0.0164664 0.0126071 0.00926234 0.00643218 0.0041166 0.00231559 0.00102915 0.000257287 0 0 0.000148648 0.000594594 0.00133784 0.00237837 0.00371621 0.00535134 0.00728377 0.0095135 0.0120913 0.0150679 0.0184435 0.0222178 0.026391 0.0309631 0.035934 0.0413037 0.0468823 0.0524797 0.0580959 0.063731 0.0693848 0.0750575 0.080749 0.0864592 0.0920308 0.0973059 0.102285 0.106967 0.111353 0.115443 0.119237 0.122734 0.125905 0.128721 0.131181 0.133286 0.135036 0.13643 0.137469 0.138153 0.138584 0.138866 0.138999 0.138982 0.138817 0.138501 0.138037 0.137423 0.136818 0.136379 0.136107 0.136001 0.136062 0.136289 0.136682 0.137241 0.138061 0.139234 0.140761 0.14264 0.144874 0.14746 0.1504 0.153694 0.157287 0.161127 0.165212 0.169543 0.17412 0.178944 0.184013 0.189329 0.194704 0.199952 0.205073 0.210067 0.214934 0.219674 0.224287 0.228773 0.232923 0.236526 0.239583 0.242094 0.244059 0.245477 0.246349 0.246674 0.246357 0.245301 0.243505 0.24097 0.237696 0.233683 0.228931 0.223439 0.217304 0.210623 0.203396 0.195621 0.187301 0.178433 0.169019 0.159059 0.148829 0.138605 0.128389 0.11818 0.107979 0.0977839 0.0875963 0.0774157 0.067588 0.0584589 0.0500283 0.0422963 0.0352629 0.028928 0.0232917 0.0183539 0.0140522 0.0103241 0.0071695 0.00458848 0.00258102 0.00114712 0.00028678 0 0 0.000167405 0.000669618 0.00150664 0.00267847 0.00418511 0.00602656 0.00820282 0.0107139 0.013613 0.0169533 0.0207348 0.0249576 0.0296215 0.0347267 0.0402732 0.0462608 0.0524784 0.0587149 0.0649701 0.0712441 0.0775369 0.0838485 0.0901789 0.0965281 0.102723 0.10859 0.114129 0.119341 0.124224 0.12878 0.133009 0.136909 0.140449 0.143596 0.146349 0.148708 0.150674 0.152246 0.153425 0.15421 0.154715 0.15505 0.155218 0.155216 0.155047 0.154708 0.154201 0.153526 0.152855 0.152362 0.152046 0.151907 0.151945 0.152161 0.152554 0.153125 0.153976 0.15521 0.156828 0.158829 0.161214 0.163982 0.167133 0.170668 0.174529 0.178657 0.183054 0.187719 0.192652 0.197853 0.203322 0.209059 0.214861 0.220526 0.226054 0.231444 0.236696 0.241812 0.246789 0.25163 0.256104 0.259984 0.263269 0.26596 0.268057 0.269559 0.270466 0.27078 0.270393 0.269201 0.267204 0.264401 0.260793 0.25638 0.251161 0.245137 0.238412 0.231091 0.223172 0.214658 0.205546 0.195838 0.185534 0.174632 0.163435 0.152243 0.141055 0.129873 0.118695 0.107521 0.096353 0.0851893 0.0744088 0.06439 0.0551329 0.0466374 0.0389036 0.0319314 0.0257209 0.0202721 0.0155208 0.011403 0.00791877 0.00506802 0.00285076 0.001267 0.000316751 0 0 0.000187139 0.000748556 0.00168425 0.00299423 0.00467848 0.00673701 0.00916981 0.0119769 0.0152137 0.0189357 0.023143 0.0278354 0.033013 0.0386758 0.0448238 0.051457 0.058342 0.0652456 0.0721676 0.0791081 0.0860671 0.0930446 0.100041 0.107055 0.113899 0.120382 0.126505 0.132268 0.137671 0.142713 0.147395 0.151717 0.155642 0.159134 0.162193 0.164819 0.167012 0.168771 0.170098 0.170991 0.171573 0.171966 0.17217 0.172185 0.172011 0.171648 0.171095 0.170354 0.169612 0.169057 0.168689 0.16851 0.168517 0.168712 0.169095 0.169665 0.170535 0.171818 0.173514 0.175624 0.178146 0.181082 0.18443 0.188192 0.192305 0.196709 0.201403 0.206387 0.211662 0.217227 0.223082 0.229227 0.235444 0.241513 0.247435 0.253209 0.258835 0.264314 0.269645 0.274829 0.279618 0.283764 0.287269 0.290131 0.292351 0.293929 0.294865 0.295158 0.294695 0.293361 0.291155 0.288078 0.28413 0.27931 0.273619 0.267057 0.259736 0.251768 0.243153 0.233892 0.223983 0.213428 0.202226 0.190378 0.178207 0.166038 0.15387 0.141705 0.129542 0.117381 0.105222 0.0930655 0.0813221 0.0704038 0.0603105 0.0510424 0.0425994 0.0349814 0.0281886 0.0222208 0.0170128 0.0124992 0.00868001 0.0055552 0.0031248 0.0013888 0.0003472 0 0 0.000207852 0.000831408 0.00187067 0.00332563 0.0051963 0.00748267 0.0101847 0.0133025 0.0168935 0.0210153 0.0256679 0.0308512 0.0365653 0.0428102 0.0495859 0.0568923 0.0644731 0.0720717 0.0796883 0.0873228 0.0949752 0.102646 0.110334 0.11804 0.125558 0.132682 0.139413 0.145749 0.151692 0.157241 0.162396 0.167157 0.171484 0.175337 0.178715 0.18162 0.18405 0.186006 0.187487 0.188495 0.18916 0.189614 0.189856 0.189888 0.189709 0.189319 0.188718 0.187906 0.187087 0.186465 0.186039 0.18581 0.185777 0.185942 0.186303 0.18686 0.187737 0.189057 0.190819 0.193023 0.19567 0.19876 0.202291 0.206266 0.210617 0.215282 0.220259 0.225548 0.231151 0.237066 0.243294 0.249834 0.256452 0.262913 0.269216 0.275362 0.28135 0.287182 0.292856 0.298372 0.303465 0.307868 0.311582 0.314607 0.316942 0.318587 0.319543 0.31981 0.319263 0.317779 0.315358 0.312 0.307705 0.302473 0.296305 0.289199 0.281275 0.272655 0.263338 0.253323 0.242612 0.231203 0.219097 0.206294 0.193142 0.179989 0.166834 0.153679 0.140522 0.127364 0.114205 0.101044 0.0883277 0.0765001 0.0655612 0.0555113 0.0463502 0.038078 0.0306947 0.0242002 0.0185283 0.0136126 0.0094532 0.00605005 0.00340315 0.00151251 0.000378128 0 0 0.000229543 0.000918173 0.00206589 0.00367269 0.00573858 0.00826356 0.0112476 0.0146908 0.0186524 0.0231921 0.0283096 0.0340051 0.0402786 0.04713 0.0545594 0.0625667 0.0708715 0.0791934 0.0875323 0.0958884 0.104261 0.112652 0.121059 0.129483 0.137701 0.145491 0.152852 0.159785 0.166289 0.172364 0.178011 0.183229 0.187974 0.192203 0.195914 0.199109 0.201788 0.203949 0.205594 0.206722 0.207474 0.207993 0.208277 0.208326 0.208142 0.207723 0.207071 0.206184 0.205282 0.204585 0.204094 0.203807 0.203726 0.203849 0.204178 0.204712 0.205584 0.206927 0.208742 0.211028 0.213786 0.217016 0.220716 0.224889 0.229465 0.234375 0.239621 0.245203 0.251119 0.257371 0.263957 0.270879 0.277885 0.284724 0.291397 0.297903 0.304242 0.310414 0.31642 0.322258 0.327646 0.332296 0.33621 0.339388 0.34183 0.343534 0.344503 0.344735 0.344097 0.342457 0.339814 0.336169 0.331521 0.32587 0.319217 0.311562 0.303031 0.293753 0.283727 0.272953 0.261432 0.249163 0.236147 0.222382 0.208242 0.194097 0.179947 0.165793 0.151633 0.137469 0.1233 0.109126 0.0954258 0.0826789 0.070885 0.0600441 0.0501562 0.0412212 0.0332392 0.0262102 0.0200672 0.0