<?xml version="1.0"?> 
<VTKFile type="StructuredGrid" version="0.1"> 
<StructuredGrid WholeExtent="0 128 0 128 0 0"> 
<Piece Extent="0 128 0 128 0 0"> 
<PointData>
<DataArray type="Float32" Name="u" format="ascii" NumberOfComponents="1"> 
0 0 0 0 0 0 0 0 0 0 0 0 0 0 0 0 0 0 0 0 0 0 0 0 0 0 0 0 0 0 0 0 0 0 0 0 0 0 0 0 0 0 0 0 0 0 0 0 0 0 0 0 0 0 0 0 0 0 0 0 0 0 0 0 0 0 0 0 0 0 0 0 0 0 0 0 0 0 0 0 0 0 0 0 0 0 0 0 0 0 0 0 0 0 0 0 0 0 0 0 0 0 0 0 0 0 0 0 0 0 0 0 0 0 0 0 0 0 0 0 0 0 0 0 0 0 0 0 0 0 -4.86074e-07 -1.94429e-06 -4.37466e-06 -7.77718e-06 -1.21518e-05 -1.74986e-05 -2.38176e-05 -3.11087e-05 -3.90661e-05 -4.73841e-05 -5.60625e-05 -6.51014e-05 -7.45008e-05 -8.42607e-05 -9.43812e-05 -0.000104862 -0.000115177 -0.000124801 -0.000133732 -0.000141972 -0.00014952 -0.000156377 -0.000162541 -0.000168014 -0.000172887 -0.000177254 -0.000181114 -0.000184468 -0.000187315 -0.000189655 -0.000191488 -0.000192815 -0.00019398 -0.000195328 -0.000196859 -0.000198573 -0.00020047 -0.000202549 -0.000204812 -0.000207257 -0.00020994 -0.000212914 -0.00021618 -0.000219738 -0.000223586 -0.000227727 -0.000232159 -0.000236882 -0.000241188 -0.000244367 -0.000246419 -0.000247344 -0.000247142 -0.000245814 -0.000243358 -0.000239776 -0.000234223 -0.000225854 -0.000214672 -0.000200674 -0.000183861 -0.000164234 -0.000141792 -0.000116535 -8.88483e-05 -5.91178e-05 -2.73433e-05 6.47528e-06 4.23379e-05 8.02445e-05 0.000120195 0.00016219 0.000204551 0.0002456 0.000285337 0.000323762 0.000360875 0.000396677 0.000431166 0.000464344 0.000494799 0.000521121 0.00054331 0.000561365 0.000575287 0.000585076 0.000590732 0.000592254 0.000589833 0.000583659 0.000573732 0.000560052 0.000542618 0.000521432 0.000496492 0.000467799 0.000437002 0.00040575 0.000374043 0.000341882 0.000309265 0.000276194 0.000242668 0.000208688 0.000175822 0.000145642 0.000118147 9.33378e-05 7.12137e-05 5.17749e-05 3.50215e-05 2.09533e-05 9.25721e-06 -3.80311e-07 -7.9592e-06 -1.34795e-05 -1.69411e-05 -1.83441e-05 -1.76885e-05 -1.49742e-05 -1.14647e-05 -8.42301e-06 -5.84931e-06 -3.74356e-06 -2.10575e-06 -9.3589e-07 -2.33972e-07 0 0 -1.94429e-06 -7.77718e-06 -1.74986e-05 -3.11087e-05 -4.86074e-05 -6.99946e-05 -9.52704e-05 -0.000124435 -0.000156265 -0.000189536 -0.00022425 -0.000260406 -0.000298003 -0.000337043 -0.000377525 -0.000419448 -0.000460709 -0.000499203 -0.00053493 -0.000567889 -0.000598082 -0.000625507 -0.000650165 -0.000672056 -0.00069155 -0.000709017 -0.000724458 -0.000737872 -0.000749259 -0.00075862 -0.000765954 -0.000771261 -0.000775921 -0.000781313 -0.000787436 -0.000794292 -0.000801878 -0.000810197 -0.000819247 -0.00082903 -0.000839761 -0.000851658 -0.000864721 -0.00087895 -0.000894346 -0.000910907 -0.000928635 -0.000947529 -0.000964752 -0.000977468 -0.000985676 -0.000989376 -0.000988569 -0.000983255 -0.000973433 -0.000959103 -0.00093689 -0.000903418 -0.000858686 -0.000802696 -0.000735445 -0.000656936 -0.000567167 -0.000466139 -0.000355393 -0.000236471 -0.000109373 2.59011e-05 0.000169352 0.000320978 0.000480781 0.00064876 0.000818203 0.000982399 0.00114135 0.00129505 0.0014435 0.00158671 0.00172466 0.00185738 0.0019792 0.00208448 0.00217324 0.00224546 0.00230115 0.0023403 0.00236293 0.00236902 0.00235933 0.00233464 0.00229493 0.00224021 0.00217047 0.00208573 0.00198597 0.00187119 0.00174801 0.001623 0.00149617 0.00136753 0.00123706 0.00110478 0.000970673 0.000834751 0.000703289 0.000582568 0.000472589 0.000373351 0.000284855 0.0002071 0.000140086 8.38134e-05 3.70288e-05 -1.52124e-06 -3.18368e-05 -5.39178e-05 -6.77644e-05 -7.33764e-05 -7.07539e-05 -5.9897e-05 -4.58586e-05 -3.3692e-05 -2.33972e-05 -1.49742e-05 -8.42301e-06 -3.74356e-06 -9.3589e-07 0 0 -4.37466e-06 -1.74986e-05 -3.9372e-05 -6.99946e-05 -0.000109367 -0.000157488 -0.000214358 -0.000279978 -0.000351595 -0.000426457 -0.000504562 -0.000585913 -0.000670507 -0.000758347 -0.00084943 -0.000943759 -0.0010366 -0.00112321 -0.00120359 -0.00127775 -0.00134568 -0.00140739 -0.00146287 -0.00151213 -0.00155599 -0.00159529 -0.00163003 -0.00166021 -0.00168583 -0.00170689 -0.0017234 -0.00173534 -0.00174582 -0.00175795 -0.00177173 -0.00178716 -0.00180423 -0.00182294 -0.00184331 -0.00186532 -0.00188946 -0.00191623 -0.00194562 -0.00197764 -0.00201228 -0.00204954 -0.00208943 -0.00213194 -0.00217069 -0.0021993 -0.00221777 -0.0022261 -0.00222428 -0.00221232 -0.00219022 -0.00215798 -0.002108 -0.00203269 -0.00193204 -0.00180607 -0.00165475 -0.00147811 -0.00127613 -0.00104881 -0.000799635 -0.00053206 -0.00024609 5.82775e-05 0.000381041 0.000722201 0.00108176 0.00145971 0.00184096 0.0022104 0.00256803 0.00291386 0.00324788 0.00357009 0.0038805 0.00417909 0.00445319 0.00469009 0.00488979 0.00505228 0.00517758 0.00526568 0.00531658 0.00533029 0.0053085 0.00525293 0.00516359 0.00504047 0.00488356 0.00469288 0.00446843 0.00421019 0.00393301 0.00365175 0.00336639 0.00307693 0.00278339 0.00248575 0.00218402 0.00187819 0.0015824 0.00131078 0.00106333 0.000840041 0.000640923 0.000465974 0.000315193 0.00018858 8.33149e-05 -3.4228e-06 -7.16328e-05 -0.000121315 -0.00015247 -0.000165097 -0.000159196 -0.000134768 -0.000103182 -7.58071e-05 -5.26438e-05 -3.3692e-05 -1.89518e-05 -8.42301e-06 -2.10575e-06 0 0 -7.77718e-06 -3.11087e-05 -6.99946e-05 -0.000124435 -0.000194429 -0.000279978 -0.000381082 -0.000497739 -0.000625058 -0.000758145 -0.000897 -0.00104162 -0.00119201 -0.00134817 -0.0015101 -0.00167779 -0.00184284 -0.00199681 -0.00213972 -0.00227156 -0.00239233 -0.00250203 -0.00260066 -0.00268822 -0.0027662 -0.00283607 -0.00289783 -0.00295149 -0.00299704 -0.00303448 -0.00306382 -0.00308504 -0.00310368 -0.00312525 -0.00314975 -0.00317717 -0.00320751 -0.00324079 -0.00327699 -0.00331612 -0.00335904 -0.00340663 -0.00345888 -0.0035158 -0.00357738 -0.00364363 -0.00371454 -0.00379012 -0.00385901 -0.00390987 -0.0039427 -0.00395751 -0.00395428 -0.00393302 -0.00389373 -0.00383641 -0.00374756 -0.00361367 -0.00343475 -0.00321078 -0.00294178 -0.00262774 -0.00226867 -0.00186456 -0.00142157 -0.000945885 -0.000437493 0.000103604 0.000677406 0.00128391 0.00192312 0.00259504 0.00327281 0.00392959 0.00456539 0.00518019 0.005774 0.00634683 0.00689866 0.0074295 0.00791678 0.00833793 0.00869295 0.00898184 0.00920459 0.00936122 0.00945171 0.00947606 0.00943733 0.00933855 0.00917971 0.00896083 0.00868189 0.00834291 0.00794387 0.00748478 0.00699203 0.006492 0.00598469 0.00547011 0.00494825 0.00441911 0.00388269 0.003339 0.00281315 0.00233027 0.00189036 0.00149341 0.00113942 0.000828399 0.000560344 0.000335254 0.000148115 -6.08497e-06 -0.000127347 -0.000215671 -0.000271058 -0.000293506 -0.000283016 -0.000239588 -0.000183434 -0.000134768 -9.3589e-05 -5.9897e-05 -3.3692e-05 -1.49742e-05 -3.74356e-06 0 0 -1.21518e-05 -4.86074e-05 -0.000109367 -0.000194429 -0.000303796 -0.000437466 -0.00059544 -0.000777718 -0.000976653 -0.0011846 -0.00140156 -0.00162754 -0.00186252 -0.00210652 -0.00235953 -0.00262155 -0.00287943 -0.00312002 -0.00334331 -0.00354931 -0.00373801 -0.00390942 -0.00406353 -0.00420035 -0.00432219 -0.00443136 -0.00452786 -0.0046117 -0.00468287 -0.00474137 -0.00478721 -0.00482038 -0.00484951 -0.00488321 -0.00492148 -0.00496432 -0.00501174 -0.00506373 -0.0051203 -0.00518143 -0.0052485 -0.00532286 -0.00540451 -0.00549344 -0.00558966 -0.00569317 -0.00580397 -0.00592206 -0.0060297 -0.00610917 -0.00616047 -0.0061836 -0.00617856 -0.00614534 -0.00608395 -0.0059944 -0.00585556 -0.00564636 -0.00536679 -0.00501685 -0.00459653 -0.00410585 -0.00354479 -0.00291337 -0.00222121 -0.00147795 -0.000683582 0.000161882 0.00105845 0.00200611 0.00300488 0.00405475 0.00511377 0.00613999 0.00713342 0.00809405 0.00902188 0.00991692 0.0107792 0.0116086 0.01237 0.013028 0.0135827 0.0140341 0.0143822 0.0146269 0.0147683 0.0148064 0.0147458 0.0145915 0.0143433 0.0140013 0.0135655 0.0130358 0.0124123 0.011695 0.010925 0.0101437 0.00935108 0.00854704 0.00773163 0.00690486 0.00606671 0.00521719 0.00439555 0.00364105 0.00295368 0.00233345 0.00178034 0.00129437 0.000875537 0.000523834 0.00023143 -9.50777e-06 -0.00019898 -0.000336987 -0.000423527 -0.000458603 -0.000442212 -0.000374356 -0.000286616 -0.000210575 -0.000146233 -9.3589e-05 -5.26438e-05 -2.33972e-05 -5.84931e-06 0 0 -1.74986e-05 -6.99946e-05 -0.000157488 -0.000279978 -0.000437466 -0.000629951 -0.000857434 -0.00111991 -0.00140638 -0.00170583 -0.00201825 -0.00234365 -0.00268203 -0.00303339 -0.00339772 -0.00377503 -0.00414638 -0.00449283 -0.00481437 -0.005111 -0.00538274 -0.00562956 -0.00585148 -0.0060485 -0.00622395 -0.00638115 -0.00652012 -0.00664084 -0.00674333 -0.00682758 -0.00689358 -0.00694135 -0.00698329 -0.00703182 -0.00708693 -0.00714862 -0.00721691 -0.00729177 -0.00737323 -0.00746127 -0.00755784 -0.00766492 -0.00778249 -0.00791055 -0.00804911 -0.00819817 -0.00835772 -0.00852776 -0.00868277 -0.00879721 -0.00887108 -0.00890439 -0.00889712 -0.00884929 -0.00876089 -0.00863193 -0.00843201 -0.00813076 -0.00772818 -0.00722426 -0.00661901 -0.00591242 -0.0051045 -0.00419525 -0.00319854 -0.00212824 -0.000984358 0.00023311 0.00152416 0.0028888 0.00432703 0.00583884 0.00736383 0.00884159 0.0102721 0.0116554 0.0129915 0.0142804 0.015522 0.0167164 0.0178128 0.0187604 0.0195591 0.0202091 0.0207103 0.0210627 0.0212663 0.0213211 0.021234 0.0210117 0.0206544 0.0201619 0.0195343 0.0187715 0.0178737 0.0168408 0.0157321 0.014607 0.0134656 0.0123077 0.0111336 0.00994299 0.00873606 0.00751275 0.0063296 0.00524311 0.0042533 0.00336016 0.00256369 0.0018639 0.00126077 0.000754321 0.000333259 -1.36912e-05 -0.000286531 -0.000485261 -0.00060988 -0.000660388 -0.000636786 -0.000539073 -0.000412727 -0.000303228 -0.000210575 -0.000134768 -7.58071e-05 -3.3692e-05 -8.42301e-06 0 0 -2.38176e-05 -9.52704e-05 -0.000214358 -0.000381082 -0.00059544 -0.000857434 -0.00116706 -0.00152433 -0.00191424 -0.00232182 -0.00274706 -0.00318997 -0.00365054 -0.00412878 -0.00462468 -0.00513824 -0.00564369 -0.00611524 -0.00655289 -0.00695665 -0.0073265 -0.00766246 -0.00796452 -0.00823268 -0.00847148 -0.00868546 -0.00887461 -0.00903893 -0.00917842 -0.00929309 -0.00938293 -0.00944795 -0.00950503 -0.00957108 -0.0096461 -0.00973007 -0.00982301 -0.00992491 -0.0100358 -0.0101556 -0.0102871 -0.0104328 -0.0105928 -0.0107671 -0.0109557 -0.0111586 -0.0113758 -0.0116072 -0.0118182 -0.011974 -0.0120745 -0.0121199 -0.01211 -0.0120449 -0.0119246 -0.011749 -0.0114769 -0.0110669 -0.0105189 -0.00983302 -0.00900921 -0.00804746 -0.0069478 -0.0057102 -0.00435357 -0.00289677 -0.00133982 0.000317289 0.00207456 0.00393198 0.00588957 0.00794731 0.010023 0.0120344 0.0139815 0.0158643 0.0176829 0.0194372 0.0211271 0.0227528 0.0242452 0.0255349 0.0266222 0.0275069 0.0281891 0.0286687 0.0289459 0.0290204 0.0289018 0.0285993 0.0281129 0.0274425 0.0265883 0.0255501 0.0243281 0.0229221 0.0214131 0.0198817 0.0183281 0.0167522 0.015154 0.0135335 0.0118907 0.0102257 0.00861529 0.00713646 0.00578922 0.00457355 0.00348947 0.00253697 0.00171605 0.00102671 0.000453603 -1.86352e-05 -0.000390001 -0.000660494 -0.000830114 -0.000898861 -0.000866736 -0.000733738 -0.000561768 -0.000412727 -0.000286616 -0.000183434 -0.000103182 -4.58586e-05 -1.14647e-05 0 0 -3.11087e-05 -0.000124435 -0.000279978 -0.000497739 -0.000777718 -0.00111991 -0.00152433 -0.00199096 -0.00250023 -0.00303258 -0.003588 -0.00416649 -0.00476805 -0.00539269 -0.00604039 -0.00671117 -0.00737135 -0.00798725 -0.00855888 -0.00908623 -0.00956931 -0.0100081 -0.0104026 -0.0107529 -0.0110648 -0.0113443 -0.0115913 -0.0118059 -0.0119881 -0.0121379 -0.0122553 -0.0123402 -0.0124147 -0.012501 -0.012599 -0.0127087 -0.0128301 -0.0129632 -0.013108 -0.0132645 -0.0134362 -0.0136265 -0.0138355 -0.0140632 -0.0143095 -0.0145745 -0.0148582 -0.0151605 -0.015436 -0.0156395 -0.0157708 -0.01583 -0.0158171 -0.0157321 -0.0155749 -0.0153457 -0.0149902 -0.0144547 -0.013739 -0.0128431 -0.0117671 -0.010511 -0.00907467 -0.00745822 -0.00568629 -0.00378354 -0.00174997 0.000414418 0.00270962 0.00513565 0.00769249 0.0103802 0.0130912 0.0157184 0.0182615 0.0207208 0.023096 0.0253873 0.0275946 0.029718 0.0316671 0.0333517 0.0347718 0.0359274 0.0368184 0.0374449 0.0378068 0.0379043 0.0377493 0.0373542 0.0367189 0.0358433 0.0347276 0.0333716 0.0317755 0.0299391 0.0279681 0.025968 0.0239388 0.0218804 0.019793 0.0176764 0.0155308 0.013356 0.0112526 0.00932109 0.00756143 0.00597362 0.00455768 0.0033136 0.00224137 0.00134101 0.000592461 -2.43399e-05 -0.000509389 -0.000862686 -0.00108423 -0.00117402 -0.00113206 -0.000958351 -0.000733738 -0.000539073 -0.000374356 -0.000239588 -0.000134768 -5.9897e-05 -1.49742e-05 0 0 -3.86236e-05 -0.000154494 -0.000347612 -0.000617977 -0.000965589 -0.00139045 -0.00189255 -0.00247191 -0.00310318 -0.00376102 -0.00444545 -0.00515647 -0.00589406 -0.00665823 -0.00744899 -0.00826632 -0.00906833 -0.00981311 -0.0105007 -0.011131 -0.011704 -0.0122199 -0.0126785 -0.0130799 -0.0134329 -0.0137464 -0.0140205 -0.0142552 -0.0144503 -0.014606 -0.0147222 -0.014799 -0.0148653 -0.0149503 -0.0150541 -0.0151765 -0.0153176 -0.0154773 -0.0156558 -0.0158529 -0.0160728 -0.0163195 -0.016593 -0.0168933 -0.0172203 -0.0175742 -0.0179549 -0.0183623 -0.0187375 -0.0190214 -0.0192139 -0.0193152 -0.0193251 -0.0192437 -0.019071 -0.0188069 -0.0183818 -0.0177258 -0.016839 -0.0157214 -0.0143729 -0.0127936 -0.0109835 -0.00894249 -0.00670187 -0.00429281 -0.00171533 0.00103059 0.00394494 0.00702772 0.0102789 0.0136986 0.0171495 0.0204944 0.0237334 0.0268664 0.0298935 0.0328147 0.0356299 0.0383391 0.0408268 0.0429773 0.0447907 0.0462669 0.047406 0.0482079 0.0486726 0.0488002 0.0486057 0.0481044 0.0472961 0.0461809 0.0447588 0.0430298 0.0409939 0.0386511 0.0361356 0.0335817 0.0309894 0.0283587 0.0256896 0.0229821 0.0202362 0.0174518 0.0147571 0.0122797 0.0100198 0.00797735 0.00615233 0.00454475 0.00315461 0.00198192 0.0010022 0.000191021 -0.000451634 -0.000925762 -0.00123136 -0.00136843 -0.00133698 -0.00113699 -0.00087051 -0.000639558 -0.000444138 -0.000284248 -0.00015989 -7.1062e-05 -1.77655e-05 0 0 -4.56138e-05 -0.000182455 -0.000410524 -0.00072982 -0.00114034 -0.0016421 -0.00223508 -0.00291928 -0.00366189 -0.00443007 -0.00522382 -0.00604315 -0.00688805 -0.00775852 -0.00865457 -0.00957619 -0.0104736 -0.0112971 -0.0120465 -0.012722 -0.0133236 -0.0138511 -0.0143047 -0.0146843 -0.0150048 -0.0152808 -0.0155125 -0.0156998 -0.0158427 -0.0159413 -0.0159954 -0.0160052 -0.0160096 -0.0160479 -0.0161198 -0.0162256 -0.0163651 -0.0165383 -0.0167454 -0.0169861 -0.0172647 -0.0175852 -0.0179476 -0.0183518 -0.018798 -0.019286 -0.0198159 -0.0203876 -0.0209239 -0.0213474 -0.0216579 -0.0218556 -0.0219405 -0.0219125 -0.0217716 -0.0215179 -0.0210613 -0.0203119 -0.0192697 -0.0179346 -0.0163068 -0.0143861 -0.0121725 -0.00966616 -0.00690545 -0.00392887 -0.000736426 0.00267188 0.00629606 0.0101361 0.014192 0.0184638 0.0227785 0.0269633 0.0310182 0.0349431 0.0387381 0.0424031 0.0459382 0.0493434 0.0524722 0.0551782 0.0574614 0.0593219 0.0607595 0.0617744 0.0623665 0.0625359 0.0623003 0.0616779 0.0606685 0.0592721 0.0574888 0.0553186 0.0527614 0.0498173 0.0466539 0.0434387 0.0401718 0.0368532 0.0334828 0.0300607 0.0265869 0.0230614 0.0196441 0.016495 0.0136143 0.0110017 0.00865744 0.00658142 0.00477364 0.00323411 0.00193521 0.000849275 -2.36751e-05 -0.000683646 -0.00113064 -0.00136465 -0.00138569 -0.00119374 -0.000913957 -0.000671479 -0.000466305 -0.000298435 -0.00016787 -7.46088e-05 -1.86522e-05 0 0 -5.20793e-05 -0.000208317 -0.000468714 -0.00083327 -0.00130198 -0.00187486 -0.00255189 -0.00333308 -0.00417637 -0.00503971 -0.0059231 -0.00682654 -0.00775003 -0.00869356 -0.00965714 -0.0106408 -0.0115872 -0.0124391 -0.0131965 -0.0138595 -0.0144279 -0.0149019 -0.0152813 -0.0155663 -0.0157805 -0.0159475 -0.0160673 -0.0161399 -0.0161654 -0.0161437 -0.0160749 -0.0159589 -0.0158478 -0.0157936 -0.0157963 -0.015856 -0.0159726 -0.0161461 -0.0163766 -0.0166641 -0.0170119 -0.0174237 -0.0178993 -0.0184389 -0.0190424 -0.0197099 -0.0204412 -0.0212364 -0.0219953 -0.0226174 -0.0231028 -0.0234514 -0.0236633 -0.0237385 -0.0236769 -0.0234786 -0.0230288 -0.022213 -0.021031 -0.0194829 -0.0175686 -0.0152883 -0.0126418 -0.00962924 -0.00629703 -0.0026917 0.00118674 0.00533831 0.00976299 0.0144608 0.0194317 0.0246757 0.0299784 0.0351251 0.0401159 0.0449507 0.0496296 0.0541526 0.0585197 0.0627308 0.0666033 0.0699543 0.072784 0.0750923 0.0768791 0.0781446 0.0788886 0.0791113 0.0788331 0.0780746 0.0768359 0.0751169 0.0729176 0.070238 0.0670781 0.0634379 0.0595231 0.0555391 0.0514861 0.047364 0.0431728 0.0389124 0.034583 0.0301846 0.0259137 0.0219671 0.0183448 0.0150467 0.012073 0.00942359 0.00709845 0.00509761 0.00339146 0.00195042 0.000774488 -0.00013634 -0.000782063 -0.00116268 -0.00127819 -0.00112859 -0.00086408 -0.000634834 -0.000440857 -0.000282149 -0.000158709 -7.05371e-05 -1.76343e-05 0 0 -5.80203e-05 -0.000232081 -0.000522182 -0.000928324 -0.00145051 -0.00208873 -0.00284299 -0.0037133 -0.00464662 -0.00558996 -0.00654329 -0.00750664 -0.00847999 -0.00946334 -0.0104567 -0.0114601 -0.012409 -0.0132392 -0.0139506 -0.0145432 -0.0150171 -0.0153721 -0.0156083 -0.0157258 -0.01576 -0.0157463 -0.0156848 -0.0155755 -0.0154184 -0.0152134 -0.0149606 -0.01466 -0.0143796 -0.0141874 -0.0140835 -0.0140677 -0.0141401 -0.0143008 -0.0145496 -0.0148867 -0.0153143 -0.0158348 -0.0164482 -0.0171545 -0.0179537 -0.0188458 -0.0198308 -0.0209087 -0.0219516 -0.0228315 -0.0235485 -0.0241025 -0.0244935 -0.0247216 -0.0247868 -0.024689 -0.0242843 -0.0234289 -0.0221229 -0.0203661 -0.0181586 -0.0155003 -0.0123914 -0.00883173 -0.00487662 -0.000581317 0.00405418 0.00902986 0.0143457 0.0200018 0.0259981 0.0323345 0.0387491 0.0449797 0.0510265 0.0568893 0.0625682 0.0680632 0.0733743 0.0785014 0.0832201 0.0873058 0.0907584 0.0935781 0.0957647 0.0973183 0.0982389 0.0985265 0.0982041 0.0972947 0.0957984 0.0937152 0.091045 0.0877879 0.0839438 0.0795128 0.0747431 0.0698829 0.0649322 0.059891 0.0547594 0.0495372 0.0442246 0.0388214 0.0335658 0.0286958 0.0242113 0.0201124 0.0163991 0.0130713 0.0101291 0.0075724 0.00537098 0.00349446 0.00194285 0.000716156 -0.000185634 -0.000762516 -0.00101449 -0.000941555 -0.000720878 -0.000529625 -0.000367795 -0.000235389 -0.000132406 -5.88472e-05 -1.47118e-05 0 0 -6.34366e-05 -0.000253746 -0.000570929 -0.00101498 -0.00158591 -0.00228372 -0.00310839 -0.00405994 -0.00507265 -0.0060808 -0.0070844 -0.00808344 -0.00907793 -0.0100679 -0.0110532 -0.0120341 -0.0129392 -0.0136974 -0.0143088 -0.0147734 -0.015091 -0.0152618 -0.0152857 -0.0151628 -0.0149433 -0.0146774 -0.0143651 -0.0140065 -0.0136016 -0.0131503 -0.0126527 -0.0121087 -0.0116053 -0.0112295 -0.0109813 -0.0108607 -0.0108676 -0.0110022 -0.0112643 -0.011654 -0.0121719 -0.0128187 -0.0135942 -0.0144986 -0.0155319 -0.0166939 -0.0179848 -0.0194045 -0.0207928 -0.0219897 -0.022995 -0.0238088 -0.0244312 -0.024862 -0.0251013 -0.025149 -0.0248278 -0.0239599 -0.0225454 -0.0205843 -0.0180765 -0.0150222 -0.0114212 -0.00727364 -0.00264421 0.00240229 0.00786588 0.0137465 0.0200443 0.0267591 0.033891 0.04144 0.0490906 0.0565273 0.06375 0.0707589 0.0775538 0.0841349 0.090502 0.0966552 0.102323 0.107232 0.111385 0.114779 0.117416 0.119296 0.120417 0.120781 0.120413 0.119338 0.117556 0.115067 0.111871 0.107968 0.103359 0.0980421 0.092314 0.0864701 0.0805102 0.0744344 0.0682426 0.061935 0.0555114 0.048972 0.0426006 0.0366812 0.0312139 0.0261987 0.0216356 0.0175245 0.0138655 0.0106585 0.00787375 0.00548139 0.00348143 0.00187384 0.000658649 -0.000164161 -0.000594584 -0.000632622 -0.000484351 -0.00035585 -0.000247118 -0.000158155 -8.89624e-05 -3.95389e-05 -9.88471e-06 0 0 -6.83282e-05 -0.000273313 -0.000614954 -0.00109325 -0.0017082 -0.00245982 -0.00334808 -0.004373 -0.00545444 -0.00651224 -0.00754642 -0.00855696 -0.00954387 -0.0105071 -0.0114468 -0.0123628 -0.0131776 -0.0138138 -0.0142711 -0.0145498 -0.0146498 -0.014571 -0.0143135 -0.0138773 -0.0133303 -0.0127406 -0.0121082 -0.011433 -0.0107151 -0.00995437 -0.00915093 -0.00830474 -0.00752471 -0.00691973 -0.00648982 -0.00623495 -0.00615515 -0.0062504 -0.00652071 -0.00696608 -0.00758482 -0.00837527 -0.00933742 -0.0104713 -0.0117768 -0.0132541 -0.014903 -0.0167237 -0.018519 -0.0200919 -0.0214424 -0.0225705 -0.0234762 -0.0241595 -0.0246204 -0.0248588 -0.0246592 -0.0238058 -0.0222985 -0.0201374 -0.0173225 -0.0138538 -0.00973129 -0.00495495 0.000400187 0.00625912 0.0126218 0.0194883 0.0268587 0.0347327 0.0431106 0.0519923 0.0610029 0.0697676 0.0782865 0.0865594 0.0945864 0.102368 0.109903 0.117192 0.123911 0.129735 0.134663 0.138696 0.141834 0.144076 0.145424 0.145876 0.14546 0.144205 0.142109 0.139173 0.135396 0.13078 0.125323 0.119026 0.112236 0.105301 0.09822 0.090994 0.0836226 0.0761058 0.0684437 0.0606362 0.0530179 0.0459233 0.0393526 0.0333057 0.0277825 0.0227832 0.0183076 0.0143559 0.0108998 0.00791122 0.0053902 0.00333672 0.00175078 0.000632386 -1.84745e-05 -0.000201795 -0.0001545 -0.00011351 -7.88263e-05 -5.04488e-05 -2.83775e-05 -1.26122e-05 -3.15305e-06 0 0 -7.26952e-05 -0.000290781 -0.000654257 -0.00116312 -0.00181738 -0.00261703 -0.00356206 -0.00465249 -0.005792 -0.00688429 -0.00792934 -0.00892718 -0.00987778 -0.0107812 -0.0116373 -0.0124462 -0.0131244 -0.0135882 -0.0138376 -0.0138726 -0.0136933 -0.0132997 -0.0126917 -0.0118693 -0.0109212 -0.00993614 -0.00891404 -0.00785492 -0.00675879 -0.00562564 -0.00445547 -0.00324828 -0.0021379 -0.00125815 -0.000609025 -0.000190532 -2.6681e-06 -4.54341e-05 -0.00031883 -0.000822855 -0.00155296 -0.00250459 -0.00367774 -0.00507242 -0.00668863 -0.00852637 -0.0105856 -0.0128664 -0.0151301 -0.0171382 -0.0188907 -0.0203875 -0.0216287 -0.0226142 -0.0233441 -0.0238183 -0.0237786 -0.0229666 -0.0213822 -0.0190255 -0.0158966 -0.0119952 -0.00732162 -0.00187568 0.00425658 0.0109892 0.0183221 0.0262553 0.0347888 0.0439227 0.0536569 0.0639914 0.0744861 0.0847009 0.0946359 0.104291 0.113666 0.122761 0.131577 0.140112 0.147985 0.154812 0.160593 0.165328 0.169017 0.171661 0.173259 0.17381 0.173346 0.171895 0.169457 0.166032 0.16162 0.156221 0.149836 0.142464 0.134508 0.126374 0.118062 0.10957 0.100899 0.0920497 0.0830213 0.0738141 0.0648177 0.0564222 0.0486274 0.0414333 0.03484 0.0288474 0.0234556 0.0186645 0.0144491 0.0107839 0.00766918 0.00510479 0.00309077 0.00162712 0.00071384 0.000350925 0.000268677 0.000197395 0.00013708 8.77312e-05 4.93488e-05 2.19328e-05 5.4832e-06 0 0 -7.65376e-05 -0.00030615 -0.000688838 -0.0012246 -0.00191344 -0.00275535 -0.00375034 -0.0048984 -0.00608534 -0.00719693 -0.00823319 -0.0091941 -0.0100797 -0.0108899 -0.0116248 -0.0122844 -0.0127794 -0.0130206 -0.0130081 -0.0127418 -0.0122217 -0.0114478 -0.0104202 -0.00913878 -0.0077159 -0.00626386 -0.00478266 -0.0032723 -0.00173278 -0.000164109 0.00143373 0.00306072 0.00455514 0.00575526 0.00666108 0.0072726 0.00758981 0.00761273 0.00734134 0.00677565 0.00592367 0.00479338 0.0033848 0.00169791 -0.000267266 -0.00251074 -0.00503252 -0.00783259 -0.0106262 -0.0131286 -0.0153398 -0.0172598 -0.0188885 -0.0202261 -0.0212724 -0.0220276 -0.022186 -0.0214424 -0.0197966 -0.0172487 -0.0137986 -0.00944648 -0.00419221 0.00196419 0.00892498 0.0165924 0.0249666 0.0340474 0.0438348 0.0543289 0.0655297 0.0774372 0.0895401 0.101327 0.112798 0.123953 0.134793 0.145316 0.155524 0.165416 0.174545 0.182464 0.189175 0.194675 0.198967 0.202049 0.203921 0.204585 0.20407 0.202408 0.199599 0.195644 0.190542 0.184293 0.176898 0.168356 0.159132 0.149692 0.140035 0.130162 0.120073 0.109767 0.0992444 0.0885057 0.0780002 0.0681777 0.0590381 0.0505815 0.0428079 0.0357171 0.0293094 0.0235845 0.0185216 0.0140995 0.0103184 0.00717805 0.00467862 0.00282005 0.00160236 0.00102554 0.000785178 0.000576865 0.000400601 0.000256385 0.000144216 6.40961e-05 1.6024e-05 0 0 -7.87977e-05 -0.000315191 -0.000709179 -0.00126076 -0.00196994 -0.00283672 -0.00386109 -0.00504305 -0.00624881 -0.00734455 -0.00833028 -0.00920599 -0.00997169 -0.0106274 -0.011173 -0.0116087 -0.0118406 -0.0117751 -0.0114121 -0.0107517 -0.00979386 -0.00853855 -0.00698579 -0.00513559 -0.0031278 -0.0011023 0.000940909 0.00300183 0.00508046 0.0071768 0.00929086 0.0114226 0.0133787 0.0149659 0.016184 0.0170332 0.0175134 0.0176246 0.0173668 0.01674 0.0157562 0.0144276 0.012754 0.0107354 0.00837195 0.00566355 0.00261021 -0.000788056 -0.00419524 -0.00727534 -0.0100283 -0.0124543 -0.0145531 -0.0163248 -0.0177694 -0.018887 -0.0193199 -0.0187106 -0.0170591 -0.0143654 -0.0106295 -0.00585139 -3.10968e-05 0.0068314 0.0146266 0.0232448 0.0326862 0.0429507 0.0540384 0.0659491 0.078683 0.09224 0.106033 0.119473 0.132563 0.1453 0.157685 0.169719 0.181401 0.192731 0.203194 0.212275 0.219972 0.226288 0.231221 0.234771 0.236938 0.237724 0.237159 0.235277 0.232078 0.227562 0.221728 0.214578 0.20611 0.196325 0.185753 0.174923 0.163835 0.152489 0.140886 0.129025 0.116906 0.10453 0.0924087 0.0810562 0.0704722 0.0606567 0.0516098 0.0433313 0.0358214 0.02908 0.0230917 0.0178409 0.0133278 0.0095522 0.00651421 0.0042138 0.00265099 0.00182575 0.00139784 0.00102699 0.000713185 0.000456438 0.000256747 0.00011411 2.85274e-05 0 0 -7.84181e-05 -0.000313672 -0.000705763 -0.00125469 -0.00196045 -0.00282305 -0.00384249 -0.00501876 -0.00619679 -0.00722153 -0.00809296 -0.0088111 -0.00937593 -0.00978745 -0.0100457 -0.0101506 -0.010006 -0.00951545 -0.00867909 -0.00749687 -0.00596881 -0.00409489 -0.00187512 0.000690502 0.00342966 0.00617003 0.00891162 0.0116544 0.0143984 0.0171437 0.0198901 0.0226378 0.0251573 0.0272191 0.0288234 0.0299701 0.0306591 0.0308906 0.0306645 0.0299807 0.028856 0.0273069 0.0253335 0.0229358 0.0201137 0.0168673 0.0131965 0.00910139 0.00497473 0.0012093 -0.00219488 -0.00523782 -0.00791952 -0.01024 -0.0121992 -0.0137971 -0.0146187 -0.0142488 -0.0126873 -0.00993437 -0.00598988 -0.000853867 0.00547367 0.0129927 0.0215825 0.0311223 0.041612 0.0530516 0.0654412 0.0787808 0.0930703 0.10831 0.123831 0.138968 0.153718 0.168083 0.182063 0.195657 0.208865 0.221688 0.233537 0.243824 0.25255 0.259714 0.265316 0.269357 0.271836 0.272753 0.272141 0.270034 0.266432 0.261335 0.254743 0.246655 0.237072 0.225994 0.214017 0.201737 0.189155 0.17627 0.163083 0.149593 0.1358 0.121705 0.107887 0.0949239 0.0828167 0.0715651 0.0611692 0.0516289 0.0429443 0.0351153 0.0281336 0.021991 0.0166874 0.0122229 0.00859744 0.00581101 0.00386362 0.00275528 0.00210951 0.00154985 0.00107628 0.00068882 0.000387461 0.000172205 4.30513e-05 0 0 -7.53987e-05 -0.000301595 -0.000678588 -0.00120638 -0.00188497 -0.00271435 -0.00369453 -0.00482551 -0.00592929 -0.00682787 -0.00752124 -0.00800942 -0.00829239 -0.00837016 -0.00824273 -0.00791009 -0.00727536 -0.00624164 -0.00480893 -0.00297723 -0.000746539 0.00188314 0.00491182 0.00833948 0.0119565 0.0155531 0.0191295 0.0226855 0.0262212 0.0297365 0.0332315 0.0367062 0.0398907 0.042515 0.0445792 0.0460832 0.047027 0.0474108 0.0472344 0.0464978 0.0452229 0.0434315 0.0411235 0.038299 0.034958 0.0311005 0.0267264 0.0218358 0.0168837 0.0123253 0.00816059 0.00438954 0.00101214 -0.00197158 -0.00456164 -0.00675804 -0.00808256 -0.00805699 -0.00668135 -0.00395561 0.0001202 0.0055461 0.0123221 0.0204481 0.0297928 0.0402247 0.0517438 0.06435 0.0780434 0.092824 0.108692 0.125647 0.142937 0.159809 0.176265 0.192304 0.207925 0.223129 0.237916 0.252286 0.265573 0.277114 0.286908 0.294955 0.301254 0.305807 0.308613 0.309672 0.309016 0.30668 0.302663 0.296965 0.289586 0.280525 0.269784 0.257362 0.243924 0.230135 0.215995 0.201505 0.186663 0.17147 0.155927 0.140032 0.124434 0.109781 0.0960717 0.0833068 0.0714862 0.0606099 0.050678 0.0416903 0.0336474 0.0265498 0.0203974 0.0151902 0.0109283 0.00761167 0.00524027 0.00381412 0.00292018 0.00214544 0.00148989 0.000953529 0.00053636 0.000238382 5.95956e-05 0 0 -6.97395e-05 -0.000278958 -0.000627655 -0.00111583 -0.00174349 -0.00251062 -0.00341723 -0.00446333 -0.0054463 -0.00616356 -0.00661511 -0.00680095 -0.00672107 -0.00637548 -0.00576418 -0.00488717 -0.00364887 -0.0019537 0.000198319 0.0028072 0.00587295 0.00939555 0.013375 0.0178113 0.0224526 0.027047 0.0315945 0.036095 0.0405486 0.0449553 0.0493151 0.0536279 0.057579 0.0608535 0.0634513 0.0653725 0.0666171 0.0671851 0.0670765 0.0662913 0.064857 0.0628012 0.0601239 0.0568251 0.0529049 0.0483631 0.0431998 0.037415 0.0315317 0.0260727 0.0210381 0.0164278 0.0122419 0.00848036 0.00514317 0.00223035 0.000288647 -0.000135163 0.000958918 0.00357089 0.00770075 0.0133485 0.0205141 0.0291977 0.0392576 0.0505522 0.0630817 0.0768459 0.0918449 0.108079 0.125547 0.144251 0.163348 0.181999 0.200203 0.217961 0.235272 0.252136 0.268554 0.284525 0.299303 0.312144 0.323046 0.332009 0.339035 0.344122 0.34727 0.348481 0.347785 0.345214 0.340769 0.33445 0.326257 0.316189 0.304247 0.29043 0.275475 0.260117 0.244357 0.228193 0.211627 0.194657 0.177285 0.159511 0.142052 0.125627 0.110237 0.0958817 0.0825608 0.0702744 0.0590224 0.0488051 0.039633 0.0315172 0.0244575 0.0184541 0.0135068 0.00961579 0.00678093 0.00500227 0.00382986 0.00281377 0.00195401 0.00125057 0.000703444 0.000312642 7.81604e-05 0 0 -6.14405e-05 -0.000245762 -0.000552965 -0.000983048 -0.00153601 -0.00221186 -0.00301058 -0.00393219 -0.00474782 -0.00522862 -0.00537458 -0.0051857 -0.00466199 -0.00380344 -0.00261005 -0.00108183 0.000873537 0.00334837 0.00634267 0.00985643 0.0138897 0.0184423 0.0235145 0.0291061 0.0349182 0.0406517 0.0463066 0.051883 0.0573808 0.0628001 0.0681408 0.0734029 0.0782222 0.0822346 0.0854399 0.0878381 0.0894294 0.0902137 0.0901909 0.0893611 0.0877582 0.0854161 0.0823347 0.0785141 0.0739542 0.0686551 0.0626168 0.0558392 0.0489187 0.0424514 0.0364376 0.030877 0.0257698 0.0211158 0.0169153 0.013168 0.0104949 0.00951669 0.0102334 0.0126451 0.0167518 0.0225533 0.0300499 0.0392413 0.0499766 0.0621047 0.0756256 0.0905393 0.106846 0.124545 0.143637 0.164122 0.185066 0.205536 0.225532 0.245055 0.264103 0.282678 0.300778 0.318405 0.334727 0.348913 0.360963 0.370878 0.378657 0.3843 0.387808 0.38918 0.388446 0.385637 0.380752 0.373792 0.364757 0.353646 0.34046 0.325198 0.30867 0.291683 0.274238 0.256335 0.237974 0.219154 0.199876 0.18014 0.160738 0.142463 0.125313 0.10929 0.0943929 0.0806222 0.0679777 0.0564596 0.0460905 0.0368933 0.028868 0.0220146 0.016333 0.0118234 0.0084856 0.00631973 0.00483854 0.00355485 0.00246864 0.00157993 0.000888711 0.000394983 9.87457e-05 0 0 -5.05018e