<?xml version="1.0"?> 
<VTKFile type="StructuredGrid" version="0.1"> 
<StructuredGrid WholeExtent="0 128 0 128 0 0"> 
<Piece Extent="0 128 0 128 0 0"> 
<PointData>
<DataArray type="Float32" Name="u" format="ascii" NumberOfComponents="1"> 
0 0 0 0 0 0 0 0 0 0 0 0 0 0 0 0 0 0 0 0 0 0 0 0 0 0 0 0 0 0 0 0 0 0 0 0 0 0 0 0 0 0 0 0 0 0 0 0 0 0 0 0 0 0 0 0 0 0 0 0 0 0 0 0 0 0 0 0 0 0 0 0 0 0 0 0 0 0 0 0 0 0 0 0 0 0 0 0 0 0 0 0 0 0 0 0 0 0 0 0 0 0 0 0 0 0 0 0 0 0 0 0 0 0 0 0 0 0 0 0 0 0 0 0 0 0 0 0 0 0 2.83303e-07 1.13321e-06 2.54973e-06 4.53285e-06 7.08258e-06 1.01989e-05 1.38819e-05 1.81314e-05 2.31934e-05 2.93137e-05 3.64923e-05 4.47292e-05 5.40244e-05 6.4378e-05 7.57898e-05 8.82599e-05 0.000101314 0.000114476 0.000127748 0.000141129 0.000154619 0.000168218 0.000181926 0.000195743 0.00020921 0.00022187 0.000233722 0.000244766 0.000255003 0.000264432 0.000273052 0.000280866 0.000287791 0.00029375 0.000298743 0.000302768 0.000305827 0.000307919 0.000309045 0.000309203 0.000308711 0.000307886 0.000306728 0.000305235 0.00030341 0.00030125 0.000298757 0.000295931 0.000293253 0.000291205 0.000289788 0.000289 0.000288843 0.000289317 0.00029042 0.000292154 0.000294798 0.000298632 0.000303657 0.000309871 0.000317275 0.00032587 0.000335654 0.000346629 0.000358611 0.000371419 0.000385053 0.000399512 0.000414797 0.000430908 0.000447844 0.000465605 0.000483598 0.000501226 0.00051849 0.00053539 0.000551926 0.000568098 0.000583906 0.000599349 0.000613774 0.000626524 0.000637601 0.000647004 0.000654733 0.000660788 0.000665169 0.000667876 0.000668621 0.000667117 0.000663362 0.000657357 0.000649103 0.000638598 0.000625843 0.000610838 0.000593895 0.000575326 0.000555131 0.000533309 0.000509861 0.000484786 0.000458085 0.000429758 0.000400684 0.000371741 0.000342929 0.000314249 0.000285701 0.000257284 0.000228999 0.000200845 0.000173821 0.000148925 0.000126158 0.000105519 8.70078e-05 7.06255e-05 5.63715e-05 4.42459e-05 3.38758e-05 2.48883e-05 1.72836e-05 1.10615e-05 6.22208e-06 2.76537e-06 6.91342e-07 0 0 1.13321e-06 4.53285e-06 1.01989e-05 1.81314e-05 2.83303e-05 4.07957e-05 5.55275e-05 7.25257e-05 9.27737e-05 0.000117255 0.000145969 0.000178917 0.000216098 0.000257512 0.000303159 0.00035304 0.000405255 0.000457906 0.000510993 0.000564517 0.000618476 0.000672872 0.000727703 0.000782971 0.000836842 0.000887481 0.000934889 0.000979066 0.00102001 0.00105773 0.00109221 0.00112346 0.00115117 0.001175 0.00119497 0.00121107 0.00122331 0.00123168 0.00123618 0.00123681 0.00123485 0.00123155 0.00122691 0.00122094 0.00121364 0.001205 0.00119503 0.00118372 0.00117301 0.00116482 0.00115915 0.001156 0.00115537 0.00115727 0.00116168 0.00116862 0.00117919 0.00119453 0.00121463 0.00123948 0.0012691 0.00130348 0.00134262 0.00138652 0.00143445 0.00148568 0.00154021 0.00159805 0.00165919 0.00172363 0.00179138 0.00186242 0.00193439 0.0020049 0.00207396 0.00214156 0.00220771 0.00227239 0.00233562 0.0023974 0.00245509 0.0025061 0.0025504 0.00258802 0.00261893 0.00264315 0.00266068 0.0026715 0.00267449 0.00266847 0.00265345 0.00262943 0.00259641 0.00255439 0.00250337 0.00244335 0.00237558 0.0023013 0.00222052 0.00213324 0.00203944 0.00193914 0.00183234 0.00171903 0.00160274 0.00148696 0.00137172 0.001257 0.0011428 0.00102914 0.000915994 0.000803378 0.000695282 0.000595699 0.00050463 0.000422074 0.000348031 0.000282502 0.000225486 0.000176984 0.000135503 9.95532e-05 6.91342e-05 4.42459e-05 2.48883e-05 1.10615e-05 2.76537e-06 0 0 2.54973e-06 1.01989e-05 2.29476e-05 4.07957e-05 6.37433e-05 9.17903e-05 0.000124937 0.000163183 0.000208741 0.000263824 0.000328431 0.000402563 0.00048622 0.000579402 0.000682108 0.000794339 0.000911823 0.00103029 0.00114973 0.00127016 0.00139157 0.00151396 0.00163733 0.00176169 0.00188289 0.00199683 0.0021035 0.0022029 0.00229503 0.00237988 0.00245747 0.00252779 0.00259012 0.00264375 0.00268868 0.00272491 0.00275244 0.00277127 0.0027814 0.00278283 0.0027784 0.00277098 0.00276055 0.00274712 0.00273069 0.00271125 0.00268882 0.00266338 0.00263928 0.00262085 0.00260809 0.002601 0.00259959 0.00260385 0.00261378 0.00262939 0.00265318 0.00268769 0.00273291 0.00278884 0.00285548 0.00293283 0.00302089 0.00311966 0.0032275 0.00334277 0.00346548 0.00359561 0.00373317 0.00387817 0.00403059 0.00419045 0.00435238 0.00451104 0.00466641 0.00481851 0.00496734 0.00511288 0.00525515 0.00539414 0.00552396 0.00563872 0.00573841 0.00582303 0.00589259 0.00594709 0.00598652 0.00601089 0.00601759 0.00600405 0.00597026 0.00591622 0.00584192 0.00574738 0.00563259 0.00549755 0.00534506 0.00517794 0.00499618 0.00479978 0.00458875 0.00436308 0.00412277 0.00386783 0.00360615 0.00334567 0.00308636 0.00282824 0.00257131 0.00231556 0.00206099 0.0018076 0.00156438 0.00134032 0.00113542 0.000949667 0.000783071 0.00063563 0.000507344 0.000398213 0.000304882 0.000223995 0.000155552 9.95532e-05 5.59987e-05 2.48883e-05 6.22208e-06 0 0 4.53285e-06 1.81314e-05 4.07957e-05 7.25257e-05 0.000113321 0.000163183 0.00022211 0.000290103 0.000371095 0.00046902 0.000583877 0.000715668 0.000864391 0.00103005 0.00121264 0.00141216 0.00162102 0.00183162 0.00204397 0.00225807 0.0024739 0.00269149 0.00291081 0.00313189 0.00334737 0.00354992 0.00373956 0.00391626 0.00408005 0.00423091 0.00436884 0.00449385 0.00460466 0.00470001 0.00477988 0.00484429 0.00489323 0.00492671 0.00494471 0.00494725 0.00493938 0.00492618 0.00490764 0.00488377 0.00485455 0.00482 0.00478012 0.0047349 0.00469205 0.00465928 0.0046366 0.00462401 0.0046215 0.00462907 0.00464673 0.00467447 0.00471677 0.00477812 0.00485851 0.00495793 0.0050764 0.00521392 0.00537047 0.00554606 0.00573778 0.00594271 0.00616085 0.0063922 0.00663675 0.00689452 0.0071655 0.00744969 0.00773757 0.00801962 0.00829585 0.00856625 0.00883082 0.00908957 0.00934249 0.00958959 0.00982038 0.0100244 0.0102016 0.0103521 0.0104757 0.0105726 0.0106427 0.010686 0.0106979 0.0106739 0.0106138 0.0105177 0.0103856 0.0102176 0.0100135 0.00977341 0.00950233 0.00920522 0.00888209 0.00853294 0.00815777 0.00775658 0.00732937 0.00687613 0.00641094 0.00594785 0.00548687 0.00502799 0.00457121 0.00411654 0.00366398 0.00321351 0.00278113 0.0023828 0.00201852 0.0016883 0.00139213 0.00113001 0.000901944 0.000707934 0.000542012 0.000398213 0.000276537 0.000176984 9.95532e-05 4.42459e-05 1.10615e-05 0 0 7.08258e-06 2.83303e-05 6.37433e-05 0.000113321 0.000177065 0.000254973 0.000347047 0.000453285 0.000579835 0.000732843 0.000912308 0.00111823 0.00135061 0.00160945 0.00189474 0.0022065 0.00253284 0.00286191 0.00319371 0.00352823 0.00386548 0.00420545 0.00454815 0.00489357 0.00523026 0.00554676 0.00584306 0.00611916 0.00637507 0.00661079 0.00682631 0.00702164 0.00719478 0.00734376 0.00746857 0.00756921 0.00764568 0.00769798 0.00772611 0.00773008 0.00771779 0.00769716 0.00766819 0.00763088 0.00758524 0.00753126 0.00746894 0.00739827 0.00733132 0.00728013 0.00724469 0.00722501 0.00722109 0.00723292 0.00726051 0.00730386 0.00736996 0.00746581 0.00759142 0.00774677 0.00793188 0.00814674 0.00839136 0.00866572 0.00896528 0.00928548 0.00962633 0.00998781 0.0103699 0.0107727 0.0111961 0.0116401 0.0120899 0.0125307 0.0129623 0.0133848 0.0137982 0.0142025 0.0145976 0.0149837 0.0153443 0.0156631 0.01594 0.0161751 0.0163683 0.0165197 0.0166292 0.0166969 0.0167155 0.0166779 0.0165841 0.0164339 0.0162276 0.0159649 0.0156461 0.015271 0.0148474 0.0143832 0.0138783 0.0133327 0.0127465 0.0121197 0.0114521 0.010744 0.0100171 0.00929352 0.00857323 0.00785624 0.00714252 0.0064321 0.00572496 0.00502111 0.00434551 0.00372312 0.00315394 0.00263796 0.0021752 0.00176564 0.00140929 0.00110615 0.000846894 0.000622208 0.000432089 0.000276537 0.000155552 6.91342e-05 1.72836e-05 0 0 1.01989e-05 4.07957e-05 9.17903e-05 0.000163183 0.000254973 0.000367161 0.000499747 0.000652731 0.000834963 0.00105529 0.00131372 0.00161025 0.00194488 0.00231761 0.00272843 0.00317736 0.00364729 0.00412115 0.00459894 0.00508065 0.00556628 0.00605585 0.00654933 0.00704674 0.00753158 0.00798733 0.008414 0.00881159 0.0091801 0.00951954 0.00982989 0.0101112 0.0103605 0.010575 0.0107547 0.0108997 0.0110098 0.0110851 0.0111256 0.0111313 0.0111136 0.0110839 0.0110422 0.0109885 0.0109227 0.010845 0.0107553 0.0106535 0.0105571 0.0104834 0.0104324 0.010404 0.0103984 0.0104154 0.0104551 0.0105176 0.0106127 0.0107508 0.0109316 0.0111554 0.0114219 0.0117313 0.0120836 0.0124786 0.01291 0.0133711 0.0138619 0.0143824 0.0149327 0.0155127 0.0161224 0.0167618 0.0174095 0.0180441 0.0186657 0.0192741 0.0198693 0.0204515 0.0210206 0.0215766 0.0220959 0.0225549 0.0229536 0.0232921 0.0235704 0.0237884 0.0239461 0.0240435 0.0240704 0.0240162 0.023881 0.0236649 0.0233677 0.0229895 0.0225304 0.0219902 0.0213802 0.0207117 0.0199847 0.0191991 0.018355 0.0174523 0.0164911 0.0154713 0.0144246 0.0133827 0.0123455 0.011313 0.0102852 0.00926222 0.00824395 0.0072304 0.00625754 0.00536129 0.00454167 0.00379867 0.00313228 0.00254252 0.00202938 0.00159285 0.00121953 0.000895979 0.000622208 0.000398213 0.000223995 9.95532e-05 2.48883e-05 0 0 1.38819e-05 5.55275e-05 0.000124937 0.00022211 0.000347047 0.000499747 0.000680211 0.000888439 0.00113648 0.00143637 0.00178812 0.00219173 0.0026472 0.00315452 0.0037137 0.00432473 0.00496437 0.00560935 0.00625967 0.00691533 0.00757633 0.00824268 0.00891437 0.0095914 0.0102513 0.0108716 0.0114524 0.0119936 0.0124951 0.0129571 0.0133796 0.0137624 0.0141018 0.0143938 0.0146384 0.0148356 0.0149855 0.015088 0.0151432 0.0151509 0.0151269 0.0150864 0.0150297 0.0149565 0.0148671 0.0147613 0.0146391 0.0145006 0.0143694 0.0142691 0.0141996 0.014161 0.0141533 0.0141765 0.0142306 0.0143156 0.0144451 0.014633 0.0148792 0.0151837 0.0155465 0.0159676 0.0164471 0.0169848 0.017572 0.0181995 0.0188676 0.0195761 0.0203251 0.0211145 0.0219443 0.0228147 0.0236963 0.0245601 0.025406 0.0262341 0.0270444 0.0278368 0.0286114 0.0293681 0.0300749 0.0306997 0.0312424 0.0317032 0.0320819 0.0323786 0.0325933 0.0327259 0.0327624 0.0326887 0.0325047 0.0322105 0.031806 0.0312913 0.0306663 0.0299311 0.0291009 0.028191 0.0272014 0.0261321 0.0249832 0.0237545 0.0224462 0.0210582 0.0196335 0.0182153 0.0168035 0.0153982 0.0139993 0.0126069 0.0112209 0.00984138 0.00851721 0.00729732 0.00618172 0.00517041 0.00426338 0.00346065 0.00276221 0.00216805 0.00165991 0.00121953 0.000846894 0.000542012 0.000304882 0.000135503 3.38758e-05 0 0 1.81314e-05 7.25257e-05 0.000163183 0.000290103 0.000453285 0.000652731 0.000888439 0.00116041 0.00148438 0.00187608 0.00233551 0.00286267 0.00345756 0.00412019 0.00485054 0.00564863 0.00648407 0.00732649 0.00817589 0.00903226 0.00989562 0.0107659 0.0116433 0.0125275 0.0133895 0.0141997 0.0149582 0.0156651 0.0163202 0.0169236 0.0174754 0.0179754 0.0184186 0.0188 0.0191195 0.0193772 0.0195729 0.0197068 0.0197788 0.019789 0.0197575 0.0197047 0.0196306 0.0195351 0.0194182 0.01928 0.0191205 0.0189396 0.0187682 0.0186371 0.0185464 0.018496 0.018486 0.0185163 0.0185869 0.0186979 0.0188671 0.0191125 0.019434 0.0198317 0.0203056 0.0208557 0.0214819 0.0221842 0.0229511 0.0237708 0.0246434 0.0255688 0.026547 0.0275781 0.028662 0.0297988 0.0309503 0.0320785 0.0331834 0.034265 0.0353233 0.0363583 0.03737 0.0383583 0.0392815 0.0400976 0.0408065 0.0414082 0.0419029 0.0422904 0.0425708 0.0427441 0.0427918 0.0426955 0.0424552 0.0420709 0.0415426 0.0408703 0.040054 0.0390937 0.0380093 0.0368209 0.0355284 0.0341318 0.0326311 0.0310263 0.0293175 0.0275045 0.0256438 0.0237914 0.0219475 0.020112 0.0182849 0.0164662 0.0146559 0.0128541 0.0111245 0.00953119 0.00807408 0.00675318 0.0055685 0.00452003 0.00360778 0.00283174 0.00216805 0.00159285 0.00110615 0.000707934 0.000398213 0.000176984 4.42459e-05 0 0 2.33511e-05 9.34044e-05 0.00021016 0.000373618 0.000583777 0.000840639 0.0011442 0.00149447 0.00191106 0.00241361 0.0030021 0.00367654 0.00443694 0.00528329 0.00621558 0.00723383 0.00829938 0.0093736 0.0104565 0.011548 0.0126482 0.0137571 0.0148746 0.0160008 0.0170985 0.0181306 0.0190971 0.019998 0.0208332 0.0216028 0.0223068 0.0229452 0.0235114 0.0239991 0.0244083 0.0247389 0.0249909 0.0251644 0.0252594 0.0252757 0.0252392 0.0251753 0.0250841 0.0249657 0.0248199 0.0246469 0.0244465 0.0242189 0.024003 0.0238379 0.0237235 0.02366 0.0236472 0.0236852 0.023774 0.0239136 0.0241267 0.0244359 0.0248414 0.025343 0.0259408 0.0266347 0.0274249 0.0283112 0.029279 0.0303136 0.0314149 0.0325829 0.0338177 0.0351193 0.0364876 0.0379226 0.0393763 0.0408005 0.0421951 0.0435603 0.044896 0.0462021 0.0474788 0.0487259 0.0498905 0.0509197 0.0518133 0.0525714 0.0531939 0.053681 0.0540325 0.0542486 0.0543058 0.0541808 0.0538736 0.0533843 0.0527128 0.0518592 0.0508233 0.0496053 0.0482304 0.0467237 0.0450853 0.0433151 0.0414133 0.0393797 0.0372143 0.0349173 0.0325596 0.0302121 0.0278751 0.0255484 0.023232 0.0209259 0.0186302 0.0163449 0.0141508 0.0121288 0.010279 0.0086013 0.00709577 0.00576239 0.00460115 0.00361206 0.00276549 0.00203179 0.00141096 0.000903016 0.000507946 0.000225754 5.64385e-05 0 0 2.99444e-05 0.000119778 0.0002695 0.000479111 0.000748611 0.001078 0.00146728 0.00191644 0.00244893 0.00308815 0.00383412 0.00468683 0.00564628 0.00671248 0.00788542 0.0091651 0.0105033 0.0118517 0.0132103 0.0145792 0.0159583 0.0173476 0.0187471 0.0201569 0.021531 0.0228236 0.0240347 0.0251642 0.0262121 0.0271785 0.0280634 0.0288667 0.0295804 0.0301965 0.0307148 0.0311355 0.0314585 0.0316838 0.0318114 0.0318414 0.0318053 0.0317347 0.0316296 0.03149 0.031316 0.0311075 0.0308645 0.030587 0.0303233 0.0301215 0.0299817 0.0299039 0.029888 0.029934 0.030042 0.030212 0.030472 0.0308501 0.0313464 0.0319608 0.0326934 0.0335441 0.034513 0.0356 0.0367871 0.0380563 0.0394075 0.0408409 0.0423562 0.0439537 0.0456332 0.0473948 0.0491793 0.0509272 0.0526387 0.0543138 0.0559524 0.0575545 0.0591202 0.0606494 0.0620769 0.0633372 0.0644305 0.0653566 0.0661156 0.0667075 0.0671324 0.0673901 0.0674519 0.067289 0.0669015 0.0662892 0.0654523 0.0643907 0.0631044 0.0615935 0.0598889 0.0580217 0.0559918 0.0537993 0.0514443 0.0489266 0.0462463 0.0434033 0.040485 0.0375786 0.0346842 0.0318016 0.0289309 0.0260722 0.0232253 0.0203903 0.0176673 0.015156 0.0128566 0.010769 0.00889332 0.00722943 0.00577738 0.00453717 0.00347377 0.00255216 0.00177233 0.00113429 0.00063804 0.000283573 7.08933e-05 0 0 3.79114e-05 0.000151646 0.000341203 0.000606583 0.000947786 0.00136481 0.00185766 0.00242633 0.00309797 0.00389971 0.00483157 0.00589353 0.0070856 0.00840777 0.00986006 0.0114425 0.0130957 0.0147607 0.0164374 0.0181257 0.0198257 0.0215374 0.0232607 0.0249958 0.0266869 0.0282786 0.0297709 0.0311636 0.032457 0.0336508 0.0347452 0.0357401 0.0366257 0.037392 0.0380391 0.038567 0.0389756 0.039265 0.0394351 0.039486 0.0394558 0.0393828 0.0392669 0.0391081 0.0389064 0.0386618 0.0383743 0.038044 0.0377291 0.0374881 0.037321 0.0372277 0.0372082 0.0372626 0.0373908 0.0375929 0.0379029 0.038355 0.0389491 0.0396853 0.0405635 0.0415838 0.0427462 0.0440506 0.0454754 0.046999 0.0486214 0.0503426 0.0521626 0.0540814 0.056099 0.0582154 0.0603591 0.0624587 0.0645141 0.0665254 0.0684925 0.0704154 0.0722942 0.0741289 0.0758405 0.0773502 0.078658 0.0797639 0.0806679 0.08137 0.0818702 0.0821685 0.0822301 0.0820201 0.0815386 0.0807856 0.079761 0.0784649 0.0768973 0.0750581 0.0729848 0.0707148 0.068248 0.0655844 0.0627241 0.059667 0.0564132 0.0529626 0.0494202 0.0458909 0.0423747 0.0388716 0.0353817 0.0319048 0.0284411 0.0249904 0.021674 0.0186129 0.015807 0.0132564 0.0109612 0.00892117 0.00713647 0.00560706 0.00429291 0.00315397 0.00219026 0.00140176 0.000788493 0.000350441 8.76103e-05 0 0 4.72521e-05 0.000189008 0.000425269 0.000756034 0.0011813 0.00170108 0.00231535 0.00302413 0.00385819 0.00484829 0.00599444 0.00729664 0.00875488 0.0103692 0.0121395 0.0140659 0.0160768 0.0181007 0.0201376 0.0221876 0.0242505 0.0263265 0.0284155 0.0305175 0.0325663 0.0344957 0.0363057 0.0379964 0.0395677 0.0410196 0.0423522 0.0435653 0.0446472 0.0455858 0.0463812 0.0470333 0.0475422 0.0479079 0.0481304 0.0482096 0.0481909 0.0481197 0.047996 0.0478198 0.0475911 0.0473098 0.0469761 0.0465898 0.0462205 0.0459377 0.0457413 0.0456314 0.0456079 0.0456709 0.0458204 0.0460564 0.0464195 0.0469506 0.0476495 0.0485164 0.0495512 0.0507539 0.0521245 0.053663 0.0553439 0.0571418 0.0590565 0.0610883 0.0632369 0.0655025 0.0678849 0.0703844 0.0729159 0.0753949 0.0778213 0.0801951 0.0825163 0.0847849 0.0870009 0.0891643 0.0911814 0.0929587 0.094496 0.0957934 0.0968509 0.0976685 0.0982462 0.0985839 0.0986404 0.0983741 0.0977851 0.0968734 0.095639 0.0940818 0.0922019 0.0899993 0.0875183 0.0848031 0.0818538 0.0786703 0.0752527 0.071601 0.0677151 0.0635951 0.0593651 0.0551489 0.0509467 0.0467585 0.0425842 0.0384239 0.0342776 0.0301452 0.026171 0.0224993 0.0191301 0.0160635 0.0132993 0.0108376 0.00867841 0.00682173 0.00522289 0.00383722 0.00266474 0.00170543 0.000959306 0.000426358 0.00010659 0 0 5.79664e-05 0.000231866 0.000521698 0.000927463 0.00144916 0.00208679 0.00284035 0.00370985 0.00472959 0.00593389 0.00732275 0.00889616 0.0106541 0.0125967 0.0147237 0.0170354 0.0194464 0.0218717 0.0243112 0.0267649 0.0292328 0.031715 0.0342113 0.0367219 0.039169 0.0414748 0.0436393 0.0456625 0.0475444 0.049285 0.0508843 0.0523423 0.0536449 0.0547778 0.055741 0.0565345 0.0571584 0.0576126 0.0578972 0.0580121 0.0580104 0.0579454 0.057817 0.0576253 0.0573701 0.0570516 0.0566697 0.0562244 0.0557974 0.0554701 0.0552426 0.055115 0.0550871 0.0551591 0.0553309 0.0556024 0.0560218 0.0566368 0.0574476 0.0584541 0.0596563 0.0610542 0.0626478 0.0644372 0.0663926 0.0684845 0.0707129 0.0730777 0.075579 0.0782168 0.080991 0.0839017 0.0868497 0.0897359 0.0925603 0.095323 0.0980238 0.100663 0.10324 0.105756 0.1081 0.110163 0.111944 0.113445 0.114664 0.115603 0.11626 0.116636 0.116683 0.116351 0.115641 0.114553 0.113086 0.111241 0.109018 0.106417 0.103489 0.100287 0.0968092 0.0930571 0.0890302 0.0847285 0.0801521 0.0753009 0.0703196 0.0653527 0.0604002 0.0554622 0.0505386 0.0456295 0.0407348 0.0358545 0.0311582 0.0268154 0.022826 0.0191901 0.0159077 0.0129787 0.0104032 0.00818119 0.00626372 0.00460192 0.00319578 0.0020453 0.00115048 0.000511324 0.000127831 0 0 7.00544e-05 0.000280218 0.00063049 0.00112087 0.00175136 0.00252196 0.00343267 0.00448348 0.00571217 0.00715651 0.00881648 0.0106921 0.0127833 0.0150902 0.0176128 0.020351 0.0232046 0.0260736 0.0289579 0.0318575 0.0347725 0.0377027 0.0406483 0.0436092 0.0464952 0.0492159 0.0517715 0.0541618 0.056387 0.0584469 0.0603416 0.0620712 0.0636188 0.064968 0.0661185 0.0670706 0.0678241 0.0683791 0.0687356 0.0688935 0.0689145 0.0688599 0.0687299 0.0685245 0.0682435 0.0678871 0.0674552 0.0669479 0.0664597 0.0660855 0.0658251 0.0656785 0.0656459 0.0657271 0.0659221 0.0662311 0.0667097 0.0674138 0.0683434 0.0694984 0.0708789 0.0724848 0.0743163 0.0763732 0.0786215 0.0810273 0.0835904 0.086311 0.089189 0.0922244 0.0954171 0.0987673 0.10216 0.105482 0.108731 0.111909 0.115015 0.118049 0.121012 0.123903 0.126595 0.128962 0.131003 0.132719 0.134109 0.135173 0.135912 0.136326 0.136357 0.135951 0.135106 0.133823 0.132103 0.129944 0.127346 0.124311 0.120897 0.117165 0.113114 0.108745 0.104056 0.0990496 0.0937241 0.08808 0.0822838 0.0765022 0.0707352 0.0649827 0.0592448 0.0535215 0.0478127 0.0421185 0.0366357 0.0315611 0.0268946 0.0226364 0.0187864 0.0153445 0.0123109 0.00968542 0.0074154 0.00544805 0.00378337 0.00242136 0.00136201 0.000605339 0.000151335 0 0 8.3516e-05 0.000334064 0.000751644 0.00133626 0.0020879 0.00300658 0.00409229 0.00534503 0.00680593 0.00851614 0.0104756 0.0126844 0.0151425 0.0178499 0.0208066 0.0240126 0.0273514 0.0307065 0.0340779 0.0374656 0.0408696 0.0442898 0.0477264 0.0511793 0.0545447 0.0577191 0.0607023 0.0634945 0.0660955 0.0685054 0.0707241 0.0727518 0.074569 0.0761564 0.0775139 0.0786416 0.0795394 0.0802074 0.0806456 0.0808539 0.080903 0.0808632 0.0807347 0.0805173 0.0802112 0.0798163 0.0793326 0.0787602 0.0782076 0.0777837 0.0774885 0.077322 0.0772841 0.0773748 0.0775942 0.0779423 0.0784833 0.0792815 0.0803368 0.0816493 0.083219 0.0850458 0.0871298 0.089471 0.0920307 0.0947701 0.0976892 0.100788 0.104067 0.107525 0.111163 0.114981 0.118848 0.122632 0.126334 0.129953 0.13349 0.136945 0.140317 0.143606 0.146668 0.149357 0.151672 0.153614 0.155184 0.15638 0.157202 0.157652 0.157664 0.157174 0.156181 0.154686 0.152688 0.150188 0.147186 0.143682 0.139743 0.135439 0.130769 0.125733 0.120332 0.114564 0.108431 0.101932 0.0952578 0.0885975 0.0819516 0.0753201 0.0687028 0.0621 0.0555114 0.0489372 0.0426034 0.0367364 0.031336 0.0264023 0.0219353 0.017935 0.0144014 0.0113344 0.00867793 0.00637562 0.00442752 0.00283361 0.00159391 0.000708403 0.000177101 0 0 9.83513e-05 0.000393405 0.000885162 0.00157362 0.00245878 0.00354065 0.00481922 0.00629449 0.00801087 0.0100128 0.0123002 0.0148732 0.0177317 0.0208757 0.0243053 0.0280204 0.0318868 0.0357704 0.0396711 0.043589 0.0475241 0.0514763 0.0554456 0.0594321 0.0633177 0.0669843 0.0704319 0.0736604 0.0766699 0.0794604 0.0820318 0.0843843 0.0864954 0.088343 0.089927 0.0912474 0.0923042 0.0930975 0.0936272 0.0938933 0.0939759 0.0939553 0.0938313 0.0936039 0.0932733 0.0928393 0.0923019 0.0916613 0.091041 0.090565 0.0902331 0.0900453 0.0900018 0.0901024 0.0903472 0.0907361 0.0913426 0.0922398 0.0934279 0.0949068 0.0966766 0.0987371 0.101088 0.103731 0.10662 0.109713 0.113009 0.116509 0.120212 0.124119 0.12823 0.132544 0.136912 0.141187 0.145368 0.149455 0.153449 0.157348 0.161154 0.164865 0.168318 0.171347 0.173952 0.176132 0.177889 0.179222 0.180131 0.180615 0.180603 0.180019 0.178865 0.177139 0.174843 0.171976 0.168538 0.164529 0.160027 0.155108 0.149773 0.144022 0.137855 0.131272 0.124273 0.116858 0.109241 0.101639 0.0940495 0.0864742 0.0789127 0.0713649 0.0638308 0.0563104 0.0490614 0.0423413 0.0361501 0.0304879 0.0253546 0.0207502 0.0166748 0.0131282 0.0100513 0.00738464 0.00512822 0.00328206 0.00184616 0.000820515 0.000205129 0 0 0.000114401 0.000457605 0.00102961 0.00183042 0.00286003 0.00411845 0.00560566 0.00732168 0.00931405 0.0116303 0.0142705 0.0172346 0.0205226 0.0241345 0.0280702 0.0323299 0.0367605 0.0412088 0.045675 0.0501589 0.0546607 0.0591802 0.0637175 0.0682727 0.0727124 0.0769037 0.0808463 0.0845405 0.0879861 0.0911831 0.0941316 0.0968315 0.0992575 0.101384 0.103212 0.10474 0.105968 0.106898 0.107528 0.107858 0.10798 0.107982 0.107865 0.107629 0.107273 0.106799 0.106205 0.105492 0.104799 0.104266 0.103892 0.103678 0.103624 0.103729 0.103993 0.104418 0.105084 0.106076 0.107394 0.109036 0.111004 0.113298 0.115916 0.11886 0.12208 0.125529 0.129205 0.13311 0.137243 0.141604 0.146192 0.151009 0.155888 0.16066 0.165328 0.16989 0.174346 0.178697 0.182942 0.187082 0.190932 0.194305 0.197201 0.199622 0.201566 0.203034 0.204026 0.204542 0.204499 0.203814 0.202488 0.20052 0.197911 0.19466 0.190768 0.186234 0.181145 0.175588 0.169563 0.163069 0.156108 0.148678 0.14078 0.132414 0.12382 0.115238 0.10667 0.0981137 0.0895705 0.08104 0.0725223 0.0640172 0.0558151 0.0482063 0.0411907 0.0347683 0.0289392 0.0237033 0.0190606 0.0150112 0.011493 0.00844381 0.00586376 0.00375281 0.00211095 0.000938202 0.00023455 0 0 0.000131507 0.000526027 0.00118356 0.00210411 0.00328767 0.00473425 0.00644384 0.00841644 0.0107025 0.0133526 0.0163667 0.0197448 0.0234869 0.027593 0.0320631 0.0368971 0.0419223 0.0469655 0.0520269 0.0571064 0.0622041 0.0673198 0.0724537 0.0776057 0.0826272 0.0873693 0.0918321 0.0960156 0.0999198 0.103545 0.10689 0.109957 0.112715 0.115136 0.117221 0.11897 0.120381 0.121456 0.122194 0.122596 0.122761 0.122789 0.122681 0.122437 0.122056 0.121538 0.120884 0.120093 0.119321 0.118723 0.1183 0.11805 0.117975 0.118073 0.118346 0.118792 0.119506 0.120579 0.122011 0.123803 0.125955 0.128466 0.131336 0.134566 0.138102 0.141891 0.145933 0.150227 0.154774 0.159575 0.164628 0.169933 0.175307 0.180564 0.185705 0.190729 0.195637 0.200427 0.205102 0.209659 0.213894 0.217602 0.220781 0.223432 0.225555 0.227151 0.228218 0.228757 0.228677 0.227884 0.226379 0.224163 0.221234 0.217594 0.213241 0.208177 0.202496 0.196295 0.189573 0.182331 0.174568 0.166285 0.157481 0.148156 0.138577 0.129009 0.119452 0.109907 0.100372 0.0908493 0.0813373 0.0718365 0.0626702 0.0541618 0.0463114 0.0391188 0.0325842 0.0267075 0.0214887 0.0169278 0.0129603 0.00952188 0.00661242 0.00423195 0.00238047 0.00105799 0.000264497 0 0 0.000149668 0.000598672 0.00134701 0.00239469 0.0037417 0.00538805 0.00733373 0.00957875 0.0121763 0.0151797 0.0185889 0.0224039 0.0266247 0.0312513 0.0362837 0.041722 0.0473721 0.0530405 0.0587269 0.0644315 0.0701543 0.0758951 0.0816542 0.0874313 0.0930619 0.0983812 0.103389 0.108086 0.112471 0.116545 0.120308 0.123759 0.126867 0.1296 0.131956 0.133938 0.135543 0.136773 0.137627 0.138106 0.138319 0.138377 0.13828 0.138028 0.13762 0.137057 0.136338 0.135465 0.134607 0.133937 0.133455 0.133161 0.133054 0.133135 0.133404 0.13386 0.134607 0.135747 0.137281 0.139208 0.141528 0.144242 0.147349 0.15085 0.154686 0.1588 0.163191 0.16786 0.172808 0.178032 0.183535 0.189316 0.195171 0.2009 0.2065 0.211974 0.21732 0.222539 0.227631 0.232595 0.237206 0.241238 0.24469 0.247563 0.249857 0.251571 0.252706 0.253262 0.253137 0.252229 0.25054 0.248068 0.244814 0.240778 0.235959 0.230358 0.22408 0.217229 0.209804 0.201807 0.193236 0.184092 0.174376 0.164086 0.153514 0.142951 0.132398 0.121854 0.111319 0.100793 0.0902758 0.0797682 0.0696266 0.0602079 0.0515122 0.0435394 0.0362896 0.0297628 0.0239589 0.0188779 0.0144534 0.0106188 0.00737419 0.00471948 0.00265471 0.00117987 0.000294967 0 0 0.000168885 0.000675539 0.00151996 0.00270216 0.00422212 0.00607986 0.00827536 0.0108086 0.0137355 0.0171116 0.0209371 0.0252119 0.029936 0.0351095 0.0407323 0.0468044 0.0531101 0.0594336 0.065775 0.0721342 0.0785113 0.0849062 0.0913189 0.0977494 0.104017 0.109939 0.115517 0.120751 0.12564 0.130185 0.134384 0.13824 0.141715 0.144774 0.147417 0.149643 0.151454 0.152848 0.153827 0.154389 0.154655 0.154746 0.154661 0.154401 0.153966 0.153355 0.152568 0.151607 0.150657 0.149908 0.149359 0.149011 0.148863 0.148915 0.149168 0.149621 0.150388 0.151581 0.153202 0.15525 0.157724 0.160626 0.163955 0.16771 0.171831 0.176254 0.180981 0.18601 0.191342 0.196977 0.202915 0.209156 0.21548 0.221666 0.227714 0.233625 0.239398 0.245033 0.250531 0.255892 0.260868 0.265214 0.26893 0.272016 0.274471 0.276296 0.277491 0.278056 0.277879 0.27685 0.274969 0.272235 0.268649 0.264211 0.258921 0.252778 0.245897 0.238389 0.230256 0.221497 0.212112 0.202101 0.191465 0.180202 0.16863 0.157065 0.145506 0.133954 0.122409 0.11087 0.0993379 0.0878123 0.0766842 0.0663445 0.0567931 0.0480301 0.0400555 0.0328692 0.0264712 0.0208616 0.0159722 0.0117347 0.00814907 0.00521541 0.00293367 0.00130385 0.000325963 0 0 0.000189157 0.000756629 0.00170242 0.00302652 0.00472893 0.00680966 0.00926871 0.0121061 0.0153799 0.0191482 0.0234112 0.0281687 0.0334208 0.0391674 0.0454087 0.0521444 0.0591361 0.066145 0.0731712 0.0802145 0.0872751 0.0943529 0.101448 0.10856 0.115491 0.122044 0.128217 0.134011 0.139427 0.144463 0.14912 0.153398 0.157258 0.160659 0.163602 0.166087 0.168113 0.169682 0.170792 0.171444 0.171768 0.171895 0.171825 0.171558 0.171094 0.170433 0.169574 0.168519 0.167471 0.166635 0.166011 0.1656 0.1654 0.165413 0.165638 0.166075 0.166848 0.168081 0.169775 0.171929 0.174543 0.177618 0.181153 0.185148 0.189538 0.194255 0.199301 0.204676 0.210378 0.216409 0.222768 0.229455 0.236232 0.242863 0.249345 0.255681 0.261868 0.267909 0.273802 0.279547 0.284879 0.289529 0.293499 0.296789 0.299397 0.301325 0.302572 0.303138 0.302903 0.301746 0.299667 0.296665 0.292741 0.287895 0.282127 0.275437 0.267946 0.259777 0.250928 0.241401 0.231196 0.220311 0.208748 0.196506 0.183926 0.17135 0.158778 0.146209 0.133643 0.121082 0.108523 0.0959689 0.0838432 0.0725716 0.0621542 0.0525909 0.0438817 0.0360266 0.0290257 0.0228789 0.0175167 0.0128694 0.00893708 0.00571973 0.00321735 0.00142993 0.000357483 0 0 0.000210485 0.000841942 0.00189437 0.00336777 0.00526213 0.00757747 0.0103138 0.0134711 0.0171096 0.0212897 0.0260112 0.0312744 0.037079 0.0434252 0.0503129 0.0577421 0.0654502 0.0731747 0.0809154 0.0886724 0.0964457 0.104235 0.112041 0.119863 0.127486 0.134694 0.141488 0.147867 0.153831 0.15938 0.164514 0.169234 0.173496 0.177255 0.180513 0.183268 0.185522 0.187274 0.188524 0.189271 0.189658 0.189825 0.189771 0.189498 0.189004 0.18829 0.187356 0.186202 0.185049 0.184119 0.183412 0.182928 0.182667 0.182629 0.182814 0.183222 0.183988 0.185247 0.187 0.189246 0.191985 0.195218 0.198944 0.203163 0.207806 0.212803 0.218153 0.223857 0.229915 0.236327 0.243093 0.250212 0.25743 0.264491 0.271395 0.278142 0.284732 0.291166 0.297443 0.303563 0.309239 0.314184 0.318399 0.321883 0.324636 0.326658 0.32795 0.32851 0.32821 0.326917 0.324633 0.321357 0.317089 0.311829 0.305577 0.298334 0.290228 0.281391 0.271822 0.26152 0.250487 0.238722 0.226225 0.212996 0.199401 0.185806 0.172211 0.158617 0.145022 0.131427 0.117833 0.104238 0.0911035 0.0788893 0.0675954 0.0572217 0.0477683 0.0392352 0.0316224 0.0249298 0.0190869 0.014023 0.00973819 0.00623244 0.00350575 0.00155811 0.000389528 0 0 0.000232869 0.000931476 0.00209582 0.00372591 0.00582173 0.00838329 0.0114106 0.0149036 0.0189246 0.0235358 0.0287373 0.0345289 0.0409107 0.0478827 0.055445 0.0635974 0.0720525 0.0805225 0.0890077 0.0975079 0.106023 0.114553 0.123099 0.131659 0.140001 0.147891 0.15533 0.162317 0.168852 0.174936 0.180568 0.185748 0.190429 0.194562 0.198149 0.201188 0.20368 0.205624 0.207021 0.207872 0.208326 0.208535 0.2085 0.20822 0.207696 0.206927 0.205913 0.204655 0.20339 0.202359 0.201561 0.200995 0.200662 0.200563 0.200696 0.201062 0.201807 0.203079 0.204876 0.2072 0.21005 0.213426 0.217328 0.221755 0.226636 0.231896 0.237536 0.243555 0.249954 0.256732 0.26389 0.271427 0.279071 0.286549 0.293862 0.301009 0.30799 0.314805 0.321454 0.327938 0.333948 0.339179 0.343628 0.347298 0.350187 0.352295 0.353624 0.354171 0.353798 0.352364 0.349868 0.346311 0.341693 0.336013 0.329272 0.321469 0.312743 0.303232 0.292936 0.281854 0.269987 0.257334 0.243897 0.229673 0.215056 0.200434 0.185808 0.171178 0.156545 0.141907 0.127265 0.112619 0.098465 0.0852975 0.0731167 0.0619226 0.0517154 0.0424949 0.0