<?xml version="1.0"?> 
<VTKFile type="StructuredGrid" version="0.1"> 
<StructuredGrid WholeExtent="0 128 0 128 0 0"> 
<Piece Extent="0 128 0 128 0 0"> 
<PointData>
<DataArray type="Float32" Name="u" format="ascii" NumberOfComponents="1"> 
0 0 0 0 0 0 0 0 0 0 0 0 0 0 0 0 0 0 0 0 0 0 0 0 0 0 0 0 0 0 0 0 0 0 0 0 0 0 0 0 0 0 0 0 0 0 0 0 0 0 0 0 0 0 0 0 0 0 0 0 0 0 0 0 0 0 0 0 0 0 0 0 0 0 0 0 0 0 0 0 0 0 0 0 0 0 0 0 0 0 0 0 0 0 0 0 0 0 0 0 0 0 0 0 0 0 0 0 0 0 0 0 0 0 0 0 0 0 0 0 0 0 0 0 0 0 0 0 0 0 2.81754e-07 1.12701e-06 2.53578e-06 4.50806e-06 7.04384e-06 1.01431e-05 1.38059e-05 1.80322e-05 2.30701e-05 2.91675e-05 3.63244e-05 4.45409e-05 5.3817e-05 6.41526e-05 7.55478e-05 8.80026e-05 0.000101042 0.000114193 0.000127454 0.000140825 0.000154308 0.0001679 0.000181604 0.000195418 0.00020888 0.000221529 0.000233365 0.000244386 0.000254594 0.000263989 0.00027257 0.000280337 0.000287209 0.000293105 0.000298024 0.000301966 0.000304932 0.000306921 0.000307934 0.00030797 0.000307349 0.000306393 0.000305101 0.000303472 0.000301508 0.000299208 0.000296571 0.000293599 0.00029078 0.000288605 0.000287074 0.000286186 0.000285942 0.000286342 0.000287385 0.000289071 0.000291687 0.000295517 0.000300561 0.000306819 0.000314292 0.000322979 0.00033288 0.000343995 0.00035614 0.000369128 0.000382961 0.000397637 0.000413158 0.000429523 0.000446731 0.000464784 0.000483076 0.000501002 0.000518562 0.000535757 0.000552585 0.000569048 0.000585144 0.000600875 0.000615576 0.000628581 0.000639892 0.000649507 0.000657428 0.000663654 0.000668185 0.000671021 0.000671871 0.000670447 0.000666748 0.000660774 0.000652525 0.000642001 0.000629202 0.000614129 0.000597098 0.000578428 0.000558119 0.000536171 0.000512584 0.000487357 0.000460492 0.000431988 0.000402732 0.000373613 0.000344629 0.000315782 0.00028707 0.000258495 0.000230055 0.000201752 0.000174588 0.000149565 0.000126684 0.000105945 8.73473e-05 7.08916e-05 5.65776e-05 4.44054e-05 3.39979e-05 2.4978e-05 1.73459e-05 1.11014e-05 6.24451e-06 2.77534e-06 6.93835e-07 0 0 1.12701e-06 4.50806e-06 1.01431e-05 1.80322e-05 2.81754e-05 4.05725e-05 5.52237e-05 7.21289e-05 9.22803e-05 0.00011667 0.000145298 0.000178164 0.000215268 0.000256611 0.000302191 0.00035201 0.00040417 0.000456771 0.000509815 0.000563302 0.000617231 0.000671602 0.000726416 0.000781672 0.000835522 0.000886117 0.000933459 0.000977545 0.00101838 0.00105596 0.00109028 0.00112135 0.00114884 0.00117242 0.0011921 0.00120786 0.00121973 0.00122768 0.00123173 0.00123188 0.0012294 0.00122557 0.0012204 0.00121389 0.00120603 0.00119683 0.00118628 0.0011744 0.00116312 0.00115442 0.0011483 0.00114474 0.00114377 0.00114537 0.00114954 0.00115629 0.00116675 0.00118207 0.00120224 0.00122728 0.00125717 0.00129191 0.00133152 0.00137598 0.00142456 0.00147651 0.00153184 0.00159055 0.00165263 0.00171809 0.00178693 0.00185914 0.0019323 0.00200401 0.00207425 0.00214303 0.00221034 0.00227619 0.00234058 0.0024035 0.0024623 0.00251432 0.00255957 0.00259803 0.00262971 0.00265462 0.00267274 0.00268408 0.00268749 0.00268179 0.00266699 0.0026431 0.0026101 0.00256801 0.00251681 0.00245651 0.00238839 0.00231371 0.00223247 0.00214468 0.00205033 0.00194943 0.00184197 0.00172795 0.00161093 0.00149445 0.00137852 0.00126313 0.00114828 0.00103398 0.000920221 0.000807008 0.00069835 0.000598259 0.000506736 0.000423779 0.000349389 0.000283566 0.000226311 0.000177622 0.000135992 9.99122e-05 6.93835e-05 4.44054e-05 2.4978e-05 1.11014e-05 2.77534e-06 0 0 2.53578e-06 1.01431e-05 2.2822e-05 4.05725e-05 6.33946e-05 9.12882e-05 0.000124253 0.00016229 0.000207631 0.000262507 0.00032692 0.000400868 0.000484353 0.000577374 0.00067993 0.000792023 0.000909382 0.00102774 0.00114708 0.00126743 0.00138877 0.0015111 0.00163444 0.00175876 0.00187992 0.00199376 0.00210028 0.00219948 0.00229135 0.0023759 0.00245313 0.00252303 0.00258488 0.00263794 0.00268221 0.0027177 0.00274439 0.00276229 0.0027714 0.00277173 0.00276614 0.00275754 0.00274591 0.00273125 0.00271357 0.00269287 0.00266914 0.00264239 0.00261702 0.00259745 0.00258367 0.00257568 0.00257348 0.00257707 0.00258646 0.00260164 0.00262518 0.00265965 0.00270505 0.00276137 0.00282863 0.00290681 0.00299592 0.00309596 0.00320526 0.00332215 0.00344665 0.00357874 0.00371842 0.0038657 0.00402058 0.00418306 0.00434769 0.00450902 0.00466706 0.00482181 0.00497327 0.00512143 0.0052663 0.00540788 0.00554018 0.00565723 0.00575903 0.00584557 0.00591685 0.00597288 0.00601366 0.00603918 0.00604684 0.00603403 0.00600074 0.00594697 0.00587273 0.00577801 0.00566282 0.00552716 0.00537388 0.00520585 0.00502307 0.00482554 0.00461325 0.00438622 0.00414443 0.00388789 0.00362459 0.00336251 0.00310166 0.00284203 0.00258363 0.00232645 0.0020705 0.00181577 0.00157129 0.00134608 0.00114016 0.000953503 0.000786126 0.000638024 0.000509199 0.000399649 0.000305981 0.000224802 0.000156113 9.99122e-05 5.62006e-05 2.4978e-05 6.24451e-06 0 0 4.50806e-06 1.80322e-05 4.05725e-05 7.21289e-05 0.000112701 0.00016229 0.000220895 0.000288516 0.000369121 0.00046668 0.000581191 0.000712655 0.000861072 0.00102644 0.00120877 0.00140804 0.00161668 0.00182708 0.00203926 0.00225321 0.00246892 0.00268641 0.00290566 0.00312669 0.00334209 0.00354447 0.00373383 0.00391018 0.00407351 0.00422382 0.00436112 0.00448539 0.00459535 0.00468968 0.00476838 0.00483146 0.00487891 0.00491074 0.00492694 0.00492751 0.00491759 0.00490229 0.00488161 0.00485556 0.00482413 0.00478732 0.00474514 0.00469758 0.00465248 0.00461769 0.00459318 0.00457898 0.00457507 0.00458146 0.00459815 0.00462514 0.00466699 0.00472827 0.00480897 0.00490911 0.00502867 0.00516766 0.00532607 0.00550392 0.00569823 0.00590605 0.00612737 0.0063622 0.00661053 0.00687236 0.0071477 0.00743655 0.00772922 0.00801604 0.008297 0.00857211 0.00884136 0.00910476 0.00936231 0.009614 0.00984921 0.0100573 0.0102383 0.0103921 0.0105188 0.0106185 0.010691 0.0107363 0.0107499 0.0107272 0.010668 0.0105724 0.0104404 0.010272 0.0100672 0.00982606 0.00955356 0.00925484 0.0089299 0.00857873 0.00820134 0.00779772 0.00736788 0.00691181 0.00644372 0.0059778 0.00551406 0.0050525 0.00459312 0.00413591 0.00368088 0.00322803 0.0027934 0.00239304 0.00202694 0.00169512 0.00139756 0.00113427 0.000905242 0.000710487 0.000543966 0.000399649 0.000277534 0.000177622 9.99122e-05 4.44054e-05 1.11014e-05 0 0 7.04384e-06 2.81754e-05 6.33946e-05 0.000112701 0.000176096 0.000253578 0.000345148 0.000450806 0.000576752 0.000729187 0.000908111 0.00111352 0.00134543 0.00160382 0.0018887 0.00220006 0.00252606 0.00285482 0.00318635 0.00352064 0.00385769 0.00419751 0.0045401 0.00488545 0.00522201 0.00553823 0.00583412 0.00610966 0.00636486 0.00659972 0.00681424 0.00700843 0.00718023 0.00732762 0.00745059 0.00754915 0.0076233 0.00767303 0.00769834 0.00769924 0.00768373 0.00765982 0.00762752 0.00758681 0.0075377 0.00748019 0.00741428 0.00733997 0.00726951 0.00721513 0.00717685 0.00715466 0.00714855 0.00715854 0.00718462 0.00722678 0.00729217 0.00738792 0.00751402 0.00767048 0.00785729 0.00807446 0.00832199 0.00859988 0.00890349 0.0092282 0.00957402 0.00994093 0.0103289 0.0107381 0.0111683 0.0116196 0.0120769 0.0125251 0.0129641 0.0133939 0.0138146 0.0142262 0.0146286 0.0150219 0.0153894 0.0157145 0.0159973 0.0162377 0.0164357 0.0165913 0.0167046 0.0167755 0.0167968 0.0167612 0.0166687 0.0165194 0.0163131 0.01605 0.0157301 0.0153532 0.0149274 0.0144607 0.013953 0.0134043 0.0128146 0.0121839 0.0115123 0.0107997 0.0100683 0.00934032 0.00861573 0.00789454 0.00717675 0.00646237 0.00575138 0.0050438 0.00436469 0.00373912 0.0031671 0.00264862 0.00218368 0.00177229 0.00141444 0.00111014 0.000849947 0.000624451 0.000433647 0.000277534 0.000156113 6.93835e-05 1.73459e-05 0 0 1.01431e-05 4.05725e-05 9.12882e-05 0.00016229 0.000253578 0.000365153 0.000497014 0.000649161 0.000830523 0.00105003 0.00130768 0.00160347 0.00193741 0.00230949 0.00271972 0.00316809 0.00363753 0.00411094 0.00458834 0.00506972 0.00555508 0.00604442 0.00653774 0.00703505 0.0075197 0.00797506 0.00840113 0.00879791 0.0091654 0.0095036 0.00981251 0.0100921 0.0103395 0.0105518 0.0107289 0.0108708 0.0109775 0.0110492 0.0110856 0.0110869 0.0110646 0.0110301 0.0109836 0.010925 0.0108543 0.0107715 0.0106766 0.0105696 0.0104681 0.0103898 0.0103347 0.0103027 0.0102939 0.0103083 0.0103458 0.0104066 0.0105007 0.0106386 0.0108202 0.0110455 0.0113145 0.0116272 0.0119837 0.0123838 0.012821 0.0132886 0.0137866 0.0143149 0.0148737 0.0154628 0.0160823 0.0167322 0.0173907 0.0180361 0.0186682 0.0192872 0.0198931 0.0204857 0.0210652 0.0216315 0.0221607 0.0226289 0.0230361 0.0233823 0.0236674 0.0238915 0.0240546 0.0241567 0.0241874 0.0241361 0.0240029 0.0237879 0.0234909 0.0231121 0.0226513 0.0221086 0.0214955 0.0208234 0.0200923 0.0193021 0.018453 0.0175449 0.0165777 0.0155516 0.0144984 0.0134501 0.0124066 0.0113681 0.0103345 0.00930581 0.00828199 0.00726307 0.00628515 0.00538434 0.00456062 0.00381401 0.0031445 0.0025521 0.00203679 0.00159859 0.00122392 0.00089921 0.000624451 0.000399649 0.000224802 9.99122e-05 2.4978e-05 0 0 1.38059e-05 5.52237e-05 0.000124253 0.000220895 0.000345148 0.000497014 0.000676491 0.00088358 0.00113043 0.00142921 0.0017799 0.00218251 0.00263703 0.00314348 0.00370184 0.00431213 0.00495108 0.00559545 0.00624524 0.00690045 0.00756108 0.00822712 0.00889859 0.00957548 0.0102351 0.0108549 0.0114349 0.0119749 0.0124751 0.0129355 0.0133559 0.0137365 0.0140733 0.0143621 0.0146032 0.0147963 0.0149417 0.0150391 0.0150887 0.0150905 0.0150601 0.0150133 0.0149499 0.0148701 0.0147739 0.0146612 0.014532 0.0143863 0.0142482 0.0141417 0.0140666 0.0140231 0.0140112 0.0140307 0.0140818 0.0141645 0.0142927 0.0144803 0.0147275 0.0150341 0.0154003 0.015826 0.0163111 0.0168558 0.0174508 0.0180873 0.0187651 0.0194842 0.0202447 0.0210466 0.0218898 0.0227744 0.0236707 0.0245491 0.0254096 0.0262521 0.0270767 0.0278833 0.0286721 0.0294429 0.0301632 0.0308005 0.0313547 0.0318259 0.032214 0.032519 0.032741 0.03288 0.0329217 0.0328519 0.0326707 0.0323779 0.0319737 0.0314581 0.0308309 0.0300923 0.0292578 0.028343 0.0273478 0.0262724 0.0251166 0.0238805 0.0225641 0.0211674 0.0197339 0.018307 0.0168868 0.0154733 0.0140664 0.0126662 0.0112727 0.00988584 0.00855479 0.00732868 0.00620751 0.00519129 0.00428002 0.00347369 0.0027723 0.00217587 0.0016659 0.00122392 0.000849947 0.000543966 0.000305981 0.000135992 3.39979e-05 0 0 1.80322e-05 7.21289e-05 0.00016229 0.000288516 0.000450806 0.000649161 0.00088358 0.00115406 0.00147648 0.00186672 0.00232476 0.00285062 0.00344429 0.00410577 0.00483506 0.00563216 0.00646671 0.00730834 0.00815705 0.00901283 0.00987569 0.0107456 0.0116227 0.0125067 0.0133683 0.0141779 0.0149353 0.0156407 0.016294 0.0168953 0.0174445 0.0179416 0.0183814 0.0187587 0.0190735 0.0193258 0.0195156 0.0196429 0.0197078 0.0197101 0.0196704 0.0196091 0.0195264 0.0194222 0.0192965 0.0191493 0.0189806 0.0187903 0.0186099 0.0184707 0.0183727 0.0183159 0.0183003 0.0183259 0.0183926 0.0185006 0.018668 0.0189131 0.0192359 0.0196364 0.0201147 0.0206706 0.0213043 0.0220157 0.0227929 0.0236242 0.0245095 0.0254488 0.0264421 0.0274895 0.0285908 0.0297462 0.0309169 0.0320641 0.033188 0.0342884 0.0353655 0.0364191 0.0374492 0.038456 0.0393968 0.0402292 0.0409531 0.0415685 0.0420754 0.0424738 0.0427638 0.0429453 0.0429998 0.0429086 0.0426719 0.0422896 0.0417616 0.0410881 0.040269 0.0393042 0.0382142 0.0370194 0.0357196 0.0343149 0.0328053 0.0311909 0.0294715 0.0276472 0.0257749 0.0239112 0.0220563 0.02021 0.0183725 0.0165437 0.0147235 0.0129121 0.0111736 0.00957215 0.00810777 0.00678046 0.00559023 0.00453706 0.00362097 0.00284195 0.00217587 0.00159859 0.00111014 0.000710487 0.000399649 0.000177622 4.44054e-05 0 0 2.32303e-05 9.29211e-05 0.000209073 0.000371685 0.000580757 0.00083629 0.00113828 0.00148674 0.00190145 0.00240223 0.00298906 0.00366195 0.0044209 0.0052659 0.00619697 0.0072141 0.00827865 0.00935198 0.0104341 0.011525 0.0126247 0.0137332 0.0148505 0.0159765 0.0170739 0.0181052 0.0190704 0.0199695 0.0208025 0.0215695 0.0222703 0.022905 0.0234669 0.0239496 0.0243528 0.0246767 0.0249212 0.0250864 0.0251722 0.0251787 0.0251317 0.0250572 0.0249552 0.0248258 0.0246688 0.0244843 0.0242723 0.0240328 0.0238055 0.0236301 0.0235065 0.0234348 0.0234149 0.0234469 0.0235308 0.0236665 0.0238773 0.0241861 0.0245931 0.0250982 0.0257015 0.0264029 0.0272025 0.0281001 0.029081 0.0301301 0.0312475 0.0324331 0.0336869 0.035009 0.0363994 0.037858 0.0393359 0.0407841 0.0422027 0.0435917 0.044951 0.0462807 0.0475807 0.0488511 0.0500381 0.0510878 0.0520004 0.0527757 0.0534138 0.0539147 0.0542784 0.0545048 0.0545706 0.0544521 0.0541495 0.0536627 0.0529916 0.0521364 0.051097 0.0498734 0.0484913 0.0469765 0.0453289 0.0435485 0.0416353 0.0395894 0.0374108 0.0350993 0.0327269 0.0303651 0.0280141 0.0256737 0.0233441 0.0210251 0.0187169 0.0164194 0.0142138 0.0121814 0.0103223 0.00863647 0.00712383 0.00578442 0.00461825 0.0036253 0.00277562 0.00203923 0.00141613 0.000906326 0.000509808 0.000226581 5.66454e-05 0 0 2.98083e-05 0.000119233 0.000268275 0.000476933 0.000745208 0.0010731 0.00146061 0.00190773 0.00243811 0.00307539 0.00381956 0.00467062 0.00562858 0.00669343 0.00786518 0.00914382 0.0104811 0.0118287 0.0131868 0.0145552 0.0159339 0.0173231 0.0187226 0.0201325 0.0215065 0.0227983 0.024008 0.0251356 0.026181 0.0271443 0.0280254 0.0288244 0.0295329 0.0301428 0.030654 0.0310664 0.0313802 0.0315954 0.0317118 0.0317295 0.0316806 0.0315969 0.0314785 0.0313253 0.0311374 0.0309147 0.0306573 0.0303652 0.0300874 0.0298728 0.0297215 0.0296335 0.0296087 0.0296473 0.0297491 0.0299142 0.0301712 0.0305487 0.0310468 0.0316655 0.0324047 0.0332645 0.0342448 0.0353457 0.0365488 0.0378358 0.0392068 0.0406616 0.0422004 0.0438231 0.0455297 0.0473202 0.0491344 0.050912 0.0526529 0.0543573 0.056025 0.0576561 0.0592506 0.0608085 0.0622634 0.0635492 0.0646658 0.0656131 0.0663913 0.0670003 0.0674401 0.0677107 0.067783 0.0676283 0.0672463 0.0666371 0.0658008 0.0647373 0.0634466 0.0619288 0.0602154 0.058338 0.0562968 0.0540917 0.0517227 0.0491897 0.0464928 0.0436321 0.0406955 0.0377713 0.0348594 0.0319599 0.0290726 0.0261978 0.0233352 0.020485 0.0177475 0.0152233 0.0129122 0.0108142 0.00892952 0.00725796 0.00579959 0.0045544 0.00348696 0.00256185 0.00177906 0.0011386 0.000640463 0.00028465 7.11625e-05 0 0 3.77663e-05 0.000151065 0.000339897 0.000604261 0.000944158 0.00135959 0.00185055 0.00241705 0.00308647 0.0038862 0.00481626 0.00587664 0.00706733 0.00838834 0.00983967 0.0114213 0.013074 0.0147386 0.016415 0.0181033 0.0198033 0.0215153 0.023239 0.0249746 0.026666 0.0282572 0.0297482 0.0311389 0.0324295 0.0336198 0.0347099 0.0356998 0.0365793 0.0373383 0.0379769 0.038495 0.0388926 0.0391698 0.0393265 0.0393626 0.039317 0.0392281 0.0390961 0.0389208 0.0387023 0.0384405 0.0381356 0.0377875 0.0374554 0.0371988 0.0370177 0.036912 0.0368817 0.0369268 0.0370474 0.0372435 0.0375497 0.0380009 0.038597 0.0393381 0.0402242 0.0412553 0.0424313 0.0437523 0.0451962 0.0467412 0.0483873 0.0501344 0.0519825 0.0539316 0.0559818 0.058133 0.0603125 0.0624477 0.0645386 0.0665852 0.0685874 0.0705453 0.0724588 0.074328 0.0760729 0.0776133 0.0789492 0.0800808 0.0810079 0.0817307 0.082249 0.0825628 0.0826372 0.082437 0.0819623 0.081213 0.0801892 0.0788908 0.0773179 0.0754704 0.0733864 0.0711041 0.0686235 0.0659446 0.0630673 0.0599917 0.0567177 0.0532454 0.0496808 0.0461297 0.0425923 0.0390684 0.0355582 0.0320615 0.0285785 0.025109 0.0217749 0.0186976 0.0158772 0.0133138 0.0110073 0.00895769 0.007165 0.00562924 0.00430988 0.00316645 0.00219892 0.00140731 0.000791612 0.000351827 8.79568e-05 0 0 4.71043e-05 0.000188417 0.000423939 0.000753669 0.00117761 0.00169576 0.00230811 0.00301468 0.00384651 0.00483468 0.00597917 0.00728 0.00873715 0.0103506 0.0121205 0.0140466 0.0160575 0.0180816 0.0201189 0.0221693 0.0242329 0.0263098 0.0283998 0.0305029 0.0325525 0.0344819 0.0362908 0.0379795 0.0395479 0.040996 0.0423237 0.0435312 0.0446061 0.0455363 0.0463217 0.0469624 0.0474584 0.0478097 0.0480162 0.048078 0.0480409 0.047951 0.047808 0.0476122 0.0473634 0.0470618 0.0467071 0.0462996 0.0459097 0.0456082 0.0453951 0.0452703 0.0452338 0.0452856 0.0454259 0.0456544 0.0460128 0.0465426 0.0472437 0.0481162 0.0491601 0.0503753 0.0517619 0.0533199 0.0550234 0.0568464 0.0587891 0.0608513 0.0630331 0.0653346 0.0677556 0.0702962 0.0728702 0.0753914 0.0778598 0.0802754 0.0826382 0.0849482 0.0872054 0.0894098 0.0914664 0.09328 0.0948508 0.0961787 0.0972637 0.0981058 0.098705 0.0990614 0.0991331 0.0988785 0.0982976 0.0973903 0.0961568 0.0945969 0.0927107 0.0904982 0.0880045 0.0852747 0.0823089 0.0791071 0.0756692 0.0719953 0.0680854 0.0639394 0.0596826 0.0554404 0.0512126 0.0469994 0.0428007 0.0386164 0.0344467 0.0302915 0.0262957 0.0226044 0.0192176 0.0161351 0.0133572 0.0108836 0.00871449 0.00684981 0.00524439 0.00385302 0.00267571 0.00171245 0.000963255 0.000428113 0.000107028 0 0 5.78223e-05 0.000231289 0.000520401 0.000925157 0.00144556 0.0020816 0.00283329 0.00370063 0.00471825 0.00592081 0.00730829 0.00888071 0.0106381 0.0125803 0.0147075 0.0170197 0.0194315 0.0218577 0.0242983 0.0267533 0.0292227 0.0317066 0.0342048 0.0367174 0.0391661 0.0414723 0.043636 0.0456574 0.0475363 0.0492728 0.0508669 0.0523186 0.0536133 0.0547365 0.0556883 0.0564687 0.0570776 0.057515 0.057781 0.0578755 0.0578524 0.0577654 0.0576144 0.0573996 0.0571209 0.0567784 0.0563719 0.0559016 0.0554503 0.055101 0.0548537 0.0547084 0.054665 0.0547237 0.0548844 0.055147 0.0555605 0.0561738 0.0569869 0.0579997 0.0592123 0.0606247 0.0622368 0.0640487 0.0660302 0.0681514 0.0704121 0.0728125 0.0753524 0.078032 0.0808511 0.0838099 0.0868074 0.0897429 0.0926164 0.0954279 0.0981774 0.100865 0.10349 0.106054 0.108444 0.110549 0.11237 0.113907 0.115159 0.116126 0.116808 0.117206 0.117271 0.116953 0.116252 0.115169 0.113704 0.111856 0.109625 0.107012 0.10407 0.10085 0.0973531 0.0935793 0.0895285 0.0852007 0.0805958 0.075714 0.0707011 0.0657033 0.0607205 0.0557528 0.0508001 0.0458625 0.0409399 0.0360323 0.0313102 0.0269438 0.0229332 0.0192783 0.0159791 0.0130357 0.010448 0.00821613 0.00629048 0.00462157 0.00320943 0.00205403 0.00115539 0.000513508 0.000128377 0 0 6.99203e-05 0.000279681 0.000629283 0.00111872 0.00174801 0.00251713 0.00342609 0.0044749 0.00570168 0.00714459 0.00880361 0.0106788 0.01277 0.0150774 0.0176009 0.0203405 0.023196 0.0260669 0.0289534 0.0318553 0.0347727 0.0377057 0.0406542 0.0436181 0.0465065 0.0492284 0.0517837 0.0541725 0.0563947 0.0584503 0.0603394 0.062062 0.0636009 0.0649392 0.0660768 0.0670138 0.0677502 0.0682859 0.0686209 0.0687553 0.0687514 0.0686713 0.0685152 0.068283 0.0679747 0.0675904 0.0671299 0.0665934 0.066077 0.0656771 0.0653935 0.0652262 0.0651754 0.065241 0.0654229 0.0657213 0.0661929 0.0668947 0.0678266 0.0689886 0.0703809 0.0720033 0.0738558 0.0759385 0.0782168 0.0806561 0.0832565 0.0860179 0.0889404 0.0920239 0.0952684 0.098674 0.102124 0.105502 0.108809 0.112043 0.115205 0.118295 0.121314 0.12426 0.127006 0.129422 0.131508 0.133265 0.134693 0.13579 0.136559 0.136997 0.13705 0.136659 0.135826 0.134549 0.132829 0.130667 0.128061 0.125012 0.121582 0.117829 0.113756 0.109361 0.104645 0.0996078 0.0942491 0.0885692 0.0827362 0.0769184 0.0711159 0.0653286 0.0595565 0.0537997 0.048058 0.0423316 0.0368182 0.0317157 0.027024 0.0227431 0.0188731 0.015414 0.0123657 0.00972819 0.00744815 0.00547211 0.00380007 0.00243205 0.00136803 0.000608012 0.000152003 0 0 8.33982e-05 0.000333593 0.000750584 0.00133437 0.00208496 0.00300234 0.00408651 0.00533749 0.00679681 0.00850603 0.0104651 0.0126742 0.0151331 0.0178419 0.0208006 0.0240092 0.027351 0.0307092 0.034084 0.0374752 0.0408829 0.0443071 0.0477478 0.051205 0.054574 0.0577503 0.060734 0.0635249 0.0661231 0.0685285 0.0707413 0.0727614 0.0745689 0.0761442 0.0774871 0.0785978 0.0794761 0.0801222 0.0805359 0.0807174 0.0807379 0.0806689 0.0805104 0.0802624 0.0799249 0.0794978 0.0789812 0.0783751 0.07779 0.0773365 0.0770144 0.0768239 0.076765 0.0768375 0.0770416 0.0773772 0.0779098 0.078705 0.0797627 0.081083 0.0826658 0.0845111 0.086619 0.0889894 0.091583 0.0943606 0.0973221 0.100468 0.103797 0.10731 0.111007 0.114889 0.11882 0.12267 0.126436 0.13012 0.133721 0.13724 0.140675 0.144028 0.147151 0.149897 0.152264 0.154254 0.155866 0.1571 0.157956 0.158435 0.158471 0.157999 0.157019 0.155531 0.153535 0.151031 0.148019 0.144499 0.140541 0.136213 0.131517 0.126453 0.121019 0.115217 0.109045 0.102505 0.0957879 0.0890858 0.0823988 0.0757268 0.0690699 0.062428 0.0558011 0.0491893 0.0428198 0.0369201 0.0314901 0.0265298 0.0220393 0.0180184 0.0144674 0.011386 0.0087174 0.00640462 0.00444765 0.0028465 0.00160115 0.000711624 0.000177906 0 0 9.82562e-05 0.000393025 0.000884306 0.0015721 0.0024564 0.00353722 0.00481455 0.0062884 0.00800363 0.0100051 0.0122929 0.0148669 0.0177272 0.0208737 0.0243065 0.0280256 0.0318965 0.0357847 0.0396902 0.0436131 0.0475533 0.0515109 0.0554858 0.059478 0.0633685 0.067038 0.0704867 0.0737145 0.0767214 0.0795074 0.0820725 0.0844168 0.0865173 0.0883515 0.0899192 0.0912206 0.0922555 0.0930239 0.093526 0.0937616 0.0938119 0.0937581 0.0936 0.0933377 0.0929713 0.0925006 0.0919258 0.0912467 0.0905893 0.0900792 0.0897166 0.0895014 0.0894337 0.0895133 0.0897403 0.0901148 0.0907114 0.0916049 0.0927954 0.0942828 0.096067 0.0981482 0.100526 0.103201 0.106129 0.109265 0.112609 0.116161 0.119922 0.123891 0.128068 0.132454 0.136896 0.141245 0.145499 0.149659 0.153726 0.157697 0.161575 0.165359 0.168881 0.171974 0.174638 0.176872 0.178678 0.180054 0.181001 0.181519 0.181533 0.180971 0.179831 0.178114 0.175819 0.172947 0.169498 0.165472 0.160947 0.156002 0.150638 0.144854 0.13865 0.132027 0.124984 0.117521 0.109856 0.102205 0.0945693 0.0869475 0.0793402 0.0717475 0.0641692 0.0566053 0.049315 0.042557 0.0363314 0.0306382 0.0254775 0.0208491 0.0167531 0.0131895 0.0100982 0.00741911 0.00515216 0.00329738 0.00185478 0.000824345 0.000206086 0 0 0.00011434 0.000457361 0.00102906 0.00182944 0.00285851 0.00411625 0.00560267 0.00731777 0.00930962 0.0116262 0.0142677 0.0172339 0.0205249 0.0241407 0.0280813 0.0323467 0.0367835 0.0412383 0.045711 0.0502017 0.0547103 0.059237 0.0637816 0.0683441 0.0727903 0.0769858 0.0809306 0.0846247 0.0880681 0.0912608 0.0942027 0.096894 0.0993086 0.101421 0.10323 0.104737 0.105941 0.106843 0.107442 0.107739 0.107824 0.107789 0.107633 0.107358 0.106962 0.106446 0.10581 0.105053 0.104319 0.103747 0.103338 0.103093 0.103011 0.103092 0.103336 0.103744 0.104399 0.105386 0.106706 0.108358 0.110341 0.112657 0.115305 0.118285 0.121548 0.125045 0.128775 0.132738 0.136935 0.141365 0.146029 0.150926 0.155886 0.160742 0.165491 0.170135 0.174673 0.179105 0.183432 0.187653 0.19158 0.195025 0.197988 0.200469 0.202468 0.203985 0.205019 0.205572 0.20556 0.204899 0.203589 0.20163 0.199023 0.195767 0.191862 0.187308 0.182194 0.176608 0.17055 0.164019 0.157016 0.149541 0.141593 0.133173 0.124524 0.115889 0.107266 0.0986577 0.0900626 0.0814809 0.0729127 0.064358 0.0561086 0.0484563 0.0414013 0.0349433 0.0290825 0.0238189 0.0191524 0.0150831 0.011548 0.00848422 0.00589182 0.00377076 0.00212106 0.000942691 0.000235673 0 0 0.000131497 0.000525986 0.00118347 0.00210394 0.00328741 0.00473388 0.00644333 0.00841578 0.0107023 0.0133538 0.0163704 0.0197521 0.0234988 0.0276106 0.0320875 0.0369295 0.0419631 0.047015 0.0520851 0.0571736 0.0622803 0.0674054 0.0725487 0.0777102 0.0827401 0.0874881 0.0919544 0.0961389 0.100042 0.103662 0.107002 0.110059 0.112805 0.115211 0.117277 0.119002 0.120387 0.121431 0.122135 0.122499 0.122624 0.122611 0.12246 0.122171 0.121745 0.121181 0.12048 0.119641 0.118821 0.118181 0.117718 0.117433 0.117326 0.117397 0.117647 0.118074 0.118774 0.119841 0.121276 0.123077 0.125245 0.127781 0.130683 0.133953 0.137536 0.141377 0.145477 0.149836 0.154454 0.159331 0.164466 0.16986 0.175325 0.180674 0.185905 0.19102 0.196018 0.200899 0.205663 0.21031 0.214631 0.218418 0.221671 0.22439 0.226573 0.228223 0.229338 0.229919 0.229872 0.229106 0.227619 0.225413 0.222487 0.21884 0.214474 0.209388 0.203679 0.197445 0.190686 0.183402 0.175593 0.167259 0.1584 0.149016 0.139375 0.129746 0.12013 0.110525 0.100932 0.091351 0.0817821 0.0722253 0.0630055 0.054448 0.0465528 0.0393199 0.0327492 0.0268408 0.0215947 0.0170108 0.0130239 0.00956859 0.00664486 0.00425271 0.00239215 0.00106318 0.000265794 0 0 0.000149725 0.0005989 0.00134753 0.0023956 0.00374313 0.0053901 0.00733653 0.00958241 0.0121815 0.0151878 0.0186011 0.0224215 0.0266489 0.0312835 0.0363251 0.0417738 0.0474352 0.0531148 0.0588127 0.0645289 0.0702634 0.0760161 0.0817871 0.0875763 0.0932177 0.0985449 0.103558 0.108257 0.112642 0.116712 0.120469 0.123912 0.127007 0.129723 0.132059 0.134015 0.135592 0.136788 0.137605 0.138042 0.138211 0.138224 0.138079 0.137779 0.137321 0.136707 0.135936 0.135008 0.134098 0.13338 0.132855 0.132521 0.132379 0.132429 0.132672 0.133106 0.133837 0.13497 0.136505 0.138441 0.140779 0.143519 0.146661 0.150204 0.154091 0.158261 0.162716 0.167456 0.17248 0.177788 0.183381 0.189258 0.195213 0.201041 0.206742 0.212315 0.21776 0.223078 0.228268 0.23333 0.238036 0.242156 0.245689 0.248635 0.250995 0.252769 0.253957 0.254558 0.254471 0.253592 0.251923 0.249462 0.246211 0.242168 0.237334 0.23171 0.2254 0.218513 0.211048 0.203004 0.194383 0.185183 0.175405 0.165049 0.154409 0.143779 0.133159 0.122548 0.111948 0.101358 0.0907776 0.0802072 0.0700057 0.060532 0.0517861 0.0437679 0.0364775 0.0299148 0.02408 0.0189729 0.0145261 0.0106722 0.00741127 0.00474321 0.00266806 0.0011858 0.000296451 0 0 0.000169026 0.000676104 0.00152123 0.00270442 0.00422565 0.00608493 0.00828227 0.0108177 0.0137475 0.0171282 0.0209597 0.025242 0.0299752 0.0351592 0.0407941 0.0468798 0.0531998 0.0595378 0.0658938 0.0722676 0.0786594 0.0850692 0.0914968 0.0979424 0.104223 0.110156 0.115741 0.120979 0.125869 0.130411 0.134605 0.138452 0.141914 0.144956 0.147577 0.149777 0.151556 0.152915 0.153852 0.154369 0.154587 0.154628 0.154492 0.154179 0.153689 0.153022 0.152177 0.151156 0.150149 0.149347 0.148749 0.148357 0.14817 0.148188 0.148411 0.148839 0.149588 0.150772 0.152393 0.15445 0.156943 0.159872 0.163237 0.167039 0.171213 0.175698 0.180492 0.185597 0.191012 0.196738 0.202773 0.209118 0.21555 0.221844 0.228 0.234019 0.239899 0.245642 0.251247 0.256715 0.261794 0.266236 0.27004 0.273205 0.275733 0.277624 0.278876 0.27949 0.279355 0.278358 0.276498 0.273777 0.270194 0.265749 0.260443 0.254274 0.247359 0.239812 0.231634 0.222824 0.213383 0.203311 0.192607 0.181272 0.169625 0.157986 0.146354 0.134729 0.123112 0.111502 0.099899 0.0883039 0.0771093 0.0667084 0.057101 0.0482874 0.0402673 0.033041 0.0266082 0.0209691 0.0160545 0.0117951 0.00819106 0.00524228 0.00294878 0.00131057 0.000327642 0 0 0.000189399 0.000757596 0.00170459 0.00303038 0.00473498 0.00681837 0.00928055 0.0121215 0.0154001 0.019175 0.0234462 0.0282138 0.0334776 0.0392379 0.0454944 0.0522473 0.059257 0.066284 0.0733282 0.0803897 0.0874685 0.0945646 0.101678 0.108809 0.115756 0.122322 0.128505 0.134305 0.139722 0.144758 0.14941 0.15368 0.157527 0.16091 0.16383 0.166287 0.16828 0.16981 0.170876 0.171479 0.171751 0.171824 0.171698 0.171373 0.170849 0.170127 0.169205 0.168085 0.166973 0.166079 0.165402 0.164942 0.164699 0.164673 0.164865 0.165273 0.166025 0.167248 0.168941 0.171103 0.173736 0.17684 0.180413 0.184456 0.188903 0.193686 0.198805 0.20426 0.210051 0.216179 0.222642 0.229442 0.236336 0.243082 0.249681 0.256133 0.262436 0.268593 0.274601 0.280463 0.285905 0.290659 0.294724 0.2981 0.300788 0.302786 0.304095 0.304716 0.304525 0.303402 0.301347 0.298359 0.294438 0.289585 0.283799 0.27708 0.269553 0.261341 0.252444 0.242863 0.232596 0.221644 0.210008 0.197686 0.185025 0.172368 0.159715 0.147066 0.134422 0.121782 0.109146 0.0965153 0.0843162 0.072977 0.0624977 0.0528783 0.0441188 0.0362192 0.0291795 0.0229996 0.0176091 0.0129373 0.00898423 0.00574991 0.00323432 0.00143748 0.000359369 0 0 0.000210844 0.000843378 0.0018976 0.00337351 0.00527111 0.0075904 0.0103314 0.013494 0.0171393 0.0213282 0.0260607 0.0313367 0.0371563 0.0435194 0.0504262 0.0578765 0.0656067 0.0733533 0.0811161 0.0888952 0.0966906 0.104502 0.11233 0.120175 0.127818 0.135042 0.141848 0.148235 0.154203 0.159753 0.164883 0.169596 0.173845 0.177586 0.180819 0.183545 0.185764 0.187474 0.188677 0.189373 0.189703 0.189811 0.189697 0.189361 0.188802 0.188022 0.187019 0.185793 0.184571 0.183577 0.182812 0.182274 0.181966 0.181885 0.182033 0.182409 0.183151 0.184397 0.186147 0.188401 0.19116 0.194422 0.198188 0.202458 0.207161 0.212226 0.217654 0.223444 0.229597 0.236112 0.242989 0.250228 0.257571 0.264756 0.271785 0.278656 0.285371 0.291929 0.29833 0.304574 0.31037 0.315426 0.319743 0.32332 0.326158 0.328256 0.329615 0.330234 0.329981 0.328726 0.326468 0.323206 0.318942 0.313674 0.307403 0.30013 0.291985 0.283102 0.27348 0.263119 0.25202 0.240182 0.227606 0.214291 0.200607 0.186924 0.173242 0.15956 0.145879 0.132199 0.11852 0.104841 0.0916264 0.079338 0.0679762 0.0575408 0.0480319 0.0394496 0.0317937 0.0250644 0.0191899 0.0140987 0.00979077 0.00626609 0.00352468 0.00156652 0.000391631 0 0 0.000233362 0.000933448 0.00210026 0.00373379 0.00583405 0.00840103 0.0114347 0.0149352 0.0189652 0.0235879 0.028803 0.0346108 0.0410111 0.0480039 0.0555893 0.0637673 0.072249 0.0807457 0.0892574 0.0977841 0.106326 0.114882 0.123454 0.132041 0.140407 0.148317 0.155771 0.162768 0.16931 0.175396 0.181025 0.186199 0.190868 0.194983 0.198544 0.201552 0.204007 0.205908 0.207255 0.208049 0.208443 0.20859 0.20849 0.208142 0.207548 0.206706 0.205618 0.204283 0.202943 0.201842 0.200979 0.200356 0.19997 0.199823 0.199915 0.200246 0.200964 0.20222 0.204013 0.206344 0.209213 0.212618 0.216562 0.221042 0.225986 0.231319 0.23704 0.24315 0.249649 0.256536 0.263813 0.271478 0.279254 0.286865 0.29431 0.301589 0.308703 0.315651 0.322433 0.329049 0.335187 0.340536 0.345095 0.348865 0.351844 0.354034 0.355434 0.356045 0.355724 0.354329 0.351861 0.34832 0.343705 0.338017 0.331256 0.323421 0.314653 0.305093 0.29474 0.283594 0.271656 0.258925 0.245402 0.231086 0.216372 0.201655 0.186934 0.172211 0.157483 0.142753 0.128019 0.113282 0.0990399 0.0857914 0.0735363 0.0622747 0.0520066 0.042732 0.03445