<?xml version="1.0"?> 
<VTKFile type="StructuredGrid" version="0.1"> 
<StructuredGrid WholeExtent="0 128 0 128 0 0"> 
<Piece Extent="0 128 0 128 0 0"> 
<PointData>
<DataArray type="Float32" Name="u" format="ascii" NumberOfComponents="1"> 
0 0 0 0 0 0 0 0 0 0 0 0 0 0 0 0 0 0 0 0 0 0 0 0 0 0 0 0 0 0 0 0 0 0 0 0 0 0 0 0 0 0 0 0 0 0 0 0 0 0 0 0 0 0 0 0 0 0 0 0 0 0 0 0 0 0 0 0 0 0 0 0 0 0 0 0 0 0 0 0 0 0 0 0 0 0 0 0 0 0 0 0 0 0 0 0 0 0 0 0 0 0 0 0 0 0 0 0 0 0 0 0 0 0 0 0 0 0 0 0 0 0 0 0 0 0 0 0 0 0 2.4475e-07 9.79e-07 2.20275e-06 3.916e-06 6.11875e-06 8.811e-06 1.19927e-05 1.5664e-05 2.00208e-05 2.52594e-05 3.13797e-05 3.83816e-05 4.62653e-05 5.50307e-05 6.46777e-05 7.52065e-05 8.62675e-05 9.75111e-05 0.000108937 0.000120546 0.000132338 0.000144312 0.000156469 0.000168808 0.000181014 0.000192772 0.000204081 0.000214941 0.000225353 0.000235316 0.00024483 0.000253896 0.000262443 0.000270403 0.000277775 0.00028456 0.000290757 0.000296366 0.000301388 0.000305822 0.000309818 0.000313527 0.000316947 0.00032008 0.000322926 0.000325483 0.000327753 0.000329734 0.000331657 0.00033375 0.000336012 0.000338444 0.000341046 0.000343817 0.000346759 0.00034987 0.000353275 0.000357099 0.000361341 0.000366001 0.000371081 0.000376578 0.000382495 0.00038883 0.000395484 0.000402359 0.000409454 0.00041677 0.000424307 0.000432064 0.000440042 0.00044824 0.000456362 0.000464108 0.00047148 0.000478477 0.000485099 0.000491347 0.00049722 0.000502718 0.000507511 0.000511268 0.00051399 0.000515675 0.000516324 0.000515938 0.000514515 0.000512057 0.000508416 0.000503446 0.000497148 0.00048952 0.000480564 0.000470278 0.000458664 0.000445721 0.000431638 0.000416606 0.000400623 0.00038369 0.000365807 0.000346974 0.000327191 0.000306457 0.000285332 0.000264373 0.000243581 0.000222955 0.000202496 0.000182203 0.000162077 0.000142117 0.000122993 0.000105376 8.92652e-05 7.46606e-05 6.15622e-05 4.99702e-05 3.98845e-05 3.13051e-05 2.39679e-05 1.76091e-05 1.22285e-05 7.82627e-06 4.40228e-06 1.95657e-06 4.89142e-07 0 0 9.79e-07 3.916e-06 8.811e-06 1.5664e-05 2.4475e-05 3.5244e-05 4.7971e-05 6.2656e-05 8.00834e-05 0.000101038 0.000125519 0.000153526 0.000185061 0.000220123 0.000258711 0.000300826 0.00034507 0.000390044 0.000435749 0.000482185 0.000529351 0.000577247 0.000625874 0.000675232 0.000724057 0.000771088 0.000816324 0.000859766 0.000901412 0.000941264 0.000979321 0.00101558 0.00104977 0.00108161 0.0011111 0.00113824 0.00116303 0.00118546 0.00120555 0.00122329 0.00123927 0.00125411 0.00126779 0.00128032 0.0012917 0.00130193 0.00131101 0.00131894 0.00132663 0.001335 0.00134405 0.00135378 0.00136418 0.00137527 0.00138703 0.00139948 0.0014131 0.00142839 0.00144536 0.00146401 0.00148432 0.00150631 0.00152998 0.00155532 0.00158194 0.00160944 0.00163782 0.00166708 0.00169723 0.00172826 0.00176017 0.00179296 0.00182545 0.00185643 0.00188592 0.00191391 0.0019404 0.00196539 0.00198888 0.00201087 0.00203005 0.00204507 0.00205596 0.0020627 0.0020653 0.00206375 0.00205806 0.00204823 0.00203366 0.00201378 0.00198859 0.00195808 0.00192225 0.00188111 0.00183466 0.00178288 0.00172655 0.00166642 0.00160249 0.00153476 0.00146323 0.0013879 0.00130876 0.00122583 0.00114133 0.00105749 0.000974325 0.000891822 0.000809984 0.000728813 0.000648307 0.000568468 0.000491974 0.000421505 0.000357061 0.000298642 0.000246249 0.000199881 0.000159538 0.00012522 9.58718e-05 7.04364e-05 4.89142e-05 3.13051e-05 1.76091e-05 7.82627e-06 1.95657e-06 0 0 2.20275e-06 8.811e-06 1.98247e-05 3.5244e-05 5.50687e-05 7.9299e-05 0.000107935 0.000140976 0.000180188 0.000227335 0.000282417 0.000345435 0.000416388 0.000495276 0.0005821 0.000676859 0.000776407 0.0008776 0.000980436 0.00108492 0.00119104 0.00129881 0.00140822 0.00151927 0.00162913 0.00173495 0.00183673 0.00193447 0.00202818 0.00211784 0.00220347 0.00228506 0.00236199 0.00243363 0.00249998 0.00256104 0.00261681 0.0026673 0.00271249 0.0027524 0.00278836 0.00282174 0.00285253 0.00288072 0.00290633 0.00292935 0.00294977 0.00296761 0.00298492 0.00300375 0.00302411 0.003046 0.00306941 0.00309436 0.00312083 0.00314883 0.00317947 0.00321389 0.00325207 0.00329401 0.00333973 0.00338921 0.00344245 0.00349947 0.00355936 0.00362123 0.00368509 0.00375093 0.00381876 0.00388858 0.00396038 0.00403416 0.00410725 0.00417697 0.00424332 0.00430629 0.00436589 0.00442212 0.00447498 0.00452447 0.0045676 0.00460142 0.00462591 0.00464107 0.00464692 0.00464344 0.00463064 0.00460851 0.00457574 0.00453102 0.00447433 0.00440568 0.00432507 0.00423251 0.00412798 0.00401149 0.00388475 0.00374945 0.00360561 0.00345321 0.00329226 0.00312276 0.00294472 0.00275812 0.00256799 0.00237936 0.00219223 0.0020066 0.00182246 0.00163983 0.00145869 0.00127905 0.00110694 0.000948385 0.000803387 0.000671945 0.00055406 0.000449732 0.00035896 0.000281746 0.000215712 0.000158482 0.000110057 7.04364e-05 3.96205e-05 1.76091e-05 4.40228e-06 0 0 3.916e-06 1.5664e-05 3.5244e-05 6.2656e-05 9.79e-05 0.000140976 0.000191884 0.000250624 0.000320333 0.00040415 0.000502075 0.000614106 0.000740245 0.000880491 0.00103484 0.0012033 0.00138028 0.00156018 0.001743 0.00192874 0.0021174 0.00230899 0.0025035 0.00270093 0.00289623 0.00308435 0.0032653 0.00343906 0.00360565 0.00376506 0.00391728 0.00406233 0.00419909 0.00432645 0.00444441 0.00455296 0.00465211 0.00474186 0.00482221 0.00489315 0.00495709 0.00501643 0.00507116 0.00512129 0.00516681 0.00520773 0.00524404 0.00527575 0.00530652 0.00534 0.00537619 0.00541511 0.00545673 0.00550108 0.00554814 0.00559792 0.0056524 0.00571358 0.00578145 0.00585602 0.00593729 0.00602526 0.00611992 0.00622127 0.00632774 0.00643774 0.00655127 0.00666833 0.00678891 0.00691303 0.00704067 0.00717184 0.00730178 0.00742573 0.00754368 0.00765563 0.00776159 0.00786155 0.00795552 0.00804349 0.00812018 0.00818029 0.00822383 0.0082508 0.00826119 0.008255 0.00823224 0.00819291 0.00813465 0.00805514 0.00795436 0.00783232 0.00768902 0.00752445 0.00733863 0.00713154 0.00690621 0.00666569 0.00640997 0.00613904 0.00585291 0.00555158 0.00523505 0.00490332 0.00456531 0.00422997 0.0038973 0.00356729 0.00323994 0.00291525 0.00259323 0.00227387 0.00196789 0.00168602 0.00142824 0.00119457 0.000984996 0.000799523 0.000638152 0.000500881 0.000383487 0.000281746 0.000195657 0.00012522 7.04364e-05 3.13051e-05 7.82627e-06 0 0 6.11875e-06 2.4475e-05 5.50687e-05 9.79e-05 0.000152969 0.000220275 0.000299819 0.0003916 0.000500521 0.000631485 0.000784491 0.000959541 0.00115663 0.00137577 0.00161694 0.00188016 0.00215669 0.00243778 0.00272343 0.00301365 0.00330844 0.00360779 0.00391171 0.0042202 0.00452536 0.0048193 0.00510203 0.00537353 0.00563383 0.0058829 0.00612076 0.0063474 0.00656108 0.00676008 0.00694438 0.007114 0.00726892 0.00740915 0.0075347 0.00764555 0.00774545 0.00783817 0.00792369 0.00800201 0.00807314 0.00813708 0.00819382 0.00824336 0.00829143 0.00834375 0.0084003 0.0084611 0.00852615 0.00859544 0.00866897 0.00874674 0.00883187 0.00892746 0.00903352 0.00915004 0.00927702 0.00941446 0.00956237 0.00972074 0.0098871 0.010059 0.0102364 0.0104193 0.0106077 0.0108016 0.011001 0.011206 0.011409 0.0116027 0.011787 0.0119619 0.0121275 0.0122837 0.0124305 0.012568 0.0126878 0.0127817 0.0128497 0.0128919 0.0129081 0.0128984 0.0128629 0.0128014 0.0127104 0.0125862 0.0124287 0.012238 0.0120141 0.011757 0.0114666 0.011143 0.010791 0.0104151 0.0100156 0.00959225 0.00914517 0.00867435 0.00817976 0.00766143 0.0071333 0.00660934 0.00608953 0.00557389 0.0050624 0.00455508 0.00405192 0.00355292 0.00307483 0.0026344 0.00223163 0.00186651 0.00153906 0.00124926 0.000997112 0.000782627 0.000599199 0.000440228 0.000305714 0.000195657 0.000110057 4.89142e-05 1.22285e-05 0 0 8.811e-06 3.5244e-05 7.9299e-05 0.000140976 0.000220275 0.000317196 0.000431739 0.000563904 0.00072075 0.000909338 0.00112967 0.00138174 0.00166555 0.0019811 0.0023284 0.00270744 0.00310563 0.0035104 0.00392174 0.00433966 0.00476416 0.00519522 0.00563287 0.00607709 0.00651652 0.00693979 0.00734692 0.00773789 0.00811271 0.00847138 0.00881389 0.00914025 0.00944796 0.00973452 0.00999991 0.0102442 0.0104672 0.0106692 0.01085 0.0110096 0.0111535 0.011287 0.0114101 0.0115229 0.0116253 0.0117174 0.0117991 0.0118704 0.0119397 0.012015 0.0120964 0.012184 0.0122777 0.0123774 0.0124833 0.0125953 0.0127179 0.0128555 0.0130083 0.0131761 0.0133589 0.0135568 0.0137698 0.0139979 0.0142374 0.0144849 0.0147404 0.0150037 0.0152751 0.0155543 0.0158415 0.0161366 0.016429 0.0167079 0.0169733 0.0172252 0.0174636 0.0176885 0.0178999 0.0180979 0.0182704 0.0184057 0.0185036 0.0185643 0.0185877 0.0185738 0.0185225 0.018434 0.018303 0.0181241 0.0178973 0.0176227 0.0173003 0.01693 0.0165119 0.016046 0.015539 0.0149978 0.0144224 0.0138128 0.0131691 0.0124911 0.0117789 0.0110325 0.010272 0.00951744 0.00876892 0.00802639 0.00728986 0.00655932 0.00583477 0.00511621 0.00442776 0.00379354 0.00321355 0.00268778 0.00221624 0.00179893 0.00143584 0.00112698 0.000862846 0.000633928 0.000440228 0.000281746 0.000158482 7.04364e-05 1.76091e-05 0 0 1.19927e-05 4.7971e-05 0.000107935 0.000191884 0.000299819 0.000431739 0.000587644 0.000767536 0.000981021 0.00123771 0.0015376 0.0018807 0.002267 0.0026965 0.00316921 0.00368512 0.00422711 0.00477804 0.00533793 0.00590676 0.00648455 0.00707128 0.00766696 0.00827159 0.0088697 0.00944583 0.00999997 0.0105321 0.0110423 0.0115305 0.0119967 0.0124409 0.0128597 0.0132498 0.013611 0.0139434 0.0142471 0.0145219 0.014768 0.0149853 0.0151811 0.0153628 0.0155304 0.0156839 0.0158234 0.0159487 0.0160599 0.016157 0.0162512 0.0163537 0.0164646 0.0165838 0.0167113 0.0168471 0.0169912 0.0171436 0.0173105 0.0174978 0.0177057 0.0179341 0.018183 0.0184523 0.0187422 0.0190526 0.0193787 0.0197156 0.0200633 0.0204217 0.020791 0.0211711 0.0215621 0.0219638 0.0223617 0.0227413 0.0231025 0.0234454 0.0237699 0.024076 0.0243638 0.0246332 0.0248681 0.0250522 0.0251855 0.0252681 0.0252999 0.0252809 0.0252112 0.0250908 0.0249124 0.0246689 0.0243602 0.0239865 0.0235476 0.0230436 0.0224745 0.0218403 0.0211503 0.0204137 0.0196305 0.0188008 0.0179245 0.0170017 0.0160323 0.0150164 0.0139813 0.0129543 0.0119355 0.0109248 0.00992231 0.00892796 0.00794177 0.00696373 0.00602668 0.00516343 0.004374 0.00365837 0.00301655 0.00244854 0.00195434 0.00153395 0.00117443 0.000862846 0.000599199 0.000383487 0.000215712 9.58718e-05 2.39679e-05 0 0 1.5664e-05 6.2656e-05 0.000140976 0.000250624 0.0003916 0.000563904 0.000767536 0.0010025 0.00128133 0.0016166 0.0020083 0.00245642 0.00296098 0.00352196 0.00413938 0.00481322 0.00552112 0.00624071 0.00697199 0.00771495 0.00846961 0.00923595 0.010014 0.0108037 0.0115849 0.0123374 0.0130612 0.0137562 0.0144226 0.0150602 0.0156691 0.0162493 0.0167964 0.0173058 0.0177776 0.0182118 0.0186084 0.0189674 0.0192888 0.0195726 0.0198284 0.0200657 0.0202846 0.0204851 0.0206672 0.0208309 0.0209762 0.021103 0.0212261 0.02136 0.0215048 0.0216604 0.0218269 0.0220043 0.0221926 0.0223917 0.0226096 0.0228543 0.0231258 0.0234241 0.0237492 0.024101 0.0244797 0.0248851 0.025311 0.025751 0.0262051 0.0266733 0.0271556 0.0276521 0.0281627 0.0286874 0.0292071 0.0297029 0.0301747 0.0306225 0.0310464 0.0314462 0.0318221 0.032174 0.0324807 0.0327212 0.0328953 0.0330032 0.0330447 0.03302 0.032929 0.0327716 0.0325386 0.0322206 0.0318174 0.0313293 0.0307561 0.0300978 0.0293545 0.0285261 0.0276249 0.0266628 0.0256399 0.0245562 0.0234116 0.0222063 0.0209402 0.0196133 0.0182613 0.0169199 0.0155892 0.0142691 0.0129597 0.011661 0.0103729 0.00909548 0.00787158 0.00674407 0.00571297 0.00477828 0.00393998 0.00319809 0.00255261 0.00200352 0.00153395 0.00112698 0.000782627 0.000500881 0.000281746 0.00012522 3.13051e-05 0 0 2.00924e-05 8.03694e-05 0.000180831 0.000321478 0.000502309 0.000723325 0.000984525 0.00128591 0.00164316 0.00207194 0.00257226 0.00314411 0.0037875 0.00450243 0.00528889 0.00614689 0.00704802 0.00796387 0.00889446 0.00983977 0.0107998 0.0117746 0.0127641 0.0137683 0.0147617 0.0157187 0.0166393 0.0175234 0.0183712 0.0191827 0.0199577 0.0206963 0.0213928 0.0220416 0.0226428 0.0231961 0.0237018 0.0241597 0.02457 0.0249325 0.0252594 0.0255627 0.0258426 0.0260991 0.026332 0.0265414 0.0267273 0.0268898 0.0270472 0.0272182 0.0274028 0.0276009 0.0278125 0.0280377 0.0282764 0.0285287 0.0288046 0.0291142 0.0294575 0.0298346 0.0302453 0.0306898 0.0311679 0.0316798 0.0322174 0.0327727 0.0333457 0.0339365 0.034545 0.0351712 0.0358151 0.0364767 0.037132 0.0377568 0.0383512 0.0389152 0.0394487 0.0399518 0.0404245 0.0408667 0.0412517 0.0415528 0.04177 0.0419033 0.0419527 0.0419181 0.0417996 0.0415972 0.041299 0.0408933 0.0403799 0.039759 0.0390304 0.0381943 0.0372506 0.0361993 0.0350557 0.0338353 0.0325379 0.0311637 0.0297126 0.0281845 0.0265796 0.0248978 0.0231842 0.021484 0.0197971 0.0181236 0.0164634 0.0148165 0.013183 0.0115629 0.0100103 0.00857965 0.00727081 0.00608383 0.00501871 0.00407545 0.00325404 0.00255449 0.00195578 0.0014369 0.000997847 0.000638622 0.000359225 0.000159656 3.99139e-05 0 0 2.55455e-05 0.000102182 0.000229909 0.000408727 0.000638636 0.000919636 0.00125173 0.00163491 0.00208796 0.00262965 0.00325998 0.00397896 0.00478657 0.00568283 0.00666774 0.00774128 0.00886815 0.010013 0.0111759 0.0123567 0.0135556 0.0147725 0.0160073 0.0172602 0.0184995 0.0196937 0.0208429 0.0219469 0.0230059 0.0240198 0.0249886 0.0259124 0.026784 0.0275963 0.0283493 0.0290431 0.0296777 0.030253 0.030769 0.0312257 0.0316381 0.032021 0.0323744 0.0326982 0.0329926 0.0332574 0.0334927 0.0336985 0.0338976 0.0341129 0.0343443 0.0345919 0.0348557 0.0351356 0.0354317 0.0357439 0.0360847 0.0364667 0.0368897 0.0373539 0.0378591 0.0384054 0.0389929 0.0396214 0.0402812 0.0409624 0.0416652 0.0423894 0.0431351 0.0439022 0.0446909 0.045501 0.0463029 0.047067 0.0477933 0.0484818 0.0491325 0.0497454 0.0503205 0.0508578 0.0513244 0.0516873 0.0519465 0.0521021 0.0521541 0.0521024 0.0519471 0.0516881 0.0513109 0.0508011 0.0501586 0.0493833 0.0484754 0.0474348 0.0462615 0.0449555 0.0435358 0.0420213 0.0404121 0.0387082 0.0369095 0.035016 0.0330278 0.0309448 0.0288226 0.0267164 0.0246263 0.0225523 0.0204944 0.0184526 0.016427 0.0144174 0.0124908 0.0107143 0.00908785 0.00761137 0.00628491 0.00510846 0.00408204 0.00320562 0.0024543 0.00180316 0.0012522 0.000801406 0.000450791 0.000200351 5.00878e-05 0 0 3.20233e-05 0.000128093 0.00028821 0.000512372 0.000800582 0.00115284 0.00156914 0.00204949 0.00261574 0.00328973 0.00407147 0.00496096 0.0059582 0.00706319 0.00827592 0.00959641 0.0109815 0.0123881 0.0138162 0.0152659 0.016737 0.0182296 0.0197437 0.0212793 0.0227983 0.0242626 0.025672 0.0270267 0.0283266 0.0295717 0.0307621 0.0318977 0.0329698 0.0339697 0.0348973 0.0357528 0.036536 0.0372471 0.0378859 0.0384525 0.0389647 0.0394405 0.0398798 0.0402826 0.040649 0.0409789 0.0412723 0.0415292 0.0417773 0.042044 0.0423295 0.0426337 0.0429565 0.0432981 0.0436583 0.0440373 0.0444501 0.0449118 0.0454225 0.0459821 0.0465906 0.0472481 0.0479545 0.0487098 0.0495023 0.0503202 0.0511634 0.052032 0.052926 0.0538454 0.0547901 0.0557602 0.0567199 0.0576336 0.0585011 0.0593226 0.0600979 0.0608271 0.0615103 0.0621473 0.0626986 0.0631244 0.0634247 0.0635996 0.063649 0.0635729 0.0633713 0.0630443 0.0625743 0.061944 0.0611534 0.0602024 0.0590911 0.0578194 0.0563873 0.0547949 0.0530652 0.051221 0.0492625 0.0471896 0.0450024 0.0427007 0.0402847 0.0377543 0.0351762 0.032617 0.0300767 0.0275553 0.0250529 0.0225693 0.0201047 0.0176589 0.0153131 0.0131481 0.0111641 0.00936089 0.00773857 0.00629714 0.00503659 0.00395692 0.00302952 0.00222577 0.00154567 0.000989231 0.000556442 0.000247308 6.18269e-05 0 0 3.95258e-05 0.000158103 0.000355733 0.000632413 0.000988146 0.00142293 0.00193677 0.00252965 0.00322649 0.00405219 0.00500673 0.00609013 0.00730238 0.00864349 0.0101134 0.0117123 0.0133881 0.0150892 0.0168155 0.0185671 0.0203439 0.022146 0.0239733 0.0258258 0.0276582 0.0294252 0.0311267 0.0327627 0.0343333 0.0358384 0.037278 0.0386522 0.0399503 0.0411619 0.0422868 0.0433252 0.0442769 0.0451421 0.0459206 0.0466126 0.0472391 0.0478212 0.0483589 0.0488523 0.0493012 0.0497059 0.0500661 0.0503819 0.0506862 0.0510116 0.0513582 0.051726 0.052115 0.0525251 0.0529564 0.0534089 0.0539006 0.0544495 0.0550557 0.0557191 0.0564397 0.0572176 0.0580528 0.0589451 0.0598808 0.0608459 0.0618404 0.0628644 0.0639178 0.0650005 0.0661128 0.0672544 0.0683831 0.0694564 0.0704745 0.0714373 0.0723448 0.0731969 0.0739938 0.0747353 0.0753745 0.0758643 0.0762047 0.0763957 0.0764373 0.0763296 0.0760724 0.0756658 0.0750892 0.0743221 0.0733644 0.0722162 0.0708773 0.069348 0.067628 0.0657175 0.0636438 0.0614343 0.0590891 0.0566081 0.0539913 0.0512387 0.0483504 0.0453263 0.0422452 0.0391859 0.0361484 0.0331326 0.0301387 0.0271665 0.0242162 0.0212876 0.0184771 0.0158811 0.0134995 0.0113324 0.00937971 0.00764149 0.00611771 0.00480839 0.00368142 0.00270472 0.00187828 0.0012021 0.00067618 0.000300524 7.51311e-05 0 0 4.80531e-05 0.000192213 0.000432478 0.00076885 0.00120133 0.00172991 0.0023546 0.0030754 0.00392023 0.00491702 0.00606576 0.00736646 0.00881912 0.0104237 0.0121803 0.0140888 0.0160879 0.0181163 0.0201738 0.0222605 0.0243765 0.0265217 0.028696 0.0308996 0.0330792 0.0351816 0.0372069 0.039155 0.041026 0.0428198 0.0445364 0.0461759 0.0477255 0.0491728 0.0505177 0.0517602 0.0529003 0.053938 0.0548733 0.0557061 0.0564612 0.0571631 0.0578117 0.0584072 0.0589494 0.0594384 0.0598741 0.0602567 0.0606244 0.0610157 0.0614306 0.0618691 0.0623311 0.0628167 0.0633259 0.0638587 0.0644363 0.0650799 0.0657894 0.066565 0.0674066 0.0683142 0.0692877 0.0703273 0.0714167 0.0725396 0.0736962 0.0748865 0.0761103 0.0773678 0.0786588 0.0799835 0.0812923 0.0825356 0.0837136 0.084826 0.0858731 0.0868547 0.0877709 0.0886217 0.089352 0.089907 0.0902865 0.0904905 0.0905192 0.0903724 0.0900502 0.0895526 0.0888557 0.0879353 0.0867917 0.0854246 0.0838343 0.0820206 0.0799836 0.0777232 0.0752717 0.0726612 0.0698918 0.0669635 0.0638762 0.06063 0.0572248 0.0536607 0.0500295 0.046423 0.0428413 0.0392842 0.0357519 0.0322443 0.0287614 0.0253033 0.0219828 0.0189131 0.0160941 0.0135258 0.0112083 0.00914149 0.00732539 0.00576003 0.00441002 0.00324001 0.00225001 0.00144001 0.000810004 0.000360002 9.00004e-05 0 0 5.76052e-05 0.000230421 0.000518446 0.000921683 0.00144013 0.00207379 0.00282265 0.00368673 0.00469694 0.00588422 0.00724855 0.00878995 0.0105084 0.0124039 0.0144765 0.0167261 0.019081 0.0214693 0.023891 0.0263461 0.0288346 0.0313566 0.0339119 0.0365007 0.0390612 0.0415319 0.0439127 0.0462036 0.0484047 0.0505159 0.0525372 0.0544687 0.0562955 0.0580026 0.0595901 0.0610579 0.0624062 0.0636348 0.0647438 0.0657331 0.0666312 0.0674662 0.0682383 0.0689473 0.0695933 0.0701763 0.0706964 0.0711534 0.0715918 0.0720562 0.0725465 0.0730627 0.0736048 0.0741729 0.0747669 0.0753867 0.0760572 0.0768028 0.0776237 0.0785198 0.0794911 0.0805376 0.0816594 0.0828563 0.0841099 0.0854014 0.0867308 0.0880983 0.0895037 0.090947 0.0924283 0.0939476 0.0954476 0.0968712 0.0982182 0.0994888 0.100683 0.101801 0.102842 0.103806 0.104631 0.105252 0.10567 0.105884 0.105895 0.105701 0.105305 0.104705 0.103874 0.102784 0.101435 0.0998278 0.0979619 0.0958373 0.093454 0.090812 0.0879488 0.0849017 0.0816707 0.0782558 0.0746571 0.0708745 0.066908 0.0627576 0.0585292 0.0543285 0.0501554 0.0460101 0.0418925 0.0378027 0.0337405 0.029706 0.0258303 0.0222443 0.0189479 0.0159413 0.0132244 0.0107972 0.00865964 0.00681183 0.00521531 0.00383165 0.00266087 0.00170296 0.000957914 0.000425739 0.000106435 0 0 6.81819e-05 0.000272728 0.000613637 0.00109091 0.00170455 0.00245455 0.00334091 0.00436364 0.00555664 0.00695379 0.00855511 0.0103606 0.0123702 0.0145841 0.017002 0.0196242 0.0223673 0.0251483 0.0279672 0.0308238 0.0337184 0.0366508 0.039621 0.0426291 0.0456043 0.0484759 0.051244 0.0539085 0.0564694 0.0589268 0.0612806 0.0635308 0.0656601 0.0676511 0.0695038 0.0712183 0.0727945 0.0742325 0.0755321 0.0766935 0.0777489 0.0787306 0.0796385 0.0804727 0.0812331 0.0819199 0.0825328 0.0830721 0.0835885 0.0841332 0.084706 0.085307 0.0859362 0.0865936 0.0872792 0.0879929 0.0887632 0.0896184 0.0905585 0.0915834 0.0926933 0.093888 0.0951677 0.0965322 0.0979604 0.0994311 0.100944 0.1025 0.104098 0.105738 0.107421 0.109147 0.110849 0.112463 0.113989 0.115426 0.116774 0.118035 0.119206 0.12029 0.121212 0.1219 0.122355 0.122576 0.122563 0.122317 0.121836 0.121122 0.120143 0.118867 0.117295 0.115426 0.11326 0.110798 0.108039 0.104984 0.101675 0.0981558 0.0944257 0.0904852 0.086334 0.0819722 0.0773999 0.072617 0.0677442 0.0629021 0.0580909 0.0533103 0.0485606 0.0438416 0.0391534 0.0344959 0.0300195 0.0258745 0.0220609 0.0185787 0.0154279 0.0126085 0.0101204 0.0079638 0.00609728 0.00447964 0.00311086 0.00199095 0.00111991 0.000497738 0.000124434 0 0 7.97834e-05 0.000319134 0.000718051 0.00127653 0.00199459 0.0028722 0.00390939 0.00510614 0.00649931 0.00812574 0.00998544 0.0120784 0.0144046 0.0169641 0.0197569 0.0227829 0.0259469 0.0291533 0.0324023 0.0356937 0.0390277 0.0424042 0.0458232 0.0492847 0.0527084 0.0560137 0.0592008 0.0622696 0.0652201 0.0680524 0.0707663 0.073362 0.0758194 0.0781184 0.0802591 0.0822414 0.0840654 0.0857311 0.0872384 0.0885874 0.0898145 0.0909562 0.0920124 0.0929833 0.0938688 0.0946689 0.0953835 0.0960128 0.0966145 0.0972466 0.0979091 0.098602 0.0993253 0.100079 0.100863 0.101677 0.102554 0.103527 0.104594 0.105756 0.107013 0.108365 0.109813 0.111355 0.112968 0.114629 0.116336 0.118091 0.119893 0.121742 0.123638 0.125581 0.127497 0.129311 0.131025 0.132637 0.134147 0.135557 0.136865 0.138071 0.139094 0.139851 0.140342 0.140567 0.140526 0.140218 0.139645 0.138805 0.137664 0.136186 0.13437 0.132218 0.129729 0.126903 0.123739 0.120239 0.116451 0.112423 0.108157 0.103651 0.0989069 0.0939233 0.0887006 0.0832389 0.0776745 0.0721441 0.0666475 0.0611848 0.055756 0.0503611 0.045 0.0396728 0.0345505 0.0298039 0.0254331 0.0214381 0.0178189 0.0145755 0.0117078 0.00921594 0.00705595 0.00518397 0.00359998 0.00230398 0.00129599 0.000575996 0.000143999 0 0 9.22122e-05 0.000368849 0.00082991 0.00147539 0.0023053 0.00331964 0.0045184 0.00590158 0.00750894 0.00938023 0.0115154 0.0139146 0.0165777 0.0195047 0.0226956 0.0261505 0.029761 0.0334187 0.0371238 0.0408761 0.0446758 0.0485227 0.0524169 0.0563584 0.0602567 0.0640211 0.0676518 0.0711487 0.0745119 0.0777413 0.0808368 0.0837987 0.0866038 0.0892294 0.0916754 0.0939419 0.0960289 0.0979362 0.0996641 0.101212 0.102622 0.103933 0.105147 0.106262 0.10728 0.108199 0.109021 0.109745 0.110435 0.111158 0.111913 0.1127 0.11352 0.114371 0.115255 0.116171 0.117156 0.118246 0.119441 0.120741 0.122147 0.123657 0.125273 0.126994 0.128794 0.130645 0.132548 0.134503 0.136509 0.138567 0.140677 0.142839 0.144969 0.146984 0.148885 0.150672 0.152343 0.1539 0.155343 0.15667 0.157791 0.158612 0.159134 0.159357 0.15928 0.158903 0.158227 0.157252 0.155938 0.154245 0.152173 0.149723 0.146894 0.143686 0.1401 0.136135 0.131846 0.127289 0.122464 0.11737 0.112007 0.106377 0.100478 0.0943104 0.0880273 0.0817811 0.0755719 0.0693997 0.0632645 0.0571663 0.051105 0.0450807 0.0392857 0.0339125 0.0289609 0.0244311 0.0203229 0.0166365 0.0133718 0.0105287 0.00806105 0.00592241 0.00411278 0.00263218 0.0014806 0.000658045 0.000164511 0 0 0.000105271 0.000421083 0.000947438 0.00168433 0.00263177 0.00378975 0.00515827 0.00673733 0.00856952 0.0106974 0.0131211 0.0158404 0.0188555 0.0221662 0.0257727 0.0296749 0.033751 0.0378791 0.0420593 0.0462915 0.0505757 0.054912 0.0593004 0.0637407 0.0681322 0.0723738 0.0764656 0.0804075 0.0841996 0.0878419 0.0913343 0.0946769 0.0978437 0.100809 0.103573 0.106135 0.108495 0.110654 0.112611 0.114366 0.115965 0.117453 0.118829 0.120093 0.121246 0.122288 0.123218 0.124036 0.124816 0.125629 0.126475 0.127355 0.128267 0.129214 0.130193 0.131206 0.132293 0.133495 0.134811 0.136243 0.13779 0.139451 0.141228 0.143119 0.145096 0.14713 0.149219 0.151365 0.153567 0.155825 0.158139 0.16051 0.162845 0.165052 0.16713 0.169081 0.170904 0.172599 0.174166 0.175606 0.176814 0.177691 0.178234 0.178445 0.178323 0.177869 0.177082 0.175963 0.174467 0.17255 0.170214 0.167457 0.16428 0.160683 0.156665 0.152228 0.147431 0.142337 0.136945 0.131255 0.125267 0.118982 0.112399 0.105519 0.0985095 0.0915401 0.0846107 0.0777213 0.0708718 0.0640624 0.0572929 0.0505633 0.0440878 0.0380803 0.0325407 0.0274691 0.0228655 0.0187299 0.0150623 0.0118626 0.00908233 0.00667273 0.00463384 0.00296566 0.00166818 0.000741414 0.000185354 0 0 0.000118959 0.000475837 0.00107063 0.00190335 0.00297398 0.00428254 0.00582901 0.0076134 0.00968106 0.0120773 0.0148023 0.0178558 0.021238 0.0249488 0.0289882 0.0333562 0.037917 0.0425345 0.0472088 0.0519398 0.0567276 0.0615722 0.0664736 0.0714317 0.076335 0.0810718 0.0856421 0.090046 0.0942834 0.0983543 0.102259 0.105997 0.109539 0.112857 0.11595 0.118819 0.121464 0.123883 0.126078 0.128049 0.129844 0.131514 0.133058 0.134475 0.135767 0.136934 0.137974 0.138889 0.139757 0.140659 0.141595 0.142565 0.143568 0.144605 0.145676 0.146781 0.147965 0.149273 0.150705 0.152261 0.153942 0.155747 0.157677 0.15973 0.161876 0.164083 0.16635 0.168678 0.171066 0.173515 0.176025 0.178595 0.181124 0.183513 0.18576 0.187866 0.18983 0.191654 0.193336 0.194877 0.196165 0.197086 0.197642 0.197833 0.197657 0.197116 0.196209 0.194936 0.19325 0.191102 0.188492 0.185421 0.181887 0.177893 0.173436 0.168518 0.163206 0.157566 0.1516 0.145307 0.138687 0.131739 0.124465 0.116864 0.109121 0.101421 0.0937638 0.0861494 0.0785779 0.0710493 0.0635636 0.0561208 0.0489567 0.0423073 0.0361725 0.0305523 0.0254467 0.0208557 0.0167794 0.0132177 0.0101198 0.00743493 0.00516315 0.00330441 0.00185873 0.000826104 0.000206526 0 0 0.000133278 0.000533111 0.0011995 0.00213244 0.00333194 0.004798 0.00653061 0.00852977 0.0108435 0.01352 0.0165591 0.0199608 0.0237252 0.0278523 0.032342 0.0371944 0.0422588 0.0473848 0.0525722 0.057821 0.0631314 0.0685032 0.0739366 0.0794314 0.0848651 0.0901151 0.0951814 0.100064 0.104763 0.109278 0.11361 0.117758 0.12169 0.125374 0.128809 0.131996 0.134935 0.137625 0.140067 0.142261 0.144259 0.146117 0.147834 0.149409 0.150844 0.152137 0.15329 0.154301 0.155258 0.156249 0.157273 0.158331 0.159422 0.160547 0.161705 0.162897 0.164172 0.16558 0.167122 0.168797 0.170604 0.172546 0.17462 0.176827 0.179134 0.181505 0.183941 0.186442 0.189007 0.191638 0.194333 0.197092 0.199807 0.202367 0.204773 0.207024 0.209121 0.211064 0.212851 0.214485 0.215841 0.216799 0.217359 0.217519 0.217281 0.216644 0.215608 0.214173 0.212288 0.209899 0.207008 0.203614 0.199716 0.195316 0.190413 0.185006 0.17917 0.172978 0.16643 0.159526 0.152265 0.144648 0.136676 0.128347 0.119862 0.111424 0.103031 0.0946841 0.0863828 0.0781271 0.0699172 0.061753 0.0538925 0.0465935 0.0398562 0.0336805 0.0280664 0.0230139 0.0185231 0.0145938 0.0111734 0.00820902 0.00570071 0.00364845 0.00205225 0.000912113 0.000228028 0 0 0.000148226 0.000592904 0.00133403 0.00237162 0.00370565 0.00533613 0.00726307 0.00948646 0.012057 0.0150253 0.0183915 0.0221554 0.0263172 0.0308768 0.0358342 0.0411894 0.0467766 0.05243 0.0581495 0.0639352 0.0697871 0.0757051 0.0816893 0.0877397 0.0937224 0.0995037 0.105084 0.110462 0.115639 0.120614 0.125389 0.129961 0.134297 0.138359 0.142149 0.145665 0.148909 0.151879 0.154577 0.157001 0.15921 0.161263 0.163157 0.164895 0.166475 0.167899 0.169165 0.170273 0.171319 0.172398 0.17351 0.174653 0.17583 0.177039 0.17828 0.179554 0.180915 0.182418 0.184062 0.185848 0.187776 0.189846 0.192057 0.19441 0.196869 0.199396 0.201992 0.204657 0.20739 0.210192 0.213063 0.216003 0.218893 0.221616 0.224171 0.226558 0.228777 0.230829 0.232713 0.234429 0.235845 0.23683 0.237383 0.237504 0.237194 0.236452 0.235279 0.233673 0.23158 0.228943 0.225762 0.222036 0.217766 0.212952 0.207594 0.201692 0.195325 0.188572 0.181434 0.173911 0.166003 0.157709 0.14903 0.139966 0.130733 0.121549 0.112413 0.103325 0.0942864 0.0852959 0.0763537 0.06746 0.0588951 0.050939 0.043592 0.0368539 0.0307247 0.0252046 0.0202933 0.0159911 0.0122432 0.00899499 0.00624652 0.00399777 0.00224875 0.000999443 0.000249861 0 0 0.000163804 0.000655216 0.00147424 0.00262086 0.0040951 0.00589695 0.0080264 0.0104835 0.0133214 0.0165934 0.0202995 0.0244397 0.0290139 0.0340223 0.0394648 0.0453413 0.0514703 0.0576702 0.0639408 0.0702823 0.0766947 0.0831778 0.0897318 0.0963566 0.102907 0.109238 0.115348 0.121239 0.126911 0.132362 0.137594 0.142606 0.147359 0.151813 0.155969 0.159826 0.163385 0.166645 0.169607 0.17227 0.174697 0.17695 0.179028 0.180932 0.182662 0.184218 0.185599 0.186806 0.187941 0.189107 0.190304 0.191532 0.19279 0.19408 0.1954 0.196751 0.198193 0.199784 0.201525 0.203417 0.205457 0.207648 0.209989 0.212479 0.215081 0.217755 0.220502 0.223322 0.226214 0.229179 0.232217 0.235327 0.238383 0.241259 0.243953 0.246466 0.248798 0.250949 0.25292 0.254709 0.256175 0.257178 0.257715 0.257788 0.257397 0.256542 0.255222 0.253437 0.251128 0.248233 0.244753 0.240688 0.236038 0.230802 0.224981 0.218575 0.211669 0.204348 0.196613 0.188464 0.1799 0.170922 0.161529 0.151722 0.141733 0.131796 0.121909 0.112073 0.102289 0.0925554 0.0828731 0.0732418 0.0639645 0.0553437 0.0473797 0.0400723 0.0334216 0.0274276 0.0220902 0.0174095 0.0133291 0.00979283 0.00680058 0.00435237 0.00244821 0.00108809 0.000272023 0 0 0.000180012 0.000720048 0.00162011 0.00288019 0.0045003 0.00648043 0.00882059 0.0115208 0.0146367 0.0182241 0.0222831 0.0268135 0.0318154 0.0372888 0.0432337 0.0496501 0.05634 0.0631053 0.0699461 0.0768624 0.0838542 0.0909214 0.0980641 0.105282 0.112419 0.119317 0.125976 0.132397 0.138578 0.144522 0.150226 0.155692 0.160876 0.165736 0.17027 0.174479 0.178364 0.181924 0.185159 0.188069 0.19072 0.193179 0.195446 0.197521 0.199404 0.201094 0.202592 0.203898 0.205123 0.206375 0.207656 0.208966 0.210304 0.211671 0.213066 0.214489 0.216006 0.21768 0.219512 0.221501 0.223648 0.225953 0.228415 0.231034 0.233771 0.236584 0.239473 0.242438 0.24548 0.248599 0.251794 0.255065 0.258277 0.261295 0.264119 0.266748 0.269184 0.271425 0.273472 0.275325 0.276833 0.277843 0.278356 0.278372 0.27789 0.276912 0.275437 0.273464 0.27093 0.267769 0.263982 0.259569 0.25453 0.248865 0.242573 0.235655 0.228203 0.220306 0.211967 0.203183 0.193957 0.184286 0.174