<?xml version="1.0"?> 
<VTKFile type="StructuredGrid" version="0.1"> 
<StructuredGrid WholeExtent="0 128 0 128 0 0"> 
<Piece Extent="0 128 0 128 0 0"> 
<PointData>
<DataArray type="Float32" Name="u" format="ascii" NumberOfComponents="1"> 
0 0 0 0 0 0 0 0 0 0 0 0 0 0 0 0 0 0 0 0 0 0 0 0 0 0 0 0 0 0 0 0 0 0 0 0 0 0 0 0 0 0 0 0 0 0 0 0 0 0 0 0 0 0 0 0 0 0 0 0 0 0 0 0 0 0 0 0 0 0 0 0 0 0 0 0 0 0 0 0 0 0 0 0 0 0 0 0 0 0 0 0 0 0 0 0 0 0 0 0 0 0 0 0 0 0 0 0 0 0 0 0 0 0 0 0 0 0 0 0 0 0 0 0 0 0 0 0 0 0 1.88099e-07 7.52395e-07 1.69289e-06 3.00958e-06 4.70247e-06 6.77155e-06 9.21683e-06 1.20383e-05 1.54163e-05 1.95313e-05 2.43831e-05 2.99718e-05 3.62974e-05 4.33599e-05 5.11593e-05 5.96956e-05 6.87241e-05 7.80004e-05 8.75243e-05 9.7296e-05 0.000107315 0.000117582 0.000128097 0.000138859 0.000149626 0.000160152 0.000170439 0.000180485 0.000190292 0.000199859 0.000209186 0.000218273 0.00022704 0.000235406 0.000243372 0.000250937 0.000258102 0.000264867 0.000271231 0.000277195 0.000282826 0.000288192 0.000293295 0.000298133 0.000302707 0.000307016 0.000311061 0.000314842 0.000318484 0.000322115 0.000325733 0.00032934 0.000332935 0.000336517 0.000340088 0.000343647 0.00034726 0.000350994 0.000354849 0.000358826 0.000362923 0.000367142 0.000371481 0.000375941 0.000380454 0.00038495 0.000389428 0.00039389 0.000398335 0.000402763 0.000407175 0.000411569 0.00041576 0.000419562 0.000422974 0.000425997 0.00042863 0.000430874 0.000432728 0.000434193 0.000435073 0.000435174 0.000434495 0.000433037 0.000430798 0.000427781 0.000423983 0.000419406 0.000413985 0.000407655 0.000400415 0.000392267 0.000383209 0.000373243 0.000362367 0.000350582 0.00033805 0.000324933 0.00031123 0.000296941 0.000282067 0.000266608 0.000250562 0.000233932 0.000217125 0.000200552 0.000184211 0.000168104 0.000152231 0.00013659 0.000121183 0.000106009 9.1535e-05 7.82279e-05 6.60877e-05 5.51144e-05 4.53079e-05 3.66683e-05 2.91956e-05 2.28897e-05 1.7525e-05 1.28755e-05 8.94131e-06 5.72244e-06 3.21887e-06 1.43061e-06 3.57652e-07 0 0 7.52395e-07 3.00958e-06 6.77155e-06 1.20383e-05 1.88099e-05 2.70862e-05 3.68673e-05 4.81533e-05 6.16654e-05 7.8125e-05 9.75323e-05 0.000119887 0.00014519 0.00017344 0.000204637 0.000238782 0.000274897 0.000312002 0.000350097 0.000389184 0.000429261 0.000470329 0.000512388 0.000555438 0.000598503 0.000640608 0.000681754 0.000721941 0.000761168 0.000799435 0.000836743 0.000873091 0.000908159 0.000941624 0.000973488 0.00100375 0.00103241 0.00105947 0.00108492 0.00110878 0.0011313 0.00115277 0.00117318 0.00119253 0.00121083 0.00122806 0.00124424 0.00125937 0.00127394 0.00128846 0.00130293 0.00131736 0.00133174 0.00134607 0.00136035 0.00137459 0.00138904 0.00140398 0.0014194 0.0014353 0.00145169 0.00146857 0.00148592 0.00150377 0.00152182 0.0015398 0.00155771 0.00157556 0.00159334 0.00161105 0.0016287 0.00164628 0.00166304 0.00167825 0.0016919 0.00170399 0.00171452 0.0017235 0.00173091 0.00173677 0.00174029 0.0017407 0.00173798 0.00173215 0.00172319 0.00171112 0.00169593 0.00167763 0.00165594 0.00163062 0.00160166 0.00156907 0.00153284 0.00149297 0.00144947 0.00140233 0.0013522 0.00129973 0.00124492 0.00118777 0.00112827 0.00106643 0.00100225 0.000935727 0.0008685 0.000802206 0.000736845 0.000672417 0.000608922 0.00054636 0.000484731 0.000424036 0.00036614 0.000312912 0.000264351 0.000220458 0.000181232 0.000146673 0.000116782 9.1559e-05 7.00998e-05 5.15019e-05 3.57652e-05 2.28897e-05 1.28755e-05 5.72244e-06 1.43061e-06 0 0 1.69289e-06 6.77155e-06 1.5236e-05 2.70862e-05 4.23222e-05 6.0944e-05 8.29515e-05 0.000108345 0.000138747 0.000175781 0.000219448 0.000269746 0.000326676 0.000390239 0.000460433 0.00053726 0.000618517 0.000702004 0.000787719 0.000875664 0.000965838 0.00105824 0.00115287 0.00124973 0.00134663 0.00144137 0.00153395 0.00162437 0.00171263 0.00179873 0.00188267 0.00196446 0.00204336 0.00211865 0.00219035 0.00225844 0.00232292 0.0023838 0.00244108 0.00249475 0.00254543 0.00259373 0.00263965 0.0026832 0.00272436 0.00276314 0.00279955 0.00283358 0.00286636 0.00289903 0.0029316 0.00296406 0.00299641 0.00302865 0.00306079 0.00309282 0.00312534 0.00315895 0.00319365 0.00322943 0.00326631 0.00330427 0.00334333 0.00338347 0.00342409 0.00346455 0.00350486 0.00354501 0.00358502 0.00362487 0.00366457 0.00370412 0.00374184 0.00377606 0.00380677 0.00383397 0.00385767 0.00387786 0.00389455 0.00390774 0.00391566 0.00391657 0.00391046 0.00389733 0.00387719 0.00385003 0.00381585 0.00377466 0.00372587 0.00366889 0.00360374 0.0035304 0.00344888 0.00335918 0.0032613 0.00315524 0.00304245 0.0029244 0.00280107 0.00267247 0.0025386 0.00239947 0.00225506 0.00210539 0.00195413 0.00180496 0.0016579 0.00151294 0.00137008 0.00122931 0.00109065 0.00095408 0.000823815 0.000704051 0.00059479 0.00049603 0.000407771 0.000330015 0.000262761 0.000206008 0.000157725 0.000115879 8.04718e-05 5.15019e-05 2.89698e-05 1.28755e-05 3.21887e-06 0 0 3.00958e-06 1.20383e-05 2.70862e-05 4.81533e-05 7.52395e-05 0.000108345 0.000147469 0.000192613 0.000246661 0.0003125 0.000390129 0.000479548 0.000580758 0.000693758 0.000818548 0.000955129 0.00109959 0.00124801 0.00140039 0.00155674 0.00171704 0.00188132 0.00204955 0.00222175 0.00239401 0.00256243 0.00272702 0.00288776 0.00304467 0.00319774 0.00334697 0.00349236 0.00363264 0.0037665 0.00389395 0.004015 0.00412964 0.00423787 0.0043397 0.00443511 0.00452521 0.00461108 0.00469272 0.00477013 0.00484331 0.00491226 0.00497698 0.00503747 0.00509575 0.00515384 0.00521173 0.00526944 0.00532695 0.00538428 0.00544141 0.00549835 0.00555616 0.00561591 0.00567759 0.00574121 0.00580677 0.00587427 0.0059437 0.00601506 0.00608726 0.0061592 0.00623086 0.00630225 0.00637337 0.00644421 0.00651479 0.0065851 0.00665216 0.00671299 0.00676758 0.00681595 0.00685808 0.00689398 0.00692365 0.00694709 0.00696117 0.00696278 0.00695192 0.00692858 0.00689277 0.00684449 0.00678373 0.0067105 0.00662376 0.00652248 0.00640665 0.00627627 0.00613135 0.00597188 0.00579787 0.00560932 0.00540881 0.00519893 0.00497968 0.00475106 0.00451307 0.00426572 0.004009 0.00374291 0.003474 0.00320883 0.00294738 0.00268967 0.00243569 0.00218544 0.00193893 0.00169614 0.00146456 0.00125165 0.0010574 0.00088183 0.000724927 0.000586693 0.00046713 0.000366236 0.000280399 0.000206008 0.000143061 9.1559e-05 5.15019e-05 2.28897e-05 5.72244e-06 0 0 4.70247e-06 1.88099e-05 4.23222e-05 7.52395e-05 0.000117562 0.000169289 0.000230421 0.000300958 0.000385408 0.000488281 0.000609577 0.000749295 0.000907435 0.001084 0.00127898 0.00149239 0.0017181 0.00195001 0.00218811 0.0024324 0.00268288 0.00293956 0.00320243 0.00347148 0.00374064 0.0040038 0.00426096 0.00451213 0.0047573 0.00499647 0.00522964 0.00545682 0.00567599 0.00588515 0.0060843 0.00627344 0.00645256 0.00662167 0.00678077 0.00692986 0.00707064 0.00720481 0.00733237 0.00745332 0.00756767 0.0076754 0.00777653 0.00787104 0.0079621 0.00805287 0.00814333 0.0082335 0.00832336 0.00841293 0.0085022 0.00859117 0.0086815 0.00877485 0.00887124 0.00897065 0.00907308 0.00917854 0.00928703 0.00939854 0.00951135 0.00962374 0.00973571 0.00984726 0.00995838 0.0100691 0.0101794 0.0102892 0.010394 0.010489 0.0105744 0.0106499 0.0107158 0.0107718 0.0108182 0.0108548 0.0108768 0.0108793 0.0108624 0.0108259 0.01077 0.0106945 0.0105996 0.0104852 0.0103496 0.0101914 0.0100104 0.00980667 0.00958023 0.00933107 0.00905918 0.00876456 0.00845126 0.00812332 0.00778075 0.00742353 0.00705168 0.00666519 0.00626406 0.0058483 0.00542813 0.00501379 0.00460528 0.00420261 0.00380576 0.00341475 0.00302957 0.00265022 0.00228837 0.0019557 0.00165219 0.00137786 0.0011327 0.000916709 0.00072989 0.000572244 0.000438124 0.000321887 0.000223533 0.000143061 8.04718e-05 3.57652e-05 8.94131e-06 0 0 6.77155e-06 2.70862e-05 6.0944e-05 0.000108345 0.000169289 0.000243776 0.000331806 0.000433379 0.000554988 0.000703125 0.000877791 0.00107898 0.00130671 0.00156096 0.00184173 0.00214904 0.00247407 0.00280801 0.00315088 0.00350266 0.00386335 0.00423296 0.00461149 0.00499894 0.00538652 0.00576547 0.00613579 0.00649747 0.00685051 0.00719492 0.00753069 0.00785782 0.00817343 0.00847462 0.00876139 0.00903375 0.00929169 0.00953521 0.00976431 0.009979 0.0101817 0.0103749 0.0105586 0.0107328 0.0108974 0.0110526 0.0111982 0.0113343 0.0114654 0.0115961 0.0117264 0.0118562 0.0119856 0.0121146 0.0122432 0.0123713 0.0125014 0.0126358 0.0127746 0.0129177 0.0130652 0.0132171 0.0133733 0.0135339 0.0136963 0.0138582 0.0140194 0.0141801 0.0143401 0.0144995 0.0146583 0.0148165 0.0149674 0.0151042 0.0152271 0.0153359 0.0154307 0.0155115 0.0155782 0.0156309 0.0156626 0.0156663 0.0156418 0.0155893 0.0155087 0.0154001 0.0152634 0.0150986 0.0149035 0.0146756 0.014415 0.0141216 0.0137955 0.0134367 0.0130452 0.012621 0.0121698 0.0116976 0.0112043 0.0106899 0.0101544 0.00959787 0.00902025 0.00842155 0.0078165 0.00721986 0.00663161 0.00605176 0.0054803 0.00491724 0.00436258 0.00381632 0.00329526 0.0028162 0.00237916 0.00198412 0.00163109 0.00132006 0.00105104 0.000824031 0.000630899 0.000463517 0.000321887 0.000206008 0.000115879 5.15019e-05 1.28755e-05 0 0 9.21683e-06 3.68673e-05 8.29515e-05 0.000147469 0.000230421 0.000331806 0.000451625 0.000589877 0.000755401 0.000957032 0.00119477 0.00146862 0.00177857 0.00212463 0.0025068 0.00292508 0.00336748 0.00382202 0.00428869 0.0047675 0.00525845 0.00576153 0.00627675 0.00680411 0.00733166 0.00784745 0.00835149 0.00884377 0.0093243 0.00979308 0.0102501 0.0106954 0.0111249 0.0115349 0.0119252 0.0122959 0.012647 0.0129785 0.0132903 0.0135825 0.0138585 0.0141214 0.0143714 0.0146085 0.0148326 0.0150438 0.015242 0.0154272 0.0156057 0.0157836 0.0159609 0.0161377 0.0163138 0.0164893 0.0166643 0.0168387 0.0170157 0.0171987 0.0173876 0.0175825 0.0177832 0.0179899 0.0182026 0.0184211 0.0186422 0.0188625 0.019082 0.0193006 0.0195184 0.0197354 0.0199516 0.0201669 0.0203722 0.0205585 0.0207257 0.0208738 0.0210029 0.0211128 0.0212037 0.0212755 0.0213186 0.0213235 0.0212903 0.0212188 0.0211091 0.0209613 0.0207752 0.0205509 0.0202853 0.0199751 0.0196204 0.0192211 0.0187773 0.0182889 0.017756 0.0171785 0.0165645 0.0159217 0.0152503 0.0145501 0.0138213 0.0130638 0.0122776 0.0114627 0.0106391 0.00982703 0.00902635 0.00823711 0.0074593 0.00669291 0.00593796 0.00519444 0.00448521 0.00383317 0.0032383 0.00270061 0.00222009 0.00179675 0.00143058 0.0011216 0.000858723 0.000630899 0.000438124 0.000280399 0.000157725 7.00998e-05 1.7525e-05 0 0 1.20383e-05 4.81533e-05 0.000108345 0.000192613 0.000300958 0.000433379 0.000589877 0.000770452 0.000986646 0.00125 0.00156052 0.00191819 0.00232303 0.00277503 0.00327419 0.00382052 0.00439834 0.00499203 0.00560156 0.00622694 0.00686818 0.00752527 0.00819821 0.008887 0.00957604 0.0102497 0.0109081 0.0115511 0.0121787 0.012791 0.0133879 0.0139695 0.0145305 0.015066 0.0155758 0.01606 0.0165186 0.0169515 0.0173588 0.0177404 0.0181008 0.0184443 0.0187709 0.0190805 0.0193732 0.019649 0.0199079 0.0201499 0.020383 0.0206153 0.0208469 0.0210778 0.0213078 0.0215371 0.0217656 0.0219934 0.0222246 0.0224636 0.0227104 0.0229649 0.0232271 0.0234971 0.0237748 0.0240603 0.0243491 0.0246368 0.0249234 0.025209 0.0254935 0.0257769 0.0260592 0.0263404 0.0266086 0.026852 0.0270703 0.0272638 0.0274323 0.0275759 0.0276946 0.0277884 0.0278447 0.0278511 0.0278077 0.0277143 0.0275711 0.027378 0.0271349 0.026842 0.026495 0.0260899 0.0256266 0.0251051 0.0245254 0.0238875 0.0231915 0.0224373 0.0216352 0.0207957 0.0199187 0.0190042 0.0180523 0.0170629 0.016036 0.0149716 0.013896 0.0128353 0.0117895 0.0107587 0.00974276 0.00874177 0.0077557 0.00678457 0.00585824 0.00500659 0.00422961 0.00352732 0.00289971 0.00234677 0.00186852 0.00146494 0.0011216 0.000824031 0.000572244 0.000366236 0.000206008 9.1559e-05 2.28897e-05 0 0 1.54591e-05 6.18363e-05 0.000139132 0.000247345 0.000386477 0.000556526 0.000757494 0.00098938 0.00126663 0.0016037 0.00200058 0.00245728 0.00297378 0.00355011 0.00418625 0.0048822 0.00561808 0.00637399 0.00714994 0.00794592 0.00876194 0.009598 0.0104541 0.0113302 0.0122066 0.0130636 0.0139011 0.0147192 0.0155178 0.0162969 0.0170566 0.0177968 0.0185111 0.0191928 0.019842 0.0204586 0.0210428 0.0215943 0.0221134 0.0225999 0.0230594 0.0234973 0.0239136 0.0243084 0.0246815 0.0250331 0.0253632 0.0256716 0.0259687 0.0262646 0.0265594 0.026853 0.0271454 0.0274367 0.0277268 0.0280157 0.0283089 0.0286117 0.028924 0.029246 0.0295776 0.0299189 0.0302697 0.0306301 0.0309946 0.0313576 0.031719 0.0320789 0.0324373 0.0327941 0.0331494 0.0335032 0.0338404 0.0341459 0.0344198 0.034662 0.0348726 0.0350515 0.0351988 0.0353144 0.0353826 0.0353876 0.0353294 0.035208 0.0350234 0.0347757 0.0344647 0.0340906 0.033648 0.0331319 0.0325421 0.0318788 0.0311418 0.0303313 0.0294471 0.0284893 0.027471 0.0264054 0.0252924 0.024132 0.0229243 0.0216692 0.0203667 0.0190169 0.0176528 0.0163075 0.014981 0.0136734 0.0123845 0.0111145 0.00986329 0.0086309 0.00745514 0.00637384 0.00538698 0.00449458 0.00369663 0.00299313 0.00238408 0.00186949 0.00143132 0.00105159 0.000730268 0.000467371 0.000262896 0.000116843 2.92107e-05 0 0 1.97022e-05 7.88086e-05 0.000177319 0.000315235 0.000492554 0.000709278 0.000965406 0.00126094 0.00161327 0.00203979 0.00254051 0.00311542 0.00376453 0.00448782 0.00528531 0.00615699 0.0070781 0.00802387 0.0089943 0.00998939 0.0110091 0.0120536 0.0131226 0.0142164 0.0153104 0.0163803 0.0174262 0.018448 0.0194457 0.0204193 0.0213688 0.0222943 0.0231875 0.0240403 0.0248526 0.0256246 0.0263561 0.0270472 0.0276979 0.0283081 0.0288846 0.0294341 0.0299564 0.0304517 0.0309199 0.031361 0.031775 0.0321619 0.0325344 0.0329048 0.0332733 0.0336398 0.0340043 0.0343668 0.0347274 0.035086 0.0354493 0.0358239 0.0362099 0.0366071 0.0370158 0.0374357 0.037867 0.0383096 0.0387567 0.0392015 0.039644 0.0400841 0.0405219 0.0409574 0.0413905 0.0418213 0.0422313 0.0426019 0.0429331 0.0432249 0.0434773 0.0436904 0.0438641 0.0439984 0.0440739 0.0440713 0.0439907 0.0438318 0.0435949 0.0432798 0.0428866 0.0424153 0.0418595 0.0412129 0.0404755 0.0396474 0.0387284 0.0377187 0.0366181 0.0354268 0.0341609 0.0328367 0.0314541 0.0300133 0.0285142 0.0269567 0.0253409 0.0236669 0.0219752 0.0203064 0.0186608 0.0170381 0.0154384 0.0138618 0.0123082 0.0107776 0.00931674 0.0079723 0.00674429 0.0056327 0.00463754 0.00375881 0.00299651 0.00235064 0.00179971 0.00132223 0.000918218 0.000587659 0.000330558 0.000146915 3.67287e-05 0 0 2.47676e-05 9.90704e-05 0.000222908 0.000396282 0.00061919 0.000891634 0.00121361 0.00158513 0.00202656 0.00255828 0.00318031 0.00389263 0.00469525 0.00558817 0.00657139 0.0076449 0.00877842 0.00994168 0.0111347 0.0123574 0.0136098 0.0148919 0.0162038 0.0175454 0.0188873 0.0201999 0.0214833 0.0227375 0.0239624 0.0251581 0.0263245 0.0274618 0.0285597 0.0296084 0.0306077 0.0315578 0.0324586 0.03331 0.0341122 0.0348651 0.0355766 0.0362546 0.0368992 0.0375104 0.0380882 0.0386325 0.0391434 0.0396208 0.04008 0.0405359 0.0409886 0.0414381 0.0418845 0.0423276 0.0427676 0.0432043 0.0436459 0.0441004 0.0445678 0.0450482 0.0455414 0.0460476 0.0465667 0.0470987 0.0476355 0.0481687 0.0486984 0.0492247 0.0497475 0.0502668 0.0507826 0.0512949 0.0517814 0.0522198 0.0526101 0.0529523 0.0532465 0.0534925 0.0536904 0.0538403 0.0539187 0.0539024 0.0537915 0.0535858 0.0532854 0.0528904 0.0524006 0.0518161 0.0511294 0.050333 0.0494268 0.0484108 0.0472852 0.0460497 0.0447046 0.0432496 0.0417047 0.0400895 0.0384039 0.0366481 0.0348219 0.0329254 0.0309586 0.0289216 0.0268631 0.0248321 0.0228287 0.0208529 0.0189045 0.0169837 0.0150904 0.0132247 0.011443 0.00980197 0.00830152 0.00694168 0.00572244 0.00464382 0.00370581 0.0029084 0.00222674 0.00163598 0.00113609 0.0007271 0.000408994 0.000181775 4.54438e-05 0 0 3.06554e-05 0.000122622 0.000275898 0.000490486 0.000766385 0.00110359 0.00150211 0.00196194 0.00250649 0.00315917 0.00391998 0.00478891 0.00576597 0.00685116 0.00804447 0.00934592 0.010719 0.0121274 0.013571 0.0150498 0.0165639 0.0181132 0.0196977 0.0213174 0.0229374 0.0245224 0.0260725 0.0275876 0.0290679 0.0305133 0.0319237 0.0332993 0.0346278 0.0358971 0.0371073 0.0382583 0.0393502 0.0403829 0.0413564 0.0422707 0.0431352 0.043959 0.0447421 0.0454847 0.0461865 0.0468478 0.0474683 0.0480483 0.0486055 0.0491579 0.0497054 0.0502481 0.050786 0.051319 0.0518472 0.0523705 0.0528987 0.0534411 0.053998 0.0545692 0.0551547 0.0557546 0.0563689 0.0569975 0.0576308 0.058259 0.0588823 0.0595006 0.0601139 0.0607222 0.0613254 0.0619237 0.0624906 0.0629997 0.0634509 0.0638444 0.06418 0.0644578 0.0646779 0.0648401 0.0649169 0.0648809 0.0647319 0.06447 0.0640951 0.0636074 0.0630067 0.0622931 0.0614578 0.060492 0.0593958 0.0581692 0.0568121 0.0553245 0.0537064 0.051958 0.0501026 0.0481638 0.0461417 0.0440363 0.0418475 0.0395753 0.0372198 0.0347809 0.0323166 0.0298846 0.0274849 0.0251177 0.0227828 0.0204802 0.01821 0.0159722 0.013834 0.0118629 0.0100587 0.00842151 0.00695134 0.00564815 0.00451197 0.00354278 0.00271244 0.00199281 0.0013839 0.000885694 0.000498203 0.000221424 5.53559e-05 0 0 3.73655e-05 0.000149462 0.00033629 0.000597848 0.000934138 0.00134516 0.00183091 0.00239139 0.00305308 0.00384246 0.00475951 0.00580425 0.00697667 0.00827678 0.00970457 0.01126 0.0128999 0.014581 0.0163033 0.0180668 0.0198714 0.0217172 0.0236042 0.0255324 0.0274606 0.0293477 0.0311937 0.0329985 0.0347623 0.0364849 0.0381664 0.0398069 0.0413917 0.0429065 0.0443513 0.0457261 0.0470309 0.0482657 0.0494304 0.0505251 0.0515605 0.0525471 0.0534851 0.0543743 0.0552149 0.0560067 0.0567499 0.0574443 0.058111 0.0587707 0.0594236 0.0600696 0.0607087 0.061341 0.0619663 0.0625848 0.0632076 0.0638461 0.0645003 0.0651701 0.0658555 0.0665566 0.0672734 0.0680058 0.0687426 0.0694726 0.0701956 0.0709118 0.0716212 0.0723236 0.0730192 0.073708 0.074359 0.0749415 0.0754555 0.075901 0.076278 0.0765864 0.0768264 0.0769978 0.0770686 0.0770066 0.0768118 0.0764843 0.0760239 0.0754308 0.0747049 0.0738462 0.0728446 0.0716901 0.0703827 0.0689224 0.0673091 0.0655429 0.0636238 0.0615517 0.0593544 0.0570597 0.0546676 0.052178 0.0495909 0.0469064 0.0441244 0.041245 0.0383357 0.0354638 0.0326294 0.0298325 0.0270731 0.0243513 0.0216669 0.01902 0.0164897 0.0141549 0.0120158 0.0100722 0.00832422 0.00677181 0.005415 0.00425376 0.00325679 0.00239274 0.00166163 0.00106344 0.000598185 0.00026586 6.6465e-05 0 0 4.4898e-05 0.000179592 0.000404082 0.000718368 0.00112245 0.00161633 0.0022 0.00287347 0.00366632 0.00460814 0.00569892 0.00693866 0.00832737 0.00986504 0.0115517 0.0133873 0.0153211 0.0173026 0.0193316 0.0214082 0.0235323 0.0257041 0.0279234 0.0301902 0.032457 0.0346758 0.0368469 0.0389701 0.0410455 0.043073 0.0450526 0.0469845 0.0488515 0.0506366 0.0523398 0.0539612 0.0555008 0.0569585 0.0583343 0.0596282 0.0608525 0.0620191 0.0631281 0.0641795 0.0651732 0.0661094 0.066988 0.0678089 0.0685964 0.0693745 0.0701433 0.0709027 0.0716528 0.0723935 0.0731249 0.073847 0.0745727 0.0753153 0.0760747 0.0768509 0.0776439 0.0784537 0.0792804 0.0801238 0.0809711 0.0818093 0.0826384 0.0834584 0.0842693 0.0850712 0.0858639 0.0866476 0.0873865 0.0880453 0.0886239 0.0891222 0.0895404 0.0898783 0.090136 0.0903135 0.0903737 0.0902797 0.0900313 0.0896287 0.0890718 0.0883606 0.0874952 0.0864754 0.0852899 0.0839273 0.0823875 0.0806705 0.0787763 0.076705 0.0744565 0.0720309 0.0694603 0.0667772 0.0639815 0.0610731 0.0580522 0.0549187 0.0516726 0.0483138 0.0449203 0.0415697 0.0382621 0.0349974 0.0317757 0.0285969 0.0254611 0.0223682 0.0194101 0.0166782 0.0141728 0.0118938 0.00984109 0.0080148 0.00641489 0.00504136 0.00385979 0.00283577 0.00196928 0.00126034 0.000708941 0.000315085 7.87713e-05 0 0 5.32528e-05 0.000213011 0.000479275 0.000852045 0.00133132 0.0019171 0.00260939 0.00340818 0.00434621 0.00545621 0.00673819 0.00819213 0.00981805 0.0116159 0.0135858 0.0157276 0.0179826 0.0202921 0.0226559 0.0250741 0.0275467 0.0300738 0.0326552 0.035291 0.0379265 0.0405069 0.0430322 0.0455024 0.0479174 0.0502774 0.0525823 0.0548321 0.057007 0.0590873 0.0610728 0.0629636 0.0647598 0.0664612 0.068068 0.0695801 0.0710111 0.0723748 0.0736711 0.0749 0.0760616 0.0771558 0.0781826 0.0791421 0.0800617 0.0809692 0.0818644 0.0827474 0.0836181 0.0844767 0.085323 0.0861571 0.086994 0.0878488 0.0887213 0.0896117 0.0905199 0.0914459 0.0923897 0.0933514 0.0943161 0.0952692 0.0962106 0.0971403 0.0980584 0.0989647 0.0998595 0.100743 0.101573 0.102311 0.102956 0.103508 0.103967 0.104333 0.104607 0.104787 0.104832 0.1047 0.10439 0.103903 0.103239 0.102397 0.101378 0.100181 0.0987937 0.0972034 0.09541 0.0934135 0.0912137 0.0888108 0.0862047 0.0833955 0.0804202 0.0773162 0.0740834 0.0707218 0.0672313 0.0636121 0.0598641 0.0559873 0.0520705 0.0482024 0.044383 0.0406123 0.0368904 0.0332172 0.0295926 0.0260169 0.0225951 0.0194328 0.0165298 0.0138862 0.011502 0.00937711 0.00751165 0.00590557 0.00452145 0.00332188 0.00230686 0.00147639 0.000830471 0.000369098 9.22745e-05 0 0 6.243e-05 0.00024972 0.00056187 0.00099888 0.00156075 0.00224748 0.00305907 0.00399552 0.00509275 0.00638669 0.00787733 0.00956467 0.0114487 0.0135295 0.0158069 0.0182811 0.0208844 0.0235495 0.0262762 0.0290645 0.0319146 0.0348263 0.0377997 0.0408347 0.0438692 0.0468408 0.0497495 0.0525953 0.0553783 0.0580983 0.0607555 0.0633499 0.0658585 0.0682586 0.0705502 0.0727333 0.0748079 0.076774 0.0786316 0.0803807 0.0820365 0.0836143 0.0851142 0.0865361 0.08788 0.0891459 0.0903338 0.0914438 0.092507 0.0935547 0.0945869 0.0956036 0.0966048 0.0975904 0.0985606 0.0995153 0.100471 0.101446 0.10244 0.103452 0.104483 0.105533 0.106602 0.107689 0.108778 0.109852 0.110912 0.111958 0.112988 0.114004 0.115006 0.115993 0.116919 0.117739 0.118452 0.119058 0.119558 0.119952 0.120238 0.120419 0.120444 0.120268 0.119889 0.119308 0.118525 0.11754 0.116352 0.114962 0.113356 0.111519 0.10945 0.107151 0.104621 0.10186 0.0988683 0.0956455 0.0922341 0.0886768 0.0849733 0.0811239 0.0771284 0.0729868 0.0686992 0.0642656 0.0597863 0.0553618 0.0509922 0.0466773 0.0424172 0.038212 0.0340615 0.0299658 0.0260449 0.0224185 0.0190867 0.0160494 0.0133068 0.0108587 0.00870528 0.00684639 0.00524177 0.00385109 0.00267437 0.0017116 0.000962773 0.000427899 0.000106975 0 0 7.22817e-05 0.000289127 0.000650535 0.00115651 0.00180704 0.00260214 0.0035418 0.00462603 0.00589394 0.00738465 0.00909818 0.0110345 0.0131936 0.0155756 0.0181803 0.0210079 0.0239814 0.0270242 0.0301362 0.0333174 0.0365679 0.0398876 0.0432765 0.0467346 0.0501918 0.0535779 0.0568928 0.0601367 0.0633096 0.0664113 0.0694419 0.0724014 0.0752638 0.0780031 0.0806192 0.0831122 0.085482 0.0877287 0.0898523 0.0918527 0.0937468 0.0955516 0.0972669 0.0988929 0.100429 0.101877 0.103234 0.104503 0.105717 0.106911 0.108087 0.109242 0.110379 0.111496 0.112594 0.113673 0.114751 0.115849 0.116966 0.118102 0.119258 0.120432 0.121626 0.122839 0.124053 0.125249 0.126427 0.127588 0.12873 0.129855 0.130961 0.13205 0.133069 0.133968 0.134746 0.135403 0.135938 0.136354 0.136648 0.136821 0.13682 0.136591 0.136135 0.13545 0.134538 0.133397 0.132029 0.130434 0.128594 0.126495 0.124136 0.121518 0.11864 0.115503 0.112106 0.10845 0.104582 0.10055 0.0963542 0.0919948 0.0874717 0.0827848 0.0779341 0.0729196 0.0678537 0.062849 0.0579053 0.0530226 0.048201 0.0434405 0.0387411 0.0341027 0.0296604 0.0255492 0.0217691 0.0183202 0.0152024 0.0124157 0.00996008 0.00783561 0.00599914 0.00440753 0.00306079 0.0019589 0.00110188 0.000489726 0.000122431 0 0 8.26602e-05 0.000330641 0.000743942 0.00132256 0.0020665 0.00297577 0.00405035 0.00529025 0.00673777 0.00843522 0.0103826 0.0125799 0.0150271 0.0177242 0.0206712 0.0238682 0.0272285 0.0306658 0.0341799 0.0377709 0.0414388 0.0451836 0.0490052 0.0529038 0.0568009 0.0606184 0.0643563 0.0680145 0.071593 0.0750919 0.0785111 0.0818507 0.0850812 0.0881733 0.091127 0.0939422 0.096619 0.0991574 0.101557 0.103819 0.105961 0.108 0.109939 0.111776 0.113511 0.115145 0.116677 0.118107 0.119475 0.120819 0.122139 0.123435 0.124707 0.125956 0.12718 0.128381 0.129579 0.130797 0.132034 0.13329 0.134566 0.135861 0.137175 0.138508 0.13984 0.141151 0.142441 0.143708 0.144955 0.14618 0.147384 0.148566 0.14967 0.150638 0.151471 0.152169 0.152732 0.153159 0.153451 0.153608 0.15357 0.153279 0.152734 0.151936 0.150884 0.149579 0.14802 0.146208 0.144125 0.141754 0.139095 0.136147 0.132912 0.129388 0.125577 0.121477 0.117142 0.112626 0.107929 0.10305 0.0979898 0.0927481 0.087325 0.0817205 0.0760589 0.0704648 0.064938 0.0594786 0.0540866 0.048762 0.0435047 0.0383148 0.0333427 0.0287387 0.0245028 0.020635 0.0171353 0.0140038 0.0112404 0.00884504 0.00677199 0.00497534 0.0034551 0.00221126 0.00124383 0.000552815 0.000138204 0 0 9.35654e-05 0.000374262 0.000842089 0.00149705 0.00233914 0.00336836 0.00458471 0.00598819 0.00762426 0.00953837 0.0117305 0.0142007 0.016949 0.0199753 0.0232796 0.026862 0.0306257 0.0344741 0.0384072 0.0424249 0.0465272 0.0507142 0.0549859 0.0593423 0.0636967 0.0679625 0.0721397 0.0762284 0.0802286 0.0841401 0.0879631 0.0916976 0.0953106 0.0987692 0.102073 0.105223 0.108219 0.11106 0.113747 0.116279 0.118677 0.120961 0.12313 0.125184 0.127124 0.12895 0.130661 0.132257 0.133782 0.135277 0.136744 0.138181 0.139589 0.140969 0.142319 0.14364 0.144956 0.14629 0.147644 0.149016 0.150408 0.151818 0.153247 0.154694 0.156139 0.157558 0.158951 0.16032 0.161663 0.162981 0.164273 0.16554 0.166719 0.167749 0.168629 0.169358 0.169938 0.170368 0.170648 0.170779 0.170694 0.170331 0.169688 0.168766 0.167565 0.166085 0.164325 0.162286 0.159949 0.157296 0.154326 0.15104 0.147436 0.143516 0.13928 0.134727 0.129916 0.124906 0.119697 0.114289 0.108683 0.102877 0.096872 0.0906682 0.0844019 0.0782092 0.0720904 0.0660452 0.0600739 0.0541763 0.0483524 0.0426023 0.0370918 0.031987 0.0272877 0.0229939 0.0191057 0.0156232 0.0125461 0.00987468 0.0075603 0.00555451 0.0038573 0.00246867 0.00138863 0.000617167 0.000154292 0 0 0.000104997 0.00041999 0.000944977 0.00167996 0.00262494 0.00377991 0.00514487 0.00671984 0.00855339 0.0106941 0.013142 0.0158971 0.0189594 0.0223289 0.0260055 0.0299893 0.034173 0.0384493 0.042818 0.0472794 0.0518332 0.0564796 0.0612186 0.0660501 0.070879 0.07561 0.0802433 0.0847787 0.0892163 0.0935561 0.097798 0.101942 0.105952 0.109791 0.113459 0.116956 0.120282 0.123437 0.126421 0.129234 0.131898 0.134433 0.13684 0.139119 0.14127 0.143293 0.145187 0.146953 0.148637 0.150287 0.151901 0.153481 0.155025 0.156535 0.15801 0.159449 0.16088 0.162329 0.163796 0.165281 0.166783 0.168304 0.169842 0.171398 0.172948 0.174469 0.17596 0.177422 0.178854 0.180256 0.181629 0.182973 0.184219 0.185301 0.186218 0.18697 0.187558 0.187981 0.18824 0.188334 0.188193 0.187747 0.186996 0.18594 0.18458 0.182914 0.180943 0.178668 0.176067 0.173121 0.16983 0.166194 0.162213 0.157887 0.153216 0.1482 0.142903 0.137389 0.131659 0.125713 0.11955 0.113171 0.106575 0.0997629 0.0928825 0.0860824 0.0793624 0.0727225 0.0661629 0.0596834 0.0532842 0.0469651 0.0409078 0.035294 0.0301237 0.0253969 0.0211136 0.0172737 0.0138774 0.0109245 0.00836408 0.00614504 0.00426739 0.00273113 0.00153626 0.000682782 0.000170695 0 0 0.000116956 0.000467825 0.00105261 0.0018713 0.00292391 0.00421042 0.00573085 0.0074852 0.00952516 0.0119025 0.0146171 0.017669 0.0210583 0.024785 0.0288489 0.0332502 0.0378704 0.0425912 0.0474125 0.0523344 0.0573568 0.0624797 0.0677032 0.0730273 0.0783479 0.0835611 0.0886669 0.0936652 0.0985561 0.10334 0.108016 0.112584 0.117005 0.121238 0.125283 0.129139 0.132807 0.136287 0.139579 0.142683 0.145621 0.148417 0.15107 0.15358 0.155948 0.158173 0.160255 0.162194 0.164042 0.165847 0.167612 0.169334 0.171015 0.172655 0.174253 0.17581 0.177354 0.178914 0.180491 0.182084 0.183693 0.185319 0.186961 0.18862 0.190269 0.191885 0.193467 0.195014 0.196528 0.198007 0.199452 0.200864 0.202168 0.203293 0.204238 0.205004 0.205591 0.205998 0.206225 0.206273 0.206065 0.205527 0.204658 0.203459 0.201928 0.200067 0.197875 0.195353 0.192478 0.189229 0.185608 0.181612 0.177243 0.172501 0.167385 0.161896 0.156103 0.150076 0.143815 0.137321 0.130593 0.12363 0.116434 0.109004 0.101501 0.0940841 0.086754 0.0795105 0.0723537 0.0652835 0.0583 0.0514032 0.0447906 0.0386598 0.033011 0.027844 0.0231588 0.0189555 0.0152341 0.0119945 0.00918332 0.00674693 0.00468537 0.00299864 0.00168673 0.000749659 0.000187415 0 0 0.000129442 0.000517767 0.00116498 0.00207107 0.00323604 0.0046599 0.00634265 0.00828427 0.0105396 0.0131634 0.0161557 0.0195165 0.0232458 0.0273436 0.0318098 0.0366446 0.0417179 0.0468999 0.0521906 0.0575899 0.0630979 0.0687145 0.0744398 0.0802738 0.0861034 0.0918156 0.0974105 0.102888 0.108248 0.113491 0.118616 0.123624 0.128471 0.133111 0.137545 0.141774 0.145796 0.149612 0.153222 0.156626 0.159848 0.162913 0.165819 0.168567 0.171158 0.17359 0.175865 0.177981 0.179995 0.181959 0.183875 0.185741 0.187559 0.189329 0.191049 0.192721 0.194375 0.196044 0.197727 0.199425 0.201137 0.202863 0.204604 0.206359 0.208102 0.209806 0.211471 0.213097 0.214685 0.216233 0.217743 0.219213 0.220567 0.221726 0.222691 0.223461 0.224037 0.224418 0.224604 0.224596 0.224312 0.223672 0.222675 0.221321 0.219611 0.217544 0.215121 0.212341 0.209182 0.20562 0.201657 0.197293 0.192526 0.187357 0.181787 0.175815 0.169516 0.162966 0.156165 0.149113 0.14181 0.134255 0.12645 0.118393 0.110257 0.102215 0.0942653 0.0864091 0.0786462 0.0709765 0.0633999 0.0559166 0.0487402 0.0420845 0.0359494 0.0303351 0.0252415 0.0206686 0.0166163 0.0130848 0.010018 0.00736019 0.00511124 0.0032712 0.00184005 0.000817799 0.00020445 0 0 0.000142454 0.000569816 0.00128209 0.00227926 0.00356135 0.00512835 0.00698025 0.00911706 0.0115967 0.0144769 0.0177579 0.0214395 0.0255217 0.0300046 0.0348882 0.0401725 0.0457156 0.0513755 0.0571523 0.063046 0.0690566 0.075184 0.0814284 0.0877896 0.0941455 0.100374 0.106474 0.112447 0.118292 0.12401 0.1296 0.135062 0.140348 0.14541 0.150247 0.154859 0.159247 0.163411 0.167349 0.171064 0.174579 0.17792 0.181087 0.18408 0.186899 0.189545 0.192016 0.194314 0.196496 0.198622 0.20069 0.202702 0.204657 0.206556 0.208397 0.210182 0.211945 0.213719 0.215505 0.217304 0.219114 0.220936 0.22277 0.224616 0.226446 0.228232 0.229973 0.231671 0.233325 0.234934 0.2365 0.238021 0.239416 0.240601 0.241576 0.242341 0.242896 0.243242 0.243377 0.24