<?xml version="1.0"?> 
<VTKFile type="StructuredGrid" version="0.1"> 
<StructuredGrid WholeExtent="0 128 0 128 0 0"> 
<Piece Extent="0 128 0 128 0 0"> 
<PointData>
<DataArray type="Float32" Name="u" format="ascii" NumberOfComponents="1"> 
0 0 0 0 0 0 0 0 0 0 0 0 0 0 0 0 0 0 0 0 0 0 0 0 0 0 0 0 0 0 0 0 0 0 0 0 0 0 0 0 0 0 0 0 0 0 0 0 0 0 0 0 0 0 0 0 0 0 0 0 0 0 0 0 0 0 0 0 0 0 0 0 0 0 0 0 0 0 0 0 0 0 0 0 0 0 0 0 0 0 0 0 0 0 0 0 0 0 0 0 0 0 0 0 0 0 0 0 0 0 0 0 0 0 0 0 0 0 0 0 0 0 0 0 0 0 0 0 0 0 2.0726e-07 8.29039e-07 1.86534e-06 3.31616e-06 5.18149e-06 7.46135e-06 1.01557e-05 1.32646e-05 1.69734e-05 2.14674e-05 2.67466e-05 3.2811e-05 3.96606e-05 4.72954e-05 5.57154e-05 6.49207e-05 7.46324e-05 8.45717e-05 9.47387e-05 0.000105133 0.000115756 0.000126605 0.000137683 0.000148988 0.000160254 0.000171215 0.00018187 0.000192219 0.000202263 0.000212001 0.000221433 0.00023056 0.000239304 0.000247589 0.000255415 0.00026278 0.000269687 0.000276134 0.000282121 0.000287649 0.000292811 0.0002977 0.000302316 0.00030666 0.00031073 0.000314528 0.000318054 0.000321306 0.000324443 0.000327623 0.000330845 0.00033411 0.000337417 0.000340767 0.00034416 0.000347595 0.000351156 0.000354929 0.000358912 0.000363106 0.000367511 0.000372127 0.000376953 0.00038199 0.00038716 0.000392385 0.000397664 0.000402997 0.000408385 0.000413827 0.000419324 0.000424875 0.000430261 0.00043526 0.000439873 0.0004441 0.00044794 0.000451395 0.000454463 0.000457145 0.000459204 0.000460403 0.000460743 0.000460223 0.000458844 0.000456605 0.000453507 0.000449549 0.000444641 0.000438694 0.000431707 0.000423681 0.000414615 0.000404509 0.000393364 0.000381179 0.000368124 0.00035437 0.000339917 0.000324765 0.000308913 0.000292362 0.000275111 0.000257161 0.000238968 0.000220988 0.00020322 0.000185665 0.000168322 0.000151192 0.000134275 0.00011757 0.000101609 8.69235e-05 7.3513e-05 6.13777e-05 5.05175e-05 4.09325e-05 3.26228e-05 2.55881e-05 1.95909e-05 1.43933e-05 9.99536e-06 6.39703e-06 3.59833e-06 1.59926e-06 3.99815e-07 0 0 8.29039e-07 3.31616e-06 7.46135e-06 1.32646e-05 2.0726e-05 2.98454e-05 4.06229e-05 5.30585e-05 6.78936e-05 8.58695e-05 0.000106986 0.000131244 0.000158642 0.000189182 0.000222862 0.000259683 0.00029853 0.000338287 0.000378955 0.000420533 0.000463022 0.000506422 0.000550732 0.000595952 0.000641017 0.000684859 0.000727479 0.000768876 0.000809051 0.000848003 0.000885733 0.00092224 0.000957218 0.000990357 0.00102166 0.00105112 0.00107875 0.00110453 0.00112848 0.0011506 0.00117124 0.0011908 0.00120926 0.00122664 0.00124292 0.00125811 0.00127221 0.00128522 0.00129777 0.00131049 0.00132338 0.00133644 0.00134967 0.00136307 0.00137664 0.00139038 0.00140463 0.00141971 0.00143565 0.00145242 0.00147004 0.00148851 0.00150781 0.00152796 0.00154864 0.00156954 0.00159065 0.00161199 0.00163354 0.00165531 0.0016773 0.0016995 0.00172104 0.00174104 0.00175949 0.0017764 0.00179176 0.00180558 0.00181785 0.00182858 0.00183681 0.00184161 0.00184297 0.00184089 0.00183538 0.00182642 0.00181403 0.0017982 0.00177857 0.00175478 0.00172683 0.00169472 0.00165846 0.00161804 0.00157345 0.00152471 0.0014725 0.00141748 0.00135967 0.00129906 0.00123565 0.00116945 0.00110044 0.00102865 0.000955873 0.000883951 0.00081288 0.000742659 0.000673289 0.000604769 0.000537099 0.00047028 0.000406437 0.000347694 0.000294052 0.000245511 0.00020207 0.00016373 0.000130491 0.000102353 7.83637e-05 5.75733e-05 3.99815e-05 2.55881e-05 1.43933e-05 6.39703e-06 1.59926e-06 0 0 1.86534e-06 7.46135e-06 1.6788e-05 2.98454e-05 4.66335e-05 6.71522e-05 9.14016e-05 0.000119382 0.000152761 0.000193206 0.000240719 0.000295299 0.000356945 0.000425659 0.000501439 0.000584286 0.000671691 0.000761145 0.000852648 0.000946199 0.0010418 0.00113945 0.00123915 0.00134089 0.00144229 0.00154093 0.00163683 0.00172997 0.00182036 0.00190801 0.0019929 0.00207504 0.00215374 0.0022283 0.00229873 0.00236502 0.00242718 0.0024852 0.00253909 0.00258884 0.0026353 0.0026793 0.00272085 0.00275994 0.00279657 0.00283076 0.00286248 0.00289175 0.00291999 0.00294861 0.00297761 0.00300699 0.00303676 0.00306691 0.00309744 0.00312835 0.00316041 0.00319436 0.00323021 0.00326795 0.0033076 0.00334914 0.00339258 0.00343791 0.00348444 0.00353146 0.00357897 0.00362697 0.00367547 0.00372445 0.00377392 0.00382388 0.00387235 0.00391734 0.00395886 0.0039969 0.00403146 0.00406255 0.00409016 0.0041143 0.00413283 0.00414363 0.00414669 0.00414201 0.00412959 0.00410945 0.00408156 0.00404594 0.00400177 0.00394825 0.00388537 0.00381313 0.00373153 0.00364058 0.00354027 0.00343061 0.00331312 0.00318933 0.00305925 0.00292288 0.00278021 0.00263125 0.002476 0.00231445 0.00215071 0.00198889 0.00182898 0.00167098 0.0015149 0.00136073 0.00120847 0.00105813 0.000914483 0.000782311 0.000661617 0.000552399 0.000454658 0.000368393 0.000293605 0.000230293 0.000176318 0.00012954 8.99583e-05 5.75733e-05 3.2385e-05 1.43933e-05 3.59833e-06 0 0 3.31616e-06 1.32646e-05 2.98454e-05 5.30585e-05 8.29039e-05 0.000119382 0.000162492 0.000212234 0.000271574 0.000343478 0.000427945 0.000524975 0.000634569 0.000756726 0.000891447 0.00103873 0.00119412 0.00135315 0.00151582 0.00168213 0.00185209 0.00202569 0.00220293 0.00238381 0.00256407 0.00273944 0.00290992 0.0030755 0.0032362 0.00339201 0.00354293 0.00368896 0.00382887 0.00396143 0.00408663 0.00420449 0.00431499 0.00441814 0.00451394 0.00460238 0.00468497 0.0047632 0.00483706 0.00490655 0.00497169 0.00503245 0.00508886 0.00514089 0.00519109 0.00524197 0.00529352 0.00534576 0.00539868 0.00545228 0.00550656 0.00556152 0.0056185 0.00567886 0.00574259 0.0058097 0.00588017 0.00595402 0.00603125 0.00611185 0.00619457 0.00627816 0.00636262 0.00644795 0.00653416 0.00662124 0.00670919 0.00679801 0.00688417 0.00696416 0.00703797 0.0071056 0.00716705 0.00722231 0.0072714 0.00731431 0.00734726 0.00736645 0.00737188 0.00736357 0.0073415 0.00730568 0.00725611 0.00719278 0.00711426 0.00701911 0.00690732 0.00677889 0.00663384 0.00647214 0.00629382 0.00609886 0.00588998 0.00566992 0.00543867 0.00519623 0.0049426 0.00467779 0.00440178 0.00411458 0.00382349 0.00353581 0.00325152 0.00297064 0.00269315 0.00241907 0.0021484 0.00188112 0.00162575 0.00139078 0.00117621 0.000982043 0.00080828 0.000654921 0.000521964 0.00040941 0.000313455 0.000230293 0.000159926 0.000102353 5.75733e-05 2.55881e-05 6.39703e-06 0 0 5.18149e-06 2.0726e-05 4.66335e-05 8.29039e-05 0.000129537 0.000186534 0.000253893 0.000331616 0.000424335 0.000536684 0.000668664 0.000820274 0.000991514 0.00118239 0.00139289 0.00162302 0.00186581 0.00211429 0.00236847 0.00262833 0.00289389 0.00316513 0.00344207 0.0037247 0.00400636 0.00428037 0.00454674 0.00480548 0.00505657 0.00530002 0.00553583 0.005764 0.00598261 0.00618973 0.00638536 0.00656951 0.00674217 0.00690334 0.00705303 0.00719123 0.00732027 0.0074425 0.0075579 0.00766649 0.00776826 0.00786321 0.00795134 0.00803265 0.00811108 0.00819057 0.00827113 0.00835275 0.00843544 0.00851918 0.00860399 0.00868987 0.00877891 0.00887322 0.0089728 0.00907765 0.00918777 0.00930316 0.00942383 0.00954976 0.00967901 0.00980962 0.00994159 0.0100749 0.0102096 0.0103457 0.0104831 0.0106219 0.0107565 0.0108815 0.0109968 0.0111025 0.0111985 0.0112849 0.0113616 0.0114286 0.0114801 0.0115101 0.0115186 0.0115056 0.0114711 0.0114151 0.0113377 0.0112387 0.011116 0.0109674 0.0107927 0.010592 0.0103654 0.0101127 0.00983409 0.00952946 0.0092031 0.00885925 0.00849793 0.00811911 0.00772282 0.00730904 0.00687778 0.00642904 0.00597421 0.0055247 0.0050805 0.00464162 0.00420805 0.0037798 0.00335687 0.00293925 0.00254023 0.00217309 0.00183782 0.00153444 0.00126294 0.00102331 0.000815569 0.000639703 0.000489773 0.000359833 0.000249884 0.000159926 8.99583e-05 3.99815e-05 9.99536e-06 0 0 7.46135e-06 2.98454e-05 6.71522e-05 0.000119382 0.000186534 0.000268609 0.000365606 0.000477527 0.000611042 0.000772825 0.000962876 0.00118119 0.00142778 0.00170263 0.00200576 0.00233715 0.00268677 0.00304458 0.00341059 0.0037848 0.0041672 0.00455779 0.00495658 0.00536357 0.00576915 0.00616373 0.00654731 0.00691989 0.00728146 0.00763203 0.0079716 0.00830016 0.00861496 0.00891321 0.00919492 0.0094601 0.00970872 0.00994081 0.0101564 0.0103554 0.0105412 0.0107172 0.0108834 0.0110397 0.0111863 0.011323 0.0114499 0.011567 0.01168 0.0117944 0.0119104 0.012028 0.012147 0.0122676 0.0123898 0.0125134 0.0126416 0.0127774 0.0129208 0.0130718 0.0132304 0.0133966 0.0135703 0.0137517 0.0139378 0.0141259 0.0143159 0.0145079 0.0147019 0.0148978 0.0150957 0.0152955 0.0154894 0.0156694 0.0158354 0.0159876 0.0161259 0.0162502 0.0163607 0.0164572 0.0165313 0.0165745 0.0165867 0.016568 0.0165184 0.0164378 0.0163262 0.0161838 0.0160071 0.015793 0.0155415 0.0152525 0.0149261 0.0145623 0.0141611 0.0137224 0.0132525 0.0127573 0.012237 0.0116915 0.0111209 0.010525 0.009904 0.00925781 0.00860286 0.00795556 0.00731592 0.00668393 0.0060596 0.00544292 0.00483389 0.00423252 0.00365793 0.00312925 0.00264647 0.0022096 0.00181863 0.00147357 0.00117442 0.000921173 0.000705273 0.00051816 0.000359833 0.000230293 0.00012954 5.75733e-05 1.43933e-05 0 0 1.01557e-05 4.06229e-05 9.14016e-05 0.000162492 0.000253893 0.000365606 0.000497631 0.000649967 0.000831696 0.0010519 0.00131058 0.00160774 0.00194337 0.00231747 0.00273006 0.00318111 0.00365699 0.00414401 0.00464219 0.00515153 0.00567202 0.00620366 0.00674646 0.00730042 0.00785246 0.00838952 0.00891162 0.00941873 0.00991087 0.010388 0.0108502 0.0112974 0.0117259 0.0121319 0.0125153 0.0128762 0.0132147 0.0135306 0.0138239 0.0140948 0.0143477 0.0145873 0.0148135 0.0150263 0.0152258 0.0154119 0.0155846 0.015744 0.0158977 0.0160535 0.0162114 0.0163714 0.0165335 0.0166976 0.0168638 0.0170321 0.0172067 0.0173915 0.0175867 0.0177922 0.018008 0.0182342 0.0184707 0.0187175 0.0189709 0.0192269 0.0194855 0.0197469 0.0200109 0.0202775 0.0205469 0.0208189 0.0210828 0.0213277 0.0215538 0.0217609 0.0219491 0.0221183 0.0222687 0.0224001 0.022501 0.0225597 0.0225764 0.0225509 0.0224833 0.0223736 0.0222218 0.0220279 0.0217874 0.021496 0.0211537 0.0207604 0.0203161 0.0198209 0.0192748 0.0186777 0.0180381 0.0173641 0.0166559 0.0159135 0.0151367 0.0143257 0.0134804 0.0126009 0.0117094 0.0108284 0.00995778 0.00909757 0.00824778 0.00740841 0.00657946 0.00576093 0.00497885 0.00425925 0.00360214 0.00300751 0.00247536 0.00200569 0.00159851 0.00125382 0.000959955 0.000705273 0.000489773 0.000313455 0.000176318 7.83637e-05 1.95909e-05 0 0 1.32646e-05 5.30585e-05 0.000119382 0.000212234 0.000331616 0.000477527 0.000649967 0.000848936 0.0010863 0.00137391 0.00171178 0.0020999 0.00253828 0.00302691 0.00356579 0.00415492 0.00477647 0.00541259 0.00606327 0.00672853 0.00740835 0.00810274 0.00881171 0.00953524 0.0102563 0.0109577 0.0116397 0.012302 0.0129448 0.0135681 0.0141717 0.0147558 0.0153155 0.0158457 0.0163465 0.0168179 0.01726 0.0176726 0.0180558 0.0184095 0.0187399 0.0190528 0.0193482 0.0196262 0.0198867 0.0201298 0.0203554 0.0205636 0.0207644 0.0209679 0.0211741 0.021383 0.0215947 0.0218091 0.0220262 0.0222461 0.022474 0.0227154 0.0229704 0.0232388 0.0235207 0.0238161 0.024125 0.0244474 0.0247783 0.0251126 0.0254505 0.0257918 0.0261366 0.026485 0.0268367 0.027192 0.0275367 0.0278566 0.0281519 0.0284224 0.0286682 0.0288893 0.0290856 0.0292573 0.029389 0.0294658 0.0294875 0.0294543 0.029366 0.0292227 0.0290244 0.0287711 0.028457 0.0280764 0.0276293 0.0271156 0.0265353 0.0258886 0.0251753 0.0243954 0.0235599 0.0226797 0.0217547 0.0207849 0.0197704 0.0187111 0.0176071 0.0164583 0.015294 0.0141432 0.0130061 0.0118825 0.0107726 0.0096763 0.00859359 0.00752448 0.00650299 0.0055631 0.00470483 0.00392817 0.00323312 0.00261968 0.00208786 0.00163764 0.00125382 0.000921173 0.000639703 0.00040941 0.000230293 0.000102353 2.55881e-05 0 0 1.70243e-05 6.8097e-05 0.000153218 0.000272388 0.000425606 0.000612873 0.000834189 0.00108955 0.0013938 0.00176178 0.00219347 0.00268889 0.00324803 0.0038709 0.00455749 0.0053078 0.00609917 0.00690895 0.00773712 0.00858369 0.00944866 0.010332 0.0112338 0.012154 0.013071 0.0139631 0.0148305 0.0156732 0.016491 0.017284 0.0180523 0.0187958 0.0195082 0.0201833 0.0208211 0.0214215 0.0219847 0.0225105 0.022999 0.0234502 0.0238716 0.0242707 0.0246476 0.0250022 0.0253345 0.0256446 0.0259325 0.026198 0.0264541 0.0267134 0.0269759 0.0272417 0.0275108 0.0277831 0.0280586 0.0283374 0.0286263 0.028932 0.0292546 0.0295942 0.0299506 0.0303238 0.030714 0.0311211 0.0315387 0.0319606 0.0323867 0.0328171 0.0332518 0.0336907 0.0341339 0.0345813 0.0350152 0.0354177 0.0357888 0.0361285 0.0364368 0.0367137 0.0369593 0.0371735 0.0373371 0.0374311 0.0374554 0.0374101 0.0372951 0.0371105 0.0368562 0.0365323 0.0361314 0.0356464 0.0350771 0.0344237 0.0336862 0.0328644 0.0319585 0.0309684 0.0299079 0.0287908 0.0276172 0.026387 0.0251002 0.0237568 0.0223568 0.0209002 0.0194239 0.0179648 0.0165227 0.0150978 0.0136901 0.0122994 0.0109259 0.00956949 0.00827325 0.00708021 0.00599037 0.00500372 0.00412027 0.00334001 0.00266295 0.00208908 0.00159945 0.00117511 0.000816046 0.00052227 0.000293777 0.000130567 3.26419e-05 0 0 2.16708e-05 8.66834e-05 0.000195038 0.000346733 0.000541771 0.00078015 0.00106187 0.00138693 0.00177317 0.00223841 0.00278266 0.00340591 0.00410816 0.00488942 0.00574969 0.00668896 0.00767904 0.00869172 0.00972701 0.0107849 0.0118654 0.0129685 0.0140942 0.0152426 0.0163869 0.0175005 0.0185834 0.0196356 0.0206571 0.021648 0.0226082 0.0235376 0.0244286 0.0252732 0.0260715 0.0268234 0.0275289 0.0281881 0.0288009 0.0293674 0.0298967 0.0303981 0.0308715 0.031317 0.0317346 0.0321242 0.0324858 0.0328196 0.033141 0.033466 0.0337944 0.0341263 0.0344616 0.0348004 0.0351427 0.0354884 0.035846 0.036224 0.0366223 0.0370409 0.0374798 0.037939 0.0384186 0.0389185 0.0394309 0.0399482 0.0404703 0.0409972 0.0415289 0.0420655 0.0426069 0.0431531 0.0436823 0.0441724 0.0446234 0.0450355 0.0454085 0.0457425 0.0460375 0.0462934 0.0464868 0.0465941 0.0466153 0.0465505 0.0463995 0.0461625 0.0458393 0.0454301 0.0449259 0.0443179 0.0436061 0.0427905 0.041871 0.0408477 0.0397205 0.0384896 0.0371719 0.0357845 0.0343274 0.0328006 0.0312042 0.029538 0.0278022 0.0259967 0.0241668 0.0223578 0.0205697 0.0188024 0.0170561 0.0153306 0.013626 0.0119423 0.0103326 0.00884999 0.00749457 0.00626628 0.00516514 0.00419114 0.00334429 0.00262457 0.00200944 0.00147632 0.00102522 0.000656143 0.000369081 0.000164036 4.1009e-05 0 0 2.72044e-05 0.000108818 0.000244839 0.00043527 0.000680109 0.000979358 0.00133301 0.00174108 0.0022244 0.00280382 0.00347934 0.00425095 0.00511867 0.00608248 0.0071424 0.00829841 0.00951607 0.0107609 0.012033 0.0133322 0.0146586 0.0160122 0.017393 0.018801 0.020204 0.0215697 0.0228981 0.0241893 0.0254432 0.0266599 0.0278393 0.0289814 0.0300767 0.0311154 0.0320977 0.0330234 0.0338926 0.0347053 0.0354615 0.0361611 0.0368153 0.0374349 0.0380201 0.0385707 0.0390868 0.0395685 0.0400156 0.0404282 0.0408252 0.0412257 0.0416294 0.0420366 0.0424472 0.0428611 0.0432784 0.0436991 0.0441333 0.0445914 0.0450733 0.0455789 0.0461084 0.0466616 0.0472387 0.0478395 0.0484548 0.0490754 0.0497011 0.050332 0.0509681 0.0516094 0.0522558 0.0529075 0.0535379 0.0541207 0.0546559 0.0551434 0.0555833 0.0559756 0.0563202 0.0566172 0.0568382 0.0569549 0.0569673 0.0568754 0.0566792 0.0563786 0.0559738 0.0554647 0.0548407 0.0540912 0.0532162 0.0522157 0.0510898 0.0498383 0.0484614 0.046959 0.0453518 0.0436605 0.0418852 0.0400259 0.0380825 0.036055 0.0339434 0.0317479 0.0295227 0.0273224 0.0251469 0.0229964 0.0208707 0.0187699 0.0166939 0.0146428 0.0126809 0.0108724 0.00921743 0.00771586 0.00636775 0.00517309 0.00413188 0.00324412 0.00248378 0.00182482 0.00126724 0.000811031 0.000456205 0.000202758 5.06894e-05 0 0 3.36249e-05 0.000134499 0.000302624 0.000537998 0.000840622 0.0012105 0.00164762 0.00215199 0.00274749 0.003458 0.00428351 0.00522402 0.00627955 0.00745007 0.00873561 0.0101361 0.0116103 0.0131165 0.014655 0.0162255 0.0178283 0.0194631 0.0211302 0.0228293 0.0245224 0.0261709 0.0277748 0.0293343 0.0308493 0.0323198 0.0337457 0.0351272 0.0364525 0.03771 0.0388997 0.0400216 0.0410757 0.0420621 0.0429806 0.0438314 0.0446273 0.0453812 0.0460932 0.0467633 0.0473913 0.0479775 0.0485217 0.0490239 0.0495067 0.0499924 0.0504811 0.0509728 0.0514675 0.0519652 0.0524658 0.0529694 0.0534882 0.0540342 0.0546076 0.0552083 0.0558363 0.0564917 0.0571743 0.0578843 0.0586105 0.0593422 0.0600792 0.0608215 0.0615692 0.0623223 0.0630807 0.0638444 0.0645822 0.0652628 0.0658862 0.0664524 0.0669613 0.067413 0.0678074 0.0681447 0.0683912 0.0685133 0.0685112 0.0683848 0.068134 0.067759 0.0672597 0.066636 0.0658756 0.0649661 0.0639074 0.0626995 0.0613425 0.0598364 0.058181 0.0563766 0.0544477 0.0524191 0.0502907 0.0480627 0.045735 0.0433076 0.0407804 0.0381536 0.0354915 0.0328584 0.0302545 0.0276796 0.0251339 0.0226172 0.0201296 0.0176712 0.0153183 0.0131476 0.0111589 0.00935245 0.00772809 0.00628585 0.00502573 0.00394773 0.00302248 0.0022206 0.00154208 0.000986933 0.00055515 0.000246733 6.16833e-05 0 0 4.09323e-05 0.000163729 0.000368391 0.000654917 0.00102331 0.00147356 0.00200568 0.00261967 0.00334245 0.00420095 0.00519518 0.00632513 0.0075908 0.0089922 0.0105293 0.0122022 0.0139616 0.0157586 0.017593 0.0194649 0.0213743 0.0233212 0.0253056 0.0273275 0.0293419 0.0313039 0.0332135 0.0350706 0.0368753 0.0386276 0.0403274 0.0419748 0.0435559 0.0450568 0.0464775 0.0478181 0.0490784 0.0502585 0.0513585 0.0523782 0.0533327 0.054237 0.0550909 0.0558946 0.0566481 0.0573512 0.0580041 0.0586067 0.0591854 0.0597663 0.0603494 0.0609349 0.0615226 0.0621126 0.0627049 0.0632994 0.0639105 0.0645525 0.0652254 0.0659291 0.0666637 0.0674292 0.0682255 0.0690527 0.069898 0.0707486 0.0716045 0.0724658 0.0733323 0.0742042 0.0750814 0.0759639 0.0768151 0.0775986 0.0783143 0.0789622 0.0795423 0.0800547 0.0804992 0.080876 0.0811458 0.0812695 0.0812472 0.0810787 0.0807642 0.0803036 0.0796968 0.078944 0.0780307 0.0769426 0.0756797 0.0742419 0.0726293 0.0708418 0.0688795 0.0667424 0.0644595 0.06206 0.0595439 0.0569112 0.0541618 0.0512958 0.0483132 0.045214 0.0420732 0.038966 0.0358923 0.0328522 0.0298456 0.0268726 0.0239332 0.0210273 0.0182447 0.0156753 0.0133191 0.0111761 0.00924616 0.00752941 0.00602582 0.0047354 0.00362554 0.00266366 0.00184976 0.00118385 0.000665915 0.000295962 7.39906e-05 0 0 4.91267e-05 0.000196507 0.00044214 0.000786027 0.00122817 0.00176856 0.00240721 0.00314411 0.00400926 0.00503267 0.00621434 0.00755425 0.00905243 0.0107089 0.0125235 0.0144965 0.0165701 0.018687 0.0208471 0.0230504 0.0252969 0.0275866 0.0299195 0.0322956 0.0346628 0.0369689 0.0392141 0.0413982 0.0435213 0.0455834 0.0475844 0.0495244 0.0513871 0.053156 0.0548312 0.0564127 0.0579005 0.0592946 0.0605949 0.0618016 0.0629316 0.0640022 0.0650133 0.0659649 0.066857 0.0676897 0.0684629 0.0691767 0.0698613 0.0705472 0.0712343 0.0719228 0.0726124 0.0733034 0.0739956 0.0746891 0.0754004 0.0761462 0.0769264 0.0777412 0.0785904 0.0794741 0.0803922 0.0813448 0.0823172 0.0832947 0.0842772 0.0852648 0.0862575 0.0872552 0.088258 0.0892659 0.0902366 0.0911281 0.0919402 0.092673 0.0933265 0.0939007 0.0943955 0.094811 0.0951021 0.0952235 0.0951752 0.0949572 0.0945696 0.0940123 0.0932854 0.0923888 0.091306 0.0900208 0.0885331 0.0868428 0.08495 0.0828546 0.0805568 0.0780564 0.0753874 0.0725835 0.0696448 0.0665713 0.0633629 0.0600198 0.0565418 0.052929 0.0492679 0.045645 0.0420604 0.0385141 0.035006 0.0315361 0.0281045 0.0247111 0.0214602 0.0184558 0.015698 0.0131867 0.010922 0.00890379 0.00713217 0.00560712 0.00429295 0.003154 0.00219028 0.00140178 0.000788501 0.000350445 8.76112e-05 0 0 5.8208e-05 0.000232832 0.000523872 0.000931328 0.0014552 0.00209549 0.00285219 0.00372531 0.00474794 0.00595317 0.00734099 0.00891141 0.0106644 0.0126 0.0147183 0.0170191 0.0194358 0.0219019 0.0244172 0.0269819 0.0295958 0.0322591 0.0349716 0.0377335 0.0404848 0.0431659 0.0457766 0.0483171 0.0507872 0.0531871 0.0555167 0.057776 0.0599459 0.0620075 0.0639607 0.0658056 0.0675421 0.0691703 0.07069 0.0721015 0.0734239 0.0746768 0.0758602 0.076974 0.0780182 0.0789929 0.0798981 0.0807337 0.0815345 0.0823352 0.0831359 0.0839365 0.0847371 0.0855376 0.086338 0.0871384 0.0879578 0.0888153 0.0897109 0.0906446 0.0916165 0.0926264 0.0936745 0.0947606 0.0958682 0.0969803 0.0980971 0.0992185 0.100345 0.101475 0.102611 0.10375 0.104847 0.105851 0.106764 0.107585 0.108314 0.108951 0.109496 0.10995 0.11026 0.110375 0.110295 0.11002 0.10955 0.108885 0.108025 0.10697 0.105702 0.104201 0.102468 0.100502 0.0983047 0.0958749 0.0932129 0.0903187 0.0872312 0.0839894 0.0805933 0.077043 0.0733383 0.0694794 0.0654661 0.0612986 0.0570755 0.0528956 0.0487588 0.0446653 0.0406149 0.0366077 0.0326436 0.0287228 0.0249647 0.0214889 0.0182955 0.0153843 0.0127555 0.010409 0.00834477 0.00656289 0.00502471 0.00369163 0.00256363 0.00164072 0.000922907 0.000410181 0.000102545 0 0 6.81763e-05 0.000272705 0.000613587 0.00109082 0.00170441 0.00245435 0.00334064 0.00436328 0.00555848 0.00696243 0.00857514 0.0103966 0.0124268 0.0146658 0.0171135 0.01977 0.0225587 0.0254032 0.0283034 0.0312595 0.0342712 0.0373388 0.0404621 0.0436412 0.0468081 0.0498947 0.0529011 0.0558272 0.0586731 0.0614388 0.0641242 0.0667294 0.0692324 0.0716113 0.0738661 0.0759967 0.0780032 0.0798856 0.0816438 0.0832779 0.0848097 0.0862609 0.0876317 0.0889219 0.0901317 0.0912609 0.0923096 0.0932778 0.0942049 0.0951303 0.096054 0.0969761 0.0978964 0.0988151 0.0997321 0.100647 0.101583 0.10256 0.103579 0.104639 0.105742 0.106886 0.108072 0.1093 0.110551 0.111806 0.113064 0.114327 0.115594 0.116864 0.118139 0.119418 0.120645 0.121768 0.122785 0.123697 0.124504 0.125206 0.125802 0.126292 0.12662 0.126724 0.126607 0.126268 0.125706 0.124922 0.123916 0.122688 0.121217 0.119482 0.117483 0.11522 0.112693 0.109903 0.106848 0.103529 0.099991 0.0962778 0.0923895 0.0883263 0.084088 0.0796746 0.0750862 0.0703228 0.065496 0.0607176 0.0559875 0.0513058 0.0466724 0.0420873 0.0375506 0.0330622 0.0287583 0.0247747 0.0211116 0.017769 0.0147467 0.012045 0.00966363 0.00760273 0.00582084 0.00427653 0.00296981 0.00190068 0.00106913 0.00047517 0.000118793 0 0 7.88654e-05 0.000315462 0.000709789 0.00126185 0.00197164 0.00283915 0.00386441 0.00504739 0.0064274 0.00804375 0.00989643 0.0119854 0.0143108 0.0168725 0.0196705 0.0227048 0.0258886 0.0291348 0.0324435 0.0358146 0.0392482 0.0427442 0.0463027 0.0499237 0.0535305 0.0570466 0.060472 0.0638066 0.0670506 0.0702038 0.0732663 0.076238 0.079094 0.0818092 0.0843836 0.0868172 0.0891099 0.0912618 0.093273 0.0951433 0.096897 0.0985584 0.100128 0.101604 0.102989 0.104281 0.105481 0.106589 0.107648 0.108704 0.109756 0.110804 0.111848 0.112888 0.113925 0.114958 0.116011 0.11711 0.118254 0.119444 0.120678 0.121958 0.123283 0.124653 0.126048 0.127446 0.128846 0.13025 0.131657 0.133067 0.13448 0.135896 0.137254 0.138493 0.139613 0.140613 0.141494 0.142255 0.142897 0.14342 0.143758 0.143846 0.143684 0.143271 0.142609 0.141696 0.140533 0.139119 0.137433 0.135449 0.133169 0.130593 0.12772 0.12455 0.121083 0.11732 0.113311 0.109105 0.104703 0.100104 0.095309 0.0903176 0.0851298 0.0797457 0.0742901 0.0688882 0.0635399 0.0582452 0.0530042 0.0478168 0.042683 0.0376028 0.0327295 0.0282161 0.0240626 0.0202692 0.0168356 0.013762 0.0110484 0.00869475 0.00665692 0.0048908 0.00339639 0.00217369 0.0012227 0.000543422 0.000135856 0 0 9.01092e-05 0.000360437 0.000810982 0.00144175 0.00225273 0.00324393 0.00441535 0.00576699 0.00734121 0.00918039 0.0112845 0.0136536 0.0162876 0.0191866 0.0223506 0.0257795 0.0293755 0.0330407 0.0367751 0.0405788 0.0444516 0.0483937 0.0524051 0.0564856 0.0605499 0.0645127 0.0683738 0.0721332 0.0757911 0.0793473 0.082802 0.086155 0.0893781 0.092443 0.0953497 0.0980981 0.100688 0.10312 0.105394 0.10751 0.109494 0.111373 0.113147 0.114817 0.116381 0.117841 0.119196 0.120445 0.121639 0.122827 0.124007 0.125182 0.126349 0.12751 0.128664 0.129812 0.13098 0.132197 0.133462 0.134775 0.136137 0.137547 0.139004 0.140511 0.142042 0.143575 0.145111 0.146648 0.148187 0.149728 0.151271 0.152816 0.154296 0.155641 0.156854 0.157933 0.158878 0.15969 0.160369 0.160914 0.161254 0.161315 0.161098 0.160602 0.159829 0.158777 0.157447 0.155839 0.153927 0.151686 0.149115 0.146216 0.142987 0.139429 0.135541 0.131325 0.126835 0.122127 0.117202 0.112059 0.106699 0.101121 0.0953247 0.0893112 0.0832183 0.0771843 0.0712093 0.0652932 0.059436 0.0536377 0.0478984 0.042218 0.036767 0.0317159 0.0270647 0.0228134 0.018962 0.0155105 0.0124588 0.00980712 0.00750858 0.0055165 0.00383091 0.00245178 0.00137913 0.000612945 0.000153236 0 0 0.000101908 0.00040763 0.000917168 0.00163052 0.00254769 0.00366867 0.00499347 0.00652208 0.00829991 0.0103724 0.0127394 0.0154011 0.0183574 0.0216082 0.0251538 0.0289939 0.0330193 0.0371208 0.0412984 0.045552 0.0498817 0.0542874 0.0587692 0.063327 0.0678664 0.0722929 0.0766065 0.0808071 0.0848948 0.0888695 0.0927314 0.0964803 0.100085 0.103513 0.106764 0.10984 0.112739 0.115461 0.118008 0.120378 0.122601 0.124705 0.126691 0.128559 0.130309 0.13194 0.133453 0.134848 0.136179 0.137499 0.13881 0.14011 0.1414 0.14268 0.14395 0.145209 0.14649 0.14782 0.149202 0.150634 0.152118 0.153652 0.155236 0.156872 0.158533 0.160195 0.161857 0.16352 0.165183 0.166847 0.168512 0.170177 0.171769 0.173213 0.174509 0.175657 0.176658 0.177511 0.178217 0.178775 0.179106 0.17913 0.178849 0.178261 0.177367 0.176167 0.17466 0.172847 0.1707 0.168192 0.165321 0.162089 0.158495 0.15454 0.150222 0.145543 0.140563 0.135345 0.129888 0.124192 0.118257 0.112083 0.105671 0.0990193 0.0922806 0.0856061 0.0789958 0.0724497 0.0659679 0.0595503 0.0531969 0.0469078 0.0408709 0.0352742 0.0301178 0.0254017 0.0211259 0.0172902 0.0138949 0.0109398 0.0083758 0.00615365 0.00427337 0.00273496 0.00153841 0.000683739 0.000170935 0 0 0.000114261 0.000457043 0.00102835 0.00182817 0.00285652 0.00411338 0.00559877 0.00731268 0.00930351 0.0116196 0.0142611 0.0172279 0.0205199 0.0241373 0.02808 0.032348 0.0368202 0.0413752 0.0460133 0.0507343 0.0555383 0.0604252 0.0653951 0.070448 0.07548 0.0803873 0.0851701 0.0898281 0.0943615 0.0987703 0.103054 0.107214 0.111214 0.115018 0.118627 0.122042 0.125261 0.128285 0.131114 0.133747 0.136217 0.138555 0.14076 0.142832 0.144772 0.14658 0.148255 0.149797 0.151266 0.152721 0.154162 0.155588 0.157 0.158398 0.159781 0.16115 0.162539 0.16398 0.165474 0.167021 0.168621 0.170273 0.171979 0.173737 0.175521 0.177304 0.179086 0.180867 0.182646 0.184425 0.186202 0.187979 0.189674 0.191207 0.192577 0.193786 0.194833 0.195718 0.196441 0.197002 0.197315 0.197293 0.196937 0.196247 0.195223 0.193864 0.192171 0.190144 0.187753 0.184967 0.181787 0.178213 0.174245 0.169882 0.165125 0.159974 0.154496 0.148758 0.14276 0.136502 0.129984 0.123206 0.116168 0.10887 0.101477 0.0941534 0.0868993 0.0797148 0.0725998 0.0655543 0.0585784 0.0516721 0.045041 0.038891 0.033222 0.0280341 0.0233272 0.0191014 0.0153566 0.0120929 0.00925859 0.00680223 0.00472377 0.00302321 0.00170056 0.000755804 0.000188951 0 0 0.000127168 0.000508673 0.00114452 0.00203469 0.00317921 0.00457806 0.00623125 0.00813878 0.010352 0.0129223 0.0158496 0.0191339 0.0227754 0.0267738 0.0311293 0.0358419 0.0407779 0.0458039 0.0509198 0.0561257 0.0614215 0.0668072 0.0722828 0.0778484 0.0833906 0.088796 0.0940646 0.0991964 0.104191 0.10905 0.113771 0.118356 0.122765 0.126959 0.130939 0.134704 0.138254 0.14159 0.144711 0.147618 0.150343 0.152921 0.155352 0.157635 0.15977 0.161758 0.163599 0.165292 0.166902 0.168493 0.170064 0.171617 0.17315 0.174664 0.176159 0.177635 0.179128 0.180676 0.182279 0.183935 0.185646 0.187412 0.189232 0.191106 0.193006 0.194903 0.196797 0.198688 0.200576 0.202461 0.204343 0.206222 0.208011 0.209624 0.21106 0.21232 0.213403 0.21431 0.215041 0.215595 0.21588 0.215803 0.215363 0.214561 0.213397 0.21187 0.209981 0.20773 0.205084 0.202012 0.198513 0.194587 0.190235 0.185456 0.180251 0.174619 0.168633 0.162366 0.155818 0.14899 0.14188 0.134489 0.126817 0.118864 0.110807 0.102826 0.0949199 0.0870883 0.0793317 0.0716499 0.064043 0.0565109 0.0492774 0.0425662 0.0363772 0.0307105 0.0255661 0.0209439 0.0168439 0.0132662 0.010157 0.00746225 0.00518212 0.00331656 0.00186556 0.000829139 0.000207285 0 0 0.000140631 0.000562523 0.00126568 0.00225009 0.00351577 0.00506271 0.00689091 0.00900037 0.0114454 0.0142802 0.0175049 0.0211193 0.0251236 0.0295178 0.0343017 0.0394755 0.0448927 0.0504069 0.056018 0.0617261 0.0675312 0.0734333 0.0794323 0.0855284 0.0915982 0.0975188 0.10329 0.108912 0.114384 0.119708 0.124882 0.129906 0.134739 0.139336 0.143699 0.147827 0.15172 0.155378 0.158801 0.16199 0.164979 0.167805 0.170468 0.172968 0.175304 0.177477 0.179487 0.181333 0.183086 0.184814 0.186517 0.188196 0.18985 0.191479 0.193083 0.194663 0.196258 0.197909 0.199615 0.201377 0.203194 0.205067 0.206995 0.208979 0.210988 0.212992 0.21499 0.216984 0.218972 0.220955 0.222933 0.224905 0.22678 0.228464 0.229956 0.231258 0.232369 0.233288 0.234017 0.234555 0.234802 0.234659 0.234126 0.233202 0.231888 0.230184 0.228089 0.225604 0.222695 0.219326 0.215498 0.211212 0.206467 0.201262 0.195599 0.189477 0.182974 0.17617 0.169063 0.161654 0.153944 0.145931 0.137616 0.129 0.120272 0.111625 0.103057 0.0945705 0.0861637 0.077837 0.0695906 0.0614244 0.0535802 0.0462999 0.0395835 0.033431 0.0278424 0.0228177 0.0183569 0.0144599 0.0110709 0.00813372 0.00564841 0.00361498 0.00203343 0.000903746 0.000225937 0 0 0.000154648 0.000618591 0.00139183 0.00247436 0.00386619 0.00556732 0.00757774 0.00989746 0.0125836 0.0156935 0.0192269 0.023184 0.0275648 0.0323692 0.0375972 0.0432489 0.0491644 0.055184 0.0613078 0.0675356 0.0738675 0.0803035 0.0868436 0.0934878 0.100103 0.106556 0.112846 0.118975 0.124941 0.130744 0.136386 0.141865 0.147135 0.152149 0.156908 0.16141 0.165657 0.169648 0.173384 0.176863 0.180125 0.183206 0.186108 0.188831 0.191373 0.193735 0.195918 0.197921 0.199818 0.201685 0.20352 0.205325 0.207099 0.208842 0.210553 0.212234 0.213928 0.215678 0.217484 0.219346 0.221264 0.223239 0.225269 0.227356 0.229467 0.23157 0.233666 0.235754 0.237835 0.239908 0.241973 0.24403 0.245981 0.247726 0.249266 0.2506 0.251729 0.252652 0.253369 0.253881 0.254081 0.253863 0.253226 0.252171 0.250698 0.248806 0.246496