<?xml version="1.0"?> 
<VTKFile type="StructuredGrid" version="0.1"> 
<StructuredGrid WholeExtent="0 128 0 128 0 0"> 
<Piece Extent="0 128 0 128 0 0"> 
<PointData>
<DataArray type="Float32" Name="u" format="ascii" NumberOfComponents="1"> 
0 0 0 0 0 0 0 0 0 0 0 0 0 0 0 0 0 0 0 0 0 0 0 0 0 0 0 0 0 0 0 0 0 0 0 0 0 0 0 0 0 0 0 0 0 0 0 0 0 0 0 0 0 0 0 0 0 0 0 0 0 0 0 0 0 0 0 0 0 0 0 0 0 0 0 0 0 0 0 0 0 0 0 0 0 0 0 0 0 0 0 0 0 0 0 0 0 0 0 0 0 0 0 0 0 0 0 0 0 0 0 0 0 0 0 0 0 0 0 0 0 0 0 0 0 0 0 0 0 0 2.87242e-07 1.14897e-06 2.58518e-06 4.59587e-06 7.18105e-06 1.03407e-05 1.40749e-05 1.83835e-05 2.34863e-05 2.96028e-05 3.67331e-05 4.48772e-05 5.4035e-05 6.42067e-05 7.53921e-05 8.75912e-05 0.000100355 0.000113234 0.000126229 0.000139339 0.000152564 0.000165905 0.000179361 0.000192932 0.000206218 0.000218817 0.000230728 0.000241953 0.000252491 0.000262341 0.000271504 0.000279981 0.000287706 0.000294617 0.000300714 0.000305997 0.000310465 0.000314118 0.000316957 0.000318982 0.000320445 0.0003216 0.000322446 0.000322983 0.000323211 0.00032313 0.000322741 0.000322043 0.000321406 0.0003212 0.000321424 0.000322078 0.000323163 0.000324678 0.000326624 0.000329 0.000332014 0.000335873 0.000340576 0.000346124 0.000352518 0.000359756 0.000367839 0.000376766 0.000386396 0.000396584 0.000407331 0.000418637 0.000430502 0.000442925 0.000455907 0.000469448 0.000483091 0.000496379 0.000509311 0.000521887 0.000534109 0.000545975 0.000557486 0.000568641 0.000578927 0.00058783 0.000595349 0.000601484 0.000606236 0.000609604 0.000611589 0.00061219 0.000611165 0.000608272 0.000603511 0.000596881 0.000588384 0.000578018 0.000565784 0.000551681 0.000535952 0.000518838 0.000500339 0.000480454 0.000459185 0.00043653 0.000412491 0.000387066 0.000361003 0.000335048 0.000309201 0.000283463 0.000257833 0.000232311 0.000206897 0.000181591 0.000157289 0.000134883 0.000114375 9.5764e-05 7.90504e-05 6.4234e-05 5.13148e-05 4.02929e-05 3.08493e-05 2.26648e-05 1.57394e-05 1.00732e-05 5.6662e-06 2.51831e-06 6.29577e-07 0 0 1.14897e-06 4.59587e-06 1.03407e-05 1.83835e-05 2.87242e-05 4.13629e-05 5.62994e-05 7.3534e-05 9.3945e-05 0.000118411 0.000146932 0.000179509 0.00021614 0.000256827 0.000301568 0.000350365 0.00040142 0.000452937 0.000504915 0.000557355 0.000610256 0.000663619 0.000717444 0.00077173 0.000824873 0.000875267 0.000922914 0.000967812 0.00100996 0.00104936 0.00108602 0.00111992 0.00115083 0.00117847 0.00120286 0.00122399 0.00124186 0.00125647 0.00126783 0.00127593 0.00128178 0.0012864 0.00128978 0.00129193 0.00129284 0.00129252 0.00129096 0.00128817 0.00128563 0.0012848 0.00128569 0.00128831 0.00129265 0.00129871 0.0013065 0.001316 0.00132806 0.00134349 0.0013623 0.0013845 0.00141007 0.00143902 0.00147135 0.00150707 0.00154558 0.00158634 0.00162932 0.00167455 0.00172201 0.0017717 0.00182363 0.00187779 0.00193236 0.00198551 0.00203724 0.00208755 0.00213644 0.0021839 0.00222994 0.00227457 0.00231571 0.00235132 0.00238139 0.00240594 0.00242494 0.00243842 0.00244636 0.00244876 0.00244466 0.00243309 0.00241404 0.00238753 0.00235353 0.00231207 0.00226313 0.00220672 0.00214381 0.00207535 0.00200135 0.00192182 0.00183674 0.00174612 0.00164996 0.00154826 0.00144401 0.00134019 0.0012368 0.00113385 0.00103133 0.000929243 0.000827588 0.000726366 0.000629155 0.000539533 0.0004575 0.000383056 0.000316201 0.000256936 0.000205259 0.000161172 0.000123397 9.06591e-05 6.29577e-05 4.02929e-05 2.26648e-05 1.00732e-05 2.51831e-06 0 0 2.58518e-06 1.03407e-05 2.32666e-05 4.13629e-05 6.46295e-05 9.30664e-05 0.000126674 0.000165451 0.000211376 0.000266425 0.000330598 0.000403895 0.000486315 0.00057786 0.000678528 0.000788321 0.000903195 0.00101911 0.00113606 0.00125405 0.00137308 0.00149314 0.00161425 0.00173639 0.00185596 0.00196935 0.00207656 0.00217758 0.00227241 0.00236107 0.00244354 0.00251983 0.00258936 0.00265156 0.00270643 0.00275397 0.00279418 0.00282706 0.00285262 0.00287084 0.00288401 0.0028944 0.00290201 0.00290684 0.0029089 0.00290817 0.00290467 0.00289839 0.00289266 0.0028908 0.00289281 0.0028987 0.00290846 0.0029221 0.00293961 0.002961 0.00298812 0.00302285 0.00306518 0.00311512 0.00317266 0.0032378 0.00331055 0.0033909 0.00347756 0.00356926 0.00366598 0.00376773 0.00387452 0.00398633 0.00410317 0.00422504 0.00434782 0.00446741 0.0045838 0.00469699 0.00480698 0.00491377 0.00501737 0.00511777 0.00521035 0.00529047 0.00535814 0.00541336 0.00545612 0.00548644 0.0055043 0.00550971 0.00550049 0.00547445 0.0054316 0.00537193 0.00529545 0.00520216 0.00509205 0.00496513 0.00482357 0.00466954 0.00450305 0.00432409 0.00413266 0.00392877 0.00371242 0.00348359 0.00324903 0.00301543 0.00278281 0.00255117 0.00232049 0.0020908 0.00186207 0.00163432 0.0014156 0.00121395 0.00102937 0.000861876 0.000711453 0.000578106 0.000461833 0.000362636 0.000277644 0.000203983 0.000141655 9.06591e-05 5.09958e-05 2.26648e-05 5.6662e-06 0 0 4.59587e-06 1.83835e-05 4.13629e-05 7.3534e-05 0.000114897 0.000165451 0.000225198 0.000294136 0.00037578 0.000473645 0.000587729 0.000718035 0.00086456 0.00102731 0.00120627 0.00140146 0.00160568 0.00181175 0.00201966 0.00222942 0.00244102 0.00265448 0.00286977 0.00308692 0.00329949 0.00350107 0.00369166 0.00387125 0.00403985 0.00419746 0.00434407 0.00447969 0.0046033 0.00471388 0.00481143 0.00489595 0.00496743 0.00502589 0.00507132 0.00510371 0.00512713 0.0051456 0.00515913 0.00516772 0.00517137 0.00517009 0.00516386 0.00515269 0.0051425 0.0051392 0.00514278 0.00515325 0.0051706 0.00519485 0.00522598 0.005264 0.00531222 0.00537396 0.00544922 0.00553799 0.00564028 0.00575609 0.00588542 0.00602826 0.00618233 0.00634535 0.0065173 0.00669819 0.00688803 0.0070868 0.00729452 0.00751117 0.00772946 0.00794206 0.00814897 0.0083502 0.00854574 0.0087356 0.00891977 0.00909826 0.00926284 0.00940528 0.00952558 0.00962374 0.00969977 0.00975367 0.00978542 0.00979504 0.00977864 0.00973235 0.00965617 0.0095501 0.00941414 0.00924828 0.00905254 0.0088269 0.00857523 0.00830141 0.00800542 0.00768727 0.00734696 0.00698448 0.00659985 0.00619306 0.00577604 0.00536077 0.00494722 0.0045354 0.00412532 0.00371697 0.00331035 0.00290546 0.00251662 0.00215813 0.00183 0.00153222 0.00126481 0.00102774 0.000821037 0.000644687 0.000493589 0.000362636 0.000251831 0.000161172 9.06591e-05 4.02929e-05 1.00732e-05 0 0 7.18105e-06 2.87242e-05 6.46295e-05 0.000114897 0.000179526 0.000258518 0.000351872 0.000459587 0.000587156 0.00074007 0.000918327 0.00112193 0.00135088 0.00160517 0.0018848 0.00218978 0.00250887 0.00283085 0.00315572 0.00348347 0.0038141 0.00414762 0.00448402 0.00482331 0.00515545 0.00547042 0.00576821 0.00604883 0.00631226 0.00655852 0.00678761 0.00699952 0.00719266 0.00736544 0.00751786 0.00764992 0.00776162 0.00785296 0.00792393 0.00797455 0.00801113 0.00804 0.00806114 0.00807456 0.00808027 0.00807826 0.00806853 0.00805108 0.00803516 0.00802999 0.00803559 0.00805195 0.00807907 0.00811695 0.00816559 0.008225 0.00830035 0.00839681 0.0085144 0.00865311 0.00881294 0.00899389 0.00919596 0.00941916 0.00965989 0.0099146 0.0101833 0.0104659 0.0107625 0.0110731 0.0113977 0.0117362 0.0120773 0.0124095 0.0127328 0.0130472 0.0133527 0.0136494 0.0139371 0.014216 0.0144732 0.0146957 0.0148837 0.0150371 0.0151559 0.0152401 0.0152897 0.0153047 0.0152791 0.0152068 0.0150878 0.014922 0.0147096 0.0144504 0.0141446 0.013792 0.0133988 0.0129709 0.0125085 0.0120114 0.0114796 0.0109133 0.0103123 0.00967665 0.00902507 0.0083762 0.00773003 0.00708657 0.00644581 0.00580777 0.00517242 0.00453979 0.00393222 0.00337208 0.00285937 0.0023941 0.00197626 0.00160585 0.00128287 0.00100732 0.000771232 0.00056662 0.000393486 0.000251831 0.000141655 6.29577e-05 1.57394e-05 0 0 1.03407e-05 4.13629e-05 9.30664e-05 0.000165451 0.000258518 0.000372266 0.000506695 0.000661806 0.000845505 0.0010657 0.00132239 0.00161558 0.00194526 0.00231144 0.00271411 0.00315328 0.00361278 0.00407643 0.00454423 0.00501619 0.0054923 0.00597257 0.00645699 0.00694557 0.00742386 0.00787741 0.00830623 0.00871031 0.00908966 0.00944428 0.00977416 0.0100793 0.0103574 0.0106062 0.0108257 0.0110159 0.0111767 0.0113083 0.0114105 0.0114834 0.011536 0.0115776 0.011608 0.0116274 0.0116356 0.0116327 0.0116187 0.0115936 0.0115706 0.0115632 0.0115712 0.0115948 0.0116339 0.0116884 0.0117585 0.011844 0.0119525 0.0120914 0.0122607 0.0124605 0.0126906 0.0129512 0.0132422 0.0135636 0.0139102 0.014277 0.0146639 0.0150709 0.0154981 0.0159453 0.0164127 0.0169001 0.0173913 0.0178696 0.0183352 0.0187879 0.0192279 0.0196551 0.0200695 0.0204711 0.0208414 0.0211619 0.0214326 0.0216534 0.0218245 0.0219457 0.0220172 0.0220388 0.0220019 0.0218978 0.0217264 0.0214877 0.0211818 0.0208086 0.0203682 0.0198605 0.0192943 0.0186782 0.0180122 0.0172964 0.0165307 0.0157151 0.0148497 0.0139344 0.0129961 0.0120617 0.0111312 0.0102047 0.00928197 0.00836318 0.00744829 0.00653729 0.00566239 0.00485579 0.0041175 0.00344751 0.00284581 0.00231242 0.00184733 0.00145055 0.00111057 0.000815932 0.00056662 0.000362636 0.000203983 9.06591e-05 2.26648e-05 0 0 1.40749e-05 5.62994e-05 0.000126674 0.000225198 0.000351872 0.000506695 0.000689668 0.000900791 0.00115083 0.00145054 0.00179992 0.00219898 0.00264772 0.00314613 0.00369421 0.00429197 0.00491739 0.00554847 0.00618521 0.00682759 0.00747564 0.00812933 0.00878869 0.00945369 0.0101047 0.010722 0.0113057 0.0118557 0.012372 0.0128547 0.0133037 0.0137191 0.0140976 0.0144363 0.014735 0.0149938 0.0152128 0.0153918 0.0155309 0.0156301 0.0157018 0.0157584 0.0157998 0.0158261 0.0158373 0.0158334 0.0158143 0.0157801 0.0157489 0.0157388 0.0157498 0.0157818 0.015835 0.0159092 0.0160046 0.016121 0.0162687 0.0164578 0.0166882 0.0169601 0.0172734 0.017628 0.0180241 0.0184615 0.0189334 0.0194326 0.0199592 0.0205132 0.0210946 0.0217033 0.0223395 0.023003 0.0236715 0.0243225 0.0249562 0.0255725 0.0261713 0.0267528 0.0273168 0.0278634 0.0283674 0.0288037 0.0291721 0.0294727 0.0297056 0.0298706 0.0299679 0.0299973 0.0299471 0.0298053 0.029572 0.0292472 0.0288308 0.0283229 0.0277234 0.0270324 0.0262616 0.0254231 0.0245166 0.0235423 0.0225001 0.02139 0.020212 0.0189662 0.0176891 0.0164173 0.0151509 0.0138897 0.0126338 0.0113832 0.0101379 0.00889798 0.00770714 0.00660928 0.00560437 0.00469244 0.00387347 0.00314746 0.00251443 0.00197435 0.00151161 0.00111057 0.000771232 0.000493589 0.000277644 0.000123397 3.08493e-05 0 0 1.83835e-05 7.3534e-05 0.000165451 0.000294136 0.000459587 0.000661806 0.000900791 0.00117654 0.00150312 0.00189458 0.00235092 0.00287214 0.00345824 0.00410923 0.00482509 0.00560584 0.00642272 0.00724699 0.00807864 0.00891767 0.0097641 0.0106179 0.0114791 0.0123477 0.013198 0.0140043 0.0147666 0.015485 0.0161594 0.0167898 0.0173763 0.0179188 0.0184132 0.0188555 0.0192457 0.0195838 0.0198697 0.0201036 0.0202853 0.0204149 0.0205085 0.0205824 0.0206365 0.0206709 0.0206855 0.0206803 0.0206554 0.0206108 0.02057 0.0205568 0.0205711 0.020613 0.0206824 0.0207794 0.0209039 0.021056 0.0212489 0.0214958 0.0217969 0.022152 0.0225611 0.0230244 0.0235417 0.024113 0.0247293 0.0253814 0.0260692 0.0267928 0.0275521 0.0283472 0.0291781 0.0300447 0.0309178 0.0317682 0.0325959 0.0334008 0.034183 0.0349424 0.0356791 0.036393 0.0370513 0.0376211 0.0381023 0.038495 0.0387991 0.0390147 0.0391417 0.0391802 0.0391146 0.0389294 0.0386247 0.0382004 0.0376566 0.0369931 0.0362101 0.0353076 0.0343009 0.0332056 0.0320217 0.0307491 0.0293878 0.0279379 0.0263994 0.0247722 0.0231042 0.0214431 0.0197889 0.0181416 0.0165013 0.0148679 0.0132414 0.0116218 0.0100665 0.00863252 0.00732 0.0061289 0.00505922 0.00411097 0.00328415 0.00257875 0.00197435 0.00145055 0.00100732 0.000644687 0.000362636 0.000161172 4.02929e-05 0 0 2.36055e-05 9.44218e-05 0.000212449 0.000377687 0.000590136 0.000849796 0.00115667 0.00151075 0.00192957 0.00243066 0.00301403 0.00367966 0.00442757 0.00525774 0.00617019 0.0071649 0.00820537 0.00925506 0.010314 0.0113821 0.0124595 0.0135461 0.0146419 0.015747 0.0168287 0.0178547 0.018825 0.0197395 0.0205982 0.0214011 0.0221483 0.0228397 0.0234701 0.0240344 0.0245325 0.0249645 0.0253303 0.02563 0.0258635 0.0260309 0.0261525 0.026249 0.0263202 0.0263661 0.0263869 0.0263824 0.0263526 0.0262976 0.0262473 0.0262317 0.0262506 0.0263042 0.0263925 0.0265154 0.0266729 0.026865 0.0271086 0.0274204 0.0278004 0.0282487 0.0287652 0.02935 0.0300029 0.0307241 0.031502 0.032325 0.0331932 0.0341065 0.0350649 0.0360684 0.0371171 0.0382109 0.0393128 0.0403859 0.0414302 0.0424457 0.0434323 0.0443901 0.0453191 0.0462192 0.0470489 0.0477666 0.0483722 0.0488658 0.0492473 0.0495169 0.0496743 0.0497198 0.0496335 0.0493961 0.0490074 0.0484674 0.0477762 0.0469337 0.0459399 0.0447949 0.0435183 0.0421294 0.0406285 0.0390153 0.0372901 0.0354527 0.0335031 0.0314414 0.029328 0.027223 0.0251266 0.0230387 0.0209594 0.0188886 0.0168264 0.0147727 0.0128 0.0109807 0.0093149 0.00780252 0.0064436 0.00523811 0.00418608 0.00328748 0.00251698 0.00184921 0.00128417 0.000821871 0.000462302 0.000205468 5.13669e-05 0 0 3.00796e-05 0.000120318 0.000270716 0.000481274 0.00075199 0.00108287 0.0014739 0.00192509 0.00245737 0.00309163 0.0038279 0.00466616 0.00560642 0.00664867 0.00779293 0.00903917 0.0103419 0.0116558 0.0129807 0.0143166 0.0156636 0.0170217 0.0183908 0.019771 0.0211221 0.022404 0.0236168 0.0247604 0.0258348 0.02684 0.0277761 0.0286429 0.0294341 0.0301432 0.03077 0.0313147 0.0317772 0.0321574 0.0324556 0.0326715 0.0328304 0.0329576 0.0330529 0.0331165 0.0331482 0.0331482 0.0331164 0.0330527 0.0329943 0.0329779 0.0330036 0.0330715 0.0331814 0.0333335 0.0335277 0.033764 0.0340632 0.0344461 0.0349127 0.0354629 0.0360969 0.0368145 0.0376159 0.0385009 0.0394554 0.0404653 0.0415306 0.0426511 0.0438271 0.0450584 0.046345 0.047687 0.0490388 0.0503549 0.0516352 0.0528799 0.0540888 0.055262 0.0563994 0.0575012 0.0585159 0.0593924 0.0601307 0.0607308 0.0611926 0.0615161 0.0617014 0.0617485 0.0616332 0.0613314 0.060843 0.0601681 0.0593067 0.0582587 0.0570242 0.0556032 0.0540198 0.052298 0.050438 0.0484396 0.0463029 0.0440279 0.0416146 0.039063 0.0364472 0.0338413 0.0312453 0.0286593 0.0260831 0.0235169 0.0209606 0.0184143 0.0159673 0.013709 0.0116396 0.00975896 0.00806711 0.00656405 0.00524979 0.00412431 0.00315768 0.00231993 0.00161106 0.00103108 0.000579981 0.00025777 6.44424e-05 0 0 3.78059e-05 0.000151224 0.000340253 0.000604895 0.000945148 0.00136101 0.00185249 0.00241958 0.0030865 0.00387749 0.00479253 0.00583164 0.0069948 0.00828203 0.00969331 0.0112287 0.0128325 0.0144492 0.0160787 0.0177212 0.0193765 0.0210447 0.0227257 0.0244197 0.026078 0.0276521 0.029142 0.0305477 0.0318692 0.0331065 0.0342597 0.0353286 0.0363054 0.0371819 0.0379582 0.0386344 0.0392103 0.039686 0.0400614 0.0403367 0.0405422 0.0407082 0.0408348 0.0409219 0.0409696 0.0409779 0.0409467 0.0408761 0.0408108 0.0407955 0.0408301 0.0409147 0.0410493 0.0412339 0.0414685 0.041753 0.0421128 0.042573 0.0431336 0.0437947 0.0445562 0.0454181 0.0463805 0.0474433 0.0485896 0.0498022 0.0510813 0.0524268 0.0538388 0.0553171 0.0568619 0.0584731 0.0600958 0.0616751 0.063211 0.0647034 0.0661524 0.067558 0.0689202 0.0702389 0.0714524 0.0724987 0.0733778 0.0740899 0.0746347 0.0750124 0.075223 0.0752664 0.0751135 0.0747353 0.0741316 0.0733026 0.0722481 0.0709683 0.069463 0.0677324 0.0658055 0.0637114 0.0614502 0.0590218 0.0564263 0.0536637 0.0507338 0.0476369 0.0444619 0.0412979 0.038145 0.0350032 0.0318725 0.0287528 0.0256442 0.0225466 0.0195683 0.0168175 0.0142941 0.0119982 0.00992976 0.00808878 0.00647528 0.00508924 0.00389645 0.0028627 0.00198798 0.00127231 0.000715674 0.000318077 7.95193e-05 0 0 4.67844e-05 0.000187138 0.00042106 0.000748551 0.00116961 0.00168424 0.00229244 0.0029942 0.00381698 0.00478823 0.00590793 0.00717609 0.00859271 0.0101578 0.0118713 0.0137333 0.0156769 0.0176352 0.0196081 0.0215957 0.0235981 0.0256151 0.0276467 0.0296931 0.0316964 0.0335989 0.0354006 0.0371014 0.0387015 0.0402007 0.0415991 0.0428967 0.0440838 0.0451506 0.0460972 0.0469235 0.0476297 0.0482155 0.0486812 0.0490266 0.0492878 0.0495008 0.0496657 0.0497824 0.049851 0.0498714 0.0498437 0.0497678 0.049697 0.0496844 0.0497301 0.049834 0.0499961 0.0502165 0.0504952 0.0508321 0.0512573 0.051801 0.0524632 0.0532439 0.0541431 0.0551607 0.0562968 0.0575514 0.0589044 0.0603358 0.0618455 0.0634335 0.0650999 0.0668447 0.0686678 0.0705692 0.0724839 0.0743466 0.0761574 0.0779163 0.0796232 0.0812782 0.0828813 0.0844325 0.0858583 0.0870853 0.0881136 0.0889431 0.0895738 0.0900058 0.090239 0.0902734 0.0900746 0.0896078 0.0888732 0.0878708 0.0866005 0.0850624 0.0832564 0.0811825 0.0788754 0.0763696 0.0736652 0.0707621 0.0676603 0.0643599 0.0608608 0.0571631 0.053372 0.0495929 0.0458258 0.0420706 0.0383274 0.0345962 0.0308769 0.0271697 0.0236031 0.020306 0.0172784 0.0145202 0.0120315 0.00981231 0.00786255 0.00618226 0.00473329 0.00347752 0.00241494 0.00154556 0.00086938 0.000386391 9.65977e-05 0 0 5.70151e-05 0.00022806 0.000513136 0.000912242 0.00142538 0.00205254 0.00279374 0.00364897 0.00464881 0.00582385 0.00717408 0.00869952 0.0104002 0.012276 0.014327 0.0165532 0.0188753 0.0212138 0.0235689 0.0259404 0.0283284 0.0307329 0.0331538 0.0355913 0.0379774 0.0402445 0.0423926 0.0444216 0.0463316 0.0481225 0.0497944 0.0513472 0.0527693 0.0540492 0.0551869 0.0561822 0.0570353 0.0577461 0.0583147 0.058741 0.0590672 0.0593354 0.0595457 0.059698 0.0597924 0.0598288 0.0598073 0.0597278 0.0596528 0.0596447 0.0597035 0.0598292 0.0600218 0.0602814 0.0606078 0.0610011 0.0614968 0.0621303 0.0629016 0.0638107 0.0648576 0.0660423 0.0673648 0.0688252 0.0704 0.0720659 0.073823 0.0756712 0.0776105 0.079641 0.0817626 0.0839753 0.086203 0.0883694 0.0904746 0.0925185 0.0945012 0.0964227 0.0982829 0.100082 0.101734 0.103152 0.104338 0.10529 0.10601 0.106496 0.106749 0.10677 0.106516 0.105949 0.105068 0.103873 0.102364 0.100541 0.0984042 0.0959535 0.0932295 0.0902726 0.0870829 0.0836603 0.0800049 0.0761166 0.0719956 0.0676416 0.0631776 0.0587262 0.0542875 0.0498614 0.0454479 0.0410471 0.036659 0.0322835 0.0280717 0.0241747 0.0205925 0.0173251 0.0143725 0.0117346 0.00941161 0.00740337 0.0056682 0.0041644 0.00289194 0.00185084 0.0010411 0.000462711 0.000115678 0 0 6.8498e-05 0.000273992 0.000616482 0.00109597 0.00171245 0.00246593 0.0033564 0.00438387 0.00558197 0.00698435 0.008591 0.0104019 0.0124171 0.0146366 0.0170603 0.0196883 0.0224276 0.0251852 0.027961 0.0307551 0.0335674 0.0363981 0.039247 0.0421141 0.044921 0.047589 0.050118 0.0525082 0.0547595 0.0568719 0.0588454 0.06068 0.0623621 0.0638778 0.0652272 0.0664104 0.0674272 0.0682778 0.0689621 0.06948 0.0698804 0.070212 0.0704748 0.0706687 0.0707938 0.0708501 0.0708375 0.0707561 0.0706783 0.0706764 0.0707505 0.0709005 0.0711265 0.0714284 0.0718063 0.0722601 0.0728312 0.0735607 0.0744486 0.0754949 0.0766997 0.0780629 0.0795845 0.0812646 0.0830763 0.0849927 0.0870139 0.0891399 0.0913706 0.0937061 0.0961463 0.0986914 0.101253 0.103743 0.106162 0.10851 0.110786 0.112991 0.115125 0.117187 0.119078 0.1207 0.122051 0.123132 0.123943 0.124484 0.124754 0.124755 0.124439 0.123759 0.122715 0.121308 0.119538 0.117404 0.114906 0.112045 0.108868 0.10542 0.101703 0.0977165 0.09346 0.0889339 0.084138 0.0790725 0.0738786 0.0686979 0.0635302 0.0583756 0.0532341 0.0481057 0.0429903 0.037888 0.032974 0.0284235 0.0242364 0.0204127 0.0169525 0.0138558 0.0111224 0.00875258 0.00670119 0.00492333 0.00341898 0.00218814 0.00123083 0.000547036 0.000136759 0 0 8.1233e-05 0.000324932 0.000731097 0.00129973 0.00203083 0.00292439 0.00398042 0.00519891 0.00661648 0.00826974 0.0101587 0.0122833 0.0146436 0.0172396 0.0200713 0.0231386 0.0263339 0.0295491 0.0327845 0.0360398 0.0393152 0.0426107 0.0459262 0.0492617 0.0525271 0.0556322 0.0585769 0.0613613 0.0639853 0.066449 0.0687523 0.0708953 0.072862 0.0746363 0.0762183 0.0776081 0.0788054 0.0798105 0.0806233 0.0812437 0.0817276 0.0821306 0.0824529 0.0826945 0.0828552 0.0829351 0.0829343 0.0828526 0.0827733 0.0827794 0.0828709 0.0830477 0.08331 0.0836577 0.0840907 0.0846092 0.0852605 0.0860922 0.0871042 0.0882966 0.0896694 0.0912225 0.0929559 0.0948697 0.0969333 0.0991161 0.101418 0.10384 0.10638 0.10904 0.111819 0.114717 0.117634 0.120469 0.123221 0.125891 0.128479 0.130984 0.133407 0.135748 0.137893 0.139728 0.141253 0.142468 0.143373 0.143968 0.144254 0.144229 0.143842 0.143037 0.141816 0.140178 0.138123 0.135652 0.132763 0.129458 0.12579 0.121813 0.117526 0.112931 0.108026 0.102812 0.0972883 0.0914557 0.0854751 0.0795079 0.0735539 0.0676132 0.0616858 0.0557717 0.0498709 0.0439833 0.0383102 0.0330524 0.0282101 0.0237832 0.0197717 0.0161757 0.0129951 0.0102299 0.00783225 0.00575431 0.00399605 0.00255747 0.00143858 0.000639368 0.000159842 0 0 9.52203e-05 0.000380881 0.000856982 0.00152352 0.00238051 0.00342793 0.00466579 0.0060941 0.00775234 0.00968001 0.0118771 0.0143437 0.0170796 0.020085 0.0233599 0.0269042 0.0305941 0.0343058 0.0380393 0.0417946 0.0455718 0.0493707 0.0531915 0.057034 0.0607958 0.0643742 0.0677692 0.0709807 0.0740089 0.0768537 0.079515 0.081993 0.084269 0.0863248 0.0881602 0.0897752 0.0911699 0.0923443 0.0932983 0.0940319 0.0946085 0.0950913 0.0954802 0.0957753 0.0959766 0.096084 0.0960977 0.0960175 0.095938 0.0959538 0.0960648 0.096271 0.0965724 0.0969691 0.0974611 0.0980482 0.0987848 0.0997249 0.100869 0.102216 0.103767 0.105521 0.107479 0.10964 0.111971 0.114436 0.117036 0.11977 0.122639 0.125643 0.128781 0.132053 0.135346 0.138545 0.14165 0.144661 0.147578 0.150401 0.15313 0.155765 0.158176 0.160236 0.161943 0.163298 0.1643 0.16495 0.165248 0.165193 0.164725 0.163784 0.162369 0.160481 0.158119 0.155284 0.151975 0.148192 0.143997 0.13945 0.134552 0.129303 0.123702 0.11775 0.111446 0.104791 0.0979671 0.0911562 0.0843586 0.0775743 0.0708032 0.0640453 0.0573007 0.0505694 0.0440801 0.0380615 0.0325136 0.0274365 0.0228301 0.0186944 0.0150295 0.0118353 0.00906139 0.00665734 0.00462316 0.00295882 0.00166434 0.000739705 0.000184926 0 0 0.000110252 0.000441009 0.000992271 0.00176404 0.00275631 0.00396908 0.00540236 0.00705615 0.00897271 0.0111943 0.013721 0.0165527 0.0196895 0.0231313 0.0268781 0.0309301 0.0351462 0.0393859 0.043649 0.0479356 0.0522457 0.0565792 0.0609362 0.0653167 0.0696051 0.0736857 0.0775587 0.0812238 0.0846813 0.087931 0.090973 0.0938073 0.0964127 0.0987682 0.100874 0.102729 0.104335 0.10569 0.106796 0.107651 0.108328 0.108896 0.109357 0.109709 0.109954 0.110091 0.110119 0.11004 0.109959 0.109983 0.110112 0.110346 0.110685 0.111128 0.111677 0.11233 0.113149 0.114196 0.11547 0.116971 0.118699 0.120655 0.122838 0.125248 0.127847 0.130596 0.133496 0.136546 0.139746 0.143097 0.146598 0.15025 0.153924 0.157491 0.160953 0.164309 0.167558 0.170702 0.17374 0.176671 0.179352 0.181636 0.183525 0.185017 0.186114 0.186815 0.187119 0.187028 0.186473 0.185385 0.183765 0.181614 0.17893 0.175714 0.171966 0.167686 0.162942 0.157804 0.15227 0.146341 0.140018 0.133299 0.126186 0.118677 0.110978 0.103292 0.095618 0.0879574 0.0803098 0.0726751 0.0650533 0.0574446 0.0501062 0.0432957 0.037013 0.0312582 0.0260313 0.0213322 0.017161 0.0135177 0.0103495 0.00760368 0.00528034 0.00337942 0.00190092 0.000844854 0.000211213 0 0 0.000126122 0.000504487 0.0011351 0.00201795 0.00315305 0.00454039 0.00617997 0.0080718 0.0102608 0.0127918 0.0156649 0.0188801 0.0224374 0.0263367 0.030578 0.0351615 0.0399284 0.0447203 0.0495371 0.0543789 0.0592456 0.0641373 0.0690539 0.0739955 0.078833 0.0834376 0.0878092 0.0919478 0.0958535 0.0995262 0.102966 0.106173 0.109123 0.111792 0.11418 0.116287 0.118113 0.119659 0.120924 0.121908 0.122689 0.123348 0.123883 0.124295 0.124584 0.124749 0.124791 0.12471 0.124624 0.124652 0.124794 0.125049 0.125418 0.125901 0.126497 0.127207 0.1281 0.129243 0.130636 0.132281 0.134175 0.136321 0.138717 0.141364 0.144219 0.14724 0.150427 0.153781 0.157301 0.160987 0.164839 0.168858 0.1729 0.176825 0.180632 0.184322 0.187893 0.191347 0.194683 0.197901 0.200841 0.203341 0.205402 0.207024 0.208206 0.208949 0.209252 0.209116 0.208466 0.207225 0.205393 0.202971 0.199959 0.196356 0.192163 0.187379 0.182081 0.176344 0.170169 0.163555 0.156502 0.149011 0.141081 0.132713 0.124131 0.115562 0.107006 0.0984612 0.0899292 0.0814095 0.0729022 0.0644072 0.056211 0.0486001 0.0415745 0.0351342 0.0292792 0.0240095 0.019325 0.0152259 0.0116573 0.00856458 0.00594762 0.00380648 0.00214114 0.00095162 0.000237905 0 0 0.000142829 0.000571315 0.00128546 0.00228526 0.00357072 0.00514184 0.00699861 0.00914104 0.0116165 0.0144725 0.017709 0.0213259 0.0253233 0.0297012 0.0344596 0.0395984 0.0449406 0.050309 0.0557037 0.0611245 0.0665716 0.0720449 0.0775445 0.0830702 0.0884795 0.0936297 0.0985207 0.103153 0.107525 0.111639 0.115494 0.119089 0.122398 0.125395 0.128078 0.130449 0.132506 0.134251 0.135683 0.136801 0.137694 0.138446 0.139059 0.139533 0.139866 0.14006 0.140114 0.140028 0.139933 0.13996 0.140109 0.14038 0.140772 0.141286 0.141923 0.14268 0.143636 0.144865 0.146368 0.148145 0.150195 0.152519 0.155116 0.157987 0.161086 0.164367 0.16783 0.171475 0.175302 0.179312 0.183503 0.187876 0.192276 0.196547 0.200688 0.2047 0.208582 0.212336 0.21596 0.219455 0.222644 0.22535 0.227574 0.229316 0.230575 0.231352 0.231647 0.231459 0.230705 0.229303 0.227253 0.224553 0.221206 0.217209 0.212565 0.207271 0.201412 0.195071 0.188248 0.180942 0.173154 0.164884 0.156132 0.146897 0.137427 0.127969 0.118522 0.109086 0.0996615 0.0902486 0.0808472 0.0714572 0.0623944 0.0539747 0.046198 0.0390643 0.0325737 0.0267261 0.0215216 0.01696 0.012985 0.00954002 0.00662501 0.00424001 0.00238501 0.00106 0.000265001 0 0 0.000160373 0.000641493 0.00144336 0.00256597 0.00400933 0.00577344 0.00785829 0.0102639 0.01304 0.0162364 0.0198531 0.0238901 0.0283474 0.0332249 0.0385228 0.0442409 0.0501829 0.0561521 0.0621486 0.0681725 0.0742237 0.0803021 0.0864079 0.092541 0.0985447 0.104262 0.109693 0.114838 0.119697 0.12427 0.128556 0.132556 0.13624 0.139578 0.142569 0.145215 0.147513 0.149466 0.151072 0.152333 0.153341 0.154192 0.154885 0.155422 0.1558 0.156022 0.156086 0.155993 0.155886 0.155907 0.156058 0.156338 0.156747 0.157285 0.157953 0.158749 0.159758 0.161063 0.162665 0.164563 0.166757 0.169248 0.172035 0.175118 0.178449 0.181978 0.185704 0.189628 0.193751 0.198071 0.20259 0.207306 0.212051 0.216656 0.22112 0.225443 0.229626 0.233668 0.23757 0.241332 0.24476 0.247663 0.250041 0.251894 0.253222 0.254025 0.254302 0.254054 0.253191 0.251621 0.249344 0.246361 0.242671 0.238275 0.233172 0.227363 0.220937 0.213986 0.206508 0.198505 0.189975 0.18092 0.171338 0.161231 0.150866 0.140511 0.130166 0.119831 0.109507 0.0991925 0.0888885 0.0785947 0.0686566 0.0594195 0.0508836 0.0430487 0.0359149 0.0294822 0.0237506 0.01872 0.0143325 0.01053 0.00731251 0.00468001 0.0026325 0.00117 0.000292501 0 0 0.000178755 0.000715021 0.0016088 0.00286008 0.00446888 0.00643519 0.008759 0.0114403 0.0145312 0.0180835 0.0220973 0.0265726 0.0315095 0.0369078 0.0427676 0.0490889 0.0556551 0.0622495 0.068872 0.0755228 0.0822018 0.0889089 0.0956443 0.102408 0.109028 0.115335 0.121327 0.127005 0.132369 0.137418 0.142154 0.146575 0.150648 0.154341 0.157653 0.160584 0.163135 0.165304 0.167093 0.168501 0.16963 0.170584 0.171361 0.171962 0.172387 0.172636 0.172709 0.172605 0.172482 0.172494 0.172641 0.172924 0.173343 0.173898 0.174587 0.175413 0.176466 0.177837 0.179527 0.181536 0.183863 0.186509 0.189474 0.192758 0.196308 0.200072 0.204049 0.208241 0.212647 0.217266 0.222099 0.227147 0.232225 0.237152 0.241928 0.246552 0.251024 0.255345 0.259514 0.263532 0.26719 0.270281 0.272804 0.274759 0.276147 0.276967 0.277219 0.276904 0.275922 0.274177 0.271667 0.268393 0.264354 0.259552 0.253985 0.247654 0.240655 0.233087 0.224949 0.216242 0.206964 0.197117 0.1867 0.175714 0.164447 0.153188 0.141938 0.130697 0.119465 0.108241 0.097026 0.0858196 0.0749974 0.0649346 0.0556312 0.0470873 0.0393028 0.0322777 0.0260121 0.0205059 0.0156998 0.0115346 0.00801012 0.00512647 0.00288364 0.00128162 0.000320405 0 0 0.000197975 0.000791898 0.00178177 0.00316759 0.00494936 0.00712708 0.00970075 0.0126704 0.01609 0.0200138 0.0244416 0.0293736 0.0348096 0.0407498 0.0471941 0.0541425 0.0613574 0.0686011 0.0758738 0.0831754 0.0905059 0.0978653 0.105254 0.112671 0.119931 0.126848 0.133422 0.139652 0.14554 0.151084 0.156286 0.161144 0.165622 0.169684 0.17333 0.176558 0.17937 0.181766 0.183744 0.185307 0.186563 0.187622 0.188486 0.189154 0.189626 0.189902 0.189982 0.189865 0.189722 0.189719 0.189858 0.190139 0.19056 0.191123 0.191827 0.192673 0.193759 0.195186 0.196954 0.199063 0.201512 0.204303 0.207434 0.210905 0.214662 0.218649 0.222866 0.227313 0.231989 0.236896 0.242032 0.247399 0.252799 0.258037 0.263112 0.268026 0.272777 0.277365 0.281792 0.286056 0.289934 0.293203 0.295861 0.29791 0.299349 0.300178 0.300397 0.300006 0.2989 0.296972 0.294222 0.29065 0.286256 0.28104 0.275003 0.268144 0.260566 0.252376 0.243571 0.234154 0.224122 0.213477 0.202218 0.190346 0.17817 0.166001 0.153839 0.141684 0.129536 0.117394 0.10526 0.093132 0.0814169 0.0705199 0.0604409 0.0511801 0.0427373 0.0351127 0.0283061 0.0223176 0.0170869 0.0125537 0.00871783 0.00557941 0.00313842 0.00139485 0.000348713 0 0 0.000218031 0.000872125 0.00196228 0.0034885 0.00545078 0.00784913 0.0106835 0.013954 0.0177166 0.0220272 0.026886 0.0322929 0.0382479 0.044751 0.0518022 0.0594016 0.0672896 0.0752071 0.083154 0.0911303 0.0991361 0.107171 0.115236 0.12333 0.131252 0.138801 0.145977 0.152781 0.159211 0.165268 0.170953 0.176264 0.181163 0.185607 0.189598 0.193136 0.19622 0.19885 0.201027 0.20275 0.204137 0.205308 0.206261 0.206998 0.207517 0.207819 0.207905 0.207773 0.207605 0.207584 0.207709 0.20798 0.208398 0.208962 0.209672 0.210528 0.211638 0.213111 0.214947 0.217145 0.219705 0.222628 0.225913 0.229561 0.233513 0.23771 0.242154 0.246844 0.251779 0.256961 0.262388 0.268062 0.273772 0.279309 0.284673 0.289865 0.294884 0.29973 0.304403 0.308904 0.312992 0.316428 0.319213 0.321347 0.322828 0.323658 0.323836 0.323363 0.322124 0.320006 0.317008 0.313132 0.308376 0.302741 0.296226 0.288833 0.280671 0.271851 0.262374 0.25224 0.241448 0.229998 0.217891 0.205127 0.192036 0.178949 0.165868 0.152791 0.139719 0.126652 0.11359 0.100532 0.0879151 0.0761753 0.0653126 0.055327 0.0462185 0.037987 0.030