<?xml version="1.0"?> 
<VTKFile type="StructuredGrid" version="0.1"> 
<StructuredGrid WholeExtent="0 128 0 128 0 0"> 
<Piece Extent="0 128 0 128 0 0"> 
<PointData>
<DataArray type="Float32" Name="u" format="ascii" NumberOfComponents="1"> 
0 0 0 0 0 0 0 0 0 0 0 0 0 0 0 0 0 0 0 0 0 0 0 0 0 0 0 0 0 0 0 0 0 0 0 0 0 0 0 0 0 0 0 0 0 0 0 0 0 0 0 0 0 0 0 0 0 0 0 0 0 0 0 0 0 0 0 0 0 0 0 0 0 0 0 0 0 0 0 0 0 0 0 0 0 0 0 0 0 0 0 0 0 0 0 0 0 0 0 0 0 0 0 0 0 0 0 0 0 0 0 0 0 0 0 0 0 0 0 0 0 0 0 0 0 0 0 0 0 0 2.65195e-07 1.06078e-06 2.38676e-06 4.24312e-06 6.62988e-06 9.54702e-06 1.29946e-05 1.69725e-05 2.16845e-05 2.73344e-05 3.39221e-05 4.14477e-05 4.99111e-05 5.93123e-05 6.96514e-05 8.09283e-05 9.27511e-05 0.000104728 0.000116858 0.000129143 0.000141581 0.000154173 0.000166919 0.000179819 0.000192525 0.00020469 0.000216313 0.000227395 0.000237935 0.000247934 0.000257391 0.000266307 0.000274616 0.000282253 0.000289217 0.00029551 0.00030113 0.000306078 0.000310355 0.000313959 0.000317079 0.000319903 0.000322432 0.000324664 0.000326602 0.000328243 0.000329589 0.000330639 0.000331672 0.000332966 0.000334522 0.000336339 0.000338416 0.000340756 0.000343356 0.000346218 0.000349494 0.000353337 0.000357747 0.000362725 0.000368269 0.000374381 0.00038106 0.000388306 0.000396005 0.000404043 0.000412421 0.000421138 0.000430195 0.000439591 0.000449326 0.0004594 0.000469461 0.000479157 0.000488486 0.00049745 0.000506047 0.000514279 0.000522145 0.000529645 0.000536383 0.000541964 0.000546387 0.000549652 0.000551759 0.000552708 0.0005525 0.000551134 0.000548426 0.000544193 0.000538435 0.000531151 0.000522342 0.000512007 0.000500147 0.000486762 0.000472056 0.000456234 0.000439296 0.000421242 0.000402072 0.000381786 0.000360383 0.000337865 0.000314857 0.000291988 0.000269258 0.000246666 0.000224212 0.000201896 0.000179719 0.00015768 0.000136538 0.000117051 9.92204e-05 8.30451e-05 6.85255e-05 5.56615e-05 4.4453e-05 3.49002e-05 2.67205e-05 1.96314e-05 1.36329e-05 8.72505e-06 4.90784e-06 2.18126e-06 5.45315e-07 0 0 1.06078e-06 4.24312e-06 9.54702e-06 1.69725e-05 2.65195e-05 3.81881e-05 5.19782e-05 6.78899e-05 8.67381e-05 0.000109338 0.000135688 0.000165791 0.000199644 0.000237249 0.000278606 0.000323713 0.000371004 0.000418911 0.000467433 0.000516571 0.000566324 0.000616692 0.000667676 0.000719276 0.000770101 0.000818759 0.000865252 0.000909579 0.00095174 0.000991735 0.00102956 0.00106523 0.00109846 0.00112901 0.00115687 0.00118204 0.00120452 0.00122431 0.00124142 0.00125583 0.00126831 0.00127961 0.00128973 0.00129866 0.00130641 0.00131297 0.00131836 0.00132256 0.00132669 0.00133187 0.00133809 0.00134535 0.00135367 0.00136302 0.00137342 0.00138487 0.00139798 0.00141335 0.00143099 0.0014509 0.00147308 0.00149752 0.00152424 0.00155322 0.00158402 0.00161617 0.00164969 0.00168455 0.00172078 0.00175836 0.0017973 0.0018376 0.00187785 0.00191663 0.00195394 0.0019898 0.00202419 0.00205712 0.00208858 0.00211858 0.00214553 0.00216786 0.00218555 0.00219861 0.00220704 0.00221083 0.00221 0.00220454 0.0021937 0.00217677 0.00215374 0.0021246 0.00208937 0.00204803 0.00200059 0.00194705 0.00188823 0.00182494 0.00175718 0.00168497 0.00160829 0.00152714 0.00144153 0.00135146 0.00125943 0.00116795 0.00107703 0.000986662 0.000896846 0.000807584 0.000718874 0.000630718 0.00054615 0.000468205 0.000396881 0.000332181 0.000274102 0.000222646 0.000177812 0.000139601 0.000106882 7.85254e-05 5.45315e-05 3.49002e-05 1.96314e-05 8.72505e-06 2.18126e-06 0 0 2.38676e-06 9.54702e-06 2.14808e-05 3.81881e-05 5.96689e-05 8.59232e-05 0.000116951 0.000152752 0.000195161 0.00024601 0.000305299 0.000373029 0.0004492 0.000533811 0.000626862 0.000728355 0.00083476 0.000942549 0.00105172 0.00116228 0.00127423 0.00138756 0.00150227 0.00161837 0.00173273 0.00184221 0.00194682 0.00204655 0.00214141 0.0022314 0.00231652 0.00239676 0.00247154 0.00254027 0.00260296 0.00265959 0.00271017 0.00275471 0.00279319 0.00282563 0.00285371 0.00287913 0.00290188 0.00292198 0.00293942 0.00295419 0.0029663 0.00297575 0.00298505 0.0029967 0.0030107 0.00302705 0.00304575 0.0030668 0.00309021 0.00311596 0.00314544 0.00318003 0.00321972 0.00326452 0.00331442 0.00336943 0.00342954 0.00349475 0.00356404 0.00363639 0.00371179 0.00379025 0.00387175 0.00395632 0.00404393 0.0041346 0.00422515 0.00431241 0.00439637 0.00447705 0.00455442 0.00462851 0.00469931 0.00476681 0.00482745 0.00487768 0.00491748 0.00494687 0.00496583 0.00497437 0.0049725 0.0049602 0.00493584 0.00489774 0.00484591 0.00478036 0.00470108 0.00460807 0.00450133 0.00438086 0.00424851 0.00410611 0.00395367 0.00379118 0.00361865 0.00343607 0.00324345 0.00304078 0.00283372 0.0026279 0.00242332 0.00221999 0.0020179 0.00181706 0.00161747 0.00141912 0.00122884 0.00105346 0.000892983 0.000747406 0.00061673 0.000500953 0.000400077 0.000314102 0.000240484 0.000176682 0.000122696 7.85254e-05 4.41706e-05 1.96314e-05 4.90784e-06 0 0 4.24312e-06 1.69725e-05 3.81881e-05 6.78899e-05 0.000106078 0.000152752 0.000207913 0.00027156 0.000346952 0.00043735 0.000542754 0.000663163 0.000798577 0.000948997 0.00111442 0.00129485 0.00148402 0.00167564 0.00186973 0.00206628 0.00226529 0.00246677 0.00267071 0.0028771 0.0030804 0.00327504 0.00346101 0.00363831 0.00380696 0.00396694 0.00411825 0.00426091 0.00439385 0.00451604 0.00462748 0.00472816 0.00481808 0.00489726 0.00496567 0.00502334 0.00507326 0.00511845 0.0051589 0.00519463 0.00522563 0.00525189 0.00527343 0.00529023 0.00530676 0.00532746 0.00535235 0.00538142 0.00541466 0.00545209 0.0054937 0.00553949 0.0055919 0.00565339 0.00572395 0.00580359 0.00589231 0.00599009 0.00609695 0.00621289 0.00633608 0.0064647 0.00659874 0.00673822 0.00688312 0.00703345 0.00718921 0.0073504 0.00751138 0.00766651 0.00781578 0.00795919 0.00809676 0.00822846 0.00835432 0.00847432 0.00858213 0.00867142 0.00874219 0.00879443 0.00882814 0.00884333 0.00884 0.00881814 0.00877482 0.00870709 0.00861496 0.00849841 0.00835747 0.00819212 0.00800236 0.0077882 0.0075529 0.00729975 0.00702874 0.00673987 0.00643315 0.00610857 0.00576613 0.00540584 0.00503772 0.00467182 0.00430812 0.00394665 0.00358738 0.00323033 0.0028755 0.00252287 0.0021846 0.00187282 0.00158753 0.00132872 0.00109641 0.000890584 0.000711249 0.000558403 0.000427527 0.000314102 0.000218126 0.000139601 7.85254e-05 3.49002e-05 8.72505e-06 0 0 6.62988e-06 2.65195e-05 5.96689e-05 0.000106078 0.000165747 0.000238676 0.000324864 0.000424312 0.000542113 0.00068336 0.000848053 0.00103619 0.00124778 0.00148281 0.00174128 0.00202321 0.00231878 0.00261819 0.00292146 0.00322857 0.00353952 0.00385433 0.00417298 0.00449548 0.00481313 0.00511724 0.00540782 0.00568487 0.00594837 0.00619834 0.00643477 0.00665767 0.00686539 0.00705631 0.00723043 0.00738775 0.00752826 0.00765196 0.00775886 0.00784896 0.00792696 0.00799757 0.00806079 0.00811661 0.00816504 0.00820608 0.00823973 0.00826598 0.0082918 0.00832416 0.00836305 0.00840846 0.00846041 0.00851889 0.0085839 0.00865545 0.00873735 0.00883342 0.00894368 0.00906811 0.00920673 0.00935952 0.00952649 0.00970764 0.00990012 0.0101011 0.0103105 0.0105285 0.0107549 0.0109898 0.0112331 0.011485 0.0117365 0.0119789 0.0122121 0.0124362 0.0126512 0.012857 0.0130536 0.0132411 0.0134096 0.0135491 0.0136597 0.0137413 0.013794 0.0138177 0.0138125 0.0137783 0.0137107 0.0136048 0.0134609 0.0132788 0.0130585 0.0128002 0.0125037 0.0121691 0.0118014 0.0114059 0.0109824 0.0105311 0.0100518 0.00954464 0.00900958 0.00844662 0.00787144 0.00729971 0.00673145 0.00616664 0.00560529 0.0050474 0.00449296 0.00394199 0.00341344 0.00292628 0.00248051 0.00207613 0.00171314 0.00139154 0.00111133 0.000872505 0.000668011 0.000490784 0.000340822 0.000218126 0.000122696 5.45315e-05 1.36329e-05 0 0 9.54702e-06 3.81881e-05 8.59232e-05 0.000152752 0.000238676 0.000343693 0.000467804 0.000611009 0.000780643 0.000984039 0.0012212 0.00149212 0.0017968 0.00213524 0.00250745 0.00291342 0.00333904 0.0037702 0.0042069 0.00464913 0.00509691 0.00555023 0.00600909 0.00647349 0.00693091 0.00736883 0.00778727 0.00818621 0.00856566 0.00892561 0.00926607 0.00958704 0.00988617 0.0101611 0.0104118 0.0106384 0.0108407 0.0110188 0.0111728 0.0113025 0.0114148 0.0115165 0.0116075 0.0116879 0.0117577 0.0118168 0.0118652 0.011903 0.0119402 0.0119868 0.0120428 0.0121082 0.012183 0.0122672 0.0123608 0.0124638 0.0125818 0.0127201 0.0128789 0.0130581 0.0132577 0.0134777 0.0137181 0.013979 0.0142562 0.0145456 0.0148472 0.015161 0.015487 0.0158253 0.0161757 0.0165384 0.0169006 0.0172496 0.0175855 0.0179082 0.0182177 0.018514 0.0187972 0.0190672 0.0193098 0.0195107 0.0196699 0.0197875 0.0198633 0.0198975 0.01989 0.0198408 0.0197433 0.019591 0.0193836 0.0191214 0.0188043 0.0184323 0.0180053 0.0175234 0.016994 0.0164244 0.0158147 0.0151647 0.0144746 0.0137443 0.0129738 0.0121631 0.0113349 0.0105116 0.00969328 0.00887996 0.00807161 0.00726825 0.00646987 0.00567647 0.00491535 0.00421384 0.00357193 0.00298962 0.00246692 0.00200381 0.00160031 0.00125641 0.000961936 0.000706729 0.000490784 0.000314102 0.000176682 7.85254e-05 1.96314e-05 0 0 1.29946e-05 5.19782e-05 0.000116951 0.000207913 0.000324864 0.000467804 0.000636733 0.000831652 0.00106254 0.00133939 0.00166218 0.00203094 0.00244564 0.0029063 0.00341292 0.00396549 0.0045448 0.00513166 0.00572605 0.00632799 0.00693746 0.00755448 0.00817904 0.00881113 0.00943373 0.0100298 0.0105993 0.0111423 0.0116588 0.0121487 0.0126122 0.013049 0.0134562 0.0138304 0.0141716 0.01448 0.0147554 0.0149978 0.0152074 0.015384 0.0155368 0.0156752 0.0157991 0.0159086 0.0160035 0.0160839 0.0161499 0.0162013 0.0162519 0.0163154 0.0163916 0.0164806 0.0165824 0.016697 0.0168245 0.0169647 0.0171252 0.0173135 0.0175296 0.0177735 0.0180452 0.0183447 0.0186719 0.019027 0.0194042 0.0197981 0.0202086 0.0206358 0.0210796 0.0215399 0.022017 0.0225106 0.0230036 0.0234787 0.0239358 0.024375 0.0247963 0.0251997 0.0255851 0.0259526 0.0262828 0.0265562 0.0267729 0.0269329 0.0270362 0.0270827 0.0270725 0.0270056 0.0268729 0.0266655 0.0263833 0.0260264 0.0255947 0.0250884 0.0245072 0.0238514 0.0231308 0.0223555 0.0215255 0.0206409 0.0197015 0.0187075 0.0176588 0.0165554 0.015428 0.0143074 0.0131936 0.0120866 0.0109864 0.0098929 0.00880621 0.0077263 0.00669034 0.00573551 0.0048618 0.00406921 0.00335775 0.00272741 0.0021782 0.00171011 0.0013093 0.000961936 0.000668011 0.000427527 0.000240484 0.000106882 2.67205e-05 0 0 1.69725e-05 6.78899e-05 0.000152752 0.00027156 0.000424312 0.000611009 0.000831652 0.00108624 0.00138781 0.0017494 0.00217102 0.00265265 0.00319431 0.00379599 0.00445769 0.00517941 0.00593607 0.00670257 0.00747893 0.00826513 0.00906118 0.00986708 0.0106828 0.0115084 0.0123216 0.0131001 0.013844 0.0145533 0.0152278 0.0158678 0.016473 0.0170436 0.0175754 0.0180642 0.0185099 0.0189126 0.0192723 0.019589 0.0198627 0.0200933 0.020293 0.0204738 0.0206356 0.0207785 0.0209025 0.0210076 0.0210937 0.0211609 0.021227 0.0213098 0.0214094 0.0215257 0.0216587 0.0218084 0.0219748 0.0221579 0.0223676 0.0226136 0.0228958 0.0232144 0.0235692 0.0239604 0.0243878 0.0248516 0.0253443 0.0258588 0.026395 0.0269529 0.0275325 0.0281338 0.0287569 0.0294016 0.0300455 0.030666 0.0312631 0.0318368 0.032387 0.0329139 0.0334173 0.0338973 0.0343285 0.0346857 0.0349687 0.0351777 0.0353126 0.0353733 0.03536 0.0352726 0.0350993 0.0348284 0.0344598 0.0339937 0.0334299 0.0327685 0.0320094 0.0311528 0.0302116 0.029199 0.028115 0.0269595 0.0257326 0.0244343 0.0230645 0.0216233 0.0201509 0.0186873 0.0172325 0.0157866 0.0143495 0.0129213 0.011502 0.0100915 0.00873841 0.00749128 0.0063501 0.00531489 0.00438563 0.00356233 0.00284499 0.00223361 0.00171011 0.00125641 0.000872505 0.000558403 0.000314102 0.000139601 3.49002e-05 0 0 2.17721e-05 8.70884e-05 0.000195949 0.000348354 0.000544303 0.000783796 0.00106683 0.00139342 0.00177981 0.0022423 0.00278088 0.00339554 0.0040863 0.00485314 0.00569607 0.00661509 0.00757834 0.00855398 0.00954199 0.0105424 0.0115552 0.0125803 0.0136178 0.0146677 0.0157019 0.0166921 0.0176383 0.0185407 0.0193991 0.0202135 0.0209841 0.0217107 0.022388 0.0230108 0.023579 0.0240926 0.0245516 0.024956 0.0253058 0.0256011 0.0258569 0.0260887 0.0262962 0.0264797 0.0266389 0.0267741 0.026885 0.0269719 0.0270571 0.0271633 0.0272904 0.0274385 0.0276075 0.0277975 0.0280084 0.0282403 0.0285055 0.0288165 0.0291732 0.0295757 0.0300239 0.0305178 0.0310576 0.031643 0.032265 0.0329144 0.0335911 0.0342951 0.0350265 0.0357852 0.0365713 0.0373847 0.0381969 0.0389795 0.0397323 0.0404554 0.0411488 0.0418125 0.0424465 0.0430507 0.0435933 0.044042 0.044397 0.0446582 0.0448256 0.0448993 0.0448791 0.0447652 0.0445427 0.0441966 0.0437271 0.043134 0.0424175 0.0415775 0.0406139 0.0395269 0.038333 0.0370487 0.0356741 0.0342091 0.0326538 0.0310082 0.0292723 0.027446 0.02558 0.0237251 0.0218812 0.0200484 0.0182266 0.0164158 0.0146161 0.0128274 0.0111112 0.00952892 0.00808055 0.00676608 0.00558554 0.00453891 0.00362619 0.00284738 0.00218003 0.00160165 0.00111226 0.000711846 0.000400413 0.000177962 4.44904e-05 0 0 2.76847e-05 0.000110739 0.000249163 0.000442956 0.000692119 0.000996651 0.00135655 0.00177182 0.00226192 0.00284629 0.00352495 0.00429789 0.0051651 0.00612659 0.00718237 0.00833242 0.00953714 0.0107569 0.0119917 0.0132416 0.0145065 0.0157864 0.0170814 0.0183915 0.0196818 0.0209177 0.0220992 0.0232263 0.0242989 0.025317 0.0262808 0.02719 0.0280382 0.0288186 0.0295312 0.0301761 0.0307531 0.0312623 0.0317038 0.0320775 0.0324021 0.0326964 0.0329603 0.0331938 0.033397 0.0335698 0.0337122 0.0338243 0.0339338 0.0340686 0.0342287 0.0344141 0.0346248 0.0348607 0.0351219 0.0354083 0.0357354 0.0361184 0.0365574 0.0370524 0.0376033 0.0382101 0.0388729 0.0395916 0.040355 0.0411518 0.041982 0.0428455 0.0437423 0.0446726 0.0456362 0.0466332 0.0476284 0.0485867 0.0495082 0.0503928 0.0512405 0.0520514 0.0528253 0.0535624 0.0542232 0.0547682 0.0551974 0.0555109 0.0557085 0.0557904 0.0557565 0.0556069 0.0553232 0.0548872 0.0542989 0.0535583 0.0526654 0.0516202 0.0504227 0.0490729 0.0475913 0.0459983 0.044294 0.0424783 0.0405513 0.0385129 0.0363632 0.0341021 0.0317919 0.0294949 0.0272111 0.0249404 0.0226829 0.0204386 0.0182074 0.0159894 0.0138604 0.0118962 0.0100968 0.00846223 0.00699244 0.00568745 0.00454727 0.0035719 0.00273473 0.00200919 0.00139527 0.000892974 0.000502298 0.000223243 5.58109e-05 0 0 3.47104e-05 0.000138842 0.000312393 0.000555366 0.00086776 0.00124957 0.00170081 0.00222146 0.00283413 0.00356139 0.00440324 0.00535968 0.00643072 0.00761636 0.00891659 0.0103314 0.0118125 0.0133114 0.0148281 0.0163627 0.0179152 0.0194855 0.0210736 0.0226797 0.0242615 0.0257772 0.0272267 0.0286101 0.0299272 0.0311782 0.0323631 0.0334817 0.034526 0.0354876 0.0363667 0.0371631 0.0378769 0.0385081 0.0390567 0.0395227 0.0399286 0.0402969 0.0406277 0.0409209 0.0411766 0.0413947 0.0415752 0.0417182 0.0418572 0.042026 0.0422244 0.0424525 0.0427104 0.0429979 0.0433151 0.0436621 0.0440573 0.0445195 0.0450485 0.0456445 0.0463073 0.0470371 0.0478338 0.0486974 0.0496143 0.0505711 0.0515676 0.0526039 0.05368 0.0547959 0.0559515 0.057147 0.0583399 0.0594879 0.0605909 0.0616491 0.0626623 0.0636306 0.0645539 0.0654324 0.0662184 0.0668642 0.06737 0.0677357 0.0679613 0.0680468 0.0679922 0.0677975 0.0674408 0.0669 0.0661752 0.0652664 0.0641735 0.0628966 0.0614357 0.0597907 0.0579865 0.0560478 0.0539747 0.051767 0.0494249 0.0469484 0.0443373 0.0415918 0.0387867 0.0359968 0.0332221 0.0304627 0.0277186 0.0249897 0.022276 0.0195776 0.016986 0.0145932 0.0123989 0.0104033 0.00860633 0.00700798 0.00560825 0.00440715 0.00337422 0.00247902 0.00172154 0.00110179 0.000619755 0.000275447 6.88616e-05 0 0 4.2849e-05 0.000171396 0.000385641 0.000685584 0.00107123 0.00154257 0.0020996 0.00274234 0.00349644 0.00438757 0.00541574 0.00658093 0.00788316 0.00932243 0.0108987 0.012612 0.0144043 0.0162173 0.0180512 0.0199058 0.0217812 0.0236774 0.0255944 0.0275323 0.0294409 0.0312704 0.0330208 0.034692 0.0362841 0.0377971 0.039231 0.0405857 0.0418513 0.0430178 0.0440853 0.0450537 0.045923 0.0466933 0.0473645 0.0479366 0.0484364 0.0488903 0.0492986 0.049661 0.0499778 0.0502488 0.050474 0.0506535 0.0508272 0.0510352 0.0512774 0.0515538 0.0518644 0.0522092 0.0525883 0.0530015 0.0534712 0.0540195 0.0546465 0.055352 0.0561362 0.0569989 0.0579403 0.0589603 0.0600429 0.0611721 0.062348 0.0635704 0.0648394 0.0661551 0.0675173 0.0689262 0.0703314 0.0716828 0.0729804 0.0742241 0.075414 0.07655 0.0776322 0.0786606 0.0795787 0.0803301 0.0809147 0.0813326 0.0815839 0.0816684 0.0815861 0.0813372 0.0808956 0.0802352 0.0793562 0.0782584 0.076942 0.0754068 0.073653 0.0716804 0.0695187 0.0671972 0.0647161 0.0620753 0.0592747 0.0563145 0.0531946 0.049915 0.0465642 0.0432307 0.0399144 0.0366153 0.0333335 0.030069 0.0268218 0.0235918 0.0204881 0.0176198 0.0149869 0.0125894 0.0104272 0.00850047 0.00680911 0.00535313 0.00409849 0.00301114 0.00209107 0.00133828 0.000752784 0.000334571 8.36427e-05 0 0 5.21007e-05 0.000208403 0.000468906 0.000833611 0.00130252 0.00187562 0.00255293 0.00333444 0.00424885 0.00532485 0.00656245 0.00796164 0.00952242 0.0112448 0.0131288 0.0151743 0.0173126 0.0194748 0.0216609 0.0238708 0.0261046 0.0283623 0.0306439 0.0329493 0.03522 0.0373974 0.0394815 0.0414722 0.0433696 0.0451737 0.0468845 0.0485019 0.0500141 0.0514092 0.0526871 0.0538478 0.0548914 0.0558179 0.0566272 0.0573193 0.0579254 0.0584766 0.0589728 0.0594142 0.0598006 0.0601321 0.0604087 0.0606303 0.0608439 0.0610964 0.0613877 0.0617178 0.0620868 0.0624946 0.0629412 0.0634267 0.0639771 0.0646187 0.0653512 0.0661749 0.0670897 0.0680955 0.0691924 0.0703804 0.0716408 0.072955 0.0743231 0.075745 0.0772207 0.0787503 0.0803336 0.0819708 0.083603 0.0851717 0.0866767 0.088118 0.0894957 0.0908098 0.0920603 0.0932471 0.0943042 0.0951657 0.0958316 0.0963018 0.0965763 0.0966551 0.0965383 0.0962259 0.0956875 0.0948927 0.0938417 0.0925343 0.0909707 0.0891508 0.0870745 0.084742 0.0821878 0.0794466 0.0765183 0.0734031 0.0701008 0.0666115 0.0629352 0.0590718 0.0551246 0.0511966 0.0472878 0.0433982 0.0395278 0.0356767 0.0318448 0.0280321 0.0243665 0.0209761 0.0178607 0.0150203 0.0124551 0.0101649 0.00814987 0.00640986 0.00490755 0.00360555 0.00250385 0.00160247 0.000901387 0.000400616 0.000100154 0 0 6.24653e-05 0.000249861 0.000562188 0.000999446 0.00156163 0.00224875 0.0030608 0.00399778 0.00509137 0.00637323 0.00784338 0.0095018 0.0113485 0.0133835 0.0156067 0.0180183 0.0205375 0.0230838 0.0256572 0.0282578 0.0308854 0.0335401 0.0362219 0.0389307 0.0415988 0.0441581 0.0466087 0.0489506 0.0511837 0.053308 0.0553236 0.0572305 0.0590146 0.0606618 0.0621721 0.0635455 0.0647821 0.0658819 0.0668447 0.0676707 0.0683957 0.0690557 0.0696505 0.0701803 0.070645 0.0710446 0.0713791 0.0716486 0.0719073 0.0722095 0.0725553 0.0729446 0.0733775 0.073854 0.074374 0.0749376 0.075575 0.0763168 0.0771629 0.0781132 0.0791679 0.0803268 0.0815901 0.0829576 0.084408 0.0859198 0.087493 0.0891277 0.0908238 0.0925814 0.0944003 0.0962807 0.0981547 0.0999544 0.10168 0.103331 0.104907 0.10641 0.107838 0.109192 0.110395 0.111371 0.112121 0.112643 0.112939 0.113007 0.112849 0.112464 0.111816 0.110873 0.109632 0.108094 0.10626 0.104128 0.1017 0.0989754 0.0959938 0.0927958 0.0893813 0.0857504 0.081903 0.0778392 0.0735589 0.0690621 0.0644677 0.0598945 0.0553423 0.0508113 0.0463014 0.0418126 0.037345 0.0328985 0.0286214 0.024662 0.0210203 0.0176963 0.01469 0.0120014 0.00963051 0.00757733 0.00580139 0.00426225 0.00295989 0.00189433 0.00106556 0.000473583 0.000118396 0 0 7.3943e-05 0.000295772 0.000665487 0.00118309 0.00184858 0.00266195 0.00362321 0.00473235 0.00602399 0.00753271 0.00925851 0.0112014 0.0133614 0.0157385 0.0183326 0.0211439 0.0240789 0.0270444 0.0300403 0.0330667 0.0361235 0.0392107 0.0423285 0.0454766 0.0485773 0.0515526 0.0544026 0.0571271 0.0597262 0.0622 0.0645484 0.0667714 0.0688525 0.0707755 0.0725403 0.0741468 0.0755951 0.0768853 0.0780172 0.0789909 0.0798474 0.0806276 0.0813316 0.0819594 0.082511 0.0829863 0.0833854 0.0837083 0.0840172 0.0843746 0.0847802 0.0852343 0.0857367 0.0862875 0.0868866 0.0875341 0.088265 0.089114 0.0900814 0.091167 0.0923708 0.0936929 0.0951333 0.0966919 0.0983444 0.100066 0.101858 0.103718 0.105649 0.107648 0.109717 0.111856 0.113986 0.116031 0.11799 0.119862 0.121649 0.12335 0.124965 0.126495 0.127851 0.128947 0.129782 0.130356 0.130671 0.130724 0.130518 0.13005 0.129283 0.128175 0.126726 0.124938 0.122809 0.12034 0.11753 0.114381 0.110937 0.107245 0.103305 0.0991172 0.0946814 0.0899976 0.0850658 0.079886 0.0745937 0.0693244 0.0640781 0.0588547 0.0536543 0.0484769 0.0433224 0.038191 0.0332526 0.0286775 0.0244657 0.0206172 0.0171319 0.0140098 0.011251 0.00885553 0.00678002 0.00498124 0.00345919 0.00221388 0.00124531 0.000553471 0.000138368 0 0 8.65337e-05 0.000346135 0.000778803 0.00138454 0.00216334 0.00311521 0.00424015 0.00553816 0.00704671 0.00880328 0.0108079 0.0130605 0.0155611 0.0183098 0.0213064 0.0245511 0.0279368 0.0313564 0.03481 0.0382975 0.0418189 0.0453743 0.0489637 0.0525869 0.0561556 0.0595809 0.062863 0.0660018 0.0689974 0.0718497 0.0745587 0.0771245 0.0795281 0.0817504 0.0837916 0.0856516 0.0873304 0.0888281 0.0901445 0.0912798 0.0922803 0.0931924 0.0940161 0.0947515 0.0953986 0.0959572 0.0964275 0.0968095 0.0971739 0.0975916 0.0980625 0.0985867 0.0991642 0.099795 0.100479 0.101216 0.102047 0.10301 0.104107 0.105336 0.106698 0.108194 0.109822 0.111583 0.11345 0.115395 0.117417 0.119517 0.121695 0.123951 0.126285 0.128697 0.131098 0.133401 0.135606 0.137713 0.139721 0.141631 0.143443 0.145156 0.146672 0.147892 0.148815 0.149442 0.149773 0.149807 0.149545 0.148986 0.148086 0.146799 0.145126 0.143065 0.140619 0.137785 0.134565 0.130958 0.127017 0.122794 0.11829 0.113504 0.108436 0.103087 0.0974559 0.0915434 0.0855025 0.0794863 0.073495 0.0675284 0.0615865 0.0556694 0.0497771 0.0439096 0.0382603 0.0330228 0.028197 0.023783 0.0197807 0.0161902 0.0130115 0.0102445 0.00784343 0.00576252 0.00400175 0.00256112 0.00144063 0.00064028 0.00016007 0 0 0.000100028 0.000400111 0.00090025 0.00160045 0.0025007 0.003601 0.00490136 0.00640178 0.00814253 0.0101639 0.0124659 0.0150485 0.0179117 0.0210555 0.02448 0.0281851 0.0320492 0.0359507 0.0398898 0.0438663 0.0478802 0.0519317 0.0560205 0.0601469 0.0642109 0.0681129 0.0718527 0.0754304 0.0788461 0.0820997 0.0851911 0.0881205 0.0908661 0.0934062 0.0957409 0.0978701 0.0997939 0.101512 0.103025 0.104332 0.105486 0.106539 0.10749 0.108339 0.109087 0.109734 0.110279 0.110722 0.111144 0.111624 0.112161 0.112757 0.11341 0.114121 0.11489 0.115717 0.116647 0.117724 0.11895 0.120323 0.121845 0.123514 0.125331 0.127296 0.129378 0.131547 0.133801 0.136143 0.138571 0.141085 0.143685 0.146372 0.149047 0.15161 0.154063 0.156404 0.158634 0.160753 0.162762 0.164658 0.166333 0.167675 0.168683 0.169357 0.169699 0.169707 0.169381 0.168723 0.16768 0.166203 0.164292 0.161946 0.159165 0.15595 0.152301 0.148217 0.143758 0.138982 0.13389 0.128482 0.122758 0.116717 0.11036 0.103686 0.0968678 0.0900759 0.0833104 0.0765714 0.0698588 0.0631727 0.056513 0.0498798 0.0434907 0.0375635 0.0320982 0.0270948 0.0225533 0.0184736 0.0148558 0.0116999 0.00895774 0.0065812 0.00457027 0.00292498 0.0016453 0.000731244 0.000182811 0 0 0.000114216 0.000456863 0.00102794 0.00182745 0.0028554 0.00411177 0.00559657 0.00730981 0.00929447 0.0115935 0.014207 0.0171349 0.0203773 0.023934 0.0278052 0.0319907 0.0363539 0.0407581 0.0452031 0.049689 0.0542158 0.0587835 0.0633921 0.0680416 0.0726208 0.0770183 0.0812343 0.0852686 0.0891213 0.0927924 0.0962819 0.0995898 0.102692 0.105563 0.108203 0.110612 0.112791 0.11474 0.116457 0.117944 0.119257 0.120455 0.121538 0.122505 0.123356 0.124092 0.124712 0.125217 0.125694 0.126234 0.126835 0.127498 0.128223 0.12901 0.129858 0.130768 0.13179 0.132975 0.134322 0.135831 0.137503 0.139337 0.141334 0.143493 0.145781 0.148164 0.150641 0.153213 0.155881 0.158643 0.1615 0.164452 0.167389 0.170203 0.172893 0.175459 0.177901 0.18022 0.182414 0.184485 0.186309 0.187763 0.188846 0.18956 0.189903 0.189877 0.18948 0.188713 0.18752 0.185844 0.183687 0.181048 0.177926 0.174322 0.170237 0.165669 0.160684 0.155349 0.149663 0.143625 0.137237 0.130498 0.123407 0.115966 0.108363 0.100788 0.0932416 0.0857228 0.0782319 0.070769 0.063334 0.0559271 0.0487902 0.0421657 0.0360536 0.0304537 0.0253662 0.020791 0.0167281 0.0131776 0.0100891 0.00741238 0.00514749 0.00329439 0.00185309 0.000823598 0.000205899 0 0 0.000129098 0.000516391 0.00116188 0.00206556 0.00322744 0.00464752 0.00632579 0.00826225 0.0105025 0.0130922 0.0160313 0.0193198 0.0229578 0.0269451 0.0312819 0.0359681 0.0408511 0.0457784 0.0507499 0.0557657 0.0608257 0.06593 0.0710785 0.0762712 0.0813852 0.0862974 0.0910078 0.0955163 0.0998231 0.103928 0.107831 0.111533 0.115004 0.11822 0.121178 0.123879 0.126323 0.12851 0.13044 0.132114 0.133593 0.134942 0.13616 0.137248 0.138205 0.139032 0.139728 0.140293 0.140825 0.141423 0.142085 0.142812 0.143604 0.144461 0.145383 0.14637 0.147478 0.148762 0.150223 0.15186 0.153674 0.155665 0.157832 0.160175 0.162659 0.165246 0.167936 0.170729 0.173626 0.176626 0.179729 0.182936 0.186126 0.189179 0.192096 0.194877 0.197522 0.200029 0.202401 0.204636 0.2066 0.208156 0.209306 0.21005 0.210386 0.210316 0.209839 0.208956 0.207604 0.205723 0.203312 0.200371 0.196901 0.192901 0.188372 0.183313 0.177796 0.171894 0.165606 0.158933 0.151874 0.144429 0.136599 0.128383 0.119989 0.111624 0.103289 0.0949826 0.0867058 0.0784584 0.0702403 0.0620515 0.0541589 0.0468294 0.040063 0.0338597 0.0282195 0.0231424 0.0186284 0.0146775 0.0112374 0.00825607 0.00573338 0.00366936 0.00206402 0.000917341 0.000229335 0 0 0.000144673 0.000578694 0.00130206 0.00231478 0.00361684 0.00520824 0.007089 0.0092591 0.0117667 0.0146599 0.0179387 0.0216032 0.0256532 0.0300889 0.0349102 0.0401172 0.0455407 0.0510117 0.0565302 0.0620963 0.0677098 0.0733709 0.0790795 0.0848356 0.0905042 0.09595 0.101173 0.106174 0.110951 0.115506 0.119839 0.123949 0.127805 0.131377 0.134665 0.137669 0.140388 0.142824 0.144975 0.146842 0.148494 0.149999 0.151358 0.15257 0.153635 0.154553 0.155325 0.155951 0.156536 0.157189 0.15791 0.158698 0.159553 0.160475 0.161465 0.162523 0.163709 0.165085 0.166652 0.16841 0.170357 0.172495 0.174824 0.177342 0.180012 0.182793 0.185686 0.18869 0.191806 0.195034 0.198373 0.201824 0.205256 0.208539 0.211673 0.214659 0.217495 0.220183 0.222721 0.225111 0.227205 0.228855 0.230063 0.230827 0.231148 0.231026 0.23046 0.229452 0.227933 0.225838 0.223166 0.219916 0.21609 0.211687 0.206707 0.20115 0.195094 0.188618 0.181722 0.174405 0.166669 0.158512 0.149935 0.140937 0.131745 0.122583 0.113452 0.104351 0.0952806 0.0862409 0.0772316 0.0682529 0.0595966 0.0515544 0.0441265 0.0373127 0.0311131 0.0255277 0.0205566 0.0161996 0.0124028 0.00911226 0.00632796 0.00404989 0.00227807 0.00101247 0.000253118 0 0 0.000160943 0.000643772 0.00144849 0.00257509 0.00402358 0.00579395 0.00788621 0.0103004 0.013087 0.0162966 0.0199293 0.0239849 0.0284637 0.0333654 0.0386902 0.044438 0.0504226 0.056458 0.0625441 0.0686808 0.0748683 0.0811065 0.0873953 0.0937349 0.0999777 0.105976 0.11173 0.11724 0.122506 0.127528 0.132305 0.136838 0.141093 0.145035 0.148665 0.151983 0.154988 0.157681 0.160061 0.16213 0.16396 0.165627 0.16713 0.168469 0.169645 0.170657 0.171505 0.17219 0.172828 0.173534 0.17431 0.175155 0.176069 0.177052 0.178105 0.179226 0.180484 0.181946 0.183611 0.18548 0.187553 0.189829 0.19231 0.194994 0.19784 0.200805 0.203891 0.207096 0.210422 0.213867 0.217431 0.221116 0.22478 0.228283 0.231624 0.234804 0.237822 0.24068 0.243376 0.24591 0.248125 0.24986 0.251115 0.251891 0.252188 0.252005 0.251343 0.250201 0.248508 0.24619 0.243249 0.239683 0.235493 0.230679 0.225241 0.219179 0.212577 0.20552 0.198009 0.190043 0.181621 0.172745 0.163414 0.153628 0.143631 0.133665 0.12373 0.113828 0.103956 0.0941164 0.0843082 0.0745315 0.0651034 0.0563409 0.048244 0.0408128 0.0340471 0.0279471 0.0225127 0.0177439 0.0135852 0.00998096 0.00693122 0.00443598 0.00249524 0.001109 0.000277249 0 0 0.000177907 0.000711626 0.00160116 0.00284651 0.00444766 0.00640464 0.00871742 0.011386 0.0144633 0.0180023 0.0220029 0.0264651 0.031389 0.0367745 0.0426217 0.0489305 0.055497 0.0621173 0.0687914 0.0755193 0.082301 0.0891365 0.0960258 0.102969 0.109806 0.116376 0.12268 0.128717 0.134488 0.139992 0.14523 0.150201 0.154868 0.159194 0.163178 0.16682 0.170122 0.173081 0.175699 0.177976 0.179991 0.181824 0.183476 0.184946 0.186235 0.187342 0.188268 0.189011 0.1897 0.190458 0.191286 0.192185 0.193153 0.194192 0.195301 0.19648 0.197803 0.199342 0.201098 0.203071 0.205261 0.207667 0.21029 0.21313 0.216143 0.219283 0.222551 0.225948 0.229472 0.233124 0.236904 0.240813 0.244698 0.24841 0.251948 0.255312 0.258503 0.26152 0.264364 0.267034 0.269359 0.271169 0.272464 0.273243 0.273506 0.273254 0.272487 0.271204 0.269327 0.26678 0.263561 0.259671 0.25511 0.249878 0.243975 0.2374 0.230246 0.222601 0.214467 0.205844 0.196732 0.187129 0.177038 0.166457 0.155647 0.14487 0.134125 0.123413 0.112733 0.102085 0.0914699 0.0808872 0.0706793 0.0611888 0.0524157 0.0443599 0.0370215 0.0304005 0.0244968 0.0193105 0.0147846 0.0108622 0.00754317 0.00482763 0.00271554 0.00120691 0.000301727 0 0 0.000195564 0.000782256 0.00176008 0.00312902 0.0048891 0.0070403 0.00958263 0.0125161 0.0158958 0.019777 0.0241597 0.0290438 0.0344294 0.0403164 0.0467048 0.0535947 0.0607638 0.0679896 0.0752723 0.0826118 0.0900081 0.0974612 0.104971 0.112538 0.119988 0.127149 0.134021 0.140603 0.146896 0.152899 0.158612 0.164037 0.169131 0.173853 0.178203 0.182182 0.185789 0.189025 0.191888 0.194381 0.196587 0.198592 0.200397 0.202002 0.203406 0.204609 0.205612 0.206414 0.207152 0.207959 0.208838 0.209786 0.210805 0.211895 0.213055 0.214285 0.215665 0.217275 0.219114 0.221183 0.223481 0.226008 0.228765 0.231752 0.234921 0.238226 0.241667 0.245244 0.248957 0.252807 0.256792 0.260913 0.26501 0.26892 0.272645 0.276184 0.279537 0.282705 0.285686 0.288482 0.290909 0.292785 0.294109 0.294882 0.295103 0.294773 0.293892 0.292459 0.290392 0.287606 0.284103 0.279881 0.274942 0.269284 0.262908 0.255814 0.2481 0.239861 0.231098 0.221811 0.212 0.201665 0.190805 0.179422 0.167793 0.156198 0.1446