<?xml version="1.0"?> 
<VTKFile type="StructuredGrid" version="0.1"> 
<StructuredGrid WholeExtent="0 128 0 128 0 0"> 
<Piece Extent="0 128 0 128 0 0"> 
<PointData>
<DataArray type="Float32" Name="u" format="ascii" NumberOfComponents="1"> 
0 0 0 0 0 0 0 0 0 0 0 0 0 0 0 0 0 0 0 0 0 0 0 0 0 0 0 0 0 0 0 0 0 0 0 0 0 0 0 0 0 0 0 0 0 0 0 0 0 0 0 0 0 0 0 0 0 0 0 0 0 0 0 0 0 0 0 0 0 0 0 0 0 0 0 0 0 0 0 0 0 0 0 0 0 0 0 0 0 0 0 0 0 0 0 0 0 0 0 0 0 0 0 0 0 0 0 0 0 0 0 0 0 0 0 0 0 0 0 0 0 0 0 0 0 0 0 0 0 0 2.22766e-07 8.91063e-07 2.00489e-06 3.56425e-06 5.56914e-06 8.01956e-06 1.09155e-05 1.4257e-05 1.82336e-05 2.30348e-05 2.86606e-05 3.5111e-05 4.23861e-05 5.04858e-05 5.94102e-05 6.91592e-05 7.94255e-05 8.99018e-05 0.000100588 0.000111485 0.000122591 0.000133907 0.000145434 0.00015717 0.000168831 0.00018013 0.000191066 0.000201641 0.000211853 0.000221704 0.000231193 0.000240319 0.00024901 0.000257191 0.000264862 0.000272023 0.000278674 0.000284816 0.000290447 0.000295568 0.000300295 0.000304743 0.000308911 0.000312801 0.000316411 0.000319742 0.000322794 0.000325566 0.000328245 0.000331014 0.000333875 0.000336826 0.000339869 0.000343002 0.000346227 0.000349543 0.000353049 0.000356846 0.000360933 0.000365311 0.000369978 0.000374936 0.000380184 0.000385723 0.000391466 0.000397326 0.000403305 0.000409402 0.000415616 0.000421949 0.000428399 0.000434968 0.000441404 0.000447458 0.00045313 0.000458419 0.000463326 0.000467851 0.000471994 0.000475754 0.00047886 0.000481037 0.000482285 0.000482606 0.000481998 0.000480463 0.000477998 0.000474606 0.000470174 0.000464589 0.000457851 0.000449961 0.000440919 0.000430725 0.000419378 0.000406878 0.000393404 0.000379132 0.000364063 0.000348196 0.000331532 0.00031407 0.00029581 0.000276753 0.000257395 0.000238231 0.000219261 0.000200486 0.000181906 0.000163519 0.000145327 0.00012733 0.000110113 9.42633e-05 7.978e-05 6.66634e-05 5.49137e-05 4.45306e-05 3.55143e-05 2.78647e-05 2.13339e-05 1.56739e-05 1.08847e-05 6.96619e-06 3.91848e-06 1.74155e-06 4.35387e-07 0 0 8.91063e-07 3.56425e-06 8.01956e-06 1.4257e-05 2.22766e-05 3.20783e-05 4.36621e-05 5.7028e-05 7.29343e-05 9.2139e-05 0.000114642 0.000140444 0.000169545 0.000201943 0.000237641 0.000276637 0.000317702 0.000359607 0.000402353 0.000445938 0.000490364 0.00053563 0.000581736 0.000628682 0.000675324 0.000720518 0.000764265 0.000806563 0.000847414 0.000886816 0.000924771 0.000961278 0.000996041 0.00102876 0.00105945 0.00108809 0.0011147 0.00113926 0.00116179 0.00118227 0.00120118 0.00121897 0.00123565 0.0012512 0.00126564 0.00127897 0.00129117 0.00130226 0.00131298 0.00132406 0.0013355 0.0013473 0.00135948 0.00137201 0.00138491 0.00139817 0.0014122 0.00142738 0.00144373 0.00146124 0.00147991 0.00149974 0.00152074 0.00154289 0.00156586 0.00158931 0.00161322 0.00163761 0.00166246 0.00168779 0.0017136 0.00173987 0.00176562 0.00178983 0.00181252 0.00183368 0.00185331 0.0018714 0.00188798 0.00190302 0.00191544 0.00192415 0.00192914 0.00193042 0.00192799 0.00192185 0.00191199 0.00189842 0.00188069 0.00185835 0.0018314 0.00179985 0.00176368 0.0017229 0.00167751 0.00162751 0.00157362 0.00151653 0.00145625 0.00139278 0.00132613 0.00125628 0.00118324 0.00110701 0.00102958 0.000952924 0.000877045 0.000801945 0.000727622 0.000654077 0.00058131 0.00050932 0.000440453 0.000377053 0.00031912 0.000266654 0.000219655 0.000178122 0.000142057 0.000111459 8.53358e-05 6.26957e-05 4.35387e-05 2.78647e-05 1.56739e-05 6.96619e-06 1.74155e-06 0 0 2.00489e-06 8.01956e-06 1.8044e-05 3.20783e-05 5.01223e-05 7.21761e-05 9.82396e-05 0.000128313 0.000164102 0.000207313 0.000257945 0.000315999 0.000381475 0.000454373 0.000534692 0.000622433 0.000714829 0.000809116 0.000905294 0.00100336 0.00110332 0.00120517 0.00130891 0.00141453 0.00151948 0.00162117 0.0017196 0.00181477 0.00190668 0.00199534 0.00208073 0.00216288 0.00224109 0.00231472 0.00238376 0.00244821 0.00250807 0.00256334 0.00261402 0.00266012 0.00270266 0.00274269 0.0027802 0.00281521 0.0028477 0.00287768 0.00290514 0.00293009 0.0029542 0.00297913 0.00300487 0.00303144 0.00305882 0.00308702 0.00311604 0.00314589 0.00317744 0.00321162 0.0032484 0.00328779 0.0033298 0.00337443 0.00342166 0.00347151 0.00352319 0.00357594 0.00362975 0.00368462 0.00374055 0.00379754 0.00385559 0.00391471 0.00397263 0.00402712 0.00407817 0.00412577 0.00416994 0.00421066 0.00424795 0.00428179 0.00430974 0.00432933 0.00434057 0.00434345 0.00433799 0.00432416 0.00430199 0.00427146 0.00423156 0.0041813 0.00412066 0.00404965 0.00396827 0.00387652 0.0037744 0.00366191 0.00354064 0.00341219 0.00327657 0.00313376 0.00298379 0.00282663 0.00266229 0.00249078 0.00231655 0.00214408 0.00197335 0.00180438 0.00163715 0.00147167 0.00130795 0.00114597 0.00099102 0.000848369 0.00071802 0.000599971 0.000494223 0.000400775 0.000319629 0.000250783 0.000192006 0.000141065 9.7962e-05 6.26957e-05 3.52663e-05 1.56739e-05 3.91848e-06 0 0 3.56425e-06 1.4257e-05 3.20783e-05 5.7028e-05 8.91063e-05 0.000128313 0.000174648 0.000228112 0.000291737 0.000368556 0.000458569 0.000561777 0.000678178 0.000807774 0.000950563 0.00110655 0.00127081 0.00143843 0.00160941 0.00178375 0.00196146 0.00214252 0.00232694 0.00251473 0.0027013 0.00288207 0.00305706 0.00322625 0.00338965 0.00354727 0.00369908 0.00384511 0.00398416 0.00411506 0.00423779 0.00435237 0.00445879 0.00455705 0.00464715 0.00472909 0.00480472 0.00487589 0.00494258 0.00500481 0.00506257 0.00511587 0.0051647 0.00520906 0.00525191 0.00529622 0.00534199 0.00538922 0.0054379 0.00548804 0.00553963 0.00559269 0.00564879 0.00570954 0.00577493 0.00584497 0.00591965 0.00599898 0.00608295 0.00617157 0.00626345 0.00635722 0.00645288 0.00655043 0.00664986 0.00675118 0.00685439 0.00695948 0.00706246 0.00715933 0.00725007 0.0073347 0.00741322 0.00748562 0.0075519 0.00761207 0.00766175 0.00769659 0.00771657 0.0077217 0.00771197 0.0076874 0.00764798 0.0075937 0.00752278 0.00743342 0.00732562 0.00719938 0.00705471 0.0068916 0.00671004 0.00651005 0.00629447 0.00606612 0.00582501 0.00557114 0.00530451 0.00502512 0.00473297 0.00442806 0.00411832 0.0038117 0.00350818 0.00320778 0.00291049 0.00261631 0.00232524 0.00203728 0.00176181 0.00150821 0.00127648 0.00106662 0.000878618 0.00071249 0.000568229 0.000445836 0.000341343 0.000250783 0.000174155 0.000111459 6.26957e-05 2.78647e-05 6.96619e-06 0 0 5.56914e-06 2.22766e-05 5.01223e-05 8.91063e-05 0.000139229 0.000200489 0.000272888 0.000356425 0.000455839 0.000575869 0.000716515 0.000877776 0.00105965 0.00126215 0.00148525 0.00172898 0.00198564 0.00224755 0.0025147 0.00278711 0.00306478 0.00334769 0.00363585 0.00392926 0.00422078 0.00450324 0.00477665 0.00504102 0.00529634 0.0055426 0.00577982 0.00600799 0.00622526 0.00642978 0.00662155 0.00680058 0.00696686 0.00712039 0.00726117 0.00738921 0.00750738 0.00761857 0.00772279 0.00782002 0.00791027 0.00799355 0.00806984 0.00813915 0.00820611 0.00827535 0.00834686 0.00842065 0.00849672 0.00857506 0.00865568 0.00873857 0.00882623 0.00892115 0.00902333 0.00913276 0.00924946 0.0093734 0.00950461 0.00964308 0.00978664 0.00993316 0.0100826 0.010235 0.0103904 0.0105487 0.01071 0.0108742 0.0110351 0.0111864 0.0113282 0.0114605 0.0115832 0.0116963 0.0117998 0.0118939 0.0119715 0.0120259 0.0120571 0.0120652 0.01205 0.0120116 0.01195 0.0118652 0.0117543 0.0116147 0.0114463 0.011249 0.011023 0.0107681 0.0104844 0.010172 0.0098351 0.00947831 0.00910157 0.0087049 0.00828829 0.00785174 0.00739526 0.00691884 0.00643487 0.00595577 0.00548153 0.00501216 0.00454764 0.00408798 0.00363319 0.00318325 0.00275283 0.00235658 0.0019945 0.00166659 0.00137284 0.00111327 0.000887858 0.000696619 0.000533349 0.000391848 0.000272117 0.000174155 9.7962e-05 4.35387e-05 1.08847e-05 0 0 8.01956e-06 3.20783e-05 7.21761e-05 0.000128313 0.000200489 0.000288704 0.000392959 0.000513252 0.000656408 0.000829251 0.00103178 0.001264 0.0015259 0.00181749 0.00213877 0.00248973 0.00285932 0.00323647 0.00362117 0.00401344 0.00441328 0.00482067 0.00523562 0.00565814 0.00607792 0.00648467 0.00687838 0.00725907 0.00762672 0.00798135 0.00832294 0.0086515 0.00896437 0.00925888 0.00953503 0.00979283 0.0100323 0.0102534 0.0104561 0.0106405 0.0108106 0.0109707 0.0111208 0.0112608 0.0113908 0.0115107 0.0116206 0.0117204 0.0118168 0.0119165 0.0120195 0.0121257 0.0122353 0.0123481 0.0124642 0.0125835 0.0127098 0.0128465 0.0129936 0.0131512 0.0133192 0.0134977 0.0136866 0.013886 0.0140928 0.0143038 0.014519 0.0147385 0.0149622 0.0151902 0.0154224 0.0156588 0.0158905 0.0161085 0.0163127 0.0165031 0.0166797 0.0168426 0.0169918 0.0171272 0.0172389 0.0173173 0.0173623 0.0173738 0.0173519 0.0172967 0.0172079 0.0170858 0.0169262 0.0167252 0.0164826 0.0161986 0.0158731 0.0155061 0.0150976 0.0146476 0.0141625 0.0136488 0.0131063 0.0125351 0.0119351 0.0113065 0.0106492 0.00996312 0.00926622 0.00857631 0.00789341 0.0072175 0.0065486 0.00588669 0.00523179 0.00458388 0.00396408 0.00339348 0.00287208 0.00239988 0.00197689 0.0016031 0.00127851 0.00100313 0.000768022 0.000564261 0.000391848 0.000250783 0.000141065 6.26957e-05 1.56739e-05 0 0 1.09155e-05 4.36621e-05 9.82396e-05 0.000174648 0.000272888 0.000392959 0.00053486 0.000698593 0.000893445 0.0011287 0.00140437 0.00172044 0.00207692 0.00247381 0.0029111 0.0033888 0.00389185 0.00440519 0.00492882 0.00546274 0.00600696 0.00656147 0.00712626 0.00770135 0.00827272 0.00882635 0.00936224 0.0098804 0.0103808 0.0108635 0.0113284 0.0117757 0.0122015 0.0126024 0.0129782 0.0133291 0.013655 0.013956 0.0142319 0.0144828 0.0147145 0.0149324 0.0151367 0.0153272 0.0155041 0.0156673 0.0158169 0.0159527 0.016084 0.0162197 0.0163599 0.0165045 0.0166536 0.0168071 0.0169651 0.0171276 0.0172994 0.0174855 0.0176857 0.0179002 0.0181289 0.0183719 0.018629 0.0189004 0.0191818 0.019469 0.0197619 0.0200607 0.0203652 0.0206755 0.0209916 0.0213134 0.0216288 0.0219254 0.0222033 0.0224625 0.022703 0.0229247 0.0231277 0.023312 0.0234641 0.0235708 0.023632 0.0236477 0.0236179 0.0235427 0.0234219 0.0232557 0.0230385 0.0227648 0.0224347 0.0220481 0.021605 0.0211055 0.0205495 0.019937 0.0192768 0.0185775 0.0178391 0.0170616 0.0162451 0.0153894 0.0144947 0.0135609 0.0126124 0.0116733 0.0107438 0.00982382 0.00891337 0.00801244 0.00712104 0.00623917 0.00539555 0.0046189 0.00390922 0.00326651 0.00269077 0.002182 0.0017402 0.00136537 0.00104536 0.000768022 0.000533349 0.000341343 0.000192006 8.53358e-05 2.13339e-05 0 0 1.4257e-05 5.7028e-05 0.000128313 0.000228112 0.000356425 0.000513252 0.000698593 0.000912448 0.00116695 0.00147422 0.00183428 0.00224711 0.00271271 0.00323109 0.00380225 0.00442619 0.00508323 0.00575372 0.00643764 0.00713501 0.00784582 0.00857008 0.00930777 0.0100589 0.0108052 0.0115283 0.0122282 0.012905 0.0135586 0.0141891 0.0147963 0.0153804 0.0159367 0.0164602 0.0169512 0.0174095 0.0178352 0.0182282 0.0185886 0.0189164 0.0192189 0.0195035 0.0197703 0.0200192 0.0202503 0.0204635 0.0206588 0.0208362 0.0210076 0.0211849 0.021368 0.0215569 0.0217516 0.0219522 0.0221585 0.0223707 0.0225952 0.0228382 0.0230997 0.0233799 0.0236786 0.0239959 0.0243318 0.0246863 0.0250538 0.0254289 0.0258115 0.0262017 0.0265994 0.0270047 0.0274175 0.0278379 0.0282498 0.0286373 0.0290003 0.0293388 0.0296529 0.0299425 0.0302076 0.0304483 0.030647 0.0307863 0.0308663 0.0308868 0.0308479 0.0307496 0.0305919 0.0303748 0.0300911 0.0297337 0.0293025 0.0287975 0.0282188 0.0275664 0.0268402 0.0260402 0.0251779 0.0242645 0.0233 0.0222845 0.021218 0.0201005 0.0189319 0.0177122 0.0164733 0.0152468 0.0140327 0.0128311 0.011642 0.0104652 0.00930096 0.00814912 0.00704725 0.00603285 0.00510592 0.00426646 0.00351447 0.00284996 0.00227292 0.00178334 0.00136537 0.00100313 0.000696619 0.000445836 0.000250783 0.000111459 2.78647e-05 0 0 1.82921e-05 7.31682e-05 0.000164628 0.000292673 0.000457301 0.000658514 0.000896311 0.00117069 0.00149682 0.00188986 0.00234982 0.00287669 0.00347047 0.00413117 0.00485878 0.0056533 0.00648976 0.00734319 0.00821357 0.00910092 0.0100052 0.0109265 0.0118647 0.0128199 0.0137689 0.0146886 0.0155789 0.0164398 0.0172714 0.0180736 0.0188464 0.0195899 0.020298 0.0209647 0.02159 0.0221738 0.0227163 0.0232173 0.023677 0.0240952 0.0244813 0.0248446 0.0251852 0.0255029 0.0257979 0.0260701 0.0263195 0.0265461 0.0267649 0.0269909 0.027224 0.0274644 0.0277119 0.0279666 0.0282284 0.0284974 0.0287817 0.0290893 0.0294203 0.0297745 0.0301521 0.030553 0.0309773 0.0314248 0.0318887 0.0323621 0.0328448 0.0333369 0.0338385 0.0343494 0.0348697 0.0353995 0.0359184 0.0364063 0.0368631 0.0372888 0.0376835 0.0380471 0.0383797 0.0386812 0.0389296 0.0391028 0.0392007 0.0392235 0.039171 0.0390433 0.0388404 0.0385623 0.0382 0.0377443 0.0371954 0.0365531 0.0358175 0.0349887 0.0340665 0.033051 0.0319566 0.0307977 0.0295742 0.0282862 0.0269337 0.0255166 0.024035 0.0224888 0.0209182 0.0193633 0.017824 0.0163003 0.0147922 0.0132998 0.0118231 0.010362 0.00896396 0.00767654 0.00649971 0.00543347 0.00447781 0.00363275 0.00289827 0.00227438 0.00174132 0.00127934 0.00088843 0.000568595 0.000319835 0.000142149 3.55372e-05 0 0 2.32687e-05 9.30748e-05 0.000209418 0.000372299 0.000581718 0.000837673 0.00114017 0.0014892 0.00190296 0.00239967 0.00297931 0.00364188 0.0043874 0.00521585 0.00612723 0.00712155 0.00816774 0.00923474 0.0103225 0.0114311 0.0125606 0.0137108 0.0148818 0.0160736 0.0172576 0.0184053 0.0195167 0.0205917 0.0216303 0.0226326 0.0235985 0.024528 0.0254137 0.026248 0.0270308 0.0277622 0.0284421 0.0290707 0.0296478 0.0301735 0.0306591 0.0311162 0.0315446 0.0319444 0.0323156 0.0326582 0.0329722 0.0332576 0.0335329 0.0338164 0.0341083 0.0344084 0.0347169 0.0350337 0.0353588 0.0356922 0.0360439 0.0364238 0.036832 0.0372686 0.0377333 0.0382264 0.0387477 0.0392973 0.0398666 0.0404472 0.0410389 0.0416417 0.0422558 0.0428811 0.0435176 0.0441652 0.0447991 0.0453945 0.0459512 0.0464693 0.0469489 0.0473898 0.0477921 0.0481558 0.0484538 0.0486588 0.0487709 0.0487901 0.0487164 0.0485497 0.0482901 0.0479376 0.047481 0.0469094 0.0462228 0.045421 0.0445042 0.0434723 0.0423253 0.0410632 0.0397039 0.038265 0.0367467 0.0351488 0.0334715 0.0317147 0.0298783 0.0279625 0.0260164 0.0240894 0.0221813 0.0202922 0.0184221 0.0165711 0.014739 0.0129259 0.0111905 0.00959119 0.00812812 0.00680126 0.0056106 0.00455613 0.00363788 0.00285582 0.00218649 0.0016064 0.00111555 0.000713955 0.0004016 0.000178489 4.46222e-05 0 0 2.9187e-05 0.000116748 0.000262683 0.000466991 0.000729674 0.00105073 0.00143016 0.00186797 0.00238538 0.00300364 0.00372274 0.00454269 0.00546348 0.00648512 0.00760761 0.00883094 0.0101172 0.0114284 0.0127645 0.0141257 0.0155118 0.0169228 0.0183589 0.0198199 0.0212713 0.0226785 0.0240416 0.0253606 0.0266354 0.027866 0.0290525 0.0301949 0.0312838 0.03231 0.0332736 0.0341745 0.0350127 0.0357882 0.036501 0.0371512 0.0377523 0.0383181 0.0388486 0.0393437 0.0398035 0.0402279 0.040617 0.0409708 0.0413115 0.0416615 0.0420206 0.042389 0.0427667 0.0431535 0.0435496 0.0439549 0.0443815 0.0448416 0.0453351 0.0458619 0.0464223 0.047016 0.0476432 0.0483037 0.0489875 0.0496841 0.0503937 0.0511162 0.0518515 0.0525998 0.053361 0.0541351 0.0548921 0.055602 0.0562647 0.0568804 0.057449 0.0579705 0.0584449 0.0588722 0.0592196 0.0594545 0.0595769 0.0595867 0.059484 0.0592687 0.0589409 0.0585005 0.0579343 0.057229 0.0563847 0.0554013 0.0542788 0.0530173 0.0516166 0.0500769 0.0484197 0.0466666 0.0448175 0.0428725 0.0408316 0.0386948 0.036462 0.0341333 0.0317679 0.0294251 0.0271047 0.0248069 0.0225317 0.0202789 0.0180487 0.015841 0.0137268 0.0117768 0.00999116 0.00836983 0.00691282 0.00562012 0.00449173 0.00352766 0.00270087 0.00198431 0.00137799 0.000881916 0.000496078 0.000220479 5.51197e-05 0 0 3.60468e-05 0.000144187 0.000324421 0.000576749 0.00090117 0.00129769 0.00176629 0.002307 0.00294406 0.00370177 0.00458012 0.00557911 0.00669874 0.007939 0.00929991 0.0107815 0.012338 0.0139241 0.0155396 0.0171845 0.0188589 0.0205627 0.022296 0.0240588 0.0258098 0.0275082 0.0291538 0.0307466 0.0322867 0.033774 0.0352086 0.0365904 0.0379083 0.0391509 0.0403184 0.0414108 0.0424279 0.0433699 0.0442367 0.0450283 0.0457609 0.0464504 0.0470971 0.0477007 0.0482614 0.0487791 0.0492538 0.0496856 0.0501009 0.0505261 0.0509612 0.0514062 0.0518612 0.0523261 0.0528009 0.0532857 0.0537948 0.0543426 0.0549293 0.0555547 0.0562189 0.0569219 0.0576636 0.0584441 0.0592513 0.060073 0.0609093 0.0617602 0.0626256 0.0635055 0.0644 0.0653091 0.0661972 0.0670287 0.0678037 0.0685221 0.0691839 0.0697892 0.070338 0.0708302 0.0712271 0.0714899 0.0716186 0.0716133 0.0714738 0.0712003 0.0707928 0.0702511 0.0695598 0.0687031 0.0676812 0.0664939 0.0651414 0.0636236 0.0619405 0.060092 0.058104 0.0560022 0.0537866 0.0514572 0.0490139 0.0464568 0.0437859 0.0410012 0.0381727 0.0353704 0.0325943 0.0298444 0.0271208 0.0244234 0.0217522 0.0191072 0.0165728 0.0142334 0.0120888 0.0101392 0.00838449 0.0068247 0.00545984 0.00428991 0.00328446 0.00241307 0.00167574 0.00107248 0.000603268 0.000268119 6.70298e-05 0 0 4.38483e-05 0.000175393 0.000394634 0.000701572 0.00109621 0.00157854 0.00214857 0.00280629 0.00357902 0.00449407 0.00555145 0.00675114 0.00809315 0.00957749 0.0112041 0.0129731 0.0148304 0.0167219 0.0186477 0.0206077 0.0226019 0.0246305 0.0266932 0.0287903 0.0308733 0.0328943 0.034853 0.0367497 0.0385841 0.0403564 0.0420666 0.0437146 0.0452871 0.0467706 0.0481653 0.049471 0.0506879 0.0518158 0.0528548 0.0538049 0.0546848 0.0555132 0.0562901 0.0570155 0.0576894 0.0583118 0.0588827 0.0594021 0.0599009 0.0604102 0.0609299 0.06146 0.0620005 0.0625514 0.0631127 0.0636844 0.0642836 0.064927 0.0656148 0.0663468 0.0671233 0.067944 0.0688091 0.0697184 0.0706581 0.0716138 0.0725857 0.0735738 0.0745779 0.0755982 0.0766347 0.0776873 0.0787145 0.0796747 0.080568 0.0813943 0.0821536 0.082846 0.0834714 0.0840299 0.0844762 0.0847649 0.0848961 0.0848698 0.084686 0.0843446 0.0838458 0.0831894 0.0823574 0.0813316 0.0801122 0.0786989 0.077092 0.0752913 0.0732968 0.0711086 0.0687569 0.0662721 0.0636541 0.0609029 0.0580185 0.0550009 0.0518501 0.0485662 0.0452307 0.0419253 0.0386499 0.0354047 0.0321895 0.0290044 0.0258495 0.0227246 0.0197287 0.0169609 0.0144211 0.0121093 0.0100256 0.00816989 0.00654221 0.00514255 0.00393727 0.00289269 0.00200881 0.00128564 0.000723172 0.00032141 8.03524e-05 0 0 5.25913e-05 0.000210365 0.000473322 0.000841461 0.00131478 0.00189329 0.00257697 0.00336584 0.00429025 0.00538054 0.00663672 0.00805878 0.00964673 0.0114006 0.0133203 0.0154059 0.0175941 0.0198218 0.0220888 0.0243951 0.0267409 0.029126 0.0315505 0.0340144 0.0364618 0.0388368 0.0411395 0.0433698 0.0455278 0.0476134 0.0496266 0.0515675 0.0534203 0.0551692 0.0568142 0.0583553 0.0597925 0.0611259 0.0623554 0.063481 0.0645242 0.0655064 0.0664277 0.0672881 0.0680875 0.068826 0.0695036 0.0701202 0.0707117 0.0713139 0.0719267 0.0725502 0.0731845 0.0738294 0.074485 0.0751512 0.0758479 0.0765946 0.0773914 0.0782383 0.0791353 0.0800824 0.0810795 0.0821267 0.0832078 0.0843065 0.0854229 0.086557 0.0877086 0.088878 0.090065 0.0912696 0.0924439 0.0935399 0.0945576 0.095497 0.0963581 0.0971408 0.0978452 0.0984714 0.0989669 0.0992795 0.0994093 0.0993563 0.0991204 0.0987016 0.0980999 0.0973154 0.0963272 0.0951147 0.0936777 0.0920163 0.0901305 0.0880203 0.0856857 0.0831266 0.0803784 0.0774761 0.0744198 0.0712096 0.0678452 0.0643269 0.0606546 0.0568282 0.0529419 0.0490898 0.0452717 0.0414877 0.0377379 0.0340221 0.0303405 0.026693 0.0231944 0.0199594 0.016988 0.0142803 0.0118361 0.00965567 0.00773882 0.0060856 0.00465929 0.00342315 0.00237719 0.0015214 0.000855788 0.00038035 9.50875e-05 0 0 6.2276e-05 0.000249104 0.000560484 0.000996416 0.0015569 0.00224194 0.00305152 0.00398566 0.00507775 0.00636117 0.00783593 0.00950204 0.0113595 0.0134083 0.0156484 0.0180798 0.0206294 0.0232237 0.0258629 0.0285469 0.0312757 0.0340494 0.0368678 0.0397311 0.0425752 0.0453358 0.0480131 0.050607 0.0531176 0.0555448 0.0578886 0.0601491 0.0623078 0.0643465 0.066265 0.0680635 0.0697419 0.0713002 0.0727384 0.0740565 0.0752789 0.07643 0.0775099 0.0785184 0.0794557 0.0803218 0.0811165 0.0818399 0.0825331 0.083237 0.0839517 0.0846771 0.0854132 0.0861601 0.0869177 0.0876861 0.0884878 0.0893456 0.0902594 0.0912292 0.0922551 0.093337 0.094475 0.0956689 0.0969005 0.0981511 0.0994209 0.10071 0.102018 0.103345 0.104691 0.106056 0.107386 0.108624 0.109773 0.11083 0.111797 0.112674 0.113459 0.114154 0.114699 0.115034 0.115158 0.115073 0.114777 0.114271 0.113555 0.112629 0.111469 0.110052 0.108378 0.106446 0.104257 0.101811 0.099107 0.0961461 0.0929684 0.0896143 0.0860839 0.0823773 0.0784943 0.074435 0.0701993 0.0657874 0.0613065 0.0568638 0.0524595 0.0480935 0.0437658 0.0394764 0.0352254 0.0310126 0.0269698 0.0232288 0.0197895 0.016652 0.0138161 0.011282 0.00904968 0.00711905 0.00545053 0.00400447 0.00278088 0.00177976 0.00100112 0.000444941 0.000111235 0 0 7.29022e-05 0.000291609 0.00065612 0.00116644 0.00182256 0.00262448 0.00357221 0.00466574 0.00594152 0.00743597 0.0091491 0.0110809 0.0132314 0.0156005 0.0181884 0.0209949 0.023936 0.0269278 0.0299701 0.033063 0.0362065 0.0394006 0.0426452 0.0459405 0.0492135 0.0523913 0.0554739 0.0584613 0.0613536 0.0641507 0.0668526 0.0694594 0.0719498 0.0743026 0.0765179 0.0785957 0.0805359 0.0823386 0.0840038 0.0855314 0.086949 0.088284 0.0895366 0.0907066 0.0917941 0.092799 0.0937214 0.0945613 0.0953653 0.0961798 0.0970049 0.0978405 0.0986867 0.0995436 0.100411 0.101289 0.102203 0.10318 0.104219 0.105319 0.106483 0.107708 0.108995 0.110345 0.111736 0.113148 0.11458 0.116032 0.117505 0.118998 0.120512 0.122047 0.123539 0.124928 0.126213 0.127394 0.128471 0.129445 0.130314 0.131079 0.131673 0.132028 0.132143 0.132019 0.131656 0.131053 0.130212 0.12913 0.127783 0.126144 0.124212 0.121988 0.119471 0.116662 0.113561 0.110167 0.106527 0.102687 0.0986463 0.094406 0.0899655 0.085325 0.0804844 0.0754437 0.0703243 0.0652475 0.0602135 0.0552221 0.0502734 0.0453673 0.040504 0.0356833 0.0310551 0.0267692 0.0228257 0.0192245 0.0159656 0.013049 0.0104748 0.00824291 0.00631098 0.00463664 0.00321989 0.00206073 0.00115916 0.000515182 0.000128795 0 0 8.42901e-05 0.00033716 0.000758611 0.00134864 0.00210725 0.00303444 0.00413021 0.00539457 0.00686695 0.00858683 0.0105542 0.0127691 0.0152314 0.0179413 0.0208986 0.0241034 0.0274603 0.0308736 0.0343436 0.03787 0.0414529 0.0450924 0.0487885 0.052541 0.056268 0.0598874 0.0633992 0.0668033 0.0700999 0.0732888 0.0763701 0.0793438 0.0821857 0.0848716 0.0874014 0.0897754 0.0919933 0.0940552 0.0959611 0.0977111 0.0993357 0.100866 0.102301 0.103642 0.104888 0.106039 0.107096 0.108058 0.108978 0.109908 0.110848 0.111797 0.112757 0.113727 0.114706 0.115696 0.116724 0.117821 0.118987 0.12022 0.121521 0.122891 0.124329 0.125836 0.127387 0.12896 0.130555 0.132171 0.133809 0.135469 0.13715 0.138854 0.140509 0.142047 0.143467 0.144769 0.145954 0.147021 0.14797 0.148802 0.14944 0.149809 0.149908 0.149738 0.149299 0.14859 0.147612 0.146364 0.144818 0.142943 0.140739 0.138207 0.135346 0.132157 0.128638 0.124792 0.120668 0.116321 0.111748 0.106951 0.10193 0.096684 0.0912134 0.0855183 0.0797345 0.0739978 0.0683082 0.0626657 0.0570703 0.051522 0.0460208 0.0405667 0.0353283 0.0304743 0.0260047 0.0219195 0.0182186 0.0149021 0.01197 0.00942224 0.0072139 0.00530001 0.00368056 0.00235556 0.001325 0.00058889 0.000147222 0 0 9.62595e-05 0.000385038 0.000866336 0.00154015 0.00240649 0.00346534 0.00471672 0.00616061 0.00783945 0.00979566 0.0120293 0.0145402 0.0173285 0.0203943 0.0237373 0.0273578 0.0311482 0.0350011 0.0389165 0.0428944 0.0469349 0.0510378 0.0552033 0.0594312 0.0636302 0.0677086 0.0716664 0.0755038 0.0792206 0.0828169 0.0862926 0.0896478 0.0928551 0.0958873 0.0987442 0.101426 0.103932 0.106264 0.10842 0.110401 0.11224 0.113972 0.115596 0.117113 0.118522 0.119824 0.121018 0.122104 0.123141 0.124187 0.125241 0.126304 0.127376 0.128456 0.129545 0.130643 0.131782 0.132994 0.134281 0.135641 0.137076 0.138584 0.140165 0.141821 0.143525 0.145252 0.147001 0.148773 0.150568 0.152385 0.154226 0.156089 0.157897 0.159575 0.16112 0.162535 0.163817 0.164969 0.165989 0.166877 0.16755 0.167923 0.167997 0.167772 0.167247 0.166423 0.165299 0.163876 0.162121 0.160001 0.157516 0.154667 0.151453 0.147874 0.143931 0.139623 0.135008 0.130144 0.125031 0.119669 0.114059 0.108199 0.10209 0.0957327 0.0892764 0.0828716 0.0765183 0.0702166 0.0639663 0.0577675 0.0516202 0.0455244 0.0396678 0.0342379 0.0292349 0.0246587 0.0205094 0.0167868 0.0134911 0.0106221 0.00813256 0.00597494 0.00414926 0.00265553 0.00149373 0.000663882 0.000165971 0 0 0.000108811 0.000435242 0.000979295 0.00174097 0.00272026 0.00391718 0.00533172 0.00696387 0.00885901 0.0110625 0.0135742 0.0163943 0.0195228 0.0229595 0.0267046 0.030758 0.0349998 0.0393102 0.043689 0.0481364 0.0526523 0.0572367 0.0618897 0.0666111 0.0712999 0.0758547 0.0802756 0.0845626 0.0887157 0.0927349 0.0966201 0.100371 0.103958 0.10735 0.110546 0.113547 0.116353 0.118964 0.12138 0.1236 0.125662 0.127603 0.129423 0.131121 0.132698 0.134153 0.135487 0.1367 0.137855 0.139017 0.140186 0.141361 0.142544 0.143732 0.144928 0.14613 0.147375 0.148699 0.150102 0.151584 0.153145 0.154785 0.156503 0.158301 0.16015 0.162023 0.163919 0.165838 0.167781 0.169748 0.171738 0.173752 0.175705 0.177513 0.179175 0.180691 0.182063 0.183289 0.18437 0.185305 0.186003 0.186372 0.186411 0.186121 0.185501 0.184552 0.183273 0.181665 0.179692 0.177318 0.174543 0.171368 0.167792 0.163815 0.159438 0.15466 0.149545 0.144156 0.138495 0.13256 0.126351 0.11987 0.113115 0.106087 0.09895 0.091869 0.0848439 0.0778747 0.0709613 0.0641038 0.0573021 0.0505564 0.0440734 0.03806 0.0325163 0.0274423 0.0228379 0.0187031 0.015038 0.0118425 0.00906694 0.00666143 0.00462599 0.00296064 0.00166536 0.000740159 0.00018504 0 0 0.000121943 0.000487773 0.00109749 0.00195109 0.00304858 0.00438995 0.00597521 0.00780436 0.00992562 0.0123872 0.0151892 0.0183315 0.0218141 0.0256371 0.0298004 0.034304 0.0390151 0.0438008 0.048661 0.0535958 0.0586052 0.0636891 0.0688476 0.0740807 0.0792772 0.0843259 0.0892268 0.0939799 0.0985853 0.103043 0.107353 0.111515 0.115495 0.119259 0.122807 0.12614 0.129256 0.132157 0.134841 0.13731 0.139603 0.141759 0.14378 0.145665 0.147414 0.149027 0.150504 0.151845 0.15312 0.154399 0.155682 0.156969 0.15826 0.159555 0.160854 0.162157 0.163504 0.164935 0.166449 0.168047 0.169729 0.171494 0.173343 0.175276 0.177263 0.179273 0.181308 0.183367 0.18545 0.187557 0.189688 0.191844 0.193932 0.19586 0.197629 0.199239 0.20069 0.201982 0.203114 0.204087 0.2048 0.205154 0.205149 0.204784 0.20406 0.202977 0.201534 0.199731 0.197531 0.194894 0.19182 0.18831 0.184363 0.17998 0.17516 0.169903 0.164279 0.158358 0.152139 0.145623 0.138808 0.131697 0.124288 0.116581 0.108755 0.10099 0.0932849 0.08564 0.0780554 0.0705309 0.0630667 0.0556627 0.0485452 0.0419406 0.0358489 0.0302701 0.0252041 0.020651 0.0166108 0.0130835 0.0100171 0.00735948 0.00511075 0.00327088 0.00183987 0.00081772 0.00020443 0 0 0.000135657 0.000542629 0.00122092 0.00217052 0.00339143 0.00488366 0.00664721 0.00868207 0.0110393 0.01377 0.016874 0.0203515 0.0242025 0.0284268 0.0330246 0.0379959 0.0431941 0.048473 0.0538325 0.0592727 0.0647936 0.0703951 0.0760772 0.08184 0.087562 0.093122 0.0985198 0.103756 0.108829 0.113741 0.11849 0.123077 0.127465 0.131615 0.135528 0.139203 0.142641 0.145841 0.148804 0.151529 0.15406 0.15644 0.158668 0.160745 0.162671 0.164445 0.166067 0.167539 0.168935 0.170331 0.171728 0.173126 0.174525 0.175924 0.177324 0.178725 0.18017 0.181702 0.183323 0.185032 0.186828 0.188713 0.190685 0.192746 0.194862 0.197003 0.199169 0.201359 0.203573 0.205812 0.208076 0.210364 0.212577 0.214618 0.216485 0.218179 0.219699 0.221046 0.22222 0.223221 0.223941 0.224271 0.224211 0.223763 0.222925 0.221698 0.220081 0.218075 0.215638 0.212729 0.209348 0.205493 0.201167 0.196368 0.191096 0.185353 0.179212 0.172749 0.165964 0.158858 0.15143 0.14368 0.135608 0.127214 0.118692 0.110234 0.101841 0.0935126 0.0852485 0.0770489 0.0689138 0.0608433 0.0530832 0.0458797 0.0392326 0.0331421 0.0276081 0.0226306 0.0182095 0.014345 0.0109829 0.00806908 0.00560353 0.00358626 0.00201727 0.000896565 0.000224141 0 0 0.000149953 0.000599812 0.00134958 0.00239925 0.00374883 0.00539831 0.0073477 0.009597 0.0122 0.0152107 0.0186289 0.0224546 0.026688 0.0313289 0.0363774 0.0418335 0.0475368 0.0533268 0.0592036 0.0651671 0.0712174 0.0773545 0.0835784 0.0898889 0.0961545 0.102243 0.108155 0.11389 0.119448 0.124829 0.130033 0.13506 0.139869 0.144418 0.148708 0.152737 0.156507 0.160018 0.163268 0.166259 0.169036 0.171646 0.174088 0.176362 0.178468 0.180407 0.182178 0.183782 0.1853 0.186815 0.188326 0.189834 0.191339 0.19284 0.194338 0.195832 0.197371 0.199001 0.200723 0.202537 0.204443 0.20644 0.208529 0.21071 0.212949 0.215213 0.217501 0.219814 0.222152 0.224514 0.226901 0.229312 0.231642 0.233785 0.23574 0.237509 0.23909 0.240483 0.24169 0.242709 0.243424 0.243721 0.243598 0.243056 0.242095 0.240715 0.238916 0.236697 0.234014 0.230824 0.227125 0.222918 0.218203 0.212979 0.207248 0.201008 0.194342 0.187329 0.17997 0.172266 0.164215 0.155819 0.147076 0.137988 0.128761 0.119602 0.110513 0.101493 0.0925407 0.0836577 0.0748435 0.0660981 0.0576874 0.0498772 0.0426676 0.0360584 0.0300498 0.0246417 0.0198341 0.0156271 0.0119645 0.00879025 0.00610434 0.00390678 0.00219756 0.000976694 0.000244173 0 0 0.00016483 0.000659322 0.00148347 0.00263729 0.00412076 0.0059339 0.00807669 0.0105491 0.0134078 0.0167093 0.0204536 0.0246407 0.0292706 0.0343433 0.0398587 0.045817 0.0520431 0.0583622 0.0647741 0.071279 0.0778768 0.0845675 0.0913511 0.0982276 0.105054 0.111689 0.118132 0.124382 0.13044 0.136306 0.14198 0.147462 0.152706 0.157668 0.162346 0.166742 0.170856 0.174686 0.178234 0.181499 0.18453 0.187376 0.190038 0.192515 0.194807 0.196914 0.198837 0.200575 0.202216 0.20385 0.205475 0.207092 0.208701 0.210302 0.211895 0.21348 0.215108 0.216832 0.21865 0.220564 0.222573 0.224676 0.226875 0.229169 0.231523 0.233902 0.236305 0.238732 0.241185 0.243661 0.246163 0.248688 0.251126 0.253362 0.255397 0.25723 0.258862 0.260292 0.261522 0.262549 0.263252 0.263505 0.26331 0.262665 0.261571 0.260029 0.258037 0.255596 0.252658 0.249177 0.245152 0.240584 0.235