<?xml version="1.0"?> 
<VTKFile type="StructuredGrid" version="0.1"> 
<StructuredGrid WholeExtent="0 64 0 64 0 0"> 
<Piece Extent="0 64 0 64 0 0"> 
<PointData>
<DataArray type="Float32" Name="u" format="ascii" NumberOfComponents="1"> 
0.500144 0.57704 0.653936 0.730832 0.807727 0.67448 0.541233 0.407986 0.274738 0.372288 0.469838 0.567388 0.664938 0.648733 0.632527 0.616322 0.600116 0.59328 0.586445 0.579609 0.572773 0.558017 0.543261 0.528505 0.513749 0.524438 0.535127 0.545815 0.556504 0.534682 0.512861 0.491039 0.469217 0.415143 0.361069 0.306994 0.25292 0.286012 0.319104 0.352196 0.385288 0.427083 0.468877 0.510671 0.552466 0.563596 0.574726 0.585857 0.596987 0.64285 0.688712 0.734575 0.780438 0.787904 0.795371 0.802838 0.810304 0.673015 0.535725 0.398435 0.261145 0.351805 0.442465 0.533125 0.623785 0.520133 0.573209 0.626285 0.679361 0.732436 0.627733 0.52303 0.418326 0.313623 0.391525 0.469426 0.547328 0.62523 0.620673 0.616117 0.61156 0.607004 0.613121 0.619238 0.625355 0.631472 0.586473 0.541475 0.496477 0.451479 0.487115 0.522751 0.558387 0.594024 0.569579 0.545134 0.52069 0.496245 0.468178 0.440112 0.412046 0.383979 0.377217 0.370454 0.363691 0.356929 0.395789 0.434649 0.473509 0.512368 0.511306 0.510244 0.509182 0.50812 0.560176 0.612232 0.664287 0.716343 0.732258 0.748173 0.764088 0.780003 0.657983 0.535963 0.413944 0.291924 0.357923 0.423921 0.48992 0.555919 0.540121 0.569377 0.598633 0.627889 0.657145 0.580986 0.504827 0.428667 0.352508 0.410761 0.469014 0.527268 0.585521 0.592614 0.599706 0.606799 0.613892 0.632961 0.652031 0.6711 0.69017 0.61493 0.539689 0.464449 0.389208 0.449792 0.510376 0.57096 0.631543 0.604476 0.577408 0.55034 0.523272 0.521214 0.519156 0.517097 0.515039 0.468421 0.421804 0.375186 0.328569 0.364495 0.40042 0.436346 0.472271 0.459017 0.445762 0.432507 0.419253 0.477502 0.535751 0.594 0.652249 0.676612 0.700975 0.725338 0.749701 0.642952 0.536202 0.429452 0.322703 0.36404 0.405378 0.446715 0.488052 0.560109 0.565546 0.570982 0.576418 0.581855 0.534239 0.486623 0.439008 0.391392 0.429997 0.468602 0.507207 0.545812 0.564554 0.583296 0.602038 0.62078 0.652802 0.684824 0.716846 0.748868 0.643386 0.537903 0.43242 0.326938 0.412469 0.498 0.583532 0.669063 0.639372 0.609682 0.579991 0.5503 0.57425 0.598199 0.622149 0.646099 0.559626 0.473154 0.386682 0.300209 0.333201 0.366192 0.399183 0.432174 0.406727 0.38128 0.355833 0.330386 0.394828 0.45927 0.523713 0.588155 0.620966 0.653777 0.686589 0.7194 0.62792 0.536441 0.444961 0.353482 0.370158 0.386834 0.40351 0.420186 0.580098 0.561714 0.543331 0.524947 0.506564 0.487492 0.46842 0.449348 0.430277 0.449234 0.46819 0.487147 0.506104 0.536495 0.566886 0.597276 0.627667 0.672642 0.717617 0.762592 0.807567 0.671842 0.536117 0.400392 0.264667 0.375146 0.485625 0.596104 0.706583 0.674269 0.641955 0.609641 0.577328 0.627285 0.677243 0.7272 0.777158 0.650831 0.524504 0.398177 0.27185 0.301906 0.331963 0.36202 0.392077 0.354438 0.316798 0.279158 0.241519 0.312154 0.38279 0.453425 0.524061 0.56532 0.606579 0.647839 0.689098 0.612889 0.536679 0.46047 0.38426 0.376275 0.36829 0.360305 0.35232 0.537542 0.528821 0.5201 0.511378 0.502657 0.49936 0.496062 0.492765 0.489467 0.494827 0.500187 0.505547 0.510907 0.528733 0.54656 0.564387 0.582213 0.636325 0.690436 0.744548 0.798659 0.699197 0.599734 0.500272 0.400809 0.470536 0.540262 0.609989 0.679716 0.636148 0.592581 0.549014 0.505446 0.561871 0.618296 0.674721 0.731146 0.627227 0.523309 0.41939 0.315472 0.361704 0.407936 0.454168 0.500401 0.444726 0.389051 0.333377 0.277702 0.347002 0.416301 0.485601 0.5549 0.579217 0.603534 0.627851 0.652168 0.581574 0.51098 0.440386 0.369792 0.383626 0.39746 0.411295 0.425129 0.494987 0.495928 0.496869 0.49781 0.49875 0.511227 0.523704 0.536181 0.548658 0.540421 0.532184 0.523947 0.51571 0.520972 0.526235 0.531497 0.53676 0.600007 0.663255 0.726503 0.789751 0.726551 0.663351 0.600151 0.536951 0.565925 0.5949 0.623874 0.652849 0.598028 0.543207 0.488386 0.433565 0.496457 0.55935 0.622242 0.685134 0.603624 0.522114 0.440604 0.359094 0.421501 0.483909 0.546316 0.608724 0.535014 0.461305 0.387595 0.313886 0.381849 0.449813 0.517776 0.58574 0.593115 0.600489 0.607864 0.615238 0.550259 0.485281 0.420302 0.355323 0.390977 0.42663 0.462284 0.497938 0.452431 0.463035 0.473638 0.484241 0.494844 0.523095 0.551346 0.579598 0.607849 0.586015 0.564181 0.542347 0.520513 0.513211 0.505909 0.498608 0.491306 0.56369 0.636075 0.708459 0.780844 0.753906 0.726968 0.700031 0.673093 0.661315 0.649537 0.63776 0.625982 0.559907 0.493833 0.427758 0.361684 0.431043 0.500403 0.569762 0.639122 0.580021 0.520919 0.461818 0.402716 0.481299 0.559882 0.638464 0.717047 0.625303 0.533558 0.441814 0.35007 0.416697 0.483325 0.549952 0.61658 0.607012 0.597444 0.587876 0.578308 0.518945 0.459581 0.400218 0.340854 0.398327 0.455801 0.513274 0.570747 0.409876 0.430141 0.450407 0.470672 0.490937 0.534963 0.578988 0.623014 0.66704 0.631609 0.596178 0.560747 0.525316 0.50545 0.485584 0.465718 0.445852 0.527373 0.608894 0.690415 0.771936 0.78126 0.790585 0.79991 0.809235 0.756705 0.704175 0.651645 0.599115 0.521787 0.444459 0.367131 0.289803 0.36563 0.441456 0.517283 0.59311 0.556417 0.519724 0.483031 0.446339 0.541096 0.635854 0.730612 0.82537 0.715591 0.605812 0.496033 0.386253 0.451545 0.516836 0.582128 0.647419 0.620909 0.594399 0.567889 0.541378 0.48763 0.433882 0.380133 0.326385 0.405678 0.484971 0.564263 0.643556 0.366693 0.387292 0.40789 0.428489 0.449087 0.476646 0.504205 0.531763 0.559322 0.565472 0.571623 0.577773 0.583923 0.567257 0.55059 0.533923 0.517256 0.550279 0.583302 0.616325 0.649348 0.667728 0.686109 0.704489 0.72287 0.672166 0.621462 0.570758 0.520054 0.479663 0.439273 0.398883 0.358493 0.430062 0.50163 0.573199 0.644768 0.590247 0.535727 0.481206 0.426685 0.526335 0.625985 0.725634 0.825284 0.718013 0.610741 0.50347 0.396199 0.439656 0.483112 0.526569 0.570026 0.567995 0.565964 0.563932 0.561901 0.533446 0.504991 0.476536 0.448081 0.494339 0.540597 0.586855 0.633113 0.32351 0.344442 0.365374 0.386306 0.407238 0.418329 0.429421 0.440513 0.451604 0.499336 0.547067 0.594799 0.64253 0.629063 0.615596 0.602128 0.588661 0.573186 0.55771 0.542235 0.526759 0.554196 0.581632 0.609068 0.636504 0.587626 0.538748 0.48987 0.440992 0.43754 0.434088 0.430635 0.427183 0.494494 0.561805 0.629116 0.696426 0.624078 0.551729 0.479381 0.407032 0.511573 0.616115 0.720656 0.825198 0.720434 0.615671 0.510907 0.406144 0.427766 0.449389 0.471011 0.492634 0.515081 0.537528 0.559976 0.582423 0.579261 0.5761 0.572938 0.569777 0.583 0.596223 0.609446 0.622669 0.280327 0.301592 0.322857 0.344123 0.365388 0.360012 0.354637 0.349262 0.343887 0.433199 0.522512 0.611825 0.701138 0.69087 0.680602 0.670334 0.660066 0.596092 0.532118 0.468145 0.404171 0.440663 0.477155 0.513647 0.550139 0.503087 0.456035 0.408983 0.361931 0.395417 0.428902 0.462387 0.495872 0.558926 0.621979 0.685032 0.748085 0.657908 0.567732 0.477555 0.387379 0.496812 0.606245 0.715678 0.825111 0.722856 0.6206 0.518345 0.416089 0.415877 0.415665 0.415453 0.415241 0.462167 0.509093 0.556019 0.602945 0.625077 0.647209 0.669341 0.691472 0.671661 0.651849 0.632037 0.612225 0.237144 0.258742 0.280341 0.301939 0.323538 0.301696 0.279853 0.258011 0.236169 0.367063 0.497957 0.628851 0.759745 0.752676 0.745608 0.738539 0.73147 0.618998 0.506527 0.394055 0.281583 0.327131 0.372679 0.418226 0.463774 0.418548 0.373322 0.328096 0.28287 0.353293 0.423716 0.494139 0.564562 0.623358 0.682153 0.740948 0.799743 0.691739 0.583734 0.47573 0.367725 0.48205 0.596375 0.7107 0.825025 0.725277 0.62553 0.525782 0.426035 0.403988 0.381941 0.359895 0.337848 0.409253 0.480658 0.552063 0.623468 0.670893 0.718318 0.765743 0.813168 0.760321 0.707475 0.654628 0.601782 0.239117 0.267581 0.296044 0.324507 0.35297 0.328464 0.303958 0.279452 0.254946 0.355662 0.456379 0.557095 0.657812 0.645529 0.633247 0.620965 0.608682 0.557432 0.506182 0.454932 0.403681 0.433616 0.46355 0.493484 0.523419 0.473123 0.422828 0.372532 0.322236 0.39294 0.463644 0.534348 0.605052 0.646102 0.687151 0.7282 0.769249 0.683103 0.596958 0.510812 0.424666 0.501533 0.578401 0.655269 0.732136 0.655971 0.579805 0.50364 0.427475 0.400395 0.373315 0.346235 0.319155 0.382587 0.446019 0.509451 0.572883 0.616418 0.659953 0.703488 0.747023 0.70433 0.661637 0.618944 0.576251 0.241091 0.276419 0.311746 0.347074 0.382401 0.355232 0.328062 0.300892 0.273723 0.344262 0.414801 0.48534 0.555879 0.538383 0.520887 0.503391 0.485895 0.495866 0.505837 0.515808 0.525779 0.5401 0.554421 0.568743 0.583064 0.527698 0.472333 0.416968 0.361603 0.432588 0.503573 0.574558 0.645543 0.668846 0.692149 0.715452 0.738755 0.674468 0.610181 0.545894 0.481606 0.521017 0.560427 0.599837 0.639248 0.586664 0.534081 0.481498 0.428914 0.396801 0.364688 0.332575 0.300462 0.355921 0.41138 0.466839 0.522298 0.561943 0.601587 0.641232 0.680877 0.648338 0.615799 0.58326 0.550721 0.243065 0.285257 0.327449 0.369641 0.411833 0.382 0.352166 0.322333 0.2925 0.332861 0.373222 0.413584 0.453945 0.431236 0.408526 0.385817 0.363107 0.4343 0.505492 0.576685 0.647877 0.646585 0.645293 0.644001 0.642708 0.582274 0.521839 0.461404 0.400969 0.472235 0.543501 0.614767 0.686033 0.69159 0.697147 0.702704 0.708261 0.665833 0.623404 0.580975 0.538547 0.5405 0.542453 0.544406 0.546359 0.517358 0.488357 0.459356 0.430354 0.393208 0.356062 0.318915 0.281769 0.329255 0.376741 0.424227 0.471713 0.507468 0.543222 0.578977 0.614732 0.592346 0.569961 0.547576 0.525191 0.245038 0.294095 0.343151 0.392208 0.441265 0.408768 0.376271 0.343774 0.311277 0.32146 0.331644 0.341828 0.352012 0.324089 0.296166 0.268242 0.240319 0.372733 0.505147 0.637561 0.769975 0.75307 0.736164 0.719259 0.702353 0.636849 0.571345 0.50584 0.440336 0.511883 0.583429 0.654976 0.726523 0.714334 0.702145 0.689956 0.677768 0.657198 0.636627 0.616057 0.595487 0.559983 0.524479 0.488975 0.453471 0.448052 0.442633 0.437213 0.431794 0.389615 0.347435 0.305256 0.263076 0.302589 0.342102 0.381615 0.421128 0.452992 0.484857 0.516722 0.548586 0.536355 0.524123 0.511892 0.499661 0.334887 0.366997 0.399108 0.431218 0.463329 0.450557 0.437786 0.425015 0.412243 0.391967 0.371691 0.351415 0.331139 0.32447 0.3178 0.311131 0.304461 0.408688 0.512914 0.61714 0.721367 0.692998 0.664629 0.636261 0.607892 0.575291 0.54269 0.510089 0.477488 0.509352 0.541215 0.573079 0.604942 0.61621 0.627477 0.638744 0.650012 0.644973 0.639935 0.634896 0.629858 0.589879 0.5499 0.509921 0.469942 0.463516 0.457089 0.450662 0.444236 0.401292 0.358349 0.315406 0.272462 0.297429 0.322396 0.347363 0.37233 0.424467 0.476603 0.52874 0.580876 0.573774 0.566671 0.559568 0.552465 0.424736 0.4399 0.455064 0.470228 0.485393 0.492347 0.499301 0.506256 0.51321 0.462474 0.411738 0.361002 0.310266 0.32485 0.339434 0.354019 0.368603 0.444642 0.520681 0.59672 0.672759 0.632926 0.593094 0.553262 0.51343 0.513733 0.514035 0.514338 0.514641 0.506821 0.499001 0.491182 0.483362 0.518085 0.552809 0.587532 0.622256 0.632749 0.643242 0.653735 0.664228 0.619775 0.575321 0.530868 0.486414 0.47898 0.471546 0.464111 0.456677 0.41297 0.369263 0.325556 0.281848 0.292269 0.30269 0.313111 0.323532 0.395941 0.468349 0.540758 0.613166 0.611192 0.609218 0.607244 0.60527 0.514584 0.512803 0.511021 0.509239 0.507457 0.534137 0.560817 0.587497 0.614177 0.532981 0.451785 0.370589 0.289393 0.325231 0.361069 0.396907 0.432745 0.480596 0.528447 0.576299 0.62415 0.572855 0.521559 0.470264 0.418969 0.452175 0.485381 0.518587 0.551793 0.50429 0.456787 0.409284 0.361781 0.419961 0.478141 0.53632 0.5945 0.620525 0.646549 0.672574 0.698598 0.64967 0.600742 0.551814 0.502886 0.494444 0.486002 0.47756 0.469118 0.424647 0.380176 0.335705 0.291235 0.28711 0.282985 0.27886 0.274735 0.367415 0.460096 0.552776 0.645456 0.648611 0.651766 0.65492 0.658075 0.604433 0.585705 0.566977 0.548249 0.529521 0.575927 0.622332 0.668738 0.715144 0.603488 0.491832 0.380176 0.26852 0.325612 0.382703 0.439795 0.496887 0.51655 0.536214 0.555878 0.575542 0.512783 0.450024 0.387266 0.324507 0.390617 0.456726 0.522836 0.588946 0.50176 0.414573 0.327387 0.240201 0.321837 0.403473 0.485109 0.566744 0.6083 0.649856 0.691413 0.732969 0.679566 0.626163 0.572761 0.519358 0.509908 0.500459 0.491009 0.481559 0.436325 0.39109 0.345855 0.300621 0.28195 0.263279 0.244608 0.225937 0.338889 0.451842 0.564794 0.677746 0.68603 0.694313 0.702596 0.71088 0.550104 0.529402 0.508701 0.487999 0.467297 0.512149 0.557002 0.601854 0.646706 0.580667 0.514628 0.44859 0.382551 0.425866 0.469181 0.512496 0.555811 0.563682 0.571552 0.579423 0.587294 0.551715 0.516136 0.480558 0.444979 0.493898 0.542817 0.591737 0.640656 0.542909 0.445162 0.347415 0.249669 0.331765 0.413861 0.495957 0.578053 0.602694 0.627335 0.651976 0.676617 0.620422 0.564227 0.508033 0.451838 0.477141 0.502445 0.527749 0.553052 0.503514 0.453976 0.404437 0.354899 0.351595 0.348291 0.344988 0.341684 0.398621 0.455558 0.512495 0.569432 0.583801 0.59817 0.612539 0.626908 0.495774 0.473099 0.450424 0.427749 0.405074 0.448372 0.491671 0.534969 0.578268 0.557846 0.537425 0.517003 0.496582 0.526121 0.555659 0.585198 0.614736 0.610813 0.606891 0.602968 0.599046 0.590647 0.582248 0.57385 0.565451 0.59718 0.628908 0.660637 0.692365 0.584058 0.475751 0.367444 0.259136 0.341692 0.424249 0.506805 0.589361 0.597087 0.604813 0.61254 0.620266 0.561279 0.502292 0.443304 0.384317 0.444374 0.504432 0.564489 0.624546 0.570703 0.516861 0.463019 0.409177 0.42124 0.433304 0.445367 0.45743 0.458352 0.459274 0.460196 0.461118 0.481573 0.502027 0.522482 0.542937 0.441445 0.416796 0.392148 0.367499 0.342851 0.384595 0.42634 0.468085 0.509829 0.535025 0.560221 0.585417 0.610613 0.626375 0.642137 0.657899 0.673661 0.657945 0.642229 0.626513 0.610798 0.629579 0.648361 0.667142 0.685924 0.700461 0.714999 0.729537 0.744075 0.625207 0.50634 0.387472 0.268604 0.35162 0.434637 0.517653 0.600669 0.59148 0.582292 0.573103 0.563915 0.502135 0.440356 0.378576 0.316797 0.411608 0.506418 0.601228 0.696039 0.637893 0.579747 0.521601 0.463455 0.490885 0.518316 0.545747 0.573177 0.518084 0.462991 0.407897 0.352804 0.379344 0.405885 0.432425 0.458965 0.387116 0.360493 0.333871 0.307249 0.280627 0.320818 0.361009 0.4012 0.441391 0.512204 0.583018 0.653831 0.724644 0.72663 0.728615 0.7306 0.732586 0.705077 0.677568 0.650059 0.62255 0.668511 0.714473 0.760434 0.806396 0.803743 0.80109 0.798438 0.795785 0.666357 0.536928 0.4075 0.278072 0.361548 0.445024 0.528501 0.611977 0.585874 0.55977 0.533667 0.507563 0.442992 0.37842 0.313848 0.249277 0.378841 0.508405 0.637968 0.767532 0.705082 0.642632 0.580183 0.517733 0.56053 0.603328 0.646126 0.688924 0.577815 0.466707 0.355599 0.24449 0.277116 0.309742 0.342368 0.374994 0.44231 0.402642 0.362973 0.323305 0.283637 0.333332 0.383026 0.432721 0.482415 0.525677 0.568938 0.6122 0.655461 0.671777 0.688094 0.70441 0.720726 0.695702 0.670678 0.645654 0.62063 0.644525 0.668419 0.692314 0.716208 0.711044 0.70588 0.700717 0.695553 0.600045 0.504537 0.409029 0.313521 0.39868 0.48384 0.569 0.654159 0.616554 0.578949 0.541344 0.503739 0.454774 0.405808 0.356843 0.307877 0.405507 0.503136 0.600765 0.698394 0.670689 0.642984 0.615279 0.587573 0.591389 0.595205 0.59902 0.602836 0.545304 0.487773 0.430241 0.37271 0.363738 0.354767 0.345795 0.336823 0.497504 0.44479 0.392075 0.339361 0.286647 0.345845 0.405043 0.464241 0.523439 0.539149 0.554859 0.570569 0.586278 0.616925 0.647572 0.678219 0.708866 0.686328 0.663789 0.64125 0.618711 0.620538 0.622366 0.624193 0.62602 0.618345 0.61067 0.602995 0.595321 0.533733 0.472145 0.410558 0.34897 0.435813 0.522656 0.609498 0.696341 0.647235 0.598128 0.549022 0.499915 0.466556 0.433196 0.399837 0.366478 0.432172 0.497867 0.563561 0.629256 0.636296 0.643335 0.650375 0.657414 0.622248 0.587081 0.551914 0.516747 0.512793 0.508839 0.504884 0.50093 0.450361 0.399791 0.349222 0.298653 0.552698 0.486938 0.421177 0.355417 0.289657 0.358358 0.42706 0.495762 0.564463 0.552621 0.540779 0.528937 0.517095 0.562073 0.607051 0.652029 0.697007 0.676953 0.656899 0.636846 0.616792 0.596552 0.576312 0.556072 0.535833 0.525647 0.51546 0.505274 0.495088 0.467421 0.439754 0.412086 0.384419 0.472945 0.561471 0.649997 0.738523 0.677915 0.617307 0.556699 0.496091 0.478338 0.460585 0.442831 0.425078 0.458838 0.492598 0.526358 0.560118 0.601902 0.643687 0.685471 0.727255 0.653106 0.578957 0.504808 0.430659 0.480282 0.529905 0.579527 0.62915 0.536983 0.444816 0.352649 0.260482 0.607892 0.529086 0.450279 0.371473 0.292666 0.370872 0.449077 0.527282 0.605487 0.566094 0.5267 0.487306 0.447913 0.507221 0.56653 0.625839 0.685147 0.667579 0.65001 0.632441 0.614873 0.572566 0.530259 0.487952 0.445645 0.432948 0.42025 0.407553 0.394856 0.401109 0.407362 0.413615 0.419868 0.510077 0.600287 0.690496 0.780705 0.708595 0.636486 0.564376 0.492267 0.49012 0.487973 0.485826 0.483679 0.485504 0.487329 0.489155 0.49098 0.567509 0.644038 0.720567 0.797096 0.683965 0.570834 0.457702 0.344571 0.447771 0.550971 0.65417 0.75737 0.623606 0.489841 0.356077 0.222312 0.560141 0.517884 0.475627 0.43337 0.391113 0.433191 0.475269 0.517348 0.559426 0.540658 0.52189 0.503122 0.484353 0.522369 0.560385 0.5984 0.636416 0.605985 0.575554 0.545124 0.514693 0.505909 0.497126 0.488342 0.479559 0.470133 0.460707 0.451281 0.441855 0.448409 0.454963 0.461518 0.468072 0.523778 0.579485 0.635191 0.690898 0.642683 0.594468 0.546254 0.498039 0.504551 0.511063 0.517576 0.524088 0.532708 0.541328 0.549948 0.558569 0.583508 0.608447 0.633386 0.658325 0.575201 0.492077 0.408953 0.32583 0.424576 0.523323 0.62207 0.720816 0.625465 0.530114 0.434763 0.339412 0.51239 0.506683 0.500975 0.495267 0.489559 0.49551 0.501462 0.507413 0.513365 0.515222 0.517079 0.518937 0.520794 0.537517 0.554239 0.570962 0.587684 0.544392 0.501099 0.457806 0.414513 0.439253 0.463993 0.488733 0.513472 0.507318 0.501163 0.495009 0.488854 0.49571 0.502565 0.50942 0.516276 0.537479 0.558683 0.579887 0.601091 0.576771 0.552451 0.528131 0.503811 0.518983 0.534154 0.549325 0.564497 0.579912 0.595327 0.610742 0.626157 0.599506 0.572855 0.546205 0.519554 0.466437 0.413321 0.360204 0.307088 0.401382 0.495675 0.589969 0.684263 0.627325 0.570388 0.51345 0.456513 0.46464 0.495481 0.526322 0.557164 0.588005 0.55783 0.527654 0.497479 0.467303 0.489786 0.512269 0.534752 0.557235 0.552664 0.548094 0.543524 0.538953 0.482798 0.426643 0.370488 0.314333 0.372596 0.43086 0.489123 0.547386 0.544503 0.54162 0.538737 0.535853 0.54301 0.550166 0.557323 0.564479 0.55118 0.537881 0.524582 0.511284 0.510859 0.510433 0.510008 0.509583 0.533414 0.557245 0.581075 0.604906 0.627116 0.649326 0.671536 0.693746 0.615505 0.537264 0.459023 0.380782 0.357673 0.334565 0.311456 0.288347 0.378187 0.468028 0.557869 0.647709 0.629185 0.610661 0.592137 0.573613 0.416889 0.484279 0.55167 0.619061 0.686452 0.620149 0.553847 0.487544 0.421242 0.46435 0.507459 0.550567 0.593676 0.567812 0.541949 0.516085 0.490222 0.421205 0.352188 0.283171 0.214153 0.30594 0.397727 0.489513 0.5813 0.581688 0.582076 0.582464 0.582852 0.59031 0.597768 0.605225 0.612683 0.564881 0.51708 0.469278 0.421476 0.444946 0.468416 0.491886 0.515356 0.547845 0.580335 0.612825 0.645315 0.67432 0.703325 0.73233 0.761335 0.631504 0.501673 0.371842 0.242011 0.24891 0.255808 0.262707 0.269605 0.354993 0.44038 0.525768 0.611156 0.631045 0.650934 0.670824 0.690713 0.516649 0.534198 0.551748 0.569298 0.586848 0.546274 0.5057 0.465126 0.424551 0.469075 0.513598 0.558121 0.602644 0.571527 0.540409 0.509292 0.478175 0.445418 0.412662 0.379905 0.347149 0.39372 0.440292 0.486863 0.533435 0.52755 0.521665 0.51578 0.509896 0.536498 0.5631 0.589702 0.616304 0.562137 0.507969 0.453802 0.399635 0.443185 0.486736 0.530286 0.573836 0.59363 0.613424 0.633218 0.653011 0.66184 0.67067 0.679499 0.688328 0.574611 0.460895 0.347179 0.233463 0.244492 0.255522 0.266552 0.277581 0.346315 0.415049 0.483783 0.552517 0.591328 0.63014 0.668951 0.707763 0.616408 0.584117 0.551827 0.519536 0.487245 0.472399 0.457553 0.442707 0.427861 0.473799 0.519737 0.565675 0.611612 0.575241 0.53887 0.502499 0.466127 0.469632 0.473136 0.47664 0.480144 0.4815 0.482857 0.484213 0.485569 0.473412 0.461254 0.449097 0.436939 0.482686 0.528432 0.574179 0.619925 0.559392 0.498859 0.438326 0.377793 0.441424 0.505055 0.568686 0.632317 0.639415 0.646513 0.65361 0.660708 0.649361 0.638014 0.626667 0.61532 0.517719 0.420117 0.322516 0.224914 0.240075 0.255236 0.270397 0.285557 0.337638 0.389718 0.441798 0.493878 0.551612 0.609345 0.667079 0.724812 0.716168 0.634037 0.551905 0.469773 0.387641 0.398523 0.409406 0.420288 0.43117 0.478523 0.525875 0.573228 0.620581 0.578956 0.53733 0.495705 0.45408 0.493845 0.53361 0.573375 0.613139 0.56928 0.525421 0.481562 0.437703 0.419273 0.400843 0.382413 0.363982 0.428873 0.493764 0.558655 0.623546 0.556647 0.489749 0.42285 0.355952 0.439663 0.523375 0.607086 0.690798 0.6852 0.679601 0.674003 0.668405 0.636882 0.605359 0.573836 0.542313 0.460826 0.379339 0.297853 0.216366 0.235658 0.25495 0.274242 0.293533 0.32896 0.364387 0.399813 0.43524 0.511895 0.588551 0.665207 0.741862 0.815928 0.683956 0.551983 0.42001 0.288038 0.324648 0.361259 0.397869 0.434479 0.483247 0.532014 0.580782 0.629549 0.58267 0.535791 0.488912 0.442033 0.518058 0.594084 0.670109 0.746135 0.657061 0.567986 0.478912 0.389838 0.365135 0.340432 0.315729 0.291026 0.375061 0.459096 0.543132 0.627167 0.553903 0.480639 0.407374 0.33411 0.437902 0.541694 0.645487 0.749279 0.730985 0.71269 0.694396 0.676101 0.624402 0.572703 0.521005 0.469306 0.403934 0.338562 0.27319 0.207818 0.231241 0.254664 0.278087 0.30151 0.320283 0.339055 0.357828 0.376601 0.472179 0.567757 0.663334 0.758912 0.756228 0.646774 0.53732 0.427866 0.318412 0.344315 0.370218 0.396121 0.422023 0.464515 0.507007 0.549498 0.59199 0.575075 0.55816 0.541245 0.52433 0.582183 0.640036 0.697889 0.755742 0.672578 0.589414 0.50625 0.423086 0.409324 0.395562 0.3818 0.368037 0.434636 0.501235 0.567834 0.634433 0.55239 0.470348 0.388305 0.306263 0.405578 0.504892 0.604207 0.703522 0.669211 0.634901 0.60059 0.566279 0.542159 0.518039 0.493918 0.469798 0.422519 0.375239 0.32796 0.280681 0.280948 0.281214 0.281481 0.281747 0.297322 0.312896 0.32847 0.344044 0.449788 0.555532 0.661276 0.767021 0.696529 0.609593 0.522657 0.435722 0.348786 0.363982 0.379177 0.394372 0.409567 0.445783 0.481999 0.518215 0.55443 0.56748 0.580529 0.593578 0.606628 0.646308 0.685989 0.72567 0.76535 0.688096 0.610842 0.533588 0.456334 0.453513 0.450692 0.44787 0.445049 0.494211 0.543374 0.592536 0.641698 0.550878 0.460057 0.369236 0.278416 0.373253 0.46809 0.562928 0.657765 0.607438 0.557111 0.506784 0.456458 0.459916 0.463374 0.466832 0.47029 0.441104 0.411917 0.382731 0.353545 0.330655 0.307765 0.284875 0.261985 0.274361 0.286736 0.299112 0.311487 0.427398 0.543308 0.659219 0.775129 0.636829 0.572412 0.507995 0.443578 0.379161 0.383648 0.388136 0.392624 0.397112 0.427051 0.456991 0.486931 0.516871 0.559884 0.602898 0.645912 0.688925 0.710433 0.731942 0.75345 0.774958 0.703614 0.63227 0.560926 0.489582 0.497702 0.505821 0.513941 0.52206 0.553786 0.585512 0.617238 0.648964 0.549365 0.449766 0.350168 0.250569 0.340929 0.431288 0.521648 0.612008 0.545665 0.479322 0.412979 0.346636 0.377673 0.408709 0.439746 0.470782 0.459689 0.448595 0.437502 0.426408 0.380362 0.334316 0.288269 0.242223 0.2514 0.260577 0.269754 0.27893 0.405007 0.531084 0.657161 0.783238 0.577129 0.53523 0.493332 0.451433 0.409535 0.403315 0.397095 0.390875 0.384656 0.408319 0.431983 0.455647 0.479311 0.552289 0.625267 0.698245 0.771223 0.774558 0.777894 0.78123 0.784566 0.719132 0.653698 0.588264 0.52283 0.541891 0.560951 0.580012 0.599072 0.613361 0.627651 0.64194 0.656229 0.547852 0.439476 0.331099 0.222722 0.308604 0.394486 0.480368 0.566251 0.483891 0.401532 0.319173 0.236814 0.295429 0.354044 0.412659 0.471274 0.478274 0.485273 0.492272 0.499272 0.430069 0.360866 0.291664 0.222461 0.228439 0.234417 0.240395 0.246373 0.382617 0.51886 0.655104 0.791347 0.566767 0.529229 0.491691 0.454153 0.416616 0.411731 0.406846 0.401961 0.397076 0.40657 0.416065 0.425559 0.435053 0.48971 0.544366 0.599023 0.653679 0.664023 0.674367 0.68471 0.695054 0.6454 0.595745 0.546091 0.496437 0.528191 0.559945 0.591699 0.623454 0.622587 0.62172 0.620853 0.619987 0.537849 0.455711 0.373573 0.291435 0.342851 0.394266 0.445682 0.497097 0.464751 0.432405 0.400059 0.367712 0.403423 0.439133 0.474843 0.510553 0.522049 0.533544 0.54504 0.556535 0.497716 0.438896 0.380076 0.321257 0.338332 0.355407 0.372483 0.389558 0.492201 0.594845 0.697488 0.800131 0.556405 0.523228 0.490051 0.456873 0.423696 0.420146 0.416596 0.413046 0.409496 0.404821 0.400146 0.395471 0.390796 0.427131 0.463466 0.499801 0.536136 0.553487 0.570839 0.588191 0.605543 0.571668 0.537793 0.503918 0.470043 0.514491 0.558939 0.603387 0.647835 0.631812 0.61579 0.599767 0.583744 0.527845 0.471946 0.416048 0.360149 0.377098 0.394046 0.410995 0.427944 0.445611 0.463277 0.480944 0.498611 0.511416 0.524221 0.537027 0.549832 0.565824 0.581816 0.597807 0.613799 0.565362 0.516926 0.468489 0.420053 0.448225 0.476398 0.50457 0.532743 0.601786 0.670829 0.739872 0.808916 0.546043 0.517227 0.48841 0.459593 0.430777 0.428562 0.426346 0.424131 0.421916 0.403072 0.384227 0.365382 0.346538 0.364551 0.382565 0.400579 0.418592 0.442952 0.467312 0.491671 0.516031 0.497936 0.47984 0.461745 0.44365 0.500792 0.557933 0.615075 0.672217 0.641038 0.609859 0.57868 0.547501 0.517842 0.488182 0.458522 0.428862 0.411344 0.393826 0.376309 0.358791 0.42647 0.49415 0.561829 0.629509 0.619409 0.60931 0.59921 0.589111 0.609599 0.630087 0.650575 0.671063 0.633009 0.594956 0.556902 0.518848 0.558118 0.597388 0.636658 0.675928 0.711371 0.746814 0.782257 0.8177 0.535682 0.511226 0.486769 0.462313 0.437857 0.436977 0.436097 0.435217 0.434337 0.401322 0.368308 0.335294 0.30228 0.301972 0.301664 0.301357 0.301049 0.332416 0.363784 0.395152 0.426519 0.424204 0.421888 0.419572 0.417256 0.487092 0.556927 0.626763 0.696598 0.650264 0.603929 0.557594 0.511259 0.507838 0.504417 0.500996 0.497576 0.445591 0.393607 0.341622 0.289637 0.40733 0.525022 0.642715 0.760407 0.727403 0.694398 0.661394 0.628389 0.653374 0.678358 0.703342 0.728327 0.700656 0.672985 0.645315 0.617644 0.668011 0.718378 0.768745 0.819112 0.820955 0.822798 0.824641 0.826484 0.491845 0.488365 0.484885 0.481406 0.477926 0.481232 0.484539 0.487845 0.491151 0.457445 0.423739 0.390033 0.356327 0.369794 0.383262 0.396729 0.410197 0.408048 0.4059 0.403751 0.401603 0.397265 0.392927 0.388589 0.384251 0.431899 0.479547 0.527195 0.574843 0.545942 0.517042 0.488141 0.459241 0.47153 0.483818 0.496107 0.508396 0.46849 0.428585 0.388679 0.348774 0.432155 0.515537 0.598918 0.682299 0.654641 0.626983 0.599325 0.571667 0.578434 0.5852 0.591967 0.598734 0.609636 0.620538 0.63144 0.642342 0.673128 0.703915 0.734701 0.765487 0.759831 0.754176 0.74852 0.742864 0.448008 0.465505 0.483002 0.500498 0.517995 0.525488 0.532981 0.540473 0.547966 0.513568 0.47917 0.444772 0.410374 0.437616 0.464859 0.492102 0.519345 0.48368 0.448015 0.412351 0.376686 0.370326 0.363966 0.357606 0.351246 0.376706 0.402166 0.427627 0.453087 0.441621 0.430155 0.418689 0.407223 0.435221 0.46322 0.491218 0.519217 0.49139 0.463563 0.435736 0.40791 0.45698 0.506051 0.555121 0.604192 0.58188 0.559568 0.537257 0.514945 0.503494 0.492043 0.480592 0.469141 0.518615 0.56809 0.617565 0.66704 0.678245 0.689451 0.700657 0.711862 0.698708 0.685553 0.672399 0.659245 0.404171 0.442644 0.481118 0.519591 0.558064 0.569743 0.581422 0.593102 0.604781 0.569691 0.534601 0.499511 0.464421 0.505439 0.546457 0.587475 0.628493 0.559312 0.490131 0.42095 0.35177 0.343387 0.335005 0.326623 0.318241 0.321513 0.324786 0.328058 0.331331 0.337299 0.343268 0.349236 0.355205 0.398913 0.442621 0.486329 0.530037 0.514289 0.498541 0.482794 0.467046 0.481805 0.496565 0.511325 0.526085 0.509119 0.492154 0.475188 0.458223 0.428554 0.398885 0.369216 0.339548 0.427595 0.515643 0.60369 0.691738 0.683362 0.674987 0.666612 0.658237 0.637584 0.616931 0.596278 0.575625 0.360335 0.419784 0.479234 0.538683 0.598132 0.613998 0.629864 0.64573 0.661596 0.625814 0.590032 0.554249 0.518467 0.573261 0.628054 0.682847 0.737641 0.634944 0.532247 0.42955 0.326853 0.316449 0.306044 0.29564 0.285236 0.266321 0.247405 0.22849 0.209575 0.232978 0.256381 0.279784 0.303187 0.362604 0.422022 0.48144 0.540858 0.537189 0.53352 0.529851 0.526182 0.506631 0.487079 0.467528 0.447977 0.436358 0.424739 0.413119 0.4015 0.353614 0.305728 0.257841 0.209955 0.336575 0.463195 0.589815 0.716435 0.68848 0.660524 0.632568 0.604612 0.57646 0.548309 0.520157 0.492005 0.359376 0.426028 0.492679 0.559331 0.625982 0.63861 0.651239 0.663867 0.676495 0.650779 0.625063 0.599347 0.573632 0.599717 0.625803 0.651889 0.677975 0.620575 0.563176 0.505776 0.448377 0.435524 0.422672 0.40982 0.396968 0.353065 0.309162 0.265259 0.221356 0.245106 0.268857 0.292608 0.316358 0.383517 0.450676 0.517835 0.584994 0.566201 0.547409 0.528616 0.509824 0.497518 0.485212 0.472906 0.4606 0.470792 0.480984 0.491176 0.501369 0.46597 0.430571 0.395172 0.359774 0.446994 0.534215 0.621436 0.708657 0.680099 0.651541 0.622983 0.594425 0.587209 0.579994 0.572778 0.565562 0.358418 0.432271 0.506125 0.579978 0.653831 0.663222 0.672613 0.682004 0.691395 0.675745 0.660095 0.644445 0.628796 0.626174 0.623552 0.620931 0.618309 0.606207 0.594105 0.582002 0.5699 0.5546 0.5393 0.524 0.5087 0.439809 0.370918 0.302027 0.233136 0.257235 0.281333 0.305432 0.32953 0.40443 0.47933 0.55423 0.62913 0.595214 0.561298 0.527381 0.493465 0.488405 0.483344 0.478283 0.473222 0.505226 0.53723 0.569233 0.601237 0.578326 0.555415 0.532504 0.509592 0.557414 0.605235 0.653056 0.700878 0.671718 0.642558 0.613398 0.584238 0.597958 0.611679 0.625399 0.639119 0.357459 0.438515 0.51957 0.600625 0.681681 0.687834 0.693987 0.700141 0.706294 0.70071 0.695127 0.689543 0.68396 0.652631 0.621302 0.589972 0.558643 0.591838 0.625034 0.658229 0.691424 0.673676 0.655928 0.638181 0.620433 0.526554 0.432675 0.338796 0.244917 0.269363 0.293809 0.318255 0.342702 0.425343 0.507984 0.59