<?xml version="1.0"?> 
<VTKFile type="StructuredGrid" version="0.1"> 
<StructuredGrid WholeExtent="0 128 0 128 0 0"> 
<Piece Extent="0 128 0 128 0 0"> 
<PointData>
<DataArray type="Float32" Name="u" format="ascii" NumberOfComponents="1"> 
0 0 0 0 0 0 0 0 0 0 0 0 0 0 0 0 0 0 0 0 0 0 0 0 0 0 0 0 0 0 0 0 0 0 0 0 0 0 0 0 0 0 0 0 0 0 0 0 0 0 0 0 0 0 0 0 0 0 0 0 0 0 0 0 0 0 0 0 0 0 0 0 0 0 0 0 0 0 0 0 0 0 0 0 0 0 0 0 0 0 0 0 0 0 0 0 0 0 0 0 0 0 0 0 0 0 0 0 0 0 0 0 0 0 0 0 0 0 0 0 0 0 0 0 0 0 0 0 0 0 1.61808e-07 6.47231e-07 1.45627e-06 2.58892e-06 4.04519e-06 5.82507e-06 7.92857e-06 1.03557e-05 1.328e-05 1.68749e-05 2.11406e-05 2.6077e-05 3.16842e-05 3.7962e-05 4.49105e-05 5.25297e-05 6.06205e-05 6.89835e-05 7.76189e-05 8.65266e-05 9.57066e-05 0.000105159 0.000114884 0.000124881 0.000134936 0.000144836 0.000154581 0.000164171 0.000173606 0.000182885 0.000192009 0.000200978 0.000209707 0.000218112 0.000226194 0.000233951 0.000241385 0.000248495 0.000255281 0.000261743 0.000267917 0.000273839 0.000279509 0.000284928 0.000290094 0.000295008 0.000299671 0.000304081 0.000308326 0.000312491 0.000316578 0.000320584 0.000324512 0.000328359 0.000332128 0.000335817 0.000339471 0.000343134 0.000346806 0.000350488 0.000354178 0.000357878 0.000361586 0.000365304 0.000368974 0.000372539 0.000375999 0.000379354 0.000382604 0.00038575 0.00038879 0.000391725 0.000394413 0.00039671 0.000398616 0.000400131 0.000401256 0.00040199 0.000402334 0.000402286 0.000401706 0.000400451 0.00039852 0.000395914 0.000392632 0.000388676 0.000384044 0.000378737 0.000372722 0.000365965 0.000358468 0.00035023 0.000341251 0.000331532 0.000321071 0.000309869 0.000298078 0.000285846 0.000273175 0.000260063 0.000246513 0.000232522 0.000218092 0.000203222 0.000188261 0.000173559 0.000159114 0.000144928 0.000131 0.00011733 0.000103919 9.07657e-05 7.82534e-05 6.67649e-05 5.63003e-05 4.68595e-05 3.84425e-05 3.10493e-05 2.468e-05 1.93345e-05 1.48029e-05 1.08756e-05 7.55252e-06 4.83362e-06 2.71891e-06 1.2084e-06 3.02101e-07 0 0 6.47231e-07 2.58892e-06 5.82507e-06 1.03557e-05 1.61808e-05 2.33003e-05 3.17143e-05 4.14228e-05 5.31199e-05 6.74998e-05 8.45626e-05 0.000104308 0.000126737 0.000151848 0.000179642 0.000210119 0.000242482 0.000275934 0.000310476 0.000346106 0.000382827 0.000420636 0.000459534 0.000499522 0.000539744 0.000579345 0.000618325 0.000656685 0.000694423 0.00073154 0.000768036 0.000803911 0.000838828 0.000872449 0.000904775 0.000935805 0.00096554 0.000993979 0.00102112 0.00104697 0.00107167 0.00109536 0.00111804 0.00113971 0.00116038 0.00118003 0.00119868 0.00121632 0.0012333 0.00124997 0.00126631 0.00128234 0.00129805 0.00131344 0.00132851 0.00134327 0.00135788 0.00137254 0.00138723 0.00140195 0.00141671 0.00143151 0.00144635 0.00146122 0.0014759 0.00149016 0.001504 0.00151742 0.00153042 0.001543 0.00155516 0.0015669 0.00157765 0.00158684 0.00159446 0.00160053 0.00160502 0.00160796 0.00160933 0.00160915 0.00160682 0.0016018 0.00159408 0.00158365 0.00157053 0.0015547 0.00153618 0.00151495 0.00149089 0.00146386 0.00143387 0.00140092 0.00136501 0.00132613 0.00128428 0.00123948 0.00119231 0.00114338 0.0010927 0.00104025 0.00098605 0.000930088 0.000872367 0.000812887 0.000753044 0.000694234 0.000636457 0.000579712 0.000524001 0.000469322 0.000415676 0.000363063 0.000313014 0.00026706 0.000225201 0.000187438 0.00015377 0.000124197 9.872e-05 7.73378e-05 5.92118e-05 4.35025e-05 3.02101e-05 1.93345e-05 1.08756e-05 4.83362e-06 1.2084e-06 0 0 1.45627e-06 5.82507e-06 1.31064e-05 2.33003e-05 3.64067e-05 5.24257e-05 7.13572e-05 9.32012e-05 0.00011952 0.000151875 0.000190266 0.000234693 0.000285157 0.000341658 0.000404194 0.000472768 0.000545584 0.000620852 0.00069857 0.00077874 0.00086136 0.000946431 0.00103395 0.00112393 0.00121442 0.00130353 0.00139123 0.00147754 0.00156245 0.00164596 0.00172808 0.0018088 0.00188736 0.00196301 0.00203574 0.00210556 0.00217247 0.00223645 0.00229753 0.00235568 0.00241125 0.00246455 0.00251558 0.00256435 0.00261084 0.00265507 0.00269704 0.00273673 0.00277493 0.00281242 0.0028492 0.00288526 0.0029206 0.00295523 0.00298915 0.00302235 0.00305524 0.00308821 0.00312126 0.00315439 0.0031876 0.0032209 0.00325428 0.00328774 0.00332077 0.00335285 0.00338399 0.00341419 0.00344344 0.00347175 0.00349911 0.00352553 0.00354972 0.00357039 0.00358754 0.00360118 0.00361131 0.00361791 0.003621 0.00362058 0.00361535 0.00360406 0.00358668 0.00356322 0.00353369 0.00349808 0.0034564 0.00340863 0.00335449 0.00329369 0.00322621 0.00315207 0.00307126 0.00298379 0.00288964 0.00278882 0.0026827 0.00257261 0.00245857 0.00234057 0.00221861 0.0020927 0.00196283 0.001829 0.00169435 0.00156203 0.00143203 0.00130435 0.001179 0.00105597 0.00093527 0.000816891 0.00070428 0.000600884 0.000506703 0.000421735 0.000345983 0.000279444 0.00022212 0.00017401 0.000133227 9.78807e-05 6.79727e-05 4.35025e-05 2.44702e-05 1.08756e-05 2.71891e-06 0 0 2.58892e-06 1.03557e-05 2.33003e-05 4.14228e-05 6.47231e-05 9.32012e-05 0.000126857 0.000165691 0.000212479 0.000269999 0.00033825 0.000417233 0.000506946 0.000607391 0.000718568 0.000840476 0.000969928 0.00110374 0.0012419 0.00138443 0.00153131 0.00168254 0.00183814 0.00199809 0.00215898 0.00231738 0.0024733 0.00262674 0.00277769 0.00292616 0.00307214 0.00321564 0.00335531 0.0034898 0.0036191 0.00374322 0.00386216 0.00397592 0.00408449 0.00418788 0.00428667 0.00438142 0.00447215 0.00455884 0.0046415 0.00472013 0.00479473 0.0048653 0.00493322 0.00499986 0.00506524 0.00512935 0.00519218 0.00525375 0.00531405 0.00537307 0.00543154 0.00549015 0.0055489 0.0056078 0.00566685 0.00572604 0.00578538 0.00584487 0.00590359 0.00596062 0.00601599 0.00606967 0.00612167 0.00617199 0.00622064 0.0062676 0.0063106 0.00634735 0.00637785 0.0064021 0.0064201 0.00643184 0.00643734 0.00643658 0.0064273 0.00640721 0.00637632 0.00633462 0.00628212 0.00621881 0.0061447 0.00605979 0.00596354 0.00585545 0.00573549 0.00560369 0.00546002 0.00530451 0.00513714 0.00495791 0.00476924 0.00457353 0.00437079 0.00416101 0.0039442 0.00372035 0.00348947 0.00325155 0.00301218 0.00277694 0.00254583 0.00231885 0.002096 0.00187729 0.0016627 0.00145225 0.00125205 0.00106824 0.000900805 0.000749752 0.00061508 0.000496789 0.00039488 0.000309351 0.000236847 0.00017401 0.00012084 7.73378e-05 4.35025e-05 1.93345e-05 4.83362e-06 0 0 4.04519e-06 1.61808e-05 3.64067e-05 6.47231e-05 0.00010113 0.000145627 0.000198214 0.000258892 0.000331999 0.000421874 0.000528516 0.000651926 0.000792104 0.000949049 0.00112276 0.00131324 0.00151551 0.00172459 0.00194047 0.00216317 0.00239267 0.00262897 0.00287209 0.00312201 0.0033734 0.00362091 0.00386453 0.00410428 0.00434014 0.00457212 0.00480022 0.00502444 0.00524267 0.00545281 0.00565484 0.00584878 0.00603463 0.00621237 0.00638202 0.00654357 0.00669792 0.00684598 0.00698773 0.00712319 0.00725235 0.00737521 0.00749177 0.00760203 0.00770815 0.00781229 0.00791444 0.00801461 0.00811279 0.00820899 0.0083032 0.00839543 0.00848678 0.00857836 0.00867016 0.00876219 0.00885446 0.00894694 0.00903966 0.00913261 0.00922435 0.00931348 0.00939998 0.00948385 0.00956511 0.00964374 0.00971975 0.00979313 0.00986032 0.00991774 0.0099654 0.0100033 0.0100314 0.0100498 0.0100583 0.0100572 0.0100427 0.0100113 0.00996299 0.00989784 0.00981581 0.00971689 0.0096011 0.00946842 0.00931804 0.00914913 0.00896171 0.00875576 0.00853129 0.00828829 0.00802678 0.00774674 0.00745194 0.00714615 0.00682936 0.00650159 0.00616282 0.00581305 0.00545229 0.00508054 0.00470653 0.00433896 0.00397785 0.0036232 0.003275 0.00293326 0.00259797 0.00226914 0.00195633 0.00166912 0.00140751 0.00117149 0.000961063 0.000776233 0.000617 0.000483362 0.000370074 0.000271891 0.000188813 0.00012084 6.79727e-05 3.02101e-05 7.55252e-06 0 0 5.82507e-06 2.33003e-05 5.24257e-05 9.32012e-05 0.000145627 0.000209703 0.000285429 0.000372805 0.000478079 0.000607498 0.000761063 0.000938774 0.00114063 0.00136663 0.00161678 0.00189107 0.00218234 0.00248341 0.00279428 0.00311496 0.00344544 0.00378572 0.00413581 0.0044957 0.0048577 0.00521411 0.00556493 0.00591016 0.0062498 0.00658386 0.00691232 0.0072352 0.00754945 0.00785204 0.00814298 0.00842225 0.00868986 0.00894581 0.00919011 0.00942274 0.00964501 0.00985821 0.0100623 0.0102574 0.0104434 0.0106203 0.0107881 0.0109469 0.0110997 0.0112497 0.0113968 0.011541 0.0116824 0.0118209 0.0119566 0.0120894 0.012221 0.0123528 0.012485 0.0126176 0.0127504 0.0128836 0.0130171 0.013151 0.0132831 0.0134114 0.013536 0.0136567 0.0137738 0.013887 0.0139964 0.0141021 0.0141989 0.0142815 0.0143502 0.0144047 0.0144452 0.0144716 0.014484 0.0144823 0.0144614 0.0144162 0.0143467 0.0142529 0.0141348 0.0139923 0.0138256 0.0136345 0.013418 0.0131748 0.0129049 0.0126083 0.0122851 0.0119351 0.0115586 0.0111553 0.0107308 0.0102905 0.00983428 0.00936228 0.00887445 0.00837079 0.0078513 0.00731598 0.0067774 0.00624811 0.00572811 0.00521741 0.004716 0.0042239 0.00374108 0.00326756 0.00281712 0.00240354 0.00202681 0.00168694 0.00138393 0.00111778 0.00088848 0.000696041 0.000532906 0.000391523 0.000271891 0.00017401 9.78807e-05 4.35025e-05 1.08756e-05 0 0 7.92857e-06 3.17143e-05 7.13572e-05 0.000126857 0.000198214 0.000285429 0.0003885 0.000507429 0.000650718 0.000826873 0.00103589 0.00127778 0.00155252 0.00186014 0.00220061 0.00257396 0.0029704 0.00338019 0.00380333 0.0042398 0.00468962 0.00515279 0.0056293 0.00611915 0.00661187 0.00709698 0.00757449 0.00804439 0.00850668 0.00896136 0.00940844 0.00984791 0.0102756 0.0106875 0.0110835 0.0114636 0.0118279 0.0121762 0.0125088 0.0128254 0.0131279 0.0134181 0.013696 0.0139614 0.0142146 0.0144554 0.0146839 0.0149 0.015108 0.0153121 0.0155123 0.0157086 0.0159011 0.0160896 0.0162743 0.016455 0.0166341 0.0168136 0.0169935 0.0171739 0.0173547 0.017536 0.0177177 0.0178999 0.0180797 0.0182544 0.018424 0.0185884 0.0187476 0.0189017 0.0190507 0.0191945 0.0193262 0.0194388 0.0195322 0.0196064 0.0196615 0.0196975 0.0197143 0.019712 0.0196836 0.0196221 0.0195275 0.0193998 0.019239 0.0190451 0.0188182 0.0185581 0.0182634 0.0179323 0.0175649 0.0171613 0.0167213 0.0162451 0.0157325 0.0151836 0.0146058 0.0140064 0.0133856 0.0127431 0.0120791 0.0113936 0.0106865 0.00995787 0.00922479 0.00850437 0.00779659 0.00710147 0.00641901 0.00574919 0.00509203 0.00444752 0.00383442 0.00327148 0.00275871 0.00229612 0.00188368 0.00152142 0.00120932 0.000947389 0.000725344 0.000532906 0.000370074 0.000236847 0.000133227 5.92118e-05 1.48029e-05 0 0 1.03557e-05 4.14228e-05 9.32012e-05 0.000165691 0.000258892 0.000372805 0.000507429 0.000662764 0.000849918 0.00108 0.001353 0.00166893 0.00202779 0.00242957 0.00287427 0.0033619 0.00387971 0.00441495 0.00496761 0.0055377 0.00612522 0.00673017 0.00735255 0.00799236 0.00863591 0.00926953 0.00989321 0.010507 0.0111108 0.0117046 0.0122886 0.0128626 0.0134212 0.0139592 0.0144764 0.0149729 0.0154486 0.0159037 0.016338 0.0167515 0.0171467 0.0175257 0.0178886 0.0182354 0.018566 0.0188805 0.0191789 0.0194612 0.0197329 0.0199995 0.020261 0.0205174 0.0207687 0.021015 0.0212562 0.0214923 0.0217262 0.0219606 0.0221956 0.0224312 0.0226674 0.0229042 0.0231415 0.0233795 0.0236143 0.0238425 0.0240639 0.0242787 0.0244867 0.024688 0.0248826 0.0250704 0.0252424 0.0253894 0.0255114 0.0256084 0.0256804 0.0257274 0.0257494 0.0257463 0.0257092 0.0256288 0.0255053 0.0253385 0.0251285 0.0248752 0.0245788 0.0242392 0.0238542 0.0234218 0.022942 0.0224147 0.0218401 0.021218 0.0205485 0.0198316 0.019077 0.0182941 0.0174832 0.0166441 0.0157768 0.0148814 0.0139579 0.0130062 0.0120487 0.0111077 0.0101833 0.0092754 0.00838401 0.00750915 0.00665081 0.005809 0.00500822 0.00427296 0.00360322 0.00299901 0.00246032 0.00198716 0.00157952 0.00123741 0.000947389 0.000696041 0.000483362 0.000309351 0.00017401 7.73378e-05 1.93345e-05 0 0 1.33132e-05 5.3253e-05 0.000119819 0.000213012 0.000332831 0.000479277 0.000652349 0.000852048 0.00109229 0.001387 0.00173616 0.0021398 0.00259789 0.00311044 0.00367746 0.00429894 0.00495867 0.00564046 0.00634428 0.00707016 0.00781807 0.00858804 0.00938005 0.0101941 0.0110129 0.0118191 0.0126127 0.0133937 0.0141622 0.014918 0.0156613 0.0163919 0.0171032 0.0177881 0.0184466 0.0190789 0.0196848 0.0202645 0.0208178 0.0213447 0.0218483 0.0223313 0.0227937 0.0232355 0.0236568 0.0240576 0.0244377 0.0247973 0.0251434 0.0254827 0.0258155 0.0261417 0.0264612 0.0267741 0.0270804 0.02738 0.0276766 0.0279738 0.0282715 0.0285697 0.0288685 0.0291678 0.0294677 0.0297681 0.0300644 0.0303521 0.0306311 0.0309015 0.0311632 0.0314162 0.0316605 0.0318962 0.0321117 0.0322954 0.0324473 0.0325675 0.0326559 0.0327125 0.0327374 0.0327305 0.0326804 0.0325755 0.0324159 0.0322015 0.0319324 0.0316085 0.0312299 0.0307965 0.0303058 0.0297551 0.0291443 0.0284736 0.0277429 0.0269522 0.0261015 0.0251908 0.0242323 0.0232383 0.0222087 0.0211436 0.0200428 0.0189066 0.0177347 0.0165273 0.0153126 0.0141187 0.0129457 0.0117935 0.0106622 0.0095518 0.00846222 0.00739351 0.00637668 0.00544276 0.00459174 0.00382362 0.00313841 0.0025361 0.0020167 0.0015802 0.00120984 0.00088886 0.000617264 0.000395049 0.000222215 9.87622e-05 2.46905e-05 0 0 1.70081e-05 6.80323e-05 0.000153073 0.000272129 0.000425202 0.000612291 0.000833396 0.00108852 0.00139445 0.001768 0.00220915 0.00271792 0.0032943 0.00393829 0.00464989 0.0054291 0.00625571 0.00710951 0.00799049 0.00889866 0.00983401 0.0107966 0.0117863 0.0128032 0.0138259 0.014833 0.0158246 0.0168006 0.017761 0.0187058 0.0196351 0.0205487 0.0214383 0.0222951 0.0231191 0.0239105 0.0246691 0.025395 0.0260881 0.0267486 0.0273798 0.0279851 0.0285647 0.0291184 0.0296463 0.0301484 0.0306247 0.0310752 0.0315084 0.0319329 0.0323487 0.0327558 0.0331542 0.0335438 0.0339248 0.034297 0.034665 0.035033 0.0354013 0.0357696 0.0361381 0.0365067 0.0368754 0.0372442 0.0376076 0.0379598 0.0383008 0.0386306 0.0389493 0.0392568 0.0395532 0.0398384 0.0400982 0.0403185 0.0404993 0.0406405 0.0407422 0.0408044 0.040827 0.0408101 0.0407395 0.0406012 0.0403952 0.0401214 0.03978 0.0393708 0.0388938 0.0383491 0.0377336 0.0370441 0.0362805 0.0354429 0.0345313 0.0335457 0.0324861 0.0313525 0.03016 0.0289238 0.0276438 0.02632 0.0249526 0.0235413 0.0220864 0.0205877 0.0190799 0.0175977 0.0161412 0.0147102 0.0133049 0.0119252 0.0105711 0.00924255 0.00797798 0.00681569 0.00575569 0.00479796 0.00394252 0.00318935 0.00253847 0.00198986 0.00152349 0.0011193 0.00077729 0.000497465 0.000279824 0.000124366 3.10916e-05 0 0 2.14402e-05 8.57608e-05 0.000192962 0.000343043 0.000536005 0.000771847 0.00105057 0.00137217 0.0017564 0.002223 0.00277197 0.00340331 0.00411703 0.00491311 0.00579156 0.00675239 0.00777083 0.00882211 0.00990624 0.0110232 0.012173 0.0133557 0.0145712 0.0158196 0.0170749 0.0183114 0.0195289 0.0207275 0.0219073 0.0230681 0.02421 0.025333 0.0264266 0.0274802 0.0284939 0.0294676 0.0304014 0.0312952 0.0321491 0.0329631 0.0337411 0.0344873 0.0352015 0.0358839 0.0365344 0.0371531 0.0377398 0.0382947 0.038828 0.0393499 0.0398605 0.0403598 0.0408477 0.0413242 0.0417894 0.0422433 0.0426912 0.0431384 0.0435849 0.0440309 0.0444761 0.0449207 0.0453646 0.0458079 0.0462437 0.0466654 0.0470728 0.0474661 0.0478451 0.0482099 0.0485605 0.0488969 0.0492021 0.0494589 0.0496673 0.0498275 0.0499393 0.0500028 0.050018 0.0499848 0.0498864 0.0497059 0.0494431 0.0490982 0.0486712 0.0481619 0.0475705 0.046897 0.0461376 0.0452887 0.0443504 0.0433226 0.0422053 0.0409986 0.0397024 0.0383167 0.0368599 0.0353505 0.0337883 0.0321735 0.030506 0.0287857 0.0270128 0.0251872 0.0233506 0.0215448 0.0197698 0.0180255 0.016312 0.0146293 0.0129773 0.0113561 0.00981211 0.00839176 0.00709507 0.00592203 0.00487264 0.00394691 0.00314483 0.0024664 0.00188834 0.00138735 0.000963439 0.000616601 0.000346838 0.00015415 3.85376e-05 0 0 2.66096e-05 0.000106438 0.000239486 0.000425753 0.00066524 0.000957945 0.00130387 0.00170301 0.00217814 0.00275201 0.00342462 0.00419597 0.00506606 0.0060349 0.00710248 0.0082688 0.00950401 0.0107783 0.0120915 0.0134438 0.0148352 0.0162655 0.0177349 0.0192433 0.02076 0.0222541 0.0237256 0.0251746 0.0266009 0.0280048 0.029386 0.0307447 0.0320681 0.0333435 0.0345709 0.0357503 0.0368818 0.0379652 0.0390007 0.0399882 0.0409323 0.0418377 0.0427043 0.0435321 0.0443212 0.0450715 0.0457831 0.0464559 0.0471021 0.0477338 0.0483509 0.0489536 0.0495417 0.0501153 0.0506743 0.0512189 0.0517553 0.0522898 0.0528226 0.0533535 0.0538826 0.0544099 0.0549354 0.0554591 0.0559729 0.056469 0.0569473 0.0574078 0.0578505 0.0582754 0.0586825 0.0590718 0.0594232 0.0597164 0.0599515 0.0601284 0.0602473 0.0603079 0.0603105 0.0602549 0.0601212 0.0598895 0.0595597 0.0591319 0.058606 0.057982 0.05726 0.05644 0.0555177 0.0544891 0.0533541 0.0521127 0.0507649 0.0493108 0.0477503 0.0460834 0.0443321 0.0425185 0.0406424 0.0387039 0.036703 0.0346397 0.032514 0.0303259 0.0281248 0.02596 0.0238315 0.0217394 0.0196836 0.0176641 0.015681 0.0137342 0.0118791 0.010171 0.00860988 0.00719582 0.00592879 0.00480878 0.00383579 0.00300982 0.0023044 0.00169303 0.00117571 0.000752456 0.000423256 0.000188114 4.70285e-05 0 0 3.25163e-05 0.000130065 0.000292646 0.00052026 0.000812907 0.00117059 0.0015933 0.00208104 0.00265966 0.00335501 0.00416709 0.00509589 0.00614141 0.00730366 0.00858264 0.00997834 0.0114553 0.0129779 0.0145463 0.0161605 0.0178204 0.019526 0.0212773 0.0230744 0.0248811 0.0266612 0.0284147 0.0301417 0.0318421 0.0335159 0.0351631 0.0367838 0.0383628 0.0398849 0.0413502 0.0427586 0.0441102 0.045405 0.0466429 0.047824 0.0489534 0.0500364 0.0510729 0.052063 0.0530066 0.0539038 0.0547546 0.0555589 0.0563308 0.0570845 0.05782 0.0585372 0.0592362 0.059917 0.0605795 0.0612237 0.0618572 0.0624873 0.0631141 0.0637375 0.0643576 0.0649743 0.0655877 0.0661978 0.0667952 0.0673707 0.0679242 0.0684559 0.0689656 0.0694533 0.0699192 0.0703631 0.0707616 0.0710911 0.0713517 0.0715433 0.071666 0.0717197 0.0717045 0.0716202 0.0714439 0.0711521 0.0707449 0.0702224 0.0695844 0.0688311 0.0679623 0.0669782 0.065874 0.0646451 0.0632915 0.0618132 0.0602101 0.0584823 0.0566298 0.0546526 0.0525766 0.0504277 0.048206 0.0459113 0.0435438 0.0411034 0.03859 0.0360039 0.0334024 0.0308432 0.0283264 0.0258518 0.0234196 0.0210297 0.0186821 0.0163768 0.0141788 0.0121533 0.0103001 0.00861934 0.00711095 0.00577495 0.00461134 0.00362012 0.00277165 0.00203632 0.00141411 0.000905029 0.000509079 0.000226257 5.65643e-05 0 0 3.91602e-05 0.000156641 0.000352442 0.000626563 0.000979005 0.00140977 0.00191885 0.00250625 0.00320098 0.00403202 0.00499938 0.00610307 0.00734307 0.00871939 0.010232 0.011881 0.0136246 0.0154212 0.0172707 0.0191732 0.0211287 0.0231371 0.0251985 0.0273128 0.0294382 0.0315326 0.0335962 0.0356289 0.0376306 0.0396014 0.0415413 0.0434504 0.0453107 0.0471045 0.0488317 0.0504925 0.0520867 0.0536145 0.0550757 0.0564704 0.0578044 0.0590834 0.0603074 0.0614765 0.0625907 0.0636499 0.0646542 0.0656035 0.0665141 0.0674021 0.0682677 0.0691108 0.0699313 0.0707293 0.0715049 0.0722579 0.072997 0.0737309 0.0744595 0.0751829 0.0759011 0.076614 0.0773216 0.078024 0.0787104 0.0793703 0.0800036 0.0806102 0.0811903 0.0817437 0.0822705 0.0827708 0.0832173 0.0835831 0.083868 0.0840722 0.0841955 0.0842381 0.0841999 0.0840809 0.0838544 0.0834937 0.0829988 0.0823697 0.0816065 0.0807091 0.0796774 0.0785116 0.0772065 0.0757568 0.0741627 0.072424 0.0705409 0.0685132 0.0663411 0.0640244 0.0615934 0.0590783 0.0564791 0.0537957 0.0510282 0.0481766 0.0452408 0.042221 0.0391834 0.0361945 0.0332543 0.0303628 0.0275201 0.024726 0.0219806 0.0192839 0.0167114 0.0143387 0.0121658 0.0101926 0.00841914 0.00684544 0.00547149 0.00429729 0.00329011 0.00241722 0.00167863 0.00107432 0.000604306 0.000268581 6.71451e-05 0 0 4.65414e-05 0.000186166 0.000418873 0.000744663 0.00116354 0.00167549 0.00228053 0.00297865 0.00380208 0.00478303 0.00592151 0.00721751 0.00867104 0.0102821 0.0120507 0.0139768 0.016012 0.018108 0.0202646 0.022482 0.02476 0.0270988 0.0294983 0.0319585 0.0344313 0.0368685 0.0392701 0.0416361 0.0439666 0.0462614 0.0485207 0.0507444 0.0529118 0.0550021 0.0570155 0.0589519 0.0608113 0.0625937 0.0642991 0.0659274 0.0674852 0.0689786 0.0704078 0.0717728 0.0730734 0.0743098 0.075482 0.0765898 0.0776519 0.0786866 0.079694 0.0806741 0.0816269 0.0825524 0.0834505 0.0843213 0.0851747 0.0860206 0.0868589 0.0876897 0.088513 0.0893288 0.090137 0.0909377 0.0917187 0.092468 0.0931853 0.0938709 0.0945246 0.0951465 0.0957366 0.0962948 0.0967903 0.0971922 0.0975004 0.097715 0.0978359 0.0978632 0.0977968 0.0976368 0.0973527 0.0969142 0.0963213 0.095574 0.0946722 0.093616 0.0924054 0.0910403 0.0895151 0.0878243 0.0859677 0.0839453 0.0817572 0.0794034 0.0768839 0.0741986 0.0713824 0.0684701 0.0654616 0.062357 0.0591563 0.0558594 0.0524664 0.0489773 0.0454678 0.0420139 0.0386154 0.0352724 0.031985 0.028753 0.0255765 0.0224556 0.0194769 0.0167273 0.0142069 0.0119156 0.00985334 0.00802023 0.00641623 0.00504134 0.00385977 0.00283575 0.00196927 0.00126033 0.000708938 0.000315084 7.87709e-05 0 0 5.46599e-05 0.00021864 0.000491939 0.000874559 0.0013665 0.00196776 0.00267834 0.00349824 0.00446297 0.00560804 0.00693346 0.00843922 0.0101253 0.0119918 0.0140386 0.0162657 0.0186175 0.0210383 0.023528 0.0260868 0.0287145 0.0314112 0.0341769 0.0370116 0.0398605 0.0426687 0.0454364 0.0481635 0.05085 0.0534958 0.0561011 0.0586658 0.061166 0.063578 0.0659016 0.0681369 0.0702839 0.0723426 0.074313 0.0761951 0.0779959 0.0797222 0.0813741 0.0829517 0.0844548 0.0858835 0.0872379 0.0885178 0.0897442 0.0909379 0.092099 0.0932273 0.094323 0.095386 0.0964164 0.097414 0.0983903 0.0993563 0.100312 0.101258 0.102193 0.103119 0.104034 0.104939 0.10582 0.106664 0.10747 0.108238 0.108969 0.109662 0.110317 0.110935 0.111481 0.111919 0.112249 0.112472 0.112587 0.112595 0.112495 0.112288 0.111939 0.111414 0.110712 0.109835 0.108782 0.107552 0.106146 0.104564 0.1028 0.100847 0.0987064 0.096377 0.0938592 0.091153 0.0882584 0.0851754 0.0819438 0.0786032 0.0751537 0.0715954 0.0679281 0.0641519 0.0602668 0.0562728 0.0522557 0.0483013 0.0444096 0.0405806 0.0368143 0.0331107 0.0294699 0.0258917 0.0224752 0.0193191 0.0164234 0.0137883 0.0114136 0.00929933 0.00744556 0.00585226 0.00448064 0.0032919 0.00228604 0.00146307 0.000822974 0.000365766 9.14416e-05 0 0 6.33947e-05 0.000253579 0.000570552 0.00101432 0.00158487 0.00228221 0.00310634 0.00405726 0.00517381 0.00649481 0.00802027 0.0097502 0.0116846 0.0138234 0.0161667 0.0187145 0.0214033 0.0241697 0.0270136 0.0299352 0.0329344 0.0360112 0.0391656 0.0423975 0.0456453 0.0488472 0.0520032 0.0551133 0.0581775 0.0611958 0.0641681 0.0670946 0.0699479 0.0727009 0.0753536 0.0779061 0.0803582 0.08271 0.0849615 0.0871127 0.0891711 0.0911442 0.093032 0.0948345 0.0965517 0.0981836 0.0997302 0.101191 0.102591 0.103951 0.105273 0.106557 0.107802 0.109008 0.110175 0.111304 0.112407 0.113496 0.114572 0.115635 0.116685 0.117721 0.118744 0.119754 0.120735 0.121672 0.122566 0.123416 0.124222 0.124984 0.125702 0.126376 0.126968 0.127437 0.127785 0.12801 0.128114 0.128095 0.127954 0.127692 0.127269 0.126647 0.125827 0.124809 0.123591 0.122175 0.120561 0.118748 0.11673 0.1145 0.112058 0.109404 0.106539 0.103462 0.100173 0.0966719 0.0930042 0.0892146 0.085303 0.0812693 0.0771136 0.0728359 0.0684362 0.0639145 0.0593669 0.0548894 0.0504822 0.0461451 0.0418782 0.0376814 0.0335549 0.0294985 0.0256238 0.0220421 0.0187535 0.015758 0.0130556 0.0106462 0.00852991 0.0067067 0.00513482 0.00377252 0.0026198 0.00167667 0.00094313 0.000419169 0.000104792 0 0 7.26248e-05 0.000290499 0.000653623 0.001162 0.00181562 0.00261449 0.00355861 0.00464798 0.00592476 0.0074311 0.00916699 0.0111325 0.0133275 0.015752 0.0184062 0.0212899 0.0243316 0.0274596 0.030674 0.0339748 0.037362 0.0408356 0.0443956 0.0480419 0.0517057 0.055318 0.0588788 0.0623881 0.0658459 0.0692522 0.0726071 0.0759105 0.0791316 0.0822399 0.0852354 0.0881179 0.0908876 0.0935444 0.0960883 0.0985194 0.100846 0.103075 0.105207 0.107242 0.109181 0.111022 0.112767 0.114415 0.115991 0.117523 0.119008 0.120449 0.121844 0.123194 0.124499 0.125758 0.126986 0.128198 0.129392 0.130569 0.131729 0.132873 0.133999 0.135109 0.136184 0.13721 0.138185 0.139109 0.139983 0.140807 0.14158 0.142302 0.142931 0.143424 0.143779 0.143998 0.14408 0.144025 0.143834 0.143506 0.142999 0.14227 0.141321 0.14015 0.138759 0.137146 0.135312 0.133256 0.130973 0.128454 0.125701 0.122712 0.119488 0.116029 0.112334 0.108405 0.104291 0.100041 0.0956569 0.0911374 0.086483 0.0816935 0.0767691 0.0717096 0.0666214 0.0616111 0.0566785 0.0518237 0.0470466 0.0423474 0.0377258 0.0331821 0.0288403 0.0248247 0.0211353 0.0177721 0.0147351 0.0120243 0.00963971 0.00758129 0.00580442 0.00426448 0.00296144 0.00189532 0.00106612 0.000473831 0.000118458 0 0 8.23501e-05 0.0003294 0.000741151 0.0013176 0.00205875 0.0029646 0.00403515 0.00527041 0.00671583 0.0084169 0.0103736 0.012586 0.015054 0.0177777 0.020757 0.0239919 0.0274023 0.0309081 0.0345092 0.0382056 0.0419974 0.0458845 0.0498669 0.0539447 0.0580414 0.0620809 0.066063 0.0699877 0.0738552 0.0776653 0.0814181 0.0851135 0.0887173 0.0921951 0.0955468 0.0987725 0.101872 0.104846 0.107694 0.110415 0.113019 0.115514 0.117899 0.120176 0.122342 0.1244 0.126348 0.128188 0.129946 0.131651 0.133304 0.134904 0.136451 0.137946 0.139388 0.140777 0.14213 0.143461 0.144771 0.14606 0.147327 0.148574 0.149799 0.151003 0.152168 0.153276 0.154326 0.155318 0.156253 0.15713 0.157951 0.158713 0.159371 0.159878 0.160232 0.160435 0.160486 0.160386 0.160134 0.15973 0.159128 0.158283 0.157193 0.15586 0.154283 0.152462 0.150398 0.148089 0.145529 0.142711 0.139635 0.1363 0.132706 0.128854 0.124744 0.120375 0.115803 0.111083 0.106216 0.1012 0.0960362 0.0907247 0.0852652 0.0796579 0.0740193 0.0684662 0.0629986 0.0576164 0.0523197 0.0471085 0.0419827 0.0369424 0.0321247 0.0276669 0.0235688 0.0198306 0.0164523 0.0134337 0.010775 0.00847603 0.00648946 0.00476777 0.00331095 0.00211901 0.00119194 0.000529752 0.000132438 0 0 9.25707e-05 0.000370283 0.000833136 0.00148113 0.00231427 0.00333255 0.00453596 0.00592453 0.00754702 0.00945222 0.0116401 0.0141108 0.0168642 0.0199002 0.023219 0.0268205 0.0306156 0.0345152 0.0385192 0.0426276 0.0468405 0.0511579 0.0555797 0.0601059 0.0646527 0.069136 0.0735559 0.0779123 0.0822053 0.0864349 0.0906011 0.0947038 0.0987049 0.102566 0.106288 0.10987 0.113312 0.116614 0.119777 0.1228 0.125692 0.128462 0.131109 0.133634 0.136036 0.138317 0.140474 0.14251 0.144454 0.146337 0.14816 0.149922 0.151623 0.153263 0.154842 0.156361 0.157837 0.159286 0.16071 0.162107 0.163479 0.164825 0.166144 0.167438 0.168686 0.16987 0.170988 0.172042 0.173031 0.173955 0.174815 0.175609 0.176287 0.176799 0.177144 0.177322 0.177333 0.177177 0.176854 0.176364 0.175657 0.174684 0.173445 0.171938 0.170165 0.168126 0.165819 0.163247 0.1604 0.157271 0.15386 0.150168 0.146194 0.141939 0.137401 0.132582 0.127542 0.122341 0.116979 0.111456 0.105773 0.0999294 0.0939248 0.0877595 0.0815605 0.0754548 0.0694424 0.0635232 0.0576974 0.0519648 0.0463255 0.0407794 0.035477 0.0305686 0.0260541 0.0219335 0.0182069 0.0148743 0.0119356 0.00939093 0.00718993 0.0052824 0.00366833 0.00234773 0.0013206 0.000586933 0.000146733 0 0 0.000103287 0.000413146 0.000929579 0.00165259 0.00258217 0.00371832 0.00506104 0.00661034 0.00841832 0.0105371 0.0129666 0.0157069 0.0187579 0.0221198 0.0257924 0.0297758 0.0339714 0.0382808 0.0427039 0.0472408 0.0518914 0.0566557 0.0615338 0.0665256 0.0715394 0.0764833 0.0813575 0.0861618 0.0908964 0.0955611 0.100156 0.104681 0.109094 0.113354 0.117459 0.12141 0.125207 0.12885 0.132339 0.135674 0.138864 0.141918 0.144836 0.147617 0.150263 0.152772 0.155145 0.157382 0.159516 0.161581 0.163576 0.165502 0.167358 0.169145 0.170862 0.17251 0.174107 0.175673 0.177208 0.178711 0.180184 0.181624 0.183034 0.184412 0.185739 0.186993 0.188174 0.189282 0.190318 0.191281 0.192172 0.19299 0.19368 0.194188 0.194514 0.194658 0.194619 0.194398 0.193994 0.193408 0.192586 0.191475 0.190074 0.188384 0.186405 0.184135 0.181577 0.178729 0.175583 0.172133 0.168378 0.164317 0.159952 0.155282 0.150306 0.145026 0.139506 0.133813 0.127947 0.121907 0.115694 0.109308 0.102748 0.0960144 0.0892451 0.0825769 0.0760099 0.0695442 0.0631796 0.0569163 0.0507542 0.0446932 0.0388972 0.0335298 0.028591 0.0240808 0.0199992 0.0163462 0.0131218 0.010326 0.00790582 0.00580836 0.00403358 0.00258149 0.00145209 0.000645373 0.000161343 0 0 0.000114498 0.000457991 0.00103048 0.00183196 0.00286244 0.00412192 0.00561039 0.00732786 0.00932973 0.0116714 0.0143529 0.0173742 0.0207354 0.0244363 0.0284771 0.0328577 0.0374698 0.042205 0.0470635 0.0520452 0.05715 0.062378 0.0677293 0.0732037 0.0787015 0.0841228 0.0894678 0.0947362 0.0999283 0.105044 0.110083 0.115046 0.119886 0.124557 0.129059 0.133393 0.137557 0.141553 0.145379 0.149037 0.152535 0.155883 0.15908 0.162126 0.165021 0.167766 0.17036 0.172804 0.175133 0.177382 0.179553 0.181645 0.183658 0.185592 0.187447 0.189223 0.190941 0.192622 0.194266 0.195872 0.197442 0.198974 0.200469 0.201927 0.203326 0.204644 0.205881 0.207037 0.208113 0.209108 0.210022 0.210855 0.211549 0.212045 0.212343 0.212443 0.212345 0.212049 0.211555 0.210862 0.209915 0.208655 0.207083 0.205199 0.203001 0.200492 0.19767 0.194535 0.191081 0.187298 0.183186 0.178747 0.173979 0.168883 0.163459 0.157706 0.151697 0.145501 0.13912 0.132552 0.125799 0.118859 0.111734 0.104423 0.0970729 0.0898324 0.0827012 0.0756792 0.0687665 0.061963 0.0552688 0.0486838 0.0423853 0.0365506 0.0311796 0.0262724 0.021829 0.0178493 0.0143333 0.0112812 0.00863715 0.00634566 0.00440671 0.00282029 0.00158641 0.000705073 0.000176268 0 0 0.000126204 0.000504817 0.00113584 0.00201927 0.00315511 0.00454335 0.00618401 0.00807707 0.0102813 0.0128553 0.0157992 0.0191129 0.0227964 0.0268498 0.0312731 0.0360662 0.0411106 0.0462878 0.0515978 0.0570407 0.0626164 0.0683248 0.0741661 0.0801402 0.0861391 0.0920546 0.0978867 0.103636 0.109301 0.114883 0.120382 0.125797 0.131079 0.136176 0.141089 0.145818 0.150362 0.154722 0.158898 0.16289 0.166706 0.170356 0.173841 0.177159 0.180312 0.183299 0.18612 0.188775 0.191303 0.193741 0.196091 0.198351 0.200522 0.202604 0.204597 0.206501 0.208339 0.210133 0.211883 0.21359 0.215253 0.216873 0.218449 0.219981 0.221447 0.222823 0.22411 0.