<?xml version="1.0"?> 
<VTKFile type="StructuredGrid" version="0.1"> 
<StructuredGrid WholeExtent="0 128 0 128 0 0"> 
<Piece Extent="0 128 0 128 0 0"> 
<PointData>
<DataArray type="Float32" Name="u" format="ascii" NumberOfComponents="1"> 
0 0 0 0 0 0 0 0 0 0 0 0 0 0 0 0 0 0 0 0 0 0 0 0 0 0 0 0 0 0 0 0 0 0 0 0 0 0 0 0 0 0 0 0 0 0 0 0 0 0 0 0 0 0 0 0 0 0 0 0 0 0 0 0 0 0 0 0 0 0 0 0 0 0 0 0 0 0 0 0 0 0 0 0 0 0 0 0 0 0 0 0 0 0 0 0 0 0 0 0 0 0 0 0 0 0 0 0 0 0 0 0 0 0 0 0 0 0 0 0 0 0 0 0 0 0 0 0 0 0 1.50316e-07 6.01266e-07 1.35285e-06 2.40506e-06 3.75791e-06 5.41139e-06 7.3655e-06 9.62025e-06 1.25243e-05 1.64261e-05 2.13259e-05 2.72235e-05 3.4119e-05 4.20124e-05 5.09036e-05 6.07927e-05 7.13385e-05 8.21996e-05 9.33761e-05 0.000104868 0.000116675 0.000128798 0.000141236 0.000153989 0.000166485 0.00017815 0.000188986 0.000198991 0.000208165 0.00021651 0.000224024 0.000230708 0.000236341 0.000240702 0.000243793 0.000245612 0.00024616 0.000245436 0.000243441 0.000240175 0.000236026 0.000231382 0.000226242 0.000220608 0.000214479 0.000207854 0.000200735 0.00019312 0.000185774 0.00017946 0.000174178 0.000169928 0.00016671 0.000164523 0.000163369 0.000163246 0.000164656 0.000168099 0.000173575 0.000181084 0.000190626 0.000202201 0.000215808 0.000231449 0.000248835 0.000267681 0.000287985 0.000309747 0.000332969 0.000357649 0.000383788 0.000411386 0.000439459 0.000467026 0.000494086 0.000520639 0.000546685 0.000572224 0.000597257 0.000621782 0.000644814 0.000665367 0.000683439 0.000699031 0.000712143 0.000722776 0.000730928 0.000736601 0.000739522 0.000739422 0.0007363 0.000730156 0.000720991 0.000708804 0.000693595 0.000675364 0.00065473 0.000632309 0.000608102 0.00058211 0.000554331 0.000524766 0.000493416 0.000460279 0.000426503 0.000393234 0.000360472 0.000328218 0.00029647 0.00026523 0.000234497 0.00020427 0.000175512 0.000149182 0.00012528 0.000103806 8.47596e-05 6.81417e-05 5.3952e-05 4.21903e-05 3.2302e-05 2.37321e-05 1.64806e-05 1.05476e-05 5.93302e-06 2.6369e-06 6.59224e-07 0 0 6.01266e-07 2.40506e-06 5.41139e-06 9.62025e-06 1.50316e-05 2.16456e-05 2.9462e-05 3.8481e-05 5.0097e-05 6.57045e-05 8.53035e-05 0.000108894 0.000136476 0.000168049 0.000203614 0.000243171 0.000285354 0.000328798 0.000373504 0.000419472 0.000466701 0.000515191 0.000564943 0.000615956 0.00066594 0.000712602 0.000755943 0.000795963 0.000832662 0.000866039 0.000896095 0.000922831 0.000945363 0.000962809 0.000975171 0.000982447 0.000984638 0.000981744 0.000973765 0.000960701 0.000944103 0.000925526 0.000904969 0.000882432 0.000857914 0.000831417 0.000802939 0.000772481 0.000743097 0.000717841 0.000696712 0.000679712 0.000666838 0.000658093 0.000653475 0.000652986 0.000658625 0.000672397 0.000694301 0.000724336 0.000762503 0.000808802 0.000863233 0.000925795 0.000995341 0.00107072 0.00115194 0.00123899 0.00133187 0.0014306 0.00153515 0.00164554 0.00175784 0.0018681 0.00197634 0.00208256 0.00218674 0.0022889 0.00238903 0.00248713 0.00257926 0.00266147 0.00273376 0.00279612 0.00284857 0.0028911 0.00292371 0.0029464 0.00295809 0.00295769 0.0029452 0.00292063 0.00288396 0.00283522 0.00277438 0.00270146 0.00261892 0.00252924 0.00243241 0.00232844 0.00221732 0.00209907 0.00197366 0.00184112 0.00170601 0.00157294 0.00144189 0.00131287 0.00118588 0.00106092 0.000937986 0.000817082 0.000702048 0.000596727 0.000501118 0.000415222 0.000339038 0.000272567 0.000215808 0.000168761 0.000129208 9.49282e-05 6.59224e-05 4.21903e-05 2.37321e-05 1.05476e-05 2.6369e-06 0 0 1.35285e-06 5.41139e-06 1.21756e-05 2.16456e-05 3.38212e-05 4.87025e-05 6.62895e-05 8.65823e-05 0.000112718 0.000147835 0.000191933 0.000245011 0.000307071 0.000378111 0.000458132 0.000547135 0.000642046 0.000739796 0.000840385 0.000943811 0.00105008 0.00115918 0.00127112 0.0013859 0.00149836 0.00160335 0.00170087 0.00179092 0.00187349 0.00194859 0.00201621 0.00207637 0.00212707 0.00216632 0.00219413 0.00221051 0.00221544 0.00220892 0.00219097 0.00216158 0.00212423 0.00208243 0.00203618 0.00198547 0.00193031 0.00187069 0.00180661 0.00173808 0.00167197 0.00161514 0.0015676 0.00152935 0.00150039 0.00148071 0.00147032 0.00146922 0.00148191 0.00151289 0.00156218 0.00162976 0.00171563 0.0018198 0.00194227 0.00208304 0.00223952 0.00240913 0.00259186 0.00278773 0.00299672 0.00321884 0.00345409 0.00370247 0.00395513 0.00420323 0.00444677 0.00468575 0.00492017 0.00515002 0.00537531 0.00559604 0.00580333 0.0059883 0.00615095 0.00629128 0.00640929 0.00650498 0.00657835 0.00662941 0.0066557 0.0066548 0.0066267 0.00657141 0.00648892 0.00637923 0.00624235 0.00607828 0.00589257 0.00569078 0.00547292 0.00523899 0.00498898 0.0047229 0.00444074 0.00414251 0.00383853 0.00353911 0.00324425 0.00295396 0.00266823 0.00238707 0.00211047 0.00183843 0.00157961 0.00134264 0.00112752 0.00093425 0.000762836 0.000613275 0.000485568 0.000379713 0.000290718 0.000213589 0.000148325 9.49282e-05 5.33971e-05 2.37321e-05 5.93302e-06 0 0 2.40506e-06 9.62025e-06 2.16456e-05 3.8481e-05 6.01266e-05 8.65823e-05 0.000117848 0.000153924 0.000200388 0.000262818 0.000341214 0.000435576 0.000545904 0.000672198 0.000814458 0.000972684 0.00114142 0.00131519 0.00149402 0.00167789 0.0018668 0.00206076 0.00225977 0.00246382 0.00266376 0.00285041 0.00302377 0.00318385 0.00333065 0.00346416 0.00358438 0.00369132 0.00378145 0.00385124 0.00390068 0.00392979 0.00393855 0.00392698 0.00389506 0.0038428 0.00377641 0.00370211 0.00361988 0.00352973 0.00343166 0.00332567 0.00321176 0.00308992 0.00297239 0.00287136 0.00278685 0.00271885 0.00266735 0.00263237 0.0026139 0.00261194 0.0026345 0.00268959 0.0027772 0.00289734 0.00305001 0.00323521 0.00345293 0.00370318 0.00398137 0.00428289 0.00460775 0.00495596 0.0053275 0.00572238 0.00614061 0.00658217 0.00703135 0.00747241 0.00790537 0.00833022 0.00874696 0.00915559 0.00955611 0.00994852 0.010317 0.0106459 0.010935 0.0111845 0.0113943 0.0115644 0.0116949 0.0117856 0.0118324 0.0118308 0.0117808 0.0116825 0.0115359 0.0113409 0.0110975 0.0108058 0.0104757 0.0101169 0.00972964 0.00931376 0.0088693 0.00839626 0.00789465 0.00736447 0.00682405 0.00629174 0.00576756 0.00525148 0.00474352 0.00424368 0.00375194 0.00326833 0.00280819 0.00238691 0.00200447 0.00166089 0.00135615 0.00109027 0.000863231 0.000675045 0.000516832 0.000379713 0.00026369 0.000168761 9.49282e-05 4.21903e-05 1.05476e-05 0 0 3.75791e-06 1.50316e-05 3.38212e-05 6.01266e-05 9.39478e-05 0.000135285 0.000184138 0.000240506 0.000313106 0.000410653 0.000533147 0.000680587 0.000852975 0.00105031 0.00127259 0.00151982 0.00178346 0.00205499 0.0023344 0.0026217 0.00291688 0.00321994 0.00353089 0.00384973 0.00416212 0.00445376 0.00472464 0.00497477 0.00520413 0.00541274 0.0056006 0.00576769 0.00590852 0.00601756 0.00609482 0.00614029 0.00615399 0.0061359 0.00608603 0.00600438 0.00590065 0.00578454 0.00565606 0.0055152 0.00536196 0.00519635 0.00501837 0.00482801 0.00464436 0.00448651 0.00435445 0.0042482 0.00416774 0.00411308 0.00408422 0.00408116 0.00411641 0.00420248 0.00433938 0.0045271 0.00476564 0.00505501 0.0053952 0.00578622 0.00622088 0.00669201 0.00719961 0.00774368 0.00832422 0.00894122 0.0095947 0.0102846 0.0109865 0.0116756 0.0123521 0.013016 0.0136671 0.0143056 0.0149314 0.0155446 0.0161204 0.0166342 0.017086 0.0174758 0.0178036 0.0180694 0.0182732 0.018415 0.0184881 0.0184856 0.0184075 0.0182539 0.0180248 0.0177201 0.0173399 0.0168841 0.0163682 0.0158077 0.0152026 0.0145527 0.0138583 0.0131192 0.0123354 0.011507 0.0106626 0.00983085 0.0090118 0.00820544 0.00741175 0.00663074 0.00586241 0.00510676 0.0043878 0.00372954 0.00313199 0.00259514 0.00211899 0.00170354 0.0013488 0.00105476 0.000807549 0.000593302 0.000412015 0.00026369 0.000148325 6.59224e-05 1.64806e-05 0 0 5.41139e-06 2.16456e-05 4.87025e-05 8.65823e-05 0.000135285 0.00019481 0.000265158 0.000346329 0.000450873 0.00059134 0.000767731 0.000980046 0.00122828 0.00151245 0.00183253 0.00218854 0.00256818 0.00295918 0.00336154 0.00377524 0.0042003 0.00463672 0.00508449 0.00554361 0.00599346 0.00641342 0.00680349 0.00716367 0.00749395 0.00779435 0.00806486 0.00830548 0.00850826 0.00866528 0.00877654 0.00884202 0.00886174 0.0088357 0.00876389 0.00864631 0.00849693 0.00832974 0.00814472 0.00794188 0.00772123 0.00748275 0.00722645 0.00695233 0.00668787 0.00646057 0.00627041 0.0061174 0.00600155 0.00592284 0.00588128 0.00587687 0.00592763 0.00605157 0.00624871 0.00651902 0.00686253 0.00727922 0.00776909 0.00833216 0.00895807 0.0096365 0.0103674 0.0111509 0.0119869 0.0128754 0.0138164 0.0148099 0.0158205 0.0168129 0.0177871 0.018743 0.0196807 0.0206001 0.0215012 0.0223842 0.0232133 0.0239532 0.0246038 0.0251651 0.0256372 0.0260199 0.0263134 0.0265176 0.0266228 0.0266192 0.0265068 0.0262856 0.0259557 0.0255169 0.0249694 0.0243131 0.0235703 0.0227631 0.0218917 0.0209559 0.0199559 0.0188916 0.017763 0.01657 0.0153541 0.0141564 0.012977 0.0118158 0.0106729 0.00954827 0.00844187 0.00735374 0.00631843 0.00537054 0.00451007 0.003737 0.00305134 0.0024531 0.00194227 0.00151885 0.00116287 0.000854354 0.000593302 0.000379713 0.000213589 9.49282e-05 2.37321e-05 0 0 7.3655e-06 2.9462e-05 6.62895e-05 0.000117848 0.000184138 0.000265158 0.00036091 0.000471392 0.000613688 0.00080488 0.00104497 0.00133395 0.00167183 0.00205861 0.00249428 0.00297884 0.00349559 0.00402778 0.00457543 0.00513853 0.00571708 0.00631109 0.00692055 0.00754546 0.00815776 0.00872937 0.0092603 0.00975055 0.0102001 0.010609 0.0109772 0.0113047 0.0115807 0.0117944 0.0119458 0.012035 0.0120618 0.0120264 0.0119286 0.0117686 0.0115653 0.0113377 0.0110859 0.0108098 0.0105094 0.0101849 0.009836 0.00946289 0.00910294 0.00879355 0.00853473 0.00832647 0.00816877 0.00806164 0.00800507 0.00799907 0.00806816 0.00823686 0.00850518 0.00887312 0.00934066 0.00990782 0.0105746 0.011341 0.0121929 0.0131163 0.0141112 0.0151776 0.0163155 0.0175248 0.0188056 0.0201579 0.0215335 0.0228843 0.0242102 0.0255113 0.0267876 0.028039 0.0292656 0.0304673 0.0315959 0.032603 0.0334885 0.0342525 0.034895 0.035416 0.0358155 0.0360934 0.0362366 0.0362317 0.0360787 0.0357777 0.0353286 0.0347314 0.0339861 0.0330928 0.0320817 0.0309831 0.029797 0.0285234 0.0271622 0.0257136 0.0241774 0.0225537 0.0208986 0.0192685 0.0176631 0.0160827 0.014527 0.0129963 0.0114903 0.0100093 0.00860009 0.00730991 0.0061387 0.00508647 0.00415322 0.00333894 0.00264365 0.00206733 0.0015828 0.00116287 0.000807549 0.000516832 0.000290718 0.000129208 3.2302e-05 0 0 9.62025e-06 3.8481e-05 8.65823e-05 0.000153924 0.000240506 0.000346329 0.000471392 0.000615696 0.000801552 0.00105127 0.00136486 0.0017423 0.00218362 0.00268879 0.00325783 0.00389073 0.00456566 0.00526077 0.00597607 0.00671155 0.00746721 0.00824305 0.00903908 0.0098553 0.010655 0.0114016 0.0120951 0.0127354 0.0133226 0.0138566 0.0143375 0.0147653 0.0151258 0.0154049 0.0156027 0.0157192 0.0157542 0.0157079 0.0155802 0.0153712 0.0151057 0.0148084 0.0144795 0.0141189 0.0137266 0.0133027 0.012847 0.0123597 0.0118896 0.0114855 0.0111474 0.0108754 0.0106694 0.0105295 0.0104556 0.0104478 0.010538 0.0107584 0.0111088 0.0115894 0.0122 0.0129408 0.0138117 0.0148127 0.0159255 0.0171316 0.018431 0.0198238 0.02131 0.0228895 0.0245624 0.0263287 0.0281254 0.0298897 0.0316215 0.0333209 0.0349878 0.0366224 0.0382244 0.0397941 0.0412681 0.0425835 0.0437401 0.044738 0.0455772 0.0462576 0.0467794 0.0471424 0.0473294 0.047323 0.0471232 0.04673 0.0461434 0.0453634 0.0443901 0.0432233 0.0419027 0.0404678 0.0389186 0.037255 0.0354772 0.0335851 0.0315786 0.0294579 0.0272962 0.025167 0.0230702 0.0210059 0.0189741 0.0169747 0.0150078 0.0130733 0.0112328 0.00954763 0.00801789 0.00664355 0.00542461 0.00436107 0.00345293 0.00270018 0.00206733 0.00151885 0.00105476 0.000675045 0.000379713 0.000168761 4.21903e-05 0 0 1.27483e-05 5.0993e-05 0.000114734 0.000203972 0.000318706 0.000458937 0.000624665 0.000815888 0.00106054 0.00138654 0.00179391 0.00228262 0.00285269 0.00350412 0.00423691 0.00505105 0.00591849 0.00681117 0.00772911 0.00867229 0.00964072 0.0106344 0.0116533 0.0126975 0.0137204 0.0146757 0.0155632 0.0163831 0.0171352 0.0178197 0.0184364 0.0189855 0.019449 0.019809 0.0200656 0.0202188 0.0202685 0.0202148 0.0200577 0.0197971 0.0194646 0.0190915 0.0186779 0.0182238 0.0177292 0.017194 0.0166184 0.0160022 0.0154074 0.0148958 0.0144674 0.0141223 0.0138603 0.0136817 0.0135862 0.013574 0.0136856 0.0139616 0.014402 0.0150068 0.015776 0.0167096 0.0178077 0.0190701 0.0204738 0.0219956 0.0236354 0.0253933 0.0272693 0.0292634 0.0313755 0.0336057 0.0358745 0.0381023 0.0402892 0.0424352 0.0445402 0.0466043 0.0486274 0.0506096 0.052471 0.0541317 0.0555917 0.056851 0.0579097 0.0587676 0.0594249 0.0598815 0.0601154 0.0601045 0.0598489 0.0593487 0.0586036 0.0576139 0.0563794 0.0549003 0.0532263 0.0514074 0.0494435 0.0473348 0.0450812 0.0426827 0.0401393 0.037451 0.0347104 0.0320104 0.0293509 0.0267319 0.0241534 0.0216154 0.019118 0.016661 0.0143226 0.0121807 0.0102354 0.0084866 0.00693439 0.00557873 0.00441963 0.00345708 0.00264683 0.00194461 0.00135042 0.00086427 0.000486152 0.000216068 5.40169e-05 0 0 1.73222e-05 6.92886e-05 0.000155899 0.000277154 0.000433054 0.000623597 0.000848785 0.00110862 0.00143672 0.00186672 0.00239863 0.00303242 0.00376812 0.00460572 0.00554522 0.00658661 0.00769413 0.00883199 0.0100002 0.0111987 0.0124276 0.0136869 0.0149765 0.0162964 0.0175891 0.018797 0.0199201 0.0209584 0.0219118 0.0227805 0.0235644 0.0242634 0.0248556 0.0253187 0.0256529 0.0258582 0.0259344 0.0258816 0.0256999 0.0253892 0.0249884 0.0245364 0.0240333 0.0234789 0.0228734 0.0222167 0.0215088 0.0207498 0.020016 0.019384 0.0188537 0.0184252 0.0180984 0.0178734 0.0177502 0.0177287 0.0178592 0.018192 0.018727 0.0194643 0.0204038 0.0215456 0.0228896 0.0244359 0.0261561 0.0280218 0.0300331 0.0321899 0.0344922 0.0369401 0.0395335 0.0422724 0.0450591 0.0477955 0.0504816 0.0531176 0.0557033 0.0582388 0.0607241 0.0631592 0.0654456 0.0674847 0.0692766 0.0708212 0.0721186 0.0731688 0.0739717 0.0745274 0.0748085 0.0747875 0.0744646 0.0738396 0.0729126 0.0716835 0.0701525 0.0683194 0.0662456 0.0639922 0.0615593 0.0589468 0.0561547 0.0531831 0.050032 0.0467013 0.043305 0.0399572 0.0366578 0.0334069 0.0302044 0.0270503 0.0239446 0.0208874 0.0179756 0.015306 0.0128788 0.010694 0.00875141 0.00705118 0.00559327 0.00437769 0.00335167 0.00246245 0.00171003 0.00109442 0.000615612 0.000273605 6.84014e-05 0 0 2.33419e-05 9.33677e-05 0.000210077 0.000373471 0.000583548 0.00084031 0.00114375 0.00149388 0.0019301 0.00249181 0.00317902 0.00399171 0.0049299 0.00599358 0.00718276 0.00849743 0.00989258 0.0113232 0.0127893 0.0142909 0.015828 0.0174005 0.0190085 0.020652 0.022261 0.0237656 0.0251657 0.0264613 0.0276524 0.0287391 0.0297213 0.0305991 0.0313456 0.0319341 0.0323647 0.0326372 0.0327518 0.0327084 0.0325069 0.0321475 0.0316772 0.0311433 0.0305457 0.0298844 0.0291594 0.0283708 0.0275185 0.0266025 0.0257155 0.0249501 0.0243063 0.0237842 0.0233837 0.0231048 0.0229476 0.022912 0.023059 0.0234497 0.024084 0.0249619 0.0260835 0.0274488 0.0290576 0.0309101 0.0329723 0.0352103 0.037624 0.0402135 0.0429787 0.0459197 0.0490364 0.0523289 0.0556791 0.0589691 0.0621987 0.0653681 0.0684772 0.0715261 0.0745146 0.0774429 0.0801919 0.0826424 0.0847946 0.0866485 0.088204 0.0894611 0.0904198 0.0910802 0.0914088 0.091372 0.09097 0.0902027 0.0890702 0.0875724 0.0857092 0.0834808 0.0809607 0.0782223 0.0752657 0.0720908 0.0686977 0.0650863 0.0612567 0.0572089 0.05308 0.0490074 0.044991 0.0410309 0.0371269 0.0332792 0.0294878 0.0257525 0.0221917 0.0189237 0.0159483 0.0132656 0.0108757 0.00877841 0.00697385 0.005462 0.00418184 0.00307238 0.00213359 0.0013655 0.000768094 0.000341375 8.53438e-05 0 0 3.08076e-05 0.00012323 0.000277268 0.000492922 0.00077019 0.00110907 0.00150957 0.00197169 0.00254068 0.00326181 0.00413508 0.00516048 0.00633803 0.00766772 0.00914954 0.0107835 0.0125139 0.0142849 0.0160965 0.0179488 0.0198417 0.0217753 0.0237495 0.0257644 0.0277362 0.0295814 0.0312999 0.0328918 0.034357 0.0356955 0.0369073 0.0379925 0.0389191 0.0396552 0.0402009 0.040556 0.0407207 0.040695 0.0404787 0.040072 0.039531 0.0389121 0.0382151 0.0374402 0.0365872 0.0356562 0.0346473 0.0335603 0.0325058 0.0315941 0.0308252 0.0301993 0.0297161 0.0293758 0.0291784 0.0291238 0.0292849 0.0297346 0.0304729 0.0314997 0.0328151 0.0344191 0.0363116 0.0384928 0.0409225 0.043561 0.0464082 0.0494642 0.0527288 0.0562022 0.0598843 0.0637751 0.0677347 0.0716232 0.0754406 0.0791868 0.0828619 0.086466 0.0899989 0.0934606 0.0967098 0.0996049 0.102146 0.104333 0.106166 0.107645 0.108769 0.10954 0.109916 0.109858 0.109365 0.108438 0.107077 0.10528 0.10305 0.100385 0.0973716 0.0940977 0.0905628 0.0867669 0.0827101 0.0783923 0.0738135 0.0689737 0.0640354 0.059161 0.0543505 0.0496039 0.0449211 0.0403023 0.0357474 0.0312564 0.0269711 0.0230336 0.0194438 0.0162016 0.0133072 0.0107604 0.00856138 0.00671002 0.00513736 0.00377439 0.0026211 0.00167751 0.000943597 0.000419376 0.000104844 0 0 3.97192e-05 0.000158877 0.000357472 0.000635507 0.000992979 0.00142989 0.00194624 0.00254203 0.00326845 0.00417671 0.00526681 0.00653874 0.00799251 0.00962811 0.0114456 0.0134448 0.0155579 0.0177169 0.0199217 0.0221724 0.0244689 0.0268112 0.0291994 0.0316335 0.0340147 0.0362446 0.038323 0.04025 0.0420255 0.0436496 0.0451223 0.0464436 0.047576 0.0484819 0.0491614 0.0496145 0.0498412 0.0498415 0.0496153 0.0491627 0.0485498 0.0478428 0.0470416 0.0461462 0.0451567 0.0440731 0.0428952 0.0416233 0.0403869 0.039316 0.0384105 0.0376704 0.0370957 0.0366864 0.0364426 0.0363641 0.0365369 0.0370468 0.0378936 0.0390776 0.0405986 0.0424566 0.0446517 0.0471838 0.0500067 0.053074 0.0563857 0.0599419 0.0637425 0.0677876 0.072077 0.076611 0.0812257 0.0857578 0.0902071 0.0945736 0.0988574 0.103059 0.107177 0.111212 0.114999 0.118372 0.12133 0.123874 0.126004 0.127719 0.12902 0.129906 0.130331 0.130246 0.129651 0.128546 0.126932 0.124808 0.122174 0.11903 0.115478 0.111618 0.107451 0.102975 0.098192 0.093101 0.0877023 0.0819958 0.0761712 0.070418 0.0647362 0.0591259 0.053587 0.0481195 0.0427235 0.0373989 0.0323137 0.0276358 0.0233652 0.0195019 0.0160459 0.0129972 0.0103558 0.00812175 0.00621822 0.00456849 0.00317256 0.00203044 0.00114212 0.00050761 0.000126902 0 0 5.00766e-05 0.000200306 0.000450689 0.000801226 0.00125192 0.00180276 0.00245375 0.0032049 0.00411342 0.00523652 0.00657421 0.00812648 0.00989334 0.0118748 0.0140708 0.0164814 0.0190249 0.0216194 0.024265 0.0269617 0.0297095 0.0325083 0.0353583 0.0382593 0.0410965 0.043755 0.0462347 0.0485357 0.050658 0.0526016 0.0543664 0.0559525 0.0573163 0.0584143 0.0592465 0.0598128 0.0601132 0.0601478 0.0599166 0.0594196 0.0587335 0.0579354 0.057025 0.0560026 0.054868 0.0536212 0.0522623 0.0507913 0.0493589 0.0481158 0.047062 0.0461975 0.0455224 0.0450366 0.0447401 0.044633 0.044815 0.0453862 0.0463463 0.0476956 0.0494339 0.0515613 0.0540777 0.0569833 0.0602248 0.0637492 0.0675565 0.0716467 0.0760198 0.0806758 0.0856147 0.0908366 0.0961523 0.101373 0.106498 0.111529 0.116464 0.121304 0.126049 0.130698 0.135061 0.138944 0.142348 0.145273 0.147719 0.149685 0.151172 0.15218 0.152653 0.152535 0.151826 0.150526 0.148635 0.146154 0.143082 0.139419 0.135281 0.130784 0.125929 0.120716 0.115143 0.109213 0.102923 0.0962752 0.0894873 0.0827783 0.0761482 0.0695969 0.0631244 0.0567308 0.0504161 0.0441802 0.0382195 0.0327303 0.0277127 0.0231665 0.0190919 0.0154888 0.0123572 0.00969719 0.00742441 0.00545467 0.00378797 0.0024243 0.00136367 0.000606074 0.000151519 0 0 6.18799e-05 0.00024752 0.000556919 0.000990079 0.001547 0.00222768 0.00303212 0.00396032 0.00507559 0.00644124 0.00805728 0.00992371 0.0120405 0.0144077 0.0170253 0.0198932 0.0229146 0.0259923 0.0291263 0.0323167 0.0355635 0.0388666 0.042226 0.0456418 0.0489815 0.0521126 0.0550352 0.0577491 0.0602545 0.0625513 0.0646395 0.0665191 0.0681401 0.0694524 0.0704559 0.0711507 0.0715368 0.0716141 0.0713828 0.0708427 0.0700822 0.0691898 0.0681655 0.0670092 0.065721 0.0643008 0.0627486 0.0610645 0.0594217 0.0579935 0.0567798 0.0557808 0.0549963 0.0544264 0.0540711 0.0539304 0.0541193 0.0547528 0.0558309 0.0573537 0.0593211 0.0617331 0.0645898 0.0678911 0.0715768 0.0755866 0.0799205 0.0845786 0.0895607 0.094867 0.100497 0.106452 0.112514 0.118468 0.124314 0.130052 0.135681 0.141202 0.146614 0.151918 0.156894 0.161321 0.165199 0.168529 0.17131 0.173542 0.175225 0.17636 0.176882 0.176725 0.175891 0.174378 0.172188 0.169319 0.165773 0.161549 0.156779 0.151595 0.145998 0.139988 0.133564 0.126727 0.119476 0.111812 0.103984 0.096242 0.0885864 0.0810168 0.0735335 0.0661362 0.0588251 0.0516002 0.0446885 0.0383171 0.0324861 0.0271955 0.0224452 0.0182352 0.0145656 0.0114363 0.00875594 0.00643294 0.00446732 0.00285908 0.00160823 0.000714771 0.000178693 0 0 7.51292e-05 0.000300517 0.000676162 0.00120207 0.00187823 0.00270465 0.00368133 0.00480827 0.00615495 0.00779087 0.00971603 0.0119304 0.014434 0.0172269 0.020309 0.0236803 0.0272271 0.0308356 0.0345057 0.0382374 0.0420309 0.0458859 0.0498027 0.0537811 0.0576698 0.0613176 0.0647244 0.0678902 0.070815 0.0734988 0.0759416 0.0781435 0.0800473 0.0815961 0.0827898 0.0836284 0.0841119 0.0842403 0.0840137 0.083432 0.0825959 0.0816062 0.080463 0.0791662 0.0777157 0.0761117 0.074354 0.0724428 0.0705753 0.0689491 0.067564 0.0664201 0.0655174 0.0648558 0.0644355 0.0642563 0.0644496 0.0651466 0.0663474 0.0680519 0.0702602 0.0729722 0.0761879 0.0799074 0.0840628 0.0885863 0.0934778 0.0987375 0.104365 0.110361 0.116725 0.123457 0.130312 0.137044 0.143655 0.150143 0.156509 0.162752 0.168873 0.174872 0.180499 0.185502 0.189883 0.193642 0.196777 0.19929 0.20118 0.202447 0.203018 0.202817 0.201845 0.200103 0.197589 0.194304 0.190248 0.185421 0.179973 0.174052 0.167658 0.160793 0.153455 0.145644 0.137361 0.128606 0.119661 0.110809 0.102051 0.0933858 0.0848142 0.0763358 0.0679507 0.0596589 0.0517207 0.0443962 0.0376856 0.0315887 0.0261056 0.0212364 0.0169809 0.0133392 0.0102128 0.00750329 0.00521062 0.0033348 0.00187582 0.000833699 0.000208425 0 0 8.9948e-05 0.000359792 0.000809532 0.00143917 0.0022487 0.00323813 0.00440745 0.00575667 0.00736133 0.00929696 0.0115636 0.0141612 0.0170897 0.0203493 0.0239398 0.0278613 0.0319816 0.0361686 0.0404224 0.0447429 0.04913 0.0535839 0.0581046 0.0626919 0.0671747 0.0713818 0.0753132 0.0789689 0.0823488 0.085453 0.0882816 0.0908344 0.093047 0.0948552 0.0962589 0.097258 0.0978527 0.0980428 0.0978284 0.0972095 0.0962997 0.0952125 0.093948 0.0925062 0.0908871 0.0890906 0.0871168 0.0849657 0.0828598 0.0810218 0.0794515 0.078149 0.0771143 0.0763474 0.0758484 0.0756171 0.075802 0.0765515 0.0778655 0.0797441 0.0821872 0.0851949 0.0887671 0.092904 0.0975299 0.10257 0.108023 0.11389 0.120172 0.126866 0.133975 0.141497 0.149159 0.156684 0.164072 0.171325 0.178442 0.185422 0.192266 0.198974 0.205265 0.210857 0.21575 0.219945 0.22344 0.226237 0.228336 0.229735 0.230352 0.230101 0.228983 0.226999 0.224147 0.220427 0.215841 0.210388 0.204234 0.197546 0.190324 0.182569 0.17428 0.165457 0.1561 0.14621 0.136102 0.126095 0.116187 0.106379 0.0966708 0.0870626 0.0775542 0.0681458 0.0591322 0.0508086 0.0431749 0.0362312 0.0299774 0.0244136 0.0195397 0.0153558 0.0117568 0.00863763 0.00599835 0.00383895 0.00215941 0.000959737 0.000239934 0 0 0.00010646 0.000425841 0.000958143 0.00170336 0.00266151 0.00383257 0.00521655 0.00681346 0.00870454 0.0109711 0.013613 0.0166305 0.0200233 0.0237916 0.0279354 0.0324546 0.0371971 0.0420108 0.0468958 0.051852 0.0568794 0.0619781 0.0671479 0.072389 0.0775095 0.0823173 0.0868126 0.0909953 0.0948655 0.0984231 0.101668 0.1046 0.107148 0.10924 0.110874 0.112052 0.112773 0.113038 0.112846 0.112197 0.111219 0.110037 0.108651 0.107062 0.10527 0.103274 0.101075 0.0986729 0.0963153 0.0942508 0.0924794 0.0910011 0.0898159 0.0889238 0.0883249 0.088019 0.0881723 0.0889509 0.0903548 0.0923838 0.0950382 0.0983177 0.102223 0.106753 0.111825 0.117358 0.123351 0.129805 0.136718 0.144092 0.151925 0.160219 0.168668 0.176969 0.18512 0.193122 0.200975 0.208679 0.216233 0.223639 0.230583 0.236753 0.242149 0.246771 0.250619 0.253692 0.255992 0.257518 0.258174 0.257868 0.256598 0.254365 0.251168 0.247008 0.241885 0.235799 0.228932 0.22147 0.213411 0.204757 0.195506 0.185659 0.175216 0.164177 0.152892 0.141713 0.130639 0.119671 0.108808 0.0980497 0.0873973 0.0768502 0.0667392 0.0573951 0.048818 0.0410077 0.0339645 0.0276881 0.0221787 0.0174362 0.0133496 0.00980784 0.006811 0.00435904 0.00245196 0.00108976 0.00027244 0 0 0.000124666 0.000498664 0.00112199 0.00199465 0.00311665 0.00448797 0.00610863 0.00797862 0.0101846 0.0128132 0.0158645 0.0193383 0.0232349 0.027554 0.0322958 0.0374602 0.0428736 0.0483621 0.0539259 0.0595648 0.065279 0.0710683 0.0769328 0.0828726 0.0886741 0.0941241 0.0992226 0.10397 0.108365 0.112409 0.116101 0.119442 0.122351 0.124749 0.126635 0.12801 0.128874 0.129226 0.129066 0.128395 0.127353 0.126079 0.124572 0.122834 0.120865 0.118663 0.116229 0.113564 0.110942 0.108636 0.106648 0.104976 0.103622 0.102585 0.101865 0.101462 0.101561 0.102345 0.103815 0.105971 0.108813 0.112341 0.116554 0.121453 0.126949 0.132952 0.139462 0.14648 0.154005 0.162036 0.170576 0.179622 0.188841 0.197899 0.206797 0.215533 0.224108 0.232522 0.240774 0.248866 0.256453 0.263191 0.26908 0.27412 0.278312 0.281655 0.284149 0.285794 0.286486 0.286117 0.284689 0.282201 0.278654 0.274047 0.26838 0.261654 0.254069 0.245823 0.236919 0.227355 0.217132 0.20625 0.194708 0.182507 0.170031 0.157665 0.145408 0.133262 0.121225 0.109297 0.0974799 0.0857721 0.0745416 0.0641558 0.0546148 0.0459184 0.0380668 0.0310599 0.0248978 0.0195803 0.0149912 0.0110139 0.00764856 0.00489508 0.00275348 0.00122377 0.000305943 0 0 0.000144565 0.00057826 0.00130108 0.00231304 0.00361412 0.00520434 0.00708368 0.00925216 0.0118015 0.0148234 0.0183178 0.0222848 0.0267243 0.0316364 0.0370211 0.0428783 0.0490111 0.0552226 0.0615127 0.0678814 0.0743287 0.0808546 0.0874592 0.0941424 0.100669 0.106802 0.112543 0.117892 0.122847 0.12741 0.131581 0.135359 0.138656 0.141384 0.143543 0.145133 0.146154 0.146606 0.14649 0.145804 0.144702 0.143338 0.141712 0.139822 0.137671 0.135256 0.132579 0.12964 0.126739 0.124178 0.121956 0.120075 0.118533 0.117331 0.116469 0.115946 0.115967 0.116734 0.118247 0.120506 0.123512 0.127264 0.131762 0.137006 0.142901 0.149351 0.156356 0.163916 0.172031 0.180701 0.189926 0.199706 0.209677 0.219476 0.229103 0.238558 0.247841 0.256951 0.265889 0.274655 0.282874 0.29017 0.296543 0.301993 0.306521 0.310125 0.312807 0.314566 0.315286 0.314849 0.313257 0.310508 0.306604 0.301544 0.295327 0.287955 0.279643 0.270607 0.260848 0.250365 0.239159 0.22723 0.214577 0.2012 0.187518 0.17395 0.160494 0.147151 0.133922 0.120805 0.107802 0.0949116 0.0825395 0.0710907 0.0605653 0.0509632 0.0422845 0.0345291 0.027697 0.0217883 0.0166816 0.0122559 0.00851104 0.00544706 0.00306397 0.00136177 0.000340442 0 0 0.000166157 0.00066463 0.00149542 0.00265852 0.00415394 0.00598167 0.00814171 0.0106341 0.0135552 0.0170015 0.0209731 0.0254698 0.0304917 0.0360389 0.0421112 0.0487088 0.0556097 0.0625922 0.0696561 0.0768016 0.0840286 0.0913371 0.0987271 0.106199 0.113493 0.120352 0.126774 0.132761 0.138312 0.143428 0.148107 0.152351 0.156062 0.159144 0.161596 0.16342 0.164614 0.16518 0.165116 0.164423 0.163267 0.161816 0.160069 0.158027 0.155688 0.153054 0.150125 0.146899 0.143707 0.140876 0.138405 0.136296 0.134548 0.133162 0.132136 0.131472 0.131391 0.132117 0.13365 0.135989 0.139135 0.143087 0.147846 0.153411 0.159682 0.166556 0.174033 0.182114 0.190798 0.200085 0.209976 0.220471 0.231176 0.241699 0.252039 0.262197 0.272173 0.281967 0.291578 0.301007 0.309847 0.31769 0.324538 0.330389 0.335244 0.339103 0.341965 0.343832 0.344574 0.344064 0.342301 0.339286 0.335018 0.329498 0.322725 0.3147 0.305655 0.295821 0.285198 0.273787 0.261587 0.248599 0.234822 0.220256 0.205354 0.190567 0.175896 0.16134 0.146899 0.132574 0.118364 0.104269 0.0907329 0.0781999 0.0666696 0.0561421 0.0466174 0.0380955 0.0305764 0.02406 0.0184209 0.0135337 0.00939843 0.00601499 0.00338343 0.00150375 0.000375937 0 0 0.000189443 0.000757773 0.00170499 0.00303109 0.00473608 0.00681996 0.00928272 0.0121244 0.0154457 0.0193477 0.0238303 0.0288934 0.0345371 0.0407614 0.0475662 0.0549517 0.0626693 0.0704709 0.0783563 0.0863255 0.0943787 0.102516 0.110737 0.119041 0.127147 0.134772 0.141916 0.148579 0.15476 0.160461 0.16568 0.170418 0.174569 0.178029 0.180796 0.182871 0.184254 0.184946 0.184945 0.184252 0.183047 0.181511 0.179645 0.177447 0.174918 0.172057 0.168866 0.165343 0.161846 0.15873 0.155995 0.153641 0.151668 0.150077 0.148867 0.148038 0.147833 0.148495 0.150024 0.152419 0.155682 0.15981 0.164806 0.170668 0.177291 0.184565 0.192492 0.201072 0.210305 0.22019 0.230727 0.241917 0.253338 0.264567 0.275605 0.286451 0.297106 0.307569 0.317841 0.327921 0.337371 0.345753 0.353065 0.359308 0.364483 0.368588 0.371625 0.373592 0.374351 0.373761 0.371822 0.368533 0.363896 0.35791 0.350575 0.34189 0.332104 0.321464 0.309969 0.297619 0.284415 0.270356 0.255443 0.239676 0.223539 0.207519 0.191615 0.175828 0.160157 0.144602 0.129165 0.113843 0.0991217 0.0854832 0.0729277 0.0614552 0.0510657 0.0417593 0.0335359 0.0263955 0.020209 0.0148475 0.0103107 0.00659887 0.00371186 0.00164972 0.000412429 0 0 0.000214422 0.00085769 0.0019298 0.00343076 0.00536056 0.00771921 0.0105067 0.013723 0.0174731 0.0218619 0.0268894 0.0325555 0.0388604 0.0458039 0.053386 0.0616069 0.07019 0.0788587 0.0876131 0.0964532 0.105379 0.11439 0.123487 0.13267 0.141631 0.150064 0.157968 0.165344 0.172191 0.178509 0.184299 0.18956 0.194178 0.198039 0.201142 0.203487 0.205074 0.205904 0.205976 0.205291 0.204042 0.202425 0.200438 0.198083 0.195358 0.192265 0.188803 0.184972 0.181156 0.17774 0.174725 0.172109 0.169893 0.168077 0.166662 0.165646 0.165294 0.165868 0.167369 0.169797 0.173152 0.177434 0.182642 0.188778 0.195728 0.20338 0.211735 0.220792 0.230551 0.241013 0.252178 0.264045 0.276163 0.288081 0.2998 0.311319 0.322638 0.333758 0.344678 0.355398 0.365448 0.374356 0.382124 0.388751 0.394236 0.398581 0.401785 0.403847 0.404617 0.403941 0.401819 0.398251 0.393238 0.386779 0.378875 0.369525 0.358992 0.347537 0.335161 0.321