<?xml version="1.0"?> 
<VTKFile type="StructuredGrid" version="0.1"> 
<StructuredGrid WholeExtent="0 128 0 128 0 0"> 
<Piece Extent="0 128 0 128 0 0"> 
<PointData>
<DataArray type="Float32" Name="u" format="ascii" NumberOfComponents="1"> 
0 0 0 0 0 0 0 0 0 0 0 0 0 0 0 0 0 0 0 0 0 0 0 0 0 0 0 0 0 0 0 0 0 0 0 0 0 0 0 0 0 0 0 0 0 0 0 0 0 0 0 0 0 0 0 0 0 0 0 0 0 0 0 0 0 0 0 0 0 0 0 0 0 0 0 0 0 0 0 0 0 0 0 0 0 0 0 0 0 0 0 0 0 0 0 0 0 0 0 0 0 0 0 0 0 0 0 0 0 0 0 0 0 0 0 0 0 0 0 0 0 0 0 0 0 0 0 0 0 0 2.35477e-07 9.41908e-07 2.11929e-06 3.76763e-06 5.88692e-06 8.47717e-06 1.15384e-05 1.50705e-05 1.93641e-05 2.47097e-05 3.11072e-05 3.85566e-05 4.7058e-05 5.66113e-05 6.72166e-05 7.88738e-05 9.11443e-05 0.000103589 0.000116209 0.000129004 0.000141973 0.000155116 0.000168434 0.000181927 0.000195076 0.000207362 0.000218786 0.000229347 0.000239045 0.00024788 0.000255853 0.000262963 0.000269079 0.000274067 0.000277928 0.000280662 0.000282269 0.000282749 0.000282102 0.000280328 0.000277793 0.000274865 0.000271542 0.000267825 0.000263713 0.000259208 0.000254309 0.000249015 0.000243948 0.000239728 0.000236354 0.000233828 0.000232149 0.000231316 0.000231331 0.000232192 0.000234282 0.000237982 0.000243292 0.000250212 0.000258743 0.000268884 0.000280634 0.000293995 0.000308733 0.000324613 0.000341636 0.000359802 0.00037911 0.000399562 0.000421156 0.000443893 0.000466994 0.000489679 0.00051195 0.000533805 0.000555245 0.00057627 0.00059688 0.000617074 0.000636033 0.000652936 0.000667782 0.000680571 0.000691305 0.000699982 0.000706602 0.000711166 0.000713374 0.000712926 0.00070982 0.000704059 0.000695641 0.000684566 0.000670835 0.000654447 0.000635844 0.000615467 0.000593316 0.000569391 0.000543693 0.00051622 0.000486973 0.000455953 0.000424178 0.000392668 0.000361424 0.000330445 0.000299731 0.000269283 0.0002391 0.000209182 0.000180554 0.000154244 0.000130249 0.000108571 8.92087e-05 7.2163e-05 5.74335e-05 4.50203e-05 3.44686e-05 2.53239e-05 1.7586e-05 1.12551e-05 6.33098e-06 2.81377e-06 7.03442e-07 0 0 9.41908e-07 3.76763e-06 8.47717e-06 1.50705e-05 2.35477e-05 3.39087e-05 4.61535e-05 6.02821e-05 7.74565e-05 9.88387e-05 0.000124429 0.000154226 0.000188232 0.000226445 0.000268866 0.000315495 0.000364577 0.000414358 0.000464837 0.000516014 0.00056789 0.000620465 0.000673738 0.000727709 0.000780304 0.000829449 0.000875143 0.000917386 0.000956179 0.000991521 0.00102341 0.00105185 0.00107631 0.00109627 0.00111171 0.00112265 0.00112908 0.001131 0.00112841 0.00112131 0.00111117 0.00109946 0.00108617 0.0010713 0.00105485 0.00103683 0.00101723 0.000996061 0.000975792 0.000958911 0.000945418 0.000935312 0.000928595 0.000925265 0.000925322 0.000928768 0.000937127 0.000951928 0.000973168 0.00100085 0.00103497 0.00107553 0.00112254 0.00117598 0.00123493 0.00129845 0.00136654 0.00143921 0.00151644 0.00159825 0.00168462 0.00177557 0.00186797 0.00195872 0.0020478 0.00213522 0.00222098 0.00230508 0.00238752 0.0024683 0.00254413 0.00261174 0.00267113 0.00272229 0.00276522 0.00279993 0.00282641 0.00284467 0.0028535 0.0028517 0.00283928 0.00281623 0.00278256 0.00273826 0.00268334 0.00261779 0.00254338 0.00246187 0.00237326 0.00227757 0.00217477 0.00206488 0.00194789 0.00182381 0.00169671 0.00157067 0.0014457 0.00132178 0.00119892 0.00107713 0.000956398 0.000836727 0.000722218 0.000616975 0.000520996 0.000434283 0.000356835 0.000288652 0.000229734 0.000180081 0.000137875 0.000101296 7.03442e-05 4.50203e-05 2.53239e-05 1.12551e-05 2.81377e-06 0 0 2.11929e-06 8.47717e-06 1.90736e-05 3.39087e-05 5.29823e-05 7.62945e-05 0.000103845 0.000135635 0.000174277 0.000222387 0.000279964 0.000347009 0.000423522 0.000509502 0.000604949 0.000709864 0.000820299 0.000932305 0.00104588 0.00116103 0.00127775 0.00139605 0.00151591 0.00163735 0.00175568 0.00186626 0.00196907 0.00206412 0.0021514 0.00223092 0.00230268 0.00236667 0.00242171 0.0024666 0.00250135 0.00252596 0.00254042 0.00254474 0.00253892 0.00252295 0.00250014 0.00247378 0.00244388 0.00241042 0.00237342 0.00233287 0.00228878 0.00224114 0.00219553 0.00215755 0.00212719 0.00210445 0.00208934 0.00208185 0.00208198 0.00208973 0.00210854 0.00214184 0.00218963 0.00225191 0.00232869 0.00241995 0.00252571 0.00264596 0.00277859 0.00292152 0.00307472 0.00323821 0.00341199 0.00359605 0.0037904 0.00399504 0.00420294 0.00440711 0.00460755 0.00480424 0.00499721 0.00518643 0.00537192 0.00555367 0.0057243 0.00587642 0.00601003 0.00612514 0.00622174 0.00629983 0.00635942 0.0064005 0.00642037 0.00641633 0.00638838 0.00633653 0.00626076 0.00616109 0.00603751 0.00589002 0.0057226 0.0055392 0.00533985 0.00512452 0.00489323 0.00464598 0.00438276 0.00410358 0.0038176 0.00353402 0.00325282 0.00297401 0.00269758 0.00242354 0.0021519 0.00188263 0.00162499 0.00138819 0.00117224 0.000977137 0.000802878 0.000649467 0.000516901 0.000405182 0.000310218 0.000227915 0.000158274 0.000101296 5.69788e-05 2.53239e-05 6.33098e-06 0 0 3.76763e-06 1.50705e-05 3.39087e-05 6.02821e-05 9.41908e-05 0.000135635 0.000184614 0.000241128 0.000309826 0.000395355 0.000497715 0.000616906 0.000752928 0.000905781 0.00107547 0.00126198 0.00145831 0.00165743 0.00185935 0.00206406 0.00227156 0.00248186 0.00269495 0.00291084 0.00312122 0.0033178 0.00350057 0.00366955 0.00382472 0.00396608 0.00409365 0.00420741 0.00430526 0.00438507 0.00444685 0.00449059 0.00451631 0.00452399 0.00451364 0.00448525 0.0044447 0.00439783 0.00434467 0.00428519 0.00421942 0.00414733 0.00406894 0.00398424 0.00390317 0.00383564 0.00378167 0.00374125 0.00371438 0.00370106 0.00370129 0.00371507 0.00374851 0.00380771 0.00389267 0.0040034 0.00413989 0.00430214 0.00449015 0.00470392 0.00493972 0.00519381 0.00546617 0.00575683 0.00606576 0.00639299 0.00673849 0.00710229 0.0074719 0.00783487 0.0081912 0.00854088 0.00888392 0.00922032 0.00955008 0.00987319 0.0101765 0.010447 0.0106845 0.0108891 0.0110609 0.0111997 0.0113056 0.0113787 0.011414 0.0114068 0.0113571 0.0112649 0.0111302 0.0109531 0.0107334 0.0104712 0.0101735 0.00984747 0.00949306 0.00911026 0.00869908 0.00825952 0.00779158 0.00729525 0.00678685 0.00628269 0.00578278 0.00528712 0.0047957 0.00430852 0.00382559 0.00334691 0.00288887 0.0024679 0.00208398 0.00173713 0.00142734 0.00115461 0.000918936 0.000720324 0.000551498 0.000405182 0.000281377 0.000180081 0.000101296 4.50203e-05 1.12551e-05 0 0 5.88692e-06 2.35477e-05 5.29823e-05 9.41908e-05 0.000147173 0.000211929 0.000288459 0.000376763 0.000484103 0.000617742 0.000777679 0.000963915 0.00117645 0.00141528 0.00168041 0.00197184 0.00227861 0.00258974 0.00290523 0.00322509 0.00354931 0.0038779 0.00421086 0.00454818 0.0048769 0.00518406 0.00546964 0.00573366 0.00597612 0.00619701 0.00639633 0.00657408 0.00672696 0.00685167 0.0069482 0.00701655 0.00705673 0.00706873 0.00705255 0.0070082 0.00694484 0.00687162 0.00678854 0.00669562 0.00659284 0.0064802 0.00635772 0.00622538 0.0060987 0.00599319 0.00590886 0.0058457 0.00580372 0.0057829 0.00578326 0.0058048 0.00585705 0.00594955 0.0060823 0.00625531 0.00646857 0.00672209 0.00701586 0.00734988 0.00771832 0.00811532 0.0085409 0.00899504 0.00947776 0.00998904 0.0105289 0.0110973 0.0116748 0.012242 0.0127987 0.0133451 0.0138811 0.0144067 0.014922 0.0154269 0.0159008 0.0163234 0.0166945 0.0170143 0.0172826 0.0174995 0.0176651 0.0177792 0.0178344 0.0178231 0.0177455 0.0176015 0.017391 0.0171141 0.0167709 0.0163612 0.0158961 0.0153867 0.0148329 0.0142348 0.0135923 0.0129055 0.0121743 0.0113988 0.0106044 0.00981671 0.0090356 0.00826113 0.00749328 0.00673207 0.00597749 0.00522954 0.00451386 0.00385609 0.00325623 0.00271427 0.00223022 0.00180407 0.00143584 0.00112551 0.000861716 0.000633098 0.000439651 0.000281377 0.000158274 7.03442e-05 1.7586e-05 0 0 8.47717e-06 3.39087e-05 7.62945e-05 0.000135635 0.000211929 0.000305178 0.000415381 0.000542539 0.000697109 0.000889548 0.00111986 0.00138804 0.00169409 0.00203801 0.0024198 0.00283946 0.00328119 0.00372922 0.00418353 0.00464413 0.00511101 0.00558418 0.00606364 0.00654938 0.00702274 0.00746504 0.00787629 0.00825648 0.00860561 0.00892369 0.00921071 0.00946668 0.00968683 0.0098664 0.0100054 0.0101038 0.0101617 0.010179 0.0101557 0.0100918 0.0100006 0.00989513 0.0097755 0.00964169 0.00949369 0.00933149 0.00915511 0.00896455 0.00878213 0.0086302 0.00850876 0.00841781 0.00835735 0.00832738 0.0083279 0.00835891 0.00843415 0.00856735 0.00875851 0.00900765 0.00931474 0.00967981 0.0101028 0.0105838 0.0111144 0.0116861 0.0122989 0.0129529 0.013648 0.0143842 0.0151616 0.0159801 0.0168118 0.0176285 0.0184302 0.019217 0.0199888 0.0207457 0.0214877 0.0222147 0.0228972 0.0235057 0.0240401 0.0245006 0.024887 0.0251993 0.0254377 0.025602 0.0256815 0.0256653 0.0255535 0.0253461 0.0250431 0.0246444 0.02415 0.0235601 0.0228904 0.0221568 0.0213594 0.0204981 0.0195729 0.0185839 0.017531 0.0164143 0.0152704 0.0141361 0.0130113 0.011896 0.0107903 0.00969418 0.00860758 0.00753054 0.00649996 0.00555277 0.00468897 0.00390855 0.00321151 0.00259787 0.0020676 0.00162073 0.00124087 0.00091166 0.000633098 0.000405182 0.000227915 0.000101296 2.53239e-05 0 0 1.15384e-05 4.61535e-05 0.000103845 0.000184614 0.000288459 0.000415381 0.00056538 0.000738456 0.000948842 0.00121077 0.00152425 0.00188927 0.00230584 0.00277395 0.00329361 0.00386482 0.00446607 0.00507588 0.00569425 0.00632117 0.00695665 0.00760069 0.00825328 0.00891444 0.00955873 0.0101608 0.0107205 0.011238 0.0117132 0.0121461 0.0125368 0.0128852 0.0131848 0.0134293 0.0136185 0.0137524 0.0138312 0.0138547 0.013823 0.0137361 0.0136119 0.0134684 0.0133055 0.0131234 0.012922 0.0127012 0.0124611 0.0122017 0.0119535 0.0117467 0.0115814 0.0114576 0.0113753 0.0113345 0.0113352 0.0113774 0.0114798 0.0116611 0.0119213 0.0122604 0.0126784 0.0131753 0.0137511 0.0144058 0.0151279 0.015906 0.0167402 0.0176303 0.0185764 0.0195785 0.0206366 0.0217507 0.0228827 0.0239943 0.0250855 0.0261564 0.027207 0.0282372 0.0292471 0.0302366 0.0311656 0.0319938 0.0327213 0.033348 0.0338739 0.0342991 0.0346235 0.0348472 0.0349553 0.0349334 0.0347812 0.0344989 0.0340864 0.0335437 0.0328709 0.0320679 0.0311564 0.0301579 0.0290725 0.0279002 0.0266409 0.0252948 0.0238617 0.0223417 0.0207847 0.0192408 0.0177098 0.0161918 0.0146868 0.0131949 0.0117159 0.0102499 0.00884717 0.00755794 0.0063822 0.00531997 0.00437123 0.00353598 0.00281424 0.00220599 0.00168896 0.00124087 0.000861716 0.000551498 0.000310218 0.000137875 3.44686e-05 0 0 1.50705e-05 6.02821e-05 0.000135635 0.000241128 0.000376763 0.000542539 0.000738456 0.000964513 0.0012393 0.00158142 0.00199086 0.00246762 0.00301171 0.00362312 0.00430186 0.00504792 0.00583324 0.00662972 0.00743739 0.00825623 0.00908624 0.00992743 0.0107798 0.0116433 0.0124849 0.0132712 0.0140023 0.0146782 0.0152989 0.0158643 0.0163746 0.0168296 0.017221 0.0175403 0.0177874 0.0179624 0.0180652 0.0180959 0.0180545 0.017941 0.0177788 0.0175913 0.0173787 0.0171408 0.0168777 0.0165893 0.0162758 0.015937 0.0156127 0.0153426 0.0151267 0.014965 0.0148575 0.0148042 0.0148052 0.0148603 0.014994 0.0152308 0.0155707 0.0160136 0.0165595 0.0172085 0.0179606 0.0188157 0.0197589 0.0207752 0.0218647 0.0230273 0.0242631 0.0255719 0.026954 0.0284091 0.0298876 0.0313395 0.0327648 0.0341635 0.0355357 0.0368813 0.0382003 0.0394928 0.0407061 0.0417879 0.042738 0.0435566 0.0442435 0.0447988 0.0452225 0.0455147 0.045656 0.0456272 0.0454285 0.0450598 0.044521 0.0438122 0.0429334 0.0418846 0.040694 0.0393899 0.0379722 0.0364411 0.0347963 0.0330381 0.0311663 0.029181 0.0271474 0.0251308 0.0231311 0.0211485 0.0191828 0.0172341 0.0153024 0.0133876 0.0115555 0.00987159 0.00833594 0.00694853 0.00570936 0.00461843 0.00367574 0.0028813 0.00220599 0.00162073 0.00112551 0.000720324 0.000405182 0.000180081 4.50203e-05 0 0 1.9561e-05 7.82438e-05 0.000176049 0.000312975 0.000489024 0.000704194 0.000958487 0.0012519 0.00160766 0.00204899 0.00257588 0.00318834 0.00388638 0.00466997 0.00553914 0.00649387 0.00749835 0.00851674 0.00954904 0.0105953 0.0116554 0.0127294 0.0138174 0.0149192 0.015993 0.0169965 0.0179299 0.0187931 0.0195861 0.0203089 0.0209615 0.021544 0.0220455 0.0224555 0.0227737 0.0230004 0.0231354 0.0231787 0.0231304 0.0229905 0.0227886 0.0225545 0.0222881 0.0219894 0.0216584 0.0212952 0.0208997 0.0204719 0.0200622 0.0197207 0.0194475 0.0192426 0.019106 0.0190376 0.0190376 0.0191058 0.0192733 0.019571 0.0199988 0.0205568 0.021245 0.0220633 0.0230119 0.0240906 0.0252806 0.0265631 0.0279381 0.0294055 0.0309654 0.0326177 0.0343625 0.0361997 0.0380664 0.0398995 0.041699 0.043465 0.0451973 0.0468961 0.0485613 0.0501929 0.0517245 0.0530897 0.0542884 0.0553207 0.0561865 0.056886 0.0574189 0.0577855 0.0579613 0.0579219 0.0576675 0.057198 0.0565133 0.0556135 0.0544987 0.0531687 0.0516593 0.0500061 0.0482091 0.0462683 0.0441837 0.0419554 0.0395833 0.0370673 0.03449 0.0319338 0.0293986 0.0268845 0.0243914 0.0219194 0.0194684 0.0170385 0.0147128 0.0125746 0.0106237 0.00886024 0.00728418 0.00589554 0.00469431 0.00368048 0.00281787 0.00207027 0.00143769 0.000920121 0.000517568 0.00023003 5.75076e-05 0 0 2.5497e-05 0.000101988 0.000229473 0.000407952 0.000637425 0.000917892 0.00124935 0.00163181 0.00209308 0.00266098 0.00333552 0.0041167 0.00500451 0.00599896 0.00710005 0.00830777 0.00957707 0.0108629 0.0121653 0.0134842 0.0148197 0.0161716 0.0175402 0.0189252 0.0202748 0.0215369 0.0227115 0.0237986 0.0247983 0.0257104 0.0265351 0.0272722 0.0279086 0.0284309 0.0288391 0.0291332 0.0293132 0.0293791 0.0293309 0.0291686 0.0289288 0.0286483 0.028327 0.0279649 0.0275619 0.0271182 0.0266337 0.0261084 0.0256043 0.0251838 0.0248466 0.0245929 0.0244226 0.0243358 0.0243323 0.0244124 0.0246141 0.0249759 0.0254977 0.0261796 0.0270215 0.0280235 0.0291855 0.0305075 0.0319665 0.0335393 0.035226 0.0370265 0.0389409 0.0409691 0.0431111 0.045367 0.0476591 0.04991 0.0521194 0.0542876 0.0564144 0.0585 0.0605441 0.062547 0.0644266 0.0661011 0.0675705 0.0688348 0.0698939 0.070748 0.0713969 0.0718407 0.0720492 0.0719924 0.0716702 0.0710827 0.0702297 0.0691114 0.0677278 0.0660787 0.0642081 0.0621597 0.0599335 0.0575296 0.0549478 0.0521883 0.049251 0.0461359 0.0429443 0.0397775 0.0366355 0.0335183 0.0304259 0.0273583 0.0243154 0.0212974 0.0184071 0.0157477 0.013319 0.0111211 0.00915399 0.00741767 0.00591214 0.0046374 0.00355051 0.00260854 0.00181148 0.00115935 0.000652134 0.000289837 7.24593e-05 0 0 3.28786e-05 0.000131514 0.000295908 0.000526058 0.000821966 0.00118363 0.00161105 0.00210423 0.00269555 0.0034174 0.00426978 0.00525269 0.00636612 0.00761009 0.00898458 0.0104896 0.0120694 0.0136683 0.0152862 0.0169231 0.0185791 0.0202541 0.0219482 0.0236613 0.0253304 0.0268924 0.0283472 0.0296949 0.0309355 0.0320689 0.0330952 0.0340143 0.0348102 0.0354665 0.0359834 0.0363607 0.0365986 0.036697 0.0366558 0.0364752 0.0361994 0.0358728 0.0354954 0.0350672 0.0345881 0.0340583 0.0334777 0.0328462 0.0322392 0.0317318 0.031324 0.0310159 0.0308074 0.0306986 0.0306894 0.0307798 0.0310164 0.0314456 0.0320675 0.032882 0.0338891 0.0350889 0.0364813 0.0380664 0.0398164 0.0417037 0.0437283 0.0458902 0.0481895 0.050626 0.0531998 0.0559109 0.0586657 0.0613708 0.064026 0.0666314 0.069187 0.0716928 0.0741488 0.076555 0.0788124 0.0808222 0.0825844 0.0840989 0.0853657 0.0863848 0.0871564 0.0876802 0.0879198 0.0878386 0.0874367 0.0867139 0.0856703 0.0843059 0.0826207 0.0806146 0.0783405 0.0758508 0.0731456 0.0702248 0.0670886 0.0637368 0.0601695 0.0563867 0.0525102 0.0486619 0.0448418 0.0410499 0.0372862 0.0335507 0.0298434 0.0261642 0.0226384 0.0193909 0.0164218 0.0137311 0.0113188 0.00918481 0.00732924 0.00575204 0.0044039 0.00323552 0.00224689 0.00143801 0.00080888 0.000359502 8.98756e-05 0 0 4.17059e-05 0.000166823 0.000375353 0.000667294 0.00104265 0.00150141 0.00204359 0.00266918 0.00341509 0.00431825 0.00537866 0.00659631 0.00797121 0.00950335 0.0111927 0.0130394 0.0149753 0.0169328 0.0189116 0.0209119 0.0229337 0.0249769 0.0270415 0.0291276 0.0311598 0.0330629 0.0348369 0.0364819 0.0379976 0.0393843 0.0406419 0.0417703 0.0427503 0.0435624 0.0442067 0.0446831 0.0449917 0.0451324 0.0451053 0.0449103 0.0446003 0.0442279 0.0437933 0.0432963 0.0427371 0.0421155 0.0414317 0.0406855 0.0399667 0.0393648 0.0388798 0.0385116 0.0382604 0.0381262 0.0381088 0.0382083 0.0384803 0.0389802 0.0397081 0.040664 0.0418478 0.0432597 0.0448995 0.0467672 0.0488304 0.0510564 0.0534452 0.0559968 0.0587112 0.0615884 0.0646285 0.0678314 0.0710862 0.0742819 0.0774187 0.0804964 0.083515 0.0864747 0.0893753 0.0922169 0.094882 0.097253 0.09933 0.101113 0.102602 0.103797 0.104697 0.105304 0.105573 0.105461 0.104967 0.104092 0.102835 0.101197 0.0991774 0.0967765 0.0940564 0.0910793 0.0878452 0.0843541 0.080606 0.0766009 0.0723388 0.0678197 0.0631877 0.058587 0.0540175 0.0494793 0.0449724 0.0404967 0.0360522 0.0316391 0.0274066 0.0235043 0.0199322 0.0166903 0.0137785 0.011197 0.00894559 0.0070244 0.00537806 0.00395123 0.00274391 0.0017561 0.000987806 0.000439025 0.000109756 0 0 5.19787e-05 0.000207915 0.000467808 0.000831659 0.00129947 0.00187123 0.00254696 0.00332664 0.00425169 0.00536353 0.00666215 0.00814757 0.00981976 0.0116788 0.0137245 0.0159571 0.0182949 0.0206564 0.0230417 0.0254507 0.0278834 0.0303398 0.03282 0.0353239 0.0377629 0.0400485 0.0421807 0.0441595 0.0459848 0.0476567 0.0491752 0.0505402 0.051729 0.0527186 0.053509 0.0541003 0.0544925 0.0546855 0.0546793 0.054474 0.0541315 0.0537137 0.0532206 0.0526523 0.0520087 0.0512898 0.0504957 0.0496263 0.0487869 0.0480827 0.0475138 0.0470801 0.0467816 0.0466184 0.0465904 0.0466977 0.0470056 0.0475796 0.0484196 0.0495256 0.0508976 0.0525357 0.0544399 0.05661 0.0590084 0.0615972 0.0643764 0.0673461 0.0705061 0.0738565 0.0773973 0.0811286 0.0849205 0.0886435 0.0922975 0.0958825 0.0993985 0.102846 0.106224 0.109533 0.112635 0.115393 0.117807 0.119877 0.121602 0.122983 0.12402 0.124712 0.125009 0.124858 0.124261 0.123216 0.121724 0.119784 0.117398 0.114564 0.111356 0.107845 0.104032 0.0999173 0.0955 0.0907805 0.0857588 0.0804349 0.0749768 0.0695528 0.0641627 0.0588065 0.0534844 0.0481962 0.0429421 0.0377218 0.0327117 0.0280878 0.0238501 0.0199986 0.0165333 0.0134541 0.0107612 0.00845449 0.00647297 0.00475565 0.00330254 0.00211362 0.00118891 0.000528406 0.000132101 0 0 6.36972e-05 0.000254789 0.000573274 0.00101915 0.00159243 0.0022931 0.00312116 0.00407662 0.00520535 0.00655323 0.00812027 0.00990645 0.0119118 0.0141363 0.0165799 0.0192427 0.0220281 0.0248393 0.0276764 0.0305394 0.0334283 0.0363431 0.0392838 0.0422503 0.0451398 0.0478492 0.0503786 0.0527278 0.054897 0.0568861 0.0586951 0.060324 0.0617462 0.0629349 0.0638903 0.0646123 0.0651009 0.065356 0.0653778 0.0651662 0.064793 0.0643301 0.0637775 0.0631351 0.0624031 0.0615813 0.0606697 0.0596685 0.0586997 0.0578856 0.0572261 0.0567212 0.056371 0.0561754 0.0561344 0.0562481 0.0565925 0.0572438 0.0582018 0.0594668 0.0610385 0.0629171 0.0651026 0.0675948 0.0703506 0.0733264 0.0765222 0.0799381 0.0835741 0.0874301 0.0915062 0.0958024 0.100169 0.104455 0.108662 0.11279 0.116837 0.120806 0.124694 0.128503 0.132072 0.135244 0.138016 0.140391 0.142367 0.143945 0.145124 0.145905 0.146228 0.146032 0.145318 0.144087 0.142337 0.140069 0.137282 0.133978 0.130239 0.126149 0.121707 0.116915 0.111771 0.106276 0.10043 0.0942323 0.0878776 0.0815592 0.0752772 0.0690315 0.0628223 0.0566494 0.0505128 0.0444126 0.0385538 0.0331415 0.0281755 0.023656 0.019583 0.0159563 0.0127761 0.0100423 0.00768864 0.0056488 0.00392278 0.00251058 0.0014122 0.000627644 0.000156911 0 0 7.68612e-05 0.000307445 0.000691751 0.00122978 0.00192153 0.002767 0.0037662 0.00491912 0.00627607 0.00788736 0.009753 0.011873 0.0142473 0.016876 0.019759 0.0228963 0.0261748 0.0294813 0.0328157 0.036178 0.0395683 0.0429866 0.0464327 0.0499069 0.0532905 0.056465 0.0594304 0.0621868 0.0647341 0.0670724 0.0692015 0.0711216 0.0728019 0.0742115 0.0753506 0.0762191 0.0768169 0.0771442 0.0772009 0.076987 0.0765849 0.0760772 0.0754638 0.0747448 0.0739201 0.0729898 0.0719538 0.0708122 0.0697052 0.0687734 0.0680167 0.067435 0.0670285 0.0667971 0.0667407 0.0668594 0.0672409 0.0679728 0.069055 0.0704876 0.0722705 0.0744039 0.0768876 0.0797216 0.0828568 0.0862437 0.0898824 0.0937729 0.0979152 0.102309 0.106955 0.111853 0.116831 0.121718 0.126514 0.131218 0.135832 0.140354 0.144786 0.149126 0.153193 0.156803 0.159957 0.162655 0.164896 0.166681 0.16801 0.168882 0.169229 0.168981 0.16814 0.166704 0.164674 0.162049 0.15883 0.155017 0.150705 0.145989 0.14087 0.135346 0.129418 0.123087 0.116351 0.109212 0.10189 0.0946063 0.0873611 0.0801543 0.072986 0.065856 0.0587645 0.0517114 0.0449329 0.0386653 0.0329085 0.0276627 0.0229277 0.0187035 0.0149902 0.0117879 0.00902507 0.00663067 0.00460463 0.00294696 0.00165767 0.000736741 0.000184185 0 0 9.14708e-05 0.000365883 0.000823238 0.00146353 0.00228677 0.00329295 0.00448207 0.00585413 0.00746385 0.00936592 0.0115603 0.0140471 0.0168263 0.0198978 0.0232616 0.0269179 0.0307352 0.0345824 0.0384596 0.0423666 0.0463035 0.0502703 0.054267 0.0582936 0.0622149 0.0658958 0.0693364 0.0725365 0.0754963 0.0782156 0.0806946 0.0829331 0.0848961 0.0865484 0.0878899 0.0889207 0.0896407 0.0900499 0.0901485 0.0899362 0.0895071 0.0889549 0.0882797 0.0874813 0.0865599 0.0855154 0.0843479 0.0830573 0.0818034 0.0807462 0.0798856 0.0792216 0.0787542 0.0784834 0.0784093 0.0785318 0.0789508 0.0797666 0.0809789 0.082588 0.0845936 0.0869959 0.0897948 0.0929904 0.0965271 0.100349 0.104457 0.108851 0.11353 0.118494 0.123744 0.12928 0.134907 0.14043 0.145851 0.151168 0.156382 0.161492 0.1665 0.171404 0.175997 0.180073 0.18363 0.186669 0.18919 0.191192 0.192677 0.193643 0.194013 0.193706 0.192725 0.191068 0.188735 0.185726 0.182042 0.177683 0.172755 0.167368 0.161519 0.155211 0.148442 0.141213 0.133524 0.125374 0.117014 0.108694 0.100414 0.0921749 0.0839755 0.0758163 0.0676971 0.0596181 0.0518489 0.0446592 0.0380491 0.0320184 0.0265673 0.0216957 0.0174037 0.0136911 0.0104823 0.00770126 0.00534809 0.00342278 0.00192531 0.000855695 0.000213924 0 0 0.000107484 0.000429938 0.00096736 0.00171975 0.00268711 0.00386944 0.00526674 0.006879 0.00876519 0.0109843 0.0135362 0.016421 0.0196387 0.0231893 0.0270728 0.0312891 0.0356877 0.0401178 0.0445795 0.0490727 0.0535975 0.0581538 0.0627417 0.0673612 0.0718595 0.0760842 0.0800351 0.0837123 0.0871158 0.0902455 0.0931016 0.0956839 0.0979527 0.099868 0.10143 0.102638 0.103494 0.103995 0.104144 0.103938 0.103485 0.10289 0.102153 0.101274 0.100252 0.0990886 0.0977827 0.0963348 0.0949248 0.0937329 0.0927591 0.0920034 0.0914659 0.0911464 0.0910451 0.0911619 0.0916098 0.0925019 0.0938382 0.0956186 0.0978431 0.100512 0.103625 0.107182 0.111121 0.115381 0.119962 0.124863 0.130085 0.135627 0.14149 0.147674 0.15396 0.160131 0.166186 0.172126 0.177951 0.18366 0.189253 0.194732 0.199861 0.204409 0.208376 0.211761 0.214564 0.216786 0.218426 0.219484 0.219872 0.219501 0.21837 0.216479 0.21383 0.210421 0.206252 0.201324 0.195757 0.189671 0.183066 0.175943 0.1683 0.160138 0.151458 0.142258 0.13282 0.123423 0.114067 0.104753 0.0954799 0.0862481 0.0770575 0.0679082 0.0591049 0.0509521 0.0434498 0.0365981 0.0303969 0.0248463 0.0199463 0.0156968 0.0120179 0.00882946 0.00613157 0.0039242 0.00220737 0.000981051 0.000245263 0 0 0.00012486 0.000499441 0.00112374 0.00199776 0.0031215 0.00449497 0.00611815 0.00799105 0.0101766 0.0127378 0.0156745 0.0189868 0.0226747 0.0267382 0.0311773 0.035992 0.0410109 0.0460625 0.0511469 0.0562641 0.061414 0.0665968 0.0718123 0.0770605 0.0821708 0.0869724 0.0914653 0.0956495 0.099525 0.103092 0.10635 0.109299 0.111895 0.114093 0.115893 0.117294 0.118297 0.118902 0.119109 0.118918 0.118446 0.117811 0.117013 0.116051 0.114927 0.11364 0.112189 0.110576 0.109 0.107662 0.106563 0.105703 0.105081 0.104698 0.104553 0.104647 0.105105 0.106056 0.107497 0.10943 0.111854 0.11477 0.118177 0.122076 0.126399 0.131077 0.136112 0.141502 0.147249 0.153352 0.15981 0.166625 0.173554 0.180357 0.187032 0.193581 0.200002 0.206297 0.212465 0.218506 0.224161 0.229171 0.233537 0.237259 0.240336 0.242769 0.244557 0.245701 0.2461 0.245657 0.244371 0.242241 0.239268 0.235452 0.230793 0.225291 0.219079 0.212288 0.204919 0.196973 0.188448 0.179345 0.169665 0.159406 0.148879 0.138394 0.12795 0.117548 0.107188 0.0968695 0.0865926 0.0763573 0.0665038 0.0573726 0.0489634 0.0412764 0.0343115 0.0280688 0.0225481 0.0177497 0.0135896 0.00998418 0.00693346 0.00443741 0.00249605 0.00110935 0.000277338 0 0 0.000143598 0.000574393 0.00129238 0.00229757 0.00358995 0.00516953 0.00703631 0.00919028 0.0116981 0.0146264 0.0179752 0.0217445 0.0259342 0.0305445 0.0355752 0.0410264 0.0467047 0.0524164 0.0581618 0.0639407 0.0697531 0.0755991 0.0814786 0.0873917 0.0931489 0.0985607 0.103627 0.108348 0.112724 0.116755 0.12044 0.123779 0.126724 0.129223 0.131278 0.132887 0.134052 0.134771 0.135045 0.134874 0.134388 0.133716 0.132858 0.131814 0.130584 0.129169 0.127567 0.12578 0.124028 0.122535 0.121299 0.120321 0.1196 0.119138 0.118933 0.118986 0.119438 0.120427 0.121956 0.124022 0.126627 0.129771 0.133453 0.137674 0.14236 0.147437 0.152907 0.158768 0.165022 0.171667 0.178704 0.186133 0.19369 0.201108 0.208389 0.215532 0.222537 0.229404 0.236134 0.242726 0.248895 0.254358 0.259114 0.263163 0.266506 0.269141 0.27107 0.272292 0.272697 0.272176 0.270727 0.268352 0.265051 0.260822 0.255666 0.249584 0.24272 0.235218 0.227078 0.218301 0.208886 0.198834 0.188144 0.176817 0.165191 0.153606 0.142063 0.130561 0.1191 0.107681 0.0963023 0.0849652 0.0740458 0.0639207 0.0545899 0.0460533 0.038311 0.031363 0.0252092 0.0198496 0.0151974 0.0111654 0.00775376 0.00496241 0.00279135 0.0012406 0.00031015 0 0 0.000163698 0.000654793 0.00147328 0.00261917 0.00409246 0.00589314 0.00802122 0.0104767 0.0133297 0.0166502 0.0204383 0.024694 0.0294172 0.034608 0.0402664 0.0463924 0.0527691 0.0591797 0.0656241 0.0721025 0.0786147 0.0851608 0.0917408 0.0983546 0.104794 0.110849 0.116521 0.121809 0.126713 0.131234 0.135371 0.139124 0.142439 0.145259 0.147586 0.149418 0.150757 0.151601 0.151952 0.151808 0.151312 0.150606 0.149689 0.148562 0.147224 0.145675 0.143916 0.141947 0.14001 0.13835 0.136965 0.135856 0.135023 0.134467 0.134186 0.134181 0.134606 0.135617 0.137214 0.139395 0.142162 0.145514 0.149452 0.153975 0.159004 0.164462 0.170348 0.176662 0.183404 0.190574 0.198172 0.206199 0.214366 0.222385 0.230256 0.237979 0.245554 0.252981 0.260261 0.267392 0.274065 0.27997 0.285106 0.289474 0.293073 0.295904 0.297966 0.299259 0.299663 0.299057 0.29744 0.294813 0.291176 0.286529 0.280871 0.274203 0.266681 0.258461 0.249544 0.239928 0.229616 0.218605 0.206896 0.19449 0.181755 0.16906 0.156406 0.143791 0.131216 0.118681 0.106187 0.0937319 0.0817308 0.0705966 0.0603293 0.0509289 0.0423955 0.034729 0.0279294 0.0219967 0.0168413 0.0123732 0.00859248 0.00549918 0.00309329 0.0013748 0.000343699 0 0 0.000185161 0.000740643 0.00166645 0.00296257 0.00462902 0.00666579 0.00907287 0.0118503 0.0150713 0.0188091 0.0230638 0.0278353 0.0331237 0.038929 0.045251 0.05209 0.0592042 0.0663522 0.073534 0.0807495 0.0879988 0.0952819 0.102599 0.109949 0.117105 0.123837 0.130145 0.13603 0.141492 0.146529 0.151143 0.155333 0.159039 0.1622 0.164816 0.166887 0.168412 0.169393 0.169829 0.169719 0.169218 0.168481 0.167506 0.166294 0.164846 0.16316 0.161237 0.159078 0.156946 0.155108 0.153562 0.152309 0.15135 0.150684 0.15031 0.15023 0.150612 0.151626 0.153272 0.155549 0.158459 0.162 0.166174 0.170979 0.176332 0.18215 0.188434 0.195182 0.202394 0.210072 0.218215 0.226822 0.235583 0.244187 0.252633 0.260922 0.269054 0.277028 0.284845 0.292505 0.299671 0.306007 0.311514 0.316191 0.320038 0.323055 0.325243 0.326601 0.326998 0.3263 0.324509 0.321624 0.317646 0.312573 0.306407 0.299148 0.290962 0.282018 0.272315 0.261854 0.250635 0.238657 0.225921 0.212427 0.198573 0.184756 0.170978 0.157238 0.143536 0.129872 0.116246 0.102658 0.0895587 0.0774001 0.0661815 0.0559031 0.0465649 0.0381668 0.0307088 0.024191 0.0185212 0.0136074 0.0094496 0.00604775 0.00340186 0.00151194 0.000377984 0 0 0.000207985 0.000831941 0.00187187 0.00332776 0.00519963 0.00748747 0.0101913 0.0133111 0.016923 0.0211032 0.0258517 0.0311686 0.0370538 0.0435072 0.050529 0.0581191 0.0660099 0.073934 0.0818913 0.0898817 0.0979054 0.105962 0.114052 0.122176 0.130083 0.137525 0.144502 0.151014 0.15706 0.162641 0.167757 0.172407 0.176526 0.180047 0.182969 0.185293 0.187019 0.188147 0.188676 0.188607 0.188106 0.18734 0.186309 0.185012 0.18345 0.181623 0.17953 0.177172 0.174836 0.172808 0.17109 0.169681 0.16858 0.167789 0.167307 0.167134 0.167454 0.168452 0.170129 0.172484 0.175517 0.179229 0.183618 0.188686 0.194344 0.200503 0.207165 0.214328 0.221994 0.230161 0.238831 0.248002 0.257341 0.266514 0.275521 0.284362 0.293036 0.301545 0.309887 0.318063 0.325712 0.332469 0.338337 0.343314 0.3474 0.350597 0.352903 0.354319 0.354701 0.353906 0.351934 0.348785 0.344459 0.338955 0.332275 0.324418 0.315562 0.305887 0.295393 0.284079 0.271945 0.258992 0.245219 0.230627 0.215643 0.200694 0.18578 0.170902 0.156059 0.141251 0.126479 0.111742 0.0975297 0.0843312 0.0721467 0.060976 0.0508192 0.0416764 0.0335474 0.0264324 0.0202373 0.0148682 0.0103251 0.00660809 0.00371705 0.00165202 0.000413006 0 0 0.000232172 0.000928688 0.00208955 0.00371475 0.0058043 0.0083582 0.0113764 0.014859 0.0188847 0.0235324 0.0288021 0.0346937 0.0412073 0.0483428 0.0561003 0.0644798 0.0731863 0.0819251 0.090696 0.0994992 0.108335 0.117202 0.126102 0.135034 0.143728 0.151913 0.15959 0.166758 0.173418 0.179569 0.185212 0.190346 0.194899 0.198799 0.202045 0.204637 0.206576 0.207862 0.208494 0.208472 0.207976 0.207185 0.206098 0.204715 0.203037 0.201063 0.198794 0.196229 0.193679 0.191452 0.189549 0.18797 0.186715 0.185783 0.185176 0.184892 0.185133 0.186097 0.187786 0.1902 0.193337 0.197199 0.201785 0.207096 0.213038 0.21952 0.226542 0.234102 0.242202 0.250842 0.260021 0.269739 0.27964 0.289367 0.298919 0.308298 0.317502 0.326531 0.335387 0.344068 0.352188 0.359356 0.365575 0.370843 0.375161 0.378528 0.380945 0.382411 0.382773 0.381874 0.379714 0.376295 0.371615 0.365675 0.358475 0.350014 0.340483 0.33007 0.318776 0.306602 0.293545 0.279608 0.26479 0.24909 0.232966 0.216873 0.200812 0.184784 0.168786 0.152821 0.136887 0.120985 