<?xml version="1.0"?> 
<VTKFile type="StructuredGrid" version="0.1"> 
<StructuredGrid WholeExtent="0 128 0 128 0 0"> 
<Piece Extent="0 128 0 128 0 0"> 
<PointData>
<DataArray type="Float32" Name="u" format="ascii" NumberOfComponents="1"> 
0 0 0 0 0 0 0 0 0 0 0 0 0 0 0 0 0 0 0 0 0 0 0 0 0 0 0 0 0 0 0 0 0 0 0 0 0 0 0 0 0 0 0 0 0 0 0 0 0 0 0 0 0 0 0 0 0 0 0 0 0 0 0 0 0 0 0 0 0 0 0 0 0 0 0 0 0 0 0 0 0 0 0 0 0 0 0 0 0 0 0 0 0 0 0 0 0 0 0 0 0 0 0 0 0 0 0 0 0 0 0 0 0 0 0 0 0 0 0 0 0 0 0 0 0 0 0 0 0 0 -2.73555e-08 -1.09422e-07 -2.46199e-07 -4.37688e-07 -6.83887e-07 -9.84797e-07 -1.34042e-06 -1.75075e-06 -1.99149e-06 -1.83835e-06 -1.29131e-06 -3.50387e-07 9.84427e-07 2.71313e-06 4.83572e-06 7.35221e-06 1.04609e-05 1.43602e-05 1.905e-05 2.45304e-05 3.08014e-05 3.78629e-05 4.5715e-05 5.43576e-05 6.29948e-05 7.08304e-05 7.78646e-05 8.40972e-05 8.95283e-05 9.41579e-05 9.7986e-05 0.000101013 0.000103478 0.000105624 0.000107449 0.000108954 0.000110139 0.000111004 0.000111548 0.000111772 0.000111638 0.000111109 0.000110185 0.000108866 0.000107151 0.00010504 0.000102535 9.96341e-05 9.63202e-05 9.25755e-05 8.84e-05 8.37936e-05 7.87565e-05 7.32885e-05 6.73898e-05 6.10602e-05 5.42729e-05 4.70011e-05 3.92446e-05 3.10036e-05 2.2278e-05 1.30679e-05 3.37312e-06 -6.80621e-06 -1.8566e-05 -3.30023e-05 -5.01151e-05 -6.99043e-05 -9.237e-05 -0.000117512 -0.000145331 -0.000175826 -0.000206129 -0.000233371 -0.000257553 -0.000278674 -0.000296734 -0.000311734 -0.000323673 -0.000332551 -0.00033944 -0.000345409 -0.00035046 -0.000354591 -0.000357803 -0.000360096 -0.000361469 -0.000361924 -0.000361462 -0.000360089 -0.000357803 -0.000354604 -0.000350493 -0.000345469 -0.000339533 -0.000332685 -0.000323821 -0.000311837 -0.000296734 -0.000278511 -0.000257169 -0.000232707 -0.000205126 -0.000174425 -0.000143689 -0.000116 -9.13576e-05 -6.97631e-05 -5.12158e-05 -3.57159e-05 -2.32633e-05 -1.38581e-05 -6.60713e-06 -6.17454e-07 4.11096e-06 7.57812e-06 9.78401e-06 1.07286e-05 1.0412e-05 8.83411e-06 6.76361e-06 4.96919e-06 3.45082e-06 2.20853e-06 1.2423e-06 5.52132e-07 1.38033e-07 0 0 -1.09422e-07 -4.37688e-07 -9.84797e-07 -1.75075e-06 -2.73555e-06 -3.93919e-06 -5.36167e-06 -7.003e-06 -7.96598e-06 -7.35339e-06 -5.16525e-06 -1.40155e-06 3.93771e-06 1.08525e-05 1.93429e-05 2.94088e-05 4.18437e-05 5.74407e-05 7.62001e-05 9.81216e-05 0.000123205 0.000151452 0.00018286 0.00021743 0.000251979 0.000283322 0.000311458 0.000336389 0.000358113 0.000376632 0.000391944 0.000404051 0.000413913 0.000422495 0.000429796 0.000435817 0.000440556 0.000444014 0.000446191 0.000447088 0.000446553 0.000444437 0.00044074 0.000435462 0.000428602 0.000420162 0.00041014 0.000398536 0.000385281 0.000370302 0.0003536 0.000335175 0.000315026 0.000293154 0.000269559 0.000244241 0.000217092 0.000188004 0.000156979 0.000124014 8.91121e-05 5.22715e-05 1.34925e-05 -2.72248e-05 -7.42642e-05 -0.000132009 -0.00020046 -0.000279617 -0.00036948 -0.000470048 -0.000581323 -0.000703303 -0.000824515 -0.000933484 -0.00103021 -0.00111469 -0.00118694 -0.00124694 -0.00129469 -0.00133021 -0.00135776 -0.00138164 -0.00140184 -0.00141836 -0.00143121 -0.00144038 -0.00144588 -0.0014477 -0.00144585 -0.00144035 -0.00143121 -0.00141842 -0.00140197 -0.00138188 -0.00135813 -0.00133074 -0.00129528 -0.00124735 -0.00118693 -0.00111404 -0.00102867 -0.000930828 -0.000820504 -0.000697702 -0.000574755 -0.000463998 -0.000365431 -0.000279052 -0.000204863 -0.000142864 -9.30533e-05 -5.54323e-05 -2.64285e-05 -2.46982e-06 1.64438e-05 3.03125e-05 3.9136e-05 4.29145e-05 4.1648e-05 3.53364e-05 2.70545e-05 1.98767e-05 1.38033e-05 8.83411e-06 4.96919e-06 2.20853e-06 5.52132e-07 0 0 -2.46199e-07 -9.84797e-07 -2.21579e-06 -3.93919e-06 -6.15498e-06 -8.86318e-06 -1.20638e-05 -1.57568e-05 -1.79234e-05 -1.65451e-05 -1.16218e-05 -3.15349e-06 8.85984e-06 2.44182e-05 4.35215e-05 6.61698e-05 9.41482e-05 0.000129242 0.00017145 0.000220774 0.000277212 0.000340766 0.000411435 0.000489218 0.000566953 0.000637474 0.000700781 0.000756875 0.000805755 0.000847421 0.000881874 0.000909114 0.000931305 0.000950615 0.000967042 0.000980587 0.000991251 0.000999032 0.00100393 0.00100595 0.00100474 0.000999984 0.000991666 0.00097979 0.000964355 0.000945364 0.000922814 0.000896707 0.000866882 0.000833179 0.0007956 0.000754143 0.000708809 0.000659597 0.000606508 0.000549542 0.000488456 0.00042301 0.000353202 0.000279033 0.000200502 0.000117611 3.03581e-05 -6.12558e-05 -0.000167094 -0.000297021 -0.000451036 -0.000629139 -0.00083133 -0.00105761 -0.00130798 -0.00158243 -0.00185516 -0.00210034 -0.00231797 -0.00250806 -0.00267061 -0.0028056 -0.00291306 -0.00299296 -0.00305496 -0.00310868 -0.00315414 -0.00319132 -0.00322023 -0.00324086 -0.00325322 -0.00325731 -0.00325316 -0.0032408 -0.00322022 -0.00319144 -0.00315444 -0.00310922 -0.0030558 -0.00299416 -0.00291439 -0.00280653 -0.0026706 -0.0025066 -0.00231452 -0.00209436 -0.00184613 -0.00156983 -0.0012932 -0.001044 -0.000822219 -0.000627867 -0.000460942 -0.000321443 -0.00020937 -0.000124723 -5.94642e-05 -5.55709e-06 3.69987e-05 6.8203e-05 8.80561e-05 9.65577e-05 9.3708e-05 7.9507e-05 6.08725e-05 4.47227e-05 3.10574e-05 1.98767e-05 1.11807e-05 4.96919e-06 1.2423e-06 0 0 -4.37688e-07 -1.75075e-06 -3.93919e-06 -7.003e-06 -1.09422e-05 -1.57568e-05 -2.14467e-05 -2.8012e-05 -3.18639e-05 -2.94136e-05 -2.0661e-05 -5.6062e-06 1.57508e-05 4.34101e-05 7.73716e-05 0.000117635 0.000167375 0.000229763 0.0003048 0.000392486 0.000492822 0.000605806 0.000731439 0.000869722 0.00100792 0.00113329 0.00124583 0.00134556 0.00143245 0.00150653 0.00156778 0.0016162 0.00165565 0.00168998 0.00171919 0.00174327 0.00176222 0.00177606 0.00178477 0.00178835 0.00178621 0.00177775 0.00176296 0.00174185 0.00171441 0.00168065 0.00164056 0.00159415 0.00154112 0.00148121 0.0014144 0.0013407 0.0012601 0.00117262 0.00107824 0.000976963 0.000868367 0.000752017 0.000627914 0.000496058 0.000356448 0.000209086 5.39699e-05 -0.000108899 -0.000297057 -0.000528037 -0.000801841 -0.00111847 -0.00147792 -0.00188019 -0.00232529 -0.00281321 -0.00329806 -0.00373393 -0.00412084 -0.00445878 -0.00474774 -0.00498774 -0.00517877 -0.00532082 -0.00543104 -0.00552655 -0.00560736 -0.00567345 -0.00572484 -0.00576153 -0.00578351 -0.00579078 -0.0057834 -0.00576142 -0.00572484 -0.00567366 -0.00560789 -0.00552751 -0.00543253 -0.00532296 -0.00518113 -0.00498939 -0.00474774 -0.00445617 -0.0041147 -0.00372331 -0.00328202 -0.00279081 -0.00229902 -0.00185599 -0.00146172 -0.00111621 -0.000819453 -0.000571454 -0.000372213 -0.000221729 -0.000105714 -9.87927e-06 6.57754e-05 0.00012125 0.000156544 0.000171658 0.000166592 0.000141346 0.000108218 7.9507e-05 5.52132e-05 3.53364e-05 1.98767e-05 8.83411e-06 2.20853e-06 0 0 -6.83887e-07 -2.73555e-06 -6.15498e-06 -1.09422e-05 -1.70972e-05 -2.46199e-05 -3.35105e-05 -4.37688e-05 -4.97873e-05 -4.59587e-05 -3.22828e-05 -8.75968e-06 2.46107e-05 6.78283e-05 0.000120893 0.000183805 0.000261523 0.000359005 0.00047625 0.00061326 0.000770034 0.000946572 0.00114287 0.00135894 0.00157487 0.00177076 0.00194661 0.00210243 0.00223821 0.00235395 0.00244965 0.00252532 0.00258696 0.0026406 0.00268623 0.00272385 0.00275347 0.00277509 0.0027887 0.0027943 0.00279096 0.00277773 0.00275463 0.00272164 0.00267877 0.00262601 0.00256337 0.00249085 0.002408 0.00231439 0.00221 0.00209484 0.00196891 0.00183221 0.00168474 0.0015265 0.00135682 0.00117503 0.000981116 0.00077509 0.000556951 0.000326697 8.43279e-05 -0.000170155 -0.000464151 -0.000825059 -0.00125288 -0.00174761 -0.00230925 -0.0029378 -0.00363327 -0.00439564 -0.00515322 -0.00583427 -0.00643881 -0.00696684 -0.00741835 -0.00779334 -0.00809182 -0.00831378 -0.008486 -0.00863524 -0.00876149 -0.00886477 -0.00894507 -0.00900239 -0.00903673 -0.00904809 -0.00903656 -0.00900222 -0.00894506 -0.0088651 -0.00876232 -0.00863673 -0.00848833 -0.00831712 -0.00809552 -0.00779592 -0.00741834 -0.00696277 -0.00642922 -0.00581768 -0.00512815 -0.00436064 -0.00359222 -0.00289999 -0.00228394 -0.00174408 -0.0012804 -0.000892897 -0.000581583 -0.000346452 -0.000165178 -1.54364e-05 0.000102774 0.000189453 0.0002446 0.000268216 0.0002603 0.000220853 0.00016909 0.00012423 8.62706e-05 5.52132e-05 3.10574e-05 1.38033e-05 3.45082e-06 0 0 -9.84797e-07 -3.93919e-06 -8.86318e-06 -1.57568e-05 -2.46199e-05 -3.54527e-05 -4.82551e-05 -6.3027e-05 -7.16938e-05 -6.61805e-05 -4.64872e-05 -1.26139e-05 3.54394e-05 9.76727e-05 0.000174086 0.000264679 0.000376593 0.000516967 0.0006858 0.000883095 0.00110885 0.00136306 0.00164574 0.00195687 0.00226781 0.0025499 0.00280312 0.0030275 0.00322302 0.00338969 0.0035275 0.00363645 0.00372522 0.00380246 0.00386817 0.00392235 0.003965 0.00399613 0.00401572 0.00402379 0.00401898 0.00399994 0.00396666 0.00391916 0.00385742 0.00378145 0.00369126 0.00358683 0.00346753 0.00333272 0.0031824 0.00301657 0.00283523 0.00263839 0.00242603 0.00219817 0.00195383 0.00169204 0.00141281 0.00111613 0.000802009 0.000470443 0.000121432 -0.000245023 -0.000668378 -0.00118808 -0.00180414 -0.00251655 -0.00332532 -0.00423043 -0.0052319 -0.00632972 -0.00742063 -0.00840135 -0.00927189 -0.0100323 -0.0106824 -0.0112224 -0.0116522 -0.0119718 -0.0122198 -0.0124347 -0.0126165 -0.0127653 -0.0128809 -0.0129634 -0.0130129 -0.0130293 -0.0130126 -0.0129632 -0.0128809 -0.0127657 -0.0126177 -0.0124369 -0.0122232 -0.0119767 -0.0116575 -0.0112261 -0.0106824 -0.0100264 -0.00925807 -0.00837745 -0.00738453 -0.00627931 -0.0051728 -0.00417598 -0.00328887 -0.00251147 -0.00184377 -0.00128577 -0.000837479 -0.000498891 -0.000237857 -2.22284e-05 0.000147995 0.000272812 0.000352224 0.000386231 0.000374832 0.000318028 0.00024349 0.000178891 0.00012423 7.9507e-05 4.47227e-05 1.98767e-05 4.96919e-06 0 0 -1.34042e-06 -5.36167e-06 -1.20638e-05 -2.14467e-05 -3.35105e-05 -4.82551e-05 -6.56805e-05 -8.57868e-05 -9.75832e-05 -9.0079e-05 -6.32743e-05 -1.7169e-05 4.82369e-05 0.000132943 0.00023695 0.000360258 0.000512585 0.000703649 0.000933451 0.00120199 0.00150927 0.00185528 0.00224003 0.00266352 0.00308674 0.00347069 0.00381536 0.00412076 0.00438689 0.00461374 0.00480132 0.00494962 0.00507044 0.00517557 0.00526501 0.00533875 0.00539681 0.00543917 0.00546585 0.00547683 0.00547028 0.00544436 0.00539907 0.00533441 0.00525038 0.00514698 0.00502421 0.00488207 0.00471969 0.0045362 0.0043316 0.00410589 0.00385907 0.00359114 0.0033021 0.00299195 0.00265937 0.00230305 0.00192299 0.00151918 0.00109162 0.000640325 0.000165283 -0.000333504 -0.000909736 -0.00161711 -0.00245564 -0.00342531 -0.00452613 -0.00575809 -0.0071212 -0.00861546 -0.0101003 -0.0114352 -0.0126201 -0.013655 -0.01454 -0.015275 -0.01586 -0.016295 -0.0166326 -0.0169251 -0.0171725 -0.0173749 -0.0175323 -0.0176447 -0.017712 -0.0177343 -0.0177117 -0.0176443 -0.0175323 -0.0173756 -0.0171742 -0.016928 -0.0166371 -0.0163016 -0.0158672 -0.01528 -0.0145399 -0.013647 -0.0126013 -0.0114026 -0.0100512 -0.00854685 -0.00704075 -0.00568398 -0.00447652 -0.00341839 -0.00250957 -0.00175008 -0.0011399 -0.000679046 -0.000323749 -3.02553e-05 0.000201437 0.000371328 0.000479416 0.000525703 0.000510188 0.000432871 0.000331417 0.00024349 0.00016909 0.000108218 6.08725e-05 2.70545e-05 6.76361e-06 0 0 -1.75075e-06 -7.003e-06 -1.57568e-05 -2.8012e-05 -4.37688e-05 -6.3027e-05 -8.57868e-05 -0.000112048 -0.000127456 -0.000117654 -8.2644e-05 -2.24248e-05 6.30033e-05 0.00017364 0.000309486 0.000470541 0.000669498 0.000919052 0.0012192 0.00156995 0.00197129 0.00242322 0.00292576 0.00347889 0.00403166 0.00453315 0.00498333 0.00538222 0.00572981 0.00602611 0.00627111 0.00646481 0.00662261 0.00675993 0.00687674 0.00697307 0.00704889 0.00710423 0.00713906 0.00715341 0.00714485 0.007111 0.00705185 0.00696739 0.00685764 0.00672259 0.00656223 0.00637658 0.00616449 0.00592483 0.0056576 0.00536279 0.00504042 0.00469047 0.00431295 0.00390785 0.00347347 0.00300807 0.00251166 0.00198423 0.00142579 0.000836343 0.00021588 -0.000435597 -0.00118823 -0.00211215 -0.00320737 -0.00447388 -0.00591168 -0.00752077 -0.00930116 -0.0112528 -0.0131922 -0.0149357 -0.0164834 -0.0178351 -0.018991 -0.019951 -0.0207151 -0.0212833 -0.0217242 -0.0221062 -0.0224294 -0.0226938 -0.0228994 -0.0230461 -0.023134 -0.0231631 -0.0231336 -0.0230457 -0.0228994 -0.0226947 -0.0224315 -0.02211 -0.0217301 -0.0212918 -0.0207245 -0.0199576 -0.0189909 -0.0178247 -0.0164588 -0.0148933 -0.0131281 -0.0111632 -0.00919608 -0.00742397 -0.00584689 -0.00446484 -0.00327781 -0.00228582 -0.00148885 -0.000886917 -0.000422856 -3.95171e-05 0.000263102 0.000484999 0.000626176 0.000686633 0.000666368 0.000565383 0.000432871 0.000318028 0.000220853 0.000141346 7.9507e-05 3.53364e-05 8.83411e-06 0 0 -2.00217e-06 -8.0087e-06 -1.80196e-05 -3.20348e-05 -5.00544e-05 -7.20783e-05 -9.81065e-05 -0.000128139 -0.000145415 -0.000133174 -9.14162e-05 -2.01408e-05 8.06518e-05 0.000210962 0.000370788 0.000560133 0.000793646 0.00108598 0.00143714 0.00184711 0.00231591 0.00284353 0.00342998 0.00407524 0.00472012 0.00530543 0.00583116 0.00629731 0.00670389 0.00705089 0.00733831 0.00756615 0.00775208 0.00791377 0.00805122 0.00816442 0.00825338 0.0083181 0.00835857 0.00837481 0.00836417 0.00832405 0.00825443 0.00815533 0.00802673 0.00786864 0.00768106 0.00746399 0.00721618 0.00693638 0.00662458 0.00628079 0.00590501 0.00549724 0.00505747 0.00458571 0.00407798 0.0035303 0.00294268 0.00231511 0.0016476 0.00094014 0.000192736 -0.000594613 -0.00150103 -0.00260565 -0.00390847 -0.00540949 -0.00710871 -0.00900612 -0.0111017 -0.0133955 -0.015675 -0.0177274 -0.0195529 -0.0211514 -0.022523 -0.0236676 -0.0245852 -0.0252758 -0.0258169 -0.0262858 -0.0266824 -0.0270069 -0.0272592 -0.0274394 -0.0275473 -0.027583 -0.0275468 -0.0274389 -0.0272592 -0.0270078 -0.0266847 -0.0262899 -0.0258234 -0.0252851 -0.0245954 -0.0236744 -0.0225222 -0.0211387 -0.019524 -0.0176781 -0.0156009 -0.0132925 -0.0109815 -0.00889641 -0.00703733 -0.00540422 -0.00399709 -0.00281593 -0.00186076 -0.00113156 -0.000564285 -9.4865e-05 0.000276697 0.000550401 0.000726246 0.000804233 0.000784363 0.000666633 0.000510391 0.000374981 0.000260404 0.000166658 9.37453e-05 4.16646e-05 1.04161e-05 0 0 -1.88107e-06 -7.52428e-06 -1.69296e-05 -3.00971e-05 -4.70267e-05 -6.77185e-05 -9.21724e-05 -0.000120388 -0.000135567 -0.000120908 -7.64107e-05 -2.07639e-06 0.000102096 0.000236105 0.000399952 0.000593637 0.00083134 0.00112724 0.00148135 0.00189365 0.00236415 0.00289285 0.00347975 0.00412486 0.00476967 0.00535571 0.00588299 0.00635149 0.00676121 0.00711217 0.00740435 0.00763776 0.00782917 0.00799533 0.00813626 0.00825195 0.00834239 0.0084076 0.00844757 0.0084623 0.0084497 0.00840769 0.00833627 0.00823543 0.00810518 0.00794551 0.00775644 0.00753795 0.00728902 0.00700861 0.00669674 0.0063534 0.00597859 0.00557231 0.00513456 0.00466534 0.00415477 0.00359296 0.00297991 0.00231563 0.00160011 0.000833357 1.53654e-05 -0.000853862 -0.00184534 -0.00303009 -0.00440811 -0.0059794 -0.00774396 -0.00970178 -0.0118529 -0.0141972 -0.0165271 -0.0186347 -0.0205199 -0.0221829 -0.0236236 -0.0248419 -0.025838 -0.0266118 -0.027233 -0.0277713 -0.0282268 -0.0285994 -0.0288892 -0.029096 -0.02922 -0.0292612 -0.0292196 -0.0290956 -0.028889 -0.0286 -0.0282285 -0.0277745 -0.027238 -0.026619 -0.0258457 -0.0248462 -0.0236204 -0.0221685 -0.0204904 -0.018586 -0.0164555 -0.0140988 -0.0117396 -0.00960175 -0.0076852 -0.00598995 -0.00451601 -0.00326338 -0.00223206 -0.00142205 -0.000777143 -0.00024115 0.000185932 0.000504105 0.000713367 0.00081372 0.000805162 0.000687693 0.000526515 0.000386828 0.00026863 0.000171923 9.67069e-05 4.29808e-05 1.07452e-05 0 0 -1.38744e-06 -5.54974e-06 -1.24869e-05 -2.2199e-05 -3.46859e-05 -4.99477e-05 -6.79843e-05 -8.87959e-05 -9.79098e-05 -8.08538e-05 -3.76277e-05 3.17684e-05 0.000127335 0.000249071 0.000396977 0.000571053 0.00078258 0.00104284 0.00135183 0.00170955 0.002116 0.00257118 0.00307509 0.00362774 0.0041803 0.00468399 0.0051388 0.00554473 0.00590178 0.00620995 0.00646924 0.00667965 0.00685388 0.00700462 0.00713188 0.00723565 0.00731594 0.00737274 0.00740606 0.00741589 0.00740144 0.00736193 0.00729735 0.0072077 0.00709299 0.00695321 0.00678836 0.00659844 0.00638299 0.00614153 0.00587408 0.00558062 0.00526116 0.00491569 0.00454423 0.00414676 0.00370384 0.00319605 0.00262336 0.00198579 0.00128334 0.000515995 -0.000316232 -0.00121334 -0.00222115 -0.00338546 -0.00470628 -0.0061836 -0.00781742 -0.00960775 -0.0115546 -0.0136579 -0.0157486 -0.0176574 -0.0193843 -0.0209294 -0.0222927 -0.023474 -0.0244735 -0.0252912 -0.0259725 -0.026563 -0.0270625 -0.0274713 -0.0277891 -0.0280161 -0.0281522 -0.0281975 -0.028152 -0.0280158 -0.0277889 -0.0274712 -0.0270629 -0.0265638 -0.025974 -0.0252936 -0.0244755 -0.0234728 -0.0222857 -0.020914 -0.0193578 -0.0176171 -0.0156918 -0.013582 -0.0114705 -0.00953999 -0.0077905 -0.00622203 -0.00483458 -0.00362815 -0.00260275 -0.00175837 -0.00106143 -0.000478373 -9.1919e-06 0.000346112 0.00058754 0.000715091 0.000728765 0.000628563 0.000481244 0.000353567 0.000245532 0.000157141 8.83917e-05 3.92852e-05 9.8213e-06 0 0 -5.21273e-07 -2.08509e-06 -4.69146e-06 -8.34037e-06 -1.30318e-05 -1.87658e-05 -2.55424e-05 -3.33615e-05 -3.24446e-05 -1.30131e-05 2.4933e-05 8.13936e-05 0.000156369 0.000249859 0.000361863 0.000492382 0.000647366 0.000832765 0.00104858 0.00129481 0.00157145 0.00187851 0.00221599 0.00258388 0.00295203 0.00329027 0.00359862 0.00387706 0.0041256 0.00434424 0.00453298 0.00469182 0.00482621 0.00494163 0.00503807 0.00511553 0.00517401 0.00521351 0.00523403 0.00523557 0.00521939 0.00518677 0.00513768 0.00507215 0.00499016 0.00489172 0.00477682 0.00464547 0.0044981 0.00433514 0.00415658 0.00396244 0.0037527 0.00352738 0.00328646 0.00302995 0.0027252 0.00233956 0.00187302 0.00132559 0.000697271 -1.1946e-05 -0.000802057 -0.00167306 -0.00262846 -0.00367177 -0.00480298 -0.0060221 -0.00732911 -0.00872404 -0.0102069 -0.0117776 -0.0133394 -0.0147956 -0.0161462 -0.0173911 -0.0185303 -0.0195639 -0.0204918 -0.0213141 -0.0220354 -0.0226606 -0.0231896 -0.0236224 -0.0239591 -0.0241996 -0.024344 -0.0243921 -0.024344 -0.0241996 -0.0239587 -0.0236215 -0.0231878 -0.0226579 -0.0220315 -0.0213087 -0.0204847 -0.0195544 -0.0185179 -0.0173752 -0.0161263 -0.0147712 -0.0133098 -0.0117423 -0.0101741 -0.00871112 -0.00735323 -0.00610046 -0.0049528 -0.00391025 -0.00297283 -0.00214052 -0.00141715 -0.000806533 -0.000308676 7.64229e-05 0.000348764 0.000508348 0.000555174 0.000489242 0.000374576 0.000275199 0.00019111 0.000122311 6.87997e-05 3.05776e-05 7.64441e-06 0 0 7.17418e-07 2.86967e-06 6.45676e-06 1.14787e-05 1.79354e-05 2.5827e-05 3.51535e-05 4.59147e-05 6.0829e-05 8.26145e-05 0.000111271 0.000146799 0.000189198 0.000238469 0.00029461 0.000357623 0.000425698 0.000497025 0.000571604 0.000649435 0.000730519 0.000814855 0.000902444 0.000993285 0.00108483 0.00117455 0.00126242 0.00134846 0.00143266 0.00151503 0.00159556 0.00167426 0.00174617 0.00180636 0.00185483 0.00189158 0.00191661 0.00192991 0.00193149 0.00192135 0.00190356 0.0018822 0.00185726 0.00182876 0.00179669 0.00176104 0.00172183 0.00167904 0.00163435 0.00158942 0.00154426 0.00149887 0.00145324 0.00140737 0.00136127 0.00131493 0.00121885 0.00102351 0.000728902 0.000335039 -0.000158084 -0.000750466 -0.00144211 -0.00223301 -0.00306728 -0.00388901 -0.00469821 -0.00549488 -0.00627902 -0.00705063 -0.0078097 -0.00855625 -0.00929968 -0.0100494 -0.0108055 -0.0115678 -0.0123365 -0.0131115 -0.0138927 -0.0146803 -0.0154217 -0.0160642 -0.016608 -0.017053 -0.0173992 -0.0176466 -0.0177952 -0.017845 -0.0177957 -0.0176468 -0.0173985 -0.0170507 -0.0166034 -0.0160566 -0.0154103 -0.0146645 -0.0138734 -0.0130909 -0.0123172 -0.0115522 -0.0107959 -0.0100484 -0.00930956 -0.00857945 -0.00785051 -0.00711516 -0.0063734 -0.00562523 -0.00487066 -0.00410968 -0.0033423 -0.00256851 -0.00184429 -0.00122563 -0.00071252 -0.000304964 -2.96028e-06 0.00019349 0.000284387 0.000269731 0.000206513 0.000151724 0.000105364 6.74327e-05 3.79309e-05 1.68582e-05 4.21455e-06 0 0 2.32864e-06 9.31455e-06 2.09577e-05 3.72582e-05 5.82159e-05 8.38309e-05 0.000114103 0.000149033 0.000181911 0.000206029 0.000221387 0.000227985 0.000225823 0.000214901 0.000195219 0.000166777 0.000117576 3.56174e-05 -7.90989e-05 -0.000226573 -0.000406805 -0.000619794 -0.000865541 -0.00114405 -0.00142127 -0.00166318 -0.00186978 -0.00204106 -0.00217702 -0.00227767 -0.00234301 -0.00237303 -0.00238625 -0.00240118 -0.00241783 -0.00243619 -0.00245627 -0.00247806 -0.00250156 -0.00252678 -0.00254607 -0.00255178 -0.0025439 -0.00252245 -0.00248742 -0.00243881 -0.00237662 -0.00230085 -0.00220826 -0.00209561 -0.00196288 -0.0018101 -0.00163725 -0.00144433 -0.00123135 -0.000998309 -0.000815224 -0.000752123 -0.000809007 -0.000985875 -0.00128273 -0.00169957 -0.00223639 -0.00289319 -0.00353759 -0.00403718 -0.00439198 -0.00460196 -0.00466715 -0.00458753 -0.00436312 -0.00399389 -0.00362929 -0.00341872 -0.00336218 -0.00345968 -0.00371122 -0.00411679 -0.0046764 -0.00539004 -0.00613133 -0.0067739 -0.00731774 -0.00776286 -0.00810925 -0.00835691 -0.00850585 -0.00855606 -0.00850687 -0.00835763 -0.00810834 -0.00775898 -0.00730957 -0.0067601 -0.00611057 -0.00536098 -0.00464152 -0.00408235 -0.00368348 -0.00344492 -0.00336665 -0.00344867 -0.003691 -0.00409363 -0.00449963 -0.00475208 -0.00485099 -0.00479636 -0.00458817 -0.00422644 -0.00371116 -0.00304234 -0.00234287 -0.00173566 -0.00122072 -0.000798047 -0.000467633 -0.000229483 -8.35951e-05 -2.99708e-05 -2.29464e-05 -1.68586e-05 -1.17073e-05 -7.49269e-06 -4.21464e-06 -1.87317e-06 -4.68293e-07 0 0 4.31238e-06 1.72495e-05 3.88115e-05 6.89982e-05 0.00010781 0.000155246 0.000211307 0.000275993 0.000330801 0.000357231 0.000355281 0.000324952 0.000266243 0.000179156 6.36892e-05 -8.01567e-05 -0.000277 -0.000551457 -0.00090353 -0.00133322 -0.00184052 -0.00242544 -0.00308797 -0.00382811 -0.00456629 -0.00522291 -0.00579798 -0.0062915 -0.00670347 -0.00703388 -0.00728273 -0.00745004 -0.00757104 -0.007681 -0.00777992 -0.00786779 -0.00794461 -0.00801039 -0.00806513 -0.00810882 -0.00812948 -0.00811515 -0.00806582 -0.0079815 -0.00786217 -0.00770785 -0.00751853 -0.00729421 -0.00702973 -0.00671995 -0.00636486 -0.00596446 -0.00551875 -0.00502773 -0.0044914 -0.00390977 -0.00337701 -0.00298732 -0.0027407 -0.00263715 -0.00267666 -0.00285924 -0.00318489 -0.00365361 -0.0040394 -0.00411629 -0.00388427 -0.00334334 -0.0024935 -0.00133475 0.000132907 0.00190947 0.00367173 0.00509646 0.00618367 0.00693335 0.00734551 0.00742014 0.00715724 0.00655682 0.00583562 0.00521041 0.00468116 0.0042479 0.00391062 0.00366931 0.00352398 0.00347463 0.0035223 0.00366804 0.00391185 0.00425373 0.00469368 0.0052317 0.00586779 0.00660194 0.00721088 0.00747131 0.00738324 0.00694665 0.00616156 0.00502795 0.00354584 0.00171522 -0.000121496 -0.00162191 -0.00278602 -0.00361383 -0.00410533 -0.00426052 -0.00407941 -0.003562 -0.00291287 -0.00233664 -0.00183329 -0.00140283 -0.00104525 -0.00076057 -0.000548772 -0.000409863 -0.000313801 -0.000230548 -0.000160103 -0.000102466 -5.7637e-05 -2.56164e-05 -6.40411e-06 0 0 6.66866e-06 2.66746e-05 6.0018e-05 0.000106699 0.000166717 0.000240072 0.000326764 0.000426794 0.0005075 0.000536219 0.000512952 0.000437698 0.000310459 0.000131233 -9.99795e-05 -0.000383178 -0.000758029 -0.0012642 -0.00190169 -0.0026705 -0.00357062 -0.00460207 -0.00576483 -0.00705892 -0.00835022 -0.00950465 -0.0105222 -0.0114029 -0.0121467 -0.0127536 -0.0132236 -0.0135568 -0.0138082 -0.0140331 -0.0142314 -0.0144032 -0.0145484 -0.0146671 -0.0147592 -0.0148248 -0.0148467 -0.0148079 -0.0147085 -0.0145484 -0.0143276 -0.0140461 -0.0137039 -0.013301 -0.0128301 -0.0122836 -0.0116617 -0.0109642 -0.0101913 -0.00934282 -0.00841888 -0.00741945 -0.00646652 -0.0056821 -0.00506618 -0.00461878 -0.00433989 -0.0042295 -0.00428762 -0.00451426 -0.00457272 -0.00412633 -0.00317509 -0.00171901 0.000241934 0.00270772 0.00567836 0.00915385 0.0126034 0.0154961 0.0178321 0.0196113 0.0208337 0.0214993 0.0216082 0.0211602 0.0204792 0.0198887 0.0193887 0.0189793 0.0186604 0.0184321 0.0182943 0.0182471 0.0182919 0.0184302 0.018662 0.0189874 0.0194063 0.0199188 0.0205247 0.0212242 0.0216838 0.0215701 0.020883 0.0196225 0.0177887 0.0153815 0.012401 0.0088471 0.00528389 0.00227536 -0.000178483 -0.00207765 -0.00342213 -0.00421193 -0.00444705 -0.00412749 -0.00355431 -0.00302855 -0.00255021 -0.00211931 -0.00173583 -0.00139977 -0.00111115 -0.000869945 -0.000666052 -0.000489344 -0.000339822 -0.000217486 -0.000122336 -5.43716e-05 -1.35929e-05 0 0 8.57297e-06 3.42919e-05 7.71567e-05 0.000137168 0.000214324 0.000308627 0.000420076 0.00054867 0.000648694 0.000674433 0.000625884 0.00050305 0.000305929 3.45217e-05 -0.000311172 -0.000731152 -0.00127394 -0.00198805 -0.0028735 -0.00393027 -0.00515837 -0.00655779 -0.00812855 -0.00987063 -0.0116093 -0.0131698 -0.0145522 -0.0157564 -0.0167825 -0.0176304 -0.0183001 -0.0187917 -0.0191734 -0.0195134 -0.0198117 -0.0200683 -0.0202833 -0.0204566 -0.0205881 -0.020678 -0.020703 -0.0206399 -0.0204887 -0.0202493 -0.0199218 -0.0195062 -0.0190025 -0.0184106 -0.0177322 -0.0169688 -0.0161203 -0.0151868 -0.0141684 -0.0130649 -0.0118764 -0.0106028 -0.00936634 -0.00828892 -0.00737057 -0.00661129 -0.00601109 -0.00556997 -0.00528791 -0.00516493 -0.00473612 -0.00353656 -0.00156625 0.0011748 0.0046866 0.00896914 0.0140224 0.0198465 0.0256322 0.0305706 0.0346616 0.0379053 0.0403016 0.0418505 0.0425521 0.0424064 0.0418725 0.0414095 0.0410175 0.0406965 0.0404465 0.0402674 0.0401594 0.0401223 0.0401577 0.0402673 0.0404511 0.040709 0.0410411 0.0414473 0.0419277 0.0424822 0.04264 0.0419299 0.0403521 0.0379065 0.0345932 0.0304121 0.0253632 0.0194466 0.0135166 0.00842762 0.00417964 0.000772665 -0.0017933 -0.00351825 -0.0044022 -0.00444513 -0.00406823 -0.00369267 -0.00331844 -0.00294556 -0.00257402 -0.00220381 -0.00183495 -0.00146742 -0.00112349 -0.000825425 -0.000573212 -0.000366855 -0.000206356 -9.17139e-05 -2.29285e-05 0 0 9.20082e-06 3.68033e-05 8.28073e-05 0.000147213 0.00023002 0.000331229 0.00045084 0.000588852 0.000691073 0.00070331 0.000625562 0.00045783 0.000200113 -0.000147588 -0.000585273 -0.00111294 -0.00177315 -0.00260846 -0.00361888 -0.00480439 -0.006165 -0.00770071 -0.00941152 -0.0112974 -0.0131798 -0.0148799 -0.0163977 -0.0177333 -0.0188867 -0.0198578 -0.0206467 -0.0212533 -0.0217422 -0.0221778 -0.0225601 -0.022889 -0.0231647 -0.0233872 -0.0235563 -0.0236721 -0.0237039 -0.0236209 -0.0234231 -0.0231105 -0.0226831 -0.022141 -0.021484 -0.0207123 -0.0198591 -0.0189576 -0.0180078 -0.0170099 -0.0159636 -0.0148691 -0.0137264 -0.0125354 -0.0113591 -0.0102603 -0.00923897 -0.00829521 -0.00742898 -0.00664027 -0.00592909 -0.00529543 -0.00412819 -0.00181622 0.00164045 0.00624184 0.0119879 0.0188788 0.0269143 0.0360945 0.0452247 0.0531101 0.0597507 0.0651465 0.0692974 0.0722036 0.0738649 0.0742815 0.0740885 0.0739214 0.0737801 0.0736647 0.073575 0.0735112 0.0734733 0.0734611 0.0734758 0.073518 0.0735879 0.0736855 0.0738107 0.0739636 0.0741441 0.0743523 0.0739419 0.0722669 0.0693272 0.0651228 0.0596537 0.05292 0.0449215 0.0356584 0.0263768 0.0183227 0.0114964 0.00589759 0.00152645 -0.00161706 -0.00353295 -0.00422121 -0.00425569 -0.00421027 -0.00408493 -0.00387967 -0.0035945 -0.00322941 -0.00278441 -0.0022595 -0.00172993 -0.00127097 -0.000882616 -0.000564874 -0.000317742 -0.000141219 -3.53046e-05 0 0 8.5522e-06 3.42088e-05 7.69698e-05 0.000136835 0.000213805 0.000307879 0.000419058 0.000547341 0.000634636 0.00062285 0.000511985 0.000302038 -6.98805e-06 -0.000415095 -0.000922282 -0.00152855 -0.00225567 -0.00312543 -0.00413783 -0.00529285 -0.00659051 -0.00803081 -0.00961374 -0.0113393 -0.0130616 -0.0146348 -0.0160588 -0.0173336 -0.0184594 -0.0194359 -0.0202633 -0.0209416 -0.0215146 -0.0220262 -0.0224765 -0.0228653 -0.0231928 -0.0234589 -0.0236636 -0.0238069 -0.0238492 -0.0237508 -0.0235117 -0.023132 -0.0226115 -0.0219504 -0.0211486 -0.0202061 -0.0192107 -0.0182501 -0.0173242 -0.0164332 -0.015577 -0.0147556 -0.013969 -0.0132172 -0.0124447 -0.0115961 -0.0106714 -0.00967053 -0.00859354 -0.00744041 -0.00621115 -0.00490575 -0.00274892 0.00103467 0.00644502 0.0134821 0.022146 0.0324366 0.044354 0.0578981 0.071381 0.0831148 0.0930994 0.101335 0.107821 0.112558 0.115547 0.116785 0.117127 0.117424 0.117676 0.117884 0.118046 0.118164 0.118236 0.118264 0.118246 0.118182 0.118073 0.117917 0.117715 0.117468 0.117174 0.116834 0.11559 0.112581 0.107808 0.101271 0.0929702 0.082905 0.0710758 0.0574824 0.0438643 0.0319607 0.0217717 0.0132971 0.00653712 0.00149164 -0.0018393 -0.00345572 -0.00411671 -0.00458135 -0.00484967 -0.00492164 -0.00479728 -0.00447658 -0.00395954 -0.00324617 -0.00248535 -0.00182597 -0.00126803 -0.000811542 -0.000456492 -0.000202885 -5.07214e-05 0 0 6.62712e-06 2.65085e-05 5.96441e-05 0.000106034 0.000165678 0.000238576 0.000324729 0.000424136 0.000479382 0.000433054 0.000285152 3.56758e-05 -0.000315375 -0.000768 -0.0013222 -0.00197797 -0.0027215 -0.00353896 -0.00443035 -0.00539567 -0.00643492 -0.0075481 -0.00873522 -0.00999626 -0.0112548 -0.0124345 -0.0135354 -0.0145574 -0.0155005 -0.0163647 -0.0171501 -0.0178566 -0.0184907 -0.0190588 -0.019561 -0.0199972 -0.0203675 -0.0206718 -0.0209101 -0.0210825 -0.0211391 -0.0210298 -0.0207547 -0.0203137 -0.019707 -0.0189345 -0.0179962 -0.016892 -0.0157871 -0.0148462 -0.0140695 -0.013457 -0.0130086 -0.0127243 -0.0126042 -0.0126482 -0.0126233 -0.0122965 -0.0116678 -0.0107373 -0.00950478 -0.00797039 -0.00613409 -0.0039959 -0.000598317 0.00501613 0.0128475 0.0228956 0.0351607 0.0496426 0.0663414 0.0852571 0.104101 0.120585 0.134708 0.146471 0.155873 0.162915 0.167597 0.169918 0.170989 0.171918 0.172707 0.173354 0.17386 0.174224 0.174448 0.17453 0.174468 0.17426 0.173905 0.173403 0.172754 0.171959 0.171017 0.169928 0.167583 0.162872 0.155795 0.146352 0.134543 0.120367 0.103826 0.0849188 0.0659793 0.0493416 0.0350056 0.0229713 0.0132387 0.00580786 0.000678732 -0.00214868 -0.00365126 -0.00480592 -0.00561266 -0.00607147 -0.00618235 -0.0059453 -0.00536033 -0.00442744 -0.00338976 -0.00249043 -0.00172947 -0.00110686 -0.000622608 -0.000276715 -6.91787e-05 0 0 3.42557e-06 1.37023e-05 3.08302e-05 5.48092e-05 8.56393e-05 0.000123321 0.000167853 0.000219237 0.000225313 0.000133922 -5.49348e-05 -0.000341258 -0.000725048 -0.0012063 -0.00178503 -0.00246122 -0.00317063