<?xml version="1.0"?> 
<VTKFile type="StructuredGrid" version="0.1"> 
<StructuredGrid WholeExtent="0 128 0 128 0 0"> 
<Piece Extent="0 128 0 128 0 0"> 
<PointData>
<DataArray type="Float32" Name="u" format="ascii" NumberOfComponents="1"> 
0 0 0 0 0 0 0 0 0 0 0 0 0 0 0 0 0 0 0 0 0 0 0 0 0 0 0 0 0 0 0 0 0 0 0 0 0 0 0 0 0 0 0 0 0 0 0 0 0 0 0 0 0 0 0 0 0 0 0 0 0 0 0 0 0 0 0 0 0 0 0 0 0 0 0 0 0 0 0 0 0 0 0 0 0 0 0 0 0 0 0 0 0 0 0 0 0 0 0 0 0 0 0 0 0 0 0 0 0 0 0 0 0 0 0 0 0 0 0 0 0 0 0 0 0 0 0 0 0 0 1.43136e-07 5.72542e-07 1.28822e-06 2.29017e-06 3.57839e-06 5.15288e-06 7.01364e-06 9.16067e-06 1.17626e-05 1.4988e-05 1.88368e-05 2.33092e-05 2.8405e-05 3.41243e-05 4.04671e-05 4.74333e-05 5.48553e-05 6.2565e-05 7.05626e-05 7.88479e-05 8.74212e-05 9.62822e-05 0.000105431 0.000114868 0.000124399 0.000133832 0.000143167 0.000152403 0.00016154 0.000170579 0.00017952 0.000188362 0.00019702 0.000205405 0.000213518 0.000221359 0.000228929 0.000236226 0.000243252 0.000250005 0.000256501 0.000262755 0.000268766 0.000274535 0.000280061 0.000285344 0.000290385 0.000295183 0.000299798 0.00030429 0.000308659 0.000312904 0.000317027 0.000321026 0.000324903 0.000328656 0.000332315 0.000335911 0.000339442 0.000342909 0.000346313 0.000349652 0.000352927 0.000356138 0.000359237 0.000362173 0.000364948 0.000367562 0.000370014 0.000372304 0.000374433 0.0003764 0.000378091 0.000379394 0.000380307 0.000380832 0.000380968 0.000380714 0.000380072 0.00037904 0.000377512 0.000375381 0.000372647 0.000369309 0.000365368 0.000360824 0.000355676 0.000349925 0.000343559 0.000336566 0.000328945 0.000320698 0.000311823 0.000302321 0.000292192 0.000281436 0.000270196 0.000258613 0.000246688 0.000234422 0.000221813 0.000208862 0.000195569 0.000181935 0.000168265 0.00015487 0.000141748 0.000128899 0.000116324 0.000104022 9.19943e-05 8.02397e-05 6.90841e-05 5.88531e-05 4.95467e-05 4.1165e-05 3.37078e-05 2.71753e-05 2.15674e-05 1.6884e-05 1.29268e-05 9.49727e-06 6.59533e-06 4.22101e-06 2.37432e-06 1.05525e-06 2.63813e-07 0 0 5.72542e-07 2.29017e-06 5.15288e-06 9.16067e-06 1.43136e-05 2.06115e-05 2.80546e-05 3.66427e-05 4.70503e-05 5.99519e-05 7.53473e-05 9.32367e-05 0.00011362 0.000136497 0.000161868 0.000189733 0.000219421 0.00025026 0.00028225 0.000315392 0.000349685 0.000385129 0.000421724 0.000459471 0.000497597 0.000535328 0.000572666 0.000609611 0.000646161 0.000682318 0.000718081 0.00075345 0.000788078 0.000821619 0.000854072 0.000885437 0.000915714 0.000944904 0.000973006 0.00100002 0.00102601 0.00105102 0.00107506 0.00109814 0.00112024 0.00114138 0.00116154 0.00118073 0.00119919 0.00121716 0.00123463 0.00125162 0.00126811 0.00128411 0.00129961 0.00131462 0.00132926 0.00134364 0.00135777 0.00137164 0.00138525 0.00139861 0.00141171 0.00142455 0.00143695 0.00144869 0.00145979 0.00147025 0.00148005 0.00148922 0.00149773 0.0015056 0.00151236 0.00151758 0.00152123 0.00152333 0.00152387 0.00152286 0.00152029 0.00151616 0.00151005 0.00150153 0.00149059 0.00147724 0.00146147 0.0014433 0.00142271 0.0013997 0.00137424 0.00134626 0.00131578 0.00128279 0.00124729 0.00120929 0.00116877 0.00112575 0.00108078 0.00103445 0.000986753 0.000937686 0.000887251 0.000835448 0.000782277 0.000727738 0.000673062 0.00061948 0.000566991 0.000515597 0.000465296 0.00041609 0.000367977 0.000320959 0.000276336 0.000235412 0.000198187 0.00016466 0.000134831 0.000108701 8.62694e-05 6.75361e-05 5.17074e-05 3.79891e-05 2.63813e-05 1.6884e-05 9.49727e-06 4.22101e-06 1.05525e-06 0 0 1.28822e-06 5.15288e-06 1.1594e-05 2.06115e-05 3.22055e-05 4.63759e-05 6.31228e-05 8.24461e-05 0.000105863 0.000134892 0.000169532 0.000209783 0.000255645 0.000307119 0.000364204 0.0004269 0.000493697 0.000563085 0.000635063 0.000709632 0.00078679 0.00086654 0.00094888 0.00103381 0.00111959 0.00120449 0.0012885 0.00137162 0.00145386 0.00153521 0.00161568 0.00169526 0.00177318 0.00184864 0.00192166 0.00199223 0.00206036 0.00212603 0.00218926 0.00225005 0.00230851 0.0023648 0.0024189 0.00247081 0.00252055 0.00256809 0.00261346 0.00265664 0.00269818 0.00273861 0.00277793 0.00281614 0.00285324 0.00288924 0.00292412 0.0029579 0.00299084 0.0030232 0.00305498 0.00308618 0.00311681 0.00314687 0.00317634 0.00320524 0.00323313 0.00325956 0.00328454 0.00330806 0.00333012 0.00335074 0.00336989 0.0033876 0.00340282 0.00341454 0.00342277 0.00342749 0.00342871 0.00342643 0.00342064 0.00341136 0.00339761 0.00337843 0.00335382 0.00332378 0.00328831 0.00324742 0.00320109 0.00314933 0.00309203 0.00302909 0.00296051 0.00288628 0.00280641 0.00272089 0.00262973 0.00253293 0.00243176 0.00232752 0.00222019 0.00210979 0.00199632 0.00187976 0.00176012 0.00163741 0.00151439 0.00139383 0.00127573 0.00116009 0.00104692 0.000936202 0.000827949 0.000722157 0.000621757 0.000529678 0.000445921 0.000370485 0.00030337 0.000244578 0.000194106 0.000151956 0.000116342 8.54754e-05 5.93579e-05 3.79891e-05 2.13689e-05 9.49727e-06 2.37432e-06 0 0 2.29017e-06 9.16067e-06 2.06115e-05 3.66427e-05 5.72542e-05 8.24461e-05 0.000112218 0.000146571 0.000188201 0.000239808 0.000301389 0.000372947 0.00045448 0.000545989 0.000647473 0.000758934 0.000877684 0.00100104 0.001129 0.00126157 0.00139874 0.00154052 0.0016869 0.00183788 0.00199039 0.00214131 0.00229067 0.00243844 0.00258464 0.00272927 0.00287232 0.0030138 0.00315231 0.00328647 0.00341629 0.00354175 0.00366286 0.00377962 0.00389202 0.00400008 0.00410402 0.00420408 0.00430026 0.00439256 0.00448097 0.0045655 0.00464615 0.00472292 0.00479676 0.00486864 0.00493854 0.00500647 0.00507243 0.00513642 0.00519844 0.00525849 0.00531704 0.00537457 0.00543107 0.00548655 0.005541 0.00559443 0.00564683 0.00569821 0.00574779 0.00579477 0.00583917 0.00588099 0.00592022 0.00595686 0.00599092 0.00602239 0.00604946 0.0060703 0.00608492 0.00609331 0.00609548 0.00609143 0.00608115 0.00606464 0.0060402 0.0060061 0.00596235 0.00590895 0.00584589 0.00577318 0.00569082 0.00559881 0.00549695 0.00538505 0.00526313 0.00513116 0.00498917 0.00483714 0.00467508 0.00450298 0.00432313 0.00413781 0.00394701 0.00375074 0.003549 0.00334179 0.00312911 0.00291095 0.00269225 0.00247792 0.00226796 0.00206239 0.00186119 0.00166436 0.00147191 0.00128384 0.00110535 0.00094165 0.000792748 0.00065864 0.000539325 0.000434804 0.000345078 0.000270145 0.000206829 0.000151956 0.000105525 6.75361e-05 3.79891e-05 1.6884e-05 4.22101e-06 0 0 3.57839e-06 1.43136e-05 3.22055e-05 5.72542e-05 8.94597e-05 0.000128822 0.000175341 0.000229017 0.000294065 0.000374699 0.000470921 0.000582729 0.000710125 0.000853108 0.00101168 0.00118583 0.00137138 0.00156412 0.00176406 0.0019712 0.00218553 0.00240706 0.00263578 0.00287169 0.00310998 0.0033458 0.00357916 0.00381007 0.00403851 0.00426449 0.004488 0.00470906 0.00492549 0.00513512 0.00533795 0.00553398 0.00572321 0.00590565 0.00608129 0.00625013 0.00641254 0.00656888 0.00671916 0.00686337 0.00700151 0.0071336 0.00725961 0.00737957 0.00749495 0.00760725 0.00771647 0.00782261 0.00792567 0.00802566 0.00812257 0.00821639 0.00830788 0.00839777 0.00848605 0.00857273 0.00865782 0.0087413 0.00882318 0.00890346 0.00898091 0.00905433 0.00912371 0.00918905 0.00925034 0.0093076 0.00936081 0.00940999 0.00945228 0.00948485 0.00950769 0.0095208 0.00952419 0.00951785 0.00950179 0.009476 0.00943781 0.00938453 0.00931617 0.00923273 0.00913421 0.0090206 0.00889191 0.00874813 0.00858898 0.00841415 0.00822363 0.00801745 0.00779558 0.00755803 0.00730481 0.00703591 0.00675489 0.00646532 0.00616721 0.00586054 0.00554532 0.00522155 0.00488923 0.00454836 0.00420664 0.00387175 0.0035437 0.00322248 0.0029081 0.00260056 0.00229986 0.00200599 0.0017271 0.00147133 0.00123867 0.00102912 0.000842695 0.000679382 0.000539184 0.000422101 0.000323171 0.000237432 0.000164883 0.000105525 5.93579e-05 2.63813e-05 6.59533e-06 0 0 5.15288e-06 2.06115e-05 4.63759e-05 8.24461e-05 0.000128822 0.000185504 0.000252491 0.000329784 0.000423453 0.000539567 0.000678126 0.00083913 0.00102258 0.00122847 0.00145682 0.0017076 0.00197479 0.00225234 0.00254025 0.00283853 0.00314716 0.00346616 0.00379552 0.00413524 0.00447837 0.00481796 0.005154 0.00548649 0.00581545 0.00614086 0.00646272 0.00678105 0.0070927 0.00739457 0.00768664 0.00796893 0.00824143 0.00850414 0.00875705 0.00900018 0.00923405 0.00945918 0.00967558 0.00988325 0.0100822 0.0102724 0.0104538 0.0106266 0.0107927 0.0109544 0.0111117 0.0112646 0.011413 0.011557 0.0116965 0.0118316 0.0119633 0.0120928 0.0122199 0.0123447 0.0124673 0.0125875 0.0127054 0.012821 0.0129325 0.0130382 0.0131381 0.0132322 0.0133205 0.0134029 0.0134796 0.0135504 0.0136113 0.0136582 0.0136911 0.01371 0.0137148 0.0137057 0.0136826 0.0136454 0.0135904 0.0135137 0.0134153 0.0132951 0.0131533 0.0129897 0.0128043 0.0125973 0.0123681 0.0121164 0.011842 0.0115451 0.0112256 0.0108836 0.0105189 0.0101317 0.00972704 0.00931007 0.00888078 0.00843918 0.00798526 0.00751903 0.00704049 0.00654964 0.00605756 0.00557532 0.00510292 0.00464037 0.00418767 0.00374481 0.0033118 0.00288863 0.00248703 0.00211871 0.00178368 0.00148194 0.00121348 0.00097831 0.000776425 0.000607825 0.000465366 0.000341902 0.000237432 0.000151956 8.54754e-05 3.79891e-05 9.49727e-06 0 0 7.01364e-06 2.80546e-05 6.31228e-05 0.000112218 0.000175341 0.000252491 0.000343668 0.000448873 0.000576367 0.00073441 0.000923005 0.00114215 0.00139185 0.00167209 0.00198289 0.00232423 0.00268791 0.00306568 0.00345757 0.00386355 0.00428364 0.00471783 0.00516612 0.00562852 0.00609556 0.00655777 0.00701516 0.00746773 0.00791547 0.00835839 0.00879649 0.00922976 0.00965396 0.0100648 0.0104624 0.0108466 0.0112175 0.0115751 0.0119193 0.0122502 0.0125686 0.012875 0.0131695 0.0134522 0.013723 0.0139818 0.0142288 0.0144639 0.0146901 0.0149102 0.0151243 0.0153323 0.0155343 0.0157303 0.0159202 0.0161041 0.0162834 0.0164596 0.0166327 0.0168026 0.0169693 0.0171329 0.0172934 0.0174508 0.0176026 0.0177465 0.0178825 0.0180105 0.0181307 0.0182429 0.0183472 0.0184436 0.0185265 0.0185903 0.0186351 0.0186608 0.0186674 0.018655 0.0186235 0.018573 0.0184981 0.0183937 0.0182597 0.0180962 0.017903 0.0176804 0.0174281 0.0171463 0.0168344 0.0164917 0.0161183 0.0157142 0.0152793 0.0148137 0.0143174 0.0137904 0.0132396 0.012672 0.0120877 0.0114867 0.0108688 0.0102342 0.0095829 0.00891479 0.00824501 0.00758862 0.00694564 0.00631606 0.00569988 0.0050971 0.00450772 0.00393175 0.00338512 0.0028838 0.00242779 0.00201708 0.00165168 0.00133159 0.0010568 0.000827318 0.000633415 0.000465366 0.000323171 0.000206829 0.000116342 5.17074e-05 1.29268e-05 0 0 9.16067e-06 3.66427e-05 8.24461e-05 0.000146571 0.000229017 0.000329784 0.000448873 0.000586283 0.000752805 0.00095923 0.00120556 0.00149179 0.00181792 0.00218396 0.00258989 0.00303573 0.00351074 0.00400416 0.004516 0.00504627 0.00559495 0.00616206 0.00674759 0.00735154 0.00796155 0.00856525 0.00916266 0.00975377 0.0103386 0.0109171 0.0114893 0.0120552 0.0126092 0.0131459 0.0136651 0.014167 0.0146514 0.0151185 0.0155681 0.0160003 0.0164161 0.0168163 0.017201 0.0175702 0.0179239 0.018262 0.0185846 0.0188917 0.0191871 0.0194745 0.0197542 0.0200259 0.0202897 0.0205457 0.0207938 0.021034 0.0212682 0.0214983 0.0217243 0.0219462 0.022164 0.0223777 0.0225873 0.0227928 0.0229911 0.0231791 0.0233567 0.023524 0.0236809 0.0238275 0.0239637 0.0240896 0.0241978 0.0242812 0.0243397 0.0243733 0.0243819 0.0243657 0.0243246 0.0242586 0.0241608 0.0240244 0.0238494 0.0236358 0.0233836 0.0230927 0.0227633 0.0223952 0.0219878 0.0215402 0.0210525 0.0205247 0.0199567 0.0193486 0.0187003 0.0180119 0.0172925 0.0165512 0.015788 0.015003 0.014196 0.0133672 0.0125164 0.0116438 0.010769 0.00991167 0.00907186 0.00824955 0.00744474 0.00665744 0.00588764 0.00513534 0.00442138 0.0037666 0.00317099 0.00263456 0.0021573 0.00173922 0.00138031 0.00108058 0.000827318 0.000607825 0.000422101 0.000270145 0.000151956 6.75361e-05 1.6884e-05 0 0 1.17901e-05 4.71605e-05 0.000106111 0.000188642 0.000294753 0.000424445 0.000577716 0.000754568 0.000968532 0.00123314 0.00154839 0.00191429 0.00233083 0.00279802 0.00331585 0.00388432 0.00448978 0.00511854 0.00577062 0.00644602 0.00714472 0.00786674 0.00861208 0.00938072 0.010157 0.0109254 0.0116857 0.0124381 0.0131825 0.0139189 0.0146473 0.0153677 0.0160731 0.0167564 0.0174176 0.0180567 0.0186737 0.0192686 0.0198413 0.020392 0.0209217 0.0214316 0.0219217 0.022392 0.0228425 0.0232732 0.0236841 0.0240752 0.0244513 0.0248173 0.0251731 0.0255187 0.0258541 0.0261794 0.0264945 0.0267994 0.0270965 0.0273883 0.0276747 0.0279557 0.0282313 0.0285015 0.0287664 0.0290258 0.0292759 0.0295128 0.0297364 0.0299467 0.0301438 0.0303276 0.0304981 0.0306554 0.0307902 0.0308934 0.030965 0.0310049 0.0310132 0.0309898 0.0309349 0.0308482 0.0307213 0.0305455 0.0303208 0.0300471 0.0297245 0.029353 0.0289325 0.0284631 0.0279439 0.0273739 0.0267531 0.0260815 0.0253591 0.024586 0.023762 0.0228873 0.0219734 0.0210318 0.0200626 0.0190657 0.0180412 0.016989 0.0159092 0.0148017 0.0136915 0.0126034 0.0115374 0.0104935 0.00947171 0.00847206 0.00749452 0.0065391 0.00563218 0.00480015 0.00404303 0.00336079 0.00275346 0.00222102 0.00176347 0.00138082 0.00105719 0.000776709 0.000539381 0.000345204 0.000194177 8.6301e-05 2.15753e-05 0 0 1.50981e-05 6.03926e-05 0.000135883 0.00024157 0.000377454 0.000543533 0.000739809 0.000966281 0.00123931 0.00157526 0.00197412 0.00243591 0.00296061 0.00354823 0.00419877 0.00491223 0.00567153 0.00645962 0.00727649 0.00812213 0.00899656 0.00989976 0.0108317 0.0117925 0.0127627 0.0137231 0.0146735 0.0156141 0.0165448 0.0174657 0.0183767 0.0192778 0.0201602 0.0210151 0.0218425 0.0226424 0.0234147 0.0241596 0.024877 0.0255668 0.0262305 0.0268693 0.0274832 0.0280723 0.0286365 0.0291759 0.0296904 0.03018 0.0306506 0.0311082 0.0315527 0.031984 0.0324023 0.0328075 0.0331997 0.0335787 0.0339476 0.0343093 0.0346638 0.0350111 0.0353512 0.0356841 0.0360098 0.0363283 0.0366347 0.0369244 0.0371971 0.037453 0.0376921 0.0379143 0.0381197 0.0383082 0.0384685 0.0385895 0.0386711 0.0387133 0.038716 0.0386794 0.0386034 0.038488 0.0383226 0.0380967 0.0378101 0.0374631 0.0370554 0.0365873 0.0360585 0.0354692 0.0348183 0.0341047 0.0333285 0.0324896 0.031588 0.0306239 0.029597 0.0285075 0.0273697 0.0261979 0.0249921 0.0237524 0.0224787 0.0211709 0.0198292 0.0184536 0.0170745 0.0157226 0.014398 0.0131005 0.0118303 0.0105872 0.00937135 0.00818269 0.00705387 0.00601752 0.00507364 0.00422223 0.00346328 0.0027968 0.00222279 0.00174124 0.00133314 0.000979448 0.000680173 0.00043531 0.000244862 0.000108828 2.72069e-05 0 0 1.90847e-05 7.63389e-05 0.000171763 0.000305356 0.000477118 0.00068705 0.000935152 0.00122142 0.00156514 0.00198558 0.00248275 0.00305664 0.00370726 0.00443459 0.00523866 0.00611945 0.00705601 0.00802739 0.00903359 0.0100746 0.0111504 0.0122611 0.0134066 0.0145869 0.0157786 0.0169584 0.0181261 0.0192819 0.0204257 0.0215576 0.0226774 0.0237853 0.0248704 0.0259218 0.0269397 0.0279239 0.0288746 0.0297916 0.030675 0.0315248 0.0323425 0.0331294 0.0338856 0.0346111 0.0353059 0.03597 0.0366033 0.037206 0.0377849 0.0383473 0.038893 0.039422 0.0399344 0.0404302 0.0409094 0.0413719 0.0418213 0.0422612 0.0426915 0.0431123 0.0435236 0.0439253 0.0443175 0.0447002 0.0450676 0.0454138 0.0457389 0.0460429 0.0463258 0.0465876 0.0468283 0.0470478 0.0472327 0.0473694 0.047458 0.0474983 0.0474905 0.0474344 0.0473302 0.0471778 0.0469646 0.0466778 0.0463176 0.0458838 0.0453765 0.0447956 0.0441413 0.0434134 0.0426109 0.0417327 0.0407787 0.039749 0.0386435 0.0374623 0.0362053 0.0348725 0.0334815 0.0320496 0.0305767 0.029063 0.0275084 0.025913 0.0242766 0.0225993 0.020918 0.0192695 0.0176537 0.0160706 0.0145204 0.0130029 0.0115181 0.0100661 0.00868647 0.0074187 0.00626283 0.00521885 0.00428676 0.00346657 0.00275826 0.00216185 0.00165517 0.00121604 0.000844474 0.000540464 0.000304011 0.000135116 3.3779e-05 0 0 2.37499e-05 9.49995e-05 0.000213749 0.000379998 0.000593747 0.000854996 0.00116374 0.00151999 0.00194602 0.00246411 0.00307427 0.00377649 0.00457076 0.00545711 0.00643551 0.00750598 0.00864319 0.00982184 0.0110419 0.0123034 0.0136064 0.0149508 0.0163366 0.0177639 0.0192047 0.0206312 0.0220435 0.0234414 0.0248251 0.0261945 0.0275495 0.0288903 0.0302037 0.0314767 0.0327093 0.0339015 0.0350532 0.0361646 0.0372355 0.038266 0.0392576 0.0402119 0.0411288 0.0420084 0.0428506 0.0436555 0.044423 0.0451532 0.0458543 0.0465345 0.047194 0.0478326 0.0484504 0.0490474 0.0496236 0.0501789 0.0507176 0.051244 0.0517579 0.0522595 0.0527486 0.0532254 0.0536897 0.0541417 0.0545744 0.0549811 0.0553617 0.0557163 0.0560449 0.0563474 0.0566239 0.0568744 0.0570828 0.0572332 0.0573256 0.05736 0.0573365 0.0572549 0.0571153 0.0569178 0.0566473 0.056289 0.055843 0.0553091 0.0546875 0.0539781 0.0531809 0.0522959 0.0513219 0.0502579 0.0491038 0.0478597 0.0465255 0.0451012 0.0435868 0.0419824 0.0403088 0.0385867 0.0368164 0.0349976 0.0331305 0.0312151 0.0292512 0.027239 0.0252221 0.0232439 0.0213045 0.0194039 0.0175421 0.015719 0.0139348 0.0121894 0.01053 0.0090037 0.0076106 0.00635067 0.00522391 0.00423032 0.0033699 0.00264265 0.00202328 0.00148649 0.00103229 0.000660663 0.000371623 0.000165166 4.12915e-05 0 0 2.90936e-05 0.000116374 0.000261842 0.000465498 0.00072734 0.00104737 0.00142559 0.00186199 0.00238196 0.00301085 0.00374868 0.00459544 0.00555114 0.00661577 0.00778933 0.00907182 0.0104331 0.011843 0.0133015 0.0148087 0.0163644 0.0179688 0.0196218 0.0213235 0.023041 0.0247417 0.0264256 0.0280927 0.029743 0.0313764 0.032993 0.0345928 0.0361602 0.0376797 0.0391513 0.0405749 0.0419506 0.0432785 0.0445584 0.0457903 0.046976 0.0481168 0.0492129 0.0502642 0.0512707 0.0522325 0.0531494 0.0540216 0.0548586 0.05567 0.0564557 0.0572158 0.0579502 0.0586591 0.0593423 0.0599998 0.0606367 0.0612577 0.061863 0.0624525 0.0630262 0.0635841 0.0641263 0.0646526 0.0651552 0.0656262 0.0660656 0.0664733 0.0668494 0.0671939 0.0675067 0.0677878 0.0680187 0.0681808 0.0682741 0.0682985 0.0682541 0.0681408 0.0679587 0.0677078 0.0673707 0.0669303 0.0663864 0.0657392 0.0649886 0.0641346 0.0631772 0.0621165 0.0609512 0.0596803 0.0583038 0.0568217 0.0552339 0.0535406 0.0517416 0.0498371 0.0478515 0.0458095 0.043711 0.0415562 0.0393449 0.0370773 0.0347532 0.0323727 0.0299866 0.0276458 0.0253503 0.0231002 0.0208953 0.0187358 0.0166215 0.0145525 0.0125844 0.0107725 0.00911694 0.00761768 0.00627472 0.00508806 0.0040577 0.00318364 0.00243747 0.0017908 0.00124361 0.00079591 0.000447699 0.000198978 4.97444e-05 0 0 3.51159e-05 0.000140464 0.000316043 0.000561854 0.000877897 0.00126417 0.00172068 0.00224742 0.00287294 0.0036258 0.00450599 0.00551352 0.00664838 0.00791058 0.00930011 0.010817 0.0124257 0.0140908 0.0158123 0.0175902 0.0194245 0.0213152 0.0232622 0.0252657 0.0272875 0.0292898 0.0312725 0.0332357 0.0351793 0.0371033 0.0390078 0.0408928 0.0427398 0.0445308 0.0462656 0.0479443 0.0495669 0.0511333 0.0526436 0.0540978 0.0554975 0.0568441 0.0581378 0.0593785 0.0605661 0.0617008 0.0627826 0.0638113 0.064798 0.0657536 0.0666781 0.0675716 0.0684339 0.0692652 0.0700655 0.0708346 0.0715783 0.0723024 0.0730067 0.0736914 0.0743564 0.0750016 0.0756272 0.076233 0.0768101 0.0773493 0.0778505 0.0783139 0.0787393 0.0791268 0.0794765 0.0797882 0.0800406 0.0802123 0.0803033 0.0803136 0.0802432 0.0800921 0.0798603 0.0795478 0.0791348 0.0786015 0.0779479 0.077174 0.0762798 0.0752652 0.0741304 0.0728752 0.0714987 0.0699999 0.0683786 0.066635 0.0647689 0.0627805 0.0606697 0.0584366 0.0561097 0.0537177 0.0512608 0.0487387 0.0461517 0.0434996 0.0407824 0.0380002 0.0352116 0.0324753 0.0297913 0.0271596 0.0245801 0.022053 0.0195781 0.0171555 0.0148497 0.0127251 0.0107819 0.00901989 0.0074392 0.00603979 0.00482166 0.00378481 0.00289775 0.00212896 0.00147844 0.000946203 0.000532239 0.000236551 5.91377e-05 0 0 4.18168e-05 0.000167267 0.000376351 0.000669068 0.00104542 0.0015054 0.00204902 0.00267627 0.00341898 0.00430895 0.00534619 0.0065307 0.00786249 0.00934154 0.0109679 0.0127415 0.014621 0.0165654 0.0185744 0.0206482 0.0227866 0.0249899 0.0272578 0.0295904 0.0319442 0.0342755 0.0365842 0.0388704 0.0411341 0.0433754 0.045594 0.0477902 0.0499426 0.05203 0.0540523 0.0560096 0.0579019 0.0597291 0.0614913 0.0631885 0.0648222 0.0663938 0.0679035 0.0693512 0.0707369 0.0720607 0.0733224 0.0745222 0.0756724 0.0767854 0.0778613 0.0789 0.0799015 0.0808659 0.0817932 0.0826832 0.0835427 0.084378 0.0851892 0.0859762 0.0867391 0.0874779 0.0881925 0.088883 0.089539 0.0901502 0.0907165 0.091238 0.0917146 0.0921464 0.0925333 0.0928754 0.0931483 0.0933276 0.0934133 0.0934054 0.0933039 0.0931089 0.0928202 0.092438 0.0919397 0.0913028 0.0905274 0.0896134 0.088561 0.0873699 0.0860403 0.0845722 0.0829646 0.0812166 0.0793283 0.0772995 0.0751304 0.072821 0.0703711 0.0677809 0.0650833 0.0623115 0.0594655 0.0565452 0.0535507 0.0504819 0.0473389 0.0441217 0.0408972 0.0377324 0.0346274 0.0315821 0.0285965 0.0256707 0.0228046 0.0199983 0.0173259 0.0148616 0.0126054 0.0105573 0.00871733 0.0070855 0.00566178 0.00444617 0.0034041 0.00250097 0.00173679 0.00111154 0.000625243 0.000277886 6.94715e-05 0 0 4.91962e-05 0.000196785 0.000442766 0.000787139 0.0012299 0.00177106 0.00241061 0.00314856 0.00402006 0.00506031 0.00626929 0.007647 0.00919346 0.0109086 0.0127926 0.0148452 0.0170191 0.0192666 0.0215877 0.0239824 0.0264508 0.0289929 0.0316085 0.0342978 0.0370111 0.0396987 0.0423607 0.0449969 0.0476075 0.0501924 0.0527516 0.0552852 0.0577686 0.0601773 0.0625114 0.0647709 0.0669557 0.0690659 0.0711014 0.0730623 0.07495 0.076766 0.0785101 0.0801825 0.0817831 0.0833119 0.084769 0.0861543 0.0874818 0.0887654 0.0900051 0.091201 0.092353 0.0934611 0.0945254 0.0955458 0.0965297 0.0974845 0.0984102 0.0993069 0.100174 0.101013 0.101822 0.102602 0.103342 0.104029 0.104663 0.105246 0.105775 0.106252 0.106677 0.10705 0.107342 0.107527 0.107604 0.107574 0.107436 0.107191 0.106838 0.106378 0.105785 0.105034 0.104125 0.103058 0.101832 0.100449 0.098907 0.0972073 0.0953487 0.0933306 0.0911528 0.0888154 0.0863185 0.0836619 0.0808457 0.07787 0.0747724 0.0715909 0.0683253 0.0649757 0.061542 0.0580244 0.0544228 0.0507371 0.0470433 0.0434171 0.0398586 0.0363677 0.0329445 0.029589 0.0263011 0.0230809 0.020013 0.0171818 0.0145874 0.0122299 0.0101091 0.00822519 0.00657806 0.00516772 0.00395654 0.00290684 0.00201864 0.00129193 0.000726711 0.000322983 8.07457e-05 0 0 5.7153e-05 0.000228612 0.000514377 0.000914449 0.00142883 0.00205751 0.0028005 0.00365779 0.00466797 0.0058696 0.00726269 0.00884723 0.0106232 0.0125907 0.0147496 0.0170999 0.0195875 0.022158 0.0248114 0.0275478 0.0303671 0.0332693 0.0362545 0.0393226 0.0424177 0.0454837 0.0485207 0.0515286 0.0545074 0.0574573 0.060378 0.0632697 0.0661045 0.0688544 0.0715194 0.0740996 0.0765949 0.0790054 0.081331 0.0835717 0.0857288 0.0878037 0.0897962 0.0917065 0.0935344 0.09528 0.0969434 0.0985244 0.100039 0.101502 0.102913 0.104274 0.105583 0.106841 0.108048 0.109204 0.110316 0.111394 0.112438 0.113446 0.114421 0.11536 0.116265 0.117135 0.117958 0.11872 0.119422 0.120062 0.120643 0.121162 0.121621 0.12202 0.122327 0.122512 0.122575 0.122516 0.122334 0.122031 0.121606 0.121058 0.12036 0.119484 0.11843 0.117197 0.115786 0.114196 0.112428 0.110482 0.108356 0.106051 0.103567 0.100904 0.0980606 0.0950381 0.0918363 0.088455 0.084937 0.0813249 0.0776189 0.0738188 0.0699248 0.0659367 0.0618546 0.0576785 0.0534933 0.049384 0.0453507 0.0413932 0.0375117 0.033706 0.0299763 0.0263224 0.0228399 0.019624 0.0166749 0.0139924 0.0115766 0.00942755 0.00754515 0.00592944 0.00453973 0.00333531 0.00231619 0.00148236 0.000833828 0.00037059 9.26476e-05 0 0 6.55862e-05 0.000262345 0.000590276 0.00104938 0.00163965 0.0023611 0.00321372 0.00419752 0.00535447 0.00672656 0.0083138 0.0101162 0.0121337 0.0143664 0.0168142 0.0194772 0.0222939 0.0252031 0.0282048 0.0312989 0.0344854 0.0377644 0.0411358 0.0445996 0.0480934 0.0515545 0.054983 0.0583789 0.0617422 0.0650728 0.0683707 0.0716361 0.0748373 0.0779429 0.0809529 0.0838673 0.0866861 0.0894093 0.0920369 0.0945689 0.0970063 0.0993502 0.101601 0.103757 0.105821 0.10779 0.109667 0.111449 0.113156 0.114803 0.11639 0.117919 0.119387 0.120797 0.122147 0.123438 0.124679 0.12588 0.127039 0.128158 0.129236 0.130273 0.13127 0.132226 0.133127 0.133958 0.134721 0.135414 0.136038 0.136593 0.137078 0.137495 0.137808 0.137985 0.138024 0.137927 0.137692 0.137321 0.136813 0.136167 0.135354 0.134342 0.133132 0.131722 0.130114 0.128307 0.126301 0.124096 0.121692 0.119089 0.116287 0.113285 0.110084 0.106684 0.103085 0.0992868 0.0953368 0.091283 0.0871252 0.0828635 0.0784979 0.0740285 0.0694551 0.0647779 0.0600908 0.055488 0.0509696 0.0465354 0.0421856 0.03792 0.0337388 0.0296418 0.0257356 0.0221265 0.0188145 0.0157996 0.0130819 0.0106612 0.00853772 0.00671133 0.00513836 0.00377512 0.00262161 0.00167783 0.00094378 0.000419458 0.000104864 0 0 7.44956e-05 0.000297983 0.000670461 0.00119193 0.00186239 0.00268184 0.00365029 0.00476772 0.00607955 0.00763119 0.00942263 0.0114539 0.0137249 0.0162358 0.0189865 0.0219769 0.0251384 0.028402 0.0317677 0.0352356 0.0388057 0.0424779 0.0462523 0.0501289 0.0540383 0.0579112 0.0617478 0.0655479 0.0693116 0.0730389 0.0767297 0.0803841 0.0839669 0.0874428 0.0908118 0.094074 0.0972293 0.100278 0.103219 0.106054 0.108782 0.111405 0.113923 0.116335 0.118642 0.120843 0.122939 0.124929 0.126833 0.128668 0.130435 0.132134 0.133766 0.135329 0.136823 0.13825 0.139619 0.140941 0.142215 0.143441 0.144621 0.145752 0.146837 0.147874 0.148848 0.149743 0.150561 0.1513 0.151961 0.152544 0.153049 0.153475 0.153786 0.153945 0.153952 0.153807 0.15351 0.153061 0.152459 0.151706 0.150767 0.149608 0.14823 0.146633 0.144816 0.14278 0.140525 0.13805 0.135356 0.132443 0.129311 0.12596 0.12239 0.118601 0.114593 0.110366 0.105972 0.101465 0.0968441 0.0921097 0.0872616 0.0822998 0.0772243 0.0720352 0.0668357 0.0617291 0.0567153 0.0517943 0.0469663 0.042231 0.0375886 0.0330391 0.0287001 0.0246891 0.0210063 0.0176515 0.0146248 0.0119262 0.00955575 0.00751337 0.00575242 0.00422627 0.00293491 0.00187834 0.00105657 0.000469585 0.000117396 0 0 8.38814e-05 0.000335526 0.000754933 0.0013421 0.00209703 0.00301973 0.00411019 0.00536841 0.00684323 0.00858349 0.0105892 0.0128603 0.0153969 0.0181989 0.0212663 0.0245992 0.0281208 0.0317545 0.0355003 0.0393582 0.0433281 0.0474101 0.0516041 0.0559103 0.0602523 0.0645538 0.0688149 0.0730356 0.0772158 0.0813556 0.085455 0.089514 0.0934934 0.0973541 0.101096 0.10472 0.108224 0.111611 0.114878 0.118027 0.121057 0.123969 0.126764 0.12944 0.131998 0.134438 0.13676 0.138964 0.14107 0.143098 0.145049 0.146922 0.148718 0.150435 0.152076 0.153639 0.155135 0.156577 0.157964 0.159297 0.160574 0.161797 0.162965 0.164079 0.165121 0.166075 0.166942 0.167721 0.168413 0.169016 0.169532 0.16996 0.17026 0.170393 0.170359 0.170157 0.169787 0.16925 0.168546 0.167674 0.166598 0.165282 0.163726 0.16193 0.159893 0.157617 0.155101 0.152344 0.149348 0.146114 0.14264 0.138928 0.134977 0.130787 0.126359 0.121691 0.116843 0.111871 0.106776 0.101557 0.0962156 0.0907506 0.0851623 0.0794506 0.0737281 0.0681072 0.0625878 0.05717 0.0518537 0.046639 0.0415259 0.0365143 0.0317333 0.0273119 0.0232502 0.019548 0.0162055 0.0132226 0.0105993 0.00833557 0.00638192 0.00468876 0.00325608 0.00208389 0.00117219 0.000520973 0.000130243 0 0 9.37435e-05 0.000374974 0.000843691 0.0014999 0.00234359 0.00337476 0.00459343 0.00599958 0.0076455 0.00958345 0.0118134 0.0143355 0.0171495 0.0202557 0.0236538 0.027344 0.0312413 0.0352608 0.0394025 0.0436664 0.0480525 0.0525608 0.0571913 0.0619439 0.0667354 0.0714822 0.0761844 0.0808419 0.0854548 0.090023 0.0945466 0.0990256 0.103417 0.107677 0.111806 0.115804 0.119672 0.123408 0.127013 0.130487 0.133831 0.137042 0.140123 0.143071 0.145889 0.148575 0.15113 0.153553 0.155867 0.158093 0.160231 0.162281 0.164243 0.166118 0.167905 0.169604 0.171228 0.172789 0.174288 0.175724 0.177097 0.178408 0.179656 0.180842 0.181947 0.182955 0.183865 0.184677 0.185392 0.186009 0.186528 0.18695 0.187231 0.18733 0.187245 0.186976 0.186525 0.18589 0.185072 0.184071 0.182847 0.181363 0.179618 0.177612 0.175345 0.172817 0.170028 0.166979 0.163669 0.160101 0.156275 0.15219 0.147846 0.143244 0.138383 0.133264 0.127949 0.122501 0.11692 0.111207 0.10536 0.099381 0.0932689 0.087024 0.080768 0.0746223 0.0685871 0.0626623 0.0568479 0.051144 0.0455505 0.0400674 0.0348353 0.029995 0.0255463 0.0214892 0.0178239 0.0145502 0.0116682 0.00917793 0.00702685 0.00516258 0.00358513 0.00229448 0.00129065 0.00057362 0.000143405 0 0 0.000104082 0.000416327 0.000936736 0.00166531 0.00260205 0.00374694 0.00510001 0.00666124 0.00848635 0.0106311 0.0130954 0.0158794 0.0189829 0.0224061 0.0261489 0.0302113 0.0344998 0.0389208 0.0434743 0.0481604 0.0529789 0.05793 0.0630136 0.0682298 0.0734877 0.0786965 0.0838562 0.0889669 0.0940285 0.099041 0.104005 0.108919 0.113737 0.118411 0.122941 0.127328 0.131571 0.13567 0.139625 0.143436 0.147103 0.150624 0.154 0.15723 0.160315 0.163254 0.166049 0.168697 0.171224 0.173652 0.175981 0.178211 0.180343 0.182376 0.184311 0.186146 0.187897 0.189577 0.191185 0.192723 0.194189 0.195585 0.196909 0.198162 0.199325 0.200381 0.201328 0.202168 0.202899 0.203522 0.204038 0.204445 0.204699 0.204754 0.204609 0.204265 0.203722 0.202979 0.202038 0.200897 0.199516 0.197852 0.195907 0.19368 0.191171 0.18838 0.185307 0.181953 0.178318 0.174405 0.170214 0.165744 0.160996 0.15597 0.150666 0.145083 0.13929 0.133355 0.127277 0.121057 0.114695 0.108191 0.101544 0.0947555 0.0879552 0.0812745 0.0747132 0.0682713 0.0619489 0.0557459 0.0496624 0.0436983 0.0380061 0.0327382 0.0278945 0.0234751 0.01948 0.0159092 0.0127627 0.0100404 0.00768722 0.00564775 0.00392205 0.00251011 0.00141194 0.000627528 0.000156882 0 0 0.000114896 0.000459586 0.00103407 0.00183834 0.00287241 0.00413627 0.00562993 0.00735337 0.0093658 0.0117264 0.0144351 0.017492 0.0208971 0.0246503 0.0287516 0.0332012 0.0378963 0.0427345 0.0477157 0.05284 0.0581074 0.0635178 0.0690713 0.0747678 0.0805091 0.0861966 0.0918304 0.0974105 0.102937 0.10841 0.113829 0.119194 0.124454 0.129557 0.134502 0.139291 0.143922 0.148396 0.152713 0.156872 0.160873 0.164714 0.168395 0.171916 0.175276 0.178476 0.181516 0.184396 0.187141 0.189775 0.192299 0.194713 0.197017 0.19921 