<?xml version="1.0"?> 
<VTKFile type="StructuredGrid" version="0.1"> 
<StructuredGrid WholeExtent="0 128 0 128 0 0"> 
<Piece Extent="0 128 0 128 0 0"> 
<PointData>
<DataArray type="Float32" Name="u" format="ascii" NumberOfComponents="1"> 
0 0 0 0 0 0 0 0 0 0 0 0 0 0 0 0 0 0 0 0 0 0 0 0 0 0 0 0 0 0 0 0 0 0 0 0 0 0 0 0 0 0 0 0 0 0 0 0 0 0 0 0 0 0 0 0 0 0 0 0 0 0 0 0 0 0 0 0 0 0 0 0 0 0 0 0 0 0 0 0 0 0 0 0 0 0 0 0 0 0 0 0 0 0 0 0 0 0 0 0 0 0 0 0 0 0 0 0 0 0 0 0 0 0 0 0 0 0 0 0 0 0 0 0 0 0 0 0 0 0 1.24956e-05 4.99822e-05 0.00011246 0.000199929 0.000312389 0.00044984 0.000612282 0.000799716 0.000998827 0.0011963 0.00139215 0.00158635 0.00177892 0.00196986 0.00215916 0.00234683 0.00253199 0.00271377 0.00289216 0.00306718 0.00323881 0.00340706 0.00357193 0.00373342 0.00389013 0.00404068 0.00418507 0.00432329 0.00445535 0.00458125 0.00470098 0.00481455 0.00492204 0.00502355 0.00511906 0.00520859 0.00529213 0.00536968 0.00544125 0.00550682 0.00556729 0.00562352 0.00567552 0.00572329 0.00576682 0.00580612 0.00584119 0.00587202 0.00589956 0.00592476 0.00594759 0.00596808 0.00598621 0.006002 0.00601543 0.0060265 0.00603579 0.00604383 0.00605064 0.00605621 0.00606054 0.00606364 0.00606549 0.00606611 0.00606549 0.00606364 0.00606054 0.00605621 0.00605064 0.00604384 0.00603579 0.00602651 0.00601543 0.006002 0.00598622 0.00596809 0.00594761 0.00592477 0.00589958 0.00587204 0.00584121 0.00580614 0.00576684 0.00572331 0.00567555 0.00562355 0.00556732 0.00550686 0.00544128 0.00536972 0.00529217 0.00520864 0.00511911 0.0050236 0.0049221 0.00481461 0.00470104 0.00458132 0.00445542 0.00432337 0.00418515 0.00404077 0.00389022 0.00373351 0.00357202 0.00340716 0.00323891 0.00306728 0.00289227 0.00271388 0.00253211 0.00234695 0.00215928 0.00196998 0.00177904 0.00158646 0.00139225 0.0011964 0.000998907 0.000799781 0.000612332 0.000449877 0.000312414 0.000199945 0.000112469 4.99863e-05 1.24966e-05 0 0 4.99822e-05 0.000199929 0.00044984 0.000799716 0.00124956 0.00179936 0.00244913 0.00319886 0.00399531 0.00478522 0.00556858 0.00634541 0.0071157 0.00787945 0.00863665 0.00938732 0.010128 0.0108551 0.0115687 0.0122687 0.0129552 0.0136282 0.0142877 0.0149337 0.0155605 0.0161627 0.0167403 0.0172932 0.0178214 0.018325 0.0188039 0.0192582 0.0196882 0.0200942 0.0204763 0.0208344 0.0211685 0.0214787 0.021765 0.0220273 0.0222692 0.0224941 0.0227021 0.0228931 0.0230673 0.0232245 0.0233648 0.0234881 0.0235983 0.023699 0.0237904 0.0238723 0.0239449 0.024008 0.0240617 0.024106 0.0241431 0.0241753 0.0242026 0.0242248 0.0242422 0.0242545 0.024262 0.0242645 0.024262 0.0242546 0.0242422 0.0242249 0.0242026 0.0241753 0.0241432 0.024106 0.0240617 0.024008 0.0239449 0.0238724 0.0237904 0.0236991 0.0235983 0.0234882 0.0233648 0.0232246 0.0230674 0.0228932 0.0227022 0.0224942 0.0222693 0.0220274 0.0217651 0.0214789 0.0211687 0.0208345 0.0204764 0.0200944 0.0196884 0.0192584 0.0188042 0.0183253 0.0178217 0.0172935 0.0167406 0.0161631 0.0155609 0.014934 0.0142881 0.0136286 0.0129556 0.0122691 0.0115691 0.0108555 0.0101284 0.0093878 0.00863713 0.00787992 0.00711616 0.00634585 0.00556899 0.00478559 0.00399563 0.00319912 0.00244933 0.00179951 0.00124966 0.000799781 0.000449877 0.000199945 4.99863e-05 0 0 0.00011246 0.00044984 0.00101214 0.00179936 0.0028115 0.00404856 0.00551054 0.00719744 0.00898945 0.0107667 0.0125293 0.0142772 0.0160103 0.0177288 0.0194325 0.0211215 0.0227879 0.0244239 0.0260295 0.0276046 0.0291493 0.0306635 0.0321474 0.0336008 0.0350112 0.0363662 0.0376656 0.0389097 0.0400982 0.0412313 0.0423088 0.043331 0.0442984 0.0452119 0.0460716 0.0468773 0.0476292 0.0483271 0.0489712 0.0495614 0.0501056 0.0506117 0.0510797 0.0515096 0.0519014 0.0522551 0.0525707 0.0528482 0.0530961 0.0533228 0.0535283 0.0537127 0.0538759 0.054018 0.0541388 0.0542385 0.0543221 0.0543945 0.0544558 0.0545059 0.0545449 0.0545727 0.0545894 0.054595 0.0545894 0.0545727 0.0545449 0.0545059 0.0544558 0.0543945 0.0543221 0.0542386 0.0541389 0.054018 0.053876 0.0537128 0.0535284 0.0533229 0.0530962 0.0528484 0.0525709 0.0522553 0.0519016 0.0515098 0.0510799 0.0506119 0.0501059 0.0495617 0.0489715 0.0483275 0.0476296 0.0468777 0.046072 0.0452124 0.0442989 0.0433315 0.0423094 0.0412319 0.0400988 0.0389103 0.0376663 0.0363669 0.035012 0.0336016 0.0321482 0.0306644 0.0291502 0.0276055 0.0260304 0.0244249 0.0227889 0.0211225 0.0194336 0.0177298 0.0160114 0.0142782 0.0125302 0.0107676 0.00899017 0.00719803 0.00551099 0.00404889 0.00281173 0.00179951 0.00101222 0.000449877 0.000112469 0 0 0.000199929 0.000799716 0.00179936 0.00319886 0.00499822 0.00719744 0.00979652 0.0127955 0.0159812 0.0191409 0.0222743 0.0253816 0.0284628 0.0315178 0.0345466 0.0375493 0.0405118 0.0434203 0.0462746 0.0490748 0.051821 0.054513 0.0571509 0.0597347 0.0622421 0.0646509 0.0669611 0.0691727 0.0712857 0.0733 0.0752157 0.0770328 0.0787527 0.0803768 0.081905 0.0833375 0.0846741 0.0859149 0.0870599 0.0881092 0.0890766 0.0899763 0.0908083 0.0915726 0.0922691 0.0928979 0.093459 0.0939524 0.094393 0.0947961 0.0951615 0.0954893 0.0957794 0.0960319 0.0962468 0.0964241 0.0965726 0.0967013 0.0968102 0.0968994 0.0969687 0.0970182 0.0970479 0.0970578 0.0970479 0.0970182 0.0969687 0.0968994 0.0968103 0.0967014 0.0965727 0.0964242 0.0962469 0.0960321 0.0957796 0.0954894 0.0951617 0.0947963 0.0943933 0.0939526 0.0934593 0.0928982 0.0922695 0.091573 0.0908087 0.0899768 0.0890771 0.0881097 0.0870605 0.0859156 0.0846748 0.0833382 0.0819058 0.0803776 0.0787536 0.0770338 0.0752167 0.0733011 0.0712868 0.0691739 0.0669624 0.0646523 0.0622435 0.0597361 0.0571524 0.0545145 0.0518226 0.0490765 0.0462764 0.0434221 0.0405137 0.0375512 0.0345485 0.0315197 0.0284647 0.0253834 0.022276 0.0191423 0.0159825 0.0127965 0.00979731 0.00719803 0.00499863 0.00319912 0.00179951 0.000799781 0.000199945 0 0 0.000312389 0.00124956 0.0028115 0.00499822 0.00780972 0.011246 0.0153071 0.0199929 0.0249707 0.0299076 0.0348036 0.0396588 0.0444731 0.0492465 0.0539791 0.0586708 0.0632997 0.0678442 0.0723041 0.0766794 0.0809702 0.0851765 0.0892983 0.0933354 0.0972533 0.101017 0.104627 0.108082 0.111384 0.114531 0.117525 0.120364 0.123051 0.125589 0.127977 0.130215 0.132303 0.134242 0.136031 0.137671 0.139182 0.140588 0.141888 0.143082 0.14417 0.145153 0.14603 0.146801 0.147489 0.148119 0.14869 0.149202 0.149655 0.15005 0.150386 0.150663 0.150895 0.151096 0.151266 0.151405 0.151514 0.151591 0.151637 0.151653 0.151637 0.151591 0.151514 0.151405 0.151266 0.151096 0.150895 0.150663 0.150386 0.15005 0.149656 0.149202 0.14869 0.148119 0.147489 0.146801 0.14603 0.145153 0.144171 0.143083 0.141889 0.140589 0.139183 0.137671 0.136032 0.134243 0.132304 0.130216 0.127978 0.12559 0.123052 0.120365 0.117526 0.114533 0.111386 0.108084 0.104629 0.101019 0.0972555 0.0933377 0.0893006 0.085179 0.0809728 0.0766821 0.0723068 0.067847 0.0633026 0.0586737 0.0539821 0.0492495 0.044476 0.0396616 0.0348062 0.0299099 0.0249727 0.0199945 0.0153083 0.0112469 0.00781036 0.00499863 0.00281173 0.00124966 0.000312414 0 0 0.00044984 0.00179936 0.00404856 0.00719744 0.011246 0.0161942 0.0220422 0.0287898 0.0359578 0.0430669 0.0501172 0.0571087 0.0640413 0.070915 0.0777299 0.0844859 0.0911516 0.0976956 0.104118 0.110418 0.116597 0.122654 0.128589 0.134403 0.140045 0.145465 0.150663 0.155639 0.160393 0.164925 0.169235 0.173324 0.177194 0.180848 0.184286 0.187509 0.190517 0.193309 0.195885 0.198246 0.200422 0.202447 0.204319 0.206038 0.207605 0.20902 0.210283 0.211393 0.212384 0.213291 0.214113 0.214851 0.215504 0.216072 0.216555 0.216954 0.217288 0.217578 0.217823 0.218024 0.21818 0.218291 0.218358 0.21838 0.218358 0.218291 0.21818 0.218024 0.217823 0.217578 0.217289 0.216954 0.216556 0.216072 0.215504 0.214851 0.214114 0.213292 0.212385 0.211393 0.210283 0.209021 0.207606 0.206039 0.20432 0.202448 0.200423 0.198247 0.195886 0.19331 0.190518 0.187511 0.184288 0.18085 0.177196 0.173326 0.169238 0.164927 0.160395 0.155641 0.150665 0.145468 0.140048 0.134406 0.128593 0.122658 0.116601 0.110422 0.104122 0.0976997 0.0911558 0.0844902 0.0777342 0.0709193 0.0640455 0.0571127 0.0501209 0.0430703 0.0359607 0.0287921 0.022044 0.0161956 0.0112469 0.00719803 0.00404889 0.00179951 0.000449877 0 0 0.000612282 0.00244913 0.00551054 0.00979652 0.0153071 0.0220422 0.0300018 0.0391861 0.0489425 0.0586189 0.0682151 0.0777313 0.0871673 0.0965232 0.105799 0.114995 0.124068 0.132975 0.141716 0.150292 0.158702 0.166946 0.175025 0.182937 0.190617 0.197994 0.205068 0.211841 0.218312 0.224481 0.230348 0.235913 0.24118 0.246154 0.250834 0.255221 0.259314 0.263114 0.266621 0.269834 0.272797 0.275552 0.2781 0.280441 0.282574 0.2845 0.286218 0.287729 0.289079 0.290313 0.291432 0.292436 0.293324 0.294098 0.294756 0.295299 0.295754 0.296148 0.296481 0.296754 0.296967 0.297118 0.297209 0.29724 0.297209 0.297118 0.296967 0.296754 0.296482 0.296148 0.295754 0.295299 0.294756 0.294098 0.293325 0.292436 0.291433 0.290314 0.289079 0.28773 0.286219 0.284501 0.282575 0.280442 0.278102 0.275554 0.272799 0.269836 0.266623 0.263116 0.259316 0.255223 0.250836 0.246156 0.241183 0.235916 0.230351 0.224485 0.218316 0.211845 0.205072 0.197998 0.190621 0.182942 0.175029 0.166951 0.158707 0.150297 0.141721 0.13298 0.124073 0.115001 0.105805 0.0965291 0.087173 0.0777367 0.0682202 0.0586234 0.0489465 0.0391893 0.0300043 0.022044 0.0153083 0.00979731 0.00551099 0.00244933 0.000612332 0 0 0.000799716 0.00319886 0.00719744 0.0127955 0.0199929 0.0287898 0.0391861 0.0511818 0.0639249 0.0765635 0.0890973 0.101527 0.113851 0.126071 0.138186 0.150197 0.162047 0.173681 0.185098 0.196299 0.207284 0.218052 0.228604 0.238939 0.248968 0.258604 0.267845 0.276691 0.285143 0.2932 0.300863 0.308131 0.315011 0.321507 0.32762 0.33335 0.338696 0.34366 0.34824 0.352437 0.356306 0.359905 0.363233 0.36629 0.369076 0.371592 0.373836 0.375809 0.377572 0.379184 0.380646 0.381957 0.383118 0.384128 0.384987 0.385696 0.38629 0.386805 0.387241 0.387597 0.387875 0.388073 0.388192 0.388231 0.388192 0.388073 0.387875 0.387598 0.387241 0.386806 0.386291 0.385697 0.384988 0.384128 0.383118 0.381958 0.380647 0.379185 0.377573 0.37581 0.373837 0.371593 0.369078 0.366292 0.363235 0.359907 0.356308 0.352439 0.348242 0.343662 0.338699 0.333353 0.327623 0.32151 0.315014 0.308135 0.300867 0.293204 0.285147 0.276696 0.26785 0.258609 0.248974 0.238945 0.22861 0.218058 0.20729 0.196306 0.185105 0.173688 0.162055 0.150205 0.138194 0.126079 0.113859 0.101534 0.0891039 0.0765694 0.0639301 0.051186 0.0391893 0.0287921 0.0199945 0.0127965 0.00719803 0.00319912 0.000799781 0 0 0.000998826 0.0039953 0.00898944 0.0159812 0.0249707 0.0359577 0.0489425 0.0639249 0.0798403 0.095624 0.111276 0.126796 0.142185 0.157442 0.172568 0.187562 0.202354 0.216875 0.231125 0.245105 0.258813 0.27225 0.285415 0.29831 0.310823 0.322843 0.33437 0.345403 0.355944 0.365992 0.375547 0.384608 0.393185 0.401282 0.408902 0.416043 0.422706 0.42889 0.434596 0.439824 0.444644 0.449125 0.45327 0.457076 0.460545 0.463676 0.466469 0.468924 0.471117 0.473122 0.474941 0.476571 0.478014 0.47927 0.480339 0.48122 0.481958 0.482598 0.483139 0.483582 0.483926 0.484172 0.48432 0.484369 0.48432 0.484172 0.483926 0.483582 0.483139 0.482598 0.481958 0.48122 0.480339 0.479271 0.478015 0.476572 0.474941 0.473124 0.471118 0.468925 0.46647 0.463677 0.460546 0.457078 0.453272 0.449128 0.444646 0.439827 0.434599 0.428893 0.422709 0.416047 0.408906 0.401287 0.393189 0.384613 0.375552 0.365997 0.35595 0.345409 0.334376 0.322849 0.31083 0.298317 0.285423 0.272257 0.258821 0.245113 0.231134 0.216884 0.202363 0.187571 0.172577 0.157452 0.142194 0.126805 0.111284 0.0956314 0.0798466 0.06393 0.0489464 0.0359606 0.0249727 0.0159825 0.00899016 0.00399563 0.000998907 0 0 0.0011963 0.0047852 0.0107667 0.0191408 0.0299075 0.0430668 0.0586187 0.0765632 0.0956237 0.114524 0.133264 0.151843 0.170262 0.18852 0.206618 0.224556 0.24225 0.259617 0.276657 0.293371 0.309757 0.325817 0.34155 0.356955 0.371902 0.386258 0.400022 0.413195 0.425777 0.437767 0.449167 0.459975 0.470201 0.479855 0.488937 0.497448 0.505386 0.512752 0.519546 0.525767 0.531502 0.536833 0.541762 0.546288 0.550411 0.554132 0.557449 0.560364 0.562966 0.565345 0.567501 0.569435 0.571146 0.572634 0.573899 0.574942 0.575815 0.576572 0.577212 0.577736 0.578143 0.578434 0.578609 0.578667 0.578609 0.578434 0.578143 0.577736 0.577212 0.576572 0.575815 0.574942 0.5739 0.572635 0.571147 0.569436 0.567502 0.565346 0.562967 0.560365 0.557451 0.554133 0.550413 0.54629 0.541765 0.536836 0.531505 0.525771 0.519549 0.512755 0.50539 0.497452 0.488942 0.47986 0.470206 0.45998 0.449173 0.437774 0.425784 0.413202 0.400029 0.386266 0.37191 0.356964 0.341559 0.325826 0.309767 0.293381 0.276668 0.259628 0.242261 0.224567 0.20663 0.188532 0.170273 0.151853 0.133273 0.114533 0.0956313 0.0765693 0.0586234 0.0430702 0.0299099 0.0191423 0.0107676 0.00478558 0.0011964 0 0 0.00139214 0.00556854 0.0125292 0.0222742 0.0348034 0.0501169 0.0682146 0.0890966 0.111275 0.133263 0.15506 0.176666 0.198081 0.219305 0.240338 0.261181 0.281736 0.301907 0.321694 0.341098 0.360118 0.378754 0.397006 0.414874 0.432206 0.448849 0.464802 0.480066 0.494641 0.508527 0.521723 0.53423 0.54606 0.557225 0.567727 0.577563 0.586736 0.595244 0.603088 0.610267 0.616881 0.623029 0.628711 0.633927 0.638676 0.64296 0.646777 0.650128 0.653118 0.655851 0.658328 0.660548 0.662511 0.664218 0.665669 0.666863 0.667862 0.668728 0.66946 0.67006 0.670526 0.670859 0.671059 0.671125 0.671059 0.670859 0.670526 0.67006 0.669461 0.668728 0.667862 0.666863 0.66567 0.664219 0.662512 0.660549 0.658329 0.655853 0.653119 0.65013 0.646779 0.642962 0.638678 0.633929 0.628714 0.623032 0.616884 0.610271 0.603092 0.595248 0.586741 0.577568 0.567732 0.557231 0.546066 0.534236 0.52173 0.508534 0.494649 0.480074 0.464811 0.448858 0.432216 0.414884 0.397016 0.378764 0.360129 0.341109 0.321706 0.301919 0.281748 0.261193 0.240351 0.219318 0.198094 0.176678 0.155071 0.133273 0.111284 0.0891037 0.06822 0.0501208 0.0348061 0.0222759 0.0125302 0.00556898 0.00139225 0 0 0.00158633 0.00634533 0.014277 0.0253813 0.0396583 0.057108 0.0777303 0.101525 0.126795 0.151842 0.176665 0.201266 0.225643 0.249797 0.273728 0.297435 0.320811 0.343744 0.366236 0.388286 0.409894 0.43106 0.451784 0.472067 0.491735 0.510616 0.52871 0.546017 0.562537 0.57827 0.593215 0.607374 0.620761 0.633393 0.645269 0.656391 0.666757 0.676368 0.685223 0.693323 0.700782 0.707712 0.714116 0.719991 0.725339 0.730159 0.734452 0.738217 0.741574 0.744642 0.747421 0.749911 0.752112 0.754024 0.755648 0.756982 0.758098 0.759065 0.759884 0.760553 0.761074 0.761446 0.761669 0.761744 0.761669 0.761446 0.761074 0.760554 0.759884 0.759066 0.758099 0.756983 0.755649 0.754025 0.752113 0.749912 0.747422 0.744643 0.741576 0.738219 0.734454 0.730162 0.725342 0.719994 0.714119 0.707716 0.700785 0.693327 0.685227 0.676372 0.666762 0.656396 0.645275 0.633399 0.620768 0.607381 0.593223 0.578278 0.562545 0.546026 0.52872 0.510626 0.491746 0.472078 0.451796 0.431072 0.409906 0.388298 0.366249 0.343758 0.320825 0.29745 0.273742 0.249811 0.225657 0.201279 0.176678 0.151853 0.126805 0.101533 0.0777364 0.0571125 0.0396614 0.0253833 0.0142781 0.00634583 0.00158646 0 0 0.00177889 0.00711558 0.0160101 0.0284623 0.0444724 0.0640402 0.0871659 0.113849 0.142183 0.17026 0.198079 0.225642 0.252947 0.279995 0.306786 0.33332 0.359475 0.385129 0.410282 0.434934 0.459085 0.482736 0.505885 0.528533 0.550489 0.571559 0.591746 0.611047 0.629464 0.646996 0.663644 0.679406 0.694304 0.708358 0.721566 0.73393 0.745448 0.756122 0.765951 0.774935 0.783203 0.790884 0.797977 0.804482 0.810401 0.815731 0.820475 0.824631 0.828333 0.831716 0.834779 0.837523 0.839947 0.842051 0.843836 0.845301 0.846525 0.847585 0.848482 0.849217 0.849788 0.850196 0.85044 0.850522 0.850441 0.850196 0.849788 0.849217 0.848483 0.847586 0.846525 0.845302 0.843837 0.842052 0.839948 0.837524 0.834781 0.831718 0.828335 0.824633 0.820477 0.815734 0.810404 0.804486 0.79798 0.790887 0.783207 0.77494 0.765956 0.756127 0.745454 0.733936 0.721573 0.708365 0.694312 0.679414 0.663652 0.647005 0.629473 0.611057 0.591756 0.571571 0.5505 0.528545 0.505898 0.482749 0.459099 0.434948 0.410297 0.385144 0.359491 0.333336 0.306802 0.280011 0.252963 0.225657 0.198093 0.170272 0.142194 0.113858 0.0871725 0.0640451 0.0444758 0.0284645 0.0160113 0.00711612 0.00177903 0 0 0.00196982 0.00787928 0.0177284 0.0315171 0.0492455 0.0709135 0.0965211 0.126068 0.157439 0.188517 0.219302 0.249794 0.279994 0.3099 0.339514 0.368835 0.397729 0.426062 0.453833 0.481044 0.507693 0.533781 0.559308 0.584273 0.608467 0.631679 0.653909 0.675157 0.695422 0.714706 0.733008 0.750328 0.76669 0.78212 0.796616 0.81018 0.82281 0.834507 0.845272 0.855103 0.864146 0.872542 0.880294 0.8874 0.89386 0.899675 0.904845 0.909369 0.913397 0.917075 0.920404 0.923385 0.926016 0.928299 0.930233 0.931818 0.933141 0.934287 0.935256 0.93605 0.936667 0.937108 0.937372 0.937461 0.937373 0.937108 0.936667 0.93605 0.935257 0.934287 0.933141 0.931819 0.930234 0.9283 0.926018 0.923386 0.920406 0.917077 0.913399 0.909372 0.904848 0.899678 0.893864 0.887403 0.880298 0.872547 0.86415 0.855108 0.845277 0.834513 0.822816 0.810186 0.796623 0.782127 0.766699 0.750337 0.733017 0.714716 0.695433 0.675168 0.65392 0.631691 0.60848 0.584286 0.559321 0.533795 0.507708 0.481059 0.453849 0.426078 0.397746 0.368852 0.339532 0.309918 0.280011 0.24981 0.219317 0.188531 0.157451 0.126078 0.0965284 0.0709188 0.0492492 0.0315195 0.0177297 0.00787987 0.00196997 0 0 0.00215911 0.00863642 0.019432 0.0345457 0.0539776 0.0777278 0.105796 0.138183 0.172563 0.206614 0.240334 0.273724 0.306783 0.339512 0.371911 0.40398 0.435573 0.466542 0.49689 0.526614 0.555716 0.584196 0.612052 0.639287 0.66567 0.690974 0.715199 0.738346 0.760412 0.7814 0.801309 0.820139 0.837919 0.854679 0.87042 0.885141 0.898842 0.911524 0.923186 0.933828 0.943609 0.952689 0.961067 0.968744 0.975718 0.981991 0.987563 0.992433 0.996763 1.00072 1.0043 1.0075 1.01032 1.01277 1.01484 1.01653 1.01795 1.01917 1.02021 1.02105 1.02171 1.02218 1.02247 1.02256 1.02247 1.02218 1.02171 1.02105 1.02021 1.01917 1.01795 1.01653 1.01484 1.01277 1.01032 1.0075 1.0043 1.00072 0.996766 0.992435 0.987566 0.981995 0.975722 0.968747 0.961071 0.952694 0.943614 0.933833 0.923192 0.91153 0.898849 0.885148 0.870428 0.854688 0.837928 0.820148 0.801319 0.781411 0.760424 0.738357 0.715212 0.690987 0.665684 0.639301 0.612067 0.584211 0.555732 0.526631 0.496907 0.46656 0.435591 0.403999 0.37193 0.339531 0.306801 0.273741 0.24035 0.206628 0.172576 0.138193 0.105804 0.0777335 0.0539816 0.0345482 0.0194334 0.00863706 0.00215926 0 0 0.00234676 0.00938702 0.0211208 0.0375481 0.0586689 0.0844832 0.114991 0.150192 0.187556 0.22455 0.261174 0.297429 0.333315 0.368831 0.403978 0.438755 0.473006 0.506571 0.539451 0.571645 0.603155 0.63398 0.664119 0.693574 0.722098 0.749446 0.775618 0.800614 0.824434 0.847078 0.868546 0.888838 0.90799 0.926036 0.942978 0.958814 0.973545 0.987172 0.999693 1.01111 1.02159 1.03132 1.0403 1.04851 1.05597 1.06268 1.06863 1.07382 1.07843 1.08264 1.08645 1.08986 1.09286 1.09546 1.09765 1.09945 1.10094 1.10224 1.10333 1.10423 1.10492 1.10542 1.10572 1.10582 1.10572 1.10542 1.10492 1.10423 1.10333 1.10224 1.10094 1.09945 1.09766 1.09546 1.09286 1.08986 1.08645 1.08265 1.07844 1.07382 1.06863 1.06268 1.05598 1.04852 1.0403 1.03133 1.0216 1.01111 0.999699 0.987178 0.973552 0.958822 0.942986 0.926045 0.907999 0.888848 0.868557 0.847089 0.824446 0.800626 0.775631 0.74946 0.722112 0.693589 0.664135 0.633996 0.603172 0.571663 0.539469 0.506589 0.473025 0.438775 0.403998 0.368851 0.333334 0.297448 0.261191 0.224565 0.187569 0.150203 0.114999 0.0844893 0.0586731 0.0375508 0.0211223 0.0093877 0.00234692 0 0 0.0025319 0.0101276 0.0227871 0.0405103 0.0632974 0.0911482 0.124063 0.162041 0.202347 0.242242 0.281727 0.320802 0.359468 0.397723 0.435568 0.473003 0.509859 0.545966 0.581324 0.615934 0.649795 0.682908 0.715271 0.746886 0.777491 0.806823 0.834883 0.86167 0.887185 0.911427 0.934397 0.956095 0.976562 0.995841 1.01393 1.03083 1.04654 1.06107 1.0744 1.08655 1.0977 1.10804 1.11757 1.12629 1.1342 1.14131 1.14761 1.15309 1.15797 1.16241 1.16643 1.17002 1.17318 1.17591 1.17822 1.1801 1.18166 1.18302 1.18416 1.1851 1.18583 1.18635 1.18666 1.18677 1.18666 1.18635 1.18583 1.1851 1.18416 1.18302 1.18166 1.1801 1.17822 1.17591 1.17318 1.17002 1.16643 1.16241 1.15797 1.1531 1.14761 1.14131 1.13421 1.12629 1.11757 1.10804 1.0977 1.08656 1.07441 1.06107 1.04655 1.03084 1.01394 0.99585 0.976572 0.956106 0.934409 0.911439 0.887197 0.861683 0.834897 0.806838 0.777506 0.746902 0.715288 0.682925 0.649813 0.615953 0.581344 0.545986 0.509879 0.473024 0.435589 0.397744 0.359488 0.320822 0.281745 0.242258 0.202361 0.162053 0.124072 0.0911547 0.0633018 0.0405132 0.0227887 0.0101283 0.00253207 0 0 0.00271365 0.0108546 0.0244229 0.0434184 0.0678413 0.0976915 0.132969 0.173674 0.216866 0.259607 0.301896 0.343734 0.385119 0.426053 0.466535 0.506565 0.545963 0.584548 0.622319 0.659277 0.695421 0.730753 0.765271 0.798975 0.831589 0.862835 0.892713 0.921222 0.948363 0.974137 0.998541 1.02158 1.0433 1.06374 1.08292 1.10083 1.11746 1.13283 1.14693 1.15975 1.17152 1.18242 1.19246 1.20165 1.20998 1.21745 1.22406 1.22982 1.23492 1.23957 1.24377 1.24752 1.25082 1.25367 1.25608 1.25803 1.25965 1.26105 1.26224 1.26321 1.26397 1.26451 1.26483 1.26494 1.26484 1.26451 1.26397 1.26321 1.26224 1.26105 1.25965 1.25803 1.25608 1.25367 1.25082 1.24752 1.24377 1.23957 1.23492 1.22982 1.22407 1.21745 1.20998 1.20166 1.19247 1.18242 1.17152 1.15976 1.14693 1.13284 1.11747 1.10084 1.08293 1.06375 1.04331 1.02159 0.998553 0.974149 0.948377 0.921236 0.892727 0.86285 0.831605 0.798992 0.765288 0.730771 0.69544 0.659297 0.622339 0.584569 0.545985 0.506587 0.466557 0.426075 0.385141 0.343754 0.301915 0.259624 0.216881 0.173686 0.132978 0.0976982 0.067846 0.0434214 0.0244246 0.0108554 0.00271384 0 0 0.00289203 0.0115681 0.0260282 0.0462724 0.0723007 0.104113 0.141709 0.18509 0.231115 0.276645 0.321681 0.366223 0.41027 0.453822 0.496879 0.539442 0.581319 0.622316 0.662434 0.701674 0.740034 0.777515 0.814118 0.849841 0.884393 0.917482 0.949108 0.97927 1.00797 1.03521 1.06098 1.08529 1.10819 1.12974 1.14995 1.1688 1.18631 1.20246 1.21727 1.23072 1.24305 1.25447 1.26499 1.2746 1.2833 1.2911 1.298 1.30398 1.30928 1.31411 1.31848 1.32237 1.32579 1.32874 1.33122 1.33323 1.3349 1.33634 1.33756 1.33856 1.33934 1.3399 1.34023 1.34034 1.34023 1.3399 1.33934 1.33856 1.33756 1.33634 1.3349 1.33323 1.33122 1.32874 1.32579 1.32237 1.31848 1.31412 1.30929 1.30399 1.298 1.29111 1.28331 1.2746 1.26499 1.25448 1.24306 1.23073 1.21727 1.20247 1.18631 1.16881 1.14996 1.12975 1.1082 1.0853 1.06099 1.03522 1.00798 0.979285 0.949123 0.917498 0.88441 0.849859 0.814136 0.777534 0.740054 0.701694 0.662455 0.622338 0.581341 0.539465 0.496903 0.453845 0.410292 0.366244 0.321701 0.276663 0.23113 0.185102 0.141719 0.10412 0.0723055 0.0462755 0.02603 0.0115689 0.00289222 0 0 0.00306702 0.0122681 0.0276032 0.0490723 0.0766755 0.110413 0.150284 0.196289 0.245092 0.293357 0.341083 0.38827 0.434919 0.481029 0.526601 0.571634 0.615925 0.659271 0.70167 0.743124 0.783633 0.823195 0.861812 0.899483 0.935903 0.970764 1.00407 1.03581 1.066 1.09463 1.12171 1.14722 1.17125 1.19384 1.21501 1.23475 1.25307 1.26996 1.28542 1.29945 1.3123 1.32419 1.33514 1.34513 1.35418 1.36227 1.36941 1.3756 1.38107 1.38606 1.39055 1.39456 1.39808 1.40111 1.40366 1.40571 1.40741 1.40888 1.41013 1.41115 1.41194 1.41251 1.41285 1.41296 1.41285 1.41251 1.41194 1.41115 1.41013 1.40888 1.40741 1.40571 1.40366 1.40111 1.39808 1.39456 1.39055 1.38606 1.38107 1.3756 1.36941 1.36227 1.35418 1.34514 1.33514 1.3242 1.31231 1.29946 1.28543 1.26997 1.25308 1.23476 1.21502 1.19385 1.17126 1.14723 1.12172 1.09465 1.06602 1.03583 1.00408 0.970781 0.93592 0.899502 0.861831 0.823215 0.783653 0.743146 0.701692 0.659293 0.615948 0.571658 0.526625 0.481053 0.434942 0.388292 0.341103 0.293375 0.245108 0.196302 0.150294 0.11042 0.0766805 0.0490755 0.027605 0.0122689 0.00306722 0 0 0.00323863 0.0129545 0.0291477 0.0518181 0.0809658 0.116591 0.158693 0.207272 0.258799 0.309741 0.3601 0.409876 0.459067 0.507676 0.5557 0.603141 0.649783 0.695412 0.740027 0.783629 0.826218 0.867793 0.908354 0.947902 0.986118 1.02268 1.05759 1.09086 1.12246 1.15242 1.18073 1.20738 1.23246 1.25604 1.27811 1.29868 1.31775 1.33532 1.35139 1.36595 1.37926 1.39159 1.40292 1.41325 1.42259 1.43094 1.4383 1.44466 1.45028 1.45539 1.45999 1.4641 1.4677 1.47079 1.47338 1.47547 1.47719 1.47868 1.47994 1.48097 1.48177 1.48235 1.48269 1.48281 1.48269 1.48235 1.48177 1.48097 1.47994 1.47868 1.47719 1.47547 1.47338 1.47079 1.4677 1.4641 1.46 1.45539 1.45028 1.44467 1.4383 1.43095 1.4226 1.41326 1.40292 1.39159 1.37927 1.36596 1.35139 1.33533 1.31776 1.29869 1.27812 1.25605 1.23247 1.2074 1.18074 1.15244 1.12248 1.09087 1.05761 1.0227 0.986136 0.947921 0.908374 0.867813 0.826239 0.783651 0.74005 0.695435 0.649807 0.603165 0.555725 0.5077 0.459091 0.409898 0.360121 0.30976 0.258815 0.207286 0.158703 0.116598 0.0809709 0.0518214 0.0291495 0.0129553 0.00323884 0 0 0.00340686 0.0136274 0.0306617 0.0545097 0.0851714 0.122647 0.166936 0.218039 0.272234 0.325799 0.378734 0.431039 0.482715 0.53376 0.584176 0.633962 0.682892 0.73074 0.777505 0.823188 0.867789 0.911308 0.953744 0.995098 1.03504 1.07323 1.10969 1.14439 1.17735 1.20857 1.23804 1.26577 1.29184 1.31633 1.33925 1.36059 1.38036 1.39855 1.41517 1.43021 1.44395 1.45665 1.46832 1.47896 1.48856 1.49713 1.50467 1.51117 1.5169 1.52211 1.52681 1.53098 1.53464 1.53778 1.5404 1.5425 1.54423 1.54572 1.54699 1.54803 1.54884 1.54941 1.54976 1.54987 1.54976 1.54941 1.54884 1.54803 1.54699 1.54573 1.54423 1.5425 1.5404 1.53778 1.53464 1.53098 1.52681 1.52212 1.5169 1.51118 1.50467 1.49714 1.48856 1.47896 1.46832 1.45666 1.44395 1.43022 1.41518 1.39856 1.38037 1.3606 1.33926 1.31634 1.29185 1.26578 1.23806 1.20859 1.17737 1.14441 1.1097 1.07325 1.03506 0.995117 0.953764 0.911328 0.867811 0.823211 0.777528 0.730763 0.682916 0.633987 0.584201 0.533785 0.482739 0.431062 0.378755 0.325818 0.27225 0.218052 0.166946 0.122654 0.0851767 0.0545131 0.0306636 0.0136283 0.00340707 0 0 0.0035717 0.0142868 0.0321453 0.0571472 0.0892926 0.128581 0.175013 0.228589 0.285398 0.341529 0.396984 0.451761 0.505861 0.559284 0.61203 0.664098 0.715252 0.765254 0.814104 0.861801 0.908347 0.95374 0.997981 1.04107 1.08266 1.12242 1.16034 1.19642 1.23067 1.26308 1.29365 1.32239 1.34938 1.37473 1.39843 1.42048 1.44089 1.45965 1.47676 1.49223 1.50634 1.51938 1.53135 1.54225 1.55207 1.56083 1.56852 1.57513 1.58094 1.58623 1.59098 1.59521 1.5989 1.60207 1.6047 1.60681 1.60853 1.61002 1.61129 1.61232 1.61313 1.6137 1.61405 1.61416 1.61405 1.6137 1.61313 1.61232 1.61129 1.61003 1.60853 1.60681 1.6047 1.60207 1.5989 1.59521 1.59099 1.58623 1.58095 1.57513 1.56852 1.56083 1.55208 1.54225 1.53135 1.51939 1.50635 1.49224 1.47677 1.45966 1.4409 1.42049 1.39844 1.37474 1.34939 1.3224 1.29367 1.26309 1.23069 1.19644 1.16036 1.12244 1.08268 1.04109 0.998001 0.953761 0.908369 0.861824 0.814127 0.765278 0.715277 0.664123 0.612055 0.559309 0.505885 0.451784 0.397005 0.341549 0.285414 0.228603 0.175024 0.128589 0.0892979 0.0571507 0.0321472 0.0142877 0.00357192 0 0 0.00373317 0.0149327 0.0335985 0.0597307 0.0933291 0.134394 0.182925 0.238923 0.29829 0.356933 0.414849 0.472041 0.528506 0.584246 0.63926 0.693549 0.746863 0.798955 0.849823 0.899468 0.94789 0.99509 1.04107 1.08582 1.129 1.17024 1.20956 1.24695 1.28242 1.31595 1.34755 1.37723 1.40508 1.43122 1.45564 1.47835 1.49934 1.51861 1.53617 1.55202 1.56645 1.57978 1.59201 1.60312 1.61313 1.62204 1.62984 1.63653 1.64241 1.64774 1.65253 1.65678 1.66049 1.66366 1.6663 1.66839 1.6701 1.67158 1.67283 1.67386 1.67465 1.67522 1.67556 1.67568 1.67556 1.67522 1.67465 1.67386 1.67283 1.67158 1.6701 1.66839 1.6663 1.66367 1.66049 1.65678 1.65253 1.64774 1.64241 1.63654 1.62984 1.62204 1.61314 1.60313 1.59201 1.57979 1.56646 1.55203 1.53618 1.51862 1.49935 1.47836 1.45565 1.43123 1.40509 1.37724 1.34757 1.31596 1.28243 1.24697 1.20958 1.17026 1.12901 1.08584 1.04109 0.995111 0.947913 0.899491 0.849847 0.798979 0.746888 0.693575 0.639286 0.584272 0.528531 0.472064 0.414871 0.356952 0.298307 0.238936 0.182936 0.134402 0.0933345 0.0597341 0.0336004 0.0149335 0.00373338 0 0 0.00388986 0.0155594 0.0350087 0.0622377 0.0972464 0.140035 0.190603 0.248951 0.310801 0.371877 0.432179 0.491706 0.550458 0.608436 0.66564 0.722069 0.777464 0.831565 0.884371 0.935883 0.986102 1.03503 1.08266 1.12899 1.17367 1.21633 1.25697 1.29559 1.3322 1.36678 1.39934 1.42989 1.45854 1.4854 1.51048 1.53378 1.5553 1.57504 1.59299 1.60917 1.62388 1.63745 1.64989 1.66119 1.67135 1.68037 1.68826 1.695 1.7009 1.70626 1.71106 1.71532 1.71903 1.7222 1.72481 1.72688 1.72856 1.73002 1.73125 1.73226 1.73304 1.73361 1.73394 1.73405 1.73394 1.73361 1.73304 1.73226 1.73125 1.73002 1.72856 1.72688 1.72481 1.7222 1.71903 1.71532 1.71107 1.70626 1.70091 1.695 1.68826 1.68038 1.67135 1.66119 1.6499 1.63746 1.62389 1.60917 1.593 1.57505 1.55531 1.53379 1.51049 1.48541 1.45855 1.4299 1.39936 1.36679 1.33221 1.29561 1.25699 1.21635 1.17369 1.12901 1.08268 1.03505 0.986124 0.935907 0.884395 0.831589 0.777489 0.722095 0.665666 0.608462 0.550483 0.491729 0.432201 0.371897 0.310818 0.248965 0.190614 0.140043 0.0972518 0.0622412 0.0350107 0.0155603 0.00389007 0 0 0.00404038 0.0161615 0.0363634 0.0646461 0.10101 0.145454 0.197979 0.258584 0.322819 0.38623 0.448819 0.510584 0.571526 0.631645 0.690941 0.749413 0.806792 0.862806 0.917456 0.970741 1.02266 1.07322 1.12241 1.17023 1.21633 1.26031 1.30219 1.34196 1.37962 1.41518 1.44863 1.47998 1.50934 1.53687 1.56255 1.58638 1.60837 1.62851 1.64681 1.66327 1.67821 1.69199 1.70461 1.71605 1.72632 1.73543 1.74337 1.75014 1.75605 1.76141 1.76621 1.77046 1.77415 1.77729 1.77988 1.78191 1.78355 1.78498 1.78619 1.78717 1.78794 1.78849 1.78882 1.78893 1.78882 1.78849 1.78794 1.78717 1.78619 1.78498 1.78355 1.78191 1.77988 1.77729 1.77415 1.77046 1.76621 1.76141 1.75605 1.75014 1.74337 1.73544 1.72633 1.71605 1.70461 1.692 1