<?xml version="1.0"?> 
<VTKFile type="StructuredGrid" version="0.1"> 
<StructuredGrid WholeExtent="0 128 0 128 0 0"> 
<Piece Extent="0 128 0 128 0 0"> 
<PointData>
<DataArray type="Float32" Name="u" format="ascii" NumberOfComponents="1"> 
0 0 0 0 0 0 0 0 0 0 0 0 0 0 0 0 0 0 0 0 0 0 0 0 0 0 0 0 0 0 0 0 0 0 0 0 0 0 0 0 0 0 0 0 0 0 0 0 0 0 0 0 0 0 0 0 0 0 0 0 0 0 0 0 0 0 0 0 0 0 0 0 0 0 0 0 0 0 0 0 0 0 0 0 0 0 0 0 0 0 0 0 0 0 0 0 0 0 0 0 0 0 0 0 0 0 0 0 0 0 0 0 0 0 0 0 0 0 0 0 0 0 0 0 0 0 0 0 0 0 6.66505e-08 2.66602e-07 5.99854e-07 1.06641e-06 1.66626e-06 2.39942e-06 3.26587e-06 4.26563e-06 5.14974e-06 5.66924e-06 5.82415e-06 5.61444e-06 5.04014e-06 4.10124e-06 2.79773e-06 1.12962e-06 -9.56158e-07 -3.51267e-06 -6.53991e-06 -1.00379e-05 -1.40066e-05 -1.8446e-05 -2.33562e-05 -2.87371e-05 -3.45383e-05 -4.07094e-05 -4.72503e-05 -5.4161e-05 -6.14416e-05 -6.9092e-05 -7.71123e-05 -8.55024e-05 -9.4106e-05 -0.000102767 -0.000111484 -0.000120259 -0.000129091 -0.00013798 -0.000146926 -0.00015593 -0.000164834 -0.000173483 -0.000181877 -0.000190016 -0.000197899 -0.000205527 -0.000212901 -0.000220019 -0.0002268 -0.000233163 -0.000239107 -0.000244634 -0.000249742 -0.000254432 -0.000258703 -0.000262556 -0.000265972 -0.000268933 -0.000271438 -0.000273488 -0.000275082 -0.000276221 -0.000276904 -0.000277132 -0.000276904 -0.000276221 -0.000275082 -0.000273488 -0.000271438 -0.000268933 -0.000265972 -0.000262556 -0.000258703 -0.000254432 -0.000249742 -0.000244634 -0.000239107 -0.000233163 -0.0002268 -0.000220019 -0.000212901 -0.000205527 -0.000197899 -0.000190016 -0.000181877 -0.000173483 -0.000164834 -0.00015593 -0.000146926 -0.00013798 -0.000129091 -0.000120259 -0.000111484 -0.000102767 -9.4106e-05 -8.55024e-05 -7.71123e-05 -6.9092e-05 -6.14416e-05 -5.4161e-05 -4.72503e-05 -4.07094e-05 -3.45383e-05 -2.87371e-05 -2.33562e-05 -1.8446e-05 -1.40066e-05 -1.00379e-05 -6.53991e-06 -3.51267e-06 -9.56159e-07 1.12962e-06 2.79773e-06 4.10124e-06 5.04014e-06 5.61444e-06 5.82414e-06 5.66924e-06 5.14974e-06 4.26563e-06 3.26587e-06 2.39942e-06 1.66626e-06 1.06641e-06 5.99854e-07 2.66602e-07 6.66505e-08 0 0 2.66602e-07 1.06641e-06 2.39942e-06 4.26563e-06 6.66505e-06 9.59767e-06 1.30635e-05 1.70625e-05 2.0599e-05 2.2677e-05 2.32966e-05 2.24578e-05 2.01606e-05 1.64049e-05 1.11909e-05 4.51848e-06 -3.82463e-06 -1.40507e-05 -2.61597e-05 -4.01516e-05 -5.60264e-05 -7.37842e-05 -9.34249e-05 -0.000114949 -0.000138153 -0.000162838 -0.000189001 -0.000216644 -0.000245766 -0.000276368 -0.000308449 -0.00034201 -0.000376424 -0.000411067 -0.000445938 -0.000481037 -0.000516365 -0.000551921 -0.000587706 -0.000623719 -0.000659336 -0.000693932 -0.000727507 -0.000760062 -0.000791596 -0.00082211 -0.000851602 -0.000880074 -0.0009072 -0.000932651 -0.00095643 -0.000978535 -0.000998968 -0.00101773 -0.00103481 -0.00105022 -0.00106389 -0.00107573 -0.00108575 -0.00109395 -0.00110033 -0.00110488 -0.00110762 -0.00110853 -0.00110762 -0.00110488 -0.00110033 -0.00109395 -0.00108575 -0.00107573 -0.00106389 -0.00105022 -0.00103481 -0.00101773 -0.000998968 -0.000978535 -0.00095643 -0.000932651 -0.0009072 -0.000880074 -0.000851602 -0.00082211 -0.000791596 -0.000760062 -0.000727507 -0.000693932 -0.000659336 -0.000623719 -0.000587706 -0.000551921 -0.000516365 -0.000481037 -0.000445938 -0.000411067 -0.000376424 -0.00034201 -0.000308449 -0.000276368 -0.000245766 -0.000216644 -0.000189001 -0.000162838 -0.000138153 -0.000114949 -9.34249e-05 -7.37842e-05 -5.60264e-05 -4.01516e-05 -2.61597e-05 -1.40507e-05 -3.82464e-06 4.51847e-06 1.11909e-05 1.64049e-05 2.01606e-05 2.24578e-05 2.32966e-05 2.2677e-05 2.0599e-05 1.70625e-05 1.30635e-05 9.59767e-06 6.66505e-06 4.26563e-06 2.39942e-06 1.06641e-06 2.66602e-07 0 0 5.99854e-07 2.39942e-06 5.39869e-06 9.59767e-06 1.49964e-05 2.15948e-05 2.93929e-05 3.83907e-05 4.63476e-05 5.10232e-05 5.24173e-05 5.053e-05 4.53613e-05 3.69111e-05 2.51796e-05 1.01666e-05 -8.60542e-06 -3.1614e-05 -5.88592e-05 -9.0341e-05 -0.000126059 -0.000166014 -0.000210206 -0.000258634 -0.000310845 -0.000366384 -0.000425252 -0.000487449 -0.000552974 -0.000621828 -0.000694011 -0.000769522 -0.000846954 -0.0009249 -0.00100336 -0.00108233 -0.00116182 -0.00124182 -0.00132234 -0.00140337 -0.00148351 -0.00156135 -0.00163689 -0.00171014 -0.00178109 -0.00184975 -0.00191611 -0.00198017 -0.0020412 -0.00209847 -0.00215197 -0.0022017 -0.00224768 -0.00228988 -0.00232833 -0.00236301 -0.00239375 -0.0024204 -0.00244295 -0.00246139 -0.00247574 -0.00248599 -0.00249214 -0.00249419 -0.00249214 -0.00248599 -0.00247574 -0.00246139 -0.00244295 -0.0024204 -0.00239375 -0.00236301 -0.00232833 -0.00228988 -0.00224768 -0.0022017 -0.00215197 -0.00209847 -0.0020412 -0.00198017 -0.00191611 -0.00184975 -0.00178109 -0.00171014 -0.00163689 -0.00156135 -0.00148351 -0.00140337 -0.00132234 -0.00124182 -0.00116182 -0.00108233 -0.00100336 -0.0009249 -0.000846954 -0.000769522 -0.000694011 -0.000621828 -0.000552974 -0.000487449 -0.000425252 -0.000366384 -0.000310845 -0.000258634 -0.000210206 -0.000166014 -0.000126059 -9.0341e-05 -5.88592e-05 -3.1614e-05 -8.60543e-06 1.01666e-05 2.51796e-05 3.69111e-05 4.53613e-05 5.053e-05 5.24173e-05 5.10232e-05 4.63476e-05 3.83907e-05 2.93929e-05 2.15948e-05 1.49964e-05 9.59767e-06 5.39869e-06 2.39942e-06 5.99854e-07 0 0 1.06641e-06 4.26563e-06 9.59767e-06 1.70625e-05 2.66602e-05 3.83907e-05 5.2254e-05 6.82501e-05 8.23958e-05 9.07079e-05 9.31863e-05 8.98311e-05 8.06423e-05 6.56198e-05 4.47637e-05 1.80739e-05 -1.52985e-05 -5.62027e-05 -0.000104639 -0.000160606 -0.000224106 -0.000295137 -0.0003737 -0.000459794 -0.000552613 -0.00065135 -0.000756004 -0.000866576 -0.000983065 -0.00110547 -0.0012338 -0.00136804 -0.0015057 -0.00164427 -0.00178375 -0.00192415 -0.00206546 -0.00220769 -0.00235082 -0.00249488 -0.00263734 -0.00277573 -0.00291003 -0.00304025 -0.00316639 -0.00328844 -0.00340641 -0.0035203 -0.0036288 -0.00373061 -0.00382572 -0.00391414 -0.00399587 -0.00407091 -0.00413925 -0.0042009 -0.00425556 -0.00430293 -0.00434301 -0.00437581 -0.00440132 -0.00441954 -0.00443047 -0.00443411 -0.00443047 -0.00441954 -0.00440132 -0.00437581 -0.00434301 -0.00430293 -0.00425556 -0.0042009 -0.00413925 -0.00407091 -0.00399587 -0.00391414 -0.00382572 -0.00373061 -0.0036288 -0.0035203 -0.00340641 -0.00328844 -0.00316639 -0.00304025 -0.00291003 -0.00277573 -0.00263734 -0.00249488 -0.00235082 -0.00220769 -0.00206546 -0.00192415 -0.00178375 -0.00164427 -0.0015057 -0.00136804 -0.0012338 -0.00110547 -0.000983065 -0.000866576 -0.000756004 -0.00065135 -0.000552613 -0.000459794 -0.0003737 -0.000295137 -0.000224106 -0.000160606 -0.000104639 -5.62027e-05 -1.52985e-05 1.80739e-05 4.47637e-05 6.56198e-05 8.06423e-05 8.98311e-05 9.31863e-05 9.07079e-05 8.23958e-05 6.82501e-05 5.2254e-05 3.83907e-05 2.66602e-05 1.70625e-05 9.59767e-06 4.26563e-06 1.06641e-06 0 0 1.66626e-06 6.66505e-06 1.49964e-05 2.66602e-05 4.16566e-05 5.99854e-05 8.16469e-05 0.000106641 0.000128743 0.000141731 0.000145604 0.000140361 0.000126004 0.000102531 6.99432e-05 2.82405e-05 -2.39039e-05 -8.78167e-05 -0.000163498 -0.000250947 -0.000350165 -0.000461151 -0.000583906 -0.000718428 -0.000863458 -0.00101773 -0.00118126 -0.00135403 -0.00153604 -0.0017273 -0.00192781 -0.00213756 -0.00235265 -0.00256917 -0.00278711 -0.00300648 -0.00322728 -0.00344951 -0.00367316 -0.00389824 -0.00412085 -0.00433707 -0.00454692 -0.00475039 -0.00494748 -0.00513819 -0.00532252 -0.00550047 -0.00567 -0.00582907 -0.00597769 -0.00611585 -0.00624355 -0.00636079 -0.00646758 -0.0065639 -0.00664931 -0.00672333 -0.00678596 -0.0068372 -0.00687706 -0.00690553 -0.00692261 -0.0069283 -0.00692261 -0.00690553 -0.00687706 -0.0068372 -0.00678596 -0.00672333 -0.00664931 -0.0065639 -0.00646758 -0.00636079 -0.00624355 -0.00611585 -0.00597769 -0.00582907 -0.00567 -0.00550047 -0.00532252 -0.00513819 -0.00494748 -0.00475039 -0.00454692 -0.00433707 -0.00412085 -0.00389824 -0.00367316 -0.00344951 -0.00322728 -0.00300648 -0.00278711 -0.00256917 -0.00235265 -0.00213756 -0.00192781 -0.0017273 -0.00153604 -0.00135403 -0.00118126 -0.00101773 -0.000863458 -0.000718428 -0.000583906 -0.000461151 -0.000350165 -0.000250947 -0.000163498 -8.78167e-05 -2.3904e-05 2.82405e-05 6.99432e-05 0.000102531 0.000126004 0.000140361 0.000145604 0.000141731 0.000128743 0.000106641 8.16469e-05 5.99854e-05 4.16566e-05 2.66602e-05 1.49964e-05 6.66505e-06 1.66626e-06 0 0 2.39942e-06 9.59767e-06 2.15948e-05 3.83907e-05 5.99854e-05 8.6379e-05 0.000117571 0.000153563 0.000185391 0.000204093 0.000209669 0.00020212 0.000181445 0.000147645 0.000100718 4.06663e-05 -3.44217e-05 -0.000126456 -0.000235437 -0.000361364 -0.000504238 -0.000664058 -0.000840824 -0.00103454 -0.00124338 -0.00146554 -0.00170101 -0.0019498 -0.0022119 -0.00248731 -0.00277604 -0.00307809 -0.00338782 -0.0036996 -0.00401344 -0.00432934 -0.00464729 -0.00496729 -0.00528935 -0.00561347 -0.00593402 -0.00624539 -0.00654757 -0.00684056 -0.00712437 -0.00739899 -0.00766442 -0.00792067 -0.0081648 -0.00839386 -0.00860787 -0.00880682 -0.00899071 -0.00915954 -0.00931331 -0.00945202 -0.00957501 -0.00968159 -0.00977178 -0.00984557 -0.00990296 -0.00994396 -0.00996855 -0.00997675 -0.00996855 -0.00994396 -0.00990296 -0.00984557 -0.00977178 -0.00968159 -0.00957501 -0.00945202 -0.00931331 -0.00915954 -0.00899071 -0.00880682 -0.00860787 -0.00839386 -0.0081648 -0.00792067 -0.00766442 -0.00739899 -0.00712437 -0.00684056 -0.00654757 -0.00624539 -0.00593402 -0.00561347 -0.00528935 -0.00496729 -0.00464729 -0.00432934 -0.00401344 -0.0036996 -0.00338782 -0.00307809 -0.00277604 -0.00248731 -0.0022119 -0.0019498 -0.00170101 -0.00146554 -0.00124338 -0.00103454 -0.000840824 -0.000664058 -0.000504238 -0.000361364 -0.000235437 -0.000126456 -3.44217e-05 4.06663e-05 0.000100718 0.000147644 0.000181445 0.00020212 0.000209669 0.000204093 0.000185391 0.000153563 0.000117571 8.6379e-05 5.99854e-05 3.83907e-05 2.15948e-05 9.59767e-06 2.39942e-06 0 0 3.26587e-06 1.30635e-05 2.93929e-05 5.2254e-05 8.16469e-05 0.000117571 0.000160028 0.000209016 0.000252337 0.000277793 0.000285383 0.000275108 0.000246967 0.000200961 0.000137089 5.53514e-05 -4.68517e-05 -0.000172121 -0.000320456 -0.000491857 -0.000686323 -0.000903856 -0.00114445 -0.00140812 -0.00169238 -0.00199476 -0.00231526 -0.00265389 -0.00301064 -0.00338551 -0.0037785 -0.00418962 -0.00461119 -0.00503557 -0.00546274 -0.00589271 -0.00632547 -0.00676104 -0.0071994 -0.00764056 -0.00807686 -0.00850067 -0.00891197 -0.00931076 -0.00969705 -0.0100708 -0.0104321 -0.0107809 -0.0111132 -0.011425 -0.0117163 -0.0119871 -0.0122374 -0.0124671 -0.0126764 -0.0128653 -0.0130326 -0.0131777 -0.0133005 -0.0134009 -0.013479 -0.0135348 -0.0135683 -0.0135795 -0.0135683 -0.0135348 -0.013479 -0.0134009 -0.0133005 -0.0131777 -0.0130326 -0.0128653 -0.0126764 -0.0124671 -0.0122374 -0.0119871 -0.0117163 -0.011425 -0.0111132 -0.0107809 -0.0104321 -0.0100708 -0.00969705 -0.00931076 -0.00891197 -0.00850067 -0.00807686 -0.00764056 -0.0071994 -0.00676104 -0.00632547 -0.00589271 -0.00546274 -0.00503557 -0.00461119 -0.00418962 -0.0037785 -0.00338551 -0.00301064 -0.00265389 -0.00231526 -0.00199476 -0.00169238 -0.00140812 -0.00114445 -0.000903856 -0.000686323 -0.000491857 -0.000320456 -0.000172121 -4.68518e-05 5.53513e-05 0.000137089 0.000200961 0.000246967 0.000275108 0.000285383 0.000277793 0.000252337 0.000209016 0.000160028 0.000117571 8.16469e-05 5.2254e-05 2.93929e-05 1.30635e-05 3.26587e-06 0 0 4.26563e-06 1.70625e-05 3.83907e-05 6.82501e-05 0.000106641 0.000153563 0.000209016 0.000273 0.000329583 0.000362832 0.000372745 0.000359324 0.000322569 0.000262479 0.000179055 7.22957e-05 -6.11941e-05 -0.000224811 -0.000418554 -0.000642425 -0.000896422 -0.00118055 -0.0014948 -0.00183918 -0.00221045 -0.0026054 -0.00302402 -0.0034663 -0.00393226 -0.00442189 -0.00493519 -0.00547215 -0.00602278 -0.00657707 -0.007135 -0.0076966 -0.00826184 -0.00883074 -0.0094033 -0.0099795 -0.0105494 -0.0111029 -0.0116401 -0.012161 -0.0126655 -0.0131538 -0.0136256 -0.0140812 -0.0145152 -0.0149224 -0.0153029 -0.0156566 -0.0159835 -0.0162836 -0.016557 -0.0168036 -0.0170222 -0.0172117 -0.0173721 -0.0175032 -0.0176053 -0.0176781 -0.0177219 -0.0177365 -0.0177219 -0.0176781 -0.0176053 -0.0175032 -0.0173721 -0.0172117 -0.0170222 -0.0168036 -0.016557 -0.0162836 -0.0159835 -0.0156566 -0.0153029 -0.0149224 -0.0145152 -0.0140812 -0.0136256 -0.0131538 -0.0126655 -0.012161 -0.0116401 -0.0111029 -0.0105494 -0.0099795 -0.0094033 -0.00883074 -0.00826184 -0.0076966 -0.007135 -0.00657707 -0.00602278 -0.00547215 -0.00493519 -0.00442189 -0.00393226 -0.0034663 -0.00302402 -0.0026054 -0.00221045 -0.00183918 -0.0014948 -0.00118055 -0.000896423 -0.000642425 -0.000418554 -0.000224811 -6.11942e-05 7.22956e-05 0.000179055 0.000262479 0.000322569 0.000359324 0.000372745 0.000362832 0.000329583 0.000273 0.000209016 0.000153563 0.000106641 6.82501e-05 3.83907e-05 1.70625e-05 4.26563e-06 0 0 5.20144e-06 2.08058e-05 4.6813e-05 8.32231e-05 0.000130036 0.000187252 0.000254871 0.000332892 0.000401556 0.000441102 0.000451529 0.000432838 0.000385028 0.0003081 0.000202054 6.68891e-05 -0.000101487 -0.000307167 -0.000550151 -0.000830439 -0.00114803 -0.00150293 -0.00189513 -0.00232463 -0.00278715 -0.00327841 -0.00379841 -0.00434714 -0.00492461 -0.00553082 -0.00616576 -0.00682944 -0.00750927 -0.00819265 -0.00887958 -0.00957007 -0.0102641 -0.0109617 -0.0116629 -0.0123676 -0.0130636 -0.0137389 -0.0143933 -0.0150268 -0.0156395 -0.0162314 -0.0168025 -0.0173527 -0.0178761 -0.0183669 -0.0188248 -0.0192501 -0.0196427 -0.0200025 -0.0203296 -0.0206239 -0.0208846 -0.0211105 -0.0213016 -0.021458 -0.0215796 -0.0216665 -0.0217186 -0.021736 -0.0217186 -0.0216665 -0.0215796 -0.021458 -0.0213016 -0.0211105 -0.0208846 -0.0206239 -0.0203296 -0.0200025 -0.0196427 -0.0192501 -0.0188248 -0.0183669 -0.0178761 -0.0173527 -0.0168025 -0.0162314 -0.0156395 -0.0150268 -0.0143933 -0.0137389 -0.0130636 -0.0123676 -0.0116629 -0.0109617 -0.0102641 -0.00957007 -0.00887958 -0.00819265 -0.00750927 -0.00682944 -0.00616576 -0.00553082 -0.00492461 -0.00434714 -0.00379841 -0.00327841 -0.00278715 -0.00232463 -0.00189513 -0.00150293 -0.00114803 -0.000830439 -0.000550151 -0.000307167 -0.000101487 6.6889e-05 0.000202054 0.0003081 0.000385028 0.000432838 0.000451529 0.000441102 0.000401556 0.000332892 0.000254871 0.000187252 0.000130036 8.32231e-05 4.6813e-05 2.08058e-05 5.20144e-06 0 0 5.87606e-06 2.35043e-05 5.28846e-05 9.4017e-05 0.000146902 0.000211538 0.000287927 0.000376068 0.000452684 0.000494497 0.000501507 0.000473715 0.000411121 0.000313724 0.000181524 1.45214e-05 -0.000191768 -0.000441829 -0.000735662 -0.00107327 -0.00145464 -0.00187979 -0.00234871 -0.0028614 -0.00341203 -0.00399476 -0.00460959 -0.00525651 -0.00593554 -0.00664667 -0.00738991 -0.00816524 -0.00895733 -0.00975086 -0.0105458 -0.0113422 -0.01214 -0.0129392 -0.0137399 -0.014542 -0.0153317 -0.0160953 -0.0168326 -0.0175438 -0.0182288 -0.0188876 -0.0195202 -0.0201266 -0.0207014 -0.0212389 -0.0217393 -0.0222025 -0.0226284 -0.0230172 -0.0233688 -0.0236832 -0.0239605 -0.0242008 -0.0244042 -0.0245705 -0.0247 -0.0247924 -0.0248478 -0.0248663 -0.0248478 -0.0247924 -0.0247 -0.0245705 -0.0244042 -0.0242008 -0.0239605 -0.0236832 -0.0233688 -0.0230172 -0.0226284 -0.0222025 -0.0217393 -0.0212389 -0.0207014 -0.0201266 -0.0195202 -0.0188876 -0.0182288 -0.0175438 -0.0168326 -0.0160953 -0.0153317 -0.014542 -0.0137399 -0.0129392 -0.01214 -0.0113422 -0.0105458 -0.00975086 -0.00895733 -0.00816524 -0.00738991 -0.00664667 -0.00593554 -0.00525651 -0.00460959 -0.00399476 -0.00341203 -0.0028614 -0.00234871 -0.00187979 -0.00145464 -0.00107327 -0.000735662 -0.000441829 -0.000191768 1.45213e-05 0.000181524 0.000313723 0.000411121 0.000473715 0.000501507 0.000494497 0.000452684 0.000376068 0.000287927 0.000211538 0.000146902 9.4017e-05 5.28846e-05 2.35043e-05 5.87606e-06 0 0 6.28949e-06 2.5158e-05 5.66054e-05 0.000100632 0.000157237 0.000226422 0.000308185 0.000402527 0.000482966 0.000523017 0.000522681 0.000481957 0.000400847 0.000279349 0.000117465 -8.48074e-05 -0.000332038 -0.000628799 -0.000975089 -0.00137091 -0.00181626 -0.00231114 -0.00285555 -0.00344949 -0.00408508 -0.00475443 -0.00545754 -0.00619441 -0.00696505 -0.00776945 -0.00860761 -0.00947953 -0.010367 -0.0112517 -0.0121337 -0.013013 -0.0138895 -0.0147634 -0.0156345 -0.0165028 -0.0173537 -0.0181721 -0.0189582 -0.0197119 -0.0204333 -0.0211222 -0.0217788 -0.022403 -0.0229909 -0.0235387 -0.0240462 -0.0245136 -0.0249408 -0.0253278 -0.0256746 -0.0259813 -0.0262499 -0.0264828 -0.0266798 -0.026841 -0.0269663 -0.0270559 -0.0271096 -0.0271275 -0.0271096 -0.0270559 -0.0269663 -0.026841 -0.0266798 -0.0264828 -0.0262499 -0.0259813 -0.0256746 -0.0253278 -0.0249408 -0.0245136 -0.0240462 -0.0235387 -0.0229909 -0.022403 -0.0217788 -0.0211222 -0.0204333 -0.0197119 -0.0189582 -0.0181721 -0.0173537 -0.0165028 -0.0156345 -0.0147634 -0.0138895 -0.013013 -0.0121337 -0.0112517 -0.010367 -0.00947953 -0.00860761 -0.00776945 -0.00696505 -0.00619441 -0.00545754 -0.00475443 -0.00408508 -0.00344949 -0.00285555 -0.00231114 -0.00181626 -0.00137091 -0.000975089 -0.000628799 -0.000332038 -8.48075e-05 0.000117464 0.000279349 0.000400847 0.000481957 0.000522681 0.000523017 0.000482966 0.000402527 0.000308185 0.000226422 0.000157237 0.000100632 5.66054e-05 2.5158e-05 6.28949e-06 0 0 6.44173e-06 2.57669e-05 5.79755e-05 0.000103068 0.000161043 0.000231902 0.000315645 0.000412271 0.000492402 0.000526662 0.000515049 0.000457564 0.000354207 0.000204978 9.87632e-06 -0.000231097 -0.000522296 -0.000868074 -0.00126843 -0.00172337 -0.00223288 -0.00279698 -0.00341565 -0.0040889 -0.0048063 -0.00555743 -0.00634227 -0.00716084 -0.00801313 -0.00889914 -0.00981888 -0.0107723 -0.0117382 -0.0126952 -0.0136432 -0.0145824 -0.0155127 -0.016434 -0.0173465 -0.0182501 -0.0191295 -0.0199695 -0.02077 -0.0215312 -0.022253 -0.0229353 -0.0235783 -0.0241818 -0.0247448 -0.025266 -0.0257456 -0.0261835 -0.0265798 -0.0269343 -0.0272471 -0.0275183 -0.027753 -0.0279563 -0.0281284 -0.0282692 -0.0283787 -0.028457 -0.0285039 -0.0285195 -0.0285039 -0.028457 -0.0283787 -0.0282692 -0.0281284 -0.0279563 -0.027753 -0.0275183 -0.0272471 -0.0269343 -0.0265798 -0.0261835 -0.0257456 -0.025266 -0.0247448 -0.0241818 -0.0235783 -0.0229353 -0.022253 -0.0215312 -0.02077 -0.0199695 -0.0191295 -0.0182501 -0.0173465 -0.016434 -0.0155127 -0.0145824 -0.0136432 -0.0126952 -0.0117382 -0.0107723 -0.00981888 -0.00889914 -0.00801313 -0.00716084 -0.00634227 -0.00555743 -0.0048063 -0.0040889 -0.00341565 -0.00279698 -0.00223288 -0.00172337 -0.00126843 -0.000868074 -0.000522296 -0.000231097 9.87616e-06 0.000204978 0.000354207 0.000457564 0.000515049 0.000526661 0.000492402 0.000412271 0.000315645 0.000231902 0.000161043 0.000103068 5.79755e-05 2.57669e-05 6.44173e-06 0 0 6.33277e-06 2.53311e-05 5.69949e-05 0.000101324 0.000158319 0.00022798 0.000310306 0.000405297 0.000480993 0.000505431 0.000478612 0.000400535 0.0002712 9.06083e-05 -0.000141241 -0.000424348 -0.000762543 -0.00115966 -0.00161569 -0.00213064 -0.00270451 -0.0033373 -0.004029 -0.00477963 -0.0055757 -0.00640376 -0.00726379 -0.0081558 -0.00907979 -0.0100358 -0.0110237 -0.0120436 -0.013071 -0.0140813 -0.0150744 -0.0160505 -0.0170094 -0.0179513 -0.018876 -0.0197836 -0.0206591 -0.0214872 -0.0222681 -0.0230017 -0.0236879 -0.0243269 -0.0249186 -0.025463 -0.0259629 -0.0264211 -0.0268375 -0.0272123 -0.0275453 -0.0278367 -0.0280863 -0.0282942 -0.0284695 -0.0286215 -0.0287501 -0.0288553 -0.0289372 -0.0289956 -0.0290307 -0.0290424 -0.0290307 -0.0289956 -0.0289372 -0.0288553 -0.0287501 -0.0286215 -0.0284695 -0.0282942 -0.0280863 -0.0278367 -0.0275453 -0.0272123 -0.0268375 -0.0264211 -0.0259629 -0.025463 -0.0249186 -0.0243269 -0.0236879 -0.0230017 -0.0222681 -0.0214872 -0.0206591 -0.0197836 -0.018876 -0.0179513 -0.0170094 -0.0160505 -0.0150744 -0.0140813 -0.013071 -0.0120436 -0.0110237 -0.0100358 -0.00907979 -0.0081558 -0.00726379 -0.00640376 -0.0055757 -0.00477963 -0.004029 -0.0033373 -0.00270451 -0.00213064 -0.00161569 -0.00115966 -0.000762543 -0.000424348 -0.000141241 9.06082e-05 0.0002712 0.000400535 0.000478612 0.000505431 0.000480993 0.000405297 0.000310306 0.00022798 0.000158319 0.000101324 5.69949e-05 2.53311e-05 6.33277e-06 0 0 5.96262e-06 2.38505e-05 5.36636e-05 9.5402e-05 0.000149066 0.000214654 0.000292169 0.000381608 0.000448738 0.000459325 0.000413369 0.00031087 0.000151827 -6.37586e-05 -0.000335888 -0.00066456 -0.00105278 -0.00150355 -0.00201686 -0.00259273 -0.00323114 -0.0039321 -0.00469561 -0.00552167 -0.00639328 -0.00729341 -0.00822208 -0.00917929 -0.010165 -0.0111793 -0.0122221 -0.0132934 -0.0143654 -0.01541 -0.0164273 -0.0174172 -0.0183798 -0.0193151 -0.020223 -0.0211036 -0.0219425 -0.0227255 -0.0234524 -0.0241232 -0.0247381 -0.025297 -0.0257998 -0.0262466 -0.0266453 -0.0270037 -0.0273219 -0.0275998 -0.0278375 -0.0280349 -0.0281921 -0.028309 -0.0283997 -0.0284783 -0.0285448 -0.0285993 -0.0286416 -0.0286718 -0.02869 -0.028696 -0.02869 -0.0286718 -0.0286416 -0.0285993 -0.0285448 -0.0284783 -0.0283997 -0.028309 -0.0281921 -0.0280349 -0.0278375 -0.0275998 -0.0273219 -0.0270037 -0.0266453 -0.0262466 -0.0257998 -0.025297 -0.0247381 -0.0241232 -0.0234524 -0.0227255 -0.0219425 -0.0211036 -0.020223 -0.0193151 -0.0183798 -0.0174172 -0.0164273 -0.01541 -0.0143654 -0.0132934 -0.0122221 -0.0111793 -0.010165 -0.00917929 -0.00822208 -0.00729341 -0.00639328 -0.00552168 -0.00469561 -0.0039321 -0.00323114 -0.00259273 -0.00201686 -0.00150355 -0.00105278 -0.00066456 -0.000335888 -6.37588e-05 0.000151827 0.00031087 0.000413369 0.000459325 0.000448738 0.000381608 0.000292168 0.000214654 0.000149066 9.5402e-05 5.36636e-05 2.38505e-05 5.96262e-06 0 0 5.33128e-06 2.13251e-05 4.79816e-05 8.53005e-05 0.000133282 0.000191926 0.000261233 0.000341202 0.000395638 0.000388344 0.000319322 0.000188569 -3.91215e-06 -0.000258123 -0.000574063 -0.000951733 -0.001393 -0.00189974 -0.00247195 -0.00310963 -0.00381278 -0.00458139 -0.00541548 -0.00631504 -0.00725903 -0.0082264 -0.00921716 -0.0102313 -0.0112688 -0.0123298 -0.0134141 -0.0145218 -0.0156213 -0.0166813 -0.0177018 -0.0186826 -0.0196238 -0.0205255 -0.0213875 -0.02221 -0.0229798 -0.0236841 -0.0243229 -0.024896 -0.0254035 -0.0258455 -0.0262219 -0.0265327 -0.026792 -0.0270141 -0.0271988 -0.0273462 -0.0274563 -0.027529 -0.0275645 -0.0275626 -0.0275434 -0.0275267 -0.0275126 -0.0275011 -0.0274921 -0.0274857 -0.0274818 -0.0274805 -0.0274818 -0.0274857 -0.0274921 -0.0275011 -0.0275126 -0.0275267 -0.0275434 -0.0275626 -0.0275645 -0.027529 -0.0274563 -0.0273462 -0.0271988 -0.0270141 -0.026792 -0.0265327 -0.0262219 -0.0258455 -0.0254035 -0.024896 -0.0243229 -0.0236841 -0.0229798 -0.02221 -0.0213875 -0.0205255 -0.0196238 -0.0186826 -0.0177018 -0.0166813 -0.0156213 -0.0145218 -0.0134141 -0.0123298 -0.0112688 -0.0102313 -0.00921716 -0.0082264 -0.00725903 -0.00631504 -0.00541548 -0.00458139 -0.00381278 -0.00310963 -0.00247195 -0.00189974 -0.001393 -0.000951733 -0.000574064 -0.000258123 -3.91236e-06 0.000188569 0.000319321 0.000388344 0.000395638 0.000341202 0.000261233 0.000191926 0.000133282 8.53005e-05 4.79815e-05 2.13251e-05 5.33128e-06 0 0 4.43875e-06 1.7755e-05 3.99488e-05 7.102e-05 0.000110969 0.000159795 0.000217499 0.00028408 0.000321692 0.000292488 0.000196469 3.36333e-05 -0.000196018 -0.000492485 -0.000855768 -0.00128587 -0.00178321 -0.00234824 -0.00298095 -0.00368134 -0.00444942 -0.00528517 -0.00618861 -0.00715972 -0.00817295 -0.00920271 -0.010249 -0.0113118 -0.0123912 -0.0134871 -0.0145996 -0.0157286 -0.0168389 -0.0178953 -0.0188979 -0.0198466 -0.0207414 -0.0215824 -0.0223695 -0.0231027 -0.023771 -0.0243633 -0.0248796 -0.0253199 -0.0256842 -0.0259725 -0.0261848 -0.0263212 -0.026403 -0.026452 -0.0264681 -0.0264513 -0.0264016 -0.026319 -0.0262036 -0.0260552 -0.0259006 -0.0257667 -0.0256534 -0.0255607 -0.0254886 -0.0254371 -0.0254062 -0.0253959 -0.0254062 -0.0254371 -0.0254886 -0.0255607 -0.0256534 -0.0257667 -0.0259006 -0.0260552 -0.0262036 -0.026319 -0.0264016 -0.0264513 -0.0264681 -0.026452 -0.026403 -0.0263212 -0.0261848 -0.0259725 -0.0256842 -0.0253199 -0.0248796 -0.0243633 -0.023771 -0.0231027 -0.0223695 -0.0215824 -0.0207414 -0.0198466 -0.0188979 -0.0178953 -0.0168389 -0.0157286 -0.0145996 -0.0134871 -0.0123912 -0.0113118 -0.010249 -0.00920271 -0.00817295 -0.00715972 -0.00618861 -0.00528517 -0.00444942 -0.00368134 -0.00298095 -0.00234824 -0.00178321 -0.00128587 -0.000855768 -0.000492485 -0.000196018 3.36331e-05 0.000196469 0.000292488 0.000321692 0.00028408 0.000217499 0.000159795 0.000110969 7.102e-05 3.99487e-05 1.7755e-05 4.43875e-06 0 0 3.25917e-06 1.30367e-05 2.93325e-05 5.21467e-05 8.14792e-05 0.00011733 0.000159699 0.000208587 0.000224888 0.000169497 4.24149e-05 -0.000156359 -0.000426824 -0.000768981 -0.00118283 -0.00166837 -0.00222416 -0.00284877 -0.0035422 -0.00430445 -0.00513551 -0.00603539 -0.00700408 -0.0080416 -0.00911716 -0.0102 -0.0112902 -0.0123876 -0.0134923 -0.0146043 -0.0157236 -0.0168502 -0.0179449 -0.0189687 -0.0199216 -0.0208036 -0.0216146 -0.0223547 -0.0230239 -0.0236221 -0.0241411 -0.0245726 -0.0249167 -0.0251732 -0.0253423 -0.0254239 -0.0254179 -0.0253245 -0.0251742 -0.0249976 -0.0247947 -0.0245655 -0.02431 -0.0240282 -0.02372 -0.0233856 -0.0230598 -0.0227773 -0.0225384 -0.0223429 -0.0221908 -0.0220822 -0.022017 -0.0219953 -0.022017 -0.0220822 -0.0221908 -0.0223429 -0.0225384 -0.0227773 -0.0230598 -0.0233856 -0.02372 -0.0240282 -0.02431 -0.0245655 -0.0247947 -0.0249976 -0.0251742 -0.0253245 -0.0254179 -0.0254239 -0.0253423 -0.0251732 -0.0249167 -0.0245726 -0.0241411 -0.0236221 -0.0230239 -0.0223547 -0.0216146 -0.0208036 -0.0199216 -0.0189687 -0.0179449 -0.0168502 -0.0157236 -0.0146043 -0.0134923 -0.0123876 -0.0112902 -0.0102 -0.00911716 -0.0080416 -0.00700408 -0.00603539 -0.00513551 -0.00430445 -0.0035422 -0.00284877 -0.00222416 -0.00166837 -0.00118283 -0.000768981 -0.000426824 -0.000156359 4.24147e-05 0.000169497 0.000224888 0.000208587 0.000159699 0.00011733 8.14792e-05 5.21467e-05 2.93325e-05 1.30367e-05 3.25917e-06 0 0 1.76667e-06 7.0667e-06 1.59001e-05 2.82668e-05 4.41669e-05 6.36003e-05 8.6567e-05 0.000113067 0.000103211 1.71103e-05 -0.000145236 -0.000383827 -0.000698664 -0.00108975 -0.00155707 -0.00210064 -0.00271659 -0.00340106 -0.00415403 -0.00497551 -0.0058655 -0.006824 -0.00785101 -0.00894653 -0.0100738 -0.011196 -0.0123131 -0.0134252 -0.0145322 -0.0156341 -0.016731 -0.0178228 -0.0188664 -0.0198184 -0.0206789 -0.0214478 -0.0221253 -0.0227112 -0.0232056 -0.0236084 -0.0239153 -0.024122 -0.0242283 -0.0242343 -0.02414 -0.0239454 -0.0236505 -0.0232553 -0.0228015 -0.0223308 -0.0218433 -0.0213389 -0.0208177 -0.0202796 -0.0197247 -0.0191529 -0.018609 -0.0181375 -0.0177386 -0.0174123 -0.0171584 -0.0169771 -0.0168683 -0.0168321 -0.0168683 -0.0169771 -0.0171584 -0.0174123 -0.0177386 -0.0181375 -0.018609 -0.0191529 -0.0197247 -0.0202796 -0.0208177 -0.0213389 -0.0218433 -0.0223308 -0.0228015 -0.0232553 -0.0236505 -0.0239454 -0.02414 -0.0242343 -0.0242283 -0.024122 -0.0239153 -0.0236084 -0.0232056 -0.0227112 -0.0221253 -0.0214478 -0.0206789 -0.0198184 -0.0188664 -0.0178228 -0.016731 -0.0156341 -0.0145322 -0.0134252 -0.0123131 -0.011196 -0.0100738 -0.00894653 -0.00785101 -0.006824 -0.0058655 -0.00497551 -0.00415403 -0.00340106 -0.0027166 -0.00210065 -0.00155707 -0.00108975 -0.000698664 -0.000383828 -0.000145236 1.71101e-05 0.000103211 0.000113067 8.65669e-05 6.36002e-05 4.41668e-05 2.82668e-05 1.59001e-05 7.06669e-06 1.76667e-06 0 0 -3.87302e-08 -1.54921e-07 -3.48572e-07 -6.19684e-07 -9.68256e-07 -1.39429e-06 -1.89778e-06 -2.47874e-06 -4.33368e-05 -0.000164672 -0.000366484 -0.000648772 -0.00101154 -0.00145478 -0.0019785 -0.0025827 -0.00326051 -0.00400509 -0.00481642 -0.00569452 -0.00663938 -0.007651 -0.00872939 -0.00987453 -0.0110428 -0.0121906 -0.0133178 -0.0144246 -0.0155108 -0.0165766 -0.0176218 -0.0186466 -0.0196032 -0.0204443 -0.0211696 -0.0217793 -0.0222734 -0.0226518 -0.0229145 -0.0230617 -0.0230937 -0.0230113 -0.0228145 -0.0225031 -0.0220774 -0.0215372 -0.0208825 -0.0201134 -0.0192848 -0.0184516 -0.0176139 -0.0167716 -0.0159248 -0.0150735 -0.0142176 -0.0133571 -0.0125483 -0.0118473 -0.0112542 -0.0107689 -0.0103915 -0.0101219 -0.00996013 -0.00990621 -0.00996013 -0.0101219 -0.0103915 -0.0107689 -0.0112542 -0.0118473 -0.0125483 -0.0133571 -0.0142176 -0.0150735 -0.0159248 -0.0167716 -0.0176139 -0.0184516 -0.0192848 -0.0201134 -0.0208825 -0.0215372 -0.0220774 -0.0225031 -0.0228145 -0.0230113 -0.0230937 -0.0230617 -0.0229145 -0.0226518 -0.0222734 -0.0217793 -0.0211696 -0.0204443 -0.0196032 -0.0186466 -0.0176218 -0.0165766 -0.0155108 -0.0144246 -0.0133178 -0.0121906 -0.0110428 -0.00987453 -0.00872939 -0.007651 -0.00663938 -0.00569452 -0.00481642 -0.00400509 -0.00326051 -0.0025827 -0.0019785 -0.00145478 -0.00101154 -0.000648772 -0.000366484 -0.000164672 -4.3337e-05 -2.47884e-06 -1.89786e-06 -1.39435e-06 -9.68297e-07 -6.1971e-07 -3.48587e-07 -1.54927e-07 -3.87319e-08 0 0 -2.15705e-06 -8.62818e-06 -1.94134e-05 -3.45127e-05 -5.39261e-05 -7.76536e-05 -0.000105695 -0.000138051 -0.000214757 -0.000375849 -0.000621328 -0.000951194 -0.00136545 -0.00186408 -0.00244711 -0.00311452 -0.00385591 -0.00466087 -0.0055294 -0.0064615 -0.00745717 -0.0085164 -0.00963921 -0.0108256 -0.0120242 -0.0131838 -0.0143044 -0.0153859 -0.0164283 -0.0174317 -0.0183961 -0.0193214 -0.0201555 -0.0208463 -0.0213939 -0.0217981 -0.022059 -0.0221766 -0.0221508 -0.0219818 -0.0216762 -0.0212406 -0.0206751 -0.0199797 -0.0191544 -0.0181992 -0.017114 -0.0158989 -0.0146241 -0.01336 -0.0121065 -0.0108636 -0.00963132 -0.00840966 -0.00719862 -0.00599819 -0.00487777 -0.00390674 -0.00308509 -0.00241284 -0.00188998 -0.0015165 -0.00129242 -0.00121772 -0.00129242 -0.0015165 -0.00188998 -0.00241284 -0.00308509 -0.00390674 -0.00487777 -0.00599819 -0.00719862 -0.00840966 -0.00963132 -0.0108636 -0.0121065 -0.01336 -0.0146241 -0.0158989 -0.017114 -0.0181992 -0.0191544 -0.0199797 -0.0206751 -0.0212406 -0.0216762 -0.0219818 -0.0221508 -0.0221766 -0.022059 -0.0217981 -0.0213939 -0.0208463 -0.0201555 -0.0193214 -0.0183961 -0.0174317 -0.0164283 -0.0153859 -0.0143044 -0.0131838 -0.0120242 -0.0108256 -0.00963921 -0.0085164 -0.00745717 -0.0064615 -0.0055294 -0.0046608