<?xml version="1.0"?> 
<VTKFile type="StructuredGrid" version="0.1"> 
<StructuredGrid WholeExtent="0 128 0 128 0 0"> 
<Piece Extent="0 128 0 128 0 0"> 
<PointData>
<DataArray type="Float32" Name="u" format="ascii" NumberOfComponents="1"> 
0 0 0 0 0 0 0 0 0 0 0 0 0 0 0 0 0 0 0 0 0 0 0 0 0 0 0 0 0 0 0 0 0 0 0 0 0 0 0 0 0 0 0 0 0 0 0 0 0 0 0 0 0 0 0 0 0 0 0 0 0 0 0 0 0 0 0 0 0 0 0 0 0 0 0 0 0 0 0 0 0 0 0 0 0 0 0 0 0 0 0 0 0 0 0 0 0 0 0 0 0 0 0 0 0 0 0 0 0 0 0 0 0 0 0 0 0 0 0 0 0 0 0 0 0 0 0 0 0 0 1.22951e-05 4.91805e-05 0.000110656 0.000196722 0.000307378 0.000442624 0.000602461 0.000786888 0.000982844 0.00117727 0.00137017 0.00156153 0.00175137 0.00193967 0.00212644 0.00231168 0.00249454 0.00267416 0.00285055 0.00302369 0.0031936 0.00336027 0.0035237 0.0036839 0.00383947 0.00398903 0.00413259 0.00427014 0.00440169 0.00452722 0.00464675 0.00476028 0.00486785 0.00496953 0.00506532 0.00515522 0.00523922 0.00531733 0.00538955 0.00545587 0.00551715 0.0055742 0.00562704 0.00567566 0.00572006 0.00576025 0.00579622 0.00582797 0.00585642 0.00588248 0.00590613 0.00592739 0.00594626 0.00596273 0.00597681 0.00598849 0.00599832 0.00600683 0.00601404 0.00601994 0.00602452 0.0060278 0.00602976 0.00603042 0.00602976 0.0060278 0.00602452 0.00601994 0.00601404 0.00600684 0.00599832 0.00598849 0.00597681 0.00596274 0.00594627 0.0059274 0.00590614 0.00588249 0.00585644 0.00582799 0.00579624 0.00576027 0.00572008 0.00567568 0.00562706 0.00557423 0.00551717 0.00545591 0.00538958 0.00531737 0.00523926 0.00515526 0.00506537 0.00496958 0.0048679 0.00476033 0.00464681 0.00452729 0.00440175 0.00427021 0.00413267 0.00398911 0.00383955 0.00368398 0.00352379 0.00336036 0.0031937 0.00302379 0.00285065 0.00267427 0.00249466 0.0023118 0.00212656 0.00193978 0.00175148 0.00156164 0.00137027 0.00117736 0.000982922 0.000786951 0.000602509 0.00044266 0.000307403 0.000196738 0.000110665 4.91844e-05 1.22961e-05 0 0 4.91805e-05 0.000196722 0.000442624 0.000786888 0.00122951 0.0017705 0.00240984 0.00314755 0.00393138 0.00470908 0.00548066 0.00624612 0.00700546 0.00775868 0.00850577 0.00924674 0.00997817 0.0106967 0.0114022 0.0120948 0.0127744 0.0134411 0.0140948 0.0147356 0.0153579 0.0159561 0.0165304 0.0170806 0.0176067 0.0181089 0.018587 0.0190411 0.0194714 0.0198781 0.0202613 0.0206209 0.0209569 0.0212693 0.0215582 0.0218235 0.0220686 0.0222968 0.0225081 0.0227026 0.0228802 0.023041 0.0231849 0.0233119 0.0234257 0.0235299 0.0236245 0.0237096 0.023785 0.0238509 0.0239072 0.023954 0.0239933 0.0240273 0.0240562 0.0240797 0.0240981 0.0241112 0.0241191 0.0241217 0.0241191 0.0241112 0.0240981 0.0240798 0.0240562 0.0240273 0.0239933 0.023954 0.0239073 0.023851 0.0237851 0.0237096 0.0236246 0.02353 0.0234257 0.023312 0.023185 0.0230411 0.0228803 0.0227027 0.0225082 0.0222969 0.0220687 0.0218236 0.0215583 0.0212695 0.020957 0.020621 0.0202615 0.0198783 0.0194716 0.0190413 0.0185873 0.0181092 0.017607 0.0170809 0.0165307 0.0159565 0.0153582 0.0147359 0.0140952 0.0134415 0.0127748 0.0120952 0.0114026 0.0106971 0.00997862 0.0092472 0.00850623 0.00775914 0.00700591 0.00624655 0.00548106 0.00470944 0.00393169 0.0031478 0.00241004 0.00177064 0.00122961 0.000786951 0.00044266 0.000196738 4.91844e-05 0 0 0.000110656 0.000442624 0.000995905 0.0017705 0.0027664 0.00398362 0.00542215 0.00708199 0.0088456 0.0105954 0.0123315 0.0140538 0.0157623 0.017457 0.019138 0.0208052 0.0224509 0.0240675 0.0256549 0.0272132 0.0287424 0.0302424 0.0317133 0.0331551 0.0345552 0.0359013 0.0371933 0.0384313 0.0396152 0.040745 0.0418208 0.0428425 0.0438107 0.0447258 0.0455879 0.046397 0.047153 0.047856 0.0485059 0.0491029 0.0496543 0.0501678 0.0506433 0.0510809 0.0514806 0.0518422 0.052166 0.0524518 0.0527078 0.0529423 0.0531552 0.0533465 0.0535163 0.0536646 0.0537913 0.0538964 0.0539848 0.0540615 0.0541264 0.0541794 0.0542207 0.0542502 0.0542679 0.0542738 0.0542679 0.0542502 0.0542207 0.0541794 0.0541264 0.0540615 0.0539849 0.0538964 0.0537913 0.0536647 0.0535164 0.0533466 0.0531553 0.0529424 0.0527079 0.0524519 0.0521661 0.0518424 0.0514807 0.0510811 0.0506436 0.050168 0.0496546 0.0491032 0.0485063 0.0478563 0.0471533 0.0463973 0.0455883 0.0447262 0.0438111 0.042843 0.0418213 0.0407456 0.0396158 0.0384319 0.037194 0.035902 0.034556 0.0331559 0.0317141 0.0302433 0.0287433 0.0272142 0.0256559 0.0240685 0.0224519 0.0208062 0.019139 0.0174581 0.0157633 0.0140547 0.0123324 0.0105962 0.0088463 0.00708256 0.00542258 0.00398394 0.00276662 0.00177064 0.000995985 0.00044266 0.000110665 0 0 0.000196722 0.000786888 0.0017705 0.00314755 0.00491805 0.00708199 0.00963937 0.0125902 0.0157255 0.0188363 0.0219227 0.0249845 0.0280218 0.0310347 0.0340231 0.036987 0.0399127 0.0427866 0.0456088 0.0483791 0.0510976 0.0537643 0.0563792 0.0589423 0.0614315 0.0638245 0.0661215 0.0683223 0.070427 0.0724356 0.0743481 0.0761644 0.0778856 0.0795125 0.0810451 0.0824835 0.0838275 0.0850773 0.0862328 0.087294 0.0882743 0.0891872 0.0900326 0.0908105 0.091521 0.092164 0.0927395 0.0932476 0.0937028 0.0941196 0.0944981 0.0948383 0.0951402 0.0954037 0.0956289 0.0958158 0.095973 0.0961093 0.0962246 0.096319 0.0963924 0.0964448 0.0964762 0.0964867 0.0964762 0.0964448 0.0963924 0.096319 0.0962247 0.0961094 0.0959731 0.0958159 0.095629 0.0954038 0.0951403 0.0948385 0.0944983 0.0941198 0.093703 0.0932478 0.0927398 0.0921643 0.0915213 0.0908109 0.090033 0.0891876 0.0882748 0.0872945 0.0862333 0.0850779 0.0838282 0.0824842 0.0810459 0.0795133 0.0778865 0.0761654 0.074349 0.0724366 0.0704281 0.0683234 0.0661227 0.0638258 0.0614328 0.0589437 0.0563807 0.0537658 0.0510992 0.0483807 0.0456104 0.0427884 0.0399145 0.0369888 0.0340249 0.0310366 0.0280236 0.0249862 0.0219243 0.0188378 0.0157268 0.0125912 0.00964015 0.00708256 0.00491844 0.0031478 0.00177064 0.000786951 0.000196738 0 0 0.000307378 0.00122951 0.0027664 0.00491805 0.00768445 0.0110656 0.0150615 0.0196722 0.0245711 0.0294318 0.0342541 0.0390383 0.0437841 0.0484917 0.0531611 0.0577921 0.0623636 0.0668541 0.0712637 0.0755923 0.07984 0.0840067 0.0880925 0.0920974 0.0959867 0.0997258 0.103315 0.106754 0.110042 0.113181 0.116169 0.119007 0.121696 0.124238 0.126633 0.12888 0.130981 0.132933 0.134739 0.136397 0.137929 0.139355 0.140676 0.141891 0.143002 0.144006 0.144906 0.145699 0.146411 0.147062 0.147653 0.148185 0.148657 0.149068 0.14942 0.149712 0.149958 0.150171 0.150351 0.150498 0.150613 0.150695 0.150744 0.15076 0.150744 0.150695 0.150613 0.150498 0.150351 0.150171 0.149958 0.149712 0.14942 0.149068 0.148657 0.148185 0.147654 0.147062 0.146411 0.1457 0.144906 0.144007 0.143002 0.141892 0.140677 0.139356 0.137929 0.136398 0.13474 0.132934 0.130982 0.128882 0.126634 0.12424 0.121698 0.119008 0.11617 0.113182 0.110044 0.106755 0.103317 0.0997278 0.0959888 0.0920996 0.0880948 0.0840091 0.0798425 0.0755949 0.0712663 0.0668568 0.0623664 0.057795 0.053164 0.0484946 0.043787 0.039041 0.0342566 0.029434 0.024573 0.0196738 0.0150627 0.0110665 0.00768507 0.00491844 0.00276662 0.00122961 0.000307403 0 0 0.000442624 0.0017705 0.00398362 0.00708199 0.0110656 0.0159345 0.0216886 0.028328 0.0353824 0.0423817 0.049326 0.0562151 0.0630491 0.0698281 0.0765519 0.0832206 0.0898036 0.0962699 0.10262 0.108853 0.11497 0.12097 0.126853 0.13262 0.138221 0.143605 0.148773 0.153725 0.158461 0.16298 0.167283 0.17137 0.175243 0.178903 0.182352 0.185588 0.188612 0.191424 0.194024 0.196411 0.198617 0.200671 0.202573 0.204324 0.205922 0.207369 0.208664 0.209807 0.210831 0.211769 0.212621 0.213386 0.214065 0.214658 0.215165 0.215586 0.215939 0.216246 0.216505 0.216718 0.216883 0.217001 0.217071 0.217095 0.217072 0.217001 0.216883 0.216718 0.216506 0.216246 0.21594 0.215586 0.215165 0.214659 0.214066 0.213387 0.212621 0.21177 0.210832 0.209808 0.208665 0.20737 0.205923 0.204325 0.202574 0.200672 0.198618 0.196413 0.194025 0.191425 0.188613 0.185589 0.182353 0.178905 0.175245 0.171372 0.167285 0.162982 0.158463 0.153728 0.148776 0.143608 0.138224 0.132623 0.126857 0.120973 0.114973 0.108857 0.102623 0.0962738 0.0898076 0.0832248 0.0765561 0.0698323 0.0630532 0.056219 0.0493296 0.042385 0.0353852 0.0283302 0.0216903 0.0159358 0.0110665 0.00708256 0.00398394 0.00177064 0.00044266 0 0 0.000602461 0.00240984 0.00542215 0.00963937 0.0150615 0.0216886 0.0295206 0.0385575 0.0481594 0.0576862 0.0671381 0.076515 0.0858169 0.0950438 0.104196 0.113273 0.122233 0.131034 0.139677 0.148161 0.156486 0.164653 0.172661 0.180511 0.188134 0.195463 0.202497 0.209237 0.215683 0.221834 0.227691 0.233254 0.238525 0.243507 0.248201 0.252606 0.256722 0.260549 0.264088 0.267338 0.27034 0.273136 0.275725 0.278107 0.280283 0.282252 0.284015 0.285571 0.286965 0.288241 0.2894 0.290442 0.291367 0.292174 0.292864 0.293436 0.293917 0.294335 0.294688 0.294977 0.295202 0.295362 0.295458 0.295491 0.295458 0.295362 0.295202 0.294977 0.294688 0.294335 0.293918 0.293436 0.292864 0.292174 0.291367 0.290443 0.289401 0.288242 0.286965 0.285572 0.284016 0.282253 0.280284 0.278108 0.275726 0.273137 0.270342 0.267339 0.26409 0.260551 0.256724 0.252608 0.248203 0.24351 0.238527 0.233256 0.227694 0.221837 0.215686 0.20924 0.202501 0.195467 0.188138 0.180515 0.172666 0.164658 0.156491 0.148166 0.139682 0.131039 0.122238 0.113278 0.104201 0.0950495 0.0858224 0.0765203 0.067143 0.0576907 0.0481632 0.0385606 0.0295229 0.0216903 0.0150627 0.00964015 0.00542258 0.00241004 0.000602509 0 0 0.000786888 0.00314755 0.00708199 0.0125902 0.0196722 0.028328 0.0385575 0.0503608 0.062902 0.0753453 0.0876906 0.099938 0.112087 0.124139 0.136092 0.147948 0.159651 0.171146 0.182435 0.193516 0.20439 0.215057 0.225517 0.235769 0.245726 0.255298 0.264486 0.273289 0.281708 0.289742 0.297392 0.304658 0.311542 0.31805 0.324181 0.329934 0.33531 0.340309 0.344931 0.349176 0.353097 0.356749 0.36013 0.363242 0.366084 0.368656 0.370958 0.37299 0.374811 0.376478 0.377992 0.379353 0.380561 0.381615 0.382516 0.383263 0.383892 0.384437 0.384899 0.385276 0.385569 0.385779 0.385905 0.385947 0.385905 0.385779 0.38557 0.385276 0.384899 0.384438 0.383893 0.383264 0.382516 0.381615 0.380561 0.379354 0.377993 0.376479 0.374812 0.372991 0.370959 0.368657 0.366085 0.363244 0.360132 0.356751 0.353099 0.349178 0.344933 0.340312 0.335313 0.329937 0.324184 0.318053 0.311546 0.304661 0.297396 0.289746 0.281712 0.273294 0.264491 0.255303 0.245731 0.235775 0.225523 0.215063 0.204397 0.193523 0.182442 0.171153 0.159658 0.147955 0.1361 0.124146 0.112095 0.0999449 0.087697 0.0753511 0.062907 0.0503648 0.0385606 0.0283302 0.0196738 0.0125912 0.00708256 0.0031478 0.000786951 0 0 0.000982837 0.00393135 0.00884554 0.0157254 0.0245709 0.0353821 0.048159 0.0629016 0.0785653 0.0941058 0.109523 0.124817 0.139987 0.155034 0.169958 0.184759 0.199368 0.213717 0.227807 0.241637 0.255208 0.268519 0.281571 0.294363 0.306785 0.318726 0.330187 0.341168 0.351668 0.361687 0.371226 0.380285 0.388868 0.39698 0.404621 0.411792 0.418492 0.424721 0.43048 0.435767 0.440652 0.445199 0.44941 0.453285 0.456823 0.460025 0.46289 0.465419 0.467684 0.469759 0.471642 0.473335 0.474836 0.476147 0.477267 0.478196 0.478978 0.479655 0.480228 0.480697 0.481062 0.481322 0.481479 0.481531 0.481479 0.481323 0.481062 0.480697 0.480228 0.479655 0.478978 0.478197 0.477268 0.476148 0.474837 0.473335 0.471643 0.46976 0.467685 0.46542 0.462892 0.460027 0.456825 0.453287 0.449412 0.445201 0.440654 0.43577 0.430482 0.424724 0.418495 0.411796 0.404625 0.396984 0.388872 0.380289 0.371231 0.361692 0.351673 0.341173 0.330193 0.318732 0.306791 0.29437 0.281578 0.268527 0.255216 0.241646 0.227816 0.213726 0.199377 0.184768 0.169967 0.155044 0.139996 0.124825 0.109531 0.0941129 0.0785715 0.0629066 0.0481629 0.035385 0.0245729 0.0157267 0.00884624 0.00393166 0.000982916 0 0 0.00117724 0.00470897 0.0105952 0.0188359 0.0294311 0.0423807 0.0576849 0.0753435 0.0941042 0.112714 0.131174 0.149484 0.167643 0.185651 0.20351 0.221217 0.238693 0.255856 0.272706 0.289243 0.305466 0.321377 0.336974 0.352258 0.367098 0.381361 0.395048 0.408158 0.420692 0.43265 0.444031 0.454837 0.465072 0.474744 0.483853 0.4924 0.500383 0.507803 0.51466 0.520954 0.526766 0.532176 0.537185 0.541793 0.545999 0.549804 0.553208 0.556211 0.558899 0.56136 0.563595 0.565602 0.567383 0.568937 0.570263 0.571363 0.572288 0.57309 0.573768 0.574323 0.574755 0.575063 0.575248 0.57531 0.575248 0.575063 0.574755 0.574323 0.573768 0.57309 0.572289 0.571364 0.570264 0.568937 0.567384 0.565603 0.563596 0.561361 0.5589 0.556212 0.55321 0.549806 0.546001 0.541795 0.537188 0.532179 0.526768 0.520957 0.514663 0.507806 0.500387 0.492404 0.483858 0.474749 0.465077 0.454842 0.444037 0.432656 0.420699 0.408165 0.395055 0.381369 0.367106 0.352267 0.336983 0.321386 0.305476 0.289253 0.272716 0.255867 0.238704 0.221228 0.203521 0.185662 0.167653 0.149494 0.131184 0.112723 0.0941116 0.0753495 0.0576895 0.0423841 0.0294334 0.0188374 0.010596 0.00470934 0.00117734 0 0 0.0013701 0.00548041 0.0123309 0.0219217 0.0342526 0.0493237 0.0671351 0.0876866 0.109519 0.131171 0.152645 0.173939 0.195054 0.21599 0.236747 0.257324 0.277628 0.297564 0.317132 0.336333 0.355165 0.37363 0.391727 0.409456 0.426666 0.443203 0.459068 0.474261 0.488782 0.502631 0.515808 0.528313 0.540155 0.551343 0.561877 0.571757 0.580982 0.589554 0.597472 0.604735 0.61144 0.617679 0.623455 0.628766 0.633612 0.637994 0.641911 0.645364 0.648454 0.651283 0.65385 0.656156 0.6582 0.659983 0.661505 0.662765 0.663824 0.664741 0.665518 0.666153 0.666647 0.667 0.667212 0.667283 0.667212 0.667001 0.666648 0.666154 0.665518 0.664742 0.663824 0.662765 0.661505 0.659984 0.658201 0.656157 0.653851 0.651284 0.648456 0.645366 0.641913 0.637996 0.633614 0.628768 0.623458 0.617682 0.611443 0.604739 0.597475 0.589558 0.580987 0.571761 0.561882 0.551348 0.540161 0.528319 0.515815 0.502638 0.48879 0.474269 0.459076 0.443212 0.426675 0.409466 0.391737 0.37364 0.355176 0.336344 0.317144 0.297576 0.27764 0.257337 0.236759 0.216003 0.195067 0.173951 0.152656 0.131181 0.109527 0.0876935 0.0671403 0.0493276 0.0342553 0.0219234 0.0123319 0.00548084 0.00137021 0 0 0.00156142 0.00624568 0.0140528 0.0249827 0.0390355 0.0562111 0.0765096 0.0999309 0.124809 0.149477 0.173935 0.198183 0.222222 0.246051 0.269669 0.293079 0.316171 0.33884 0.361085 0.382906 0.404304 0.425279 0.445829 0.465956 0.485488 0.504252 0.522248 0.539476 0.555938 0.571631 0.586557 0.600715 0.614118 0.626776 0.638691 0.649863 0.660291 0.669975 0.678915 0.687112 0.694673 0.701709 0.708219 0.714203 0.719662 0.724594 0.729 0.732881 0.736351 0.739527 0.742408 0.744996 0.747288 0.749287 0.750991 0.752401 0.753584 0.75461 0.755478 0.756188 0.756741 0.757135 0.757372 0.757451 0.757372 0.757135 0.756741 0.756188 0.755478 0.754611 0.753585 0.752401 0.750992 0.749288 0.747289 0.744997 0.74241 0.739528 0.736353 0.732883 0.729002 0.724596 0.719664 0.714206 0.708222 0.701713 0.694677 0.687116 0.678919 0.669979 0.660296 0.649868 0.638697 0.626782 0.614124 0.600722 0.586564 0.571639 0.555946 0.539485 0.522257 0.504261 0.485498 0.465967 0.44584 0.42529 0.404316 0.382919 0.361098 0.338853 0.316185 0.293093 0.269684 0.246065 0.222236 0.198196 0.173947 0.149488 0.124818 0.0999386 0.0765155 0.0562155 0.0390385 0.0249846 0.0140539 0.00624616 0.00156154 0 0 0.00175119 0.00700477 0.0157607 0.0280191 0.0437798 0.0630429 0.0858084 0.112076 0.139974 0.16763 0.195044 0.222216 0.249145 0.275833 0.302278 0.328481 0.354323 0.379684 0.404564 0.428964 0.452884 0.476323 0.499281 0.521759 0.543564 0.564507 0.584587 0.603804 0.622158 0.639649 0.656277 0.672042 0.686959 0.701044 0.714297 0.726719 0.738308 0.749065 0.75899 0.768083 0.776467 0.784266 0.791479 0.798106 0.804148 0.809604 0.814474 0.818759 0.822589 0.826092 0.82927 0.832122 0.834648 0.836848 0.838722 0.840271 0.84157 0.842696 0.843648 0.844428 0.845034 0.845467 0.845727 0.845813 0.845727 0.845467 0.845034 0.844428 0.843649 0.842696 0.84157 0.840271 0.838723 0.836849 0.834649 0.832123 0.829271 0.826094 0.822591 0.818761 0.814477 0.809606 0.804151 0.798109 0.791482 0.784269 0.776471 0.768087 0.758995 0.74907 0.738313 0.726725 0.714304 0.701051 0.686966 0.672049 0.656285 0.639657 0.622167 0.603814 0.584597 0.564518 0.543576 0.52177 0.499293 0.476336 0.452897 0.428978 0.404579 0.379699 0.354338 0.328496 0.302293 0.275848 0.24916 0.22223 0.195057 0.167642 0.139985 0.112085 0.0858149 0.0630477 0.0437831 0.0280212 0.0157619 0.0070053 0.00175132 0 0 0.00193942 0.00775768 0.0174548 0.0310307 0.0484855 0.0698191 0.0950316 0.124123 0.155016 0.185632 0.215972 0.246036 0.275824 0.305336 0.334572 0.363531 0.392083 0.420096 0.447571 0.474507 0.500904 0.526762 0.552082 0.576863 0.600896 0.62397 0.646086 0.667244 0.687443 0.706685 0.724968 0.742293 0.758679 0.774147 0.788695 0.802324 0.815034 0.826825 0.837697 0.847649 0.856821 0.865348 0.873233 0.880473 0.887071 0.893024 0.898334 0.903001 0.907167 0.910979 0.914434 0.917534 0.920278 0.922666 0.924698 0.926375 0.92778 0.928998 0.930028 0.930872 0.931527 0.931996 0.932277 0.932371 0.932277 0.931996 0.931528 0.930872 0.930029 0.928999 0.927781 0.926376 0.924699 0.922667 0.920279 0.917535 0.914436 0.91098 0.90717 0.903003 0.898337 0.893027 0.887074 0.880477 0.873236 0.865352 0.856825 0.847654 0.837702 0.82683 0.81504 0.80233 0.788702 0.774154 0.758687 0.742301 0.724977 0.706694 0.687453 0.667254 0.646097 0.623982 0.600908 0.576876 0.552095 0.526776 0.500918 0.474522 0.447586 0.420112 0.3921 0.363548 0.334589 0.305353 0.275841 0.246052 0.215987 0.185645 0.155027 0.124132 0.0950387 0.0698243 0.0484891 0.031033 0.0174561 0.00775826 0.00193956 0 0 0.0021261 0.00850442 0.0191349 0.0340177 0.0531526 0.0765397 0.104179 0.136071 0.169932 0.203482 0.23672 0.269646 0.302259 0.334561 0.366551 0.398229 0.429452 0.460077 0.490104 0.519533 0.548364 0.576597 0.604233 0.63127 0.657481 0.682639 0.706744 0.729796 0.751794 0.772739 0.792631 0.811469 0.829279 0.846084 0.861883 0.876678 0.890469 0.903254 0.915035 0.92581 0.935734 0.944958 0.953482 0.961306 0.96843 0.974855 0.980579 0.985604 0.990087 0.994186 0.997901 1.00123 1.00418 1.00674 1.00892 1.01071 1.01222 1.01352 1.01462 1.01552 1.01622 1.01672 1.01702 1.01712 1.01702 1.01672 1.01622 1.01552 1.01462 1.01352 1.01222 1.01071 1.00892 1.00674 1.00418 1.00123 0.997903 0.994188 0.99009 0.985607 0.980582 0.974858 0.968433 0.961309 0.953486 0.944962 0.935739 0.925816 0.91504 0.90326 0.890475 0.876685 0.861891 0.846091 0.829287 0.811478 0.792641 0.772749 0.751805 0.729807 0.706756 0.682652 0.657494 0.631284 0.604247 0.576612 0.54838 0.519549 0.490121 0.460094 0.42947 0.398247 0.36657 0.33458 0.302277 0.269663 0.236736 0.203496 0.169945 0.136081 0.104187 0.0765453 0.0531565 0.0340201 0.0191363 0.00850503 0.00212626 0 0 0.00231124 0.00924497 0.0208012 0.0369799 0.0577811 0.0832047 0.113251 0.14792 0.184725 0.22118 0.257287 0.293043 0.32845 0.363508 0.398216 0.432575 0.46643 0.499626 0.532164 0.564044 0.595265 0.625828 0.655732 0.684979 0.713321 0.740516 0.766562 0.79146 0.81521 0.837812 0.859266 0.879571 0.898758 0.916855 0.933863 0.949782 0.964612 0.978353 0.991004 1.00257 1.01321 1.02309 1.03223 1.0406 1.04823 1.0551 1.06121 1.06657 1.07135 1.07572 1.07967 1.08322 1.08635 1.08907 1.09139 1.09329 1.09488 1.09625 1.09742 1.09837 1.09912 1.09964 1.09996 1.10007 1.09996 1.09965 1.09912 1.09837 1.09742 1.09625 1.09488 1.09329 1.09139 1.08907 1.08635 1.08322 1.07967 1.07572 1.07135 1.06657 1.06121 1.0551 1.04823 1.04061 1.03223 1.0231 1.01321 1.00257 0.99101 0.978359 0.964619 0.94979 0.933871 0.916863 0.898767 0.87958 0.859276 0.837823 0.815222 0.791472 0.766575 0.740529 0.713335 0.684993 0.655748 0.625844 0.595282 0.564061 0.532182 0.499645 0.466449 0.432594 0.398236 0.363528 0.328469 0.293061 0.257303 0.221195 0.184738 0.14793 0.113259 0.0832107 0.0577852 0.0369825 0.0208027 0.00924563 0.00231141 0 0 0.00249398 0.00997592 0.0224458 0.0399037 0.0623495 0.0897833 0.122205 0.159615 0.199324 0.238645 0.277578 0.316122 0.354278 0.392045 0.429424 0.466414 0.50285 0.538566 0.573563 0.607839 0.641395 0.674232 0.706348 0.737745 0.76816 0.797333 0.825262 0.851949 0.877394 0.901595 0.924554 0.94627 0.966779 0.986115 1.00428 1.02127 1.03709 1.05174 1.06522 1.07753 1.08884 1.09935 1.10905 1.11795 1.12604 1.13332 1.1398 1.14546 1.15051 1.15512 1.1593 1.16304 1.16634 1.16921 1.17164 1.17364 1.1753 1.17675 1.17797 1.17897 1.17974 1.1803 1.18063 1.18074 1.18063 1.1803 1.17975 1.17897 1.17797 1.17675 1.1753 1.17364 1.17164 1.16921 1.16634 1.16304 1.1593 1.15513 1.15051 1.14547 1.1398 1.13332 1.12604 1.11795 1.10906 1.09936 1.08885 1.07753 1.06523 1.05175 1.0371 1.02128 1.00429 0.986124 0.966788 0.94628 0.924565 0.901607 0.877406 0.851962 0.825276 0.797347 0.768175 0.73776 0.706365 0.674249 0.641413 0.607857 0.573581 0.538586 0.50287 0.466434 0.429444 0.392065 0.354298 0.316141 0.277596 0.238661 0.199338 0.159626 0.122214 0.0897896 0.0623539 0.0399065 0.0224474 0.00997662 0.00249416 0 0 0.00267346 0.0106938 0.0240612 0.0427754 0.0668365 0.0962446 0.131 0.171102 0.213663 0.255795 0.297499 0.338775 0.379621 0.42004 0.46003 0.499591 0.538546 0.576719 0.61411 0.650718 0.686543 0.721586 0.755846 0.789324 0.821742 0.852823 0.882568 0.910975 0.938046 0.963781 0.988178 1.01124 1.03301 1.05352 1.07278 1.09079 1.10754 1.12305 1.1373 1.15029 1.16224 1.17332 1.18355 1.19293 1.20144 1.2091 1.2159 1.22185 1.22714 1.23197 1.23634 1.24025 1.2437 1.24669 1.24923 1.2513 1.25303 1.25453 1.2558 1.25684 1.25765 1.25822 1.25857 1.25868 1.25857 1.25822 1.25765 1.25684 1.2558 1.25453 1.25303 1.2513 1.24923 1.24669 1.2437 1.24025 1.23634 1.23197 1.22714 1.22185 1.21591 1.2091 1.20145 1.19293 1.18356 1.17333 1.16224 1.1503 1.1373 1.12305 1.10755 1.0908 1.07279 1.05353 1.03302 1.01125 0.98819 0.963793 0.938059 0.910989 0.882582 0.852838 0.821757 0.78934 0.755863 0.721604 0.686562 0.650737 0.61413 0.57674 0.538567 0.499612 0.460051 0.420061 0.379642 0.338795 0.297518 0.255812 0.213677 0.171113 0.131009 0.0962512 0.0668411 0.0427783 0.0240628 0.0106946 0.00267364 0 0 0.00284968 0.0113987 0.0256472 0.0455949 0.0712421 0.102589 0.139635 0.18238 0.22774 0.27263 0.31705 0.361001 0.404482 0.447493 0.490034 0.532105 0.573519 0.614086 0.653806 0.692681 0.730709 0.767891 0.804226 0.839715 0.874066 0.906987 0.938478 0.968538 0.997169 1.02437 1.05014 1.07448 1.09744 1.11907 1.13936 1.15833 1.17596 1.19226 1.20723 1.22087 1.2334 1.24501 1.25573 1.26553 1.27444 1.28244 1.28953 1.29573 1.30123 1.30624 1.31078 1.31484 1.31842 1.32152 1.32414 1.32629 1.32807 1.32961 1.33092 1.33199 1.33282 1.33341 1.33377 1.33389 1.33377 1.33341 1.33282 1.33199 1.33092 1.32961 1.32807 1.32629 1.32415 1.32153 1.31843 1.31485 1.31079 1.30625 1.30123 1.29573 1.28954 1.28244 1.27444 1.26554 1.25573 1.24502 1.2334 1.22088 1.20724 1.19227 1.17597 1.15834 1.13937 1.11908 1.09745 1.07449 1.05015 1.02438 0.997182 0.968552 0.938493 0.907003 0.874083 0.839733 0.804244 0.767909 0.730728 0.692701 0.653827 0.614107 0.57354 0.532128 0.490057 0.447515 0.404504 0.361022 0.31707 0.272647 0.227755 0.182392 0.139644 0.102595 0.0712468 0.045598 0.0256489 0.0113995 0.00284987 0 0 0.00302265 0.0120906 0.0272038 0.0483624 0.0755662 0.108815 0.14811 0.19345 0.241556 0.28915 0.336232 0.382801 0.428859 0.474404 0.519437 0.563958 0.607767 0.650665 0.692652 0.733728 0.773893 0.813146 0.851489 0.88892 0.925134 0.959825 0.992993 1.02464 1.05476 1.08336 1.11044 1.13599 1.16008 1.18276 1.20403 1.22389 1.24235 1.25939 1.27503 1.28926 1.30232 1.31442 1.32557 1.33577 1.34503 1.35333 1.36069 1.36709 1.37278 1.37796 1.38264 1.38683 1.39052 1.39371 1.3964 1.39859 1.40041 1.40198 1.40332 1.40441 1.40526 1.40587 1.40623 1.40635 1.40623 1.40587 1.40526 1.40441 1.40332 1.40199 1.40041 1.39859 1.3964 1.39371 1.39052 1.38683 1.38265 1.37796 1.37278 1.3671 1.36069 1.35334 1.34503 1.33578 1.32558 1.31442 1.30232 1.28927 1.27504 1.2594 1.24235 1.2239 1.20404 1.18277 1.16009 1.136 1.11045 1.08337 1.05477 1.02465 0.993009 0.959841 0.925151 0.888938 0.851507 0.813165 0.773913 0.733749 0.692674 0.650687 0.60779 0.563981 0.519461 0.474427 0.428881 0.382823 0.336252 0.289168 0.241571 0.193462 0.148119 0.108822 0.0755711 0.0483655 0.0272056 0.0120914 0.00302284 0 0 0.00319236 0.0127694 0.0287312 0.0510777 0.0798089 0.114925 0.156425 0.204311 0.255111 0.305355 0.355043 0.404176 0.452753 0.500774 0.548239 0.595149 0.641292 0.686458 0.730647 0.773859 0.816094 0.857352 0.897633 0.936937 0.974945 1.01134 1.04611 1.07928 1.11082 1.14075 1.16907 1.19577 1.22092 1.24459 1.26678 1.28748 1.3067 1.32444 1.34069 1.35546 1.369 1.38154 1.39309 1.40365 1.41321 1.42179 1.42937 1.43596 1.44179 1.44711 1.45191 1.4562 1.45998 1.46323 1.46598 1.46821 1.47005 1.47165 1.47301 1.47411 1.47498 1.47559 1.47596 1.47608 1.47596 1.47559 1.47498 1.47412 1.47301 1.47165 1.47005 1.46821 1.46598 1.46324 1.45998 1.45621 1.45192 1.44711 1.44179 1.43596 1.42937 1.42179 1.41322 1.40365 1.39309 1.38154 1.369 1.35547 1.3407 1.32444 1.30671 1.28749 1.26679 1.2446 1.22093 1.19578 1.16908 1.14077 1.11084 1.07929 1.04613 1.01135 0.974962 0.936955 0.897652 0.857372 0.816115 0.77388 0.730669 0.686481 0.641315 0.595172 0.548263 0.500797 0.452776 0.404198 0.355063 0.305373 0.255126 0.204324 0.156435 0.114932 0.0798139 0.0510809 0.028733 0.0127702 0.00319256 0 0 0.00335881 0.0134352 0.0302293 0.0537409 0.0839702 0.120917 0.164582 0.214964 0.268404 0.321245 0.373484 0.425124 0.476163 0.526601 0.576439 0.625677 0.674093 0.721464 0.767791 0.813075 0.857314 0.900509 0.94266 0.983767 1.0235 1.06152 1.09784 1.13245 1.16535 1.19655 1.22604 1.25382 1.27997 1.30457 1.32761 1.34909 1.36902 1.38739 1.40421 1.41947 1.43344 1.44638 1.45828 1.46915 1.47899 1.48779 1.49557 1.50231 1.50827 1.5137 1.5186 1.52296 1.5268 1.53011 1.53289 1.53514 1.537 1.53861 1.53998 1.54109 1.54196 1.54258 1.54296 1.54308 1.54296 1.54258 1.54196 1.5411 1.53998 1.53862 1.537 1.53514 1.53289 1.53011 1.52681 1.52297 1.5186 1.5137 1.50827 1.50231 1.49557 1.4878 1.47899 1.46915 1.45828 1.44638 1.43345 1.41948 1.40422 1.3874 1.36903 1.3491 1.32762 1.30458 1.27998 1.25383 1.22605 1.19656 1.16537 1.13247 1.09786 1.06154 1.02352 0.983785 0.942679 0.900529 0.857335 0.813096 0.767814 0.721487 0.674116 0.625701 0.576464 0.526626 0.476186 0.425146 0.373505 0.321263 0.26842 0.214977 0.164592 0.120924 0.0839753 0.0537442 0.0302311 0.013436 0.00335901 0 0 0.003522 0.014088 0.031698 0.056352 0.08805 0.126792 0.172578 0.225408 0.281437 0.336819 0.391556 0.445646 0.49909 0.551887 0.604039 0.655544 0.706169 0.755683 0.804085 0.851374 0.897551 0.942616 0.986569 1.02941 1.07079 1.11038 1.14817 1.18416 1.21835 1.25075 1.28134 1.31014 1.33723 1.36269 1.38652 1.40873 1.42931 1.44826 1.46559 1.48129 1.49565 1.50893 1.52114 1.53229 1.54236 1.55136 1.55929 1.56615 1.57221 1.57772 1.58269 1.58711 1.591 1.59434 1.59714 1.5994 1.60126 1.60287 1.60424 1.60535 1.60622 1.60684 1.60721 1.60734 1.60721 1.60684 1.60622 1.60535 1.60424 1.60287 1.60126 1.5994 1.59714 1.59434 1.591 1.58712 1.58269 1.57772 1.57221 1.56615 1.55929 1.55136 1.54236 1.53229 1.52115 1.50894 1.49565 1.4813 1.4656 1.44827 1.42932 1.40874 1.38653 1.3627 1.33724 1.31015 1.28136 1.25076 1.21837 1.18418 1.14819 1.1104 1.07081 1.02943 0.986588 0.942637 0.897572 0.851396 0.804107 0.755707 0.706194 0.655568 0.604063 0.551912 0.499114 0.445669 0.391577 0.336838 0.281453 0.225421 0.172588 0.126799 0.0880552 0.0563553 0.0316999 0.0140888 0.00352221 0 0 0.00368193 0.0147277 0.0331374 0.0589109 0.0920483 0.13255 0.180415 0.235644 0.294208 0.352079 0.409257 0.465742 0.521533 0.576631 0.631036 0.684748 0.737522 0.789115 0.839527 0.888757 0.936806 0.983674 1.02936 1.07386 1.11683 1.15791 1.19711 1.23441 1.26982 1.30335 1.33499 1.36473 1.39269 1.41895 1.44352 1.46639 1.48757 1.50705 1.52483 1.54092 1.55561 1.5692 1.58168 1.59305 1.60332 1.61248 1.62054 1.62749 1.63361 1.63917 1.64419 1.64865 1.65256 1.65591 1.65872 1.66097 1.66282 1.66442 1.66578 1.66689 1.66775 1.66837 1.66874 1.66886 1.66874 1.66837 1.66775 1.66689 1.66578 1.66442 1.66282 1.66097 1.65872 1.65592 1.65256 1.64865 1.64419 1.63918 1.63361 1.62749 1.62054 1.61249 1.60332 1.59306 1.58168 1.56921 1.55562 1.54093 1.52484 1.50705 1.48757 1.4664 1.44353 1.41896 1.3927 1.36475 1.335 1.30336 1.26984 1.23443 1.19712 1.15793 1.11685 1.07388 1.02938 0.983695 0.936828 0.88878 0.83955 0.789139 0.737547 0.684773 0.631061 0.576656 0.521557 0.465765 0.409278 0.352098 0.294225 0.235657 0.180425 0.132557 0.0920536 0.0589143 0.0331393 0.0147286 0.00368214 0 0 0.00383722 0.0153489 0.034535 0.0613956 0.0959306 0.13814 0.188024 0.245582 0.306607 0.366892 0.426436 0.485239 0.543302 0.600624 0.657205 0.713045 0.76789 0.821484 0.873827 0.924919 0.97476 1.02335 1.07069 1.11678 1.16125 1.20375 1.24427 1.28281 1.31937 1.35396 1.38656 1.41719 1.44595 1.47295 1.49819 1.52166 1.54338 1.56333 1.58152 1.59796 1.61294 1.62678 1.63948 1.65105 1.66148 1.67076 1.67891 1.68592 1.69208 1.69768 1.70272 1.70719 1.71111 1.71446 1.71725 1.71948 1.72131 1.72289 1.72423 1.72533 1.72618 1.72679 1.72716 1.72728 1.72716 1.72679 1.72618 1.72533 1.72423 1.72289 1.72131 1.71948 1.71725 1.71446 1.71111 1.7072 1.70272 1.69768 1.69209 1.68593 1.67892 1.67077 1.66148 1.65105 1.63949 1.62679 1.61294 1.59796 1.58153 1.56334 1.54339 1.52167 1.4982 1.47296 1.44596 1.4172 1.38658 1.35397 1.31939 1.28282 1.24428 1.20377 1.16127 1.1168 1.07071 1.02337 0.974782 0.924941 0.87385 0.821508 0.767914 0.71307 0.65723 0.600649 0.543326 0.485262 0.426457 0.366911 0.306624 0.245596 0.188034 0.138148 0.0959359 0.061399 0.0345369 0.0153497 0.00383743 0 0 0.00398648 0.0159459 0.0358783 0.0637837 0.0996621 0.143513 0.195338 0.255135 0.318525 0.381126 0.44294 0.503966 0.564204 0.623654 0.682316 0.74019 0.79701 0.852511 0.906691 0.959552 1.01109 1.06131 1.11022 1.1578 1.20369 1.24751 1.28927 1.32897 1.3666 1.40217 1.43567 1.46711 1.4966 1.52427 1.55012 1.57414 1.59634 1.61671 1.63526 1.65198 1.66721 1.68127 1.69416 1.70588 1.71643 1.72581 1.73402 1.74107 1.74725 1.75285 1.75789 1.76236 1.76627 1.7696 1.77237 1.77457 1.77636 1.77792 1.77923 1.78031 1.78115 1.78175 1.78211 1.78223 1.78211 1.78175 1.78115 1.78031 1.77923 1.77792 1.77636 1.77457 1.77237 1.7696 1.76627 1.76237 1.75789 1.75286 1.74725 1.74107 1.73403 1.72582 1.71643 1.70588 1.69416 1.68127 1.667