<?xml version="1.0"?> 
<VTKFile type="StructuredGrid" version="0.1"> 
<StructuredGrid WholeExtent="0 128 0 128 0 0"> 
<Piece Extent="0 128 0 128 0 0"> 
<PointData>
<DataArray type="Float32" Name="u" format="ascii" NumberOfComponents="1"> 
0 0 0 0 0 0 0 0 0 0 0 0 0 0 0 0 0 0 0 0 0 0 0 0 0 0 0 0 0 0 0 0 0 0 0 0 0 0 0 0 0 0 0 0 0 0 0 0 0 0 0 0 0 0 0 0 0 0 0 0 0 0 0 0 0 0 0 0 0 0 0 0 0 0 0 0 0 0 0 0 0 0 0 0 0 0 0 0 0 0 0 0 0 0 0 0 0 0 0 0 0 0 0 0 0 0 0 0 0 0 0 0 0 0 0 0 0 0 0 0 0 0 0 0 0 0 0 0 0 0 8.31405e-06 3.32562e-05 7.48265e-05 0.000133025 0.000207851 0.000299306 0.000407389 0.000532099 0.000665243 0.000798624 0.000932242 0.0010661 0.00120019 0.00133452 0.00146909 0.00160389 0.00173848 0.00187241 0.00200567 0.00213826 0.00227019 0.00240146 0.00253206 0.00266199 0.00279011 0.00291524 0.0030374 0.00315657 0.00327277 0.00338599 0.00349623 0.0036035 0.00370734 0.00380731 0.00390341 0.00399565 0.00408401 0.00416851 0.00424914 0.00432591 0.00439889 0.0044682 0.00453383 0.00459577 0.00465404 0.00470862 0.00475952 0.00480674 0.00485059 0.00489137 0.00492908 0.00496372 0.0049953 0.00502381 0.00504925 0.00507163 0.00509117 0.0051081 0.00512243 0.00513415 0.00514327 0.00514978 0.00515369 0.00515499 0.00515369 0.00514978 0.00514327 0.00513415 0.00512243 0.0051081 0.00509117 0.00507163 0.00504926 0.00502381 0.0049953 0.00496373 0.00492908 0.00489137 0.00485059 0.00480675 0.00475953 0.00470863 0.00465404 0.00459578 0.00453384 0.00446821 0.00439891 0.00432592 0.00424916 0.00416853 0.00408403 0.00399566 0.00390343 0.00380733 0.00370736 0.00360352 0.00349626 0.00338602 0.0032728 0.0031566 0.00303743 0.00291528 0.00279014 0.00266203 0.0025321 0.0024015 0.00227024 0.00213831 0.00200571 0.00187245 0.00173853 0.00160394 0.00146914 0.00133457 0.00120024 0.00106614 0.000932286 0.000798663 0.000665277 0.000532127 0.00040741 0.000299322 0.000207862 0.000133032 7.48304e-05 3.32579e-05 8.31449e-06 0 0 3.32562e-05 0.000133025 0.000299306 0.000532099 0.000831405 0.00119722 0.00162955 0.0021284 0.00266097 0.00319449 0.00372897 0.00426439 0.00480076 0.00533808 0.00587634 0.00641556 0.00695392 0.00748962 0.00802267 0.00855305 0.00908077 0.00960583 0.0101282 0.010648 0.0111604 0.011661 0.0121496 0.0126263 0.0130911 0.013544 0.0139849 0.014414 0.0148293 0.0152292 0.0156136 0.0159826 0.0163361 0.016674 0.0169966 0.0173036 0.0175956 0.0178728 0.0181353 0.0183831 0.0186161 0.0188345 0.0190381 0.019227 0.0194024 0.0195655 0.0197163 0.0198549 0.0199812 0.0200952 0.020197 0.0202865 0.0203647 0.0204324 0.0204897 0.0205366 0.0205731 0.0205991 0.0206148 0.02062 0.0206148 0.0205991 0.0205731 0.0205366 0.0204897 0.0204324 0.0203647 0.0202865 0.020197 0.0200953 0.0199812 0.0198549 0.0197163 0.0195655 0.0194024 0.019227 0.0190381 0.0188345 0.0186162 0.0183831 0.0181353 0.0178728 0.0175956 0.0173037 0.0169966 0.0166741 0.0163361 0.0159827 0.0156137 0.0152293 0.0148294 0.0144141 0.013985 0.0135441 0.0130912 0.0126264 0.0121497 0.0116611 0.0111606 0.0106481 0.0101284 0.009606 0.00908094 0.00855323 0.00802285 0.00748982 0.00695412 0.00641577 0.00587655 0.00533828 0.00480096 0.00426458 0.00372914 0.00319465 0.00266111 0.00212851 0.00162964 0.00119729 0.000831449 0.000532127 0.000299322 0.000133032 3.32579e-05 0 0 7.48265e-05 0.000299306 0.000673438 0.00119722 0.00187066 0.00269375 0.0036665 0.00478889 0.00598719 0.00718761 0.00839017 0.00959487 0.0108017 0.0120107 0.0132218 0.014435 0.0156463 0.0168517 0.018051 0.0192444 0.0204317 0.0216131 0.0227885 0.0239579 0.0251109 0.0262372 0.0273366 0.0284092 0.029455 0.0304739 0.0314661 0.0324315 0.033366 0.0342658 0.0351307 0.0359608 0.0367561 0.0375166 0.0382423 0.0389331 0.03959 0.0402138 0.0408044 0.0413619 0.0418863 0.0423776 0.0428357 0.0432607 0.0436553 0.0440223 0.0443617 0.0446735 0.0449577 0.0452143 0.0454433 0.0456446 0.0458205 0.0459729 0.0461018 0.0462074 0.0462894 0.046348 0.0463832 0.0463949 0.0463832 0.046348 0.0462894 0.0462074 0.0461019 0.0459729 0.0458205 0.0456447 0.0454433 0.0452143 0.0449577 0.0446736 0.0443618 0.0440224 0.0436553 0.0432607 0.0428358 0.0423776 0.0418864 0.041362 0.0408045 0.0402139 0.0395902 0.0389333 0.0382424 0.0375167 0.0367563 0.035961 0.0351309 0.034266 0.0333662 0.0324317 0.0314663 0.0304742 0.0294552 0.0284094 0.0273369 0.0262375 0.0251113 0.0239583 0.0227889 0.0216135 0.0204321 0.0192448 0.0180514 0.0168521 0.0156468 0.0144355 0.0132222 0.0120111 0.0108022 0.0095953 0.00839057 0.00718797 0.00598749 0.00478914 0.00366669 0.00269389 0.00187076 0.00119729 0.000673473 0.000299322 7.48304e-05 0 0 0.000133025 0.000532099 0.00119722 0.0021284 0.00332562 0.00478889 0.00651822 0.00851359 0.0106439 0.012778 0.0149159 0.0170575 0.019203 0.0213523 0.0235054 0.0256622 0.0278157 0.0299585 0.0320907 0.0342122 0.0363231 0.0384233 0.0405129 0.0425919 0.0446417 0.0466438 0.0485983 0.0505052 0.0523644 0.0541759 0.0559397 0.0576559 0.0593174 0.0609169 0.0624546 0.0639303 0.0653442 0.0666962 0.0679863 0.0692145 0.0703823 0.0714912 0.0725412 0.0735324 0.0744646 0.0753379 0.0761523 0.0769079 0.0776094 0.0782619 0.0788653 0.0794196 0.0799248 0.080381 0.0807881 0.081146 0.0814587 0.0817296 0.0819588 0.0821464 0.0822923 0.0823965 0.082459 0.0824799 0.082459 0.0823965 0.0822923 0.0821464 0.0819589 0.0817296 0.0814587 0.0811461 0.0807881 0.080381 0.0799249 0.0794197 0.0788654 0.078262 0.0776095 0.076908 0.0761524 0.075338 0.0744647 0.0735325 0.0725414 0.0714914 0.0703825 0.0692147 0.0679865 0.0666964 0.0653445 0.0639306 0.0624549 0.0609173 0.0593177 0.0576563 0.0559402 0.0541763 0.0523648 0.0505057 0.0485989 0.0466444 0.0446423 0.0425925 0.0405136 0.038424 0.0363238 0.0342129 0.0320914 0.0299593 0.0278165 0.0256631 0.0235062 0.0213531 0.0192038 0.0170583 0.0149166 0.0127786 0.0106444 0.00851403 0.00651856 0.00478914 0.00332579 0.00212851 0.00119729 0.000532127 0.000133032 0 0 0.000207851 0.000831405 0.00187066 0.00332562 0.00519628 0.00748265 0.0101847 0.0133025 0.0166311 0.0199656 0.023306 0.0266524 0.0300047 0.033363 0.0367272 0.0400973 0.043462 0.0468101 0.0501417 0.0534565 0.0567548 0.0600364 0.0633014 0.0665498 0.0697526 0.072881 0.0759349 0.0789143 0.0818193 0.0846498 0.0874058 0.0900874 0.0926834 0.0951827 0.0975853 0.0998911 0.1021 0.104213 0.106229 0.108148 0.109972 0.111705 0.113346 0.114894 0.116351 0.117715 0.118988 0.120169 0.121265 0.122284 0.123227 0.124093 0.124883 0.125595 0.126231 0.126791 0.127279 0.127702 0.128061 0.128354 0.128582 0.128745 0.128842 0.128875 0.128842 0.128745 0.128582 0.128354 0.128061 0.127703 0.127279 0.126791 0.126231 0.125595 0.124883 0.124093 0.123227 0.122284 0.121265 0.120169 0.118988 0.117716 0.116351 0.114895 0.113346 0.111705 0.109973 0.108148 0.106229 0.104213 0.102101 0.0998916 0.0975858 0.0951832 0.092684 0.090088 0.0874065 0.0846505 0.08182 0.0789151 0.0759357 0.0728819 0.0697536 0.0665508 0.0633024 0.0600375 0.0567559 0.0534577 0.0501428 0.0468114 0.0434633 0.0400985 0.0367284 0.0333643 0.030006 0.0266536 0.0233071 0.0199666 0.0166319 0.0133032 0.0101852 0.00748304 0.00519655 0.00332579 0.00187076 0.000831449 0.000207862 0 0 0.000299306 0.00119722 0.00269375 0.00478889 0.00748265 0.010775 0.014666 0.0191556 0.0239487 0.0287504 0.0335607 0.0383795 0.0432068 0.0480427 0.0528871 0.0577401 0.0625853 0.0674066 0.072204 0.0769774 0.0817269 0.0864525 0.0911541 0.0958317 0.100444 0.104949 0.109346 0.113637 0.11782 0.121896 0.125864 0.129726 0.133464 0.137063 0.140523 0.143843 0.147024 0.150066 0.152969 0.155733 0.15836 0.160855 0.163218 0.165448 0.167545 0.16951 0.171343 0.173043 0.174621 0.176089 0.177447 0.178694 0.179831 0.180857 0.181773 0.182579 0.183282 0.183892 0.184407 0.184829 0.185158 0.185392 0.185533 0.18558 0.185533 0.185392 0.185158 0.184829 0.184407 0.183892 0.183282 0.182579 0.181773 0.180857 0.179831 0.178694 0.177447 0.176089 0.174621 0.173043 0.171343 0.169511 0.167546 0.165448 0.163218 0.160856 0.158361 0.155733 0.15297 0.150067 0.147025 0.143844 0.140523 0.137064 0.133465 0.129727 0.125865 0.121897 0.117821 0.113638 0.109347 0.10495 0.100445 0.0958331 0.0911555 0.086454 0.0817285 0.0769791 0.0722057 0.0674084 0.0625871 0.0577419 0.052889 0.0480445 0.0432086 0.0383812 0.0335623 0.0287519 0.02395 0.0191566 0.0146668 0.0107756 0.00748304 0.00478914 0.00269389 0.00119729 0.000299322 0 0 0.000407389 0.00162955 0.0036665 0.00651822 0.0101847 0.014666 0.019962 0.0260729 0.0325969 0.0391326 0.0456798 0.0522387 0.0588093 0.0653914 0.0719852 0.0785906 0.0851856 0.0917479 0.0982776 0.104775 0.111239 0.117671 0.124071 0.130438 0.136715 0.142847 0.148832 0.154672 0.160366 0.165914 0.171315 0.176571 0.181659 0.186558 0.191267 0.195787 0.200117 0.204257 0.208208 0.211969 0.215546 0.218942 0.222158 0.225193 0.228048 0.230722 0.233217 0.23553 0.237679 0.239677 0.241525 0.243223 0.24477 0.246167 0.247413 0.24851 0.249467 0.250297 0.250999 0.251573 0.25202 0.252339 0.252531 0.252595 0.252531 0.252339 0.25202 0.251573 0.250999 0.250297 0.249467 0.24851 0.247414 0.246167 0.24477 0.243223 0.241525 0.239677 0.237679 0.235531 0.233217 0.230723 0.228048 0.225193 0.222158 0.218942 0.215546 0.21197 0.208209 0.204258 0.200117 0.195788 0.191268 0.186559 0.181661 0.176573 0.171317 0.165915 0.160367 0.154674 0.148834 0.142848 0.136717 0.13044 0.124073 0.117673 0.111242 0.104777 0.09828 0.0917503 0.085188 0.0785931 0.0719877 0.0653939 0.0588117 0.0522411 0.045682 0.0391345 0.0325986 0.0260742 0.0199631 0.0146668 0.0101852 0.00651856 0.00366669 0.00162964 0.00040741 0 0 0.000532099 0.0021284 0.00478889 0.00851359 0.0133025 0.0191556 0.0260729 0.0340544 0.0425755 0.0511119 0.0596635 0.0682302 0.0768121 0.0854092 0.0940215 0.102649 0.111263 0.119834 0.128363 0.136849 0.145292 0.153693 0.162052 0.170368 0.178567 0.186575 0.194393 0.202021 0.209457 0.216704 0.223759 0.230624 0.23727 0.243668 0.249818 0.255721 0.261377 0.266785 0.271945 0.276858 0.281529 0.285965 0.290165 0.294129 0.297858 0.301352 0.304609 0.307632 0.310438 0.313048 0.315461 0.317678 0.319699 0.321524 0.323152 0.324584 0.325835 0.326918 0.327835 0.328586 0.329169 0.329586 0.329836 0.329919 0.329836 0.329586 0.329169 0.328586 0.327835 0.326918 0.325835 0.324584 0.323152 0.321524 0.3197 0.317679 0.315461 0.313048 0.310438 0.307632 0.30461 0.301352 0.297859 0.29413 0.290166 0.285966 0.28153 0.276859 0.271946 0.266786 0.261378 0.255723 0.24982 0.243669 0.237271 0.230625 0.223761 0.216705 0.209459 0.202023 0.194395 0.186578 0.178569 0.17037 0.162054 0.153696 0.145295 0.136852 0.128366 0.119837 0.111266 0.102652 0.0940248 0.0854125 0.0768153 0.0682332 0.0596663 0.0511144 0.0425777 0.0340561 0.0260742 0.0191566 0.0133032 0.00851403 0.00478914 0.00212851 0.000532127 0 0 0.000665113 0.00266045 0.00598601 0.0106418 0.0166278 0.0239441 0.0325905 0.0425672 0.0532181 0.0638873 0.0745746 0.0852802 0.096004 0.106746 0.117506 0.128285 0.139045 0.149752 0.160405 0.171004 0.181549 0.192041 0.202478 0.212862 0.223099 0.233098 0.242857 0.252379 0.261661 0.270705 0.27951 0.288076 0.296368 0.304351 0.312024 0.319388 0.326442 0.333187 0.339623 0.345749 0.351573 0.357104 0.36234 0.367282 0.37193 0.376284 0.380344 0.38411 0.387606 0.390858 0.393865 0.396628 0.399145 0.401418 0.403446 0.40523 0.406787 0.408136 0.409278 0.410213 0.41094 0.411459 0.41177 0.411874 0.41177 0.411459 0.41094 0.410213 0.409279 0.408137 0.406787 0.40523 0.403446 0.401418 0.399145 0.396628 0.393866 0.390859 0.387607 0.38411 0.380345 0.376285 0.371931 0.367283 0.362341 0.357104 0.351574 0.34575 0.339624 0.333189 0.326444 0.319389 0.312026 0.304352 0.29637 0.288078 0.279512 0.270707 0.261663 0.252381 0.24286 0.2331 0.223102 0.212865 0.202481 0.192044 0.181553 0.171008 0.160409 0.149756 0.139049 0.128289 0.11751 0.10675 0.096008 0.085284 0.0745781 0.0638904 0.0532209 0.0425694 0.0325922 0.0239453 0.0166287 0.0106424 0.00598633 0.00266059 0.000665147 0 0 0.000798103 0.00319241 0.00718293 0.0127696 0.0199526 0.0287317 0.039107 0.0510786 0.0638581 0.0766574 0.0894764 0.102315 0.115174 0.128052 0.14095 0.153868 0.166762 0.17959 0.192351 0.205046 0.217674 0.230236 0.242732 0.25516 0.267412 0.279376 0.291053 0.302442 0.313543 0.324356 0.334882 0.34512 0.355029 0.364566 0.373732 0.382527 0.390951 0.399003 0.406683 0.413993 0.420941 0.427537 0.433782 0.439675 0.445216 0.450405 0.455243 0.459729 0.463893 0.467766 0.471347 0.474636 0.477633 0.480338 0.482752 0.484874 0.486726 0.488332 0.48969 0.490802 0.491666 0.492284 0.492654 0.492778 0.492654 0.492284 0.491666 0.490802 0.48969 0.488332 0.486726 0.484874 0.482752 0.480339 0.477633 0.474636 0.471347 0.467766 0.463894 0.45973 0.455244 0.450406 0.445217 0.439676 0.433783 0.427538 0.420942 0.413994 0.406685 0.399004 0.390952 0.382529 0.373734 0.364568 0.355031 0.345123 0.334885 0.324359 0.313546 0.302445 0.291056 0.27938 0.267416 0.255164 0.242735 0.23024 0.217679 0.20505 0.192356 0.179594 0.166767 0.153872 0.140955 0.128057 0.115178 0.10232 0.0894806 0.0766611 0.0638614 0.0510812 0.0391091 0.0287332 0.0199536 0.0127703 0.0071833 0.00319258 0.000798144 0 0 0.00093107 0.00372428 0.00837963 0.0148971 0.0232768 0.0335185 0.0456224 0.0595885 0.0744955 0.0894222 0.104369 0.119335 0.134321 0.149327 0.164352 0.179398 0.194413 0.209347 0.224201 0.238974 0.253668 0.26828 0.282812 0.297264 0.311507 0.325412 0.33898 0.35221 0.365103 0.377658 0.389876 0.401757 0.413252 0.424314 0.434943 0.445139 0.454901 0.464231 0.473127 0.48159 0.489632 0.497266 0.504491 0.511308 0.517716 0.523716 0.529307 0.534489 0.539299 0.543771 0.547906 0.551703 0.555163 0.558285 0.56107 0.563517 0.565653 0.567504 0.56907 0.570352 0.571349 0.572061 0.572488 0.572631 0.572488 0.572061 0.571349 0.570352 0.569071 0.567504 0.565653 0.563517 0.56107 0.558285 0.555163 0.551703 0.547906 0.543772 0.5393 0.53449 0.529308 0.523716 0.517717 0.511309 0.504492 0.497267 0.489634 0.481592 0.473129 0.464232 0.454903 0.445141 0.434945 0.424317 0.413255 0.40176 0.389879 0.377661 0.365106 0.352213 0.338983 0.325416 0.311511 0.297268 0.282817 0.268285 0.253672 0.238979 0.224206 0.209352 0.194418 0.179403 0.164358 0.149332 0.134326 0.11934 0.104374 0.0894266 0.0744992 0.0595915 0.0456248 0.0335202 0.0232779 0.0148979 0.00838006 0.00372447 0.000931118 0 0 0.00106401 0.00425606 0.00957613 0.0170242 0.0266004 0.0383045 0.0521367 0.0680969 0.0851303 0.102182 0.119252 0.13634 0.153446 0.170571 0.187714 0.204875 0.221997 0.239024 0.255954 0.272789 0.289529 0.306172 0.32272 0.339172 0.355382 0.371204 0.386638 0.401684 0.416341 0.430611 0.444492 0.457986 0.471038 0.483595 0.495656 0.507223 0.518295 0.528872 0.538953 0.54854 0.557647 0.56629 0.574468 0.582181 0.58943 0.596215 0.602535 0.608391 0.613823 0.618874 0.623543 0.627829 0.631734 0.635258 0.638399 0.641158 0.643566 0.645653 0.647419 0.648864 0.649988 0.65079 0.651272 0.651433 0.651272 0.650791 0.649988 0.648864 0.647419 0.645654 0.643567 0.641159 0.638399 0.635258 0.631735 0.62783 0.623543 0.618874 0.613824 0.608391 0.602536 0.596216 0.589431 0.582182 0.574469 0.566291 0.557649 0.548542 0.538955 0.528874 0.518297 0.507225 0.495659 0.483597 0.471041 0.457989 0.444496 0.430614 0.416345 0.401688 0.386642 0.371208 0.355387 0.339177 0.322725 0.306177 0.289534 0.272795 0.25596 0.23903 0.222003 0.204881 0.18772 0.170577 0.153452 0.136346 0.119257 0.102187 0.0851345 0.0681004 0.0521393 0.0383065 0.0266017 0.0170251 0.00957661 0.00425627 0.00106407 0 0 0.00119694 0.00478774 0.0107724 0.019151 0.0299234 0.0430897 0.0586498 0.0766039 0.0957624 0.114936 0.134125 0.15333 0.172549 0.191784 0.211034 0.230299 0.249515 0.268619 0.287611 0.306491 0.325258 0.343912 0.362455 0.380885 0.399039 0.416753 0.434028 0.450863 0.467258 0.483214 0.49873 0.513807 0.528386 0.542407 0.555872 0.56878 0.581131 0.592925 0.604163 0.614843 0.624986 0.634608 0.643711 0.652295 0.660359 0.667903 0.674928 0.681433 0.687466 0.693074 0.698257 0.703015 0.707348 0.711257 0.71474 0.717799 0.720467 0.72278 0.724737 0.726338 0.727583 0.728472 0.729006 0.729184 0.729006 0.728472 0.727583 0.726338 0.724737 0.72278 0.720468 0.717799 0.714741 0.711257 0.707349 0.703015 0.698257 0.693074 0.687466 0.681434 0.674929 0.667904 0.66036 0.652296 0.643713 0.63461 0.624987 0.614845 0.604165 0.592927 0.581133 0.568782 0.555875 0.54241 0.528389 0.51381 0.498734 0.483218 0.467262 0.450867 0.434032 0.416758 0.399044 0.38089 0.36246 0.343918 0.325264 0.306497 0.287618 0.268626 0.249522 0.230306 0.211041 0.191791 0.172556 0.153336 0.134131 0.114942 0.0957672 0.0766077 0.0586528 0.0430918 0.0299249 0.0191519 0.010773 0.00478798 0.001197 0 0 0.00132983 0.00531933 0.0119685 0.0212773 0.0332458 0.047874 0.0651618 0.0851093 0.106392 0.127685 0.148989 0.170304 0.19163 0.212966 0.234312 0.25567 0.276968 0.298135 0.319172 0.340079 0.360855 0.381501 0.402017 0.422402 0.442476 0.462058 0.481149 0.499747 0.517853 0.535468 0.55259 0.569221 0.585296 0.600752 0.61559 0.629809 0.64341 0.656392 0.668755 0.680499 0.691648 0.702222 0.712223 0.721649 0.730502 0.73878 0.746485 0.753616 0.760227 0.766371 0.772048 0.777259 0.782004 0.786282 0.790093 0.793438 0.796355 0.798883 0.801023 0.802773 0.804134 0.805107 0.80569 0.805885 0.80569 0.805107 0.804134 0.802773 0.801023 0.798884 0.796356 0.793438 0.790094 0.786282 0.782004 0.77726 0.772049 0.766372 0.760228 0.753617 0.746486 0.738781 0.730503 0.72165 0.712224 0.702224 0.69165 0.680501 0.668757 0.656394 0.643412 0.629812 0.615593 0.600755 0.585299 0.569224 0.552594 0.535472 0.517858 0.499752 0.481154 0.462064 0.442482 0.422408 0.402023 0.381507 0.360862 0.340085 0.319179 0.298142 0.276975 0.255678 0.23432 0.212973 0.191637 0.170311 0.148996 0.127691 0.106397 0.0851135 0.065165 0.0478764 0.0332475 0.0212784 0.0119691 0.0053196 0.0013299 0 0 0.00146271 0.00585083 0.0131644 0.0234033 0.0365677 0.0526575 0.0716727 0.0936133 0.117019 0.140429 0.163844 0.187264 0.210688 0.234117 0.25755 0.280988 0.304354 0.32757 0.350636 0.373553 0.39632 0.418938 0.441405 0.463724 0.485695 0.50712 0.528001 0.548336 0.568127 0.587372 0.606072 0.624226 0.641768 0.65863 0.674811 0.690311 0.705131 0.719271 0.73273 0.745509 0.757633 0.769131 0.780001 0.790243 0.799859 0.808847 0.817207 0.82494 0.832106 0.838765 0.844918 0.850563 0.855702 0.860333 0.864458 0.868076 0.87123 0.873964 0.876277 0.87817 0.879642 0.880693 0.881324 0.881534 0.881324 0.880693 0.879642 0.87817 0.876277 0.873964 0.871231 0.868077 0.864459 0.860334 0.855702 0.850564 0.844918 0.838766 0.832107 0.824941 0.817208 0.808848 0.79986 0.790245 0.780002 0.769133 0.757635 0.745511 0.732732 0.719273 0.705134 0.690314 0.674814 0.658633 0.641772 0.62423 0.606076 0.587376 0.568132 0.548342 0.528006 0.507126 0.485701 0.46373 0.441412 0.418944 0.396327 0.37356 0.350644 0.327578 0.304362 0.280997 0.257559 0.234125 0.210696 0.187271 0.163851 0.140436 0.117025 0.0936179 0.0716762 0.0526601 0.0365695 0.0234045 0.013165 0.00585112 0.00146278 0 0 0.00159556 0.00638224 0.01436 0.025529 0.039889 0.0574402 0.0781825 0.102116 0.127643 0.153168 0.17869 0.204208 0.229724 0.255237 0.280747 0.306254 0.331674 0.356924 0.382004 0.406914 0.431653 0.456222 0.480621 0.50485 0.528694 0.551939 0.574585 0.596631 0.618078 0.638926 0.659175 0.678825 0.697803 0.71604 0.733534 0.750286 0.766295 0.781563 0.796088 0.809871 0.822943 0.835334 0.847046 0.858078 0.86843 0.878102 0.887093 0.895405 0.903104 0.910257 0.916865 0.922926 0.928441 0.933411 0.937835 0.941713 0.945093 0.948022 0.9505 0.952528 0.954105 0.955232 0.955908 0.956133 0.955908 0.955232 0.954105 0.952528 0.9505 0.948022 0.945093 0.941713 0.937835 0.933412 0.928442 0.922927 0.916865 0.910258 0.903105 0.895406 0.887095 0.878103 0.868431 0.85808 0.847048 0.835336 0.822945 0.809873 0.796091 0.781566 0.766298 0.750289 0.733537 0.716043 0.697807 0.678829 0.65918 0.638931 0.618084 0.596637 0.574591 0.551945 0.528701 0.504857 0.480629 0.45623 0.431661 0.406922 0.382012 0.356933 0.331683 0.306263 0.280756 0.255246 0.229733 0.204217 0.178697 0.153175 0.127649 0.102121 0.0781862 0.0574429 0.0398909 0.0255302 0.0143607 0.00638255 0.00159564 0 0 0.00172785 0.00691141 0.0155507 0.0276456 0.0431963 0.0622027 0.0846648 0.110583 0.138222 0.16585 0.193466 0.22107 0.248662 0.276242 0.303811 0.331367 0.358822 0.386084 0.413154 0.440031 0.466716 0.493209 0.51951 0.545618 0.571304 0.596335 0.620711 0.644434 0.667502 0.689917 0.711677 0.732783 0.753159 0.772732 0.791502 0.809467 0.826628 0.842986 0.858539 0.873289 0.887271 0.900522 0.913041 0.924829 0.935885 0.946209 0.955803 0.964664 0.972869 0.98049 0.987528 0.993983 0.999855 1.00514 1.00985 1.01397 1.01756 1.02067 1.02331 1.02546 1.02714 1.02834 1.02905 1.02929 1.02905 1.02834 1.02714 1.02546 1.02331 1.02068 1.01756 1.01397 1.00985 1.00514 0.999855 0.993984 0.987529 0.980491 0.97287 0.964665 0.955804 0.946211 0.935886 0.92483 0.913043 0.900524 0.887273 0.873292 0.858542 0.842989 0.826631 0.80947 0.791505 0.772736 0.753164 0.732787 0.711682 0.689922 0.667508 0.64444 0.620718 0.596341 0.57131 0.545626 0.519518 0.493217 0.466725 0.44004 0.413162 0.386093 0.358831 0.331377 0.30382 0.276252 0.248671 0.221079 0.193474 0.165857 0.138229 0.110588 0.0846688 0.0622056 0.0431983 0.0276469 0.0155514 0.00691174 0.00172793 0 0 0.00185905 0.00743619 0.0167314 0.0297448 0.0464762 0.0669258 0.0910934 0.118979 0.148713 0.178425 0.208114 0.237782 0.267427 0.29705 0.326651 0.356231 0.385691 0.414935 0.443963 0.472775 0.501372 0.529752 0.557917 0.585865 0.613351 0.640126 0.666192 0.691547 0.716192 0.740128 0.763353 0.785868 0.807596 0.828459 0.848456 0.867588 0.885856 0.903258 0.919795 0.935466 0.950315 0.964382 0.977667 0.990171 1.00189 1.01283 1.02299 1.03237 1.04105 1.04911 1.05655 1.06337 1.06957 1.07516 1.08012 1.08447 1.08826 1.09154 1.09432 1.09659 1.09836 1.09962 1.10038 1.10063 1.10038 1.09962 1.09836 1.09659 1.09432 1.09154 1.08826 1.08447 1.08013 1.07516 1.06957 1.06337 1.05655 1.04911 1.04105 1.03237 1.02299 1.01283 1.00189 0.990172 0.977669 0.964384 0.950317 0.935469 0.919797 0.903261 0.885859 0.867592 0.84846 0.828463 0.807601 0.785873 0.763358 0.740133 0.716198 0.691553 0.666198 0.640133 0.613358 0.585873 0.557925 0.529761 0.50138 0.472784 0.443972 0.414944 0.385701 0.356241 0.326662 0.29706 0.267437 0.237791 0.208123 0.178432 0.14872 0.118985 0.0910976 0.0669288 0.0464784 0.0297461 0.0167322 0.00743654 0.00185913 0 0 0.00198915 0.00795659 0.0179023 0.0318264 0.0497287 0.0716093 0.0974683 0.127305 0.159115 0.190891 0.222634 0.254343 0.286018 0.31766 0.349269 0.380844 0.412281 0.443477 0.474433 0.505147 0.535619 0.565851 0.595841 0.62559 0.654836 0.683314 0.711026 0.73797 0.764148 0.78956 0.814204 0.838082 0.861113 0.883218 0.904397 0.924651 0.943978 0.962379 0.979854 0.996402 1.01207 1.02691 1.04092 1.0541 1.06645 1.07797 1.08866 1.09852 1.10764 1.11611 1.12392 1.13109 1.1376 1.14346 1.14866 1.15322 1.15718 1.16062 1.16353 1.16591 1.16776 1.16908 1.16987 1.17014 1.16987 1.16908 1.16776 1.16591 1.16353 1.16062 1.15719 1.15322 1.14866 1.14346 1.1376 1.13109 1.12392 1.11611 1.10764 1.09852 1.08866 1.07798 1.06646 1.05411 1.04093 1.02692 1.01208 0.996405 0.979856 0.962382 0.943981 0.924654 0.904402 0.883223 0.861118 0.838087 0.81421 0.789565 0.764155 0.737977 0.711032 0.683321 0.654843 0.625598 0.59585 0.56586 0.535628 0.505156 0.474442 0.443487 0.412291 0.380854 0.349279 0.317671 0.286029 0.254353 0.222643 0.190899 0.159122 0.127311 0.0974727 0.0716126 0.049731 0.0318278 0.0179031 0.00795695 0.00198924 0 0 0.00211815 0.00847261 0.0190634 0.0338904 0.0529538 0.0762535 0.103789 0.135562 0.169429 0.20325 0.237025 0.270754 0.304436 0.338072 0.371662 0.405206 0.438593 0.471711 0.504562 0.537144 0.569459 0.601505 0.633284 0.664794 0.695758 0.725898 0.755213 0.783704 0.811371 0.838212 0.86423 0.889423 0.913711 0.937011 0.959326 0.980653 1.00099 1.02035 1.03872 1.0561 1.07255 1.08812 1.10281 1.11663 1.12957 1.14163 1.15282 1.16312 1.17265 1.18149 1.18965 1.19713 1.20393 1.21004 1.21546 1.22021 1.22434 1.22792 1.23094 1.23342 1.23535 1.23672 1.23755 1.23782 1.23755 1.23672 1.23535 1.23342 1.23094 1.22792 1.22434 1.22021 1.21546 1.21004 1.20393 1.19713 1.18965 1.18149 1.17265 1.16312 1.15282 1.14163 1.12957 1.11663 1.10281 1.08812 1.07255 1.0561 1.03872 1.02035 1.001 0.980657 0.95933 0.937016 0.913715 0.889428 0.864236 0.838218 0.811377 0.783711 0.75522 0.725906 0.695766 0.664803 0.633293 0.601515 0.569468 0.537154 0.504572 0.471722 0.438603 0.405217 0.371673 0.338083 0.304447 0.270764 0.237034 0.203259 0.169436 0.135568 0.103794 0.0762568 0.0529561 0.0338919 0.0190642 0.00847298 0.00211825 0 0 0.00224606 0.00898423 0.0202145 0.0359369 0.0561515 0.0808581 0.110057 0.143748 0.179655 0.215501 0.251288 0.287014 0.32268 0.358287 0.393832 0.429318 0.464626 0.499637 0.534351 0.568769 0.602891 0.636716 0.670244 0.703477 0.736119 0.767878 0.798755 0.828748 0.857859 0.886086 0.91343 0.939892 0.965388 0.989838 1.01324 1.0356 1.05691 1.07717 1.09638 1.11455 1.13173 1.148 1.16333 1.17775 1.19124 1.2038 1.21545 1.22617 1.23607 1.24526 1.25374 1.26151 1.26856 1.2749 1.28053 1.28544 1.28972 1.29342 1.29656 1.29912 1.30112 1.30254 1.3034 1.30368 1.3034 1.30254 1.30112 1.29912 1.29656 1.29342 1.28972 1.28544 1.28053 1.2749 1.26856 1.26151 1.25374 1.24526 1.23607 1.22617 1.21545 1.20381 1.19124 1.17775 1.16333 1.148 1.13174 1.11455 1.09639 1.07717 1.05691 1.0356 1.01325 0.989843 0.965393 0.939897 0.913436 0.886092 0.857865 0.828755 0.798762 0.767886 0.736127 0.703485 0.670254 0.636725 0.602901 0.568779 0.534362 0.499647 0.464637 0.42933 0.393844 0.358298 0.322692 0.287025 0.251298 0.21551 0.179662 0.143754 0.110062 0.0808616 0.0561539 0.0359385 0.0202154 0.00898462 0.00224616 0 0 0.00237287 0.00949148 0.0213558 0.0379659 0.0593217 0.0854233 0.116271 0.151864 0.189792 0.227645 0.265422 0.303125 0.340751 0.378303 0.415779 0.45318 0.49038 0.527253 0.5638 0.600021 0.635915 0.671482 0.706723 0.741638 0.775918 0.809255 0.84165 0.873103 0.903613 0.933181 0.961806 0.989488 1.01615 1.0417 1.06614 1.08948 1.11171 1.13284 1.15285 1.17176 1.18964 1.20654 1.22248 1.23745 1.25146 1.26449 1.27656 1.28766 1.29791 1.30742 1.31618 1.32421 1.3315 1.33805 1.34385 1.34892 1.35333 1.35714 1.36037 1.36302 1.36507 1.36654 1.36742 1.36771 1.36742 1.36654 1.36507 1.36302 1.36037 1.35714 1.35333 1.34892 1.34385 1.33805 1.3315 1.32421 1.31618 1.30742 1.29791 1.28766 1.27656 1.26449 1.25146 1.23746 1.22249 1.20655 1.18964 1.17177 1.15286 1.13284 1.11172 1.08948 1.06615 1.0417 1.01615 0.989494 0.961812 0.933187 0.90362 0.87311 0.841658 0.809263 0.775926 0.741647 0.706733 0.671492 0.635925 0.600031 0.563811 0.527265 0.490391 0.453192 0.415791 0.378315 0.340763 0.303135 0.265432 0.227654 0.1898 0.15187 0.116275 0.0854269 0.0593242 0.0379675 0.0213567 0.00949188 0.00237297 0 0 0.00249858 0.00999433 0.0224873 0.0399773 0.0624646 0.089949 0.122431 0.159909 0.199841 0.23968 0.279428 0.319085 0.358649 0.398121 0.437502 0.476791 0.515855 0.554561 0.592909 0.630899 0.668531 0.705804 0.74272 0.779277 0.815154 0.850028 0.883899 0.916768 0.948633 0.979496 1.00936 1.03821 1.06599 1.09259 1.11803 1.1423 1.16541 1.18735 1.20813 1.22774 1.24626 1.26377 1.28027 1.29575 1.31023 1.3237 1.33616 1.3476 1.35816 1.36795 1.37698 1.38524 1.39274 1.39947 1.40544 1.41064 1.41516 1.41908 1.42239 1.4251 1.42721 1.42872 1.42962 1.42992 1.42962 1.42872 1.42721 1.4251 1.42239 1.41908 1.41516 1.41064 1.40544 1.39947 1.39274 1.38524 1.37698 1.36795 1.35816 1.3476 1.33616 1.3237 1.31023 1.29576 1.28027 1.26377 1.24626 1.22774 1.20813 1.18736 1.16542 1.14231 1.11804 1.0926 1.06599 1.03822 1.00936 0.979502 0.94864 0.916775 0.883907 0.850036 0.815163 0.779286 0.742729 0.705814 0.668541 0.63091 0.592921 0.554573 0.515867 0.476803 0.437515 0.398134 0.358661 0.319096 0.279439 0.23969 0.199849 0.159916 0.122436 0.0899527 0.0624672 0.039979 0.0224882 0.00999475 0.00249869 0 0 0.0026232 0.0104928 0.0236088 0.0419712 0.06558 0.0944352 0.128537 0.167885 0.209801 0.251608 0.293306 0.334894 0.376373 0.417742 0.459002 0.500152 0.541052 0.581561 0.621678 0.661404 0.700739 0.739682 0.778235 0.816395 0.853828 0.890197 0.925502 0.959743 0.99292 1.02503 1.05608 1.08606 1.1149 1.14252 1.16891 1.19407 1.21801 1.24072 1.26221 1.28247 1.30159 1.31966 1.33668 1.35264 1.36756 1.38142 1.39423 1.40599 1.41683 1.42688 1.43614 1.44461 1.45229 1.45919 1.46529 1.47061 1.47522 1.47922 1.48261 1.48538 1.48753 1.48907 1.48999 1.4903 1.48999 1.48907 1.48753 1.48538 1.48261 1.47923 1.47523 1.47061 1.46529 1.45919 1.45229 1.44461 1.43614 1.42688 1.41683 1.40599 1.39423 1.38142 1.36756 1.35265 1.33668 1.31966 1.30159 1.28247 1.26221 1.24072 1.21801 1.19407 1.16891 1.14252 1.11491 1.08607 1.05609 1.02504 0.992927 0.959751 0.92551 0.890206 0.853837 0.816405 0.778244 0.739693 0.70075 0.661415 0.62169 0.581573 0.541064 0.500165 0.459014 0.417755 0.376385 0.334906 0.293317 0.251618 0.20981 0.167892 0.128542 0.094439 0.0655827 0.0419729 0.0236098 0.0104932 0.00262331 0 0 0.00274554 0.0109821 0.0247098 0.0439286 0.0686384 0.0988393 0.134531 0.175714 0.219579 0.263315 0.306924 0.350404 0.393756 0.43698 0.480076 0.523044 0.565735 0.608 0.64984 0.691254 0.732242 0.772804 0.812941 0.852652 0.891588 0.929398 0.966082 1.00164 1.03607 1.06938 1.10156 1.13262 1.16247 1.19104 1.21832 1.24432 1.26904 1.29248 1.31462 1.33549 1.35517 1.37376 1.39125 1.40765 1.42296 1.43718 1.45031 1.46235 1.47343 1.4837 1.49317 1.50182 1.50967 1.5167 1.52293 1.52834 1.53304 1.53711 1.54056 1.54338 1.54557 1.54713 1.54807 1.54839 1.54807 1.54713 1.54557 1.54338 1.54056 1.53711 1.53304 1.52834 1.52293 1.5167 1.50967 1.50182 1.49317 1.48371 1.47343 1.46235 1.45031 1.43718 1.42297 1.40766 1.39125 1.37376 1.35517 1.33549 1.31463 1.29248 1.26905 1.24433 1.21833 1.19104 1.16248 1.13263 1.10157 1.06939 1.03608 1.00165 0.96609 0.929406 0.891597 0.852662 0.812951 0.772815 0.732253 0.691265 0.649851 0.608012 0.565747 0.523056 0.480089 0.436993 0.393768 0.350416 0.306934 0.263325 0.219587 0.175721 0.134536 0.0988431 0.0686411 0.0439303 0.0247108 0.0109826 0.00274564 0 0 0.0028644 0.0114576 0.0257796 0.0458303 0.0716099 0.103118 0.140355 0.183321 0.229078 0.274687 0.320149 0.365463 0.41063 0.45565 0.500522 0.545247 0.589668 0.633627 0.677126 0.720165 0.762742 0.804858 0.846514 0.887709 0.92808 0.967264 1.00526 1.04207 1.0777 1.11214 1.14539 1.17745 1.20826 1.23772 1.