<?xml version="1.0"?> 
<VTKFile type="StructuredGrid" version="0.1"> 
<StructuredGrid WholeExtent="0 128 0 128 0 0"> 
<Piece Extent="0 128 0 128 0 0"> 
<PointData>
<DataArray type="Float32" Name="u" format="ascii" NumberOfComponents="1"> 
0 0 0 0 0 0 0 0 0 0 0 0 0 0 0 0 0 0 0 0 0 0 0 0 0 0 0 0 0 0 0 0 0 0 0 0 0 0 0 0 0 0 0 0 0 0 0 0 0 0 0 0 0 0 0 0 0 0 0 0 0 0 0 0 0 0 0 0 0 0 0 0 0 0 0 0 0 0 0 0 0 0 0 0 0 0 0 0 0 0 0 0 0 0 0 0 0 0 0 0 0 0 0 0 0 0 0 0 0 0 0 0 0 0 0 0 0 0 0 0 0 0 0 0 0 0 0 0 0 0 1.24749e-05 4.98995e-05 0.000112274 0.000199598 0.000311872 0.000449096 0.000611269 0.000798392 0.000997178 0.00119434 0.00138988 0.00158379 0.00177608 0.00196675 0.00215579 0.00234321 0.00252813 0.00270968 0.00288787 0.0030627 0.00323415 0.00340224 0.00356696 0.00372832 0.00388492 0.00403537 0.00417967 0.00431783 0.00444983 0.00457569 0.00469541 0.00480897 0.00491647 0.005018 0.00511354 0.00520311 0.0052867 0.00536431 0.00543595 0.0055016 0.00556215 0.00561847 0.00567056 0.00571841 0.00576204 0.00580143 0.00583659 0.00586752 0.00589516 0.00592044 0.00594336 0.00596393 0.00598214 0.00599799 0.00601149 0.00602263 0.00603197 0.00604007 0.00604692 0.00605252 0.00605688 0.00605999 0.00606186 0.00606248 0.00606186 0.00605999 0.00605688 0.00605252 0.00604692 0.00604007 0.00603198 0.00602264 0.0060115 0.005998 0.00598215 0.00596394 0.00594337 0.00592045 0.00589517 0.00586754 0.00583661 0.00580145 0.00576206 0.00571843 0.00567058 0.0056185 0.00556218 0.00550163 0.00543598 0.00536435 0.00528674 0.00520316 0.00511359 0.00501805 0.00491653 0.00480903 0.00469547 0.00457576 0.0044499 0.0043179 0.00417975 0.00403545 0.003885 0.00372841 0.00356706 0.00340234 0.00323425 0.0030628 0.00288798 0.0027098 0.00252824 0.00234332 0.00215591 0.00196687 0.0017762 0.0015839 0.00138998 0.00119443 0.000997258 0.000798457 0.000611319 0.000449132 0.000311897 0.000199614 0.000112283 4.99036e-05 1.24759e-05 0 0 4.98995e-05 0.000199598 0.000449096 0.000798392 0.00124749 0.00179638 0.00244508 0.00319357 0.00398871 0.00477736 0.00555951 0.00633517 0.00710433 0.00786699 0.00862316 0.00937283 0.0101125 0.0108387 0.0115515 0.0122508 0.0129366 0.013609 0.0142679 0.0149133 0.0155397 0.0161415 0.0167187 0.0172713 0.0177993 0.0183028 0.0187816 0.0192359 0.0196659 0.020072 0.0204542 0.0208124 0.0211468 0.0214573 0.0217438 0.0220064 0.0222486 0.0224739 0.0226822 0.0228736 0.0230481 0.0232057 0.0233464 0.0234701 0.0235806 0.0236818 0.0237735 0.0238557 0.0239286 0.023992 0.024046 0.0240905 0.0241279 0.0241603 0.0241877 0.0242101 0.0242275 0.02424 0.0242474 0.0242499 0.0242474 0.02424 0.0242275 0.0242101 0.0241877 0.0241603 0.0241279 0.0240906 0.024046 0.023992 0.0239286 0.0238558 0.0237735 0.0236818 0.0235807 0.0234702 0.0233464 0.0232058 0.0230482 0.0228737 0.0226823 0.022474 0.0222487 0.0220065 0.0217439 0.0214574 0.021147 0.0208126 0.0204544 0.0200722 0.0196661 0.0192361 0.0187819 0.018303 0.0177996 0.0172716 0.016719 0.0161418 0.01554 0.0149136 0.0142682 0.0136094 0.012937 0.0122512 0.0115519 0.0108392 0.010113 0.0093733 0.00862364 0.00786747 0.00710479 0.00633561 0.00555992 0.00477773 0.00398903 0.00319383 0.00244527 0.00179653 0.00124759 0.000798457 0.000449132 0.000199614 4.99036e-05 0 0 0.000112274 0.000449096 0.00101047 0.00179638 0.00280685 0.00404186 0.00550142 0.00718553 0.0089746 0.0107491 0.0125089 0.0142541 0.0159847 0.0177007 0.0194021 0.0210889 0.0227532 0.0243872 0.0259909 0.0275643 0.0291074 0.0306202 0.0321027 0.0335549 0.0349643 0.0363183 0.037617 0.0388604 0.0400485 0.0411813 0.0422587 0.0432808 0.0442483 0.045162 0.0460219 0.046828 0.0475803 0.0482788 0.0489235 0.0495144 0.0500593 0.0505662 0.051035 0.0514657 0.0518583 0.0522129 0.0525293 0.0528077 0.0530564 0.053284 0.0534903 0.0536754 0.0538393 0.0539819 0.0541034 0.0542037 0.0542877 0.0543606 0.0544222 0.0544727 0.0545119 0.0545399 0.0545567 0.0545623 0.0545567 0.0545399 0.0545119 0.0544727 0.0544223 0.0543606 0.0542878 0.0542037 0.0541035 0.053982 0.0538393 0.0536755 0.0534904 0.0532841 0.0530566 0.0528078 0.0525295 0.052213 0.0518585 0.0514659 0.0510352 0.0505665 0.0500596 0.0495147 0.0489238 0.0482792 0.0475807 0.0468284 0.0460223 0.0451625 0.0442488 0.0432813 0.0422592 0.0411818 0.0400491 0.0388611 0.0376177 0.036319 0.034965 0.0335557 0.0321035 0.030621 0.0291083 0.0275652 0.0259918 0.0243882 0.0227542 0.0210899 0.0194032 0.0177018 0.0159858 0.0142551 0.0125098 0.0107499 0.00897532 0.00718611 0.00550187 0.00404219 0.00280707 0.00179653 0.00101055 0.000449132 0.000112283 0 0 0.000199598 0.000798392 0.00179638 0.00319357 0.00498995 0.00718553 0.0097803 0.0127743 0.0159549 0.0191094 0.022238 0.0253407 0.0284173 0.031468 0.0344926 0.0374913 0.0404501 0.043355 0.046206 0.0490031 0.0517464 0.0544358 0.0570714 0.0596531 0.0621587 0.0645659 0.0668747 0.0690852 0.0711973 0.0732111 0.0751265 0.0769436 0.0786636 0.080288 0.0818167 0.0832498 0.0845872 0.085829 0.0869751 0.0880256 0.0889944 0.0898955 0.0907289 0.0914946 0.0921926 0.0928229 0.0933855 0.0938804 0.0943225 0.094727 0.0950938 0.0954229 0.0957142 0.0959679 0.0961839 0.0963621 0.0965115 0.0966411 0.0967506 0.0968403 0.09691 0.0969599 0.0969898 0.0969997 0.0969898 0.0969599 0.0969101 0.0968404 0.0967507 0.0966411 0.0965116 0.0963622 0.096184 0.095968 0.0957144 0.095423 0.095094 0.0947272 0.0943228 0.0938806 0.0933857 0.0928232 0.0921929 0.091495 0.0907293 0.0898959 0.0889949 0.0880261 0.0869757 0.0858296 0.0845879 0.0832505 0.0818175 0.0802888 0.0786645 0.0769445 0.0751275 0.0732122 0.0711985 0.0690864 0.066876 0.0645672 0.06216 0.0596545 0.0570729 0.0544374 0.0517481 0.0490048 0.0462077 0.0433568 0.0404519 0.0374932 0.0344945 0.0314699 0.0284192 0.0253424 0.0222397 0.0191109 0.0159561 0.0127753 0.0097811 0.00718611 0.00499036 0.00319383 0.00179653 0.000798457 0.000199614 0 0 0.000311872 0.00124749 0.00280685 0.00498995 0.0077968 0.0112274 0.0152817 0.0199598 0.0249295 0.0298585 0.034747 0.0395948 0.044402 0.0491687 0.0538947 0.0585802 0.0632032 0.0677421 0.0721968 0.0765674 0.0808538 0.085056 0.0891741 0.093208 0.0971229 0.100884 0.104492 0.107946 0.111246 0.114392 0.117385 0.120224 0.122912 0.12545 0.127839 0.130078 0.132168 0.134108 0.135899 0.13754 0.139054 0.140462 0.141764 0.14296 0.144051 0.145036 0.145915 0.146688 0.147379 0.148011 0.148584 0.149098 0.149554 0.14995 0.150287 0.150566 0.150799 0.151002 0.151173 0.151313 0.151422 0.1515 0.151546 0.151562 0.151547 0.1515 0.151422 0.151313 0.151173 0.151002 0.150799 0.150566 0.150287 0.14995 0.149554 0.149099 0.148584 0.148011 0.147379 0.146688 0.145915 0.145036 0.144051 0.142961 0.141765 0.140462 0.139055 0.137541 0.1359 0.134109 0.132169 0.130079 0.12784 0.125451 0.122913 0.120226 0.117387 0.114394 0.111248 0.107948 0.104494 0.100886 0.0971251 0.0932102 0.0891764 0.0850585 0.0808563 0.07657 0.0721996 0.0677449 0.0632061 0.0585831 0.0538977 0.0491717 0.0444049 0.0395976 0.0347495 0.0298608 0.0249314 0.0199614 0.015283 0.0112283 0.00779743 0.00499036 0.00280707 0.00124759 0.000311897 0 0 0.000449096 0.00179638 0.00404186 0.00718553 0.0112274 0.0161674 0.0220057 0.0287421 0.0358984 0.0429962 0.0500356 0.0570165 0.0639389 0.0708029 0.0776084 0.0843554 0.0910127 0.0975487 0.103963 0.110257 0.116429 0.122481 0.128411 0.134219 0.139857 0.145273 0.150468 0.155442 0.160194 0.164725 0.169035 0.173123 0.176993 0.180648 0.184088 0.187312 0.190321 0.193115 0.195694 0.198058 0.200237 0.202265 0.20414 0.205863 0.207433 0.208851 0.210117 0.211231 0.212226 0.213136 0.213961 0.214701 0.215357 0.215928 0.216414 0.216815 0.217151 0.217442 0.217689 0.217891 0.218048 0.21816 0.218227 0.218249 0.218227 0.21816 0.218048 0.217891 0.217689 0.217443 0.217151 0.216815 0.216414 0.215928 0.215357 0.214702 0.213961 0.213136 0.212226 0.211231 0.210118 0.208852 0.207434 0.205864 0.204141 0.202266 0.200238 0.198059 0.195695 0.193117 0.190323 0.187314 0.184089 0.18065 0.176995 0.173125 0.169037 0.164727 0.160197 0.155444 0.150471 0.145276 0.13986 0.134223 0.128414 0.122484 0.116433 0.110261 0.103967 0.0975527 0.0910168 0.0843597 0.0776127 0.0708072 0.0639431 0.0570205 0.0500393 0.0429996 0.0359013 0.0287444 0.0220075 0.0161688 0.0112283 0.00718611 0.00404219 0.00179653 0.000449132 0 0 0.000611269 0.00244508 0.00550142 0.0097803 0.0152817 0.0220057 0.0299522 0.0391212 0.0488617 0.0585227 0.068104 0.0776058 0.087028 0.0963706 0.105634 0.114817 0.123878 0.132775 0.141506 0.150072 0.158473 0.16671 0.174781 0.182688 0.190361 0.197733 0.204804 0.211573 0.218042 0.224209 0.230075 0.23564 0.240907 0.245882 0.250564 0.254952 0.259048 0.262851 0.266361 0.269578 0.272545 0.275305 0.277857 0.280202 0.28234 0.28427 0.285993 0.287509 0.288863 0.290102 0.291225 0.292233 0.293125 0.293902 0.294563 0.295109 0.295567 0.295963 0.296299 0.296573 0.296787 0.29694 0.297031 0.297062 0.297031 0.29694 0.296787 0.296574 0.296299 0.295963 0.295567 0.295109 0.294563 0.293902 0.293125 0.292233 0.291225 0.290102 0.288864 0.287509 0.285994 0.284271 0.282341 0.280203 0.277858 0.275306 0.272547 0.26958 0.266363 0.262853 0.25905 0.254955 0.250566 0.245884 0.24091 0.235643 0.230078 0.224212 0.218045 0.211577 0.204808 0.197737 0.190365 0.182692 0.174786 0.166715 0.158478 0.150077 0.141511 0.13278 0.123884 0.114823 0.10564 0.0963765 0.0870337 0.0776112 0.0681091 0.0585272 0.0488656 0.0391244 0.0299546 0.0220075 0.015283 0.0097811 0.00550187 0.00244527 0.000611319 0 0 0.000798392 0.00319357 0.00718553 0.0127743 0.0199598 0.0287421 0.0391212 0.0510971 0.0638194 0.0764378 0.0889522 0.101363 0.113669 0.125872 0.137971 0.149965 0.1618 0.17342 0.184824 0.196013 0.206986 0.217743 0.228286 0.238612 0.248635 0.258264 0.267499 0.276341 0.284789 0.292844 0.300506 0.307774 0.314654 0.321152 0.327267 0.332999 0.338349 0.343316 0.3479 0.352102 0.355978 0.359582 0.362916 0.365978 0.36877 0.371291 0.373542 0.375521 0.37729 0.378908 0.380375 0.381691 0.382857 0.383872 0.384735 0.385448 0.386046 0.386564 0.387003 0.387361 0.38764 0.387839 0.387959 0.387999 0.387959 0.38784 0.38764 0.387361 0.387003 0.386565 0.386047 0.385449 0.384736 0.383872 0.382858 0.381692 0.380376 0.378909 0.377291 0.375522 0.373543 0.371293 0.368772 0.36598 0.362917 0.359584 0.35598 0.352105 0.347903 0.343318 0.338352 0.333002 0.32727 0.321155 0.314658 0.307778 0.30051 0.292849 0.284794 0.276346 0.267504 0.258269 0.24864 0.238618 0.228292 0.21775 0.206992 0.196019 0.184831 0.173427 0.161808 0.149973 0.137978 0.125879 0.113677 0.10137 0.0889588 0.0764437 0.0638245 0.0511012 0.0391244 0.0287444 0.0199614 0.0127753 0.00718611 0.00319383 0.000798457 0 0 0.000997176 0.00398871 0.00897459 0.0159548 0.0249294 0.0358983 0.0488616 0.0638193 0.0797087 0.0954673 0.111095 0.126592 0.141959 0.157194 0.172299 0.187273 0.202046 0.21655 0.230783 0.244747 0.258441 0.271865 0.28502 0.297904 0.310407 0.322419 0.333939 0.344968 0.355504 0.365549 0.375103 0.384164 0.392741 0.400841 0.408462 0.415607 0.422273 0.428462 0.434174 0.439408 0.444235 0.448723 0.452874 0.456688 0.460164 0.463302 0.466103 0.468566 0.470766 0.472779 0.474604 0.476241 0.47769 0.478952 0.480026 0.480912 0.481654 0.482298 0.482843 0.483288 0.483635 0.483882 0.484031 0.48408 0.484031 0.483882 0.483635 0.483288 0.482843 0.482298 0.481655 0.480912 0.480026 0.478953 0.477691 0.476242 0.474605 0.47278 0.470768 0.468567 0.466104 0.463304 0.460166 0.45669 0.452877 0.448726 0.444237 0.439411 0.434177 0.428466 0.422277 0.41561 0.408466 0.400845 0.392745 0.384169 0.375107 0.365554 0.35551 0.344973 0.333945 0.322426 0.310414 0.297911 0.285027 0.271873 0.258449 0.244756 0.230792 0.216559 0.202055 0.187282 0.172308 0.157203 0.141968 0.126601 0.111103 0.0954747 0.0797151 0.0638244 0.0488656 0.0359012 0.0249314 0.0159561 0.00897531 0.00398903 0.000997257 0 0 0.00119433 0.00477733 0.010749 0.0191093 0.0298583 0.042996 0.0585223 0.0764373 0.0954669 0.114337 0.133048 0.1516 0.169992 0.188224 0.206298 0.224212 0.241883 0.259229 0.27625 0.292945 0.309315 0.325359 0.341078 0.356472 0.371408 0.385754 0.39951 0.412677 0.425254 0.437241 0.448639 0.459447 0.469674 0.47933 0.488415 0.496929 0.504872 0.512244 0.519045 0.525274 0.531017 0.536356 0.541294 0.545828 0.54996 0.553689 0.557016 0.559939 0.56255 0.564938 0.567102 0.569044 0.570762 0.572257 0.573529 0.574577 0.575456 0.576217 0.576861 0.577389 0.577799 0.578091 0.578267 0.578326 0.578267 0.578091 0.577799 0.577389 0.576862 0.576218 0.575456 0.574578 0.573529 0.572258 0.570763 0.569045 0.567104 0.564939 0.562552 0.559941 0.557017 0.553691 0.549962 0.54583 0.541296 0.536359 0.531019 0.525277 0.519048 0.512248 0.504876 0.496934 0.48842 0.479335 0.469679 0.459452 0.448645 0.437247 0.425261 0.412684 0.399518 0.385762 0.371416 0.35648 0.341087 0.325369 0.309325 0.292955 0.27626 0.25924 0.241894 0.224223 0.206309 0.188236 0.170003 0.15161 0.133058 0.114346 0.0954745 0.0764434 0.058527 0.0429994 0.0298607 0.0191109 0.0107499 0.00477771 0.00119443 0 0 0.00138986 0.00555945 0.0125088 0.0222378 0.0347465 0.050035 0.0681032 0.0889512 0.111094 0.133047 0.154811 0.176385 0.197769 0.218963 0.239968 0.260783 0.281312 0.301459 0.321224 0.340607 0.359607 0.378226 0.396462 0.414316 0.431636 0.448268 0.464212 0.479469 0.494039 0.50792 0.521115 0.533622 0.545453 0.556621 0.567126 0.576967 0.586146 0.59466 0.602512 0.6097 0.616324 0.622481 0.628173 0.633398 0.638158 0.642452 0.64628 0.649641 0.652642 0.655385 0.657871 0.6601 0.662072 0.663787 0.665245 0.666445 0.667451 0.668322 0.669059 0.669662 0.670131 0.670466 0.670668 0.670735 0.670668 0.670467 0.670132 0.669663 0.669059 0.668322 0.667451 0.666446 0.665245 0.663788 0.662073 0.660101 0.657872 0.655386 0.652643 0.649643 0.646281 0.642454 0.63816 0.633401 0.628176 0.622484 0.616327 0.609704 0.602516 0.594665 0.58615 0.576972 0.567131 0.556627 0.545459 0.533628 0.521122 0.507928 0.494046 0.479477 0.464221 0.448277 0.431645 0.414326 0.396472 0.378236 0.359618 0.340618 0.321236 0.301471 0.281325 0.260796 0.239981 0.218976 0.197781 0.176397 0.154822 0.133057 0.111103 0.0889582 0.0681086 0.050039 0.0347493 0.0222395 0.0125097 0.00555989 0.00138997 0 0 0.00158376 0.00633505 0.0142539 0.0253402 0.0395941 0.0570155 0.0776044 0.101361 0.12659 0.151598 0.176384 0.200948 0.22529 0.24941 0.273309 0.296986 0.320332 0.343239 0.365705 0.387731 0.409318 0.430464 0.451171 0.471438 0.491092 0.509961 0.528045 0.545344 0.561858 0.577587 0.592531 0.606689 0.620078 0.632713 0.644594 0.655721 0.666093 0.675712 0.684576 0.692686 0.700156 0.707098 0.713512 0.719399 0.724758 0.72959 0.733895 0.737672 0.74104 0.74412 0.746909 0.749409 0.75162 0.753542 0.755173 0.756516 0.757639 0.758612 0.759436 0.760109 0.760633 0.761008 0.761232 0.761307 0.761232 0.761008 0.760634 0.76011 0.759436 0.758613 0.757639 0.756517 0.755174 0.753543 0.751621 0.749411 0.746911 0.744121 0.741042 0.737674 0.733897 0.729593 0.724761 0.719402 0.713515 0.707101 0.70016 0.69269 0.684581 0.675717 0.666098 0.655726 0.6446 0.63272 0.620085 0.606697 0.592538 0.577595 0.561867 0.545353 0.528055 0.509971 0.491102 0.471449 0.451183 0.430476 0.40933 0.387744 0.365718 0.343252 0.320346 0.297001 0.273324 0.249425 0.225304 0.200961 0.176396 0.151609 0.1266 0.101369 0.0776104 0.0570199 0.0395972 0.0253422 0.014255 0.00633555 0.00158389 0 0 0.00177604 0.00710415 0.0159843 0.0284166 0.0444009 0.0639373 0.0870258 0.113666 0.141955 0.169988 0.197766 0.225288 0.252555 0.279566 0.306321 0.332821 0.358944 0.384568 0.409693 0.434319 0.458447 0.482075 0.505205 0.527836 0.549776 0.570834 0.591009 0.610302 0.628713 0.646241 0.662886 0.67865 0.69355 0.707607 0.72082 0.733189 0.744716 0.755398 0.765237 0.774233 0.782513 0.790206 0.797312 0.80383 0.809761 0.815105 0.819862 0.824031 0.827747 0.831142 0.834217 0.836972 0.839407 0.841521 0.843315 0.844789 0.84602 0.847088 0.847991 0.84873 0.849304 0.849715 0.849961 0.850043 0.849961 0.849715 0.849305 0.84873 0.847991 0.847088 0.846021 0.84479 0.843316 0.841522 0.839408 0.836974 0.834219 0.831144 0.827749 0.824033 0.819864 0.815108 0.809764 0.803833 0.797315 0.79021 0.782517 0.774237 0.765242 0.755403 0.744721 0.733196 0.720826 0.707614 0.693557 0.678658 0.662895 0.64625 0.628722 0.610312 0.59102 0.570845 0.549787 0.527848 0.505217 0.482088 0.45846 0.434333 0.409708 0.384583 0.358959 0.332837 0.306337 0.279582 0.25257 0.225303 0.19778 0.170001 0.141966 0.113675 0.0870325 0.0639422 0.0444043 0.0284188 0.0159856 0.00710469 0.00177617 0 0 0.00196668 0.00786673 0.0177001 0.0314669 0.0491671 0.0708006 0.0963675 0.125868 0.157189 0.188219 0.218959 0.249407 0.279564 0.30943 0.339005 0.368288 0.397147 0.425447 0.453188 0.48037 0.506994 0.533058 0.558564 0.58351 0.607688 0.630886 0.653104 0.674343 0.694602 0.713882 0.732182 0.749503 0.765868 0.781301 0.795803 0.809373 0.822012 0.83372 0.844495 0.85434 0.863395 0.871806 0.879571 0.886691 0.893166 0.898996 0.90418 0.908719 0.912761 0.916453 0.919795 0.922788 0.925431 0.927725 0.929669 0.931264 0.932595 0.933749 0.934725 0.935523 0.936145 0.936588 0.936855 0.936943 0.936855 0.936588 0.936145 0.935524 0.934725 0.933749 0.932596 0.931265 0.92967 0.927726 0.925433 0.92279 0.919797 0.916455 0.912763 0.908721 0.904182 0.898998 0.893169 0.886695 0.879575 0.87181 0.8634 0.854344 0.844501 0.833725 0.822018 0.80938 0.79581 0.781309 0.765876 0.749511 0.732191 0.713891 0.694612 0.674354 0.653115 0.630898 0.6077 0.583523 0.558577 0.533072 0.507008 0.480386 0.453204 0.425463 0.397164 0.368306 0.339022 0.309447 0.279581 0.249423 0.218974 0.188233 0.157201 0.125877 0.0963747 0.0708059 0.0491708 0.0314693 0.0177015 0.00786732 0.00196683 0 0 0.0021557 0.00862281 0.0194013 0.0344912 0.0538925 0.0776053 0.105629 0.137965 0.172292 0.206291 0.239961 0.273303 0.306317 0.339002 0.371359 0.403387 0.434942 0.465876 0.49619 0.525885 0.554959 0.583413 0.611247 0.638461 0.664827 0.690117 0.71433 0.737466 0.759526 0.78051 0.800417 0.819248 0.837032 0.853797 0.869544 0.884273 0.897983 0.910676 0.92235 0.933006 0.942803 0.951897 0.960291 0.967983 0.974973 0.981262 0.986849 0.991735 0.996082 1.00005 1.00364 1.00686 1.00969 1.01215 1.01424 1.01594 1.01736 1.0186 1.01964 1.02049 1.02115 1.02163 1.02191 1.02201 1.02191 1.02163 1.02115 1.02049 1.01964 1.0186 1.01736 1.01594 1.01424 1.01216 1.0097 1.00686 1.00364 1.00005 0.996084 0.991738 0.986852 0.981265 0.974976 0.967986 0.960295 0.951902 0.942808 0.933012 0.922356 0.910682 0.89799 0.88428 0.869551 0.853805 0.83704 0.819257 0.800427 0.78052 0.759537 0.737478 0.714342 0.69013 0.664841 0.638476 0.611262 0.583429 0.554975 0.525901 0.496208 0.465894 0.43496 0.403406 0.371378 0.339021 0.306335 0.27332 0.239977 0.206305 0.172304 0.137975 0.105637 0.077611 0.0538965 0.0344938 0.0194027 0.00862344 0.00215586 0 0 0.00234309 0.00937237 0.0210878 0.0374895 0.0585773 0.0843513 0.114812 0.149958 0.187264 0.224202 0.260773 0.296977 0.332813 0.368282 0.403384 0.438118 0.472328 0.505855 0.5387 0.570862 0.602343 0.63314 0.663256 0.692689 0.721195 0.748527 0.774686 0.799672 0.823486 0.846126 0.867592 0.887886 0.907042 0.925094 0.942042 0.957887 0.972629 0.986267 0.998802 1.01023 1.02074 1.03048 1.03947 1.0477 1.05518 1.0619 1.06787 1.07308 1.07771 1.08194 1.08576 1.08918 1.0922 1.09481 1.09702 1.09882 1.10032 1.10163 1.10273 1.10363 1.10433 1.10483 1.10513 1.10523 1.10513 1.10483 1.10433 1.10363 1.10273 1.10163 1.10033 1.09882 1.09702 1.09481 1.0922 1.08918 1.08576 1.08194 1.07771 1.07308 1.06787 1.06191 1.05519 1.04771 1.03947 1.03049 1.02074 1.01024 0.998808 0.986274 0.972636 0.957895 0.94205 0.925102 0.907051 0.887896 0.867603 0.846137 0.823497 0.799685 0.774699 0.748541 0.721209 0.692704 0.663272 0.633157 0.60236 0.57088 0.538718 0.505874 0.472347 0.438138 0.403404 0.368302 0.332833 0.296995 0.26079 0.224218 0.187277 0.149969 0.11482 0.0843574 0.0585815 0.0374922 0.0210894 0.00937305 0.00234326 0 0 0.00252798 0.0101119 0.0227519 0.0404478 0.0631996 0.0910074 0.123871 0.161791 0.202035 0.241871 0.281299 0.32032 0.358932 0.397137 0.434935 0.472324 0.509137 0.545203 0.580525 0.6151 0.64893 0.682014 0.714353 0.745945 0.776531 0.805847 0.833893 0.86067 0.886178 0.910417 0.933386 0.955086 0.975558 0.994842 1.01294 1.02985 1.04557 1.06011 1.07346 1.08562 1.09679 1.10715 1.1167 1.12544 1.13337 1.14049 1.14681 1.15232 1.15721 1.16167 1.1657 1.1693 1.17248 1.17523 1.17755 1.17944 1.18102 1.18238 1.18353 1.18448 1.18521 1.18574 1.18605 1.18616 1.18605 1.18574 1.18521 1.18448 1.18353 1.18238 1.18102 1.17944 1.17755 1.17523 1.17248 1.16931 1.1657 1.16167 1.15721 1.15232 1.14681 1.1405 1.13337 1.12544 1.1167 1.10715 1.0968 1.08563 1.07347 1.06012 1.04558 1.02986 1.01295 0.994852 0.975567 0.955096 0.933397 0.910429 0.886191 0.860684 0.833907 0.805861 0.776546 0.745961 0.714369 0.682032 0.648948 0.615119 0.580544 0.545223 0.509157 0.472345 0.434956 0.397158 0.358953 0.320339 0.281317 0.241887 0.202049 0.161802 0.12388 0.0910139 0.0632041 0.0404506 0.0227535 0.0101127 0.00252816 0 0 0.00270951 0.010838 0.0243856 0.0433521 0.0677377 0.0975423 0.132766 0.173408 0.216536 0.259214 0.301443 0.343222 0.384552 0.425433 0.465865 0.505847 0.545199 0.583741 0.621473 0.658395 0.694507 0.729809 0.7643 0.797982 0.830576 0.861805 0.891669 0.920168 0.947303 0.973072 0.997477 1.02052 1.04224 1.06269 1.08188 1.0998 1.11645 1.13183 1.14594 1.15878 1.17057 1.18149 1.19155 1.20076 1.20911 1.2166 1.22323 1.229 1.23412 1.23879 1.24301 1.24678 1.25009 1.25296 1.25538 1.25734 1.25898 1.26039 1.26159 1.26257 1.26333 1.26387 1.2642 1.26431 1.2642 1.26387 1.26333 1.26257 1.26159 1.26039 1.25898 1.25735 1.25538 1.25296 1.2501 1.24678 1.24301 1.23879 1.23412 1.22901 1.22323 1.2166 1.20911 1.20076 1.19156 1.18149 1.17057 1.15879 1.14595 1.13184 1.11645 1.09981 1.08189 1.0627 1.04225 1.02053 0.997488 0.973085 0.947316 0.920182 0.891684 0.86182 0.830592 0.797999 0.764318 0.729827 0.694526 0.658415 0.621494 0.583762 0.54522 0.505868 0.465887 0.425455 0.384574 0.343243 0.301462 0.259231 0.216551 0.17342 0.132775 0.097549 0.0677423 0.0433551 0.0243872 0.0108388 0.00270969 0 0 0.00288766 0.0115506 0.0259889 0.0462026 0.0721915 0.103956 0.141495 0.18481 0.230767 0.276231 0.321204 0.365684 0.409673 0.453169 0.496174 0.538686 0.580515 0.621468 0.661546 0.700747 0.739074 0.776524 0.813099 0.848799 0.883331 0.916403 0.948015 0.978167 1.00686 1.03409 1.05986 1.08418 1.10709 1.12865 1.14886 1.16773 1.18525 1.20142 1.21624 1.22971 1.24206 1.2535 1.26404 1.27367 1.2824 1.29022 1.29713 1.30314 1.30846 1.31331 1.31769 1.3216 1.32504 1.328 1.3305 1.33253 1.3342 1.33566 1.33689 1.3379 1.33868 1.33924 1.33957 1.33969 1.33957 1.33924 1.33868 1.3379 1.33689 1.33566 1.3342 1.33253 1.3305 1.32801 1.32504 1.3216 1.31769 1.31331 1.30847 1.30314 1.29714 1.29022 1.2824 1.27368 1.26405 1.25351 1.24207 1.22972 1.21625 1.20142 1.18525 1.16774 1.14887 1.12866 1.1071 1.08419 1.05988 1.0341 1.00687 0.978181 0.94803 0.916419 0.883348 0.848817 0.813118 0.776543 0.739094 0.700768 0.661567 0.62149 0.580537 0.538709 0.496197 0.453192 0.409695 0.365706 0.321224 0.276249 0.230782 0.184823 0.141505 0.103963 0.0721964 0.0462057 0.0259907 0.0115514 0.00288785 0 0 0.00306244 0.0122498 0.027562 0.0489991 0.0765611 0.110248 0.15006 0.195996 0.244728 0.292923 0.340583 0.387706 0.434294 0.480346 0.525863 0.570843 0.615085 0.658384 0.700742 0.742157 0.78263 0.822161 0.86075 0.898396 0.934795 0.969639 1.00293 1.03467 1.06485 1.09348 1.12055 1.14607 1.1701 1.1927 1.21388 1.23364 1.25197 1.26888 1.28436 1.29841 1.31128 1.32319 1.33416 1.34418 1.35324 1.36136 1.36852 1.37473 1.38023 1.38523 1.38975 1.39377 1.39731 1.40036 1.40292 1.40499 1.4067 1.40818 1.40944 1.41046 1.41126 1.41183 1.41218 1.41229 1.41218 1.41183 1.41126 1.41047 1.40944 1.40818 1.4067 1.40499 1.40292 1.40036 1.39731 1.39377 1.38975 1.38523 1.38023 1.37474 1.36852 1.36136 1.35325 1.34418 1.33417 1.3232 1.31128 1.29842 1.28436 1.26888 1.25198 1.23365 1.21389 1.19272 1.17011 1.14608 1.12056 1.09349 1.06486 1.03468 1.00295 0.969656 0.934812 0.898414 0.860769 0.822181 0.78265 0.742178 0.700763 0.658407 0.615108 0.570867 0.525887 0.48037 0.434317 0.387728 0.340603 0.292941 0.244743 0.196009 0.15007 0.110255 0.0765661 0.0490023 0.0275638 0.0122506 0.00306264 0 0 0.00323386 0.0129354 0.0291047 0.0517417 0.0808465 0.116419 0.158459 0.206967 0.258418 0.309289 0.359579 0.409288 0.458416 0.506964 0.554931 0.602317 0.648908 0.69449 0.739061 0.782623 0.825175 0.866718 0.907251 0.946774 0.984968 1.02151 1.05641 1.08966 1.12127 1.15122 1.17953 1.20619 1.23128 1.25486 1.27695 1.29754 1.31662 1.33421 1.35029 1.36488 1.37821 1.39056 1.40191 1.41227 1.42164 1.43001 1.43739 1.44377 1.44941 1.45454 1.45917 1.46329 1.46691 1.47002 1.47263 1.47473 1.47646 1.47796 1.47923 1.48027 1.48108 1.48166 1.48201 1.48212 1.48201 1.48166 1.48108 1.48028 1.47924 1.47796 1.47646 1.47473 1.47263 1.47002 1.46691 1.4633 1.45917 1.45455 1.44941 1.44378 1.43739 1.43001 1.42164 1.41227 1.40192 1.39056 1.37822 1.36488 1.3503 1.33421 1.31663 1.29754 1.27696 1.25487 1.23129 1.2062 1.17954 1.15124 1.12128 1.08968 1.05643 1.02153 0.984986 0.946793 0.90727 0.866738 0.825197 0.782645 0.739084 0.694513 0.648932 0.602342 0.554956 0.506988 0.45844 0.409311 0.3596 0.309308 0.258435 0.20698 0.158469 0.116426 0.0808516 0.051745 0.0291066 0.0129363 0.00323406 0 0 0.0034019 0.0136076 0.0306171 0.0544305 0.0850476 0.122469 0.166693 0.217722 0.271839 0.325329 0.378193 0.430429 0.482039 0.533023 0.583379 0.633109 0.681986 0.729784 0.776505 0.822147 0.866711 0.910196 0.952603 0.993932 1.03385 1.07203 1.10847 1.14316 1.17612 1.20734 1.23681 1.26455 1.29062 1.31513 1.33806 1.35941 1.3792 1.39741 1.41405 1.42911 1.44287 1.4556 1.46729 1.47795 1.48758 1.49618 1.50374 1.51027 1.51602 1.52125 1.52597 1.53016 1.53384 1.537 1.53963 1.54175 1.54349 1.545 1.54628 1.54733 1.54814 1.54872 1.54907 1.54918 1.54907 1.54872 1.54814 1.54733 1.54628 1.545 1.54349 1.54175 1.53963 1.537 1.53384 1.53017 1.52597 1.52126 1.51602 1.51027 1.50374 1.49618 1.48759 1.47796 1.4673 1.4556 1.44288 1.42912 1.41405 1.39742 1.37921 1.35942 1.33807 1.31514 1.29063 1.26456 1.23682 1.20735 1.17614 1.14318 1.10848 1.07205 1.03387 0.993951 0.952623 0.910217 0.866732 0.822169 0.776528 0.729808 0.68201 0.633133 0.583404 0.533047 0.482063 0.430452 0.378214 0.325348 0.271855 0.217735 0.166704 0.122476 0.0850528 0.0544338 0.030619 0.0136085 0.00340211 0 0 0.00356658 0.0142663 0.0320992 0.0570653 0.0891645 0.128397 0.174762 0.228261 0.284989 0.341044 0.396424 0.45113 0.505163 0.558522 0.611206 0.663217 0.714317 0.764268 0.813072 0.860728 0.907235 0.952595 0.996807 1.03987 1.08144 1.12118 1.15909 1.19516 1.22941 1.26181 1.29239 1.32113 1.34813 1.37349 1.39721 1.41928 1.4397 1.45848 1.47562 1.49111 1.50525 1.51831 1.53031 1.54123 1.55108 1.55986 1.56757 1.57421 1.58005 1.58536 1.59014 1.59438 1.5981 1.60128 1.60393 1.60605 1.60779 1.6093 1.61057 1.61162 1.61243 1.61301 1.61336 1.61347 1.61336 1.61301 1.61243 1.61162 1.61057 1.6093 1.60779 1.60605 1.60393 1.60128 1.5981 1.59439 1.59014 1.58536 1.58006 1.57422 1.56758 1.55987 1.55109 1.54123 1.53031 1.51832 1.50525 1.49112 1.47563 1.45849 1.43971 1.41929 1.39722 1.3735 1.34814 1.32114 1.2924 1.26183 1.22942 1.19518 1.15911 1.1212 1.08146 1.03989 0.996827 0.952616 0.907257 0.86075 0.813095 0.764292 0.714341 0.663242 0.611232 0.558547 0.505188 0.451154 0.396446 0.341063 0.285006 0.228275 0.174773 0.128404 0.0891698 0.0570687 0.0321011 0.0142672 0.00356679 0 0 0.00372788 0.0149115 0.033551 0.0596461 0.0931971 0.134204 0.182666 0.238585 0.29787 0.356432 0.414273 0.471391 0.527787 0.583461 0.638413 0.692642 0.745901 0.797941 0.848763 0.898366 0.94675 0.993915 1.03986 1.08459 1.12774 1.16898 1.20828 1.24566 1.28112 1.31465 1.34626 1.37594 1.40381 1.42996 1.4544 1.47712 1.49813 1.51743 1.53501 1.55088 1.56534 1.5787 1.59095 1.60209 1.61213 1.62106 1.62889 1.63561 1.64151 1.64687 1.65168 1.65595 1.65969 1.66288 1.66553 1.66763 1.66936 1.67085 1.67211 1.67315 1.67395 1.67453 1.67487 1.67499 1.67487 1.67453 1.67395 1.67315 1.67212 1.67085 1.66936 1.66764 1.66553 1.66288 1.65969 1.65596 1.65168 1.64687 1.64151 1.63562 1.6289 1.62107 1.61214 1.6021 1.59096 1.57871 1.56535 1.55089 1.53502 1.51744 1.49814 1.47713 1.45441 1.42997 1.40382 1.37596 1.34627 1.31467 1.28114 1.24568 1.2083 1.16899 1.12776 1.08461 1.03988 0.993936 0.946772 0.898389 0.848787 0.797966 0.745926 0.692668 0.638439 0.583487 0.527812 0.471415 0.414295 0.356452 0.297887 0.238598 0.182677 0.134212 0.0932025 0.0596496 0.0335529 0.0149124 0.0037281 0 0 0.00388443 0.0155377 0.0349599 0.0621509 0.0971107 0.139839 0.190337 0.248604 0.310369 0.371363 0.431587 0.491039 0.549721 0.607631 0.664771 0.72114 0.776478 0.830527 0.883285 0.934755 0.984934 1.03382 1.08142 1.12774 1.17239 1.21504 1.25567 1.29428 1.33088 1.36546 1.39803 1.42859 1.45724 1.48412 1.50922 1.53254 1.55408 1.57384 1.59182 1.60802 1.62276 1.63636 1.64883 1.66015 1.67034 1.67939 1.6873 1.69407 1.7 1.70538 1.71021 1.7145 1.71823 1.72141 1.72404 1.72613 1.72782 1.72929 1.73054 1.73156 1.73235 1.73291 1.73325 1.73337 1.73325 1.73291 1.73235 1.73156 1.73054 1.7293 1.72783 1.72613 1.72404 1.72141 1.71823 1.7145 1.71022 1.70539 1.70001 1.69408 1.68731 1.6794 1.67035 1.66016 1.64883 1.63637 1.62277 1.60803 1.59183 1.57385 1.55409 1.53255 1.50923 1.48413 1.45726 1.4286 1.39805 1.36548 1.33089 1.2943 1.25568 1.21506 1.17241 1.12776 1.08145 1.03385 0.984957 0.934778 0.883309 0.830551 0.776503 0.721165 0.664797 0.607657 0.549746 0.491063 0.431609 0.371383 0.310386 0.248617 0.190348 0.139847 0.0971162 0.0621543 0.0349618 0.0155386 0.00388465 0 0 0.00403483 0.0161393 0.0363134 0.0645572 0.100871 0.145254 0.197706 0.258229 0.322376 0.385704 0.448213 0.509902 0.570771 0.630821 0.690052 0.748463 0.805785 0.861746 0.916348 0.969589 1.02147 1.07199 1.12115 1.16896 1.21503 1.25899 1.30086 1.34062 1.37829 1.41384 1.4473 1.47865 1.50804 1.53558 1.56127 1.58512 1.60714 1.6273 1.64563 1.66211 1.67709 1.6909 1.70354 1.71501 1.72531 1.73445 1.74242 1.74922 1.75515 1.76054 1.76536 1.76963 1.77335 1.77651 1.77911 1.78116 1.78282 1.78426 1.78548 1.78648 1.78725 1.78781 1.78814 1.78825 1.78814 1.78781 1.78725 1.78648 1.78548 1.78426 1.78283 1.78116 1.77912 1.77651 1.77335 1.76964 1.76536 1.76054 1.75516 1.74922 1.74242 1.73445 1.72532 1.71502 1.70354 1.6909 1.6771 1.66212 1.64564 1.62731 1.60714 1.