<?xml version="1.0"?> 
<VTKFile type="StructuredGrid" version="0.1"> 
<StructuredGrid WholeExtent="0 128 0 128 0 0"> 
<Piece Extent="0 128 0 128 0 0"> 
<PointData>
<DataArray type="Float32" Name="u" format="ascii" NumberOfComponents="1"> 
0 0 0 0 0 0 0 0 0 0 0 0 0 0 0 0 0 0 0 0 0 0 0 0 0 0 0 0 0 0 0 0 0 0 0 0 0 0 0 0 0 0 0 0 0 0 0 0 0 0 0 0 0 0 0 0 0 0 0 0 0 0 0 0 0 0 0 0 0 0 0 0 0 0 0 0 0 0 0 0 0 0 0 0 0 0 0 0 0 0 0 0 0 0 0 0 0 0 0 0 0 0 0 0 0 0 0 0 0 0 0 0 0 0 0 0 0 0 0 0 0 0 0 0 0 0 0 0 0 0 1.11797e-05 4.47188e-05 0.000100617 0.000178875 0.000279493 0.000402469 0.000547805 0.000715501 0.000893889 0.0010713 0.00124774 0.0014232 0.00159768 0.00177119 0.00194373 0.00211529 0.00228513 0.00245251 0.00261743 0.00277989 0.00293989 0.00309743 0.00325251 0.00340513 0.00355394 0.00369762 0.00383616 0.00396955 0.00409781 0.00422092 0.0043389 0.00445173 0.00455932 0.00466156 0.00475844 0.00484998 0.00493617 0.005017 0.00509249 0.00516262 0.00522803 0.00528932 0.00534651 0.00539959 0.00544856 0.00549342 0.00553417 0.00557081 0.00560408 0.00563474 0.00566277 0.00568819 0.00571098 0.00573115 0.0057487 0.00576362 0.00577639 0.00578745 0.00579681 0.00580447 0.00581043 0.00581469 0.00581724 0.00581809 0.00581724 0.00581469 0.00581043 0.00580448 0.00579682 0.00578746 0.00577639 0.00576363 0.0057487 0.00573115 0.00571098 0.00568819 0.00566278 0.00563475 0.0056041 0.00557082 0.00553418 0.00549343 0.00544857 0.0053996 0.00534653 0.00528934 0.00522805 0.00516265 0.00509251 0.00501703 0.0049362 0.00485001 0.00475848 0.0046616 0.00455936 0.00445178 0.00433895 0.00422098 0.00409786 0.00396961 0.00383622 0.00369769 0.00355401 0.0034052 0.00325258 0.00309751 0.00293997 0.00277998 0.00261752 0.0024526 0.00228522 0.00211538 0.00194383 0.00177129 0.00159778 0.00142329 0.00124782 0.00107138 0.000893954 0.000715554 0.000547846 0.000402499 0.000279513 0.000178889 0.000100625 4.47221e-05 1.11805e-05 0 0 4.47188e-05 0.000178875 0.000402469 0.000715501 0.00111797 0.00160988 0.00219122 0.002862 0.00357555 0.0042852 0.00499095 0.00569279 0.00639074 0.00708478 0.00777491 0.00846115 0.00914052 0.00981004 0.0104697 0.0111196 0.0117596 0.0123897 0.01301 0.0136205 0.0142158 0.0147905 0.0153446 0.0158782 0.0163912 0.0168837 0.0173556 0.0178069 0.0182373 0.0186462 0.0190338 0.0193999 0.0197447 0.020068 0.0203699 0.0206505 0.0209121 0.0211573 0.021386 0.0215983 0.0217942 0.0219737 0.0221367 0.0222832 0.0224163 0.022539 0.0226511 0.0227527 0.0228439 0.0229246 0.0229948 0.0230545 0.0231056 0.0231498 0.0231873 0.0232179 0.0232417 0.0232587 0.023269 0.0232724 0.023269 0.0232588 0.0232417 0.0232179 0.0231873 0.0231498 0.0231056 0.0230545 0.0229948 0.0229246 0.0228439 0.0227528 0.0226511 0.022539 0.0224164 0.0222833 0.0221367 0.0219737 0.0217943 0.0215984 0.0213861 0.0211574 0.0209122 0.0206506 0.0203701 0.0200681 0.0197448 0.0194001 0.0190339 0.0186464 0.0182374 0.0178071 0.0173558 0.0168839 0.0163915 0.0158784 0.0153449 0.0147907 0.0142161 0.0136208 0.0130103 0.01239 0.0117599 0.0111199 0.0104701 0.00981041 0.00914089 0.00846154 0.00777531 0.00708517 0.00639112 0.00569316 0.00499129 0.00428551 0.00357582 0.00286222 0.00219139 0.00161 0.00111805 0.000715554 0.000402499 0.000178889 4.47221e-05 0 0 0.000100617 0.000402469 0.000905556 0.00160988 0.00251543 0.00362222 0.00493025 0.00643951 0.008045 0.00964171 0.0112296 0.0128088 0.0143792 0.0159407 0.0174936 0.0190376 0.0205662 0.0220726 0.0235569 0.025019 0.026459 0.0278769 0.0292726 0.0306461 0.0319855 0.0332786 0.0345254 0.035726 0.0368803 0.0379883 0.0390501 0.0400656 0.0410339 0.041954 0.042826 0.0436498 0.0444255 0.045153 0.0458324 0.0464636 0.0470522 0.0476039 0.0481186 0.0485963 0.049037 0.0494407 0.0498075 0.0501373 0.0504368 0.0507127 0.050965 0.0511937 0.0513988 0.0515803 0.0517383 0.0518726 0.0519875 0.0520871 0.0521713 0.0522403 0.0522939 0.0523322 0.0523552 0.0523628 0.0523552 0.0523322 0.0522939 0.0522403 0.0521714 0.0520871 0.0519875 0.0518727 0.0517383 0.0515804 0.0513989 0.0511937 0.050965 0.0507127 0.0504369 0.0501374 0.0498076 0.0494409 0.0490371 0.0485964 0.0481188 0.0476041 0.0470524 0.0464638 0.0458326 0.0451533 0.0444258 0.0436501 0.0428263 0.0419544 0.0410343 0.040066 0.0390505 0.0379888 0.0368808 0.0357265 0.034526 0.0332792 0.0319861 0.0306468 0.0292733 0.0278776 0.0264598 0.0250198 0.0235577 0.0220734 0.020567 0.0190385 0.0174944 0.0159416 0.01438 0.0128096 0.0112304 0.00964239 0.00804559 0.00643999 0.00493062 0.00362249 0.00251562 0.00161 0.000905623 0.000402499 0.000100625 0 0 0.000178875 0.000715501 0.00160988 0.002862 0.00447188 0.00643951 0.00876489 0.011448 0.0143022 0.0171408 0.0199638 0.0227712 0.0255629 0.0283391 0.0310997 0.0338446 0.0365621 0.0392402 0.0418789 0.0444782 0.0470382 0.0495589 0.0520401 0.054482 0.0568631 0.0591619 0.0613785 0.0635129 0.0655649 0.0675348 0.0694224 0.0712277 0.0729491 0.0745849 0.0761351 0.0775997 0.0789786 0.080272 0.0814798 0.0826019 0.0836484 0.0846291 0.0855441 0.0863934 0.0871769 0.0878946 0.0885467 0.0891329 0.0896654 0.0901558 0.0906044 0.091011 0.0913756 0.0916984 0.0919791 0.092218 0.0924222 0.0925992 0.092749 0.0928716 0.0929669 0.093035 0.0930758 0.0930895 0.0930758 0.093035 0.0929669 0.0928716 0.0927491 0.0925993 0.0924223 0.0922181 0.0919792 0.0916985 0.0913758 0.0910111 0.0906045 0.090156 0.0896655 0.0891331 0.0885469 0.0878949 0.0871771 0.0863937 0.0855444 0.0846295 0.0836488 0.0826023 0.0814802 0.0802725 0.0789792 0.0776002 0.0761357 0.0745855 0.0729498 0.0712284 0.0694231 0.0675356 0.0655658 0.0635138 0.0613795 0.059163 0.0568642 0.0544832 0.0520413 0.0495601 0.0470396 0.0444796 0.0418803 0.0392416 0.0365636 0.0338462 0.0311012 0.0283407 0.0255645 0.0227726 0.0199651 0.017142 0.0143033 0.0114489 0.00876554 0.00643999 0.00447221 0.00286222 0.00161 0.000715554 0.000178889 0 0 0.000279493 0.00111797 0.00251543 0.00447188 0.00698731 0.0100617 0.0136951 0.0178875 0.0223472 0.0267825 0.0311934 0.03558 0.0399421 0.0442799 0.0485932 0.0528822 0.0571282 0.0613127 0.0654358 0.0694973 0.0734972 0.0774357 0.0813127 0.0851281 0.0888486 0.0924405 0.0959039 0.0992388 0.102445 0.105523 0.108472 0.111293 0.113983 0.116539 0.118961 0.121249 0.123404 0.125425 0.127312 0.129066 0.130701 0.132233 0.133663 0.13499 0.136214 0.137335 0.138354 0.13927 0.140102 0.140869 0.141569 0.142205 0.142774 0.143279 0.143717 0.144091 0.14441 0.144686 0.14492 0.145112 0.145261 0.145367 0.145431 0.145452 0.145431 0.145367 0.145261 0.145112 0.14492 0.144686 0.14441 0.144091 0.143718 0.143279 0.142775 0.142205 0.14157 0.140869 0.140102 0.13927 0.138354 0.137336 0.136214 0.13499 0.133663 0.132234 0.130701 0.129066 0.127313 0.125426 0.123405 0.12125 0.118962 0.11654 0.113984 0.111294 0.108474 0.105524 0.102447 0.0992403 0.0959055 0.0924422 0.0888503 0.08513 0.0813146 0.0774377 0.0734993 0.0694994 0.065438 0.061315 0.0571306 0.0528846 0.0485957 0.0442823 0.0399445 0.0355822 0.0311955 0.0267844 0.0223489 0.0178889 0.0136962 0.0100625 0.00698784 0.00447221 0.00251562 0.00111805 0.000279513 0 0 0.000402469 0.00160988 0.00362222 0.00643951 0.0100617 0.0144889 0.019721 0.025758 0.03218 0.0385668 0.0449185 0.0512351 0.0575166 0.063763 0.0699742 0.0761504 0.0822646 0.0882904 0.0942275 0.100076 0.105836 0.111507 0.11709 0.122585 0.127942 0.133114 0.138102 0.142904 0.147521 0.151953 0.1562 0.160262 0.164135 0.167816 0.171304 0.174599 0.177702 0.180612 0.183329 0.185854 0.188209 0.190416 0.192474 0.194385 0.196148 0.197763 0.19923 0.200549 0.201747 0.202851 0.20386 0.204775 0.205595 0.206321 0.206953 0.20749 0.20795 0.208348 0.208685 0.208961 0.209176 0.209329 0.209421 0.209451 0.209421 0.209329 0.209176 0.208961 0.208685 0.208348 0.20795 0.207491 0.206953 0.206322 0.205595 0.204775 0.20386 0.202851 0.201747 0.20055 0.19923 0.197763 0.196149 0.194386 0.192475 0.190416 0.18821 0.185855 0.18333 0.180613 0.177703 0.1746 0.171305 0.167817 0.164137 0.160264 0.156202 0.151955 0.147523 0.142906 0.138104 0.133117 0.127944 0.122587 0.117093 0.11151 0.105839 0.100079 0.0942307 0.0882936 0.082268 0.0761538 0.0699778 0.0637665 0.05752 0.0512384 0.0449216 0.0385696 0.0321824 0.02576 0.0197225 0.01449 0.0100625 0.00643999 0.00362249 0.00161 0.000402499 0 0 0.000547805 0.00219122 0.00493025 0.00876489 0.0136951 0.019721 0.0268425 0.0350596 0.0438005 0.0524937 0.0611391 0.0697367 0.0782865 0.0867885 0.0952427 0.103649 0.111971 0.120173 0.128254 0.136215 0.144055 0.151774 0.159373 0.166851 0.174143 0.181183 0.187972 0.194508 0.200793 0.206825 0.212606 0.218135 0.223407 0.228416 0.233164 0.237649 0.241872 0.245833 0.249532 0.252968 0.256173 0.259177 0.261979 0.26458 0.266979 0.269177 0.271174 0.27297 0.2746 0.276102 0.277476 0.278721 0.279838 0.280826 0.281686 0.282418 0.283043 0.283585 0.284044 0.284419 0.284711 0.28492 0.285045 0.285086 0.285045 0.28492 0.284711 0.284419 0.284044 0.283585 0.283043 0.282418 0.281686 0.280827 0.279838 0.278722 0.277476 0.276103 0.274601 0.27297 0.271175 0.269178 0.26698 0.264581 0.26198 0.259178 0.256174 0.25297 0.249533 0.245834 0.241874 0.237651 0.233166 0.228418 0.223409 0.218137 0.212608 0.206828 0.200795 0.194511 0.187975 0.181187 0.174147 0.166855 0.159377 0.151778 0.144059 0.136219 0.128258 0.120177 0.111976 0.103654 0.0952475 0.0867933 0.0782912 0.0697412 0.0611433 0.0524975 0.0438038 0.0350622 0.0268445 0.0197225 0.0136962 0.00876554 0.00493062 0.00219139 0.000547846 0 0 0.000715501 0.002862 0.00643951 0.011448 0.0178875 0.025758 0.0350596 0.0457921 0.0572089 0.0685632 0.0798552 0.0910847 0.102252 0.113356 0.124399 0.135378 0.146248 0.156961 0.167516 0.177913 0.188153 0.198235 0.20816 0.217928 0.227452 0.236648 0.245514 0.254051 0.26226 0.270139 0.277689 0.284911 0.291796 0.29834 0.30454 0.310399 0.315915 0.321088 0.325919 0.330408 0.334594 0.338517 0.342177 0.345574 0.348708 0.351579 0.354187 0.356532 0.358661 0.360623 0.362418 0.364044 0.365503 0.366793 0.367917 0.368872 0.369689 0.370397 0.370996 0.371486 0.371868 0.37214 0.372303 0.372358 0.372303 0.37214 0.371868 0.371486 0.370996 0.370397 0.369689 0.368872 0.367917 0.366794 0.365503 0.364044 0.362418 0.360624 0.358662 0.356532 0.354187 0.35158 0.348709 0.345575 0.342178 0.338518 0.334595 0.330409 0.325921 0.32109 0.315917 0.310401 0.304543 0.298342 0.291799 0.284914 0.277693 0.270142 0.262263 0.254055 0.245518 0.236652 0.227457 0.217933 0.208165 0.198241 0.188158 0.177918 0.167521 0.156966 0.146254 0.135385 0.124405 0.113363 0.102258 0.0910905 0.0798606 0.0685681 0.0572131 0.0457955 0.0350622 0.02576 0.0178889 0.0114489 0.00643999 0.00286222 0.000715554 0 0 0.000893849 0.0035754 0.00804465 0.0143016 0.0223462 0.0321786 0.0437986 0.0572064 0.0714685 0.0856517 0.0997561 0.113782 0.127728 0.141596 0.155384 0.169094 0.182666 0.19604 0.209217 0.222196 0.234978 0.247562 0.259949 0.272138 0.284023 0.295496 0.306559 0.31721 0.327449 0.337277 0.346694 0.355699 0.364285 0.372444 0.380174 0.387478 0.394353 0.400801 0.406822 0.412415 0.41763 0.422517 0.427076 0.431307 0.435211 0.438786 0.442033 0.444952 0.447603 0.450045 0.452278 0.454302 0.456117 0.457723 0.45912 0.460309 0.461325 0.462205 0.46295 0.46356 0.464034 0.464373 0.464576 0.464644 0.464576 0.464373 0.464034 0.46356 0.46295 0.462205 0.461325 0.460309 0.459121 0.457724 0.456118 0.454303 0.452279 0.450046 0.447604 0.444953 0.442034 0.438787 0.435212 0.431309 0.427078 0.422519 0.417632 0.412417 0.406824 0.400804 0.394356 0.38748 0.380177 0.372447 0.364289 0.355703 0.346698 0.337281 0.327453 0.317214 0.306564 0.295502 0.284028 0.272144 0.259955 0.247568 0.234984 0.222203 0.209224 0.196047 0.182673 0.169102 0.155392 0.141603 0.127736 0.113789 0.0997628 0.0856578 0.0714737 0.0572106 0.0438019 0.032181 0.0223479 0.0143027 0.00804524 0.00357566 0.000893916 0 0 0.00107114 0.00428458 0.0096403 0.0171383 0.0267786 0.0385612 0.0524861 0.0685532 0.085643 0.102636 0.119531 0.13633 0.153031 0.169635 0.186142 0.202552 0.218794 0.234798 0.250562 0.266088 0.281375 0.296424 0.311233 0.325804 0.340008 0.353719 0.366936 0.379658 0.391887 0.403622 0.414863 0.42561 0.435854 0.445586 0.454807 0.463515 0.471712 0.479397 0.48657 0.493232 0.499442 0.50526 0.510687 0.515722 0.520366 0.524618 0.528479 0.531948 0.535097 0.537998 0.54065 0.543054 0.545209 0.547115 0.548773 0.550182 0.551387 0.552431 0.553314 0.554037 0.554599 0.555001 0.555242 0.555322 0.555242 0.555001 0.554599 0.554037 0.553315 0.552431 0.551387 0.550183 0.548774 0.547116 0.54521 0.543055 0.540651 0.537999 0.535098 0.531949 0.52848 0.524619 0.520367 0.515723 0.510688 0.505262 0.499444 0.493234 0.486573 0.4794 0.471715 0.463519 0.45481 0.44559 0.435858 0.425614 0.414867 0.403627 0.391892 0.379664 0.366941 0.353725 0.340015 0.325811 0.31124 0.296431 0.281383 0.266096 0.250571 0.234806 0.218803 0.202561 0.186152 0.169644 0.15304 0.136338 0.119539 0.102643 0.0856492 0.0685583 0.0524899 0.038564 0.0267806 0.0171396 0.00964101 0.00428489 0.00107122 0 0 0.00124739 0.00498954 0.0112265 0.0199582 0.0311846 0.0449059 0.0611219 0.0798327 0.0997323 0.119515 0.13918 0.158729 0.178161 0.197475 0.216672 0.235753 0.254634 0.273234 0.291552 0.30959 0.327346 0.34482 0.362014 0.378926 0.395409 0.411315 0.426645 0.441397 0.455574 0.469173 0.482196 0.494642 0.506502 0.517767 0.528437 0.538512 0.547991 0.556876 0.565165 0.572859 0.580029 0.586745 0.593008 0.598817 0.604173 0.609075 0.613524 0.617519 0.621144 0.624483 0.627535 0.6303 0.632778 0.63497 0.636875 0.638493 0.639876 0.641075 0.642089 0.642918 0.643564 0.644025 0.644301 0.644393 0.644301 0.644025 0.643564 0.642919 0.642089 0.641075 0.639877 0.638494 0.636876 0.634971 0.632779 0.630301 0.627536 0.624484 0.621146 0.61752 0.613525 0.609077 0.604175 0.598819 0.59301 0.586747 0.580031 0.572862 0.565168 0.556879 0.547995 0.538516 0.528441 0.517772 0.506507 0.494647 0.482201 0.469179 0.45558 0.441404 0.426651 0.411322 0.395416 0.378934 0.362022 0.344829 0.327355 0.309599 0.291562 0.273244 0.254644 0.235763 0.216683 0.197486 0.178171 0.158739 0.13919 0.119523 0.0997394 0.0798385 0.0611263 0.0449091 0.0311869 0.0199596 0.0112273 0.0049899 0.00124748 0 0 0.00142257 0.00569029 0.0128032 0.0227612 0.0355643 0.0512126 0.0697061 0.0910446 0.113736 0.13629 0.158704 0.18098 0.203117 0.225115 0.246975 0.268696 0.290185 0.311348 0.332187 0.352701 0.372889 0.392752 0.41229 0.431503 0.450224 0.468285 0.485686 0.502427 0.518509 0.533931 0.548693 0.562796 0.57623 0.588987 0.601066 0.612467 0.623191 0.633237 0.642605 0.651296 0.659392 0.666973 0.67404 0.680593 0.686632 0.692157 0.697168 0.701666 0.705744 0.709499 0.712931 0.71604 0.718825 0.721287 0.723426 0.725242 0.726792 0.728136 0.729273 0.730203 0.730927 0.731444 0.731754 0.731857 0.731754 0.731444 0.730927 0.730204 0.729273 0.728136 0.726793 0.725242 0.723427 0.721288 0.718826 0.716041 0.712932 0.7095 0.705745 0.701667 0.69717 0.692159 0.686634 0.680595 0.674042 0.666975 0.659394 0.651299 0.642609 0.633241 0.623195 0.612471 0.60107 0.588992 0.576236 0.562802 0.5487 0.533938 0.518516 0.502434 0.485693 0.468293 0.450232 0.431512 0.4123 0.392762 0.372899 0.352711 0.332198 0.31136 0.290196 0.268707 0.246987 0.225127 0.203128 0.180991 0.158714 0.136299 0.113744 0.0910512 0.0697111 0.0512163 0.0355669 0.0227628 0.0128041 0.0056907 0.00142267 0 0 0.00159671 0.00638683 0.0143704 0.0255473 0.0399177 0.0574814 0.0782386 0.102189 0.127655 0.15296 0.178102 0.203082 0.2279 0.252555 0.277049 0.301381 0.325446 0.349141 0.372466 0.395421 0.418005 0.440219 0.462063 0.483537 0.504454 0.524628 0.544059 0.562748 0.580693 0.597896 0.614355 0.630072 0.645038 0.659245 0.672692 0.685381 0.69731 0.708481 0.718892 0.728544 0.73753 0.745943 0.753783 0.76105 0.767744 0.773865 0.779412 0.784387 0.788896 0.793047 0.79684 0.800274 0.80335 0.806067 0.808426 0.810427 0.812135 0.813615 0.814867 0.815892 0.816689 0.817258 0.8176 0.817714 0.8176 0.817259 0.816689 0.815892 0.814868 0.813615 0.812135 0.810428 0.808427 0.806068 0.80335 0.800275 0.796841 0.793048 0.788898 0.784389 0.779414 0.773867 0.767746 0.761052 0.753785 0.745946 0.737533 0.728547 0.718895 0.708485 0.697315 0.685386 0.672697 0.65925 0.645044 0.630078 0.614362 0.597903 0.580701 0.562756 0.544068 0.524637 0.504463 0.483547 0.462073 0.44023 0.418016 0.395432 0.372478 0.349154 0.325459 0.301394 0.277062 0.252569 0.227912 0.203094 0.178113 0.15297 0.127664 0.102196 0.0782441 0.0574855 0.0399205 0.0255491 0.0143714 0.00638728 0.00159682 0 0 0.00176979 0.00707915 0.0159281 0.0283166 0.0442447 0.0637123 0.0867195 0.113266 0.141489 0.169525 0.197374 0.225035 0.252509 0.279796 0.306896 0.333808 0.360419 0.386613 0.41239 0.43775 0.462694 0.487222 0.511332 0.535026 0.558099 0.580345 0.601765 0.622358 0.642126 0.661067 0.679182 0.69647 0.712925 0.728541 0.743317 0.757253 0.77035 0.782607 0.794024 0.804601 0.814444 0.823656 0.832237 0.840187 0.847507 0.854197 0.860256 0.865684 0.870601 0.875127 0.87926 0.883002 0.886351 0.889309 0.891876 0.89405 0.895904 0.897512 0.898872 0.899985 0.90085 0.901469 0.901839 0.901963 0.90184 0.901469 0.90085 0.899985 0.898872 0.897512 0.895905 0.89405 0.891876 0.88931 0.886352 0.883003 0.879261 0.875128 0.870603 0.865686 0.860258 0.854199 0.84751 0.84019 0.83224 0.823659 0.814447 0.804605 0.794028 0.782611 0.770355 0.757259 0.743323 0.728547 0.712932 0.696477 0.679189 0.661075 0.642134 0.622367 0.601774 0.580355 0.558109 0.535037 0.511343 0.487233 0.462706 0.437763 0.412403 0.386626 0.360433 0.333822 0.30691 0.27981 0.252523 0.225048 0.197386 0.169536 0.141499 0.113274 0.0867255 0.0637167 0.0442477 0.0283185 0.0159292 0.00707964 0.00176991 0 0 0.00194181 0.00776725 0.0174763 0.031069 0.0485453 0.0699053 0.0951488 0.124276 0.155238 0.185986 0.21652 0.246839 0.276945 0.306837 0.336514 0.365978 0.395102 0.423762 0.451958 0.479689 0.506956 0.533759 0.560097 0.585971 0.611158 0.635435 0.658803 0.68126 0.702807 0.723445 0.743172 0.76199 0.779893 0.796876 0.81294 0.828085 0.84231 0.855616 0.868002 0.879469 0.890133 0.900111 0.909401 0.918006 0.925923 0.933154 0.939698 0.945556 0.950859 0.955738 0.960193 0.964224 0.967831 0.971014 0.973774 0.97611 0.978101 0.979826 0.981287 0.982481 0.98341 0.984074 0.984472 0.984605 0.984472 0.984074 0.983411 0.982482 0.981287 0.979827 0.978101 0.97611 0.973775 0.971015 0.967832 0.964225 0.960194 0.955739 0.950861 0.945558 0.939701 0.933156 0.925926 0.918008 0.909404 0.900114 0.890137 0.879473 0.868007 0.85562 0.842315 0.82809 0.812946 0.796882 0.779899 0.761997 0.74318 0.723453 0.702816 0.681269 0.658813 0.635446 0.611169 0.585983 0.560109 0.533772 0.506969 0.479703 0.451972 0.423777 0.395117 0.365993 0.33653 0.306852 0.27696 0.246854 0.216533 0.185998 0.155248 0.124284 0.0951553 0.06991 0.0485486 0.0310711 0.0174775 0.00776778 0.00194194 0 0 0.00211279 0.00845114 0.0190151 0.0338046 0.0528196 0.0760603 0.103526 0.135218 0.168902 0.202342 0.23554 0.268495 0.301208 0.333678 0.365905 0.39789 0.429497 0.46059 0.49117 0.521237 0.550791 0.579832 0.608359 0.636373 0.663633 0.6899 0.715173 0.739452 0.762737 0.785029 0.806327 0.826631 0.845939 0.864249 0.881561 0.897875 0.91319 0.927507 0.940826 0.953147 0.964598 0.975308 0.985277 0.994504 1.00299 1.01074 1.01774 1.024 1.02967 1.03488 1.03964 1.04394 1.04779 1.05118 1.05412 1.05661 1.05872 1.06056 1.06211 1.06338 1.06437 1.06508 1.0655 1.06564 1.0655 1.06508 1.06437 1.06338 1.06211 1.06056 1.05872 1.05661 1.05412 1.05118 1.04779 1.04394 1.03964 1.03488 1.02967 1.02401 1.01774 1.01074 1.00299 0.994507 0.98528 0.975312 0.964602 0.953151 0.940831 0.927512 0.913196 0.897881 0.881567 0.864256 0.845947 0.826639 0.806335 0.785038 0.762747 0.739462 0.715183 0.689911 0.663645 0.636385 0.608372 0.579845 0.550805 0.521252 0.491185 0.460606 0.429513 0.397906 0.365922 0.333695 0.301224 0.268511 0.235554 0.202355 0.168913 0.135227 0.103533 0.0760654 0.0528232 0.0338068 0.0190163 0.00845171 0.00211293 0 0 0.00228194 0.00912775 0.0205374 0.036511 0.0570484 0.0821498 0.111815 0.146044 0.182419 0.218521 0.25435 0.289906 0.32519 0.360201 0.394939 0.429405 0.463453 0.496936 0.529857 0.562214 0.594007 0.625237 0.655904 0.686007 0.715289 0.743494 0.770621 0.79667 0.821642 0.845536 0.868353 0.890091 0.910753 0.93034 0.94885 0.966285 0.982644 0.997927 1.01213 1.02527 1.03746 1.04887 1.05947 1.06929 1.07831 1.08654 1.09397 1.10061 1.10661 1.11213 1.11717 1.12172 1.12579 1.12938 1.13248 1.1351 1.13733 1.13927 1.1409 1.14224 1.14328 1.14402 1.14447 1.14462 1.14447 1.14402 1.14328 1.14224 1.1409 1.13927 1.13733 1.1351 1.13248 1.12938 1.12579 1.12172 1.11717 1.11213 1.10662 1.10061 1.09397 1.08654 1.07831 1.06929 1.05948 1.04887 1.03747 1.02527 1.01214 0.997932 0.98265 0.966291 0.948857 0.930347 0.910761 0.8901 0.868361 0.845546 0.821652 0.796681 0.770632 0.743506 0.715302 0.68602 0.655918 0.625252 0.594022 0.562229 0.529873 0.496953 0.463469 0.429422 0.394957 0.360219 0.325207 0.289923 0.254365 0.218534 0.18243 0.146054 0.111822 0.0821551 0.0570522 0.0365134 0.0205388 0.00912835 0.00228209 0 0 0.0024485 0.00979401 0.0220365 0.039176 0.0612126 0.0881461 0.119977 0.156704 0.195728 0.234448 0.272864 0.310976 0.348784 0.386288 0.423488 0.460384 0.49682 0.532641 0.567847 0.602438 0.636414 0.669775 0.70252 0.734651 0.765893 0.795974 0.824893 0.852651 0.879247 0.904682 0.928956 0.952067 0.974023 0.994826 1.01448 1.03298 1.05032 1.06652 1.08156 1.09546 1.10835 1.1204 1.13161 1.14197 1.15148 1.16015 1.16798 1.17497 1.18127 1.18707 1.19236 1.19714 1.2014 1.20516 1.20841 1.21115 1.21348 1.2155 1.21721 1.21861 1.2197 1.22048 1.22094 1.2211 1.22094 1.22048 1.2197 1.21861 1.21721 1.2155 1.21349 1.21115 1.20841 1.20516 1.20141 1.19714 1.19236 1.18707 1.18127 1.17497 1.16799 1.16016 1.15149 1.14197 1.13161 1.1204 1.10835 1.09546 1.08157 1.06653 1.05033 1.03298 1.01448 0.994833 0.974031 0.952076 0.928965 0.904692 0.879258 0.852662 0.824905 0.795986 0.765906 0.734665 0.702535 0.66979 0.636429 0.602454 0.567864 0.532658 0.496838 0.460402 0.423506 0.386306 0.348802 0.310993 0.27288 0.234463 0.195741 0.156714 0.119984 0.0881517 0.0612165 0.0391786 0.0220379 0.00979464 0.00244866 0 0 0.00261248 0.0104499 0.0235123 0.0417997 0.065312 0.0940493 0.128012 0.167199 0.20883 0.250125 0.291083 0.331705 0.37199 0.411938 0.45155 0.490825 0.529598 0.567703 0.60514 0.641909 0.67801 0.713443 0.748208 0.782305 0.815445 0.84734 0.87799 0.907394 0.935553 0.962467 0.988136 1.01256 1.03575 1.05771 1.07844 1.09795 1.11623 1.13329 1.14912 1.16372 1.17726 1.18991 1.20167 1.21253 1.22251 1.23159 1.23977 1.24707 1.25365 1.25969 1.26521 1.27019 1.27463 1.27854 1.28192 1.28476 1.28718 1.28927 1.29105 1.2925 1.29362 1.29443 1.29491 1.29507 1.29491 1.29443 1.29362 1.2925 1.29105 1.28927 1.28718 1.28477 1.28192 1.27854 1.27463 1.27019 1.26521 1.2597 1.25365 1.24707 1.23978 1.23159 1.22251 1.21254 1.20167 1.18992 1.17727 1.16372 1.14912 1.13329 1.11624 1.09796 1.07845 1.05772 1.03576 1.01257 0.988146 0.962478 0.935564 0.907406 0.878002 0.847353 0.815459 0.782319 0.748223 0.713459 0.678027 0.641926 0.605158 0.567721 0.529617 0.490844 0.45157 0.411958 0.372009 0.331723 0.2911 0.25014 0.208843 0.167209 0.12802 0.0940552 0.0653161 0.0418023 0.0235138 0.0104506 0.00261264 0 0 0.00277387 0.0110955 0.0249648 0.044382 0.0693468 0.0998594 0.13592 0.177528 0.221725 0.265551 0.309007 0.352093 0.394808 0.437152 0.479127 0.520731 0.561789 0.602124 0.641737 0.680628 0.718797 0.756243 0.792967 0.828969 0.863945 0.897592 0.929911 0.9609 0.99056 1.01889 1.04589 1.07157 1.09593 1.11899 1.14075 1.16121 1.18037 1.19823 1.21479 1.23005 1.2442 1.2574 1.26967 1.28099 1.29138 1.30083 1.30934 1.31691 1.32374 1.33 1.33572 1.34087 1.34547 1.34951 1.353 1.35593 1.35842 1.36058 1.3624 1.36389 1.36505 1.36588 1.36638 1.36655 1.36638 1.36588 1.36505 1.36389 1.3624 1.36058 1.35842 1.35593 1.353 1.34952 1.34547 1.34087 1.33572 1.33001 1.32374 1.31692 1.30934 1.30083 1.29139 1.281 1.26967 1.25741 1.2442 1.23006 1.2148 1.19823 1.18037 1.16121 1.14075 1.11899 1.09593 1.07158 1.0459 1.0189 0.990571 0.960912 0.929923 0.897606 0.863959 0.828984 0.792983 0.756259 0.718814 0.680646 0.641755 0.602143 0.561808 0.520751 0.479147 0.437172 0.394827 0.352111 0.309024 0.265566 0.221738 0.177539 0.135928 0.0998655 0.069351 0.0443847 0.0249664 0.0110962 0.00277404 0 0 0.00293268 0.0117307 0.0263941 0.0469228 0.0733169 0.105576 0.143701 0.187691 0.234411 0.280726 0.326635 0.372139 0.417237 0.46193 0.506218 0.5501 0.59339 0.635903 0.677637 0.718594 0.758773 0.798174 0.836798 0.874643 0.911393 0.946731 0.980656 1.01317 1.04427 1.07395 1.10223 1.12909 1.15456 1.17866 1.20139 1.22274 1.24273 1.26134 1.27859 1.29446 1.30916 1.32287 1.3356 1.34735 1.35811 1.36789 1.37669 1.38451 1.39154 1.398 1.40388 1.40919 1.41392 1.41808 1.42166 1.42466 1.4272 1.42941 1.43127 1.4328 1.43399 1.43484 1.43535 1.43552 1.43535 1.43484 1.43399 1.4328 1.43127 1.42941 1.4272 1.42466 1.42166 1.41808 1.41392 1.40919 1.40389 1.398 1.39154 1.38451 1.37669 1.36789 1.35811 1.34735 1.3356 1.32287 1.30916 1.29446 1.27859 1.26135 1.24274 1.22275 1.20139 1.17867 1.15457 1.1291 1.10224 1.07397 1.04428 1.01318 0.980669 0.946745 0.911408 0.874658 0.836814 0.798191 0.758791 0.718612 0.677656 0.635922 0.59341 0.55012 0.506238 0.461951 0.417257 0.372158 0.326653 0.280742 0.234425 0.187702 0.14371 0.105583 0.0733213 0.0469256 0.0263957 0.0117314 0.00293285 0 0 0.00308889 0.0123556 0.0278 0.0494223 0.0772223 0.1112 0.151356 0.197689 0.246891 0.29565 0.343968 0.391845 0.439279 0.486272 0.532823 0.578932 0.624403 0.66904 0.712841 0.755808 0.79794 0.839237 0.879699 0.919327 0.957789 0.994755 1.03022 1.0642 1.09668 1.12766 1.15714 1.18513 1.21165 1.23673 1.26036 1.28256 1.30332 1.32263 1.34051 1.35694 1.37214 1.38631 1.39946 1.41159 1.42269 1.43277 1.44182 1.44984 1.45706 1.46368 1.46971 1.47515 1.47999 1.48423 1.48789 1.49094 1.49353 1.49577 1.49767 1.49922 1.50043 1.50129 1.50181 1.50198 1.50181 1.50129 1.50043 1.49922 1.49767 1.49577 1.49353 1.49094 1.48789 1.48424 1.47999 1.47515 1.46972 1.46369 1.45706 1.44985 1.44182 1.43277 1.42269 1.41159 1.39947 1.38632 1.37214 1.35694 1.34051 1.32264 1.30332 1.28257 1.26037 1.23674 1.21166 1.18514 1.15715 1.12767 1.09669 1.06421 1.03024 0.994769 0.957804 0.919343 0.879716 0.839254 0.797958 0.755826 0.71286 0.669059 0.624424 0.578953 0.532844 0.486293 0.439299 0.391864 0.343986 0.295667 0.246905 0.197701 0.151364 0.111207 0.0772268 0.0494251 0.0278016 0.0123563 0.00308907 0 0 0.00324252 0.0129701 0.0291827 0.0518804 0.0810631 0.116731 0.158884 0.207521 0.259162 0.310324 0.361006 0.411209 0.460933 0.510177 0.558942 0.607228 0.654828 0.701535 0.747348 0.792269 0.836296 0.879431 0.921673 0.963021 1.00313 1.04167 1.07862 1.11399 1.14778 1.18 1.21063 1.23968 1.26719 1.29319 1.31768 1.34066 1.36213 1.38209 1.40055 1.41749 1.43314 1.44773 1.46126 1.47372 1.48512 1.49545 1.50472 1.51293 1.5203 1.52705 1.5332 1.53874 1.54367 1.54798 1.55169 1.55478 1.5574 1.55967 1.56159 1.56316 1.56438 1.56525 1.56577 1.56595 1.56577 1.56525 1.56438 1.56316 1.56159 1.55967 1.5574 1.55479 1.55169 1.54798 1.54367 1.53874 1.5332 1.52706 1.5203 1.51293 1.50473 1.49546 1.48512 1.47373 1.46127 1.44774 1.43315 1.41749 1.40055 1.3821 1.36214 1.34067 1.31769 1.2932 1.2672 1.23969 1.21064 1.18001 1.1478 1.114 1.07863 1.04168 1.00315 0.963037 0.921689 0.879449 0.836315 0.792288 0.747368 0.701555 0.654849 0.607249 0.558964 0.510198 0.460953 0.411229 0.361024 0.31034 0.259177 0.207533 0.158893 0.116737 0.0810676 0.0518833 0.0291843 0.0129708 0.0032427 0 0 0.00339357 0.0135743 0.0305421 0.0542971 0.0848391 0.122168 0.166285 0.217188 0.271226 0.324746 0.377748 0.430232 0.482198 0.533646 0.584576 0.634987 0.684664 0.733388 0.781159 0.827977 0.873843 0.918756 0.962717 1.00573 1.04743 1.08746 1.12584 1.16255 1.19759 1.23098 1.2627 1.29275 1.32119 1.34805 1.37334 1.39704 1.41917 1.43973 1.45871 1.47611 1.49217 1.50713 1.52099 1.53375 1.5454 1.55596 1.56541 1.57376 1.58125 1.58811 1.59435 1.59996 1.60496 1.60932 1.61307 1.61618 1.61882 1.6211 1.62303 1.62461 1.62583 1.62671 1.62724 1.62741 1.62724 1.62671 1.62583 1.62461 1.62303 1.6211 1.61882 1.61619 1.61307 1.60932 1.60496 1.59997 1.59435 1.58811 1.58125 1.57376 1.56541 1.55596 1.54541 1.53375 1.521 1.50714 1.49218 1.47612 1.45871 1.43974 1.41918 1.39705 1.37334 1.34806 1.3212 1.29276 1.26271 1.23099 1.19761 1.16256 1.12585 1.08748 1.04744 1.00574 0.962734 0.918774 0.873862 0.827997 0.781179 0.733408 0.684685 0.635009 0.584597 0.533667 0.482219 0.430252 0.377767 0.324763 0.271241 0.2172 0.166294 0.122175 0.0848437 0.0543 0.0305437 0.013575 0.00339375 0 0 0.00354067 0.0141627 0.031866 0.0566507 0.0885168 0.127464 0.173493 0.226603 0.282975 0.338789 0.394046 0.448746 0.502888 0.556472 0.609499 0.661968 0.713653 0.764324 0.813983 0.862628 0.910261 0.956881 1.00249 1.04708 1.0903 1.13177 1.17149 1.20947 1.2457 1.28019 1.31293 1.34392 1.37322 1.40088 1.4269 1.45128 1.47401 1.49511 1.51456 1.53237 1.54879 1.56408 1.57823 1.59124 1.60312 1.61385 1.62345 1.63192 1.6395 1.64644 1.65274 1.65841 1.66345 1.66785 1.67161 1.67474 1.67737 1.67965 1.68159 1.68317 1.68439 1.68527 1.6858 1.68598 1.6858 1.68527 1.6844 1.68317 1.68159 1.67965 1.67737 1.67474 1.67161 1.66785 1.66345 1.65842 1.65275 1.64644 1.6395 1.63192 1.62346 1.61386 1.60312 1.59124 1.57823 1.56409 1.5488 1.53238 1.51457 1.49511 1.47402 1.45129 1.42691 1.40089 1.37323 1.34393 1.31294 1.2802 1.24571 1.20948 1.17151 1.13178 1.09031 1.0471 1.00251 0.9569 0.91028 0.862648 0.814003 0.764345 0.713674 0.66199 0.609521 0.556494 0.502909 0.448766 0.394065 0.338806 0.282989 0.226615 0.173502 0.127471 0.0885214 0.0566537 0.0318677 0.0141634 0.00354086 0 0 0.00368248 0.0147299 0.0331424 0.0589198 0.0920621 0.132569 0.180442 0.235679 0.2943 0.352324 0.409751 0.466581 0.522814 0.57845 0.633488 0.68793 0.741536 0.794069 0.84553 0.895918 0.945233 0.993474 1.04064 1.08674 1.13139 1.17421 1.2152 1.25437 1.29171 1.32722 1.36091 1.39277 1.42287 1.45126 1.47795 1.50294 1.52622 1.5478 1.56767 1.58585 1.60258 1.61815 1.63254 1.64577 1.65783 1.66872 1.67844 1.68698 1.69463 1.70162 1.70797 1.71368 1.71874 1.72315 1.72692 1.73004 1.73267 1.73494 1.73687 1.73844 1.73966 1.74054 1.74106 1.74124 1.74106 1.74054 1.73967 1.73844 1.73687 1.73494 1.73267 1.73004 1.72692 1.72315 1.71874 1.71368 1.70797 1.70162 1.69463 1.68699 1.67844 1.66872 1