<?xml version="1.0"?> 
<VTKFile type="StructuredGrid" version="0.1"> 
<StructuredGrid WholeExtent="0 128 0 128 0 0"> 
<Piece Extent="0 128 0 128 0 0"> 
<PointData>
<DataArray type="Float32" Name="u" format="ascii" NumberOfComponents="1"> 
0 0 0 0 0 0 0 0 0 0 0 0 0 0 0 0 0 0 0 0 0 0 0 0 0 0 0 0 0 0 0 0 0 0 0 0 0 0 0 0 0 0 0 0 0 0 0 0 0 0 0 0 0 0 0 0 0 0 0 0 0 0 0 0 0 0 0 0 0 0 0 0 0 0 0 0 0 0 0 0 0 0 0 0 0 0 0 0 0 0 0 0 0 0 0 0 0 0 0 0 0 0 0 0 0 0 0 0 0 0 0 0 0 0 0 0 0 0 0 0 0 0 0 0 0 0 0 0 0 0 1.19002e-05 4.76006e-05 0.000107101 0.000190403 0.000297504 0.000428406 0.000583108 0.00076161 0.000951348 0.00113976 0.00132684 0.00151259 0.00169701 0.0018801 0.00206186 0.0022423 0.00242059 0.00259592 0.00276829 0.00293771 0.00310417 0.00326767 0.00342821 0.00358579 0.00373905 0.0038866 0.00402846 0.00416462 0.00429508 0.00441984 0.0045389 0.00465226 0.00475992 0.00486188 0.00495813 0.00504868 0.00513353 0.00521268 0.00528613 0.00535387 0.00541667 0.00547528 0.00552972 0.00557997 0.00562604 0.00566793 0.00570564 0.00573917 0.00576936 0.00579708 0.00582232 0.00584508 0.00586537 0.00588317 0.0058985 0.00591135 0.00592223 0.00593166 0.00593964 0.00594617 0.00595125 0.00595488 0.00595706 0.00595778 0.00595706 0.00595488 0.00595125 0.00594618 0.00593965 0.00593167 0.00592223 0.00591135 0.0058985 0.00588318 0.00586537 0.00584509 0.00582233 0.00579709 0.00576938 0.00573918 0.00570566 0.00566795 0.00562606 0.00557999 0.00552974 0.00547531 0.00541669 0.0053539 0.00528616 0.00521272 0.00513357 0.00504872 0.00495818 0.00486192 0.00475997 0.00465231 0.00453895 0.0044199 0.00429514 0.00416468 0.00402853 0.00388668 0.00373912 0.00358587 0.00342829 0.00326776 0.00310426 0.00293781 0.00276839 0.00259602 0.00242069 0.00224241 0.00206197 0.00188021 0.00169711 0.00151269 0.00132693 0.00113984 0.000951421 0.00076167 0.000583153 0.000428439 0.000297527 0.000190417 0.00010711 4.76044e-05 1.19011e-05 0 0 4.76006e-05 0.000190403 0.000428406 0.00076161 0.00119002 0.00171362 0.00233243 0.00304644 0.00380539 0.00455903 0.00530735 0.00605035 0.00678803 0.0075204 0.00824745 0.00896919 0.00968235 0.0103837 0.0110732 0.0117508 0.0124167 0.0130707 0.0137128 0.0143432 0.0149562 0.0155464 0.0161138 0.0166585 0.0171803 0.0176793 0.0181556 0.018609 0.0190397 0.0194475 0.0198325 0.0201947 0.0205341 0.0208507 0.0211445 0.0214155 0.0216667 0.0219011 0.0221189 0.0223199 0.0225042 0.0226717 0.0228226 0.0229567 0.0230775 0.0231883 0.0232893 0.0233803 0.0234615 0.0235327 0.023594 0.0236454 0.0236889 0.0237266 0.0237586 0.0237847 0.023805 0.0238195 0.0238282 0.0238311 0.0238282 0.0238195 0.023805 0.0237847 0.0237586 0.0237267 0.0236889 0.0236454 0.023594 0.0235327 0.0234615 0.0233804 0.0232893 0.0231884 0.0230775 0.0229567 0.0228226 0.0226718 0.0225043 0.02232 0.022119 0.0219012 0.0216668 0.0214156 0.0211446 0.0208509 0.0205343 0.0201949 0.0198327 0.0194477 0.0190399 0.0186092 0.0181558 0.0176796 0.0171806 0.0166587 0.0161141 0.0155467 0.0149565 0.0143435 0.0137132 0.013071 0.012417 0.0117512 0.0110736 0.0103841 0.00968277 0.00896962 0.00824789 0.00752084 0.00678846 0.00605075 0.00530772 0.00455937 0.00380569 0.00304668 0.00233261 0.00171376 0.00119011 0.00076167 0.000428439 0.000190417 4.76044e-05 0 0 0.000107101 0.000428406 0.000963913 0.00171362 0.00267754 0.00385565 0.00524797 0.00685449 0.00856213 0.0102578 0.0119415 0.0136133 0.0152731 0.0169209 0.0185568 0.0201807 0.0217853 0.0233633 0.0249146 0.0264394 0.0279375 0.029409 0.0308539 0.0322721 0.0336514 0.0349794 0.0362561 0.0374816 0.0386557 0.0397785 0.0408501 0.0418703 0.0428393 0.0437569 0.0446232 0.0454382 0.0462018 0.0469141 0.0475751 0.0481848 0.04875 0.0492776 0.0497675 0.0502198 0.0506344 0.0510114 0.0513508 0.0516525 0.0519243 0.0521737 0.0524009 0.0526057 0.0527883 0.0529485 0.0530865 0.0532021 0.0533001 0.053385 0.0534568 0.0535156 0.0535613 0.0535939 0.0536135 0.0536201 0.0536135 0.0535939 0.0535613 0.0535156 0.0534568 0.053385 0.0533001 0.0532022 0.0530865 0.0529486 0.0527884 0.0526058 0.052401 0.0521738 0.0519244 0.0516526 0.0513509 0.0510116 0.0506346 0.0502199 0.0497677 0.0492778 0.0487502 0.0481851 0.0475754 0.0469144 0.0462021 0.0454385 0.0446236 0.0437573 0.0428397 0.0418708 0.0408506 0.0397791 0.0386563 0.0374822 0.0362568 0.0349801 0.0336521 0.0322729 0.0308546 0.0294098 0.0279383 0.0264402 0.0249155 0.0233642 0.0217862 0.0201816 0.0185578 0.0169219 0.015274 0.0136142 0.0119424 0.0102586 0.00856279 0.00685503 0.00524838 0.00385595 0.00267775 0.00171376 0.000963988 0.000428439 0.00010711 0 0 0.000190403 0.00076161 0.00171362 0.00304644 0.00476006 0.00685449 0.00932972 0.0121858 0.0152216 0.0182361 0.0212294 0.0242014 0.0271521 0.0300816 0.0329898 0.0358768 0.0387294 0.0415347 0.0442927 0.0470033 0.0496667 0.0522827 0.0548513 0.0573727 0.0598247 0.0621856 0.0644553 0.0666339 0.0687212 0.0707174 0.0726223 0.0744361 0.0761587 0.07779 0.0793301 0.080779 0.0821365 0.0834029 0.084578 0.0856619 0.0866667 0.0876045 0.0884755 0.0892796 0.0900167 0.0906869 0.0912903 0.0918267 0.0923098 0.0927533 0.0931571 0.0935213 0.0938458 0.0941307 0.094376 0.0945815 0.0947557 0.0949066 0.0950343 0.0951388 0.09522 0.0952781 0.0953129 0.0953245 0.0953129 0.0952781 0.0952201 0.0951388 0.0950343 0.0949067 0.0947557 0.0945816 0.0943761 0.0941308 0.093846 0.0935215 0.0931573 0.0927535 0.09231 0.0918269 0.0912905 0.0906872 0.090017 0.0892799 0.0884759 0.0876049 0.0866671 0.0856623 0.0845785 0.0834035 0.0821371 0.0807796 0.0793308 0.0777908 0.0761595 0.074437 0.0726232 0.0707183 0.0687222 0.0666349 0.0644565 0.0621868 0.059826 0.057374 0.0548527 0.0522841 0.0496682 0.0470049 0.0442943 0.0415364 0.0387311 0.0358785 0.0329916 0.0300834 0.0271538 0.024203 0.0212309 0.0182375 0.0152227 0.0121867 0.00933045 0.00685503 0.00476044 0.00304668 0.00171376 0.00076167 0.000190417 0 0 0.000297504 0.00119002 0.00267754 0.00476006 0.0074376 0.0107101 0.0145777 0.0190403 0.0237837 0.0284939 0.0331709 0.0378147 0.0424252 0.0470025 0.0515466 0.0560574 0.0605147 0.064898 0.0692073 0.0734427 0.0776042 0.0816917 0.0857052 0.0896448 0.0934762 0.0971651 0.100711 0.104115 0.107377 0.110496 0.113472 0.116306 0.118998 0.121547 0.123953 0.126217 0.128338 0.130317 0.132153 0.133847 0.135417 0.136882 0.138243 0.139499 0.140651 0.141698 0.142641 0.143479 0.144234 0.144927 0.145558 0.146127 0.146634 0.147079 0.147462 0.147784 0.148056 0.148292 0.148491 0.148654 0.148781 0.148872 0.148926 0.148945 0.148926 0.148872 0.148781 0.148654 0.148491 0.148292 0.148056 0.147784 0.147463 0.147079 0.146634 0.146127 0.145558 0.144927 0.144234 0.14348 0.142641 0.141699 0.140652 0.1395 0.138244 0.136883 0.135417 0.133847 0.132154 0.130318 0.128339 0.126218 0.123954 0.121548 0.118999 0.116308 0.113474 0.110497 0.107378 0.104117 0.100713 0.0971669 0.0934781 0.0896468 0.0857073 0.0816939 0.0776065 0.0734451 0.0692098 0.0649005 0.0605173 0.0560601 0.0515493 0.0470052 0.0424279 0.0378172 0.0331733 0.028496 0.0237855 0.0190417 0.0145788 0.010711 0.00743818 0.00476044 0.00267775 0.00119011 0.000297527 0 0 0.000428406 0.00171362 0.00385565 0.00685449 0.0107101 0.0154226 0.0209919 0.027418 0.0342485 0.0410312 0.0477661 0.0544531 0.0610923 0.0676836 0.0742271 0.0807227 0.0871411 0.0934531 0.0996586 0.105758 0.11175 0.117636 0.123415 0.129088 0.134606 0.139918 0.145025 0.149926 0.154623 0.159114 0.1634 0.167481 0.171357 0.175028 0.178493 0.181753 0.184807 0.187657 0.190301 0.192739 0.195 0.19711 0.19907 0.200879 0.202538 0.204046 0.205403 0.20661 0.207697 0.208695 0.209604 0.210423 0.211153 0.211794 0.212346 0.212808 0.2132 0.21354 0.213827 0.214062 0.214245 0.214376 0.214454 0.21448 0.214454 0.214376 0.214245 0.214062 0.213827 0.21354 0.2132 0.212809 0.212346 0.211794 0.211153 0.210423 0.209604 0.208695 0.207698 0.206611 0.205404 0.204046 0.202538 0.20088 0.199071 0.197111 0.195001 0.19274 0.190302 0.187658 0.184809 0.181754 0.178494 0.175029 0.171359 0.167483 0.163402 0.159116 0.154625 0.149929 0.145027 0.13992 0.134608 0.129091 0.123419 0.117639 0.111753 0.105761 0.0996621 0.0934568 0.0871449 0.0807266 0.074231 0.0676875 0.0610961 0.0544568 0.0477695 0.0410343 0.0342512 0.0274201 0.0209935 0.0154238 0.010711 0.00685503 0.00385595 0.00171376 0.000428439 0 0 0.000583108 0.00233243 0.00524797 0.00932972 0.0145777 0.0209919 0.0285723 0.0373189 0.0466161 0.0558481 0.065015 0.0741168 0.0831534 0.0921249 0.101031 0.109873 0.118609 0.1272 0.135646 0.143948 0.152104 0.160116 0.167982 0.175704 0.183213 0.190444 0.197394 0.204066 0.210459 0.216572 0.222406 0.227961 0.233236 0.238232 0.242948 0.247386 0.251543 0.255421 0.25902 0.262339 0.265417 0.268289 0.270956 0.273419 0.275676 0.277729 0.279576 0.281219 0.282699 0.284057 0.285294 0.286409 0.287403 0.288275 0.289026 0.289656 0.290189 0.290651 0.291043 0.291363 0.291611 0.291789 0.291896 0.291931 0.291896 0.291789 0.291611 0.291363 0.291043 0.290652 0.290189 0.289656 0.289027 0.288276 0.287403 0.286409 0.285294 0.284058 0.282699 0.28122 0.279577 0.27773 0.275677 0.27342 0.270957 0.26829 0.265418 0.262341 0.259022 0.255423 0.251545 0.247388 0.242951 0.238234 0.233238 0.227963 0.222409 0.216575 0.210462 0.20407 0.197398 0.190447 0.183217 0.175708 0.167986 0.16012 0.152109 0.143952 0.135651 0.127205 0.118614 0.109878 0.101037 0.0921303 0.0831586 0.0741217 0.0650196 0.0558523 0.0466197 0.0373218 0.0285745 0.0209935 0.0145788 0.00933045 0.00524838 0.00233261 0.000583153 0 0 0.00076161 0.00304644 0.00685449 0.0121858 0.0190403 0.027418 0.0373189 0.048743 0.0608863 0.0729444 0.0849175 0.0968056 0.108609 0.120326 0.131959 0.143507 0.154918 0.166139 0.177171 0.188013 0.198667 0.209131 0.219405 0.229491 0.239299 0.248743 0.257821 0.266535 0.274885 0.282869 0.290489 0.297744 0.304635 0.31116 0.31732 0.323116 0.328546 0.333612 0.338312 0.342647 0.346667 0.350418 0.353902 0.357118 0.360067 0.362748 0.365161 0.367307 0.369239 0.371013 0.372629 0.374085 0.375383 0.376523 0.377504 0.378326 0.379023 0.379626 0.380137 0.380555 0.38088 0.381112 0.381252 0.381298 0.381252 0.381112 0.38088 0.380555 0.380137 0.379627 0.379023 0.378326 0.377504 0.376523 0.375384 0.374086 0.372629 0.371014 0.36924 0.367308 0.365162 0.362749 0.360068 0.35712 0.353903 0.35042 0.346668 0.342649 0.338314 0.333614 0.328549 0.323118 0.317323 0.311163 0.304638 0.297748 0.290493 0.282873 0.274889 0.26654 0.257826 0.248747 0.239304 0.229496 0.219411 0.209136 0.198673 0.18802 0.177177 0.166145 0.154924 0.143514 0.131966 0.120333 0.108615 0.0968121 0.0849236 0.0729499 0.060891 0.0487469 0.0373218 0.0274201 0.0190417 0.0121867 0.00685503 0.00304668 0.00076167 0 0 0.00095133 0.00380532 0.00856197 0.0152213 0.0237833 0.0342479 0.0466152 0.0608851 0.0760528 0.0911133 0.106067 0.120913 0.135651 0.150283 0.164808 0.179225 0.19347 0.207478 0.221248 0.234781 0.248078 0.261136 0.273958 0.286542 0.29878 0.310562 0.321888 0.332758 0.343172 0.35313 0.362632 0.371678 0.380269 0.388404 0.396083 0.403307 0.410075 0.416387 0.422244 0.427645 0.432651 0.437324 0.441663 0.445668 0.44934 0.452678 0.455682 0.458352 0.460757 0.462964 0.464974 0.466786 0.468401 0.469818 0.471038 0.47206 0.472926 0.473676 0.474311 0.474831 0.475235 0.475524 0.475697 0.475755 0.475697 0.475524 0.475235 0.474831 0.474312 0.473677 0.472926 0.472061 0.471038 0.469819 0.468402 0.466787 0.464975 0.462965 0.460758 0.458353 0.455683 0.452679 0.449341 0.44567 0.441665 0.437326 0.432654 0.427647 0.422246 0.41639 0.410078 0.40331 0.396087 0.388408 0.380273 0.371683 0.362637 0.353135 0.343177 0.332763 0.321893 0.310568 0.298786 0.286549 0.273965 0.261143 0.248085 0.234789 0.221256 0.207486 0.193478 0.179233 0.164816 0.150292 0.13566 0.120921 0.106074 0.09112 0.0760586 0.0608899 0.0466188 0.0342506 0.0237851 0.0152225 0.00856264 0.00380562 0.000951404 0 0 0.00113968 0.00455874 0.0102572 0.018235 0.0284921 0.0410287 0.0558446 0.0729398 0.0911092 0.109148 0.127055 0.144831 0.162476 0.17999 0.197373 0.214625 0.231668 0.248425 0.264895 0.281079 0.296977 0.312588 0.327913 0.342951 0.357573 0.371648 0.385175 0.398156 0.41059 0.422476 0.433815 0.444608 0.454854 0.464555 0.473711 0.482322 0.490388 0.497908 0.504884 0.511314 0.517273 0.522833 0.527996 0.53276 0.537126 0.541094 0.544663 0.547835 0.55069 0.55331 0.555695 0.557846 0.559762 0.561442 0.562888 0.5641 0.565125 0.566014 0.566766 0.567381 0.567859 0.568201 0.568406 0.568475 0.568406 0.568201 0.56786 0.567381 0.566766 0.566014 0.565125 0.5641 0.562889 0.561443 0.559762 0.557847 0.555696 0.553311 0.550691 0.547836 0.544665 0.541095 0.537128 0.532762 0.527998 0.522836 0.517275 0.511317 0.504887 0.497911 0.490391 0.482326 0.473715 0.464559 0.454859 0.444613 0.433821 0.422482 0.410596 0.398162 0.385182 0.371655 0.357581 0.342959 0.327921 0.312596 0.296986 0.281088 0.264905 0.248435 0.231678 0.214635 0.197383 0.18 0.162486 0.144841 0.127064 0.109156 0.0911162 0.0729455 0.0558489 0.0410318 0.0284943 0.0182364 0.010258 0.00455909 0.00113977 0 0 0.00132667 0.0053067 0.0119401 0.0212268 0.0331669 0.0477603 0.065007 0.0849072 0.106056 0.127047 0.147882 0.168561 0.189082 0.209447 0.229656 0.249707 0.269512 0.28898 0.308112 0.326906 0.345364 0.363486 0.38127 0.398718 0.415679 0.432001 0.447685 0.462731 0.477139 0.490908 0.504039 0.516532 0.52839 0.539614 0.550204 0.560161 0.569484 0.578174 0.586231 0.593654 0.60053 0.606945 0.612899 0.618392 0.623424 0.627996 0.632106 0.635755 0.639038 0.642051 0.644793 0.647265 0.649466 0.651396 0.653055 0.654444 0.655619 0.656638 0.6575 0.658205 0.658753 0.659145 0.65938 0.659458 0.65938 0.659145 0.658753 0.658205 0.6575 0.656638 0.65562 0.654445 0.653056 0.651397 0.649467 0.647266 0.644795 0.642053 0.63904 0.635757 0.632108 0.627997 0.623427 0.618395 0.612902 0.606948 0.600533 0.593657 0.586235 0.578178 0.569488 0.560165 0.550209 0.539619 0.528395 0.516538 0.504045 0.490915 0.477145 0.462738 0.447693 0.432009 0.415687 0.398727 0.38128 0.363496 0.345375 0.326917 0.308123 0.288991 0.269524 0.249719 0.229668 0.209459 0.189094 0.168572 0.147893 0.127057 0.106064 0.0849136 0.065012 0.0477639 0.0331694 0.0212284 0.011941 0.0053071 0.00132678 0 0 0.0015123 0.0060492 0.0136107 0.0241968 0.0378075 0.0544428 0.0741026 0.0967871 0.120892 0.144813 0.168549 0.192102 0.21547 0.238655 0.261655 0.284472 0.307002 0.329144 0.350898 0.372263 0.39324 0.41383 0.43403 0.453843 0.473097 0.491621 0.509416 0.526482 0.542819 0.558426 0.573304 0.587453 0.600876 0.61358 0.625562 0.636824 0.647365 0.657186 0.666286 0.674666 0.682424 0.68966 0.696374 0.702566 0.708236 0.713384 0.718009 0.722113 0.725803 0.729188 0.732268 0.735043 0.737513 0.739678 0.741539 0.743094 0.744409 0.745549 0.746514 0.747303 0.747917 0.748355 0.748618 0.748706 0.748618 0.748355 0.747917 0.747303 0.746514 0.74555 0.74441 0.743095 0.741539 0.739679 0.737514 0.735044 0.732269 0.729189 0.725804 0.722114 0.718011 0.713386 0.708238 0.702569 0.696377 0.689663 0.682427 0.674669 0.66629 0.65719 0.64737 0.636829 0.625567 0.613585 0.600882 0.587459 0.573311 0.558433 0.542827 0.52649 0.509425 0.49163 0.473106 0.453853 0.434041 0.41384 0.393252 0.372275 0.35091 0.329156 0.307015 0.284485 0.261669 0.238668 0.215483 0.192114 0.168561 0.144823 0.120901 0.0967944 0.0741082 0.0544468 0.0378103 0.0241986 0.0136117 0.00604965 0.00151241 0 0 0.00169656 0.00678623 0.015269 0.0271449 0.0424139 0.0610761 0.0831313 0.10858 0.135618 0.162443 0.189055 0.215454 0.24164 0.267613 0.293372 0.318918 0.344138 0.368916 0.393253 0.41715 0.440605 0.463619 0.486193 0.508325 0.529827 0.550508 0.570369 0.58941 0.60763 0.62503 0.641609 0.657368 0.672314 0.686453 0.699785 0.712311 0.724031 0.734943 0.745049 0.754349 0.762954 0.770978 0.77842 0.785281 0.79156 0.797258 0.802373 0.806908 0.810982 0.814719 0.818118 0.82118 0.823904 0.82629 0.828338 0.830049 0.831495 0.832748 0.833808 0.834675 0.83535 0.835832 0.836121 0.836217 0.836121 0.835832 0.83535 0.834675 0.833808 0.832748 0.831495 0.83005 0.828339 0.826291 0.823905 0.821181 0.81812 0.814721 0.810984 0.806909 0.802375 0.79726 0.791563 0.785284 0.778424 0.770982 0.762958 0.754353 0.745054 0.734948 0.724036 0.712317 0.699791 0.686459 0.672321 0.657376 0.641617 0.625038 0.607639 0.589419 0.570379 0.550518 0.529837 0.508336 0.486204 0.463631 0.440617 0.417163 0.393267 0.36893 0.344152 0.318933 0.293387 0.267627 0.241654 0.215468 0.189068 0.162455 0.135628 0.108588 0.0831375 0.0610806 0.0424171 0.0271469 0.0152701 0.00678673 0.00169668 0 0 0.00187945 0.00751781 0.0169151 0.0300712 0.0469863 0.0676603 0.0920931 0.120285 0.150234 0.179939 0.209401 0.238618 0.267591 0.296321 0.324806 0.353047 0.380919 0.408296 0.435178 0.461565 0.487458 0.512855 0.537758 0.562165 0.58587 0.608662 0.630544 0.651514 0.671573 0.69072 0.708955 0.72628 0.742702 0.758234 0.772874 0.786622 0.79948 0.811446 0.82252 0.832703 0.842121 0.850899 0.859038 0.866537 0.873397 0.879617 0.885198 0.89014 0.894577 0.898646 0.902345 0.905676 0.908637 0.91123 0.913454 0.915309 0.916876 0.918233 0.919382 0.920321 0.921052 0.921574 0.921888 0.921992 0.921888 0.921574 0.921052 0.920322 0.919382 0.918234 0.916876 0.91531 0.913455 0.911231 0.908639 0.905677 0.902347 0.898647 0.894579 0.890142 0.885201 0.87962 0.8734 0.86654 0.859041 0.850903 0.842125 0.832708 0.822525 0.811451 0.799485 0.786628 0.77288 0.758241 0.74271 0.726287 0.708964 0.690728 0.671582 0.651524 0.630554 0.608673 0.585881 0.562177 0.53777 0.512868 0.487471 0.46158 0.435193 0.408311 0.380935 0.353063 0.324822 0.296337 0.267607 0.238633 0.209415 0.179952 0.150245 0.120294 0.0920998 0.0676652 0.0469897 0.0300734 0.0169163 0.00751835 0.00187959 0 0 0.00206098 0.00824392 0.0185488 0.0329757 0.0515245 0.0741953 0.100988 0.131903 0.16474 0.197301 0.229585 0.261593 0.293324 0.324779 0.355957 0.386858 0.417347 0.447285 0.476673 0.505511 0.533799 0.561537 0.588725 0.615363 0.641224 0.666084 0.68994 0.712794 0.734646 0.755495 0.775342 0.794186 0.812042 0.828922 0.844827 0.859758 0.873713 0.886693 0.898699 0.909729 0.919924 0.929423 0.938227 0.946335 0.953747 0.960463 0.966484 0.97181 0.976588 0.980967 0.984948 0.988531 0.991715 0.9945 0.996887 0.998875 1.00055 1.00201 1.00324 1.00424 1.00502 1.00558 1.00592 1.00603 1.00592 1.00558 1.00502 1.00424 1.00324 1.00201 1.00055 0.998876 0.996888 0.994501 0.991716 0.988532 0.98495 0.980969 0.97659 0.971812 0.966487 0.960466 0.95375 0.946338 0.93823 0.929427 0.919928 0.909734 0.898704 0.886699 0.873719 0.859764 0.844834 0.828929 0.812049 0.794195 0.775351 0.755505 0.734656 0.712805 0.689952 0.666095 0.641237 0.615376 0.588739 0.561551 0.533814 0.505526 0.476689 0.447301 0.417363 0.386876 0.355974 0.324796 0.293341 0.261609 0.2296 0.197314 0.164752 0.131912 0.100995 0.0742006 0.0515282 0.032978 0.0185501 0.00824451 0.00206113 0 0 0.00224114 0.00896458 0.0201703 0.0358583 0.0560286 0.0806812 0.109816 0.143433 0.179136 0.214528 0.249609 0.284379 0.318839 0.352987 0.386825 0.420352 0.45342 0.485882 0.517737 0.548986 0.579629 0.609665 0.639095 0.667918 0.695892 0.722772 0.748558 0.773251 0.796851 0.819357 0.840769 0.861088 0.880332 0.898518 0.915646 0.931717 0.946731 0.960687 0.973585 0.985426 0.996363 1.00655 1.01599 1.02467 1.03261 1.0398 1.04623 1.05192 1.05701 1.06168 1.06593 1.06974 1.07314 1.0761 1.07864 1.08075 1.08252 1.08406 1.08537 1.08644 1.08727 1.08786 1.08821 1.08833 1.08821 1.08786 1.08727 1.08644 1.08537 1.08407 1.08252 1.08075 1.07864 1.0761 1.07314 1.06975 1.06593 1.06169 1.05702 1.05192 1.04623 1.0398 1.03261 1.02468 1.01599 1.00655 0.996368 0.985431 0.97359 0.960692 0.946737 0.931724 0.915653 0.898526 0.88034 0.861097 0.840779 0.819367 0.796862 0.773263 0.74857 0.722784 0.695905 0.667932 0.639109 0.60968 0.579644 0.549002 0.517754 0.485899 0.453438 0.42037 0.386844 0.353006 0.318857 0.284397 0.249625 0.214542 0.179148 0.143443 0.109824 0.0806868 0.0560325 0.0358608 0.0201717 0.0089652 0.0022413 0 0 0.00241912 0.00967647 0.0217721 0.0387059 0.0604779 0.0870882 0.118537 0.154824 0.193356 0.231542 0.269381 0.306874 0.34402 0.380819 0.417272 0.453378 0.488978 0.523915 0.558188 0.591797 0.624742 0.657023 0.688641 0.719594 0.749623 0.778468 0.806129 0.832605 0.857897 0.882005 0.904928 0.926667 0.947244 0.966684 0.984984 1.00215 1.01817 1.03306 1.0468 1.05941 1.07105 1.08188 1.09191 1.10114 1.10957 1.11719 1.12401 1.13003 1.13542 1.14036 1.14484 1.14888 1.15245 1.15558 1.15825 1.16047 1.16234 1.16396 1.16533 1.16645 1.16732 1.16794 1.16831 1.16844 1.16832 1.16794 1.16732 1.16645 1.16533 1.16396 1.16234 1.16047 1.15825 1.15558 1.15245 1.14888 1.14485 1.14036 1.13543 1.13004 1.12402 1.1172 1.10957 1.10115 1.09192 1.08189 1.07105 1.05942 1.04681 1.03306 1.01818 1.00215 0.984992 0.966692 0.947253 0.926676 0.904938 0.882015 0.857909 0.832617 0.806142 0.778482 0.749637 0.719609 0.688656 0.65704 0.624759 0.591814 0.558206 0.523934 0.488997 0.453397 0.417291 0.380839 0.344039 0.306892 0.269398 0.231557 0.193369 0.154834 0.118545 0.0870942 0.0604821 0.0387085 0.0217735 0.00967713 0.00241928 0 0 0.00259408 0.0103763 0.0233467 0.0415052 0.0648519 0.0933867 0.12711 0.166021 0.207334 0.248264 0.28881 0.328973 0.368752 0.408147 0.447159 0.485787 0.523862 0.561214 0.597844 0.633751 0.668936 0.703398 0.737137 0.770153 0.802171 0.832914 0.862383 0.890576 0.917495 0.943139 0.967509 0.990603 1.01245 1.03308 1.0525 1.07069 1.08767 1.10343 1.11797 1.1313 1.14359 1.15502 1.16561 1.17534 1.18422 1.19224 1.19941 1.20573 1.21138 1.21656 1.22126 1.22548 1.22922 1.23249 1.23528 1.23759 1.23954 1.24122 1.24265 1.24382 1.24472 1.24537 1.24576 1.24589 1.24576 1.24537 1.24472 1.24382 1.24265 1.24122 1.23954 1.2376 1.23528 1.23249 1.22923 1.22548 1.22126 1.21656 1.21139 1.20573 1.19941 1.19224 1.18422 1.17534 1.16561 1.15503 1.14359 1.1313 1.11798 1.10344 1.08768 1.0707 1.0525 1.03309 1.01246 0.990613 0.967519 0.943151 0.917507 0.890589 0.862396 0.832929 0.802186 0.770169 0.737153 0.703414 0.668953 0.633769 0.597863 0.561234 0.523882 0.485807 0.447179 0.408168 0.368772 0.328992 0.288828 0.24828 0.207348 0.166032 0.127118 0.093393 0.0648562 0.041508 0.0233482 0.010377 0.00259425 0 0 0.00276602 0.0110641 0.0248942 0.0442563 0.0691505 0.0995767 0.135535 0.177025 0.221071 0.264694 0.307896 0.350676 0.393035 0.434971 0.476486 0.517579 0.55807 0.597779 0.636705 0.674848 0.712209 0.748787 0.784583 0.819596 0.853536 0.88611 0.91732 0.947165 0.975645 1.00276 1.02851 1.0529 1.07595 1.09771 1.11818 1.13735 1.15523 1.17181 1.18709 1.20109 1.21398 1.22597 1.23706 1.24725 1.25654 1.26493 1.27242 1.27901 1.28489 1.29028 1.29517 1.29956 1.30345 1.30684 1.30973 1.31212 1.31413 1.31587 1.31734 1.31855 1.31948 1.32015 1.32055 1.32069 1.32055 1.32015 1.31948 1.31855 1.31734 1.31587 1.31413 1.31212 1.30973 1.30684 1.30345 1.29956 1.29517 1.29028 1.2849 1.27901 1.27242 1.26494 1.25655 1.24726 1.23707 1.22598 1.21398 1.20109 1.1871 1.17181 1.15523 1.13736 1.11819 1.09772 1.07596 1.05291 1.02852 1.00277 0.975658 0.947178 0.917334 0.886125 0.853551 0.819612 0.7846 0.748805 0.712227 0.674867 0.636724 0.597799 0.558091 0.5176 0.476508 0.434993 0.393055 0.350696 0.307915 0.264711 0.221085 0.177037 0.135544 0.0995832 0.069155 0.0442592 0.0248958 0.0110648 0.0027662 0 0 0.00293495 0.0117398 0.0264145 0.0469592 0.0733737 0.105658 0.143812 0.187837 0.234565 0.280833 0.326639 0.371985 0.416869 0.461292 0.505254 0.548755 0.591603 0.633608 0.67477 0.715087 0.754561 0.793192 0.830979 0.867922 0.903716 0.938056 0.970941 1.00237 1.03235 1.06087 1.08794 1.11355 1.13775 1.16058 1.18204 1.20213 1.22084 1.23819 1.25417 1.26878 1.28223 1.29473 1.30628 1.31689 1.32656 1.33527 1.34304 1.34987 1.35596 1.36153 1.36658 1.37111 1.37513 1.37862 1.38159 1.38405 1.38611 1.38789 1.3894 1.39063 1.39159 1.39228 1.39269 1.39283 1.39269 1.39228 1.39159 1.39063 1.3894 1.38789 1.38611 1.38405 1.38159 1.37862 1.37513 1.37111 1.36658 1.36153 1.35596 1.34987 1.34305 1.33528 1.32656 1.3169 1.30629 1.29473 1.28223 1.26878 1.25418 1.2382 1.22085 1.20213 1.18205 1.16059 1.13776 1.11356 1.08795 1.06088 1.03236 1.00238 0.970955 0.938071 0.903732 0.867939 0.830996 0.79321 0.75458 0.715107 0.67479 0.633629 0.591625 0.548777 0.505276 0.461314 0.41689 0.372005 0.326658 0.28085 0.23458 0.187849 0.143822 0.105665 0.0733783 0.0469621 0.0264162 0.0117405 0.00293513 0 0 0.00310086 0.0124034 0.0279077 0.0496138 0.0775215 0.111631 0.151942 0.198455 0.247818 0.296679 0.345039 0.392897 0.440254 0.487109 0.533462 0.579314 0.624461 0.668703 0.712039 0.75447 0.795994 0.836612 0.876325 0.915131 0.952713 0.988751 1.02324 1.05619 1.0876 1.11746 1.14578 1.17256 1.19784 1.22168 1.24407 1.26502 1.28452 1.30258 1.3192 1.33437 1.34833 1.36129 1.37327 1.38426 1.39425 1.40326 1.41128 1.41831 1.42457 1.4303 1.43549 1.44014 1.44425 1.44783 1.45087 1.45338 1.45547 1.45729 1.45882 1.46008 1.46106 1.46176 1.46217 1.46231 1.46218 1.46176 1.46106 1.46008 1.45882 1.45729 1.45547 1.45338 1.45087 1.44783 1.44426 1.44014 1.43549 1.4303 1.42457 1.41831 1.41128 1.40326 1.39426 1.38426 1.37327 1.3613 1.34833 1.33438 1.3192 1.30259 1.28453 1.26502 1.24408 1.22168 1.19785 1.17257 1.14579 1.11748 1.08761 1.05621 1.02326 0.988766 0.952729 0.915148 0.876343 0.836631 0.796013 0.75449 0.71206 0.668725 0.624483 0.579336 0.533485 0.487131 0.440276 0.392918 0.345059 0.296697 0.247833 0.198467 0.151952 0.111638 0.0775263 0.0496168 0.0279095 0.0124042 0.00310105 0 0 0.00326376 0.013055 0.0293738 0.0522201 0.081594 0.117495 0.159924 0.208881 0.260829 0.312234 0.363096 0.413415 0.46319 0.512422 0.56111 0.609255 0.656644 0.703064 0.748514 0.792995 0.836506 0.879048 0.920621 0.961224 1.00053 1.0382 1.07423 1.10864 1.14141 1.17255 1.20205 1.22992 1.25622 1.28101 1.30427 1.32602 1.34626 1.36498 1.38218 1.39787 1.41228 1.42566 1.43802 1.44934 1.45963 1.46889 1.47712 1.48432 1.49073 1.49659 1.50189 1.50664 1.51084 1.51448 1.51757 1.52011 1.52222 1.52406 1.52561 1.52689 1.52787 1.52858 1.529 1.52915 1.529 1.52858 1.52787 1.52689 1.52561 1.52406 1.52223 1.52011 1.51757 1.51448 1.51084 1.50664 1.50189 1.49659 1.49074 1.48433 1.47713 1.4689 1.45964 1.44934 1.43802 1.42567 1.41229 1.39787 1.38219 1.36498 1.34627 1.32603 1.30428 1.28101 1.25623 1.22994 1.20206 1.17256 1.14142 1.10865 1.07425 1.03821 1.00054 0.961241 0.920639 0.879067 0.836526 0.793015 0.748535 0.703086 0.656667 0.609278 0.561133 0.512445 0.463212 0.413436 0.363116 0.312252 0.260844 0.208893 0.159934 0.117502 0.0815989 0.0522233 0.0293756 0.0130558 0.00326395 0 0 0.00342364 0.0136946 0.0308128 0.0547783 0.085591 0.123251 0.167758 0.219113 0.273598 0.327497 0.38081 0.433536 0.485677 0.537231 0.588199 0.638581 0.688152 0.73669 0.784193 0.830663 0.876098 0.920499 0.963867 1.0062 1.04716 1.08639 1.1239 1.15969 1.19376 1.22611 1.25674 1.28565 1.3129 1.33857 1.36265 1.38514 1.40605 1.42538 1.44311 1.45927 1.47409 1.48785 1.50053 1.51215 1.5227 1.53217 1.54058 1.54793 1.55445 1.5604 1.56579 1.57062 1.57487 1.57856 1.58168 1.58424 1.58637 1.58821 1.58977 1.59105 1.59204 1.59275 1.59318 1.59332 1.59318 1.59275 1.59204 1.59105 1.58977 1.58821 1.58637 1.58424 1.58168 1.57856 1.57487 1.57062 1.5658 1.56041 1.55445 1.54793 1.54059 1.53218 1.5227 1.51215 1.50054 1.48785 1.4741 1.45927 1.44312 1.42538 1.40606 1.38515 1.36266 1.33858 1.31291 1.28566 1.25675 1.22613 1.19378 1.15971 1.12392 1.08641 1.04717 1.00622 0.963885 0.920519 0.876118 0.830684 0.784215 0.736712 0.688175 0.638604 0.588222 0.537254 0.4857 0.433558 0.38083 0.327515 0.273614 0.219126 0.167768 0.123258 0.085596 0.0547814 0.0308146 0.0136954 0.00342384 0 0 0.00358051 0.014322 0.0322246 0.0572882 0.0895127 0.128898 0.175445 0.229153 0.286126 0.342468 0.398181 0.453263 0.507715 0.561536 0.614728 0.667289 0.718985 0.769581 0.819077 0.867473 0.914769 0.960966 1.00606 1.05006 1.0926 1.13333 1.17226 1.20937 1.24467 1.27817 1.30985 1.33973 1.36787 1.39436 1.4192 1.44238 1.46391 1.48378 1.502 1.51857 1.53375 1.54783 1.56081 1.57268 1.58344 1.5931 1.60166 1.60911 1.61571 1.62174 1.62719 1.63207 1.63636 1.64007 1.64321 1.64577 1.64789 1.64974 1.6513 1.65257 1.65357 1.65428 1.6547 1.65484 1.6547 1.65428 1.65357 1.65257 1.6513 1.64974 1.6479 1.64577 1.64321 1.64007 1.63636 1.63207 1.6272 1.62175 1.61572 1.60911 1.60166 1.59311 1.58345 1.57268 1.56081 1.54784 1.53376 1.51857 1.50201 1.48379 1.46392 1.44239 1.41921 1.39437 1.36788 1.33974 1.30987 1.27818 1.24469 1.20939 1.17227 1.13335 1.09262 1.05008 1.00608 0.960986 0.91479 0.867494 0.819099 0.769603 0.719008 0.667312 0.614752 0.56156 0.507738 0.453285 0.398201 0.342487 0.286141 0.229165 0.175455 0.128906 0.0895178 0.0572914 0.0322264 0.0143228 0.00358071 0 0 0.00373299 0.0149319 0.0335969 0.0597278 0.0933247 0.134388 0.182916 0.238911 0.298301 0.357017 0.415057 0.472423 0.529113 0.585129 0.64047 0.695136 0.748881 0.80146 0.852873 0.90312 0.952201 1.00012 1.04686 1.09245 1.1365 1.17865 1.21891 1.25727 1.29374 1.32831 1.36098 1.39176 1.42073 1.44798 1.47351 1.49732 1.5194 1.53977 1.55842 1.57535 1.59085 1.60522 1.61844 1.63052 1.64147 1.65127 1.65994 1.66747 1.67413 1.68021 1.6857 1.6906 1.69491 1.69863 1.70177 1.70432 1.70643 1.70826 1.70981 1.71108 1.71206 1.71277 1.71319 1.71333 1.71319 1.71277 1.71206 1.71108 1.70981 1.70826 1.70643 1.70432 1.70177 1.69863 1.69491 1.6906 1.6857 1.68021 1.67413 1.66747 1.65994 1.65128 1.64147 1.63053 1.61844 1.60522 1.59086 1.57536 1.55843 1.53978 1.51941 1.49732 1.47352 1.44799 1.42074 1.39177 1.36099 1.32832 1.29375 1.25729 1.21893 1.17867 1.13652 1.09247 1.04688 1.00014 0.952222 0.903142 0.852896 0.801483 0.748905 0.69516 0.640494 0.585153 0.529137 0.472445 0.415078 0.357035 0.298317 0.238924 0.182926 0.134395 0.0933297 0.059731 0.0335987 0.0149328 0.00373319 0 0 0.0038797 0.0155188 0.0349173 0.0620751 0.0969924 0.139669 0.190105 0.248301 0.310016 0.371012 0.431288 0.490845 0.549682 0.6078 0.665199 0.721878 0.777581 0.832052 0.885291 0.937298 0.988074 1.03762 1.08593 1.13301 1.17848 1.22197 1.26348 1.30301 1.34056 1.37613 1.40972 1.44133 1.47105 1.49899 1.52515 1.54953 1.57212 1.59293 1.61196 1.62921 1.64498 1.65958 1.67301 1.68527 1.69636 1.70628 1.71503 1.72261 1.7293 1.7354 1.74091 1.74582 1.75013 1.75385 1.75697 1.7595 1.76158 1.76339 1.76493 1.76618 1.76715 1.76785 1.76827 1.76841 1.76827 1.76785 1.76715 1.76618 1.76493 1.76339 1.76158 1.7595 1.75697 1.75385 1.75013 1.74582 1.74091 1.73541 1.72931 1.72261 1.71503 1.70628 1.