<?xml version="1.0"?> 
<VTKFile type="StructuredGrid" version="0.1"> 
<StructuredGrid WholeExtent="0 128 0 128 0 0"> 
<Piece Extent="0 128 0 128 0 0"> 
<PointData>
<DataArray type="Float32" Name="u" format="ascii" NumberOfComponents="1"> 
0 0 0 0 0 0 0 0 0 0 0 0 0 0 0 0 0 0 0 0 0 0 0 0 0 0 0 0 0 0 0 0 0 0 0 0 0 0 0 0 0 0 0 0 0 0 0 0 0 0 0 0 0 0 0 0 0 0 0 0 0 0 0 0 0 0 0 0 0 0 0 0 0 0 0 0 0 0 0 0 0 0 0 0 0 0 0 0 0 0 0 0 0 0 0 0 0 0 0 0 0 0 0 0 0 0 0 0 0 0 0 0 0 0 0 0 0 0 0 0 0 0 0 0 0 0 0 0 0 0 -3.18085e-07 -1.27234e-06 -2.86276e-06 -5.08935e-06 -7.95212e-06 -1.1451e-05 -1.55861e-05 -2.03574e-05 -2.554e-05 -3.09092e-05 -3.6465e-05 -4.22073e-05 -4.81361e-05 -5.42516e-05 -6.05535e-05 -6.70421e-05 -7.36353e-05 -8.02515e-05 -8.68905e-05 -9.35524e-05 -0.000100237 -0.000106945 -0.000113675 -0.000120429 -0.000126995 -0.000133165 -0.000138938 -0.000144313 -0.000149292 -0.000153874 -0.000158059 -0.000161848 -0.000165109 -0.000167716 -0.000169666 -0.000170961 -0.000171599 -0.000171583 -0.00017091 -0.000169582 -0.000167693 -0.00016534 -0.000162522 -0.000159239 -0.000155492 -0.00015128 -0.000146603 -0.000141462 -0.000136134 -0.0001309 -0.000125759 -0.000120711 -0.000115756 -0.000110894 -0.000106125 -0.000101449 -9.71095e-05 -9.33483e-05 -9.01657e-05 -8.75618e-05 -8.55365e-05 -8.40899e-05 -8.32219e-05 -8.29326e-05 -8.32219e-05 -8.40899e-05 -8.55365e-05 -8.75618e-05 -9.01657e-05 -9.33483e-05 -9.71095e-05 -0.000101449 -0.000106125 -0.000110894 -0.000115756 -0.000120711 -0.000125759 -0.0001309 -0.000136134 -0.000141462 -0.000146603 -0.00015128 -0.000155492 -0.000159239 -0.000162522 -0.00016534 -0.000167693 -0.000169582 -0.00017091 -0.000171583 -0.000171599 -0.000170961 -0.000169666 -0.000167716 -0.000165109 -0.000161848 -0.000158059 -0.000153874 -0.000149292 -0.000144313 -0.000138938 -0.000133165 -0.000126995 -0.000120429 -0.000113675 -0.000106945 -0.000100237 -9.35524e-05 -8.68905e-05 -8.02514e-05 -7.36353e-05 -6.7042e-05 -6.05535e-05 -5.42515e-05 -4.81361e-05 -4.22073e-05 -3.64649e-05 -3.09092e-05 -2.554e-05 -2.03574e-05 -1.55861e-05 -1.1451e-05 -7.95211e-06 -5.08935e-06 -2.86276e-06 -1.27234e-06 -3.18084e-07 0 0 -1.27234e-06 -5.08935e-06 -1.1451e-05 -2.03574e-05 -3.18085e-05 -4.58042e-05 -6.23446e-05 -8.14297e-05 -0.00010216 -0.000123637 -0.00014586 -0.000168829 -0.000192545 -0.000217006 -0.000242214 -0.000268168 -0.000294541 -0.000321006 -0.000347562 -0.00037421 -0.000400949 -0.00042778 -0.000454702 -0.000481716 -0.000507981 -0.00053266 -0.00055575 -0.000577253 -0.000597169 -0.000615497 -0.000632237 -0.00064739 -0.000660438 -0.000670862 -0.000678664 -0.000683842 -0.000686398 -0.000686331 -0.00068364 -0.000678327 -0.000670772 -0.000661359 -0.000650088 -0.000636957 -0.000621967 -0.000605119 -0.000586412 -0.000565846 -0.000544537 -0.0005236 -0.000503036 -0.000482844 -0.000463024 -0.000443576 -0.000424501 -0.000405798 -0.000388438 -0.000373393 -0.000360663 -0.000350247 -0.000342146 -0.00033636 -0.000332888 -0.00033173 -0.000332888 -0.00033636 -0.000342146 -0.000350247 -0.000360663 -0.000373393 -0.000388438 -0.000405798 -0.000424501 -0.000443576 -0.000463024 -0.000482844 -0.000503036 -0.0005236 -0.000544537 -0.000565846 -0.000586412 -0.000605119 -0.000621967 -0.000636957 -0.000650088 -0.000661359 -0.000670772 -0.000678327 -0.00068364 -0.000686331 -0.000686398 -0.000683842 -0.000678664 -0.000670862 -0.000660438 -0.00064739 -0.000632237 -0.000615497 -0.000597169 -0.000577253 -0.00055575 -0.00053266 -0.000507981 -0.000481716 -0.000454702 -0.000427779 -0.000400949 -0.00037421 -0.000347562 -0.000321006 -0.000294541 -0.000268168 -0.000242214 -0.000217006 -0.000192544 -0.000168829 -0.00014586 -0.000123637 -0.00010216 -8.14296e-05 -6.23445e-05 -4.58041e-05 -3.18084e-05 -2.03574e-05 -1.1451e-05 -5.08935e-06 -1.27234e-06 0 0 -2.86276e-06 -1.1451e-05 -2.57649e-05 -4.58042e-05 -7.1569e-05 -0.000103059 -0.000140275 -0.000183217 -0.00022986 -0.000278183 -0.000328185 -0.000379866 -0.000433225 -0.000488264 -0.000544982 -0.000603379 -0.000662718 -0.000722263 -0.000782014 -0.000841972 -0.000902135 -0.000962504 -0.00102308 -0.00108386 -0.00114296 -0.00119848 -0.00125044 -0.00129882 -0.00134363 -0.00138487 -0.00142253 -0.00145663 -0.00148598 -0.00150944 -0.00152699 -0.00153865 -0.0015444 -0.00154424 -0.00153819 -0.00152624 -0.00150924 -0.00148806 -0.0014627 -0.00143315 -0.00139943 -0.00136152 -0.00131943 -0.00127315 -0.00122521 -0.0011781 -0.00113183 -0.0010864 -0.0010418 -0.000998046 -0.000955127 -0.000913045 -0.000873986 -0.000840135 -0.000811492 -0.000788056 -0.000769829 -0.000756809 -0.000748997 -0.000746393 -0.000748997 -0.000756809 -0.000769829 -0.000788056 -0.000811492 -0.000840135 -0.000873986 -0.000913045 -0.000955127 -0.000998046 -0.0010418 -0.0010864 -0.00113183 -0.0011781 -0.00122521 -0.00127315 -0.00131943 -0.00136152 -0.00139943 -0.00143315 -0.0014627 -0.00148806 -0.00150924 -0.00152624 -0.00153819 -0.00154424 -0.0015444 -0.00153865 -0.00152699 -0.00150944 -0.00148598 -0.00145663 -0.00142253 -0.00138487 -0.00134363 -0.00129882 -0.00125044 -0.00119848 -0.00114296 -0.00108386 -0.00102308 -0.000962504 -0.000902135 -0.000841971 -0.000782014 -0.000722263 -0.000662718 -0.000603378 -0.000544982 -0.000488264 -0.000433225 -0.000379865 -0.000328185 -0.000278183 -0.00022986 -0.000183217 -0.000140275 -0.000103059 -7.1569e-05 -4.58041e-05 -2.57648e-05 -1.1451e-05 -2.86276e-06 0 0 -5.08935e-06 -2.03574e-05 -4.58042e-05 -8.14297e-05 -0.000127234 -0.000183217 -0.000249378 -0.000325719 -0.000408641 -0.000494548 -0.00058344 -0.000675317 -0.000770178 -0.000868025 -0.000968857 -0.00107267 -0.00117817 -0.00128402 -0.00139025 -0.00149684 -0.0016038 -0.00171112 -0.00181881 -0.00192686 -0.00203193 -0.00213064 -0.002223 -0.00230901 -0.00238868 -0.00246199 -0.00252895 -0.00258956 -0.00264175 -0.00268345 -0.00271465 -0.00273537 -0.00274559 -0.00274532 -0.00273456 -0.00271331 -0.00268309 -0.00264544 -0.00260035 -0.00254783 -0.00248787 -0.00242048 -0.00234565 -0.00226338 -0.00217815 -0.0020944 -0.00201214 -0.00193137 -0.00185209 -0.0017743 -0.001698 -0.00162319 -0.00155375 -0.00149357 -0.00144265 -0.00140099 -0.00136858 -0.00134544 -0.00133155 -0.00132692 -0.00133155 -0.00134544 -0.00136858 -0.00140099 -0.00144265 -0.00149357 -0.00155375 -0.00162319 -0.001698 -0.0017743 -0.00185209 -0.00193137 -0.00201214 -0.0020944 -0.00217815 -0.00226338 -0.00234565 -0.00242048 -0.00248787 -0.00254783 -0.00260035 -0.00264544 -0.00268309 -0.00271331 -0.00273456 -0.00274532 -0.00274559 -0.00273537 -0.00271466 -0.00268345 -0.00264175 -0.00258956 -0.00252895 -0.00246199 -0.00238868 -0.00230901 -0.002223 -0.00213064 -0.00203193 -0.00192686 -0.00181881 -0.00171112 -0.00160379 -0.00149684 -0.00139025 -0.00128402 -0.00117816 -0.00107267 -0.000968856 -0.000868024 -0.000770178 -0.000675316 -0.000583439 -0.000494547 -0.00040864 -0.000325718 -0.000249378 -0.000183217 -0.000127234 -8.14296e-05 -4.58041e-05 -2.03574e-05 -5.08935e-06 0 0 -7.95212e-06 -3.18085e-05 -7.1569e-05 -0.000127234 -0.000198803 -0.000286276 -0.000389654 -0.000508935 -0.000638501 -0.000772731 -0.000911625 -0.00105518 -0.0012034 -0.00135629 -0.00151384 -0.00167605 -0.00184088 -0.00200629 -0.00217226 -0.00233881 -0.00250593 -0.00267362 -0.00284189 -0.00301072 -0.00317488 -0.00332912 -0.00347344 -0.00360783 -0.00373231 -0.00384686 -0.00395148 -0.00404619 -0.00412774 -0.00419289 -0.00424165 -0.00427401 -0.00428999 -0.00428957 -0.00427275 -0.00423954 -0.00419233 -0.0041335 -0.00406305 -0.00398098 -0.0038873 -0.00378199 -0.00366508 -0.00353654 -0.00340336 -0.0032725 -0.00314397 -0.00301777 -0.0028939 -0.00277235 -0.00265313 -0.00253624 -0.00242774 -0.00233371 -0.00225414 -0.00218904 -0.00213841 -0.00210225 -0.00208055 -0.00207331 -0.00208055 -0.00210225 -0.00213841 -0.00218904 -0.00225414 -0.00233371 -0.00242774 -0.00253624 -0.00265313 -0.00277235 -0.0028939 -0.00301777 -0.00314397 -0.0032725 -0.00340336 -0.00353654 -0.00366508 -0.00378199 -0.0038873 -0.00398098 -0.00406305 -0.0041335 -0.00419233 -0.00423954 -0.00427275 -0.00428957 -0.00428999 -0.00427401 -0.00424165 -0.00419289 -0.00412774 -0.00404619 -0.00395148 -0.00384686 -0.00373231 -0.00360783 -0.00347344 -0.00332912 -0.00317488 -0.00301072 -0.00284189 -0.00267362 -0.00250593 -0.00233881 -0.00217226 -0.00200629 -0.00184088 -0.00167605 -0.00151384 -0.00135629 -0.0012034 -0.00105518 -0.000911624 -0.00077273 -0.0006385 -0.000508935 -0.000389653 -0.000286276 -0.000198803 -0.000127234 -7.1569e-05 -3.18084e-05 -7.95211e-06 0 0 -1.1451e-05 -4.58042e-05 -0.000103059 -0.000183217 -0.000286276 -0.000412238 -0.000561101 -0.000732867 -0.000919442 -0.00111273 -0.00131274 -0.00151946 -0.0017329 -0.00195306 -0.00217993 -0.00241351 -0.00265087 -0.00288905 -0.00312806 -0.00336789 -0.00360854 -0.00385002 -0.00409232 -0.00433544 -0.00457183 -0.00479394 -0.00500175 -0.00519528 -0.00537452 -0.00553947 -0.00569014 -0.00582651 -0.00594394 -0.00603776 -0.00610797 -0.00615458 -0.00617758 -0.00617697 -0.00615276 -0.00610494 -0.00603695 -0.00595223 -0.00585079 -0.00573261 -0.00559771 -0.00544607 -0.00527771 -0.00509262 -0.00490083 -0.0047124 -0.00452732 -0.00434559 -0.00416721 -0.00399218 -0.00382051 -0.00365218 -0.00349594 -0.00336054 -0.00324597 -0.00315222 -0.00307931 -0.00302724 -0.00299599 -0.00298557 -0.00299599 -0.00302724 -0.00307931 -0.00315222 -0.00324597 -0.00336054 -0.00349594 -0.00365218 -0.00382051 -0.00399218 -0.00416721 -0.00434559 -0.00452732 -0.0047124 -0.00490083 -0.00509262 -0.00527771 -0.00544607 -0.00559771 -0.00573261 -0.00585079 -0.00595223 -0.00603695 -0.00610494 -0.00615276 -0.00617697 -0.00617758 -0.00615458 -0.00610797 -0.00603776 -0.00594394 -0.00582651 -0.00569014 -0.00553947 -0.00537452 -0.00519528 -0.00500175 -0.00479394 -0.00457183 -0.00433544 -0.00409232 -0.00385002 -0.00360854 -0.00336789 -0.00312806 -0.00288905 -0.00265087 -0.00241351 -0.00217993 -0.00195306 -0.0017329 -0.00151946 -0.00131274 -0.00111273 -0.000919441 -0.000732866 -0.000561101 -0.000412237 -0.000286276 -0.000183217 -0.000103059 -4.58041e-05 -1.1451e-05 0 0 -1.55861e-05 -6.23446e-05 -0.000140275 -0.000249378 -0.000389654 -0.000561101 -0.000763721 -0.000997513 -0.00125146 -0.00151455 -0.00178678 -0.00206816 -0.00235867 -0.00265833 -0.00296712 -0.00328506 -0.00360813 -0.00393232 -0.00425763 -0.00458407 -0.00491162 -0.0052403 -0.0055701 -0.00590102 -0.00622277 -0.00652508 -0.00680794 -0.00707135 -0.00731532 -0.00753984 -0.00774491 -0.00793053 -0.00809036 -0.00821806 -0.00831363 -0.00837707 -0.00840837 -0.00840755 -0.00837459 -0.0083095 -0.00821696 -0.00810165 -0.00796357 -0.00780272 -0.0076191 -0.00741271 -0.00718355 -0.00693162 -0.00667058 -0.0064141 -0.00616219 -0.00591483 -0.00567204 -0.00543381 -0.00520013 -0.00497102 -0.00475837 -0.00457407 -0.00441812 -0.00429053 -0.00419129 -0.0041204 -0.00407787 -0.0040637 -0.00407787 -0.0041204 -0.00419129 -0.00429053 -0.00441812 -0.00457407 -0.00475837 -0.00497102 -0.00520013 -0.00543381 -0.00567204 -0.00591483 -0.00616219 -0.0064141 -0.00667058 -0.00693162 -0.00718355 -0.00741271 -0.0076191 -0.00780272 -0.00796357 -0.00810165 -0.00821696 -0.0083095 -0.00837459 -0.00840755 -0.00840837 -0.00837707 -0.00831363 -0.00821806 -0.00809036 -0.00793053 -0.00774491 -0.00753984 -0.00731532 -0.00707135 -0.00680794 -0.00652508 -0.00622277 -0.00590102 -0.0055701 -0.0052403 -0.00491162 -0.00458407 -0.00425763 -0.00393232 -0.00360813 -0.00328506 -0.00296712 -0.00265832 -0.00235867 -0.00206816 -0.00178678 -0.00151455 -0.00125146 -0.000997512 -0.00076372 -0.000561101 -0.000389653 -0.000249378 -0.000140275 -6.23445e-05 -1.55861e-05 0 0 -2.03574e-05 -8.14297e-05 -0.000183217 -0.000325719 -0.000508935 -0.000732867 -0.000997513 -0.00130287 -0.00163456 -0.00197819 -0.00233376 -0.00270127 -0.00308071 -0.0034721 -0.00387543 -0.00429069 -0.00471266 -0.00513609 -0.00556099 -0.00598735 -0.00641518 -0.00684447 -0.00727523 -0.00770745 -0.0081277 -0.00852255 -0.008892 -0.00923605 -0.0095547 -0.00984795 -0.0101158 -0.0103582 -0.010567 -0.0107338 -0.0108586 -0.0109415 -0.0109824 -0.0109813 -0.0109382 -0.0108532 -0.0107324 -0.0105818 -0.0104014 -0.0101913 -0.00995148 -0.00968191 -0.00938259 -0.00905354 -0.00871259 -0.0083776 -0.00804857 -0.0077255 -0.00740838 -0.00709722 -0.00679201 -0.00649276 -0.00621501 -0.00597429 -0.00577061 -0.00560395 -0.00547434 -0.00538175 -0.0053262 -0.00530769 -0.0053262 -0.00538175 -0.00547434 -0.00560395 -0.00577061 -0.00597429 -0.00621501 -0.00649276 -0.00679201 -0.00709722 -0.00740838 -0.0077255 -0.00804857 -0.0083776 -0.00871259 -0.00905354 -0.00938259 -0.00968191 -0.00995148 -0.0101913 -0.0104014 -0.0105818 -0.0107324 -0.0108532 -0.0109382 -0.0109813 -0.0109824 -0.0109415 -0.0108586 -0.0107338 -0.010567 -0.0103582 -0.0101158 -0.00984795 -0.0095547 -0.00923605 -0.00889201 -0.00852255 -0.0081277 -0.00770745 -0.00727523 -0.00684447 -0.00641518 -0.00598735 -0.00556099 -0.00513609 -0.00471266 -0.00429069 -0.00387542 -0.0034721 -0.00308071 -0.00270126 -0.00233376 -0.00197819 -0.00163456 -0.00130287 -0.000997512 -0.000732866 -0.000508935 -0.000325718 -0.000183217 -8.14296e-05 -2.03574e-05 0 0 -2.55075e-05 -0.00010203 -0.000229568 -0.000408121 -0.000637689 -0.000918272 -0.00124987 -0.00163248 -0.00204786 -0.00247777 -0.00292219 -0.00338114 -0.00385461 -0.0043426 -0.00484512 -0.00536215 -0.00588705 -0.00641314 -0.00694042 -0.00746891 -0.00799859 -0.00852946 -0.00906154 -0.00959481 -0.0101124 -0.0105976 -0.0110503 -0.0114705 -0.0118582 -0.0122135 -0.0125363 -0.0128266 -0.0130743 -0.0132689 -0.0134107 -0.0134995 -0.0135354 -0.0135183 -0.0134483 -0.0133254 -0.0131574 -0.0129524 -0.0127103 -0.0124311 -0.0121148 -0.0117614 -0.0113709 -0.0109434 -0.0105014 -0.0100676 -0.00964205 -0.00922473 -0.00881562 -0.00841474 -0.00802209 -0.00763765 -0.0072811 -0.00697208 -0.00671061 -0.00649667 -0.00633028 -0.00621143 -0.00614012 -0.00611635 -0.00614012 -0.00621143 -0.00633028 -0.00649667 -0.00671061 -0.00697208 -0.0072811 -0.00763765 -0.00802209 -0.00841474 -0.00881562 -0.00922473 -0.00964205 -0.0100676 -0.0105014 -0.0109434 -0.0113709 -0.0117614 -0.0121148 -0.0124311 -0.0127103 -0.0129524 -0.0131574 -0.0133254 -0.0134483 -0.0135183 -0.0135354 -0.0134995 -0.0134107 -0.0132689 -0.0130743 -0.0128266 -0.0125363 -0.0122135 -0.0118582 -0.0114705 -0.0110503 -0.0105976 -0.0101124 -0.00959481 -0.00906154 -0.00852946 -0.00799859 -0.00746891 -0.00694042 -0.00641313 -0.00588704 -0.00536215 -0.00484511 -0.0043426 -0.00385461 -0.00338114 -0.00292219 -0.00247777 -0.00204786 -0.00163248 -0.00124987 -0.000918271 -0.000637688 -0.00040812 -0.000229568 -0.00010203 -2.55075e-05 0 0 -3.07792e-05 -0.000123117 -0.000277013 -0.000492468 -0.000769481 -0.00110805 -0.00150818 -0.00196987 -0.00247049 -0.00298741 -0.00352062 -0.00407013 -0.00463595 -0.00521806 -0.00581647 -0.00643118 -0.00705387 -0.00767622 -0.00829822 -0.00891989 -0.00954122 -0.0101622 -0.0107828 -0.0114031 -0.0120028 -0.0125614 -0.0130791 -0.0135558 -0.0139915 -0.0143862 -0.01474 -0.0150527 -0.0153125 -0.0155075 -0.0156376 -0.0157028 -0.0157032 -0.0156387 -0.0155094 -0.0153152 -0.0150664 -0.0147734 -0.0144362 -0.0140546 -0.0136289 -0.0131588 -0.0126446 -0.012086 -0.0115114 -0.0109488 -0.0103982 -0.00985966 -0.00933317 -0.00881872 -0.0083163 -0.00782593 -0.00737184 -0.0069783 -0.00664531 -0.00637286 -0.00616095 -0.00600959 -0.00591877 -0.0058885 -0.00591877 -0.00600959 -0.00616095 -0.00637286 -0.00664531 -0.0069783 -0.00737184 -0.00782593 -0.0083163 -0.00881872 -0.00933317 -0.00985966 -0.0103982 -0.0109488 -0.0115114 -0.012086 -0.0126446 -0.0131588 -0.0136289 -0.0140546 -0.0144362 -0.0147734 -0.0150664 -0.0153152 -0.0155094 -0.0156387 -0.0157032 -0.0157028 -0.0156376 -0.0155075 -0.0153125 -0.0150527 -0.01474 -0.0143862 -0.0139915 -0.0135558 -0.0130791 -0.0125614 -0.0120028 -0.0114031 -0.0107828 -0.0101622 -0.00954122 -0.00891989 -0.00829822 -0.00767622 -0.00705387 -0.00643118 -0.00581647 -0.00521806 -0.00463594 -0.00407013 -0.00352062 -0.0029874 -0.00247049 -0.00196987 -0.00150818 -0.00110805 -0.00076948 -0.000492467 -0.000277013 -0.000123117 -3.07792e-05 0 0 -3.61725e-05 -0.00014469 -0.000325552 -0.00057876 -0.000904312 -0.00130221 -0.00177245 -0.00231504 -0.00290244 -0.0035071 -0.00412904 -0.00476825 -0.00542472 -0.00609847 -0.00678949 -0.00749778 -0.00821313 -0.00892534 -0.0096344 -0.0103403 -0.0110431 -0.0117427 -0.0124392 -0.0131325 -0.0137988 -0.0144141 -0.0149785 -0.015492 -0.0159545 -0.0163661 -0.0167267 -0.0170364 -0.0172818 -0.0174494 -0.0175393 -0.0175515 -0.0174859 -0.0173426 -0.0171215 -0.0168227 -0.0164594 -0.0160449 -0.0155791 -0.0150621 -0.0144938 -0.0138743 -0.0132035 -0.0124815 -0.0117426 -0.0110211 -0.010317 -0.00963031 -0.00896102 -0.00830914 -0.00767466 -0.0070576 -0.00648725 -0.00599296 -0.00557471 -0.0052325 -0.00496634 -0.00477623 -0.00466216 -0.00462413 -0.00466216 -0.00477623 -0.00496634 -0.0052325 -0.00557471 -0.00599296 -0.00648725 -0.0070576 -0.00767466 -0.00830914 -0.00896102 -0.00963031 -0.010317 -0.0110211 -0.0117426 -0.0124815 -0.0132035 -0.0138743 -0.0144938 -0.0150621 -0.0155791 -0.0160449 -0.0164594 -0.0168227 -0.0171215 -0.0173426 -0.0174859 -0.0175515 -0.0175393 -0.0174494 -0.0172818 -0.0170364 -0.0167267 -0.0163661 -0.0159545 -0.015492 -0.0149785 -0.0144141 -0.0137988 -0.0131325 -0.0124392 -0.0117427 -0.0110431 -0.0103403 -0.00963439 -0.00892534 -0.00821313 -0.00749778 -0.00678949 -0.00609847 -0.00542472 -0.00476824 -0.00412903 -0.0035071 -0.00290243 -0.00231504 -0.00177245 -0.00130221 -0.000904311 -0.000578759 -0.000325552 -0.00014469 -3.61725e-05 0 0 -4.16873e-05 -0.000166749 -0.000375186 -0.000666997 -0.00104218 -0.00150074 -0.00204268 -0.00266799 -0.0033437 -0.00403686 -0.00474745 -0.00547547 -0.00622094 -0.00698384 -0.00776418 -0.00856195 -0.00936484 -0.0101605 -0.0109489 -0.0117302 -0.0125041 -0.0132709 -0.0140305 -0.0147828 -0.0155003 -0.0161556 -0.0167484 -0.017279 -0.0177472 -0.0181531 -0.0184966 -0.0187778 -0.0189821 -0.0190948 -0.0191159 -0.0190455 -0.0188834 -0.0186298 -0.0182847 -0.0178479 -0.0173363 -0.0167667 -0.0161391 -0.0154533 -0.0147096 -0.0139077 -0.0130479 -0.0121299 -0.0111951 -0.0102846 -0.00939849 -0.00853667 -0.00769917 -0.00688601 -0.00609717 -0.00533265 -0.00462733 -0.00401604 -0.0034988 -0.00307561 -0.00274645 -0.00251134 -0.00237028 -0.00232326 -0.00237028 -0.00251134 -0.00274645 -0.00307561 -0.0034988 -0.00401604 -0.00462733 -0.00533265 -0.00609717 -0.00688601 -0.00769917 -0.00853667 -0.00939849 -0.0102846 -0.0111951 -0.0121299 -0.0130479 -0.0139077 -0.0147096 -0.0154533 -0.0161391 -0.0167667 -0.0173364 -0.0178479 -0.0182847 -0.0186298 -0.0188834 -0.0190455 -0.0191159 -0.0190948 -0.0189821 -0.0187779 -0.0184966 -0.0181531 -0.0177472 -0.017279 -0.0167484 -0.0161556 -0.0155003 -0.0147828 -0.0140305 -0.0132709 -0.0125041 -0.0117301 -0.0109489 -0.0101605 -0.00936483 -0.00856195 -0.00776417 -0.00698383 -0.00622093 -0.00547547 -0.00474744 -0.00403685 -0.0033437 -0.00266798 -0.00204268 -0.00150074 -0.00104218 -0.000666996 -0.000375185 -0.000166749 -4.16873e-05 0 0 -4.73237e-05 -0.000189295 -0.000425913 -0.000757179 -0.00118309 -0.00170365 -0.00231886 -0.00302872 -0.00379429 -0.00457667 -0.00537585 -0.00619182 -0.00702459 -0.00787416 -0.00874053 -0.0096237 -0.010509 -0.0113817 -0.0122418 -0.0130894 -0.0139244 -0.0147469 -0.0155568 -0.0163541 -0.0171075 -0.0177858 -0.0183889 -0.0189169 -0.0193696 -0.0197472 -0.0200497 -0.0202769 -0.0204134 -0.0204436 -0.0203673 -0.0201847 -0.0198958 -0.0195005 -0.0189988 -0.0183908 -0.0176972 -0.016939 -0.0161161 -0.0152285 -0.0142762 -0.0132592 -0.0121775 -0.0110311 -0.00986884 -0.00873934 -0.00764264 -0.00657873 -0.00554763 -0.00454932 -0.00358381 -0.0026511 -0.00179206 -0.00104756 -0.000417598 9.7827e-05 0.000498713 0.00078506 0.000956868 0.00101414 0.000956868 0.00078506 0.000498713 9.7827e-05 -0.000417598 -0.00104756 -0.00179206 -0.0026511 -0.00358381 -0.00454932 -0.00554763 -0.00657873 -0.00764264 -0.00873934 -0.00986884 -0.0110311 -0.0121775 -0.0132592 -0.0142762 -0.0152285 -0.0161161 -0.016939 -0.0176972 -0.0183908 -0.0189988 -0.0195005 -0.0198958 -0.0201847 -0.0203673 -0.0204436 -0.0204134 -0.0202769 -0.0200497 -0.0197472 -0.0193696 -0.0189169 -0.0183889 -0.0177858 -0.0171075 -0.0163541 -0.0155568 -0.0147469 -0.0139244 -0.0130894 -0.0122418 -0.0113817 -0.010509 -0.00962369 -0.00874052 -0.00787416 -0.00702458 -0.00619181 -0.00537584 -0.00457667 -0.00379429 -0.00302871 -0.00231886 -0.00170365 -0.00118309 -0.000757178 -0.000425913 -0.000189295 -4.73236e-05 0 0 -5.30816e-05 -0.000212327 -0.000477735 -0.000849306 -0.00132704 -0.00191094 -0.002601 -0.00339722 -0.00425421 -0.00512654 -0.00601424 -0.00691728 -0.00783568 -0.00876944 -0.00971855 -0.010683 -0.0116456 -0.0125889 -0.0135131 -0.0144181 -0.015304 -0.0161706 -0.0170181 -0.0178464 -0.0186204 -0.0193049 -0.0199 -0.0204056 -0.0208218 -0.0211485 -0.0213858 -0.0215337 -0.0215757 -0.0214957 -0.0212936 -0.0209693 -0.020523 -0.0199545 -0.019264 -0.0184513 -0.0175421 -0.0165617 -0.0155101 -0.0143874 -0.0131936 -0.0119286 -0.0105925 -0.00918523 -0.00776381 -0.00638522 -0.00504946 -0.00375651 -0.00250638 -0.00129908 -0.000134602 0.000987056 0.00201854 0.00291249 0.00366891 0.0042878 0.00476916 0.00511298 0.00531928 0.00538804 0.00531928 0.00511298 0.00476916 0.0042878 0.00366891 0.00291249 0.00201854 0.000987056 -0.000134602 -0.00129908 -0.00250638 -0.00375651 -0.00504946 -0.00638522 -0.00776381 -0.00918523 -0.0105925 -0.0119286 -0.0131936 -0.0143874 -0.0155101 -0.0165617 -0.0175421 -0.0184513 -0.019264 -0.0199546 -0.020523 -0.0209693 -0.0212936 -0.0214957 -0.0215758 -0.0215337 -0.0213858 -0.0211485 -0.0208218 -0.0204056 -0.0199 -0.0193049 -0.0186204 -0.0178464 -0.0170181 -0.0161706 -0.015304 -0.0144181 -0.0135131 -0.0125889 -0.0116456 -0.010683 -0.00971854 -0.00876943 -0.00783568 -0.00691728 -0.00601423 -0.00512654 -0.0042542 -0.00339722 -0.002601 -0.00191094 -0.00132704 -0.000849305 -0.000477734 -0.000212326 -5.30816e-05 0 0 -5.89611e-05 -0.000235844 -0.00053065 -0.000943378 -0.00147403 -0.0021226 -0.0028891 -0.00377351 -0.00472344 -0.00568648 -0.00666262 -0.00765186 -0.00865421 -0.00966967 -0.0106982 -0.0117399 -0.0127746 -0.0137822 -0.0147628 -0.0157163 -0.0166427 -0.0175421 -0.0184144 -0.0192597 -0.0200388 -0.0207128 -0.0212816 -0.0217452 -0.0221037 -0.022357 -0.0225051 -0.0225481 -0.0224691 -0.0222513 -0.0218947 -0.0213992 -0.020765 -0.019992 -0.0190802 -0.0180296 -0.0168709 -0.0156347 -0.0143212 -0.0129302 -0.0114618 -0.00991601 -0.00829279 -0.00659217 -0.00488003 -0.00322229 -0.00161894 -6.99939e-05 0.00142456 0.00286471 0.00425047 0.00558182 0.00680447 0.00786411 0.00876072 0.00949431 0.0100649 0.0104724 0.010717 0.0107985 0.010717 0.0104724 0.0100649 0.00949431 0.00876072 0.00786411 0.00680447 0.00558182 0.00425047 0.00286471 0.00142456 -6.9994e-05 -0.00161894 -0.00322229 -0.00488003 -0.00659217 -0.00829279 -0.00991601 -0.0114618 -0.0129302 -0.0143212 -0.0156347 -0.0168709 -0.0180296 -0.0190802 -0.019992 -0.020765 -0.0213992 -0.0218947 -0.0222513 -0.0224691 -0.0225481 -0.0225051 -0.022357 -0.0221037 -0.0217452 -0.0212816 -0.0207128 -0.0200388 -0.0192597 -0.0184144 -0.0175421 -0.0166427 -0.0157163 -0.0147628 -0.0137822 -0.0127746 -0.0117399 -0.0106982 -0.00966966 -0.00865421 -0.00765186 -0.00666261 -0.00568647 -0.00472344 -0.00377351 -0.00288909 -0.0021226 -0.00147403 -0.000943377 -0.000530649 -0.000235844 -5.8961e-05 0 0 -6.49622e-05 -0.000259849 -0.00058466 -0.00103939 -0.00162405 -0.00233864 -0.00318315 -0.00415758 -0.005202 -0.00625647 -0.00732099 -0.00839556 -0.00948018 -0.0105749 -0.0116796 -0.0127944 -0.013896 -0.0149615 -0.0159908 -0.0169838 -0.0179407 -0.0188613 -0.0197457 -0.0205939 -0.0213628 -0.0220095 -0.0225337 -0.0229357 -0.0232153 -0.0233726 -0.0234076 -0.0233202 -0.0230934 -0.0227102 -0.0221706 -0.0214745 -0.0206219 -0.0196129 -0.0184474 -0.0171255 -0.0156836 -0.0141582 -0.0125493 -0.0108568 -0.00908088 -0.00722141 -0.00527844 -0.00325196 -0.00121748 0.000749475 0.00264891 0.00448081 0.0062452 0.00794205 0.00957139 0.0111332 0.0125657 0.0138073 0.0148578 0.0157174 0.0163859 0.0168634 0.0171499 0.0172454 0.0171499 0.0168634 0.0163859 0.0157174 0.0148578 0.0138073 0.0125657 0.0111332 0.00957139 0.00794205 0.0062452 0.00448081 0.00264891 0.000749474 -0.00121748 -0.00325196 -0.00527844 -0.00722141 -0.00908088 -0.0108568 -0.0125493 -0.0141582 -0.0156836 -0.0171255 -0.0184474 -0.0196129 -0.0206219 -0.0214745 -0.0221706 -0.0227102 -0.0230934 -0.0233202 -0.0234076 -0.0233726 -0.0232153 -0.0229357 -0.0225337 -0.0220094 -0.0213628 -0.0205939 -0.0197457 -0.0188613 -0.0179407 -0.0169838 -0.0159908 -0.0149615 -0.013896 -0.0127943 -0.0116796 -0.0105748 -0.00948017 -0.00839555 -0.00732098 -0.00625646 -0.00520199 -0.00415757 -0.00318314 -0.00233864 -0.00162405 -0.00103939 -0.000584659 -0.000259848 -6.49621e-05 0 0 -7.10617e-05 -0.000284247 -0.000639555 -0.00113699 -0.00177654 -0.00255822 -0.00348202 -0.00454795 -0.00568797 -0.00683406 -0.00798623 -0.00914447 -0.0103088 -0.0114792 -0.0126556 -0.0138381 -0.0150003 -0.0161155 -0.0171839 -0.0182054 -0.0191801 -0.0201079 -0.0209888 -0.0218228 -0.0225628 -0.0231616 -0.0236191 -0.0239355 -0.0241106 -0.0241444 -0.0240371 -0.0237886 -0.0233818 -0.0227997 -0.0220424 -0.0211097 -0.0200019 -0.0187187 -0.0172603 -0.0156266 -0.0138606 -0.0120051 -0.0100603 -0.00802604 -0.00590239 -0.00368934 -0.00138688 0.00100499 0.00340029 0.00571306 0.00794329 0.010091 0.0121561 0.0141388 0.0160389 0.0178564 0.0195217 0.020965 0.0221862 0.0231853 0.0239625 0.0245175 0.0248506 0.0249616 0.0248506 0.0245175 0.0239625 0.0231853 0.0221862 0.020965 0.0195217 0.0178564 0.0160389 0.0141388 0.0121561 0.010091 0.00794329 0.00571305 0.00340029 0.00100499 -0.00138688 -0.00368934 -0.00590239 -0.00802604 -0.0100603 -0.0120051 -0.0138606 -0.0156266 -0.0172603 -0.0187187 -0.0200019 -0.0211098 -0.0220424 -0.0227997 -0.0233818 -0.0237886 -0.0240371 -0.0241445 -0.0241106 -0.0239355 -0.0236191 -0.0231616 -0.0225628 -0.0218228 -0.0209888 -0.0201079 -0.0191801 -0.0182054 -0.0171839 -0.0161155 -0.0150003 -0.0138381 -0.0126556 -0.0114792 -0.0103088 -0.00914446 -0.00798622 -0.00683405 -0.00568796 -0.00454794 -0.00348202 -0.00255822 -0.00177654 -0.00113698 -0.000639554 -0.000284246 -7.10616e-05 0 0 -7.72364e-05 -0.000308946 -0.000695128 -0.00123578 -0.00193091 -0.00278051 -0.00378458 -0.00494313 -0.00617944 -0.0074168 -0.00865521 -0.00989467 -0.0111352 -0.0123768 -0.0136194 -0.014863 -0.0160776 -0.0172329 -0.0183289 -0.0193657 -0.0203431 -0.0212614 -0.0221203 -0.02292 -0.0236089 -0.0241358 -0.0245004 -0.024703 -0.0247434 -0.0246217 -0.0243378 -0.0238918 -0.023267 -0.0224468 -0.021431 -0.0202198 -0.0188132 -0.017211 -0.0154134 -0.0134204 -0.011282 -0.00904861 -0.00672014 -0.0042966 -0.00177798 0.000835697 0.00354445 0.00634827 0.00914974 0.0118515 0.0144534 0.0169556 0.019358 0.0216607 0.0238636 0.0259668 0.0278917 0.02956 0.0309716 0.0321266 0.0330249 0.0336666 0.0340515 0.0341799 0.0340515 0.0336666 0.0330249 0.0321266 0.0309716 0.02956 0.0278917 0.0259668 0.0238636 0.0216607 0.019358 0.0169556 0.0144534 0.0118515 0.00914974 0.00634827 0.00354445 0.000835696 -0.00177799 -0.0042966 -0.00672014 -0.00904861 -0.011282 -0.0134204 -0.0154134 -0.017211 -0.0188132 -0.0202198 -0.021431 -0.0224468 -0.023267 -0.0238918 -0.0243378 -0.0246217 -0.0247434 -0.024703 -0.0245004 -0.0241358 -0.0236089 -0.02292 -0.0221203 -0.0212614 -0.0203431 -0.0193657 -0.0183289 -0.0172329 -0.0160776 -0.014863 -0.0136194 -0.0123767 -0.0111352 -0.00989466 -0.0086552 -0.00741679 -0.00617943 -0.00494312 -0.00378458 -0.00278051 -0.00193091 -0.00123578 -0.000695127 -0.000308945 -7.72363e-05 0 0 -8.34865e-05 -0.000333946 -0.000751378 -0.00133578 -0.00208716 -0.00300551 -0.00409084 -0.00534313 -0.00667641 -0.00800468 -0.00932793 -0.0106462 -0.0119594 -0.0132676 -0.0145708 -0.015869 -0.017128 -0.0183136 -0.0194258 -0.0204645 -0.0214299 -0.0223218 -0.0231403 -0.0238854 -0.0245012 -0.024932 -0.0251777 -0.0252383 -0.0251139 -0.0248043 -0.0243097 -0.02363 -0.0227492 -0.0216514 -0.0203366 -0.0188047 -0.0170558 -0.0150898 -0.0129068 -0.0105068 -0.00794796 -0.00528864 -0.00252881 0.000331515 0.00329235 0.00635369 0.00951553 0.0127779 0.0160309 0.0191647 0.0221793 0.0250747 0.0278509 0.0305078 0.0330456 0.0354642 0.0376758 0.0395925 0.0412143 0.0425412 0.0435732 0.0443104 0.0447527 0.0449002 0.0447527 0.0443104 0.0435732 0.0425412 0.0412143 0.0395925 0.0376758 0.0354642 0.0330456 0.0305078 0.0278509 0.0250747 0.0221793 0.0191647 0.0160309 0.0127779 0.00951553 0.00635369 0.00329235 0.000331514 -0.00252881 -0.00528864 -0.00794796 -0.0105068 -0.0129068 -0.0150898 -0.0170558 -0.0188047 -0.0203366 -0.0216514 -0.0227492 -0.02363 -0.0243097 -0.0248043 -0.0251139 -0.0252383 -0.0251777 -0.024932 -0.0245012 -0.0238854 -0.0231403 -0.0223218 -0.0214299 -0.0204645 -0.0194258 -0.0183136 -0.017128 -0.015869 -0.0145708 -0.0132676 -0.0119594 -0.0106462 -0.00932792 -0.00800467 -0.0066764 -0.00534313 -0.00409083 -0.00300551 -0.00208716 -0.00133578 -0.000751377 -0.000333945 -8.34863e-05 0 0 -8.98118e-05 -0.000359247 -0.000808306 -0.00143699 -0.00224529 -0.00323322 -0.00440078 -0.00574795 -0.00717888 -0.0085977 -0.0100044 -0.011399 -0.0127814 -0.0141518 -0.01551 -0.0168562 -0.0181516 -0.0193577 -0.0204745 -0.021502 -0.0224402 -0.0232891 -0.0240488 -0.0247191 -0.0252397 -0.0255503 -0.0256509 -0.0255414 -0.0252219 -0.0246923 -0.0239527 -0.023003 -0.0218284 -0.0204137 -0.018759 -0.0168644 -0.0147297 -0.0123551 -0.00974047 -0.00688585 -0.00385838 -0.000725203 0.00251369 0.00585829 0.00930861 0.0128646 0.0165264 0.0202938 0.0240437 0.0276527 0.0311209 0.0344482 0.0376346 0.0406802 0.0435849 0.0463488 0.0488739 0.0510623 0.052914 0.0544291 0.0556075 0.0564492 0.0569542 0.0571225 0.0569542 0.0564492 0.0556075 0.0544291 0.052914 0.0510623 0.0488739 0.0463488 0.0435849 0.0406802 0.0376346 0.0344482 0.0311209 0.0276527 0.0240437 0.0202938 0.0165264 0.0128646 0.00930861 0.00585829 0.00251369 -0.000725204 -0.00385838 -0.00688585 -0.00974047 -0.0123551 -0.0147297 -0.0168644 -0.018759 -0.0204137 -0.0218284 -0.023003 -0.0239527 -0.0246923 -0.0252219 -0.0255414 -0.0256509 -0.0255503 -0.0252397 -0.0247191 -0.0240488 -0.0232891 -0.0224402 -0.021502 -0.0204745 -0.0193577 -0.0181516 -0.