<?xml version="1.0"?> 
<VTKFile type="StructuredGrid" version="0.1"> 
<StructuredGrid WholeExtent="0 128 0 128 0 0"> 
<Piece Extent="0 128 0 128 0 0"> 
<PointData>
<DataArray type="Float32" Name="u" format="ascii" NumberOfComponents="1"> 
0 0 0 0 0 0 0 0 0 0 0 0 0 0 0 0 0 0 0 0 0 0 0 0 0 0 0 0 0 0 0 0 0 0 0 0 0 0 0 0 0 0 0 0 0 0 0 0 0 0 0 0 0 0 0 0 0 0 0 0 0 0 0 0 0 0 0 0 0 0 0 0 0 0 0 0 0 0 0 0 0 0 0 0 0 0 0 0 0 0 0 0 0 0 0 0 0 0 0 0 0 0 0 0 0 0 0 0 0 0 0 0 0 0 0 0 0 0 0 0 0 0 0 0 0 0 0 0 0 0 9.20747e-06 3.68299e-05 8.28672e-05 0.00014732 0.000230187 0.000331469 0.000451166 0.000589278 0.000736545 0.000883708 0.00103077 0.00117772 0.00132457 0.00147131 0.00161795 0.00176449 0.00191038 0.00205507 0.00219858 0.0023409 0.00248202 0.00262196 0.0027607 0.00289825 0.00303339 0.00316489 0.00329274 0.00341696 0.00353753 0.00365447 0.00376776 0.00387741 0.00398307 0.00408438 0.00418135 0.00427397 0.00436225 0.00444618 0.00452577 0.00460101 0.00467216 0.00473947 0.00480294 0.00486257 0.00491835 0.0049703 0.0050184 0.00506267 0.00510354 0.00514145 0.00517642 0.00520843 0.00523749 0.0052636 0.00528675 0.00530696 0.00532452 0.00533973 0.00535261 0.00536315 0.00537134 0.00537719 0.0053807 0.00538188 0.0053807 0.00537719 0.00537134 0.00536315 0.00535261 0.00533974 0.00532452 0.00530696 0.00528676 0.0052636 0.00523749 0.00520843 0.00517642 0.00514146 0.00510354 0.00506268 0.00501841 0.00497031 0.00491836 0.00486258 0.00480295 0.00473948 0.00467218 0.00460103 0.00452579 0.0044462 0.00436227 0.00427399 0.00418137 0.00408441 0.0039831 0.00387744 0.00376779 0.0036545 0.00353757 0.003417 0.00329279 0.00316493 0.00303344 0.0028983 0.00276075 0.00262201 0.00248207 0.00234095 0.00219864 0.00205513 0.00191044 0.00176455 0.00161802 0.00147137 0.00132463 0.00117778 0.00103082 0.000883756 0.000736587 0.000589312 0.000451192 0.000331488 0.0002302 0.000147328 8.28719e-05 3.6832e-05 9.20799e-06 0 0 3.68299e-05 0.00014732 0.000331469 0.000589278 0.000920747 0.00132588 0.00180466 0.00235711 0.00294618 0.00353483 0.00412306 0.00471088 0.00529828 0.00588525 0.00647181 0.00705795 0.0076415 0.00822029 0.00879432 0.00936358 0.00992809 0.0104878 0.0110428 0.011593 0.0121336 0.0126596 0.013171 0.0136678 0.0141501 0.0146179 0.015071 0.0155096 0.0159323 0.0163375 0.0167254 0.0170959 0.017449 0.0177847 0.0181031 0.018404 0.0186886 0.0189579 0.0192118 0.0194503 0.0196734 0.0198812 0.0200736 0.0202507 0.0204141 0.0205658 0.0207057 0.0208337 0.02095 0.0210544 0.021147 0.0212278 0.0212981 0.0213589 0.0214104 0.0214526 0.0214854 0.0215088 0.0215228 0.0215275 0.0215228 0.0215088 0.0214854 0.0214526 0.0214104 0.0213589 0.0212981 0.0212278 0.021147 0.0210544 0.02095 0.0208337 0.0207057 0.0205658 0.0204142 0.0202507 0.0200736 0.0198812 0.0196735 0.0194503 0.0192118 0.0189579 0.0186887 0.0184041 0.0181031 0.0177848 0.0174491 0.017096 0.0167255 0.0163376 0.0159324 0.0155098 0.0150712 0.014618 0.0141503 0.013668 0.0131711 0.0126597 0.0121337 0.0115932 0.011043 0.010488 0.0099283 0.0093638 0.00879455 0.00822053 0.00764174 0.0070582 0.00647206 0.0058855 0.00529851 0.00471111 0.00412328 0.00353502 0.00294635 0.00235725 0.00180477 0.00132595 0.000920799 0.000589312 0.000331488 0.000147328 3.6832e-05 0 0 8.28672e-05 0.000331469 0.000745805 0.00132588 0.00207168 0.00298322 0.00406049 0.0053035 0.00662891 0.00795337 0.0092769 0.0105995 0.0119211 0.0132418 0.0145616 0.0158804 0.0171934 0.0184957 0.0197872 0.0210681 0.0223382 0.0235976 0.0248463 0.0260843 0.0273005 0.028484 0.0296347 0.0307526 0.0318378 0.0328902 0.0339098 0.0348967 0.0358476 0.0367594 0.0376321 0.0384657 0.0392602 0.0400156 0.0407319 0.0414091 0.0420495 0.0426552 0.0432265 0.0437631 0.0442652 0.0447327 0.0451656 0.045564 0.0459318 0.0462731 0.0465877 0.0468758 0.0471374 0.0473724 0.0475808 0.0477626 0.0479207 0.0480576 0.0481735 0.0482683 0.0483421 0.0483947 0.0484263 0.0484369 0.0484263 0.0483947 0.0483421 0.0482683 0.0481735 0.0480576 0.0479207 0.0477626 0.0475808 0.0473724 0.0471374 0.0468759 0.0465878 0.0462731 0.0459319 0.0455641 0.0451657 0.0447328 0.0442653 0.0437632 0.0432266 0.0426554 0.0420496 0.0414093 0.0407321 0.0400158 0.0392604 0.0384659 0.0376324 0.0367597 0.0358479 0.034897 0.0339101 0.0328905 0.0318381 0.030753 0.0296351 0.0284844 0.0273009 0.0260847 0.0248467 0.0235981 0.0223387 0.0210686 0.0197877 0.0184962 0.0171939 0.0158809 0.0145621 0.0132424 0.0119217 0.0106 0.00927737 0.0079538 0.00662928 0.0053038 0.00406072 0.00298339 0.0020718 0.00132595 0.000745847 0.000331488 8.28719e-05 0 0 0.00014732 0.000589278 0.00132588 0.00235711 0.00368299 0.0053035 0.00721866 0.00942845 0.0117847 0.0141393 0.0164923 0.0188435 0.0211931 0.023541 0.0258872 0.0282318 0.030566 0.0328812 0.0351773 0.0374543 0.0397123 0.0419513 0.0441712 0.0463721 0.0485343 0.0506382 0.0526839 0.0546714 0.0566005 0.0584715 0.0602841 0.0620386 0.0637291 0.0653501 0.0669016 0.0683835 0.069796 0.0711389 0.0724123 0.0736162 0.0747546 0.0758315 0.076847 0.0778011 0.0786936 0.0795248 0.0802945 0.0810027 0.0816566 0.0822632 0.0828226 0.0833348 0.0837998 0.0842175 0.0845881 0.0849113 0.0851923 0.0854358 0.0856418 0.0858103 0.0859414 0.0860351 0.0860913 0.08611 0.0860913 0.0860351 0.0859415 0.0858104 0.0856418 0.0854358 0.0851923 0.0849114 0.0845881 0.0842176 0.0837999 0.0833349 0.0828227 0.0822633 0.0816567 0.0810028 0.0802946 0.0795249 0.0786938 0.0778012 0.0768472 0.0758318 0.0747548 0.0736165 0.0724126 0.0711392 0.0697963 0.0683839 0.066902 0.0653505 0.0637295 0.062039 0.0602846 0.058472 0.0566011 0.054672 0.0526846 0.0506389 0.048535 0.0463728 0.044172 0.0419521 0.0397132 0.0374552 0.0351782 0.0328821 0.030567 0.0282328 0.0258882 0.023542 0.0211941 0.0188444 0.0164931 0.0141401 0.0117854 0.00942898 0.00721907 0.0053038 0.0036832 0.00235725 0.00132595 0.000589312 0.000147328 0 0 0.000230187 0.000920747 0.00207168 0.00368299 0.00575467 0.00828672 0.0112792 0.014732 0.0184136 0.0220927 0.0257692 0.029443 0.0331142 0.0367828 0.0404488 0.0441122 0.0477594 0.0513768 0.0549645 0.0585224 0.0620505 0.0655489 0.0690175 0.0724564 0.0758348 0.0791222 0.0823186 0.085424 0.0884383 0.0913617 0.094194 0.0969352 0.0995767 0.10211 0.104534 0.106849 0.109056 0.111155 0.113144 0.115025 0.116804 0.118487 0.120073 0.121564 0.122959 0.124257 0.12546 0.126567 0.127588 0.128536 0.12941 0.130211 0.130937 0.13159 0.132169 0.132674 0.133113 0.133493 0.133815 0.134079 0.134283 0.13443 0.134518 0.134547 0.134518 0.13443 0.134284 0.134079 0.133815 0.133493 0.133113 0.132674 0.132169 0.13159 0.130937 0.130211 0.129411 0.128536 0.127589 0.126567 0.12546 0.124258 0.122959 0.121564 0.120074 0.118487 0.116804 0.115026 0.113145 0.111155 0.109057 0.10685 0.104534 0.10211 0.0995774 0.096936 0.0941948 0.0913625 0.0884392 0.0854249 0.0823196 0.0791233 0.0758359 0.0724575 0.0690187 0.0655502 0.0620519 0.0585238 0.0549659 0.0513783 0.0477609 0.0441137 0.0404504 0.0367844 0.0331157 0.0294444 0.0257705 0.0220939 0.0184147 0.0147328 0.0112798 0.00828719 0.005755 0.0036832 0.0020718 0.000920799 0.0002302 0 0 0.000331469 0.00132588 0.00298322 0.0053035 0.00828672 0.0119329 0.016242 0.021214 0.0265156 0.0318135 0.0371076 0.0423979 0.0476845 0.0529673 0.0582463 0.0635216 0.0687735 0.0739826 0.0791489 0.0842723 0.0893528 0.0943904 0.0993852 0.104337 0.109202 0.113936 0.118539 0.123011 0.127351 0.131561 0.135639 0.139587 0.14339 0.147038 0.150529 0.153863 0.157041 0.160063 0.162928 0.165636 0.168198 0.170621 0.172906 0.175052 0.177061 0.178931 0.180663 0.182256 0.183727 0.185092 0.186351 0.187503 0.18855 0.189489 0.190323 0.191051 0.191683 0.19223 0.192694 0.193073 0.193368 0.193579 0.193705 0.193748 0.193705 0.193579 0.193368 0.193073 0.192694 0.192231 0.191683 0.191051 0.190323 0.18949 0.18855 0.187504 0.186351 0.185092 0.183728 0.182256 0.180663 0.178931 0.177061 0.175053 0.172906 0.170621 0.168198 0.165637 0.162928 0.160063 0.157042 0.153864 0.150529 0.147039 0.143391 0.139588 0.13564 0.131562 0.127353 0.123012 0.11854 0.113938 0.109204 0.104339 0.099387 0.0943923 0.0893547 0.0842742 0.0791509 0.0739847 0.0687757 0.0635238 0.0582485 0.0529695 0.0476866 0.0424 0.0371095 0.0318152 0.0265171 0.0212152 0.0162429 0.0119336 0.00828719 0.0053038 0.00298339 0.00132595 0.000331488 0 0 0.000451166 0.00180466 0.00406049 0.00721866 0.0112792 0.016242 0.0221071 0.0288746 0.0360907 0.0433017 0.0505075 0.0577083 0.0649039 0.0720943 0.0792797 0.0864599 0.0936084 0.100699 0.10773 0.114704 0.121619 0.128476 0.135274 0.142014 0.148636 0.15508 0.161344 0.167431 0.173339 0.179069 0.18462 0.189993 0.19517 0.200135 0.204886 0.209425 0.21375 0.217863 0.221763 0.22545 0.228936 0.232234 0.235344 0.238266 0.240999 0.243545 0.245902 0.248071 0.250073 0.251931 0.253644 0.255213 0.256637 0.257916 0.259051 0.260041 0.260901 0.261647 0.262278 0.262794 0.263196 0.263482 0.263655 0.263712 0.263655 0.263482 0.263196 0.262794 0.262278 0.261647 0.260901 0.260041 0.259051 0.257916 0.256637 0.255213 0.253645 0.251931 0.250074 0.248071 0.245902 0.243545 0.241 0.238266 0.235345 0.232235 0.228937 0.22545 0.221764 0.217864 0.213751 0.209426 0.204887 0.200136 0.195172 0.189995 0.184622 0.179071 0.173341 0.167433 0.161346 0.155082 0.148638 0.142017 0.135277 0.128478 0.121622 0.114707 0.107733 0.100701 0.0936114 0.0864629 0.0792827 0.0720974 0.0649068 0.0577111 0.0505101 0.043304 0.0360927 0.0288763 0.0221084 0.0162429 0.0112798 0.00721907 0.00406072 0.00180477 0.000451192 0 0 0.000589278 0.00235711 0.0053035 0.00942845 0.014732 0.021214 0.0288746 0.0377138 0.0471389 0.0565573 0.065969 0.0753741 0.0847724 0.094164 0.103549 0.112927 0.122264 0.131525 0.140709 0.149817 0.158849 0.167805 0.176685 0.185488 0.194137 0.202553 0.210736 0.218685 0.226402 0.233886 0.241137 0.248154 0.254916 0.2614 0.267606 0.273534 0.279184 0.284556 0.289649 0.294465 0.299018 0.303326 0.307388 0.311204 0.314775 0.318099 0.321178 0.324011 0.326626 0.329053 0.331291 0.333339 0.335199 0.33687 0.338352 0.339645 0.340769 0.341743 0.342567 0.343241 0.343766 0.34414 0.344365 0.34444 0.344365 0.34414 0.343766 0.343241 0.342567 0.341743 0.340769 0.339646 0.338352 0.33687 0.335199 0.33334 0.331291 0.329053 0.326627 0.324011 0.321178 0.3181 0.314775 0.311205 0.307389 0.303327 0.299019 0.294466 0.28965 0.284557 0.279185 0.273536 0.267608 0.261402 0.254918 0.248156 0.241139 0.233888 0.226404 0.218688 0.210738 0.202556 0.19414 0.185491 0.176688 0.167808 0.158853 0.149821 0.140713 0.131528 0.122268 0.112931 0.103553 0.094168 0.0847762 0.0753777 0.0659724 0.0565604 0.0471415 0.0377159 0.0288763 0.0212152 0.0147328 0.00942898 0.0053038 0.00235725 0.000589312 0 0 0.000736444 0.00294578 0.00662799 0.0117831 0.0184111 0.026512 0.0360858 0.0471324 0.0589109 0.0706803 0.0824405 0.0941915 0.105933 0.117666 0.129389 0.141104 0.152766 0.164331 0.175801 0.187175 0.198453 0.209636 0.220722 0.231712 0.242509 0.253014 0.263227 0.273148 0.282778 0.292117 0.301164 0.309919 0.318354 0.326442 0.334183 0.341576 0.348622 0.35532 0.361671 0.367674 0.37335 0.378719 0.383782 0.388538 0.392987 0.397129 0.400965 0.404494 0.407752 0.410774 0.413561 0.416113 0.418429 0.42051 0.422355 0.423965 0.425364 0.426576 0.427602 0.428441 0.429094 0.42956 0.42984 0.429933 0.42984 0.42956 0.429094 0.428441 0.427602 0.426576 0.425364 0.423965 0.422355 0.42051 0.418429 0.416113 0.413562 0.410775 0.407752 0.404495 0.400966 0.39713 0.392988 0.388539 0.383783 0.37872 0.373351 0.367675 0.361672 0.355321 0.348623 0.341578 0.334185 0.326444 0.318356 0.309921 0.301166 0.29212 0.282781 0.273151 0.26323 0.253017 0.242512 0.231716 0.220726 0.20964 0.198458 0.18718 0.175806 0.164336 0.15277 0.141109 0.129394 0.117671 0.105938 0.094196 0.0824447 0.0706841 0.0589142 0.0471351 0.0360878 0.0265135 0.0184121 0.0117838 0.00662837 0.00294594 0.000736485 0 0 0.000883302 0.00353321 0.00794972 0.0141328 0.0220826 0.0317989 0.0432818 0.0565313 0.0706575 0.0847705 0.0988702 0.112957 0.12703 0.14109 0.155136 0.16917 0.183138 0.196989 0.210724 0.224341 0.237841 0.251224 0.26449 0.27764 0.290555 0.303119 0.315332 0.327195 0.338706 0.349867 0.360676 0.371135 0.38121 0.390868 0.400109 0.408934 0.417343 0.425334 0.43291 0.440068 0.446835 0.453236 0.459269 0.464936 0.470237 0.475171 0.479738 0.483938 0.487815 0.491412 0.494728 0.497763 0.500518 0.502993 0.505187 0.507101 0.508763 0.510204 0.511423 0.51242 0.513196 0.51375 0.514083 0.514194 0.514083 0.51375 0.513196 0.512421 0.511423 0.510204 0.508763 0.507101 0.505187 0.502993 0.500519 0.497764 0.494728 0.491412 0.487816 0.483939 0.479739 0.475171 0.470238 0.464937 0.45927 0.453237 0.446837 0.44007 0.432911 0.425336 0.417345 0.408936 0.400112 0.39087 0.381212 0.371138 0.360679 0.34987 0.33871 0.327198 0.315336 0.303123 0.290559 0.277644 0.264495 0.251229 0.237846 0.224346 0.210729 0.196995 0.183144 0.169176 0.155142 0.141096 0.127035 0.112962 0.0988752 0.084775 0.0706614 0.0565345 0.0432842 0.0318007 0.0220838 0.0141336 0.00795016 0.00353341 0.000883352 0 0 0.00102985 0.00411941 0.00926867 0.0164776 0.0257463 0.0370747 0.0504628 0.0659106 0.0823787 0.098828 0.115258 0.13167 0.148062 0.164435 0.18079 0.197125 0.213382 0.229498 0.245476 0.261314 0.277012 0.292571 0.307991 0.323271 0.338276 0.35287 0.367053 0.380825 0.394186 0.407136 0.419675 0.431803 0.443483 0.454677 0.465386 0.475609 0.485347 0.4946 0.503367 0.511648 0.519474 0.526875 0.53385 0.5404 0.546524 0.552223 0.557496 0.562344 0.566817 0.570966 0.574791 0.578291 0.581468 0.58432 0.586849 0.589053 0.590967 0.592626 0.59403 0.595179 0.596072 0.59671 0.597093 0.597221 0.597093 0.59671 0.596072 0.595179 0.59403 0.592626 0.590967 0.589053 0.586849 0.584321 0.581468 0.578292 0.574791 0.570967 0.566818 0.562345 0.557497 0.552224 0.546525 0.540401 0.533851 0.526876 0.519476 0.51165 0.503369 0.494602 0.485349 0.475612 0.465388 0.45468 0.443486 0.431806 0.419678 0.407139 0.39419 0.380829 0.367057 0.352874 0.338281 0.323276 0.307996 0.292577 0.277018 0.26132 0.245482 0.229505 0.213388 0.197132 0.180797 0.164442 0.148068 0.131676 0.115264 0.0988332 0.0823832 0.0659142 0.0504656 0.0370768 0.0257477 0.0164786 0.00926919 0.00411964 0.00102991 0 0 0.0011761 0.00470438 0.0105849 0.0188175 0.0294024 0.0423394 0.0576287 0.0752701 0.0940745 0.112853 0.131605 0.15033 0.16903 0.187703 0.20635 0.22497 0.243496 0.261859 0.280058 0.298094 0.315967 0.333676 0.351223 0.368606 0.385671 0.402265 0.418387 0.434038 0.449216 0.463923 0.478159 0.491922 0.505173 0.51787 0.530012 0.541601 0.552635 0.563115 0.573042 0.582414 0.591267 0.599637 0.607524 0.614928 0.621849 0.628286 0.63424 0.639711 0.644757 0.649436 0.653749 0.657696 0.661277 0.664491 0.667339 0.669821 0.671976 0.673843 0.675424 0.676716 0.677722 0.67844 0.678871 0.679015 0.678871 0.67844 0.677722 0.676717 0.675424 0.673844 0.671976 0.669821 0.66734 0.664492 0.661278 0.657697 0.65375 0.649437 0.644757 0.639711 0.634241 0.628287 0.62185 0.61493 0.607526 0.599639 0.591269 0.582416 0.573044 0.563118 0.552638 0.541603 0.530015 0.517873 0.505177 0.491926 0.478163 0.463928 0.449221 0.434042 0.418392 0.40227 0.385677 0.368611 0.351229 0.333683 0.315973 0.298101 0.280065 0.261866 0.243503 0.224978 0.206357 0.18771 0.169037 0.150337 0.131611 0.112859 0.0940796 0.0752742 0.0576318 0.0423418 0.029404 0.0188186 0.0105854 0.00470464 0.00117616 0 0 0.00132203 0.00528813 0.0118983 0.0211525 0.0330508 0.0475931 0.0647795 0.08461 0.105745 0.126845 0.147909 0.168939 0.189933 0.210892 0.231816 0.252704 0.273481 0.29407 0.31447 0.334682 0.354705 0.37454 0.394186 0.413644 0.432741 0.451305 0.469336 0.486834 0.503799 0.52023 0.536129 0.551494 0.566281 0.580446 0.593989 0.606909 0.619206 0.630882 0.641934 0.652365 0.662214 0.671523 0.680292 0.688521 0.696211 0.70336 0.709969 0.716038 0.721634 0.726823 0.731604 0.735979 0.739946 0.743506 0.74666 0.749406 0.751789 0.753855 0.755603 0.757033 0.758146 0.75894 0.759417 0.759576 0.759417 0.75894 0.758146 0.757033 0.755603 0.753855 0.75179 0.749406 0.74666 0.743507 0.739947 0.735979 0.731605 0.726824 0.721635 0.716039 0.70997 0.703361 0.696212 0.688523 0.680294 0.671525 0.662216 0.652367 0.641937 0.630884 0.619209 0.606912 0.593992 0.58045 0.566285 0.551498 0.536133 0.520235 0.503804 0.486839 0.469342 0.451311 0.432747 0.413651 0.394193 0.374547 0.354712 0.334689 0.314478 0.294078 0.27349 0.252713 0.231824 0.2109 0.189941 0.168946 0.147916 0.126851 0.105751 0.0846146 0.064783 0.0475957 0.0330526 0.0211536 0.0118989 0.00528841 0.0013221 0 0 0.00146766 0.00587064 0.0132089 0.0234825 0.0366915 0.0528357 0.0719153 0.0939302 0.11739 0.140804 0.164172 0.187495 0.210772 0.234003 0.257188 0.280328 0.303338 0.326132 0.348712 0.371077 0.393226 0.415161 0.436881 0.458386 0.479486 0.499991 0.5199 0.539214 0.557933 0.576056 0.593584 0.610517 0.626807 0.642406 0.657315 0.671533 0.685061 0.697898 0.710045 0.721501 0.732314 0.742532 0.752154 0.76118 0.76961 0.777445 0.784684 0.791327 0.79745 0.803126 0.808355 0.813138 0.817475 0.821365 0.824809 0.827807 0.830407 0.832662 0.834569 0.836129 0.837343 0.83821 0.83873 0.838904 0.83873 0.83821 0.837343 0.83613 0.834569 0.832662 0.830408 0.827807 0.82481 0.821366 0.817475 0.813139 0.808356 0.803126 0.797451 0.791328 0.784685 0.777446 0.769612 0.761181 0.752156 0.742534 0.732317 0.721504 0.710048 0.697901 0.685064 0.671537 0.657319 0.64241 0.626811 0.610521 0.593589 0.576061 0.557938 0.53922 0.519906 0.499997 0.479493 0.458393 0.436889 0.415169 0.393234 0.371085 0.34872 0.326141 0.303347 0.280337 0.257198 0.234012 0.210781 0.187503 0.16418 0.140811 0.117396 0.0939352 0.0719191 0.0528385 0.0366934 0.0234838 0.0132096 0.00587095 0.00146774 0 0 0.00161298 0.00645192 0.0145168 0.0258077 0.0403245 0.0580673 0.079036 0.103231 0.129009 0.15473 0.180393 0.205999 0.231546 0.257036 0.282468 0.307841 0.333065 0.358046 0.382784 0.407279 0.431532 0.455541 0.479308 0.502832 0.525906 0.548321 0.570078 0.591177 0.611618 0.631401 0.650525 0.668992 0.68675 0.70375 0.719991 0.735474 0.750199 0.764166 0.777374 0.789823 0.801569 0.812664 0.823109 0.832903 0.842047 0.850541 0.858384 0.865577 0.872203 0.878345 0.884002 0.889175 0.893864 0.898068 0.901788 0.905024 0.90783 0.910263 0.912321 0.914005 0.915314 0.91625 0.916811 0.916998 0.916811 0.91625 0.915315 0.914005 0.912321 0.910263 0.907831 0.905024 0.901788 0.898068 0.893864 0.889176 0.884003 0.878346 0.872204 0.865579 0.858386 0.850542 0.842049 0.832905 0.823111 0.812666 0.801571 0.789826 0.777376 0.764169 0.750202 0.735478 0.719995 0.703754 0.686754 0.668997 0.650531 0.631406 0.611624 0.591183 0.570085 0.548328 0.525913 0.50284 0.479316 0.455549 0.43154 0.407288 0.382793 0.358055 0.333075 0.307851 0.282478 0.257046 0.231556 0.206008 0.180402 0.154738 0.129016 0.103236 0.0790401 0.0580703 0.0403266 0.025809 0.0145176 0.00645226 0.00161306 0 0 0.00175799 0.00703197 0.0158219 0.0281279 0.0439498 0.0632877 0.0861416 0.112512 0.140604 0.168624 0.196573 0.22445 0.252256 0.27999 0.307653 0.335244 0.362663 0.389811 0.416686 0.443289 0.46962 0.495679 0.521466 0.546981 0.572 0.596296 0.619871 0.642724 0.664855 0.686265 0.706952 0.726918 0.746111 0.764477 0.782017 0.798732 0.814621 0.829683 0.84392 0.857331 0.869977 0.881919 0.893157 0.903691 0.913521 0.922648 0.93107 0.938789 0.945895 0.95248 0.958545 0.964089 0.969112 0.973615 0.977596 0.981057 0.984058 0.986658 0.988859 0.990659 0.99206 0.99306 0.99366 0.99386 0.99366 0.99306 0.99206 0.990659 0.988859 0.986659 0.984058 0.981058 0.977597 0.973615 0.969113 0.96409 0.958546 0.952481 0.945896 0.93879 0.931072 0.922649 0.913523 0.903693 0.893159 0.881921 0.869979 0.857334 0.843923 0.829687 0.814624 0.798736 0.782022 0.764481 0.746115 0.726924 0.706958 0.68627 0.664861 0.64273 0.619878 0.596303 0.572007 0.54699 0.521475 0.495688 0.469629 0.443299 0.416696 0.389821 0.362674 0.335255 0.307664 0.280001 0.252267 0.22446 0.196582 0.168632 0.140611 0.112517 0.0861461 0.063291 0.0439521 0.0281293 0.0158227 0.00703233 0.00175808 0 0 0.00190209 0.00760836 0.0171188 0.0304334 0.0475522 0.0684752 0.0932024 0.121734 0.152124 0.182427 0.212644 0.242773 0.272816 0.302773 0.332642 0.362425 0.392013 0.421298 0.45028 0.47896 0.507337 0.535411 0.563183 0.590652 0.617576 0.643715 0.669067 0.693634 0.717415 0.740409 0.762618 0.78404 0.804624 0.824314 0.843111 0.861015 0.878026 0.894144 0.90937 0.923702 0.937209 0.949961 0.961956 0.973195 0.983678 0.993405 1.00238 1.01059 1.01815 1.02515 1.0316 1.03749 1.04283 1.04761 1.05184 1.05551 1.05869 1.06144 1.06378 1.06569 1.06717 1.06823 1.06887 1.06908 1.06887 1.06823 1.06717 1.06569 1.06378 1.06144 1.05869 1.05551 1.05184 1.04761 1.04283 1.03749 1.0316 1.02515 1.01815 1.01059 1.00238 0.993406 0.98368 0.973197 0.961958 0.949963 0.937212 0.923705 0.909373 0.894148 0.87803 0.861019 0.843115 0.824319 0.804629 0.784046 0.762624 0.740415 0.717421 0.693641 0.669075 0.643723 0.617585 0.59066 0.563192 0.535421 0.507347 0.47897 0.450291 0.421309 0.392024 0.362436 0.332653 0.302784 0.272827 0.242784 0.212653 0.182436 0.152131 0.12174 0.0932071 0.0684787 0.0475546 0.030435 0.0171197 0.00760874 0.00190219 0 0 0.00204466 0.00817865 0.018402 0.0327146 0.0511166 0.0736078 0.100188 0.130858 0.163521 0.196081 0.228538 0.260891 0.293141 0.325288 0.357331 0.389271 0.420992 0.452379 0.48343 0.514146 0.544527 0.574573 0.604285 0.633661 0.662444 0.690376 0.717458 0.743688 0.769068 0.793597 0.817275 0.840102 0.862024 0.882986 0.902989 0.922033 0.940117 0.957242 0.973407 0.988613 1.00294 1.01645 1.02916 1.04106 1.05216 1.06245 1.07193 1.08061 1.08859 1.09598 1.10278 1.10899 1.11462 1.11966 1.12411 1.12797 1.13132 1.13422 1.13667 1.13868 1.14024 1.14135 1.14202 1.14224 1.14202 1.14135 1.14024 1.13868 1.13667 1.13422 1.13132 1.12797 1.12411 1.11966 1.11462 1.109 1.10278 1.09598 1.08859 1.08061 1.07193 1.06245 1.05216 1.04107 1.02916 1.01646 1.00294 0.988616 0.973411 0.957246 0.940121 0.922037 0.902994 0.882991 0.862029 0.840108 0.817281 0.793604 0.769075 0.743696 0.717466 0.690385 0.662453 0.63367 0.604294 0.574583 0.544537 0.514157 0.483441 0.45239 0.421004 0.389283 0.357343 0.3253 0.293152 0.260902 0.228548 0.19609 0.163529 0.130865 0.100193 0.0736115 0.0511191 0.0327162 0.0184029 0.00817905 0.00204476 0 0 0.00218571 0.00874284 0.0196714 0.0349714 0.0546428 0.0786856 0.1071 0.139885 0.174796 0.209586 0.244255 0.278803 0.31323 0.347536 0.38172 0.415784 0.449603 0.483053 0.516134 0.548847 0.58119 0.613165 0.644771 0.676008 0.706603 0.736281 0.765042 0.792887 0.819816 0.845828 0.870923 0.895102 0.918311 0.940494 0.961652 0.981785 1.00089 1.01898 1.03603 1.05207 1.06716 1.08139 1.09478 1.1073 1.11897 1.12978 1.13974 1.14885 1.15721 1.16496 1.17209 1.1786 1.18449 1.18976 1.19442 1.19845 1.20195 1.20497 1.20754 1.20963 1.21126 1.21243 1.21313 1.21336 1.21313 1.21243 1.21126 1.20963 1.20754 1.20497 1.20195 1.19845 1.19442 1.18976 1.18449 1.1786 1.17209 1.16496 1.15721 1.14885 1.13974 1.12979 1.11897 1.1073 1.09478 1.0814 1.06716 1.05207 1.03604 1.01898 1.0009 0.98179 0.961657 0.940499 0.918316 0.895109 0.87093 0.845835 0.819823 0.792895 0.76505 0.736289 0.706612 0.676018 0.644781 0.613176 0.581201 0.548858 0.516146 0.483065 0.449615 0.415797 0.381733 0.347548 0.313242 0.278815 0.244266 0.209596 0.174805 0.139892 0.107105 0.0786894 0.0546454 0.0349731 0.0196724 0.00874327 0.00218582 0 0 0.00232524 0.00930094 0.0209271 0.0372038 0.0581309 0.0837085 0.113937 0.148815 0.185949 0.222942 0.259796 0.29651 0.333083 0.369517 0.40581 0.441963 0.477844 0.513321 0.548394 0.583062 0.617327 0.651187 0.684642 0.717694 0.750052 0.781427 0.81182 0.84123 0.869657 0.897101 0.923563 0.949042 0.973485 0.996837 1.0191 1.04027 1.06035 1.07935 1.09725 1.11406 1.12987 1.14479 1.1588 1.1719 1.18411 1.19541 1.20581 1.2153 1.22402 1.2321 1.23952 1.2463 1.25243 1.25792 1.26276 1.26695 1.27057 1.27372 1.27638 1.27855 1.28024 1.28145 1.28218 1.28242 1.28218 1.28145 1.28024 1.27855 1.27638 1.27372 1.27058 1.26695 1.26276 1.25792 1.25243 1.2463 1.23952 1.2321 1.22402 1.2153 1.20581 1.19541 1.18411 1.17191 1.1588 1.14479 1.12988 1.11406 1.09725 1.07935 1.06036 1.04028 1.0191 0.996843 0.973491 0.949049 0.92357 0.897109 0.869665 0.841238 0.811828 0.781436 0.750061 0.717704 0.684653 0.651198 0.617338 0.583074 0.548406 0.513334 0.477857 0.441976 0.405823 0.36953 0.333096 0.296522 0.259807 0.222953 0.185957 0.148822 0.113942 0.0837124 0.0581336 0.0372055 0.0209281 0.00930138 0.00232535 0 0 0.00246324 0.00985294 0.0221691 0.0394118 0.0615809 0.0886765 0.120699 0.157647 0.196979 0.23615 0.275161 0.314011 0.352701 0.391231 0.4296 0.467808 0.505716 0.543183 0.580209 0.616793 0.652936 0.688638 0.723899 0.758718 0.792792 0.825817 0.857792 0.888717 0.918592 0.947418 0.975195 1.00192 1.02755 1.05202 1.07533 1.09749 1.1185 1.13835 1.15705 1.17459 1.19109 1.20663 1.22122 1.23487 1.24757 1.25932 1.27012 1.27998 1.28902 1.29739 1.30508 1.31211 1.31845 1.32413 1.32913 1.33346 1.3372 1.34045 1.34319 1.34544 1.34718 1.34843 1.34918 1.34943 1.34918 1.34843 1.34718 1.34544 1.34319 1.34045 1.3372 1.33346 1.32913 1.32413 1.31846 1.31211 1.30508 1.29739 1.28902 1.27998 1.27012 1.25932 1.24757 1.23487 1.22123 1.20663 1.19109 1.1746 1.15705 1.13836 1.1185 1.0975 1.07534 1.05202 1.02755 1.00193 0.975202 0.947426 0.9186 0.888725 0.8578 0.825826 0.792802 0.758729 0.72391 0.688649 0.652948 0.616805 0.580221 0.543196 0.50573 0.467822 0.429613 0.391244 0.352714 0.314023 0.275172 0.23616 0.196988 0.157654 0.120704 0.0886806 0.0615837 0.0394136 0.0221701 0.0098534 0.00246335 0 0 0.00259971 0.0103988 0.0233974 0.0415954 0.0649928 0.0935896 0.127386 0.166382 0.207886 0.249208 0.290349 0.331307 0.372083 0.412677 0.45309 0.49332 0.533219 0.572639 0.611579 0.650039 0.688019 0.725519 0.76254 0.799081 0.834823 0.869449 0.902957 0.935348 0.966622 0.996778 1.02582 1.05374 1.08049 1.10603 1.13035 1.15345 1.17533 1.196 1.21544 1.23367 1.25079 1.26692 1.28206 1.29621 1.30936 1.32152 1.33269 1.34287 1.3522 1.36083 1.36877 1.37601 1.38255 1.38839 1.39354 1.39799 1.40183 1.40516 1.40798 1.41029 1.41208 1.41336 1.41413 1.41438 1.41413 1.41336 1.41208 1.41029 1.40798 1.40516 1.40183 1.39799 1.39354 1.3884 1.38255 1.37601 1.36877 1.36084 1.3522 1.34287 1.33269 1.32152 1.30936 1.29621 1.28206 1.26692 1.25079 1.23367 1.21544 1.196 1.17534 1.15345 1.13035 1.10604 1.0805 1.05375 1.02582 0.996786 0.96663 0.935356 0.902966 0.869458 0.834834 0.799092 0.762551 0.725531 0.688031 0.650051 0.611591 0.572652 0.533233 0.493334 0.453104 0.412691 0.372097 0.33132 0.290361 0.249219 0.207895 0.166389 0.127392 0.0935939 0.0649957 0.0415973 0.0233985 0.0103993 0.00259983 0 0 0.00273466 0.0109387 0.024612 0.0437546 0.0683666 0.0984479 0.133999 0.175018 0.218671 0.262118 0.30536 0.348397 0.39123 0.433857 0.47628 0.518498 0.560353 0.601688 0.642503 0.682799 0.722575 0.76183 0.800566 0.838782 0.876146 0.912323 0.947316 0.981123 1.01374 1.04518 1.07543 1.1045 1.13233 1.15888 1.18415 1.20814 1.23085 1.25227 1.27242 1.29128 1.30899 1.32566 1.3413 1.35591 1.36948 1.38201 1.39351 1.40398 1.41357 1.42244 1.43059 1.43802 1.44472 1.45071 1.45598 1.46053 1.46446 1.46786 1.47074 1.4731 1.47493 1.47624 1.47703 1.47729 1.47703 1.47624 1.47493 1.4731 1.47074 1.46786 1.46446 1.46053 1.45598 1.45071 1.44473 1.43802 1.43059 1.42244 1.41357 1.40398 1.39351 1.38201 1.36948 1.35591 1.34131 1.32567 1.30899 1.29129 1.27242 1.25228 1.23085 1.20814 1.18416 1.15889 1.13234 1.1045 1.07544 1.04519 1.01375 0.981132 0.947325 0.912333 0.876156 0.838793 0.800578 0.761842 0.722587 0.682812 0.642517 0.601702 0.560367 0.518512 0.476294 0.433872 0.391244 0.348411 0.305372 0.262129 0.21868 0.175026 0.134004 0.0984522 0.0683696 0.0437565 0.0246131 0.0109391 0.00273478 0 0 0.00286809 0.0114724 0.0258128 0.0458895 0.0717023 0.103251 0.140536 0.183558 0.229333 0.274879 0.320195 0.365283 0.410141 0.45477 0.49917 0.543341 0.587117 0.630331 0.672983 0.715074 0.756604 0.797571 0.837977 0.877822 0.916759 0.954441 0.990869 1.02604 1.05996 1.09263 1.12404 1.15419 1.18305 1.21057 1.23674 1.26156 1.28505 1.30719 1.32799 1.34744 1.36569 1.38286 1.39895 1.41397 1.42792 1.44079 1.45259 1.46331 1.47312 1.48219 1.49053 1.49812 1.50497 1.51109 1.51646 1.52109 1.52509 1.52855 1.53148 1.53388 1.53574 1.53707 1.53787 1.53814 1.53787 1.53707 1.53574 1.53388 1.53148 1.52855 1.52509 1.52109 1.51646 1.51109 1.50497 1.49812 1.49053 1.4822 1.47312 1.46331 1.45259 1.44079 1.42792 1.41398 1.39896 1.38286 1.36569 1.34745 1.32799 1.30719 1.28505 1.26157 1.23674 1.21057 1.18306 1.1542 1.12405 1.09263 1.05997 1.02605 0.990878 0.954451 0.916769 0.877833 0.837989 0.797583 0.756616 0.715087 0.672997 0.630345 0.587131 0.543356 0.499185 0.454785 0.410155 0.365296 0.320208 0.27489 0.229342 0.183566 0.140543 0.103256 0.0717054 0.0458914 0.0258139 0.0114729 0.00286821 0 0 0.00299875 0.011995 0.0269887 0.0479799 0.0749686 0.107955 0.146939 0.19192 0.239773 0.287371 0.334715 0.381805 0.428641 0.475223 0.52155 0.567623 0.613267 0.658306 0.702742 0.746572 0.789799 0.832421 0.874439 0.915852 0.956302 0.995428 1.03323 1.06971 1.10487 1.1387 1.17122 1.2024 1.23223 1.26065 1.28766 1.31328 1.33748 1.36029 1.38169 1.40168 1.42042 1.43804 1.45455 1.46994 1.48423 1.49739 1.50945 1.52039 1.5304 1.53965 1.54814 1.55587 1.56284 1.56906 1.57451 1.57921 1.58326 1.58677 1.58974 1.59217 1.59406 1.59541 1.59622 1.59649 1.59622 1.59541 1.59406 1.59217 1.58974 1.58677 1.58326 1.57921 1.57451 1.56906 1.56284 1.55587 1.54814 1.53965 1.5304 1.52039 1.50945 1.4974 1.48423 1.46995 1.45455 1.43804 1.42042 1.40168 1.38169 1.36029 1.33749 1.31328 1.28767 1.26066 1.23224 1.20241 1.17122 1.13871 1.10488 1.06972 1.03324 0.995439 0.956312 0.915863 0.87445 0.832433 0.789812 0.746586 0.702755 0.658321 0.613281 0.567638 0.521565 0.475238 0.428656 0.381819 0.334728 0.287382 0.239782 0.191928 0.146945 0.107959 0.0749718 0.0479819 0.0269898 0.0119955 0.00299887 0 0 0.00312538 0.0125015 0.0281284 0.050006 0.0781344 0.112514 0.153143 0.200024 0.24989 0.299476 0.348782 0.397809 0.446555 0.495022 0.543208 0.591115 0.638558 0.685353 0.731501 0.777001 0.821853 0.866058 0.909615 0.952524 0.994414 1.03491 1.07402 1.11174 1.14807 1.183 1.21655 1.2487 1.27943 1.30869 1.33649 1.36283 1.3877 1.41111 1.43306 1.45354 1.47272 1.49075 1.50763 1.52335 1.53793 1.55136 1.56364 1.57477 1.58494 1.59434 1.60296 1.6108 1.61787 1.62417 