<?xml version="1.0"?> 
<VTKFile type="StructuredGrid" version="0.1"> 
<StructuredGrid WholeExtent="0 128 0 128 0 0"> 
<Piece Extent="0 128 0 128 0 0"> 
<PointData>
<DataArray type="Float32" Name="u" format="ascii" NumberOfComponents="1"> 
0 0 0 0 0 0 0 0 0 0 0 0 0 0 0 0 0 0 0 0 0 0 0 0 0 0 0 0 0 0 0 0 0 0 0 0 0 0 0 0 0 0 0 0 0 0 0 0 0 0 0 0 0 0 0 0 0 0 0 0 0 0 0 0 0 0 0 0 0 0 0 0 0 0 0 0 0 0 0 0 0 0 0 0 0 0 0 0 0 0 0 0 0 0 0 0 0 0 0 0 0 0 0 0 0 0 0 0 0 0 0 0 0 0 0 0 0 0 0 0 0 0 0 0 0 0 0 0 0 0 1.25002e-05 5.00009e-05 0.000112502 0.000200004 0.000312506 0.000450008 0.000612511 0.000800015 0.0009992 0.00119675 0.00139266 0.00158693 0.00177957 0.00197056 0.00215993 0.00234765 0.00253286 0.00271469 0.00289313 0.00306819 0.00323986 0.00340815 0.00357305 0.00373457 0.00389131 0.00404188 0.00418629 0.00432453 0.0044566 0.0045825 0.00470224 0.00481581 0.0049233 0.0050248 0.00512031 0.00520983 0.00529336 0.00537089 0.00544244 0.005508 0.00556845 0.00562466 0.00567664 0.00572438 0.0057679 0.00580718 0.00584222 0.00587304 0.00590056 0.00592573 0.00594855 0.00596901 0.00598713 0.0060029 0.00601631 0.00602738 0.00603665 0.00604468 0.00605148 0.00605704 0.00606137 0.00606446 0.00606631 0.00606693 0.00606631 0.00606446 0.00606137 0.00605704 0.00605148 0.00604468 0.00603665 0.00602738 0.00601632 0.00600291 0.00598714 0.00596903 0.00594856 0.00592574 0.00590057 0.00587305 0.00584224 0.0058072 0.00576792 0.00572441 0.00567666 0.00562469 0.00556848 0.00550803 0.00544248 0.00537093 0.0052934 0.00520987 0.00512036 0.00502485 0.00492335 0.00481587 0.0047023 0.00458257 0.00445667 0.0043246 0.00418637 0.00404197 0.0038914 0.00373466 0.00357315 0.00340825 0.00323996 0.00306829 0.00289324 0.0027148 0.00253298 0.00234777 0.00216005 0.00197068 0.00177968 0.00158704 0.00139276 0.00119684 0.00099928 0.00080008 0.000612561 0.000450045 0.000312531 0.00020002 0.000112511 5.0005e-05 1.25012e-05 0 0 5.00009e-05 0.000200004 0.000450008 0.000800015 0.00125002 0.00180003 0.00245005 0.00320006 0.0039968 0.00478699 0.00557063 0.00634772 0.00711827 0.00788226 0.0086397 0.0093906 0.0101314 0.0108588 0.0115725 0.0122728 0.0129594 0.0136326 0.0142922 0.0149383 0.0155652 0.0161675 0.0167452 0.0172981 0.0178264 0.01833 0.018809 0.0192632 0.0196932 0.0200992 0.0204812 0.0208393 0.0211734 0.0214836 0.0217698 0.022032 0.0222738 0.0224986 0.0227066 0.0228975 0.0230716 0.0232287 0.0233689 0.0234921 0.0236022 0.0237029 0.0237942 0.0238761 0.0239485 0.0240116 0.0240652 0.0241095 0.0241466 0.0241787 0.0242059 0.0242282 0.0242455 0.0242578 0.0242652 0.0242677 0.0242653 0.0242578 0.0242455 0.0242282 0.0242059 0.0241787 0.0241466 0.0241095 0.0240653 0.0240116 0.0239486 0.0238761 0.0237942 0.023703 0.0236023 0.0234922 0.023369 0.0232288 0.0230717 0.0228976 0.0227067 0.0224988 0.0222739 0.0220321 0.0217699 0.0214837 0.0211736 0.0208395 0.0204814 0.0200994 0.0196934 0.0192635 0.0188092 0.0183303 0.0178267 0.0172984 0.0167455 0.0161679 0.0155656 0.0149386 0.0142926 0.013633 0.0129599 0.0122732 0.011573 0.0108592 0.0101319 0.00939107 0.00864018 0.00788274 0.00711873 0.00634817 0.00557104 0.00478736 0.00399712 0.00320032 0.00245024 0.00180018 0.00125012 0.00080008 0.000450045 0.00020002 5.0005e-05 0 0 0.000112502 0.000450008 0.00101252 0.00180003 0.00281255 0.00405007 0.0055126 0.00720013 0.0089928 0.0107707 0.0125339 0.0142824 0.0160161 0.0177351 0.0194393 0.0211288 0.0227958 0.0244322 0.0260382 0.0276137 0.0291588 0.0306733 0.0321575 0.0336111 0.0350218 0.036377 0.0376766 0.0389208 0.0401094 0.0412425 0.0423202 0.0433423 0.0443097 0.0452232 0.0460828 0.0468884 0.0476402 0.048338 0.048982 0.049572 0.050116 0.0506219 0.0510897 0.0515195 0.0519111 0.0522646 0.05258 0.0528573 0.053105 0.0533316 0.0535369 0.0537211 0.0538842 0.0540261 0.0541468 0.0542464 0.0543298 0.0544021 0.0544633 0.0545134 0.0545523 0.0545801 0.0545968 0.0546024 0.0545968 0.0545801 0.0545523 0.0545134 0.0544633 0.0544022 0.0543299 0.0542464 0.0541469 0.0540262 0.0538843 0.0537212 0.053537 0.0533317 0.0531052 0.0528575 0.0525802 0.0522648 0.0519113 0.0515197 0.05109 0.0506222 0.0501163 0.0495723 0.0489823 0.0483384 0.0476406 0.0468889 0.0460832 0.0452237 0.0443102 0.0433428 0.0423207 0.0412431 0.04011 0.0389214 0.0376773 0.0363777 0.0350226 0.0336119 0.0321583 0.0306742 0.0291597 0.0276147 0.0260392 0.0244332 0.0227968 0.0211299 0.0194404 0.0177362 0.0160171 0.0142834 0.0125348 0.0107716 0.00899352 0.00720072 0.00551305 0.0040504 0.00281278 0.00180018 0.0010126 0.000450045 0.000112511 0 0 0.000200004 0.000800015 0.00180003 0.00320006 0.00500009 0.00720013 0.00980018 0.0128002 0.0159872 0.019148 0.0222825 0.0253909 0.0284731 0.031529 0.0345588 0.0375624 0.0405258 0.043435 0.0462901 0.049091 0.0518378 0.0545304 0.0571688 0.0597531 0.062261 0.0646701 0.0669806 0.0691925 0.0713056 0.0733201 0.0752358 0.0770529 0.0787728 0.0803968 0.0819249 0.0833572 0.0846937 0.0859343 0.0870791 0.088128 0.0890951 0.0899945 0.0908262 0.0915902 0.0922864 0.0929148 0.0934756 0.0939686 0.0944089 0.0948116 0.0951767 0.0955042 0.0957941 0.0960464 0.096261 0.096438 0.0965863 0.0967149 0.0968237 0.0969127 0.0969819 0.0970313 0.097061 0.0970709 0.097061 0.0970313 0.0969819 0.0969127 0.0968237 0.096715 0.0965864 0.0964381 0.0962611 0.0960465 0.0957943 0.0955044 0.0951769 0.0948119 0.0944092 0.0939689 0.0934759 0.0929152 0.0922867 0.0915905 0.0908266 0.089995 0.0890956 0.0881285 0.0870797 0.0859349 0.0846944 0.083358 0.0819257 0.0803976 0.0787737 0.0770539 0.0752369 0.0733211 0.0713067 0.0691937 0.0669819 0.0646715 0.0622623 0.0597546 0.0571703 0.054532 0.0518394 0.0490927 0.0462919 0.0434368 0.0405276 0.0375643 0.0345607 0.0315309 0.0284749 0.0253927 0.0222842 0.0191494 0.0159885 0.0128013 0.00980098 0.00720072 0.0050005 0.00320032 0.00180018 0.00080008 0.00020002 0 0 0.000312506 0.00125002 0.00281255 0.00500009 0.00781264 0.0112502 0.0153128 0.0200004 0.02498 0.0299187 0.0348164 0.0396733 0.0444892 0.0492641 0.0539981 0.0586912 0.0633215 0.0678672 0.0723283 0.0767047 0.0809965 0.0852037 0.0893263 0.0933642 0.0972828 0.101047 0.104657 0.108113 0.111415 0.114563 0.117556 0.120395 0.123082 0.12562 0.128008 0.130246 0.132334 0.134272 0.136061 0.1377 0.139211 0.140616 0.141916 0.14311 0.144197 0.145179 0.146056 0.146826 0.147514 0.148143 0.148714 0.149225 0.149678 0.150072 0.150408 0.150684 0.150916 0.151117 0.151287 0.151426 0.151534 0.151611 0.151658 0.151673 0.151658 0.151611 0.151534 0.151426 0.151287 0.151117 0.150916 0.150685 0.150408 0.150073 0.149679 0.149226 0.148714 0.148144 0.147514 0.146826 0.146056 0.14518 0.144198 0.14311 0.141917 0.140617 0.139212 0.137701 0.136062 0.134273 0.132335 0.130247 0.128009 0.125621 0.123084 0.120397 0.117558 0.114564 0.111417 0.108115 0.104659 0.101049 0.0972849 0.0933665 0.0893287 0.0852062 0.0809991 0.0767074 0.072331 0.06787 0.0633244 0.0586942 0.0540011 0.0492671 0.0444921 0.039676 0.034819 0.029921 0.024982 0.020002 0.015314 0.0112511 0.00781328 0.0050005 0.00281278 0.00125012 0.000312531 0 0 0.000450008 0.00180003 0.00405007 0.00720013 0.0112502 0.0162003 0.0220504 0.0288005 0.0359712 0.0430829 0.0501357 0.0571295 0.0640644 0.0709403 0.0777573 0.0845154 0.091183 0.0977288 0.104153 0.110455 0.116635 0.122693 0.12863 0.134444 0.140087 0.145508 0.150706 0.155683 0.160438 0.16497 0.169281 0.173369 0.177239 0.180893 0.184331 0.187554 0.190561 0.193352 0.195928 0.198288 0.200464 0.202488 0.204359 0.206078 0.207644 0.209058 0.21032 0.211429 0.21242 0.213326 0.214148 0.214885 0.215537 0.216104 0.216587 0.216986 0.217319 0.217608 0.217853 0.218053 0.218209 0.21832 0.218387 0.218409 0.218387 0.218321 0.218209 0.218054 0.217853 0.217609 0.217319 0.216986 0.216587 0.216105 0.215537 0.214885 0.214148 0.213327 0.212421 0.21143 0.210321 0.209059 0.207645 0.206079 0.20436 0.202489 0.200465 0.198289 0.195929 0.193354 0.190562 0.187555 0.184333 0.180895 0.177241 0.173371 0.169283 0.164973 0.16044 0.155686 0.150709 0.145511 0.14009 0.134448 0.128633 0.122697 0.116639 0.110459 0.104157 0.0977329 0.0911872 0.0845196 0.0777616 0.0709446 0.0640686 0.0571335 0.0501394 0.0430862 0.0359741 0.0288029 0.0220522 0.0162016 0.0112511 0.00720072 0.0040504 0.00180018 0.000450045 0 0 0.000612511 0.00245005 0.0055126 0.00980018 0.0153128 0.0220504 0.0300131 0.0392007 0.0489608 0.0586406 0.0682402 0.0777596 0.0871988 0.0965577 0.105836 0.115035 0.12411 0.13302 0.141763 0.150341 0.158753 0.166999 0.17508 0.182994 0.190674 0.198052 0.205128 0.211902 0.218373 0.224543 0.23041 0.235975 0.241242 0.246215 0.250895 0.255282 0.259374 0.263174 0.26668 0.269892 0.272854 0.275608 0.278155 0.280495 0.282627 0.284552 0.286269 0.287779 0.289127 0.290361 0.291479 0.292482 0.293369 0.294142 0.294799 0.295341 0.295796 0.296189 0.296522 0.296795 0.297007 0.297158 0.297249 0.29728 0.297249 0.297158 0.297007 0.296795 0.296523 0.29619 0.295796 0.295342 0.2948 0.294142 0.29337 0.292482 0.291479 0.290361 0.289128 0.28778 0.28627 0.284553 0.282628 0.280496 0.278157 0.27561 0.272855 0.269894 0.266681 0.263176 0.259377 0.255284 0.250897 0.246218 0.241244 0.235978 0.230413 0.224546 0.218377 0.211906 0.205132 0.198056 0.190678 0.182998 0.175084 0.167004 0.158758 0.150346 0.141769 0.133025 0.124116 0.115041 0.105842 0.0965635 0.0872045 0.077765 0.0682453 0.0586452 0.0489647 0.0392039 0.0300155 0.0220522 0.015314 0.00980098 0.00551305 0.00245024 0.000612561 0 0 0.000800015 0.00320006 0.00720013 0.0128002 0.0200004 0.0288005 0.0392007 0.0512009 0.0639488 0.0765918 0.0891301 0.101564 0.113892 0.126116 0.138235 0.15025 0.162103 0.17374 0.18516 0.196364 0.207351 0.218122 0.228675 0.239012 0.249044 0.258681 0.267923 0.27677 0.285222 0.29328 0.300943 0.308212 0.315091 0.321587 0.3277 0.333429 0.338775 0.343737 0.348316 0.352512 0.356381 0.359978 0.363305 0.366361 0.369145 0.371659 0.373902 0.375874 0.377636 0.379247 0.380707 0.382017 0.383176 0.384185 0.385044 0.385752 0.386345 0.38686 0.387295 0.387651 0.387928 0.388125 0.388244 0.388284 0.388244 0.388125 0.387928 0.387651 0.387295 0.38686 0.386346 0.385752 0.385044 0.384186 0.383177 0.382018 0.380708 0.379247 0.377637 0.375875 0.373903 0.371661 0.369147 0.366362 0.363307 0.35998 0.356383 0.352514 0.348319 0.34374 0.338777 0.333432 0.327703 0.32159 0.315095 0.308216 0.300947 0.293285 0.285227 0.276775 0.267928 0.258686 0.249049 0.239018 0.228681 0.218128 0.207358 0.196371 0.185167 0.173747 0.162111 0.150257 0.138243 0.126124 0.1139 0.101571 0.0891367 0.0765978 0.0639539 0.0512051 0.0392039 0.0288029 0.020002 0.0128013 0.00720072 0.00320032 0.00080008 0 0 0.000999199 0.0039968 0.00899279 0.0159872 0.02498 0.0359712 0.0489607 0.0639487 0.07987 0.0956594 0.111317 0.126843 0.142236 0.157498 0.172629 0.187627 0.202423 0.216949 0.231203 0.245185 0.258896 0.272336 0.285505 0.298402 0.310917 0.322938 0.334467 0.345502 0.356043 0.366092 0.375647 0.384709 0.393285 0.401382 0.409001 0.416141 0.422803 0.428987 0.434691 0.439918 0.444736 0.449216 0.453359 0.457164 0.460631 0.46376 0.466551 0.469005 0.471196 0.4732 0.475016 0.476646 0.478087 0.479342 0.480409 0.481289 0.482026 0.482665 0.483206 0.483648 0.483992 0.484237 0.484385 0.484434 0.484385 0.484238 0.483992 0.483648 0.483206 0.482665 0.482027 0.48129 0.48041 0.479343 0.478088 0.476646 0.475017 0.473201 0.471197 0.469006 0.466553 0.463761 0.460632 0.457165 0.453361 0.449218 0.444738 0.43992 0.434694 0.42899 0.422807 0.416145 0.409005 0.401386 0.393289 0.384713 0.375652 0.366097 0.356049 0.345508 0.334473 0.322945 0.310924 0.298409 0.285512 0.272344 0.258905 0.245194 0.231211 0.216958 0.202433 0.187636 0.172638 0.157508 0.142246 0.126851 0.111325 0.0956667 0.0798763 0.0639539 0.0489647 0.0359741 0.024982 0.0159885 0.00899352 0.00399712 0.00099928 0 0 0.00119674 0.00478697 0.0107707 0.0191479 0.0299186 0.0430828 0.0586404 0.0765916 0.0956591 0.114566 0.133312 0.151898 0.170323 0.188587 0.206691 0.224634 0.242333 0.259705 0.276749 0.293467 0.309857 0.32592 0.341656 0.357065 0.372014 0.386372 0.400138 0.413312 0.425895 0.437886 0.449286 0.460094 0.47032 0.479974 0.489055 0.497564 0.505501 0.512866 0.519659 0.525879 0.531611 0.536941 0.541868 0.546392 0.550513 0.554231 0.557547 0.560459 0.563059 0.565436 0.567591 0.569523 0.571232 0.572719 0.573983 0.575024 0.575896 0.576651 0.577291 0.577814 0.578221 0.578511 0.578686 0.578744 0.578686 0.578512 0.578221 0.577814 0.577291 0.576652 0.575896 0.575025 0.573983 0.572719 0.571233 0.569524 0.567592 0.565438 0.563061 0.560461 0.557548 0.554233 0.550515 0.546394 0.54187 0.536944 0.531614 0.525882 0.519662 0.51287 0.505505 0.497569 0.48906 0.479979 0.470325 0.460099 0.449292 0.437892 0.425902 0.413319 0.400145 0.386379 0.372022 0.357073 0.341665 0.325929 0.309867 0.293477 0.27676 0.259715 0.242344 0.224645 0.206702 0.188598 0.170334 0.151908 0.133322 0.114575 0.0956667 0.0765977 0.0586451 0.0430862 0.029921 0.0191494 0.0107716 0.00478736 0.00119684 0 0 0.00139265 0.00557059 0.0125338 0.0222824 0.0348162 0.0501353 0.0682398 0.0891295 0.111316 0.133312 0.155116 0.176729 0.198151 0.219382 0.240422 0.26127 0.281831 0.302008 0.3218 0.341209 0.360233 0.378873 0.397129 0.415 0.432335 0.44898 0.464935 0.480201 0.494777 0.508663 0.52186 0.534367 0.546197 0.557362 0.567862 0.577698 0.586869 0.595376 0.603218 0.610395 0.617007 0.623153 0.628832 0.634046 0.638793 0.643074 0.646889 0.650238 0.653225 0.655956 0.658431 0.660649 0.66261 0.664316 0.665764 0.666957 0.667954 0.668819 0.669551 0.670149 0.670615 0.670947 0.671147 0.671213 0.671147 0.670947 0.670615 0.670149 0.669551 0.668819 0.667955 0.666957 0.665765 0.664317 0.662612 0.66065 0.658432 0.655958 0.653227 0.650239 0.646891 0.643076 0.638795 0.634048 0.628835 0.623156 0.61701 0.610399 0.603222 0.59538 0.586874 0.577703 0.567867 0.557367 0.546203 0.534373 0.521867 0.508671 0.494785 0.480209 0.464944 0.448989 0.432344 0.41501 0.397139 0.378883 0.360244 0.34122 0.321812 0.30202 0.281844 0.261283 0.240435 0.219395 0.198164 0.176741 0.155127 0.133322 0.111325 0.0891365 0.0682452 0.0501393 0.034819 0.0222841 0.0125348 0.00557103 0.00139276 0 0 0.00158691 0.00634766 0.0142822 0.0253906 0.0396729 0.0571289 0.0777588 0.101563 0.126841 0.151897 0.176729 0.201337 0.225722 0.249884 0.273822 0.297537 0.320919 0.343858 0.366356 0.388411 0.410024 0.431194 0.451923 0.472209 0.49188 0.510764 0.52886 0.546169 0.56269 0.578424 0.59337 0.607528 0.620915 0.633546 0.645422 0.656542 0.666906 0.676515 0.685369 0.693467 0.700923 0.707851 0.714252 0.720125 0.72547 0.730288 0.734578 0.73834 0.741694 0.744759 0.747536 0.750024 0.752223 0.754133 0.755755 0.757088 0.758202 0.759168 0.759985 0.760653 0.761173 0.761545 0.761768 0.761842 0.761768 0.761545 0.761173 0.760654 0.759985 0.759168 0.758202 0.757088 0.755756 0.754134 0.752224 0.750025 0.747537 0.744761 0.741696 0.738342 0.73458 0.73029 0.725473 0.720128 0.714255 0.707855 0.700926 0.693471 0.685373 0.67652 0.666912 0.656547 0.645428 0.633552 0.620922 0.607535 0.593377 0.578432 0.562699 0.546178 0.52887 0.510774 0.491891 0.47222 0.451934 0.431206 0.410036 0.388424 0.366369 0.343872 0.320933 0.297551 0.273837 0.249899 0.225737 0.201351 0.176741 0.151908 0.126851 0.10157 0.0777648 0.0571334 0.0396759 0.0253926 0.0142833 0.00634815 0.00158704 0 0 0.00177954 0.00711816 0.0160159 0.0284726 0.0444885 0.0640635 0.0871975 0.113891 0.142234 0.170321 0.19815 0.225721 0.253035 0.280092 0.306891 0.333433 0.359595 0.385256 0.410415 0.435073 0.45923 0.482885 0.506038 0.528691 0.55065 0.571723 0.591912 0.611215 0.629634 0.647167 0.663814 0.679577 0.694475 0.708527 0.721734 0.734096 0.745613 0.756285 0.766112 0.775093 0.783359 0.791036 0.798127 0.804629 0.810545 0.815873 0.820613 0.824766 0.828465 0.831845 0.834906 0.837647 0.840069 0.842171 0.843953 0.845416 0.846638 0.847697 0.848593 0.849326 0.849897 0.850304 0.850548 0.85063 0.850548 0.850304 0.849897 0.849327 0.848594 0.847698 0.846639 0.845417 0.843954 0.842172 0.84007 0.837648 0.834908 0.831847 0.828467 0.824768 0.820616 0.815875 0.810548 0.804633 0.79813 0.79104 0.783363 0.775098 0.766117 0.756291 0.745619 0.734103 0.721741 0.708534 0.694482 0.679585 0.663823 0.647176 0.629643 0.611225 0.591922 0.571734 0.550661 0.528703 0.506051 0.482898 0.459243 0.435087 0.41043 0.385271 0.359611 0.333449 0.306907 0.280108 0.253051 0.225736 0.198164 0.170333 0.142245 0.113899 0.0872042 0.0640684 0.0444919 0.0284748 0.0160171 0.00711871 0.00177968 0 0 0.00197053 0.00788211 0.0177347 0.0315284 0.0492632 0.070939 0.0965558 0.126114 0.157496 0.188584 0.21938 0.249882 0.280091 0.310007 0.339629 0.368959 0.39786 0.426201 0.453979 0.481196 0.507851 0.533944 0.559475 0.584445 0.608643 0.631858 0.65409 0.67534 0.695608 0.714892 0.733195 0.750514 0.766876 0.782305 0.7968 0.810362 0.82299 0.834685 0.845447 0.855276 0.864315 0.872709 0.880457 0.88756 0.894017 0.899829 0.904995 0.909516 0.91354 0.917215 0.920541 0.923519 0.926148 0.928428 0.93036 0.931943 0.933263 0.934408 0.935376 0.936169 0.936785 0.937225 0.937489 0.937577 0.937489 0.937225 0.936785 0.936169 0.935377 0.934408 0.933264 0.931944 0.930361 0.92843 0.926149 0.923521 0.920543 0.917217 0.913542 0.909518 0.904998 0.899832 0.89402 0.887563 0.880461 0.872713 0.864319 0.855281 0.845452 0.834691 0.822996 0.810368 0.796807 0.782312 0.766884 0.750523 0.733204 0.714902 0.695618 0.675351 0.654102 0.63187 0.608656 0.584459 0.559489 0.533958 0.507866 0.481211 0.453995 0.426217 0.397877 0.368976 0.339647 0.310024 0.280108 0.249898 0.219395 0.188598 0.157507 0.126123 0.0965631 0.0709443 0.0492669 0.0315308 0.0177361 0.0078827 0.00197068 0 0 0.00215987 0.0086395 0.0194389 0.034558 0.0539969 0.0777555 0.105834 0.138232 0.172625 0.206687 0.240418 0.273818 0.306888 0.339628 0.372036 0.404114 0.435715 0.466693 0.497047 0.526779 0.555887 0.584372 0.612234 0.639473 0.66586 0.691168 0.715396 0.738544 0.760612 0.781601 0.80151 0.82034 0.838119 0.854879 0.870618 0.885337 0.899036 0.911715 0.923374 0.934013 0.943791 0.952868 0.961242 0.968915 0.975886 0.982156 0.987724 0.99259 0.996917 1.00087 1.00444 1.00764 1.01046 1.01291 1.01498 1.01667 1.01808 1.0193 1.02033 1.02118 1.02184 1.02231 1.02259 1.02268 1.02259 1.02231 1.02184 1.02118 1.02033 1.0193 1.01808 1.01667 1.01498 1.01291 1.01046 1.00764 1.00444 1.00087 0.996919 0.992593 0.987727 0.982159 0.97589 0.968919 0.961246 0.952872 0.943796 0.934018 0.92338 0.911721 0.899043 0.885344 0.870625 0.854887 0.838128 0.820349 0.80152 0.781612 0.760624 0.738556 0.715408 0.691181 0.665874 0.639487 0.612249 0.584388 0.555903 0.526796 0.497065 0.46671 0.435733 0.404133 0.372055 0.339646 0.306907 0.273836 0.240434 0.206701 0.172637 0.138242 0.105842 0.0777612 0.0540008 0.0345605 0.0194403 0.00864014 0.00216003 0 0 0.00234758 0.00939033 0.0211282 0.0375613 0.0586896 0.084513 0.115032 0.150245 0.187622 0.224628 0.261265 0.297531 0.333428 0.368955 0.404112 0.438899 0.473159 0.506732 0.53962 0.571822 0.603339 0.634169 0.664314 0.693774 0.722302 0.749653 0.775828 0.800826 0.824648 0.847293 0.868761 0.889053 0.908204 0.926249 0.943189 0.959023 0.973752 0.987375 0.999893 1.01131 1.02179 1.03151 1.04048 1.0487 1.05615 1.06285 1.0688 1.07399 1.0786 1.0828 1.08661 1.09001 1.09301 1.0956 1.0978 1.09959 1.10108 1.10237 1.10347 1.10436 1.10506 1.10555 1.10585 1.10595 1.10585 1.10555 1.10506 1.10436 1.10347 1.10237 1.10108 1.09959 1.0978 1.09561 1.09301 1.09001 1.08661 1.08281 1.0786 1.07399 1.0688 1.06286 1.05616 1.0487 1.04049 1.03152 1.02179 1.01131 0.9999 0.987382 0.973759 0.959031 0.943197 0.926258 0.908213 0.889063 0.868772 0.847304 0.82466 0.800839 0.775841 0.749667 0.722316 0.693789 0.66433 0.634186 0.603356 0.57184 0.539638 0.506751 0.473178 0.438919 0.404132 0.368975 0.333448 0.29755 0.261282 0.224644 0.187635 0.150256 0.11504 0.0845191 0.0586938 0.037564 0.0211298 0.00939101 0.00234775 0 0 0.00253278 0.0101311 0.022795 0.0405245 0.0633195 0.09118 0.124106 0.162098 0.202417 0.242326 0.281824 0.320911 0.359588 0.397855 0.435711 0.473156 0.510022 0.546138 0.581505 0.616122 0.64999 0.683109 0.715479 0.747099 0.777708 0.807043 0.835106 0.861896 0.887412 0.911655 0.934626 0.956323 0.976789 0.996066 1.01415 1.03105 1.04676 1.06128 1.07462 1.08676 1.0979 1.10824 1.11776 1.12648 1.13439 1.14149 1.14779 1.15327 1.15814 1.16258 1.16659 1.17018 1.17333 1.17607 1.17837 1.18025 1.18181 1.18316 1.18431 1.18524 1.18597 1.18649 1.1868 1.18691 1.1868 1.18649 1.18597 1.18524 1.18431 1.18316 1.18181 1.18025 1.17837 1.17607 1.17334 1.17018 1.16659 1.16258 1.15814 1.15327 1.14779 1.1415 1.1344 1.12649 1.11777 1.10824 1.09791 1.08676 1.07462 1.06129 1.04677 1.03106 1.01416 0.996075 0.976799 0.956333 0.934637 0.911667 0.887425 0.861909 0.83512 0.807058 0.777723 0.747115 0.715495 0.683127 0.650009 0.616141 0.581524 0.546158 0.510042 0.473177 0.435732 0.397876 0.359609 0.320931 0.281842 0.242342 0.202431 0.162109 0.124115 0.0911865 0.0633239 0.0405273 0.0227966 0.0101318 0.00253296 0 0 0.00271459 0.0108584 0.0244313 0.0434334 0.0678647 0.0977252 0.133015 0.173734 0.216941 0.259696 0.301999 0.343849 0.385247 0.426193 0.466686 0.506728 0.546136 0.58473 0.62251 0.659476 0.695628 0.730966 0.76549 0.7992 0.831818 0.863068 0.892948 0.92146 0.948603 0.974377 0.998782 1.02182 1.04353 1.06398 1.08316 1.10106 1.11769 1.13306 1.14715 1.15997 1.17173 1.18263 1.19267 1.20185 1.21018 1.21764 1.22425 1.23 1.23509 1.23974 1.24394 1.24769 1.25098 1.25383 1.25623 1.25818 1.2598 1.2612 1.26239 1.26336 1.26412 1.26465 1.26498 1.26509 1.26498 1.26465 1.26412 1.26336 1.26239 1.2612 1.2598 1.25818 1.25623 1.25383 1.25099 1.24769 1.24394 1.23974 1.2351 1.23 1.22425 1.21765 1.21018 1.20186 1.19268 1.18263 1.17174 1.15998 1.14716 1.13306 1.1177 1.10107 1.08316 1.06399 1.04354 1.02183 0.998794 0.974389 0.948616 0.921474 0.892963 0.863083 0.831834 0.799216 0.765507 0.730984 0.695647 0.659496 0.62253 0.584751 0.546157 0.50675 0.466709 0.426215 0.385269 0.343869 0.302018 0.259713 0.216956 0.173746 0.133024 0.0977319 0.0678694 0.0434364 0.024433 0.0108591 0.00271478 0 0 0.00289301 0.0115721 0.0260371 0.0462882 0.0723253 0.104148 0.141758 0.185153 0.231194 0.276739 0.321789 0.366344 0.410404 0.453969 0.497039 0.539613 0.5815 0.622507 0.662635 0.701883 0.740251 0.777739 0.814347 0.850076 0.884633 0.917726 0.949355 0.979519 1.00822 1.03546 1.06123 1.08554 1.10844 1.12999 1.15019 1.16904 1.18655 1.2027 1.2175 1.23095 1.24327 1.25469 1.2652 1.27481 1.28351 1.2913 1.29819 1.30417 1.30947 1.3143 1.31865 1.32254 1.32596 1.3289 1.33138 1.33339 1.33505 1.3365 1.33772 1.33871 1.33949 1.34004 1.34038 1.34049 1.34038 1.34004 1.33949 1.33871 1.33772 1.3365 1.33506 1.33339 1.33138 1.32891 1.32596 1.32254 1.31865 1.3143 1.30947 1.30418 1.2982 1.29131 1.28351 1.27481 1.26521 1.2547 1.24328 1.23096 1.21751 1.2027 1.18655 1.16905 1.1502 1.13 1.10845 1.08555 1.06124 1.03547 1.00823 0.979534 0.94937 0.917742 0.88465 0.850094 0.814366 0.777758 0.740271 0.701903 0.662656 0.622529 0.581523 0.539636 0.497062 0.453992 0.410427 0.366366 0.321809 0.276757 0.231209 0.185165 0.141767 0.104155 0.0723302 0.0462913 0.0260389 0.0115728 0.00289321 0 0 0.00306805 0.0122722 0.0276125 0.0490889 0.0767013 0.11045 0.150335 0.196355 0.245175 0.293455 0.341196 0.388397 0.43506 0.481184 0.526768 0.571813 0.616115 0.659471 0.70188 0.743343 0.783859 0.823429 0.862052 0.899729 0.936153 0.971018 1.00433 1.03607 1.06626 1.0949 1.12197 1.14748 1.17151 1.1941 1.21527 1.23501 1.25332 1.2702 1.28566 1.29969 1.31253 1.32442 1.33536 1.34535 1.35439 1.36247 1.36961 1.3758 1.38126 1.38624 1.39073 1.39474 1.39825 1.40128 1.40382 1.40587 1.40757 1.40904 1.41029 1.4113 1.41209 1.41266 1.413 1.41311 1.413 1.41266 1.41209 1.4113 1.41029 1.40904 1.40757 1.40588 1.40382 1.40128 1.39825 1.39474 1.39074 1.38624 1.38127 1.3758 1.36961 1.36248 1.35439 1.34535 1.33536 1.32443 1.31254 1.2997 1.28567 1.27021 1.25333 1.23501 1.21528 1.19411 1.17152 1.1475 1.12198 1.09491 1.06628 1.03609 1.00434 0.971035 0.93617 0.899747 0.862071 0.823449 0.78388 0.743364 0.701902 0.659493 0.616138 0.571837 0.526792 0.481207 0.435083 0.388419 0.341216 0.293473 0.245191 0.196368 0.150344 0.110457 0.0767063 0.0490921 0.0276143 0.012273 0.00306825 0 0 0.00323971 0.0129588 0.0291574 0.0518353 0.0809927 0.116629 0.158746 0.207341 0.258884 0.309843 0.360218 0.410008 0.459214 0.507836 0.555874 0.603327 0.649981 0.69562 0.740246 0.783856 0.826453 0.868035 0.908603 0.948157 0.986377 1.02295 1.05786 1.09112 1.12273 1.15269 1.181 1.20765 1.23273 1.2563 1.27838 1.29894 1.31801 1.33557 1.35163 1.36619 1.3795 1.39182 1.40314 1.41347 1.42281 1.43115 1.43851 1.44486 1.45047 1.45558 1.46018 1.46428 1.46787 1.47096 1.47355 1.47563 1.47735 1.47884 1.4801 1.48113 1.48193 1.4825 1.48284 1.48296 1.48284 1.4825 1.48193 1.48113 1.4801 1.47884 1.47735 1.47563 1.47355 1.47096 1.46787 1.46428 1.46018 1.45558 1.45048 1.44487 1.43851 1.43116 1.42281 1.41348 1.40315 1.39182 1.37951 1.3662 1.35164 1.33558 1.31802 1.29895 1.27839 1.25631 1.23274 1.20767 1.18101 1.15271 1.12275 1.09114 1.05788 1.02296 0.986395 0.948176 0.908623 0.868056 0.826474 0.783878 0.740268 0.695643 0.650004 0.603351 0.555898 0.507861 0.459238 0.410031 0.360239 0.309862 0.258901 0.207354 0.158756 0.116637 0.0809978 0.0518386 0.0291592 0.0129597 0.00323991 0 0 0.00340798 0.0136319 0.0306718 0.0545276 0.0851994 0.122687 0.166991 0.21811 0.272323 0.325905 0.378856 0.431177 0.482867 0.533927 0.584356 0.634155 0.683097 0.730956 0.777731 0.823423 0.868033 0.911559 0.954001 0.995361 1.03531 1.07351 1.10996 1.14467 1.17763 1.20885 1.23832 1.26605 1.29212 1.31661 1.33952 1.36086 1.38062 1.39881 1.41542 1.43046 1.44419 1.45689 1.46855 1.47918 1.48878 1.49735 1.50488 1.51138 1.5171 1.52231 1.52699 1.53116 1.53482 1.53795 1.54057 1.54267 1.54439 1.54589 1.54715 1.54819 1.54899 1.54957 1.54991 1.55003 1.54991 1.54957 1.54899 1.54819 1.54715 1.54589 1.54439 1.54267 1.54057 1.53795 1.53482 1.53117 1.527 1.52231 1.5171 1.51138 1.50488 1.49735 1.48879 1.47919 1.46856 1.45689 1.44419 1.43046 1.41543 1.39882 1.38063 1.36087 1.33953 1.31662 1.29213 1.26606 1.23834 1.20886 1.17765 1.14468 1.10998 1.07352 1.03532 0.99538 0.954021 0.911579 0.868054 0.823446 0.777754 0.730979 0.683121 0.63418 0.584381 0.533952 0.482891 0.4312 0.378877 0.325924 0.272339 0.218124 0.167001 0.122695 0.0852047 0.054531 0.0306737 0.0136327 0.00340819 0 0 0.00357286 0.0142914 0.0321557 0.0571658 0.0893215 0.128623 0.17507 0.228663 0.28549 0.341639 0.39711 0.451903 0.506018 0.559456 0.612216 0.664297 0.715463 0.765477 0.814337 0.862044 0.908598 0.953998 0.998246 1.04134 1.08294 1.1227 1.16062 1.19671 1.23096 1.26337 1.29394 1.32267 1.34966 1.375 1.3987 1.42075 1.44116 1.45991 1.47702 1.49248 1.50659 1.51962 1.53158 1.54248 1.5523 1.56105 1.56873 1.57534 1.58115 1.58642 1.59117 1.59539 1.59908 1.60224 1.60487 1.60698 1.6087 1.61019 1.61145 1.61248 1.61329 1.61386 1.6142 1.61432 1.6142 1.61386 1.61329 1.61248 1.61145 1.61019 1.6087 1.60698 1.60488 1.60225 1.59909 1.5954 1.59118 1.58643 1.58115 1.57534 1.56873 1.56105 1.5523 1.54248 1.53159 1.51963 1.5066 1.49249 1.47703 1.45992 1.44116 1.42076 1.39871 1.37502 1.34967 1.32268 1.29395 1.26338 1.23097 1.19673 1.16064 1.12272 1.08296 1.04136 0.998267 0.95402 0.90862 0.862066 0.81436 0.765501 0.715488 0.664322 0.612241 0.559481 0.506043 0.451927 0.397132 0.341658 0.285507 0.228677 0.175081 0.128631 0.0893268 0.0571692 0.0321577 0.0142923 0.00357307 0 0 0.00373436 0.0149374 0.0336092 0.0597497 0.093359 0.134437 0.182984 0.238999 0.298386 0.357046 0.41498 0.472187 0.528668 0.584423 0.639452 0.693754 0.747081 0.799184 0.850062 0.899717 0.948148 0.995355 1.04134 1.0861 1.12928 1.17053 1.20985 1.24724 1.28271 1.31624 1.34784 1.37752 1.40537 1.4315 1.45592 1.47862 1.49961 1.51888 1.53644 1.55228 1.5667 1.58003 1.59224 1.60336 1.61336 1.62226 1.63005 1.63674 1.64261 1.64793 1.65272 1.65697 1.66067 1.66384 1.66647 1.66856 1.67026 1.67174 1.67299 1.67401 1.67481 1.67538 1.67572 1.67583 1.67572 1.67538 1.67481 1.67402 1.67299 1.67174 1.67026 1.66856 1.66647 1.66384 1.66068 1.65697 1.65272 1.64794 1.64261 1.63675 1.63006 1.62226 1.61337 1.60336 1.59225 1.58003 1.56671 1.55228 1.53644 1.51889 1.49962 1.47863 1.45593 1.43151 1.40538 1.37753 1.34786 1.31625 1.28272 1.24726 1.20987 1.17055 1.1293 1.08612 1.04136 0.995376 0.94817 0.89974 0.850086 0.799208 0.747106 0.693779 0.639477 0.584449 0.528693 0.472211 0.415002 0.357065 0.298403 0.239013 0.182994 0.134445 0.0933644 0.0597532 0.0336112 0.0149383 0.00373457 0 0 0.00389108 0.0155643 0.0350197 0.0622573 0.097277 0.140079 0.190663 0.249029 0.310899 0.371993 0.432312 0.491856 0.550625 0.608618 0.665836 0.722279 0.777687 0.831799 0.884616 0.936138 0.986365 1.0353 1.08293 1.12927 1.17396 1.21662 1.25727 1.29589 1.33249 1.36708 1.39964 1.43018 1.45883 1.48569 1.51077 1.53406 1.55558 1.57531 1.59326 1.60942 1.62413 1.6377 1.65013 1.66142 1.67158 1.68059 1.68847 1.69521 1.70111 1.70645 1.71125 1.71551 1.71921 1.72237 1.72498 1.72705 1.72873 1.73018 1.73141 1.73242 1.7332 1.73376 1.7341 1.73421 1.7341 1.73376 1.7332 1.73242 1.73141 1.73018 1.72873 1.72705 1.72499 1.72237 1.71922 1.71551 1.71126 1.70646 1.70111 1.69521 1.68847 1.6806 1.67158 1.66143 1.65014 1.63771 1.62414 1.60943 1.59326 1.57532 1.55558 1.53407 1.51078 1.4857 1.45884 1.4302 1.39965 1.36709 1.33251 1.29591 1.25728 1.21664 1.17398 1.1293 1.08295 1.03532 0.986388 0.936162 0.88464 0.831824 0.777712 0.722305 0.665862 0.608644 0.55065 0.49188 0.432334 0.372013 0.310916 0.249043 0.190674 0.140087 0.0972824 0.0622608 0.0350217 0.0155652 0.0038913 0 0 0.00404164 0.0161665 0.0363747 0.0646662 0.101041 0.145499 0.19804 0.258665 0.322919 0.386349 0.448955 0.510738 0.571696 0.631831 0.691141 0.749628 0.807019 0.863046 0.917706 0.971001 1.02293 1.07349 1.12269 1.17052 1.21662 1.26061 1.30249 1.34226 1.37992 1.41548 1.44893 1.48027 1.50964 1.53716 1.56283 1.58666 1.60865 1.62879 1.64708 1.66353 1.67847 1.69224 1.70485 1.71628 1.72655 1.73565 1.74359 1.75035 1.75625 1.7616 1.7664 1.77064 1.77433 1.77747 1.78005 1.78208 1.78372 1.78514 1.78635 1.78733 1.7881 1.78864 1.78897 1.78908 1.78897 1.78864 1.7881 1.78733 1.78635 1.78514 1.78372 1.78208 1.78005 1.77747 1.77433 1.77064 1.7664 1.76161 1.75626 1.75035 1.74359 1.73566 1.72656 1.71629 1.70485 1.69225 1.67848 1.66353 1.64709 1.62879 1.60866 1.58667 1.56284 1.5