<?xml version="1.0"?> 
<VTKFile type="StructuredGrid" version="0.1"> 
<StructuredGrid WholeExtent="0 128 0 128 0 0"> 
<Piece Extent="0 128 0 128 0 0"> 
<PointData>
<DataArray type="Float32" Name="u" format="ascii" NumberOfComponents="1"> 
0 0 0 0 0 0 0 0 0 0 0 0 0 0 0 0 0 0 0 0 0 0 0 0 0 0 0 0 0 0 0 0 0 0 0 0 0 0 0 0 0 0 0 0 0 0 0 0 0 0 0 0 0 0 0 0 0 0 0 0 0 0 0 0 0 0 0 0 0 0 0 0 0 0 0 0 0 0 0 0 0 0 0 0 0 0 0 0 0 0 0 0 0 0 0 0 0 0 0 0 0 0 0 0 0 0 0 0 0 0 0 0 0 0 0 0 0 0 0 0 0 0 0 0 0 0 0 0 0 0 -6.67483e-08 -2.66993e-07 -6.00735e-07 -1.06797e-06 -1.66871e-06 -2.40294e-06 -3.27067e-06 -4.27189e-06 -5.54681e-06 -7.2356e-06 -9.33827e-06 -1.18548e-05 -1.47852e-05 -1.81296e-05 -2.18877e-05 -2.60598e-05 -3.06332e-05 -3.55955e-05 -4.09465e-05 -4.66864e-05 -5.28151e-05 -5.93326e-05 -6.62389e-05 -7.3534e-05 -8.10499e-05 -8.86185e-05 -9.62397e-05 -0.000103914 -0.00011164 -0.00011942 -0.000127251 -0.000135136 -0.000142875 -0.000150271 -0.000157324 -0.000164034 -0.0001704 -0.000176422 -0.000182102 -0.000187438 -0.000192374 -0.000196854 -0.000200877 -0.000204443 -0.000207553 -0.000210206 -0.000212403 -0.000214143 -0.000215539 -0.000216703 -0.000217636 -0.000218338 -0.000218808 -0.000219046 -0.000219053 -0.000218829 -0.00021851 -0.000218233 -0.000217999 -0.000217808 -0.000217659 -0.000217553 -0.000217489 -0.000217468 -0.000217489 -0.000217553 -0.000217659 -0.000217808 -0.000217999 -0.000218233 -0.00021851 -0.000218829 -0.000219053 -0.000219046 -0.000218808 -0.000218338 -0.000217636 -0.000216703 -0.000215539 -0.000214143 -0.000212403 -0.000210206 -0.000207553 -0.000204443 -0.000200877 -0.000196854 -0.000192374 -0.000187438 -0.000182102 -0.000176422 -0.0001704 -0.000164034 -0.000157324 -0.000150271 -0.000142875 -0.000135136 -0.000127251 -0.00011942 -0.00011164 -0.000103914 -9.62397e-05 -8.86185e-05 -8.10499e-05 -7.3534e-05 -6.62389e-05 -5.93326e-05 -5.28151e-05 -4.66864e-05 -4.09465e-05 -3.55955e-05 -3.06332e-05 -2.60598e-05 -2.18877e-05 -1.81296e-05 -1.47852e-05 -1.18548e-05 -9.33827e-06 -7.2356e-06 -5.54681e-06 -4.27189e-06 -3.27067e-06 -2.40294e-06 -1.66871e-06 -1.06797e-06 -6.00735e-07 -2.66993e-07 -6.67483e-08 0 0 -2.66993e-07 -1.06797e-06 -2.40294e-06 -4.27189e-06 -6.67483e-06 -9.61176e-06 -1.30827e-05 -1.70876e-05 -2.21872e-05 -2.89424e-05 -3.73531e-05 -4.74193e-05 -5.9141e-05 -7.25182e-05 -8.7551e-05 -0.000104239 -0.000122533 -0.000142382 -0.000163786 -0.000186745 -0.00021126 -0.00023733 -0.000264956 -0.000294136 -0.0003242 -0.000354474 -0.000384959 -0.000415655 -0.000446561 -0.000477678 -0.000509006 -0.000540545 -0.000571502 -0.000601086 -0.000629297 -0.000656134 -0.000681598 -0.000705689 -0.000728407 -0.000749752 -0.000769497 -0.000787415 -0.000803507 -0.000817773 -0.000830212 -0.000840825 -0.000849611 -0.000856571 -0.000862155 -0.000866813 -0.000870545 -0.000873351 -0.000875231 -0.000876185 -0.000876213 -0.000875315 -0.000874039 -0.000872933 -0.000871998 -0.000871232 -0.000870637 -0.000870212 -0.000869956 -0.000869871 -0.000869956 -0.000870212 -0.000870637 -0.000871232 -0.000871998 -0.000872933 -0.000874039 -0.000875315 -0.000876213 -0.000876185 -0.000875231 -0.000873351 -0.000870545 -0.000866813 -0.000862155 -0.000856571 -0.000849611 -0.000840825 -0.000830212 -0.000817773 -0.000803507 -0.000787415 -0.000769497 -0.000749752 -0.000728407 -0.000705689 -0.000681598 -0.000656134 -0.000629297 -0.000601086 -0.000571502 -0.000540545 -0.000509006 -0.000477678 -0.000446561 -0.000415655 -0.000384959 -0.000354474 -0.0003242 -0.000294136 -0.000264956 -0.00023733 -0.00021126 -0.000186746 -0.000163786 -0.000142382 -0.000122533 -0.000104239 -8.7551e-05 -7.25182e-05 -5.9141e-05 -4.74193e-05 -3.73531e-05 -2.89424e-05 -2.21872e-05 -1.70876e-05 -1.30827e-05 -9.61176e-06 -6.67483e-06 -4.27189e-06 -2.40294e-06 -1.06797e-06 -2.66993e-07 0 0 -6.00735e-07 -2.40294e-06 -5.40662e-06 -9.61176e-06 -1.50184e-05 -2.16265e-05 -2.9436e-05 -3.8447e-05 -4.99213e-05 -6.51204e-05 -8.40444e-05 -0.000106693 -0.000133067 -0.000163166 -0.00019699 -0.000234538 -0.000275699 -0.000320359 -0.000368519 -0.000420177 -0.000475336 -0.000533993 -0.00059615 -0.000661806 -0.000729449 -0.000797566 -0.000866158 -0.000935223 -0.00100476 -0.00107478 -0.00114526 -0.00121623 -0.00128588 -0.00135244 -0.00141592 -0.0014763 -0.0015336 -0.0015878 -0.00163892 -0.00168694 -0.00173137 -0.00177168 -0.00180789 -0.00183999 -0.00186798 -0.00189186 -0.00191163 -0.00192729 -0.00193985 -0.00195033 -0.00195873 -0.00196504 -0.00196927 -0.00197142 -0.00197148 -0.00196946 -0.00196659 -0.0019641 -0.00196199 -0.00196027 -0.00195893 -0.00195798 -0.0019574 -0.00195721 -0.0019574 -0.00195798 -0.00195893 -0.00196027 -0.00196199 -0.0019641 -0.00196659 -0.00196946 -0.00197148 -0.00197142 -0.00196927 -0.00196504 -0.00195873 -0.00195033 -0.00193985 -0.00192729 -0.00191163 -0.00189186 -0.00186798 -0.00183999 -0.00180789 -0.00177168 -0.00173137 -0.00168694 -0.00163892 -0.0015878 -0.0015336 -0.0014763 -0.00141592 -0.00135244 -0.00128588 -0.00121623 -0.00114526 -0.00107478 -0.00100476 -0.000935223 -0.000866158 -0.000797566 -0.000729449 -0.000661806 -0.00059615 -0.000533993 -0.000475336 -0.000420177 -0.000368519 -0.000320359 -0.000275699 -0.000234538 -0.00019699 -0.000163166 -0.000133067 -0.000106693 -8.40444e-05 -6.51204e-05 -4.99213e-05 -3.8447e-05 -2.9436e-05 -2.16265e-05 -1.50184e-05 -9.61176e-06 -5.40662e-06 -2.40294e-06 -6.00735e-07 0 0 -1.06797e-06 -4.27189e-06 -9.61176e-06 -1.70876e-05 -2.66993e-05 -3.8447e-05 -5.23307e-05 -6.83503e-05 -8.87489e-05 -0.00011577 -0.000149412 -0.000189677 -0.000236564 -0.000290073 -0.000350204 -0.000416957 -0.000490132 -0.000569527 -0.000655144 -0.000746982 -0.000845041 -0.000949321 -0.00105982 -0.00117654 -0.0012968 -0.0014179 -0.00153984 -0.00166262 -0.00178624 -0.00191071 -0.00203602 -0.00216218 -0.00228601 -0.00240434 -0.00251719 -0.00262454 -0.00272639 -0.00282276 -0.00291363 -0.00299901 -0.00307799 -0.00314966 -0.00321403 -0.00327109 -0.00332085 -0.0033633 -0.00339844 -0.00342628 -0.00344862 -0.00346725 -0.00348218 -0.0034934 -0.00350092 -0.00350474 -0.00350485 -0.00350126 -0.00349616 -0.00349173 -0.00348799 -0.00348493 -0.00348255 -0.00348085 -0.00347983 -0.00347949 -0.00347983 -0.00348085 -0.00348255 -0.00348493 -0.00348799 -0.00349173 -0.00349616 -0.00350126 -0.00350485 -0.00350474 -0.00350092 -0.0034934 -0.00348218 -0.00346725 -0.00344862 -0.00342628 -0.00339844 -0.0033633 -0.00332085 -0.00327109 -0.00321403 -0.00314966 -0.00307799 -0.00299901 -0.00291363 -0.00282276 -0.00272639 -0.00262454 -0.00251719 -0.00240434 -0.00228601 -0.00216218 -0.00203602 -0.00191071 -0.00178624 -0.00166262 -0.00153984 -0.0014179 -0.0012968 -0.00117654 -0.00105982 -0.000949321 -0.000845041 -0.000746982 -0.000655144 -0.000569527 -0.000490132 -0.000416957 -0.000350204 -0.000290073 -0.000236564 -0.000189677 -0.000149412 -0.00011577 -8.87489e-05 -6.83503e-05 -5.23307e-05 -3.8447e-05 -2.66993e-05 -1.70876e-05 -9.61176e-06 -4.27189e-06 -1.06797e-06 0 0 -1.66871e-06 -6.67483e-06 -1.50184e-05 -2.66993e-05 -4.17177e-05 -6.00735e-05 -8.17667e-05 -0.000106797 -0.00013867 -0.00018089 -0.000233457 -0.00029637 -0.000369631 -0.000453239 -0.000547194 -0.000651495 -0.000765831 -0.000889886 -0.00102366 -0.00116716 -0.00132038 -0.00148331 -0.00165597 -0.00183835 -0.00202625 -0.00221546 -0.00240599 -0.00259784 -0.00279101 -0.00298549 -0.00318129 -0.0033784 -0.00357189 -0.00375679 -0.0039331 -0.00410084 -0.00425999 -0.00441056 -0.00455255 -0.00468595 -0.00480935 -0.00492134 -0.00502192 -0.00511108 -0.00518882 -0.00525515 -0.00531007 -0.00535357 -0.00538847 -0.00541758 -0.00544091 -0.00545844 -0.00547019 -0.00547616 -0.00547633 -0.00547072 -0.00546274 -0.00545583 -0.00544999 -0.0054452 -0.00544148 -0.00543882 -0.00543723 -0.0054367 -0.00543723 -0.00543882 -0.00544148 -0.0054452 -0.00544999 -0.00545583 -0.00546274 -0.00547072 -0.00547633 -0.00547616 -0.00547019 -0.00545844 -0.00544091 -0.00541758 -0.00538847 -0.00535357 -0.00531007 -0.00525515 -0.00518882 -0.00511108 -0.00502192 -0.00492134 -0.00480935 -0.00468595 -0.00455255 -0.00441056 -0.00425999 -0.00410084 -0.0039331 -0.00375679 -0.00357189 -0.0033784 -0.00318129 -0.00298549 -0.00279101 -0.00259784 -0.00240599 -0.00221546 -0.00202625 -0.00183835 -0.00165597 -0.00148331 -0.00132038 -0.00116716 -0.00102366 -0.000889886 -0.000765831 -0.000651495 -0.000547194 -0.000453239 -0.000369631 -0.00029637 -0.000233457 -0.00018089 -0.00013867 -0.000106797 -8.17667e-05 -6.00735e-05 -4.17177e-05 -2.66993e-05 -1.50184e-05 -6.67483e-06 -1.66871e-06 0 0 -2.40294e-06 -9.61176e-06 -2.16265e-05 -3.8447e-05 -6.00735e-05 -8.65058e-05 -0.000117744 -0.000153788 -0.000199685 -0.000260482 -0.000336178 -0.000426773 -0.000532269 -0.000652664 -0.000787959 -0.000938153 -0.0011028 -0.00128144 -0.00147407 -0.00168071 -0.00190134 -0.00213597 -0.0023846 -0.00264723 -0.0029178 -0.00319027 -0.00346463 -0.00374089 -0.00401905 -0.0042991 -0.00458105 -0.0048649 -0.00514352 -0.00540977 -0.00566367 -0.00590521 -0.00613439 -0.00635121 -0.00655567 -0.00674777 -0.00692547 -0.00708674 -0.00723156 -0.00735995 -0.00747191 -0.00756742 -0.0076465 -0.00770914 -0.0077594 -0.00780132 -0.0078349 -0.00786016 -0.00787708 -0.00788566 -0.00788592 -0.00787784 -0.00786635 -0.0078564 -0.00784798 -0.00784109 -0.00783573 -0.0078319 -0.00782961 -0.00782884 -0.00782961 -0.0078319 -0.00783573 -0.00784109 -0.00784798 -0.0078564 -0.00786635 -0.00787784 -0.00788592 -0.00788566 -0.00787708 -0.00786016 -0.0078349 -0.00780132 -0.0077594 -0.00770914 -0.0076465 -0.00756742 -0.00747191 -0.00735995 -0.00723156 -0.00708674 -0.00692547 -0.00674777 -0.00655567 -0.00635121 -0.00613439 -0.00590521 -0.00566367 -0.00540977 -0.00514352 -0.0048649 -0.00458105 -0.0042991 -0.00401905 -0.00374089 -0.00346463 -0.00319027 -0.0029178 -0.00264723 -0.0023846 -0.00213597 -0.00190134 -0.00168071 -0.00147407 -0.00128144 -0.0011028 -0.000938153 -0.000787959 -0.000652664 -0.000532269 -0.000426774 -0.000336178 -0.000260482 -0.000199685 -0.000153788 -0.000117744 -8.65058e-05 -6.00735e-05 -3.8447e-05 -2.16265e-05 -9.61176e-06 -2.40294e-06 0 0 -3.27067e-06 -1.30827e-05 -2.9436e-05 -5.23307e-05 -8.17667e-05 -0.000117744 -0.000160263 -0.000209323 -0.000271794 -0.000354544 -0.000457575 -0.000580886 -0.000724477 -0.000888348 -0.0010725 -0.00127693 -0.00150103 -0.00174418 -0.00200638 -0.00228763 -0.00258794 -0.0029073 -0.00324571 -0.00360317 -0.00397145 -0.00434231 -0.00471575 -0.00509177 -0.00547037 -0.00585156 -0.00623532 -0.00662167 -0.0070009 -0.0073633 -0.00770888 -0.00803764 -0.00834958 -0.0086447 -0.00892299 -0.00918446 -0.00942633 -0.00964583 -0.00984296 -0.0100177 -0.0101701 -0.0103001 -0.0104077 -0.010493 -0.0105614 -0.0106185 -0.0106642 -0.0106985 -0.0107216 -0.0107333 -0.0107336 -0.0107226 -0.010707 -0.0106934 -0.010682 -0.0106726 -0.0106653 -0.0106601 -0.010657 -0.0106559 -0.010657 -0.0106601 -0.0106653 -0.0106726 -0.010682 -0.0106934 -0.010707 -0.0107226 -0.0107336 -0.0107333 -0.0107216 -0.0106985 -0.0106642 -0.0106185 -0.0105614 -0.010493 -0.0104077 -0.0103001 -0.0101701 -0.0100177 -0.00984296 -0.00964583 -0.00942633 -0.00918446 -0.00892299 -0.0086447 -0.00834958 -0.00803764 -0.00770888 -0.0073633 -0.0070009 -0.00662167 -0.00623532 -0.00585156 -0.00547037 -0.00509177 -0.00471575 -0.00434231 -0.00397145 -0.00360317 -0.00324571 -0.0029073 -0.00258794 -0.00228763 -0.00200638 -0.00174418 -0.00150103 -0.00127693 -0.0010725 -0.000888348 -0.000724477 -0.000580886 -0.000457575 -0.000354544 -0.000271794 -0.000209323 -0.000160263 -0.000117744 -8.17667e-05 -5.23307e-05 -2.9436e-05 -1.30827e-05 -3.27067e-06 0 0 -4.27189e-06 -1.70876e-05 -3.8447e-05 -6.83503e-05 -0.000106797 -0.000153788 -0.000209323 -0.000273401 -0.000354996 -0.000463078 -0.000597649 -0.000758708 -0.000946256 -0.00116029 -0.00140082 -0.00166783 -0.00196053 -0.00227811 -0.00262058 -0.00298793 -0.00338016 -0.00379728 -0.00423929 -0.00470618 -0.0051872 -0.00567158 -0.00615934 -0.00665047 -0.00714498 -0.00764285 -0.0081441 -0.00864871 -0.00914403 -0.00961737 -0.0100687 -0.0104981 -0.0109056 -0.011291 -0.0116545 -0.011996 -0.0123119 -0.0125986 -0.0128561 -0.0130844 -0.0132834 -0.0134532 -0.0135938 -0.0137051 -0.0137945 -0.013869 -0.0139287 -0.0139736 -0.0140037 -0.014019 -0.0140194 -0.014005 -0.0139846 -0.0139669 -0.013952 -0.0139397 -0.0139302 -0.0139234 -0.0139193 -0.0139179 -0.0139193 -0.0139234 -0.0139302 -0.0139397 -0.013952 -0.0139669 -0.0139846 -0.014005 -0.0140194 -0.014019 -0.0140037 -0.0139736 -0.0139287 -0.013869 -0.0137945 -0.0137051 -0.0135938 -0.0134532 -0.0132834 -0.0130844 -0.0128561 -0.0125986 -0.0123119 -0.011996 -0.0116545 -0.011291 -0.0109056 -0.0104981 -0.0100687 -0.00961737 -0.00914403 -0.00864871 -0.0081441 -0.00764285 -0.00714498 -0.00665047 -0.00615934 -0.00567158 -0.0051872 -0.00470618 -0.00423929 -0.00379728 -0.00338016 -0.00298793 -0.00262058 -0.00227811 -0.00196053 -0.00166783 -0.00140082 -0.00116029 -0.000946256 -0.000758708 -0.000597649 -0.000463078 -0.000354996 -0.000273401 -0.000209323 -0.000153788 -0.000106797 -6.83503e-05 -3.8447e-05 -1.70876e-05 -4.27189e-06 0 0 -5.4895e-06 -2.1958e-05 -4.94055e-05 -8.7832e-05 -0.000137238 -0.000197622 -0.000268986 -0.000351328 -0.000455562 -0.000592601 -0.000762445 -0.000965093 -0.00120055 -0.0014688 -0.00176987 -0.00210373 -0.00246925 -0.00286526 -0.00329177 -0.00374877 -0.00423627 -0.00475427 -0.00530276 -0.00588174 -0.00647764 -0.00707684 -0.00767937 -0.00828521 -0.00889437 -0.00950684 -0.0101226 -0.0107417 -0.0113484 -0.0119267 -0.0124769 -0.0129987 -0.0134924 -0.0139577 -0.0143948 -0.0148037 -0.0151801 -0.0155198 -0.0158229 -0.0160893 -0.0163191 -0.0165122 -0.0166687 -0.0167885 -0.0168811 -0.0169561 -0.0170134 -0.017053 -0.017075 -0.0170793 -0.0170659 -0.0170349 -0.0169975 -0.0169651 -0.0169377 -0.0169152 -0.0168978 -0.0168853 -0.0168778 -0.0168754 -0.0168778 -0.0168853 -0.0168978 -0.0169152 -0.0169377 -0.0169651 -0.0169975 -0.0170349 -0.0170659 -0.0170793 -0.017075 -0.017053 -0.0170134 -0.0169561 -0.0168811 -0.0167885 -0.0166687 -0.0165122 -0.0163191 -0.0160893 -0.0158229 -0.0155198 -0.0151801 -0.0148037 -0.0143948 -0.0139577 -0.0134924 -0.0129987 -0.0124769 -0.0119267 -0.0113484 -0.0107417 -0.0101226 -0.00950684 -0.00889437 -0.00828521 -0.00767937 -0.00707685 -0.00647764 -0.00588174 -0.00530276 -0.00475427 -0.00423627 -0.00374877 -0.00329177 -0.00286526 -0.00246925 -0.00210373 -0.00176987 -0.0014688 -0.00120055 -0.000965093 -0.000762445 -0.000592601 -0.000455562 -0.000351328 -0.000268986 -0.000197622 -0.000137238 -8.7832e-05 -4.94055e-05 -2.1958e-05 -5.4895e-06 0 0 -7.00638e-06 -2.80255e-05 -6.30574e-05 -0.000112102 -0.000175159 -0.00025223 -0.000343312 -0.000448408 -0.000579765 -0.000749632 -0.000958008 -0.00120489 -0.00149029 -0.00181419 -0.00217661 -0.00257753 -0.00301516 -0.00348767 -0.00399506 -0.00453735 -0.00511452 -0.00572658 -0.00637352 -0.00705535 -0.00775536 -0.00845684 -0.00915978 -0.00986418 -0.01057 -0.0112774 -0.0119862 -0.0126964 -0.0133894 -0.0140462 -0.0146669 -0.0152515 -0.0157999 -0.0163123 -0.0167885 -0.0172286 -0.0176285 -0.017984 -0.0182952 -0.0185621 -0.0187845 -0.0189627 -0.0190965 -0.0191859 -0.0192438 -0.0192828 -0.019303 -0.0193044 -0.019287 -0.0192508 -0.0191957 -0.0191218 -0.0190437 -0.0189761 -0.0189188 -0.0188719 -0.0188355 -0.0188095 -0.0187938 -0.0187886 -0.0187938 -0.0188095 -0.0188355 -0.0188719 -0.0189188 -0.0189761 -0.0190437 -0.0191218 -0.0191957 -0.0192508 -0.019287 -0.0193044 -0.019303 -0.0192828 -0.0192438 -0.0191859 -0.0190965 -0.0189627 -0.0187845 -0.0185621 -0.0182952 -0.017984 -0.0176285 -0.0172286 -0.0167885 -0.0163123 -0.0157999 -0.0152515 -0.0146669 -0.0140462 -0.0133894 -0.0126964 -0.0119862 -0.0112774 -0.01057 -0.00986418 -0.00915978 -0.00845684 -0.00775536 -0.00705536 -0.00637352 -0.00572658 -0.00511452 -0.00453735 -0.00399506 -0.00348767 -0.00301516 -0.00257753 -0.00217661 -0.00181419 -0.00149029 -0.00120489 -0.000958008 -0.000749631 -0.000579765 -0.000448408 -0.000343312 -0.00025223 -0.000175159 -0.000112102 -6.30574e-05 -2.80255e-05 -7.00638e-06 0 0 -8.82252e-06 -3.52901e-05 -7.94027e-05 -0.00014116 -0.000220563 -0.000317611 -0.000432304 -0.000564641 -0.000727603 -0.000934169 -0.00118434 -0.00147811 -0.00181548 -0.00219646 -0.00262104 -0.00308923 -0.00359824 -0.00414532 -0.00473045 -0.00535365 -0.0060149 -0.00671421 -0.00745158 -0.00822701 -0.00902038 -0.00981156 -0.0106006 -0.0113874 -0.012172 -0.0129545 -0.0137347 -0.0145128 -0.015267 -0.0159757 -0.0166388 -0.0172563 -0.0178283 -0.0183547 -0.0188356 -0.0192709 -0.0196572 -0.0199913 -0.0202731 -0.0205025 -0.0206797 -0.0208046 -0.0208772 -0.0208975 -0.0208825 -0.0208492 -0.0207977 -0.0207279 -0.0206398 -0.0205334 -0.0204088 -0.0202659 -0.0201234 -0.0199998 -0.0198953 -0.0198098 -0.0197433 -0.0196958 -0.0196673 -0.0196578 -0.0196673 -0.0196958 -0.0197433 -0.0198098 -0.0198953 -0.0199998 -0.0201234 -0.0202659 -0.0204088 -0.0205334 -0.0206398 -0.0207279 -0.0207977 -0.0208492 -0.0208825 -0.0208975 -0.0208772 -0.0208046 -0.0206797 -0.0205025 -0.0202731 -0.0199913 -0.0196572 -0.0192709 -0.0188356 -0.0183547 -0.0178283 -0.0172563 -0.0166388 -0.0159757 -0.015267 -0.0145128 -0.0137347 -0.0129545 -0.012172 -0.0113874 -0.0106006 -0.00981156 -0.00902038 -0.00822701 -0.00745158 -0.00671421 -0.0060149 -0.00535365 -0.00473045 -0.00414532 -0.00359825 -0.00308923 -0.00262104 -0.00219646 -0.00181548 -0.00147811 -0.00118434 -0.000934169 -0.000727603 -0.000564641 -0.000432303 -0.000317611 -0.000220563 -0.00014116 -7.94027e-05 -3.52901e-05 -8.82252e-06 0 0 -1.09379e-05 -4.37517e-05 -9.84414e-05 -0.000175007 -0.000273448 -0.000393766 -0.000535959 -0.000700028 -0.000899078 -0.00114621 -0.00144143 -0.00178474 -0.00217613 -0.00261561 -0.00310317 -0.00363882 -0.00421852 -0.00483823 -0.00549794 -0.00619767 -0.00693742 -0.00771717 -0.00853693 -0.00939671 -0.0102727 -0.011141 -0.0120017 -0.0128548 -0.0137003 -0.0145381 -0.0153683 -0.0161909 -0.0169814 -0.0177153 -0.0183926 -0.0190133 -0.0195774 -0.020085 -0.020536 -0.0209304 -0.0212662 -0.0215416 -0.0217564 -0.0219108 -0.0220046 -0.0220379 -0.0220108 -0.0219231 -0.0217972 -0.0216552 -0.0214973 -0.0213233 -0.0211333 -0.0209272 -0.0207052 -0.0204671 -0.0202364 -0.0200365 -0.0198673 -0.0197289 -0.0196212 -0.0195443 -0.0194982 -0.0194828 -0.0194982 -0.0195443 -0.0196212 -0.0197289 -0.0198673 -0.0200365 -0.0202364 -0.0204671 -0.0207052 -0.0209272 -0.0211333 -0.0213233 -0.0214973 -0.0216552 -0.0217972 -0.0219231 -0.0220108 -0.0220379 -0.0220046 -0.0219108 -0.0217564 -0.0215416 -0.0212662 -0.0209304 -0.020536 -0.020085 -0.0195774 -0.0190133 -0.0183926 -0.0177153 -0.0169814 -0.0161909 -0.0153683 -0.0145381 -0.0137003 -0.0128548 -0.0120017 -0.011141 -0.0102727 -0.00939671 -0.00853693 -0.00771717 -0.00693742 -0.00619767 -0.00549794 -0.00483823 -0.00421852 -0.00363882 -0.00310317 -0.00261561 -0.00217613 -0.00178474 -0.00144143 -0.00114621 -0.000899077 -0.000700028 -0.000535959 -0.000393766 -0.000273448 -0.000175007 -9.84414e-05 -4.37517e-05 -1.09379e-05 0 0 -1.33526e-05 -5.34105e-05 -0.000120174 -0.000213642 -0.000333815 -0.000480694 -0.000654278 -0.000854567 -0.00109419 -0.00138576 -0.0017293 -0.00212479 -0.00257223 -0.00307163 -0.00362299 -0.00422631 -0.00487597 -0.00556638 -0.00629753 -0.00706943 -0.00788207 -0.00873545 -0.00962958 -0.0105644 -0.0115123 -0.0124452 -0.0133633 -0.0142665 -0.0151548 -0.0160283 -0.0168869 -0.0177307 -0.0185324 -0.0192649 -0.0199282 -0.0205224 -0.0210474 -0.0215032 -0.0218898 -0.0222072 -0.0224555 -0.0226349 -0.0227453 -0.0227867 -0.0227592 -0.0226627 -0.0224973 -0.0222629 -0.0219879 -0.0217009 -0.0214019 -0.0210907 -0.0207675 -0.0204322 -0.0200849 -0.0197255 -0.0193828 -0.0190859 -0.0188347 -0.0186291 -0.0184692 -0.018355 -0.0182865 -0.0182636 -0.0182865 -0.018355 -0.0184692 -0.0186291 -0.0188347 -0.0190859 -0.0193828 -0.0197255 -0.0200849 -0.0204322 -0.0207675 -0.0210907 -0.0214019 -0.0217009 -0.0219879 -0.0222629 -0.0224973 -0.0226627 -0.0227592 -0.0227867 -0.0227453 -0.0226349 -0.0224555 -0.0222072 -0.0218898 -0.0215032 -0.0210474 -0.0205224 -0.0199282 -0.0192649 -0.0185324 -0.0177307 -0.0168869 -0.0160283 -0.0151548 -0.0142665 -0.0133633 -0.0124452 -0.0115123 -0.0105644 -0.00962958 -0.00873545 -0.00788207 -0.00706943 -0.00629753 -0.00556638 -0.00487597 -0.00422631 -0.00362299 -0.00307163 -0.00257223 -0.00212479 -0.0017293 -0.00138576 -0.00109419 -0.000854567 -0.000654278 -0.000480694 -0.000333815 -0.000213642 -0.000120174 -5.34104e-05 -1.33526e-05 0 0 -1.60666e-05 -6.42663e-05 -0.000144599 -0.000257065 -0.000401664 -0.000578396 -0.000787262 -0.00102826 -0.00131293 -0.00165282 -0.00204793 -0.00249825 -0.00300378 -0.00356454 -0.00418051 -0.00485169 -0.00557061 -0.00632979 -0.00712922 -0.00796891 -0.00884886 -0.00976906 -0.0107295 -0.0117302 -0.0127391 -0.0137241 -0.0146852 -0.0156224 -0.0165357 -0.017425 -0.0182905 -0.0191321 -0.01992 -0.0206246 -0.0212458 -0.0217836 -0.0222381 -0.0226092 -0.0228969 -0.0231013 -0.0232251 -0.0232713 -0.0232397 -0.0231305 -0.0229436 -0.022679 -0.0223367 -0.0219167 -0.0214547 -0.0209863 -0.0205114 -0.0200302 -0.0195425 -0.0190484 -0.0185479 -0.0180409 -0.0175627 -0.0171482 -0.0167975 -0.0165105 -0.0162873 -0.0161279 -0.0160323 -0.0160004 -0.0160323 -0.0161279 -0.0162873 -0.0165105 -0.0167975 -0.0171482 -0.0175627 -0.0180409 -0.0185479 -0.0190484 -0.0195425 -0.0200302 -0.0205114 -0.0209863 -0.0214547 -0.0219167 -0.0223367 -0.022679 -0.0229436 -0.0231305 -0.0232397 -0.0232713 -0.0232251 -0.0231013 -0.0228969 -0.0226092 -0.0222381 -0.0217836 -0.0212458 -0.0206246 -0.01992 -0.0191321 -0.0182905 -0.017425 -0.0165357 -0.0156224 -0.0146852 -0.0137241 -0.0127391 -0.0117302 -0.0107295 -0.00976906 -0.00884886 -0.00796891 -0.00712922 -0.00632979 -0.00557061 -0.00485169 -0.00418051 -0.00356454 -0.00300378 -0.00249825 -0.00204793 -0.00165282 -0.00131293 -0.00102826 -0.000787261 -0.000578396 -0.000401664 -0.000257065 -0.000144599 -6.42662e-05 -1.60666e-05 0 0 -1.90798e-05 -7.63191e-05 -0.000171718 -0.000305277 -0.000476995 -0.000686872 -0.000934909 -0.00122111 -0.00155531 -0.00194739 -0.00239732 -0.00290513 -0.00347079 -0.00409432 -0.00477571 -0.00551497 -0.00630243 -0.00712845 -0.00799301 -0.00889612 -0.00983778 -0.010818 -0.0118368 -0.0128941 -0.0139533 -0.0149778 -0.0159675 -0.0169225 -0.0178428 -0.0187283 -0.0195791 -0.0203952 -0.0211444 -0.0217944 -0.0223452 -0.022797 -0.0231496 -0.0234031 -0.0235574 -0.0236127 -0.023575 -0.0234506 -0.0232396 -0.022942 -0.0225577 -0.0220867 -0.021529 -0.0208847 -0.0201975 -0.0195113 -0.018826 -0.0181416 -0.0174582 -0.0167757 -0.0160942 -0.0154135 -0.0147759 -0.0142233 -0.0137557 -0.0133731 -0.0130755 -0.012863 -0.0127355 -0.012693 -0.0127355 -0.012863 -0.0130755 -0.0133731 -0.0137557 -0.0142233 -0.0147759 -0.0154135 -0.0160942 -0.0167757 -0.0174582 -0.0181416 -0.018826 -0.0195113 -0.0201975 -0.0208847 -0.021529 -0.0220867 -0.0225577 -0.022942 -0.0232396 -0.0234507 -0.023575 -0.0236127 -0.0235574 -0.0234031 -0.0231496 -0.022797 -0.0223452 -0.0217944 -0.0211444 -0.0203952 -0.0195791 -0.0187283 -0.0178428 -0.0169225 -0.0159675 -0.0149778 -0.0139533 -0.0128941 -0.0118368 -0.010818 -0.00983778 -0.00889612 -0.00799301 -0.00712845 -0.00630243 -0.00551497 -0.00477571 -0.00409432 -0.00347079 -0.00290512 -0.00239732 -0.00194739 -0.00155531 -0.00122111 -0.000934909 -0.000686872 -0.000476994 -0.000305276 -0.000171718 -7.63191e-05 -1.90798e-05 0 0 -2.23923e-05 -8.95691e-05 -0.00020153 -0.000358276 -0.000559807 -0.000806122 -0.00109722 -0.00143311 -0.00182133 -0.00226946 -0.00277749 -0.00334542 -0.00397325 -0.00466098 -0.00540861 -0.00621614 -0.00707144 -0.00796236 -0.0088889 -0.00985106 -0.0108488 -0.0118823 -0.0129513 -0.0140559 -0.0151547 -0.0162061 -0.0172102 -0.0181669 -0.0190762 -0.0199382 -0.0207528 -0.02152 -0.0222054 -0.0227742 -0.0232266 -0.0235625 -0.0237819 -0.0238849 -0.0238713 -0.0237413 -0.0235052 -0.0231731 -0.0227451 -0.0222212 -0.0216015 -0.0208858 -0.0200742 -0.0191668 -0.0182164 -0.0172759 -0.0163455 -0.0154251 -0.0145146 -0.0136142 -0.0127237 -0.0118433 -0.0110225 -0.0103112 -0.00970932 -0.00921687 -0.00883386 -0.00856027 -0.00839612 -0.00834141 -0.00839612 -0.00856027 -0.00883386 -0.00921687 -0.00970932 -0.0103112 -0.0110225 -0.0118433 -0.0127237 -0.0136142 -0.0145146 -0.0154251 -0.0163455 -0.0172759 -0.0182164 -0.0191668 -0.0200742 -0.0208858 -0.0216015 -0.0222212 -0.0227451 -0.0231731 -0.0235052 -0.0237413 -0.0238713 -0.0238849 -0.0237819 -0.0235625 -0.0232266 -0.0227742 -0.0222054 -0.02152 -0.0207528 -0.0199382 -0.0190762 -0.0181669 -0.0172102 -0.0162061 -0.0151547 -0.0140559 -0.0129513 -0.0118823 -0.0108488 -0.00985106 -0.0088889 -0.00796236 -0.00707144 -0.00621614 -0.00540861 -0.00466098 -0.00397325 -0.00334542 -0.00277749 -0.00226946 -0.00182133 -0.0014331 -0.00109722 -0.000806121 -0.000559806 -0.000358276 -0.00020153 -8.9569e-05 -2.23923e-05 0 0 -2.60092e-05 -0.000104037 -0.000234083 -0.000416147 -0.00065023 -0.000936332 -0.00127445 -0.00166459 -0.00211133 -0.00261926 -0.00318838 -0.00381868 -0.00451017 -0.00526285 -0.00607671 -0.00695177 -0.00787299 -0.00882539 -0.00980895 -0.0108237 -0.0118696 -0.0129466 -0.0140548 -0.0151942 -0.016318 -0.0173796 -0.018379 -0.0193161 -0.020191 -0.0210036 -0.021754 -0.0224422 -0.0230313 -0.0234846 -0.0238021 -0.0239839 -0.0240298 -0.02394 -0.0237143 -0.0233529 -0.0228708 -0.0222833 -0.0215904 -0.020792 -0.0198882 -0.0188789 -0.0177642 -0.0165441 -0.0152818 -0.0140408 -0.012821 -0.0116224 -0.0104451 -0.00928896 -0.00815406 -0.00704039 -0.00600628 -0.00511004 -0.00435169 -0.00373122 -0.00324863 -0.00290392 -0.0026971 -0.00262816 -0.0026971 -0.00290392 -0.00324863 -0.00373122 -0.00435169 -0.00511004 -0.00600628 -0.00704039 -0.00815406 -0.00928896 -0.0104451 -0.0116224 -0.012821 -0.0140408 -0.0152818 -0.0165441 -0.0177642 -0.0188789 -0.0198882 -0.020792 -0.0215904 -0.0222833 -0.0228708 -0.0233529 -0.0237143 -0.02394 -0.0240298 -0.0239839 -0.0238021 -0.0234846 -0.0230313 -0.0224422 -0.021754 -0.0210036 -0.020191 -0.0193161 -0.018379 -0.0173797 -0.0163181 -0.0151942 -0.0140548 -0.0129466 -0.0118696 -0.0108237 -0.00980895 -0.00882539 -0.00787299 -0.00695176 -0.00607671 -0.00526285 -0.00451017 -0.00381868 -0.00318837 -0.00261926 -0.00211133 -0.00166459 -0.00127445 -0.000936331 -0.00065023 -0.000416147 -0.000234083 -0.000104037 -2.60092e-05 0 0 -2.99358e-05 -0.000119743 -0.000269422 -0.000478973 -0.000748395 -0.00107769 -0.00146685 -0.00191589 -0.00242566 -0.00299701 -0.00362994 -0.00432446 -0.00508057 -0.00589825 -0.00677753 -0.00771839 -0.00870247 -0.00971142 -0.0107452 -0.0118039 -0.0128874 -0.0139958 -0.0151291 -0.0162872 -0.0174179 -0.0184687 -0.0194397 -0.0203308 -0.0211422 -0.0218737 -0.0225254 -0.0230972 -0.0235504 -0.0238461 -0.0239843 -0.023965 -0.0237882 -0.0234539 -0.0229621 -0.0223128 -0.0215271 -0.0206261 -0.0196097 -0.018478 -0.0172309 -0.0158685 -0.0143908 -0.0127977 -0.0111645 -0.00956642 -0.00800344 -0.00647557 -0.0049828 -0.00352515 -0.00210261 -0.000715172 0.000569091 0.00168212 0.00262391 0.00339447 0.00399379 0.00442188 0.00467873 0.00476435 0.00467873 0.00442188 0.00399379 0.00339447 0.00262391 0.00168212 0.000569091 -0.000715172 -0.00210261 -0.00352515 -0.0049828 -0.00647557 -0.00800344 -0.00956642 -0.0111645 -0.0127977 -0.0143908 -0.0158685 -0.0172309 -0.018478 -0.0196097 -0.0206261 -0.0215271 -0.0223128 -0.0229621 -0.0234539 -0.0237882 -0.023965 -0.0239843 -0.0238461 -0.0235504 -0.0230972 -0.0225254 -0.0218737 -0.0211422 -0.0203308 -0.0194397 -0.0184687 -0.0174179 -0.0162872 -0.0151291 -0.0139958 -0.0128874 -0.0118039 -0.0107452 -0.00971142 -0.00870247 -0.00771839 -0.00677753 -0.00589825 -0.00508056 -0.00432446 -0.00362994 -0.002997 -0.00242566 -0.00191589 -0.00146685 -0.00107769 -0.000748395 -0.000478973 -0.000269422 -0.000119743 -2.99358e-05 0 0 -3.4172e-05 -0.000136688 -0.000307548 -0.000546753 -0.000854301 -0.00123019 -0.00167443 -0.00218701 -0.00276431 -0.0034027 -0.00410219 -0.00486277 -0.00568444 -0.0065672 -0.00751106 -0.00851601 -0.00955987 -0.0106204 -0.0116977 -0.0127917 -0.0139025 -0.0150299 -0.0161741 -0.017335 -0.0184542 -0.0194732 -0.0203922 -0.021211 -0.0219298 -0.0225484 -0.0230669 -0.0234852 -0.0237628 -0.0238587 -0.0237731 -0.0235059 -0.0230571 -0.0224267 -0.0216148 -0.0206213 -0.0194741 -0.0182014 -0.0168031 -0.0152792 -0.0136298 -0.0118547 -0.00995397 -0.00792768 -0.00586442 -0.0038528 -0.00189282 1.55112e-05 0.0018722 0.00367724 0.00543064 0.00713239 0.00870358 0.0100653 0.0112175 0.0121602 0.0128934 0.0134171 0.0137314 0.0138361 0.0137314 0.0134171 0.0128934 0.0121602 0.0112175 0.0100653 0.00870358 0.00713239 0.00543064 0.00367724 0.0018722 1.55113e-05 -0.00189282 -0.0038528 -0.00586442 -0.00792768 -0.00995397 -0.0118547 -0.0136298 -0.0152792 -0.0168031 -0.0182014 -0.0194741 -0.0206213 -0.0216148 -0.0224267 -0.0230571 -0.0235059 -0.0237731 -0.0238587 -0.0237628 -0.0234852 -0.0230669 -0.0225484 -0.0219298 -0.021211 -0.0203922 -0.0194733 -0.0184542 -0.017335 -0.0161741 -0.0150299 -0.0139025 -0.0127917 -0.0116977 -0.0106204 -0.00955986 -0.00851601 -0.00751106 -0.0065672 -0.00568443 -0.00486276 -0.00410218 -0.0034027 -0.00276431 -0.00218701 -0.00167443 -0.00123019 -0.0008543 -0.000546752 -0.000307548 -0.000136688 -3.4172e-05 0 0 -3.87179e-05 -0.000154872 -0.000348461 -0.000619487 -0.000967948 -0.00139385 -0.00189718 -0.00247795 -0.00312729 -0.00383634 -0.00460511 -0.00543359 -0.00632178 -0.00726969 -0.0082773 -0.00934463 -0.0104452 -0.0115525 -0.0126665 -0.0137872 -0.0149147 -0.0160489 -0.0171898 -0.0183375 -0.019427 -0.0203933 -0.0212366 -0.0219567 -0.0225538 -0.0230277 -0.0233785 -0.0236062 -0.0236683 -0.0235224 -0.0231684 -0.0226064 -0.0218364 -0.0208583 -0.0196722 -0.0182781 -0.0167118 -0.0150093 -0.0131707 -0.0111957 -0.00908463 -0.0068373 -0.00445375 -0.001934 0.00061845 0.00310007 0.00551085 0.0078508 0.0101199 0.0123182 0.0144457 0.0165023 0.0183972 0.0200394 0.021429 0.0225659 0.0234502 0.0240818 0.0244608 0.0245872 0.0244608 0.0240818 0.0234502 0.0225659 0.021429 0.0200394 0.0183972 0.0165023 0.0144457 0.0123182 0.0101199 0.0078508 0.00551085 0.00310007 0.00061845 -0.001934 -0.00445375 -0.0068373 -0.00908463 -0.0111957 -0.0131707 -0.0150093 -0.0167118 -0.0182781 -0.0196722 -0.0208583 -0.0218364 -0.0226064 -0.0231684 -0.