<?xml version="1.0"?> 
<VTKFile type="StructuredGrid" version="0.1"> 
<StructuredGrid WholeExtent="0 128 0 128 0 0"> 
<Piece Extent="0 128 0 128 0 0"> 
<PointData>
<DataArray type="Float32" Name="u" format="ascii" NumberOfComponents="1"> 
0 0 0 0 0 0 0 0 0 0 0 0 0 0 0 0 0 0 0 0 0 0 0 0 0 0 0 0 0 0 0 0 0 0 0 0 0 0 0 0 0 0 0 0 0 0 0 0 0 0 0 0 0 0 0 0 0 0 0 0 0 0 0 0 0 0 0 0 0 0 0 0 0 0 0 0 0 0 0 0 0 0 0 0 0 0 0 0 0 0 0 0 0 0 0 0 0 0 0 0 0 0 0 0 0 0 0 0 0 0 0 0 0 0 0 0 0 0 0 0 0 0 0 0 0 0 0 0 0 0 1.23926e-05 4.95703e-05 0.000111533 0.000198281 0.000309815 0.000446133 0.000607237 0.000793125 0.000990616 0.00118653 0.00138085 0.0015736 0.00176477 0.00195435 0.00214236 0.00232878 0.00251276 0.00269343 0.0028708 0.00304485 0.0032156 0.00338304 0.00354718 0.003708 0.00386413 0.00401418 0.00415815 0.00429603 0.00442783 0.00455354 0.00467317 0.00478672 0.00489426 0.00499586 0.00509152 0.00518124 0.00526502 0.00534286 0.00541477 0.00548073 0.00554161 0.00559827 0.0056507 0.00569891 0.0057429 0.00578265 0.00581819 0.0058495 0.00587751 0.00590314 0.0059264 0.00594729 0.0059658 0.00598194 0.0059957 0.00600709 0.00601666 0.00602494 0.00603196 0.0060377 0.00604216 0.00604535 0.00604726 0.0060479 0.00604726 0.00604535 0.00604216 0.0060377 0.00603196 0.00602495 0.00601666 0.0060071 0.00599571 0.00598195 0.00596581 0.0059473 0.00592642 0.00590316 0.00587752 0.00584951 0.00581821 0.00578267 0.00574292 0.00569894 0.00565073 0.0055983 0.00554164 0.00548076 0.0054148 0.0053429 0.00526506 0.00518128 0.00509157 0.00499591 0.00489431 0.00478678 0.00467323 0.00455361 0.00442789 0.0042961 0.00415822 0.00401426 0.00386422 0.00370809 0.00354727 0.00338314 0.0032157 0.00304496 0.0028709 0.00269354 0.00251287 0.0023289 0.00214248 0.00195447 0.00176488 0.00157371 0.00138096 0.00118662 0.000990695 0.000793189 0.000607286 0.000446169 0.00030984 0.000198297 0.000111542 4.95743e-05 1.23936e-05 0 0 4.95703e-05 0.000198281 0.000446133 0.000793125 0.00123926 0.00178453 0.00242895 0.0031725 0.00396247 0.0047461 0.00552342 0.00629441 0.00705907 0.00781742 0.00856943 0.00931512 0.010051 0.0107737 0.0114832 0.0121794 0.0128624 0.0135322 0.0141887 0.014832 0.0154565 0.0160567 0.0166326 0.0171841 0.0177113 0.0182142 0.0186927 0.0191469 0.019577 0.0199834 0.0203661 0.020725 0.0210601 0.0213715 0.0216591 0.0219229 0.0221665 0.0223931 0.0226028 0.0227956 0.0229716 0.0231306 0.0232728 0.023398 0.02351 0.0236126 0.0237056 0.0237892 0.0238632 0.0239278 0.0239828 0.0240284 0.0240666 0.0240998 0.0241278 0.0241508 0.0241686 0.0241814 0.024189 0.0241916 0.024189 0.0241814 0.0241686 0.0241508 0.0241278 0.0240998 0.0240666 0.0240284 0.0239828 0.0239278 0.0238632 0.0237892 0.0237057 0.0236126 0.0235101 0.0233981 0.0232728 0.0231307 0.0229717 0.0227957 0.0226029 0.0223932 0.0221666 0.0219231 0.0216592 0.0213716 0.0210602 0.0207251 0.0203663 0.0199836 0.0195773 0.0191471 0.0186929 0.0182144 0.0177116 0.0171844 0.0166329 0.016057 0.0154569 0.0148324 0.0141891 0.0135326 0.0128628 0.0121798 0.0114836 0.0107742 0.0100515 0.00931559 0.00856991 0.00781789 0.00705953 0.00629484 0.00552382 0.00474647 0.00396278 0.00317276 0.00242914 0.00178468 0.00123936 0.000793189 0.000446169 0.000198297 4.95743e-05 0 0 0.000111533 0.000446133 0.0010038 0.00178453 0.00278833 0.0040152 0.00546513 0.00713813 0.00891555 0.0106787 0.0124277 0.0141624 0.0158829 0.0175892 0.0192812 0.020959 0.0226148 0.0242409 0.0258372 0.0274037 0.0289404 0.0304474 0.0319246 0.033372 0.0347772 0.0361276 0.0374233 0.0386642 0.0398504 0.0409819 0.0420586 0.0430805 0.0440483 0.0449627 0.0458237 0.0466312 0.0473852 0.0480858 0.0487329 0.0493266 0.0498745 0.0503844 0.0508563 0.0512902 0.0516861 0.0520439 0.0523637 0.0526455 0.0528976 0.0531283 0.0533376 0.0535256 0.0536922 0.0538375 0.0539613 0.0540638 0.0541499 0.0542245 0.0542876 0.0543393 0.0543794 0.0544081 0.0544253 0.0544311 0.0544254 0.0544081 0.0543795 0.0543393 0.0542877 0.0542245 0.0541499 0.0540639 0.0539614 0.0538375 0.0536923 0.0535257 0.0533377 0.0531284 0.0528977 0.0526456 0.0523639 0.0520441 0.0516863 0.0512904 0.0508566 0.0503847 0.0498748 0.0493269 0.0487332 0.0480861 0.0473856 0.0466316 0.0458241 0.0449632 0.0440488 0.043081 0.0420591 0.0409825 0.0398511 0.0386649 0.037424 0.0361284 0.034778 0.0333728 0.0319254 0.0304482 0.0289413 0.0274046 0.0258381 0.0242419 0.0226159 0.0209601 0.0192823 0.0175902 0.0158839 0.0141634 0.0124286 0.0106796 0.00891626 0.0071387 0.00546557 0.00401552 0.00278856 0.00178468 0.00100388 0.000446169 0.000111542 0 0 0.000198281 0.000793125 0.00178453 0.0031725 0.00495703 0.00713813 0.00971579 0.01269 0.0158499 0.0189844 0.0220937 0.0251776 0.0282363 0.0312697 0.0342777 0.0372605 0.0402042 0.0430949 0.0459327 0.0487176 0.0514496 0.0541287 0.0567548 0.059328 0.0618261 0.0642269 0.0665303 0.0687364 0.0708452 0.0728567 0.0747708 0.0765876 0.0783082 0.0799337 0.0814643 0.0828998 0.0842403 0.0854858 0.0866363 0.0876917 0.0886658 0.0895723 0.0904113 0.0911826 0.0918863 0.0925225 0.093091 0.093592 0.0940401 0.0944503 0.0948225 0.0951567 0.0954528 0.095711 0.0959313 0.0961135 0.0962665 0.0963991 0.0965113 0.0966031 0.0966746 0.0967256 0.0967562 0.0967664 0.0967562 0.0967256 0.0966746 0.0966032 0.0965114 0.0963992 0.0962666 0.0961136 0.0959314 0.0957112 0.095453 0.0951568 0.0948227 0.0944505 0.0940404 0.0935922 0.0930913 0.0925228 0.0918867 0.091183 0.0904117 0.0895728 0.0886663 0.0876922 0.0866368 0.0854864 0.084241 0.0829005 0.0814651 0.0799346 0.078309 0.0765885 0.0747718 0.0728577 0.0708463 0.0687376 0.0665316 0.0642282 0.0618275 0.0593295 0.0567563 0.0541302 0.0514512 0.0487193 0.0459344 0.0430967 0.040206 0.0372624 0.0342796 0.0312715 0.0282381 0.0251794 0.0220953 0.0189859 0.0158511 0.012691 0.00971657 0.0071387 0.00495743 0.00317276 0.00178468 0.000793189 0.000198297 0 0 0.000309815 0.00123926 0.00278833 0.00495703 0.00774537 0.0111533 0.0151809 0.0198281 0.0247654 0.0296631 0.0345214 0.0393401 0.0441192 0.0488588 0.053559 0.0582195 0.062819 0.0673358 0.0717699 0.0761213 0.08039 0.084576 0.0886794 0.0927001 0.0966033 0.100355 0.103954 0.107401 0.110696 0.113839 0.116829 0.119668 0.122357 0.124896 0.127288 0.129531 0.131626 0.133572 0.135369 0.137018 0.13854 0.139957 0.141268 0.142473 0.143572 0.144566 0.145455 0.146237 0.146938 0.147579 0.14816 0.148682 0.149145 0.149549 0.149893 0.150177 0.150416 0.150624 0.150799 0.150942 0.151054 0.151134 0.151182 0.151197 0.151182 0.151134 0.151054 0.150942 0.150799 0.150624 0.150417 0.150177 0.149893 0.149549 0.149145 0.148683 0.14816 0.147579 0.146938 0.146238 0.145455 0.144567 0.143573 0.142473 0.141268 0.139957 0.138541 0.137019 0.13537 0.133573 0.131627 0.129532 0.127289 0.124898 0.122358 0.11967 0.116831 0.11384 0.110697 0.107403 0.103956 0.100357 0.0966054 0.0927023 0.0886817 0.0845785 0.0803925 0.0761239 0.0717726 0.0673386 0.0628218 0.0582224 0.0535619 0.0488618 0.0441221 0.0393428 0.0345239 0.0296654 0.0247674 0.0198297 0.0151821 0.0111542 0.00774599 0.00495743 0.00278856 0.00123936 0.00030984 0 0 0.000446133 0.00178453 0.0040152 0.00713813 0.0111533 0.0160608 0.0218605 0.0285525 0.0356622 0.0427149 0.0497108 0.0566497 0.0635317 0.0703567 0.0771249 0.0838361 0.0904594 0.0969635 0.103349 0.109615 0.115762 0.12179 0.127698 0.133488 0.139109 0.144511 0.149693 0.154657 0.159402 0.163927 0.168234 0.172322 0.176193 0.179851 0.183295 0.186525 0.189541 0.192343 0.194932 0.197306 0.199498 0.201538 0.203425 0.205161 0.206744 0.208176 0.209455 0.210582 0.21159 0.212513 0.213351 0.214102 0.214769 0.21535 0.215845 0.216255 0.2166 0.216898 0.21715 0.217357 0.217518 0.217633 0.217701 0.217724 0.217701 0.217633 0.217518 0.217357 0.217151 0.216898 0.2166 0.216256 0.215846 0.21535 0.214769 0.214103 0.213351 0.212514 0.211591 0.210583 0.209455 0.208176 0.206745 0.205162 0.203426 0.201539 0.199499 0.197307 0.194933 0.192344 0.189542 0.186526 0.183296 0.179853 0.176195 0.172324 0.168236 0.16393 0.159404 0.15466 0.149696 0.144513 0.139112 0.133491 0.127702 0.121793 0.115765 0.109618 0.103352 0.0969675 0.0904635 0.0838403 0.0771291 0.070361 0.0635358 0.0566536 0.0497144 0.0427182 0.035665 0.0285548 0.0218623 0.0160621 0.0111542 0.0071387 0.00401552 0.00178468 0.000446169 0 0 0.000607237 0.00242895 0.00546513 0.00971579 0.0151809 0.0218605 0.0297546 0.0388631 0.0485402 0.0581398 0.0676619 0.0771065 0.0864737 0.0957633 0.104976 0.11411 0.123125 0.131978 0.140669 0.149198 0.157564 0.165769 0.173812 0.181692 0.189343 0.196695 0.203749 0.210505 0.216963 0.223124 0.228985 0.234549 0.239819 0.244797 0.249484 0.253881 0.257986 0.2618 0.265324 0.268556 0.271539 0.274315 0.276884 0.279247 0.281402 0.28335 0.285091 0.286625 0.287998 0.289254 0.290394 0.291417 0.292324 0.293115 0.293789 0.294348 0.294816 0.295222 0.295566 0.295847 0.296066 0.296222 0.296316 0.296347 0.296316 0.296222 0.296066 0.295847 0.295566 0.295222 0.294816 0.294348 0.29379 0.293115 0.292325 0.291418 0.290394 0.289255 0.287999 0.286626 0.285092 0.283351 0.281403 0.279248 0.276886 0.274317 0.271541 0.268557 0.265325 0.261802 0.257988 0.253883 0.249487 0.2448 0.239821 0.234552 0.228989 0.223127 0.216967 0.210509 0.203753 0.196699 0.189347 0.181696 0.173816 0.165774 0.157569 0.149203 0.140674 0.131984 0.123131 0.114116 0.104981 0.0957691 0.0864793 0.0771119 0.0676668 0.0581442 0.0485441 0.0388663 0.029757 0.0218623 0.0151821 0.00971657 0.00546557 0.00242914 0.000607286 0 0 0.000793125 0.0031725 0.00713813 0.01269 0.0198281 0.0285525 0.0388631 0.05076 0.0633994 0.0759377 0.0883747 0.100711 0.112945 0.125079 0.137111 0.149042 0.160817 0.17238 0.183731 0.194871 0.205798 0.216515 0.227019 0.237312 0.247305 0.256908 0.266121 0.274946 0.283381 0.291427 0.299083 0.30635 0.313233 0.319735 0.325857 0.331599 0.336961 0.341943 0.346545 0.350767 0.354663 0.358289 0.361645 0.36473 0.367545 0.37009 0.372364 0.374368 0.376161 0.377801 0.37929 0.380627 0.381811 0.382844 0.383725 0.384454 0.385066 0.385596 0.386045 0.386413 0.386698 0.386902 0.387025 0.387065 0.387025 0.386902 0.386698 0.386413 0.386046 0.385597 0.385066 0.384454 0.383725 0.382845 0.381812 0.380627 0.379291 0.377802 0.376161 0.374369 0.372365 0.370091 0.367547 0.364732 0.361647 0.358291 0.354665 0.350769 0.346547 0.341946 0.336964 0.331602 0.32586 0.319738 0.313236 0.306354 0.299087 0.291431 0.283385 0.27495 0.266126 0.256913 0.24731 0.237318 0.227025 0.216521 0.205805 0.194877 0.183738 0.172387 0.160824 0.149049 0.137118 0.125086 0.112953 0.100718 0.0883812 0.0759435 0.0634045 0.0507641 0.0388663 0.0285548 0.0198297 0.012691 0.0071387 0.00317276 0.000793189 0 0 0.000990612 0.00396245 0.00891551 0.0158498 0.0247653 0.035662 0.04854 0.0633992 0.0791853 0.0948441 0.110375 0.125779 0.141056 0.156206 0.171228 0.186122 0.20082 0.215254 0.229422 0.243325 0.256962 0.270335 0.283442 0.296284 0.308751 0.32073 0.332224 0.34323 0.35375 0.363784 0.373331 0.382391 0.390971 0.399077 0.406708 0.413865 0.420547 0.426754 0.432488 0.437747 0.4426 0.447115 0.451294 0.455136 0.458641 0.461808 0.464639 0.467132 0.469362 0.471403 0.473255 0.474917 0.476391 0.477675 0.47877 0.479676 0.480436 0.481095 0.481653 0.482109 0.482464 0.482718 0.48287 0.482921 0.48287 0.482718 0.482465 0.48211 0.481653 0.481096 0.480437 0.479676 0.478771 0.477676 0.476392 0.474918 0.473256 0.471404 0.469363 0.467133 0.46464 0.46181 0.458642 0.455138 0.451296 0.447118 0.442602 0.437749 0.432491 0.426757 0.42055 0.413868 0.406712 0.399081 0.390976 0.382396 0.373336 0.363789 0.353756 0.343236 0.33223 0.320737 0.308757 0.296291 0.28345 0.270342 0.25697 0.243333 0.22943 0.215262 0.20083 0.186131 0.171237 0.156215 0.141065 0.125788 0.110384 0.0948513 0.0791916 0.0634043 0.0485439 0.0356649 0.0247673 0.0158511 0.00891623 0.00396277 0.000990692 0 0 0.00118651 0.00474604 0.0106786 0.0189841 0.0296627 0.0427143 0.058139 0.0759366 0.0948431 0.113594 0.13219 0.150631 0.168917 0.187047 0.205022 0.222842 0.240424 0.257686 0.274629 0.291252 0.307555 0.323538 0.339201 0.354545 0.369437 0.383745 0.39747 0.410611 0.423169 0.435143 0.446533 0.45734 0.467571 0.477235 0.486332 0.494861 0.502822 0.510216 0.517043 0.523302 0.529077 0.534449 0.53942 0.543988 0.548154 0.551918 0.55528 0.55824 0.560886 0.563308 0.565505 0.567477 0.569223 0.570745 0.572042 0.573115 0.574014 0.574794 0.575454 0.575994 0.576414 0.576714 0.576894 0.576954 0.576894 0.576714 0.576414 0.575994 0.575454 0.574795 0.574015 0.573115 0.572043 0.570746 0.569224 0.567477 0.565506 0.563309 0.560888 0.558242 0.555282 0.55192 0.548156 0.54399 0.539422 0.534452 0.52908 0.523305 0.517046 0.51022 0.502826 0.494865 0.486336 0.47724 0.467577 0.457346 0.446539 0.435149 0.423175 0.410618 0.397477 0.383753 0.369445 0.354553 0.33921 0.323547 0.307564 0.291261 0.274639 0.257697 0.240434 0.222853 0.205033 0.187058 0.168927 0.150641 0.1322 0.113603 0.0948506 0.0759426 0.0581436 0.0427177 0.0296651 0.0189857 0.0106794 0.00474641 0.0011866 0 0 0.00138082 0.00552327 0.0124274 0.0220931 0.0345204 0.0497094 0.06766 0.0883723 0.110373 0.132189 0.153819 0.175265 0.196526 0.217603 0.238494 0.2592 0.279626 0.299677 0.319352 0.338651 0.357575 0.376124 0.394297 0.412094 0.429363 0.445952 0.46186 0.477088 0.491636 0.505503 0.51869 0.531196 0.543033 0.55421 0.564729 0.574588 0.583788 0.592329 0.600211 0.607434 0.614095 0.620291 0.626021 0.631286 0.636085 0.64042 0.644289 0.647692 0.650734 0.653516 0.65604 0.658304 0.660309 0.662055 0.663542 0.66477 0.6658 0.666693 0.667448 0.668066 0.668547 0.66889 0.669096 0.669165 0.669096 0.66889 0.668547 0.668066 0.667449 0.666693 0.665801 0.664771 0.663543 0.662056 0.66031 0.658305 0.656041 0.653518 0.650735 0.647694 0.64429 0.640422 0.636088 0.631288 0.626024 0.620294 0.614098 0.607438 0.600215 0.592333 0.583793 0.574593 0.564734 0.554216 0.543039 0.531203 0.518697 0.50551 0.491644 0.477096 0.461869 0.445961 0.429372 0.412103 0.394307 0.376134 0.357586 0.338663 0.319364 0.299689 0.279639 0.259213 0.238507 0.217615 0.196539 0.175277 0.15383 0.132199 0.110381 0.0883792 0.0676654 0.0497133 0.0345231 0.0220948 0.0124283 0.0055237 0.00138093 0 0 0.00157354 0.00629414 0.0141618 0.0251766 0.0393384 0.0566473 0.0771032 0.100706 0.125775 0.150627 0.175263 0.199682 0.223886 0.247873 0.271644 0.295198 0.318428 0.341226 0.363591 0.385524 0.407024 0.428092 0.448728 0.468931 0.488529 0.507351 0.525395 0.542662 0.559152 0.574865 0.589801 0.60396 0.617355 0.630002 0.641898 0.653046 0.663444 0.673093 0.681992 0.690142 0.697654 0.70464 0.711098 0.71703 0.722435 0.727313 0.731664 0.735489 0.738904 0.742027 0.744859 0.7474 0.749648 0.751605 0.75327 0.754643 0.755794 0.756791 0.757635 0.758326 0.758863 0.759246 0.759477 0.759553 0.759477 0.759247 0.758863 0.758326 0.757636 0.756792 0.755795 0.754644 0.753271 0.751606 0.749649 0.747401 0.744861 0.742029 0.738906 0.735491 0.731666 0.727315 0.722437 0.717033 0.711101 0.704643 0.697658 0.690146 0.681997 0.673098 0.663449 0.653051 0.641904 0.630008 0.617362 0.603967 0.589808 0.574873 0.55916 0.542671 0.525404 0.507361 0.48854 0.468942 0.448739 0.428104 0.407037 0.385537 0.363604 0.341239 0.318442 0.295212 0.271658 0.247887 0.2239 0.199696 0.175275 0.150638 0.125784 0.100714 0.0771092 0.0566517 0.0393414 0.0251785 0.0141629 0.00629463 0.00157366 0 0 0.00176466 0.00705866 0.015882 0.0282346 0.0441166 0.0635279 0.0864686 0.112939 0.141048 0.168909 0.19652 0.223882 0.250994 0.277857 0.304471 0.330835 0.356829 0.382333 0.407347 0.43187 0.455902 0.479444 0.502496 0.525057 0.546936 0.567941 0.588073 0.607332 0.625717 0.643228 0.659866 0.675631 0.690539 0.704609 0.717841 0.730235 0.74179 0.752507 0.762386 0.771426 0.779755 0.787496 0.794651 0.80122 0.807202 0.812597 0.817406 0.821629 0.825397 0.828842 0.831964 0.834764 0.83724 0.839394 0.841225 0.842733 0.843995 0.84509 0.846015 0.846773 0.847362 0.847783 0.848036 0.84812 0.848036 0.847783 0.847362 0.846773 0.846016 0.84509 0.843996 0.842734 0.841226 0.839395 0.837241 0.834765 0.831966 0.828844 0.825399 0.821631 0.817409 0.8126 0.807205 0.801223 0.794655 0.7875 0.779759 0.771431 0.762391 0.752512 0.741796 0.730241 0.717848 0.704616 0.690546 0.675638 0.659874 0.643237 0.625726 0.607342 0.588084 0.567952 0.546947 0.525069 0.502508 0.479457 0.455916 0.431884 0.407361 0.382348 0.356845 0.330851 0.304487 0.277873 0.25101 0.223897 0.196534 0.168921 0.141059 0.112947 0.0864751 0.0635328 0.04412 0.0282368 0.0158832 0.0070592 0.0017648 0 0 0.0019542 0.00781682 0.0175878 0.0312673 0.0488551 0.0703514 0.095756 0.125069 0.156194 0.187035 0.217592 0.247864 0.277852 0.307556 0.336976 0.366112 0.39483 0.422999 0.450618 0.477688 0.504208 0.530179 0.555599 0.580471 0.604582 0.627724 0.649896 0.671098 0.69133 0.710593 0.728886 0.746209 0.762584 0.778033 0.792557 0.806155 0.818826 0.830572 0.841392 0.851287 0.860396 0.86886 0.87668 0.883856 0.890387 0.896274 0.901516 0.906114 0.910213 0.913959 0.917354 0.920396 0.923085 0.925422 0.927407 0.929039 0.930405 0.931588 0.932589 0.933408 0.934045 0.9345 0.934773 0.934864 0.934773 0.9345 0.934045 0.933408 0.932589 0.931588 0.930405 0.92904 0.927408 0.925424 0.923087 0.920397 0.917356 0.913961 0.910215 0.906116 0.901518 0.896277 0.89039 0.883859 0.876684 0.868864 0.8604 0.851292 0.841398 0.830578 0.818832 0.806161 0.792564 0.778041 0.762592 0.746217 0.728895 0.710603 0.691341 0.671109 0.649907 0.627736 0.604595 0.580484 0.555613 0.530193 0.504223 0.477703 0.450634 0.423015 0.394847 0.366129 0.336993 0.307574 0.277869 0.24788 0.217607 0.187048 0.156206 0.125078 0.0957632 0.0703566 0.0488588 0.0312696 0.0175892 0.0078174 0.00195435 0 0 0.00214215 0.00856862 0.0192794 0.0342745 0.0535539 0.0771176 0.104966 0.137098 0.171212 0.205005 0.238478 0.271629 0.30446 0.33697 0.369159 0.401027 0.43243 0.463223 0.493406 0.522979 0.551943 0.580296 0.608039 0.635173 0.661469 0.686698 0.710862 0.73396 0.755993 0.776959 0.79686 0.815695 0.83349 0.850274 0.866046 0.880805 0.894553 0.907288 0.919012 0.929723 0.939578 0.948732 0.957186 0.964938 0.97199 0.978342 0.983992 0.988942 0.993351 0.99738 1.00103 1.0043 1.00718 1.00969 1.01182 1.01356 1.01502 1.01629 1.01736 1.01823 1.01891 1.0194 1.01969 1.01979 1.01969 1.0194 1.01891 1.01823 1.01736 1.01629 1.01502 1.01356 1.01182 1.00969 1.00719 1.0043 1.00103 0.997382 0.993354 0.988945 0.983995 0.978345 0.971994 0.964942 0.95719 0.948737 0.939583 0.929728 0.919017 0.907294 0.894559 0.880812 0.866053 0.850282 0.833499 0.815704 0.79687 0.77697 0.756004 0.733972 0.710874 0.686711 0.661482 0.635187 0.608054 0.580311 0.551959 0.522996 0.493423 0.463241 0.432448 0.401046 0.369178 0.336988 0.304478 0.271646 0.238494 0.205019 0.171224 0.137108 0.104973 0.0771232 0.0535578 0.034277 0.0192808 0.00856925 0.00214231 0 0 0.00232852 0.00931406 0.0209566 0.0372562 0.0582129 0.0838265 0.114097 0.149025 0.186102 0.222819 0.259178 0.295177 0.330817 0.366098 0.40102 0.435582 0.46963 0.503006 0.53571 0.567744 0.599106 0.629796 0.659816 0.689164 0.717595 0.744865 0.770973 0.795919 0.819704 0.842327 0.863788 0.884088 0.903258 0.921331 0.938308 0.954187 0.96897 0.982655 0.995244 1.00674 1.0173 1.02711 1.03617 1.04447 1.05201 1.0588 1.06484 1.07011 1.07481 1.0791 1.08299 1.08647 1.08954 1.0922 1.09445 1.0963 1.09785 1.09918 1.10031 1.10124 1.10196 1.10247 1.10278 1.10289 1.10278 1.10247 1.10196 1.10124 1.10032 1.09918 1.09785 1.0963 1.09446 1.0922 1.08954 1.08647 1.08299 1.07911 1.07482 1.07012 1.06484 1.0588 1.05202 1.04447 1.03617 1.02712 1.01731 1.00674 0.99525 0.982662 0.968976 0.954194 0.938316 0.92134 0.903267 0.884097 0.863798 0.842338 0.819716 0.795932 0.770986 0.744878 0.717609 0.689179 0.659831 0.629813 0.599123 0.567761 0.535728 0.503024 0.469649 0.435602 0.401039 0.366117 0.330836 0.295195 0.259194 0.222834 0.186115 0.149036 0.114105 0.0838326 0.0582171 0.0372589 0.0209581 0.00931473 0.00232868 0 0 0.00251242 0.0100497 0.0226118 0.0401988 0.0628106 0.0904472 0.123109 0.160795 0.200794 0.240395 0.279596 0.318399 0.356802 0.394807 0.432413 0.46962 0.506261 0.542167 0.57734 0.611779 0.645484 0.678455 0.710693 0.742196 0.772704 0.801955 0.829948 0.856685 0.882164 0.906386 0.929351 0.951059 0.971548 0.990857 1.00899 1.02594 1.0417 1.05629 1.0697 1.08193 1.09316 1.10359 1.11321 1.12202 1.13003 1.13722 1.14361 1.14919 1.15416 1.15869 1.16279 1.16645 1.16969 1.17249 1.17486 1.1768 1.17842 1.17982 1.181 1.18197 1.18273 1.18327 1.18359 1.1837 1.18359 1.18327 1.18273 1.18197 1.181 1.17982 1.17842 1.1768 1.17486 1.17249 1.16969 1.16645 1.16279 1.15869 1.15416 1.1492 1.14362 1.13723 1.13003 1.12203 1.11322 1.1036 1.09317 1.08194 1.06971 1.0563 1.04171 1.02594 1.00899 0.990866 0.971558 0.951069 0.929362 0.906398 0.882176 0.856698 0.829962 0.801969 0.772719 0.742212 0.710709 0.678473 0.645502 0.611798 0.577359 0.542187 0.506281 0.469641 0.432434 0.394828 0.356823 0.318418 0.279614 0.240411 0.200808 0.160806 0.123117 0.0904535 0.062815 0.0402016 0.0226134 0.0100504 0.0025126 0 0 0.00269301 0.010772 0.0242371 0.0430882 0.0673253 0.0969484 0.131958 0.172353 0.215221 0.257649 0.299638 0.341187 0.382296 0.422965 0.463195 0.502985 0.542156 0.580529 0.618105 0.654884 0.690865 0.726049 0.760435 0.794024 0.826538 0.857699 0.887509 0.915967 0.943073 0.968827 0.993229 1.01628 1.03802 1.0585 1.07773 1.09568 1.11238 1.12782 1.142 1.15491 1.16677 1.17777 1.18791 1.19719 1.20561 1.21318 1.21989 1.22574 1.23094 1.23568 1.23997 1.24381 1.24718 1.25011 1.25258 1.2546 1.25627 1.25773 1.25896 1.25996 1.26075 1.2613 1.26164 1.26175 1.26164 1.2613 1.26075 1.25996 1.25896 1.25773 1.25627 1.2546 1.25258 1.25011 1.24719 1.24381 1.23997 1.23569 1.23094 1.22575 1.21989 1.21318 1.20562 1.19719 1.18791 1.17777 1.16677 1.15492 1.142 1.12783 1.11239 1.09569 1.07773 1.05851 1.03803 1.01629 0.993241 0.968839 0.943086 0.915981 0.887524 0.857715 0.826553 0.79404 0.760452 0.726067 0.690884 0.654903 0.618125 0.58055 0.542177 0.503006 0.463217 0.422987 0.382317 0.341207 0.299657 0.257666 0.215236 0.172365 0.131967 0.096955 0.0673299 0.0430911 0.0242388 0.0107728 0.0026932 0 0 0.00287028 0.0114811 0.0258325 0.0459245 0.071757 0.10333 0.140644 0.183698 0.229382 0.274583 0.319303 0.363541 0.407298 0.450572 0.493365 0.535676 0.577315 0.618091 0.658006 0.697058 0.735249 0.772577 0.809043 0.844646 0.879096 0.912099 0.943656 0.973767 1.00243 1.02965 1.05542 1.07975 1.10268 1.12427 1.14452 1.16344 1.18101 1.19724 1.21213 1.22568 1.23811 1.24963 1.26025 1.26996 1.27877 1.28667 1.29367 1.29976 1.30517 1.31009 1.31455 1.31853 1.32203 1.32506 1.32761 1.32969 1.33141 1.33291 1.33417 1.33521 1.33601 1.33659 1.33694 1.33705 1.33694 1.33659 1.33602 1.33521 1.33417 1.33291 1.33141 1.32969 1.32761 1.32506 1.32203 1.31853 1.31455 1.3101 1.30517 1.29977 1.29367 1.28668 1.27877 1.26997 1.26025 1.24964 1.23811 1.22569 1.21214 1.19725 1.18102 1.16345 1.14453 1.12428 1.10269 1.07976 1.05543 1.02966 1.00245 0.973781 0.943671 0.912115 0.879112 0.844664 0.809061 0.772596 0.735268 0.697079 0.658027 0.618113 0.577337 0.535698 0.493388 0.450595 0.40732 0.363562 0.319323 0.274601 0.229397 0.18371 0.140653 0.103337 0.0717618 0.0459276 0.0258343 0.0114819 0.00287047 0 0 0.00304423 0.0121769 0.0273981 0.0487077 0.0761058 0.109592 0.149167 0.194831 0.243276 0.291196 0.338592 0.385462 0.431807 0.477628 0.522923 0.567694 0.611738 0.654854 0.697042 0.738302 0.778635 0.818039 0.856516 0.894064 0.930379 0.965154 0.998389 1.03008 1.06024 1.08885 1.11593 1.14147 1.16552 1.18816 1.20939 1.22919 1.24758 1.26455 1.2801 1.29424 1.30719 1.31919 1.33024 1.34035 1.3495 1.3577 1.36495 1.37125 1.37683 1.38192 1.38651 1.39061 1.39422 1.39733 1.39995 1.40208 1.40384 1.40537 1.40666 1.40771 1.40854 1.40912 1.40948 1.40959 1.40948 1.40912 1.40854 1.40771 1.40666 1.40537 1.40384 1.40208 1.39995 1.39733 1.39422 1.39061 1.38652 1.38192 1.37684 1.37126 1.36496 1.3577 1.3495 1.34035 1.33025 1.3192 1.3072 1.29424 1.28011 1.26456 1.24759 1.2292 1.20939 1.18817 1.16553 1.14148 1.11594 1.08887 1.06025 1.0301 0.998404 0.96517 0.930396 0.894082 0.856534 0.818059 0.778655 0.738323 0.697064 0.654876 0.61176 0.567717 0.522947 0.477651 0.43183 0.385484 0.338612 0.291215 0.243292 0.194844 0.149177 0.1096 0.0761108 0.0487109 0.0273999 0.0121777 0.00304443 0 0 0.00321487 0.0128595 0.0289338 0.0514379 0.0803717 0.115735 0.157529 0.205752 0.256905 0.307489 0.357503 0.406949 0.455825 0.504132 0.55187 0.599038 0.645425 0.690816 0.735213 0.778616 0.821023 0.862436 0.902854 0.942277 0.980387 1.01686 1.05171 1.08492 1.1165 1.14644 1.17475 1.20143 1.22655 1.25017 1.27231 1.29295 1.31209 1.32975 1.34591 1.36058 1.37401 1.38645 1.39789 1.40834 1.4178 1.42626 1.43373 1.44021 1.44594 1.45116 1.45587 1.46007 1.46376 1.46693 1.4696 1.47176 1.47355 1.4751 1.4764 1.47748 1.47831 1.4789 1.47926 1.47938 1.47926 1.4789 1.47831 1.47748 1.47641 1.4751 1.47355 1.47176 1.46961 1.46694 1.46376 1.46007 1.45587 1.45116 1.44594 1.44022 1.43374 1.42627 1.4178 1.40834 1.39789 1.38645 1.37402 1.36059 1.34592 1.32976 1.3121 1.29295 1.27232 1.25018 1.22656 1.20144 1.17477 1.14645 1.11651 1.08493 1.05172 1.01688 0.980404 0.942296 0.902873 0.862456 0.821044 0.778637 0.735236 0.690839 0.645448 0.599062 0.551894 0.504156 0.455849 0.406971 0.357524 0.307507 0.256921 0.205765 0.157538 0.115743 0.0803768 0.0514411 0.0289356 0.0128603 0.00321507 0 0 0.00338218 0.0135287 0.0304396 0.0541149 0.0845546 0.121759 0.165727 0.21646 0.270267 0.32346 0.376038 0.428002 0.479351 0.530085 0.580205 0.629709 0.678376 0.725979 0.77252 0.817998 0.862414 0.905767 0.948058 0.989285 1.02912 1.06723 1.10361 1.13827 1.1712 1.20241 1.23189 1.25965 1.28576 1.31031 1.33329 1.3547 1.37455 1.39284 1.40956 1.42471 1.43857 1.45139 1.46318 1.47394 1.48367 1.49236 1.50002 1.50664 1.51249 1.51781 1.52261 1.52689 1.53064 1.53387 1.53657 1.53875 1.54054 1.5421 1.54342 1.54449 1.54533 1.54593 1.54629 1.54641 1.54629 1.54593 1.54533 1.5445 1.54342 1.5421 1.54054 1.53875 1.53657 1.53387 1.53064 1.52689 1.52262 1.51782 1.51249 1.50665 1.50002 1.49236 1.48367 1.47395 1.46319 1.4514 1.43858 1.42472 1.40957 1.39285 1.37456 1.35471 1.3333 1.31032 1.28577 1.25966 1.2319 1.20242 1.17122 1.13828 1.10363 1.06725 1.02914 0.989304 0.948077 0.905788 0.862435 0.818021 0.772543 0.726003 0.6784 0.629734 0.580229 0.53011 0.479375 0.428025 0.37606 0.323479 0.270284 0.216473 0.165737 0.121766 0.0845598 0.0541183 0.0304415 0.0135296 0.00338239 0 0 0.00354618 0.0141847 0.0319156 0.0567389 0.0886545 0.127663 0.173763 0.226956 0.283364 0.339111 0.394197 0.448621 0.502385 0.555487 0.607928 0.659707 0.710591 0.760342 0.808962 0.856451 0.902808 0.948033 0.992127 1.03509 1.07658 1.11625 1.1541 1.19014 1.22436 1.25676 1.28734 1.31611 1.34315 1.36856 1.39233 1.41446 1.43496 1.45382 1.47105 1.48663 1.50087 1.51404 1.52613 1.53715 1.54711 1.55599 1.5638 1.57054 1.57648 1.58188 1.58675 1.59108 1.59487 1.59812 1.60084 1.60303 1.60482 1.60638 1.60769 1.60877 1.60961 1.61021 1.61057 1.61069 1.61057 1.61021 1.60961 1.60877 1.60769 1.60638 1.60482 1.60303 1.60085 1.59813 1.59487 1.59108 1.58675 1.58189 1.57648 1.57055 1.56381 1.55599 1.54711 1.53716 1.52614 1.51404 1.50088 1.48664 1.47105 1.45383 1.43497 1.41447 1.39234 1.36857 1.34317 1.31613 1.28736 1.25677 1.22437 1.19015 1.15412 1.11626 1.0766 1.03511 0.992147 0.948054 0.902829 0.856473 0.808985 0.760366 0.710615 0.659732 0.607953 0.555512 0.502409 0.448644 0.394218 0.33913 0.28338 0.226969 0.173773 0.12767 0.0886598 0.0567423 0.0319175 0.0141856 0.00354639 0 0 0.00370686 0.0148274 0.0333617 0.0593098 0.0926715 0.133447 0.181636 0.237239 0.296194 0.354441 0.411978 0.468807 0.524926 0.580337 0.635039 0.689032 0.742069 0.793906 0.84454 0.893973 0.942204 0.989233 1.03506 1.07969 1.12276 1.16392 1.20318 1.24052 1.27596 1.30949 1.34111 1.37083 1.39873 1.42493 1.44943 1.47222 1.49331 1.51269 1.53037 1.54634 1.56091 1.57437 1.58673 1.59797 1.60812 1.61716 1.62509 1.63191 1.63791 1.64337 1.64827 1.65263 1.65645 1.65971 1.66243 1.6646 1.66639 1.66793 1.66924 1.6703 1.67114 1.67173 1.67209 1.6722 1.67209 1.67173 1.67114 1.67031 1.66924 1.66793 1.66639 1.66461 1.66243 1.65971 1.65645 1.65263 1.64827 1.64337 1.63792 1.63192 1.62509 1.61716 1.60812 1.59798 1.58673 1.57438 1.56092 1.54635 1.53038 1.5127 1.49332 1.47223 1.44944 1.42495 1.39874 1.37084 1.34113 1.30951 1.27598 1.24054 1.20319 1.16394 1.12278 1.07971 1.03508 0.989255 0.942226 0.893995 0.844563 0.79393 0.742094 0.689057 0.635064 0.580362 0.524951 0.46883 0.412 0.35446 0.296211 0.237253 0.181647 0.133455 0.0926768 0.0593132 0.0333637 0.0148283 0.00370707 0 0 0.00386283 0.0154513 0.0347655 0.0618053 0.0965708 0.139062 0.189279 0.247221 0.308648 0.369318 0.42923 0.488386 0.546785 0.604426 0.66131 0.717438 0.772551 0.826392 0.878961 0.930258 0.980283 1.02904 1.07652 1.12273 1.1673 1.20988 1.25046 1.28904 1.32562 1.36021 1.39279 1.42338 1.45209 1.47902 1.50419 1.52758 1.5492 1.56905 1.58712 1.60343 1.61828 1.632 1.64457 1.65601 1.6663 1.67546 1.68348 1.69036 1.6964 1.70188 1.70681 1.71118 1.71499 1.71825 1.72096 1.72311 1.72486 1.72639 1.72768 1.72873 1.72955 1.73013 1.73049 1.7306 1.73049 1.73013 1.72955 1.72873 1.72768 1.72639 1.72487 1.72311 1.72096 1.71825 1.71499 1.71118 1.70681 1.70188 1.6964 1.69037 1.68349 1.67547 1.66631 1.65601 1.64458 1.632 1.61829 1.60344 1.58713 1.56905 1.54921 1.52759 1.5042 1.47903 1.4521 1.4234 1.39281 1.36022 1.32564 1.28906 1.25048 1.2099 1.16732 1.12275 1.07654 1.02906 0.980305 0.930281 0.878984 0.826416 0.772576 0.717463 0.661336 0.604451 0.546809 0.48841 0.429252 0.369337 0.308665 0.247235 0.189289 0.13907 0.0965762 0.0618087 0.0347674 0.0154522 0.00386305 0 0 0.00401271 0.0160508 0.0361144 0.0642034 0.100318 0.144458 0.196623 0.256813 0.320614 0.38361 0.445801 0.507187 0.567768 0.627543 0.686514 0.74468 0.801772 0.857523 0.911933 0.965001 1.01673 1.06711 1.11616 1.16386 1.20985 1.25375 1.29557 1.3353 1.37295 1.40851 1.44199 1.47338 1.50282 1.53042 1.55618 1.58011 1.60221 1.62247 1.6409 1.65749 1.67259 1.68651 1.69926 1.71085 1.72127 1.73052 1.7386 1.74551 1.75156 1.75704 1.76197 1.76633 1.77013 1.77337 1.77605 1.77817 1.77989 1.78138 1.78264 1.78368 1.78448 1.78506 1.7854 1.78552 1.7854 1.78506 1.78448 1.78368 1.78265 1.78138 1.77989 1.77817 1.77605 1.77337 1.77013 1.76633 1.76197 1.75704 1.75156 1.74551 1.7386 1.73052 1.72127 1.71086 1.69927 1.68651 1.67259 1.6575 1.64091 1.62248 1.60222 1.