<?xml version="1.0"?> 
<VTKFile type="StructuredGrid" version="0.1"> 
<StructuredGrid WholeExtent="0 128 0 128 0 0"> 
<Piece Extent="0 128 0 128 0 0"> 
<PointData>
<DataArray type="Float32" Name="u" format="ascii" NumberOfComponents="1"> 
0 0 0 0 0 0 0 0 0 0 0 0 0 0 0 0 0 0 0 0 0 0 0 0 0 0 0 0 0 0 0 0 0 0 0 0 0 0 0 0 0 0 0 0 0 0 0 0 0 0 0 0 0 0 0 0 0 0 0 0 0 0 0 0 0 0 0 0 0 0 0 0 0 0 0 0 0 0 0 0 0 0 0 0 0 0 0 0 0 0 0 0 0 0 0 0 0 0 0 0 0 0 0 0 0 0 0 0 0 0 0 0 0 0 0 0 0 0 0 0 0 0 0 0 0 0 0 0 0 0 1.24486e-05 4.97943e-05 0.000112037 0.000199177 0.000311215 0.000448149 0.000609981 0.00079671 0.000995082 0.00119184 0.001387 0.00158054 0.00177247 0.00196279 0.0021515 0.0023386 0.00252322 0.00270449 0.00288242 0.003057 0.00322823 0.00339611 0.00356064 0.00372183 0.00387828 0.0040286 0.0041728 0.00431087 0.00444281 0.00456862 0.00468831 0.00480187 0.00490939 0.00501094 0.00510652 0.00519614 0.00527979 0.00535747 0.00542919 0.00549495 0.0055556 0.00561203 0.00566423 0.0057122 0.00575594 0.00579545 0.00583073 0.00586178 0.00588954 0.00591493 0.00593796 0.00595863 0.00597694 0.00599288 0.00600647 0.00601769 0.0060271 0.00603526 0.00604216 0.0060478 0.0060522 0.00605533 0.00605722 0.00605784 0.00605722 0.00605534 0.0060522 0.00604781 0.00604216 0.00603526 0.0060271 0.00601769 0.00600647 0.00599289 0.00597695 0.00595864 0.00593798 0.00591495 0.00588955 0.0058618 0.00583075 0.00579547 0.00575596 0.00571222 0.00566425 0.00561206 0.00555563 0.00549498 0.00542923 0.00535751 0.00527983 0.00519618 0.00510657 0.00501099 0.00490944 0.00480193 0.00468837 0.00456869 0.00444288 0.00431094 0.00417288 0.00402869 0.00387837 0.00372192 0.00356074 0.00339621 0.00322833 0.0030571 0.00288253 0.00270461 0.00252334 0.00233872 0.00215162 0.00196291 0.00177258 0.00158065 0.0013871 0.00119194 0.000995161 0.000796774 0.00061003 0.000448185 0.00031124 0.000199194 0.000112046 4.97984e-05 1.24496e-05 0 0 4.97943e-05 0.000199177 0.000448149 0.00079671 0.00124486 0.0017926 0.00243992 0.00318684 0.00398033 0.00476738 0.00554798 0.00632215 0.00708987 0.00785115 0.008606 0.0093544 0.0100929 0.010818 0.0115297 0.012228 0.0129129 0.0135844 0.0142426 0.0148873 0.0155131 0.0161144 0.0166912 0.0172435 0.0177712 0.0182745 0.0187532 0.0192075 0.0196375 0.0200437 0.0204261 0.0207845 0.0211191 0.0214299 0.0217168 0.0219798 0.0222224 0.0224481 0.0226569 0.0228488 0.0230237 0.0231818 0.0233229 0.0234471 0.0235582 0.0236597 0.0237519 0.0238345 0.0239078 0.0239715 0.0240259 0.0240707 0.0241084 0.024141 0.0241686 0.0241912 0.0242088 0.0242213 0.0242289 0.0242314 0.0242289 0.0242213 0.0242088 0.0241912 0.0241686 0.024141 0.0241084 0.0240708 0.0240259 0.0239716 0.0239078 0.0238346 0.0237519 0.0236598 0.0235582 0.0234472 0.023323 0.0231819 0.0230238 0.0228489 0.022657 0.0224482 0.0222225 0.0219799 0.0217169 0.02143 0.0211193 0.0207847 0.0204263 0.0200439 0.0196378 0.0192077 0.0187535 0.0182748 0.0177715 0.0172438 0.0166915 0.0161147 0.0155135 0.0148877 0.014243 0.0135848 0.0129133 0.0122284 0.0115301 0.0108184 0.0100933 0.00935487 0.00860647 0.00785163 0.00709033 0.00632259 0.00554839 0.00476774 0.00398064 0.0031871 0.00244012 0.00179274 0.00124496 0.000796774 0.000448185 0.000199194 4.97984e-05 0 0 0.000112037 0.000448149 0.00100834 0.0017926 0.00280093 0.00403334 0.00548983 0.00717039 0.00895574 0.0107266 0.012483 0.0142248 0.0159522 0.0176651 0.0193635 0.0210474 0.022709 0.0243404 0.0259418 0.027513 0.029054 0.030565 0.0320458 0.0334965 0.0349045 0.0362574 0.0375552 0.0387978 0.0399853 0.0411176 0.0421948 0.0432169 0.0441845 0.0450984 0.0459587 0.0467652 0.0475181 0.0482173 0.0488627 0.0494545 0.0500004 0.0505083 0.0509781 0.0514098 0.0518034 0.052159 0.0524766 0.052756 0.0530058 0.0532344 0.0534417 0.0536277 0.0537925 0.053936 0.0540582 0.0541592 0.0542439 0.0543173 0.0543794 0.0544302 0.0544698 0.054498 0.0545149 0.0545206 0.054515 0.054498 0.0544698 0.0544303 0.0543794 0.0543173 0.0542439 0.0541592 0.0540583 0.053936 0.0537925 0.0536278 0.0534418 0.0532345 0.053006 0.0527562 0.0524767 0.0521592 0.0518036 0.05141 0.0509783 0.0505085 0.0500007 0.0494548 0.0488631 0.0482176 0.0475185 0.0467656 0.0459591 0.0450989 0.044185 0.0432174 0.0421954 0.0411182 0.0399859 0.0387985 0.0375559 0.0362582 0.0349053 0.0334973 0.0320466 0.0305659 0.029055 0.0275139 0.0259428 0.0243414 0.02271 0.0210485 0.0193646 0.0176662 0.0159532 0.0142258 0.0124839 0.0107274 0.00895645 0.00717097 0.00549027 0.00403367 0.00280116 0.00179274 0.00100842 0.000448185 0.000112046 0 0 0.000199177 0.00079671 0.0017926 0.00318684 0.00497943 0.00717039 0.00975969 0.0127474 0.0159213 0.0190695 0.0221919 0.0252886 0.0283595 0.0314046 0.034424 0.0374176 0.0403715 0.0432719 0.0461187 0.048912 0.0516516 0.0543378 0.0569703 0.0595493 0.0620525 0.0644577 0.0667648 0.0689739 0.071085 0.073098 0.075013 0.07683 0.0785502 0.080175 0.0817043 0.0831382 0.0844766 0.0857196 0.0868671 0.0879191 0.0888896 0.0897925 0.0906277 0.0913952 0.092095 0.0927272 0.0932917 0.0937885 0.0942326 0.0946389 0.0950074 0.0953381 0.095631 0.0958862 0.0961035 0.096283 0.0964336 0.0965641 0.0966745 0.0967649 0.0968351 0.0968853 0.0969155 0.0969255 0.0969155 0.0968854 0.0968352 0.0967649 0.0966746 0.0965642 0.0964337 0.0962831 0.0961036 0.0958863 0.0956312 0.0953383 0.0950076 0.0946391 0.0942328 0.0937888 0.093292 0.0927275 0.0920953 0.0913955 0.0906281 0.0897929 0.0888901 0.0879197 0.0868677 0.0857202 0.0844773 0.0831389 0.0817051 0.0801758 0.0785511 0.0768309 0.075014 0.0730991 0.0710861 0.0689751 0.066766 0.064459 0.0620539 0.0595507 0.0569718 0.0543393 0.0516533 0.0489136 0.0461204 0.0432737 0.0403734 0.0374195 0.0344259 0.0314065 0.0283613 0.0252903 0.0221936 0.019071 0.0159226 0.0127484 0.00976048 0.00717097 0.00497984 0.0031871 0.00179274 0.000796774 0.000199194 0 0 0.000311215 0.00124486 0.00280093 0.00497943 0.00778037 0.0112037 0.0152495 0.0199177 0.024877 0.0297961 0.0346749 0.0395134 0.0443117 0.0490697 0.0537875 0.058465 0.0630805 0.0676123 0.0720605 0.0764249 0.0807057 0.0849028 0.0890161 0.0930458 0.096957 0.100715 0.10432 0.107772 0.11107 0.114216 0.117208 0.120047 0.122735 0.125273 0.127663 0.129903 0.131995 0.133937 0.13573 0.137374 0.13889 0.140301 0.141606 0.142805 0.143898 0.144886 0.145768 0.146545 0.147238 0.147873 0.148449 0.148966 0.149424 0.149822 0.150162 0.150442 0.150677 0.150881 0.151054 0.151195 0.151305 0.151383 0.15143 0.151446 0.15143 0.151383 0.151305 0.151195 0.151054 0.150881 0.150678 0.150442 0.150162 0.149822 0.149424 0.148966 0.148449 0.147874 0.147239 0.146545 0.145769 0.144887 0.143899 0.142806 0.141606 0.140301 0.138891 0.137374 0.135731 0.133938 0.131996 0.129905 0.127664 0.125275 0.122736 0.120048 0.117209 0.114217 0.111072 0.107774 0.104322 0.100717 0.0969592 0.093048 0.0890185 0.0849052 0.0807082 0.0764276 0.0720632 0.0676151 0.0630834 0.0584679 0.0537905 0.0490727 0.0443146 0.0395162 0.0346774 0.0297984 0.024879 0.0199194 0.0152508 0.0112046 0.007781 0.00497984 0.00280116 0.00124496 0.00031124 0 0 0.000448149 0.0017926 0.00403334 0.00717039 0.0112037 0.0161334 0.0219593 0.0286815 0.0358229 0.0429064 0.0499318 0.0568993 0.0638088 0.0706604 0.077454 0.0841896 0.0908359 0.0973618 0.103767 0.110052 0.116216 0.12226 0.128183 0.133986 0.139618 0.14503 0.150221 0.155191 0.159941 0.16447 0.168779 0.172867 0.176738 0.180394 0.183835 0.187061 0.190072 0.192869 0.195451 0.197818 0.200002 0.202033 0.203912 0.205639 0.207214 0.208636 0.209906 0.211024 0.212023 0.212938 0.213767 0.214511 0.21517 0.215744 0.216233 0.216637 0.216976 0.217269 0.217518 0.217721 0.217879 0.217992 0.21806 0.218082 0.21806 0.217992 0.217879 0.217721 0.217518 0.217269 0.216976 0.216637 0.216233 0.215744 0.21517 0.214511 0.213767 0.212938 0.212024 0.211025 0.209907 0.208637 0.207215 0.20564 0.203913 0.202034 0.200003 0.197819 0.195452 0.19287 0.190074 0.187062 0.183836 0.180396 0.17674 0.17287 0.168781 0.164473 0.159944 0.155194 0.150224 0.145033 0.139621 0.133989 0.128187 0.122263 0.11622 0.110056 0.103771 0.0973658 0.0908401 0.0841938 0.0774583 0.0706647 0.063813 0.0569033 0.0499355 0.0429097 0.0358258 0.0286839 0.0219611 0.0161347 0.0112046 0.00717097 0.00403367 0.00179274 0.000448185 0 0 0.000609981 0.00243992 0.00548983 0.00975969 0.0152495 0.0219593 0.0298891 0.0390388 0.048759 0.0584003 0.0679628 0.0774463 0.0868509 0.0961766 0.105423 0.114591 0.123638 0.13252 0.141239 0.149793 0.158183 0.166409 0.174472 0.18237 0.190036 0.197402 0.204467 0.211233 0.217698 0.223863 0.229727 0.235292 0.24056 0.245536 0.250219 0.254611 0.25871 0.262516 0.26603 0.269252 0.272225 0.274989 0.277547 0.279898 0.282041 0.283977 0.285706 0.287227 0.288587 0.289832 0.29096 0.291973 0.29287 0.293651 0.294317 0.294867 0.295328 0.295728 0.296066 0.296342 0.296558 0.296711 0.296804 0.296834 0.296804 0.296711 0.296558 0.296343 0.296066 0.295728 0.295328 0.294867 0.294317 0.293652 0.292871 0.291974 0.290961 0.289832 0.288588 0.287228 0.285707 0.283978 0.282042 0.279899 0.277548 0.274991 0.272226 0.269254 0.266032 0.262518 0.258712 0.254613 0.250222 0.245538 0.240563 0.235295 0.22973 0.223866 0.217701 0.211236 0.204471 0.197406 0.19004 0.182374 0.174476 0.166414 0.158188 0.149798 0.141244 0.132526 0.123643 0.114597 0.105429 0.0961825 0.0868566 0.0774517 0.0679678 0.0584049 0.0487629 0.0390419 0.0298915 0.0219611 0.0152508 0.00976048 0.00549027 0.00244012 0.00061003 0 0 0.00079671 0.00318684 0.00717039 0.0127474 0.0199177 0.0286815 0.0390388 0.0509894 0.0636852 0.076278 0.0887677 0.101154 0.113438 0.125618 0.137696 0.14967 0.161486 0.173088 0.184475 0.195648 0.206607 0.217351 0.227881 0.238197 0.24821 0.257831 0.267059 0.275896 0.28434 0.292392 0.300052 0.30732 0.314201 0.3207 0.326817 0.332553 0.337906 0.342878 0.347468 0.351677 0.355559 0.35917 0.362511 0.365581 0.36838 0.370909 0.373167 0.375154 0.37693 0.378556 0.38003 0.381353 0.382524 0.383545 0.384414 0.385132 0.385734 0.386256 0.386698 0.387059 0.387341 0.387541 0.387662 0.387702 0.387662 0.387541 0.387341 0.38706 0.386698 0.386257 0.385735 0.385132 0.384414 0.383545 0.382525 0.381353 0.38003 0.378556 0.376931 0.375155 0.373168 0.37091 0.368381 0.365582 0.362512 0.359172 0.355561 0.351679 0.347471 0.342881 0.337909 0.332556 0.32682 0.320703 0.314204 0.307324 0.300056 0.292396 0.284344 0.2759 0.267064 0.257836 0.248215 0.238203 0.227887 0.217357 0.206613 0.195655 0.184482 0.173095 0.161493 0.149678 0.137704 0.125626 0.113445 0.101161 0.0887742 0.0762839 0.0636903 0.0509935 0.0390419 0.0286839 0.0199194 0.0127484 0.00717097 0.0031871 0.000796774 0 0 0.000995079 0.00398032 0.00895571 0.0159213 0.024877 0.0358229 0.0487589 0.0636851 0.0795415 0.0952682 0.110865 0.126333 0.14167 0.156878 0.171957 0.186905 0.201655 0.216136 0.230349 0.244293 0.257969 0.271377 0.284516 0.297387 0.309878 0.32188 0.333392 0.344413 0.354944 0.364986 0.374537 0.383599 0.392176 0.400278 0.407903 0.415051 0.421723 0.427918 0.433636 0.438878 0.443713 0.448211 0.452371 0.456193 0.459679 0.462826 0.465637 0.468109 0.470319 0.472341 0.474174 0.47582 0.477277 0.478546 0.479626 0.480518 0.481267 0.481915 0.482464 0.482913 0.483263 0.483512 0.483662 0.483712 0.483662 0.483512 0.483263 0.482914 0.482465 0.481916 0.481267 0.480519 0.479627 0.478546 0.477277 0.475821 0.474175 0.472342 0.47032 0.468111 0.465638 0.462828 0.45968 0.456195 0.452373 0.448213 0.443716 0.438881 0.433639 0.427921 0.421726 0.415055 0.407907 0.400282 0.392181 0.383603 0.374542 0.364991 0.35495 0.344419 0.333398 0.321886 0.309885 0.297394 0.284523 0.271384 0.257977 0.244301 0.230357 0.216145 0.201664 0.186914 0.171966 0.156888 0.141679 0.126341 0.110873 0.0952755 0.0795478 0.0636902 0.0487628 0.0358257 0.024879 0.0159226 0.00895644 0.00398064 0.000995159 0 0 0.00119183 0.00476733 0.0107265 0.0190693 0.0297958 0.042906 0.0583998 0.0762773 0.0952677 0.1141 0.132774 0.15129 0.169648 0.187848 0.20589 0.223774 0.241417 0.258737 0.275732 0.292404 0.308753 0.324778 0.340479 0.355857 0.370779 0.385113 0.398859 0.412018 0.424588 0.436572 0.447967 0.458774 0.469003 0.478662 0.487751 0.49627 0.504218 0.511597 0.518406 0.524645 0.530398 0.535749 0.540696 0.545242 0.549385 0.553125 0.556463 0.559398 0.56202 0.564419 0.566594 0.568545 0.570272 0.571776 0.573056 0.574112 0.574997 0.575765 0.576414 0.576945 0.577358 0.577653 0.57783 0.577889 0.57783 0.577653 0.577358 0.576945 0.576414 0.575765 0.574998 0.574113 0.573057 0.571777 0.570273 0.568546 0.566595 0.56442 0.562022 0.5594 0.556464 0.553127 0.549387 0.545244 0.540699 0.535751 0.530401 0.524649 0.51841 0.511601 0.504222 0.496274 0.487755 0.478667 0.469008 0.45878 0.447973 0.436578 0.424595 0.412025 0.398866 0.38512 0.370787 0.355865 0.340488 0.324787 0.308763 0.292414 0.275743 0.258747 0.241428 0.223785 0.205901 0.187859 0.169659 0.151301 0.132784 0.114109 0.0952752 0.0762834 0.0584045 0.0429094 0.0297982 0.0190709 0.0107274 0.00476771 0.00119193 0 0 0.00138697 0.00554789 0.0124828 0.0221916 0.0346743 0.049931 0.0679616 0.0887662 0.110864 0.132773 0.154494 0.176027 0.197372 0.218529 0.239497 0.260277 0.280774 0.30089 0.320626 0.339982 0.358958 0.377555 0.395771 0.413607 0.43091 0.447529 0.463462 0.478709 0.493272 0.507149 0.520341 0.532848 0.544681 0.555852 0.566361 0.576208 0.585394 0.593917 0.601778 0.608978 0.615613 0.621783 0.627487 0.632725 0.637498 0.641804 0.645645 0.649021 0.652034 0.65479 0.657288 0.659528 0.661511 0.663236 0.664703 0.665913 0.666926 0.667804 0.668547 0.669155 0.669627 0.669965 0.670168 0.670235 0.670168 0.669965 0.669628 0.669155 0.668547 0.667804 0.666926 0.665913 0.664704 0.663237 0.661512 0.659529 0.657289 0.654791 0.652036 0.649022 0.645647 0.641807 0.6375 0.632728 0.62749 0.621786 0.615617 0.608981 0.601782 0.593921 0.585398 0.576213 0.566366 0.555858 0.544687 0.532854 0.520348 0.507156 0.493279 0.478717 0.46347 0.447537 0.43092 0.413617 0.395781 0.377565 0.358969 0.339994 0.320638 0.300902 0.280786 0.26029 0.23951 0.218541 0.197384 0.176039 0.154505 0.132783 0.110872 0.0887732 0.067967 0.0499349 0.034677 0.0221933 0.0124837 0.00554833 0.00138708 0 0 0.0015805 0.00632198 0.0142245 0.0252879 0.0395124 0.0568979 0.0774443 0.101152 0.12633 0.151288 0.176026 0.200543 0.224841 0.248919 0.272777 0.296415 0.319724 0.342596 0.36503 0.387026 0.408585 0.429707 0.450391 0.470637 0.490274 0.509128 0.527199 0.544488 0.560994 0.576718 0.59166 0.605818 0.61921 0.631848 0.643734 0.654868 0.665248 0.674877 0.683752 0.691875 0.699358 0.706314 0.712743 0.718644 0.724018 0.728865 0.733184 0.736977 0.74036 0.743453 0.746257 0.74877 0.750993 0.752925 0.754568 0.75592 0.757052 0.758033 0.758863 0.759542 0.76007 0.760448 0.760674 0.760749 0.760674 0.760448 0.76007 0.759542 0.758863 0.758033 0.757053 0.755921 0.754569 0.752926 0.750994 0.748771 0.746258 0.743455 0.740362 0.736979 0.733187 0.728867 0.724021 0.718647 0.712746 0.706318 0.699362 0.691879 0.683757 0.674881 0.665254 0.654873 0.64374 0.631855 0.619216 0.605826 0.591667 0.576726 0.561003 0.544497 0.527209 0.509138 0.490284 0.470648 0.450402 0.429719 0.408598 0.387039 0.365043 0.342609 0.319738 0.296429 0.272792 0.248934 0.224855 0.200557 0.176038 0.151299 0.126339 0.10116 0.0774503 0.0569023 0.0395155 0.0252899 0.0142256 0.00632247 0.00158062 0 0 0.0017724 0.00708962 0.0159516 0.0283585 0.0443101 0.0638065 0.0868478 0.113434 0.141666 0.169644 0.197368 0.224839 0.252056 0.27902 0.30573 0.332187 0.358269 0.383854 0.408944 0.433537 0.457634 0.481235 0.50434 0.526948 0.548869 0.56991 0.590072 0.609354 0.627757 0.645279 0.661923 0.677686 0.692589 0.70665 0.71987 0.732247 0.743783 0.754476 0.764328 0.773338 0.781634 0.789342 0.796464 0.802998 0.808946 0.814306 0.81908 0.823266 0.826999 0.83041 0.8335 0.836269 0.838717 0.840844 0.84265 0.844135 0.845376 0.846452 0.847362 0.848107 0.848687 0.849101 0.849349 0.849432 0.849349 0.849101 0.848687 0.848108 0.847363 0.846453 0.845377 0.844136 0.842651 0.840845 0.838718 0.836271 0.833502 0.830412 0.827 0.823268 0.819082 0.814309 0.808949 0.803001 0.796467 0.789346 0.781638 0.773343 0.764333 0.754482 0.743788 0.732253 0.719876 0.706657 0.692597 0.677694 0.661931 0.645288 0.627766 0.609364 0.590083 0.569921 0.548881 0.526961 0.504352 0.481248 0.457648 0.433551 0.408958 0.383869 0.358284 0.332203 0.305746 0.279036 0.252072 0.224854 0.197382 0.169656 0.141676 0.113443 0.0868544 0.0638114 0.0443135 0.0283606 0.0159529 0.00709016 0.00177254 0 0 0.0019627 0.00785079 0.0176643 0.0314031 0.0490674 0.0706571 0.0961721 0.125613 0.156871 0.187841 0.218522 0.248914 0.279017 0.308831 0.338357 0.367593 0.396407 0.424665 0.452367 0.479514 0.506104 0.532139 0.557617 0.58254 0.606696 0.629876 0.65208 0.673307 0.693558 0.712832 0.73113 0.748452 0.76482 0.780259 0.794768 0.808347 0.820996 0.832716 0.843506 0.853366 0.862439 0.870867 0.87865 0.885788 0.892281 0.898129 0.903331 0.907889 0.911949 0.915659 0.919018 0.922027 0.924685 0.926992 0.92895 0.930556 0.931898 0.933061 0.934045 0.934851 0.935477 0.935924 0.936193 0.936282 0.936193 0.935924 0.935477 0.934851 0.934046 0.933062 0.931899 0.930557 0.928951 0.926994 0.924686 0.922028 0.91902 0.915661 0.911951 0.907892 0.903334 0.898131 0.892284 0.885791 0.878654 0.870871 0.862444 0.853371 0.843511 0.832722 0.821002 0.808353 0.794775 0.780266 0.764828 0.74846 0.731139 0.712842 0.693568 0.673318 0.652091 0.629888 0.606709 0.582553 0.557631 0.532153 0.506119 0.479529 0.452383 0.424682 0.396424 0.36761 0.338374 0.308849 0.279034 0.24893 0.218537 0.187855 0.156883 0.125622 0.0961793 0.0706624 0.0490711 0.0314055 0.0176656 0.00785137 0.00196284 0 0 0.00215137 0.0086055 0.0193624 0.034422 0.0537843 0.0774495 0.105417 0.137688 0.171947 0.20588 0.239487 0.272768 0.305724 0.338353 0.370656 0.402634 0.43414 0.465029 0.495301 0.524957 0.553996 0.582418 0.610223 0.637412 0.663755 0.689026 0.713223 0.736347 0.758399 0.779377 0.799282 0.818114 0.835902 0.852673 0.868428 0.883167 0.89689 0.909596 0.921286 0.93196 0.941775 0.950889 0.959301 0.967013 0.974023 0.980332 0.985939 0.990846 0.995213 0.999201 1.00281 1.00604 1.0089 1.01137 1.01347 1.01518 1.01662 1.01786 1.01891 1.01977 1.02044 1.02092 1.02121 1.0213 1.02121 1.02092 1.02044 1.01977 1.01891 1.01786 1.01662 1.01519 1.01347 1.01137 1.0089 1.00604 1.00281 0.999203 0.995215 0.990848 0.985942 0.980335 0.974026 0.967016 0.959305 0.950893 0.94178 0.931965 0.921292 0.909602 0.896896 0.883174 0.868436 0.852681 0.835911 0.818124 0.799292 0.779387 0.75841 0.736359 0.713235 0.689038 0.663769 0.637426 0.610238 0.582433 0.554012 0.524974 0.495318 0.465046 0.434158 0.402652 0.370675 0.338371 0.305742 0.272786 0.239503 0.205894 0.171959 0.137698 0.105425 0.0774552 0.0537883 0.0344245 0.0193638 0.00860613 0.00215153 0 0 0.00233844 0.00935374 0.0210459 0.037415 0.0584609 0.0841837 0.114583 0.14966 0.186893 0.22376 0.260264 0.296402 0.332176 0.367585 0.402629 0.437308 0.471466 0.504945 0.537745 0.569867 0.601309 0.632073 0.662158 0.691564 0.720046 0.747358 0.773501 0.798475 0.822279 0.844913 0.866379 0.886674 0.905835 0.923894 0.940851 0.956707 0.971462 0.985116 0.997668 1.00912 1.01964 1.02941 1.03842 1.04667 1.05417 1.06092 1.0669 1.07214 1.07679 1.08104 1.08488 1.08832 1.09135 1.09398 1.0962 1.09802 1.09954 1.10085 1.10196 1.10287 1.10358 1.10408 1.10439 1.10449 1.10439 1.10408 1.10358 1.10287 1.10196 1.10085 1.09954 1.09802 1.0962 1.09398 1.09135 1.08832 1.08488 1.08104 1.07679 1.07214 1.06691 1.06092 1.05418 1.04668 1.03842 1.02941 1.01965 1.00912 0.997674 0.985122 0.971469 0.956715 0.940859 0.923902 0.905844 0.886684 0.866389 0.844925 0.822291 0.798487 0.773514 0.747372 0.72006 0.691579 0.662173 0.632089 0.601326 0.569884 0.537763 0.504964 0.471485 0.437328 0.402649 0.367604 0.332195 0.29642 0.260281 0.223776 0.186906 0.149671 0.114592 0.0841897 0.0584651 0.0374177 0.0210474 0.00935442 0.0023386 0 0 0.00252301 0.0100921 0.0227071 0.0403682 0.0630753 0.0908285 0.123628 0.161473 0.201639 0.241399 0.280755 0.319706 0.358252 0.396393 0.434129 0.47146 0.508218 0.544234 0.579508 0.61404 0.64783 0.680878 0.713184 0.744749 0.775309 0.804604 0.832634 0.859398 0.884897 0.909131 0.932099 0.953801 0.974279 0.993571 1.01168 1.0286 1.04434 1.05889 1.07226 1.08445 1.09563 1.10601 1.11559 1.12435 1.1323 1.13945 1.14579 1.15132 1.15623 1.16072 1.16477 1.1684 1.17159 1.17436 1.17669 1.1786 1.18019 1.18157 1.18273 1.18368 1.18442 1.18495 1.18527 1.18537 1.18527 1.18495 1.18442 1.18368 1.18273 1.18157 1.18019 1.1786 1.1767 1.17436 1.17159 1.1684 1.16477 1.16072 1.15624 1.15132 1.14579 1.13946 1.13231 1.12435 1.11559 1.10602 1.09564 1.08445 1.07227 1.0589 1.04435 1.02861 1.01169 0.99358 0.974288 0.953812 0.93211 0.909142 0.88491 0.859412 0.832648 0.804619 0.775324 0.744765 0.713201 0.680895 0.647848 0.614058 0.579527 0.544254 0.508238 0.471481 0.43415 0.396414 0.358273 0.319726 0.280773 0.241416 0.201653 0.161484 0.123636 0.0908349 0.0630798 0.0403711 0.0227087 0.0100928 0.00252319 0 0 0.00270424 0.010817 0.0243381 0.0432678 0.0676059 0.0973526 0.132508 0.173071 0.216116 0.258714 0.300866 0.342572 0.383832 0.424645 0.465012 0.504933 0.544227 0.582716 0.620398 0.657274 0.693344 0.728608 0.763066 0.796718 0.829287 0.860495 0.890342 0.918828 0.945953 0.971718 0.996122 1.01916 1.04089 1.06136 1.08055 1.09849 1.11515 1.13055 1.14468 1.15755 1.16936 1.1803 1.19039 1.19962 1.20799 1.21551 1.22217 1.22797 1.23311 1.2378 1.24204 1.24583 1.24917 1.25205 1.25449 1.25647 1.25812 1.25954 1.26075 1.26174 1.26251 1.26306 1.26339 1.26349 1.26339 1.26306 1.26251 1.26174 1.26075 1.25954 1.25812 1.25647 1.25449 1.25206 1.24917 1.24583 1.24204 1.2378 1.23311 1.22797 1.22217 1.21551 1.208 1.19963 1.1904 1.18031 1.16936 1.15756 1.14469 1.13056 1.11516 1.09849 1.08056 1.06137 1.0409 1.01918 0.996133 0.97173 0.945966 0.918842 0.890356 0.86051 0.829303 0.796735 0.763084 0.728627 0.693363 0.657294 0.620418 0.582736 0.544248 0.504954 0.465034 0.424667 0.383853 0.342593 0.300885 0.258731 0.216131 0.173083 0.132517 0.0973593 0.0676106 0.0432708 0.0243398 0.0108177 0.00270442 0 0 0.00288211 0.0115284 0.025939 0.0461137 0.0720527 0.103756 0.141223 0.184455 0.230324 0.275705 0.320597 0.365 0.408914 0.45234 0.495277 0.537725 0.579493 0.62039 0.660415 0.69957 0.737852 0.775264 0.811804 0.847473 0.881979 0.915029 0.946624 0.976763 1.00545 1.03267 1.05845 1.08276 1.10568 1.12725 1.14748 1.16636 1.18389 1.20008 1.21493 1.22843 1.2408 1.25227 1.26283 1.27249 1.28124 1.28909 1.29603 1.30207 1.30741 1.31229 1.31669 1.32062 1.32408 1.32707 1.32958 1.33162 1.33332 1.33478 1.33603 1.33704 1.33783 1.3384 1.33873 1.33885 1.33873 1.3384 1.33783 1.33704 1.33603 1.33478 1.33332 1.33162 1.32958 1.32707 1.32408 1.32062 1.31669 1.31229 1.30742 1.30207 1.29603 1.28909 1.28125 1.2725 1.26284 1.25228 1.24081 1.22843 1.21494 1.20009 1.1839 1.16637 1.14749 1.12726 1.10569 1.08278 1.05846 1.03269 1.00546 0.976777 0.946639 0.915045 0.881996 0.847491 0.811823 0.775283 0.737872 0.69959 0.660436 0.620411 0.579515 0.537748 0.4953 0.452363 0.408937 0.365021 0.320616 0.275723 0.23034 0.184467 0.141233 0.103763 0.0720576 0.0461168 0.0259407 0.0115292 0.0028823 0 0 0.00305663 0.0122265 0.0275096 0.048906 0.0764157 0.110039 0.149775 0.195624 0.244264 0.292372 0.339947 0.38699 0.4335 0.479478 0.524924 0.569838 0.614016 0.657257 0.69956 0.740926 0.781354 0.820845 0.859398 0.897013 0.933385 0.968208 1.00148 1.0332 1.06338 1.092 1.11908 1.1446 1.16864 1.19126 1.21245 1.23222 1.25057 1.2675 1.283 1.29708 1.30998 1.32192 1.33291 1.34296 1.35205 1.36019 1.36738 1.37362 1.37915 1.38418 1.38872 1.39277 1.39633 1.3994 1.40197 1.40406 1.40579 1.40729 1.40855 1.40959 1.4104 1.41097 1.41132 1.41143 1.41132 1.41097 1.4104 1.40959 1.40855 1.40729 1.40579 1.40406 1.40197 1.3994 1.39633 1.39277 1.38872 1.38418 1.37915 1.37363 1.36739 1.3602 1.35205 1.34296 1.33292 1.32192 1.30998 1.29709 1.28301 1.2675 1.25058 1.23223 1.21246 1.19127 1.16865 1.14461 1.11909 1.09201 1.06339 1.03322 1.0015 0.968224 0.933403 0.897032 0.859417 0.820865 0.781375 0.740947 0.699582 0.657279 0.614039 0.569861 0.524948 0.479502 0.433523 0.387011 0.339967 0.29239 0.24428 0.195637 0.149785 0.110046 0.0764207 0.0489092 0.0275114 0.0122273 0.00305683 0 0 0.00322779 0.0129112 0.0290501 0.0516447 0.0806948 0.116201 0.158162 0.206579 0.257935 0.308714 0.358916 0.408541 0.457589 0.50606 0.553954 0.60127 0.647796 0.693317 0.737833 0.781344 0.82385 0.865351 0.905847 0.945339 0.983506 1.02003 1.05491 1.08815 1.11975 1.1497 1.17801 1.20467 1.22977 1.25337 1.27547 1.29607 1.31518 1.33279 1.3489 1.36351 1.37687 1.38925 1.40063 1.41102 1.42041 1.42882 1.43622 1.44264 1.44831 1.45347 1.45812 1.46227 1.46591 1.46904 1.47167 1.47379 1.47554 1.47705 1.47834 1.47938 1.4802 1.48078 1.48113 1.48125 1.48113 1.48078 1.4802 1.47939 1.47834 1.47705 1.47554 1.47379 1.47167 1.46904 1.46591 1.46227 1.45812 1.45347 1.44831 1.44264 1.43623 1.42882 1.42042 1.41102 1.40064 1.38925 1.37688 1.36351 1.3489 1.33279 1.31519 1.29608 1.27548 1.25338 1.22978 1.20469 1.17802 1.14971 1.11976 1.08817 1.05493 1.02005 0.983524 0.945357 0.905867 0.865371 0.823871 0.781365 0.737855 0.69334 0.64782 0.601294 0.553978 0.506084 0.457612 0.408563 0.358937 0.308733 0.257951 0.206592 0.158172 0.116208 0.0806999 0.051648 0.029052 0.012912 0.003228 0 0 0.0033956 0.0135824 0.0305604 0.0543297 0.0848901 0.122242 0.166385 0.217319 0.271337 0.324732 0.377505 0.429654 0.481181 0.532084 0.582365 0.632023 0.680833 0.728569 0.775233 0.820822 0.865339 0.908782 0.951152 0.992449 1.03234 1.0705 1.10692 1.1416 1.17455 1.20576 1.23524 1.26298 1.28907 1.31359 1.33654 1.35791 1.37772 1.39595 1.41262 1.42771 1.4415 1.45426 1.46598 1.47668 1.48634 1.49496 1.50255 1.50911 1.5149 1.52016 1.5249 1.52912 1.53282 1.536 1.53866 1.5408 1.54255 1.54408 1.54537 1.54643 1.54725 1.54783 1.54819 1.5483 1.54819 1.54783 1.54725 1.54643 1.54537 1.54408 1.54256 1.5408 1.53866 1.536 1.53282 1.52912 1.5249 1.52016 1.5149 1.50912 1.50256 1.49497 1.48634 1.47668 1.46599 1.45426 1.44151 1.42772 1.41262 1.39596 1.37773 1.35792 1.33655 1.3136 1.28908 1.263 1.23525 1.20578 1.17457 1.14162 1.10693 1.07051 1.03236 0.992468 0.951172 0.908803 0.86536 0.820845 0.775255 0.728593 0.680857 0.632048 0.58239 0.532109 0.481205 0.429677 0.377526 0.324751 0.271353 0.217332 0.166395 0.122249 0.0848953 0.054333 0.0305623 0.0135833 0.00339581 0 0 0.00356006 0.0142403 0.0320406 0.056961 0.0890016 0.128162 0.174443 0.227844 0.28447 0.340426 0.395713 0.450329 0.504276 0.557552 0.610159 0.662096 0.713127 0.763015 0.81176 0.859362 0.905822 0.951139 0.995313 1.03834 1.07989 1.11961 1.1575 1.19356 1.22779 1.2602 1.29078 1.31953 1.34654 1.37192 1.39565 1.41774 1.43819 1.457 1.47416 1.48969 1.50385 1.51695 1.52898 1.53993 1.54982 1.55863 1.56637 1.57305 1.57892 1.58425 1.58906 1.59333 1.59707 1.60028 1.60295 1.60509 1.60685 1.60837 1.60966 1.61071 1.61153 1.61212 1.61247 1.61259 1.61247 1.61212 1.61153 1.61071 1.60966 1.60837 1.60685 1.60509 1.60295 1.60028 1.59707 1.59333 1.58906 1.58426 1.57892 1.57305 1.56638 1.55863 1.54982 1.53994 1.52898 1.51696 1.50386 1.48969 1.47417 1.457 1.4382 1.41775 1.39566 1.37193 1.34656 1.31954 1.29079 1.26021 1.22781 1.19358 1.15752 1.11963 1.07991 1.03836 0.995333 0.95116 0.905844 0.859385 0.811783 0.763039 0.713151 0.662121 0.610185 0.557578 0.5043 0.450352 0.395734 0.340446 0.284487 0.227858 0.174453 0.12817 0.0890069 0.0569644 0.0320425 0.0142411 0.00356028 0 0 0.00372117 0.0148847 0.0334905 0.0595387 0.0930292 0.133962 0.182337 0.238155 0.297335 0.355796 0.41354 0.470566 0.526874 0.582464 0.637336 0.691489 0.744678 0.796653 0.847415 0.896963 0.945298 0.99242 1.03833 1.08302 1.12615 1.16736 1.20665 1.24402 1.27947 1.31301 1.34462 1.37431 1.40219 1.42836 1.45281 1.47556 1.49659 1.51592 1.53353 1.54944 1.56393 1.57732 1.5896 1.60078 1.61085 1.61982 1.62768 1.63443 1.64036 1.64575 1.6506 1.6549 1.65865 1.66187 1.66454 1.66667 1.66841 1.66992 1.6712 1.67224 1.67306 1.67364 1.67399 1.6741 1.67399 1.67364 1.67306 1.67225 1.6712 1.66992 1.66841 1.66667 1.66454 1.66187 1.65866 1.6549 1.6506 1.64575 1.64037 1.63444 1.62768 1.61982 1.61086 1.60079 1.58961 1.57733 1.56394 1.54944 1.53354 1.51593 1.4966 1.47557 1.45282 1.42837 1.4022 1.37432 1.34463 1.31302 1.27949 1.24404 1.20667 1.16738 1.12617 1.08304 1.03835 0.992442 0.945321 0.896986 0.847438 0.796677 0.744703 0.691515 0.637361 0.582489 0.526898 0.470589 0.413562 0.355816 0.297351 0.238169 0.182348 0.13397 0.0930346 0.0595421 0.0334925 0.0148855 0.00372138 0 0 0.00387753 0.0155101 0.0348978 0.0620405 0.0969383 0.139591 0.189999 0.248162 0.309819 0.37071 0.430834 0.490192 0.548783 0.606608 0.663666 0.719958 0.775224 0.829206 0.881905 0.933319 0.98345 1.0323 1.07986 1.12614 1.17077 1.21339 1.254 1.29261 1.3292 1.36379 1.39636 1.42693 1.4556 1.4825 1.50761 1.53096 1.55252 1.57231 1.59032 1.60656 1.62133 1.63497 1.64747 1.65883 1.66906 1.67814 1.68609 1.69289 1.69886 1.70427 1.70913 1.71344 1.7172 1.72041 1.72306 1.72517 1.72688 1.72837 1.72963 1.73066 1.73146 1.73203 1.73237 1.73249 1.73237 1.73203 1.73146 1.73066 1.72963 1.72837 1.72688 1.72517 1.72306 1.72041 1.7172 1.71344 1.70913 1.70427 1.69886 1.6929 1.68609 1.67814 1.66906 1.65884 1.64748 1.63498 1.62134 1.60656 1.59033 1.57232 1.55253 1.53097 1.50763 1.48251 1.45561 1.42694 1.39638 1.3638 1.32922 1.29262 1.25402 1.21341 1.17079 1.12616 1.07988 1.03232 0.983472 0.933342 0.881929 0.829231 0.775249 0.719983 0.663692 0.606633 0.548808 0.490216 0.430856 0.37073 0.309836 0.248176 0.19001 0.139599 0.0969437 0.062044 0.0348997 0.015511 0.00387775 0 0 0.00402776 0.016111 0.0362499 0.0644442 0.100694 0.144999 0.19736 0.257777 0.321814 0.385035 0.447443 0.509035 0.569812 0.629775 0.688922 0.747255 0.804504 0.860398 0.914938 0.968124 1.01996 1.07043 1.11956 1.16733 1.21337 1.25732 1.29917 1.33893 1.37658 1.41214 1.44561 1.47697 1.50637 1.53393 1.55965 1.58353 1.60557 1.62576 1.64412 1.66064 1.67565 1.6895 1.70218 1.71369 1.72403 1.7332 1.7412 1.74804 1.75401 1.75942 1.76428 1.76858 1.77233 1.77551 1.77814 1.78021 1.78189 1.78335 1.78458 1.78559 1.78637 1.78693 1.78727 1.78738 1.78727 1.78693 1.78637 1.78559 1.78458 1.78335 1.78189 1.78021 1.77814 1.77551 1.77233 1.76858 1.76428 1.75943 1.75401 1.74804 1.74121 1.7332 1.72403 1.71369 1.70218 1.68951 1.67566 1.66065 1.64413 1.62577 1.60557 1.58354 1.55966 1.53394