<?xml version="1.0"?> 
<VTKFile type="StructuredGrid" version="0.1"> 
<StructuredGrid WholeExtent="0 128 0 128 0 0"> 
<Piece Extent="0 128 0 128 0 0"> 
<PointData>
<DataArray type="Float32" Name="u" format="ascii" NumberOfComponents="1"> 
0 0 0 0 0 0 0 0 0 0 0 0 0 0 0 0 0 0 0 0 0 0 0 0 0 0 0 0 0 0 0 0 0 0 0 0 0 0 0 0 0 0 0 0 0 0 0 0 0 0 0 0 0 0 0 0 0 0 0 0 0 0 0 0 0 0 0 0 0 0 0 0 0 0 0 0 0 0 0 0 0 0 0 0 0 0 0 0 0 0 0 0 0 0 0 0 0 0 0 0 0 0 0 0 0 0 0 0 0 0 0 0 0 0 0 0 0 0 0 0 0 0 0 0 0 0 0 0 0 0 7.84035e-07 3.13614e-06 7.05631e-06 1.25446e-05 1.96009e-05 2.82253e-05 3.84177e-05 5.01782e-05 6.32026e-05 7.71867e-05 9.21305e-05 0.000108034 0.000124897 0.00014272 0.000161503 0.000181245 0.000202086 0.000224166 0.000247484 0.00027204 0.000297834 0.000324867 0.000353138 0.000382648 0.000413251 0.000444801 0.000477298 0.000510743 0.000545136 0.000580476 0.000616764 0.000654 0.00069181 0.000729823 0.000768038 0.000806455 0.000845075 0.000883898 0.000922922 0.000962149 0.00100107 0.00103919 0.0010765 0.00111301 0.0011487 0.00118359 0.00121768 0.00125095 0.00128295 0.00131317 0.00134163 0.00136833 0.00139327 0.00141643 0.00143784 0.00145748 0.00147506 0.00149031 0.0015032 0.00151375 0.00152196 0.00152782 0.00153134 0.00153251 0.00153134 0.00152782 0.00152196 0.00151375 0.0015032 0.00149031 0.00147506 0.00145748 0.00143784 0.00141643 0.00139327 0.00136833 0.00134163 0.00131317 0.00128295 0.00125095 0.00121768 0.00118359 0.0011487 0.00111301 0.0010765 0.00103919 0.00100107 0.000962149 0.000922922 0.000883898 0.000845075 0.000806455 0.000768038 0.000729823 0.00069181 0.000654 0.000616764 0.000580477 0.000545136 0.000510744 0.000477299 0.000444801 0.000413251 0.000382648 0.000353139 0.000324868 0.000297835 0.00027204 0.000247484 0.000224166 0.000202087 0.000181245 0.000161503 0.000142721 0.000124898 0.000108035 9.21311e-05 7.71872e-05 6.32031e-05 5.01786e-05 3.8418e-05 2.82255e-05 1.9601e-05 1.25446e-05 7.05637e-06 3.13616e-06 7.84041e-07 0 0 3.13614e-06 1.25446e-05 2.82253e-05 5.01782e-05 7.84035e-05 0.000112901 0.000153671 0.000200713 0.000252811 0.000308747 0.000368522 0.000432136 0.000499589 0.00057088 0.00064601 0.000724979 0.000808344 0.000896662 0.000989934 0.00108816 0.00119134 0.00129947 0.00141255 0.00153059 0.001653 0.0017792 0.00190919 0.00204297 0.00218054 0.00232191 0.00246706 0.002616 0.00276724 0.00291929 0.00307215 0.00322582 0.0033803 0.00353559 0.00369169 0.0038486 0.0040043 0.00415677 0.00430601 0.00445203 0.00459482 0.00473438 0.00487071 0.00500382 0.00513178 0.00525269 0.00536654 0.00547333 0.00557306 0.00566574 0.00575136 0.00582992 0.00590026 0.00596122 0.00601281 0.00605501 0.00608784 0.00611129 0.00612535 0.00613004 0.00612535 0.00611129 0.00608784 0.00605501 0.00601281 0.00596122 0.00590026 0.00582992 0.00575136 0.00566574 0.00557306 0.00547333 0.00536654 0.00525269 0.00513178 0.00500382 0.00487071 0.00473438 0.00459482 0.00445203 0.00430601 0.00415677 0.0040043 0.0038486 0.00369169 0.00353559 0.0033803 0.00322582 0.00307215 0.00291929 0.00276724 0.002616 0.00246706 0.00232191 0.00218055 0.00204297 0.00190919 0.0017792 0.001653 0.00153059 0.00141256 0.00129947 0.00119134 0.00108816 0.000989936 0.000896665 0.000808347 0.000724982 0.000646013 0.000570883 0.000499591 0.000432138 0.000368524 0.000308749 0.000252812 0.000200714 0.000153672 0.000112902 7.84041e-05 5.01786e-05 2.82255e-05 1.25446e-05 3.13616e-06 0 0 7.05631e-06 2.82253e-05 6.35068e-05 0.000112901 0.000176408 0.000254027 0.000345759 0.000451604 0.000568824 0.000694681 0.000829175 0.000972306 0.00112407 0.00128448 0.00145352 0.0016312 0.00181877 0.00201749 0.00222735 0.00244836 0.00268051 0.00292381 0.00317825 0.00344383 0.00371926 0.00400321 0.00429568 0.00459669 0.00490623 0.00522429 0.00555088 0.005886 0.00622629 0.0065684 0.00691234 0.0072581 0.00760568 0.00795508 0.0083063 0.00865934 0.00900967 0.00935273 0.00968853 0.0100171 0.0103383 0.0106524 0.0109591 0.0112586 0.0115465 0.0118186 0.0120747 0.012315 0.0125394 0.0127479 0.0129406 0.0131173 0.0132756 0.0134127 0.0135288 0.0136238 0.0136976 0.0137504 0.013782 0.0137926 0.013782 0.0137504 0.0136976 0.0136238 0.0135288 0.0134127 0.0132756 0.0131173 0.0129406 0.0127479 0.0125394 0.012315 0.0120747 0.0118186 0.0115465 0.0112586 0.0109591 0.0106524 0.0103383 0.0100171 0.00968853 0.00935273 0.00900967 0.00865934 0.0083063 0.00795508 0.00760568 0.0072581 0.00691234 0.00656841 0.00622629 0.005886 0.00555088 0.00522429 0.00490623 0.00459669 0.00429569 0.00400321 0.00371926 0.00344384 0.00317825 0.00292381 0.00268051 0.00244836 0.00222736 0.0020175 0.00181878 0.00163121 0.00145353 0.00128449 0.00112408 0.000972311 0.00082918 0.000694685 0.000568828 0.000451607 0.000345762 0.000254029 0.000176409 0.000112902 6.35073e-05 2.82255e-05 7.05637e-06 0 0 1.25446e-05 5.01782e-05 0.000112901 0.000200713 0.000313614 0.000451604 0.000614683 0.000802852 0.00101124 0.00123499 0.00147409 0.00172854 0.00199835 0.00228352 0.00258404 0.00289992 0.00323338 0.00358665 0.00395974 0.00435264 0.00476535 0.00519788 0.00565022 0.00612237 0.00661201 0.00711681 0.00763677 0.00817189 0.00872218 0.00928762 0.00986823 0.010464 0.011069 0.0116772 0.0122886 0.0129033 0.0135212 0.0141424 0.0147668 0.0153944 0.0160172 0.0166271 0.017224 0.0178081 0.0183793 0.0189375 0.0194829 0.0200153 0.0205271 0.0210108 0.0214662 0.0218933 0.0222923 0.022663 0.0230054 0.0233197 0.023601 0.0238449 0.0240512 0.02422 0.0243514 0.0244451 0.0245014 0.0245202 0.0245014 0.0244451 0.0243514 0.02422 0.0240512 0.0238449 0.023601 0.0233197 0.0230054 0.022663 0.0222922 0.0218933 0.0214662 0.0210108 0.0205271 0.0200153 0.0194829 0.0189375 0.0183793 0.0178081 0.017224 0.0166271 0.0160172 0.0153944 0.0147668 0.0141424 0.0135212 0.0129033 0.0122886 0.0116772 0.011069 0.010464 0.00986823 0.00928763 0.00872218 0.0081719 0.00763678 0.00711682 0.00661201 0.00612238 0.00565022 0.00519788 0.00476536 0.00435264 0.00395975 0.00358666 0.00323339 0.00289993 0.00258405 0.00228353 0.00199836 0.00172855 0.0014741 0.001235 0.00101125 0.000802858 0.000614688 0.000451607 0.000313616 0.000200714 0.000112902 5.01786e-05 1.25446e-05 0 0 1.96009e-05 7.84035e-05 0.000176408 0.000313614 0.000490022 0.000705631 0.000960443 0.00125446 0.00158007 0.00192967 0.00230326 0.00270085 0.00312243 0.003568 0.00403756 0.00453112 0.00505215 0.00560414 0.00618709 0.00680099 0.00744586 0.00812168 0.00882846 0.0095662 0.0103313 0.01112 0.0119325 0.0127686 0.0136284 0.0145119 0.0154191 0.01635 0.0172952 0.0182456 0.0192009 0.0201614 0.0211269 0.0220974 0.0230731 0.0240537 0.0250269 0.0259798 0.0269126 0.0278252 0.0287176 0.0295899 0.030442 0.0312739 0.0320736 0.0328293 0.0335409 0.0342083 0.0348316 0.0354109 0.035946 0.036437 0.0368766 0.0372576 0.03758 0.0378438 0.038049 0.0381955 0.0382835 0.0383128 0.0382835 0.0381955 0.038049 0.0378438 0.03758 0.0372576 0.0368766 0.036437 0.035946 0.0354109 0.0348316 0.0342083 0.0335409 0.0328293 0.0320736 0.0312739 0.030442 0.0295899 0.0287176 0.0278252 0.0269126 0.0259798 0.0250269 0.0240537 0.0230731 0.0220974 0.0211269 0.0201614 0.0192009 0.0182456 0.0172953 0.01635 0.0154191 0.0145119 0.0136284 0.0127686 0.0119325 0.01112 0.0103313 0.00956621 0.00882847 0.00812169 0.00744587 0.00680101 0.0061871 0.00560415 0.00505217 0.00453114 0.00403758 0.00356802 0.00312244 0.00270087 0.00230328 0.00192968 0.00158008 0.00125446 0.00096045 0.000705637 0.000490025 0.000313616 0.000176409 7.84041e-05 1.9601e-05 0 0 2.82253e-05 0.000112901 0.000254027 0.000451604 0.000705631 0.00101611 0.00138304 0.00180642 0.0022753 0.00277872 0.0033167 0.00388922 0.0044963 0.00513792 0.00581409 0.00652481 0.0072751 0.00806996 0.00890941 0.00979343 0.010722 0.0116952 0.012713 0.0137753 0.014877 0.0160128 0.0171827 0.0183868 0.0196249 0.0208972 0.0222035 0.023544 0.0249052 0.0262736 0.0276494 0.0290324 0.0304227 0.0318203 0.0332252 0.0346374 0.0360387 0.0374109 0.0387541 0.0400683 0.0413534 0.0426094 0.0438364 0.0450344 0.0461861 0.0472742 0.0482988 0.04926 0.0501576 0.0509916 0.0517622 0.0524693 0.0531023 0.053651 0.0541153 0.0544951 0.0547905 0.0550016 0.0551282 0.0551704 0.0551282 0.0550016 0.0547905 0.0544951 0.0541153 0.053651 0.0531023 0.0524692 0.0517622 0.0509916 0.0501576 0.04926 0.0482988 0.0472742 0.0461861 0.0450344 0.0438364 0.0426094 0.0413534 0.0400683 0.0387541 0.0374109 0.0360387 0.0346374 0.0332252 0.0318203 0.0304227 0.0290324 0.0276494 0.0262736 0.0249052 0.023544 0.0222035 0.0208972 0.0196249 0.0183868 0.0171827 0.0160128 0.014877 0.0137753 0.012713 0.0116952 0.0107221 0.00979345 0.00890943 0.00806998 0.00727512 0.00652484 0.00581412 0.00513794 0.00449632 0.00388925 0.00331672 0.00277874 0.00227531 0.00180643 0.00138305 0.00101612 0.000705637 0.000451607 0.000254029 0.000112902 2.82255e-05 0 0 3.84177e-05 0.000153671 0.000345759 0.000614683 0.000960443 0.00138304 0.00188247 0.00245873 0.00309693 0.00378215 0.0045144 0.00529367 0.00611996 0.00699328 0.00791363 0.00888099 0.00990222 0.0109841 0.0121267 0.0133299 0.0145939 0.0159185 0.0173038 0.0187498 0.0202493 0.0217952 0.0233876 0.0250264 0.0267117 0.0284433 0.0302214 0.032046 0.0338987 0.0357613 0.0376339 0.0395163 0.0414087 0.043311 0.0452232 0.0471453 0.0490526 0.0509204 0.0527486 0.0545374 0.0562865 0.0579961 0.0596662 0.0612968 0.0628643 0.0643454 0.0657401 0.0670483 0.06827 0.0694053 0.0704541 0.0714165 0.0722782 0.073025 0.0736569 0.0741739 0.074576 0.0748632 0.0750356 0.075093 0.0750356 0.0748632 0.074576 0.0741739 0.0736569 0.073025 0.0722782 0.0714165 0.0704541 0.0694053 0.06827 0.0670483 0.0657401 0.0643454 0.0628643 0.0612968 0.0596662 0.0579961 0.0562865 0.0545374 0.0527486 0.0509204 0.0490526 0.0471453 0.0452232 0.043311 0.0414087 0.0395163 0.0376339 0.0357613 0.0338987 0.032046 0.0302215 0.0284434 0.0267117 0.0250264 0.0233876 0.0217952 0.0202493 0.0187498 0.0173038 0.0159185 0.0145939 0.01333 0.0121267 0.0109841 0.00990225 0.00888103 0.00791366 0.00699331 0.00611999 0.0052937 0.00451442 0.00378218 0.00309695 0.00245875 0.00188248 0.00138305 0.00096045 0.000614688 0.000345762 0.000153672 3.8418e-05 0 0 5.01782e-05 0.000200713 0.000451604 0.000802852 0.00125446 0.00180642 0.00245873 0.00321141 0.00404497 0.00493995 0.00589635 0.00691418 0.00799342 0.00913408 0.0103362 0.0115997 0.0129335 0.0143466 0.0158389 0.0174105 0.0190614 0.0207915 0.0226009 0.0244895 0.026448 0.0284672 0.0305471 0.0326876 0.0348887 0.0371505 0.0394729 0.041856 0.0442758 0.0467087 0.0491544 0.0516131 0.0540848 0.0565694 0.059067 0.0615776 0.0640687 0.0665083 0.0688962 0.0712325 0.0735171 0.0757501 0.0779314 0.0800611 0.0821085 0.084043 0.0858646 0.0875733 0.089169 0.0906518 0.0920217 0.0932787 0.0944041 0.0953796 0.0962049 0.0968802 0.0974054 0.0977806 0.0980057 0.0980807 0.0980057 0.0977806 0.0974054 0.0968802 0.0962049 0.0953796 0.0944041 0.0932787 0.0920217 0.0906518 0.089169 0.0875733 0.0858646 0.084043 0.0821085 0.0800611 0.0779314 0.0757501 0.0735171 0.0712325 0.0688962 0.0665083 0.0640687 0.0615776 0.059067 0.0565694 0.0540848 0.0516131 0.0491544 0.0467087 0.0442758 0.041856 0.0394729 0.0371505 0.0348887 0.0326876 0.0305471 0.0284673 0.0264481 0.0244895 0.0226009 0.0207915 0.0190614 0.0174106 0.015839 0.0143466 0.0129335 0.0115997 0.0103362 0.00913412 0.00799346 0.00691421 0.00589639 0.00493998 0.004045 0.00321143 0.00245875 0.00180643 0.00125446 0.000802858 0.000451607 0.000200714 5.01786e-05 0 0 6.30282e-05 0.000252113 0.000567253 0.00100845 0.0015757 0.00226901 0.00308838 0.0040338 0.00508061 0.00620412 0.00740434 0.00868127 0.0100349 0.0114652 0.0129723 0.0145561 0.0162277 0.0179984 0.0198681 0.0218368 0.0239046 0.0260715 0.0283374 0.0307023 0.0331546 0.0356826 0.0382864 0.0409659 0.0437211 0.046552 0.0494587 0.0524411 0.0554693 0.0585137 0.0615742 0.0646507 0.0677433 0.070852 0.0739767 0.0771176 0.0802341 0.083286 0.0862732 0.0891957 0.0920535 0.0948467 0.0975752 0.100239 0.1028 0.105219 0.107498 0.109635 0.111631 0.113485 0.115198 0.11677 0.118178 0.119398 0.12043 0.121275 0.121931 0.122401 0.122682 0.122776 0.122682 0.122401 0.121931 0.121275 0.12043 0.119398 0.118178 0.11677 0.115198 0.113485 0.111631 0.109635 0.107498 0.105219 0.1028 0.100239 0.0975752 0.0948467 0.0920535 0.0891957 0.0862732 0.083286 0.0802341 0.0771176 0.0739767 0.070852 0.0677433 0.0646507 0.0615742 0.0585137 0.0554694 0.0524411 0.0494587 0.046552 0.0437211 0.0409659 0.0382864 0.0356827 0.0331546 0.0307023 0.0283374 0.0260715 0.0239047 0.0218369 0.0198681 0.0179984 0.0162277 0.0145561 0.0129723 0.0114653 0.010035 0.00868131 0.00740438 0.00620416 0.00508064 0.00403383 0.0030884 0.00226903 0.00157572 0.00100846 0.000567257 0.000252114 6.30286e-05 0 0 7.64888e-05 0.000305955 0.000688399 0.00122382 0.00191222 0.0027536 0.00374795 0.00489528 0.00616503 0.00752664 0.00898012 0.0105254 0.0121626 0.0138917 0.0157126 0.0176254 0.0196435 0.0217804 0.024036 0.0264105 0.0289037 0.0315157 0.0342464 0.037096 0.0400503 0.0430952 0.0462308 0.049457 0.0527738 0.0561813 0.0596795 0.0632683 0.066912 0.0705746 0.0742561 0.0779567 0.0816763 0.0854148 0.0891723 0.0929488 0.0966958 0.100365 0.103956 0.107469 0.110904 0.114261 0.117541 0.120742 0.12382 0.126727 0.129465 0.132033 0.134431 0.136659 0.138718 0.140606 0.142298 0.143763 0.145003 0.146018 0.146807 0.147371 0.147709 0.147821 0.147709 0.147371 0.146807 0.146018 0.145003 0.143763 0.142298 0.140606 0.138718 0.136659 0.134431 0.132033 0.129465 0.126727 0.12382 0.120742 0.117541 0.114261 0.110904 0.107469 0.103956 0.100365 0.0966958 0.0929488 0.0891723 0.0854148 0.0816763 0.0779567 0.0742562 0.0705746 0.066912 0.0632683 0.0596795 0.0561814 0.0527739 0.049457 0.0462308 0.0430952 0.0400503 0.037096 0.0342465 0.0315157 0.0289037 0.0264105 0.0240361 0.0217804 0.0196435 0.0176254 0.0157127 0.0138918 0.0121627 0.0105255 0.00898017 0.00752669 0.00616508 0.00489532 0.00374798 0.00275362 0.00191223 0.00122383 0.000688404 0.000305957 7.64893e-05 0 0 9.05601e-05 0.000362241 0.000815041 0.00144896 0.002264 0.00326016 0.00443745 0.00579585 0.00729825 0.00890753 0.0106237 0.0124467 0.0143766 0.0164134 0.0185571 0.0208077 0.0231809 0.0256926 0.0283427 0.0311314 0.0340585 0.037124 0.0403281 0.0436706 0.047135 0.0507049 0.0543802 0.0581609 0.062047 0.0660385 0.0701354 0.0743378 0.0786037 0.0828912 0.0872004 0.0915313 0.0958838 0.100258 0.104654 0.109071 0.113454 0.117745 0.121945 0.126053 0.130069 0.133994 0.137828 0.14157 0.145168 0.148566 0.151766 0.154767 0.15757 0.160174 0.16258 0.164787 0.166763 0.168475 0.169924 0.17111 0.172032 0.17269 0.173086 0.173217 0.173086 0.17269 0.172032 0.17111 0.169924 0.168475 0.166763 0.164787 0.16258 0.160174 0.15757 0.154767 0.151766 0.148566 0.145168 0.14157 0.137828 0.133994 0.130069 0.126053 0.121945 0.117745 0.113454 0.109071 0.104654 0.100258 0.0958838 0.0915313 0.0872004 0.0828912 0.0786037 0.0743378 0.0701354 0.0660385 0.062047 0.0581609 0.0543802 0.0507049 0.0471351 0.0436706 0.0403281 0.0371241 0.0340585 0.0311314 0.0283428 0.0256927 0.023181 0.0208077 0.0185572 0.0164135 0.0143767 0.0124468 0.0106238 0.00890759 0.0072983 0.00579589 0.00443748 0.00326019 0.00226402 0.00144897 0.000815047 0.000362243 9.05608e-05 0 0 0.000105242 0.000420969 0.00094718 0.00168388 0.00263105 0.00378872 0.00515687 0.0067355 0.00848026 0.0103468 0.0123351 0.0144451 0.0166769 0.0190305 0.0215058 0.0241029 0.0268399 0.029735 0.0327883 0.0359996 0.0393691 0.0428966 0.0465823 0.0504261 0.0544089 0.0585118 0.0627347 0.0670776 0.0715405 0.0761234 0.0808264 0.0856494 0.0905445 0.0954636 0.100407 0.105374 0.110366 0.115381 0.120421 0.125485 0.130508 0.135426 0.140239 0.144946 0.149549 0.154046 0.158437 0.162724 0.166844 0.170736 0.174401 0.177839 0.181048 0.18403 0.186785 0.189311 0.191573 0.193534 0.195193 0.19655 0.197606 0.19836 0.198812 0.198963 0.198812 0.19836 0.197606 0.19655 0.195193 0.193534 0.191573 0.189311 0.186785 0.18403 0.181048 0.177839 0.174401 0.170736 0.166844 0.162724 0.158437 0.154046 0.149549 0.144946 0.140239 0.135426 0.130508 0.125485 0.120421 0.115381 0.110366 0.105374 0.100407 0.0954636 0.0905445 0.0856494 0.0808264 0.0761235 0.0715405 0.0670776 0.0627347 0.0585118 0.054409 0.0504261 0.0465824 0.0428967 0.0393691 0.0359997 0.0327884 0.0297351 0.02684 0.024103 0.0215059 0.0190306 0.016677 0.0144452 0.0123351 0.0103468 0.00848032 0.00673555 0.0051569 0.00378875 0.00263107 0.00168389 0.000947187 0.000420972 0.000105243 0 0 0.000120535 0.00048214 0.00108481 0.00192856 0.00301337 0.00433926 0.00590621 0.00771424 0.00971105 0.0118444 0.0141142 0.0165206 0.0190634 0.0217428 0.0245587 0.0275111 0.0306205 0.0339077 0.0373726 0.0410152 0.0448355 0.0488334 0.0530091 0.0573624 0.0618719 0.0665158 0.0712942 0.076207 0.0812544 0.0864362 0.0917525 0.0972032 0.102734 0.108292 0.113876 0.119486 0.125122 0.130785 0.136474 0.14219 0.147859 0.153409 0.158839 0.16415 0.169342 0.174415 0.179368 0.184203 0.188849 0.193238 0.19737 0.201246 0.204865 0.208227 0.211332 0.21418 0.21673 0.21894 0.22081 0.22234 0.22353 0.224379 0.224889 0.225059 0.224889 0.224379 0.22353 0.22234 0.22081 0.21894 0.21673 0.21418 0.211332 0.208227 0.204865 0.201246 0.19737 0.193238 0.188849 0.184203 0.179368 0.174415 0.169342 0.16415 0.158839 0.153409 0.147859 0.14219 0.136474 0.130785 0.125122 0.119486 0.113876 0.108292 0.102734 0.0972032 0.0917525 0.0864362 0.0812544 0.0762071 0.0712942 0.0665159 0.0618719 0.0573625 0.0530092 0.0488335 0.0448355 0.0410153 0.0373727 0.0339078 0.0306206 0.0275111 0.0245588 0.0217429 0.0190635 0.0165207 0.0141143 0.0118445 0.00971112 0.00771429 0.00590626 0.00433929 0.0030134 0.00192857 0.00108482 0.000482143 0.000120536 0 0 0.000136438 0.000545754 0.00122795 0.00218302 0.00341096 0.00491178 0.00668548 0.00873206 0.0109906 0.0134003 0.0159612 0.0186731 0.0215362 0.0245504 0.0277157 0.0310322 0.0345228 0.0382106 0.0420957 0.0461781 0.0504576 0.0549344 0.0596085 0.0644797 0.069524 0.074717 0.0800588 0.0855493 0.0911887 0.0969767 0.102914 0.108999 0.115173 0.121376 0.127607 0.133866 0.140153 0.146469 0.152813 0.159186 0.165506 0.171692 0.177745 0.183664 0.18945 0.195103 0.200621 0.206007 0.211182 0.216071 0.220674 0.22499 0.22902 0.232764 0.236222 0.239393 0.242232 0.244692 0.246774 0.248478 0.249803 0.250749 0.251317 0.251506 0.251317 0.250749 0.249802 0.248478 0.246774 0.244692 0.242232 0.239393 0.236222 0.232764 0.22902 0.22499 0.220674 0.216071 0.211182 0.206007 0.200621 0.195103 0.18945 0.183664 0.177745 0.171692 0.165506 0.159186 0.152813 0.146469 0.140153 0.133866 0.127607 0.121376 0.115173 0.108999 0.102914 0.0969768 0.0911887 0.0855494 0.0800588 0.0747171 0.069524 0.0644798 0.0596085 0.0549345 0.0504577 0.0461782 0.0420958 0.0382107 0.0345229 0.0310323 0.0277158 0.0245505 0.0215363 0.0186732 0.0159613 0.0134004 0.0109907 0.00873212 0.00668553 0.00491182 0.00341099 0.00218303 0.00122795 0.000545758 0.000136439 0 0 0.000152953 0.000611811 0.00137657 0.00244724 0.00382382 0.0055063 0.00749468 0.00978897 0.012319 0.0150147 0.0178759 0.0209028 0.0240952 0.0274533 0.0309769 0.0346662 0.0385466 0.0426438 0.0469577 0.0514883 0.0562356 0.0611996 0.0663804 0.0717779 0.0773652 0.0831154 0.0890284 0.0951044 0.101343 0.107745 0.11431 0.121037 0.127861 0.134716 0.1416 0.148514 0.155459 0.162434 0.169438 0.176473 0.183449 0.190277 0.196957 0.203489 0.209873 0.216108 0.222196 0.228136 0.233843 0.239235 0.244311 0.249071 0.253515 0.257642 0.261454 0.26495 0.26808 0.270792 0.273087 0.274964 0.276425 0.277468 0.278094 0.278303 0.278094 0.277468 0.276425 0.274964 0.273087 0.270792 0.26808 0.26495 0.261454 0.257642 0.253515 0.249071 0.244311 0.239235 0.233843 0.228136 0.222196 0.216108 0.209873 0.203489 0.196957 0.190277 0.183449 0.176473 0.169438 0.162434 0.155459 0.148514 0.1416 0.134716 0.127861 0.121037 0.11431 0.107745 0.101343 0.0951045 0.0890285 0.0831154 0.0773652 0.0717779 0.0663805 0.0611997 0.0562357 0.0514884 0.0469578 0.0426439 0.0385468 0.0346663 0.0309771 0.0274534 0.0240953 0.0209029 0.017876 0.0150148 0.0123191 0.00978904 0.00749473 0.00550634 0.00382384 0.00244726 0.00137658 0.000611815 0.000152954 0 0 0.000170078 0.00068031 0.0015307 0.00272124 0.00425194 0.00612279 0.0083338 0.010885 0.0136962 0.0166873 0.0198585 0.0232095 0.0267405 0.0304515 0.0343424 0.0384132 0.0426921 0.0472072 0.0519584 0.0569458 0.0621693 0.067629 0.0733249 0.0792569 0.0853955 0.0917109 0.0982032 0.104872 0.111718 0.118741 0.125941 0.133318 0.140799 0.148311 0.155855 0.163431 0.171039 0.178678 0.186349 0.194052 0.201689 0.209163 0.216475 0.223623 0.230609 0.237432 0.244093 0.25059 0.256833 0.262731 0.268282 0.273488 0.278348 0.282862 0.28703 0.290852 0.294273 0.297238 0.299747 0.3018 0.303397 0.304537 0.305221 0.305449 0.305221 0.304537 0.303397 0.3018 0.299747 0.297238 0.294273 0.290852 0.28703 0.282862 0.278348 0.273488 0.268282 0.262731 0.256833 0.25059 0.244093 0.237432 0.230609 0.223623 0.216475 0.209163 0.201689 0.194052 0.186349 0.178678 0.171039 0.163431 0.155856 0.148311 0.140799 0.133318 0.125941 0.118741 0.111718 0.104872 0.0982032 0.0917109 0.0853955 0.079257 0.073325 0.0676291 0.0621694 0.0569459 0.0519585 0.0472073 0.0426922 0.0384133 0.0343425 0.0304516 0.0267407 0.0232096 0.0198586 0.0166875 0.0136963 0.010885 0.00833386 0.00612284 0.00425197 0.00272126 0.00153071 0.000680315 0.000170079 0 0 0.000187802 0.00075121 0.00169022 0.00300484 0.00469506 0.00676089 0.00920232 0.0120194 0.0151213 0.0184174 0.0219077 0.0255922 0.0294709 0.0335438 0.0378109 0.0422722 0.0469583 0.0519 0.0570973 0.06255 0.0682584 0.0742223 0.0804417 0.0869167 0.0936149 0.100504 0.107583 0.114853 0.122314 0.129965 0.137808 0.14584 0.153985 0.162163 0.170373 0.178617 0.186893 0.195203 0.203545 0.211921 0.220224 0.228349 0.236296 0.244066 0.251658 0.259072 0.266308 0.273366 0.280148 0.286553 0.292583 0.298237 0.303514 0.308416 0.312942 0.317092 0.320806 0.324025 0.326749 0.328978 0.330711 0.331949 0.332692 0.33294 0.332692 0.331949 0.330711 0.328978 0.326749 0.324025 0.320806 0.317092 0.312942 0.308416 0.303514 0.298237 0.292583 0.286553 0.280148 0.273366 0.266308 0.259072 0.251658 0.244066 0.236296 0.228349 0.220224 0.211921 0.203545 0.195203 0.186893 0.178617 0.170373 0.162163 0.153985 0.145841 0.137808 0.129966 0.122314 0.114853 0.107583 0.100504 0.0936149 0.0869168 0.0804418 0.0742224 0.0682585 0.0625502 0.0570974 0.0519001 0.0469585 0.0422723 0.0378111 0.033544 0.0294711 0.0255924 0.0219079 0.0184175 0.0151214 0.0120194 0.00920239 0.00676094 0.00469509 0.00300486 0.00169023 0.000751215 0.000187804 0 0 0.000206116 0.000824466 0.00185505 0.00329786 0.00515291 0.00742019 0.0100997 0.0131915 0.0165935 0.0202039 0.0240227 0.0280498 0.0322854 0.0367293 0.0413815 0.0462421 0.0513444 0.0567215 0.0623736 0.0683005 0.0745023 0.0809791 0.0877307 0.0947572 0.102023 0.109494 0.117168 0.125047 0.133131 0.141418 0.14991 0.158606 0.167421 0.17627 0.185153 0.194071 0.203022 0.212007 0.221026 0.230079 0.239053 0.247833 0.256421 0.264815 0.273016 0.281025 0.28884 0.296461 0.303784 0.3107 0.317209 0.323313 0.32901 0.334301 0.339186 0.343665 0.347673 0.351147 0.354086 0.356491 0.358361 0.359697 0.360499 0.360766 0.360499 0.359697 0.358361 0.356491 0.354086 0.351147 0.347673 0.343665 0.339186 0.334301 0.32901 0.323313 0.317209 0.3107 0.303784 0.296461 0.28884 0.281025 0.273016 0.264815 0.256421 0.247833 0.239053 0.230079 0.221026 0.212007 0.203022 0.194071 0.185153 0.17627 0.167421 0.158606 0.14991 0.141418 0.133131 0.125047 0.117168 0.109494 0.102023 0.0947573 0.0877308 0.0809792 0.0745025 0.0683006 0.0623737 0.0567217 0.0513445 0.0462423 0.0413817 0.0367294 0.0322855 0.02805 0.0240228 0.0202041 0.0165936 0.0131915 0.0100998 0.00742025 0.00515295 0.00329789 0.00185506 0.000824472 0.000206118 0 0 0.00022502 0.000900079 0.00202518 0.00360031 0.00562549 0.00810071 0.011026 0.0144013 0.0181128 0.0220468 0.0262034 0.0305823 0.0351838 0.0400077 0.0450542 0.0503231 0.0558503 0.0616717 0.0677874 0.0741972 0.0809012 0.0878994 0.0951918 0.102778 0.110621 0.118681 0.126959 0.135455 0.144168 0.153099 0.162247 0.171614 0.181106 0.190634 0.200196 0.209793 0.219424 0.22909 0.238792 0.248527 0.258176 0.267616 0.276848 0.285871 0.294685 0.30329 0.311687 0.319875 0.327741 0.335169 0.342161 0.348716 0.354835 0.360517 0.365762 0.37057 0.374873 0.378602 0.381758 0.384339 0.386347 0.387782 0.388642 0.388929 0.388642 0.387782 0.386347 0.384339 0.381758 0.378602 0.374873 0.37057 0.365762 0.360517 0.354835 0.348716 0.342161 0.335169 0.327741 0.319875 0.311687 0.30329 0.294685 0.285871 0.276848 0.267616 0.258176 0.248527 0.238792 0.22909 0.219424 0.209793 0.200196 0.190634 0.181106 0.171614 0.162248 0.153099 0.144168 0.135455 0.126959 0.118681 0.110621 0.102778 0.0951919 0.0878995 0.0809013 0.0741973 0.0677875 0.0616719 0.0558505 0.0503232 0.0450544 0.0400079 0.035184 0.0305825 0.0262035 0.022047 0.0181129 0.0144014 0.011026 0.00810076 0.00562553 0.00360034 0.00202519 0.000900085 0.000225021 0 0 0.000244512 0.000978048 0.00220061 0.00391219 0.0061128 0.00880243 0.0119811 0.0156488 0.0196792 0.0239462 0.0284497 0.0331897 0.0381662 0.0433793 0.0488289 0.054515 0.0604761 0.0667506 0.0733386 0.08024 0.0874549 0.0949832 0.102825 0.11098 0.119408 0.128066 0.136955 0.146075 0.155426 0.165008 0.174821 0.184864 0.195041 0.205253 0.2155 0.225783 0.236101 0.246453 0.256842 0.267265 0.277594 0.287698 0.297577 0.307232 0.316663 0.325869 0.334851 0.343608 0.352019 0.359962 0.367439 0.374447 0.380989 0.387062 0.392669 0.397808 0.402406 0.406392 0.409764 0.412523 0.414669 0.416202 0.417122 0.417429 0.417122 0.416202 0.414669 0.412523 0.409764 0.406392 0.402406 0.397808 0.392669 0.387062 0.380988 0.374447 0.367438 0.359962 0.352019 0.343608 0.334851 0.325869 0.316663 0.307232 0.297577 0.287698 0.277594 0.267265 0.256842 0.246453 0.236101 0.225783 0.215501 0.205253 0.195041 0.184865 0.174821 0.165008 0.155426 0.146075 0.136955 0.128066 0.119408 0.11098 0.102825 0.0949833 0.087455 0.0802402 0.0733388 0.0667508 0.0604763 0.0545152 0.0488291 0.0433795 0.0381664 0.0331899 0.0284499 0.0239464 0.0196794 0.0156489 0.0119812 0.00880249 0.00611284 0.00391222 0.00220062 0.000978055 0.000244514 0 0 0.000264593 0.00105837 0.00238134 0.0042335 0.00661484 0.00952536 0.0129651 0.016934 0.0212927 0.025902 0.0307617 0.035872 0.0412327 0.0468439 0.0527057 0.0588179 0.0652217 0.0719582 0.0790273 0.0864291 0.0941635 0.102231 0.11063 0.119363 0.128383 0.137648 0.147156 0.156909 0.166905 0.177145 0.18763 0.198358 0.209226 0.220129 0.231067 0.242042 0.253051 0.264096 0.275176 0.286292 0.297305 0.308078 0.318609 0.328901 0.338951 0.348761 0.35833 0.367659 0.376618 0.385079 0.393041 0.400505 0.407471 0.413938 0.419907 0.425378 0.430273 0.434516 0.438106 0.441043 0.443327 0.444959 0.445938 0.446264 0.445938 0.444959 0.443327 0.441043 0.438106 0.434516 0.430273 0.425378 0.419907 0.413938 0.407471 0.400505 0.393041 0.385079 0.376618 0.367659 0.35833 0.348761 0.338951 0.328901 0.318609 0.308078 0.297305 0.286292 0.275176 0.264096 0.253051 0.242042 0.231067 0.220129 0.209226 0.198358 0.18763 0.177145 0.166905 0.156909 0.147156 0.137648 0.128383 0.119363 0.11063 0.102231 0.0941636 0.0864292 0.0790275 0.0719584 0.0652219 0.0588181 0.0527059 0.0468442 0.0412329 0.0358722 0.0307619 0.0259021 0.0212929 0.0169341 0.0129652 0.00952543 0.00661488 0.00423353 0.00238136 0.00105838 0.000264595 0 0 0.000285264 0.00114106 0.00256738 0.00456423 0.0071316 0.0102695 0.0139779 0.0182569 0.0229533 0.0279142 0.0331394 0.0386291 0.0443832 0.0504016 0.0566845 0.0632318 0.0700872 0.0772945 0.0848535 0.0927643 0.101027 0.109641 0.118608 0.127926 0.137548 0.147427 0.157563 0.167956 0.178605 0.189511 0.200674 0.212094 0.223659 0.23526 0.246897 0.258568 0.270275 0.282018 0.293796 0.305609 0.317311 0.328756 0.339944 0.350875 0.361549 0.371966 0.382126 0.392029 0.401538 0.410519 0.418969 0.426891 0.434282 0.441145 0.447478 0.453281 0.458474 0.462974 0.466782 0.469898 0.472321 0.474052 0.47509 0.475437 0.47509 0.474052 0.472321 0.469898 0.466782 0.462974 0.458474 0.453281 0.447478 0.441145 0.434282 0.426891 0.418969 0.410519 0.401538 0.392029 0.382126 0.371966 0.361549 0.350875 0.339944 0.328756 0.317311 0.305609 0.293796 0.282018 0.270275 0.258568 0.246897 0.23526 0.223659 0.212094 0.200674 0.189511 0.178605 0.167956 0.157563 0.147427 0.137548 0.127926 0.118608 0.109642 0.101027 0.0927645 0.0848537 0.0772947 0.0700875 0.0632321 0.0566848 0.0504019 0.0443834 0.0386293 0.0331396 0.0279144 0.0229535 0.018257 0.013978 0.0102696 0.00713165 0.00456426 0.0025674 0.00114106 0.000285266 0 0 0.000306524 0.0012261 0.00275872 0.00490438 0.0076631 0.0110349 0.0150197 0.0196175 0.024661 0.0299828 0.0355828 0.0414611 0.0476176 0.0540524 0.0607654 0.0677567 0.0750726 0.0827594 0.0908171 0.0992458 0.108045 0.117216 0.126757 0.136669 0.146902 0.157404 0.168175 0.179216 0.190526 0.202105 0.213954 0.226072 0.238343 0.250648 0.262988 0.275364 0.287774 0.300219 0.3127 0.325215 0.337611 0.349733 0.361581 0.373156 0.384457 0.395484 0.406238 0.416717 0.42678 0.436282 0.445223 0.453603 0.461423 0.468682 0.47538 0.481517 0.487008 0.491767 0.495794 0.499088 0.501651 0.503481 0.504579 0.504945 0.504579 0.503481 0.501651 0.499088 0.495794 0.491767 0.487008 0.481517 0.47538 0.468682 0.461423 0.453603 0.445223 0.436282 0.42678 0.416717 0.406238 0.395484 0.384457 0.373156 0.361581 0.349733 0.337611 0.325215 0.3127 0.300219 0.287774 0.275364 0.262988 0.250648 0.238343 0.226072 0.213954 0.202105 0.190526 0.179216 0.168175 0.157404 0.146902 0.13667 0.126757 0.117216 0.108045 0.0992459 0.0908173 0.0827596 0.0750728 0.067757 0.0607657 0.0540527 0.0476179 0.0414613 0.035583 0.029983 0.0246612 0.0196177 0.0150198 0.0110349 0.00766315 0.00490442 0.00275873 0.0012261 0.000306526 0 0 0.000328373 0.00131349 0.00295536 0.00525397 0.00820932 0.0118214 0.0160903 0.0210159 0.0264158 0.0321079 0.0380919 0.044368 0.0509361 0.0577962 0.0649484 0.0723926 0.0801778 0.088353 0.0969182 0.105873 0.115219 0.124954 0.135079 0.145594 0.156445 0.167578 0.178992 0.190689 0.202667 0.214927 0.227469 0.240293 0.253275 0.266291 0.279342 0.292427 0.305546 0.3187 0.331888 0.34511 0.358205 0.371008 0.383521 0.395743 0.407675 0.419315 0.430665 0.441725 0.452343 0.462368 0.471802 0.480643 0.488892 0.496549 0.503613 0.510086 0.515876 0.52089