<?xml version="1.0"?> 
<VTKFile type="StructuredGrid" version="0.1"> 
<StructuredGrid WholeExtent="0 128 0 128 0 0"> 
<Piece Extent="0 128 0 128 0 0"> 
<PointData>
<DataArray type="Float32" Name="u" format="ascii" NumberOfComponents="1"> 
0 0 0 0 0 0 0 0 0 0 0 0 0 0 0 0 0 0 0 0 0 0 0 0 0 0 0 0 0 0 0 0 0 0 0 0 0 0 0 0 0 0 0 0 0 0 0 0 0 0 0 0 0 0 0 0 0 0 0 0 0 0 0 0 0 0 0 0 0 0 0 0 0 0 0 0 0 0 0 0 0 0 0 0 0 0 0 0 0 0 0 0 0 0 0 0 0 0 0 0 0 0 0 0 0 0 0 0 0 0 0 0 0 0 0 0 0 0 0 0 0 0 0 0 0 0 0 0 0 0 1.23268e-05 4.93071e-05 0.000110941 0.000197228 0.000308169 0.000443764 0.000604012 0.000788914 0.000985368 0.00118028 0.00137364 0.00156545 0.00175572 0.00194444 0.00213161 0.00231724 0.00250046 0.00268042 0.00285713 0.00303057 0.00320075 0.00336767 0.00353133 0.00369173 0.00384748 0.00399721 0.0041409 0.00427856 0.00441018 0.00453578 0.00465534 0.00476888 0.00487644 0.00497809 0.00507384 0.00516368 0.00524761 0.00532564 0.00539775 0.00546396 0.00552511 0.00558203 0.00563474 0.00568323 0.0057275 0.00576754 0.00580337 0.00583498 0.00586329 0.00588921 0.00591274 0.00593388 0.00595263 0.00596899 0.00598297 0.00599455 0.00600429 0.00601274 0.00601988 0.00602573 0.00603027 0.00603352 0.00603547 0.00603612 0.00603547 0.00603352 0.00603027 0.00602573 0.00601988 0.00601274 0.0060043 0.00599456 0.00598297 0.005969 0.00595264 0.00593389 0.00591275 0.00588922 0.0058633 0.005835 0.00580339 0.00576756 0.00572752 0.00568325 0.00563477 0.00558206 0.00552514 0.00546399 0.00539779 0.00532567 0.00524765 0.00516372 0.00507389 0.00497814 0.00487649 0.00476893 0.0046554 0.00453584 0.00441025 0.00427863 0.00414097 0.00399729 0.00384757 0.00369182 0.00353142 0.00336776 0.00320085 0.00303067 0.00285723 0.00268053 0.00250057 0.00231735 0.00213173 0.00194456 0.00175583 0.00156556 0.00137374 0.00118037 0.000985447 0.000788977 0.00060406 0.0004438 0.000308194 0.000197244 0.00011095 4.93111e-05 1.23278e-05 0 0 4.93071e-05 0.000197228 0.000443764 0.000788914 0.00123268 0.00177506 0.00241605 0.00315565 0.00394147 0.00472111 0.00549455 0.00626181 0.00702287 0.00777776 0.00852645 0.00926895 0.0100018 0.0107217 0.0114285 0.0121223 0.012803 0.0134707 0.0141253 0.0147669 0.0153899 0.0159888 0.0165636 0.0171142 0.0176407 0.0181431 0.0186214 0.0190755 0.0195058 0.0199124 0.0202954 0.0206547 0.0209905 0.0213025 0.021591 0.0218558 0.0221004 0.0223281 0.022539 0.0227329 0.02291 0.0230702 0.0232135 0.0233399 0.0234532 0.0235568 0.0236509 0.0237355 0.0238105 0.023876 0.0239319 0.0239782 0.0240172 0.0240509 0.0240795 0.0241029 0.0241211 0.0241341 0.0241419 0.0241445 0.0241419 0.0241341 0.0241211 0.0241029 0.0240795 0.024051 0.0240172 0.0239782 0.0239319 0.023876 0.0238105 0.0237355 0.023651 0.0235569 0.0234532 0.02334 0.0232136 0.0230703 0.0229101 0.022733 0.0225391 0.0223282 0.0221005 0.021856 0.0215912 0.0213027 0.0209906 0.0206549 0.0202956 0.0199126 0.019506 0.0190757 0.0186216 0.0181434 0.017641 0.0171145 0.0165639 0.0159891 0.0153903 0.0147673 0.0141257 0.0134711 0.0128034 0.0121227 0.0114289 0.0107221 0.0100023 0.00926942 0.00852692 0.00777822 0.00702333 0.00626224 0.00549495 0.00472147 0.00394179 0.00315591 0.00241624 0.0017752 0.00123278 0.000788977 0.0004438 0.000197244 4.93111e-05 0 0 0.000110941 0.000443764 0.000998469 0.00177506 0.00277352 0.00399387 0.00543611 0.00710022 0.00886832 0.0106225 0.0123627 0.0140891 0.0158015 0.0174999 0.0191845 0.0208551 0.0225041 0.0241238 0.0257141 0.0272751 0.0288067 0.030309 0.031782 0.0332256 0.0346274 0.0359749 0.0372681 0.038507 0.0396917 0.040822 0.0418981 0.0429199 0.043888 0.0448028 0.0456646 0.0464731 0.0472285 0.0479307 0.0485798 0.0491757 0.049726 0.0502383 0.0507127 0.051149 0.0515475 0.0519079 0.0522304 0.0525149 0.0527696 0.0530029 0.0532146 0.0534049 0.0535736 0.0537209 0.0538467 0.053951 0.0540386 0.0541146 0.0541789 0.0542315 0.0542724 0.0543017 0.0543192 0.0543251 0.0543192 0.0543017 0.0542725 0.0542316 0.054179 0.0541147 0.0540387 0.053951 0.0538467 0.053721 0.0535737 0.053405 0.0532147 0.053003 0.0527697 0.052515 0.0522305 0.0519081 0.0515476 0.0511493 0.0507129 0.0502385 0.0497262 0.0491759 0.0485801 0.0479311 0.0472289 0.0464735 0.045665 0.0448033 0.0438884 0.0429204 0.0418986 0.0408226 0.0396923 0.0385077 0.0372688 0.0359756 0.0346281 0.0332264 0.0317828 0.0303099 0.0288076 0.027276 0.0257151 0.0241248 0.0225052 0.0208562 0.0191856 0.017501 0.0158025 0.01409 0.0123636 0.0106233 0.00886902 0.00710079 0.00543654 0.0039942 0.00277375 0.0017752 0.000998549 0.0004438 0.00011095 0 0 0.000197228 0.000788914 0.00177506 0.00315565 0.00493071 0.00710022 0.00966419 0.0126226 0.0157659 0.0188844 0.0219782 0.0250472 0.0280915 0.031111 0.0341058 0.0370758 0.0400074 0.0428868 0.045714 0.0484891 0.051212 0.0538827 0.0565013 0.0590677 0.0615597 0.0639553 0.0662544 0.0684569 0.0705629 0.0725725 0.0744855 0.076302 0.078023 0.0796495 0.0811815 0.0826189 0.0839618 0.0852102 0.0863641 0.0874234 0.0884017 0.0893125 0.0901558 0.0909316 0.0916399 0.0922807 0.092854 0.0933597 0.0938126 0.0942273 0.0946038 0.094942 0.095242 0.0955039 0.0957274 0.0959128 0.0960687 0.0962038 0.0963181 0.0964116 0.0964843 0.0965363 0.0965675 0.0965779 0.0965675 0.0965363 0.0964844 0.0964116 0.0963181 0.0962038 0.0960688 0.0959129 0.0957276 0.095504 0.0952422 0.0949422 0.094604 0.0942275 0.0938129 0.09336 0.0928543 0.092281 0.0916403 0.090932 0.0901562 0.089313 0.0884022 0.0874239 0.0863646 0.0852108 0.0839625 0.0826196 0.0811822 0.0796503 0.0780239 0.0763029 0.0744865 0.0725735 0.070564 0.0684581 0.0662556 0.0639566 0.0615611 0.0590691 0.0565027 0.0538842 0.0512136 0.0484907 0.0457157 0.0428885 0.0400092 0.0370777 0.0341077 0.0311129 0.0280933 0.025049 0.0219798 0.0188859 0.0157671 0.0126236 0.00966497 0.00710079 0.00493111 0.00315591 0.0017752 0.000788977 0.000197244 0 0 0.000308169 0.00123268 0.00277352 0.00493071 0.00770423 0.0110941 0.0151003 0.0197228 0.0246342 0.0295069 0.0343409 0.0391363 0.043893 0.048611 0.0532903 0.057931 0.0625115 0.0670106 0.0714281 0.0757642 0.0800187 0.0841917 0.0882832 0.0922932 0.0961871 0.0999302 0.103522 0.106964 0.110255 0.113394 0.116384 0.119222 0.121911 0.124452 0.126846 0.129092 0.13119 0.133141 0.134944 0.136599 0.138128 0.139551 0.140868 0.142081 0.143187 0.144189 0.145084 0.145875 0.146582 0.14723 0.147818 0.148347 0.148816 0.149225 0.149574 0.149864 0.150107 0.150318 0.150497 0.150643 0.150757 0.150838 0.150887 0.150903 0.150887 0.150838 0.150757 0.150643 0.150497 0.150319 0.150107 0.149864 0.149574 0.149225 0.148816 0.148347 0.147819 0.14723 0.146583 0.145875 0.145085 0.144189 0.143188 0.142081 0.140869 0.139552 0.138128 0.1366 0.134945 0.133142 0.131191 0.129093 0.126847 0.124454 0.121912 0.119223 0.116385 0.113396 0.110256 0.106966 0.103524 0.0999322 0.0961892 0.0922954 0.0882855 0.0841941 0.0800212 0.0757667 0.0714308 0.0670133 0.0625143 0.0579338 0.0532932 0.0486139 0.0438958 0.039139 0.0343434 0.0295092 0.0246362 0.0197244 0.0151015 0.011095 0.00770485 0.00493111 0.00277375 0.00123278 0.000308194 0 0 0.000443764 0.00177506 0.00399387 0.00710022 0.0110941 0.0159755 0.0217444 0.0284009 0.0354733 0.04249 0.0494509 0.0563563 0.0632059 0.0699998 0.076738 0.0834206 0.0900166 0.0964952 0.102857 0.1091 0.115227 0.121236 0.127128 0.132902 0.138509 0.143899 0.149072 0.154028 0.158767 0.163288 0.167592 0.17168 0.175552 0.179211 0.182658 0.185893 0.188914 0.191723 0.194319 0.196703 0.198904 0.200953 0.202851 0.204596 0.20619 0.207632 0.208921 0.210059 0.211078 0.212011 0.212858 0.21362 0.214295 0.214884 0.215387 0.215804 0.216155 0.216458 0.216716 0.216926 0.21709 0.217207 0.217277 0.2173 0.217277 0.217207 0.21709 0.216926 0.216716 0.216459 0.216155 0.215804 0.215387 0.214884 0.214295 0.21362 0.212859 0.212012 0.211079 0.21006 0.208922 0.207632 0.206191 0.204597 0.202852 0.200954 0.198905 0.196704 0.19432 0.191724 0.188916 0.185894 0.18266 0.179213 0.175554 0.171682 0.167595 0.16329 0.158769 0.154031 0.149075 0.143902 0.138512 0.132905 0.127131 0.12124 0.115231 0.109104 0.10286 0.0964992 0.0900207 0.0834247 0.0767423 0.070004 0.06321 0.0563601 0.0494546 0.0424932 0.0354761 0.0284032 0.0217462 0.0159768 0.011095 0.00710079 0.0039942 0.0017752 0.0004438 0 0 0.000604012 0.00241605 0.00543611 0.00966419 0.0151003 0.0217444 0.0295966 0.0386568 0.0482831 0.0578335 0.0673082 0.0767071 0.0860302 0.0952775 0.104449 0.113545 0.122523 0.131341 0.139999 0.148498 0.156837 0.165016 0.173035 0.180895 0.188527 0.195863 0.202904 0.209649 0.216099 0.222253 0.228112 0.233675 0.238946 0.243927 0.248618 0.25302 0.257133 0.260956 0.26449 0.267734 0.27073 0.27352 0.276102 0.278478 0.280647 0.28261 0.284365 0.285914 0.287301 0.288571 0.289724 0.29076 0.291679 0.292481 0.293165 0.293733 0.29421 0.294624 0.294974 0.295261 0.295483 0.295642 0.295738 0.29577 0.295738 0.295643 0.295483 0.295261 0.294974 0.294624 0.294211 0.293733 0.293166 0.292481 0.291679 0.29076 0.289725 0.288572 0.287302 0.285915 0.284366 0.282611 0.280648 0.278479 0.276103 0.273521 0.270732 0.267736 0.264492 0.260958 0.257135 0.253022 0.248621 0.243929 0.238948 0.233678 0.228115 0.222256 0.216102 0.209653 0.202908 0.195867 0.188531 0.180899 0.17304 0.16502 0.156842 0.148503 0.140004 0.131346 0.122528 0.11355 0.104455 0.0952832 0.0860358 0.0767124 0.0673132 0.057838 0.0482869 0.0386599 0.029599 0.0217462 0.0151015 0.00966497 0.00543654 0.00241624 0.00060406 0 0 0.000788914 0.00315565 0.00710022 0.0126226 0.0197228 0.0284009 0.0386568 0.0504905 0.0630636 0.0755377 0.0879128 0.100189 0.112366 0.124444 0.136423 0.148303 0.16003 0.171547 0.182856 0.193956 0.204848 0.215531 0.226005 0.236271 0.246239 0.255821 0.265017 0.273828 0.282252 0.29029 0.297942 0.305208 0.312092 0.318598 0.324726 0.330476 0.335847 0.340841 0.345456 0.349694 0.353607 0.35725 0.360623 0.363727 0.36656 0.369123 0.371416 0.373439 0.375251 0.376909 0.378415 0.379768 0.380968 0.382015 0.38291 0.383651 0.384275 0.384815 0.385272 0.385646 0.385937 0.386145 0.38627 0.386312 0.38627 0.386145 0.385938 0.385647 0.385273 0.384815 0.384275 0.383652 0.38291 0.382016 0.380969 0.379769 0.378416 0.37691 0.375251 0.37344 0.371417 0.369124 0.366561 0.363728 0.360625 0.357252 0.353609 0.349696 0.345458 0.340843 0.33585 0.330478 0.324729 0.318601 0.312096 0.305212 0.297946 0.290294 0.282256 0.273832 0.265022 0.255826 0.246244 0.236276 0.226011 0.215537 0.204854 0.193963 0.182863 0.171554 0.160037 0.148311 0.136431 0.124452 0.112373 0.100196 0.0879192 0.0755435 0.0630686 0.0504945 0.0386599 0.0284032 0.0197244 0.0126236 0.00710079 0.00315591 0.000788977 0 0 0.000985362 0.00394145 0.00886826 0.0157658 0.0246341 0.035473 0.0482828 0.0630632 0.0787667 0.0943455 0.1098 0.125129 0.140334 0.155415 0.17037 0.185202 0.19984 0.214216 0.228332 0.242186 0.255778 0.269109 0.282179 0.294987 0.307424 0.319378 0.330849 0.341838 0.352345 0.362369 0.37191 0.38097 0.389552 0.397662 0.4053 0.412466 0.41916 0.425383 0.431133 0.436411 0.441285 0.445823 0.450024 0.453888 0.457415 0.460606 0.46346 0.465977 0.468231 0.470294 0.472167 0.47385 0.475343 0.476645 0.477757 0.478678 0.479453 0.480125 0.480693 0.481158 0.481519 0.481777 0.481932 0.481984 0.481932 0.481777 0.481519 0.481158 0.480693 0.480125 0.479454 0.478679 0.477757 0.476646 0.475343 0.473851 0.472168 0.470295 0.468232 0.465978 0.463461 0.460607 0.457417 0.453889 0.450026 0.445825 0.441288 0.436414 0.431136 0.425386 0.419164 0.41247 0.405304 0.397666 0.389556 0.380974 0.371915 0.362374 0.35235 0.341844 0.330855 0.319384 0.30743 0.294994 0.282186 0.269117 0.255786 0.242194 0.22834 0.214225 0.199849 0.185211 0.17038 0.155424 0.140343 0.125138 0.109808 0.0943527 0.0787729 0.0630682 0.0482866 0.0354759 0.024636 0.0157671 0.00886897 0.00394177 0.000985441 0 0 0.00118025 0.00472101 0.0106223 0.018884 0.0295063 0.0424891 0.0578324 0.0755362 0.0943442 0.113 0.131504 0.149856 0.168057 0.186105 0.204001 0.221745 0.239256 0.256451 0.273331 0.289896 0.306145 0.322079 0.337698 0.353001 0.367858 0.382136 0.395835 0.408956 0.421497 0.433461 0.444845 0.455651 0.465885 0.475554 0.484659 0.4932 0.501176 0.508588 0.515435 0.521718 0.527518 0.532916 0.537912 0.542507 0.546701 0.550493 0.553883 0.556871 0.559546 0.561995 0.564217 0.566213 0.567982 0.569526 0.570843 0.571934 0.572851 0.573645 0.574318 0.574868 0.575295 0.575601 0.575784 0.575846 0.575785 0.575601 0.575296 0.574868 0.574318 0.573646 0.572851 0.571935 0.570844 0.569527 0.567983 0.566214 0.564218 0.561996 0.559547 0.556873 0.553884 0.550494 0.546703 0.54251 0.537915 0.532918 0.527521 0.521721 0.515439 0.508592 0.50118 0.493204 0.484664 0.475559 0.46589 0.455656 0.444851 0.433467 0.421504 0.408962 0.395842 0.382144 0.367866 0.35301 0.337707 0.322088 0.306154 0.289905 0.273341 0.256461 0.239266 0.221756 0.204012 0.186116 0.168067 0.149867 0.131514 0.113009 0.0943516 0.0755421 0.0578369 0.0424925 0.0295086 0.0188855 0.0106231 0.00472138 0.00118035 0 0 0.00137358 0.00549433 0.0123623 0.0219773 0.0343396 0.049449 0.0673056 0.0879093 0.109796 0.131502 0.153026 0.17437 0.195533 0.216514 0.237314 0.257934 0.278277 0.29825 0.317853 0.337086 0.355948 0.37444 0.392562 0.410313 0.427542 0.444096 0.459976 0.47518 0.48971 0.503565 0.516745 0.529251 0.541091 0.552275 0.562804 0.572678 0.581895 0.590457 0.598363 0.605614 0.612304 0.618529 0.62429 0.629586 0.634417 0.638784 0.642685 0.646122 0.649197 0.65201 0.654563 0.656856 0.658887 0.660658 0.662169 0.663419 0.664468 0.665378 0.666147 0.666777 0.667267 0.667616 0.667826 0.667896 0.667826 0.667617 0.667267 0.666777 0.666148 0.665378 0.664469 0.663419 0.66217 0.660659 0.658888 0.656857 0.654565 0.652012 0.649198 0.646124 0.642687 0.638786 0.63442 0.629589 0.624293 0.618532 0.612307 0.605617 0.598367 0.590461 0.581899 0.572682 0.562809 0.552281 0.541097 0.529257 0.516752 0.503572 0.489717 0.475188 0.459984 0.444105 0.427551 0.410323 0.392572 0.374451 0.355959 0.337097 0.317865 0.298262 0.278289 0.257946 0.237327 0.216527 0.195545 0.174382 0.153037 0.131512 0.109805 0.0879162 0.0673108 0.0494529 0.0343423 0.0219791 0.0123632 0.00549476 0.00137369 0 0 0.00156536 0.00626142 0.0140882 0.0250457 0.0391339 0.0563528 0.0767024 0.100183 0.125122 0.14985 0.174366 0.19867 0.222762 0.246642 0.270311 0.293767 0.316904 0.339615 0.361899 0.383757 0.405188 0.426193 0.446771 0.466923 0.486476 0.505259 0.523271 0.540512 0.556983 0.572682 0.587612 0.60177 0.61517 0.627825 0.639735 0.650898 0.661316 0.670989 0.679916 0.688098 0.695644 0.702663 0.709156 0.715123 0.720564 0.725479 0.729868 0.73373 0.737182 0.740341 0.743207 0.745779 0.748057 0.750042 0.751734 0.753132 0.754304 0.755321 0.756181 0.756885 0.757432 0.757823 0.758058 0.758136 0.758058 0.757824 0.757433 0.756885 0.756182 0.755322 0.754305 0.753132 0.751734 0.750043 0.748058 0.74578 0.743208 0.740343 0.737184 0.733732 0.72987 0.725481 0.720567 0.715126 0.709159 0.702666 0.695647 0.688102 0.679921 0.670994 0.661321 0.650904 0.63974 0.627831 0.615177 0.601777 0.587619 0.57269 0.556991 0.540521 0.52328 0.505269 0.486487 0.466934 0.446783 0.426205 0.4052 0.383769 0.361912 0.339628 0.316918 0.293781 0.270325 0.246657 0.222776 0.198683 0.174378 0.149861 0.125132 0.10019 0.0767083 0.0563571 0.0391369 0.0250476 0.0140893 0.0062619 0.00156548 0 0 0.00175557 0.00702227 0.0158001 0.0280891 0.0438892 0.0632005 0.0860228 0.112356 0.140323 0.168046 0.195523 0.222757 0.249746 0.27649 0.30299 0.329246 0.355137 0.380545 0.405468 0.429908 0.453865 0.477337 0.500326 0.52283 0.54466 0.565623 0.58572 0.604951 0.623315 0.640813 0.657444 0.673209 0.688123 0.702204 0.71545 0.727862 0.739441 0.750185 0.760095 0.769171 0.777537 0.785317 0.792511 0.79912 0.805142 0.810579 0.815429 0.819694 0.823503 0.826988 0.830148 0.832982 0.835492 0.837677 0.839538 0.841073 0.84236 0.843476 0.84442 0.845192 0.845793 0.846222 0.84648 0.846565 0.84648 0.846222 0.845793 0.845193 0.84442 0.843477 0.842361 0.841074 0.839539 0.837679 0.835494 0.832984 0.830149 0.82699 0.823505 0.819696 0.815432 0.810581 0.805145 0.799123 0.792515 0.785321 0.777541 0.769175 0.7601 0.75019 0.739446 0.727868 0.715456 0.70221 0.68813 0.673216 0.657452 0.640821 0.623324 0.604961 0.585731 0.565634 0.544672 0.522842 0.500338 0.47735 0.453878 0.429922 0.405483 0.380559 0.355152 0.329261 0.303006 0.276506 0.249761 0.222771 0.195537 0.168058 0.140334 0.112365 0.0860294 0.0632052 0.0438925 0.0280912 0.0158013 0.00702281 0.0017557 0 0 0.00194422 0.00777689 0.017498 0.0311076 0.0486056 0.069992 0.0952669 0.12443 0.155398 0.186088 0.216498 0.24663 0.276483 0.306057 0.335353 0.364369 0.392976 0.421039 0.448561 0.47554 0.501978 0.527873 0.553225 0.578036 0.602094 0.62519 0.647324 0.668497 0.688707 0.707956 0.726242 0.743566 0.759949 0.775411 0.789951 0.80357 0.816268 0.828044 0.838899 0.848833 0.857984 0.866492 0.874355 0.881575 0.88815 0.894082 0.89937 0.904015 0.908159 0.91195 0.915385 0.918466 0.921193 0.923564 0.925581 0.927243 0.928636 0.929842 0.930863 0.931699 0.932348 0.932812 0.933091 0.933184 0.933091 0.932813 0.932349 0.931699 0.930864 0.929843 0.928636 0.927244 0.925582 0.923565 0.921194 0.918468 0.915387 0.911952 0.908161 0.904017 0.899373 0.894085 0.888153 0.881578 0.874359 0.866496 0.857989 0.848838 0.838904 0.82805 0.816274 0.803576 0.789958 0.775418 0.759957 0.743575 0.726251 0.707965 0.688717 0.668507 0.647336 0.625202 0.602106 0.578048 0.553239 0.527887 0.501992 0.475556 0.448577 0.421056 0.392992 0.364386 0.33537 0.306074 0.2765 0.246646 0.216513 0.186101 0.15541 0.124439 0.095274 0.0699972 0.0486092 0.0311099 0.0174993 0.00777747 0.00194437 0 0 0.00213132 0.00852527 0.0191819 0.0341011 0.0532829 0.0767274 0.104435 0.136404 0.170348 0.203977 0.237291 0.27029 0.302974 0.335344 0.367398 0.399138 0.43042 0.461099 0.491177 0.520653 0.549527 0.577799 0.60547 0.632538 0.658777 0.683959 0.708083 0.73115 0.753159 0.774111 0.794006 0.812844 0.830649 0.847447 0.863237 0.878021 0.891797 0.904567 0.916329 0.927084 0.936985 0.946186 0.954687 0.962488 0.969589 0.97599 0.981691 0.986692 0.991151 0.995227 0.99892 1.00223 1.00516 1.0077 1.00986 1.01164 1.01313 1.01442 1.01551 1.0164 1.0171 1.01759 1.01789 1.01799 1.01789 1.01759 1.0171 1.0164 1.01551 1.01442 1.01313 1.01164 1.00986 1.0077 1.00516 1.00223 0.998922 0.995229 0.991153 0.986694 0.981694 0.975993 0.969593 0.962492 0.954691 0.946191 0.93699 0.927089 0.916334 0.904573 0.891804 0.878028 0.863245 0.847454 0.830657 0.812853 0.794016 0.774122 0.75317 0.731161 0.708095 0.683971 0.658791 0.632552 0.605484 0.577815 0.549543 0.520669 0.491194 0.461117 0.430438 0.399156 0.367417 0.335362 0.302992 0.270307 0.237307 0.203991 0.17036 0.136414 0.104442 0.076733 0.0532868 0.0341036 0.0191833 0.00852589 0.00213147 0 0 0.00231685 0.00926741 0.0208517 0.0370697 0.0579213 0.0834067 0.113526 0.148279 0.185172 0.221713 0.257901 0.293736 0.329219 0.364349 0.399127 0.433552 0.46747 0.500724 0.533317 0.565246 0.596513 0.627118 0.65706 0.686339 0.71471 0.74193 0.767996 0.79291 0.816671 0.83928 0.860736 0.88104 0.900221 0.918311 0.935309 0.951215 0.96603 0.979753 0.992384 1.00392 1.01454 1.0244 1.03351 1.04186 1.04946 1.0563 1.06239 1.06773 1.07248 1.07682 1.08075 1.08427 1.08739 1.09009 1.09239 1.09427 1.09584 1.09721 1.09836 1.09931 1.10004 1.10057 1.10088 1.10099 1.10088 1.10057 1.10004 1.09931 1.09836 1.09721 1.09585 1.09427 1.09239 1.09009 1.08739 1.08428 1.08075 1.07682 1.07248 1.06773 1.06239 1.05631 1.04946 1.04186 1.03351 1.02441 1.01454 1.00393 0.99239 0.979759 0.966037 0.951223 0.935317 0.918319 0.90023 0.881049 0.860746 0.839291 0.816683 0.792922 0.768009 0.741943 0.714725 0.686354 0.657075 0.627134 0.59653 0.565264 0.533335 0.500743 0.467488 0.433572 0.399147 0.364369 0.329238 0.293754 0.257918 0.221728 0.185185 0.148289 0.113534 0.0834127 0.0579255 0.0370723 0.0208532 0.00926808 0.00231702 0 0 0.00249997 0.00999989 0.0224997 0.0399995 0.0624993 0.089999 0.122499 0.159998 0.199802 0.239214 0.278234 0.316862 0.355098 0.392942 0.430395 0.467456 0.503958 0.539736 0.57479 0.609119 0.642724 0.675604 0.70776 0.739192 0.769637 0.798835 0.826786 0.853489 0.878945 0.903153 0.926114 0.947827 0.96833 0.987658 1.00581 1.02279 1.03859 1.05322 1.06668 1.07896 1.09025 1.10073 1.11041 1.11928 1.12734 1.13459 1.14104 1.14668 1.1517 1.15628 1.16043 1.16415 1.16743 1.17028 1.17269 1.17467 1.17632 1.17775 1.17896 1.17995 1.18072 1.18127 1.1816 1.18171 1.1816 1.18127 1.18072 1.17995 1.17896 1.17775 1.17632 1.17467 1.17269 1.17028 1.16743 1.16415 1.16044 1.15629 1.1517 1.14668 1.14104 1.13459 1.12734 1.11928 1.11041 1.10074 1.09025 1.07896 1.06668 1.05323 1.0386 1.0228 1.00582 0.987667 0.968339 0.947838 0.926125 0.903165 0.878957 0.853502 0.826799 0.798849 0.769652 0.739207 0.707777 0.675622 0.642742 0.609138 0.574809 0.539756 0.503978 0.467476 0.430416 0.392963 0.355118 0.316881 0.278251 0.23923 0.199816 0.160009 0.122507 0.0900053 0.0625037 0.0400023 0.0225013 0.0100006 0.00250015 0 0 0.00267981 0.0107192 0.0241183 0.042877 0.0669953 0.0964732 0.131311 0.171508 0.214169 0.256398 0.298194 0.339558 0.38049 0.42099 0.461058 0.500694 0.539719 0.577957 0.615408 0.652072 0.687948 0.723036 0.757338 0.790852 0.823301 0.854408 0.884174 0.912598 0.939681 0.965422 0.989821 1.01288 1.03464 1.05514 1.07439 1.09238 1.10912 1.1246 1.13883 1.1518 1.16371 1.17477 1.18497 1.19431 1.2028 1.21043 1.2172 1.22312 1.22838 1.23318 1.23752 1.24141 1.24484 1.24781 1.25032 1.25238 1.25409 1.25557 1.25683 1.25786 1.25866 1.25923 1.25957 1.25968 1.25957 1.25923 1.25866 1.25786 1.25683 1.25557 1.25409 1.25238 1.25032 1.24781 1.24484 1.24141 1.23752 1.23318 1.22838 1.22312 1.21721 1.21043 1.2028 1.19432 1.18497 1.17477 1.16372 1.1518 1.13883 1.12461 1.10913 1.09239 1.0744 1.05515 1.03465 1.01289 0.989832 0.965434 0.939694 0.912612 0.884189 0.854423 0.823317 0.790868 0.757355 0.723054 0.687966 0.652091 0.615428 0.577978 0.53974 0.500715 0.46108 0.421012 0.380511 0.339578 0.298213 0.256414 0.214183 0.17152 0.13132 0.0964798 0.0669999 0.0428799 0.02412 0.01072 0.00268 0 0 0.00285638 0.0114255 0.0257074 0.045702 0.0714094 0.10283 0.139962 0.182808 0.228273 0.273265 0.317782 0.361826 0.405397 0.448493 0.491116 0.533266 0.574752 0.615387 0.655171 0.694104 0.732184 0.769414 0.805792 0.841318 0.875701 0.908649 0.940162 0.970239 0.99888 1.02609 1.05186 1.07619 1.09914 1.12076 1.14104 1.15999 1.1776 1.19388 1.20883 1.22244 1.23493 1.24652 1.2572 1.26698 1.27585 1.28382 1.29088 1.29704 1.30251 1.3075 1.31201 1.31604 1.3196 1.32268 1.32527 1.32739 1.32916 1.33069 1.33198 1.33304 1.33386 1.33445 1.3348 1.33492 1.3348 1.33445 1.33386 1.33304 1.33198 1.33069 1.32916 1.3274 1.32528 1.32268 1.3196 1.31605 1.31201 1.3075 1.30251 1.29704 1.29089 1.28382 1.27585 1.26698 1.2572 1.24652 1.23494 1.22244 1.20883 1.19389 1.17761 1.16 1.14105 1.12077 1.09915 1.0762 1.05187 1.0261 0.998894 0.970253 0.940176 0.908665 0.875718 0.841336 0.80581 0.769433 0.732204 0.694124 0.655192 0.615409 0.574774 0.533288 0.491139 0.448516 0.405419 0.361847 0.317802 0.273282 0.228288 0.18282 0.139972 0.102836 0.0714141 0.045705 0.0257091 0.0114263 0.00285657 0 0 0.00302966 0.0121186 0.027267 0.0484746 0.0757415 0.109068 0.148453 0.193898 0.242115 0.289815 0.336999 0.383666 0.429817 0.475452 0.52057 0.565172 0.609058 0.652026 0.694079 0.735215 0.775434 0.814737 0.853123 0.890592 0.926839 0.961558 0.994748 1.02641 1.05654 1.08515 1.11222 1.13777 1.16185 1.18452 1.20577 1.22562 1.24405 1.26107 1.27668 1.29088 1.3039 1.31597 1.32709 1.33726 1.34648 1.35476 1.36208 1.36845 1.3741 1.37925 1.38391 1.38806 1.39172 1.39489 1.39755 1.39972 1.40153 1.40309 1.40441 1.40549 1.40633 1.40693 1.40729 1.40741 1.40729 1.40693 1.40633 1.40549 1.40441 1.40309 1.40153 1.39973 1.39756 1.39489 1.39173 1.38806 1.38391 1.37925 1.3741 1.36845 1.36208 1.35476 1.34649 1.33727 1.3271 1.31598 1.30391 1.29089 1.27669 1.26108 1.24406 1.22562 1.20578 1.18453 1.16186 1.13778 1.11224 1.08516 1.05656 1.02642 0.994763 0.961574 0.926856 0.89061 0.853141 0.814756 0.775454 0.735235 0.6941 0.652048 0.60908 0.565195 0.520593 0.475475 0.42984 0.383687 0.337018 0.289833 0.24213 0.193911 0.148463 0.109075 0.0757464 0.0484777 0.0272687 0.0121194 0.00302986 0 0 0.00319967 0.0127987 0.028797 0.0511947 0.0799918 0.115188 0.156784 0.204779 0.255694 0.306048 0.355842 0.405077 0.453751 0.501865 0.549419 0.596413 0.642635 0.687874 0.732131 0.775405 0.817696 0.859005 0.89933 0.938673 0.976714 1.01313 1.04793 1.08111 1.11267 1.1426 1.17092 1.19761 1.22275 1.24641 1.26858 1.28926 1.30845 1.32617 1.34239 1.35713 1.37063 1.38314 1.39465 1.40518 1.41471 1.42324 1.43079 1.43734 1.44314 1.44843 1.4532 1.45746 1.46121 1.46444 1.46716 1.46937 1.47119 1.47278 1.47412 1.47521 1.47606 1.47667 1.47704 1.47716 1.47704 1.47667 1.47606 1.47521 1.47412 1.47278 1.47119 1.46937 1.46716 1.46444 1.46121 1.45746 1.45321 1.44843 1.44315 1.43735 1.43079 1.42325 1.41471 1.40518 1.39466 1.38314 1.37064 1.35714 1.3424 1.32617 1.30846 1.28927 1.26859 1.24642 1.22276 1.19762 1.17093 1.14262 1.11268 1.08113 1.04795 1.01315 0.976731 0.938691 0.899349 0.859025 0.817717 0.775427 0.732153 0.687897 0.642658 0.596436 0.549443 0.501889 0.453774 0.405099 0.355863 0.306066 0.255709 0.204792 0.156794 0.115195 0.0799968 0.0511979 0.0287988 0.0127995 0.00319987 0 0 0.0033664 0.0134656 0.0302976 0.0538624 0.08416 0.12119 0.164954 0.21545 0.26901 0.321964 0.374314 0.426059 0.477199 0.527733 0.577663 0.626988 0.675485 0.722931 0.769328 0.814675 0.858972 0.902218 0.944415 0.985561 1.02533 1.06338 1.09972 1.13434 1.16726 1.19846 1.22794 1.25572 1.28185 1.30643 1.32946 1.35092 1.37082 1.38917 1.40595 1.42118 1.43511 1.44801 1.45988 1.47071 1.48051 1.48928 1.49702 1.50372 1.50964 1.51504 1.51991 1.52424 1.52805 1.53134 1.53409 1.53632 1.53816 1.53975 1.5411 1.5422 1.54306 1.54368 1.54404 1.54417 1.54404 1.54368 1.54306 1.5422 1.5411 1.53975 1.53816 1.53632 1.53409 1.53134 1.52806 1.52425 1.51991 1.51504 1.50965 1.50372 1.49702 1.48928 1.48052 1.47072 1.45988 1.44802 1.43512 1.42119 1.40596 1.38917 1.37083 1.35093 1.32947 1.30645 1.28187 1.25573 1.22796 1.19847 1.16727 1.13436 1.09973 1.06339 1.02534 0.98558 0.944434 0.902239 0.858993 0.814697 0.769351 0.722955 0.675508 0.627012 0.577688 0.527758 0.477222 0.426082 0.374335 0.321983 0.269026 0.215463 0.164964 0.121198 0.0841652 0.0538657 0.0302995 0.0134664 0.00336661 0 0 0.00352986 0.0141194 0.0317687 0.0564777 0.0882464 0.127075 0.172963 0.225911 0.282063 0.337564 0.392414 0.446613 0.50016 0.553057 0.605302 0.656897 0.707606 0.757197 0.80567 0.853024 0.89926 0.944377 0.988376 1.03126 1.07267 1.11229 1.1501 1.1861 1.22031 1.2527 1.2833 1.31208 1.33916 1.3646 1.38841 1.41059 1.43115 1.45007 1.46737 1.48303 1.49735 1.51059 1.52277 1.53387 1.5439 1.55287 1.56076 1.56758 1.5736 1.57908 1.58401 1.58841 1.59226 1.59557 1.59835 1.60058 1.60242 1.60401 1.60536 1.60647 1.60733 1.60794 1.60831 1.60843 1.60831 1.60794 1.60733 1.60647 1.60536 1.60402 1.60242 1.60058 1.59835 1.59558 1.59226 1.58841 1.58401 1.57908 1.5736 1.56759 1.56076 1.55287 1.54391 1.53388 1.52277 1.5106 1.49735 1.48304 1.46737 1.45008 1.43116 1.4106 1.38842 1.36461 1.33917 1.3121 1.28331 1.25272 1.22032 1.18612 1.15012 1.11231 1.07269 1.03127 0.988396 0.944398 0.899281 0.853046 0.805693 0.757221 0.70763 0.656921 0.605327 0.553082 0.500184 0.446636 0.392435 0.337583 0.282079 0.225924 0.172973 0.127082 0.0882516 0.056481 0.0317706 0.0141203 0.00353006 0 0 0.00369003 0.0147601 0.0332103 0.0590405 0.0922508 0.132841 0.180812 0.236162 0.294853 0.352846 0.410141 0.466738 0.522636 0.577836 0.632337 0.68614 0.739 0.790672 0.841157 0.890453 0.938561 0.985481 1.03121 1.07576 1.11876 1.15987 1.19908 1.2364 1.27182 1.30535 1.33698 1.36672 1.39466 1.4209 1.44544 1.46829 1.48944 1.50888 1.52664 1.54269 1.55734 1.57088 1.58332 1.59466 1.60488 1.614 1.62202 1.62893 1.63501 1.64054 1.64552 1.64995 1.65383 1.65715 1.65993 1.66215 1.66398 1.66557 1.66691 1.668 1.66885 1.66946 1.66983 1.66995 1.66983 1.66946 1.66885 1.668 1.66691 1.66557 1.66398 1.66215 1.65993 1.65715 1.65383 1.64995 1.64552 1.64054 1.63501 1.62893 1.62202 1.61401 1.60489 1.59466 1.58333 1.57089 1.55735 1.54269 1.52664 1.50889 1.48944 1.4683 1.44545 1.42091 1.39467 1.36673 1.33699 1.30536 1.27184 1.23641 1.1991 1.15989 1.11878 1.07578 1.03123 0.985502 0.938583 0.890475 0.84118 0.790696 0.739025 0.686165 0.632362 0.577861 0.52266 0.466761 0.410163 0.352866 0.29487 0.236176 0.180822 0.132849 0.0922561 0.0590439 0.0332122 0.014761 0.00369024 0 0 0.00384554 0.0153822 0.0346099 0.0615287 0.0961386 0.13844 0.188432 0.246115 0.307271 0.36768 0.427344 0.486262 0.544434 0.601859 0.658539 0.714473 0.769405 0.823079 0.875496 0.926654 0.976556 1.0252 1.07258 1.11871 1.16322 1.20574 1.24628 1.28483 1.3214 1.35599 1.38859 1.41921 1.44795 1.47493 1.50014 1.52359 1.54527 1.56519 1.58335 1.59974 1.61468 1.62848 1.64114 1.65266 1.66305 1.6723 1.6804 1.68737 1.69349 1.69905 1.70405 1.70849 1.71238 1.7157 1.71846 1.72067 1.72247 1.72403 1.72536 1.72644 1.72728 1.72788 1.72824 1.72836 1.72824 1.72788 1.72728 1.72644 1.72536 1.72403 1.72247 1.72067 1.71846 1.7157 1.71238 1.70849 1.70405 1.69905 1.69349 1.68737 1.68041 1.6723 1.66305 1.65267 1.64115 1.62848 1.61468 1.59975 1.58335 1.5652 1.54528 1.5236 1.50015 1.47494 1.44796 1.41922 1.3886 1.356 1.32142 1.28485 1.2463 1.20576 1.16324 1.11873 1.07261 1.02522 0.976578 0.926677 0.875519 0.823103 0.769429 0.714498 0.658565 0.601885 0.544458 0.486285 0.427366 0.3677 0.307287 0.246128 0.188442 0.138447 0.0961439 0.0615321 0.0346118 0.015383 0.00384576 0 0 0.00399501 0.01598 0.035955 0.0639201 0.0998751 0.14382 0.195755 0.25568 0.319204 0.381934 0.44387 0.505013 0.565362 0.624918 0.68368 0.741649 0.798558 0.85414 0.908395 0.961323 1.01292 1.0632 1.11215 1.15977 1.20569 1.24954 1.29132 1.33103 1.36867 1.40423 1.43773 1.46915 1.49862 1.52627 1.55209 1.57608 1.59825 1.61858 1.63709 1.65378 1.66896 1.68297 1.69582 1.7075 1.71801 1.72734 1.73552 1.74252 1.74865 1.75422 1.75922 1.76366 1.76753 1.77083 1.77357 1.77574 1.77751 1.77905 1.78035 1.78141 1.78224 1.78283 1.78318 1.7833 1.78318 1.78283 1.78224 1.78141 1.78035 1.77905 1.77751 1.77574 1.77357 1.77083 1.76753 1.76366 1.75922 1.75422 1.74865 1.74252 1.73552 1.72735 1.71801 1.7075 1.69583 1.68298 1.66897 1.65378 1.6371 1.61859 1.59826 1.57609 1.5521 1.52628 1.49864 1.4