<?xml version="1.0"?> 
<VTKFile type="StructuredGrid" version="0.1"> 
<StructuredGrid WholeExtent="0 128 0 128 0 0"> 
<Piece Extent="0 128 0 128 0 0"> 
<PointData>
<DataArray type="Float32" Name="u" format="ascii" NumberOfComponents="1"> 
0 0 0 0 0 0 0 0 0 0 0 0 0 0 0 0 0 0 0 0 0 0 0 0 0 0 0 0 0 0 0 0 0 0 0 0 0 0 0 0 0 0 0 0 0 0 0 0 0 0 0 0 0 0 0 0 0 0 0 0 0 0 0 0 0 0 0 0 0 0 0 0 0 0 0 0 0 0 0 0 0 0 0 0 0 0 0 0 0 0 0 0 0 0 0 0 0 0 0 0 0 0 0 0 0 0 0 0 0 0 0 0 0 0 0 0 0 0 0 0 0 0 0 0 0 0 0 0 0 0 2.56693e-07 1.02677e-06 2.31023e-06 4.10708e-06 6.15164e-06 8.17822e-06 1.01868e-05 1.21775e-05 1.39985e-05 1.54985e-05 1.66772e-05 1.75349e-05 1.79544e-05 1.7819e-05 1.71285e-05 1.58829e-05 1.40281e-05 1.15096e-05 8.32744e-06 4.48165e-06 -3.4583e-08 -5.22808e-06 -1.10988e-05 -1.76469e-05 -2.48416e-05 -3.26526e-05 -4.10799e-05 -5.01234e-05 -5.97241e-05 -6.98231e-05 -8.04204e-05 -9.15159e-05 -0.00010303 -0.000114883 -0.000127075 -0.000139606 -0.000152382 -0.000165306 -0.000178381 -0.000191605 -0.000204872 -0.000218078 -0.000231221 -0.000244303 -0.000257209 -0.000269828 -0.00028216 -0.000294204 -0.000305848 -0.000316978 -0.000327596 -0.000337701 -0.000347191 -0.000355964 -0.00036402 -0.000371359 -0.000377904 -0.000383577 -0.000388378 -0.000392307 -0.000395323 -0.000397386 -0.000398495 -0.000398651 -0.000397858 -0.000396119 -0.000393433 -0.000389802 -0.000385273 -0.000379894 -0.000373665 -0.000366585 -0.000358739 -0.00035021 -0.000340998 -0.000331104 -0.000320633 -0.000309692 -0.000298281 -0.0002864 -0.000274165 -0.000261689 -0.000248973 -0.000236018 -0.000222934 -0.000209835 -0.000196721 -0.000183591 -0.000170548 -0.000157695 -0.00014503 -0.000132555 -0.000120357 -0.000108526 -9.70599e-05 -8.59599e-05 -7.52969e-05 -6.5142e-05 -5.54951e-05 -4.63563e-05 -3.7775e-05 -2.98007e-05 -2.24334e-05 -1.56731e-05 -9.54172e-06 -4.06111e-06 7.68678e-07 4.94766e-06 8.48836e-06 1.14033e-05 1.36924e-05 1.53558e-05 1.64487e-05 1.70263e-05 1.70886e-05 1.66357e-05 1.57788e-05 1.46294e-05 1.31873e-05 1.14527e-05 9.56657e-06 7.66999e-06 5.76294e-06 3.84545e-06 2.16306e-06 9.61362e-07 2.4034e-07 0 0 1.02677e-06 4.10708e-06 9.24093e-06 1.64283e-05 2.46065e-05 3.27129e-05 4.07473e-05 4.87098e-05 5.59941e-05 6.19938e-05 6.6709e-05 7.01395e-05 7.18177e-05 7.12759e-05 6.85139e-05 6.35318e-05 5.61123e-05 4.60383e-05 3.33098e-05 1.79266e-05 -1.38332e-07 -2.09123e-05 -4.43954e-05 -7.05875e-05 -9.93666e-05 -0.000130611 -0.00016432 -0.000200493 -0.000238896 -0.000279292 -0.000321681 -0.000366064 -0.00041212 -0.000459533 -0.000508301 -0.000558425 -0.000609526 -0.000661225 -0.000713523 -0.000766418 -0.000819489 -0.000872311 -0.000924885 -0.00097721 -0.00102884 -0.00107931 -0.00112864 -0.00117682 -0.00122339 -0.00126791 -0.00131038 -0.0013508 -0.00138876 -0.00142385 -0.00145608 -0.00148544 -0.00151162 -0.00153431 -0.00155351 -0.00156923 -0.00158129 -0.00158954 -0.00159398 -0.00159461 -0.00159143 -0.00158447 -0.00157373 -0.00155921 -0.00154109 -0.00151958 -0.00149466 -0.00146634 -0.00143495 -0.00140084 -0.00136399 -0.00132441 -0.00128253 -0.00123877 -0.00119312 -0.0011456 -0.00109666 -0.00104676 -0.000995893 -0.00094407 -0.000891737 -0.000839341 -0.000786884 -0.000734365 -0.000682193 -0.000630779 -0.000580121 -0.00053022 -0.00048143 -0.000434103 -0.000388239 -0.00034384 -0.000301188 -0.000260568 -0.000221981 -0.000185425 -0.0001511 -0.000119203 -8.97337e-05 -6.26925e-05 -3.81669e-05 -1.62445e-05 3.07471e-06 1.97906e-05 3.39534e-05 4.56131e-05 5.47698e-05 6.14233e-05 6.57948e-05 6.81052e-05 6.83545e-05 6.65427e-05 6.31153e-05 5.85174e-05 5.27493e-05 4.58108e-05 3.82663e-05 3.06799e-05 2.30518e-05 1.53818e-05 8.65226e-06 3.84545e-06 9.61362e-07 0 0 2.31023e-06 9.24093e-06 2.07921e-05 3.69637e-05 5.53647e-05 7.36039e-05 9.16814e-05 0.000109597 0.000125987 0.000139486 0.000150095 0.000157814 0.00016159 0.000160371 0.000154156 0.000142946 0.000126253 0.000103586 7.4947e-05 4.03349e-05 -3.11247e-07 -4.70528e-05 -9.98896e-05 -0.000158822 -0.000223575 -0.000293874 -0.000369719 -0.00045111 -0.000537517 -0.000628408 -0.000723783 -0.000823643 -0.000927271 -0.00103395 -0.00114368 -0.00125646 -0.00137143 -0.00148776 -0.00160543 -0.00172444 -0.00184385 -0.0019627 -0.00208099 -0.00219872 -0.00231488 -0.00242846 -0.00253944 -0.00264784 -0.00275263 -0.00285281 -0.00294836 -0.00303931 -0.00312472 -0.00320367 -0.00327618 -0.00334223 -0.00340113 -0.00345219 -0.0034954 -0.00353076 -0.00355791 -0.00357647 -0.00358646 -0.00358786 -0.00358072 -0.00356507 -0.0035409 -0.00350822 -0.00346746 -0.00341905 -0.00336298 -0.00329926 -0.00322865 -0.00315189 -0.00306898 -0.00297993 -0.0028857 -0.00278723 -0.00268453 -0.0025776 -0.00246748 -0.0023552 -0.00224076 -0.00212416 -0.00200641 -0.00188852 -0.00177049 -0.00165232 -0.00153494 -0.00141925 -0.00130527 -0.001193 -0.00108322 -0.000976731 -0.000873539 -0.000773639 -0.000677672 -0.000586278 -0.000499456 -0.000417207 -0.000339975 -0.000268207 -0.000201901 -0.000141058 -8.58754e-05 -3.655e-05 6.9181e-06 4.4529e-05 7.63952e-05 0.00010263 0.000123232 0.000138203 0.000148038 0.000153237 0.000153798 0.000149721 0.000142009 0.000131664 0.000118686 0.000103074 8.60992e-05 6.90299e-05 5.18665e-05 3.4609e-05 1.94676e-05 8.65226e-06 2.16306e-06 0 0 4.10708e-06 1.64283e-05 3.69637e-05 6.57133e-05 9.84262e-05 0.000130851 0.000162989 0.000194839 0.000223976 0.000247975 0.000266836 0.000280558 0.000287271 0.000285103 0.000274055 0.000254127 0.000224449 0.000184153 0.000133239 7.17065e-05 -5.53328e-07 -8.36493e-05 -0.000177582 -0.00028235 -0.000397466 -0.000522442 -0.000657278 -0.000801974 -0.000955585 -0.00111717 -0.00128673 -0.00146425 -0.00164848 -0.00183813 -0.0020332 -0.0022337 -0.0024381 -0.0026449 -0.00285409 -0.00306567 -0.00327795 -0.00348924 -0.00369954 -0.00390884 -0.00411535 -0.00431725 -0.00451456 -0.00470726 -0.00489356 -0.00507165 -0.00524154 -0.00540321 -0.00555505 -0.00569542 -0.00582431 -0.00594174 -0.00604646 -0.00613723 -0.00621404 -0.00627691 -0.00632517 -0.00635817 -0.00637592 -0.00637842 -0.00636573 -0.0063379 -0.00629494 -0.00623684 -0.00616437 -0.00607831 -0.00597863 -0.00586536 -0.00573982 -0.00560336 -0.00545597 -0.00529766 -0.00513013 -0.00495507 -0.0047725 -0.00458241 -0.00438664 -0.00418702 -0.00398357 -0.00377628 -0.00356695 -0.00335736 -0.00314754 -0.00293746 -0.00272877 -0.00252312 -0.00232048 -0.00212088 -0.00192572 -0.00173641 -0.00155296 -0.00137536 -0.00120475 -0.00104227 -0.000887922 -0.000741701 -0.0006044 -0.000476812 -0.000358935 -0.00025077 -0.000152667 -6.49778e-05 1.22988e-05 7.91626e-05 0.000135814 0.000182453 0.000219079 0.000245693 0.000263179 0.000272421 0.000273418 0.000266171 0.000252461 0.00023407 0.000210997 0.000183243 0.000153065 0.00012272 9.22071e-05 6.15271e-05 3.4609e-05 1.53818e-05 3.84545e-06 0 0 6.14021e-06 2.45608e-05 5.52619e-05 9.82433e-05 0.000147076 0.000195329 0.000243005 0.000290101 0.000332956 0.000367906 0.00039495 0.00041409 0.00042251 0.000417397 0.000398751 0.000366572 0.000319566 0.000256436 0.000177184 8.18087e-05 -2.98259e-05 -0.000157857 -0.000302284 -0.000463108 -0.000639556 -0.000830858 -0.00103701 -0.00125802 -0.00149242 -0.00173876 -0.00199704 -0.00226726 -0.00254746 -0.00283571 -0.00313199 -0.00343632 -0.00374638 -0.0040599 -0.00437686 -0.00469726 -0.00501857 -0.00533821 -0.00565621 -0.00597255 -0.00628454 -0.00658947 -0.00688734 -0.00717814 -0.00745919 -0.00772779 -0.00798394 -0.00822764 -0.00845645 -0.00866794 -0.00886211 -0.00903896 -0.00919665 -0.00933331 -0.00944895 -0.00954356 -0.00961619 -0.00966584 -0.00969254 -0.00969627 -0.00967712 -0.00963519 -0.00957047 -0.00948297 -0.00937382 -0.00924417 -0.00909402 -0.00892336 -0.00873421 -0.00852855 -0.00830638 -0.00806771 -0.00781508 -0.00755104 -0.00727557 -0.00698868 -0.00669313 -0.00639167 -0.00608429 -0.005771 -0.00545449 -0.00513746 -0.0048199 -0.00450182 -0.00418568 -0.00387396 -0.00356665 -0.00326375 -0.00296741 -0.00267978 -0.00240085 -0.00213062 -0.00187084 -0.00162325 -0.00138784 -0.00116462 -0.00095482 -0.000759657 -0.000579136 -0.000413258 -0.000262583 -0.000127673 -8.5285e-06 9.48507e-05 0.000182742 0.000255422 0.000312891 0.000355149 0.000383517 0.000399313 0.000402538 0.000393192 0.000373956 0.000347511 0.000313858 0.000272996 0.000228336 0.000183289 0.000137854 9.20319e-05 5.1768e-05 2.3008e-05 5.752e-06 0 0 8.1325e-06 3.253e-05 7.31925e-05 0.00013012 0.000194598 0.000257912 0.000320062 0.000381047 0.000435918 0.000479721 0.000512457 0.000534126 0.000540956 0.000529175 0.000498784 0.000449782 0.000380465 0.000289131 0.000175779 4.04088e-05 -0.00011709 -0.00029683 -0.00049881 -0.000723031 -0.000968359 -0.00123366 -0.00151894 -0.00182419 -0.00214735 -0.00248638 -0.00284127 -0.00321201 -0.00359592 -0.0039903 -0.00439515 -0.00481046 -0.00523312 -0.00565999 -0.00609107 -0.00652636 -0.00696244 -0.00739589 -0.00782669 -0.00825485 -0.00867677 -0.00908886 -0.00949111 -0.00988352 -0.0102625 -0.0106246 -0.0109696 -0.0112977 -0.0116056 -0.0118901 -0.0121512 -0.0123889 -0.0126007 -0.0127843 -0.0129396 -0.0130666 -0.0131641 -0.0132307 -0.0132665 -0.0132714 -0.0132456 -0.0131892 -0.0131021 -0.0129845 -0.0128378 -0.0126635 -0.0124615 -0.012232 -0.0119775 -0.0117008 -0.0114016 -0.0110802 -0.0107398 -0.0103839 -0.0100123 -0.00962511 -0.00922599 -0.00881858 -0.00840287 -0.00797887 -0.00755017 -0.00712036 -0.00668945 -0.00625743 -0.00582763 -0.00540337 -0.00498466 -0.00457148 -0.00416678 -0.00377348 -0.00339157 -0.00302106 -0.00266437 -0.00232391 -0.00199968 -0.00169169 -0.00140168 -0.00113138 -0.000880806 -0.000649951 -0.000439661 -0.000250781 -8.33094e-05 6.27523e-05 0.000187712 0.000291877 0.000375248 0.000437824 0.00048135 0.000507568 0.000516479 0.000508083 0.000485979 0.000453766 0.000411444 0.000359012 0.000301085 0.000242277 0.000182588 0.000122019 6.86358e-05 3.05048e-05 7.6262e-06 0 0 1.0084e-05 4.03358e-05 9.07557e-05 0.000161343 0.000240993 0.000318599 0.00039416 0.000467678 0.000532862 0.000583421 0.000619356 0.000640667 0.000642609 0.000620438 0.000574153 0.000503755 0.000407148 0.000282238 0.000129024 -5.24931e-05 -0.000262347 -0.000500569 -0.00076716 -0.00106212 -0.00138388 -0.00173085 -0.00210305 -0.00250048 -0.00292038 -0.00336002 -0.0038194 -0.00429852 -0.00479387 -0.00530192 -0.00582268 -0.00635614 -0.00689831 -0.00744517 -0.00799673 -0.00855297 -0.00910959 -0.00966226 -0.010211 -0.0107557 -0.011292 -0.0118154 -0.0123259 -0.0128234 -0.0133036 -0.0137619 -0.0141985 -0.0146134 -0.0150025 -0.0153619 -0.0156915 -0.0159915 -0.0162588 -0.0164903 -0.0166861 -0.0168461 -0.0169689 -0.0170527 -0.0170977 -0.0171038 -0.0170711 -0.0169998 -0.0168899 -0.0167415 -0.0165563 -0.0163362 -0.0160812 -0.0157913 -0.0154698 -0.01512 -0.0147418 -0.0143352 -0.0139044 -0.0134535 -0.0129826 -0.0124917 -0.0119852 -0.0114678 -0.0109393 -0.0103999 -0.00985399 -0.00930609 -0.00875619 -0.0082043 -0.00765462 -0.00711136 -0.00657451 -0.00604408 -0.00552382 -0.0050175 -0.00452512 -0.00404667 -0.00358533 -0.00314425 -0.00272345 -0.0023229 -0.00194497 -0.00159198 -0.00126394 -0.00096085 -0.000683903 -0.000434301 -0.000212044 -1.71324e-05 0.000150725 0.000291819 0.00040615 0.000493718 0.000556678 0.000597186 0.000615242 0.000610846 0.000588532 0.000552834 0.000503754 0.00044129 0.00037131 0.000299683 0.00022641 0.000151489 8.52125e-05 3.78722e-05 9.46805e-06 0 0 1.19946e-05 4.79784e-05 0.000107951 0.000191913 0.000286261 0.00037739 0.000465301 0.000549993 0.000623788 0.000679006 0.000715648 0.000733713 0.000727469 0.000691184 0.000624858 0.000528491 0.000399614 0.000235757 3.69197e-05 -0.000196897 -0.000465595 -0.000769073 -0.00110733 -0.00148038 -0.00188611 -0.00232243 -0.00278936 -0.00328688 -0.00381149 -0.00435968 -0.00493144 -0.00552678 -0.00614129 -0.00677055 -0.00741458 -0.00807336 -0.00874196 -0.00941545 -0.0100938 -0.0107771 -0.01146 -0.0121373 -0.0128091 -0.0134752 -0.0141304 -0.0147692 -0.0153916 -0.0159978 -0.0165823 -0.0171399 -0.0176708 -0.0181747 -0.0186471 -0.0190833 -0.0194832 -0.0198468 -0.0201707 -0.0204512 -0.0206883 -0.020882 -0.0210305 -0.0211319 -0.0211862 -0.0211934 -0.0211537 -0.0210672 -0.0209339 -0.0207539 -0.0205293 -0.0202623 -0.019953 -0.0196013 -0.0192111 -0.0187862 -0.0183267 -0.0178326 -0.0173087 -0.0167601 -0.0161866 -0.0155884 -0.0149708 -0.0143392 -0.0136936 -0.0130341 -0.0123659 -0.0116946 -0.0110201 -0.0103424 -0.00966665 -0.00899791 -0.00833621 -0.00768153 -0.00703853 -0.00641185 -0.00580149 -0.00520746 -0.00463372 -0.00408428 -0.00355913 -0.00305826 -0.0025847 -0.00214147 -0.00172855 -0.00134595 -0.000995307 -0.000678233 -0.000394732 -0.000144804 7.17798e-05 0.000255246 0.000405596 0.00052283 0.000609502 0.000668167 0.000698826 0.000701479 0.000681613 0.000644716 0.000590788 0.00051983 0.000439013 0.000355509 0.000269318 0.000180441 0.000101498 4.51102e-05 1.12776e-05 0 0 1.36967e-05 5.47867e-05 0.00012327 0.000219147 0.000326345 0.000428794 0.000526493 0.000619442 0.000698577 0.000754834 0.000788214 0.000798715 0.000779665 0.000724389 0.000632888 0.000505161 0.000338434 0.000129932 -0.000120345 -0.000412397 -0.0007459 -0.00112053 -0.00153629 -0.00199317 -0.00248846 -0.00301946 -0.00358615 -0.00418855 -0.00482227 -0.00548296 -0.00617061 -0.00688522 -0.00762144 -0.00837391 -0.00914264 -0.00992762 -0.010723 -0.0115229 -0.0123273 -0.0131363 -0.0139436 -0.0147433 -0.0155353 -0.0163197 -0.0170902 -0.0178407 -0.0185711 -0.0192816 -0.0199661 -0.0206186 -0.0212392 -0.0218278 -0.0223792 -0.0228881 -0.0233543 -0.023778 -0.0241551 -0.0244816 -0.0247575 -0.0249828 -0.0251554 -0.0252732 -0.0253362 -0.0253443 -0.0252978 -0.0251969 -0.0250415 -0.0248317 -0.0245699 -0.0242587 -0.023898 -0.0234878 -0.0230325 -0.0225365 -0.0219997 -0.0214222 -0.0208096 -0.0201673 -0.0194955 -0.0187942 -0.0180694 -0.0173274 -0.0165682 -0.0157917 -0.0150041 -0.0142117 -0.0134145 -0.0126125 -0.0118116 -0.0110178 -0.0102312 -0.0094516 -0.00868469 -0.00793596 -0.00720541 -0.00649304 -0.00580371 -0.00514228 -0.00450875 -0.00390312 -0.00332917 -0.00279068 -0.00228765 -0.00182008 -0.00139012 -0.00099993 -0.000649499 -0.00033883 -6.7844e-05 0.000163537 0.000355313 0.000507485 0.000622945 0.000704587 0.00075241 0.000766416 0.000753005 0.000718582 0.000663145 0.000586695 0.000497708 0.000404662 0.000307556 0.00020639 0.000116095 5.15976e-05 1.28994e-05 0 0 1.50225e-05 6.009e-05 0.000135203 0.00024036 0.00035719 0.000467319 0.000570747 0.000667474 0.00074711 0.000799264 0.000823936 0.000821126 0.000783326 0.000703027 0.00058023 0.000414934 0.00020418 -5.49916e-05 -0.000362581 -0.000718587 -0.00112233 -0.00157312 -0.00207097 -0.00261587 -0.00320437 -0.00383298 -0.00450173 -0.00521061 -0.00595429 -0.00672746 -0.00753012 -0.00836227 -0.00921757 -0.0100897 -0.0109787 -0.0118844 -0.0128003 -0.0137195 -0.0146421 -0.015568 -0.0164904 -0.0174025 -0.0183042 -0.0191957 -0.02007 -0.0209205 -0.0217471 -0.0225499 -0.0233223 -0.024058 -0.0247569 -0.025419 -0.0260386 -0.02661 -0.0271332 -0.0276083 -0.0280307 -0.0283964 -0.0287052 -0.0289572 -0.02915 -0.0292815 -0.0293517 -0.0293604 -0.029308 -0.0291946 -0.0290203 -0.028785 -0.0284914 -0.0281422 -0.0277373 -0.0272769 -0.0267655 -0.0262078 -0.025604 -0.0249539 -0.0242636 -0.0235392 -0.0227807 -0.021988 -0.0211678 -0.0203269 -0.0194652 -0.0185828 -0.0176865 -0.0167831 -0.0158727 -0.0149552 -0.0140374 -0.0131259 -0.0122208 -0.011322 -0.0104361 -0.00956925 -0.00872157 -0.00789305 -0.00708945 -0.00631655 -0.00557434 -0.00486283 -0.00418666 -0.00355047 -0.00295427 -0.00239804 -0.0018846 -0.00141675 -0.00099447 -0.000617779 -0.000286868 -1.93313e-06 0.000237025 0.000430006 0.000580131 0.00069052 0.000761172 0.000792089 0.000790491 0.000763601 0.00071142 0.000633945 0.000540912 0.000442052 0.000337365 0.000226852 0.000127604 5.67131e-05 1.41783e-05 0 0 1.59721e-05 6.38883e-05 0.000143749 0.000255553 0.000378794 0.000492964 0.000598063 0.00069409 0.000769388 0.000812296 0.000822816 0.000800946 0.000738452 0.000627098 0.000466884 0.000257809 -3.14894e-06 -0.000319014 -0.000689787 -0.00111547 -0.00159488 -0.00212686 -0.00271139 -0.00334849 -0.00403381 -0.00476301 -0.00553609 -0.00635306 -0.00720755 -0.00809318 -0.00900998 -0.00995792 -0.0109297 -0.0119179 -0.0129226 -0.0139438 -0.0149739 -0.0160054 -0.0170382 -0.0180723 -0.0191003 -0.0201148 -0.0211157 -0.0221031 -0.0230698 -0.0240086 -0.0249196 -0.0258026 -0.026651 -0.0274581 -0.0282238 -0.0289481 -0.0296252 -0.0302492 -0.0308199 -0.0313375 -0.0317975 -0.0321954 -0.0325312 -0.032805 -0.0330143 -0.0331569 -0.0332327 -0.0332418 -0.0331843 -0.0330604 -0.0328703 -0.0326137 -0.0322936 -0.0319127 -0.031471 -0.0309684 -0.0304098 -0.0298002 -0.0291394 -0.0284276 -0.0276709 -0.0268757 -0.026042 -0.0251697 -0.0242659 -0.0233377 -0.0223849 -0.0214076 -0.0204132 -0.0194089 -0.0183946 -0.0173705 -0.0163439 -0.0153221 -0.0143051 -0.0132929 -0.0122927 -0.0113117 -0.01035 -0.00940749 -0.00849094 -0.00760707 -0.00675589 -0.0059374 -0.00515718 -0.00442085 -0.00372841 -0.00307985 -0.00247874 -0.00192868 -0.00142965 -0.000981652 -0.000585291 -0.000241164 5.07315e-05 0.000290394 0.00048106 0.000625966 0.000725112 0.000778499 0.000794071 0.000779776 0.000735613 0.000661582 0.000568624 0.000467679 0.000358746 0.000241827 0.000136027 6.04566e-05 1.51142e-05 0 0 1.65454e-05 6.61815e-05 0.000148908 0.000264726 0.000391158 0.00050573 0.00060844 0.000699289 0.000765409 0.000793929 0.000784851 0.000738175 0.000645043 0.000496602 0.00029285 3.37873e-05 -0.000283552 -0.000662136 -0.00110196 -0.00160304 -0.00216356 -0.00278173 -0.00345755 -0.00419102 -0.0049768 -0.00580954 -0.00668924 -0.00761591 -0.00858204 -0.00958013 -0.0106102 -0.0116722 -0.0127578 -0.0138586 -0.0149746 -0.0161058 -0.0172439 -0.0183805 -0.0195156 -0.0206492 -0.0217734 -0.0228803 -0.0239699 -0.0250421 -0.0260897 -0.0271051 -0.0280885 -0.0290397 -0.0299521 -0.0308189 -0.0316399 -0.0324153 -0.0331391 -0.0338055 -0.0344144 -0.0349659 -0.0354555 -0.0358787 -0.0362357 -0.0365263 -0.0367483 -0.0368993 -0.0369793 -0.0369883 -0.0369266 -0.0367943 -0.0365914 -0.036318 -0.0359767 -0.0355703 -0.0350989 -0.0345624 -0.0339657 -0.0333136 -0.0326061 -0.0318433 -0.0310315 -0.0301769 -0.0292795 -0.0283395 -0.0273638 -0.0263597 -0.0253271 -0.024266 -0.0231841 -0.0220889 -0.0209804 -0.0198585 -0.0187313 -0.0176064 -0.016484 -0.0153641 -0.0142545 -0.0131634 -0.0120907 -0.0110364 -0.0100082 -0.00901387 -0.00805341 -0.00712682 -0.00624073 -0.00540182 -0.00461007 -0.00386548 -0.00317255 -0.00253573 -0.00195503 -0.00143045 -0.000963115 -0.000554154 -0.000203567 8.86484e-05 0.000325732 0.000510926 0.000644231 0.000725645 0.000763745 0.000767105 0.000735725 0.000669605 0.000580845 0.000481543 0.000371699 0.000251313 0.000141364 6.28283e-05 1.57071e-05 0 0 1.66149e-05 6.64594e-05 0.000149534 0.000265838 0.000391213 0.000501503 0.000596707 0.000676825 0.000727899 0.000735972 0.000701045 0.000623117 0.000492884 0.000301044 4.75963e-05 -0.000267459 -0.000646857 -0.00109333 -0.00160688 -0.00218751 -0.00283262 -0.00353961 -0.00430848 -0.00513924 -0.00602539 -0.00696042 -0.00794433 -0.00897714 -0.0100501 -0.0111545 -0.0122903 -0.0134575 -0.0146467 -0.0158486 -0.017063 -0.0182901 -0.0195207 -0.0207459 -0.0219657 -0.02318 -0.0243808 -0.0255598 -0.026717 -0.0278525 -0.0289589 -0.030029 -0.0310627 -0.0320601 -0.0330146 -0.0339198 -0.0347756 -0.035582 -0.0363336 -0.0370247 -0.0376553 -0.0382254 -0.0387309 -0.0391677 -0.0395356 -0.0398347 -0.0400628 -0.0402178 -0.0402995 -0.0403081 -0.0402436 -0.0401063 -0.0398962 -0.0396133 -0.0392602 -0.0388394 -0.0383509 -0.0377949 -0.0371757 -0.0364982 -0.0357621 -0.0349677 -0.0341208 -0.0332275 -0.0322878 -0.0313016 -0.030276 -0.0292178 -0.028127 -0.0270036 -0.0258553 -0.0246895 -0.0235062 -0.0223056 -0.0210957 -0.0198847 -0.0186726 -0.0174594 -0.0162539 -0.0150646 -0.0138916 -0.0127349 -0.0116032 -0.0105053 -0.00944112 -0.00841068 -0.00742179 -0.00648227 -0.00559211 -0.00475131 -0.00396541 -0.00323992 -0.00257486 -0.00197021 -0.00142781 -0.000949476 -0.000535209 -0.000185009 0.000104205 0.000335517 0.000508926 0.000624432 0.000691082 0.000717924 0.000704957 0.000652182 0.000572749 0.00047981 0.000373364 0.000253411 0.000142544 6.33528e-05 1.58382e-05 0 0 1.60529e-05 6.42117e-05 0.000144476 0.000256847 0.00037589 0.000476171 0.00055769 0.000620448 0.000649583 0.000630232 0.000562397 0.000446077 0.000271759 2.9931e-05 -0.000279408 -0.000656257 -0.00110289 -0.00162157 -0.00221231 -0.0028751 -0.00360632 -0.00440237 -0.00526325 -0.00618895 -0.00717164 -0.0082035 -0.00928453 -0.0104147 -0.011584 -0.0127824 -0.0140098 -0.0152663 -0.0165415 -0.0178249 -0.0191165 -0.0204163 -0.0217149 -0.0230028 -0.0242799 -0.0255462 -0.0267936 -0.0280141 -0.0292076 -0.0303742 -0.031507 -0.0325993 -0.0336511 -0.0346623 -0.0356273 -0.0365402 -0.0374011 -0.0382099 -0.038962 -0.0396524 -0.0402812 -0.0408484 -0.0413504 -0.0417836 -0.0421481 -0.0424438 -0.0426689 -0.0428214 -0.0429014 -0.0429088 -0.0428438 -0.0427066 -0.0424971 -0.0422154 -0.0418637 -0.0414441 -0.0409568 -0.0404017 -0.0397829 -0.0391042 -0.0383657 -0.0375674 -0.0367145 -0.0358125 -0.0348611 -0.0338606 -0.0328171 -0.0317368 -0.0306198 -0.029466 -0.0282827 -0.0270769 -0.0258487 -0.0245981 -0.0233333 -0.0220624 -0.0207856 -0.0195027 -0.018223 -0.0169557 -0.0157009 -0.0144585 -0.0132382 -0.0120498 -0.0108932 -0.00976857 -0.00868484 -0.00765111 -0.00666739 -0.00573367 -0.00485672 -0.00404329 -0.00329338 -0.00260698 -0.00198685 -0.0014357 -0.000953534 -0.000540358 -0.000193463 8.98555e-05 0.000309598 0.000465763 0.000567654 0.00062457 0.000636512 0.00060348 0.000539512 0.000458646 0.000360882 0.000246221 0.000138499 6.15552e-05 1.53888e-05 0 0 1.48596e-05 5.94384e-05 0.000133736 0.000237754 0.000345187 0.000429732 0.00049139 0.00053016 0.00053046 0.00047671 0.000368908 0.000207056 -1.83311e-05 -0.000316737 -0.000688162 -0.00113261 -0.00165165 -0.00224686 -0.00291824 -0.00366579 -0.00448467 -0.00537002 -0.00632184 -0.00734013 -0.00841557 -0.0095388 -0.0107098 -0.0119287 -0.0131839 -0.0144639 -0.0157689 -0.0170987 -0.018442 -0.0197874 -0.021135 -0.0224847 -0.0238267 -0.0251511 -0.0264581 -0.0277476 -0.0290119 -0.0302433 -0.0314417 -0.0326072 -0.033734 -0.0348161 -0.0358536 -0.0368464 -0.0377901 -0.0386801 -0.0395164 -0.040299 -0.0410243 -0.0416886 -0.0422921 -0.0428347 -0.0433138 -0.0437266 -0.0440732 -0.0443536 -0.0445664 -0.0447102 -0.0447849 -0.0447905 -0.0447272 -0.0445951 -0.0443941 -0.0441242 -0.0437872 -0.0433847 -0.0429166 -0.0423831 -0.041787 -0.0411316 -0.0404167 -0.0396423 -0.0388126 -0.0379318 -0.0369997 -0.0360164 -0.034987 -0.0339167 -0.0328054 -0.0316532 -0.0304663 -0.0292512 -0.0280078 -0.0267362 -0.0254442 -0.0241398 -0.0228231 -0.0214939 -0.0201619 -0.0188368 -0.0175185 -0.016207 -0.014913 -0.0136473 -0.0124098 -0.0112005 -0.0100299 -0.00890835 -0.00783592 -0.00681258 -0.00584649 -0.00494583 -0.00411059 -0.00334077 -0.00264023 -0.00201282 -0.00145854 -0.000977397 -0.000567273 -0.000226058 4.62456e-05 0.00024964 0.00039346 0.000487044 0.00053039 0.0005235 0.000481134 0.000418052 0.000334255 0.000229742 0.00012923 5.74354e-05 1.43589e-05 0 0 1.30349e-05 5.21396e-05 0.000117314 0.000208558 0.000299105 0.000362188 0.000397806 0.000405959 0.000370531 0.000275404 0.000120579 -9.39463e-05 -0.000377387 -0.000738961 -0.00117867 -0.00169651 -0.00229313 -0.00296919 -0.00372468 -0.00455961 -0.00546766 -0.00644255 -0.00748426 -0.0085928 -0.00975715 -0.0109663 -0.0122203 -0.013519 -0.0148496 -0.016199 -0.0175673 -0.0189545 -0.0203483 -0.0217363 -0.0231185 -0.024495 -0.0258558 -0.027191 -0.0285005 -0.0297844 -0.0310357 -0.0322473 -0.0334193 -0.0345516 -0.0356398 -0.0366793 -0.0376702 -0.0386125 -0.0395032 -0.0403396 -0.0411216 -0.0418492 -0.0425205 -0.0431335 -0.0436881 -0.0441844 -0.0446211 -0.0449966 -0.0453109 -0.0455642 -0.0457555 -0.0458841 -0.04595 -0.0459533 -0.0458939 -0.0457718 -0.0455871 -0.0453398 -0.0450308 -0.0446609 -0.0442303 -0.0437388 -0.0431883 -0.0425804 -0.0419151 -0.0411926 -0.0404152 -0.0395854 -0.0387034 -0.037769 -0.0367859 -0.0357575 -0.0346839 -0.0335651 -0.0324062 -0.0312123 -0.0299835 -0.0287197 -0.0274283 -0.0261168 -0.024785 -0.023433 -0.0220707 -0.0207078 -0.0193444 -0.0179805 -0.0166277 -0.0152978 -0.0139907 -0.0127064 -0.0114569 -0.010254 -0.00909769 -0.00798802 -0.00693472 -0.00594754 -0.00502649 -0.00417156 -0.00338795 -0.00268084 -0.00205023 -0.00149613 -0.00101722 -0.000612225 -0.00028113 -2.39398e-05 0.0001685 0.000305344 0.000386591 0.000412242 0.000397615 0.000358028 0.000293481 0.000203974 0.000114735 5.09934e-05 1.27484e-05 0 0 1.05306e-05 4.21225e-05 9.47757e-05 0.00016849 0.000236508 0.00027207 0.000275177 0.000245828 0.000167611 2.41086e-05 -0.000184677 -0.000458747 -0.000806757 -0.00123736 -0.00175057 -0.00234637 -0.00302421 -0.00378354 -0.00462436 -0.00554667 -0.00654245 -0.0076037 -0.00873041 -0.00992258 -0.0111673 -0.0124517 -0.0137759 -0.0151396 -0.0165286 -0.0179281 -0.0193381 -0.0207588 -0.0221769 -0.0235792 -0.0249657 -0.0263364 -0.0276815 -0.0289912 -0.0302655 -0.0315044 -0.032702 -0.0338524 -0.0349555 -0.0360115 -0.0370177 -0.0379714 -0.0388728 -0.0397217 -0.0405175 -0.0412598 -0.0419484 -0.0425834 -0.043165 -0.0436933 -0.0441684 -0.0445902 -0.044959 -0.0452751 -0.0455384 -0.045749 -0.0459069 -0.0460122 -0.0460649 -0.0460649 -0.0460123 -0.0459069 -0.0457488 -0.045538 -0.0452743 -0.0449577 -0.0445882 -0.0441657 -0.0436904 -0.043162 -0.0425808 -0.0419465 -0.0412598 -0.0405208 -0.0397295 -0.0388861 -0.0379919 -0.0370482 -0.0360551 -0.0350125 -0.0339239 -0.0327928 -0.031619 -0.0304027 -0.0291501 -0.0278679 -0.0265559 -0.0252142 -0.0238526 -0.022481 -0.0210994 -0.0197078 -0.0183188 -0.016945 -0.0155865 -0.0142431 -0.0129285 -0.0116559 -0.0104255 -0.00923729 -0.00810272 -0.00703336 -0.00602923 -0.00509031 -0.00422339 -0.00343523 -0.00272584 -0.0020952 -0.00154311 -0.00106934 -0.00067389 -0.000356757 -0.000109244 7.73501e-05 0.000203026 0.000267783 0.000287281 0.000277182 0.000237485 0.000168189 9.46064e-05 4.20473e-05 1.05118e-05 0 0 7.29872e-06 2.91949e-05 6.56884e-05 0.000116779 0.000156257 0.000157911 0.000121741 4.77475e-05 -8.04886e-05 -0.000279386 -0.000548944 -0.000889163 -0.00130779 -0.00181257 -0.00240351 -0.0030806 -0.00384175 -0.00468489 -0.00561001 -0.00661712 -0.00769619 -0.00883721 -0.0100402 -0.0113051 -0.012617 -0.0139609 -0.0153367 -0.0167446 -0.0181682 -0.0195914 -0.0210141 -0.0224363 -0.0238442 -0.0252237 -0.0265749 -0.0278978 -0.0291829 -0.0304209 -0.0316118 -0.0327555 -0.0338479 -0.0348846 -0.0358657 -0.0367911 -0.0376608 -0.0384747 -0.0392329 -0.0399352 -0.0405841 -0.041182 -0.0417287 -0.0422244 -0.042672 -0.0430746 -0.0434321 -0.0437445 -0.0440143 -0.0442438 -0.0444329 -0.0445818 -0.0446916 -0.0447635 -0.0447974 -0.0447933 -0.0447511 -0.0446706 -0.0445518 -0.0443947 -0.0441978 -0.0439599 -0.0436808 -0.0433607 -0.0429971 -0.0425879 -0.0421331 -0.0416327 -0.0410841 -0.0404851 -0.0398354 -0.0391353 -0.0383832 -0.0375776 -0.0367186 -0.0358061 -0.0348413 -0.0338252 -0.0327578 -0.031639 -0.030474 -0.0292678 -0.0280203 -0.0267315 -0.0254111 -0.0240687 -0.0227043 -0.0213178 -0.0199228 -0.0185327 -0.0171475 -0.0157673 -0.0144071 -0.0130821 -0.0117923 -0.0105377 -0.00933183 -0.00818824 -0.00710696 -0.00608797 -0.00513992 -0.00427146 -0.00348258 -0.00277328 -0.00214474 -0.00159811 -0.00113339 -0.000750597 -0.000441793 -0.000199059 -2.23942e-05 8.82003e-05 0.000148461 0.000174125 0.000165191 0.00012166 6.84336e-05 3.04149e-05 7.60374e-06 0 0 3.33913e-06 1.33565e-05 3.00521e-05 5.3426e-05 5.83539e-05 1.97117e-05 -6.25007e-05 -0.000188283 -0.000373766 -0.000635079 -0.000972222 -0.00138519 -0.00188049 -0.00246458 -0.00313748 -0.00389919 -0.00474576 -0.00567324 -0.00668164 -0.00777095 -0.00892886 -0.0101431 -0.0114136 -0.0127404 -0.0141062 -0.0154937 -0.0169029 -0.0183338 -0.0197685 -0.0211889 -0.0225951 -0.0239871 -0.0253503 -0.02667 -0.0279463 -0.0291791 -0.0303599 -0.0314799 -0.0325392 -0.0335377 -0.0344734 -0.035344 -0.0361497 -0.0368904 -0.0375692 -0.0381893 -0.0387506 -0.0392531 -0.039703 -0.0401061 -0.0404625 -0.0407722 -0.0410417 -0.0412774 -0.0414793 -0.0416475 -0.0417869 -0.0419025 -0.0419945 -0.0420627 -0.0421096 -0.0421379 -0.0421475 -0.0421384 -0.0421103 -0.0420628 -0.041996 -0.0419098 -0.0418012 -0.0416674 -0.0415081 -0.0413236 -0.0411086 -0.0408581 -0.0405723 -0.040251 -0.0398883 -0.0394783 -0.0390211 -0.0385166 -0.0379598 -0.0373458 -0.0366745 -0.0359459 -0.0351582 -0.0343095 -0.0333997 -0.0324288 -0.0314 -0.0303165 -0.0291781 -0.0279851 -0.0267463 -0.025471 -0.024159 -0.0228105 -0.0214397 -0.0200608 -0.0186739 -0.0172789 -0.0158929 -0.0145326 -0.013198 -0.0118892 -0.010622 -0.00941218 -0.00825968 -0.00716453 -0.00613754 -0.00518952 -0.00432046 -0.00353036 -0.00282209 -0.00219852 -0.00165964 -0.00120546 -0.000829145 -0.000523882 -0.000289669 -0.000126506 -1.88459e-05 4.88559e-05 7.65998e-05 6.43858e-05 3.6217e-05 1.60965e-05 4.02411e-06 0 0 -1.34813e-06 -5.39253e-06 -1.21332e-05 -2.15701e-05 -5.72023e-05 -0.000142529 -0.000277549 -0.000462264 -0.000712222 -0.00104297 -0.00145451 -0.00194684 -0.00252484 -0.0031934 -0.0039525 -0.00480215 -0.00573623 -0.00674859 -0.00783923 -0.00900816 -0.0102405 -0.0115213 -0.0128506 -0.0142284 -0.0156348 -0.0170501 -0.0184743 -0.0199073 -0.0213294 -0.0227208 -0.0240814 -0.0254112 -0.0266952 -0.027918 -0.0290798 -0.0301805 -0.0312126 -0.0321683 -0.0330478 -0.033851 -0.0345784 -0.0352307 -0.0358076 -0.0363094 -0.0367428 -0.037115 -0.0374259 -0.0376754 -0.037874 -0.0380322 -0.0381497 -0.0382268 -0.0382739 -0.0383017 -0.03831 -0.038299 -0.0382768 -0.0382514 -0.038223 -0.0381914 -0.0381609 -0.0381355 -0.0381153 -0.0381002 -0.0380898 -0.0380835 -0.0380814 -0.0380834 -0.0380846 -0.0380802 -0.0380701 -0.0380544 -0.0380247 -0.0379726 -0.0378982 -0.0378014 -0.0376722 -0.0375006 -0.0372865 -0.03703 -0.0367218 -0.0363528 -0.0359228 -0.035432 -0.0348748 -0.0342457 -0.0335447 -0.0327719 -0.0319281 -0.0310139 -0.0300295 -0.0289748 -0.0278581 -0.0266877 -0.0254636 -0.0241859 -0.0228695 -0.0215293 -0.0201656 -0.0187781 -0.0173857 -0.0160072 -0.0146426 -0.0132919 -0.0119733 -0.0107052 -0.00948739 -0.00832 -0.00721626 -0.00618942 -0.00523948 -0.00436644 -0.00357519 -0.00287058 -0.00225263 -0.00172134 -0.0012713 -0.000897121 -0.000598799