<?xml version="1.0"?> 
<VTKFile type="StructuredGrid" version="0.1"> 
<StructuredGrid WholeExtent="0 128 0 128 0 0"> 
<Piece Extent="0 128 0 128 0 0"> 
<PointData>
<DataArray type="Float32" Name="u" format="ascii" NumberOfComponents="1"> 
0 0 0 0 0 0 0 0 0 0 0 0 0 0 0 0 0 0 0 0 0 0 0 0 0 0 0 0 0 0 0 0 0 0 0 0 0 0 0 0 0 0 0 0 0 0 0 0 0 0 0 0 0 0 0 0 0 0 0 0 0 0 0 0 0 0 0 0 0 0 0 0 0 0 0 0 0 0 0 0 0 0 0 0 0 0 0 0 0 0 0 0 0 0 0 0 0 0 0 0 0 0 0 0 0 0 0 0 0 0 0 0 0 0 0 0 0 0 0 0 0 0 0 0 0 0 0 0 0 0 2.73681e-07 1.09472e-06 2.46313e-06 4.37889e-06 6.61292e-06 8.9361e-06 1.13484e-05 1.38499e-05 1.63057e-05 1.85808e-05 2.06753e-05 2.25891e-05 2.42039e-05 2.54014e-05 2.61814e-05 2.6544e-05 2.64231e-05 2.57524e-05 2.45321e-05 2.2762e-05 2.04154e-05 1.74654e-05 1.39121e-05 9.75556e-06 4.99933e-06 -3.52828e-07 -6.30093e-06 -1.2845e-05 -1.99566e-05 -2.76075e-05 -3.57976e-05 -4.4527e-05 -5.37454e-05 -6.34024e-05 -7.3498e-05 -8.40323e-05 -9.49323e-05 -0.000106125 -0.000117611 -0.00012939 -0.000141364 -0.000153436 -0.000165606 -0.000177875 -0.000190121 -0.000202224 -0.000214183 -0.000226 -0.000237538 -0.000248661 -0.000259371 -0.000269667 -0.000279416 -0.000288485 -0.000296875 -0.000304585 -0.000311508 -0.000317539 -0.000322676 -0.000326921 -0.000330214 -0.000332497 -0.000333771 -0.000334035 -0.000333293 -0.000331549 -0.000328803 -0.000325055 -0.00032037 -0.000314813 -0.000308384 -0.000301083 -0.000293022 -0.000284312 -0.000274955 -0.00026495 -0.000254432 -0.000243538 -0.000232267 -0.000220619 -0.000208731 -0.000196737 -0.000184638 -0.000172433 -0.000160242 -0.000148183 -0.000136255 -0.000124459 -0.000112887 -0.000101634 -9.06978e-05 -8.00795e-05 -6.98458e-05 -6.00635e-05 -5.07327e-05 -4.18533e-05 -3.34687e-05 -2.56223e-05 -1.83139e-05 -1.15437e-05 -5.33308e-06 2.96604e-07 5.34532e-06 9.81306e-06 1.37018e-05 1.70134e-05 1.97478e-05 2.19052e-05 2.35152e-05 2.46076e-05 2.51824e-05 2.52395e-05 2.48442e-05 2.40614e-05 2.28911e-05 2.13334e-05 1.95003e-05 1.75038e-05 1.5344e-05 1.30209e-05 1.06601e-05 8.38733e-06 6.20251e-06 4.10568e-06 2.30945e-06 1.02642e-06 2.56605e-07 0 0 1.09472e-06 4.37889e-06 9.85251e-06 1.75156e-05 2.64517e-05 3.57444e-05 4.53937e-05 5.53997e-05 6.52227e-05 7.43232e-05 8.27011e-05 9.03565e-05 9.68157e-05 0.000101605 0.000104726 0.000106176 0.000105692 0.00010301 9.81282e-05 9.10479e-05 8.16614e-05 6.98617e-05 5.56486e-05 3.90222e-05 1.99973e-05 -1.41131e-06 -2.52037e-05 -5.13799e-05 -7.98264e-05 -0.00011043 -0.000143191 -0.000178108 -0.000214981 -0.000253609 -0.000293992 -0.000336129 -0.000379729 -0.000424501 -0.000470444 -0.000517558 -0.000565454 -0.000613743 -0.000662425 -0.000711499 -0.000760483 -0.000808894 -0.000856733 -0.000903999 -0.00095015 -0.000994646 -0.00103748 -0.00107867 -0.00111766 -0.00115394 -0.0011875 -0.00121834 -0.00124603 -0.00127016 -0.00129071 -0.00130768 -0.00132085 -0.00132999 -0.00133508 -0.00133614 -0.00133317 -0.0013262 -0.00131521 -0.00130022 -0.00128148 -0.00125925 -0.00123353 -0.00120433 -0.00117209 -0.00113725 -0.00109982 -0.0010598 -0.00101773 -0.000974152 -0.000929068 -0.000882477 -0.000834922 -0.000786947 -0.00073855 -0.000689733 -0.000640968 -0.00059273 -0.000545019 -0.000497835 -0.00045155 -0.000406535 -0.000362791 -0.000320318 -0.000279383 -0.000240254 -0.000202931 -0.000167413 -0.000133875 -0.000102489 -7.32557e-05 -4.61749e-05 -2.13323e-05 1.18641e-06 2.13813e-05 3.92522e-05 5.4807e-05 6.80534e-05 7.89913e-05 8.76208e-05 9.40608e-05 9.84304e-05 0.00010073 0.000100958 9.93767e-05 9.62454e-05 9.15644e-05 8.53335e-05 7.80011e-05 7.00153e-05 6.13762e-05 5.20837e-05 4.26406e-05 3.35493e-05 2.48101e-05 1.64227e-05 9.23778e-06 4.10568e-06 1.02642e-06 0 0 2.46313e-06 9.85251e-06 2.21681e-05 3.941e-05 5.95163e-05 8.04249e-05 0.000102136 0.000124649 0.000146751 0.000167227 0.000186077 0.000203302 0.000217835 0.000228612 0.000235632 0.000238896 0.000237808 0.000231772 0.000220789 0.000204858 0.000183738 0.000157189 0.000125209 8.78e-05 4.4994e-05 -3.17545e-06 -5.67083e-05 -0.000115605 -0.000179609 -0.000248467 -0.000322179 -0.000400743 -0.000483708 -0.000570621 -0.000661482 -0.000756291 -0.000854391 -0.000955127 -0.0010585 -0.00116451 -0.00127227 -0.00138092 -0.00149046 -0.00160087 -0.00171109 -0.00182001 -0.00192765 -0.002034 -0.00213784 -0.00223795 -0.00233434 -0.002427 -0.00251474 -0.00259637 -0.00267187 -0.00274126 -0.00280357 -0.00285785 -0.00290409 -0.00294229 -0.00297192 -0.00299247 -0.00300394 -0.00300632 -0.00299964 -0.00298395 -0.00295923 -0.0029255 -0.00288333 -0.00283332 -0.00277545 -0.00270974 -0.00263719 -0.00255881 -0.0024746 -0.00238455 -0.00228989 -0.00219184 -0.0020904 -0.00198557 -0.00187858 -0.00177063 -0.00166174 -0.0015519 -0.00144218 -0.00133364 -0.00122629 -0.00112013 -0.00101599 -0.000914703 -0.00081628 -0.000720715 -0.000628612 -0.000540571 -0.000456594 -0.00037668 -0.000301218 -0.0002306 -0.000164825 -0.000103894 -4.79977e-05 2.66943e-06 4.81078e-05 8.83175e-05 0.000123316 0.00015312 0.00017773 0.000197147 0.000211637 0.000221468 0.000226641 0.000227156 0.000223598 0.000216552 0.00020602 0.000192 0.000175502 0.000157534 0.000138096 0.000117188 9.59412e-05 7.5486e-05 5.58226e-05 3.69511e-05 2.0785e-05 9.23778e-06 2.30945e-06 0 0 4.37889e-06 1.75156e-05 3.941e-05 7.00623e-05 0.000105807 0.000142978 0.000181575 0.000221599 0.000260891 0.000297293 0.000330804 0.000361426 0.000387263 0.000406422 0.000418902 0.000424704 0.000422769 0.000412039 0.000392513 0.000364191 0.000326646 0.000279447 0.000222594 0.000156089 7.99893e-05 -5.64524e-06 -0.000100815 -0.000205519 -0.000319306 -0.00044172 -0.000572762 -0.000712432 -0.000859926 -0.00101444 -0.00117597 -0.00134452 -0.00151892 -0.001698 -0.00188177 -0.00207023 -0.00226182 -0.00245497 -0.0026497 -0.002846 -0.00304193 -0.00323558 -0.00342693 -0.003616 -0.0038006 -0.00397858 -0.00414994 -0.00431467 -0.00447065 -0.00461576 -0.00474999 -0.00487335 -0.00498413 -0.00508062 -0.00516282 -0.00523073 -0.00528342 -0.00531995 -0.00534033 -0.00534456 -0.00533269 -0.00530479 -0.00526086 -0.00520088 -0.00512592 -0.00503701 -0.00493414 -0.00481732 -0.00468834 -0.004549 -0.00439928 -0.0042392 -0.00407092 -0.00389661 -0.00371627 -0.00352991 -0.00333969 -0.00314779 -0.0029542 -0.00275893 -0.00256387 -0.00237092 -0.00218008 -0.00199134 -0.0018062 -0.00162614 -0.00145116 -0.00128127 -0.00111753 -0.000961016 -0.000811723 -0.000669653 -0.0005355 -0.000409956 -0.000293023 -0.0001847 -8.53293e-05 4.74566e-06 8.55251e-05 0.000157009 0.000219228 0.000272214 0.000315965 0.000350483 0.000376243 0.000393722 0.000402918 0.000403833 0.000397507 0.000384982 0.000366258 0.000341334 0.000312004 0.000280061 0.000245505 0.000208335 0.000170562 0.000134197 9.92402e-05 6.56909e-05 3.69511e-05 1.64227e-05 4.10568e-06 0 0 6.60721e-06 2.64289e-05 5.94649e-05 0.000105715 0.000159588 0.000215491 0.000273424 0.000333387 0.000392104 0.000446298 0.00049597 0.000541119 0.000578881 0.000606395 0.000623658 0.000630673 0.000625847 0.000607591 0.000575904 0.000530786 0.000471611 0.000397756 0.000309218 0.000205999 8.82202e-05 -4.39978e-05 -0.000190655 -0.00035175 -0.000526566 -0.000714384 -0.000915204 -0.00112903 -0.00135461 -0.00159071 -0.00183732 -0.00209445 -0.00236032 -0.00263315 -0.00291295 -0.00319971 -0.00349107 -0.00378468 -0.00408054 -0.00437866 -0.0046761 -0.00496998 -0.00526029 -0.00554702 -0.00582692 -0.00609671 -0.00635641 -0.00660601 -0.00684231 -0.0070621 -0.0072654 -0.0074522 -0.00761993 -0.00776601 -0.00789045 -0.00799324 -0.00807299 -0.00812828 -0.00815911 -0.0081655 -0.00814751 -0.00810525 -0.00803872 -0.00794791 -0.0078344 -0.00769974 -0.00754396 -0.00736703 -0.00717167 -0.00696057 -0.00673374 -0.00649116 -0.00623611 -0.00597187 -0.00569843 -0.00541579 -0.00512722 -0.004836 -0.00454213 -0.0042456 -0.00394928 -0.00365603 -0.00336584 -0.00307872 -0.00279692 -0.00252269 -0.00225603 -0.00199695 -0.00174706 -0.00150802 -0.00127981 -0.00106244 -0.000856977 -0.000664501 -0.000485009 -0.000318502 -0.000165529 -2.664e-05 9.81647e-05 0.000208885 0.000305539 0.000388141 0.000456693 0.000511195 0.000552344 0.00058084 0.000596683 0.000599873 0.000591976 0.000574558 0.00054762 0.000511161 0.000467893 0.000420528 0.000369065 0.000313505 0.0002569 0.000202305 0.00014972 9.91434e-05 5.57682e-05 2.47859e-05 6.19646e-06 0 0 8.91328e-06 3.56531e-05 8.02195e-05 0.000142612 0.000215126 0.000290054 0.000367397 0.000447154 0.000524853 0.000596023 0.000660662 0.000718771 0.000766473 0.000799891 0.000819025 0.000823875 0.000812312 0.000782208 0.000733563 0.000666377 0.000579863 0.000473236 0.000346496 0.000199642 3.29235e-05 -0.00015341 -0.000359359 -0.000584924 -0.000829043 -0.00109066 -0.00136977 -0.00166637 -0.00197873 -0.00230507 -0.00264541 -0.00299974 -0.00336562 -0.00374061 -0.0041247 -0.0045179 -0.00491701 -0.00531884 -0.00572338 -0.00613064 -0.00653669 -0.00693762 -0.00733342 -0.0077241 -0.00810526 -0.00847253 -0.00882589 -0.00916535 -0.00948661 -0.00978537 -0.0100616 -0.0103154 -0.0105432 -0.0107416 -0.0109105 -0.0110501 -0.0111583 -0.0112333 -0.0112751 -0.0112837 -0.0112593 -0.0112018 -0.0111115 -0.0109881 -0.0108339 -0.010651 -0.0104393 -0.0101988 -0.00993332 -0.0096463 -0.00933781 -0.00900784 -0.00866078 -0.00830104 -0.00792862 -0.00754351 -0.00715012 -0.00675285 -0.00635171 -0.00594669 -0.00554164 -0.00514044 -0.00474306 -0.00434953 -0.00396289 -0.00358621 -0.00321948 -0.0028627 -0.00251813 -0.00218801 -0.00187235 -0.00157114 -0.00128591 -0.00101818 -0.000767943 -0.000535208 -0.000320798 -0.000125543 5.05586e-05 0.000207506 0.000345242 0.000463711 0.000562912 0.000642846 0.000704403 0.000748474 0.000775061 0.000784162 0.000777877 0.000758306 0.00072545 0.000679308 0.000623554 0.000561865 0.00049424 0.000420679 0.000345353 0.000272432 0.000201918 0.00013381 7.52682e-05 3.34526e-05 8.36314e-06 0 0 1.12971e-05 4.51884e-05 0.000101674 0.000180753 0.00027242 0.000366666 0.000463492 0.000562898 0.000659138 0.000746465 0.000824881 0.000894384 0.000950039 0.000986912 0.001005 0.00100431 0.000982163 0.00093589 0.00086549 0.000770964 0.000651401 0.000505888 0.000334427 0.000137016 -8.59009e-05 -0.000333883 -0.000606929 -0.000905039 -0.00122674 -0.00157054 -0.00193646 -0.00232448 -0.00273228 -0.00315753 -0.00360023 -0.00406038 -0.00453481 -0.00502036 -0.00551702 -0.00602481 -0.00653964 -0.00705743 -0.0075782 -0.00810195 -0.0086237 -0.00913849 -0.00964634 -0.0101472 -0.0106356 -0.011106 -0.0115584 -0.0119927 -0.0124036 -0.0127856 -0.0131387 -0.0134629 -0.0137539 -0.0140073 -0.014223 -0.0144012 -0.0145393 -0.014635 -0.0146884 -0.0146993 -0.014668 -0.0145946 -0.0144791 -0.0143215 -0.0141244 -0.0138906 -0.0136201 -0.0133128 -0.0129733 -0.0126062 -0.0122115 -0.0117892 -0.0113449 -0.0108841 -0.0104068 -0.00991308 -0.00940839 -0.00889834 -0.00838294 -0.00786218 -0.00734095 -0.00682414 -0.00631174 -0.00580376 -0.00530411 -0.00481668 -0.00434149 -0.00387853 -0.00343072 -0.00300099 -0.00258934 -0.00219576 -0.0018223 -0.00147099 -0.00114183 -0.000834818 -0.000551137 -0.000291962 -5.72932e-05 0.00015287 0.000338339 0.000498923 0.000634622 0.000745436 0.000832419 0.000896624 0.00093805 0.000956698 0.000955209 0.000936226 0.000899747 0.000845774 0.000778989 0.000704074 0.000621031 0.000529858 0.000435919 0.000344578 0.000255836 0.000169691 9.54513e-05 4.24228e-05 1.06057e-05 0 0 1.37586e-05 5.50346e-05 0.000123828 0.000220138 0.00033147 0.000445328 0.000561712 0.000680621 0.000794958 0.000897627 0.000988626 0.00106796 0.00112958 0.00116746 0.00118159 0.00117198 0.0011354 0.00106864 0.000971686 0.000844549 0.000686225 0.000495712 0.000273012 1.8123e-05 -0.000268253 -0.000585415 -0.000933363 -0.0013121 -0.00171964 -0.00215403 -0.00261527 -0.00310334 -0.00361527 -0.00414809 -0.00470179 -0.00527637 -0.00586789 -0.0064724 -0.00708992 -0.00772043 -0.00835895 -0.00900048 -0.00964502 -0.0102926 -0.0109371 -0.0115726 -0.012199 -0.0128164 -0.013418 -0.0139972 -0.0145539 -0.0150881 -0.0155932 -0.0160627 -0.0164966 -0.0168948 -0.0172521 -0.0175632 -0.017828 -0.0180466 -0.018216 -0.0183335 -0.0183988 -0.0184122 -0.0183736 -0.0182834 -0.0181416 -0.017948 -0.017706 -0.0174188 -0.0170864 -0.0167088 -0.0162915 -0.0158402 -0.0153548 -0.0148353 -0.0142885 -0.0137211 -0.0131331 -0.0125245 -0.011902 -0.0112725 -0.0106358 -0.00999209 -0.00934721 -0.00870714 -0.00807188 -0.00744142 -0.00682057 -0.00621413 -0.00562208 -0.00504444 -0.00448485 -0.00394697 -0.00343078 -0.0029363 -0.00246614 -0.00202293 -0.00160666 -0.00121733 -0.000856546 -0.000525899 -0.000225391 4.49788e-05 0.000284828 0.000493776 0.000671822 0.000818966 0.000936394 0.00102529 0.00108565 0.00111748 0.00112397 0.00110832 0.00107051 0.00101056 0.000934196 0.000847155 0.000749436 0.000641041 0.000528599 0.000418743 0.000311472 0.000206786 0.000116317 5.16966e-05 1.29241e-05 0 0 1.61496e-05 6.45985e-05 0.000145347 0.000258394 0.000388673 0.000521116 0.000655722 0.000792492 0.000922932 0.00103855 0.00113934 0.00122531 0.00128932 0.00132422 0.00133003 0.00130674 0.00125062 0.00115795 0.00102873 0.000862954 0.000659618 0.000417712 0.000137235 -0.000181811 -0.000538366 -0.000931366 -0.00136081 -0.00182671 -0.00232648 -0.00285758 -0.00342 -0.00401373 -0.0046351 -0.00528039 -0.00594962 -0.00664277 -0.00735512 -0.00808192 -0.00882317 -0.00957887 -0.0103431 -0.0111101 -0.0118797 -0.012652 -0.0134199 -0.0141764 -0.0149215 -0.0156552 -0.0163697 -0.017057 -0.0177174 -0.0183506 -0.0189492 -0.0195053 -0.0200191 -0.0204904 -0.0209132 -0.0212812 -0.0215944 -0.0218529 -0.0220532 -0.022192 -0.0222692 -0.0222848 -0.0222392 -0.0221323 -0.0219644 -0.0217353 -0.0214488 -0.0211088 -0.0207152 -0.0202681 -0.0197738 -0.019239 -0.0186636 -0.0180476 -0.0173989 -0.0167253 -0.0160269 -0.0153036 -0.0145633 -0.013814 -0.0130555 -0.0122879 -0.0115182 -0.0107533 -0.0099933 -0.00923808 -0.00849337 -0.00776482 -0.00705245 -0.00635624 -0.00568061 -0.00502995 -0.00440427 -0.00380355 -0.00323108 -0.00269013 -0.00218068 -0.00170275 -0.00125844 -0.000849861 -0.000477019 -0.000139911 0.000160792 0.000424422 0.000650977 0.000840459 0.000994107 0.00111316 0.00119763 0.0012475 0.00126649 0.00125829 0.00122291 0.00116035 0.0010774 0.000980838 0.000870674 0.000746906 0.000617476 0.000490328 0.000365464 0.000242882 0.000136621 6.07204e-05 1.51801e-05 0 0 1.83217e-05 7.3287e-05 0.000164896 0.000293148 0.000440424 0.000589106 0.000739192 0.000890683 0.00103368 0.00115827 0.00126447 0.00135227 0.00141348 0.00143991 0.00143157 0.00138846 0.00130643 0.00118134 0.0010132 0.000802005 0.000546865 0.000246891 -9.7917e-05 -0.000487559 -0.000920473 -0.0013951 -0.00191143 -0.00246948 -0.00306596 -0.00369762 -0.00436445 -0.00506644 -0.00579915 -0.00655808 -0.00734325 -0.00815465 -0.00898676 -0.00983406 -0.0106965 -0.0115742 -0.0124604 -0.0133484 -0.0142381 -0.0151297 -0.0160151 -0.0168865 -0.0177439 -0.0185872 -0.0194077 -0.0201966 -0.0209539 -0.0216797 -0.0223653 -0.023002 -0.02359 -0.0241292 -0.0246127 -0.0250334 -0.0253915 -0.0256868 -0.0259156 -0.026074 -0.0261621 -0.0261799 -0.0261275 -0.0260052 -0.025813 -0.0255509 -0.0252232 -0.0248341 -0.0243836 -0.0238718 -0.0233059 -0.0226932 -0.0220337 -0.0213275 -0.0205833 -0.0198101 -0.0190078 -0.0181763 -0.0173246 -0.0164615 -0.0155871 -0.0147012 -0.0138118 -0.0129266 -0.0120458 -0.0111693 -0.0103036 -0.00945507 -0.0086238 -0.00780976 -0.0070181 -0.00625398 -0.00551738 -0.00480831 -0.00413076 -0.0034887 -0.00288213 -0.00231106 -0.00177822 -0.00128636 -0.000835463 -0.000425542 -5.76867e-05 0.000267011 0.000548552 0.000786935 0.000983338 0.00113894 0.00125374 0.00132773 0.00136506 0.00136985 0.00134211 0.00128183 0.00119681 0.00109485 0.000975961 0.000840129 0.00069663 0.000554736 0.000414447 0.000275763 0.000155117 6.89407e-05 1.72352e-05 0 0 2.0275e-05 8.11e-05 0.000182475 0.0003244 0.000486724 0.000649298 0.000812121 0.000975193 0.00112719 0.0012568 0.00136401 0.00144882 0.00150206 0.00151452 0.00148621 0.00141713 0.00130281 0.0011388 0.000925098 0.0006617 0.000347965 -1.67499e-05 -0.000432445 -0.00089912 -0.00141457 -0.00197661 -0.00258522 -0.00324041 -0.00393808 -0.00467415 -0.00544861 -0.00626147 -0.00710743 -0.00798117 -0.00888269 -0.00981201 -0.0107628 -0.0117288 -0.0127101 -0.0137065 -0.0147107 -0.0157153 -0.0167203 -0.0177256 -0.0187227 -0.0197028 -0.020666 -0.0216123 -0.0225321 -0.0234158 -0.0242635 -0.0250752 -0.0258414 -0.0265528 -0.0272094 -0.0278112 -0.0283506 -0.0288198 -0.0292191 -0.0295482 -0.0298031 -0.0299796 -0.0300776 -0.0300972 -0.0300385 -0.0299019 -0.0296874 -0.0293949 -0.0290291 -0.0285946 -0.0280916 -0.0275199 -0.0268876 -0.0262027 -0.0254651 -0.024675 -0.0238419 -0.0229754 -0.0220757 -0.0211426 -0.0201859 -0.0192152 -0.0182305 -0.0172319 -0.0162279 -0.0152271 -0.0142295 -0.0132351 -0.0122512 -0.0112849 -0.0103361 -0.00940499 -0.00849733 -0.00761904 -0.00677013 -0.00595059 -0.00516517 -0.00441865 -0.00371102 -0.00304227 -0.0024159 -0.00183539 -0.00130072 -0.000811915 -0.000370609 2.15442e-05 0.000364546 0.000658395 0.000904087 0.00110262 0.00125398 0.00135818 0.0014197 0.00144301 0.0014281 0.00137499 0.00129244 0.00118921 0.0010653 0.00092071 0.000766061 0.000611965 0.000458421 0.00030543 0.000171804 7.63575e-05 1.90894e-05 0 0 2.20094e-05 8.80374e-05 0.000198084 0.00035215 0.000527573 0.000701693 0.00087451 0.00104602 0.00120348 0.00133413 0.00143796 0.00151499 0.00155506 0.00154805 0.00149394 0.00139275 0.00123978 0.00103034 0.000764424 0.000442041 6.29191e-05 -0.000373211 -0.000866349 -0.0014165 -0.00202067 -0.0026759 -0.00338217 -0.00413949 -0.00494284 -0.00578718 -0.0066725 -0.00759882 -0.00855993 -0.00954964 -0.0105679 -0.0116148 -0.0126833 -0.0137662 -0.0148637 -0.0159757 -0.0170941 -0.0182109 -0.0193262 -0.0204398 -0.0215426 -0.0226254 -0.023688 -0.0247306 -0.0257429 -0.0267147 -0.0276462 -0.0285372 -0.0293777 -0.0301577 -0.0308773 -0.0315364 -0.0321268 -0.0326404 -0.0330772 -0.0334372 -0.0337159 -0.0339087 -0.0340157 -0.0340368 -0.0339724 -0.0338226 -0.0335876 -0.0332672 -0.0328664 -0.0323904 -0.0318391 -0.0312124 -0.0305191 -0.0297676 -0.0289579 -0.0280901 -0.0271744 -0.0262213 -0.0252306 -0.0242025 -0.0231471 -0.0220749 -0.0209859 -0.01988 -0.0187665 -0.0176546 -0.0165442 -0.0154355 -0.0143362 -0.0132542 -0.0121894 -0.0111419 -0.0101183 -0.00912515 -0.00816251 -0.00723036 -0.00633432 -0.00547998 -0.00466733 -0.00389639 -0.00317148 -0.00249695 -0.0018728 -0.00129903 -0.000777975 -0.00031198 9.89588e-05 0.00045484 0.000756355 0.0010042 0.00119836 0.00133885 0.0014304 0.00147775 0.0014809 0.00143984 0.00136428 0.00126389 0.00113868 0.00098865 0.000825771 0.000662016 0.000497387 0.000331883 0.000186684 8.29708e-05 2.07427e-05 0 0 2.33891e-05 9.35564e-05 0.000210502 0.000374226 0.000559687 0.000741846 0.000920702 0.00109625 0.00125436 0.00138087 0.00147578 0.00153909 0.00155983 0.00152701 0.00144063 0.0013007 0.00110244 0.000841079 0.000516623 0.00012907 -0.000321297 -0.000834191 -0.00140961 -0.00204756 -0.00274411 -0.00349531 -0.00430117 -0.00516169 -0.00607078 -0.00702232 -0.00801634 -0.00905281 -0.0101246 -0.0112246 -0.0123528 -0.0135092 -0.0146861 -0.0158758 -0.0170781 -0.0182932 -0.0195126 -0.0207277 -0.0219386 -0.0231452 -0.0243379 -0.0255073 -0.0266532 -0.0277757 -0.0288642 -0.0299084 -0.030908 -0.0318633 -0.0327637 -0.0335989 -0.0343688 -0.0350736 -0.0357046 -0.0362533 -0.0367199 -0.0371042 -0.0374015 -0.0376072 -0.0377211 -0.0377434 -0.0376742 -0.0375139 -0.0372624 -0.0369198 -0.0364912 -0.0359818 -0.0353918 -0.0347211 -0.0339786 -0.0331733 -0.0323051 -0.0313742 -0.0303911 -0.0293667 -0.0283008 -0.0271936 -0.0260558 -0.0248979 -0.0237201 -0.0225224 -0.0213142 -0.0201053 -0.0188957 -0.0176853 -0.0164825 -0.0152955 -0.0141244 -0.0129691 -0.011837 -0.0107353 -0.00966414 -0.00862341 -0.00761962 -0.00665926 -0.00574235 -0.00486886 -0.00404414 -0.00327352 -0.002557 -0.00189457 -0.00128944 -0.000744811 -0.000260685 0.000162939 0.000526278 0.000829547 0.00107275 0.00125588 0.00138379 0.00146135 0.00148855 0.0014654 0.0014024 0.00131008 0.00118843 0.00103745 0.000870451 0.000700723 0.000528268 0.000353088 0.000198612 8.82719e-05 2.2068e-05 0 0 2.42785e-05 9.71139e-05 0.000218506 0.000388456 0.000579784 0.000765312 0.00094504 0.00111897 0.00127165 0.00138762 0.0014669 0.00150948 0.0015037 0.00143792 0.00131213 0.00112634 0.000875899 0.000556167 0.000167143 -0.000291171 -0.000817706 -0.00141139 -0.00207222 -0.00280021 -0.00359024 -0.0044372 -0.00534111 -0.00630195 -0.00731242 -0.00836522 -0.00946033 -0.0105978 -0.0117694 -0.0129673 -0.0141912 -0.0154413 -0.0167093 -0.0179869 -0.019274 -0.0205707 -0.0218684 -0.0231582 -0.0244403 -0.0257146 -0.0269716 -0.0282017 -0.0294049 -0.0305813 -0.0317203 -0.0328117 -0.0338553 -0.0348512 -0.035789 -0.0366584 -0.0374592 -0.0381916 -0.038847 -0.0394168 -0.039901 -0.0402996 -0.0406078 -0.0408209 -0.0409388 -0.0409615 -0.0408893 -0.0407224 -0.0404609 -0.0401047 -0.0396591 -0.0391293 -0.0385155 -0.0378176 -0.0370445 -0.0362054 -0.0353001 -0.0343287 -0.0333019 -0.0322305 -0.0311145 -0.0299539 -0.0287593 -0.0275414 -0.0263002 -0.0250358 -0.0237577 -0.0224755 -0.0211894 -0.0198993 -0.0186136 -0.017341 -0.0160815 -0.014835 -0.0136094 -0.0124127 -0.0112447 -0.0101055 -0.00900247 -0.00794309 -0.00692732 -0.00595517 -0.0050331 -0.00416758 -0.00335863 -0.00260622 -0.00191465 -0.0012882 -0.000726861 -0.000230636 0.000199993 0.000564543 0.000863013 0.00109541 0.0012665 0.00138107 0.00143913 0.00144067 0.00139688 0.00131894 0.00120686 0.00106062 0.000894796 0.000723917 0.000547988 0.000367009 0.000206442 9.17522e-05 2.2938e-05 0 0 2.46775e-05 9.871e-05 0.000222097 0.00039484 0.000587863 0.000772091 0.000947525 0.00111416 0.00125534 0.0013544 0.00141134 0.00142615 0.00138668 0.00128078 0.00110845 0.000869676 0.000560163 0.000175599 -0.000284015 -0.000818681 -0.00142631 -0.00210481 -0.00285418 -0.00367443 -0.00455905 -0.00550157 -0.00650197 -0.00756026 -0.00866778 -0.00981585 -0.0110045 -0.0122337 -0.0134944 -0.0147775 -0.0160831 -0.0174111 -0.0187528 -0.0200996 -0.0214513 -0.0228081 -0.0241614 -0.0255024 -0.0268313 -0.0281481 -0.0294436 -0.0307086 -0.0319432 -0.0331474 -0.0343112 -0.0354247 -0.036488 -0.037501 -0.0384537 -0.0393363 -0.0401485 -0.0408906 -0.0415541 -0.0421308 -0.0426205 -0.0430234 -0.0433348 -0.0435498 -0.0436686 -0.0436911 -0.0436175 -0.0434481 -0.0431829 -0.0428218 -0.0423701 -0.0418329 -0.0412101 -0.0405018 -0.0397168 -0.0388637 -0.0379427 -0.0369536 -0.0359069 -0.0348129 -0.0336717 -0.0324832 -0.0312576 -0.0300053 -0.0287262 -0.0274202 -0.0260968 -0.0247652 -0.0234254 -0.0220774 -0.0207297 -0.0193908 -0.0180608 -0.0167397 -0.0154356 -0.0141571 -0.0129041 -0.0116766 -0.0104829 -0.00933145 -0.00822225 -0.0071553 -0.00613834 -0.00517913 -0.00427769 -0.00343399 -0.00265362 -0.00194215 -0.00129957 -0.000725886 -0.0002225 0.000209182 0.00056916 0.000857435 0.00107852 0.00123691 0.00133263 0.00136566 0.00134771 0.00129048 0.00119396 0.00105817 0.000898806 0.0007316 0.000556546 0.000373647 0.000210176 9.34116e-05 2.33529e-05 0 0 2.45861e-05 9.83445e-05 0.000221275 0.000393378 0.000583924 0.000762183 0.000928156 0.00108184 0.00120545 0.0012812 0.00130909 0.00128911 0.00120877 0.00105559 0.000829572 0.000530706 0.000155229 -0.000300624 -0.000836853 -0.00145346 -0.0021471 -0.00291444 -0.00375548 -0.00467022 -0.00565056 -0.00668841 -0.00778377 -0.00893663 -0.0101368 -0.0113742 -0.0126488 -0.0139606 -0.0152995 -0.0166554 -0.0180284 -0.0194185 -0.0208167 -0.0222139 -0.0236101 -0.0250054 -0.0263916 -0.0277603 -0.0291117 -0.0304456 -0.0317539 -0.033028 -0.034268 -0.035474 -0.0366368 -0.0377475 -0.0388061 -0.0398126 -0.0407578 -0.0416325 -0.0424367 -0.0431705 -0.0438259 -0.0443953 -0.0448785 -0.0452757 -0.0455824 -0.045794 -0.0459106 -0.0459322 -0.0458589 -0.045691 -0.0454285 -0.0450713 -0.0446244 -0.0440925 -0.0434757 -0.0427739 -0.0419954 -0.0411485 -0.040233 -0.039249 -0.0382061 -0.0371139 -0.0359724 -0.0347815 -0.0335508 -0.0322896 -0.0309979 -0.0296757 -0.0283317 -0.0269743 -0.0256036 -0.0242197 -0.0228307 -0.0214449 -0.0200624 -0.0186831 -0.0173156 -0.0159687 -0.0146424 -0.0133367 -0.0120608 -0.0108243 -0.00962715 -0.00846925 -0.00735986 -0.00630817 -0.00531417 -0.00437787 -0.00350634 -0.00270666 -0.00197881 -0.00132281 -0.000741201 -0.000236535 0.000191187 0.000541967 0.000819848 0.00102888 0.00116905 0.00124037 0.00125489 0.00122469 0.00114975 0.00103008 0.000882481 0.00072377 0.000553944 0.000373001 0.000209813 9.32502e-05 2.33126e-05 0 0 2.39265e-05 9.5706e-05 0.000215338 0.000382824 0.0005661 0.000733103 0.000883833 0.00101829 0.00111771 0.00116332 0.00115513 0.00109313 0.000964722 0.000757322 0.000470926 0.000105534 -0.000341815 -0.000874079 -0.00149126 -0.00219336 -0.0029755 -0.00383281 -0.0047653 -0.00577296 -0.00684584 -0.00797401 -0.00915745 -0.0103962 -0.0116784 -0.0129922 -0.0143377 -0.0157149 -0.0171127 -0.01852 -0.0199369 -0.0213634 -0.0227903 -0.0242085 -0.0256182 -0.0270192 -0.028404 -0.0297653 -0.0311029 -0.0324169 -0.0337002 -0.0349458 -0.0361537 -0.0373239 -0.0384488 -0.0395209 -0.0405402 -0.0415067 -0.0424124 -0.0432496 -0.0440182 -0.0447182 -0.0453428 -0.0458849 -0.0463448 -0.0467222 -0.0470133 -0.0472139 -0.0473241 -0.0473439 -0.0472733 -0.0471126 -0.0468618 -0.0465208 -0.0460939 -0.0455856 -0.0449957 -0.0443244 -0.0435788 -0.0427662 -0.0418867 -0.0409401 -0.0399349 -0.0388793 -0.0377734 -0.0366172 -0.0354187 -0.0341859 -0.0329187 -0.0316173 -0.030289 -0.0289413 -0.0275741 -0.0261875 -0.0247891 -0.0233865 -0.0219798 -0.0205688 -0.0191626 -0.0177699 -0.0163907 -0.0150251 -0.0136834 -0.0123759 -0.0111028 -0.00986394 -0.00867017 -0.00753228 -0.00645026 -0.00542412 -0.00446268 -0.00357476 -0.00276036 -0.00201949 -0.00135611 -0.000774196 -0.000273743 0.000145247 0.000486103 0.000752153 0.000943396 0.00105983 0.00111367 0.00111712 0.00107018 0.000972849 0.000842894 0.000698084 0.000538418 0.000363897 0.000204692 9.09743e-05 2.27436e-05 0 0 2.26206e-05 9.04825e-05 0.000203586 0.00036193 0.000532521 0.000682363 0.000811456 0.0009198 0.000987852 0.000996068 0.000944447 0.000832989 0.000649287 0.000380932 2.79244e-05 -0.000409736 -0.000933881 -0.00154634 -0.00224712 -0.00303622 -0.0039069 -0.00485242 -0.00587279 -0.00696801 -0.00812598 -0.00933464 -0.010594 -0.011904 -0.0132511 -0.0146216 -0.0160156 -0.017433 -0.0188619 -0.0202903 -0.021718 -0.0231453 -0.024563 -0.0259624 -0.0273433 -0.0287058 -0.0300436 -0.0313505 -0.0326264 -0.0338714 -0.0350804 -0.0362481 -0.0373747 -0.0384601 -0.0394989 -0.0404858 -0.0414207 -0.0423037 -0.0431288 -0.04389 -0.0445874 -0.0452209 -0.0457851 -0.0462744 -0.0466889 -0.0470286 -0.0472901 -0.04747 -0.0475683 -0.0475852 -0.0475205 -0.0473744 -0.0471468 -0.0468378 -0.0464509 -0.0459897 -0.045454 -0.0448439 -0.0441652 -0.0434238 -0.0426195 -0.0417524 -0.0408289 -0.0398554 -0.0388319 -0.0377585 -0.0366409 -0.0354853 -0.0342916 -0.0330599 -0.0317956 -0.0305046 -0.0291868 -0.0278422 -0.0264773 -0.0250988 -0.0237065 -0.0223006 -0.0208899 -0.019483 -0.0180801 -0.0166811 -0.0152974 -0.0139403 -0.01261 -0.0113062 -0.0100418 -0.00882905 -0.00766813 -0.00655898 -0.00551248 -0.00453949 -0.00363999 -0.002814 -0.00206723 -0.00140539 -0.000828467 -0.000336477 7.28914e-05 0.000401945 0.000650683 0.000819106 0.000919297 0.000963339 0.000951233 0.000882979 0.000777119 0.000652196 0.00050821 0.000345161 0.000194153 8.62902e-05 2.15725e-05 0 0 2.06686e-05 8.26743e-05 0.000186017 0.000330697 0.000483188 0.000609964 0.000711024 0.000786369 0.00081588 0.000779438 0.000677044 0.000508697 0.000262467 -7.35761e-05 -0.000499433 -0.0010151 -0.00162097 -0.00231742 -0.00310444 -0.00398205 -0.00494131 -0.00597328 -0.00707796 -0.00825536 -0.00949098 -0.0107703 -0.0120933 -0.0134601 -0.014855 -0.0162625 -0.0176825 -0.019115 -0.0205473 -0.0219662 -0.0233719 -0.0247643 -0.026135 -0.0274753 -0.0287855 -0.0300653 -0.0313104 -0.0325161 -0.0336824 -0.0348093 -0.0358943 -0.0369349 -0.0379309 -0.0388825 -0.0397871 -0.0406422 -0.0414478 -0.0422038 -0.0429069 -0.0435537 -0.0441443 -0.0446786 -0.0451529 -0.0455638 -0.0459111 -0.0461949 -0.0464128 -0.0465622 -0.0466433 -0.0466561 -0.0466004 -0.0464762 -0.0462836 -0.0460225 -0.0456954 -0.0453047 -0.0448504 -0.0443324 -0.0437547 -0.043121 -0.0424314 -0.0416858 -0.0408881 -0.0400421 -0.0391478 -0.0382052 -0.0372176 -0.0361881 -0.0351167 -0.0340035 -0.0328516 -0.0316643 -0.0304417 -0.0291837 -0.0278953 -0.0265816 -0.0252427 -0.0238784 -0.0224974 -0.0211081 -0.0197105 -0.0183047 -0.0169029 -0.0155176 -0.0141487 -0.0127962 -0.0114746 -0.0101985 -0.00896776 -0.00778246 -0.00665576 -0.00560084 -0.00461771 -0.00370635 -0.00287456 -0.0021301 -0.00147299 -0.000903207 -0.000419787 -2.17488e-05 0.000290908 0.000518182 0.000671763 0.000763337 0.000792905 0.000760467 0.000685155 0.000586106 0.000463318 0.000316791 0.000178195 7.91979e-05 1.97995e-05 0 0 1.80703e-05 7.22811e-05 0.000162633 0.000289125 0.000418101 0.000515905 0.000582537 0.000617997 0.000601793 0.000513434 0.000352919 0.00012025 -0.000195737 -0.000606202 -0.00111115 -0.00171057 -0.00240308 -0.0031873 -0.00406322 -0.00503085 -0.00607872 -0.00719538 -0.00838081 -0.00963503 -0.0109408 -0.012281 -0.0136556 -0.0150645 -0.0164901 -0.0179147 -0.0193383 -0.0207609 -0.0221687 -0.0235479 -0.0248985 -0.0262204 -0.0275061 -0.0287475 -0.0299448 -0.0310978 -0.0322044 -0.033262 -0.0342707 -0.0352305 -0.0361421 -0.037006 -0.0378224 -0.0385912 -0.0393134 -0.0399901 -0.0406212 -0.0412068 -0.0417467 -0.0422407 -0.0426889 -0.0430911 -0.0434463 -0.043753 -0.0440113 -0.0442212 -0.0443814 -0.0444907 -0.0445491 -0.0445566 -0.044513 -0.0444182 -0.0442721 -0.0440749 -0.0438274 -0.0435307 -0.043185 -0.04279 -0.0423473 -0.0418581 -0.0413224 -0.0407403 -0.0401124 -0.0394393 -0.0387211 -0.0379576 -0.0371487 -0.0362941 -0.0353939 -0.0344481 -0.0334568 -0.0324204 -0.0313388 -0.030212 -0.0290431 -0.0278352 -0.0265883 -0.0253023 -0.0239853 -0.0226452 -0.0212821 -0.0198959 -0.0185 -0.0171076 -0.0157189 -0.0143337 -0.0129688 -0.0116406 -0.0103492 -0.00909455 -0.00789251 -0.00675883 -0.0056935 -0.00469654 -0.0037781 -0.00294835 -0.0022073 -0.00155494 -0.000991932 -0.000518928 -0.00013593 0.000157064 0.000371072 0.000517116 0.000595196 0.000605312 0.000567004 0.000499814 0.000403743 0.000278789 0.000156819 6.96973e-05 1.74243e-05 0 0 1.48039e-0