<?xml version="1.0"?> 
<VTKFile type="StructuredGrid" version="0.1"> 
<StructuredGrid WholeExtent="0 128 0 128 0 0"> 
<Piece Extent="0 128 0 128 0 0"> 
<PointData>
<DataArray type="Float32" Name="u" format="ascii" NumberOfComponents="1"> 
0 0 0 0 0 0 0 0 0 0 0 0 0 0 0 0 0 0 0 0 0 0 0 0 0 0 0 0 0 0 0 0 0 0 0 0 0 0 0 0 0 0 0 0 0 0 0 0 0 0 0 0 0 0 0 0 0 0 0 0 0 0 0 0 0 0 0 0 0 0 0 0 0 0 0 0 0 0 0 0 0 0 0 0 0 0 0 0 0 0 0 0 0 0 0 0 0 0 0 0 0 0 0 0 0 0 0 0 0 0 0 0 0 0 0 0 0 0 0 0 0 0 0 0 0 0 0 0 0 0 8.96648e-08 3.58659e-07 8.06983e-07 1.43464e-06 2.23329e-06 3.1946e-06 4.31857e-06 5.60521e-06 7.03715e-06 8.59702e-06 1.02848e-05 1.21006e-05 1.39961e-05 1.59233e-05 1.78821e-05 1.98726e-05 2.18363e-05 2.37149e-05 2.55085e-05 2.72169e-05 2.8781e-05 3.01414e-05 3.12982e-05 3.22513e-05 3.29521e-05 3.33518e-05 3.34505e-05 3.32482e-05 3.27158e-05 3.18244e-05 3.05741e-05 2.89648e-05 2.69916e-05 2.46495e-05 2.19384e-05 1.88584e-05 1.54295e-05 1.16719e-05 7.58548e-06 3.17026e-06 -1.52768e-06 -6.46229e-06 -1.16336e-05 -1.70415e-05 -2.26135e-05 -2.82769e-05 -3.40317e-05 -3.98779e-05 -4.57203e-05 -5.14638e-05 -5.71083e-05 -6.26539e-05 -6.79963e-05 -7.3031e-05 -7.77582e-05 -8.21779e-05 -8.61991e-05 -8.97311e-05 -9.27739e-05 -9.53275e-05 -9.73394e-05 -9.8757e-05 -9.95804e-05 -9.98096e-05 -9.94466e-05 -9.84932e-05 -9.69495e-05 -9.48155e-05 -9.2147e-05 -8.89999e-05 -8.53742e-05 -8.12699e-05 -7.67798e-05 -7.19967e-05 -6.69205e-05 -6.15512e-05 -5.59934e-05 -5.03514e-05 -4.46253e-05 -3.88151e-05 -3.30144e-05 -2.73169e-05 -2.17227e-05 -1.62317e-05 -1.09138e-05 -5.83928e-06 -1.00796e-06 3.58013e-06 7.88195e-06 1.18545e-05 1.54978e-05 1.88118e-05 2.17792e-05 2.43829e-05 2.66227e-05 2.84988e-05 3.0018e-05 3.11873e-05 3.20069e-05 3.24765e-05 3.26262e-05 3.24856e-05 3.20548e-05 3.13338e-05 3.03708e-05 2.92142e-05 2.7864e-05 2.63202e-05 2.46406e-05 2.2883e-05 2.10474e-05 1.91339e-05 1.71986e-05 1.52978e-05 1.34315e-05 1.15997e-05 9.84812e-06 8.22241e-06 6.72259e-06 5.34866e-06 4.11634e-06 3.04135e-06 2.12369e-06 1.36335e-06 7.66883e-07 3.40837e-07 8.52092e-08 0 0 3.58659e-07 1.43464e-06 3.22793e-06 5.73855e-06 8.93315e-06 1.27784e-05 1.72743e-05 2.24209e-05 2.81486e-05 3.43881e-05 4.11393e-05 4.84022e-05 5.59843e-05 6.3693e-05 7.15283e-05 7.94902e-05 8.73452e-05 9.48598e-05 0.000102034 0.000108868 0.000115124 0.000120566 0.000125193 0.000129005 0.000131808 0.000133407 0.000133802 0.000132993 0.000130863 0.000127298 0.000122296 0.000115859 0.000107966 9.85979e-05 8.77536e-05 7.54336e-05 6.17182e-05 4.66876e-05 3.03419e-05 1.26811e-05 -6.11071e-06 -2.58492e-05 -4.65343e-05 -6.81661e-05 -9.0454e-05 -0.000113108 -0.000136127 -0.000159511 -0.000182881 -0.000205855 -0.000228433 -0.000250616 -0.000271985 -0.000292124 -0.000311033 -0.000328711 -0.000344796 -0.000358924 -0.000371096 -0.00038131 -0.000389357 -0.000395028 -0.000398322 -0.000399239 -0.000397786 -0.000393973 -0.000387798 -0.000379262 -0.000368588 -0.000356 -0.000341497 -0.00032508 -0.000307119 -0.000287987 -0.000267682 -0.000246205 -0.000223973 -0.000201406 -0.000178501 -0.00015526 -0.000132058 -0.000109268 -8.68908e-05 -6.49266e-05 -4.36554e-05 -2.33571e-05 -4.03182e-06 1.43205e-05 3.15278e-05 4.7418e-05 6.19911e-05 7.52471e-05 8.7117e-05 9.75316e-05 0.000106491 0.000113995 0.000120072 0.000124749 0.000128027 0.000129906 0.000130505 0.000129942 0.000128219 0.000125335 0.000121483 0.000116857 0.000111456 0.000105281 9.85624e-05 9.1532e-05 8.41898e-05 7.65356e-05 6.87944e-05 6.11913e-05 5.37261e-05 4.63989e-05 3.93925e-05 3.28896e-05 2.68903e-05 2.13946e-05 1.64654e-05 1.21654e-05 8.49474e-06 5.45339e-06 3.06753e-06 1.36335e-06 3.40837e-07 0 0 8.06983e-07 3.22793e-06 7.26285e-06 1.29117e-05 2.00996e-05 2.87514e-05 3.88672e-05 5.04469e-05 6.33343e-05 7.73732e-05 9.25634e-05 0.000108905 0.000125965 0.000143309 0.000160939 0.000178853 0.000196527 0.000213434 0.000229576 0.000244952 0.000259029 0.000271273 0.000281684 0.000290262 0.000296569 0.000300167 0.000301055 0.000299233 0.000294442 0.00028642 0.000275167 0.000260684 0.000242925 0.000221845 0.000197446 0.000169726 0.000138866 0.000105047 6.82693e-05 2.85324e-05 -1.37491e-05 -5.81606e-05 -0.000104702 -0.000153374 -0.000203522 -0.000254492 -0.000306285 -0.000358901 -0.000411483 -0.000463174 -0.000513975 -0.000563885 -0.000611966 -0.000657279 -0.000699824 -0.000739601 -0.000775792 -0.00080758 -0.000834965 -0.000857947 -0.000876054 -0.000888813 -0.000896224 -0.000898287 -0.000895019 -0.000886439 -0.000872545 -0.000853339 -0.000829323 -0.000800999 -0.000768368 -0.000731429 -0.000691018 -0.00064797 -0.000602284 -0.000553961 -0.00050394 -0.000453163 -0.000401628 -0.000349336 -0.00029713 -0.000245853 -0.000195504 -0.000146085 -9.82246e-05 -5.25535e-05 -9.0716e-06 3.22211e-05 7.09375e-05 0.00010669 0.00013948 0.000169306 0.000196013 0.000219446 0.000239605 0.000256489 0.000270162 0.000280686 0.000288062 0.000292289 0.000293636 0.000292371 0.000288493 0.000282004 0.000273337 0.000262928 0.000250776 0.000236882 0.000221765 0.000205947 0.000189427 0.000172205 0.000154787 0.00013768 0.000120884 0.000104398 8.86331e-05 7.40016e-05 6.05033e-05 4.81379e-05 3.70471e-05 2.73721e-05 1.91132e-05 1.22701e-05 6.90195e-06 3.06753e-06 7.66883e-07 0 0 1.43464e-06 5.73855e-06 1.29117e-05 2.29542e-05 3.57326e-05 5.11136e-05 6.90972e-05 8.96834e-05 0.000112594 0.000137552 0.000164557 0.000193609 0.000223937 0.000254772 0.000286113 0.000317961 0.000349381 0.000379439 0.000408136 0.000435471 0.000460496 0.000482262 0.000500771 0.000516021 0.000527234 0.00053363 0.000535208 0.00053197 0.000523452 0.000509191 0.000489186 0.000463437 0.000431866 0.000394392 0.000351014 0.000301734 0.000246873 0.000186751 0.000121368 5.07242e-05 -2.44428e-05 -0.000103397 -0.000186137 -0.000272664 -0.000361816 -0.00045243 -0.000544507 -0.000638046 -0.000731525 -0.00082342 -0.000913733 -0.00100246 -0.00108794 -0.0011685 -0.00124413 -0.00131485 -0.00137919 -0.0014357 -0.00148438 -0.00152524 -0.00155743 -0.00158011 -0.00159329 -0.00159695 -0.00159115 -0.00157589 -0.00155119 -0.00151705 -0.00147435 -0.001424 -0.00136599 -0.00130032 -0.00122848 -0.00115195 -0.00107073 -0.000984819 -0.000895894 -0.000805622 -0.000714005 -0.000621041 -0.000528231 -0.000437071 -0.000347563 -0.000259707 -0.000174622 -9.34285e-05 -1.61273e-05 5.7282e-05 0.000126111 0.000189672 0.000247964 0.000300989 0.000348468 0.000390126 0.000425964 0.00045598 0.000480287 0.000498997 0.00051211 0.000519625 0.000522019 0.00051977 0.000512877 0.00050134 0.000485933 0.000467427 0.000445824 0.000421123 0.00039425 0.000366128 0.000336759 0.000306142 0.000275178 0.000244765 0.000214904 0.000185596 0.00015757 0.000131558 0.000107561 8.55785e-05 6.58614e-05 4.86616e-05 3.3979e-05 2.18136e-05 1.22701e-05 5.45339e-06 1.36335e-06 0 0 2.23953e-06 8.95812e-06 2.01558e-05 3.58325e-05 5.56942e-05 7.94468e-05 0.00010709 0.000138625 0.000173587 0.000211517 0.000252412 0.000296274 0.000341907 0.000388113 0.000434894 0.00048225 0.000528753 0.000572979 0.000614928 0.000654598 0.000690561 0.000721387 0.000747075 0.000767625 0.000781878 0.000788672 0.000788008 0.000779885 0.000763627 0.000738559 0.000704679 0.000661988 0.000610389 0.000549784 0.000480175 0.00040156 0.000314447 0.00021934 0.00011624 5.14757e-06 -0.000112803 -0.000236476 -0.000365871 -0.000500989 -0.000640045 -0.000781253 -0.000924614 -0.00107013 -0.00121545 -0.00135825 -0.00149852 -0.00163626 -0.00176891 -0.00189389 -0.0020112 -0.00212085 -0.0022206 -0.0023082 -0.00238366 -0.00244697 -0.00249684 -0.00253199 -0.00255239 -0.00255807 -0.00254906 -0.00252541 -0.00248712 -0.00243419 -0.002368 -0.00228993 -0.00219998 -0.00209814 -0.00198671 -0.00186796 -0.00174191 -0.00160855 -0.00147045 -0.00133018 -0.00118776 -0.00104317 -0.000898721 -0.000756718 -0.00061716 -0.000480047 -0.000347102 -0.000220044 -9.88761e-05 1.64037e-05 0.000124734 0.000225052 0.000317359 0.000401655 0.000477502 0.000544462 0.000602535 0.000651722 0.000692169 0.000724023 0.000747283 0.000761951 0.000768724 0.000768301 0.000760681 0.000745865 0.000725006 0.000699255 0.000668613 0.000633079 0.000594051 0.000552922 0.000509694 0.000464367 0.000418314 0.000372911 0.000328158 0.000284055 0.000241737 0.000202342 0.000165868 0.000132317 0.000102109 7.56645e-05 5.29843e-05 3.40682e-05 1.91634e-05 8.51705e-06 2.12926e-06 0 0 3.21958e-06 1.28783e-05 2.89762e-05 5.15132e-05 7.98464e-05 0.000113333 0.000151972 0.000195765 0.000243972 0.000295858 0.000351421 0.000410662 0.000471877 0.000533365 0.000595124 0.000657155 0.00071749 0.000774161 0.000827168 0.00087651 0.000920262 0.000956497 0.000985215 0.00100642 0.00101858 0.00102017 0.0010112 0.000991658 0.0009607 0.000917471 0.000861972 0.000794202 0.000714091 0.000621571 0.000516642 0.000399304 0.000270296 0.000130358 -2.05096e-05 -0.000182307 -0.00035344 -0.000532317 -0.000718936 -0.000913299 -0.00111291 -0.00131529 -0.00152043 -0.00172833 -0.00193572 -0.00213933 -0.00233916 -0.00253521 -0.00272388 -0.00290157 -0.00306829 -0.00322403 -0.00336565 -0.00349 -0.00359709 -0.00368692 -0.00375766 -0.0038075 -0.00383643 -0.00384446 -0.00383165 -0.00379806 -0.0037437 -0.00366857 -0.0035746 -0.00346373 -0.00333596 -0.00319128 -0.00303291 -0.00286406 -0.00268472 -0.00249491 -0.00229821 -0.00209825 -0.00189502 -0.00168851 -0.00148196 -0.00127859 -0.00107839 -0.000881362 -0.00068992 -0.000506464 -0.000330995 -0.000163513 -5.51059e-06 0.00014152 0.000277578 0.000402665 0.000516134 0.000617341 0.000706285 0.000782967 0.000847526 0.000900102 0.000940695 0.000969305 0.000986819 0.000994123 0.000991217 0.000978101 0.000956293 0.000927311 0.000891155 0.000847825 0.000799204 0.000747176 0.00069174 0.000632897 0.000572545 0.000512585 0.000453015 0.000393836 0.000336669 0.000283133 0.000233227 0.000186954 0.000144989 0.000108012 7.60214e-05 4.90185e-05 2.75729e-05 1.22546e-05 3.06366e-06 0 0 4.37477e-06 1.74991e-05 3.93729e-05 6.99964e-05 0.000108189 0.000152771 0.000203743 0.000261103 0.000323749 0.000390576 0.000461583 0.000536771 0.000613849 0.000690526 0.000766802 0.000842678 0.000915592 0.000982985 0.00104486 0.00110121 0.0011496 0.00118759 0.00121519 0.0012324 0.00123733 0.00122812 0.00120478 0.00116729 0.00111467 0.00104593 0.000961065 0.000860079 0.000742973 0.000609753 0.000460416 0.000294964 0.00011442 -8.01959e-05 -0.000288882 -0.000511638 -0.000746355 -0.000990919 -0.00124533 -0.00150959 -0.00178043 -0.00205454 -0.00233195 -0.00261265 -0.00289232 -0.00316665 -0.00343564 -0.00369929 -0.00395285 -0.00419155 -0.00441539 -0.00462437 -0.00481433 -0.00498111 -0.00512469 -0.00524509 -0.00533988 -0.00540665 -0.0054454 -0.00545612 -0.00543891 -0.00539386 -0.00532095 -0.0052202 -0.00509416 -0.0049454 -0.00477393 -0.00457975 -0.0043671 -0.00414024 -0.00389918 -0.0036439 -0.00337919 -0.00310982 -0.00283578 -0.00255707 -0.00227795 -0.00200268 -0.00173124 -0.00146365 -0.00120308 -0.000952687 -0.000712485 -0.000482469 -0.000264621 -6.0924e-05 0.000128623 0.000304019 0.000464366 0.000608764 0.000737214 0.000849714 0.000946358 0.00102723 0.00109234 0.00114169 0.0011763 0.00119724 0.00120448 0.00119805 0.00117979 0.00115159 0.00111345 0.00106536 0.00100971 0.00094889 0.000882897 0.000811733 0.000737871 0.000663785 0.000589475 0.000514941 0.000442365 0.000373931 0.000309639 0.000249488 0.000194502 0.000145703 0.00010309 6.66645e-05 3.74988e-05 1.66661e-05 4.16653e-06 0 0 5.70512e-06 2.28205e-05 5.13461e-05 9.12819e-05 0.000140723 0.000197763 0.000262402 0.000334641 0.000412918 0.00049567 0.000582898 0.000674602 0.000767822 0.000859598 0.000949929 0.00103882 0.00112306 0.00119945 0.00126799 0.00132869 0.00137857 0.00141468 0.00143701 0.00144556 0.00143814 0.00141253 0.00136875 0.00130678 0.00122554 0.00112393 0.00100196 0.00085962 0.000697035 0.000514328 0.000311497 8.85424e-05 -0.000153182 -0.000412321 -0.000688877 -0.000982848 -0.00129155 -0.00161228 -0.00194506 -0.00228988 -0.00264258 -0.00299901 -0.00335918 -0.00372308 -0.00408525 -0.00444021 -0.00478797 -0.00512852 -0.00545582 -0.00576381 -0.0060525 -0.00632188 -0.00656666 -0.00678151 -0.00696645 -0.00712147 -0.0072435 -0.00732943 -0.00737929 -0.00739306 -0.00737086 -0.00731279 -0.00721886 -0.00708906 -0.00692666 -0.00673494 -0.0065139 -0.00626353 -0.00598926 -0.0056965 -0.00538526 -0.00505553 -0.00471339 -0.00436489 -0.00401004 -0.00364884 -0.00328669 -0.00292899 -0.00257573 -0.00222692 -0.00188657 -0.00155871 -0.00124334 -0.000940463 -0.000652598 -0.00038228 -0.000129508 0.000105717 0.000322197 0.000518732 0.000695321 0.000851965 0.000988665 0.00110542 0.00120223 0.0012791 0.00133718 0.00137764 0.00140048 0.0014057 0.00139551 0.00137211 0.0013355 0.00128568 0.00122557 0.00115806 0.00108317 0.00100088 0.000914292 0.000826513 0.000737538 0.000647368 0.000558826 0.000474738 0.000395103 0.000319922 0.000250648 0.000188738 0.000134191 8.70062e-05 4.8941e-05 2.17515e-05 5.43788e-06 0 0 7.19798e-06 2.87919e-05 6.47818e-05 0.000115168 0.000177098 0.000247722 0.000327039 0.000415049 0.000509612 0.000608587 0.000711975 0.000819776 0.000928273 0.00103375 0.00113621 0.00123565 0.0013282 0.00140999 0.00148102 0.00154129 0.00158733 0.00161569 0.00162637 0.00161937 0.00159222 0.00154246 0.00147009 0.00137511 0.00125641 0.00111286 0.000944484 0.000751266 0.000533516 0.00029154 2.53372e-05 -0.000265092 -0.000578019 -0.000911716 -0.00126618 -0.00164142 -0.00203413 -0.00244102 -0.00286208 -0.00329731 -0.00374165 -0.00419003 -0.00464244 -0.00509889 -0.00555267 -0.00599709 -0.00643214 -0.00685783 -0.00726671 -0.00765133 -0.0080117 -0.00834781 -0.00865312 -0.00892108 -0.00915168 -0.00934492 -0.009497 -0.00960409 -0.0096662 -0.00968332 -0.00965559 -0.00958314 -0.00946596 -0.00930407 -0.0091015 -0.00886229 -0.00858645 -0.00827398 -0.00793155 -0.00756588 -0.00717694 -0.00676476 -0.00633678 -0.00590049 -0.00545587 -0.00500294 -0.00454831 -0.00409861 -0.00365382 -0.00321396 -0.00278393 -0.00236866 -0.00196813 -0.00158236 -0.00121445 -0.000867515 -0.000541545 -0.000236544 4.59456e-05 0.000304383 0.000538768 0.0007491 0.000935226 0.00109699 0.0012344 0.00134745 0.00143734 0.00150528 0.00155128 0.00157532 0.0015799 0.0015675 0.00153811 0.00149173 0.00143176 0.00136162 0.00128129 0.00119078 0.00109384 0.000994219 0.000891916 0.000786931 0.000682817 0.000583123 0.00048785 0.000396998 0.00031257 0.000236571 0.000169 0.000109857 6.17947e-05 2.74643e-05 6.86608e-06 0 0 8.84073e-06 3.53629e-05 7.95665e-05 0.000141452 0.000216968 0.000302064 0.000396741 0.000500998 0.000611965 0.000726774 0.000845423 0.000967912 0.00108968 0.00120616 0.00131736 0.00142327 0.00151935 0.00160105 0.00166838 0.00172134 0.00175603 0.00176859 0.001759 0.00172727 0.0016708 0.00158697 0.00147579 0.00133726 0.00117037 0.00097411 0.000748472 0.000493462 0.000209656 -0.000102368 -0.000442609 -0.000811068 -0.00120561 -0.00162408 -0.00206649 -0.00253284 -0.00301922 -0.00352172 -0.00404034 -0.00457507 -0.00511993 -0.00566892 -0.00622205 -0.00677931 -0.00733273 -0.00787435 -0.00840416 -0.00892215 -0.00941943 -0.00988706 -0.0103251 -0.0107334 -0.0111042 -0.0114297 -0.0117097 -0.0119443 -0.0121289 -0.0122588 -0.0123342 -0.0123549 -0.0123212 -0.0122332 -0.0120908 -0.0118941 -0.011648 -0.0113574 -0.0110222 -0.0106424 -0.0102261 -0.00978139 -0.00930819 -0.00880652 -0.00828535 -0.00775362 -0.00721133 -0.00665847 -0.00610294 -0.00555261 -0.00500749 -0.00446757 -0.00393868 -0.00342662 -0.00293141 -0.00245304 -0.0019952 -0.0015616 -0.00115222 -0.00076707 -0.000408071 -7.71426e-05 0.000225714 0.0005005 0.000746821 0.000964285 0.00115289 0.00131264 0.00144466 0.00155009 0.00162893 0.00168117 0.00170945 0.00171642 0.00170208 0.00166643 0.00161328 0.00154648 0.00146603 0.00137191 0.00126855 0.00116035 0.00104732 0.000929445 0.000811102 0.000696657 0.00058611 0.000479462 0.00037941 0.000288655 0.000207195 0.000135031 7.59552e-05 3.37578e-05 8.43946e-06 0 0 1.06334e-05 4.25334e-05 9.57002e-05 0.000170134 0.000260331 0.000360789 0.000471508 0.000592488 0.000719978 0.000850229 0.00098324 0.00111901 0.00125204 0.00137682 0.00149336 0.00160166 0.00169648 0.00177262 0.00183007 0.00186884 0.00188468 0.00187336 0.0018349 0.00176927 0.00167387 0.00154606 0.00138585 0.00119324 0.000967442 0.000707669 0.000413924 8.62061e-05 -0.000274546 -0.000667396 -0.00109234 -0.00154939 -0.00203594 -0.00254941 -0.0030898 -0.00365712 -0.00424682 -0.0048544 -0.00547984 -0.00612315 -0.00677741 -0.0074357 -0.00809801 -0.00876435 -0.00942544 -0.010072 -0.010704 -0.0113215 -0.011914 -0.012471 -0.0129926 -0.0134787 -0.01392 -0.0143073 -0.0146404 -0.0149195 -0.0151391 -0.0152937 -0.0153833 -0.0154079 -0.0153677 -0.0152629 -0.0150934 -0.0148593 -0.0145663 -0.0142202 -0.0138211 -0.0133688 -0.012873 -0.012343 -0.011779 -0.0111808 -0.0105591 -0.0099243 -0.00927641 -0.00861544 -0.00795058 -0.00729101 -0.00663674 -0.00598776 -0.00535081 -0.00473261 -0.00413317 -0.00355249 -0.00299485 -0.00246453 -0.00196153 -0.00148586 -0.00103985 -0.000625845 -0.000243839 0.000106164 0.000423449 0.000707297 0.000957709 0.00117468 0.00135916 0.00151208 0.00163343 0.00172323 0.00178415 0.00181888 0.00182743 0.00180978 0.00177012 0.00171265 0.00163737 0.00154427 0.00143843 0.00132492 0.00120375 0.00107491 0.000943682 0.00081534 0.000689884 0.000567313 0.000451168 0.000344989 0.000248776 0.000162529 9.14224e-05 4.06322e-05 1.0158e-05 0 0 1.25759e-05 5.03034e-05 0.000113183 0.000201214 0.000307188 0.000423897 0.000551341 0.000689519 0.000833651 0.000978954 0.00112543 0.00127307 0.00141536 0.00154574 0.00166423 0.00177082 0.00185962 0.00192471 0.0019661 0.00198379 0.00197326 0.00193002 0.00185405 0.00174537 0.00160144 0.00141974 0.00120028 0.000943043 0.00064761 0.000313542 -5.9162e-05 -0.000470501 -0.00091909 -0.00140354 -0.00192386 -0.00248005 -0.00306902 -0.00368771 -0.00433612 -0.00501424 -0.00571693 -0.00643905 -0.00718059 -0.00794156 -0.0087141 -0.00949035 -0.0102703 -0.011054 -0.0118308 -0.01259 -0.0133317 -0.0140558 -0.0147504 -0.0154032 -0.0160142 -0.0165836 -0.0171004 -0.0175539 -0.017944 -0.0182707 -0.0185277 -0.0187086 -0.0188135 -0.0188422 -0.0187951 -0.0186722 -0.0184737 -0.0181995 -0.0178563 -0.0174509 -0.0169832 -0.0164532 -0.0158721 -0.0152508 -0.0145893 -0.0138877 -0.013158 -0.0124125 -0.0116511 -0.0108738 -0.0100912 -0.00931379 -0.00854156 -0.00777453 -0.00702033 -0.00628663 -0.00557343 -0.00488072 -0.00421338 -0.0035763 -0.00296948 -0.00239291 -0.0018494 -0.00134172 -0.000869894 -0.000433906 -3.48892e-05 0.00032603 0.000648851 0.000933574 0.00118083 0.00139123 0.0015648 0.00170152 0.001804 0.00187488 0.00191414 0.00192178 0.00190228 0.00186013 0.00179532 0.00170784 0.00160346 0.00148791 0.0013612 0.00122332 0.00108056 0.000939172 0.000799171 0.000660552 0.000527844 0.000405574 0.000293743 0.000192349 0.000108196 4.80873e-05 1.20218e-05 0 0 1.46156e-05 5.84625e-05 0.000131541 0.00023385 0.000356231 0.000489524 0.00063373 0.000788847 0.000948908 0.00110794 0.00126595 0.00142294 0.00157126 0.00170328 0.00181901 0.00191843 0.00199502 0.00204224 0.00206008 0.00204856 0.00200301 0.00191881 0.00179595 0.00163443 0.00143202 0.00118649 0.000897851 0.000566092 0.000191306 -0.000226418 -0.000687077 -0.00119067 -0.00173528 -0.00231896 -0.00294172 -0.00360356 -0.00430092 -0.00503024 -0.00579152 -0.00658476 -0.00740427 -0.00824437 -0.00910505 -0.00998632 -0.0108795 -0.0117758 -0.0126754 -0.0135782 -0.0144722 -0.0153457 -0.0161985 -0.0170307 -0.0178286 -0.0185784 -0.0192802 -0.019934 -0.0205273 -0.021048 -0.0214958 -0.0218709 -0.022166 -0.0223737 -0.022494 -0.0225269 -0.0224727 -0.0223316 -0.0221035 -0.0217885 -0.0213943 -0.0209286 -0.0203913 -0.0197825 -0.0191148 -0.0184008 -0.0176405 -0.0168339 -0.0159948 -0.0151369 -0.0142603 -0.0133649 -0.0124626 -0.0115652 -0.0106726 -0.009785 -0.00891072 -0.00805828 -0.00722769 -0.00641895 -0.00563747 -0.00488864 -0.00417247 -0.00348896 -0.00284137 -0.00223293 -0.00166365 -0.00113353 -0.000644204 -0.000197304 0.000207169 0.000569217 0.000888984 0.00116662 0.00140212 0.00159549 0.00174908 0.00186526 0.00194402 0.00198537 0.00199394 0.00197436 0.00192663 0.00185075 0.0017531 0.00164006 0.00151163 0.00136781 0.00121594 0.00106336 0.00091007 0.000756076 0.00060704 0.000468631 0.000340847 0.00022369 0.000125825 5.59224e-05 1.39806e-05 0 0 1.67e-05 6.67999e-05 0.0001503 0.0002672 0.000406151 0.000555806 0.000716165 0.000887228 0.00106168 0.00123219 0.00139878 0.00156144 0.00171137 0.0018398 0.00194673 0.00203214 0.00208898 0.00211015 0.00209566 0.00204551 0.00195514 0.00181998 0.00164004 0.00141531 0.00114413 0.000824817 0.000457378 4.18112e-05 -0.000421045 -0.000930354 -0.00148612 -0.00208833 -0.00273441 -0.00342179 -0.00415047 -0.00492043 -0.00572769 -0.00656824 -0.00744208 -0.00834921 -0.00928356 -0.010239 -0.0112157 -0.0122135 -0.013223 -0.0142351 -0.0152497 -0.0162667 -0.0172733 -0.0182562 -0.0192156 -0.0201515 -0.0210485 -0.0218915 -0.0226805 -0.0234156 -0.0240827 -0.024668 -0.0251716 -0.0255934 -0.0259252 -0.0261588 -0.026294 -0.026331 -0.02627 -0.0261112 -0.0258546 -0.0255001 -0.0250566 -0.0245327 -0.0239283 -0.0232435 -0.0224924 -0.0216892 -0.0208338 -0.0199263 -0.018982 -0.0180161 -0.0170288 -0.0160199 -0.0150025 -0.0139894 -0.0129807 -0.0119763 -0.0109854 -0.0100172 -0.0090715 -0.00814844 -0.00725376 -0.00639325 -0.00556691 -0.00477474 -0.00402041 -0.0033076 -0.00263631 -0.00200653 -0.0014205 -0.00088049 -0.000386483 6.15176e-05 0.000462959 0.000817288 0.0011245 0.00138461 0.00159945 0.00177088 0.00189889 0.00198349 0.00202926 0.00204079 0.00201807 0.0019611 0.0018768 0.0017721 0.001647 0.00150149 0.00134404 0.0011831 0.00101868 0.00085078 0.000686358 0.000532379 0.000388842 0.000255747 0.000143858 6.39368e-05 1.59842e-05 0 0 1.88289e-05 7.53158e-05 0.000169461 0.000301263 0.000456949 0.000622744 0.000798648 0.000984661 0.00117196 0.00135171 0.00152391 0.00168857 0.0018357 0.00195531 0.00204739 0.00211196 0.00214148 0.00212844 0.00207283 0.00197466 0.00182965 0.00163354 0.00138633 0.00108802 0.000737768 0.000334711 -0.000121144 -0.000629798 -0.00118944 -0.00179827 -0.00245628 -0.00316346 -0.0039165 -0.00471204 -0.0055501 -0.00643067 -0.00734935 -0.00830173 -0.00928782 -0.0103076 -0.0113548 -0.0124231 -0.0135125 -0.014623 -0.0157448 -0.0168682 -0.0179932 -0.0191197 -0.0202339 -0.0213217 -0.0223831 -0.0234182 -0.0244102 -0.0253426 -0.0262153 -0.0270284 -0.0277664 -0.028414 -0.0289713 -0.0294382 -0.0298054 -0.0300639 -0.0302136 -0.0302546 -0.0301869 -0.030011 -0.0297269 -0.0293344 -0.0288433 -0.0282632 -0.0275942 -0.0268362 -0.0260049 -0.0251159 -0.0241692 -0.0231649 -0.0221196 -0.0210502 -0.0199566 -0.0188388 -0.0177108 -0.0165864 -0.0154656 -0.0143485 -0.0132445 -0.0121633 -0.0111049 -0.0100692 -0.00906225 -0.00809013 -0.00715279 -0.00625024 -0.00538654 -0.00456575 -0.00378787 -0.00305289 -0.00236379 -0.00172353 -0.00113211 -0.000589524 -9.72508e-05 0.000343241 0.000731953 0.00106888 0.00135512 0.00159174 0.00177875 0.00191615 0.00200826 0.00205942 0.00206962 0.00203888 0.00197455 0.00188402 0.00176729 0.00162436 0.00146485 0.0012984 0.001125 0.000944665 0.000765798 0.000596819 0.000437727 0.000288522 0.000162294 7.21305e-05 1.80326e-05 0 0 2.10025e-05 8.40101e-05 0.000189023 0.00033604 0.000508625 0.000690337 0.000881178 0.00108115 0.00127975 0.00146648 0.00164134 0.00180434 0.00194424 0.00204979 0.002121 0.00215788 0.00215253 0.0020971 0.00199159 0.00183599 0.00162654 0.00135948 0.00103483 0.000652566 0.000212936 -0.000283824 -0.000837715 -0.00144874 -0.00211389 -0.00283016 -0.00359756 -0.00441608 -0.00528153 -0.00618971 -0.00714062 -0.00813427 -0.00916588 -0.0102307 -0.0113287 -0.0124599 -0.013618 -0.0147965 -0.0159954 -0.0172149 -0.0184447 -0.0196751 -0.0209059 -0.0221371 -0.0233541 -0.024542 -0.0257009 -0.0268308 -0.0279137 -0.0289316 -0.0298845 -0.0307724 -0.0315785 -0.032286 -0.0328949 -0.0334051 -0.0338066 -0.0340892 -0.0342528 -0.0342975 -0.0342235 -0.0340312 -0.0337204 -0.0332913 -0.0327543 -0.0321202 -0.031389 -0.0305606 -0.0296522 -0.0286809 -0.0276467 -0.0265496 -0.0254077 -0.024239 -0.0230437 -0.0218216 -0.0205876 -0.0193562 -0.0181275 -0.0169014 -0.0156879 -0.0144967 -0.0133277 -0.0121811 -0.011063 -0.00997928 -0.00893012 -0.00791547 -0.00693975 -0.00600737 -0.00511833 -0.00427263 -0.00347406 -0.00272642 -0.0020297 -0.00138391 -0.000791645 -0.000255521 0.000224465 0.000648311 0.00101608 0.00132784 0.00158359 0.00178333 0.00193092 0.00203025 0.00208131 0.0020841 0.00204636 0.00197583 0.00187252 0.00173642 0.00157838 0.00140926 0.00122904 0.00103773 0.00084536 0.00066195 0.000487501 0.000322014 0.000181133 8.05034e-05 2.01259e-05 0 0 2.31435e-05 9.25738e-05 0.000208291 0.000370295 0.000559291 0.000755982 0.00096037 0.00117245 0.00137993 0.0015705 0.00174416 0.00190091 0.00202827 0.00211376 0.00215738 0.00215912 0.00211093 0.00200477 0.00184064 0.00161853 0.0013355 0.000988598 0.000577833 0.000103202 -0.000433624 -0.00103097 -0.00168885 -0.00240725 -0.0031817 -0.00400774 -0.00488536 -0.00581457 -0.00679021 -0.00780712 -0.00886532 -0.00996479 -0.0111005 -0.0122675 -0.0134658 -0.0146954 -0.01595 -0.0172236 -0.0185162 -0.0198277 -0.0211483 -0.0224682 -0.0237873 -0.0251056 -0.026408 -0.0276793 -0.0289195 -0.0301286 -0.0312875 -0.0323772 -0.0333976 -0.0343488 -0.0352127 -0.0359711 -0.0366239 -0.0371713 -0.0376021 -0.0379053 -0.0380809 -0.0381289 -0.0380495 -0.0378431 -0.0375095 -0.0370489 -0.0364728 -0.0357926 -0.0350085 -0.0341203 -0.0331465 -0.0321057 -0.0309977 -0.0298226 -0.0285997 -0.0273479 -0.0260675 -0.0247583 -0.0234356 -0.0221144 -0.0207948 -0.0194768 -0.0181701 -0.0168844 -0.0156197 -0.014376 -0.0131592 -0.0119752 -0.0108241 -0.00970572 -0.00862486 -0.00758614 -0.00658955 -0.00563511 -0.00472752 -0.0038715 -0.00306707 -0.00231421 -0.00161694 -0.000979272 -0.000401204 0.000117263 0.000574833 0.00097021 0.00130339 0.00157439 0.0017863 0.00194227 0.00204228 0.00208634 0.00208239 0.00203837 0.00195428 0.00183013 0.00167798 0.00150989 0.00132587 0.00112592 0.000921797 0.000725277 0.000536358 0.000355038 0.000199709 8.87596e-05 2.21899e-05 0 0 2.51745e-05 0.000100698 0.00022657 0.000402792 0.000607061 0.000817077 0.00103284 0.00125435 0.00146739 0.00165775 0.00182543 0.00197043 0.00207908 0.00213771 0.00214632 0.0021049 0.00200548 0.00184007 0.00160868 0.00131131 0.000946215 0.000511665 7.66165e-06 -0.000565797 -0.00120517 -0.00190693 -0.00267106 -0.00349758 -0.00438021 -0.00531272 -0.00629509 -0.00732733 -0.00840323 -0.00951662 -0.0106675 -0.0118558 -0.0130766 -0.0143247 -0.0156002 -0.016903 -0.0182277 -0.0195688 -0.0209262 -0.0223 -0.023681 -0.02506 -0.026437 -0.027812 -0.0291699 -0.0304957 -0.0317893 -0.0330507 -0.0342602 -0.0353981 -0.0364644 -0.037459 -0.0383627 -0.0391564 -0.0398401 -0.0404137 -0.0408653 -0.0411832 -0.0413674 -0.0414177 -0.0413346 -0.0411182 -0.0407686 -0.0402857 -0.0396819 -0.0389694 -0.0381484 -0.0372187 -0.0361999 -0.0351116 -0.0339537 -0.0327262 -0.0314491 -0.0301421 -0.0288054 -0.0274388 -0.0260575 -0.0246767 -0.0232962 -0.0219162 -0.0205456 -0.0191936 -0.0178601 -0.0165453 -0.0152543 -0.0139924 -0.0127598 -0.0115563 -0.0103867 -0.00925572 -0.00816338 -0.00710968 -0.00610035 -0.00514112 -0.00423201 -0.00337301 -0.00256986 -0.00182829 -0.0011483 -0.00052989 2.38583e-05 0.000509869 0.000928143 0.00127868 0.00156346 0.00178448 0.00194172 0.0020352 0.00207281 0.00206248 0.00200418 0.00189794 0.00175697 0.00159452 0.00141058 0.00120516 0.000991861 0.000784304 0.000582488 0.000386412 0.000217357 9.66029e-05 2.41507e-05 0 0 2.70956e-05 0.000108382 0.00024386 0.00043353 0.000651935 0.00087362 0.00109859 0.00132683 0.00154213 0.00172824 0.00188517 0.00201291 0.00209667 0.00212164 0.00208783 0.00199523 0.00183617 0.00160301 0.00129572 0.000914329 0.000458692 -7.13134e-05 -0.000675688 -0.00135443 -0.00210171 -0.00291168 -0.00378435 -0.00471972 -0.00570942 -0.0067451 -0.00782674 -0.00895435 -0.0101206 -0.0113182 -0.0125471 -0.0138073 -0.0150939 -0.0164021 -0.0177317 -0.0190829 -0.0204511 -0.021832 -0.0232256 -0.0246319 -0.0260428 -0.0274505 -0.028855 -0.0302562 -0.0316398 -0.0329911 -0.0343102 -0.0355972 -0.0368319 -0.0379944 -0.0390847 -0.0401028 -0.0410286 -0.0418421 -0.0425433 -0.0431322 -0.0435963 -0.043923 -0.0441122 -0.0441641 -0.0440788 -0.0438566 -0.0434975 -0.0430015 -0.0423816 -0.0416506 -0.0408087 -0.0398559 -0.0388124 -0.0376987 -0.0365146 -0.0352603 -0.0339559 -0.0326215 -0.0312573 -0.0298631 -0.0284535 -0.027043 -0.0256317 -0.0242195 -0.0228144 -0.0214243 -0.0200492 -0.018689 -0.0173482 -0.0160309 -0.0147372 -0.0134671 -0.0122252 -0.0110161 -0.00983983 -0.00869635 -0.00759255 -0.00653528 -0.00552453 -0.00456031 -0.0036504 -0.00280256 -0.00201681 -0.00129315 -0.000636841 -5.31809e-05 0.000457835 0.000896206 0.0012624 0.00155687 0.00177963 0.00193067 0.00201763 0.00204815 0.00202222 0.00193985 0.00181537 0.00166315 0.00148318 0.00127546 0.00105555 0.000839032 0.000625892 0.000416134 0.000234075 0.000104033 2.60084e-05 0 0 2.89068e-05 0.000115627 0.000260161 0.000462509 0.000693912 0.000925612 0.00115761 0.0013899 0.00160414 0.00178195 0.00192336 0.00202834 0.00208104 0.00206556 0.00198191 0.0018301 0.00160301 0.00129357 0.00090176 0.000427587 -0.000127071 -0.000760338 -0.00147222 -0.0022627 -0.00312323 -0.00404524 -0.00502872 -0.00607368 -0.00716933 -0.00830487 -0.00948031 -0.0106956 -0.0119423 -0.0132118 -0.0145042 -0.0158193 -0.0171527 -0.0184998 -0.0198605 -0.021235 -0.0226203 -0.0240134 -0.0254144 -0.0268232 -0.0282337 -0.0296398 -0.0310413 -0.0324383 -0.0338175 -0.0351655 -0.0364823 -0.0377679 -0.0390025 -0.040166 -0.0412586 -0.0422802 -0.0432102 -0.044028 -0.0447336 -0.045327 -0.045795 -0.0461244 -0.0463154 -0.046368 -0.0462822 -0.0460583 -0.0456964 -0.0451964 -0.0445718 -0.0438362 -0.0429896 -0.0420318 -0.040984 -0.0398669 -0.0386805 -0.0374249 -0.0361201 -0.0347862 -0.0334232 -0.0320311 -0.0306233 -0.0292134 -0.0278012 -0.0263868 -0.0249765 -0.0235764 -0.0221867 -0.0208072 -0.019441 -0.0180907 -0.0167565 -0.0154383 -0.0141405 -0.0128673 -0.0116189 -0.0103951 -0.00920413 -0.00805397 -0.00694463 -0.00587611 -0.00485856 -0.00390211 -0.00300676 -0.00217251 -0.00140727 -0.00071894 -0.00010753 0.000426965 0.000883105 0.00125945 0.001556 0.00177276 0.00191685 0.0019954 0.0020084 0.00195585 0.00185318 0.00171578 0.00