<?xml version="1.0"?> 
<VTKFile type="StructuredGrid" version="0.1"> 
<StructuredGrid WholeExtent="0 128 0 128 0 0"> 
<Piece Extent="0 128 0 128 0 0"> 
<PointData>
<DataArray type="Float32" Name="u" format="ascii" NumberOfComponents="1"> 
0 0 0 0 0 0 0 0 0 0 0 0 0 0 0 0 0 0 0 0 0 0 0 0 0 0 0 0 0 0 0 0 0 0 0 0 0 0 0 0 0 0 0 0 0 0 0 0 0 0 0 0 0 0 0 0 0 0 0 0 0 0 0 0 0 0 0 0 0 0 0 0 0 0 0 0 0 0 0 0 0 0 0 0 0 0 0 0 0 0 0 0 0 0 0 0 0 0 0 0 0 0 0 0 0 0 0 0 0 0 0 0 0 0 0 0 0 0 0 0 0 0 0 0 0 0 0 0 0 0 2.74732e-07 1.09893e-06 2.47259e-06 4.39571e-06 6.63559e-06 8.95953e-06 1.13675e-05 1.38596e-05 1.6299e-05 1.85491e-05 2.06098e-05 2.24812e-05 2.40443e-05 2.51801e-05 2.58884e-05 2.61694e-05 2.59573e-05 2.51861e-05 2.3856e-05 2.19669e-05 1.9493e-05 1.64088e-05 1.27141e-05 8.40892e-06 3.49866e-06 -2.01141e-06 -8.12127e-06 -1.48309e-05 -2.21101e-05 -2.99286e-05 -3.82863e-05 -4.71833e-05 -5.65673e-05 -6.6386e-05 -7.66396e-05 -8.7328e-05 -9.83767e-05 -0.000109711 -0.000121332 -0.000133238 -0.000145332 -0.000157515 -0.000169787 -0.000182149 -0.00019448 -0.000206658 -0.000218684 -0.000230559 -0.000242146 -0.000253312 -0.000264057 -0.00027438 -0.000284151 -0.000293237 -0.000301638 -0.000309356 -0.000316283 -0.000322316 -0.000327453 -0.000331695 -0.000334985 -0.000337264 -0.000338533 -0.000338793 -0.000338046 -0.000336297 -0.000333545 -0.00032979 -0.000325097 -0.000319531 -0.00031309 -0.000305776 -0.000297698 -0.000288968 -0.000279585 -0.00026955 -0.000258997 -0.00024806 -0.00023674 -0.000225036 -0.000213084 -0.000201018 -0.000188838 -0.000176545 -0.000164258 -0.000152094 -0.000140053 -0.000128137 -0.000116438 -0.000105051 -9.3975e-05 -8.32108e-05 -7.28266e-05 -6.28907e-05 -5.34032e-05 -4.43641e-05 -3.58185e-05 -2.78115e-05 -2.03432e-05 -1.34135e-05 -7.04557e-06 -1.26268e-06 3.93523e-06 8.54815e-06 1.25766e-05 1.6021e-05 1.88815e-05 2.11579e-05 2.28792e-05 2.40742e-05 2.47428e-05 2.48851e-05 2.45659e-05 2.385e-05 2.27374e-05 2.12281e-05 1.94347e-05 1.747e-05 1.5334e-05 1.30266e-05 1.06751e-05 8.40687e-06 6.2219e-06 4.12018e-06 2.3176e-06 1.03005e-06 2.57511e-07 0 0 1.09893e-06 4.39571e-06 9.89034e-06 1.75828e-05 2.65424e-05 3.58381e-05 4.54701e-05 5.54382e-05 6.51959e-05 7.41962e-05 8.24392e-05 8.9925e-05 9.61773e-05 0.00010072 0.000103554 0.000104678 0.000103829 0.000100745 9.5424e-05 8.78675e-05 7.79722e-05 6.56351e-05 5.08563e-05 3.36357e-05 1.39946e-05 -8.04562e-06 -3.24851e-05 -5.93238e-05 -8.84405e-05 -0.000119714 -0.000153145 -0.000188733 -0.000226269 -0.000265544 -0.000306559 -0.000349312 -0.000393507 -0.000438845 -0.000485327 -0.000532952 -0.000581327 -0.00063006 -0.00067915 -0.000728597 -0.000777919 -0.000826632 -0.000874738 -0.000922235 -0.000968585 -0.00101325 -0.00105623 -0.00109752 -0.0011366 -0.00117295 -0.00120655 -0.00123742 -0.00126513 -0.00128926 -0.00130981 -0.00132678 -0.00133994 -0.00134906 -0.00135413 -0.00135517 -0.00135218 -0.00134519 -0.00133418 -0.00131916 -0.00130039 -0.00127812 -0.00125236 -0.0012231 -0.00119079 -0.00115587 -0.00111834 -0.0010782 -0.00103599 -0.000992241 -0.00094696 -0.000900144 -0.000852334 -0.00080407 -0.000755353 -0.000706182 -0.000657031 -0.000608375 -0.000560214 -0.000512548 -0.000465752 -0.000420203 -0.0003759 -0.000332843 -0.000291306 -0.000251563 -0.000213613 -0.000177456 -0.000143274 -0.000111246 -8.13726e-05 -5.36538e-05 -2.81823e-05 -5.05071e-06 1.57409e-05 3.41926e-05 5.03064e-05 6.40841e-05 7.55259e-05 8.46318e-05 9.15169e-05 9.62968e-05 9.89713e-05 9.95405e-05 9.82636e-05 9.53999e-05 9.09494e-05 8.49122e-05 7.77389e-05 6.98801e-05 6.13359e-05 5.21062e-05 4.27003e-05 3.36275e-05 2.48876e-05 1.64807e-05 9.27041e-06 4.12018e-06 1.03005e-06 0 0 2.47259e-06 9.89034e-06 2.22533e-05 3.95614e-05 5.97203e-05 8.06357e-05 0.000102308 0.000124736 0.000146691 0.000166941 0.000185488 0.000202331 0.000216399 0.000226621 0.000232996 0.000235525 0.000233616 0.000226675 0.000214704 0.000197702 0.000175437 0.000147679 0.000114427 7.56803e-05 3.14879e-05 -1.81027e-05 -7.30914e-05 -0.000133478 -0.000198991 -0.000269357 -0.000344577 -0.000424649 -0.000509105 -0.000597474 -0.000689757 -0.000785952 -0.00088539 -0.000987401 -0.00109199 -0.00119914 -0.00130799 -0.00141763 -0.00152809 -0.00163934 -0.00175032 -0.00185992 -0.00196816 -0.00207503 -0.00217932 -0.00227981 -0.00237651 -0.00246942 -0.00255736 -0.00263913 -0.00271475 -0.0027842 -0.00284655 -0.00290084 -0.00294708 -0.00298526 -0.00301486 -0.00303538 -0.0030468 -0.00304914 -0.00304241 -0.00302667 -0.0030019 -0.00296811 -0.00292588 -0.00287578 -0.00281781 -0.00275198 -0.00267928 -0.00260071 -0.00251627 -0.00242595 -0.00233097 -0.00223254 -0.00213066 -0.00202532 -0.00191775 -0.00180916 -0.00169954 -0.00158891 -0.00147832 -0.00136884 -0.00126048 -0.00115323 -0.00104794 -0.000945457 -0.000845775 -0.000748897 -0.000655439 -0.000566016 -0.000480629 -0.000399277 -0.000322366 -0.000250303 -0.000183088 -0.000120721 -6.34102e-05 -1.13641e-05 3.54171e-05 7.69334e-05 0.000113189 0.000144189 0.000169933 0.000190421 0.000205913 0.000216668 0.000222685 0.000223966 0.000221093 0.00021465 0.000204636 0.000191053 0.000174913 0.00015723 0.000138006 0.000117239 9.60758e-05 7.56618e-05 5.59971e-05 3.70816e-05 2.08584e-05 9.27041e-06 2.3176e-06 0 0 4.39571e-06 1.75828e-05 3.95614e-05 7.03313e-05 0.000106169 0.000143352 0.00018188 0.000221753 0.000260784 0.000296785 0.000329757 0.0003597 0.000384709 0.000402881 0.000414215 0.000418711 0.000415317 0.000402978 0.000381696 0.00035147 0.000311889 0.00026254 0.000203425 0.000134543 5.59786e-05 -3.21825e-05 -0.00012994 -0.000237295 -0.000353762 -0.000478857 -0.000612581 -0.000754932 -0.000905076 -0.00106218 -0.00122623 -0.00139725 -0.00157403 -0.00175538 -0.00194131 -0.00213181 -0.00232531 -0.00252024 -0.0027166 -0.00291439 -0.00311168 -0.00330653 -0.00349895 -0.00368894 -0.00387434 -0.004053 -0.00422491 -0.00439008 -0.00454641 -0.00469179 -0.00482622 -0.00494969 -0.00506053 -0.00515705 -0.00523925 -0.00530712 -0.00535975 -0.00539622 -0.00541654 -0.00542069 -0.00540874 -0.00538075 -0.00533671 -0.00527664 -0.00520156 -0.00511249 -0.00500944 -0.00489241 -0.00476317 -0.00462349 -0.00447337 -0.0043128 -0.00414395 -0.00396896 -0.00378784 -0.00360058 -0.00340934 -0.00321628 -0.00302141 -0.00282473 -0.00262812 -0.0024335 -0.00224086 -0.00205019 -0.00186301 -0.00168081 -0.0015036 -0.00133137 -0.00116523 -0.00100625 -0.000854451 -0.000709825 -0.000573095 -0.000444984 -0.00032549 -0.000214615 -0.000112729 -2.02029e-05 6.29637e-05 0.00013677 0.000201225 0.000256337 0.000302104 0.000338527 0.000366068 0.000385187 0.000395885 0.000398162 0.000393054 0.0003816 0.000363798 0.000339649 0.000310956 0.000279521 0.000245344 0.000208425 0.000170801 0.00013451 9.95504e-05 6.59229e-05 3.70816e-05 1.64807e-05 4.12018e-06 0 0 6.62943e-06 2.65177e-05 5.96649e-05 0.000106071 0.000160059 0.000215952 0.000273751 0.000333455 0.000391746 0.000445304 0.00049413 0.000538224 0.000574708 0.000600704 0.000616212 0.000621233 0.000614183 0.000593482 0.00055913 0.000511127 0.000448873 0.00037177 0.000279817 0.000173015 5.15247e-05 -8.44936e-05 -0.00023504 -0.000400114 -0.00057895 -0.000770784 -0.000975616 -0.00119344 -0.00142298 -0.00166294 -0.00191332 -0.00217411 -0.00244351 -0.0027197 -0.00300268 -0.00329245 -0.00358663 -0.00388284 -0.00418109 -0.00448137 -0.00478078 -0.0050764 -0.00536823 -0.00565627 -0.00593728 -0.00620802 -0.00646847 -0.00671866 -0.0069554 -0.00717554 -0.00737906 -0.00756598 -0.00773374 -0.00787982 -0.00800421 -0.00810692 -0.00818655 -0.00824172 -0.00827244 -0.0082787 -0.0082606 -0.00821822 -0.00815156 -0.00806063 -0.00794697 -0.00781214 -0.00765613 -0.00747894 -0.00728324 -0.0070717 -0.00684432 -0.00660109 -0.00634527 -0.00608008 -0.00580553 -0.00552161 -0.00523159 -0.00493871 -0.00464299 -0.00434441 -0.00404584 -0.00375014 -0.00345731 -0.00316735 -0.00288254 -0.00260514 -0.00233517 -0.00207262 -0.00181916 -0.00157645 -0.00134451 -0.00112332 -0.000914004 -0.000717684 -0.000534357 -0.000364023 -0.000207273 -6.47008e-05 6.36947e-05 0.000177913 0.000277937 0.000363747 0.000435344 0.000492728 0.000536575 0.000567561 0.000585686 0.000590951 0.000584914 0.000569135 0.000543614 0.000508351 0.000466072 0.000419502 0.000368641 0.000313489 0.000257138 0.000202681 0.000150117 9.9447e-05 5.59389e-05 2.48617e-05 6.21544e-06 0 0 8.93489e-06 3.57396e-05 8.0414e-05 0.000142958 0.000215558 0.0002904 0.000367484 0.000446809 0.000523849 0.000594078 0.000657494 0.000714098 0.000759996 0.000791293 0.00080799 0.000810086 0.000795466 0.000762017 0.000709737 0.000638627 0.000547937 0.000436918 0.000305569 0.00015389 -1.78152e-05 -0.000209244 -0.000420397 -0.000651274 -0.000900752 -0.00116771 -0.00145214 -0.00175405 -0.00207162 -0.00240305 -0.00274833 -0.00310745 -0.00347794 -0.00385729 -0.0042455 -0.00464257 -0.00504529 -0.00545042 -0.00585797 -0.00626794 -0.00667642 -0.00707947 -0.00747711 -0.00786932 -0.00825177 -0.00862008 -0.00897425 -0.0093143 -0.00963596 -0.00993499 -0.0102114 -0.0104651 -0.0106928 -0.0108911 -0.0110599 -0.0111992 -0.0113072 -0.011382 -0.0114236 -0.0114321 -0.0114075 -0.0113499 -0.0112594 -0.011136 -0.0109817 -0.0107986 -0.0105867 -0.0103461 -0.0100803 -0.00979284 -0.0094838 -0.00915316 -0.00880525 -0.00844445 -0.00807075 -0.00768414 -0.00728901 -0.00688973 -0.0064863 -0.00607872 -0.00567085 -0.00526654 -0.0048658 -0.00446863 -0.00407811 -0.00369733 -0.00332629 -0.00296499 -0.00261573 -0.0022808 -0.00196021 -0.00165397 -0.00136363 -0.0010908 -0.000835466 -0.000597629 -0.000378176 -0.000177992 2.92387e-06 0.000164571 0.000306845 0.000429642 0.000532961 0.000616803 0.000682028 0.000729495 0.000759204 0.000771155 0.000767438 0.000750142 0.000719265 0.00067481 0.000620466 0.000559925 0.000493189 0.000420256 0.000345347 0.000272684 0.000202267 0.000134096 7.54292e-05 3.35241e-05 8.38102e-06 0 0 1.13121e-05 4.52484e-05 0.000101809 0.000180993 0.000272667 0.000366695 0.000463078 0.000561815 0.000657094 0.000743105 0.000819847 0.000887321 0.000940572 0.000974647 0.000989547 0.000985271 0.000959166 0.000908581 0.000833516 0.00073397 0.000609081 0.000457984 0.000280679 7.71671e-05 -0.000152041 -0.000406435 -0.000686013 -0.000990777 -0.00131917 -0.00166963 -0.00204215 -0.00243675 -0.002851 -0.00328251 -0.00373127 -0.00419728 -0.00467731 -0.00516813 -0.00566975 -0.00618217 -0.00670128 -0.00722297 -0.00774724 -0.0082741 -0.00879859 -0.00931575 -0.00982559 -0.0103281 -0.0108178 -0.0112892 -0.0117422 -0.012177 -0.0125881 -0.0129701 -0.0133232 -0.0136471 -0.0139378 -0.0141908 -0.0144062 -0.0145839 -0.0147216 -0.014817 -0.0148701 -0.0148808 -0.0148493 -0.0147758 -0.0146602 -0.0145026 -0.0143056 -0.0140718 -0.0138012 -0.0134939 -0.0131543 -0.0127869 -0.0123918 -0.011969 -0.0115239 -0.0110621 -0.0105835 -0.0100882 -0.0095816 -0.00906932 -0.00855135 -0.00802766 -0.00750316 -0.00698272 -0.00646635 -0.00595404 -0.00544973 -0.00495737 -0.00447695 -0.00400848 -0.00355493 -0.0031193 -0.00270158 -0.00230177 -0.00192199 -0.00156433 -0.00122882 -0.000915436 -0.000625438 -0.000360076 -0.000119349 9.67435e-05 0.00028795 0.000454021 0.000594955 0.000710753 0.000802427 0.000870989 0.000916439 0.000938776 0.000940628 0.000924619 0.000890751 0.000839024 0.000774137 0.000700791 0.000618987 0.000528725 0.000435428 0.00034452 0.000256001 0.000169871 9.55525e-05 4.24678e-05 1.06169e-05 0 0 1.3761e-05 5.50441e-05 0.000123849 0.000220176 0.000331386 0.000444838 0.000560534 0.000678472 0.00079148 0.000892386 0.00098119 0.00105789 0.00111644 0.00115077 0.00116088 0.00114679 0.00110528 0.00103318 0.000930468 0.000797157 0.000632305 0.000434968 0.000205149 -5.71536e-05 -0.000351154 -0.000676065 -0.00103189 -0.00141862 -0.0018342 -0.00227654 -0.00274565 -0.00324154 -0.00376112 -0.00430132 -0.00486214 -0.00544357 -0.00604162 -0.00665224 -0.00727545 -0.00791125 -0.0085546 -0.00920048 -0.0098489 -0.0104998 -0.0111473 -0.0117852 -0.0124137 -0.0130326 -0.0136354 -0.0142153 -0.0147725 -0.0153068 -0.0158118 -0.016281 -0.0167144 -0.017112 -0.0174686 -0.017779 -0.0180432 -0.0182611 -0.0184299 -0.0185468 -0.0186118 -0.0186248 -0.0185861 -0.0184959 -0.018354 -0.0181606 -0.0179188 -0.0176319 -0.0172997 -0.0169223 -0.0165052 -0.0160539 -0.0155684 -0.0150486 -0.0145012 -0.013933 -0.0133438 -0.0127337 -0.0121094 -0.0114775 -0.0108381 -0.0101912 -0.00954278 -0.00889867 -0.00825894 -0.00762357 -0.00699739 -0.00638526 -0.00578715 -0.00520309 -0.00463678 -0.00409195 -0.0035686 -0.00306673 -0.00258906 -0.00213829 -0.00171441 -0.00131744 -0.000949059 -0.000610953 -0.000303123 -2.55688e-05 0.000221252 0.000436884 0.000621326 0.000774578 0.000897773 0.000992043 0.00105739 0.00109381 0.00110448 0.00109257 0.00105807 0.00100099 0.000927085 0.000842099 0.000746037 0.000638897 0.000527381 0.000418188 0.000311318 0.000206771 0.000116309 5.16928e-05 1.29232e-05 0 0 1.61312e-05 6.4525e-05 0.000145181 0.0002581 0.00038806 0.000519839 0.000653438 0.000788857 0.000917521 0.00103085 0.00112885 0.00121152 0.00127171 0.00130226 0.00130318 0.00127445 0.0012124 0.00111334 0.000977249 0.000804144 0.000593085 0.000343137 5.42985e-05 -0.000273429 -0.000638884 -0.0010409 -0.00147948 -0.00195463 -0.00246365 -0.00300389 -0.00357533 -0.00417797 -0.00480802 -0.00546165 -0.00613888 -0.00683971 -0.00755929 -0.00829283 -0.0090403 -0.00980171 -0.0105711 -0.0113427 -0.0121163 -0.012892 -0.0136627 -0.0144216 -0.0151684 -0.0159033 -0.0166185 -0.0173062 -0.0179666 -0.0185994 -0.0191973 -0.0197526 -0.0202653 -0.0207355 -0.0211571 -0.0215239 -0.0218361 -0.0220935 -0.0222929 -0.0224309 -0.0225076 -0.0225229 -0.022477 -0.0223702 -0.0222024 -0.0219737 -0.0216878 -0.0213484 -0.0209554 -0.0205089 -0.0200153 -0.019481 -0.0189059 -0.0182901 -0.0176413 -0.0169673 -0.016268 -0.0155436 -0.0148017 -0.0140502 -0.0132891 -0.0125184 -0.011745 -0.010976 -0.0102112 -0.00945069 -0.0087002 -0.00796542 -0.00724635 -0.006543 -0.00585984 -0.00520137 -0.00456758 -0.00395848 -0.00337743 -0.00282782 -0.00230964 -0.00182289 -0.00136979 -0.000952563 -0.000571202 -0.000225708 8.31585e-05 0.000354637 0.000588729 0.000785433 0.000945927 0.00107139 0.00116182 0.00121722 0.00124126 0.00123762 0.0012063 0.00114731 0.00106743 0.000973482 0.000865461 0.000743366 0.000615216 0.00048903 0.000364809 0.000242551 0.000136435 6.06378e-05 1.51595e-05 0 0 1.82723e-05 7.30892e-05 0.000164451 0.000292357 0.000439034 0.000586708 0.00073538 0.000885049 0.00102573 0.00114744 0.00125017 0.00133393 0.00139052 0.00141174 0.0013976 0.00134809 0.00125912 0.0011266 0.000950519 0.000730888 0.000466901 0.000157754 -0.000196552 -0.000596017 -0.00103896 -0.00152371 -0.00205026 -0.00261861 -0.00322536 -0.00386711 -0.00454385 -0.0052556 -0.00599774 -0.0067657 -0.00755945 -0.00837902 -0.00921877 -0.0100731 -0.010942 -0.0118255 -0.0127168 -0.0136092 -0.0145027 -0.0153973 -0.0162852 -0.0171583 -0.0180168 -0.0188607 -0.0196812 -0.0204697 -0.0212262 -0.0219507 -0.0226348 -0.0232699 -0.0238561 -0.0243934 -0.0248749 -0.0252938 -0.0256502 -0.025944 -0.0261714 -0.0263288 -0.0264162 -0.0264335 -0.0263809 -0.0262588 -0.0260671 -0.0258057 -0.025479 -0.025091 -0.0246417 -0.0241312 -0.0235666 -0.0229551 -0.0222968 -0.0215915 -0.0208481 -0.0200751 -0.0192727 -0.0184407 -0.017588 -0.0167234 -0.0158467 -0.0149581 -0.0140653 -0.0131762 -0.0122907 -0.0114089 -0.0105372 -0.00968228 -0.008844 -0.0080224 -0.00722271 -0.00645018 -0.00570482 -0.00498661 -0.00429967 -0.00364809 -0.00303187 -0.00245102 -0.00190839 -0.00140685 -0.000946389 -0.000527016 -0.000149925 0.000183687 0.000473821 0.000720476 0.000924754 0.00108776 0.00120949 0.00128995 0.00133322 0.00134342 0.00132053 0.00126455 0.0011833 0.00108457 0.000968383 0.000834723 0.000692942 0.000552389 0.000413064 0.000274967 0.000154669 6.87417e-05 1.71854e-05 0 0 2.01842e-05 8.07367e-05 0.000181657 0.000322947 0.000484308 0.000645445 0.000806358 0.000967046 0.00111611 0.00124214 0.00134514 0.0014251 0.00147285 0.0014792 0.00144415 0.00136769 0.00124543 0.00107296 0.000850277 0.000577389 0.000253751 -0.00012118 -0.000547403 -0.00102492 -0.00155139 -0.00212449 -0.00274422 -0.00341057 -0.00411931 -0.0048662 -0.00565123 -0.00647441 -0.0073303 -0.00821344 -0.00912385 -0.0100615 -0.01102 -0.0119931 -0.0129805 -0.0139825 -0.0149915 -0.016 -0.0170082 -0.0180159 -0.0190145 -0.0199956 -0.020959 -0.0219047 -0.0228235 -0.0237057 -0.0245514 -0.0253607 -0.0261243 -0.0268329 -0.0274867 -0.0280855 -0.028622 -0.0290886 -0.0294854 -0.0298125 -0.0300655 -0.0302406 -0.0303377 -0.0303567 -0.0302979 -0.0301617 -0.0299479 -0.0296566 -0.0292923 -0.0288597 -0.0283586 -0.0277892 -0.0271592 -0.0264765 -0.0257411 -0.0249529 -0.0241216 -0.0232565 -0.0223577 -0.0214251 -0.0204684 -0.019497 -0.018511 -0.0175103 -0.0165035 -0.0154992 -0.0144975 -0.0134981 -0.0125085 -0.0115358 -0.0105801 -0.00964128 -0.00872538 -0.00783839 -0.00698032 -0.00615115 -0.00535578 -0.0045991 -0.00388112 -0.00320183 -0.00256485 -0.0019738 -0.00142868 -0.000929492 -0.000477998 -7.5967e-05 0.000276601 0.000579705 0.000834253 0.00104115 0.0012004 0.001312 0.00138037 0.00140995 0.00140073 0.00135272 0.00127468 0.00117537 0.0010548 0.000912969 0.000760559 0.000608264 0.000456083 0.000304017 0.00017101 7.60043e-05 1.90011e-05 0 0 2.18669e-05 8.74675e-05 0.000196802 0.00034987 0.000523882 0.00069605 0.000866372 0.00103485 0.00118865 0.00131495 0.00141375 0.00148505 0.00151872 0.00150465 0.00144283 0.00133326 0.00117133 0.000952418 0.000676524 0.000343647 -4.63641e-05 -0.000493664 -0.000998253 -0.00156013 -0.00217617 -0.00284325 -0.00356136 -0.00433051 -0.00514551 -0.00600116 -0.00689746 -0.00783442 -0.00880568 -0.0098049 -0.0108321 -0.0118872 -0.0129631 -0.0140527 -0.0151559 -0.0162728 -0.0173953 -0.0185152 -0.0196327 -0.0207476 -0.0218509 -0.0229333 -0.0239948 -0.0250355 -0.0260453 -0.0270142 -0.0279422 -0.0288294 -0.0296658 -0.0304417 -0.0311571 -0.031812 -0.0323984 -0.0329084 -0.0333419 -0.033699 -0.0339752 -0.0341662 -0.0342719 -0.0342925 -0.034228 -0.0340788 -0.0338449 -0.0335263 -0.0331279 -0.0326545 -0.0321061 -0.0314829 -0.030793 -0.030045 -0.0292387 -0.0283743 -0.0274619 -0.0265115 -0.0255231 -0.0244968 -0.0234428 -0.0223711 -0.0212819 -0.020175 -0.0190598 -0.0179452 -0.0168315 -0.0157185 -0.014614 -0.0135261 -0.0124546 -0.0113996 -0.0103679 -0.009366 -0.00839407 -0.00745208 -0.00654576 -0.00568086 -0.00485738 -0.00407533 -0.00333918 -0.00265343 -0.00201808 -0.00143314 -0.00090106 -0.000424325 -2.93067e-06 0.000363122 0.000674425 0.000931566 0.00113455 0.00128337 0.0013827 0.00143722 0.00144693 0.00141183 0.00134158 0.00124588 0.00112472 0.000978104 0.000818067 0.000656655 0.000493867 0.000329703 0.000185458 8.24258e-05 2.06064e-05 0 0 2.31842e-05 9.27369e-05 0.000208658 0.000370948 0.000554465 0.000734068 0.000909758 0.00108153 0.00123519 0.00135651 0.0014455 0.00150215 0.00151553 0.00147469 0.00137962 0.00123033 0.00102214 0.000750363 0.000415004 1.60614e-05 -0.000446051 -0.000970917 -0.00155854 -0.00220891 -0.00291795 -0.00368155 -0.00449971 -0.00537244 -0.00629347 -0.00725651 -0.00826158 -0.00930867 -0.0103905 -0.0114998 -0.0126364 -0.0138006 -0.0149843 -0.0161798 -0.017387 -0.018606 -0.0198283 -0.0210453 -0.022257 -0.0234634 -0.024655 -0.0258224 -0.0269655 -0.0280843 -0.0291686 -0.0302079 -0.0312024 -0.032152 -0.0330465 -0.0338759 -0.0346401 -0.0353392 -0.0359648 -0.0365087 -0.0369709 -0.0373514 -0.0376456 -0.0378489 -0.0379613 -0.0379829 -0.0379138 -0.0377544 -0.0375046 -0.0371644 -0.036739 -0.0362333 -0.0356475 -0.0349815 -0.034244 -0.0334437 -0.0325806 -0.0316548 -0.0306766 -0.0296567 -0.0285949 -0.0274913 -0.0263564 -0.0252007 -0.0240243 -0.0228271 -0.0216186 -0.0204084 -0.0191965 -0.0179829 -0.0167759 -0.0155838 -0.0144067 -0.0132445 -0.0121047 -0.0109947 -0.00991445 -0.00886397 -0.00784991 -0.0068789 -0.00595096 -0.00506609 -0.00422976 -0.00344748 -0.00271924 -0.00204505 -0.00142824 -0.000872179 -0.000376852 5.77377e-05 0.000431692 0.000745114 0.000998004 0.00119036 0.00132696 0.00141259 0.00144724 0.00143092 0.0013741 0.00128728 0.00117046 0.00102363 0.000860154 0.000693388 0.000523331 0.000349984 0.000196866 8.74961e-05 2.1874e-05 0 0 2.40001e-05 9.60004e-05 0.000216001 0.000384002 0.000572763 0.000755047 0.000930852 0.00110018 0.00124753 0.00135742 0.00142984 0.00146479 0.00145068 0.00137592 0.0012405 0.00104442 0.000783163 0.000452177 5.14658e-05 -0.000418969 -0.000957914 -0.00156415 -0.00223769 -0.00297852 -0.00378137 -0.00464097 -0.0055573 -0.00653038 -0.0075527 -0.00861679 -0.00972264 -0.0108702 -0.0120513 -0.0132577 -0.0144893 -0.0157462 -0.0170199 -0.0183021 -0.0195927 -0.0208918 -0.0221907 -0.0234807 -0.0247618 -0.0260339 -0.0272878 -0.0285138 -0.0297121 -0.0308826 -0.0320151 -0.0330995 -0.0341357 -0.0351238 -0.0360536 -0.0369152 -0.0377084 -0.0384334 -0.0390818 -0.0396453 -0.0401239 -0.0405176 -0.0408219 -0.041032 -0.0411481 -0.04117 -0.041098 -0.0409324 -0.0406731 -0.0403203 -0.0398789 -0.0393541 -0.0387459 -0.0380542 -0.0372879 -0.0364557 -0.0355575 -0.0345933 -0.0335736 -0.0325088 -0.031399 -0.0302441 -0.0290547 -0.027841 -0.0266032 -0.0253413 -0.0240647 -0.022783 -0.0214963 -0.0202044 -0.018916 -0.0176396 -0.0163753 -0.0151229 -0.0138906 -0.0126862 -0.0115098 -0.0103614 -0.00924851 -0.00817877 -0.00715216 -0.00616869 -0.00523498 -0.00435768 -0.00353679 -0.00277232 -0.00206868 -0.00143032 -0.000857242 -0.000349438 9.24804e-05 0.000467905 0.000776834 0.00101927 0.0011999 0.0013234 0.00138979 0.00139906 0.00136233 0.00129076 0.00118433 0.00104305 0.00088151 0.000714289 0.000541393 0.000362821 0.000204087 9.07052e-05 2.26763e-05 0 0 2.43145e-05 9.7258e-05 0.00021883 0.000389032 0.000578778 0.000758985 0.000929652 0.00109078 0.00122568 0.00131768 0.00136678 0.00137296 0.00132417 0.00120834 0.00102546 0.000775546 0.000454403 5.78576e-05 -0.000414092 -0.000961444 -0.00158195 -0.00227338 -0.00303571 -0.00386896 -0.00476645 -0.0057215 -0.00673412 -0.00780431 -0.00892322 -0.010082 -0.0112806 -0.0125191 -0.0137882 -0.0150788 -0.0163907 -0.017724 -0.0190699 -0.0204195 -0.021773 -0.0231302 -0.0244826 -0.0258216 -0.0271471 -0.0284593 -0.0297491 -0.0310076 -0.0322346 -0.0334303 -0.0345849 -0.0356889 -0.0367422 -0.0377448 -0.0386871 -0.0395596 -0.0403621 -0.0410946 -0.0417493 -0.042318 -0.0428008 -0.0431977 -0.0435041 -0.0437156 -0.0438321 -0.0438537 -0.0437805 -0.0436128 -0.0433506 -0.0429939 -0.0425476 -0.0420168 -0.0414013 -0.0407012 -0.039925 -0.039081 -0.0381693 -0.0371899 -0.0361528 -0.035068 -0.0339355 -0.0327553 -0.0315375 -0.0302919 -0.0290186 -0.0277176 -0.0263981 -0.0250691 -0.0237308 -0.0223831 -0.0210345 -0.0196936 -0.0183604 -0.0170348 -0.0157254 -0.0144405 -0.0131801 -0.0119443 -0.0107416 -0.00958046 -0.00846098 -0.00738313 -0.00635484 -0.00538405 -0.00447075 -0.00361495 -0.00282237 -0.00209876 -0.0014441 -0.000858405 -0.000343211 9.99367e-05 0.00047104 0.000770097 0.00100151 0.00116967 0.00127458 0.00131624 0.00130628 0.00125631 0.00116634 0.00103637 0.000882132 0.000719359 0.000548053 0.000368213 0.00020712 9.20532e-05 2.30133e-05 0 0 2.41274e-05 9.65096e-05 0.000217147 0.000386038 0.000572509 0.000745883 0.00090616 0.00105334 0.00116965 0.0012373 0.00125631 0.00122667 0.00113601 0.000971959 0.00073452 0.000423693 3.58601e-05 -0.000432594 -0.000981668 -0.00161136 -0.00231817 -0.00309859 -0.0039526 -0.00488022 -0.00587317 -0.00692315 -0.00803018 -0.00919425 -0.010405 -0.0116521 -0.0129355 -0.0142553 -0.0156012 -0.0169629 -0.0183405 -0.019734 -0.0211343 -0.0225322 -0.0239278 -0.0253211 -0.0267038 -0.0280678 -0.029413 -0.0307395 -0.0320391 -0.0333036 -0.0345331 -0.0357274 -0.036878 -0.0379761 -0.0390218 -0.0400151 -0.040947 -0.041809 -0.042601 -0.0433229 -0.0439674 -0.044527 -0.0450017 -0.0453916 -0.0456923 -0.0458996 -0.0460135 -0.0460341 -0.0459614 -0.0457958 -0.0455371 -0.0451854 -0.0447452 -0.0442214 -0.0436137 -0.0429224 -0.042155 -0.0413196 -0.0404162 -0.0394446 -0.0384142 -0.0373341 -0.0362043 -0.0350249 -0.0338049 -0.0325534 -0.0312705 -0.0299561 -0.0286187 -0.0272667 -0.0259001 -0.0245189 -0.0231314 -0.0217458 -0.0203621 -0.0189803 -0.0176092 -0.0162576 -0.0149254 -0.0136127 -0.0123291 -0.011084 -0.00987742 -0.00870942 -0.00758934 -0.00652657 -0.0055211 -0.00457294 -0.00368931 -0.00287748 -0.00213743 -0.00146916 -0.000875383 -0.000358789 8.06195e-05 0.000442842 0.000731792 0.000951381 0.00110161 0.00118248 0.00120594 0.00118394 0.00111649 0.00100359 0.000862023 0.000708597 0.00054331 0.000366161 0.000205965 9.15401e-05 2.2885e-05 0 0 2.33622e-05 9.3449e-05 0.00021026 0.000373796 0.000552121 0.000713302 0.000857337 0.000984228 0.00107526 0.00111171 0.00109358 0.00102087 0.000881144 0.00066197 0.000363344 -1.47327e-05 -0.000475047 -0.00102039 -0.00165075 -0.00236614 -0.0031615 -0.00403178 -0.00497698 -0.00599711 -0.00708201 -0.00822157 -0.00941577 -0.0106646 -0.0119561 -0.0132783 -0.0146311 -0.0160145 -0.0174174 -0.0188285 -0.0202478 -0.0216753 -0.0231018 -0.0245182 -0.0259244 -0.0273204 -0.0286989 -0.0300522 -0.0313805 -0.0326837 -0.0339551 -0.0351877 -0.0363815 -0.0375367 -0.0386459 -0.039702 -0.0407051 -0.0416551 -0.0425446 -0.0433661 -0.0441197 -0.0448054 -0.0454167 -0.0459471 -0.0463967 -0.0467653 -0.0470493 -0.0472449 -0.047352 -0.0473706 -0.0473009 -0.047143 -0.0468969 -0.0465626 -0.0461442 -0.0456457 -0.0450671 -0.0444085 -0.0436767 -0.0428784 -0.0420138 -0.0410828 -0.0400933 -0.0390531 -0.0379623 -0.0368209 -0.0356365 -0.0344168 -0.0331617 -0.0318714 -0.0305529 -0.0292137 -0.0278536 -0.0264726 -0.0250785 -0.0236787 -0.0222733 -0.0208623 -0.0194546 -0.0180592 -0.0166761 -0.0153053 -0.0139574 -0.0126428 -0.0113616 -0.0101138 -0.00891037 -0.00776225 -0.00666946 -0.005632 -0.00465886 -0.00375905 -0.00293255 -0.00217938 -0.00150366 -0.000909515 -0.000396952 3.40316e-05 0.00038661 0.000663959 0.000866078 0.000992967 0.00105669 0.00106932 0.00103084 0.000941268 0.000818315 0.000679704 0.000525436 0.00035551 0.000199974 8.88775e-05 2.22194e-05 0 0 2.19425e-05 8.777e-05 0.000197483 0.00035108 0.000515781 0.000658804 0.000780148 0.000879814 0.000938353 0.000936315 0.000873701 0.00075051 0.000554536 0.000273572 -9.23833e-05 -0.000543329 -0.0010809 -0.00170673 -0.00242082 -0.00322318 -0.00410687 -0.00506496 -0.00609747 -0.00720439 -0.00837345 -0.00959238 -0.0108612 -0.0121798 -0.0135346 -0.0149116 -0.0163109 -0.0177324 -0.0191641 -0.0205937 -0.0220213 -0.0234468 -0.0248612 -0.0262556 -0.0276299 -0.0289842 -0.0303121 -0.0316076 -0.0328706 -0.0341012 -0.0352944 -0.0364454 -0.0375541 -0.0386207 -0.0396401 -0.0406074 -0.0415225 -0.0423855 -0.043191 -0.0439335 -0.0446129 -0.0452294 -0.0457779 -0.0462533 -0.0466557 -0.046985 -0.0472382 -0.0474122 -0.047507 -0.0475226 -0.047459 -0.0473163 -0.0470945 -0.0467936 -0.0464168 -0.0459674 -0.0454453 -0.0448505 -0.0441884 -0.0434643 -0.0426781 -0.04183 -0.0409257 -0.0399711 -0.0389664 -0.0379114 -0.0368118 -0.035673 -0.0344951 -0.033278 -0.0320272 -0.0307482 -0.0294408 -0.0281051 -0.0267477 -0.025375 -0.023987 -0.0225838 -0.0211742 -0.0197671 -0.0183626 -0.0169606 -0.0155727 -0.0142104 -0.0128737 -0.0115626 -0.0102898 -0.00906808 -0.00789743 -0.00677785 -0.00572037 -0.00473602 -0.00382481 -0.00298673 -0.00222766 -0.00155348 -0.0009642 -0.000459809 -3.81805e-05 0.000302818 0.000563185 0.000742921 0.000853929 0.000908109 0.000905463 0.000845989 0.000748143 0.000630381 0.000492702 0.000335107 0.000188498 8.37768e-05 2.09442e-05 0 0 1.98682e-05 7.94728e-05 0.000178814 0.000317891 0.000463488 0.000582389 0.000674592 0.000740099 0.000758937 0.000711132 0.000596686 0.000415597 0.000156184 -0.000193236 -0.000632662 -0.0011621 -0.0017817 -0.00249163 -0.00329189 -0.00418248 -0.00515427 -0.00619814 -0.00731408 -0.00850209 -0.00974749 -0.0110356 -0.0123664 -0.0137399 -0.0151404 -0.0165521 -0.017975 -0.0194091 -0.0208413 -0.0222586 -0.023661 -0.0250485 -0.0264125 -0.0277445 -0.0290444 -0.0303123 -0.0315436 -0.032734 -0.0338834 -0.0349918 -0.036057 -0.0370766 -0.0380508 -0.0389795 -0.0398606 -0.0406921 -0.041474 -0.0422063 -0.0428863 -0.043511 -0.0440805 -0.0445949 -0.0450509 -0.0454456 -0.0457788 -0.0460507 -0.046259 -0.0464017 -0.0464787 -0.0464901 -0.0464358 -0.0463158 -0.04613 -0.0458785 -0.0455633 -0.0451865 -0.0447482 -0.0442484 -0.0436902 -0.0430771 -0.0424091 -0.041686 -0.0409113 -0.0400881 -0.0392165 -0.0382965 -0.0373308 -0.0363222 -0.0352706 -0.0341761 -0.0330416 -0.0318701 -0.0306617 -0.0294163 -0.0281389 -0.0268346 -0.0255032 -0.0241448 -0.022768 -0.0213814 -0.0199849 -0.0185787 -0.0171752 -0.0157868 -0.0144137 -0.0130557 -0.0117276 -0.0104441 -0.00920501 -0.00801049 -0.00687383 -0.0058084 -0.00481419 -0.0038912 -0.00304739 -0.00229069 -0.00162112 -0.00103868 -0.000542579 -0.000132043 0.00019293 0.00043234 0.000597648 0.000700319 0.000740353 0.000717749 0.000651508 0.000560628 0.000445109 0.000304952 0.000171536 7.62381e-05 1.90595e-05 0 0 1.71393e-05 6.85571e-05 0.000154253 0.000274228 0.000395242 0.000484056 0.00054067 0.000565083 0.000537008 0.000436157 0.000262531 1.61286e-05 -0.000313912 -0.000738452 -0.00125749 -0.00187103 -0.00257744 -0.00337508 -0.00426395 -0.00524405 -0.00630372 -0.0074313 -0.00862679 -0.00989019 -0.0112041 -0.0125512 -0.0139315 -0.0153449 -0.0167736 -0.0181998 -0.0196234 -0.0210445 -0.0224491 -0.0238233 -0.0251671 -0.0264805 -0.0277556 -0.0289847 -0.0301678 -0.0313047 -0.0323933 -0.0334314 -0.0344188 -0.0353557 -0.0362429 -0.0370816 -0.0378716 -0.038613 -0.0393074 -0.0399563 -0.0405597 -0.0411176 -0.0416304 -0.0420987 -0.0425225 -0.0429018 -0.0432358 -0.0435239 -0.043766 -0.0439622 -0.0441116 -0.0442132 -0.0442671 -0.0442732 -0.0442313 -0.0441414 -0.0440033 -0.0438171 -0.0435835 -0.0433031 -0.042976 -0.0426021 -0.0421821 -0.041717 -0.0412066 -0.040651 -0.0400502 -0.0394041 -0.0387127 -0.0379762 -0.0371936 -0.0363643 -0.0354883 -0.0345655 -0.033596 -0.0325796 -0.0315163 -0.0304062 -0.0292523 -0.0280575 -0.0268218 -0.0255453 -0.024236 -0.0229019 -0.0215431 -0.0201595 -0.0187647 -0.017372 -0.0159816 -0.0145932 -0.0132239 -0.0118902 -0.0105922 -0.00932991 -0.00811926 -0.00697619 -0.00590071 -0.00489281 -0.00396284 -0.00312115 -0.00236773 -0.00170258 -0.00112659 -0.000640622 -0.000244686 6.12218e-05 0.000287849 0.000445947 0.000535513 0.000556549 0.000528408 0.000470444 0.000382656 0.000265045 0.000149088 6.62614e-05 1.65653e-05 0 0 1.373