<?xml version="1.0"?> 
<VTKFile type="StructuredGrid" version="0.1"> 
<StructuredGrid WholeExtent="0 128 0 128 0 0"> 
<Piece Extent="0 128 0 128 0 0"> 
<PointData>
<DataArray type="Float32" Name="u" format="ascii" NumberOfComponents="1"> 
0 0 0 0 0 0 0 0 0 0 0 0 0 0 0 0 0 0 0 0 0 0 0 0 0 0 0 0 0 0 0 0 0 0 0 0 0 0 0 0 0 0 0 0 0 0 0 0 0 0 0 0 0 0 0 0 0 0 0 0 0 0 0 0 0 0 0 0 0 0 0 0 0 0 0 0 0 0 0 0 0 0 0 0 0 0 0 0 0 0 0 0 0 0 0 0 0 0 0 0 0 0 0 0 0 0 0 0 0 0 0 0 0 0 0 0 0 0 0 0 0 0 0 0 0 0 0 0 0 0 1.75723e-07 7.02892e-07 1.58151e-06 2.81157e-06 4.29841e-06 5.94739e-06 7.75849e-06 9.73171e-06 1.18024e-05 1.39061e-05 1.60426e-05 1.82121e-05 2.03349e-05 2.23316e-05 2.42021e-05 2.59466e-05 2.75002e-05 2.87984e-05 2.9841e-05 3.06283e-05 3.11097e-05 3.12351e-05 3.10044e-05 3.04176e-05 2.94407e-05 2.80396e-05 2.62144e-05 2.39651e-05 2.12767e-05 1.81344e-05 1.45384e-05 1.04884e-05 5.99212e-06 1.05696e-06 -4.31706e-06 -1.01299e-05 -1.63477e-05 -2.29363e-05 -2.98958e-05 -3.72262e-05 -4.48623e-05 -5.27389e-05 -6.08559e-05 -6.92134e-05 -7.77132e-05 -8.6257e-05 -9.48449e-05 -0.000103477 -0.000112028 -0.000120374 -0.000128515 -0.000136451 -0.000144049 -0.000151177 -0.000157835 -0.000164022 -0.000169627 -0.000174536 -0.00017875 -0.000182269 -0.000185029 -0.000186965 -0.000188079 -0.00018837 -0.00018784 -0.000186493 -0.000184328 -0.000181346 -0.000177615 -0.000173204 -0.000168113 -0.000162341 -0.000156005 -0.00014922 -0.000141986 -0.000134304 -0.000126305 -0.000118124 -0.000109762 -0.000101216 -9.26123e-05 -8.40724e-05 -7.55967e-05 -6.71852e-05 -5.89332e-05 -5.09358e-05 -4.31931e-05 -3.5705e-05 -2.85328e-05 -2.1738e-05 -1.53204e-05 -9.28007e-06 -3.64703e-06 1.54877e-06 6.30734e-06 1.06287e-05 1.45088e-05 1.79437e-05 2.09334e-05 2.34779e-05 2.55945e-05 2.73008e-05 2.85965e-05 2.94819e-05 2.9992e-05 3.01622e-05 2.99923e-05 2.94825e-05 2.86826e-05 2.76425e-05 2.63623e-05 2.48419e-05 2.31439e-05 2.13307e-05 1.94023e-05 1.73589e-05 1.52758e-05 1.32285e-05 1.1217e-05 9.24132e-06 7.36184e-06 5.63894e-06 4.07263e-06 2.66289e-06 1.49788e-06 6.65723e-07 1.66431e-07 0 0 7.02892e-07 2.81157e-06 6.32603e-06 1.12463e-05 1.71937e-05 2.37895e-05 3.10339e-05 3.89268e-05 4.72098e-05 5.56243e-05 6.41705e-05 7.28482e-05 8.13395e-05 8.93263e-05 9.68085e-05 0.000103786 0.000110001 0.000115193 0.000119364 0.000122513 0.000124439 0.00012494 0.000124017 0.00012167 0.000117763 0.000112159 0.000104858 9.58602e-05 8.51067e-05 7.25378e-05 5.81534e-05 4.19537e-05 2.39685e-05 4.22783e-06 -1.72682e-05 -4.05198e-05 -6.53908e-05 -9.17453e-05 -0.000119583 -0.000148905 -0.000179449 -0.000210956 -0.000243424 -0.000276854 -0.000310853 -0.000345028 -0.00037938 -0.000413907 -0.000448113 -0.000481498 -0.000514062 -0.000545805 -0.000576198 -0.000604709 -0.00063134 -0.00065609 -0.000678508 -0.000698145 -0.000715001 -0.000729076 -0.000740115 -0.000747861 -0.000752316 -0.000753478 -0.00075136 -0.000745972 -0.000737313 -0.000725384 -0.00071046 -0.000692816 -0.000672451 -0.000649365 -0.000624021 -0.000596881 -0.000567946 -0.000537214 -0.000505221 -0.000472498 -0.000439046 -0.000404866 -0.000370449 -0.00033629 -0.000302387 -0.000268741 -0.000235733 -0.000203743 -0.000172772 -0.00014282 -0.000114131 -8.69518e-05 -6.12815e-05 -3.71203e-05 -1.45881e-05 6.19509e-06 2.52293e-05 4.25146e-05 5.80351e-05 7.17747e-05 8.37335e-05 9.39114e-05 0.000102378 0.000109203 0.000114386 0.000117928 0.000119968 0.000120649 0.000119969 0.00011793 0.00011473 0.00011057 0.000105449 9.93676e-05 9.25754e-05 8.53227e-05 7.76094e-05 6.94356e-05 6.11031e-05 5.29139e-05 4.4868e-05 3.69653e-05 2.94474e-05 2.25558e-05 1.62905e-05 1.06516e-05 5.99151e-06 2.66289e-06 6.65723e-07 0 0 1.58151e-06 6.32603e-06 1.42336e-05 2.53041e-05 3.86857e-05 5.35265e-05 6.98264e-05 8.75854e-05 0.000106222 0.000125155 0.000144384 0.000163909 0.000183014 0.000200984 0.000217819 0.000233519 0.000247502 0.000259185 0.000268569 0.000275654 0.000279987 0.000281116 0.000279039 0.000273758 0.000264966 0.000252357 0.00023593 0.000215686 0.00019149 0.00016321 0.000130845 9.43958e-05 5.39291e-05 9.51263e-06 -3.88536e-05 -9.11695e-05 -0.000147129 -0.000206427 -0.000269063 -0.000335036 -0.000403761 -0.00047465 -0.000547703 -0.000622921 -0.000699419 -0.000776313 -0.000853604 -0.000931291 -0.00100825 -0.00108337 -0.00115664 -0.00122806 -0.00129645 -0.0013606 -0.00142051 -0.0014762 -0.00152664 -0.00157083 -0.00160875 -0.00164042 -0.00166526 -0.00168269 -0.00169271 -0.00169533 -0.00169056 -0.00167844 -0.00165895 -0.00163211 -0.00159854 -0.00155884 -0.00151301 -0.00146107 -0.00140405 -0.00134298 -0.00127788 -0.00120873 -0.00113675 -0.00106312 -0.000987854 -0.000910948 -0.000833511 -0.000756651 -0.00068037 -0.000604667 -0.000530399 -0.000458423 -0.000388738 -0.000321345 -0.000256795 -0.000195642 -0.000137883 -8.35206e-05 -3.28233e-05 1.39389e-05 5.6766e-05 9.5658e-05 0.000130579 0.000161493 0.0001884 0.000211301 0.000230351 0.000245707 0.000257369 0.000265337 0.000269928 0.000271459 0.000269931 0.000265343 0.000258144 0.000248783 0.000237261 0.000223577 0.000208295 0.000191976 0.000174621 0.00015623 0.000137482 0.000119056 0.000100953 8.31719e-05 6.62566e-05 5.07505e-05 3.66537e-05 2.3966e-05 1.34809e-05 5.99151e-06 1.49788e-06 0 0 2.81157e-06 1.12463e-05 2.53041e-05 4.49851e-05 6.87746e-05 9.51582e-05 0.000124136 0.000155707 0.000188839 0.000222497 0.000256682 0.000291393 0.000325358 0.000357305 0.000387234 0.000415145 0.000440003 0.000460774 0.000477457 0.000490052 0.000497755 0.000499761 0.00049607 0.000486681 0.000471051 0.000448634 0.000419431 0.000383441 0.000340427 0.000290151 0.000232614 0.000167815 9.58739e-05 1.69113e-05 -6.9073e-05 -0.000162079 -0.000261563 -0.000366981 -0.000478334 -0.00059562 -0.000717797 -0.000843822 -0.000973695 -0.00110741 -0.00124341 -0.00138011 -0.00151752 -0.00165563 -0.00179245 -0.00192599 -0.00205625 -0.00218322 -0.00230479 -0.00241884 -0.00252536 -0.00262436 -0.00271403 -0.00279258 -0.00286001 -0.00291631 -0.00296046 -0.00299145 -0.00300926 -0.00301391 -0.00300544 -0.00298389 -0.00294925 -0.00290154 -0.00284184 -0.00277126 -0.0026898 -0.00259746 -0.00249608 -0.00238752 -0.00227178 -0.00214886 -0.00202088 -0.00188999 -0.00175619 -0.00161946 -0.0014818 -0.00134516 -0.00120955 -0.00107496 -0.000942932 -0.000814973 -0.000691089 -0.00057128 -0.000456525 -0.000347807 -0.000245126 -0.000148481 -5.83525e-05 2.47804e-05 0.000100917 0.000170059 0.00023214 0.000287099 0.000334934 0.000375646 0.000409512 0.000436812 0.000457545 0.00047171 0.000479872 0.000482594 0.000479877 0.00047172 0.000458922 0.000442281 0.000421797 0.000397471 0.000370302 0.000341291 0.000310437 0.000277742 0.000244412 0.000211656 0.000179472 0.000147861 0.000117789 9.02231e-05 6.5162e-05 4.26063e-05 2.3966e-05 1.06516e-05 2.66289e-06 0 0 4.30334e-06 1.72134e-05 3.87301e-05 6.88535e-05 0.000105202 0.000145395 0.000189432 0.000237312 0.000287438 0.000338209 0.000389626 0.000441689 0.000492451 0.000539969 0.000584242 0.000625269 0.000661483 0.000691312 0.000714758 0.00073182 0.000741295 0.000741978 0.000733869 0.000716969 0.000690479 0.000653601 0.000606335 0.000548681 0.000480309 0.000400889 0.000310421 0.000208905 9.65477e-05 -2.64429e-05 -0.000160067 -0.000304325 -0.000458376 -0.000621376 -0.000793328 -0.00097423 -0.00116249 -0.00135651 -0.0015563 -0.00176186 -0.00197079 -0.0021807 -0.00239159 -0.00260347 -0.00281329 -0.00301802 -0.00321766 -0.00341221 -0.00359845 -0.00377313 -0.00393627 -0.00408786 -0.00422515 -0.0043454 -0.00444861 -0.00453479 -0.00460236 -0.00464978 -0.00467705 -0.00468415 -0.00467117 -0.00463817 -0.00458514 -0.00451209 -0.00442069 -0.00431263 -0.00418789 -0.00404647 -0.00389121 -0.00372491 -0.00354759 -0.00335923 -0.00316309 -0.00296242 -0.00275722 -0.0025475 -0.00233624 -0.00212646 -0.00191816 -0.00171133 -0.0015083 -0.00131138 -0.00112058 -0.000935888 -0.000758814 -0.000590853 -0.000432006 -0.000282272 -0.000142395 -1.31201e-05 0.000105553 0.000213624 0.000310973 0.000397477 0.000473138 0.000537955 0.000592321 0.000636629 0.00067088 0.000695072 0.000710035 0.000716598 0.000714761 0.000704523 0.000687082 0.000663632 0.000634174 0.000598708 0.000558752 0.000515824 0.000469923 0.00042105 0.000371052 0.000321776 0.000273224 0.000225393 0.000179781 0.000137883 9.96983e-05 6.52276e-05 3.66905e-05 1.63069e-05 4.07673e-06 0 0 5.96711e-06 2.38684e-05 5.3704e-05 9.54737e-05 0.00014571 0.000200947 0.000261184 0.00032642 0.000394395 0.000462847 0.000531776 0.000601182 0.000668374 0.000730656 0.000788031 0.000840497 0.000885918 0.000922154 0.000949205 0.000967072 0.000974159 0.000968867 0.000951198 0.000921151 0.000877712 0.000819867 0.000747617 0.00066096 0.000559528 0.00044295 0.000311228 0.00016436 2.69536e-06 -0.000173417 -0.000363977 -0.000568985 -0.00078725 -0.00101758 -0.00125998 -0.00151444 -0.00177877 -0.00205077 -0.00233044 -0.00261778 -0.00290951 -0.00320235 -0.00349629 -0.00379134 -0.00408334 -0.0043681 -0.00464565 -0.00491597 -0.00517463 -0.00541719 -0.00564364 -0.00585399 -0.00604446 -0.00621127 -0.00635442 -0.00647392 -0.00656761 -0.00663335 -0.00667113 -0.00668096 -0.00666293 -0.00661713 -0.00654356 -0.00644222 -0.00631541 -0.00616545 -0.00599233 -0.00579605 -0.0055805 -0.00534956 -0.00510322 -0.00484149 -0.00456883 -0.00428972 -0.00400416 -0.00371214 -0.00341778 -0.00312522 -0.00283445 -0.00254547 -0.00226146 -0.00198562 -0.00171795 -0.00145843 -0.00120915 -0.000972184 -0.000747519 -0.000535162 -0.00033617 -0.000151602 1.85425e-05 0.000174263 0.00031533 0.000441515 0.000552817 0.000649238 0.000731235 0.000799269 0.00085334 0.000893447 0.000920651 0.000936014 0.000939535 0.000931214 0.000912641 0.000885406 0.000849509 0.000804951 0.000753802 0.000698132 0.000637941 0.00057323 0.000506557 0.000440483 0.000375007 0.000310129 0.000247967 0.000190639 0.000138145 9.04854e-05 5.0898e-05 2.26213e-05 5.65534e-06 0 0 7.80286e-06 3.12114e-05 7.02257e-05 0.000124846 0.000190299 0.000261815 0.000339391 0.00042303 0.00050971 0.00059641 0.000683132 0.000769875 0.000853124 0.000929366 0.000998601 0.00106083 0.00111331 0.0011533 0.0011808 0.00119581 0.00119635 0.00118043 0.00114806 0.00109923 0.00103275 0.000947433 0.000843276 0.000720278 0.000578083 0.000416335 0.000235034 3.418e-05 -0.000185683 -0.000424011 -0.000680803 -0.000956059 -0.00124819 -0.00155559 -0.00187828 -0.00221625 -0.00256663 -0.00292659 -0.0032961 -0.00367518 -0.00405958 -0.00444506 -0.00483163 -0.00521927 -0.0056026 -0.00597625 -0.00634022 -0.0066945 -0.00703334 -0.00735099 -0.00764747 -0.00792276 -0.00817197 -0.00839019 -0.00857744 -0.0087337 -0.0088562 -0.00894214 -0.00899152 -0.00900434 -0.00898072 -0.00892078 -0.00882451 -0.00869191 -0.00852599 -0.00832973 -0.00810313 -0.0078462 -0.00756397 -0.00726146 -0.00693868 -0.00659564 -0.00623811 -0.00587189 -0.00549698 -0.00511338 -0.00472642 -0.00434143 -0.00395841 -0.00357737 -0.00320243 -0.0028377 -0.0024832 -0.00213891 -0.00180755 -0.0014918 -0.00119167 -0.000907152 -0.000639677 -0.000390664 -0.000160114 5.19738e-05 0.000245211 0.00041921 0.000573971 0.000709493 0.000826254 0.000924731 0.00100493 0.00106684 0.00111172 0.00114084 0.0011542 0.00115179 0.0011356 0.0011076 0.0010678 0.0010162 0.00095545 0.000888215 0.000814492 0.000734283 0.000650929 0.000567775 0.000484822 0.000402067 0.000322346 0.000248491 0.000180502 0.00011838 6.65885e-05 2.95949e-05 7.39872e-06 0 0 9.81059e-06 3.92424e-05 8.82953e-05 0.000156969 0.000238969 0.000327997 0.000424055 0.000527142 0.000633383 0.0007389 0.000843694 0.000947765 0.0010467 0.0011361 0.00121595 0.00128626 0.00134365 0.00138475 0.00140954 0.00141803 0.00140786 0.00137666 0.00132444 0.0012512 0.00115559 0.0010363 0.000893313 0.000726635 0.000535976 0.000321045 8.18411e-05 -0.000181635 -0.000468588 -0.000778224 -0.00111054 -0.00146555 -0.00184119 -0.00223542 -0.00264824 -0.00307965 -0.00352609 -0.00398397 -0.00445329 -0.00493406 -0.005421 -0.00590884 -0.00639759 -0.00688723 -0.00737109 -0.00784247 -0.00830137 -0.00874778 -0.00917457 -0.00957456 -0.00994776 -0.0102942 -0.0106077 -0.0108822 -0.0111177 -0.0113141 -0.0114681 -0.0115762 -0.0116382 -0.0116543 -0.0116245 -0.0115491 -0.011428 -0.0112612 -0.0110524 -0.0108055 -0.0105203 -0.0101969 -0.00984159 -0.00946062 -0.00905398 -0.00862168 -0.00817093 -0.00770894 -0.0072357 -0.00675123 -0.00626215 -0.00577509 -0.00529006 -0.00480705 -0.00433119 -0.00386762 -0.00341634 -0.00297733 -0.00255399 -0.0021497 -0.00176445 -0.00139824 -0.00105292 -0.000730308 -0.000430417 -0.000153242 0.000100618 0.000330565 0.0005366 0.000718721 0.000877378 0.00101302 0.00112564 0.00121524 0.00128325 0.00133108 0.00135875 0.00136625 0.00135595 0.00133022 0.00128905 0.00123245 0.0011637 0.00108607 0.000999577 0.000904208 0.000804167 0.000703654 0.000602668 0.00050121 0.00040292 0.00031144 0.00022677 0.00014891 8.3762e-05 3.72276e-05 9.30689e-06 0 0 1.1925e-05 4.76999e-05 0.000107325 0.000190799 0.000290101 0.000397205 0.000512114 0.000634825 0.000760501 0.000884305 0.00100623 0.00112629 0.00123911 0.00133932 0.00142693 0.00150194 0.00156033 0.00159808 0.0016152 0.00161168 0.00158484 0.00153199 0.00145312 0.00134825 0.00121598 0.00105493 0.000865091 0.000646474 0.000398942 0.00012236 -0.00018327 -0.00051795 -0.000880564 -0.00127 -0.00168625 -0.00212933 -0.00259669 -0.0030858 -0.00359666 -0.00412926 -0.00467931 -0.0052425 -0.00581883 -0.0064083 -0.00700459 -0.0076014 -0.00819873 -0.00879657 -0.0093869 -0.0099617 -0.010521 -0.0110647 -0.0115843 -0.0120712 -0.0125253 -0.0129466 -0.0133279 -0.0136617 -0.013948 -0.0141868 -0.0143739 -0.0145052 -0.0145806 -0.0146001 -0.0145638 -0.0144721 -0.0143248 -0.0141219 -0.013868 -0.0135676 -0.0132206 -0.0128272 -0.0123947 -0.0119309 -0.0114357 -0.0109091 -0.0103597 -0.00979637 -0.00921896 -0.00862749 -0.00802995 -0.00743428 -0.0068405 -0.00624859 -0.0056647 -0.005095 -0.00453947 -0.00399812 -0.00347503 -0.00297427 -0.00249586 -0.00203977 -0.00160832 -0.00120377 -0.000826135 -0.000475413 -0.000152477 0.000141798 0.000407412 0.000644364 0.000852984 0.0010336 0.00118622 0.00131084 0.00140896 0.0014821 0.00153025 0.00155342 0.0015543 0.00153561 0.00149734 0.0014395 0.00136599 0.00128071 0.00118367 0.00107486 0.000959405 0.000842415 0.000723891 0.000603833 0.000486793 0.000377323 0.000275422 0.000181092 0.000101864 4.52729e-05 1.13182e-05 0 0 1.40806e-05 5.63225e-05 0.000126726 0.00022529 0.000342077 0.000467149 0.000600504 0.000742145 0.000886153 0.00102661 0.00116353 0.00129689 0.00142034 0.00152751 0.00161839 0.00169299 0.00174669 0.00177488 0.00177754 0.0017547 0.00170342 0.00162081 0.00150686 0.00136157 0.00118364 0.000971778 0.000725977 0.000446239 0.000132716 -0.000214436 -0.000595218 -0.00100963 -0.00145616 -0.00193327 -0.00244099 -0.0029793 -0.00354515 -0.00413549 -0.00475033 -0.00538966 -0.00604848 -0.00672177 -0.00740954 -0.00811179 -0.0088212 -0.00953047 -0.0102396 -0.0109486 -0.0116482 -0.0123289 -0.0129909 -0.0136341 -0.0142485 -0.0148241 -0.0153608 -0.0158586 -0.0163089 -0.0167031 -0.0170412 -0.0173232 -0.0175442 -0.0176991 -0.017788 -0.017811 -0.0177681 -0.0176597 -0.0174856 -0.0172459 -0.016946 -0.016591 -0.0161809 -0.0157159 -0.0152047 -0.0146562 -0.0140704 -0.0134473 -0.012797 -0.0121297 -0.0114454 -0.010744 -0.0100348 -0.0093271 -0.00862086 -0.00791608 -0.0072199 -0.00653944 -0.00587472 -0.00522572 -0.0045972 -0.00399392 -0.00341588 -0.00286309 -0.0023383 -0.00184428 -0.00138104 -0.000948565 -0.000548097 -0.00018087 0.000153116 0.00045386 0.000721451 0.000955976 0.00115744 0.00132583 0.00146262 0.00156926 0.00164575 0.00169209 0.00171123 0.00170612 0.00167676 0.00162314 0.00154976 0.00146113 0.00135724 0.0012381 0.00110978 0.000978358 0.000843837 0.000706217 0.000571072 0.000443977 0.000324933 0.000213939 0.00012034 5.34846e-05 1.33712e-05 0 0 1.62776e-05 6.51103e-05 0.000146498 0.000260441 0.000394898 0.000537827 0.000689228 0.000849102 0.00101034 0.00116583 0.00131557 0.00145956 0.0015904 0.00170065 0.00179032 0.00185942 0.00190275 0.00191514 0.00189659 0.00184708 0.00176361 0.00164313 0.00148564 0.00129115 0.00105858 0.000786854 0.00047597 0.000125928 -0.0002627 -0.000689344 -0.001154 -0.00165668 -0.00219536 -0.00276805 -0.00337474 -0.00401544 -0.00468656 -0.0053845 -0.00610927 -0.00686086 -0.0076336 -0.00842179 -0.00922543 -0.0100445 -0.0108708 -0.0116961 -0.0125202 -0.0133434 -0.0141548 -0.0149441 -0.0157112 -0.0164561 -0.0171673 -0.0178333 -0.0184542 -0.01903 -0.0195508 -0.0200066 -0.0203975 -0.0207234 -0.0209788 -0.0211578 -0.0212606 -0.021287 -0.0212374 -0.0211119 -0.0209105 -0.0206333 -0.0202863 -0.0198756 -0.0194012 -0.0188631 -0.0182715 -0.0176365 -0.0169581 -0.0162363 -0.0154828 -0.014709 -0.013915 -0.0131007 -0.0122767 -0.0114535 -0.0106311 -0.00980953 -0.00899678 -0.00820096 -0.00742207 -0.00666011 -0.0059205 -0.00520864 -0.00452454 -0.00386819 -0.00324287 -0.00265185 -0.00209513 -0.0015727 -0.00108624 -0.000637439 -0.000226288 0.000147211 0.000482777 0.000780132 0.00103927 0.00126021 0.0014442 0.00159255 0.00170524 0.00178228 0.00182675 0.00184176 0.00182729 0.00178336 0.00171502 0.00162733 0.0015203 0.00139392 0.00125529 0.00111148 0.000962506 0.000808361 0.000655757 0.000511404 0.000375302 0.000247451 0.000139191 6.18627e-05 1.54657e-05 0 0 1.85158e-05 7.40632e-05 0.000166642 0.000296253 0.000448563 0.00060924 0.000778285 0.000955696 0.00113306 0.00130195 0.00146236 0.00161431 0.00174928 0.00185875 0.00194274 0.00200123 0.00202851 0.00201887 0.00197232 0.00188884 0.0017654 0.00159895 0.00138948 0.00113701 0.000840801 0.000500155 0.000115069 -0.000314458 -0.000787307 -0.00130236 -0.00185962 -0.00245909 -0.00309818 -0.00377433 -0.00448752 -0.00523777 -0.00602092 -0.00683281 -0.00767346 -0.00854286 -0.00943467 -0.0103425 -0.0112665 -0.0122065 -0.0131535 -0.0140981 -0.0150406 -0.0159808 -0.016907 -0.0178073 -0.0186818 -0.0195305 -0.0203405 -0.0210989 -0.0218057 -0.0224609 -0.0230534 -0.023572 -0.0240167 -0.0243874 -0.0246778 -0.0248814 -0.0249982 -0.0250281 -0.0249716 -0.0248287 -0.0245995 -0.024284 -0.023889 -0.0234215 -0.0228814 -0.0222688 -0.0215951 -0.0208718 -0.0200988 -0.0192762 -0.018417 -0.0175342 -0.0166278 -0.0156977 -0.0147557 -0.0138136 -0.0128713 -0.0119289 -0.0109954 -0.0100796 -0.00918154 -0.00830132 -0.00744493 -0.00661842 -0.00582181 -0.00505508 -0.00432203 -0.00362648 -0.0029684 -0.00234781 -0.00176691 -0.00122791 -0.0007308 -0.000275585 0.000136963 0.000506072 0.00083174 0.00111397 0.00135373 0.00155198 0.00170873 0.00182397 0.00190085 0.00194252 0.00194895 0.00192017 0.00186176 0.00177932 0.00167284 0.00154233 0.00139593 0.00124179 0.0010799 0.000910265 0.000740847 0.000579601 0.000426529 0.000281628 0.000158416 7.04071e-05 1.76018e-05 0 0 2.07027e-05 8.28107e-05 0.000186324 0.000331243 0.000500807 0.000678257 0.000863593 0.00105681 0.00124809 0.0014276 0.00159535 0.00175132 0.00188591 0.0019895 0.0020621 0.00210369 0.00210814 0.00206928 0.00198711 0.00186163 0.00168995 0.00146918 0.00119931 0.000880346 0.000512132 9.45167e-05 -0.0003725 -0.000888918 -0.0014529 -0.00206263 -0.00271809 -0.00341928 -0.00416298 -0.00494595 -0.00576819 -0.00662969 -0.00752577 -0.00845174 -0.0094076 -0.0103933 -0.0114021 -0.012427 -0.013468 -0.0145251 -0.0155884 -0.0166481 -0.017704 -0.0187563 -0.0197921 -0.0207985 -0.0217754 -0.022723 -0.023627 -0.0244733 -0.0252619 -0.0259928 -0.0266536 -0.0272319 -0.0277277 -0.0281411 -0.0284648 -0.0286918 -0.0288219 -0.0288553 -0.028792 -0.0286326 -0.0283768 -0.0280248 -0.0275841 -0.0270624 -0.0264598 -0.0257761 -0.0250241 -0.0242165 -0.0233533 -0.0224346 -0.0214745 -0.0204875 -0.0194734 -0.0184324 -0.0173772 -0.0163206 -0.0152627 -0.0142035 -0.0131526 -0.0121198 -0.011105 -0.0101084 -0.0091364 -0.00819565 -0.00728616 -0.00640792 -0.00556524 -0.00476244 -0.00399952 -0.00327648 -0.00259614 -0.00196131 -0.001372 -0.000828207 -0.000331358 0.000117117 0.000517218 0.000868943 0.00117276 0.00142913 0.00163805 0.00179953 0.00191659 0.00199227 0.00202657 0.00201948 0.00197705 0.00190532 0.00180429 0.00167396 0.00152355 0.00136226 0.0011901 0.00100707 0.000822465 0.000645597 0.000476464 0.000315065 0.000177224 7.87662e-05 1.96915e-05 0 0 2.27455e-05 9.09821e-05 0.00020471 0.000363928 0.000549365 0.000741746 0.000941071 0.00114734 0.00134924 0.00153544 0.00170596 0.00186078 0.00198922 0.00208059 0.00213489 0.00215212 0.00212582 0.00204956 0.00192332 0.00174711 0.00151842 0.00123473 0.00089606 0.000502396 5.44117e-05 -0.000447224 -0.00100251 -0.00161145 -0.00227129 -0.00297927 -0.0037354 -0.00453967 -0.00538812 -0.00627676 -0.00720559 -0.00817461 -0.00917867 -0.0102126 -0.0112764 -0.01237 -0.0134863 -0.014618 -0.015765 -0.0169275 -0.018095 -0.0192571 -0.0204139 -0.0215654 -0.0226978 -0.0237976 -0.0248647 -0.0258992 -0.0268858 -0.0278093 -0.0286697 -0.0294671 -0.0301878 -0.0308186 -0.0313595 -0.0318104 -0.0321635 -0.032411 -0.0325529 -0.0325892 -0.0325201 -0.032346 -0.0320668 -0.0316825 -0.0312015 -0.0306321 -0.0299742 -0.0292279 -0.028407 -0.0275252 -0.0265825 -0.025579 -0.02453 -0.0234509 -0.0223417 -0.0212024 -0.0200466 -0.018888 -0.0177266 -0.0165624 -0.0154055 -0.0142662 -0.0131445 -0.0120404 -0.0109608 -0.00991271 -0.00889606 -0.00791088 -0.00696195 -0.00605403 -0.00518714 -0.00436127 -0.00357995 -0.00284668 -0.00216148 -0.00152434 -0.000937553 -0.000403409 7.8092e-05 0.00050695 0.000882873 0.00120557 0.00147505 0.0016913 0.00185702 0.00197491 0.00204496 0.00206719 0.00204794 0.00199356 0.00190407 0.00177945 0.00162997 0.00146589 0.0012872 0.0010939 0.000896732 0.000706417 0.000522958 0.000346353 0.000194824 8.65884e-05 2.16471e-05 0 0 2.46443e-05 9.85773e-05 0.000221799 0.000394309 0.000594236 0.000799706 0.00101072 0.00122728 0.00143649 0.00162546 0.00179419 0.00194269 0.0020592 0.00213201 0.00216111 0.00214649 0.00208156 0.00195972 0.00178095 0.00154527 0.00125079 0.000895604 0.000479727 3.15492e-06 -0.000532361 -0.00112507 -0.00177497 -0.00248206 -0.00324246 -0.0040523 -0.00491156 -0.00582026 -0.00677359 -0.00776675 -0.00879973 -0.00987254 -0.0109796 -0.0121153 -0.0132798 -0.0144729 -0.0156872 -0.0169155 -0.0181577 -0.0194138 -0.0206732 -0.0219254 -0.0231703 -0.0244079 -0.0256241 -0.0268047 -0.0279497 -0.0290591 -0.0301168 -0.0311069 -0.0320291 -0.0328837 -0.0336562 -0.0343323 -0.034912 -0.0353953 -0.0357738 -0.036039 -0.0361911 -0.0362299 -0.0361557 -0.0359689 -0.0356694 -0.0352572 -0.0347413 -0.0341305 -0.0334249 -0.0326244 -0.0317439 -0.0307979 -0.0297864 -0.0287095 -0.0275834 -0.0264244 -0.0252325 -0.0240076 -0.022764 -0.0215158 -0.020263 -0.0190056 -0.0177541 -0.0165188 -0.0152999 -0.0140974 -0.0129182 -0.0117696 -0.0106515 -0.00956397 -0.00851216 -0.00750126 -0.00653127 -0.00560219 -0.00471834 -0.00388402 -0.00309923 -0.00236398 -0.00168162 -0.00105551 -0.000485636 2.79897e-05 0.000484073 0.000881314 0.00121971 0.00149927 0.00172213 0.00189042 0.00200414 0.0020633 0.00207443 0.00204405 0.00197218 0.00185881 0.00171521 0.00155267 0.0013712 0.00117077 0.00096365 0.000762062 0.00056601 0.000375495 0.000211216 9.38736e-05 2.34684e-05 0 0 2.63991e-05 0.000105596 0.000237592 0.000422386 0.00063542 0.000852138 0.00107254 0.00129662 0.00150984 0.00169765 0.00186005 0.00199704 0.00209586 0.00214377 0.00214075 0.00208682 0.00197536 0.00179975 0.00156001 0.00125613 0.000887065 0.000451795 -4.96859e-05 -0.000617377 -0.00124819 -0.00193902 -0.00268987 -0.00350074 -0.00436643 -0.0052817 -0.00624658 -0.00726104 -0.0083194 -0.00941592 -0.0105506 -0.0117235 -0.0129286 -0.01416 -0.0154178 -0.0167019 -0.018005 -0.0193197 -0.020646 -0.021984 -0.0233231 -0.0246528 -0.0259731 -0.0272839 -0.0285709 -0.0298197 -0.0310303 -0.0322026 -0.0333201 -0.0343659 -0.0353401 -0.0362428 -0.0370587 -0.0377729 -0.0383852 -0.0388958 -0.0392957 -0.0395759 -0.0397365 -0.0397774 -0.0396989 -0.0395013 -0.0391846 -0.0387488 -0.0382033 -0.0375576 -0.0368117 -0.0359656 -0.0350346 -0.0340344 -0.0329649 -0.0318261 -0.0306349 -0.0294082 -0.0281459 -0.0268481 -0.0255293 -0.0242038 -0.0228718 -0.0215331 -0.0201983 -0.0188777 -0.0175713 -0.0162793 -0.0150085 -0.0137663 -0.0125525 -0.0113672 -0.0102159 -0.00910411 -0.0080319 -0.00699924 -0.00601131 -0.00507332 -0.00418526 -0.00334714 -0.00256357 -0.00183918 -0.00117397 -0.000567937 -2.36444e-05 0.000456352 0.000872053 0.00122346 0.00151192 0.0017388 0.0019041 0.00200781 0.00205652 0.00205679 0.00200862 0.00191202 0.00177926 0.00162262 0.00144209 0.00123768 0.00102322 0.00081253 0.000605621 0.000402488 0.0002264 0.000100622 2.51555e-05 0 0 2.79198e-05 0.000111679 0.000251278 0.000446717 0.000670735 0.000896074 0.00112273 0.00135071 0.00156377 0.00174566 0.00189638 0.00201595 0.00209066 0.00210684 0.00206449 0.00196361 0.00179779 0.00156064 0.00125215 0.000872314 0.000421271 -0.000100855 -0.000694064 -0.00135835 -0.00208897 -0.00288115 -0.00373488 -0.00465019 -0.00562027 -0.00663834 -0.00770441 -0.00881847 -0.00997384 -0.0111638 -0.0123884 -0.0136476 -0.0149353 -0.0162454 -0.0175778 -0.0189326 -0.0203027 -0.0216812 -0.0230681 -0.0244634 -0.0258571 -0.027239 -0.0286093 -0.0299678 -0.0313005 -0.032593 -0.0338454 -0.0350577 -0.0362129 -0.0372941 -0.0383014 -0.0392347 -0.0400784 -0.040817 -0.0414504 -0.0419786 -0.0423924 -0.0426823 -0.0428484 -0.0428906 -0.0428093 -0.0426047 -0.0422767 -0.0418255 -0.0412608 -0.0405924 -0.0398203 -0.0389445 -0.0379811 -0.0369459 -0.0358389 -0.0346602 -0.0334269 -0.0321561 -0.0308479 -0.0295023 -0.0281335 -0.0267559 -0.0253694 -0.0239741 -0.02258 -0.0211971 -0.0198254 -0.0184648 -0.0171222 -0.0158044 -0.0145114 -0.0132431 -0.0120055 -0.0108041 -0.00963907 -0.00851037 -0.00742414 -0.00638654 -0.00539756 -0.00445721 -0.00357161 -0.0027469 -0.00198307 -0.00128011 -0.000642177 -7.33912e-05 0.000426246 0.000856733 0.00121835 0.00151136 0.00173579 0.00189161 0.00198525 0.00202312 0.00200522 0.00193154 0.00181528 0.00166963 0.0014946 0.00129017 0.00107181 0.000854994 0.00063971 0.000425962 0.000239604 0.00010649 2.66226e-05 0 0 2.91164e-05 0.000116465 0.000262047 0.000465862 0.000697998 0.000928544 0.0011575 0.00138487 0.00159271 0.0017631 0.00189602 0.0019915 0.00203504 0.00201221 0.00192298 0.00176737 0.00153946 0.00123335 0.000849021 0.000386487 -0.00015258 -0.000766506 -0.00145529 -0.00221893 -0.00305062 -0.00394354 -0.00489769 -0.00591308 -0.00698107 -0.00809306 -0.00924903 -0.010449 -0.0116852 -0.01295 -0.0142433 -0.0155652 -0.0169096 -0.0182702 -0.0196471 -0.0210404 -0.0224438 -0.0238511 -0.0252623 -0.0266775 -0.0280877 -0.0294838 -0.030866 -0.0322341 -0.0335749 -0.0348747 -0.0361338 -0.037352 -0.0385127 -0.0395993 -0.0406118 -0.0415501 -0.0423985 -0.0431414 -0.0437787 -0.0443104 -0.044727 -0.0450188 -0.045186 -0.0452285 -0.0451466 -0.0449404 -0.04461 -0.0441554 -0.0435866 -0.0429135 -0.0421362 -0.0412546 -0.0402849 -0.039243 -0.0381291 -0.0369431 -0.0357019 -0.0344224 -0.0331045 -0.0317484 -0.0303675 -0.0289755 -0.0275722 -0.0261578 -0.0247412 -0.0233315 -0.0219286 -0.0205326 -0.0191495 -0.0177855 -0.0164405 -0.0151144 -0.0138133 -0.0125427 -0.0113028 -0.0100935 -0.00892209 -0.00779562 -0.00671413 -0.00567762 -0.00469399 -0.00377115 -0.00290909 -0.00210782 -0.00137343 -0.000711994 -0.000123526 0.00039198 0.000833347 0.0011994 0.00149014 0.00170557 0.00185167 0.0019344 0.00195378 0.0019098 0.00181643 0.00168763 0.00152342 0.00132378 0.00110582 0.000886625 0.0006662 0.000444544 0.000250056 0.000111136 2.7784e-05 0 0 2.99888e-05 0.000119955 0.000269899 0.00047982 0.000717208 0.000949549 0.00117685 0.0013991 0.00159668 0.00174997 0.00185898 0.00192369 0.00192902 0.00185987 0.00171623 0.0014981 0.00120036 0.000817875 0.000350635 -0.000201355 -0.000834489 -0.00154516 -0.00233337 -0.00319911 -0.00413314 -0.0051262 -0.00617829 -0.00728942 -0.00844885 -0.00964585 -0.0108804 -0.0121526 -0.0134535 -0.0147745 -0.0161154 -0.0174763 -0.0188513 -0.0202345 -0.0216258 -0.0230253 -0.0244281 -0.0258292 -0.0272286 -0.0286262 -0.0300149 -0.0313872 -0.0327432 -0.0340828 -0.035394 -0.0366649 -0.0378954 -0.0390856 -0.0402195 -0.0412814 -0.0422711 -0.0431889 -0.044019 -0.0447461 -0.0453702 -0.0458911 -0.0462995 -0.0465856 -0.0467495 -0.0467912 -0.0467108 -0.0465086 -0.0461845 -0.0457386 -0.0451808 -0.0445211 -0.0437594 -0.0428958 -0.0419461 -0.040926 -0.0398356 -0.0386749 -0.03746 -0.0362069 -0.0349158 -0.0335865 -0.0322314 -0.0308626 -0.0294802 -0.0280841 -0.0266818 -0.0252808 -0.0238811 -0.0224827 -0.0210906 -0.0197096 -0.0183398 -0.0169811 -0.0156393 -0.0143199 -0.0130231 -0.0117488 -0.0105052 -0.00930057 -0.00813497 -0.00700836 -0.0059307 -0.00491193 -0.00395205 -0.00305106 -0.00221739 -0.00145946 -0.000777261 -0.000170802 0.000356922 0.000802914 0.00116717 0.0014497 0.00165577 0.00179064 0.00185432 0.0018468 0.0017827 0.00167662 0.00152856 0.00133852 0.00112523 0.000907424 0.00068509 0.000458234 0.000257757 0.000114559 2.86396e-05 0 0 3.0537e-05 0.000122148 0.000274833 0.000488593 0.000728365 0.000959089 0.00118077 0.00139339 0.00157567 0.00170628 0.00178524 0.00181253 0.00177259 0.00164982 0.00144422 0.00115581 0.000780496 0.000314223 -0.000243013 -0.000891213 -0.00162445 -0.00243681 -0.00332829 -0.00429888 -0.00533652 -0.00642912 -0.00757668 -0.00877921 -0.0100236 -0.0112967 -0.0125986 -0.0139293 -0.0152788 -0.0166372 -0.0180045 -0.0193808 -0.0207605 -0.0221382 -0.0235138 -0.0248874 -0.0262558 -0.0276156 -0.0289669 -0.0303096 -0.0316387 -0.0329491 -0.0342408 -0.0355138 -0.036758 -0.0379636 -0.0391304 -0.0402584 -0.0413333 -0.0423403 -0.0432796 -0.044151 -0.0449398 -0.0456311 -0.0462247 -0.0467208 -0.0471099 -0.0473826 -0.0475387 -0.0475785 -0.0475019 -0.0473091 -0.0470002 -0.046575 -0.0460434 -0.0454151 -0.04469 -0.0438681 -0.0429646 -0.0419947 -0.0409583 -0.0398555 -0.0387011 -0.0375098 -0.0362816 -0.0350166 -0.0337251 -0.0324173 -0.0310933 -0.029753 -0.0284018 -0.0270451 -0.0256829 -0.0243152 -0.0229453 -0.0215767 -0.0202093 -0.0188431 -0.0174835 -0.0161358 -0.0148 -0.013476 -0.0121734 -0.0109014 -0.00966008 -0.00844944 -0.00728174 -0.00616923 -0.00511193 -0.00410983 -0.00317407 -0.00231578 -0.00153496 -0.000831612 -0.000210928 0.000321901 0.000766875 0.00112399 0.00139755 0.00159182 0.00170682 0.00174255 0.0017141 0.0016366 0.00151002 0.00133439 0.00113006 0.000917389 0.00069638 0.000467033 0.000262706 0.000116758 2.91895e-05 0 0 3.06828e-05 0.000122731 