<?xml version="1.0"?> 
<VTKFile type="StructuredGrid" version="0.1"> 
<StructuredGrid WholeExtent="0 128 0 128 0 0"> 
<Piece Extent="0 128 0 128 0 0"> 
<PointData>
<DataArray type="Float32" Name="u" format="ascii" NumberOfComponents="1"> 
0 0 0 0 0 0 0 0 0 0 0 0 0 0 0 0 0 0 0 0 0 0 0 0 0 0 0 0 0 0 0 0 0 0 0 0 0 0 0 0 0 0 0 0 0 0 0 0 0 0 0 0 0 0 0 0 0 0 0 0 0 0 0 0 0 0 0 0 0 0 0 0 0 0 0 0 0 0 0 0 0 0 0 0 0 0 0 0 0 0 0 0 0 0 0 0 0 0 0 0 0 0 0 0 0 0 0 0 0 0 0 0 0 0 0 0 0 0 0 0 0 0 0 0 0 0 0 0 0 0 -3.87752e-07 -1.55101e-06 -3.48977e-06 -6.20404e-06 -9.67117e-06 -1.38685e-05 -1.87961e-05 -2.4454e-05 -3.08091e-05 -3.78287e-05 -4.55128e-05 -5.38612e-05 -6.27558e-05 -7.20781e-05 -8.1828e-05 -9.20057e-05 -0.000102494 -0.000113175 -0.000124048 -0.000135115 -0.000146265 -0.00015739 -0.000168489 -0.000179563 -0.000190512 -0.000201237 -0.000211738 -0.000222014 -0.000231983 -0.000241561 -0.000250749 -0.000259546 -0.000267896 -0.00027574 -0.000283079 -0.000289913 -0.00029622 -0.000301978 -0.000307186 -0.000311845 -0.000315971 -0.000319583 -0.000322678 -0.000325259 -0.000327376 -0.000329082 -0.000330376 -0.00033126 -0.000331806 -0.000332092 -0.000332116 -0.000331879 -0.000331459 -0.000330938 -0.000330314 -0.000329589 -0.000328825 -0.000328089 -0.000327381 -0.000326699 -0.000326079 -0.000325553 -0.000325122 -0.000324786 -0.000324539 -0.000324377 -0.0003243 -0.000324306 -0.000324355 -0.000324404 -0.000324453 -0.000324502 -0.000324483 -0.000324329 -0.000324039 -0.000323614 -0.000322978 -0.000322056 -0.000320847 -0.000319352 -0.000317507 -0.000315248 -0.000312575 -0.000309487 -0.00030595 -0.000301926 -0.000297415 -0.000292417 -0.000286933 -0.000280962 -0.000274504 -0.00026756 -0.000260165 -0.000252356 -0.000244134 -0.000235498 -0.000226514 -0.000217248 -0.000207701 -0.000197872 -0.000187845 -0.000177704 -0.000167451 -0.000157083 -0.000146694 -0.000136375 -0.000126125 -0.000115944 -0.000105926 -9.61618e-05 -8.66518e-05 -7.7396e-05 -6.84858e-05 -6.00127e-05 -5.19767e-05 -4.43777e-05 -3.73006e-05 -3.083e-05 -2.49661e-05 -1.97088e-05 -1.50677e-05 -1.10526e-05 -7.66349e-06 -4.90034e-06 -2.75644e-06 -1.22509e-06 -3.06271e-07 0 0 -1.55101e-06 -6.20404e-06 -1.39591e-05 -2.48162e-05 -3.86847e-05 -5.54741e-05 -7.51845e-05 -9.78158e-05 -0.000123236 -0.000151315 -0.000182051 -0.000215445 -0.000251023 -0.000288312 -0.000327312 -0.000368023 -0.000409975 -0.000452698 -0.000496193 -0.00054046 -0.000585061 -0.00062956 -0.000673957 -0.000718253 -0.000762049 -0.000804948 -0.00084695 -0.000888056 -0.000927932 -0.000966245 -0.001003 -0.00103819 -0.00107158 -0.00110296 -0.00113232 -0.00115965 -0.00118488 -0.00120791 -0.00122874 -0.00124738 -0.00126389 -0.00127833 -0.00129071 -0.00130104 -0.0013095 -0.00131633 -0.0013215 -0.00132504 -0.00132723 -0.00132837 -0.00132846 -0.00132751 -0.00132584 -0.00132375 -0.00132126 -0.00131835 -0.0013153 -0.00131236 -0.00130952 -0.0013068 -0.00130431 -0.00130221 -0.00130049 -0.00129914 -0.00129816 -0.00129751 -0.0012972 -0.00129722 -0.00129742 -0.00129762 -0.00129781 -0.00129801 -0.00129793 -0.00129731 -0.00129616 -0.00129446 -0.00129191 -0.00128822 -0.00128339 -0.00127741 -0.00127003 -0.00126099 -0.0012503 -0.00123795 -0.0012238 -0.0012077 -0.00118966 -0.00116967 -0.00114773 -0.00112385 -0.00109802 -0.00107024 -0.00104066 -0.00100942 -0.000976535 -0.000941991 -0.000906056 -0.000868993 -0.000830804 -0.000791487 -0.000751379 -0.000710818 -0.000669802 -0.000628333 -0.000586777 -0.000545498 -0.000504499 -0.000463778 -0.000423704 -0.000384647 -0.000346607 -0.000309584 -0.000273943 -0.000240051 -0.000207907 -0.000177511 -0.000149202 -0.00012332 -9.98644e-05 -7.8835e-05 -6.02708e-05 -4.42105e-05 -3.0654e-05 -1.96014e-05 -1.10258e-05 -4.90034e-06 -1.22509e-06 0 0 -3.48977e-06 -1.39591e-05 -3.14079e-05 -5.58363e-05 -8.70406e-05 -0.000124817 -0.000169165 -0.000220086 -0.000277282 -0.000340458 -0.000409615 -0.000484751 -0.000564802 -0.000648703 -0.000736452 -0.000828051 -0.000922443 -0.00101857 -0.00111643 -0.00121603 -0.00131639 -0.00141651 -0.0015164 -0.00161607 -0.00171461 -0.00181113 -0.00190564 -0.00199813 -0.00208785 -0.00217405 -0.00225674 -0.00233592 -0.00241106 -0.00248166 -0.00254771 -0.00260922 -0.00266598 -0.0027178 -0.00276467 -0.0028066 -0.00284374 -0.00287624 -0.00290411 -0.00292733 -0.00294638 -0.00296174 -0.00297339 -0.00298134 -0.00298626 -0.00298883 -0.00298904 -0.00298691 -0.00298313 -0.00297844 -0.00297283 -0.0029663 -0.00295943 -0.0029528 -0.00294643 -0.00294029 -0.00293471 -0.00292998 -0.0029261 -0.00292307 -0.00292085 -0.00291939 -0.0029187 -0.00291876 -0.0029192 -0.00291964 -0.00292008 -0.00292052 -0.00292035 -0.00291896 -0.00291635 -0.00291253 -0.0029068 -0.0028985 -0.00288762 -0.00287417 -0.00285756 -0.00283723 -0.00281317 -0.00278539 -0.00275355 -0.00271733 -0.00267673 -0.00263176 -0.0025824 -0.00252866 -0.00247054 -0.00240804 -0.00234148 -0.00227121 -0.0021972 -0.00211948 -0.00203863 -0.00195524 -0.00186931 -0.00178084 -0.0016906 -0.00159934 -0.00150706 -0.00141375 -0.00132025 -0.00122737 -0.00113512 -0.0010435 -0.000953334 -0.000865456 -0.000779866 -0.000696564 -0.000616372 -0.000540114 -0.00046779 -0.000399399 -0.000335705 -0.00027747 -0.000224695 -0.000177379 -0.000135609 -9.94735e-05 -6.89715e-05 -4.41031e-05 -2.4808e-05 -1.10258e-05 -2.75644e-06 0 0 -6.20404e-06 -2.48162e-05 -5.58363e-05 -9.92646e-05 -0.000154739 -0.000221897 -0.000300738 -0.000391263 -0.000492946 -0.000605259 -0.000728204 -0.00086178 -0.00100409 -0.00115325 -0.00130925 -0.00147209 -0.0016399 -0.00181079 -0.00198477 -0.00216184 -0.00234024 -0.00251824 -0.00269583 -0.00287301 -0.00304819 -0.00321979 -0.0033878 -0.00355222 -0.00371173 -0.00386498 -0.00401199 -0.00415274 -0.00428633 -0.00441184 -0.00452926 -0.00463861 -0.00473952 -0.00483164 -0.00491497 -0.00498952 -0.00505554 -0.00511332 -0.00516285 -0.00520414 -0.00523801 -0.00526531 -0.00528602 -0.00530015 -0.0053089 -0.00531347 -0.00531386 -0.00531006 -0.00530335 -0.00529501 -0.00528503 -0.00527342 -0.00526121 -0.00524943 -0.00523809 -0.00522718 -0.00521726 -0.00520884 -0.00520195 -0.00519657 -0.00519263 -0.00519004 -0.00518879 -0.0051889 -0.00518968 -0.00519046 -0.00519125 -0.00519203 -0.00519173 -0.00518926 -0.00518462 -0.00517782 -0.00516765 -0.00515289 -0.00513355 -0.00510963 -0.00508011 -0.00504396 -0.00500119 -0.0049518 -0.0048952 -0.00483081 -0.00475864 -0.00467868 -0.00459093 -0.00449539 -0.00439207 -0.00428095 -0.00416264 -0.0040377 -0.00390614 -0.00376796 -0.00362422 -0.00347597 -0.00332321 -0.00316595 -0.00300552 -0.00284327 -0.00267921 -0.00251333 -0.00234711 -0.00218199 -0.00201799 -0.00185511 -0.00169482 -0.00153859 -0.00138643 -0.00123834 -0.00109577 -0.000960203 -0.000831627 -0.000710043 -0.000596809 -0.000493281 -0.000399458 -0.00031534 -0.000241083 -0.000176842 -0.000122616 -7.84055e-05 -4.41031e-05 -1.96014e-05 -4.90034e-06 0 0 -9.66631e-06 -3.86652e-05 -8.69968e-05 -0.000154661 -0.000240871 -0.000344841 -0.000466571 -0.00060606 -0.000762464 -0.000934938 -0.00112348 -0.0013281 -0.00154587 -0.00177388 -0.00201213 -0.00226062 -0.00251647 -0.00277678 -0.00304155 -0.00331078 -0.00358179 -0.00385189 -0.00412108 -0.00438936 -0.0046543 -0.00491346 -0.00516683 -0.00541444 -0.00565423 -0.00588421 -0.00610435 -0.00631467 -0.00651379 -0.00670034 -0.00687433 -0.00703575 -0.0071841 -0.0073189 -0.00744014 -0.00754781 -0.00764241 -0.00772439 -0.00779375 -0.00785051 -0.00789599 -0.00793154 -0.00795715 -0.00797283 -0.00798047 -0.00798197 -0.00797732 -0.00796654 -0.00795162 -0.00793457 -0.00791538 -0.00789406 -0.00787223 -0.00785151 -0.0078319 -0.0078134 -0.00779686 -0.00778312 -0.00777218 -0.00776405 -0.00775858 -0.00775565 -0.00775527 -0.00775742 -0.00776104 -0.00776509 -0.00776955 -0.00777443 -0.00777803 -0.00777864 -0.00777626 -0.0077709 -0.00776064 -0.00774359 -0.00771973 -0.00768909 -0.00765001 -0.00760089 -0.00754172 -0.0074725 -0.00739229 -0.00730012 -0.00719599 -0.00707992 -0.00695184 -0.00681171 -0.00665951 -0.00649526 -0.0063198 -0.006134 -0.00593784 -0.00573134 -0.00551608 -0.00529365 -0.00506405 -0.00482729 -0.00458541 -0.00434047 -0.00409248 -0.00384142 -0.00358955 -0.00333912 -0.00309013 -0.00284257 -0.00259872 -0.00236085 -0.00212897 -0.00190308 -0.00168543 -0.00147827 -0.00128161 -0.00109545 -0.000921884 -0.000763 -0.0006188 -0.000489285 -0.00037473 -0.000275409 -0.000191322 -0.00012247 -6.88894e-05 -3.06175e-05 -7.65438e-06 0 0 -1.38491e-05 -5.53963e-05 -0.000124642 -0.000221585 -0.00034453 -0.000491779 -0.000663331 -0.000859188 -0.00107807 -0.00131872 -0.00158111 -0.00186526 -0.00216709 -0.00248251 -0.00281152 -0.00315413 -0.00350629 -0.00386395 -0.00422711 -0.00459578 -0.0049662 -0.0053346 -0.00570101 -0.0060654 -0.00642441 -0.00677466 -0.00711614 -0.00744885 -0.00777003 -0.0080769 -0.00836946 -0.00864772 -0.00890985 -0.00915403 -0.00938027 -0.00958856 -0.00977833 -0.00994903 -0.0101006 -0.0102332 -0.0103474 -0.0104443 -0.0105236 -0.0105855 -0.0106319 -0.0106649 -0.0106845 -0.0106907 -0.0106863 -0.010674 -0.0106539 -0.0106259 -0.0105931 -0.0105582 -0.0105214 -0.0104826 -0.0104441 -0.0104083 -0.0103752 -0.0103449 -0.0103184 -0.0102971 -0.0102809 -0.0102699 -0.0102638 -0.0102625 -0.0102659 -0.0102741 -0.0102854 -0.0102985 -0.0103132 -0.0103296 -0.0103452 -0.0103575 -0.0103666 -0.0103723 -0.010372 -0.0103628 -0.0103447 -0.0103178 -0.0102796 -0.0102277 -0.0101621 -0.0100828 -0.00998835 -0.00987722 -0.00974943 -0.00960498 -0.00944367 -0.00926527 -0.00906979 -0.00885724 -0.00862868 -0.0083852 -0.00812681 -0.0078535 -0.00756741 -0.00727069 -0.00696334 -0.00664536 -0.00631957 -0.00598881 -0.00565307 -0.00531235 -0.00496979 -0.00462852 -0.00428853 -0.00394983 -0.00361561 -0.00328906 -0.00297018 -0.00265898 -0.00235862 -0.00207228 -0.00179995 -0.00154164 -0.0013003 -0.00107888 -0.000877369 -0.000695779 -0.000534586 -0.000394268 -0.000274825 -0.000176258 -9.91453e-05 -4.40646e-05 -1.10161e-05 0 0 -1.87523e-05 -7.50094e-05 -0.000168771 -0.000300038 -0.000465715 -0.000662709 -0.000891019 -0.00115065 -0.00143978 -0.00175659 -0.0021011 -0.00247329 -0.00286777 -0.00327915 -0.00370743 -0.00415261 -0.00460935 -0.0050723 -0.00554145 -0.00601683 -0.00649345 -0.00696638 -0.00743561 -0.00790114 -0.00835854 -0.0088034 -0.00923571 -0.00965547 -0.0100591 -0.0104431 -0.0108073 -0.0111519 -0.0114745 -0.0117729 -0.0120471 -0.012297 -0.0125222 -0.012722 -0.0128965 -0.0130456 -0.0131707 -0.0132729 -0.0133524 -0.013409 -0.0134458 -0.0134655 -0.0134681 -0.0134538 -0.0134263 -0.0133895 -0.0133435 -0.0132883 -0.0132278 -0.013166 -0.0131031 -0.0130389 -0.0129768 -0.0129198 -0.0128681 -0.0128216 -0.0127819 -0.0127508 -0.0127282 -0.0127141 -0.0127083 -0.0127105 -0.0127207 -0.0127388 -0.0127629 -0.0127907 -0.0128223 -0.0128576 -0.0128933 -0.0129259 -0.0129555 -0.012982 -0.0130017 -0.0130105 -0.0130086 -0.0129958 -0.0129689 -0.0129245 -0.0128624 -0.0127828 -0.0126834 -0.0125621 -0.0124189 -0.0122539 -0.0120664 -0.0118561 -0.0116229 -0.0113669 -0.0110893 -0.0107913 -0.010473 -0.0101344 -0.00977822 -0.00940711 -0.00902109 -0.00862017 -0.00820801 -0.00778828 -0.00736099 -0.00692613 -0.00648782 -0.00605018 -0.0056132 -0.00517689 -0.00474548 -0.0043232 -0.00391005 -0.00350603 -0.00311534 -0.00274221 -0.00238663 -0.00204861 -0.00173206 -0.00144091 -0.00117517 -0.000934823 -0.000720651 -0.000533419 -0.000373125 -0.00023977 -0.000134871 -5.99426e-05 -1.49857e-05 0 0 -2.43761e-05 -9.75045e-05 -0.000219385 -0.000390018 -0.000604426 -0.000857631 -0.00114963 -0.00148044 -0.00184757 -0.00224857 -0.00268343 -0.00315216 -0.0036479 -0.0041638 -0.00469985 -0.00525607 -0.00582565 -0.00640182 -0.00698458 -0.00757392 -0.00816356 -0.00874722 -0.00932488 -0.00989656 -0.0104567 -0.0109997 -0.0115255 -0.0120343 -0.0125215 -0.0129827 -0.0134179 -0.0138272 -0.0142077 -0.0145569 -0.0148747 -0.0151612 -0.0154157 -0.0156379 -0.0158277 -0.0159851 -0.0161121 -0.0162104 -0.0162801 -0.0163212 -0.0163375 -0.0163331 -0.016308 -0.016262 -0.0162005 -0.0161286 -0.0160462 -0.0159535 -0.0158556 -0.0157579 -0.0156605 -0.0155632 -0.0154703 -0.0153861 -0.0153105 -0.0152435 -0.0151873 -0.0151441 -0.0151139 -0.0150967 -0.0150921 -0.0150997 -0.0151196 -0.0151518 -0.0151934 -0.0152417 -0.0152966 -0.0153583 -0.0154222 -0.0154838 -0.0155431 -0.0156001 -0.0156497 -0.0156867 -0.0157112 -0.0157231 -0.0157179 -0.0156911 -0.0156425 -0.0155723 -0.0154774 -0.0153548 -0.0152045 -0.0150265 -0.01482 -0.0145841 -0.0143188 -0.0140242 -0.0137015 -0.0133523 -0.0129765 -0.0125742 -0.0121485 -0.0117029 -0.0112373 -0.0107517 -0.0102507 -0.00973889 -0.00921624 -0.00868275 -0.00814364 -0.0076041 -0.00706414 -0.00652376 -0.00598835 -0.00546329 -0.00494858 -0.00444423 -0.00395561 -0.00348809 -0.00304167 -0.00261635 -0.00221716 -0.0018491 -0.00151219 -0.00120642 -0.000932926 -0.000692862 -0.000486222 -0.000313006 -0.000176066 -7.82516e-05 -1.95629e-05 0 0 -3.06719e-05 -0.000122687 -0.000276047 -0.00049075 -0.000759433 -0.00107473 -0.00143665 -0.00184519 -0.00229706 -0.00278899 -0.00332097 -0.00389301 -0.00449662 -0.0051233 -0.00577306 -0.00644589 -0.00713341 -0.00782725 -0.0085274 -0.00923386 -0.00993889 -0.0106347 -0.0113214 -0.0119989 -0.0126604 -0.0132991 -0.0139151 -0.0145083 -0.0150733 -0.015605 -0.0161033 -0.0165682 -0.0169966 -0.0173854 -0.0177346 -0.0180443 -0.0183141 -0.0185437 -0.0187331 -0.0188823 -0.018994 -0.0190709 -0.019113 -0.0191202 -0.0190977 -0.0190509 -0.0189796 -0.0188839 -0.0187706 -0.0186462 -0.018511 -0.0183647 -0.0182144 -0.0180667 -0.0179217 -0.0177794 -0.0176453 -0.0175246 -0.0174174 -0.0173237 -0.0172462 -0.0171878 -0.0171485 -0.0171281 -0.0171263 -0.0171426 -0.017177 -0.0172295 -0.0172964 -0.0173743 -0.0174632 -0.017563 -0.017668 -0.0177724 -0.0178762 -0.0179794 -0.0180753 -0.0181574 -0.0182255 -0.0182799 -0.0183143 -0.0183229 -0.0183057 -0.0182626 -0.0181895 -0.0180826 -0.0179416 -0.0177666 -0.0175563 -0.0173092 -0.0170254 -0.0167048 -0.016349 -0.0159593 -0.0155357 -0.0150784 -0.014591 -0.0140775 -0.013538 -0.0129723 -0.012386 -0.0117847 -0.0111683 -0.0105368 -0.00989671 -0.0092543 -0.00860961 -0.00796263 -0.00732003 -0.00668848 -0.00606799 -0.00545855 -0.00486683 -0.00429952 -0.0037566 -0.00323807 -0.00275021 -0.00229927 -0.00188526 -0.00150817 -0.00116966 -0.000871371 -0.000613305 -0.000395462 -0.000222448 -9.88656e-05 -2.47164e-05 0 0 -3.7591e-05 -0.000150364 -0.000338319 -0.000601456 -0.000929507 -0.0013122 -0.00174954 -0.00224153 -0.00278385 -0.0033722 -0.00400657 -0.00468697 -0.00540306 -0.0061445 -0.0069113 -0.00770346 -0.00851084 -0.00932329 -0.0101408 -0.0109634 -0.0117818 -0.0125866 -0.0133778 -0.0141554 -0.0149113 -0.0156375 -0.0163338 -0.0170003 -0.0176309 -0.0182192 -0.0187655 -0.0192695 -0.019728 -0.0201375 -0.0204981 -0.0208097 -0.0210724 -0.0212863 -0.0214514 -0.0215677 -0.0216389 -0.0216687 -0.0216571 -0.0216042 -0.0215168 -0.0214015 -0.0212586 -0.0210878 -0.020898 -0.0206976 -0.0204866 -0.0202651 -0.0200417 -0.0198251 -0.0196151 -0.0194119 -0.0192222 -0.0190528 -0.0189038 -0.0187751 -0.0186701 -0.0185924 -0.018542 -0.0185188 -0.0185222 -0.0185516 -0.0186071 -0.0186886 -0.0187916 -0.0189117 -0.0190488 -0.0192029 -0.0193668 -0.019533 -0.0197017 -0.0198728 -0.0200378 -0.0201884 -0.0203246 -0.0204462 -0.0205457 -0.0206152 -0.0206549 -0.0206646 -0.020639 -0.0205726 -0.0204655 -0.0203176 -0.0201269 -0.0198911 -0.0196103 -0.0192845 -0.018915 -0.0185032 -0.0180491 -0.0175527 -0.0170184 -0.0164505 -0.0158491 -0.0152142 -0.0145522 -0.0138697 -0.0131666 -0.012443 -0.0117065 -0.0109648 -0.0102179 -0.00946568 -0.00871636 -0.00797797 -0.0072505 -0.00653396 -0.00583646 -0.00516613 -0.00452297 -0.00390697 -0.00332584 -0.00278725 -0.0022912 -0.00183771 -0.0014291 -0.00106772 -0.000753567 -0.000486636 -0.000273733 -0.000121659 -3.04147e-05 0 0 -4.51335e-05 -0.000180534 -0.000406202 -0.000722137 -0.00111465 -0.00157004 -0.00208831 -0.00266947 -0.00330795 -0.00399821 -0.00474023 -0.00553403 -0.00636722 -0.00722741 -0.0081146 -0.00902879 -0.00995793 -0.01089 -0.0118249 -0.0127627 -0.0136923 -0.0146027 -0.015494 -0.016366 -0.0172094 -0.0180146 -0.0187816 -0.0195105 -0.0201941 -0.0208254 -0.0214045 -0.0219312 -0.022402 -0.0228133 -0.0231651 -0.0234574 -0.0236907 -0.0238658 -0.0239827 -0.0240412 -0.0240466 -0.0240037 -0.0239127 -0.0237734 -0.0235947 -0.0233851 -0.0231448 -0.0228738 -0.0225827 -0.0222825 -0.0219732 -0.0216546 -0.0213377 -0.021033 -0.0207406 -0.0204606 -0.0202012 -0.0199709 -0.0197698 -0.0195977 -0.019459 -0.0193579 -0.0192945 -0.0192686 -0.0192797 -0.0193268 -0.01941 -0.0195292 -0.019679 -0.0198537 -0.0200534 -0.0202779 -0.0205184 -0.0207656 -0.0210195 -0.0212803 -0.0215373 -0.0217799 -0.0220082 -0.0222222 -0.022412 -0.022568 -0.0226901 -0.0227784 -0.0228257 -0.022825 -0.0227763 -0.0226796 -0.0225318 -0.0223298 -0.0220736 -0.0217632 -0.0213997 -0.0209842 -0.0205167 -0.0199973 -0.0194307 -0.0188219 -0.0181708 -0.0174774 -0.0167493 -0.0159938 -0.0152112 -0.0144012 -0.013573 -0.0127356 -0.0118889 -0.0110329 -0.0101773 -0.00933174 -0.00849611 -0.00767045 -0.00686448 -0.00608793 -0.00534078 -0.00462305 -0.00394403 -0.00331302 -0.00273002 -0.00219503 -0.00171126 -0.00128192 -0.000907005 -0.000586527 -0.000329921 -0.000146632 -3.66579e-05 0 0 -5.32995e-05 -0.000213198 -0.000479696 -0.000852792 -0.00131485 -0.00184824 -0.00245295 -0.003129 -0.00386935 -0.004667 -0.00552195 -0.0064342 -0.00738911 -0.00837202 -0.00938294 -0.0104219 -0.0114747 -0.0125272 -0.0135795 -0.0146315 -0.0156704 -0.0166832 -0.01767 -0.0186308 -0.0195546 -0.0204306 -0.0212586 -0.0220387 -0.022763 -0.0234235 -0.0240203 -0.0245532 -0.0250186 -0.0254128 -0.0257357 -0.0259873 -0.026169 -0.0262822 -0.0263269 -0.026303 -0.0262172 -0.026076 -0.0258795 -0.0256277 -0.0253314 -0.0250017 -0.0246384 -0.0242417 -0.0238249 -0.0234012 -0.0229707 -0.0225333 -0.0221022 -0.0216905 -0.0212983 -0.0209254 -0.0205822 -0.0202788 -0.0200153 -0.0197916 -0.0196129 -0.0194843 -0.0194059 -0.0193777 -0.0193988 -0.019468 -0.0195855 -0.0197513 -0.0199585 -0.0202004 -0.0204769 -0.0207881 -0.0211229 -0.0214701 -0.0218298 -0.0222019 -0.0225736 -0.0229318 -0.0232765 -0.0236078 -0.0239134 -0.0241813 -0.0244115 -0.0246039 -0.0247496 -0.0248396 -0.0248739 -0.0248525 -0.0247711 -0.0246254 -0.0244153 -0.0241409 -0.0238029 -0.0234021 -0.0229384 -0.022412 -0.021828 -0.0211916 -0.020503 -0.019762 -0.0189772 -0.0181572 -0.017302 -0.0164115 -0.0154963 -0.0145666 -0.0136227 -0.0126644 -0.011703 -0.0107498 -0.00980481 -0.00886802 -0.0079509 -0.0070649 -0.00621004 -0.00538631 -0.0046048 -0.0038766 -0.00320171 -0.00258013 -0.00201612 -0.00151395 -0.00107362 -0.000695134 -0.000391013 -0.000173784 -4.34459e-05 0 0 -6.19444e-05 -0.000247778 -0.0005575 -0.000991111 -0.00152657 -0.00214184 -0.00283692 -0.00361181 -0.00445779 -0.00536614 -0.00633686 -0.00736996 -0.0084483 -0.00955475 -0.0106893 -0.011852 -0.0130264 -0.0141961 -0.0153612 -0.0165216 -0.0176624 -0.018769 -0.0198411 -0.0208789 -0.0218699 -0.0228017 -0.0236742 -0.0244875 -0.0252327 -0.0259011 -0.0264927 -0.0270074 -0.0274416 -0.0277915 -0.028057 -0.0282383 -0.0283376 -0.0283572 -0.0282971 -0.0281574 -0.0279466 -0.0276731 -0.0273369 -0.026938 -0.02649 -0.0260063 -0.025487 -0.024932 -0.0243577 -0.0237802 -0.0231994 -0.0226155 -0.0220443 -0.0215016 -0.0209874 -0.0205017 -0.0200568 -0.019665 -0.0193263 -0.0190406 -0.0188142 -0.0186533 -0.0185577 -0.0185276 -0.0185618 -0.018659 -0.0188193 -0.0190428 -0.0193211 -0.0196461 -0.0200179 -0.0204363 -0.0208881 -0.0213597 -0.0218513 -0.0223628 -0.0228785 -0.0233826 -0.0238752 -0.0243562 -0.0248108 -0.025224 -0.0255959 -0.0259265 -0.0262044 -0.0264186 -0.0265689 -0.0266554 -0.0266723 -0.0266138 -0.0264798 -0.0262704 -0.0259857 -0.025626 -0.0251913 -0.0246816 -0.0241024 -0.0234592 -0.0227523 -0.0219814 -0.0211562 -0.0202862 -0.0193716 -0.0184121 -0.0174199 -0.0164069 -0.0153731 -0.0143185 -0.0132561 -0.012199 -0.0111473 -0.0101008 -0.00907308 -0.00807741 -0.00711381 -0.00618229 -0.00529592 -0.00446779 -0.00369791 -0.00298626 -0.00233839 -0.00175982 -0.00125056 -0.000810606 -0.000455966 -0.000202652 -5.06629e-05 0 0 -7.09237e-05 -0.000283695 -0.000638314 -0.00113478 -0.00174625 -0.00244587 -0.00323365 -0.00410959 -0.00506299 -0.00608315 -0.00717008 -0.00832378 -0.00952438 -0.010752 -0.0120067 -0.0132884 -0.0145784 -0.0158577 -0.0171263 -0.0183844 -0.0196149 -0.020801 -0.0219425 -0.0230396 -0.0240782 -0.0250443 -0.025938 -0.0267592 -0.0274983 -0.0281458 -0.0287016 -0.0291658 -0.0295347 -0.0298049 -0.0299764 -0.030049 -0.0300265 -0.0299123 -0.0297065 -0.0294091 -0.0290308 -0.0285825 -0.028064 -0.0274754 -0.0268333 -0.0261542 -0.0254381 -0.024685 -0.0239145 -0.0231461 -0.0223799 -0.0216159 -0.0208729 -0.0201701 -0.0195074 -0.0188847 -0.0183168 -0.0178181 -0.0173889 -0.0170289 -0.0167456 -0.0165463 -0.016431 -0.0163997 -0.016451 -0.0165834 -0.0167969 -0.0170917 -0.0174577 -0.0178854 -0.0183746 -0.0189254 -0.0195218 -0.0201477 -0.0208031 -0.0214881 -0.0221837 -0.022871 -0.02355 -0.0242207 -0.024865 -0.0254649 -0.0260203 -0.0265312 -0.0269837 -0.0273639 -0.0276718 -0.0279074 -0.028063 -0.0281311 -0.0281115 -0.0280044 -0.0278092 -0.0275251 -0.0271523 -0.0266907 -0.0261461 -0.0255243 -0.0248253 -0.0240491 -0.0232062 -0.0223073 -0.0213523 -0.0203413 -0.0192878 -0.0182054 -0.017094 -0.0159537 -0.0147995 -0.0136463 -0.0124941 -0.011343 -0.0102084 -0.0091058 -0.00803517 -0.00699652 -0.00600517 -0.00507641 -0.00421025 -0.0034067 -0.00267278 -0.00201554 -0.00143497 -0.000931089 -0.000523738 -0.000232772 -5.81931e-05 0 0 -8.02375e-05 -0.00032095 -0.000722138 -0.0012838 -0.00197388 -0.00276034 -0.00364315 -0.00462234 -0.00568495 -0.00681804 -0.00802162 -0.00929567 -0.0106174 -0.0119638 -0.0133351 -0.0147312 -0.0161306 -0.0175118 -0.018875 -0.02022 -0.0215278 -0.0227792 -0.0239742 -0.0251128 -0.0261794 -0.0271584 -0.0280499 -0.0288538 -0.0295597 -0.0301575 -0.030647 -0.0310282 -0.0312981 -0.0314532 -0.0314937 -0.0314195 -0.0312357 -0.0309476 -0.0305549 -0.0300579 -0.0294698 -0.0288041 -0.0280608 -0.0272399 -0.0263615 -0.0254454 -0.0244918 -0.0235006 -0.0224953 -0.0214991 -0.0205121 -0.0195343 -0.0185881 -0.017696 -0.0168581 -0.0160743 -0.0153619 -0.0147381 -0.014203 -0.0137564 -0.0134071 -0.0131636 -0.0130259 -0.0129941 -0.0130664 -0.0132412 -0.0135183 -0.0138979 -0.0143684 -0.0149181 -0.0155471 -0.0162554 -0.017024 -0.017834 -0.0186853 -0.0195779 -0.0204893 -0.021397 -0.022301 -0.0232013 -0.0240762 -0.0249039 -0.0256846 -0.0264181 -0.0270875 -0.0276756 -0.0281826 -0.0286084 -0.0289432 -0.0291772 -0.0293105 -0.0293431 -0.0292732 -0.0290993 -0.0288214 -0.0284394 -0.0279593 -0.0273869 -0.0267221 -0.025965 -0.0251272 -0.0242203 -0.0232442 -0.022199 -0.0210998 -0.019962 -0.0187854 -0.0175701 -0.0163332 -0.0150916 -0.0138454 -0.0125946 -0.0113569 -0.0101501 -0.0089741 -0.00782901 -0.00673254 -0.00570245 -0.00473875 -0.00384143 -0.00301928 -0.00228109 -0.00162685 -0.00105658 -0.000594328 -0.000264146 -6.60364e-05 0 0 -8.98857e-05 -0.000359543 -0.000808971 -0.00143817 -0.00220948 -0.00308523 -0.00406543 -0.00515006 -0.00632368 -0.00757082 -0.00889147 -0.0102856 -0.0117272 -0.0131902 -0.0146745 -0.0161802 -0.017683 -0.0191586 -0.0206071 -0.0220284 -0.0234011 -0.0247036 -0.0259361 -0.0270985 -0.0281735 -0.029144 -0.0300099 -0.0307713 -0.031417 -0.0319362 -0.0323288 -0.0325948 -0.0327315 -0.0327363 -0.032609 -0.0323497 -0.0319654 -0.031463 -0.0308425 -0.0301039 -0.0292636 -0.0283381 -0.0273274 -0.0262315 -0.0250744 -0.0238799 -0.0226481 -0.0213789 -0.0201 -0.018839 -0.0175959 -0.0163707 -0.0151897 -0.0140794 -0.0130397 -0.0120707 -0.0111924 -0.010425 -0.00976859 -0.0092231 -0.00879855 -0.00850498 -0.00834238 -0.00831075 -0.00840807 -0.00863231 -0.00898348 -0.00946157 -0.010053 -0.0107443 -0.0115354 -0.0124263 -0.0133948 -0.0144186 -0.0154977 -0.016632 -0.0177952 -0.0189605 -0.0201282 -0.021298 -0.0224443 -0.0235412 -0.0245889 -0.0255872 -0.0265156 -0.0273537 -0.0281013 -0.0287584 -0.0293129 -0.0297523 -0.0300768 -0.0302863 -0.0303778 -0.0303486 -0.0301985 -0.0299277 -0.0295419 -0.0290469 -0.0284427 -0.0277293 -0.0269193 -0.0260253 -0.0250473 -0.0239852 -0.022856 -0.0216767 -0.0204472 -0.0191676 -0.0178571 -0.0165349 -0.0152011 -0.0138555 -0.0125185 -0.0112102 -0.00993062 -0.00867975 -0.00747804 -0.00634592 -0.00528339 -0.00429045 -0.00337789 -0.00255647 -0.00182621 -0.00118709 -0.000667737 -0.000296772 -7.4193e-05 0 0 -9.97206e-05 -0.000398882 -0.000897486 -0.00159553 -0.0024494 -0.0034155 -0.00449381 -0.00568434 -0.00696883 -0.00832902 -0.00976491 -0.0112765 -0.0128342 -0.0144085 -0.0159994 -0.0176068 -0.0192035 -0.0207623 -0.0222831 -0.023766 -0.0251869 -0.0265221 -0.0277714 -0.028935 -0.0299938 -0.0309289 -0.0317404 -0.0324283 -0.0329809 -0.0333866 -0.0336454 -0.0337574 -0.0337205 -0.0335328 -0.0331942 -0.0327048 -0.0320736 -0.0313098 -0.0304133 -0.0293841 -0.0282423 -0.0270076 -0.0256802 -0.02426 -0.0227753 -0.0212545 -0.0196975 -0.0181045 -0.0165077 -0.0149395 -0.0133999 -0.0118888 -0.0104371 -0.00907529 -0.00780348 -0.00662165 -0.00555316 -0.00462138 -0.00382629 -0.00316791 -0.0026578 -0.00230755 -0.00211715 -0.0020866 -0.00221353 -0.00249554 -0.00293264 -0.00352484 -0.00425637 -0.00511149 -0.00609021 -0.00719251 -0.0083925 -0.00966427 -0.0110078 -0.0124231 -0.0138792 -0.0153451 -0.0168208 -0.0183062 -0.019771 -0.021185 -0.022548 -0.0238601 -0.0250967 -0.0262334 -0.02727 -0.0282067 -0.0290282 -0.0297194 -0.0302802 -0.0307107 -0.0310064 -0.0311628 -0.0311801 -0.0310581 -0.0308024 -0.0304188 -0.0299072 -0.0292676 -0.0285135 -0.0276585 -0.0267026 -0.0256457 -0.0245066 -0.023304 -0.022038 -0.0207086 -0.0193372 -0.0179456 -0.0165336 -0.0151012 -0.0136715 -0.012267 -0.010888 -0.00953425 -0.00822927 -0.00699636 -0.00583551 -0.00474675 -0.00374306 -0.00283748 -0.00203001 -0.00132064 -0.000742859 -0.00033016 -8.25399e-05 0 0 -0.000109594 -0.000438378 -0.00098635 -0.00175351 -0.00269003 -0.00374608 -0.00492166 -0.00621676 -0.00761006 -0.00908022 -0.0106272 -0.0122511 -0.0139185 -0.0155961 -0.017284 -0.0189821 -0.0206599 -0.0222871 -0.0238635 -0.0253892 -0.0268376 -0.0281823 -0.0294232 -0.0305603 -0.0315731 -0.0324409 -0.0331636 -0.0337413 -0.0341619 -0.0344132 -0.0344952 -0.0344079 -0.0341504 -0.0337214 -0.0331212 -0.0323496 -0.0314183 -0.0303389 -0.0291114 -0.0277358 -0.0262361 -0.024636 -0.0229356 -0.021135 -0.0192673 -0.0173659 -0.0154309 -0.0134621 -0.0114973 -0.00957408 -0.00769238 -0.00585226 -0.00408919 -0.00243867 -0.000900716 0.000524684 0.00181062 0.0029302 0.00388341 0.00467025 0.00527744 0.00569169 0.00591301 0.00594139 0.00577961 0.00543047 0.00489395 0.00417007 0.003277 0.00223291 0.00103782 -0.000308289 -0.00177546 -0.00333375 -0.00498316 -0.00672369 -0.00851936 -0.0103342 -0.0121682 -0.0140214 -0.0158582 -0.0176434 -0.0193767 -0.0210583 -0.0226591 -0.0241501 -0.0255312 -0.0268024 -0.0279454 -0.0289414 -0.0297906 -0.030493 -0.0310422 -0.0314319 -0.0316622 -0.031733 -0.0316496 -0.0314173 -0.031036 -0.0305057 -0.0298409 -0.0290561 -0.0281512 -0.0271262 -0.0260017 -0.0247984 -0.0235162 -0.0221551 -0.0207393 -0.0192927 -0.0178153 -0.0163071 -0.0147939 -0.0133013 -0.0118294 -0.010378 -0.00897384 -0.00764331 -0.00638646 -0.00520326 -0.00410925 -0.00311991 -0.00223525 -0.00145527 -0.000818591 -0.000363818 -9.09546e-05 0 0 -0.000119507 -0.000478029 -0.00107557 -0.00191212 -0.00293136 -0.00407698 -0.00534897 -0.00674733 -0.00824737 -0.0098244 -0.0114784 -0.0132094 -0.0149801 -0.0167531 -0.0185285 -0.0203061 -0.0220523 -0.0237329 -0.0253482 -0.026898 -0.028353 -0.0296842 -0.0308914 -0.0319747 -0.0329117 -0.0336799 -0.0342795 -0.0347105 -0.0349601 -0.035016 -0.0348781 -0.0345464 -0.0340211 -0.0333023 -0.03239 -0.0312842 -0.0299995 -0.0285504 -0.0269368 -0.0251589 -0.0232449 -0.0212232 -0.0190937 -0.0168566 -0.0145505 -0.0122144 -0.00984812 -0.0074518 -0.00506884 -0.00274272 -0.000473429 0.00173904 0.00385391 0.00583041 0.00766856 0.00936835 0.010899 0.0122297 0.0133605 0.0142914 0.0150072 0.0154927 0.0157481 0.0157732 0.0155713 0.0151457 0.0144963 0.0136231 0.0125471 0.0112889 0.00984865 0.00822633 0.00645631 0.00457297 0.00257631 0.000466332 -0.00171551 -0.00392777 -0.00617043 -0.00844351 -0.0107059 -0.0129164 -0.0150751 -0.0171819 -0.0192028 -0.0211037 -0.0228847 -0.0245456 -0.0260643 -0.0274184 -0.0286081 -0.0296331 -0.0304852 -0.0311558 -0.0316449 -0.0319525 -0.0320834 -0.0320422 -0.0318289 -0.0314436 -0.0309015 -0.030218 -0.029393 -0.0284266 -0.0273414 -0.0261597 -0.0248817 -0.0235073 -0.0220633 -0.0205763 -0.0190462 -0.0174732 -0.0158859 -0.0143131 -0.0127548 -0.0112111 -0.00971174 -0.00828679 -0.00693621 -0.00566001 -0.00447644 -0.00340374 -0.00244193 -0.00159099 -0.000894932 -0.000397748 -9.94369e-05 0 0 -0.000129459 -0.000517837 -0.00116513 -0.00207135 -0.00317339 -0.00440819 -0.00577574 -0.00727603 -0.00888075 -0.0105616 -0.0123185 -0.0141515 -0.016019 -0.0178794 -0.0197327 -0.0215789 -0.0233805 -0.0250999 -0.0267372 -0.0282924 -0.0297333 -0.0310278 -0.0321761 -0.033178 -0.0340094 -0.0346461 -0.0350882 -0.0353357 -0.0353756 -0.0351951 -0.0347941 -0.0341728 -0.0333326 -0.0322752 -0.0310005 -0.0295086 -0.0278172 -0.0259442 -0.0238896 -0.0216534 -0.0192688 -0.0167692 -0.0141545 -0.0114248 -0.00862487 -0.00579969 -0.00294922 -7.34709e-05 0.00277773 0.00555455 0.00825699 0.010885 0.0133922 0.015732 0.0179044 0.0199093 0.0217119 0.0232772 0.024605 0.0256955 0.0265314 0.0270956 0.0273881 0.0274089 0.0271617 0.0266502 0.0258744 0.0248344 0.0235538 0.0220565 0.0203423 0.0184113 0.0163028 0.0140559 0.0116706 0.00914691 0.00653229 0.00387416 0.00117252 -0.00157262 -0.00431393 -0.00700407 -0.00964303 -0.0122308 -0.0147278 -0.0170944 -0.0193305 -0.0214362 -0.023385 -0.0251505 -0.0267325 -0.0281312 -0.0293355 -0.0303345 -0.0311282 -0.0317166 -0.0321037 -0.0322936 -0.0322861 -0.0320812 -0.0316953 -0.0311442 -0.0304282 -0.0295471 -0.0285256 -0.0273881 -0.0261346 -0.0247652 -0.0233093 -0.0217964 -0.0202264 -0.0185994 -0.0169474 -0.0153024 -0.0136644 -0.0120334 -0.010443 -0.00892678 -0.00748479 -0.00611699 -0.00484463 -0.00368899 -0.00265004 -0.00172779 -0.000971883 -0.000431948 -0.000107987 0 0 -0.000139315 -0.000557261 -0.00125384 -0.00222904 -0.00341283 -0.00473513 -0.00619595 -0.0077953 -0.00950093 -0.0112806 -0.0131344 -0.0150622 -0.017018 -0.0189556 -0.020