<?xml version="1.0"?> 
<VTKFile type="StructuredGrid" version="0.1"> 
<StructuredGrid WholeExtent="0 128 0 128 0 0"> 
<Piece Extent="0 128 0 128 0 0"> 
<PointData>
<DataArray type="Float32" Name="u" format="ascii" NumberOfComponents="1"> 
0 0 0 0 0 0 0 0 0 0 0 0 0 0 0 0 0 0 0 0 0 0 0 0 0 0 0 0 0 0 0 0 0 0 0 0 0 0 0 0 0 0 0 0 0 0 0 0 0 0 0 0 0 0 0 0 0 0 0 0 0 0 0 0 0 0 0 0 0 0 0 0 0 0 0 0 0 0 0 0 0 0 0 0 0 0 0 0 0 0 0 0 0 0 0 0 0 0 0 0 0 0 0 0 0 0 0 0 0 0 0 0 0 0 0 0 0 0 0 0 0 0 0 0 0 0 0 0 0 0 -8.35233e-08 -3.34093e-07 -7.5171e-07 -1.33637e-06 -2.23118e-06 -3.57924e-06 -5.38054e-06 -7.63509e-06 -1.04132e-05 -1.37854e-05 -1.77515e-05 -2.23116e-05 -2.74644e-05 -3.32086e-05 -3.95441e-05 -4.6471e-05 -5.39507e-05 -6.19446e-05 -7.04527e-05 -7.9475e-05 -8.89471e-05 -9.88047e-05 -0.000109048 -0.000119676 -0.000130606 -0.000141752 -0.000153116 -0.000164696 -0.000176397 -0.000188126 -0.000199882 -0.000211665 -0.000223383 -0.000234942 -0.000246344 -0.000257588 -0.000268598 -0.000279295 -0.000289681 -0.000299755 -0.000309465 -0.000318759 -0.000327637 -0.000336099 -0.000344119 -0.000351674 -0.000358763 -0.000365386 -0.000371542 -0.000377231 -0.000382452 -0.000387204 -0.000391503 -0.00039536 -0.000398777 -0.000401753 -0.000404305 -0.00040645 -0.000408189 -0.000409521 -0.000410458 -0.000411011 -0.00041118 -0.000410964 -0.000410365 -0.000409382 -0.000408016 -0.000406266 -0.000404122 -0.000401576 -0.000398626 -0.000395272 -0.000391502 -0.000387302 -0.000382671 -0.00037761 -0.00037211 -0.000366166 -0.000359776 -0.000352941 -0.000345669 -0.00033797 -0.000329843 -0.000321289 -0.00031234 -0.000303028 -0.000293354 -0.000283318 -0.000272977 -0.000262389 -0.000251555 -0.000240475 -0.000229227 -0.00021789 -0.000206463 -0.000194948 -0.000183433 -0.000172008 -0.000160672 -0.000149426 -0.000138358 -0.000127553 -0.000117013 -0.000106738 -9.67997e-05 -8.72727e-05 -7.81565e-05 -6.94513e-05 -6.12083e-05 -5.34787e-05 -4.62627e-05 -3.95602e-05 -3.3396e-05 -2.77952e-05 -2.27577e-05 -1.82835e-05 -1.43617e-05 -1.09814e-05 -8.14262e-06 -5.84528e-06 -4.01601e-06 -2.58137e-06 -1.54139e-06 -8.96044e-07 -5.04025e-07 -2.24011e-07 -5.60028e-08 0 0 -3.34093e-07 -1.33637e-06 -3.00684e-06 -5.34549e-06 -8.92473e-06 -1.4317e-05 -2.15222e-05 -3.05403e-05 -4.1653e-05 -5.51416e-05 -7.10061e-05 -8.92466e-05 -0.000109858 -0.000132834 -0.000158176 -0.000185884 -0.000215803 -0.000247778 -0.000281811 -0.0003179 -0.000355788 -0.000395219 -0.000436191 -0.000478705 -0.000522424 -0.000567009 -0.000612462 -0.000658782 -0.000705589 -0.000752505 -0.000799529 -0.00084666 -0.00089353 -0.000939769 -0.000985377 -0.00103035 -0.00107439 -0.00111718 -0.00115872 -0.00119902 -0.00123786 -0.00127504 -0.00131055 -0.00134439 -0.00137648 -0.00140669 -0.00143505 -0.00146154 -0.00148617 -0.00150892 -0.00152981 -0.00154882 -0.00156601 -0.00158144 -0.00159511 -0.00160701 -0.00161722 -0.0016258 -0.00163276 -0.00163809 -0.00164183 -0.00164404 -0.00164472 -0.00164386 -0.00164146 -0.00163753 -0.00163206 -0.00162506 -0.00161649 -0.0016063 -0.0015945 -0.00158109 -0.00156601 -0.00154921 -0.00153068 -0.00151044 -0.00148844 -0.00146466 -0.0014391 -0.00141176 -0.00138268 -0.00135188 -0.00131937 -0.00128516 -0.00124936 -0.00121211 -0.00117342 -0.00113327 -0.00109191 -0.00104956 -0.00100622 -0.0009619 -0.000916907 -0.000871558 -0.000825853 -0.000779791 -0.000733731 -0.00068803 -0.000642688 -0.000597705 -0.00055343 -0.000510213 -0.000468053 -0.000426951 -0.000387199 -0.000349091 -0.000312626 -0.000277805 -0.000244833 -0.000213915 -0.000185051 -0.000158241 -0.000133584 -0.000111181 -9.10309e-05 -7.31341e-05 -5.7447e-05 -4.39257e-05 -3.25705e-05 -2.33811e-05 -1.6064e-05 -1.03255e-05 -6.16555e-06 -3.58418e-06 -2.0161e-06 -8.96044e-07 -2.24011e-07 0 0 -7.5171e-07 -3.00684e-06 -6.76539e-06 -1.20274e-05 -2.00806e-05 -3.22131e-05 -4.84248e-05 -6.87158e-05 -9.37192e-05 -0.000124069 -0.000159764 -0.000200805 -0.00024718 -0.000298877 -0.000355897 -0.000418239 -0.000485556 -0.000557501 -0.000634074 -0.000715275 -0.000800524 -0.000889242 -0.00098143 -0.00107709 -0.00117545 -0.00127577 -0.00137804 -0.00148226 -0.00158758 -0.00169314 -0.00179894 -0.00190499 -0.00201044 -0.00211448 -0.0022171 -0.00231829 -0.00241738 -0.00251366 -0.00260713 -0.0026978 -0.00278519 -0.00286883 -0.00294873 -0.00302489 -0.00309707 -0.00316506 -0.00322886 -0.00328847 -0.00334388 -0.00339508 -0.00344207 -0.00348484 -0.00352352 -0.00355824 -0.00358899 -0.00361577 -0.00363874 -0.00365805 -0.0036737 -0.00368569 -0.00369412 -0.0036991 -0.00370062 -0.00369868 -0.00369328 -0.00368444 -0.00367214 -0.00365639 -0.0036371 -0.00361418 -0.00358763 -0.00355745 -0.00352352 -0.00348572 -0.00344404 -0.00339849 -0.00334899 -0.00329549 -0.00323798 -0.00317646 -0.00311102 -0.00304173 -0.00296859 -0.0028916 -0.00281106 -0.00272725 -0.00264019 -0.00254986 -0.00245679 -0.0023615 -0.002264 -0.00216428 -0.00206304 -0.00196101 -0.00185817 -0.00175453 -0.0016509 -0.00154807 -0.00144605 -0.00134484 -0.00124522 -0.00114798 -0.00105312 -0.000960639 -0.000871198 -0.000785454 -0.000703409 -0.000625062 -0.000550874 -0.000481309 -0.000416364 -0.000356041 -0.000300564 -0.000250157 -0.000204819 -0.000164552 -0.000129256 -9.88329e-05 -7.32835e-05 -5.26075e-05 -3.6144e-05 -2.32324e-05 -1.38725e-05 -8.0644e-06 -4.53622e-06 -2.0161e-06 -5.04025e-07 0 0 -1.33637e-06 -5.34549e-06 -1.20274e-05 -2.1382e-05 -3.56989e-05 -5.72678e-05 -8.60886e-05 -0.000122161 -0.000166612 -0.000220566 -0.000284024 -0.000356986 -0.000439431 -0.000531338 -0.000632706 -0.000743536 -0.000863211 -0.000991113 -0.00112724 -0.0012716 -0.00142315 -0.00158088 -0.00174476 -0.00191482 -0.00208969 -0.00226804 -0.00244985 -0.00263513 -0.00282236 -0.00301002 -0.00319811 -0.00338664 -0.00357412 -0.00375908 -0.00394151 -0.00412141 -0.00429756 -0.00446872 -0.0046349 -0.00479608 -0.00495145 -0.00510015 -0.00524219 -0.00537758 -0.0055059 -0.00562678 -0.0057402 -0.00584618 -0.00594468 -0.0060357 -0.00611923 -0.00619527 -0.00626404 -0.00632576 -0.00638043 -0.00642804 -0.00646887 -0.0065032 -0.00653102 -0.00655234 -0.00656733 -0.00657618 -0.00657887 -0.00657543 -0.00656584 -0.00655011 -0.00652825 -0.00650025 -0.00646596 -0.00642521 -0.00637801 -0.00632436 -0.00626404 -0.00619683 -0.00612273 -0.00604175 -0.00595376 -0.00585865 -0.00575641 -0.00564705 -0.0055307 -0.00540752 -0.00527749 -0.00514062 -0.00499744 -0.00484845 -0.00469367 -0.00453308 -0.00436763 -0.00419823 -0.00402489 -0.0038476 -0.00366763 -0.00348623 -0.00330341 -0.00311917 -0.00293492 -0.00275212 -0.00257075 -0.00239082 -0.00221372 -0.00204085 -0.00187221 -0.0017078 -0.0015488 -0.00139636 -0.0012505 -0.00111122 -0.000979332 -0.00085566 -0.000740203 -0.000632963 -0.000534337 -0.000444723 -0.000364123 -0.000292536 -0.000229788 -0.000175703 -0.000130282 -9.35245e-05 -6.42561e-05 -4.1302e-05 -2.46622e-05 -1.43367e-05 -8.0644e-06 -3.58418e-06 -8.96044e-07 0 0 -2.23558e-06 -8.94231e-06 -2.01202e-05 -3.57692e-05 -5.92013e-05 -9.37284e-05 -0.000139351 -0.000196068 -0.000265545 -0.00034945 -0.00044778 -0.000560537 -0.000687647 -0.000829037 -0.000984707 -0.00115466 -0.00133792 -0.00153351 -0.00174143 -0.00196169 -0.00219269 -0.00243283 -0.00268212 -0.00294054 -0.00320603 -0.00347652 -0.003752 -0.00403248 -0.00431564 -0.00459917 -0.00488306 -0.00516732 -0.0054497 -0.00572798 -0.00600216 -0.00627222 -0.00653634 -0.00679268 -0.00704122 -0.00728198 -0.00751373 -0.00773525 -0.00794654 -0.0081476 -0.0083379 -0.00851688 -0.00868456 -0.00884093 -0.00898603 -0.00911991 -0.00924256 -0.00935398 -0.00945457 -0.00954471 -0.00962442 -0.00969367 -0.00975295 -0.00980271 -0.00984295 -0.00987367 -0.00989517 -0.00990774 -0.00991139 -0.00990612 -0.00989192 -0.00986881 -0.00983677 -0.00979581 -0.00974567 -0.00968607 -0.009617 -0.00953848 -0.00945012 -0.00935154 -0.00924273 -0.00912371 -0.00899421 -0.00885401 -0.00870309 -0.00854146 -0.00836927 -0.00818667 -0.00799366 -0.00779025 -0.00757715 -0.00735511 -0.00712413 -0.00688421 -0.0066367 -0.00638299 -0.00612306 -0.00585692 -0.00558646 -0.00531357 -0.00503825 -0.0047605 -0.00448248 -0.00420637 -0.00393216 -0.00365986 -0.00339161 -0.00312952 -0.00287362 -0.00262388 -0.00238213 -0.00215017 -0.00192799 -0.0017156 -0.00151427 -0.00132529 -0.00114865 -0.000984346 -0.000833024 -0.00069532 -0.000571233 -0.000460764 -0.000363685 -0.000279765 -0.000209006 -0.000151408 -0.000105224 -6.87088e-05 -4.18627e-05 -2.46855e-05 -1.38856e-05 -6.17137e-06 -1.54284e-06 0 0 -3.59681e-06 -1.43873e-05 -3.23713e-05 -5.7549e-05 -9.40097e-05 -0.000145843 -0.000213048 -0.000295625 -0.000395734 -0.000515533 -0.000655022 -0.000814202 -0.000992863 -0.0011908 -0.00140801 -0.00164449 -0.00189882 -0.00216958 -0.00245676 -0.00276038 -0.00307816 -0.00340783 -0.0037494 -0.00410287 -0.00446535 -0.00483393 -0.00520862 -0.00558941 -0.00597313 -0.00635659 -0.00673978 -0.0071227 -0.00750233 -0.00787563 -0.0082426 -0.00860324 -0.00895513 -0.00929581 -0.0096253 -0.00994359 -0.0102491 -0.0105404 -0.0108174 -0.0110801 -0.011328 -0.0115604 -0.0117774 -0.011979 -0.0121654 -0.0123368 -0.0124933 -0.0126348 -0.0127621 -0.0128758 -0.0129759 -0.0130625 -0.0131363 -0.013198 -0.0132477 -0.0132853 -0.0133114 -0.0133263 -0.0133301 -0.0133228 -0.0133043 -0.0132748 -0.0132341 -0.0131823 -0.0131189 -0.0130434 -0.012956 -0.0128565 -0.0127443 -0.0126188 -0.01248 -0.0123278 -0.0121618 -0.0119814 -0.0117867 -0.0115776 -0.0113543 -0.0111166 -0.0108647 -0.0105985 -0.0103189 -0.0100266 -0.00972186 -0.00940449 -0.0090763 -0.00873903 -0.0083927 -0.0080373 -0.00767534 -0.00730936 -0.00693936 -0.00656532 -0.00619021 -0.00581699 -0.00544564 -0.00507617 -0.00471154 -0.00435468 -0.00400561 -0.00366432 -0.00333335 -0.00301523 -0.00270995 -0.00241752 -0.00213977 -0.00187852 -0.00163377 -0.00140553 -0.00119475 -0.00100239 -0.00082844 -0.000672912 -0.000535587 -0.000416248 -0.000314897 -0.000231532 -0.000163871 -0.000109627 -6.88019e-05 -4.13952e-05 -2.32848e-05 -1.03488e-05 -2.5872e-06 0 0 -5.42009e-06 -2.16803e-05 -4.87808e-05 -8.67214e-05 -0.000140124 -0.00021361 -0.00030718 -0.000420834 -0.000557177 -0.000718816 -0.000905751 -0.00111798 -0.00135508 -0.00161662 -0.0019026 -0.00221302 -0.00254592 -0.00289932 -0.00327323 -0.00366765 -0.00407955 -0.00450587 -0.00494663 -0.00540182 -0.00586764 -0.00634026 -0.00681969 -0.00730592 -0.00779483 -0.00828228 -0.00876827 -0.00925279 -0.00973199 -0.010202 -0.0106628 -0.0111145 -0.0115539 -0.0119781 -0.0123871 -0.0127809 -0.0131577 -0.0135156 -0.0138548 -0.0141751 -0.0144761 -0.0147573 -0.0150188 -0.0152604 -0.0154828 -0.0156865 -0.0158715 -0.0160378 -0.0161866 -0.016319 -0.016435 -0.0165346 -0.0166189 -0.0166891 -0.0167453 -0.0167873 -0.0168159 -0.0168318 -0.0168349 -0.0168254 -0.0168031 -0.016768 -0.0167202 -0.0166596 -0.0165855 -0.0164973 -0.0163949 -0.0162784 -0.0161467 -0.0159987 -0.0158345 -0.0156541 -0.0154565 -0.0152409 -0.0150073 -0.0147556 -0.0144857 -0.0141974 -0.0138906 -0.0135654 -0.0132226 -0.0128631 -0.0124869 -0.0120939 -0.0116864 -0.0112664 -0.0108338 -0.0103887 -0.00993426 -0.0094736 -0.00900673 -0.00853364 -0.00805813 -0.00758398 -0.00711118 -0.00663974 -0.00617351 -0.00571633 -0.0052682 -0.00482912 -0.00440245 -0.00399153 -0.00359638 -0.00321698 -0.00285582 -0.00251535 -0.00219559 -0.00189652 -0.00161951 -0.00136592 -0.00113574 -0.000928979 -0.000745494 -0.000585153 -0.000447954 -0.000333899 -0.000240197 -0.000164057 -0.00010548 -6.44657e-05 -3.62619e-05 -1.61164e-05 -4.0291e-06 0 0 -7.70539e-06 -3.08216e-05 -6.93485e-05 -0.000123286 -0.000197544 -0.000297031 -0.000421748 -0.000571694 -0.000749875 -0.000959299 -0.00119997 -0.00147188 -0.0017743 -0.0021065 -0.00246849 -0.00286026 -0.00327922 -0.00372274 -0.00419084 -0.00468352 -0.00519686 -0.00572695 -0.00627379 -0.00683739 -0.00741291 -0.00799552 -0.00858522 -0.00918201 -0.00978074 -0.0103762 -0.0109685 -0.0115576 -0.0121387 -0.0127071 -0.0132629 -0.0138059 -0.0143327 -0.0148396 -0.0153267 -0.0157939 -0.0162393 -0.0166609 -0.0170586 -0.0174325 -0.0177823 -0.0181077 -0.0184086 -0.0186851 -0.0189382 -0.0191689 -0.0193771 -0.019563 -0.0197282 -0.0198744 -0.0200016 -0.0201099 -0.0202008 -0.0202761 -0.0203356 -0.0203795 -0.0204087 -0.0204242 -0.0204259 -0.0204139 -0.0203881 -0.0203485 -0.0202951 -0.0202278 -0.0201457 -0.0200477 -0.0199339 -0.0198042 -0.0196572 -0.0194912 -0.0193063 -0.0191025 -0.0188783 -0.0186324 -0.0183648 -0.0180753 -0.0177636 -0.0174289 -0.0170714 -0.0166909 -0.0162883 -0.0158643 -0.0154191 -0.0149525 -0.014467 -0.013965 -0.0134464 -0.0129112 -0.0123632 -0.0118063 -0.0112404 -0.0106655 -0.0100862 -0.00950734 -0.00892879 -0.00835058 -0.00777754 -0.00721447 -0.00666139 -0.00611828 -0.00558943 -0.00507909 -0.00458728 -0.00411399 -0.00366242 -0.00323578 -0.00283408 -0.00245731 -0.00210732 -0.00178593 -0.00149314 -0.00122897 -0.000993408 -0.000786479 -0.000608179 -0.000458507 -0.000334202 -0.000231998 -0.000151897 -9.38971e-05 -5.28171e-05 -2.34743e-05 -5.86857e-06 0 0 -1.05207e-05 -4.20827e-05 -9.4686e-05 -0.000168331 -0.000267874 -0.000398173 -0.000559229 -0.00075104 -0.000976902 -0.00124011 -0.00154066 -0.00187855 -0.00225262 -0.0026617 -0.00310578 -0.00358487 -0.0040956 -0.00463459 -0.00520186 -0.00579739 -0.00641629 -0.00705366 -0.00770948 -0.00838378 -0.00907059 -0.00976399 -0.010464 -0.0111705 -0.0118774 -0.0125785 -0.0132736 -0.0139628 -0.0146406 -0.0153013 -0.015945 -0.0165716 -0.017177 -0.0177572 -0.0183122 -0.0188419 -0.0193444 -0.0198176 -0.0202616 -0.0206762 -0.0210617 -0.021418 -0.0217452 -0.0220432 -0.0223138 -0.0225586 -0.0227777 -0.0229711 -0.0231411 -0.0232904 -0.0234189 -0.0235267 -0.0236159 -0.023689 -0.023746 -0.0237867 -0.0238127 -0.0238251 -0.023824 -0.0238094 -0.0237812 -0.0237393 -0.0236837 -0.0236144 -0.02353 -0.0234291 -0.0233117 -0.0231777 -0.023025 -0.0228514 -0.0226569 -0.0224414 -0.0222028 -0.021939 -0.02165 -0.0213358 -0.0209951 -0.020627 -0.0202313 -0.0198081 -0.0193579 -0.0188812 -0.0183781 -0.0178486 -0.0172952 -0.0167204 -0.0161242 -0.0155067 -0.0148723 -0.0142252 -0.0135655 -0.0128931 -0.0122137 -0.0115328 -0.0108504 -0.0101665 -0.00948692 -0.00881753 -0.00815834 -0.00750935 -0.00687584 -0.0062631 -0.00567111 -0.00509988 -0.00455347 -0.00403593 -0.00354726 -0.00308745 -0.00265894 -0.00226416 -0.00190311 -0.00157579 -0.00128247 -0.00102343 -0.000798664 -0.000608182 -0.000448335 -0.00031548 -0.000209618 -0.000130748 -7.35457e-05 -3.2687e-05 -8.17174e-06 0 0 -1.39338e-05 -5.57353e-05 -0.000125404 -0.000222941 -0.000352717 -0.000519104 -0.000722102 -0.000961711 -0.00124133 -0.00156437 -0.00193082 -0.00234069 -0.00279217 -0.00328346 -0.00381457 -0.0043855 -0.00499194 -0.00562962 -0.00629854 -0.00699869 -0.00772404 -0.00846857 -0.00923229 -0.0100152 -0.0108101 -0.0116099 -0.0124147 -0.0132243 -0.0140315 -0.0148289 -0.0156165 -0.0163943 -0.017156 -0.017895 -0.0186115 -0.0193054 -0.0199723 -0.0206077 -0.0212117 -0.0217842 -0.0223234 -0.0228274 -0.0232963 -0.02373 -0.0241292 -0.0244948 -0.0248266 -0.0251247 -0.0253918 -0.0256305 -0.0258408 -0.0260227 -0.0261798 -0.0263156 -0.0264301 -0.0265233 -0.0265983 -0.0266583 -0.0267034 -0.0267335 -0.0267504 -0.0267559 -0.02675 -0.0267326 -0.0267037 -0.0266632 -0.0266109 -0.0265469 -0.0264693 -0.0263761 -0.0262672 -0.0261428 -0.0259996 -0.0258345 -0.0256477 -0.025439 -0.0252054 -0.0249436 -0.0246538 -0.0243358 -0.0239876 -0.0236073 -0.0231948 -0.0227502 -0.0222734 -0.0217645 -0.0212235 -0.0206504 -0.0200477 -0.019418 -0.0187612 -0.0180774 -0.0173714 -0.016648 -0.0159072 -0.015149 -0.0143799 -0.0136063 -0.0128281 -0.0120453 -0.011265 -0.0104939 -0.00973225 -0.00897989 -0.00824326 -0.00752874 -0.00683633 -0.00616604 -0.00552289 -0.00491191 -0.00433311 -0.00378647 -0.00327518 -0.0028024 -0.00236812 -0.00197236 -0.00161581 -0.0012992 -0.00102251 -0.000785746 -0.000585044 -0.000416532 -0.00028021 -0.000176077 -9.90431e-05 -4.40192e-05 -1.10048e-05 0 0 -1.79449e-05 -7.17795e-05 -0.000161504 -0.000287118 -0.000452074 -0.000659824 -0.000910367 -0.0012037 -0.00154316 -0.00193208 -0.00237045 -0.00285828 -0.00339293 -0.0039718 -0.00459487 -0.00526214 -0.00596826 -0.00670784 -0.00748089 -0.0082874 -0.0091201 -0.0099717 -0.0108422 -0.0117316 -0.0126315 -0.0135334 -0.0144373 -0.0153433 -0.0162428 -0.0171275 -0.0179972 -0.018852 -0.0196847 -0.0204882 -0.0212625 -0.0220075 -0.0227186 -0.0233912 -0.0240252 -0.0246207 -0.0251761 -0.0256901 -0.0261626 -0.0265937 -0.0269849 -0.027338 -0.0276529 -0.0279296 -0.0281722 -0.0283844 -0.0285664 -0.0287181 -0.0288443 -0.02895 -0.0290351 -0.0290996 -0.0291478 -0.0291839 -0.0292079 -0.0292198 -0.0292219 -0.0292166 -0.0292038 -0.0291837 -0.0291559 -0.0291202 -0.0290767 -0.0290254 -0.0289636 -0.0288886 -0.0288005 -0.0286993 -0.0285807 -0.0284406 -0.0282788 -0.0280955 -0.0278861 -0.0276463 -0.0273761 -0.0270754 -0.026741 -0.0263698 -0.0259619 -0.025517 -0.0250347 -0.024514 -0.0239551 -0.0233579 -0.0227247 -0.0220579 -0.0213574 -0.0206232 -0.0198606 -0.0190747 -0.0182656 -0.0174332 -0.0165848 -0.0157276 -0.0148617 -0.013987 -0.0131117 -0.0122437 -0.0113831 -0.0105299 -0.00969167 -0.00887602 -0.00808295 -0.00731245 -0.00657066 -0.00586372 -0.00519163 -0.00455438 -0.00395603 -0.00340063 -0.00288818 -0.00241868 -0.00199345 -0.00161379 -0.0012797 -0.0009912 -0.00074433 -0.000535154 -0.000363672 -0.000229883 -0.000129309 -5.74708e-05 -1.43677e-05 0 0 -2.25538e-05 -9.02153e-05 -0.000202984 -0.000360861 -0.000565944 -0.000820332 -0.00112402 -0.00147702 -0.0018824 -0.00234324 -0.00285955 -0.00343132 -0.00405492 -0.0047267 -0.00544666 -0.00621481 -0.00702454 -0.00786924 -0.00874891 -0.00966354 -0.0106045 -0.011563 -0.0125392 -0.0135331 -0.0145347 -0.0155343 -0.016532 -0.0175276 -0.0185116 -0.0194743 -0.0204157 -0.0213359 -0.0222269 -0.0230809 -0.0238978 -0.0246777 -0.0254159 -0.0261076 -0.0267527 -0.0273514 -0.0279027 -0.0284058 -0.0288607 -0.0292674 -0.0296288 -0.0299477 -0.0302241 -0.030458 -0.0306549 -0.0308204 -0.0309544 -0.031057 -0.0311345 -0.0311935 -0.0312339 -0.0312558 -0.0312646 -0.0312658 -0.0312595 -0.0312456 -0.0312271 -0.0312071 -0.0311856 -0.0311625 -0.0311376 -0.0311105 -0.0310812 -0.0310498 -0.0310128 -0.0309668 -0.0309116 -0.0308474 -0.0307685 -0.0306695 -0.0305502 -0.0304107 -0.030245 -0.0300471 -0.029817 -0.0295546 -0.0292553 -0.0289146 -0.0285324 -0.0281087 -0.0276418 -0.0271299 -0.026573 -0.0259711 -0.0253261 -0.02464 -0.0239127 -0.0231441 -0.0223399 -0.0215054 -0.0206406 -0.0197456 -0.0188283 -0.0178969 -0.0169513 -0.0159917 -0.0150271 -0.0140668 -0.0131109 -0.0121594 -0.0112211 -0.0103049 -0.00941095 -0.00853911 -0.0076968 -0.00689137 -0.00612283 -0.00539117 -0.00470149 -0.00405886 -0.00346328 -0.00291475 -0.00241536 -0.0019672 -0.00157026 -0.00122454 -0.000926192 -0.000671346 -0.000460005 -0.000292168 -0.000164345 -7.3042e-05 -1.82605e-05 0 0 -2.77429e-05 -0.000110971 -0.000249686 -0.000443886 -0.00069385 -0.000999855 -0.0013619 -0.00177999 -0.00225672 -0.00279468 -0.00339387 -0.00405429 -0.00477106 -0.00553928 -0.00635894 -0.00723005 -0.00814458 -0.00909448 -0.0100798 -0.0111004 -0.0121462 -0.013207 -0.0142828 -0.0153736 -0.016468 -0.0175548 -0.018634 -0.0197056 -0.0207588 -0.0217828 -0.0227776 -0.0237431 -0.024671 -0.0255527 -0.0263882 -0.0271775 -0.027916 -0.028599 -0.0292267 -0.0297989 -0.0303158 -0.0307773 -0.0311836 -0.0315345 -0.0318345 -0.0320882 -0.0322953 -0.032456 -0.0325778 -0.032668 -0.0327267 -0.0327538 -0.0327579 -0.0327472 -0.0327217 -0.0326816 -0.0326337 -0.0325851 -0.0325359 -0.0324859 -0.0324391 -0.0323993 -0.0323663 -0.0323402 -0.0323207 -0.0323072 -0.0322999 -0.0322986 -0.0322989 -0.0322965 -0.0322912 -0.0322832 -0.0322651 -0.0322299 -0.0321774 -0.0321077 -0.0320129 -0.031885 -0.031724 -0.03153 -0.0312964 -0.0310168 -0.0306912 -0.0303196 -0.0298989 -0.0294259 -0.0289008 -0.0283234 -0.027695 -0.0270169 -0.026289 -0.0255114 -0.0246895 -0.0238289 -0.0229297 -0.0219918 -0.021024 -0.0200352 -0.0190253 -0.0179944 -0.0169528 -0.0159111 -0.0148693 -0.0138273 -0.0127954 -0.0117841 -0.0107931 -0.00982268 -0.00888143 -0.00797814 -0.00711281 -0.00628543 -0.0055023 -0.0047697 -0.00408764 -0.00345612 -0.00287821 -0.00235698 -0.00189243 -0.00148457 -0.00112982 -0.0008246 -0.000568916 -0.000362766 -0.000204056 -9.06914e-05 -2.26728e-05 0 0 -3.34942e-05 -0.000133977 -0.000301448 -0.000535907 -0.000835312 -0.00119762 -0.00162283 -0.00211095 -0.00266379 -0.00328319 -0.00396915 -0.00472167 -0.00553431 -0.00640065 -0.00732069 -0.00829442 -0.00931217 -0.0103642 -0.0114506 -0.0125713 -0.0137145 -0.0148681 -0.0160323 -0.0172071 -0.0183795 -0.0195368 -0.0206789 -0.0218058 -0.0229057 -0.0239665 -0.0249883 -0.025971 -0.0269057 -0.0277834 -0.0286042 -0.029368 -0.0300706 -0.0307077 -0.0312794 -0.0317857 -0.032228 -0.0326074 -0.0329242 -0.0331782 -0.0333759 -0.0335238 -0.0336218 -0.03367 -0.0336783 -0.0336566 -0.0336047 -0.0335228 -0.0334216 -0.0333119 -0.0331936 -0.0330668 -0.0329403 -0.0328229 -0.0327148 -0.0326159 -0.0325309 -0.0324646 -0.0324169 -0.032388 -0.0323771 -0.0323838 -0.0324081 -0.0324499 -0.0325037 -0.0325638 -0.0326301 -0.0327028 -0.0327726 -0.0328303 -0.0328759 -0.0329095 -0.0329207 -0.0328992 -0.032845 -0.0327581 -0.0326298 -0.0324513 -0.0322226 -0.0319438 -0.0316098 -0.0312159 -0.030762 -0.0302481 -0.0296744 -0.0290411 -0.0283483 -0.027596 -0.0267895 -0.0259342 -0.0250302 -0.0240775 -0.0230854 -0.0220635 -0.0210118 -0.0199303 -0.0188306 -0.0177244 -0.0166118 -0.0154926 -0.0143787 -0.0132819 -0.0122023 -0.0111398 -0.0101047 -0.00910734 -0.00814768 -0.00722572 -0.00634918 -0.00552576 -0.00475548 -0.00403832 -0.00337861 -0.00278067 -0.00224449 -0.00177008 -0.0013544 -0.000994408 -0.000690113 -0.000441511 -0.00024835 -0.000110378 -2.75944e-05 0 0 -3.98078e-05 -0.000159231 -0.00035827 -0.000636925 -0.000990332 -0.00141363 -0.00190681 -0.00246989 -0.00310362 -0.00380879 -0.0045854 -0.00543344 -0.00634467 -0.00731082 -0.00833191 -0.00940792 -0.0105273 -0.0116785 -0.0128615 -0.0140763 -0.0153092 -0.0165464 -0.0177878 -0.0190336 -0.0202692 -0.0214802 -0.0226666 -0.0238283 -0.0249522 -0.0260254 -0.0270478 -0.0280194 -0.0289309 -0.0297731 -0.0305458 -0.0312492 -0.0318797 -0.0324336 -0.032911 -0.0333119 -0.0336393 -0.0338962 -0.0340825 -0.0341984 -0.0342528 -0.0342545 -0.0342036 -0.0341 -0.0339566 -0.0337861 -0.0335886 -0.033364 -0.0331258 -0.0328877 -0.0326495 -0.0324114 -0.0321843 -0.0319793 -0.0317963 -0.0316354 -0.0315024 -0.0314031 -0.0313375 -0.0313057 -0.0313068 -0.0313403 -0.031406 -0.031504 -0.0316272 -0.0317687 -0.0319284 -0.0321063 -0.032291 -0.0324708 -0.0326458 -0.0328161 -0.0329684 -0.0330896 -0.0331798 -0.033239 -0.0332557 -0.0332183 -0.0331268 -0.0329814 -0.0327747 -0.0324998 -0.0321566 -0.0317451 -0.0312642 -0.0307127 -0.0300906 -0.029398 -0.0286399 -0.0278213 -0.0269422 -0.0260026 -0.0250126 -0.023982 -0.022911 -0.0217996 -0.0206605 -0.0195068 -0.0183384 -0.0171552 -0.0159708 -0.0147986 -0.0136385 -0.0124905 -0.0113667 -0.010279 -0.00922744 -0.00821205 -0.00724214 -0.00632706 -0.0054668 -0.00466136 -0.00391658 -0.00323827 -0.00262643 -0.00208106 -0.00159993 -0.00118077 -0.000823597 -0.000528404 -0.000297227 -0.000132101 -3.30253e-05 0 0 -4.66837e-05 -0.000186735 -0.000420153 -0.000746939 -0.00115891 -0.00164788 -0.00221385 -0.00285681 -0.00357621 -0.00437148 -0.00524262 -0.00618962 -0.00720213 -0.00826979 -0.00939259 -0.0105705 -0.01179 -0.0130373 -0.0143124 -0.0156153 -0.0169303 -0.0182417 -0.0195493 -0.0208532 -0.0221372 -0.0233852 -0.0245971 -0.0257729 -0.0268984 -0.0279595 -0.0289562 -0.0298884 -0.0307467 -0.0315216 -0.0322131 -0.0328212 -0.0333433 -0.0337766 -0.0341213 -0.0343773 -0.0345497 -0.0346435 -0.0346587 -0.0345953 -0.0344652 -0.0342803 -0.0340406 -0.0337459 -0.0334126 -0.0330567 -0.0326783 -0.0322773 -0.0318704 -0.0314745 -0.0310896 -0.0307155 -0.0303659 -0.0300542 -0.0297804 -0.0295445 -0.0293536 -0.0292148 -0.029128 -0.0290934 -0.0291098 -0.0291766 -0.0292935 -0.0294607 -0.0296695 -0.0299112 -0.030186 -0.0304937 -0.0308203 -0.0311514 -0.0314871 -0.0318274 -0.0321559 -0.0324563 -0.0327286 -0.0329727 -0.033174 -0.0333177 -0.0334038 -0.0334324 -0.0333936 -0.0332777 -0.0330847 -0.0328145 -0.0324644 -0.0320316 -0.0315159 -0.0309175 -0.0302408 -0.0294901 -0.0286656 -0.0277672 -0.0268054 -0.0257906 -0.0247228 -0.0236021 -0.0224425 -0.0212581 -0.0200491 -0.0188153 -0.0175718 -0.016334 -0.0151016 -0.0138747 -0.0126672 -0.011493 -0.0103521 -0.00924441 -0.00818118 -0.00717357 -0.00622159 -0.00532524 -0.00449211 -0.00372977 -0.00303825 -0.00241753 -0.00186641 -0.00138369 -0.000969367 -0.000623445 -0.000350688 -0.000155861 -3.89653e-05 0 0 -5.40516e-05 -0.000216206 -0.000486464 -0.000864825 -0.00133929 -0.00189788 -0.00254057 -0.00326739 -0.00407609 -0.00496448 -0.00593255 -0.0069803 -0.00809495 -0.00926372 -0.0104866 -0.0117636 -0.0130787 -0.014416 -0.0157754 -0.0171569 -0.0185426 -0.0199144 -0.0212725 -0.0226168 -0.0239293 -0.0251921 -0.026405 -0.0275682 -0.0286664 -0.0296844 -0.030622 -0.0314794 -0.0322471 -0.0329154 -0.0334846 -0.0339544 -0.0343237 -0.0345908 -0.034756 -0.0348191 -0.0347878 -0.0346695 -0.0344642 -0.034172 -0.0338083 -0.0333882 -0.0329118 -0.0323792 -0.0318103 -0.0312252 -0.0306239 -0.0300065 -0.0293933 -0.0288047 -0.0282409 -0.0277018 -0.0272037 -0.0267629 -0.0263794 -0.0260532 -0.0257929 -0.0256068 -0.0254951 -0.0254578 -0.0254936 -0.0256014 -0.0257812 -0.0260331 -0.0263465 -0.026711 -0.0271267 -0.0275934 -0.028094 -0.0286111 -0.0291448 -0.029695 -0.0302417 -0.0307647 -0.031264 -0.0317397 -0.0321732 -0.032546 -0.0328582 -0.0331098 -0.0332878 -0.0333794 -0.0333845 -0.0333031 -0.0331303 -0.0328611 -0.0324956 -0.0320338 -0.0314792 -0.0308355 -0.0301026 -0.0292805 -0.02838 -0.0274119 -0.0263761 -0.0252727 -0.0241171 -0.0229245 -0.021695 -0.0204285 -0.0191421 -0.0178526 -0.0165601 -0.0152645 -0.0139818 -0.0127278 -0.0115027 -0.0103064 -0.00915219 -0.00805327 -0.00700968 -0.00602141 -0.0050981 -0.00424939 -0.00347528 -0.00277578 -0.002151 -0.00160105 -0.00112595 -0.000725688 -0.000408199 -0.000181422 -4.53555e-05 0 0 -6.18411e-05 -0.000247364 -0.00055657 -0.000989457 -0.00152974 -0.00216114 -0.00288365 -0.00369727 -0.0045978 -0.00558103 -0.00664696 -0.00779559 -0.00901138 -0.0102788 -0.0115978 -0.0129685 -0.0143721 -0.0157902 -0.0172226 -0.0186695 -0.0201104 -0.021525 -0.0229134 -0.0242754 -0.0255913 -0.0268412 -0.028025 -0.0291429 -0.0301784 -0.0311154 -0.0319539 -0.0326938 -0.0333258 -0.0338408 -0.0342386 -0.0345192 -0.034683 -0.0347301 -0.0346606 -0.0344743 -0.034182 -0.0337942 -0.0333108 -0.0327319 -0.0320768 -0.031365 -0.0305964 -0.029771 -0.0289135 -0.0280484 -0.0271757 -0.0262954 -0.0254321 -0.0246107 -0.023831 -0.0230931 -0.0224165 -0.0218207 -0.0213058 -0.0208717 -0.0205285 -0.0202864 -0.0201455 -0.0201056 -0.0201654 -0.0203234 -0.0205797 -0.0209342 -0.0213744 -0.0218877 -0.0224742 -0.0231337 -0.0238457 -0.0245891 -0.0253641 -0.0261705 -0.0269841 -0.0277802 -0.028559 -0.0293205 -0.0300417 -0.0306998 -0.0312948 -0.0318268 -0.0322791 -0.0326349 -0.0328944 -0.0330576 -0.0331168 -0.0330647 -0.0329012 -0.0326264 -0.0322425 -0.0317521 -0.0311552 -0.0304516 -0.0296524 -0.0287685 -0.0277998 -0.0267464 -0.0256249 -0.0244518 -0.0232271 -0.0219509 -0.0206419 -0.019319 -0.0179823 -0.0166318 -0.0152855 -0.0139618 -0.0126605 -0.0113817 -0.0101411 -0.00895412 -0.00782087 -0.00674131 -0.00572745 -0.0047913 -0.00393286 -0.00315213 -0.00245085 -0.00183076 -0.00129188 -0.000834186 -0.000469229 -0.000208546 -5.21366e-05 0 0 -7.00523e-05 -0.000280209 -0.000630471 -0.00112084 -0.00173025 -0.00243766 -0.00324307 -0.00414646 -0.00514132 -0.00622111 -0.00738583 -0.00863547 -0.0099514 -0.011315 -0.0127262 -0.0141851 -0.0156701 -0.0171598 -0.0186541 -0.0201531 -0.0216338 -0.0230734 -0.0244718 -0.025829 -0.0271232 -0.0283326 -0.0294571 -0.0304968 -0.0314344 -0.0322527 -0.0329517 -0.0335315 -0.0339831 -0.0342976 -0.0344752 -0.0345156 -0.0344213 -0.0341944 -0.033835 -0.033343 -0.0327325 -0.0320176 -0.0311984 -0.0302748 -0.0292708 -0.0282106 -0.0270942 -0.0259215 -0.0247223 -0.0235263 -0.0223335 -0.0211439 -0.019987 -0.0188922 -0.0178597 -0.0168893 -0.0160042 -0.0152276 -0.0145595 -0.0139998 -0.0135605 -0.0132536 -0.0130791 -0.0130369 -0.0131253 -0.0133426 -0.0136889 -0.014164 -0.0147531 -0.0154412 -0.0162285 -0.0171148 -0.0180753 -0.0190854 -0.0201449 -0.0212539 -0.022383 -0.0235029 -0.0246136 -0.0257151 -0.0267795 -0.027779 -0.0287136 -0.0295833 -0.0303672 -0.0310443 -0.0316145 -0.032078 -0.0324241 -0.0326423 -0.0327327 -0.0326951 -0.0325306 -0.03224 -0.0318233 -0.0312806 -0.0306226 -0.0298604 -0.0289939 -0.0280232 -0.026966 -0.0258401 -0.0246455 -0.0233823 -0.0220712 -0.0207332 -0.0193684 -0.0179766 -0.0165785 -0.0151947 -0.0138254 -0.0124703 -0.0111478 -0.00987612 -0.00865516 -0.00748495 -0.00638017 -0.00535552 -0.00441099 -0.00354658 -0.00276596 -0.00207282 -0.00146714 -0.000948939 -0.000533778 -0.000237235 -5.93087e-05 0 0 -7.86852e-05 -0.000314741 -0.000708167 -0.00125896 -0.00194082 -0.00272745 -0.00361883 -0.00461497 -0.00570667 -0.00688473 -0.00814916 -0.00949996 -0.010915 -0.0123723 -0.0138718 -0.0154135 -0.0169727 -0.0185248 -0.0200699 -0.0216078 -0.0231129 -0.0245596 -0.0259478 -0.0272776 -0.028525 -0.0296662 -0.0307012 -0.0316299 -0.0324343 -0.0330962 -0.0336157 -0.0339926 -0.0342188 -0.0342861 -0.0341944 -0.0339437 -0.0335386 -0.0329838 -0.0322793 -0.031425 -0.0304391 -0.0293398 -0.028127 -0.0268007 -0.0253904 -0.0239252 -0.0224053 -0.0208306 -0.0192367 -0.017659 -0.0160974 -0.0145521 -0.0130579 -0.0116495 -0.0103271 -0.00909045 -0.0079669 -0.00698358 -0.00614048 -0.0054376 -0.0048889 -0.00450833 -0.00429589 -0.00425158 -0.00437334 -0.00465907 -0.00510879 -0.00572248 -0.00648262 -0.00737166 -0.0083896 -0.00953643 -0.0107829 -0.0120999 -0.0134873 -0.0149451 -0.0164385 -0.0179327 -0.0194278 -0.0209236 -0.0223867 -0.0237837 -0.0251146 -0.0263794 -0.0275523 -0.0286074 -0.0295447 -0.0303643 -0.031052 -0.0315939 -0.03199 -0.0322401 -0.0323435 -0.0322992 -0.0321071 -0.0317673 -0.0312906 -0.0306876 -0.0299584 -0.029103 -0.0281403 -0.0270894 -0.0259502 -0.0247228 -0.0234301 -0.0220952 -0.0207182 -0.0192989 -0.0178607 -0.0164268 -0.0149973 -0.0135722 -0.0121725 -0.0108193 -0.00951255 -0.00825232 -0.00705626 -0.00594204 -0.00490966 -0.00395913 -0.00309634 -0.00232722 -0.00165175 -0.00106995