<?xml version="1.0"?> 
<VTKFile type="StructuredGrid" version="0.1"> 
<StructuredGrid WholeExtent="0 128 0 128 0 0"> 
<Piece Extent="0 128 0 128 0 0"> 
<PointData>
<DataArray type="Float32" Name="u" format="ascii" NumberOfComponents="1"> 
0 0 0 0 0 0 0 0 0 0 0 0 0 0 0 0 0 0 0 0 0 0 0 0 0 0 0 0 0 0 0 0 0 0 0 0 0 0 0 0 0 0 0 0 0 0 0 0 0 0 0 0 0 0 0 0 0 0 0 0 0 0 0 0 0 0 0 0 0 0 0 0 0 0 0 0 0 0 0 0 0 0 0 0 0 0 0 0 0 0 0 0 0 0 0 0 0 0 0 0 0 0 0 0 0 0 0 0 0 0 0 0 0 0 0 0 0 0 0 0 0 0 0 0 0 0 0 0 0 0 1.10391e-08 4.41564e-08 9.93518e-08 1.76626e-07 3.35895e-07 6.37077e-07 1.08017e-06 1.66518e-06 2.41443e-06 3.35026e-06 4.47267e-06 5.78166e-06 7.25968e-06 8.88919e-06 1.06702e-05 1.26027e-05 1.4639e-05 1.67315e-05 1.88802e-05 2.1085e-05 2.32846e-05 2.54177e-05 2.74841e-05 2.94839e-05 3.13613e-05 3.30603e-05 3.4581e-05 3.59234e-05 3.70518e-05 3.79308e-05 3.85603e-05 3.89403e-05 3.90607e-05 3.89111e-05 3.84915e-05 3.78021e-05 3.6855e-05 3.56627e-05 3.42251e-05 3.25421e-05 3.0644e-05 2.85605e-05 2.62918e-05 2.38378e-05 2.12434e-05 1.85532e-05 1.57674e-05 1.28859e-05 9.96572e-06 7.06408e-06 4.18093e-06 1.31627e-06 -1.46701e-06 -4.10605e-06 -6.60083e-06 -8.95137e-06 -1.1102e-05 -1.29969e-05 -1.46362e-05 -1.60199e-05 -1.71152e-05 -1.78895e-05 -1.83428e-05 -1.8475e-05 -1.82874e-05 -1.7781e-05 -1.6956e-05 -1.58124e-05 -1.43847e-05 -1.27077e-05 -1.07814e-05 -8.60584e-06 -6.23764e-06 -3.73354e-06 -1.09355e-06 1.68233e-06 4.53142e-06 7.39105e-06 1.02612e-05 1.31419e-05 1.59773e-05 1.87115e-05 2.13446e-05 2.38766e-05 2.62646e-05 2.84657e-05 3.048e-05 3.23074e-05 3.392e-05 3.52899e-05 3.64171e-05 3.73016e-05 3.79327e-05 3.83e-05 3.84034e-05 3.82429e-05 3.78297e-05 3.71749e-05 3.62786e-05 3.51406e-05 3.37965e-05 3.22817e-05 3.05962e-05 2.87399e-05 2.67676e-05 2.47338e-05 2.26387e-05 2.04821e-05 1.83237e-05 1.6223e-05 1.418e-05 1.21946e-05 1.03128e-05 8.58027e-06 6.9971e-06 5.56327e-06 4.29514e-06 3.20911e-06 2.30516e-06 1.58331e-06 1.0213e-06 5.9689e-07 3.10072e-07 1.6085e-07 9.0478e-08 4.02124e-08 1.00531e-08 0 0 4.41564e-08 1.76626e-07 3.97407e-07 7.06502e-07 1.34358e-06 2.54831e-06 4.32069e-06 6.66072e-06 9.65773e-06 1.34011e-05 1.78907e-05 2.31266e-05 2.90387e-05 3.55568e-05 4.26808e-05 5.04107e-05 5.8556e-05 6.69259e-05 7.55206e-05 8.434e-05 9.31386e-05 0.000101671 0.000109936 0.000117936 0.000125445 0.000132241 0.000138324 0.000143694 0.000148207 0.000151723 0.000154241 0.000155761 0.000156243 0.000155644 0.000153966 0.000151208 0.00014742 0.000142651 0.0001369 0.000130169 0.000122576 0.000114242 0.000105167 9.53513e-05 8.49736e-05 7.4213e-05 6.30696e-05 5.15435e-05 3.98629e-05 2.82563e-05 1.67237e-05 5.26509e-06 -5.86804e-06 -1.64242e-05 -2.64033e-05 -3.58055e-05 -4.44079e-05 -5.19877e-05 -5.85449e-05 -6.40796e-05 -6.84609e-05 -7.15581e-05 -7.33711e-05 -7.39e-05 -7.31494e-05 -7.11242e-05 -6.78242e-05 -6.32495e-05 -5.75388e-05 -5.08309e-05 -4.31258e-05 -3.44234e-05 -2.49506e-05 -1.49342e-05 -4.37421e-06 6.72932e-06 1.81257e-05 2.95642e-05 4.10448e-05 5.25676e-05 6.39092e-05 7.48462e-05 8.53786e-05 9.55064e-05 0.000105058 0.000113863 0.00012192 0.000129229 0.00013568 0.00014116 0.000145668 0.000149206 0.000151731 0.0001532 0.000153614 0.000152972 0.000151319 0.0001487 0.000145114 0.000140563 0.000135186 0.000129127 0.000122385 0.00011496 0.00010707 9.89353e-05 9.05547e-05 8.19285e-05 7.32949e-05 6.4892e-05 5.67198e-05 4.87784e-05 4.12511e-05 3.43211e-05 2.79884e-05 2.22531e-05 1.71806e-05 1.28364e-05 9.22066e-06 6.33325e-06 4.08521e-06 2.38756e-06 1.24029e-06 6.43399e-07 3.61912e-07 1.6085e-07 4.02124e-08 0 0 9.93518e-08 3.97407e-07 8.94167e-07 1.58963e-06 3.02305e-06 5.73369e-06 9.72154e-06 1.49866e-05 2.17299e-05 3.01524e-05 4.02541e-05 5.2035e-05 6.53371e-05 8.00027e-05 9.60317e-05 0.000113424 0.000131751 0.000150583 0.000169921 0.000189765 0.000209562 0.000228759 0.000247357 0.000265355 0.000282252 0.000297543 0.000311229 0.00032331 0.000333467 0.000341377 0.000347043 0.000350463 0.000351546 0.000350199 0.000346424 0.000340219 0.000331695 0.000320964 0.000308026 0.000292879 0.000275796 0.000257045 0.000236626 0.00021454 0.00019119 0.000166979 0.000141907 0.000115973 8.96915e-05 6.35767e-05 3.76283e-05 1.18465e-05 -1.32031e-05 -3.69544e-05 -5.94075e-05 -8.05623e-05 -9.99177e-05 -0.000116972 -0.000131726 -0.000144179 -0.000154037 -0.000161006 -0.000165085 -0.000166275 -0.000164586 -0.000160029 -0.000152604 -0.000142311 -0.000129462 -0.00011437 -9.7033e-05 -7.74526e-05 -5.61387e-05 -3.36019e-05 -9.84198e-06 1.5141e-05 4.07828e-05 6.65195e-05 9.23509e-05 0.000118277 0.000143796 0.000168404 0.000192102 0.00021489 0.000236381 0.000256191 0.00027432 0.000290766 0.00030528 0.000317609 0.000327754 0.000335714 0.000341395 0.0003447 0.000345631 0.000344186 0.000340468 0.000334574 0.000326507 0.000316266 0.000304169 0.000290536 0.000275366 0.000258659 0.000240908 0.000222604 0.000203748 0.000184339 0.000164913 0.000146007 0.00012762 0.000109752 9.2815e-05 7.72225e-05 6.29739e-05 5.00694e-05 3.86563e-05 2.8882e-05 2.07465e-05 1.42498e-05 9.19173e-06 5.37201e-06 2.79065e-06 1.44765e-06 8.14302e-07 3.61912e-07 9.0478e-08 0 0 1.76626e-07 7.06502e-07 1.58963e-06 2.82601e-06 5.37431e-06 1.01932e-05 1.72827e-05 2.66429e-05 3.86309e-05 5.36042e-05 7.15628e-05 9.25066e-05 0.000116155 0.000142227 0.000170723 0.000201643 0.000234224 0.000267704 0.000302083 0.00033736 0.000372554 0.000406683 0.000439746 0.000471743 0.000501781 0.000528965 0.000553296 0.000574774 0.00059283 0.000606893 0.000616965 0.000623045 0.00062497 0.000622577 0.000615864 0.000604833 0.000589681 0.000570603 0.000547601 0.000520674 0.000490303 0.000456968 0.000420669 0.000381405 0.000339894 0.000296852 0.000252278 0.000206174 0.000159452 0.000113025 6.68948e-05 2.10604e-05 -2.34722e-05 -6.56967e-05 -0.000105613 -0.000143222 -0.000177631 -0.000207951 -0.00023418 -0.000256318 -0.000273844 -0.000286232 -0.000293484 -0.0002956 -0.000292598 -0.000284497 -0.000271297 -0.000252998 -0.000230155 -0.000203324 -0.000172503 -0.000137693 -9.98022e-05 -5.97367e-05 -1.74968e-05 2.69173e-05 7.25028e-05 0.000118257 0.000164179 0.00021027 0.000255637 0.000299385 0.000341514 0.000382026 0.000420233 0.000455451 0.000487679 0.000516918 0.00054272 0.000564638 0.000582673 0.000596825 0.000606924 0.0006128 0.000614455 0.000611887 0.000605276 0.000594799 0.000580457 0.00056225 0.000540745 0.000516508 0.000489539 0.000459838 0.000428281 0.000395741 0.000362219 0.000327714 0.000293179 0.000259568 0.000226879 0.000195114 0.000165004 0.000137284 0.000111954 8.90123e-05 6.87223e-05 5.13457e-05 3.68826e-05 2.5333e-05 1.63409e-05 9.55024e-06 4.96116e-06 2.5736e-06 1.44765e-06 6.43399e-07 1.6085e-07 0 0 3.39775e-07 1.3591e-06 3.05798e-06 5.4364e-06 9.8663e-06 1.77196e-05 2.89963e-05 4.36964e-05 6.23191e-05 8.5364e-05 0.000112831 0.00014472 0.000180569 0.000219917 0.000262765 0.00030911 0.000357779 0.000407592 0.00045855 0.000510654 0.00056241 0.000612324 0.000660397 0.000706627 0.000749672 0.000788187 0.000822171 0.000851625 0.000875706 0.00089357 0.000905217 0.000910648 0.000909636 0.000901957 0.000887608 0.000866592 0.000839227 0.000805833 0.000766411 0.000720961 0.000670234 0.000614983 0.000555208 0.000490908 0.000423205 0.000353217 0.000280946 0.00020639 0.000130984 5.61613e-05 -1.8079e-05 -9.17365e-05 -0.000163228 -0.000230968 -0.000294959 -0.0003552 -0.000410285 -0.000458809 -0.000500772 -0.000536173 -0.000564186 -0.000583986 -0.000595573 -0.000598945 -0.000594133 -0.000581167 -0.000560045 -0.000530767 -0.000494211 -0.00045125 -0.000401885 -0.000346117 -0.000285375 -0.000221092 -0.000153266 -8.1899e-05 -8.56929e-06 6.51436e-05 0.00013924 0.000213719 0.000287178 0.000358215 0.00042683 0.000493021 0.000555717 0.000613843 0.0006674 0.000716388 0.000760106 0.000797852 0.000829627 0.00085543 0.000874985 0.000888015 0.000894519 0.000894498 0.000888201 0.000875878 0.000857528 0.000833153 0.000803593 0.000769688 0.000731439 0.000688845 0.000643223 0.00059589 0.000546845 0.000496089 0.00044507 0.000395238 0.000346594 0.000299137 0.000253999 0.000212313 0.00017408 0.000139298 0.000108401 8.18202e-05 5.95569e-05 4.16105e-05 2.74825e-05 1.66743e-05 9.1859e-06 5.01733e-06 2.82225e-06 1.25433e-06 3.13583e-07 0 0 6.52598e-07 2.61039e-06 5.87338e-06 1.04416e-05 1.79679e-05 3.01054e-05 4.68541e-05 6.82139e-05 9.47529e-05 0.000127039 0.000165072 0.000208853 0.000257657 0.000310761 0.000368166 0.000429871 0.000494219 0.000559552 0.000625872 0.000693177 0.000759423 0.000822565 0.000882603 0.000939538 0.000991566 0.00103689 0.0010755 0.0011074 0.0011315 0.00114671 0.00115301 0.00115041 0.00113866 0.00111752 0.00108698 0.00104703 0.000998184 0.00094092 0.000875241 0.000801146 0.000719723 0.00063206 0.000538156 0.000438012 0.000333242 0.000225461 0.000114669 8.65888e-07 -0.000113869 -0.000227456 -0.000339895 -0.000451187 -0.000559021 -0.000661087 -0.000757384 -0.000847913 -0.000930615 -0.00100343 -0.00106637 -0.00111942 -0.00116137 -0.00119102 -0.00120835 -0.00121338 -0.00120614 -0.00118668 -0.00115499 -0.00111108 -0.00105622 -0.000991705 -0.000917529 -0.000833693 -0.000742291 -0.000645419 -0.000543077 -0.000435265 -0.000324288 -0.000212453 -9.97588e-05 1.37939e-05 0.000126167 0.000235323 0.000341261 0.000443982 0.000541934 0.000633568 0.000718884 0.000797881 0.000869543 0.000932854 0.000987813 0.00103442 0.00107225 0.00110086 0.00112026 0.00113044 0.0011317 0.00112431 0.00110828 0.00108361 0.00105139 0.00101272 0.0009676 0.000916027 0.00085977 0.000800596 0.000738506 0.000673499 0.000607562 0.000542682 0.000478858 0.000416092 0.000355979 0.000300116 0.000248504 0.000201143 0.000158713 0.000121898 9.06969e-05 6.51099e-05 4.45665e-05 2.84962e-05 1.6899e-05 9.77494e-06 5.49841e-06 2.44374e-06 6.10934e-07 0 0 1.1151e-06 4.46038e-06 1.00359e-05 1.78415e-05 2.96792e-05 4.73508e-05 7.08563e-05 0.000100196 0.000135932 0.000178629 0.000228287 0.000284906 0.000347418 0.000414759 0.000486927 0.000563924 0.000643544 0.000723585 0.000804046 0.000884927 0.000963593 0.00103741 0.00110637 0.00117047 0.00122746 0.00127507 0.00131328 0.00134211 0.00136023 0.0013663 0.00136034 0.00134233 0.00131205 0.00126926 0.00121397 0.00114616 0.00106655 0.000975864 0.000874089 0.000761229 0.000638771 0.000508199 0.000369514 0.000222717 7.00061e-05 -8.64168e-05 -0.000246552 -0.000410399 -0.000575108 -0.000737826 -0.000898554 -0.00105729 -0.00121085 -0.00135605 -0.00149289 -0.00162136 -0.00173862 -0.00184182 -0.00193097 -0.00200605 -0.0020654 -0.00210732 -0.00213183 -0.00213891 -0.00212863 -0.00210104 -0.00205614 -0.00199393 -0.00191619 -0.00182469 -0.00171943 -0.00160042 -0.00147055 -0.00133272 -0.00118693 -0.00103318 -0.000874654 -0.000714532 -0.000552816 -0.000389505 -0.000227397 -6.92929e-05 8.48085e-05 0.000234907 0.000378885 0.000514626 0.00064213 0.000761396 0.000871032 0.000969644 0.00105723 0.0011338 0.00119871 0.00125133 0.00129167 0.00131972 0.00133577 0.00134011 0.00133273 0.00131363 0.00128414 0.00124561 0.00119802 0.00114138 0.00107792 0.00100986 0.000937201 0.000859944 0.000780655 0.000701898 0.000623673 0.000545979 0.000470944 0.000400693 0.000335228 0.000274547 0.000219661 0.000171579 0.000130303 9.58313e-05 6.75928e-05 4.50159e-05 2.81004e-05 1.68464e-05 9.47612e-06 4.21161e-06 1.0529e-06 0 0 1.72727e-06 6.90906e-06 1.55454e-05 2.76362e-05 4.50002e-05 6.94557e-05 0.000101003 0.000139641 0.000185857 0.000240135 0.000302475 0.000372878 0.000449853 0.00053191 0.000619049 0.000711269 0.000805755 0.00089969 0.000993074 0.00108591 0.00117492 0.00125685 0.00133168 0.00139944 0.00145736 0.00150272 0.00153552 0.00155574 0.00156187 0.00155236 0.0015272 0.00148641 0.0014298 0.00135719 0.00126858 0.00116397 0.00104433 0.000910664 0.000762957 0.000601212 0.000427377 0.0002434 4.92819e-05 -0.000154978 -0.000366503 -0.000582416 -0.000802717 -0.00102741 -0.00125273 -0.00147495 -0.00169406 -0.00191005 -0.00211872 -0.00231586 -0.00250147 -0.00267554 -0.0028343 -0.00297398 -0.00309457 -0.00319608 -0.00327627 -0.0033329 -0.00336599 -0.00337553 -0.00336159 -0.00332424 -0.00326348 -0.00317932 -0.00307411 -0.0029502 -0.0028076 -0.0026463 -0.00247015 -0.00228299 -0.00208483 -0.00187565 -0.00165967 -0.0014411 -0.00121993 -0.000996177 -0.000773515 -0.000555632 -0.000342528 -0.000134203 6.65702e-05 0.000257017 0.000437139 0.000606934 0.000764573 0.000908224 0.00103789 0.00115356 0.00125437 0.00133944 0.00140876 0.00146234 0.00150042 0.00152326 0.00153085 0.0015232 0.00150185 0.00146835 0.0014227 0.00136491 0.00129767 0.00122368 0.00114293 0.00105543 0.00096435 0.000872887 0.000781037 0.000688798 0.000598894 0.000514044 0.000434249 0.00035951 0.000291242 0.000230864 0.000178375 0.000133775 9.65615e-05 6.62334e-05 4.27901e-05 2.62318e-05 1.47554e-05 6.55795e-06 1.63949e-06 0 0 2.51773e-06 1.00709e-05 2.26596e-05 4.02837e-05 6.45819e-05 9.7193e-05 0.000138117 0.000187354 0.000245195 0.000311931 0.000387563 0.000472091 0.000563497 0.000659764 0.000760893 0.000866883 0.000974247 0.0010795 0.00118264 0.00128366 0.00137867 0.00146375 0.00153891 0.00160414 0.00165628 0.00169215 0.00171176 0.0017151 0.00170049 0.00166626 0.0016124 0.00153891 0.00144573 0.00133279 0.00120011 0.00104766 0.000876769 0.000688721 0.000483521 0.000261169 2.412e-05 -0.000225168 -0.000486695 -0.000760462 -0.00104284 -0.00133022 -0.00162258 -0.00191993 -0.00221751 -0.00251055 -0.00279905 -0.00308301 -0.00335704 -0.00361575 -0.00385913 -0.00408719 -0.00429506 -0.0044779 -0.00463569 -0.00476844 -0.00487328 -0.00494731 -0.00499054 -0.00500296 -0.00498468 -0.00493578 -0.00485625 -0.0047461 -0.00460837 -0.00444608 -0.00425924 -0.00404785 -0.00381685 -0.00357118 -0.00331085 -0.00303585 -0.00275158 -0.00246343 -0.00217139 -0.00187548 -0.00158038 -0.00129077 -0.00100666 -0.00072805 -0.000458439 -0.000201328 4.32843e-05 0.000275397 0.000492695 0.000692865 0.000875905 0.00104182 0.00118943 0.00131756 0.00142623 0.00151542 0.00158529 0.00163599 0.00166753 0.00167989 0.00167478 0.00165392 0.0016173 0.00156492 0.00149991 0.00142539 0.00134137 0.00124785 0.00114864 0.00104754 0.000944559 0.000839695 0.000736322 0.000637813 0.000544171 0.000455393 0.000373405 0.000300132 0.000235573 0.000179729 0.00013228 9.29051e-05 6.16045e-05 3.83782e-05 2.15878e-05 9.59456e-06 2.39864e-06 0 0 3.5151e-06 1.40604e-05 3.16359e-05 5.62417e-05 8.90757e-05 0.000131336 0.000183023 0.000244135 0.000314613 0.000394394 0.000483478 0.000581865 0.000686886 0.000795872 0.000908823 0.00102574 0.00114241 0.00125464 0.00136241 0.00146574 0.0015601 0.00164098 0.00170838 0.0017623 0.00179923 0.00181565 0.00181156 0.00178697 0.00174015 0.0016694 0.0015747 0.00145607 0.00131364 0.00114756 0.000957835 0.000744457 0.000509101 0.000253435 -2.25396e-05 -0.000318823 -0.00063242 -0.000960336 -0.00130257 -0.00165913 -0.00202557 -0.0023975 -0.00277489 -0.00315775 -0.0035402 -0.00391635 -0.00428619 -0.00464972 -0.00500022 -0.00533094 -0.00564187 -0.00593303 -0.0061983 -0.00643156 -0.00663283 -0.0068021 -0.00693572 -0.00703008 -0.00708515 -0.00710095 -0.00707758 -0.00701515 -0.00691366 -0.00677312 -0.00659735 -0.00639016 -0.00615158 -0.00588158 -0.0055864 -0.00527224 -0.0049391 -0.00458699 -0.00422265 -0.00385282 -0.00347749 -0.00309668 -0.00271617 -0.00234178 -0.0019735 -0.00161134 -0.00125957 -0.000922478 -0.000600059 -0.000292313 -2.07043e-06 0.000267841 0.000517422 0.000746671 0.000954074 0.00113812 0.0012988 0.00143612 0.00155004 0.00164054 0.00170761 0.00175126 0.00177323 0.0017753 0.00175745 0.00171969 0.00166549 0.00159833 0.00151821 0.00142514 0.00132351 0.00121775 0.00110785 0.000993813 0.000879721 0.000769647 0.000663592 0.000561557 0.000466095 0.000379763 0.000302559 0.000234485 0.000175556 0.000125787 8.51798e-05 5.3733e-05 3.02248e-05 1.34332e-05 3.35831e-06 0 0 4.71939e-06 1.88776e-05 4.24745e-05 7.55103e-05 0.000118481 0.000171884 0.000235719 0.000309986 0.000394112 0.000487522 0.000590218 0.0007022 0.00082002 0.000940233 0.00106284 0.00118784 0.00131025 0.00142511 0.0015324 0.00163214 0.00171921 0.00178854 0.00184011 0.00187392 0.00188622 0.00187322 0.00183493 0.00177136 0.00168085 0.00156177 0.00141412 0.00123789 0.00103354 0.000801498 0.000541767 0.000254347 -5.86703e-05 -0.000395195 -0.000755226 -0.00113876 -0.00154224 -0.00196211 -0.00239835 -0.00285097 -0.00331469 -0.00378425 -0.00425965 -0.00474087 -0.00522081 -0.00569234 -0.00615547 -0.00661019 -0.00704825 -0.00746142 -0.00784969 -0.00821307 -0.00854401 -0.00883498 -0.00908599 -0.00929704 -0.00946361 -0.00958121 -0.00964983 -0.00966947 -0.00964027 -0.00956236 -0.00943573 -0.00926038 -0.00904104 -0.00878245 -0.0084846 -0.00814749 -0.00777879 -0.00738615 -0.00696957 -0.00652907 -0.00607288 -0.00560926 -0.00513822 -0.00465976 -0.0041809 -0.00370866 -0.00324305 -0.00278407 -0.00233683 -0.00190643 -0.00149289 -0.0010962 -0.000719725 -0.000366847 -3.75631e-05 0.000268126 0.000548314 0.000801091 0.00102646 0.00122442 0.00139466 0.00153689 0.00165111 0.00173731 0.0017972 0.00183248 0.00184316 0.00182922 0.00179443 0.0017425 0.00167345 0.00158727 0.00148896 0.00138351 0.0012709 0.00115115 0.00102909 0.000909545 0.000792515 0.000678002 0.000569313 0.000469757 0.000379333 0.000298042 0.000226389 0.00016488 0.000113516 7.2296e-05 4.06665e-05 1.8074e-05 4.5185e-06 0 0 6.13059e-06 2.45224e-05 5.51753e-05 9.80895e-05 0.000152799 0.000218838 0.000296207 0.000384906 0.000483691 0.000591317 0.000707785 0.000833095 0.000962899 0.00109285 0.00122294 0.00135318 0.00147777 0.00159091 0.00169261 0.00178286 0.00185601 0.00190642 0.00193408 0.001939 0.00191724 0.00186486 0.00178187 0.00166826 0.00152258 0.00134337 0.00113064 0.000884383 0.000605428 0.000294601 -4.80973e-05 -0.000422666 -0.000826544 -0.00125717 -0.00171454 -0.00219865 -0.00270535 -0.00323047 -0.00377402 -0.00433599 -0.0049102 -0.00549049 -0.00607686 -0.00666929 -0.00725934 -0.00783854 -0.00840689 -0.0089644 -0.00950114 -0.0100072 -0.0104826 -0.0109273 -0.0113322 -0.0116882 -0.0119952 -0.0122533 -0.0124569 -0.0126007 -0.0126846 -0.0127085 -0.0126728 -0.0125774 -0.0124224 -0.0122079 -0.0119395 -0.0116229 -0.0112583 -0.0108456 -0.010394 -0.00991292 -0.00940227 -0.00886207 -0.00830226 -0.00773277 -0.00715359 -0.00656474 -0.00597456 -0.00539142 -0.00481531 -0.00424624 -0.00369021 -0.0031532 -0.00263521 -0.00213625 -0.00166027 -0.0012112 -0.00078905 -0.000393818 -2.7855e-05 0.000306489 0.000609215 0.000880322 0.00111915 0.00132505 0.00149801 0.00163804 0.00174668 0.00182547 0.00187442 0.00189353 0.00188671 0.0018579 0.00180708 0.00173427 0.001645 0.00154482 0.00143372 0.00131172 0.00118443 0.00105751 0.000930938 0.000804728 0.000683059 0.000570114 0.000465895 0.0003704 0.000284779 0.000210184 0.000146613 9.40673e-05 5.29129e-05 2.35168e-05 5.87921e-06 0 0 7.73502e-06 3.09401e-05 6.96152e-05 0.00012376 0.000191657 0.000271586 0.000363547 0.000467541 0.00058147 0.000703237 0.000832841 0.000970283 0.00111019 0.0012472 0.0013813 0.0015125 0.00163417 0.00173969 0.00182905 0.00190227 0.00195323 0.00197583 0.00197007 0.00193595 0.00186954 0.00176691 0.00162804 0.00145295 0.00124053 0.000989677 0.000700399 0.000372691 7.87519e-06 -0.00039273 -0.000829124 -0.00130131 -0.00180623 -0.00234084 -0.00290514 -0.00349913 -0.00411809 -0.00475732 -0.00541682 -0.00609658 -0.00678957 -0.00748876 -0.00819415 -0.00890574 -0.0096137 -0.0103082 -0.0109893 -0.0116569 -0.0122994 -0.0129051 -0.0134739 -0.014006 -0.0144903 -0.0149161 -0.0152834 -0.0155921 -0.0158357 -0.0160076 -0.0161079 -0.0161365 -0.0160937 -0.0159795 -0.015794 -0.0155373 -0.015216 -0.0148372 -0.0144008 -0.0139068 -0.0133662 -0.0127901 -0.0121785 -0.0115314 -0.0108605 -0.0101774 -0.00948231 -0.0087751 -0.00806551 -0.00736327 -0.00666836 -0.00598079 -0.00530741 -0.00465504 -0.00402368 -0.00341334 -0.0028285 -0.00227362 -0.00174871 -0.00125377 -0.000791606 -0.000365027 2.59659e-05 0.000381372 0.000700075 0.000980956 0.00122402 0.00142925 0.00159789 0.00173116 0.00182904 0.00189155 0.00192263 0.00192621 0.00190231 0.00185092 0.00177804 0.00168968 0.00158584 0.00146652 0.00133816 0.00120723 0.00107371 0.000937614 0.000804114 0.000678389 0.000560437 0.00045026 0.000349828 0.000261114 0.000184118 0.00011884 6.68473e-05 2.97099e-05 7.42748e-06 0 0 9.519e-06 3.8076e-05 8.5671e-05 0.000152304 0.000234682 0.000329514 0.000436799 0.000556537 0.00068557 0.000820741 0.00096205 0.0011095 0.00125657 0.00139677 0.00153008 0.00165651 0.00176865 0.00185906 0.00192776 0.00197474 0.0019936 0.00197797 0.00192784 0.0018432 0.00172039 0.0015557 0.00134914 0.0011007 0.000809879 0.000476149 9.95119e-05 -0.000320031 -0.000780545 -0.00128009 -0.00181868 -0.0023963 -0.00300943 -0.00365456 -0.0043317 -0.00504083 -0.00577682 -0.00653454 -0.00731397 -0.00811513 -0.00893025 -0.0097516 -0.0105792 -0.0114129 -0.0122418 -0.0130547 -0.0138515 -0.0146323 -0.0153836 -0.0160919 -0.0167571 -0.0173793 -0.0179458 -0.0184439 -0.0188735 -0.0192347 -0.0195198 -0.019721 -0.0198383 -0.0198718 -0.0198216 -0.0196879 -0.0194708 -0.0191702 -0.0187942 -0.0183508 -0.0178401 -0.017262 -0.0166295 -0.0159553 -0.0152396 -0.0144824 -0.0136971 -0.0128973 -0.0120831 -0.0112543 -0.0104221 -0.00959743 -0.00878028 -0.00797066 -0.00717613 -0.00640423 -0.00565497 -0.00492834 -0.00422923 -0.00356252 -0.00292823 -0.00232634 -0.00176011 -0.0012328 -0.000744392 -0.0002949 0.00011398 0.000480548 0.000804805 0.00108675 0.00132706 0.00152641 0.00168481 0.00180224 0.00188244 0.00192914 0.00194233 0.00192202 0.0018745 0.00180609 0.00171677 0.00160656 0.00148269 0.0013524 0.00121568 0.00107254 0.000929263 0.000792134 0.000661155 0.000536324 0.000420637 0.000317088 0.000225678 0.000146406 8.23532e-05 3.66014e-05 9.15035e-06 0 0 1.14825e-05 4.59301e-05 0.000103343 0.00018372 0.000281876 0.000392624 0.000515963 0.000651893 0.00079599 0.000943829 0.00109541 0.00125073 0.00140203 0.00154155 0.00166929 0.00178523 0.00188122 0.00194905 0.00198873 0.00200026 0.00197713 0.00191283 0.00180738 0.00166075 0.00146977 0.00123124 0.000945155 0.000611521 0.000230633 -0.000197214 -0.00067202 -0.00119379 -0.00175983 -0.00236749 -0.00301676 -0.00370763 -0.00443615 -0.00519834 -0.00599421 -0.00682376 -0.00768154 -0.00856211 -0.00946548 -0.0103916 -0.0113323 -0.012279 -0.0132319 -0.0141909 -0.0151437 -0.0160779 -0.0169935 -0.0178906 -0.0187537 -0.0195676 -0.0203321 -0.0210474 -0.0216987 -0.0222714 -0.0227656 -0.0231812 -0.0235092 -0.0237408 -0.0238758 -0.0239143 -0.0238565 -0.0237027 -0.0234528 -0.0231067 -0.022674 -0.0221638 -0.0215763 -0.0209113 -0.0201837 -0.0194085 -0.0185856 -0.0177151 -0.0168122 -0.0158925 -0.0149559 -0.0140025 -0.0130444 -0.0120939 -0.0111511 -0.0102158 -0.00929637 -0.00840078 -0.00752906 -0.00668122 -0.00586244 -0.0050779 -0.00432759 -0.00361152 -0.00293337 -0.00229682 -0.00170186 -0.0011485 -0.000639133 -0.000176175 0.00024038 0.00061053 0.000934184 0.00121125 0.00144172 0.0016256 0.00176616 0.00186668 0.00192714 0.00194757 0.00193438 0.00189404 0.00182653 0.00173186 0.00161802 0.00149302 0.00135685 0.00120951 0.0010585 0.000911351 0.000768047 0.000628592 0.000497205 0.000378105 0.000271292 0.000176765 9.94305e-05 4.41913e-05 1.10478e-05 0 0 1.36256e-05 5.45024e-05 0.00012263 0.00021801 0.000333238 0.000460914 0.000601038 0.00075361 0.000912731 0.0010725 0.00123292 0.00139399 0.00154658 0.00168156 0.00179891 0.00189866 0.00197187 0.00200964 0.00201196 0.00197883 0.00190381 0.00178043 0.00160869 0.0013886 0.00111769 0.000793524 0.000416096 -1.4595e-05 -0.00049721 -0.00103041 -0.0016142 -0.00224857 -0.00292999 -0.00365492 -0.00442337 -0.00523532 -0.00608639 -0.00697218 -0.00789268 -0.00884791 -0.00983224 -0.01084 -0.0118713 -0.0129261 -0.0139956 -0.015071 -0.0161523 -0.0172396 -0.0183193 -0.0193779 -0.0204154 -0.0214318 -0.0224098 -0.0233322 -0.024199 -0.0250101 -0.025749 -0.0263988 -0.0269597 -0.0274315 -0.0278041 -0.028067 -0.0282203 -0.0282641 -0.0281985 -0.0280237 -0.0277398 -0.0273468 -0.0268554 -0.0262762 -0.0256092 -0.0248546 -0.0240291 -0.0231497 -0.0222165 -0.0212295 -0.0202058 -0.0191629 -0.0181008 -0.0170195 -0.0159323 -0.0148527 -0.0137807 -0.0127163 -0.0116681 -0.0106447 -0.00964597 -0.00867201 -0.00772816 -0.00681975 -0.00594681 -0.00510933 -0.00431139 -0.00355709 -0.00284643 -0.00217941 -0.00155926 -0.000989212 -0.000469261 5.91522e-07 0.000419258 0.000785653 0.00109977 0.00136162 0.00157378 0.00173882 0.00185675 0.00192757 0.00195769 0.00195354 0.00191511 0.00184241 0.00174416 0.00162909 0.00149721 0.00134851 0.00119184 0.00103604 0.000881114 0.000727064 0.000579533 0.000444165 0.00032096 0.000209919 0.000118079 5.24797e-05 1.31199e-05 0 0 1.58944e-05 6.35776e-05 0.00014305 0.00025431 0.000387435 0.000532499 0.000689503 0.000858446 0.00103176 0.00120186 0.00136876 0.00153245 0.00168236 0.00180791 0.00190911 0.00198594 0.00202888 0.00202839 0.00198448 0.00189713 0.00176023 0.00156764 0.00131937 0.00101542 0.000654415 0.00023501 -0.000242801 -0.000779015 -0.00137096 -0.00201595 -0.00271398 -0.00346507 -0.00426468 -0.00510829 -0.00599591 -0.00692753 -0.00789842 -0.00890387 -0.00994387 -0.0110184 -0.012122 -0.0132491 -0.0143997 -0.0155738 -0.0167625 -0.017957 -0.0191572 -0.0203631 -0.0215603 -0.0227343 -0.0238852 -0.0250129 -0.0260984 -0.0271227 -0.0280857 -0.0289875 -0.0298092 -0.0305322 -0.0311565 -0.031682 -0.0320971 -0.03239 -0.0325609 -0.0326097 -0.0325366 -0.032342 -0.0320257 -0.0315878 -0.0310404 -0.0303956 -0.0296533 -0.0288137 -0.0278956 -0.0269182 -0.0258813 -0.024785 -0.0236485 -0.0224908 -0.0213119 -0.0201119 -0.018905 -0.0177057 -0.016514 -0.0153298 -0.0141618 -0.0130188 -0.0119008 -0.0108077 -0.00974479 -0.00871741 -0.00772551 -0.00676909 -0.00585258 -0.00498037 -0.00415248 -0.00336889 -0.00263378 -0.00195135 -0.00132159 -0.00074449 -0.000222436 0.000242203 0.000649428 0.000999238 0.00129318 0.00153279 0.00171807 0.00184903 0.00193179 0.00197249 0.00197112 0.00192768 0.00185153 0.00175203 0.00162917 0.00148295 0.00132363 0.00116146 0.000996459 0.000828611 0.000665187 0.000513449 0.000373399 0.000245037 0.000137833 6.12593e-05 1.53148e-05 0 0 1.82351e-05 7.29404e-05 0.000164116 0.000291762 0.000443134 0.000605491 0.000778832 0.000963157 0.00114903 0.001327 0.00149709 0.00165928 0.00180152 0.00191176 0.00199 0.00203625 0.00204053 0.00199289 0.00189332 0.00174182 0.00153298 0.00126138 0.000927019 0.000529898 7.02099e-05 -0.000451854 -0.00103629 -0.00168311 -0.00238791 -0.00314633 -0.00395834 -0.00482397 -0.00573757 -0.00669351 -0.0076918 -0.00873243 -0.00981053 -0.0109212 -0.0120645 -0.0132405 -0.014444 -0.0156701 -0.0169188 -0.0181901 -0.0194755 -0.0207665 -0.0220631 -0.0233652 -0.0246581 -0.0259267 -0.027171 -0.0283911 -0.0295663 -0.0306761 -0.0317204 -0.0326993 -0.033592 -0.0343779 -0.0350568 -0.0356289 -0.036081 -0.0364002 -0.0365864 -0.0366397 -0.0365602 -0.0363483 -0.0360038 -0.035527 -0.0349311 -0.0342297 -0.0334228 -0.0325104 -0.0315135 -0.030453 -0.0293289 -0.0281414 -0.0269109 -0.0256583 -0.0243834 -0.0230863 -0.0217819 -0.020485 -0.0191956 -0.0179138 -0.0166478 -0.0154061 -0.0141885 -0.0129952 -0.0118308 -0.0107002 -0.00960331 -0.00854018 -0.00751537 -0.00653343 -0.00559435 -0.00469815 -0.00385007 -0.00305537 -0.00231406 -0.00162614 -0.000995623 -0.000426533 8.11298e-05 0.000527365 0.000912231 0.00123579 0.00149804 0.00169897 0.00184407 0.0019388 0.00198317 0.00197716 0.00193059 0.00185323 0.00174511 0.00160621 0.00144823 0.00128289 0.00111018 0.000930106 0.000751734 0.00058414 0.000427326 0.000281291 0.000158226 7.03228e-05 1.75807e-05 0 0 2.06477e-05 8.25908e-05 0.000185829 0.000330363 0.000500336 0.00067989 0.000869026 0.00106774 0.00126455 0.00144793 0.00161791 0.00177447 0.00190405 0.0019931 0.00204161 0.00204958 0.00200681 0.00190311 0.00173847 0.00151289 0.00122205 0.000861631 0.000431627 -6.79601e-05 -0.000634926 -0.00126707 -0.00196438 -0.00272687 -0.00354808 -0.00442155 -0.00534728 -0.00632526 -0.00734865 -0.00841057 -0.00951103 -0.01065 -0.0118227 -0.0130243 -0.0142547 -0.015514 -0.0167981 -0.018103 -0.0194285 -0.0207749 -0.0221344 -0.0234994 -0.02487 -0.0262462 -0.0276129 -0.0289551 -0.030273 -0.0315664 -0.0328135 -0.0339924 -0.0351031 -0.0361456 -0.0370974 -0.0379357 -0.0386607 -0.0392722 -0.039756 -0.0400975 -0.0402968 -0.040354 -0.0402691 -0.0400426 -0.0396743 -0.0391644 -0.0385275 -0.0377787 -0.0369177 -0.0359448 -0.0348826 -0.0337542 -0.0325595 -0.0312984 -0.0299931 -0.0286653 -0.0273152 -0.0259427 -0.0245628 -0.0231905 -0.0218257 -0.0204684 -0.0191262 -0.0178064 -0.0165092 -0.0152345 -0.0139862 -0.0127681 -0.0115802 -0.0104226 -0.00929976 -0.00821625 -0.00717207 -0.0061672 -0.00520812 -0.00430128 -0.0034467 -0.00264436 -0.0019003 -0.00122055 -0.00060512 -5.39964e-05 0.000430941 0.000847819 0.00119664 0.00147739 0.00169453 0.00185248 0.00195126 0.00199085 0.00198131 0.00193271 0.00184504 0.00171829 0.00156566 0.00140033 0.00122229 0.00103155 0.000839174 0.000656238 0.00048274 0.000318681 0.000179258 7.96702e-05 1.99176e-05 0 0 2.31322e-05 9.25289e-05 0.00020819 0.000370116 0.00055904 0.000755696 0.000960085 0.00117221 0.00137831 0.00156465 0.00173122 0.00187802 0.00198996 0.00205192 0.00206391 0.00202593 0.00192773 0.00175907 0.00151994 0.00121035 0.000827451 0.0003684 -0.000166803 -0.000778158 -0.00146099 -0.00221063 -0.00302707 -0.00391031 -0.00485146 -0.00584162 -0.00688078 -0.00796896 -0.00909793 -0.0102595 -0.0114536 -0.0126803 -0.013935 -0.015213 -0.0165144 -0.0178391 -0.0191844 -0.0205477 -0.021929 -0.0233282 -0.0247392 -0.0261558 -0.027578 -0.0290058 -0.0304245 -0.0318196 -0.033191 -0.0345387 -0.0358399 -0.0370716 -0.0382337 -0.0393264 -0.0403252 -0.0412058 -0.041968 -0.042612 -0.0431219 -0.0434819 -0.0436922 -0.0437526 -0.0436635 -0.043425 -0.0430372 -0.0425 -0.0418297 -0.0410423 -0.040138 -0.0391167 -0.0380031 -0.0368218 -0.0355729 -0.0342563 -0.032895 -0.031512 -0.0301074 -0.0286811 -0.0272478 -0.0258222 -0.0244041 -0.0229936 -0.0215968 -0.0202199 -0.0188629 -0.0175257 -0.0162109 -0.0149211 -0.0136562 -0.0124163 -0.0112058 -0.0100288 -0.00888561 -0.00777604 -0.00670793 -0.00568907 -0.00471948 -0.00379914 -0.00293647 -0.00213986 -0.00140932 -0.000744846 -0.000150693 0.00036888 0.000813874 0.00118429 0.00148316 0.00171353 0.00187539 0.00196874 0.00200372 0.00199045 0.00192895 0.0018192 0.0016759 0.00151376 0.00133277 0.00113294