<?xml version="1.0"?> 
<VTKFile type="StructuredGrid" version="0.1"> 
<StructuredGrid WholeExtent="0 128 0 128 0 0"> 
<Piece Extent="0 128 0 128 0 0"> 
<PointData>
<DataArray type="Float32" Name="u" format="ascii" NumberOfComponents="1"> 
0 0 0 0 0 0 0 0 0 0 0 0 0 0 0 0 0 0 0 0 0 0 0 0 0 0 0 0 0 0 0 0 0 0 0 0 0 0 0 0 0 0 0 0 0 0 0 0 0 0 0 0 0 0 0 0 0 0 0 0 0 0 0 0 0 0 0 0 0 0 0 0 0 0 0 0 0 0 0 0 0 0 0 0 0 0 0 0 0 0 0 0 0 0 0 0 0 0 0 0 0 0 0 0 0 0 0 0 0 0 0 0 0 0 0 0 0 0 0 0 0 0 0 0 0 0 0 0 0 0 2.40816e-07 9.63263e-07 2.16734e-06 3.85305e-06 5.75356e-06 7.60202e-06 9.39843e-06 1.11428e-05 1.26839e-05 1.38705e-05 1.47025e-05 1.51801e-05 1.51907e-05 1.46221e-05 1.34743e-05 1.17472e-05 9.39178e-06 6.35894e-06 2.64868e-06 -1.73899e-06 -6.80508e-06 -1.25506e-05 -1.89755e-05 -2.60799e-05 -3.38266e-05 -4.21787e-05 -5.11362e-05 -6.0699e-05 -7.08015e-05 -8.13779e-05 -9.24283e-05 -0.000103953 -0.000115865 -0.000128081 -0.0001406 -0.000153421 -0.000166448 -0.000179581 -0.000192821 -0.000206167 -0.000219515 -0.000232759 -0.000245899 -0.000258934 -0.000271758 -0.000284261 -0.000296445 -0.000308308 -0.000319748 -0.000330658 -0.00034104 -0.000350893 -0.000360126 -0.000368646 -0.000376455 -0.000383551 -0.000389866 -0.000395332 -0.000399949 -0.000403716 -0.000406598 -0.00040856 -0.000409602 -0.000409724 -0.000408928 -0.00040722 -0.000404599 -0.000401065 -0.000396661 -0.000391429 -0.000385368 -0.00037848 -0.000370838 -0.000362518 -0.00035352 -0.000343843 -0.000333585 -0.000322842 -0.000311613 -0.0002999 -0.000287808 -0.000275446 -0.000262813 -0.000249909 -0.000236842 -0.000223721 -0.000210545 -0.000197314 -0.00018413 -0.000171097 -0.000158214 -0.000145481 -0.00013299 -0.000120832 -0.000109009 -9.75191e-05 -8.64398e-05 -7.58479e-05 -6.57432e-05 -5.61259e-05 -4.70516e-05 -3.85761e-05 -3.06994e-05 -2.34216e-05 -1.67703e-05 -1.07734e-05 -5.43091e-06 -7.42776e-07 3.29841e-06 6.70009e-06 9.46227e-06 1.15849e-05 1.31189e-05 1.41148e-05 1.45728e-05 1.44927e-05 1.39821e-05 1.31484e-05 1.19916e-05 1.05116e-05 8.84935e-06 7.14571e-06 5.40068e-06 3.61425e-06 2.03302e-06 9.03562e-07 2.25891e-07 0 0 9.63263e-07 3.85305e-06 8.66937e-06 1.54122e-05 2.30142e-05 3.04081e-05 3.75937e-05 4.45712e-05 5.07356e-05 5.54818e-05 5.88101e-05 6.07202e-05 6.07629e-05 5.84885e-05 5.38971e-05 4.69888e-05 3.75671e-05 2.54358e-05 1.05947e-05 -6.95596e-06 -2.72203e-05 -5.02024e-05 -7.59021e-05 -0.000104319 -0.000135306 -0.000168715 -0.000204545 -0.000242796 -0.000283206 -0.000325512 -0.000369713 -0.000415811 -0.000463462 -0.000512324 -0.000562399 -0.000613685 -0.000665791 -0.000718323 -0.000771283 -0.000824669 -0.000878061 -0.000931036 -0.000983595 -0.00103574 -0.00108703 -0.00113705 -0.00118578 -0.00123323 -0.00127899 -0.00132263 -0.00136416 -0.00140357 -0.0014405 -0.00147459 -0.00150582 -0.0015342 -0.00155946 -0.00158133 -0.00159979 -0.00161486 -0.00162639 -0.00163424 -0.00163841 -0.00163889 -0.00163571 -0.00162888 -0.0016184 -0.00160426 -0.00158664 -0.00156571 -0.00154147 -0.00151392 -0.00148335 -0.00145007 -0.00141408 -0.00137537 -0.00133434 -0.00129137 -0.00124645 -0.0011996 -0.00115123 -0.00110178 -0.00105125 -0.000999636 -0.000947369 -0.000894883 -0.000842178 -0.000789255 -0.000736522 -0.000684389 -0.000632857 -0.000581924 -0.00053196 -0.00048333 -0.000436036 -0.000390076 -0.000345759 -0.000303392 -0.000262973 -0.000224504 -0.000188206 -0.000154304 -0.000122798 -9.36862e-05 -6.70812e-05 -4.30937e-05 -2.17236e-05 -2.9711e-06 1.31937e-05 2.68004e-05 3.78491e-05 4.63397e-05 5.24754e-05 5.64592e-05 5.8291e-05 5.79709e-05 5.59286e-05 5.25937e-05 4.79663e-05 4.20464e-05 3.53974e-05 2.85828e-05 2.16027e-05 1.4457e-05 8.13206e-06 3.61425e-06 9.03562e-07 0 0 2.16734e-06 8.66937e-06 1.95061e-05 3.46775e-05 5.1782e-05 6.84182e-05 8.45859e-05 0.000100285 0.000114155 0.000124834 0.000132323 0.000136621 0.000136716 0.000131599 0.000121269 0.000105725 8.4526e-05 5.72305e-05 2.38382e-05 -1.56509e-05 -6.12457e-05 -0.000112955 -0.00017078 -0.000234719 -0.000304439 -0.000379608 -0.000460225 -0.000546291 -0.000637213 -0.000732401 -0.000831855 -0.000935574 -0.00104279 -0.00115273 -0.0012654 -0.00138079 -0.00149803 -0.00161623 -0.00173539 -0.00185551 -0.00197564 -0.00209483 -0.00221309 -0.00233041 -0.00244582 -0.00255835 -0.002668 -0.00277478 -0.00287773 -0.00297592 -0.00306936 -0.00315804 -0.00324113 -0.00331782 -0.00338809 -0.00345196 -0.0035088 -0.00355799 -0.00359954 -0.00363344 -0.00365938 -0.00367704 -0.00368642 -0.00368751 -0.00368036 -0.00366498 -0.00364139 -0.00360959 -0.00356995 -0.00352286 -0.00346831 -0.00340632 -0.00333754 -0.00326266 -0.00318168 -0.00309459 -0.00300226 -0.00290557 -0.00280452 -0.0026991 -0.00259027 -0.00247901 -0.00236532 -0.00224918 -0.00213158 -0.00201349 -0.0018949 -0.00177582 -0.00165717 -0.00153988 -0.00142393 -0.00130933 -0.00119691 -0.00108749 -0.00098108 -0.000877672 -0.000777959 -0.000682631 -0.000591689 -0.000505133 -0.000423464 -0.000347185 -0.000276295 -0.000210794 -0.000150933 -9.69607e-05 -4.88782e-05 -6.68498e-06 2.96857e-05 6.03008e-05 8.51604e-05 0.000104264 0.00011807 0.000127033 0.000131155 0.000130435 0.000125839 0.000118336 0.000107924 9.46044e-05 7.96442e-05 6.43114e-05 4.86061e-05 3.25282e-05 1.82971e-05 8.13206e-06 2.03302e-06 0 0 3.85305e-06 1.54122e-05 3.46775e-05 6.16489e-05 9.20569e-05 0.000121632 0.000150375 0.000178285 0.000202942 0.000221927 0.00023524 0.000242881 0.000243051 0.000233954 0.000215589 0.000187955 0.000150268 0.000101743 4.23789e-05 -2.78239e-05 -0.000108881 -0.000200809 -0.000303608 -0.000417278 -0.000541225 -0.000674859 -0.000818178 -0.000971184 -0.00113282 -0.00130205 -0.00147885 -0.00166324 -0.00185385 -0.0020493 -0.0022496 -0.00245474 -0.00266316 -0.00287329 -0.00308513 -0.00329868 -0.00351224 -0.00372414 -0.00393438 -0.00414295 -0.00434813 -0.00454818 -0.00474312 -0.00493293 -0.00511596 -0.00529053 -0.00545664 -0.00561429 -0.00576201 -0.00589834 -0.00602328 -0.00613681 -0.00623786 -0.00632531 -0.00639918 -0.00645945 -0.00650557 -0.00653696 -0.00655363 -0.00655558 -0.00654286 -0.00651553 -0.00647359 -0.00641705 -0.00634658 -0.00626286 -0.00616589 -0.00605568 -0.00593341 -0.00580029 -0.00565632 -0.00550149 -0.00533736 -0.00516547 -0.00498581 -0.0047984 -0.00460493 -0.00440714 -0.00420501 -0.00399854 -0.00378947 -0.00357953 -0.00336871 -0.00315702 -0.00294609 -0.00273756 -0.00253143 -0.0023277 -0.00212784 -0.00193332 -0.00174414 -0.00156031 -0.00138304 -0.00121357 -0.00105189 -0.000898014 -0.000752825 -0.000617217 -0.000491191 -0.000374745 -0.000268325 -0.000172375 -8.68945e-05 -1.18844e-05 5.27746e-05 0.000107202 0.000151396 0.000185359 0.000209902 0.000225837 0.000233164 0.000231884 0.000223714 0.000210375 0.000191865 0.000168186 0.00014159 0.000114331 8.64108e-05 5.7828e-05 3.25282e-05 1.4457e-05 3.61425e-06 0 0 5.74148e-06 2.29659e-05 5.16733e-05 9.18636e-05 0.000137093 0.000180917 0.000223336 0.000264351 0.000300309 0.000327561 0.000346106 0.000355945 0.000354377 0.000338703 0.000308922 0.000265034 0.000205873 0.000130274 3.82352e-05 -7.02425e-05 -0.000195154 -0.000336495 -0.000494265 -0.000668464 -0.000858164 -0.00106243 -0.00128127 -0.00151469 -0.00176105 -0.00201874 -0.00228777 -0.00256812 -0.00285772 -0.00315447 -0.00345838 -0.00376944 -0.00408527 -0.00440351 -0.00472415 -0.00504718 -0.00537008 -0.00569031 -0.00600786 -0.00632274 -0.00663236 -0.00693414 -0.00722807 -0.00751416 -0.00778993 -0.00805287 -0.008303 -0.00854031 -0.00876261 -0.00896773 -0.00915566 -0.0093264 -0.00947833 -0.00960981 -0.00972083 -0.00981141 -0.0098807 -0.00992785 -0.00995287 -0.00995575 -0.00993659 -0.00989546 -0.00983238 -0.00974734 -0.00964134 -0.00951541 -0.00936954 -0.00920372 -0.00901975 -0.0088194 -0.00860267 -0.00836957 -0.00812239 -0.00786343 -0.0075927 -0.0073102 -0.00701848 -0.00672011 -0.00641507 -0.00610338 -0.00578762 -0.00547038 -0.00515167 -0.00483147 -0.00451226 -0.00419651 -0.00388421 -0.00357536 -0.0032722 -0.00297695 -0.00268962 -0.00241019 -0.00214056 -0.00188259 -0.0016363 -0.00140167 -0.00118009 -0.000972929 -0.000780199 -0.000601895 -0.00043872 -0.00029138 -0.000159873 -4.42006e-05 5.57909e-05 0.000140254 0.00020919 0.000262598 0.000301687 0.000327666 0.000340537 0.000340298 0.000329534 0.000310827 0.000284177 0.000249585 0.000210453 0.000170183 0.000128775 8.62291e-05 4.85039e-05 2.15573e-05 5.38932e-06 0 0 7.55369e-06 3.02148e-05 6.79832e-05 0.000120859 0.000180144 0.00023714 0.000291846 0.000344264 0.000389468 0.000422535 0.000443464 0.000452256 0.000445303 0.000418995 0.000373332 0.000308315 0.000222419 0.000114123 -1.65752e-05 -0.000169675 -0.000345092 -0.000542743 -0.000762628 -0.00100475 -0.00126775 -0.0015503 -0.00185238 -0.00217401 -0.0025129 -0.00286678 -0.00323565 -0.00361952 -0.00401549 -0.00442069 -0.00483512 -0.00525878 -0.00568844 -0.00612086 -0.00655606 -0.00699402 -0.00743136 -0.00786466 -0.00829392 -0.00871916 -0.00913693 -0.00954382 -0.00993981 -0.0103249 -0.0106959 -0.0110494 -0.0113854 -0.0117041 -0.0120024 -0.0122775 -0.0125295 -0.0127584 -0.0129619 -0.013138 -0.0132866 -0.0134078 -0.0135005 -0.0135635 -0.0135969 -0.0136007 -0.0135749 -0.0135197 -0.0134352 -0.0133212 -0.0131791 -0.0130102 -0.0128146 -0.0125922 -0.0123454 -0.0120764 -0.0117854 -0.0114723 -0.0111401 -0.0107919 -0.0104276 -0.0100472 -0.00965421 -0.00925189 -0.00884027 -0.00841936 -0.00799259 -0.00756341 -0.00713181 -0.0066978 -0.0062647 -0.0058358 -0.00541113 -0.00499066 -0.00457745 -0.00417453 -0.0037819 -0.00339955 -0.00303009 -0.00267611 -0.00233762 -0.00201462 -0.00170904 -0.00142285 -0.00115603 -0.000908598 -0.000681581 -0.00047602 -0.000291915 -0.000129265 1.20651e-05 0.000132212 0.000231175 0.000308955 0.00036714 0.000407319 0.000429492 0.000433658 0.000423277 0.000401807 0.000369247 0.000325597 0.000275452 0.000223405 0.000169456 0.000113604 6.39025e-05 2.84011e-05 7.10028e-06 0 0 9.2897e-06 3.71588e-05 8.36073e-05 0.000148635 0.00022121 0.0002903 0.000355904 0.000418024 0.000470418 0.000506848 0.000527314 0.000531815 0.000515828 0.00047483 0.00040882 0.000317798 0.000199907 5.32903e-05 -0.000122052 -0.00032612 -0.000558694 -0.000819552 -0.0011087 -0.00142613 -0.00176999 -0.00213845 -0.00253151 -0.00294916 -0.00338838 -0.00384617 -0.00432252 -0.00481743 -0.00532716 -0.00584796 -0.00637983 -0.00692277 -0.00747266 -0.00802536 -0.00858087 -0.0091392 -0.00969607 -0.0102472 -0.0107926 -0.0113322 -0.0118618 -0.0123772 -0.0128783 -0.0133652 -0.0138338 -0.01428 -0.014704 -0.0151056 -0.0154813 -0.0158278 -0.0161449 -0.0164327 -0.0166885 -0.0169098 -0.0170965 -0.0172487 -0.017365 -0.017444 -0.0174858 -0.0174904 -0.0174579 -0.0173884 -0.0172819 -0.0171385 -0.0169597 -0.0167473 -0.016501 -0.0162211 -0.0159103 -0.0155714 -0.0152046 -0.0148097 -0.0143905 -0.0139508 -0.0134904 -0.0130095 -0.0125121 -0.0120025 -0.0114806 -0.0109465 -0.0104044 -0.0098586 -0.00930915 -0.00875602 -0.00820339 -0.00765544 -0.00711218 -0.0065736 -0.00604359 -0.00552606 -0.00502098 -0.00452838 -0.00405162 -0.00359412 -0.00315587 -0.00273686 -0.00233969 -0.00196697 -0.00161869 -0.00129486 -0.000996908 -0.000726296 -0.000483019 -0.000267077 -7.84027e-05 8.30735e-05 0.000217351 0.000324431 0.000406262 0.000464794 0.000500029 0.000511964 0.000504945 0.000483315 0.000447074 0.000396222 0.000336588 0.000273998 0.000208453 0.000139954 7.87241e-05 3.49885e-05 8.74712e-06 0 0 1.09495e-05 4.3798e-05 9.85455e-05 0.000175192 0.000260291 0.000340398 0.000415511 0.000485631 0.00054316 0.000580501 0.000597655 0.000594621 0.000565954 0.000506208 0.000415385 0.000293483 0.000138335 -5.22239e-05 -0.000278195 -0.000539579 -0.00083596 -0.00116692 -0.00153247 -0.0019326 -0.00236489 -0.0028269 -0.00331865 -0.00384012 -0.00438749 -0.0049569 -0.00554835 -0.00616186 -0.00679272 -0.00743627 -0.0080925 -0.00876141 -0.00943793 -0.010117 -0.0107986 -0.0114827 -0.0121642 -0.0128379 -0.0135038 -0.0141619 -0.0148071 -0.0154343 -0.0160437 -0.016635 -0.0172037 -0.0177448 -0.0182586 -0.0187448 -0.0191995 -0.0196185 -0.0200018 -0.0203494 -0.0206582 -0.0209253 -0.0211506 -0.021334 -0.0214741 -0.0215693 -0.0216196 -0.0216249 -0.0215854 -0.0215014 -0.0213727 -0.0211994 -0.0209834 -0.0207266 -0.0204289 -0.0200904 -0.0197144 -0.0193043 -0.0188601 -0.0183817 -0.0178736 -0.0173401 -0.0167812 -0.0161969 -0.0155922 -0.0149719 -0.0143361 -0.0136847 -0.013023 -0.012356 -0.0116837 -0.0110061 -0.0103283 -0.00965543 -0.00898737 -0.00832417 -0.00767062 -0.00703153 -0.00640687 -0.00579667 -0.00520517 -0.00463662 -0.00409103 -0.00356839 -0.00307204 -0.0026053 -0.00216818 -0.00176067 -0.0013847 -0.00104221 -0.000733186 -0.000457638 -0.000215613 -7.16047e-06 0.000167719 0.000309025 0.000419052 0.000500093 0.000552147 0.000575215 0.000574537 0.000555352 0.00051766 0.000461461 0.00039386 0.000321962 0.000245768 0.000165278 9.29687e-05 4.13194e-05 1.03299e-05 0 0 1.23662e-05 4.94647e-05 0.000111295 0.000197859 0.000293355 0.000381984 0.000463746 0.000538642 0.000597731 0.000632076 0.000641676 0.000626532 0.000580332 0.000496767 0.000375837 0.000217542 1.94797e-05 -0.000220751 -0.000503151 -0.000827719 -0.00119375 -0.00160054 -0.00204809 -0.0025364 -0.00306236 -0.00362286 -0.0042179 -0.00484748 -0.00550685 -0.00619125 -0.00690068 -0.00763514 -0.00838896 -0.00915648 -0.0099377 -0.0107326 -0.0115352 -0.0123395 -0.0131455 -0.0139531 -0.0147564 -0.0155494 -0.0163321 -0.0171045 -0.0178607 -0.0185951 -0.0193076 -0.0199982 -0.0206616 -0.0212924 -0.0218906 -0.0224562 -0.0229846 -0.0234713 -0.0239162 -0.0243193 -0.0246773 -0.0249867 -0.0252476 -0.0254599 -0.0256219 -0.0257319 -0.0257898 -0.0257957 -0.0257497 -0.025652 -0.0255026 -0.0253015 -0.0250509 -0.0247528 -0.0244072 -0.0240141 -0.0235773 -0.0231005 -0.0225836 -0.0220268 -0.0214349 -0.0208128 -0.0201604 -0.0194778 -0.0187707 -0.0180444 -0.0172991 -0.0165347 -0.0157571 -0.0149721 -0.0141799 -0.0133803 -0.0125793 -0.0117827 -0.0109906 -0.010203 -0.00942553 -0.00866393 -0.00791821 -0.00718835 -0.00647953 -0.00579692 -0.00514051 -0.00451031 -0.00391046 -0.00334511 -0.00281426 -0.00231791 -0.00185858 -0.00143877 -0.00105848 -0.000717708 -0.000416722 -0.000155773 6.51378e-05 0.000246011 0.000389416 0.000497922 0.000571529 0.000610238 0.000620135 0.000607309 0.000571758 0.000513484 0.000440858 0.000362253 0.000277669 0.000187106 0.000105247 4.67764e-05 1.16941e-05 0 0 1.33728e-05 5.3491e-05 0.000120355 0.000213964 0.000316366 0.000409608 0.000493691 0.000568614 0.00062417 0.000650155 0.000646566 0.000613406 0.000543617 0.000430144 0.000272988 7.21477e-05 -0.000174886 -0.000470624 -0.000815065 -0.00120821 -0.00164893 -0.00213609 -0.00266971 -0.00324976 -0.00387235 -0.00453356 -0.00523337 -0.0059718 -0.0067431 -0.00754149 -0.00836699 -0.0092196 -0.0100926 -0.0109794 -0.01188 -0.0127943 -0.0137155 -0.0146367 -0.0155578 -0.0164789 -0.0173934 -0.0182944 -0.019182 -0.0200563 -0.0209108 -0.0217394 -0.022542 -0.0233186 -0.0240636 -0.0247712 -0.0254413 -0.0260741 -0.0266646 -0.027208 -0.0277044 -0.0281536 -0.0285521 -0.0288965 -0.0291866 -0.0294224 -0.0296022 -0.0297241 -0.0297881 -0.0297942 -0.0297426 -0.0296334 -0.0294668 -0.0292426 -0.0289631 -0.0286305 -0.0282449 -0.0278061 -0.0273182 -0.0267851 -0.0262068 -0.0255833 -0.0249198 -0.0242215 -0.0234884 -0.0227205 -0.0219238 -0.0211043 -0.020262 -0.0193968 -0.0185153 -0.0176237 -0.0167222 -0.0158107 -0.0148958 -0.0139842 -0.0130758 -0.0121706 -0.0112753 -0.0103963 -0.00953363 -0.00868734 -0.00786353 -0.00706832 -0.0063017 -0.00556369 -0.00485932 -0.00419366 -0.00356671 -0.00297847 -0.00243216 -0.00193098 -0.00147495 -0.00106405 -0.000698887 -0.000380047 -0.000107531 0.000118661 0.000301258 0.000442989 0.000543856 0.000603856 0.00062982 0.000628576 0.000600124 0.000544464 0.000471172 0.000389825 0.000300424 0.000202968 0.000114169 5.07419e-05 1.26855e-05 0 0 1.39693e-05 5.5877e-05 0.000125723 0.000223508 0.000329326 0.000423272 0.000505346 0.000575547 0.000622477 0.000634736 0.000612325 0.000555242 0.000455808 0.000306339 0.000106836 -0.0001427 -0.000444762 -0.000801841 -0.00121394 -0.00168105 -0.00220149 -0.00277358 -0.00339731 -0.00407269 -0.00479486 -0.00555899 -0.00636506 -0.00721309 -0.00809623 -0.00900763 -0.00994731 -0.0109153 -0.0119038 -0.0129051 -0.0139194 -0.0149465 -0.0159787 -0.0170084 -0.0180356 -0.0190602 -0.020075 -0.0210728 -0.0220535 -0.0230172 -0.0239573 -0.0248672 -0.0257469 -0.0265963 -0.0274097 -0.0281812 -0.0289108 -0.0295985 -0.0302394 -0.0308286 -0.0313662 -0.031852 -0.0322827 -0.0326544 -0.0329674 -0.0332216 -0.033415 -0.033546 -0.0336145 -0.0336205 -0.0335642 -0.0334458 -0.0332653 -0.0330226 -0.0327201 -0.0323599 -0.031942 -0.0314665 -0.0309372 -0.0303582 -0.0297296 -0.0290512 -0.0283283 -0.0275663 -0.0267652 -0.0259249 -0.0250517 -0.0241517 -0.0232248 -0.0222712 -0.0212976 -0.0203108 -0.0193107 -0.0182974 -0.0172781 -0.01626 -0.015243 -0.0142272 -0.0132199 -0.0122285 -0.0112531 -0.0102936 -0.00935717 -0.00845083 -0.00757461 -0.00672853 -0.00591862 -0.00515096 -0.00442553 -0.00374234 -0.00310544 -0.00251886 -0.0019826 -0.00149667 -0.00106211 -0.000679983 -0.000350289 -7.30256e-05 0.000154579 0.000335296 0.000469127 0.000556072 0.000603593 0.000619155 0.000602758 0.000554401 0.000484802 0.00040468 0.000314034 0.000212864 0.000119736 5.32159e-05 1.3304e-05 0 0 1.41557e-05 5.66228e-05 0.000127401 0.000226491 0.000332235 0.000422974 0.00049871 0.000559442 0.000592652 0.000585822 0.000538952 0.000452042 0.000316904 0.000125351 -0.000122617 -0.000427002 -0.000790148 -0.0012144 -0.00169977 -0.00224624 -0.00285144 -0.003513 -0.00423091 -0.00500517 -0.00582988 -0.00669915 -0.00761297 -0.00857134 -0.00956624 -0.0105897 -0.0116416 -0.0127221 -0.0138223 -0.0149336 -0.0160558 -0.0171891 -0.0183249 -0.0194548 -0.0205788 -0.0216969 -0.0228013 -0.0238846 -0.0249466 -0.0259874 -0.0270003 -0.0279786 -0.0289222 -0.0298313 -0.0307 -0.0315226 -0.0322991 -0.0330295 -0.0337091 -0.0343331 -0.0349017 -0.0354148 -0.0358689 -0.0362607 -0.0365902 -0.0368573 -0.0370604 -0.0371976 -0.037269 -0.0372746 -0.0372146 -0.037089 -0.0368981 -0.0366416 -0.0363218 -0.0359408 -0.0354986 -0.0349951 -0.0344343 -0.0338199 -0.0331519 -0.0324304 -0.0316605 -0.0308473 -0.0299908 -0.0290911 -0.0281542 -0.0271864 -0.0261876 -0.0251579 -0.0241041 -0.0230333 -0.0219454 -0.0208404 -0.019726 -0.0186099 -0.0174921 -0.0163725 -0.0152593 -0.0141607 -0.0130767 -0.0120072 -0.0109604 -0.00994444 -0.00895924 -0.00800483 -0.00708837 -0.006217 -0.00539072 -0.00460953 -0.00387842 -0.00320239 -0.00258144 -0.00201555 -0.00150639 -0.00105558 -0.000663134 -0.000329048 -5.06221e-05 0.000174841 0.000347343 0.000466883 0.000541453 0.000579045 0.000579659 0.000543294 0.000481748 0.000406816 0.000318498 0.000216794 0.000121947 5.41985e-05 1.35496e-05 0 0 1.38115e-05 5.52461e-05 0.000124304 0.000220984 0.000322196 0.000404848 0.000468938 0.000514469 0.000527941 0.000495857 0.000418217 0.000295021 0.00011776 -0.000122075 -0.000424483 -0.000789466 -0.00121904 -0.00171523 -0.00227804 -0.00290746 -0.00360026 -0.00435318 -0.00516624 -0.00603943 -0.00696564 -0.00793779 -0.00895587 -0.0100199 -0.0111205 -0.0122486 -0.013404 -0.0145869 -0.0157873 -0.0169956 -0.0182116 -0.0194355 -0.020658 -0.0218701 -0.0230719 -0.0242632 -0.0254363 -0.0265833 -0.0277043 -0.0287992 -0.0298616 -0.0308849 -0.0318692 -0.0328145 -0.0337155 -0.0345669 -0.0353687 -0.0361209 -0.0368193 -0.0374597 -0.0380421 -0.0385664 -0.0390298 -0.0394292 -0.0397646 -0.040036 -0.0402419 -0.0403807 -0.0404525 -0.0404572 -0.040395 -0.0402661 -0.0400704 -0.039808 -0.0394807 -0.0390904 -0.0386372 -0.0381209 -0.037545 -0.036913 -0.0362248 -0.0354804 -0.0346846 -0.0338419 -0.0329524 -0.0320162 -0.0310388 -0.0300263 -0.0289784 -0.0278953 -0.0267837 -0.0256506 -0.0244958 -0.0233194 -0.0221294 -0.0209335 -0.0197319 -0.0185244 -0.0173201 -0.0161276 -0.0149469 -0.0137782 -0.0126304 -0.0115128 -0.0104253 -0.00936789 -0.00834899 -0.00737688 -0.00645158 -0.00557308 -0.00474746 -0.00398081 -0.00327313 -0.00262442 -0.00203708 -0.00151351 -0.00105371 -0.000657684 -0.000322968 -4.71078e-05 0.000169896 0.000328043 0.000435686 0.000501177 0.000524517 0.000505704 0.000457491 0.00039263 0.000311121 0.000212963 0.000119792 5.32408e-05 1.33102e-05 0 0 1.28162e-05 5.12649e-05 0.000115346 0.000205059 0.000296316 0.000365024 0.000411185 0.000434799 0.000421591 0.000357288 0.000241889 7.53943e-05 -0.000150775 -0.000445197 -0.000807873 -0.0012388 -0.00173944 -0.00231126 -0.00295425 -0.00366841 -0.00444943 -0.00529298 -0.00619906 -0.00716768 -0.00819036 -0.00925865 -0.0103725 -0.011532 -0.0127265 -0.0139454 -0.0151887 -0.0164564 -0.0177378 -0.0190219 -0.0203089 -0.0215987 -0.0228818 -0.0241486 -0.0253992 -0.0266334 -0.0278438 -0.0290225 -0.0301696 -0.031285 -0.032363 -0.0333977 -0.0343892 -0.0353373 -0.0362377 -0.0370862 -0.0378825 -0.0386269 -0.0393159 -0.0399464 -0.0405184 -0.0410318 -0.0414844 -0.0418739 -0.0422004 -0.0424639 -0.0426632 -0.0427971 -0.0428657 -0.0428689 -0.0428069 -0.0426798 -0.0424876 -0.0422302 -0.0419092 -0.0415259 -0.0410803 -0.0405725 -0.040005 -0.0393806 -0.0386991 -0.0379607 -0.037169 -0.0363279 -0.0354374 -0.0344974 -0.033513 -0.0324889 -0.0314253 -0.0303221 -0.0291856 -0.0280221 -0.0268317 -0.0256143 -0.0243777 -0.02313 -0.0218709 -0.0206007 -0.0193285 -0.0180637 -0.0168064 -0.0155564 -0.0143241 -0.0131194 -0.0119423 -0.010793 -0.0096809 -0.00861573 -0.00759744 -0.00662604 -0.00570889 -0.00485333 -0.00405935 -0.00332697 -0.00265955 -0.00206045 -0.00152967 -0.00106721 -0.000671081 -0.000339285 -7.18238e-05 0.000131303 0.000278579 0.000378485 0.000431021 0.000436188 0.000407512 0.000358518 0.000289206 0.000199577 0.000112262 4.98942e-05 1.24735e-05 0 0 1.11698e-05 4.46791e-05 0.000100528 0.000178716 0.000254592 0.000303504 0.000325451 0.000320433 0.000273604 0.000170116 9.96879e-06 -0.000206837 -0.000488699 -0.000844015 -0.00127279 -0.00177501 -0.00235135 -0.00300248 -0.00372839 -0.00452909 -0.00539896 -0.00633239 -0.00732938 -0.00838993 -0.00950404 -0.0106617 -0.011863 -0.0131078 -0.0143842 -0.0156802 -0.0169957 -0.0183307 -0.0196736 -0.0210126 -0.0223477 -0.0236788 -0.0249963 -0.0262902 -0.0275606 -0.0288076 -0.0300237 -0.031202 -0.0323424 -0.0334449 -0.0345047 -0.035517 -0.036482 -0.0373995 -0.0382665 -0.0390802 -0.0398405 -0.0405473 -0.0411989 -0.0417934 -0.0423306 -0.0428108 -0.0432326 -0.0435949 -0.0438977 -0.044141 -0.0443242 -0.0444467 -0.0445086 -0.0445097 -0.0444502 -0.0443302 -0.0441496 -0.0439083 -0.0436073 -0.0432472 -0.0428281 -0.0423499 -0.0418142 -0.0412225 -0.0405748 -0.0398711 -0.0391138 -0.0383053 -0.0374457 -0.0365349 -0.0355765 -0.0345743 -0.0335282 -0.0324382 -0.0313096 -0.0301479 -0.028953 -0.0277249 -0.0264712 -0.0251994 -0.0239094 -0.0226012 -0.0212846 -0.0199692 -0.018655 -0.0173421 -0.0160415 -0.0147642 -0.0135105 -0.0122801 -0.0110841 -0.00993352 -0.00882829 -0.00776843 -0.00676272 -0.00581995 -0.00494011 -0.00412322 -0.0033738 -0.00269639 -0.002091 -0.00155763 -0.00109496 -0.000701691 -0.000377815 -0.000123336 7.01303e-05 0.000210966 0.000299172 0.000334748 0.000331811 0.00030448 0.000252754 0.000176634 9.93567e-05 4.41585e-05 1.10396e-05 0 0 8.8722e-06 3.54888e-05 7.98498e-05 0.000141955 0.000197027 0.000220287 0.000211734 0.000171371 8.39779e-05 -6.56603e-05 -0.000277544 -0.000551673 -0.000896013 -0.00131853 -0.00181922 -0.00239809 -0.00305477 -0.00378889 -0.00460047 -0.00548949 -0.00644884 -0.00747141 -0.00855718 -0.00970617 -0.0109067 -0.012147 -0.0134272 -0.0147472 -0.0160936 -0.0174528 -0.0188249 -0.0202098 -0.0215949 -0.0229677 -0.024328 -0.0256759 -0.0270015 -0.028295 -0.0295564 -0.0307856 -0.0319762 -0.033122 -0.0342228 -0.0352788 -0.0362865 -0.0372428 -0.0381477 -0.0390011 -0.0398019 -0.0405491 -0.0412425 -0.0418823 -0.0424683 -0.0430005 -0.0434789 -0.0439035 -0.0442745 -0.0445921 -0.0448564 -0.0450673 -0.045225 -0.0453297 -0.0453812 -0.0453797 -0.045325 -0.0452173 -0.0450564 -0.0448423 -0.044575 -0.0442544 -0.0438805 -0.0434532 -0.0429727 -0.0424389 -0.0418519 -0.0412117 -0.0405189 -0.0397741 -0.0389773 -0.0381285 -0.0372296 -0.0362825 -0.0352872 -0.0342436 -0.0331559 -0.0320279 -0.0308598 -0.0296515 -0.0284098 -0.0271417 -0.0258471 -0.024526 -0.0231884 -0.021844 -0.0204929 -0.0191351 -0.0177826 -0.0164474 -0.0151297 -0.0138292 -0.0125586 -0.0113303 -0.0101441 -0.00900023 -0.00790894 -0.00688067 -0.0059154 -0.00501315 -0.00417982 -0.00342134 -0.00273772 -0.00212894 -0.00159461 -0.00113432 -0.000748079 -0.000435875 -0.000189659 -1.37737e-06 0.000128969 0.000201382 0.000230387 0.000230515 0.000201765 0.000144136 8.10764e-05 3.60339e-05 9.00848e-06 0 0 5.88484e-06 2.35394e-05 5.29636e-05 9.41575e-05 0.000122714 0.000114226 6.86925e-05 -1.38853e-05 -0.000148838 -0.000351496 -0.00062186 -0.00095993 -0.00137293 -0.0018681 -0.00244542 -0.00310491 -0.00384489 -0.00466368 -0.00556128 -0.0065377 -0.00758406 -0.00869149 -0.00985999 -0.0110896 -0.0123666 -0.0136777 -0.0150226 -0.0164015 -0.0177993 -0.019201 -0.0206065 -0.0220158 -0.0234155 -0.0247922 -0.0261458 -0.0274764 -0.0287743 -0.0300298 -0.0312429 -0.0324136 -0.0335368 -0.0346072 -0.035625 -0.03659 -0.0375011 -0.0383571 -0.0391579 -0.0399035 -0.0405954 -0.0412347 -0.0418215 -0.0423557 -0.0428398 -0.043276 -0.0436642 -0.0440045 -0.0442989 -0.0445495 -0.0447563 -0.0449192 -0.0450393 -0.0451178 -0.0451545 -0.0451496 -0.0451028 -0.0450141 -0.0448834 -0.0447108 -0.044495 -0.0442348 -0.0439303 -0.0435814 -0.0431862 -0.042743 -0.0422517 -0.0417123 -0.0411231 -0.0404824 -0.0397901 -0.0390463 -0.0382506 -0.0374023 -0.0365017 -0.0355486 -0.0345452 -0.0334937 -0.0323941 -0.0312463 -0.0300563 -0.0288297 -0.0275667 -0.0262672 -0.0249411 -0.0235982 -0.0222385 -0.0208619 -0.0194815 -0.0181102 -0.0167479 -0.0153947 -0.0140646 -0.0127715 -0.0115155 -0.0102965 -0.00912673 -0.00801837 -0.00697141 -0.00598585 -0.00506924 -0.00422913 -0.00346551 -0.0027784 -0.00216855 -0.00163673 -0.00118294 -0.000807178 -0.000502006 -0.000259978 -8.10934e-05 3.46477e-05 0.000101953 0.000135528 0.000135375 0.000101493 5.70899e-05 2.53733e-05 6.34332e-06 0 0 2.16907e-06 8.67628e-06 1.95216e-05 3.47051e-05 3.07485e-05 -1.58264e-05 -0.00010502 -0.000236831 -0.000426396 -0.000688849 -0.00102419 -0.00143242 -0.00191967 -0.00249208 -0.00314964 -0.00389236 -0.00471692 -0.00562001 -0.00660164 -0.00766181 -0.0087896 -0.0099741 -0.0112153 -0.0125133 -0.0138523 -0.0152167 -0.0166066 -0.018022 -0.0194461 -0.0208623 -0.0222705 -0.0236709 -0.0250493 -0.0263914 -0.0276974 -0.0289671 -0.0301916 -0.0313615 -0.0324769 -0.0335379 -0.0345409 -0.0354826 -0.0363629 -0.0371819 -0.0379411 -0.0386419 -0.0392843 -0.0398683 -0.0403983 -0.0408789 -0.0413101 -0.0416917 -0.0420293 -0.0423279 -0.0425877 -0.0428086 -0.042995 -0.0431511 -0.0432771 -0.0433729 -0.0434408 -0.0434829 -0.0434994 -0.0434902 -0.043455 -0.0433937 -0.0433061 -0.0431924 -0.0430498 -0.0428757 -0.0426703 -0.0424334 -0.0421607 -0.0418481 -0.0414955 -0.0411028 -0.0406654 -0.0401786 -0.0396423 -0.0390565 -0.0384178 -0.0377227 -0.0369712 -0.0361633 -0.0352986 -0.0343769 -0.033398 -0.0323621 -0.0312735 -0.0301364 -0.0289509 -0.0277169 -0.0264441 -0.0251418 -0.0238101 -0.0224491 -0.0210723 -0.0196937 -0.0183132 -0.0169308 -0.0155622 -0.0142229 -0.0129129 -0.0116323 -0.0103953 -0.00921592 -0.0080943 -0.0070304 -0.00603367 -0.00511357 -0.0042701 -0.00350325 -0.00281528 -0.00220844 -0.00168271 -0.00123811 -0.00086813 -0.000566267 -0.000332523 -0.000166897 -5.47838e-05 1.84232e-05 5.27238e-05 4.8118e-05 2.70664e-05 1.20295e-05 3.00738e-06 0 0 -2.27512e-06 -9.10047e-06 -2.04761e-05 -3.64019e-05 -7.88691e-05 -0.000169869 -0.000309402 -0.000497467 -0.000748696 -0.00107772 -0.00148454 -0.00196915 -0.00253623 -0.00319047 -0.00393187 -0.00476042 -0.00567085 -0.00665789 -0.00772155 -0.00886181 -0.0100654 -0.0113192 -0.0126232 -0.0139773 -0.0153636 -0.0167642 -0.0181792 -0.0196085 -0.0210338 -0.0224366 -0.0238171 -0.0251752 -0.0264961 -0.0277653 -0.0289825 -0.030148 -0.0312533 -0.0322901 -0.0332584 -0.0341583 -0.0349886 -0.035748 -0.0364367 -0.0370546 -0.0376065 -0.0380972 -0.0385268 -0.0388952 -0.0392108 -0.0394818 -0.0397083 -0.0398903 -0.0400366 -0.0401563 -0.0402494 -0.0403157 -0.0403626 -0.040397 -0.040419 -0.0404285 -0.0404294 -0.0404251 -0.0404159 -0.0404015 -0.0403817 -0.0403561 -0.0403245 -0.0402871 -0.0402394 -0.0401772 -0.0401005 -0.0400093 -0.0398962 -0.0397542 -0.0395832 -0.0393832 -0.0391458 -0.0388627 -0.0385337 -0.038159 -0.0377314 -0.0372436 -0.0366957 -0.0360876 -0.0354159 -0.0346773 -0.0338716 -0.0329988 -0.0320614 -0.0310617 -0.0299996 -0.0288751 -0.0276972 -0.0264749 -0.0252079 -0.0238965 -0.0225551 -0.0211981 -0.0198256 -0.0184376 -0.0170513 -0.0156843 -0.0143364 -0.0130077 -0.0117145 -0.0104733 -0.00928408 -0.0081468 -0.00707312 -0.00607468 -0.00515147 -0.00430351 -0.00353482 -0.00284946 -0.00224741 -0.00172867 -0.00128803 -0.000920245 -0.00062532 -0.000403253 -0.000239821 -0.0001208 -4.61897e-05 -1.59896e-05 -8.99414e-06 -3.9974e-06 -9.99349e-07 0 0 -7.44772e-06 -2.97909e-05 -6.70295e-05 -0.000119164 -0.000206139 -0.000347903 -0.000544454 -0.000795793 -0.00111574 -0.0015181 -0.00200289 -0.00257011 -0.00322261 -0.00396328 -0.00479211 -0.0057091 -0.00670669 -0.00777732 -0.00892099 -0.0101377 -0.0114116 -0.0127269 -0.0140836 -0.0154816 -0.0169006 -0.0183202 -0.0197404 -0.0211612 -0.0225625 -0.0239241 -0.0252462 -0.0265286 -0.0277561 -0.0289137 -0.0300014 -0.031019 -0.0319594 -0.0328156 -0.0335874 -0.034275 -0.0348798 -0.0354036 -0.0358463 -0.0362079 -0.0364972 -0.0367231 -0.0368855 -0.0369844 -0.0370328 -0.0370434 -0.0370163 -0.0369514 -0.036862 -0.0367613 -0.0366493 -0.036526 -0.0364018 -0.036287 -0.0361818 -0.036086 -0.0360051 -0.0359444 -0.0359039 -0.0358836 -0.0358829 -0.0359012 -0.0359386 -0.0359949 -0.0360639 -0.0361393 -0.036221 -0.036309 -0.0363927 -0.0364613 -0.0365149 -0.0365535 -0.0365642 -0.0365346 -0.0364645 -0.0363539 -0.0361913 -0.035965 -0.0356751 -0.0353216 -0.0348973 -0.034395 -0.0338147 -0.0331564 -0.0324201 -0.0316055 -0.0307128 -0.0297418 -0.0287006 -0.0275973 -0.0264319 -0.0252043 -0.0239297 -0.0226233 -0.021285 -0.0199149 -0.0185321 -0.0171558 -0.0157859 -0.0144226 -0.0130845 -0.0117906 -0.0105407 -0.00933505 -0.00818758 -0.00711244 -0.00610964 -0.00517916 -0.00432717 -0.00355978 -0.00287702 -0.00227887 -0.001