<?xml version="1.0"?> 
<VTKFile type="StructuredGrid" version="0.1"> 
<StructuredGrid WholeExtent="0 128 0 128 0 0"> 
<Piece Extent="0 128 0 128 0 0"> 
<PointData>
<DataArray type="Float32" Name="u" format="ascii" NumberOfComponents="1"> 
0 0 0 0 0 0 0 0 0 0 0 0 0 0 0 0 0 0 0 0 0 0 0 0 0 0 0 0 0 0 0 0 0 0 0 0 0 0 0 0 0 0 0 0 0 0 0 0 0 0 0 0 0 0 0 0 0 0 0 0 0 0 0 0 0 0 0 0 0 0 0 0 0 0 0 0 0 0 0 0 0 0 0 0 0 0 0 0 0 0 0 0 0 0 0 0 0 0 0 0 0 0 0 0 0 0 0 0 0 0 0 0 0 0 0 0 0 0 0 0 0 0 0 0 0 0 0 0 0 0 1.32968e-07 5.31872e-07 1.19671e-06 2.12749e-06 3.08446e-06 3.82788e-06 4.35775e-06 4.67407e-06 4.64523e-06 4.13961e-06 3.1572e-06 1.69802e-06 -3.14846e-07 -2.9583e-06 -6.23233e-06 -1.01369e-05 -1.46907e-05 -1.9912e-05 -2.58009e-05 -3.23574e-05 -3.95559e-05 -4.73707e-05 -5.58018e-05 -6.48492e-05 -7.44518e-05 -8.45485e-05 -9.51393e-05 -0.000106224 -0.000117717 -0.000129531 -0.000141667 -0.000154124 -0.000166803 -0.000179605 -0.00019253 -0.000205577 -0.000218647 -0.000231639 -0.000244553 -0.000257389 -0.000270054 -0.000282457 -0.000294596 -0.000306471 -0.000318005 -0.000329118 -0.00033981 -0.000350081 -0.000359867 -0.000369107 -0.0003778 -0.000385946 -0.000393498 -0.000400411 -0.000406684 -0.000412317 -0.00041728 -0.000421543 -0.000425106 -0.000427969 -0.000430119 -0.000431542 -0.000432237 -0.000432206 -0.000431449 -0.000429972 -0.000427772 -0.000424851 -0.000421227 -0.000416921 -0.000411932 -0.00040626 -0.00039994 -0.000393011 -0.00038547 -0.000377318 -0.000368608 -0.000359392 -0.000349669 -0.00033944 -0.000328774 -0.000317737 -0.00030633 -0.000294553 -0.000282488 -0.000270216 -0.000257738 -0.000245054 -0.000232255 -0.000219434 -0.000206591 -0.000193727 -0.000180936 -0.000168315 -0.000155865 -0.000143585 -0.000131567 -0.000119901 -0.000108588 -9.76287e-05 -8.70976e-05 -7.70711e-05 -6.75492e-05 -5.85318e-05 -5.0069e-05 -4.2211e-05 -3.49577e-05 -2.8309e-05 -2.22814e-05 -1.68909e-05 -1.21377e-05 -8.02164e-06 -4.51853e-06 -1.60406e-06 7.21777e-07 2.45898e-06 3.68449e-06 4.47525e-06 4.83127e-06 4.75255e-06 4.36345e-06 3.78836e-06 3.02727e-06 2.08018e-06 1.1701e-06 5.20045e-07 1.30011e-07 0 0 5.31872e-07 2.12749e-06 4.78685e-06 8.50995e-06 1.23378e-05 1.53115e-05 1.7431e-05 1.86963e-05 1.85809e-05 1.65584e-05 1.26288e-05 6.79208e-06 -1.25939e-06 -1.18332e-05 -2.49293e-05 -4.05478e-05 -5.87626e-05 -7.96479e-05 -0.000103204 -0.00012943 -0.000158224 -0.000189483 -0.000223207 -0.000259397 -0.000297807 -0.000338194 -0.000380557 -0.000424897 -0.000470867 -0.000518124 -0.000566666 -0.000616494 -0.000667211 -0.000718419 -0.000770119 -0.00082231 -0.00087459 -0.000926558 -0.000978214 -0.00102956 -0.00108022 -0.00112983 -0.00117838 -0.00122589 -0.00127202 -0.00131647 -0.00135924 -0.00140032 -0.00143947 -0.00147643 -0.0015112 -0.00154378 -0.00157399 -0.00160164 -0.00162673 -0.00164927 -0.00166912 -0.00168617 -0.00170042 -0.00171188 -0.00172048 -0.00172617 -0.00172895 -0.00172882 -0.0017258 -0.00171989 -0.00171109 -0.0016994 -0.00168491 -0.00166768 -0.00164773 -0.00162504 -0.00159976 -0.00157204 -0.00154188 -0.00150927 -0.00147443 -0.00143757 -0.00139868 -0.00135776 -0.0013151 -0.00127095 -0.00122532 -0.00117821 -0.00112995 -0.00108086 -0.00103095 -0.000980214 -0.00092902 -0.000877737 -0.000826366 -0.000774906 -0.000723743 -0.000673261 -0.00062346 -0.00057434 -0.000526266 -0.000479604 -0.000434354 -0.000390515 -0.000348391 -0.000308285 -0.000270197 -0.000234127 -0.000200276 -0.000168844 -0.000139831 -0.000113236 -8.91255e-05 -6.75637e-05 -4.85507e-05 -3.20866e-05 -1.80741e-05 -6.41624e-06 2.88711e-06 9.83591e-06 1.47379e-05 1.7901e-05 1.93251e-05 1.90102e-05 1.74538e-05 1.51534e-05 1.21091e-05 8.32072e-06 4.6804e-06 2.08018e-06 5.20045e-07 0 0 1.19671e-06 4.78685e-06 1.07704e-05 1.91474e-05 2.77601e-05 3.44509e-05 3.92197e-05 4.20666e-05 4.18071e-05 3.72565e-05 2.84148e-05 1.52822e-05 -2.83362e-06 -2.66247e-05 -5.6091e-05 -9.12325e-05 -0.000132216 -0.000179208 -0.000232208 -0.000291217 -0.000356003 -0.000426336 -0.000502216 -0.000583643 -0.000670066 -0.000760937 -0.000856254 -0.000956018 -0.00105945 -0.00116578 -0.001275 -0.00138711 -0.00150122 -0.00161644 -0.00173277 -0.0018502 -0.00196783 -0.00208476 -0.00220098 -0.0023165 -0.00243049 -0.00254211 -0.00265136 -0.00275824 -0.00286205 -0.00296206 -0.00305829 -0.00315073 -0.00323881 -0.00332196 -0.0034002 -0.00347351 -0.00354148 -0.0036037 -0.00366015 -0.00371085 -0.00375552 -0.00379388 -0.00382595 -0.00385173 -0.00387107 -0.00388388 -0.00389014 -0.00388985 -0.00388304 -0.00386974 -0.00384995 -0.00382366 -0.00379105 -0.00375229 -0.00370738 -0.00365634 -0.00359946 -0.0035371 -0.00346923 -0.00339586 -0.00331747 -0.00323452 -0.00314702 -0.00305496 -0.00295896 -0.00285963 -0.00275697 -0.00265098 -0.00254239 -0.00243194 -0.00231964 -0.00220548 -0.00209029 -0.00197491 -0.00185932 -0.00174354 -0.00162842 -0.00151484 -0.00140279 -0.00129227 -0.0011841 -0.00107911 -0.000977296 -0.000878658 -0.000783879 -0.00069364 -0.000607943 -0.000526786 -0.000450621 -0.000379899 -0.000314619 -0.000254781 -0.000200532 -0.000152018 -0.000109239 -7.21948e-05 -4.06668e-05 -1.44365e-05 6.49599e-06 2.21308e-05 3.31604e-05 4.02773e-05 4.34814e-05 4.27729e-05 3.92711e-05 3.40952e-05 2.72454e-05 1.87216e-05 1.05309e-05 4.6804e-06 1.1701e-06 0 0 2.12749e-06 8.50995e-06 1.91474e-05 3.40398e-05 4.93513e-05 6.1246e-05 6.9724e-05 7.47852e-05 7.43237e-05 6.62337e-05 5.05153e-05 2.71683e-05 -5.03754e-06 -4.73327e-05 -9.97172e-05 -0.000162191 -0.00023505 -0.000318591 -0.000412814 -0.000517719 -0.000632894 -0.000757931 -0.000892829 -0.00103759 -0.00119123 -0.00135278 -0.00152223 -0.00169959 -0.00188347 -0.0020725 -0.00226666 -0.00246598 -0.00266884 -0.00287368 -0.00308047 -0.00328924 -0.00349836 -0.00370623 -0.00391285 -0.00411823 -0.00432087 -0.0045193 -0.00471353 -0.00490354 -0.00508808 -0.00526589 -0.00543696 -0.00560129 -0.00575788 -0.00590572 -0.0060448 -0.00617513 -0.00629597 -0.00640657 -0.00650694 -0.00659706 -0.00667647 -0.00674468 -0.0068017 -0.00684751 -0.00688191 -0.00690467 -0.0069158 -0.00691529 -0.00690319 -0.00687954 -0.00684435 -0.00679761 -0.00673964 -0.00667073 -0.00659091 -0.00650015 -0.00639905 -0.00628817 -0.00616752 -0.00603709 -0.00589773 -0.00575026 -0.00559471 -0.00543105 -0.00526038 -0.00508379 -0.00490128 -0.00471285 -0.0045198 -0.00432345 -0.00412381 -0.00392086 -0.00371608 -0.00351095 -0.00330546 -0.00309962 -0.00289497 -0.00269304 -0.00249384 -0.00229736 -0.00210507 -0.00191842 -0.00173742 -0.00156206 -0.00139356 -0.00123314 -0.00108079 -0.000936509 -0.000801105 -0.000675376 -0.000559322 -0.000452944 -0.000356502 -0.000270255 -0.000194203 -0.000128346 -7.22965e-05 -2.5665e-05 1.15484e-05 3.93436e-05 5.89518e-05 7.1604e-05 7.73003e-05 7.60408e-05 6.98153e-05 6.06138e-05 4.84363e-05 3.32829e-05 1.87216e-05 8.32072e-06 2.08018e-06 0 0 3.07325e-06 1.2293e-05 2.76593e-05 4.9172e-05 7.11017e-05 8.77189e-05 9.90236e-05 0.000105016 0.000102534 8.84156e-05 6.26616e-05 2.52717e-05 -2.55844e-05 -9.17369e-05 -0.000173186 -0.000269931 -0.000382391 -0.000510983 -0.000655707 -0.000816564 -0.000992899 -0.00118406 -0.00139004 -0.00161085 -0.00184497 -0.00209089 -0.00234861 -0.00261813 -0.00289734 -0.00318412 -0.00347847 -0.00378039 -0.00408747 -0.00439729 -0.00470986 -0.00502517 -0.00534079 -0.00565432 -0.00596573 -0.00627504 -0.00658004 -0.0068785 -0.00717044 -0.00745585 -0.00773286 -0.00799961 -0.00825609 -0.00850231 -0.00873679 -0.00895807 -0.00916613 -0.00936098 -0.00954155 -0.00970676 -0.00985661 -0.00999111 -0.0101096 -0.0102113 -0.0102963 -0.0103645 -0.0104157 -0.0104496 -0.0104661 -0.0104653 -0.0104471 -0.0104118 -0.0103592 -0.0102894 -0.0102029 -0.0100999 -0.0099807 -0.00984513 -0.00969405 -0.0095283 -0.00934787 -0.00915277 -0.00894421 -0.00872341 -0.00849037 -0.00824509 -0.00798917 -0.0077242 -0.00745019 -0.00716713 -0.00687696 -0.00658164 -0.00628115 -0.0059755 -0.0056669 -0.00535755 -0.00504746 -0.00473661 -0.00442735 -0.00412199 -0.00382053 -0.00352297 -0.00323154 -0.00294846 -0.00267373 -0.00240735 -0.00215118 -0.00190708 -0.00167506 -0.00145511 -0.00124848 -0.00105641 -0.0008789 -0.000715953 -0.000567991 -0.000435441 -0.0003183 -0.000216571 -0.00012969 -5.70984e-05 1.20505e-06 4.522e-05 7.67821e-05 9.77271e-05 0.000108055 0.000107765 9.98491e-05 8.7297e-05 7.01088e-05 4.82845e-05 2.716e-05 1.20711e-05 3.01778e-06 0 0 3.78305e-06 1.51322e-05 3.40474e-05 6.05288e-05 8.70017e-05 0.000105892 0.000117198 0.000120922 0.00011284 8.87275e-05 4.85854e-05 -7.58652e-06 -8.21874e-05 -0.000177617 -0.000293874 -0.00043096 -0.000589361 -0.000769565 -0.000971572 -0.00119538 -0.00144002 -0.00170451 -0.00198885 -0.00229304 -0.00261496 -0.00295245 -0.00330552 -0.00367417 -0.00405547 -0.00444648 -0.00484721 -0.00525765 -0.0056745 -0.00609446 -0.00651753 -0.00694371 -0.00736974 -0.00779234 -0.00821151 -0.00862727 -0.00903667 -0.0094368 -0.00982766 -0.0102092 -0.0105791 -0.0109349 -0.0112765 -0.0116041 -0.0119157 -0.0122094 -0.0124853 -0.0127434 -0.0129823 -0.0132007 -0.0133987 -0.0135762 -0.0137323 -0.0138664 -0.0139783 -0.0140681 -0.0141353 -0.0141797 -0.0142013 -0.0141999 -0.0141758 -0.014129 -0.0140595 -0.0139673 -0.0138529 -0.0137168 -0.0135592 -0.0133799 -0.01318 -0.0129605 -0.0127214 -0.0124627 -0.0121859 -0.0118926 -0.0115827 -0.0112562 -0.0109152 -0.0105616 -0.0101956 -0.00981712 -0.00942864 -0.00903273 -0.00862937 -0.00821858 -0.00780328 -0.00738641 -0.00696797 -0.00654796 -0.00612952 -0.00571579 -0.00530677 -0.00490246 -0.00450591 -0.00412018 -0.00374527 -0.00338117 -0.00303048 -0.00269579 -0.0023771 -0.00207441 -0.0017895 -0.00152413 -0.00127831 -0.00105203 -0.000845958 -0.000660744 -0.00049639 -0.000352897 -0.000229575 -0.000125734 -4.13735e-05 2.35056e-05 7.13215e-05 0.000104492 0.000123018 0.000126898 0.000120135 0.000106733 8.66898e-05 6.00066e-05 3.37537e-05 1.50017e-05 3.75041e-06 0 0 4.25688e-06 1.70275e-05 3.8312e-05 6.81102e-05 9.70511e-05 0.000115764 0.000124248 0.000122505 0.000105242 6.71694e-05 8.28654e-06 -7.14063e-05 -0.000174847 -0.000304972 -0.000461782 -0.000645278 -0.000855962 -0.00109434 -0.00136041 -0.00165417 -0.00197425 -0.00231928 -0.00268925 -0.00308417 -0.00350119 -0.00393745 -0.00439296 -0.00486771 -0.00535787 -0.0058596 -0.00637289 -0.00689776 -0.00742994 -0.00796519 -0.0085035 -0.00904488 -0.00958519 -0.0101203 -0.0106502 -0.0111749 -0.0116908 -0.0121942 -0.0126852 -0.0131637 -0.0136269 -0.0140717 -0.0144983 -0.0149066 -0.0152945 -0.0156597 -0.0160023 -0.0163223 -0.0166182 -0.0168885 -0.0171332 -0.0173522 -0.0175448 -0.01771 -0.0178478 -0.0179581 -0.0180407 -0.0180951 -0.0181213 -0.0181193 -0.0180892 -0.0180312 -0.0179452 -0.0178311 -0.0176897 -0.0175214 -0.0173264 -0.0171045 -0.0168569 -0.0165848 -0.0162881 -0.0159669 -0.0156229 -0.0152578 -0.0148716 -0.0144643 -0.0140384 -0.0135961 -0.0131376 -0.0126628 -0.0121748 -0.0116767 -0.0111685 -0.0106501 -0.0101252 -0.00959754 -0.00906701 -0.00853366 -0.00800147 -0.00747443 -0.00695254 -0.00643581 -0.00592817 -0.00543358 -0.00495202 -0.00448351 -0.00403145 -0.00359924 -0.0031869 -0.00279441 -0.00242417 -0.00207855 -0.00175755 -0.00146118 -0.0011904 -0.000946165 -0.000728473 -0.000537326 -0.000371951 -0.000231571 -0.000116187 -2.57997e-05 4.25698e-05 9.18994e-05 0.000122189 0.000133439 0.000130674 0.000118921 9.81794e-05 6.84492e-05 3.85027e-05 1.71123e-05 4.27807e-06 0 0 4.49476e-06 1.7979e-05 4.04528e-05 7.19161e-05 0.00010125 0.000117336 0.000120174 0.000109763 7.97407e-05 2.37413e-05 -5.82349e-05 -0.000166188 -0.000303562 -0.000473803 -0.00067691 -0.000912884 -0.00118219 -0.0014853 -0.00182222 -0.00219293 -0.0025956 -0.00302837 -0.00349125 -0.00398424 -0.00450368 -0.00504591 -0.00561093 -0.00619875 -0.00680453 -0.00742345 -0.00805552 -0.00870072 -0.00935379 -0.0100095 -0.0106678 -0.0113287 -0.0119871 -0.0126382 -0.0132818 -0.0139179 -0.0145423 -0.0151507 -0.015743 -0.0163192 -0.0168761 -0.0174101 -0.0179214 -0.0184099 -0.0188733 -0.019309 -0.0197172 -0.0200978 -0.0204493 -0.02077 -0.0210601 -0.0213193 -0.021547 -0.0217421 -0.0219047 -0.0220347 -0.0221318 -0.0221956 -0.0222261 -0.0222233 -0.0221874 -0.0221183 -0.0220162 -0.021881 -0.0217133 -0.0215137 -0.0212822 -0.0210189 -0.0207248 -0.0204012 -0.0200481 -0.0196654 -0.0192551 -0.018819 -0.0183571 -0.0178695 -0.0173588 -0.0168276 -0.0162761 -0.0157043 -0.0151156 -0.0145136 -0.0138985 -0.01327 -0.0126327 -0.0119909 -0.0113446 -0.0106937 -0.0100432 -0.00939792 -0.00875786 -0.00812303 -0.00749832 -0.00688865 -0.006294 -0.00571438 -0.00515409 -0.00461745 -0.00410446 -0.0036151 -0.00315248 -0.00271965 -0.00231663 -0.00194341 -0.00160132 -0.0012917 -0.00101455 -0.000769858 -0.000556817 -0.00037461 -0.000223236 -0.000102696 -9.47293e-06 5.99487e-05 0.000105569 0.000127388 0.000131466 0.000123862 0.000104578 7.36121e-05 4.14068e-05 1.8403e-05 4.60076e-06 0 0 4.35506e-06 1.74202e-05 3.91956e-05 6.9681e-05 9.61945e-05 0.000106054 9.92593e-05 7.58107e-05 2.83324e-05 -5.05513e-05 -0.00016084 -0.000302535 -0.000479491 -0.000695566 -0.00095076 -0.00124507 -0.00157884 -0.00195239 -0.00236572 -0.00281884 -0.00330931 -0.00383471 -0.00439504 -0.00499029 -0.00561591 -0.00626733 -0.00694456 -0.00764759 -0.00837054 -0.00910751 -0.0098585 -0.0106235 -0.0113963 -0.0121704 -0.012946 -0.013723 -0.0144955 -0.0152577 -0.0160095 -0.016751 -0.0174772 -0.0181834 -0.0188693 -0.0195352 -0.0201773 -0.0207919 -0.0213791 -0.0219389 -0.0224687 -0.0229662 -0.0234314 -0.0238641 -0.024263 -0.0246266 -0.0249548 -0.0252477 -0.0255044 -0.0257243 -0.0259071 -0.0260531 -0.0261618 -0.0262331 -0.0262668 -0.026263 -0.0262218 -0.0261433 -0.0260275 -0.0258744 -0.0256845 -0.0254584 -0.025196 -0.0248974 -0.0245637 -0.0241958 -0.0237939 -0.0233579 -0.0228897 -0.0223912 -0.0218622 -0.0213029 -0.020716 -0.0201045 -0.0194682 -0.0188072 -0.0181254 -0.0174267 -0.0167112 -0.0159789 -0.0152347 -0.0144836 -0.0137257 -0.0129608 -0.0121949 -0.0114335 -0.0106768 -0.0099246 -0.00918291 -0.00845761 -0.0077487 -0.00705617 -0.0063853 -0.00574139 -0.00512442 -0.00453441 -0.00397522 -0.00345073 -0.00296093 -0.00250583 -0.00208722 -0.00170692 -0.00136492 -0.00106121 -0.000795041 -0.000565631 -0.000372984 -0.000217099 -9.40067e-05 2.6644e-07 6.57199e-05 0.000102354 0.000117212 0.000117339 0.000102736 7.34007e-05 4.12879e-05 1.83502e-05 4.58754e-06 0 0 3.69619e-06 1.47848e-05 3.32658e-05 5.91391e-05 7.848e-05 7.73637e-05 5.57902e-05 1.37593e-05 -5.69859e-05 -0.000164703 -0.000309391 -0.000491051 -0.000713791 -0.000981718 -0.00129483 -0.00165314 -0.00205668 -0.00250552 -0.00299965 -0.00353907 -0.00412064 -0.00474121 -0.00540079 -0.00609937 -0.00683138 -0.00759125 -0.00837897 -0.00919454 -0.010031 -0.0108812 -0.0117453 -0.0126232 -0.0135076 -0.0143911 -0.0152739 -0.0161558 -0.0170302 -0.0178905 -0.0187367 -0.0195687 -0.0203814 -0.0211693 -0.0219325 -0.0226709 -0.023381 -0.0240589 -0.0247047 -0.0253183 -0.0258976 -0.0264402 -0.0269461 -0.0274154 -0.0278469 -0.0282395 -0.028593 -0.0289076 -0.0291828 -0.029418 -0.0296133 -0.0297687 -0.029884 -0.0299592 -0.0299943 -0.0299892 -0.0299441 -0.029859 -0.0297339 -0.0295689 -0.0293642 -0.0291203 -0.0288371 -0.0285146 -0.0281536 -0.0277549 -0.0273184 -0.0268443 -0.026334 -0.0257892 -0.0252098 -0.0245958 -0.0239499 -0.0232749 -0.0225707 -0.0218373 -0.0210788 -0.0202993 -0.0194987 -0.0186771 -0.0178399 -0.0169927 -0.0161353 -0.0152678 -0.0143967 -0.0135285 -0.0126633 -0.011801 -0.0109485 -0.0101127 -0.00929365 -0.00849129 -0.00771197 -0.00696203 -0.00624145 -0.00555024 -0.00489318 -0.00427505 -0.00369584 -0.00315556 -0.00265661 -0.00220138 -0.00178989 -0.00142212 -0.00109749 -0.000815413 -0.000575893 -0.000378927 -0.000220231 -9.55208e-05 -4.7954e-06 5.19448e-05 8.26164e-05 9.51362e-05 8.9504e-05 6.572e-05 3.69675e-05 1.643e-05 4.1075e-06 0 0 2.51816e-06 1.00726e-05 2.26634e-05 4.02905e-05 4.81069e-05 3.12655e-05 -1.02337e-05 -7.63906e-05 -0.000176214 -0.000318713 -0.000503887 -0.000731737 -0.00100646 -0.00133226 -0.00170913 -0.00213708 -0.00261572 -0.00314469 -0.00372399 -0.00435362 -0.00502958 -0.00574788 -0.00650851 -0.00731149 -0.0081501 -0.00901766 -0.00991416 -0.0108396 -0.0117858 -0.0127445 -0.0137158 -0.0146997 -0.0156877 -0.0166717 -0.0176514 -0.018627 -0.0195912 -0.0205366 -0.0214632 -0.0223711 -0.0232547 -0.0241084 -0.0249324 -0.0257265 -0.0264873 -0.0272111 -0.0278982 -0.0285483 -0.0291598 -0.0297309 -0.0302616 -0.0307518 -0.031201 -0.0316086 -0.0319746 -0.032299 -0.0325819 -0.0328233 -0.0330231 -0.0331814 -0.0332983 -0.0333741 -0.0334086 -0.033402 -0.0333542 -0.0332653 -0.0331354 -0.0329644 -0.0327524 -0.0324994 -0.0322053 -0.0318703 -0.0314945 -0.0310783 -0.0306216 -0.0301245 -0.029588 -0.0290131 -0.0283998 -0.0277481 -0.0270604 -0.0263389 -0.0255836 -0.0247946 -0.0239758 -0.0231312 -0.0222608 -0.0213647 -0.0204485 -0.0195181 -0.0185734 -0.0176145 -0.0166486 -0.0156829 -0.0147174 -0.0137522 -0.0127951 -0.0118539 -0.0109288 -0.0100197 -0.0091341 -0.00827937 -0.00745553 -0.0066626 -0.00590637 -0.00519263 -0.00452138 -0.00389262 -0.00330948 -0.00277509 -0.00228945 -0.00185257 -0.00146416 -0.00112396 -0.000831964 -0.00058818 -0.000388147 -0.000227413 -0.000105977 -2.38386e-05 2.76789e-05 5.72528e-05 6.48832e-05 5.057e-05 2.84456e-05 1.26425e-05 3.16062e-06 0 0 8.20945e-07 3.28378e-06 7.3885e-06 1.31351e-05 5.07489e-06 -3.22409e-05 -9.88123e-05 -0.000194639 -0.000329352 -0.000512582 -0.000744329 -0.00102459 -0.0013575 -0.00174719 -0.00219365 -0.00269689 -0.00325596 -0.00386992 -0.00453876 -0.00526249 -0.00603613 -0.0068547 -0.0077182 -0.00862663 -0.00957206 -0.0105466 -0.0115501 -0.0125828 -0.0136351 -0.0146975 -0.0157702 -0.0168531 -0.0179368 -0.0190119 -0.0200786 -0.0211368 -0.0221785 -0.023196 -0.0241892 -0.0251582 -0.0260972 -0.0270009 -0.027869 -0.0287018 -0.029496 -0.0302486 -0.0309596 -0.0316289 -0.0322555 -0.0328384 -0.0333776 -0.0338731 -0.0343251 -0.0347339 -0.0350996 -0.035422 -0.0357019 -0.0359401 -0.0361366 -0.0362913 -0.0364048 -0.0364776 -0.0365098 -0.0365013 -0.0364521 -0.0363623 -0.036232 -0.036061 -0.035849 -0.0355956 -0.0353008 -0.0349645 -0.0345864 -0.0341661 -0.0337034 -0.0331985 -0.0326515 -0.0320628 -0.0314323 -0.0307599 -0.0300475 -0.0292965 -0.0285071 -0.0276792 -0.0268165 -0.0259226 -0.0249977 -0.0240416 -0.0230603 -0.0220598 -0.0210401 -0.020001 -0.0189506 -0.0178967 -0.0168392 -0.0157782 -0.0147226 -0.0136813 -0.0126543 -0.0116415 -0.0106517 -0.00969341 -0.00876667 -0.00787149 -0.00701478 -0.00620346 -0.00543753 -0.00471699 -0.00404583 -0.00342804 -0.00286362 -0.00235256 -0.00189505 -0.00149126 -0.0011412 -0.000844856 -0.000597754 -0.000395411 -0.000237825 -0.000124997 -4.76007e-05 3.68919e-06 2.8873e-05 2.79507e-05 1.57223e-05 6.98767e-06 1.74692e-06 0 0 -1.46927e-06 -5.87707e-06 -1.32234e-05 -2.35083e-05 -5.2368e-05 -0.000115439 -0.000212721 -0.000344214 -0.000519976 -0.000750066 -0.00103448 -0.00137323 -0.00177014 -0.00222905 -0.00274996 -0.00333288 -0.00397609 -0.0046779 -0.00543829 -0.00625726 -0.0071287 -0.00804648 -0.00901059 -0.010021 -0.0110685 -0.0121438 -0.0132469 -0.0143777 -0.0155256 -0.0166799 -0.0178404 -0.0190073 -0.0201702 -0.0213188 -0.0224531 -0.0235732 -0.0246707 -0.0257373 -0.0267731 -0.0277779 -0.0287466 -0.0296737 -0.0305592 -0.0314031 -0.0322031 -0.0329569 -0.0336644 -0.0343256 -0.0349407 -0.0355097 -0.0360326 -0.0365093 -0.0369415 -0.0373304 -0.0376761 -0.0379785 -0.0382395 -0.0384605 -0.0386418 -0.0387831 -0.0388857 -0.0389505 -0.0389776 -0.0389669 -0.0389184 -0.0388322 -0.0387081 -0.0385462 -0.0383455 -0.038105 -0.0378247 -0.0375045 -0.0371431 -0.0367391 -0.0362924 -0.0358031 -0.0352702 -0.0346929 -0.0340711 -0.0334048 -0.0326947 -0.0319415 -0.031145 -0.0303054 -0.0294256 -0.0285087 -0.0275548 -0.0265637 -0.0255414 -0.0244938 -0.0234207 -0.0223222 -0.0212068 -0.0200826 -0.0189498 -0.0178083 -0.0166681 -0.0155389 -0.0144209 -0.013314 -0.0122281 -0.011173 -0.0101488 -0.00915541 -0.00820109 -0.00729398 -0.00643407 -0.00562137 -0.00486089 -0.00415762 -0.00351157 -0.00292274 -0.00239193 -0.00191996 -0.00150681 -0.0011525 -0.000852709 -0.000603129 -0.000403762 -0.000254606 -0.00014586 -6.77189e-05 -2.01836e-05 -3.25387e-06 -1.8303e-06 -8.13468e-07 -2.03367e-07 0 0 -4.42631e-06 -1.77052e-05 -3.98368e-05 -7.0821e-05 -0.000125974 -0.000220612 -0.000354735 -0.000528342 -0.000751662 -0.00103492 -0.00137811 -0.00178124 -0.00224758 -0.00278037 -0.00337963 -0.00404535 -0.00477482 -0.00556534 -0.0064169 -0.00732951 -0.0082957 -0.009308 -0.0103664 -0.0114709 -0.0126108 -0.0137753 -0.0149644 -0.0161781 -0.0174044 -0.0186312 -0.0198585 -0.0210864 -0.0223036 -0.023499 -0.0246726 -0.0258245 -0.0269461 -0.028029 -0.0290732 -0.0300786 -0.0310406 -0.0319542 -0.0328196 -0.0336367 -0.0344044 -0.0351215 -0.0357882 -0.0364043 -0.0369716 -0.0374917 -0.0379646 -0.0383904 -0.0387721 -0.0391127 -0.0394122 -0.0396707 -0.0398912 -0.0400765 -0.0402267 -0.0403418 -0.0404235 -0.0404736 -0.040492 -0.0404787 -0.0404337 -0.0403568 -0.0402481 -0.0401074 -0.0399332 -0.0397234 -0.0394781 -0.0391973 -0.0388783 -0.0385183 -0.0381172 -0.0376751 -0.0371895 -0.0366578 -0.0360801 -0.0354564 -0.0347858 -0.0340675 -0.0333014 -0.0324876 -0.031628 -0.0307247 -0.0297777 -0.0287869 -0.0277577 -0.0266957 -0.0256008 -0.024473 -0.023321 -0.0221535 -0.0209704 -0.0197718 -0.0185684 -0.017371 -0.0161798 -0.0149945 -0.0138265 -0.0126869 -0.0115757 -0.0104929 -0.009448 -0.00845064 -0.0075008 -0.00659847 -0.00574987 -0.00496122 -0.00423251 -0.00356374 -0.00295657 -0.00241267 -0.00193203 -0.00151466 -0.00115667 -0.000854185 -0.000607211 -0.000415744 -0.000269736 -0.000159136 -8.39436e-05 -4.41597e-05 -2.48398e-05 -1.10399e-05 -2.75998e-06 0 0 -8.05018e-06 -3.22007e-05 -7.24516e-05 -0.000128803 -0.000215743 -0.00034776 -0.000524854 -0.000747025 -0.00102441 -0.00136714 -0.00177522 -0.00224865 -0.00278983 -0.00340116 -0.00408265 -0.0048343 -0.00565214 -0.00653225 -0.00747461 -0.00847923 -0.00953711 -0.0106392 -0.0117856 -0.0129763 -0.0141989 -0.015441 -0.0167026 -0.0179839 -0.0192713 -0.0205515 -0.0218245 -0.0230903 -0.024337 -0.0255526 -0.0267372 -0.0278907 -0.0290048 -0.0300711 -0.0310895 -0.0320601 -0.032979 -0.0338423 -0.0346502 -0.0354024 -0.0360997 -0.0367425 -0.0373309 -0.0378649 -0.0383481 -0.0387845 -0.0391738 -0.0395163 -0.0398169 -0.0400808 -0.0403081 -0.0404986 -0.040657 -0.040788 -0.0408914 -0.0409672 -0.0410182 -0.0410467 -0.0410529 -0.0410367 -0.0409979 -0.0409363 -0.0408519 -0.0407448 -0.040612 -0.0404508 -0.0402611 -0.040043 -0.039792 -0.0395036 -0.0391777 -0.0388145 -0.0384093 -0.0379576 -0.0374594 -0.0369147 -0.0363207 -0.0356745 -0.0349763 -0.0342258 -0.0334238 -0.0325707 -0.0316664 -0.030711 -0.0297092 -0.0286656 -0.0275804 -0.0264534 -0.0252934 -0.0241093 -0.022901 -0.0216685 -0.0204235 -0.0191776 -0.0179308 -0.0166831 -0.0154471 -0.0142352 -0.0130475 -0.0118839 -0.0107555 -0.00967345 -0.00863771 -0.00764829 -0.00671279 -0.00583883 -0.00502642 -0.00427556 -0.00358897 -0.0029694 -0.00241685 -0.00193132 -0.00150963 -0.00114858 -0.000848172 -0.000608411 -0.000419229 -0.000270561 -0.000162407 -9.47668e-05 -5.33063e-05 -2.36917e-05 -5.92293e-06 0 0 -1.23409e-05 -4.93635e-05 -0.000111068 -0.000197454 -0.000321675 -0.000496883 -0.000723078 -0.00100026 -0.00133822 -0.00174673 -0.0022258 -0.00277544 -0.00339689 -0.00409142 -0.00485903 -0.00569972 -0.00660806 -0.00757863 -0.00861142 -0.00970643 -0.0108529 -0.0120402 -0.0132683 -0.0145371 -0.0158327 -0.0171409 -0.0184617 -0.0197951 -0.0211264 -0.0224408 -0.0237384 -0.0250191 -0.0262703 -0.0274795 -0.0286467 -0.0297719 -0.0308469 -0.0318637 -0.0328222 -0.0337225 -0.034562 -0.0353381 -0.0360509 -0.0367004 -0.0372891 -0.0378199 -0.0382926 -0.0387073 -0.0390704 -0.039388 -0.0396602 -0.039887 -0.040076 -0.0402349 -0.0403636 -0.0404622 -0.0405371 -0.040595 -0.0406358 -0.0406595 -0.0406697 -0.04067 -0.0406603 -0.0406408 -0.040611 -0.0405706 -0.0405197 -0.0404582 -0.0403821 -0.0402872 -0.0401737 -0.0400416 -0.0398842 -0.039695 -0.039474 -0.0392213 -0.0389297 -0.0385923 -0.0382089 -0.0377797 -0.0372994 -0.0367627 -0.0361696 -0.0355202 -0.0348129 -0.0340465 -0.0332209 -0.0323361 -0.0313958 -0.0304035 -0.0293594 -0.0282633 -0.0271239 -0.0259501 -0.0247416 -0.0234986 -0.0222334 -0.0209586 -0.019674 -0.0183798 -0.0170898 -0.0158178 -0.0145641 -0.0133284 -0.0121236 -0.0109624 -0.0098448 -0.00877081 -0.00774963 -0.00679047 -0.00589332 -0.00505819 -0.00428912 -0.00359015 -0.00296128 -0.0024025 -0.00191159 -0.00148631 -0.00112665 -0.000832606 -0.000594339 -0.000401995 -0.000255574 -0.000155075 -8.72298e-05 -3.87688e-05 -9.6922e-06 0 0 -1.72928e-05 -6.91714e-05 -0.000155636 -0.000276685 -0.000443597 -0.000667646 -0.000948832 -0.00128716 -0.00169175 -0.00217175 -0.00272715 -0.00335796 -0.00406396 -0.00484495 -0.00570092 -0.00663187 -0.00763063 -0.00869001 -0.00981002 -0.0109906 -0.0122192 -0.0134831 -0.0147822 -0.0161167 -0.0174705 -0.0188277 -0.0201884 -0.0215525 -0.0229038 -0.0242264 -0.0255201 -0.0267849 -0.0280078 -0.0291757 -0.0302885 -0.0313462 -0.0323414 -0.0332665 -0.0341215 -0.0349064 -0.0356205 -0.0362628 -0.0368333 -0.0373322 -0.0377647 -0.0381361 -0.0384465 -0.0386958 -0.0388935 -0.039049 -0.0391623 -0.0392334 -0.0392731 -0.0392918 -0.0392897 -0.0392666 -0.0392316 -0.0391935 -0.0391522 -0.0391079 -0.0390652 -0.039029 -0.0389992 -0.0389759 -0.0389586 -0.0389468 -0.0389405 -0.0389397 -0.0389389 -0.0389325 -0.0389206 -0.0389032 -0.0388711 -0.0388154 -0.0387361 -0.0386331 -0.0384964 -0.0383158 -0.0380915 -0.0378233 -0.037503 -0.0371224 -0.0366815 -0.0361803 -0.0356149 -0.0349815 -0.0342801 -0.0335108 -0.0326756 -0.0317767 -0.0308142 -0.029788 -0.0287064 -0.0275779 -0.0264024 -0.0251799 -0.0239234 -0.0226463 -0.0213483 -0.0200296 -0.0187055 -0.0173913 -0.016087 -0.0147927 -0.0135229 -0.012292 -0.0111003 -0.0099475 -0.00884478 -0.00780312 -0.00682252 -0.00590297 -0.00505009 -0.00426947 -0.00356113 -0.00292505 -0.00236026 -0.00186575 -0.00144154 -0.00108762 -0.000794628 -0.0005532 -0.000363336 -0.000225036 -0.000126583 -5.6259e-05 -1.40648e-05 0 0 -2.29005e-05 -9.16019e-05 -0.000206104 -0.000366408 -0.000581336 -0.000859713 -0.00120154 -0.00160682 -0.00208367 -0.00264025 -0.00327655 -0.00399257 -0.00478625 -0.00565555 -0.00660048 -0.00762101 -0.00870792 -0.00985196 -0.0110531 -0.0123114 -0.013612 -0.0149399 -0.0162953 -0.0176781 -0.0190704 -0.0204543 -0.0218297 -0.0231967 -0.0245378 -0.0258353 -0.0270894 -0.0282999 -0.0294536 -0.0305368 -0.0315496 -0.0324921 -0.0333576 -0.0341395 -0.0348378 -0.0354526 -0.0359854 -0.0364374 -0.0368088 -0.0370996 -0.0373183 -0.0374737 -0.0375656 -0.0375942 -0.0375726 -0.0375142 -0.0374188 -0.0372866 -0.0371317 -0.0369686 -0.0367971 -0.0366173 -0.0364409 -0.0362795 -0.0361332 -0.0360019 -0.0358919 -0.0358094 -0.0357544 -0.0357269 -0.0357262 -0.0357517 -0.0358034 -0.0358813 -0.0359781 -0.0360864 -0.0362064 -0.036338 -0.0364691 -0.0365877 -0.0366939 -0.0367875 -0.036855 -0.0368824 -0.0368698 -0.0368172 -0.0367127 -0.0365443 -0.0363121 -0.0360161 -0.0356493 -0.0352049 -0.034683 -0.0340834 -0.0334065 -0.0326524 -0.0318211 -0.0309127 -0.0299348 -0.0288951 -0.0277935 -0.0266302 -0.0254187 -0.0241728 -0.0228924 -0.0215776 -0.0202452 -0.0189119 -0.0175779 -0.016243 -0.0149239 -0.013637 -0.0123823 -0.0111598 -0.00998262 -0.0088638 -0.00780333 -0.00680121 -0.00586492 -0.00500192 -0.00421222 -0.00349581 -0.0028533 -0.00228528 -0.00179177 -0.00137275 -0.00101966 -0.000723937 -0.000485585 -0.000304601 -0.000171338 -7.61502e-05 -1.90375e-05 0 0 -2.91638e-05 -0.000116655 -0.000262474 -0.000466621 -0.000734892 -0.00107309 -0.0014812 -0.00195924 -0.00251399 -0.00315224 -0.003874 -0.00467926 -0.00556376 -0.00652324 -0.0075577 -0.00866714 -0.00983993 -0.0110645 -0.0123407 -0.0136687 -0.0150311 -0.0164107 -0.0178075 -0.0192215 -0.0206325 -0.0220206 -0.0233857 -0.0247279 -0.0260282 -0.0272676 -0.0284463 -0.0295642 -0.0306076 -0.031563 -0.0324303 -0.0332095 -0.0338953 -0.0344826 -0.0349712 -0.0353611 -0.0356567 -0.0358621 -0.0359774 -0.0360025 -0.0359501 -0.0358326 -0.0356501 -0.0354027 -0.0351079 -0.0347836 -0.0344298 -0.0340464 -0.0336521 -0.0332653 -0.032886 -0.0325142 -0.0321649 -0.0318531 -0.0315786 -0.0313416 -0.0311498 -0.0310113 -0.0309259 -0.0308937 -0.0309139 -0.0309855 -0.0311085 -0.031283 -0.0314996 -0.0317489 -0.0320311 -0.032346 -0.0326781 -0.0330119 -0.0333474 -0.0336846 -0.0340055 -0.0342919 -0.0345439 -0.0347615 -0.0349284 -0.0350284 -0.0350614 -0.0350275 -0.0349161 -0.0347168 -0.0344294 -0.0340541 -0.0335885 -0.0330306 -0.0323802 -0.0316374 -0.0308089 -0.0299015 -0.028915 -0.0278496 -0.0267193 -0.0255382 -0.0243064 -0.0230238 -0.0217089 -0.0203798 -0.0190366 -0.0176794 -0.0163267 -0.0149972 -0.0136908 -0.0124077 -0.0111631 -0.00997249 -0.00883574 -0.00775291 -0.00673362 -0.00578751 -0.00491456 -0.00411479 -0.00339073 -0.00274491 -0.00217732 -0.00168798 -0.00126943 -0.000914207 -0.000622321 -0.000393769 -0.000221495 -9.84423e-05 -2.46106e-05 0 0 -3.60828e-05 -0.000144331 -0.000324745 -0.000577324 -0.000904265 -0.00130776 -0.00178782 -0.00234443 -0.00298269 -0.00370772 -0.0045195 -0.00541803 -0.00639648 -0.007448 -0.00857259 -0.00977024 -0.0110267 -0.0123275 -0.0136728 -0.0150625 -0.0164768 -0.0178956 -0.0193189 -0.0207467 -0.0221568 -0.0235267 -0.0248564 -0.0261459 -0.027375 -0.0285233 -0.0295909 -0.0305776 -0.03147 -0.0322542 -0.0329303 -0.0334984 -0.0339548 -0.0342958 -0.0345215 -0.0346319 -0.0346345 -0.0345369 -0.0343391 -0.034041 -0.0336599 -0.0332129 -0.0327 -0.0321211 -0.0314993 -0.0308573 -0.0301952 -0.029513 -0.0288341 -0.0281818 -0.0275562 -0.0269573 -0.0264037 -0.0259141 -0.0254885 -0.0251268 -0.0248389 -0.0246345 -0.0245137 -0.0244764 -0.0245216 -0.024648 -0.0248558 -0.0251448 -0.0255035 -0.0259201 -0.0263947 -0.0269272 -0.0274982 -0.028088 -0.0286968 -0.0293244 -0.029948 -0.0305444 -0.0311138 -0.0316562 -0.0321502 -0.0325745 -0.0329293 -0.0332145 -0.0334154 -0.033517 -0.0335194 -0.0334227 -0.0332217 -0.0329113 -0.0324914 -0.0319621 -0.0313289 -0.0305971 -0.0297668 -0.028838 -0.0278251 -0.0267425 -0.0255902 -0.0243683 -0.0230965 -0.0217948 -0.0204632 -0.0191017 -0.0177312 -0.0163726 -0.015026 -0.0136913 -0.0123864 -0.0111292 -0.00991977 -0.00875807 -0.00765619 -0.00662622 -0.00566815 -0.00478199 -0.00397254 -0.00324462 -0.00259821 -0.00203333 -0.001543