<?xml version="1.0"?> 
<VTKFile type="StructuredGrid" version="0.1"> 
<StructuredGrid WholeExtent="0 128 0 128 0 0"> 
<Piece Extent="0 128 0 128 0 0"> 
<PointData>
<DataArray type="Float32" Name="u" format="ascii" NumberOfComponents="1"> 
0 0 0 0 0 0 0 0 0 0 0 0 0 0 0 0 0 0 0 0 0 0 0 0 0 0 0 0 0 0 0 0 0 0 0 0 0 0 0 0 0 0 0 0 0 0 0 0 0 0 0 0 0 0 0 0 0 0 0 0 0 0 0 0 0 0 0 0 0 0 0 0 0 0 0 0 0 0 0 0 0 0 0 0 0 0 0 0 0 0 0 0 0 0 0 0 0 0 0 0 0 0 0 0 0 0 0 0 0 0 0 0 0 0 0 0 0 0 0 0 0 0 0 0 0 0 0 0 0 0 -6.28459e-08 -2.51384e-07 -5.65613e-07 -1.00553e-06 -1.50282e-06 -1.98915e-06 -2.46452e-06 -2.92893e-06 -3.3374e-06 -3.64492e-06 -3.85152e-06 -3.95718e-06 -3.9233e-06 -3.71129e-06 -3.32114e-06 -2.75286e-06 -1.98949e-06 -1.0141e-06 1.7332e-07 1.57277e-06 3.1768e-06 4.97797e-06 6.97627e-06 9.17171e-06 1.15377e-05 1.40475e-05 1.67013e-05 1.94989e-05 2.24089e-05 2.53997e-05 2.84713e-05 3.16237e-05 3.48353e-05 3.80847e-05 4.13717e-05 4.46965e-05 4.80523e-05 5.14327e-05 5.48376e-05 5.8267e-05 6.17203e-05 6.5197e-05 6.8697e-05 7.22204e-05 7.57559e-05 7.92923e-05 8.28296e-05 8.63679e-05 8.98734e-05 9.33122e-05 9.66844e-05 9.99899e-05 0.000103175 0.000106185 0.000109021 0.000111683 0.000114113 0.000116255 0.000118109 0.000119674 0.000120916 0.000121796 0.000122316 0.000122475 0.000122273 0.000121711 0.000120789 0.000119506 0.0001179 0.000116008 0.000113829 0.000111363 0.000108667 0.000105799 0.000102759 9.95465e-05 9.62157e-05 9.28207e-05 8.93618e-05 8.58387e-05 8.22855e-05 7.87361e-05 7.51904e-05 7.16485e-05 6.81216e-05 6.46211e-05 6.11468e-05 5.76989e-05 5.42779e-05 5.08843e-05 4.75182e-05 4.41796e-05 4.08748e-05 3.76102e-05 3.43858e-05 3.12015e-05 2.80785e-05 2.50377e-05 2.20791e-05 1.92027e-05 1.64393e-05 1.38196e-05 1.13436e-05 9.01143e-06 6.84872e-06 4.8813e-06 3.10917e-06 1.53232e-06 1.57615e-07 -1.00811e-06 -1.96484e-06 -2.71258e-06 -3.2684e-06 -3.64933e-06 -3.85539e-06 -3.88658e-06 -3.781e-06 -3.57675e-06 -3.27384e-06 -2.87227e-06 -2.41616e-06 -1.94961e-06 -1.47264e-06 -9.85234e-07 -5.54194e-07 -2.46309e-07 -6.15772e-08 0 0 -2.51384e-07 -1.00553e-06 -2.26245e-06 -4.02214e-06 -6.01129e-06 -7.95661e-06 -9.85809e-06 -1.17157e-05 -1.33496e-05 -1.45797e-05 -1.54061e-05 -1.58287e-05 -1.56932e-05 -1.48452e-05 -1.32846e-05 -1.10114e-05 -7.95798e-06 -4.05641e-06 6.93279e-07 6.29108e-06 1.27072e-05 1.99119e-05 2.79051e-05 3.66868e-05 4.61507e-05 5.61901e-05 6.68051e-05 7.79957e-05 8.96357e-05 0.000101599 0.000113885 0.000126495 0.000139341 0.000152339 0.000165487 0.000178786 0.000192209 0.000205731 0.00021935 0.000233068 0.000246881 0.000260788 0.000274788 0.000288881 0.000303023 0.000317169 0.000331319 0.000345472 0.000359493 0.000373249 0.000386737 0.00039996 0.0004127 0.000424741 0.000436085 0.000446731 0.000456451 0.000465019 0.000472434 0.000478697 0.000483663 0.000487185 0.000489264 0.000489899 0.000489093 0.000486845 0.000483156 0.000478026 0.000471602 0.000464031 0.000455314 0.000445451 0.000434669 0.000423197 0.000411037 0.000398186 0.000384863 0.000371283 0.000357447 0.000343355 0.000329142 0.000314944 0.000300762 0.000286594 0.000272486 0.000258484 0.000244587 0.000230796 0.000217112 0.000203537 0.000190073 0.000176718 0.000163499 0.000150441 0.000137543 0.000124806 0.000112314 0.000100151 8.83162e-05 7.68107e-05 6.57571e-05 5.52783e-05 4.53746e-05 3.60457e-05 2.73949e-05 1.95252e-05 1.24367e-05 6.1293e-06 6.30462e-07 -4.03242e-06 -7.85935e-06 -1.08503e-05 -1.30736e-05 -1.45973e-05 -1.54216e-05 -1.55463e-05 -1.5124e-05 -1.4307e-05 -1.30954e-05 -1.14891e-05 -9.66462e-06 -7.79844e-06 -5.89055e-06 -3.94094e-06 -2.21678e-06 -9.85234e-07 -2.46309e-07 0 0 -5.65613e-07 -2.26245e-06 -5.09052e-06 -9.04981e-06 -1.35254e-05 -1.79024e-05 -2.21807e-05 -2.63604e-05 -3.00366e-05 -3.28043e-05 -3.46637e-05 -3.56146e-05 -3.53097e-05 -3.34016e-05 -2.98903e-05 -2.47757e-05 -1.79054e-05 -9.12691e-06 1.55988e-06 1.41549e-05 2.85912e-05 4.48017e-05 6.27864e-05 8.25454e-05 0.000103839 0.000126428 0.000150311 0.00017549 0.00020168 0.000228597 0.000256242 0.000284613 0.000313518 0.000342762 0.000372345 0.000402268 0.000432471 0.000462894 0.000493538 0.000524403 0.000555483 0.000586773 0.000618273 0.000649983 0.000681803 0.000713631 0.000745467 0.000777311 0.00080886 0.00083981 0.000870159 0.000899909 0.000928574 0.000955668 0.000981191 0.00100514 0.00102701 0.00104629 0.00106298 0.00107707 0.00108824 0.00109617 0.00110084 0.00110227 0.00110046 0.0010954 0.0010871 0.00107556 0.0010611 0.00104407 0.00102446 0.00100226 0.000978005 0.000952194 0.000924832 0.000895919 0.000865941 0.000835387 0.000804256 0.000772549 0.00074057 0.000708625 0.000676714 0.000644836 0.000613095 0.00058159 0.000550321 0.00051929 0.000488501 0.000457959 0.000427664 0.000397617 0.000367873 0.000338492 0.000309472 0.000280814 0.000252706 0.000225339 0.000198712 0.000172824 0.000147953 0.000124376 0.000102093 8.11028e-05 6.16385e-05 4.39317e-05 2.79825e-05 1.37909e-05 1.41854e-06 -9.07295e-06 -1.76835e-05 -2.44132e-05 -2.94156e-05 -3.2844e-05 -3.46985e-05 -3.49792e-05 -3.4029e-05 -3.21908e-05 -2.94646e-05 -2.58504e-05 -2.17454e-05 -1.75465e-05 -1.32537e-05 -8.86711e-06 -4.98775e-06 -2.21678e-06 -5.54194e-07 0 0 -1.00553e-06 -4.02214e-06 -9.04981e-06 -1.60886e-05 -2.40452e-05 -3.18264e-05 -3.94323e-05 -4.68629e-05 -5.33983e-05 -5.83188e-05 -6.16243e-05 -6.33148e-05 -6.27728e-05 -5.93806e-05 -5.31383e-05 -4.40457e-05 -3.18319e-05 -1.62256e-05 2.77312e-06 2.51643e-05 5.08288e-05 7.96475e-05 0.00011162 0.000146747 0.000184603 0.00022476 0.00026722 0.000311983 0.000358543 0.000406395 0.000455541 0.000505979 0.000557365 0.000609355 0.000661947 0.000715143 0.000768837 0.000822923 0.000877401 0.000932272 0.000987525 0.00104315 0.00109915 0.00115553 0.00121209 0.00126868 0.00132527 0.00138189 0.00143797 0.00149299 0.00154695 0.00159984 0.0016508 0.00169897 0.00174434 0.00178692 0.0018258 0.00186007 0.00188974 0.00191479 0.00193465 0.00194874 0.00195705 0.0019596 0.00195637 0.00194738 0.00193262 0.0019121 0.00188641 0.00185613 0.00182126 0.0017818 0.00173868 0.00169279 0.00164415 0.00159274 0.00153945 0.00148513 0.00142979 0.00137342 0.00131657 0.00125978 0.00120305 0.00114638 0.00108995 0.00103394 0.000978349 0.000923182 0.000868446 0.000814149 0.000760292 0.000706874 0.000653997 0.000601763 0.000550172 0.000499225 0.000449256 0.000400603 0.000353265 0.000307243 0.000263028 0.000221113 0.000181498 0.000144183 0.00010958 7.81008e-05 4.97467e-05 2.45172e-05 2.52185e-06 -1.61297e-05 -3.14374e-05 -4.34013e-05 -5.22943e-05 -5.83893e-05 -6.16863e-05 -6.21853e-05 -6.04959e-05 -5.7228e-05 -5.23815e-05 -4.59564e-05 -3.86585e-05 -3.11938e-05 -2.35622e-05 -1.57638e-05 -8.86711e-06 -3.94094e-06 -9.85234e-07 0 0 -1.50473e-06 -6.01891e-06 -1.35425e-05 -2.40756e-05 -3.59512e-05 -4.7502e-05 -5.87283e-05 -6.96299e-05 -7.91198e-05 -8.61106e-05 -9.06024e-05 -9.25953e-05 -9.11799e-05 -8.54473e-05 -7.53974e-05 -6.10302e-05 -4.19793e-05 -1.78782e-05 1.12731e-05 4.54746e-05 8.4497e-05 0.000128111 0.000176317 0.000229115 0.000285824 0.000345765 0.000408936 0.000475339 0.000544198 0.000614739 0.000686962 0.000760866 0.000835943 0.000911687 0.000988097 0.00106517 0.00114279 0.00122081 0.00129924 0.00137808 0.00145736 0.0015371 0.0016173 0.00169797 0.00177887 0.00185979 0.00194074 0.0020217 0.00210192 0.00218064 0.00225786 0.00233359 0.00240658 0.00247559 0.00254062 0.00260168 0.00265745 0.00270662 0.00274918 0.00278515 0.00281366 0.00283389 0.00284584 0.00284949 0.00284486 0.00283195 0.00281077 0.00278131 0.00274443 0.00270098 0.00265095 0.00259435 0.00253251 0.00246673 0.00239702 0.00232338 0.00224706 0.0021693 0.00209009 0.00200944 0.00192812 0.00184687 0.00176571 0.00168463 0.00160386 0.00152362 0.00144391 0.00136473 0.00128605 0.00120786 0.00113015 0.00105291 0.00097628 0.000900376 0.000825198 0.000750748 0.000677521 0.000606012 0.000536222 0.00046815 0.000402553 0.000340186 0.00028105 0.000225144 0.000173128 0.000125662 8.27469e-05 4.43814e-05 1.07801e-05 -1.78427e-05 -4.1487e-05 -6.01529e-05 -7.42102e-05 -8.40285e-05 -8.9608e-05 -9.09487e-05 -8.89482e-05 -8.45044e-05 -7.76172e-05 -6.82866e-05 -5.7579e-05 -4.65605e-05 -3.52312e-05 -2.35911e-05 -1.327e-05 -5.89777e-06 -1.47444e-06 0 0 -1.99677e-06 -7.98708e-06 -1.79709e-05 -3.19483e-05 -4.76239e-05 -6.27024e-05 -7.71838e-05 -9.10681e-05 -0.000102886 -0.000111167 -0.000115913 -0.000117122 -0.000113629 -0.000104267 -8.90366e-05 -6.79379e-05 -4.05895e-05 -6.61016e-06 3.4e-05 8.1241e-05 0.000134673 0.000193855 0.000258787 0.00032947 0.000404886 0.000484018 0.000566864 0.000653426 0.000742623 0.000833375 0.000925683 0.00101955 0.00111431 0.00120933 0.0013046 0.00140012 0.0014958 0.00159155 0.00168737 0.00178325 0.00187935 0.0019758 0.0020726 0.00216976 0.00226711 0.00236447 0.00246185 0.00255923 0.00265577 0.00275057 0.00284365 0.00293499 0.00302311 0.00310649 0.00318513 0.00325904 0.0033266 0.00338618 0.00343779 0.00348143 0.00351606 0.00354062 0.00355513 0.00355957 0.00355396 0.0035383 0.00351259 0.00347684 0.00343209 0.0033794 0.00331877 0.0032502 0.00317532 0.00309575 0.0030115 0.00292256 0.00283044 0.00273666 0.00264121 0.0025441 0.0024462 0.00234838 0.00225066 0.00215302 0.00205565 0.00195872 0.00186223 0.00176618 0.00167043 0.00157485 0.00147942 0.00138415 0.00128913 0.00119445 0.0011001 0.0010061 0.000913061 0.000821639 0.000731828 0.00064363 0.000558099 0.000476291 0.000398206 0.000323844 0.000254194 0.000190247 0.000132001 7.94569e-05 3.30331e-05 -6.85198e-06 -4.01985e-05 -6.70064e-05 -8.76633e-05 -0.000102557 -0.000111687 -0.000115054 -0.000113809 -0.000109106 -0.000100943 -8.93211e-05 -7.56819e-05 -6.14668e-05 -4.66759e-05 -3.13092e-05 -1.76114e-05 -7.82731e-06 -1.95683e-06 0 0 -2.48166e-06 -9.92665e-06 -2.2335e-05 -3.97066e-05 -5.90635e-05 -7.74276e-05 -9.47989e-05 -0.000111177 -0.000124696 -0.000133489 -0.000137555 -0.000136894 -0.000130119 -0.000115839 -9.40558e-05 -6.47687e-05 -2.76624e-05 1.75784e-05 7.09537e-05 0.000132464 0.000201356 0.000276878 0.000359031 0.000447814 0.000541789 0.000639519 0.000741004 0.000846243 0.000953817 0.0010623 0.00117171 0.00128202 0.00139247 0.00150228 0.00161145 0.00171999 0.00182788 0.00193514 0.00204177 0.00214777 0.00225348 0.00235924 0.00246505 0.00257092 0.00267681 0.00278271 0.00288861 0.0029945 0.00309953 0.00320279 0.0033043 0.00340406 0.0035004 0.00359167 0.00367787 0.003759 0.00383324 0.00389876 0.00395556 0.00400364 0.00404183 0.00406892 0.00408492 0.00408984 0.00408367 0.00406642 0.00403809 0.00399868 0.00394939 0.0038914 0.00382472 0.00374935 0.00366712 0.00357987 0.00348758 0.00339027 0.00328959 0.00318722 0.00308315 0.00297738 0.0028708 0.0027643 0.00265788 0.00255154 0.00244532 0.00233924 0.00223331 0.00212754 0.00202158 0.0019151 0.00180811 0.00170059 0.00159255 0.00148398 0.00137489 0.00126527 0.00115588 0.00104748 0.000940084 0.000833681 0.000729666 0.000629427 0.000532966 0.000440283 0.000352778 0.000271853 0.000197508 0.000129744 6.92809e-05 1.68424e-05 -2.75718e-05 -6.39618e-05 -9.26538e-05 -0.000113974 -0.000127923 -0.0001345 -0.000135079 -0.000131032 -0.000122359 -0.00010906 -9.29673e-05 -7.59128e-05 -5.78965e-05 -3.89183e-05 -2.18915e-05 -9.72957e-06 -2.43239e-06 0 0 -2.95941e-06 -1.18376e-05 -2.66347e-05 -4.73505e-05 -7.02699e-05 -9.16776e-05 -0.000111574 -0.000129958 -0.000144551 -0.000153075 -0.000155529 -0.000151913 -0.00014065 -0.000120164 -9.0455e-05 -5.15227e-05 -3.19825e-06 5.46875e-05 0.000122134 0.000199142 0.000284547 0.000377182 0.000477048 0.000584145 0.000696532 0.000812269 0.000931355 0.00105379 0.00117778 0.00130152 0.00142503 0.00154829 0.00167042 0.00179055 0.00190866 0.00202477 0.00213902 0.00225159 0.00236246 0.00247164 0.00257976 0.00268742 0.00279465 0.00290143 0.00300797 0.0031145 0.00322101 0.0033275 0.0034332 0.0035373 0.00363983 0.00374078 0.00383844 0.00393112 0.00401883 0.00410155 0.00417737 0.00424435 0.00430248 0.00435178 0.00439097 0.00441879 0.00443523 0.00444029 0.00443399 0.00441631 0.00438726 0.00434684 0.00429632 0.00423697 0.0041688 0.0040918 0.00400791 0.00391907 0.00382527 0.00372651 0.00362452 0.00352098 0.00341591 0.00330929 0.00320194 0.00309464 0.00298739 0.0028802 0.00277286 0.00266518 0.00255717 0.00244881 0.0023395 0.00222864 0.00211621 0.00200223 0.00188654 0.00176898 0.00164955 0.00152826 0.00140596 0.00128354 0.00116099 0.0010383 0.000917253 0.000799596 0.000685332 0.000574461 0.000468879 0.000370482 0.00027927 0.000195242 0.000119523 5.32405e-05 -3.60697e-06 -5.10191e-05 -8.91817e-05 -0.000118281 -0.000138316 -0.000149289 -0.000152757 -0.000150282 -0.000141864 -0.000127503 -0.000109435 -8.98985e-05 -6.88928e-05 -4.64182e-05 -2.61102e-05 -1.16045e-05 -2.90114e-06 0 0 -3.38604e-06 -1.35442e-05 -3.04744e-05 -5.41767e-05 -8.01801e-05 -0.000104014 -0.000125677 -0.000145171 -0.000159815 -0.000166931 -0.000166518 -0.000158577 -0.000141421 -0.000113362 -7.44005e-05 -2.45369e-05 3.61263e-05 0.000107486 0.000189543 0.000282297 0.00038404 0.000493066 0.000609373 0.000732963 0.000861308 0.000991884 0.00112469 0.00125972 0.00139481 0.00152776 0.00165858 0.00178727 0.00191288 0.0020345 0.00215212 0.00226573 0.00237573 0.00248254 0.00258614 0.00268655 0.00278475 0.00288176 0.00297757 0.00307219 0.00316618 0.00326011 0.003354 0.00344782 0.00354107 0.0036332 0.00372422 0.00381413 0.00390139 0.00398443 0.00406327 0.0041379 0.00420648 0.00426716 0.00431994 0.00436482 0.00440056 0.00442594 0.00444096 0.00444561 0.0044399 0.00442382 0.00439737 0.00436055 0.00431459 0.00426071 0.00419893 0.00412923 0.00405347 0.0039735 0.00388932 0.00380092 0.00370987 0.00361773 0.00352449 0.00343016 0.00333528 0.0032404 0.00314551 0.00305063 0.0029552 0.00285868 0.00276106 0.00266235 0.00256157 0.00245773 0.00235085 0.00224091 0.00212753 0.00201032 0.00188928 0.00176441 0.00163663 0.00150687 0.00137513 0.0012414 0.00110784 0.000976582 0.000847627 0.000720976 0.000599101 0.000484474 0.000377094 0.000276963 0.000185736 0.000105071 3.4967e-05 -2.45755e-05 -7.34787e-05 -0.000111665 -0.000139134 -0.000155885 -0.000163591 -0.000163921 -0.000156876 -0.000142456 -0.000123292 -0.000102014 -7.8624e-05 -5.31204e-05 -2.98802e-05 -1.32801e-05 -3.32002e-06 0 0 -3.71761e-06 -1.48704e-05 -3.34585e-05 -5.94818e-05 -8.77309e-05 -0.000112996 -0.000135279 -0.000154577 -0.000167852 -0.000172062 -0.000167207 -0.000153288 -0.000128628 -9.15517e-05 -4.20583e-05 1.98519e-05 9.36343e-05 0.000178744 0.000275182 0.000382947 0.000499632 0.00062283 0.000752542 0.000888766 0.00102831 0.00116798 0.00130778 0.0014477 0.0015852 0.00171773 0.00184528 0.00196787 0.00208458 0.00219453 0.00229771 0.00239412 0.00248451 0.00256965 0.00264953 0.00272416 0.00279503 0.00286364 0.00292999 0.00299409 0.003057 0.0031198 0.00318248 0.00324505 0.00330744 0.00336958 0.00343147 0.00349311 0.00355338 0.00361116 0.00366645 0.00371925 0.00376807 0.00381142 0.00384931 0.00388173 0.00390767 0.0039261 0.00393704 0.00394047 0.0039364 0.0039248 0.00390568 0.00387904 0.00384588 0.00380721 0.00376303 0.00371333 0.00365959 0.00360332 0.00354449 0.00348312 0.00342034 0.00335727 0.00329393 0.0032303 0.00316649 0.00310258 0.00303858 0.00297448 0.00290924 0.00284184 0.00277227 0.00270053 0.00262516 0.00254468 0.00245911 0.00236845 0.00227194 0.00216888 0.00205924 0.00194304 0.00182117 0.00169452 0.00156309 0.00142688 0.00128841 0.00115017 0.00101218 0.000874425 0.000740044 0.000612167 0.000490792 0.00037592 0.000269895 0.000175062 9.14209e-05 1.89714e-05 -4.17769e-05 -9.03144e-05 -0.000126641 -0.000150757 -0.000164326 -0.00016901 -0.00016481 -0.000151725 -0.000132744 -0.000110852 -8.60492e-05 -5.83363e-05 -3.28142e-05 -1.45841e-05 -3.64602e-06 0 0 -3.95411e-06 -1.58165e-05 -3.5587e-05 -6.32658e-05 -9.29225e-05 -0.000118627 -0.000140378 -0.000158177 -0.000168661 -0.000168467 -0.000157595 -0.000136045 -0.000102273 -5.4734e-05 6.57145e-06 8.16437e-05 0.000169326 0.000268461 0.00037905 0.000501092 0.000631322 0.000766476 0.000906553 0.00105155 0.00119754 0.00134056 0.00148062 0.00161771 0.00174895 0.00187142 0.00198514 0.0020901 0.00218552 0.00227064 0.00234544 0.00240995 0.00246536 0.00251293 0.00255263 0.00258448 0.00261059 0.00263307 0.00265192 0.00266714 0.00268045 0.00269356 0.00270647 0.00271918 0.0027323 0.00274643 0.00276156 0.0027777 0.00279443 0.00281132 0.00282837 0.00284558 0.00286212 0.00287711 0.00289058 0.00290251 0.00291228 0.00291927 0.00292346 0.00292487 0.00292347 0.00291925 0.00291219 0.00290232 0.00289021 0.00287647 0.00286109 0.00284409 0.00282628 0.00280852 0.0027908 0.00277311 0.0027559 0.0027396 0.00272421 0.00270972 0.00269557 0.00268119 0.00266658 0.00265173 0.00263499 0.00261468 0.0025908 0.00256335 0.00253027 0.00248949 0.00244102 0.00238484 0.00231979 0.00224466 0.00215945 0.00206417 0.00195959 0.00184649 0.00172488 0.00159474 0.00145895 0.00132037 0.00117898 0.00103481 0.00089171 0.000753561 0.000620362 0.000492112 0.000372 0.000263214 0.000165755 7.96217e-05 5.92386e-06 -5.42298e-05 -0.000100839 -0.000133904 -0.000154962 -0.000165549 -0.000165666 -0.000155311 -0.000137791 -0.00011641 -9.11684e-05 -6.20659e-05 -3.49121e-05 -1.55165e-05 -3.87912e-06 0 0 -4.09555e-06 -1.63822e-05 -3.686e-05 -6.55288e-05 -9.57547e-05 -0.000120904 -0.000140975 -0.00015597 -0.000162242 -0.000156146 -0.000137681 -0.000106848 -6.23543e-05 -2.90875e-06 7.14888e-05 0.000160838 0.000263201 0.000376637 0.000501148 0.000636732 0.00077911 0.000924002 0.00107141 0.00122133 0.00136899 0.00150961 0.00164321 0.00176977 0.00188606 0.00198886 0.00207815 0.00215395 0.00221569 0.00226281 0.00229532 0.00231321 0.00231828 0.00231236 0.00229544 0.00226751 0.00223143 0.00219004 0.00214334 0.00209133 0.00203651 0.00198139 0.00192596 0.00187023 0.00181567 0.00176376 0.00171451 0.00166791 0.00162452 0.00158489 0.00154902 0.00151691 0.00148863 0.00146425 0.00144376 0.00142717 0.00141441 0.00140543 0.00140023 0.00139881 0.00140113 0.00140716 0.00141692 0.00143038 0.00144757 0.00146848 0.00149313 0.00152151 0.00155353 0.0015891 0.00162822 0.00167089 0.00171657 0.00176472 0.00181533 0.00186842 0.00192253 0.00197623 0.00202952 0.00208241 0.00213244 0.00217719 0.00221664 0.00225081 0.0022769 0.00229215 0.00229655 0.00229011 0.00227106 0.00223766 0.0021899 0.00212778 0.00205188 0.00196279 0.00186048 0.00174498 0.00161947 0.00148716 0.00134805 0.00120213 0.0010541 0.000908657 0.000765805 0.000625539 0.000492051 0.000369527 0.000257969 0.000157376 6.96235e-05 -3.41089e-06 -6.17277e-05 -0.000105327 -0.0001355 -0.000153539 -0.000159443 -0.000153213 -0.000138434 -0.00011869 -9.39816e-05 -6.43092e-05 -3.61739e-05 -1.60773e-05 -4.01932e-06 0 0 -4.10024e-06 -1.6401e-05 -3.69021e-05 -6.56038e-05 -9.52424e-05 -0.000118554 -0.00013554 -0.000146199 -0.000146685 -0.000133152 -0.000105601 -6.40304e-05 -7.56499e-06 6.46722e-05 0.000152681 0.000256462 0.000373107 0.000499708 0.000636266 0.00078278 0.000933824 0.00108397 0.00123322 0.00138157 0.00152341 0.00165311 0.00177067 0.0018761 0.00196592 0.00203666 0.00208834 0.00212093 0.00213425 0.00212808 0.00210242 0.00205728 0.00199514 0.00191851 0.00182738 0.00172176 0.00160528 0.00148157 0.00135063 0.00121246 0.00107044 0.000927907 0.000784879 0.000641352 0.000499864 0.000362954 0.000230622 0.000102867 -1.84688e-05 -0.000131544 -0.000236359 -0.000332914 -0.000419871 -0.00049589 -0.000560972 -0.000615117 -0.000657579 -0.000687613 -0.000705218 -0.000710394 -0.000703187 -0.000683643 -0.000651763 -0.000607546 -0.000551813 -0.000485387 -0.000408267 -0.000320454 -0.000223322 -0.000118244 -5.22021e-06 0.000115749 0.000242834 0.000374205 0.000509862 0.000649804 0.000791546 0.000932598 0.00107296 0.00121264 0.00134833 0.00147677 0.00159794 0.00171185 0.00181495 0.00190369 0.00197807 0.0020381 0.00208134 0.00210538 0.00211022 0.00209586 0.00206253 0.00201048 0.00193971 0.00185022 0.00174545 0.00162884 0.0015004 0.00136012 0.00121354 0.0010662 0.000918103 0.000769239 0.000624932 0.000490504 0.000365954 0.000251281 0.000149314 6.28809e-05 -8.01927e-06 -6.33862e-05 -0.000104106 -0.000131066 -0.000144266 -0.000143706 -0.000133169 -0.000116442 -9.35228e-05 -6.44123e-05 -3.62319e-05 -1.61031e-05 -4.02577e-06 0 0 -3.9265e-06 -1.5706e-05 -3.53385e-05 -6.28239e-05 -9.04004e-05 -0.000110306 -0.00012254 -0.000127103 -0.000120075 -9.75361e-05 -5.94864e-05 -5.92572e-06 6.3403e-05 0.000148757 0.000250136 0.000367541 0.000496892 0.00063411 0.000779195 0.000932148 0.00108629 0.00123494 0.0013781 0.00151577 0.00164153 0.00174898 0.00183811 0.00190893 0.00195789 0.00198149 0.0019797 0.00195255 0.00190035 0.00182345 0.00172185 0.00159554 0.00144781 0.00128193 0.00109791 0.000895748 0.000679858 0.000454661 0.000220157 -2.36546e-05 -0.000272541 -0.000522271 -0.000772845 -0.00102426 -0.00127277 -0.00151461 -0.00174979 -0.0019783 -0.00219668 -0.00240142 -0.00259255 -0.00277004 -0.00293088 -0.00307201 -0.00319344 -0.00329516 -0.00337532 -0.00343209 -0.00346545 -0.00347541 -0.00346203 -0.00342537 -0.00336544 -0.00328223 -0.0031777 -0.00305379 -0.00291052 -0.00274787 -0.00256895 -0.00237683 -0.00217153 -0.00195304 -0.00172483 -0.00149037 -0.00124966 -0.0010027 -0.000753176 -0.000504792 -0.000257544 -1.14312e-05 0.000229407 0.000460831 0.000682841 0.000895438 0.00109431 0.00127514 0.00143793 0.00158268 0.00170621 0.00180534 0.00188006 0.00193037 0.001956 0.00195666 0.00193235 0.00188307 0.00181234 0.00172368 0.00161707 0.00149253 0.00135638 0.00121495 0.00106824 0.000916246 0.000765529 0.000622647 0.0004876 0.000360387 0.000244989 0.000145384 6.15735e-05 -6.44335e-06 -5.89471e-05 -9.62183e-05 -0.000118257 -0.000125063 -0.000120497 -0.000108418 -8.8826e-05 -6.17216e-05 -3.47184e-05 -1.54304e-05 -3.8576e-06 0 0 -3.57432e-06 -1.42973e-05 -3.21689e-05 -5.71892e-05 -8.12285e-05 -9.61573e-05 -0.000101976 -9.86834e-05 -8.24134e-05 -4.92985e-05 6.6136e-07 6.74662e-05 0.00015055 0.000249346 0.000363854 0.000494074 0.000634555 0.000779842 0.000929936 0.00108484 0.00123651 0.00137691 0.00150605 0.00162392 0.00172337 0.00179724 0.00184554 0.00186826 0.00186199 0.00182332 0.00175225 0.00164879 0.00151399 0.00134892 0.00115358 0.000927985 0.000676278 0.000402623 0.00010702 -0.000210532 -0.000544832 -0.000890682 -0.00124808 -0.00161703 -0.00199242 -0.00236915 -0.00274721 -0.00312661 -0.00350223 -0.00386893 -0.00422672 -0.0045756 -0.0049101 -0.00522474 -0.00551954 -0.00579448 -0.00604439 -0.00626411 -0.00645363 -0.00661295 -0.00673882 -0.00682799 -0.00688047 -0.00689624 -0.0068754 -0.00681803 -0.00672412 -0.00659368 -0.00643009 -0.00623673 -0.00601362 -0.00576074 -0.00548335 -0.00518667 -0.00487071 -0.00453548 -0.00418642 -0.003829 -0.00346322 -0.00308908 -0.00271164 -0.00233594 -0.001962 -0.0015898 -0.00122434 -0.00087063 -0.000528662 -0.000198437 0.000114972 0.000406491 0.000676122 0.000923863 0.00114568 0.00133752 0.00149941 0.00163133 0.00173229 0.00180131 0.0018384 0.00184354 0.00182016 0.00177167 0.00169807 0.00159936 0.00148261 0.0013549 0.00121621 0.00106656 0.000913841 0.000765957 0.000622908 0.000484694 0.000356647 0.000244099 0.000147051 6.55015e-05 -2.24325e-08 -4.89949e-05 -8.1416e-05 -9.72857e-05 -0.000100416 -9.46175e-05 -7.98913e-05 -5.62369e-05 -3.16332e-05 -1.40592e-05 -3.5148e-06 0 0 -3.04372e-06 -1.21749e-05 -2.73935e-05 -4.86995e-05 -6.77269e-05 -7.61094e-05 -7.38471e-05 -6.094e-05 -3.37e-05 1.15609e-05 7.48426e-05 0.000156145 0.000253875 0.000366438 0.000493834 0.000636063 0.000786096 0.000936904 0.00108849 0.00124085 0.00138448 0.00150989 0.00161707 0.00170602 0.00176891 0.00179788 0.00179295 0.00175409 0.00167821 0.00156217 0.00140599 0.00120966 0.000975161 0.000704489 0.000397642 5.46192e-05 -0.000319445 -0.000719416 -0.00114529 -0.00159708 -0.00206879 -0.00255446 -0.00305408 -0.00356765 -0.0040892 -0.00461272 -0.00513822 -0.00566571 -0.00618852 -0.00670001 -0.00720018 -0.00768903 -0.00815874 -0.00860151 -0.00901733 -0.00940621 -0.00976041 -0.0100722 -0.0103416 -0.0105685 -0.0107481 -0.0108753 -0.0109503 -0.0109729 -0.0109433 -0.0108616 -0.0107278 -0.0105419 -0.010309 -0.0100342 -0.00971757 -0.00935907 -0.00896652 -0.00854775 -0.00810276 -0.00763156 -0.00714193 -0.00664169 -0.00613084 -0.00560936 -0.00508385 -0.00456086 -0.00404039 -0.00352246 -0.00301291 -0.00251761 -0.00203657 -0.00156977 -0.00112306 -0.000702249 -0.000307351 6.16377e-05 0.000399731 0.000701943 0.000968272 0.00119872 0.00139141 0.00154445 0.00165786 0.00173163 0.00176891 0.00177283 0.0017434 0.00168061 0.00159224 0.00148604 0.00136202 0.00122018 0.00106987 0.000920434 0.000771878 0.000624201 0.000484289 0.000359026 0.000248412 0.000152448 7.26676e-05 1.06038e-05 -3.37432e-05 -6.03733e-05 -7.2926e-05 -7.50411e-05 -6.67185e-05 -4.79583e-05 -2.69765e-05 -1.19896e-05 -2.99739e-06 0 0 -2.30856e-06 -9.23426e-06 -2.07771e-05 -3.6937e-05 -4.93075e-05 -4.94819e-05 -3.74601e-05 -1.32423e-05 2.65056e-05 8.51176e-05 0.000162594 0.000258934 0.000371294 0.000496829 0.000635541 0.000787428 0.000943725 0.00109567 0.00124325 0.00138648 0.0015144 0.00161606 0.00169144 0.00174056 0.0017551 0.00172673 0.00165545 0.00154127 0.00138167 0.00117417 0.000918751 0.000615422 0.000267331 -0.00012237 -0.000553681 -0.0010266 -0.00153501 -0.00207277 -0.00263989 -0.00323637 -0.00385565 -0.00449117 -0.00514293 -0.00581093 -0.00648853 -0.00716908 -0.00785258 -0.00853903 -0.00922027 -0.00988813 -0.0105426 -0.0111837 -0.011801 -0.012384 -0.0129328 -0.0134473 -0.0139169 -0.0143306 -0.0146886 -0.0149908 -0.0152303 -0.0154001 -0.0155001 -0.0155304 -0.0154911 -0.0153823 -0.0152041 -0.0149563 -0.0146463 -0.0142812 -0.013861 -0.0133857 -0.0128662 -0.0123133 -0.011727 -0.0111074 -0.0104648 -0.00980973 -0.00914212 -0.008462 -0.00777744 -0.00709651 -0.00641923 -0.00574558 -0.00508207 -0.00443522 -0.00380502 -0.00319148 -0.00260098 -0.00203992 -0.0015083 -0.00100611 -0.000539318 -0.000113866 0.000270244 0.000613012 0.000911427 0.00116248 0.00136617 0.0015225 0.00163403 0.0017033 0.00173032 0.00171508 0.00166585 0.00159086 0.00149013 0.00136365 0.00122221 0.00107661 0.000926858 0.000772943 0.000623465 0.000487023 0.000363617 0.000253247 0.000158673 8.26565e-05 2.51976e-05 -1.3704e-05 -3.73443e-05 -4.90195e-05 -4.87297e-05 -3.64748e-05 -2.05171e-05 -9.11871e-06 -2.27968e-06 0 0 -1.34273e-06 -5.37091e-06 -1.20845e-05 -2.14836e-05 -2.53823e-05 -1.55945e-05 7.87971e-06 4.50403e-05 9.8644e-05 0.000171447 0.00026345 0.000374653 0.00050072 0.000637315 0.000784438 0.00094209 0.00109965 0.0012465 0.00138263 0.00150806 0.00161048 0.00167762 0.00170946 0.00170602 0.00165887 0.00155959 0.00140817 0.00120462 0.00094751 0.000635429 0.000268374 -0.000153656 -0.000626048 -0.00114419 -0.00170808 -0.00231772 -0.00296606 -0.00364603 -0.00435765 -0.00510089 -0.00586903 -0.0066553 -0.00745971 -0.00828225 -0.00911608 -0.00995433 -0.010797 -0.0116441 -0.0124861 -0.0133136 -0.0141265 -0.0149248 -0.0156953 -0.0164246 -0.0171128 -0.0177599 -0.0183516 -0.0188737 -0.0193262 -0.019709 -0.0200128 -0.0202282 -0.0203552 -0.0203938 -0.0203442 -0.0202064 -0.0199805 -0.0196665 -0.019274 -0.0188127 -0.0182826 -0.0176836 -0.0170302 -0.0163366 -0.0156029 -0.0148292 -0.0140286 -0.0132144 -0.0123867 -0.0115455 -0.0107001 -0.0098599 -0.00902499 -0.00819532 -0.0073776 -0.00657856 -0.00579818 -0.00503648 -0.00430001 -0.00359536 -0.00292253 -0.00228151 -0.00167917 -0.00112236 -0.000611081 -0.000145338 0.000270436 0.000631803 0.000938763 0.00119132 0.00139097 0.00153923 0.0016361 0.00168158 0.00168403 0.00165183 0.00158499 0.00148349 0.00135947 0.00122504 0.0010802 0.000924952 0.000769726 0.00062495 0.000490623 0.000366745 0.000257543 0.000167242 9.58424e-05 4.3344e-05 7.01318e-06 -1.58837e-05 -2.53467e-05 -2.13758e-05 -1.20239e-05 -5.34394e-06 -1.33599e-06 0 0 -1.46211e-07 -5.84844e-07 -1.3159e-06 -2.33938e-06 4.0488e-06 2.55527e-05 6.21724e-05 0.000113908 0.000182715 0.00027055 0.000377413 0.000503304 0.000642154 0.000787895 0.000940527 0.00110005 0.00125387 0.0013894 0.00150663 0.00160557 0.00167271 0.00169456 0.00167113 0.0016024 0.00148022 0.00129646 0.0010511 0.00074414 0.000375718 -5.40419e-05 -0.000545139 -0.00109757 -0.00170498 -0.00236097 -0.00306556 -0.00381874 -0.0046126 -0.0054392 -0.00629855 -0.00719065 -0.00810894 -0.00904686 -0.0100044 -0.0109816 -0.0119718 -0.0129685 -0.0139715 -0.0149809 -0.0159861 -0.0169763 -0.0179518 -0.0189123 -0.0198416 -0.0207233 -0.0215574 -0.022344 -0.0230647 -0.0237015 -0.0242542 -0.024723 -0.0250956 -0.0253598 -0.0255157 -0.0255632 -0.0255025 -0.0253338 -0.0250571 -0.0246724 -0.0241921 -0.0236287 -0.0229823 -0.0222527 -0.0214584 -0.0206176 -0.0197304 -0.0187968 -0.0178332 -0.0168558 -0.0158646 -0.0148598 -0.0138517 -0.012851 -0.0118577 -0.0108717 -0.0098995 -0.00894762 -0.00801604 -0.00710476 -0.00622014 -0.00536857 -0.00455004 -0.00376455 -0.00301982 -0.00232353 -0.0016757 -0.00107633 -0.000531569 -4.75813e-05 0.000375634 0.000738076 0.00103974 0.00128064 0.00146075 0.0015801 0.00164679 0.00166895 0.0016466 0.00157972 0.00148164 0.0013657 0.0012319 0.00108023 0.000923073 0.000772807 0.000629431 0.000492945 0.000369278 0.000264361 0.000178191 0.000110771 6.01464e-05 2.43663e-05 3.43053e-06 -2.66105e-06 -1.49684e-06 -6.65263e-07 -1.66316e-07 0 0 1.28099e-06 5.12394e-06 1.15289e-05 2.04958e-05 3.89857e-05 7.39597e-05 0.000125418 0.00019336 0.000278719 0.000382426 0.000504481 0.000644886 0.000795596 0.000948569 0.00110381 0.00126131 0.00140639 0.00152437 0.00161524 0.00167901 0.0017011 0.0016669 0.00157643 0.00142969 0.00121916 0.000937342 0.000584235 0.000159839 -0.000333702 -0.000894245 -0.00152179 -0.00221634 -0.00296945 -0.00377271 -0.00462612 -0.00552966 -0.00647463 -0.00745227 -0.00846261 -0.00950563 -0.0105754 -0.0116658 -0.0127771 -0.013909 -0.0150558 -0.0162115 -0.017376 -0.0185494 -0.0197201 -0.0208764 -0.0220185 -0.0231462 -0.0242399 -0.0252801 -0.0262666 -0.0271995 -0.0280561 -0.0288139 -0.0294728 -0.0300328 -0.0304786 -0.0307948 -0.0309814 -0.0310385 -0.0309661 -0.0307646 -0.0304339 -0.029974 -0.0294006 -0.0287293 -0.0279601 -0.027093 -0.0261508 -0.0251563 -0.0241095 -0.0230104 -0.0218786 -0.0207337 -0.0195758 -0.0184049 -0.0172324 -0.0160699 -0.0149173 -0.0137747 -0.0126478 -0.0115424 -0.0104586 -0.00939632 -0.00836138 -0.00735955 -0.00639084 -0.00545524 -0.00456126 -0.00371739 -0.00292362 -0.00217996 -0.00149459 -0.000875671 -0.000323