<?xml version="1.0"?> 
<VTKFile type="StructuredGrid" version="0.1"> 
<StructuredGrid WholeExtent="0 128 0 128 0 0"> 
<Piece Extent="0 128 0 128 0 0"> 
<PointData>
<DataArray type="Float32" Name="u" format="ascii" NumberOfComponents="1"> 
0 0 0 0 0 0 0 0 0 0 0 0 0 0 0 0 0 0 0 0 0 0 0 0 0 0 0 0 0 0 0 0 0 0 0 0 0 0 0 0 0 0 0 0 0 0 0 0 0 0 0 0 0 0 0 0 0 0 0 0 0 0 0 0 0 0 0 0 0 0 0 0 0 0 0 0 0 0 0 0 0 0 0 0 0 0 0 0 0 0 0 0 0 0 0 0 0 0 0 0 0 0 0 0 0 0 0 0 0 0 0 0 0 0 0 0 0 0 0 0 0 0 0 0 0 0 0 0 0 0 -3.03785e-07 -1.21514e-06 -2.73407e-06 -4.86057e-06 -7.62012e-06 -1.10382e-05 -1.51148e-05 -1.985e-05 -2.52408e-05 -3.12842e-05 -3.79803e-05 -4.5329e-05 -5.3245e-05 -6.16429e-05 -7.05227e-05 -7.98843e-05 -8.96322e-05 -9.96707e-05 -0.00011 -0.000120619 -0.000131432 -0.00014234 -0.000153344 -0.000164443 -0.000175542 -0.000186543 -0.000197446 -0.000208253 -0.000218874 -0.000229221 -0.000239294 -0.000249094 -0.000258552 -0.000267598 -0.000276232 -0.000284455 -0.000292228 -0.000299512 -0.000306306 -0.000312611 -0.000318423 -0.000323739 -0.000328559 -0.000332882 -0.00033674 -0.000340163 -0.00034315 -0.000345703 -0.000347873 -0.000349717 -0.000351234 -0.000352424 -0.000353349 -0.000354072 -0.000354592 -0.000354909 -0.000355076 -0.000355146 -0.000355118 -0.000354992 -0.000354797 -0.000354561 -0.000354285 -0.000353967 -0.000353605 -0.000353195 -0.000352737 -0.000352231 -0.000351645 -0.000350943 -0.000350127 -0.000349196 -0.000348096 -0.000346776 -0.000345233 -0.00034347 -0.000341427 -0.000339049 -0.000336335 -0.000333285 -0.000329855 -0.000326001 -0.000321723 -0.000317022 -0.000311879 -0.000306278 -0.000300219 -0.000293702 -0.000286744 -0.000279361 -0.000271553 -0.000263322 -0.000254715 -0.000245782 -0.000236524 -0.00022694 -0.000217104 -0.00020709 -0.000196898 -0.000186527 -0.000176065 -0.000165598 -0.000155124 -0.000144646 -0.000134249 -0.000124022 -0.000113964 -0.000104075 -9.44373e-05 -8.5132e-05 -7.61592e-05 -6.75188e-05 -5.92841e-05 -5.15285e-05 -4.42518e-05 -3.74541e-05 -3.11936e-05 -2.55285e-05 -2.04588e-05 -1.59844e-05 -1.20913e-05 -8.76551e-06 -6.0069e-06 -3.81552e-06 -2.14623e-06 -9.53881e-07 -2.3847e-07 0 0 -1.21514e-06 -4.86057e-06 -1.09363e-05 -1.94423e-05 -3.04805e-05 -4.41528e-05 -6.04593e-05 -7.94e-05 -0.000100963 -0.000125137 -0.000151921 -0.000181316 -0.00021298 -0.000246572 -0.000282091 -0.000319537 -0.000358529 -0.000398683 -0.000439999 -0.000482477 -0.000525727 -0.00056936 -0.000613375 -0.000657772 -0.000702166 -0.000746171 -0.000789786 -0.000833011 -0.000875495 -0.000916884 -0.000957178 -0.000996377 -0.00103421 -0.00107039 -0.00110493 -0.00113782 -0.00116891 -0.00119805 -0.00122522 -0.00125044 -0.00127369 -0.00129495 -0.00131423 -0.00133153 -0.00134696 -0.00136065 -0.0013726 -0.00138281 -0.00139149 -0.00139887 -0.00140494 -0.0014097 -0.0014134 -0.00141629 -0.00141837 -0.00141964 -0.00142031 -0.00142058 -0.00142047 -0.00141997 -0.00141919 -0.00141825 -0.00141714 -0.00141587 -0.00141442 -0.00141278 -0.00141095 -0.00140893 -0.00140658 -0.00140377 -0.00140051 -0.00139678 -0.00139238 -0.0013871 -0.00138093 -0.00137388 -0.00136571 -0.0013562 -0.00134534 -0.00133314 -0.00131942 -0.00130401 -0.00128689 -0.00126809 -0.00124752 -0.00122511 -0.00120088 -0.00117481 -0.00114697 -0.00111744 -0.00108621 -0.00105329 -0.00101886 -0.000983129 -0.000946096 -0.000907759 -0.000868416 -0.000828359 -0.000787591 -0.00074611 -0.000704261 -0.000662391 -0.000620498 -0.000578583 -0.000536996 -0.000496087 -0.000455855 -0.0004163 -0.000377749 -0.000340528 -0.000304637 -0.000270075 -0.000237137 -0.000206114 -0.000177007 -0.000149816 -0.000124775 -0.000102114 -8.18351e-05 -6.39376e-05 -4.83654e-05 -3.5062e-05 -2.40276e-05 -1.52621e-05 -8.58493e-06 -3.81552e-06 -9.53881e-07 0 0 -2.73407e-06 -1.09363e-05 -2.46066e-05 -4.37451e-05 -6.85811e-05 -9.93439e-05 -0.000136034 -0.00017865 -0.000227167 -0.000281558 -0.000341822 -0.000407961 -0.000479205 -0.000554786 -0.000634704 -0.000718959 -0.00080669 -0.000897036 -0.000989997 -0.00108557 -0.00118289 -0.00128106 -0.00138009 -0.00147999 -0.00157987 -0.00167888 -0.00177702 -0.00187428 -0.00196986 -0.00206299 -0.00215365 -0.00224185 -0.00232696 -0.00240838 -0.00248609 -0.0025601 -0.00263005 -0.00269561 -0.00275675 -0.0028135 -0.0028658 -0.00291365 -0.00295703 -0.00299594 -0.00303066 -0.00306147 -0.00308835 -0.00311132 -0.00313086 -0.00314746 -0.00316111 -0.00317182 -0.00318014 -0.00318665 -0.00319133 -0.00319418 -0.00319569 -0.00319631 -0.00319606 -0.00319493 -0.00319318 -0.00319105 -0.00318856 -0.0031857 -0.00318244 -0.00317875 -0.00317463 -0.00317008 -0.0031648 -0.00315849 -0.00315114 -0.00314276 -0.00313287 -0.00312098 -0.0031071 -0.00309123 -0.00307285 -0.00305144 -0.00302702 -0.00299957 -0.0029687 -0.00293401 -0.00289551 -0.00285319 -0.00280691 -0.0027565 -0.00270197 -0.00264332 -0.00258069 -0.00251425 -0.00244398 -0.0023699 -0.00229243 -0.00221204 -0.00212872 -0.00204246 -0.00195394 -0.00186381 -0.00177208 -0.00167875 -0.00158459 -0.00149038 -0.00139612 -0.00130181 -0.00120824 -0.00111619 -0.00102567 -0.000936675 -0.000849936 -0.000766188 -0.000685433 -0.000607669 -0.000533557 -0.000463756 -0.000398266 -0.000337087 -0.000280743 -0.000229757 -0.000184129 -0.00014386 -0.000108822 -7.88896e-05 -5.40621e-05 -3.43397e-05 -1.93161e-05 -8.58493e-06 -2.14623e-06 0 0 -4.86057e-06 -1.94423e-05 -4.37451e-05 -7.77691e-05 -0.000121922 -0.000176611 -0.000241837 -0.0003176 -0.000403852 -0.000500547 -0.000607684 -0.000725264 -0.00085192 -0.000986286 -0.00112836 -0.00127815 -0.00143412 -0.00159473 -0.00175999 -0.00192991 -0.00210291 -0.00227744 -0.0024535 -0.00263109 -0.00280867 -0.00298468 -0.00315914 -0.00333205 -0.00350198 -0.00366753 -0.00382871 -0.00398551 -0.00413683 -0.00428156 -0.00441972 -0.00455129 -0.00467565 -0.00479219 -0.00490089 -0.00500177 -0.00509476 -0.00517982 -0.00525694 -0.00532612 -0.00538785 -0.00544261 -0.00549041 -0.00553124 -0.00556597 -0.00559548 -0.00561975 -0.00563879 -0.00565359 -0.00566515 -0.00567347 -0.00567855 -0.00568122 -0.00568233 -0.00568188 -0.00567987 -0.00567676 -0.00567298 -0.00566855 -0.00566347 -0.00565767 -0.00565112 -0.00564379 -0.0056357 -0.00562631 -0.00561509 -0.00560203 -0.00558713 -0.00556954 -0.00554841 -0.00552373 -0.00549552 -0.00546284 -0.00542479 -0.00538136 -0.00533256 -0.00527768 -0.00521602 -0.00514757 -0.00507235 -0.00499006 -0.00490045 -0.0048035 -0.00469923 -0.0045879 -0.00446977 -0.00434486 -0.00421315 -0.00407544 -0.00393252 -0.00378438 -0.00363104 -0.00347366 -0.00331344 -0.00315036 -0.00298444 -0.00281704 -0.00264956 -0.00248199 -0.00231433 -0.00214798 -0.00198435 -0.00182342 -0.0016652 -0.001511 -0.00136211 -0.00121855 -0.0010803 -0.000948546 -0.000824455 -0.000708029 -0.000599266 -0.000499098 -0.000408456 -0.00032734 -0.000255751 -0.000193462 -0.000140248 -9.61104e-05 -6.10484e-05 -3.43397e-05 -1.52621e-05 -3.81552e-06 0 0 -7.61754e-06 -3.04702e-05 -6.85579e-05 -0.000121881 -0.000190839 -0.000275834 -0.000376866 -0.000493934 -0.000626921 -0.000775711 -0.000940302 -0.0011207 -0.00131478 -0.00152043 -0.00173766 -0.00196647 -0.00220448 -0.00244935 -0.00270107 -0.00295964 -0.00322266 -0.00348773 -0.00375485 -0.00402402 -0.00429287 -0.00455904 -0.00482253 -0.00508333 -0.00533931 -0.00558831 -0.00583034 -0.0060654 -0.00629182 -0.00650796 -0.00671382 -0.00690939 -0.00709376 -0.00726604 -0.00742621 -0.00757427 -0.00771021 -0.007834 -0.00794564 -0.00804513 -0.00813327 -0.00821089 -0.00827797 -0.00833451 -0.00838192 -0.00842157 -0.00845347 -0.00847762 -0.0084956 -0.00850898 -0.00851776 -0.00852195 -0.00852287 -0.00852184 -0.00851886 -0.00851394 -0.00850779 -0.00850112 -0.00849393 -0.00848622 -0.00847789 -0.00846887 -0.00845916 -0.00844874 -0.00843679 -0.00842244 -0.0084057 -0.00838657 -0.00836369 -0.00833573 -0.00830266 -0.0082645 -0.00821979 -0.00816706 -0.00810632 -0.00803756 -0.00795964 -0.00787143 -0.00777292 -0.0076641 -0.00754451 -0.00741366 -0.00727155 -0.00711818 -0.00695391 -0.0067791 -0.00659375 -0.00639785 -0.00619258 -0.0059791 -0.00575742 -0.00552754 -0.00529124 -0.00505031 -0.00480473 -0.00455452 -0.00430179 -0.00404863 -0.00379504 -0.00354103 -0.00328875 -0.00304034 -0.0027958 -0.00255514 -0.00232037 -0.0020935 -0.00187452 -0.00166345 -0.00146209 -0.00127227 -0.00109397 -0.000927199 -0.000773408 -0.000634045 -0.00050911 -0.000398602 -0.000302219 -0.000219659 -0.000150921 -9.60067e-05 -5.40038e-05 -2.40017e-05 -6.00042e-06 0 0 -1.10279e-05 -4.41116e-05 -9.92511e-05 -0.000176446 -0.000275669 -0.000396892 -0.000540114 -0.000705336 -0.000892277 -0.00110066 -0.00133047 -0.00158173 -0.00185143 -0.00213659 -0.0024372 -0.00275327 -0.00308147 -0.00341848 -0.00376431 -0.00411894 -0.00447902 -0.00484117 -0.0052054 -0.00557172 -0.00593682 -0.00629742 -0.00665353 -0.00700515 -0.00734932 -0.00768311 -0.00800653 -0.00831956 -0.00861999 -0.00890561 -0.00917642 -0.00943241 -0.00967245 -0.00989539 -0.0101012 -0.01029 -0.0104618 -0.0106167 -0.0107548 -0.010876 -0.0109817 -0.0110731 -0.0111502 -0.0112131 -0.0112638 -0.0113044 -0.0113349 -0.0113553 -0.011368 -0.0113753 -0.0113772 -0.0113736 -0.0113666 -0.011358 -0.0113479 -0.0113363 -0.0113241 -0.0113126 -0.0113015 -0.011291 -0.0112809 -0.011271 -0.0112615 -0.0112522 -0.0112419 -0.0112294 -0.0112147 -0.0111978 -0.0111766 -0.0111493 -0.0111157 -0.011076 -0.0110278 -0.0109691 -0.0108998 -0.01082 -0.0107278 -0.0106216 -0.0105014 -0.010367 -0.0102178 -0.0100529 -0.00987219 -0.0096758 -0.00946406 -0.00923731 -0.00899556 -0.0087388 -0.00846856 -0.00818635 -0.00789217 -0.00758602 -0.00727032 -0.00694747 -0.00661748 -0.00628035 -0.00593897 -0.00559625 -0.00525219 -0.0049068 -0.00456306 -0.00422397 -0.00388955 -0.00355977 -0.00323749 -0.00292554 -0.00262391 -0.0023326 -0.00205419 -0.00179124 -0.00154376 -0.00131173 -0.00109724 -0.000902356 -0.000727078 -0.000571405 -0.00043503 -0.000317643 -0.000219244 -0.000139833 -7.86562e-05 -3.49583e-05 -8.73958e-06 0 0 -1.50916e-05 -6.03665e-05 -0.000135825 -0.000241466 -0.000376412 -0.000539784 -0.000731582 -0.000951806 -0.00119992 -0.00147538 -0.0017782 -0.00210836 -0.00246188 -0.00283475 -0.00322698 -0.00363856 -0.00406508 -0.00450212 -0.0049497 -0.0054078 -0.00587197 -0.00633776 -0.00680516 -0.00727418 -0.00774051 -0.00819984 -0.00865216 -0.00909749 -0.00953201 -0.00995193 -0.0103573 -0.010748 -0.0111213 -0.0114745 -0.0118075 -0.0121203 -0.0124117 -0.0126803 -0.012926 -0.013149 -0.0133495 -0.013528 -0.0136845 -0.0138189 -0.0139332 -0.0140293 -0.0141072 -0.014167 -0.0142115 -0.0142439 -0.014264 -0.0142719 -0.0142709 -0.0142641 -0.0142517 -0.0142335 -0.0142124 -0.0141909 -0.014169 -0.0141469 -0.0141258 -0.0141073 -0.0140913 -0.0140778 -0.0140666 -0.0140576 -0.0140507 -0.014046 -0.0140416 -0.014036 -0.014029 -0.0140207 -0.0140083 -0.013989 -0.0139629 -0.0139299 -0.0138869 -0.0138309 -0.0137619 -0.0136799 -0.0135823 -0.0134666 -0.0133329 -0.0131811 -0.0130099 -0.012818 -0.0126054 -0.0123721 -0.0121183 -0.0118444 -0.0115503 -0.011236 -0.0109034 -0.0105543 -0.0101886 -0.00980647 -0.00941089 -0.00900494 -0.00858861 -0.0081619 -0.00772859 -0.00729244 -0.00685345 -0.00641163 -0.00597091 -0.00553525 -0.00510464 -0.00467909 -0.00426237 -0.00385824 -0.0034667 -0.00308776 -0.00272484 -0.00238139 -0.0020574 -0.00175287 -0.0014706 -0.00121339 -0.000981244 -0.000774161 -0.000591895 -0.0004342 -0.000301078 -0.000192528 -0.000108297 -4.8132e-05 -1.2033e-05 0 0 -1.98087e-05 -7.9235e-05 -0.000178279 -0.00031694 -0.000493068 -0.000704511 -0.00095127 -0.00123334 -0.00154985 -0.00189989 -0.00228347 -0.00270059 -0.00314612 -0.00361492 -0.00410699 -0.00462233 -0.0051553 -0.00570028 -0.00625725 -0.00682622 -0.00740152 -0.00797749 -0.00855412 -0.00913142 -0.00970395 -0.0102663 -0.0108184 -0.0113604 -0.0118874 -0.0123948 -0.0128825 -0.0133507 -0.0137958 -0.0142146 -0.0146071 -0.0149732 -0.0153115 -0.0156206 -0.0159005 -0.0161512 -0.0163734 -0.0165678 -0.0167346 -0.0168736 -0.0169876 -0.0170794 -0.0171489 -0.0171962 -0.0172252 -0.0172401 -0.0172409 -0.0172274 -0.0172042 -0.0171755 -0.0171413 -0.0171017 -0.0170602 -0.0170204 -0.0169822 -0.0169457 -0.0169128 -0.0168853 -0.0168632 -0.0168466 -0.0168351 -0.0168286 -0.0168269 -0.0168301 -0.016836 -0.0168422 -0.0168486 -0.0168554 -0.0168588 -0.016855 -0.0168442 -0.0168262 -0.016797 -0.0167525 -0.0166925 -0.0166172 -0.016523 -0.0164065 -0.0162676 -0.0161064 -0.0159209 -0.0157092 -0.0154712 -0.0152071 -0.0149168 -0.0146004 -0.014258 -0.0138895 -0.013497 -0.0130828 -0.0126468 -0.0121889 -0.011713 -0.0112227 -0.0107181 -0.0101992 -0.00967065 -0.0091372 -0.00859882 -0.00805553 -0.00751231 -0.00697417 -0.0064411 -0.0059131 -0.00539499 -0.00489159 -0.0044029 -0.00392891 -0.00347404 -0.0030427 -0.00263488 -0.0022506 -0.00189347 -0.00156714 -0.00127161 -0.00100687 -0.000772813 -0.000569331 -0.000396424 -0.000254091 -0.000142926 -6.35228e-05 -1.58807e-05 0 0 -2.51637e-05 -0.000100655 -0.000226473 -0.000402619 -0.000625208 -0.000890355 -0.00119806 -0.00154833 -0.00193976 -0.00237098 -0.00284198 -0.00335276 -0.00389689 -0.00446792 -0.00506586 -0.00569071 -0.00633546 -0.0069931 -0.00766364 -0.00834708 -0.00903641 -0.00972464 -0.0104117 -0.0110978 -0.011776 -0.0124399 -0.0130893 -0.0137244 -0.0143394 -0.0149286 -0.0154922 -0.01603 -0.0165382 -0.0170129 -0.017454 -0.0178616 -0.0182343 -0.0185705 -0.0188703 -0.0191337 -0.0193619 -0.0195564 -0.019717 -0.0198439 -0.0199406 -0.0200111 -0.0200553 -0.0200732 -0.0200702 -0.0200516 -0.0200175 -0.0199678 -0.0199082 -0.0198444 -0.0197764 -0.0197042 -0.0196323 -0.0195655 -0.0195037 -0.019447 -0.0193976 -0.0193581 -0.0193284 -0.0193086 -0.0192983 -0.0192971 -0.0193051 -0.0193223 -0.0193455 -0.019372 -0.0194017 -0.0194345 -0.0194657 -0.0194903 -0.0195085 -0.0195203 -0.0195201 -0.0195025 -0.0194677 -0.0194154 -0.0193412 -0.0192403 -0.0191127 -0.0189583 -0.0187746 -0.0185585 -0.0183102 -0.0180297 -0.0177166 -0.0173708 -0.0169923 -0.016581 -0.0161392 -0.0156694 -0.0151715 -0.0146455 -0.0140957 -0.0135267 -0.0129385 -0.0123309 -0.0117098 -0.0110807 -0.0104438 -0.00979901 -0.00915244 -0.00851025 -0.00787245 -0.00723903 -0.00661598 -0.00600928 -0.00541894 -0.00484494 -0.00429282 -0.00376808 -0.00327074 -0.00280078 -0.00236282 -0.00196147 -0.00159672 -0.00126858 -0.000977195 -0.000722711 -0.000505131 -0.000324453 -0.000182505 -8.11132e-05 -2.02783e-05 0 0 -3.11409e-05 -0.000124564 -0.000280268 -0.000498254 -0.000772404 -0.0010966 -0.00147084 -0.00189513 -0.00236737 -0.00288546 -0.00344941 -0.00405921 -0.00470692 -0.00538459 -0.00609222 -0.00682982 -0.00758884 -0.00836076 -0.00914557 -0.00994327 -0.0107454 -0.0115435 -0.0123375 -0.0131275 -0.0139055 -0.0146636 -0.0154018 -0.0161201 -0.0168119 -0.0174705 -0.018096 -0.0186883 -0.0192431 -0.019756 -0.020227 -0.0206562 -0.0210422 -0.0213838 -0.0216809 -0.0219336 -0.0221439 -0.022314 -0.0224438 -0.0225334 -0.0225878 -0.0226121 -0.0226064 -0.0225707 -0.0225119 -0.022437 -0.022346 -0.022239 -0.0221232 -0.0220059 -0.0218871 -0.0217668 -0.0216509 -0.0215452 -0.0214498 -0.0213646 -0.0212927 -0.0212371 -0.0211979 -0.021175 -0.0211681 -0.0211766 -0.0212005 -0.0212398 -0.0212908 -0.0213496 -0.0214162 -0.0214906 -0.0215666 -0.021638 -0.0217049 -0.0217672 -0.0218179 -0.02185 -0.0218634 -0.0218582 -0.0218283 -0.0217673 -0.0216754 -0.0215525 -0.0213948 -0.0211983 -0.020963 -0.020689 -0.0203753 -0.0200214 -0.019627 -0.0191923 -0.0187197 -0.0182114 -0.0176676 -0.0170883 -0.0164784 -0.015843 -0.0151821 -0.0144958 -0.0137906 -0.0130733 -0.012344 -0.0116026 -0.0108565 -0.010113 -0.00937226 -0.00863414 -0.00790596 -0.00719499 -0.00650125 -0.00582473 -0.00517221 -0.00455046 -0.00395947 -0.00339926 -0.00287559 -0.00239421 -0.00195513 -0.00155835 -0.00120445 -0.000894017 -0.000627048 -0.000403544 -0.000226993 -0.000100886 -2.52215e-05 0 0 -3.77404e-05 -0.000150961 -0.000339663 -0.000603846 -0.000934657 -0.00132325 -0.00176961 -0.00227376 -0.00283267 -0.00344333 -0.00410576 -0.00481993 -0.00557621 -0.00636492 -0.00718607 -0.00803966 -0.00891546 -0.00980324 -0.010703 -0.0116148 -0.0125285 -0.013434 -0.0143314 -0.0152207 -0.0160925 -0.0169376 -0.017756 -0.0185477 -0.019305 -0.0200204 -0.0206939 -0.0213255 -0.0219105 -0.0224441 -0.0229262 -0.023357 -0.0237355 -0.0240606 -0.0243324 -0.0245509 -0.0247192 -0.0248405 -0.0249148 -0.024942 -0.024929 -0.0248824 -0.0248023 -0.0246886 -0.0245502 -0.0243962 -0.0242265 -0.0240411 -0.0238493 -0.0236601 -0.0234736 -0.0232897 -0.0231159 -0.0229595 -0.0228204 -0.0226986 -0.022598 -0.0225223 -0.0224716 -0.0224459 -0.0224445 -0.0224669 -0.022513 -0.0225829 -0.0226718 -0.0227749 -0.0228922 -0.0230236 -0.0231615 -0.0232981 -0.0234332 -0.0235669 -0.0236904 -0.0237947 -0.0238797 -0.0239455 -0.0239842 -0.0239876 -0.0239559 -0.023889 -0.0237816 -0.0236285 -0.0234296 -0.0231849 -0.0228929 -0.022552 -0.0221622 -0.0217235 -0.0212383 -0.0207089 -0.0201353 -0.0195174 -0.018861 -0.0181715 -0.0174491 -0.0166937 -0.0159131 -0.015115 -0.0142994 -0.0134663 -0.0126245 -0.0117825 -0.0109405 -0.0100984 -0.00926491 -0.00844872 -0.00764985 -0.00686828 -0.00611221 -0.00538982 -0.00470109 -0.00404604 -0.00343177 -0.00286536 -0.00234683 -0.00187617 -0.00145458 -0.00108325 -0.000762176 -0.000491364 -0.000276392 -0.000122841 -3.07103e-05 0 0 -4.49621e-05 -0.000179848 -0.000404659 -0.000719393 -0.00111197 -0.00157029 -0.00209437 -0.00268421 -0.00333566 -0.0040446 -0.00481102 -0.00563493 -0.00650475 -0.00740891 -0.0083474 -0.00932022 -0.0103153 -0.0113206 -0.012336 -0.0133616 -0.0143856 -0.0153962 -0.0163935 -0.0173773 -0.018337 -0.0192619 -0.0201518 -0.021007 -0.0218186 -0.0225783 -0.023286 -0.0239417 -0.0245404 -0.025077 -0.0255516 -0.025964 -0.0263139 -0.0266008 -0.0268247 -0.0269856 -0.0270879 -0.027136 -0.02713 -0.0270699 -0.0269644 -0.026822 -0.0266428 -0.0264268 -0.0261853 -0.0259293 -0.0256589 -0.0253741 -0.0250863 -0.0248069 -0.0245357 -0.0242729 -0.0240274 -0.0238083 -0.0236155 -0.023449 -0.0233136 -0.0232138 -0.0231496 -0.0231211 -0.0231275 -0.023168 -0.0232427 -0.0233515 -0.0234885 -0.0236479 -0.0238296 -0.0240337 -0.0242505 -0.0244705 -0.0246935 -0.0249196 -0.0251377 -0.0253367 -0.0255166 -0.0256773 -0.0258089 -0.0259011 -0.025954 -0.0259677 -0.025935 -0.0258491 -0.0257099 -0.0255174 -0.0252692 -0.0249627 -0.0245978 -0.0241746 -0.0236952 -0.0231618 -0.0225743 -0.0219328 -0.0212434 -0.0205123 -0.0197394 -0.0189248 -0.0180773 -0.0172056 -0.0163099 -0.0153901 -0.0144564 -0.0135187 -0.0125772 -0.0116319 -0.0106929 -0.00977047 -0.00886472 -0.00797559 -0.00711283 -0.00628616 -0.00549559 -0.00474112 -0.00403136 -0.00337493 -0.00277183 -0.00222205 -0.00172758 -0.00129041 -0.000910515 -0.000587913 -0.000330701 -0.000146978 -3.67446e-05 0 0 -5.26964e-05 -0.000210786 -0.000474268 -0.000843143 -0.00130162 -0.00183392 -0.00244004 -0.00311998 -0.00386824 -0.00467932 -0.00555322 -0.00648994 -0.00747576 -0.00849694 -0.0095535 -0.0106454 -0.0117586 -0.0128789 -0.0140064 -0.0151411 -0.0162692 -0.0173773 -0.0184652 -0.019533 -0.0205684 -0.0215592 -0.0225054 -0.0234069 -0.0242544 -0.0250382 -0.0257584 -0.0264149 -0.0270026 -0.0275162 -0.0279557 -0.0283211 -0.0286127 -0.0288307 -0.028975 -0.0290458 -0.0290491 -0.0289909 -0.0288712 -0.02869 -0.0284582 -0.028187 -0.0278762 -0.0275259 -0.0271498 -0.026762 -0.0263623 -0.0259507 -0.0255412 -0.0251476 -0.02477 -0.0244083 -0.0240734 -0.0237763 -0.0235171 -0.0232956 -0.0231176 -0.0229886 -0.0229086 -0.0228776 -0.0228947 -0.022959 -0.0230704 -0.023229 -0.0234276 -0.023659 -0.0239232 -0.0242201 -0.0245381 -0.0248655 -0.0252021 -0.025548 -0.0258896 -0.0262131 -0.0265187 -0.0268063 -0.0270632 -0.027277 -0.0274475 -0.0275748 -0.02765 -0.027664 -0.0276167 -0.0275083 -0.027335 -0.0270928 -0.0267819 -0.0264022 -0.0259555 -0.0254436 -0.0248664 -0.0242241 -0.0235231 -0.02277 -0.0219649 -0.0211078 -0.0202085 -0.019277 -0.0183134 -0.0173175 -0.0163011 -0.0152756 -0.0142411 -0.0131976 -0.0121571 -0.0111314 -0.0101206 -0.00912459 -0.00815494 -0.00722308 -0.00632899 -0.00547269 -0.00466451 -0.00391479 -0.00322353 -0.00259073 -0.00201937 -0.00151242 -0.0010699 -0.000691793 -0.000389134 -0.000172948 -4.32371e-05 0 0 -6.08336e-05 -0.000243335 -0.000547503 -0.000973338 -0.00150092 -0.00211032 -0.00280154 -0.00357459 -0.00442231 -0.00533757 -0.00632036 -0.00737069 -0.00847242 -0.00960941 -0.0107817 -0.0119892 -0.0132156 -0.0144446 -0.0156763 -0.0169105 -0.0181316 -0.0193241 -0.020488 -0.0216232 -0.022716 -0.0237525 -0.0247327 -0.0256566 -0.0265139 -0.027294 -0.0279971 -0.0286231 -0.0291667 -0.0296228 -0.0299912 -0.0302721 -0.0304667 -0.0305761 -0.0306005 -0.0305398 -0.0304021 -0.0301954 -0.0299197 -0.029575 -0.0291751 -0.0287336 -0.0282506 -0.027726 -0.0271769 -0.0266201 -0.0260557 -0.0254836 -0.0249207 -0.0243838 -0.0238728 -0.0233879 -0.022942 -0.0225484 -0.0222071 -0.0219181 -0.0216881 -0.0215238 -0.0214251 -0.0213922 -0.0214239 -0.0215189 -0.0216774 -0.0218992 -0.0221758 -0.0224985 -0.0228673 -0.0232822 -0.0237289 -0.0241933 -0.0246754 -0.0251751 -0.0256759 -0.0261611 -0.0266308 -0.0270849 -0.0275079 -0.0278842 -0.0282138 -0.0284968 -0.0287217 -0.0288771 -0.028963 -0.0289793 -0.0289207 -0.0287818 -0.0285627 -0.0282632 -0.0278845 -0.0274279 -0.0268933 -0.0262808 -0.0255971 -0.0248494 -0.0240375 -0.0231614 -0.0222323 -0.0212609 -0.0202475 -0.0191919 -0.0181073 -0.017007 -0.0158908 -0.0147589 -0.0136249 -0.0125026 -0.011392 -0.0102932 -0.00921944 -0.00818414 -0.00718731 -0.00622895 -0.00532135 -0.00447682 -0.00369535 -0.00297695 -0.00232584 -0.00174624 -0.00123816 -0.000801604 -0.000450902 -0.000200401 -5.01003e-05 0 0 -6.93738e-05 -0.000277495 -0.000624364 -0.00110998 -0.00170985 -0.00239948 -0.00317888 -0.00404803 -0.00499788 -0.00601935 -0.00711246 -0.00827719 -0.00949474 -0.0107463 -0.0120319 -0.0133515 -0.0146863 -0.0160176 -0.0173454 -0.0186698 -0.0199728 -0.0212369 -0.022462 -0.0236481 -0.0247798 -0.0258417 -0.0268337 -0.0277559 -0.028597 -0.0293458 -0.0300022 -0.0305662 -0.0310327 -0.0313967 -0.0316581 -0.031817 -0.0318759 -0.0318373 -0.0317011 -0.0314676 -0.0311469 -0.0307496 -0.0302757 -0.0297252 -0.0291149 -0.0284618 -0.027766 -0.0270273 -0.0262664 -0.0255036 -0.0247391 -0.0239728 -0.0232248 -0.0225153 -0.0218443 -0.0212117 -0.0206332 -0.0201245 -0.0196856 -0.0193164 -0.019025 -0.0188193 -0.0186993 -0.0186649 -0.0187149 -0.0188477 -0.0190634 -0.019362 -0.0197331 -0.0201665 -0.020662 -0.0212198 -0.0218228 -0.0224539 -0.0231133 -0.0238009 -0.0244967 -0.0251807 -0.0258528 -0.0265132 -0.0271428 -0.0277228 -0.028253 -0.0287336 -0.0291502 -0.0294885 -0.0297486 -0.0299303 -0.0300265 -0.0300298 -0.0299401 -0.0297575 -0.0294822 -0.0291147 -0.0286549 -0.0281029 -0.0274656 -0.0267504 -0.0259571 -0.0250857 -0.0241485 -0.0231573 -0.0221122 -0.0210133 -0.0198752 -0.018713 -0.0175264 -0.0163156 -0.0150963 -0.0138841 -0.0126792 -0.0114814 -0.0103063 -0.00916937 -0.00807056 -0.00700989 -0.00600187 -0.005061 -0.00418728 -0.0033807 -0.00264699 -0.00199186 -0.00141531 -0.000917347 -0.000516008 -0.000229337 -5.73342e-05 0 0 -7.83168e-05 -0.000313267 -0.000704852 -0.00125307 -0.00192842 -0.00270141 -0.00357204 -0.0045403 -0.00559493 -0.00672466 -0.00792949 -0.00920942 -0.0105427 -0.0119076 -0.0133041 -0.0147323 -0.0161707 -0.0175979 -0.019014 -0.020419 -0.0217928 -0.0231155 -0.0243872 -0.0256076 -0.0267599 -0.0278269 -0.0288086 -0.0297049 -0.0305039 -0.0311935 -0.0317736 -0.0322442 -0.0326007 -0.0328381 -0.0329565 -0.0329559 -0.0328404 -0.032614 -0.0322769 -0.031829 -0.0312835 -0.0306536 -0.0299392 -0.0291403 -0.0282776 -0.0273716 -0.0264223 -0.0254297 -0.0244183 -0.0234126 -0.0224126 -0.0214183 -0.0204536 -0.0195422 -0.0186843 -0.0178797 -0.017147 -0.0165046 -0.0159525 -0.0154907 -0.0151285 -0.0148753 -0.0147311 -0.0146958 -0.0147678 -0.0149454 -0.0152286 -0.0156174 -0.0160996 -0.0166629 -0.0173074 -0.0180331 -0.0188198 -0.0196474 -0.0205159 -0.0214254 -0.0223519 -0.0232717 -0.0241849 -0.0250913 -0.0259682 -0.0267928 -0.0275651 -0.0282852 -0.0289354 -0.0294981 -0.0299735 -0.0303614 -0.0306523 -0.0308365 -0.0309141 -0.0308851 -0.0307487 -0.0305041 -0.0301513 -0.0296904 -0.0291285 -0.028473 -0.0277237 -0.0268807 -0.0259572 -0.0249661 -0.0239076 -0.0227817 -0.0216048 -0.0203935 -0.0191479 -0.0178678 -0.0165713 -0.015276 -0.013982 -0.0126893 -0.0114156 -0.0101787 -0.00897872 -0.00781552 -0.00670608 -0.00566735 -0.00469932 -0.00380199 -0.00298283 -0.00224928 -0.00160134 -0.00103902 -0.00058445 -0.000259755 -6.49388e-05 0 0 -8.75357e-05 -0.000350143 -0.000787821 -0.00140057 -0.0021535 -0.00301173 -0.00397526 -0.00504408 -0.00620443 -0.00744256 -0.00875847 -0.0101522 -0.0115987 -0.0130731 -0.0145754 -0.0161055 -0.0176394 -0.0191527 -0.0206454 -0.0221177 -0.023547 -0.024911 -0.0262098 -0.0274432 -0.0285926 -0.029639 -0.0305825 -0.0314231 -0.032148 -0.0327443 -0.0332121 -0.0335514 -0.0337579 -0.0338272 -0.0337595 -0.0335547 -0.0332189 -0.0327579 -0.0321719 -0.0314609 -0.0306411 -0.0297291 -0.0287247 -0.027628 -0.0264638 -0.0252567 -0.0240067 -0.0227138 -0.0214071 -0.0201155 -0.0188391 -0.0175778 -0.0163598 -0.0152129 -0.0141371 -0.0131326 -0.0122208 -0.0114233 -0.0107402 -0.0101714 -0.00972772 -0.00942011 -0.00924853 -0.00921298 -0.00931146 -0.00954199 -0.00990455 -0.0103991 -0.0110115 -0.0117272 -0.0125463 -0.0134688 -0.0144711 -0.0155295 -0.0166441 -0.0178149 -0.0190137 -0.0202125 -0.0214112 -0.0226099 -0.0237815 -0.0248987 -0.0259617 -0.0269703 -0.0279033 -0.0287394 -0.0294785 -0.0301206 -0.0306535 -0.0310649 -0.0313547 -0.031523 -0.0315677 -0.0314866 -0.0312798 -0.0309473 -0.0304961 -0.0299336 -0.0292596 -0.0284743 -0.0275917 -0.0266259 -0.0255771 -0.0244452 -0.0232486 -0.0220055 -0.0207161 -0.0193802 -0.0180181 -0.0166497 -0.015275 -0.0138942 -0.0125274 -0.0111949 -0.00989673 -0.00863287 -0.00742295 -0.00628661 -0.00522384 -0.00423466 -0.0033285 -0.00251482 -0.00179363 -0.00116493 -0.000655272 -0.000291232 -7.2808e-05 0 0 -9.69031e-05 -0.000387612 -0.000872128 -0.00155045 -0.00238197 -0.00332607 -0.00438275 -0.00555202 -0.00681732 -0.0081621 -0.00958638 -0.0110901 -0.0126449 -0.0142224 -0.0158224 -0.017445 -0.019063 -0.020649 -0.0222032 -0.0237254 -0.0251908 -0.0265744 -0.0278763 -0.0290964 -0.0302141 -0.031209 -0.032081 -0.03283 -0.0334427 -0.0339056 -0.0342186 -0.0343818 -0.0343916 -0.0342445 -0.0339405 -0.0334796 -0.0328701 -0.0321203 -0.0312302 -0.0301997 -0.029049 -0.0277981 -0.026447 -0.0249958 -0.0234738 -0.0219106 -0.020306 -0.0186601 -0.017007 -0.0153808 -0.0137815 -0.0122091 -0.0106962 -0.00927561 -0.0079472 -0.00671101 -0.00559208 -0.00461546 -0.00378113 -0.00308911 -0.00255194 -0.00218217 -0.0019798 -0.00194482 -0.00207487 -0.00236762 -0.00282304 -0.00344115 -0.00420527 -0.00509875 -0.00612158 -0.00727377 -0.00852778 -0.00985611 -0.0112587 -0.0127357 -0.0142541 -0.0157809 -0.0173163 -0.0188602 -0.0203805 -0.0218452 -0.0232543 -0.0246079 -0.0258802 -0.0270456 -0.0281043 -0.029056 -0.0298856 -0.0305774 -0.0311317 -0.0315482 -0.0318234 -0.0319533 -0.031938 -0.0317774 -0.0314787 -0.0310485 -0.0304871 -0.0297943 -0.0289853 -0.0280753 -0.0270643 -0.0259523 -0.0247594 -0.023506 -0.022192 -0.0208175 -0.0194049 -0.0179767 -0.016533 -0.0150737 -0.0136219 -0.0122005 -0.0108095 -0.00944898 -0.00814145 -0.00690953 -0.00575322 -0.00467252 -0.00367915 -0.00278484 -0.00198957 -0.00129337 -0.000727518 -0.000323341 -8.08353e-05 0 0 -0.000106419 -0.000425677 -0.000957773 -0.00170271 -0.00261381 -0.00364441 -0.00479452 -0.00606412 -0.00743359 -0.00888329 -0.0104132 -0.0120234 -0.0136815 -0.0153555 -0.0170452 -0.0187508 -0.0204415 -0.022087 -0.0236872 -0.0252421 -0.0267241 -0.0281056 -0.0293865 -0.030567 -0.0316246 -0.0325369 -0.0333039 -0.0339257 -0.0343881 -0.0346772 -0.034793 -0.0347354 -0.0345019 -0.0340899 -0.0334995 -0.0327306 -0.0317942 -0.0307013 -0.0294517 -0.0280456 -0.0265071 -0.0248606 -0.0231061 -0.0212436 -0.0193078 -0.0173333 -0.0153203 -0.0132686 -0.0112182 -0.00920857 -0.00723988 -0.00531209 -0.00346301 -0.00173045 -0.000114426 0.00138508 0.00273919 0.00391907 0.0049247 0.00575609 0.00639883 0.00683851 0.00707514 0.00710872 0.006942 0.00657775 0.00601596 0.00525664 0.00431903 0.00322239 0.0019667 0.000551979 -0.000989945 -0.00262723 -0.00435988 -0.00618789 -0.00807304 -0.00997709 -0.0119 -0.0138419 -0.0157651 -0.0176322 -0.0194431 -0.0211978 -0.0228659 -0.0244169 -0.0258508 -0.0271677 -0.0283485 -0.0293743 -0.030245 -0.0309607 -0.0315156 -0.031904 -0.0321257 -0.0321809 -0.0320761 -0.0318178 -0.031406 -0.0308407 -0.0301381 -0.0293142 -0.0283691 -0.0273027 -0.0261373 -0.0248949 -0.0235757 -0.0221796 -0.0207317 -0.0192571 -0.0177558 -0.0162278 -0.0146991 -0.0131955 -0.0117171 -0.0102638 -0.00886157 -0.0075361 -0.00628744 -0.00511558 -0.00403479 -0.00305931 -0.00218916 -0.00142434 -0.000801189 -0.000356084 -8.9021e-05 0 0 -0.000116084 -0.000464336 -0.00104476 -0.00185734 -0.00284904 -0.00396678 -0.00521056 -0.0065804 -0.00805326 -0.00960611 -0.011239 -0.0129518 -0.0147084 -0.0164724 -0.0182439 -0.0200228 -0.021775 -0.0234666 -0.0250976 -0.0266678 -0.028147 -0.0295046 -0.0307407 -0.0318552 -0.0328239 -0.0336226 -0.0342513 -0.03471 -0.0349842 -0.0350593 -0.0349353 -0.0346122 -0.0340887 -0.0333635 -0.0324365 -0.0313077 -0.0299911 -0.0285007 -0.0268365 -0.0249984 -0.0230155 -0.0209167 -0.018702 -0.0163715 -0.0139656 -0.0115249 -0.00904956 -0.00653943 -0.00404051 -0.00159877 0.000785793 0.00311318 0.00533993 0.00742259 0.00936117 0.0111557 0.012773 0.0141802 0.0153773 0.0163642 0.0171246 0.0176419 0.0179163 0.0179476 0.0177392 0.0172941 0.0166125 0.0156942 0.0145614 0.0132362 0.0117186 0.0100085 0.00814246 0.00615714 0.00405251 0.00182855 -0.000470644 -0.002801 -0.00516252 -0.0075552 -0.00993546 -0.0122597 -0.0145279 -0.0167401 -0.0188605 -0.0208532 -0.0227182 -0.0244556 -0.0260423 -0.0274553 -0.0286947 -0.0297605 -0.0306445 -0.0313387 -0.0318431 -0.0321577 -0.0322885 -0.0322414 -0.0320164 -0.0316136 -0.03105 -0.0303427 -0.0294915 -0.0284966 -0.0273821 -0.0261723 -0.0248671 -0.0234666 -0.0219986 -0.0204909 -0.0189435 -0.0173565 -0.015759 -0.0141799 -0.0126194 -0.0110775 -0.00958331 -0.00816633 -0.00682651 -0.00556384 -0.00439541 -0.00333826 -0.0023924 -0.00155784 -0.000876284 -0.000389459 -9.73649e-05 0 0 -0.00012577 -0.000503079 -0.00113193 -0.00201232 -0.00308452 -0.0042888 -0.00562517 -0.00709362 -0.00866746 -0.01032 -0.012