<?xml version="1.0"?> 
<VTKFile type="StructuredGrid" version="0.1"> 
<StructuredGrid WholeExtent="0 128 0 128 0 0"> 
<Piece Extent="0 128 0 128 0 0"> 
<PointData>
<DataArray type="Float32" Name="u" format="ascii" NumberOfComponents="1"> 
0 0 0 0 0 0 0 0 0 0 0 0 0 0 0 0 0 0 0 0 0 0 0 0 0 0 0 0 0 0 0 0 0 0 0 0 0 0 0 0 0 0 0 0 0 0 0 0 0 0 0 0 0 0 0 0 0 0 0 0 0 0 0 0 0 0 0 0 0 0 0 0 0 0 0 0 0 0 0 0 0 0 0 0 0 0 0 0 0 0 0 0 0 0 0 0 0 0 0 0 0 0 0 0 0 0 0 0 0 0 0 0 0 0 0 0 0 0 0 0 0 0 0 0 0 0 0 0 0 0 -5.84162e-07 -2.33665e-06 -5.25746e-06 -9.34659e-06 -1.44623e-05 -2.04628e-05 -2.73481e-05 -3.51183e-05 -4.36661e-05 -5.28846e-05 -6.27738e-05 -7.33336e-05 -8.43665e-05 -9.56749e-05 -0.000107259 -0.000119118 -0.000131085 -0.00014299 -0.000154834 -0.000166616 -0.000178201 -0.000189454 -0.000200375 -0.000210964 -0.000221118 -0.000230733 -0.000239809 -0.000248346 -0.000256277 -0.000263534 -0.000270116 -0.000276025 -0.000281234 -0.000285718 -0.000289477 -0.000292512 -0.000294844 -0.000296495 -0.000297466 -0.000297756 -0.000297435 -0.00029657 -0.000295163 -0.000293212 -0.000290824 -0.000288105 -0.000285054 -0.000281673 -0.000278085 -0.000274415 -0.000270665 -0.000266833 -0.000263041 -0.000259409 -0.000255937 -0.000252626 -0.000249568 -0.000246855 -0.000244487 -0.000242465 -0.000240834 -0.000239638 -0.00023888 -0.000238557 -0.00023866 -0.000239179 -0.000240112 -0.000241461 -0.000243162 -0.00024515 -0.000247427 -0.000249991 -0.000252741 -0.000255575 -0.000258492 -0.000261493 -0.000264458 -0.000267268 -0.000269924 -0.000272425 -0.00027466 -0.000276516 -0.000277994 -0.000279095 -0.000279733 -0.000279826 -0.000279374 -0.000278377 -0.000276793 -0.000274579 -0.000271736 -0.000268264 -0.000264167 -0.000259447 -0.000254105 -0.000248142 -0.000241601 -0.000234527 -0.000226921 -0.000218783 -0.00021019 -0.000201218 -0.000191867 -0.000182138 -0.00017213 -0.000161942 -0.000151574 -0.000141027 -0.000130416 -0.000119859 -0.000109354 -9.89033e-05 -8.86389e-05 -7.86948e-05 -6.9071e-05 -5.97675e-05 -5.09315e-05 -4.27105e-05 -3.51043e-05 -2.8113e-05 -2.18038e-05 -1.62441e-05 -1.14337e-05 -7.37265e-06 -4.14711e-06 -1.84316e-06 -4.6079e-07 0 0 -2.33665e-06 -9.34659e-06 -2.10298e-05 -3.73864e-05 -5.78492e-05 -8.18512e-05 -0.000109393 -0.000140473 -0.000174665 -0.000211539 -0.000251095 -0.000293334 -0.000337466 -0.0003827 -0.000429036 -0.000476474 -0.00052434 -0.00057196 -0.000619335 -0.000666463 -0.000712804 -0.000757816 -0.000801501 -0.000843857 -0.000884471 -0.000922931 -0.000959235 -0.000993384 -0.00102511 -0.00105413 -0.00108047 -0.0011041 -0.00112494 -0.00114287 -0.00115791 -0.00117005 -0.00117938 -0.00118598 -0.00118986 -0.00119103 -0.00118974 -0.00118628 -0.00118065 -0.00117285 -0.0011633 -0.00115242 -0.00114022 -0.00112669 -0.00111234 -0.00109766 -0.00108266 -0.00106733 -0.00105216 -0.00103764 -0.00102375 -0.0010105 -0.000998272 -0.00098742 -0.000977949 -0.00096986 -0.000963334 -0.000958554 -0.000955519 -0.000954229 -0.000954642 -0.000956716 -0.00096045 -0.000965845 -0.000972647 -0.0009806 -0.000989706 -0.000999964 -0.00101097 -0.0010223 -0.00103397 -0.00104597 -0.00105783 -0.00106907 -0.0010797 -0.0010897 -0.00109864 -0.00110606 -0.00111198 -0.00111638 -0.00111893 -0.00111931 -0.0011175 -0.00111351 -0.00110717 -0.00109832 -0.00108695 -0.00107306 -0.00105667 -0.00103779 -0.00101642 -0.000992566 -0.000966402 -0.000938109 -0.000907686 -0.000875133 -0.000840759 -0.000804871 -0.000767468 -0.000728552 -0.000688519 -0.000647767 -0.000606296 -0.000564107 -0.000521665 -0.000479435 -0.000437418 -0.000395613 -0.000354556 -0.000314779 -0.000276284 -0.00023907 -0.000203726 -0.000170842 -0.000140417 -0.000112452 -8.72154e-05 -6.49762e-05 -4.57346e-05 -2.94906e-05 -1.65885e-05 -7.37265e-06 -1.84316e-06 0 0 -5.25746e-06 -2.10298e-05 -4.73171e-05 -8.41193e-05 -0.000130161 -0.000184165 -0.000246133 -0.000316064 -0.000392995 -0.000475962 -0.000564964 -0.000660002 -0.000759298 -0.000861074 -0.00096533 -0.00107207 -0.00117977 -0.00128691 -0.0013935 -0.00149954 -0.00160381 -0.00170509 -0.00180338 -0.00189868 -0.00199006 -0.00207659 -0.00215828 -0.00223511 -0.00230649 -0.0023718 -0.00243105 -0.00248422 -0.0025311 -0.00257146 -0.0026053 -0.00263261 -0.0026536 -0.00266846 -0.00267719 -0.00267981 -0.00267691 -0.00266913 -0.00265646 -0.00263891 -0.00261742 -0.00259294 -0.00256549 -0.00253505 -0.00250276 -0.00246974 -0.00243598 -0.0024015 -0.00236737 -0.00233468 -0.00230344 -0.00227364 -0.00224611 -0.00222169 -0.00220039 -0.00218219 -0.0021675 -0.00215675 -0.00214992 -0.00214701 -0.00214794 -0.00215261 -0.00216101 -0.00217315 -0.00218845 -0.00220635 -0.00222684 -0.00224992 -0.00227467 -0.00230018 -0.00232643 -0.00235344 -0.00238012 -0.00240542 -0.00242932 -0.00245183 -0.00247194 -0.00248865 -0.00250195 -0.00251185 -0.0025176 -0.00251844 -0.00251437 -0.00250539 -0.00249114 -0.00247121 -0.00244563 -0.00241438 -0.0023775 -0.00233502 -0.00228695 -0.00223327 -0.0021744 -0.00211074 -0.00204229 -0.00196905 -0.00189171 -0.00181096 -0.0017268 -0.00163924 -0.00154917 -0.00145748 -0.00136417 -0.00126924 -0.00117375 -0.00107873 -0.00098419 -0.00089013 -0.00079775 -0.000708253 -0.000621639 -0.000537907 -0.000458384 -0.000384394 -0.000315939 -0.000253017 -0.000196235 -0.000146197 -0.000102903 -6.63538e-05 -3.7324e-05 -1.65885e-05 -4.14711e-06 0 0 -9.34659e-06 -3.73864e-05 -8.41193e-05 -0.000149545 -0.000231397 -0.000327405 -0.00043757 -0.000561892 -0.000698658 -0.000846154 -0.00100438 -0.00117334 -0.00134986 -0.0015308 -0.00171614 -0.0019059 -0.00209736 -0.00228784 -0.00247734 -0.00266585 -0.00285122 -0.00303127 -0.003206 -0.00337543 -0.00353788 -0.00369172 -0.00383694 -0.00397354 -0.00410043 -0.00421654 -0.00432186 -0.0044164 -0.00449974 -0.00457149 -0.00463164 -0.00468019 -0.0047175 -0.00474392 -0.00475946 -0.0047641 -0.00475896 -0.00474512 -0.0047226 -0.00469139 -0.00465319 -0.00460968 -0.00456087 -0.00450676 -0.00444935 -0.00439064 -0.00433064 -0.00426933 -0.00420865 -0.00415054 -0.004095 -0.00404202 -0.00399309 -0.00394968 -0.0039118 -0.00387944 -0.00385334 -0.00383422 -0.00382207 -0.00381692 -0.00381857 -0.00382686 -0.0038418 -0.00386338 -0.00389059 -0.0039224 -0.00395882 -0.00399986 -0.00404386 -0.0040892 -0.00413588 -0.00418389 -0.00423133 -0.00427629 -0.00431879 -0.0043588 -0.00439456 -0.00442426 -0.00444791 -0.00446551 -0.00447573 -0.00447722 -0.00446999 -0.00445404 -0.00442868 -0.00439327 -0.00434778 -0.00429223 -0.00422667 -0.00415115 -0.00406569 -0.00397027 -0.00386561 -0.00375243 -0.00363074 -0.00350053 -0.00336304 -0.00321948 -0.00306987 -0.00291421 -0.00275407 -0.00259107 -0.00242519 -0.00225643 -0.00208666 -0.00191774 -0.00174967 -0.00158245 -0.00141822 -0.00125912 -0.00110514 -0.00095628 -0.000814905 -0.000683368 -0.000561669 -0.000449808 -0.000348861 -0.000259905 -0.000182939 -0.000117962 -6.63538e-05 -2.94906e-05 -7.37265e-06 0 0 -1.44532e-05 -5.78127e-05 -0.000130079 -0.000231251 -0.00035761 -0.000505439 -0.000674736 -0.000865502 -0.00107509 -0.00130085 -0.0015428 -0.00180091 -0.00207037 -0.00234634 -0.00262881 -0.00291779 -0.00320915 -0.00349875 -0.00378659 -0.00407268 -0.00435369 -0.0046263 -0.00489052 -0.00514634 -0.00539124 -0.00562268 -0.00584066 -0.00604519 -0.00623462 -0.00640731 -0.00656326 -0.00670246 -0.00682434 -0.0069283 -0.00701434 -0.00708246 -0.00713325 -0.00716729 -0.00718459 -0.00718514 -0.00717069 -0.00714297 -0.00710199 -0.00704774 -0.00698288 -0.00691007 -0.00682929 -0.00674056 -0.00664698 -0.0065517 -0.00645469 -0.00635597 -0.00625854 -0.00616541 -0.00607658 -0.00599205 -0.00591411 -0.00584508 -0.00578494 -0.00573371 -0.0056925 -0.00566245 -0.00564356 -0.00563583 -0.005639 -0.0056528 -0.00567722 -0.00571228 -0.00575639 -0.00580796 -0.005867 -0.00593351 -0.00600494 -0.00607874 -0.00615492 -0.00623347 -0.00631142 -0.0063858 -0.00645662 -0.00652387 -0.00658476 -0.00663648 -0.00667905 -0.00671246 -0.00673461 -0.00674339 -0.0067388 -0.00672085 -0.00668845 -0.00664053 -0.00657707 -0.0064981 -0.00640364 -0.00629376 -0.00616845 -0.00602771 -0.00587261 -0.00570423 -0.00552257 -0.00532764 -0.00512129 -0.00490541 -0.00468 -0.00444506 -0.00420303 -0.00395634 -0.00370499 -0.00344899 -0.0031912 -0.00293447 -0.00267881 -0.00242422 -0.00217399 -0.00193138 -0.00169639 -0.00146904 -0.00125293 -0.00105167 -0.000865258 -0.000693696 -0.000538657 -0.000401813 -0.000283165 -0.000182711 -0.000102775 -4.56778e-05 -1.14195e-05 0 0 -2.04263e-05 -8.17053e-05 -0.000183837 -0.000326821 -0.000504855 -0.000712136 -0.000948664 -0.00121444 -0.00150573 -0.0018188 -0.00215366 -0.0025103 -0.00288202 -0.00326215 -0.00365066 -0.00404758 -0.00444714 -0.00484362 -0.00523701 -0.00562731 -0.0060099 -0.00638015 -0.00673807 -0.00708366 -0.00741341 -0.00772382 -0.00801488 -0.00828661 -0.00853675 -0.00876307 -0.00896558 -0.00914427 -0.0092984 -0.00942725 -0.0095308 -0.00960907 -0.00966297 -0.00969345 -0.00970052 -0.00968415 -0.00964693 -0.00959139 -0.00951755 -0.00942541 -0.00931879 -0.00920155 -0.00907368 -0.00893518 -0.00879053 -0.00864421 -0.00849623 -0.00834658 -0.00819956 -0.00805947 -0.00792632 -0.00780011 -0.0076841 -0.00758159 -0.00749258 -0.00741707 -0.00735665 -0.00731295 -0.00728596 -0.00727568 -0.00728173 -0.00730373 -0.00734169 -0.0073956 -0.0074632 -0.00754224 -0.00763271 -0.00773462 -0.00784431 -0.00795816 -0.00807616 -0.00819831 -0.00832036 -0.00843803 -0.00855133 -0.00866027 -0.0087608 -0.0088489 -0.00892456 -0.00898779 -0.00903552 -0.00906468 -0.00907526 -0.00906726 -0.00903906 -0.00898903 -0.00891717 -0.00882347 -0.0087079 -0.00857042 -0.00841105 -0.00822977 -0.00802801 -0.00780719 -0.00756733 -0.00730841 -0.00703302 -0.00674372 -0.00644052 -0.00612342 -0.00579581 -0.00546108 -0.00511922 -0.00477025 -0.00441815 -0.00406692 -0.00371657 -0.00336709 -0.00302305 -0.00268903 -0.00236503 -0.00205105 -0.00175211 -0.00147321 -0.00121436 -0.000975552 -0.000759182 -0.000567633 -0.000400904 -0.000258996 -0.000145685 -6.4749e-05 -1.61872e-05 0 0 -2.7266e-05 -0.000109064 -0.000245394 -0.000436256 -0.00067313 -0.000947496 -0.00125935 -0.0016087 -0.00199057 -0.0024 -0.00283697 -0.00330149 -0.00378483 -0.00427823 -0.00478171 -0.00529526 -0.00581135 -0.00632246 -0.00682859 -0.00732974 -0.00781983 -0.00829281 -0.00874865 -0.00918738 -0.0096044 -0.00999514 -0.0103596 -0.0106978 -0.0110068 -0.0112838 -0.0115288 -0.0117418 -0.0119219 -0.0120683 -0.012181 -0.01226 -0.0123067 -0.0123224 -0.0123072 -0.0122611 -0.0121877 -0.0120904 -0.0119693 -0.0118244 -0.0116609 -0.0114841 -0.011294 -0.0110906 -0.01088 -0.0106682 -0.0104552 -0.0102411 -0.0100317 -0.00983273 -0.00964423 -0.0094662 -0.00930306 -0.00915923 -0.00903472 -0.00892952 -0.00884579 -0.00878571 -0.00874926 -0.00873645 -0.00874676 -0.00877968 -0.0088352 -0.00891334 -0.00901103 -0.00912524 -0.00925595 -0.00940317 -0.00956199 -0.00972747 -0.00989962 -0.0100784 -0.0102581 -0.010433 -0.0106029 -0.010768 -0.0109227 -0.0110615 -0.0111844 -0.0112915 -0.0113785 -0.0114411 -0.0114793 -0.0114933 -0.0114805 -0.0114388 -0.0113681 -0.0112683 -0.0111394 -0.0109811 -0.0107935 -0.0105764 -0.0103318 -0.0100613 -0.009765 -0.00944286 -0.00909822 -0.00873441 -0.00835143 -0.00794928 -0.00753242 -0.00710529 -0.00666788 -0.0062202 -0.00576751 -0.00531509 -0.00486293 -0.00441104 -0.00396542 -0.00353209 -0.00311106 -0.00270231 -0.00231243 -0.00194798 -0.00160896 -0.00129538 -0.00101044 -0.000757364 -0.000536157 -0.000346816 -0.000195084 -8.6704e-05 -2.1676e-05 0 0 -3.49723e-05 -0.000139889 -0.000314751 -0.000559557 -0.000862437 -0.00121152 -0.00160681 -0.00204829 -0.00252963 -0.00304444 -0.00359273 -0.0041745 -0.00477878 -0.00539459 -0.00602194 -0.00666083 -0.00730177 -0.00793527 -0.00856134 -0.00917997 -0.00978351 -0.0103643 -0.0109223 -0.0114575 -0.0119642 -0.0124367 -0.0128748 -0.0132787 -0.0136448 -0.0139696 -0.014253 -0.0144951 -0.0146949 -0.0148515 -0.014965 -0.0150353 -0.0150644 -0.0150542 -0.0150048 -0.0149161 -0.0147929 -0.01464 -0.0144572 -0.0142447 -0.0140093 -0.0137578 -0.0134904 -0.0132069 -0.0129154 -0.0126236 -0.0123317 -0.0120397 -0.011755 -0.0114852 -0.0112303 -0.0109903 -0.010771 -0.010578 -0.0104113 -0.0102711 -0.0101599 -0.0100807 -0.0100335 -0.0100181 -0.0100341 -0.0100806 -0.0101578 -0.0102655 -0.0103999 -0.010557 -0.0107367 -0.0109392 -0.011158 -0.0113867 -0.0116253 -0.0118738 -0.0121248 -0.0123706 -0.0126114 -0.0128471 -0.0130704 -0.0132743 -0.0134587 -0.0136236 -0.0137634 -0.0138726 -0.0139511 -0.0139989 -0.0140128 -0.0139898 -0.0139298 -0.0138327 -0.0136982 -0.0135259 -0.0133158 -0.0130677 -0.012784 -0.0124666 -0.0121156 -0.011731 -0.0113169 -0.0108775 -0.0104127 -0.00992265 -0.00941286 -0.00888897 -0.00835096 -0.00779884 -0.00723929 -0.00667898 -0.00611791 -0.00555608 -0.00500109 -0.00446055 -0.00393446 -0.00342282 -0.00293391 -0.00247599 -0.00204908 -0.00165317 -0.00129242 -0.000971007 -0.000688924 -0.000446172 -0.000250972 -0.000111543 -2.78858e-05 0 0 -4.34173e-05 -0.000173669 -0.000390756 -0.000694677 -0.00106962 -0.00149976 -0.00198512 -0.00252567 -0.00311349 -0.00374062 -0.00440707 -0.00511284 -0.00584452 -0.00658871 -0.00734542 -0.00811463 -0.00888475 -0.00964415 -0.0103928 -0.0111308 -0.0118487 -0.012537 -0.0131959 -0.0138253 -0.0144181 -0.0149674 -0.0154733 -0.0159356 -0.0163501 -0.0167128 -0.0170235 -0.0172823 -0.0174882 -0.0176403 -0.0177387 -0.0177833 -0.0177769 -0.017722 -0.0176188 -0.0174672 -0.0172734 -0.0170434 -0.0167774 -0.0164753 -0.0161459 -0.015798 -0.0154315 -0.0150466 -0.0146532 -0.0142615 -0.0138713 -0.0134827 -0.0131053 -0.0127485 -0.0124124 -0.0120969 -0.0118092 -0.0115567 -0.0113392 -0.0111568 -0.011013 -0.0109113 -0.0108516 -0.0108341 -0.0108578 -0.0109219 -0.0110264 -0.0111713 -0.0113515 -0.0115623 -0.0118034 -0.0120749 -0.0123688 -0.012677 -0.0129994 -0.0133362 -0.0136777 -0.0140144 -0.0143464 -0.0146736 -0.0149869 -0.0152771 -0.0155442 -0.0157882 -0.0160019 -0.0161781 -0.0163168 -0.0164179 -0.0164774 -0.0164909 -0.0164586 -0.0163804 -0.0162555 -0.0160831 -0.0158634 -0.0155961 -0.0152839 -0.014929 -0.0145316 -0.0140915 -0.0136139 -0.0131036 -0.0125607 -0.0119853 -0.011384 -0.0107639 -0.010125 -0.00946712 -0.0087986 -0.00812763 -0.00745419 -0.0067783 -0.00610929 -0.00545652 -0.00481999 -0.00419969 -0.00360577 -0.00304838 -0.00252753 -0.00204321 -0.00160069 -0.00120524 -0.000856856 -0.000555547 -0.000312495 -0.000138887 -3.47217e-05 0 0 -5.24733e-05 -0.000209893 -0.00047226 -0.000839573 -0.00129152 -0.00180779 -0.00238838 -0.00303329 -0.00373277 -0.00447705 -0.00526614 -0.00610004 -0.0069627 -0.00783808 -0.00872618 -0.00962699 -0.0105266 -0.0114112 -0.0122807 -0.0131351 -0.0139631 -0.0147536 -0.0155065 -0.0162219 -0.0168913 -0.0175066 -0.0180676 -0.0185744 -0.0190221 -0.0194059 -0.0197257 -0.0199815 -0.0201726 -0.0202982 -0.0203581 -0.0203525 -0.020285 -0.0201592 -0.0199751 -0.0197326 -0.0194397 -0.0191042 -0.018726 -0.0183052 -0.0178528 -0.0173799 -0.0168864 -0.0163724 -0.0158503 -0.0153327 -0.0148196 -0.014311 -0.0138186 -0.0133544 -0.0129183 -0.0125102 -0.0121392 -0.0118142 -0.011535 -0.0113018 -0.0111189 -0.0109906 -0.0109168 -0.0108976 -0.010932 -0.0110188 -0.0111581 -0.0113498 -0.0115879 -0.011866 -0.0121843 -0.0125426 -0.0129311 -0.0133397 -0.0137684 -0.0142171 -0.0146742 -0.0151276 -0.0155775 -0.0160237 -0.0164549 -0.0168596 -0.0172377 -0.0175893 -0.0179052 -0.0181764 -0.0184027 -0.0185843 -0.0187156 -0.0187911 -0.018811 -0.0187752 -0.0186823 -0.0185312 -0.0183218 -0.0180541 -0.0177308 -0.0173546 -0.0169254 -0.0164432 -0.0159139 -0.0153435 -0.0147318 -0.0140788 -0.0133929 -0.0126821 -0.0119464 -0.011186 -0.0104106 -0.00963006 -0.00884447 -0.00805379 -0.00726927 -0.00650213 -0.00575239 -0.00502002 -0.00431726 -0.00365629 -0.00303713 -0.00245977 -0.00193078 -0.00145673 -0.00103761 -0.000673426 -0.000378802 -0.000168356 -4.20891e-05 0 0 -6.21403e-05 -0.000248561 -0.000559262 -0.000994244 -0.00152814 -0.00213559 -0.0028166 -0.00357116 -0.00438747 -0.00525373 -0.00616994 -0.0071361 -0.00813332 -0.00914269 -0.0101642 -0.0111979 -0.0122274 -0.0132364 -0.0142248 -0.0151927 -0.0161268 -0.017014 -0.0178542 -0.0186474 -0.0193839 -0.020054 -0.0206578 -0.0211952 -0.0216607 -0.0220488 -0.0223595 -0.0225928 -0.0227482 -0.022825 -0.0228232 -0.0227429 -0.0225888 -0.0223657 -0.0220736 -0.0217124 -0.021292 -0.0208223 -0.0203031 -0.0197345 -0.0191302 -0.0185036 -0.017855 -0.0171841 -0.0165064 -0.0158372 -0.0151765 -0.0145243 -0.0138949 -0.0133028 -0.012748 -0.0122304 -0.011761 -0.0113504 -0.0109988 -0.0107062 -0.0104777 -0.0103186 -0.010229 -0.0102087 -0.0102566 -0.0103713 -0.0105529 -0.0108012 -0.0111088 -0.0114682 -0.0118794 -0.0123423 -0.0128449 -0.0133748 -0.0139321 -0.0145167 -0.0151143 -0.0157103 -0.0163047 -0.0168975 -0.0174745 -0.0180218 -0.0185393 -0.019027 -0.0194735 -0.0198675 -0.0202089 -0.0204979 -0.0207274 -0.0208904 -0.0209869 -0.021017 -0.0209787 -0.02087 -0.020691 -0.0204417 -0.0201248 -0.0197432 -0.019297 -0.018786 -0.0182172 -0.0175971 -0.0169258 -0.0162034 -0.0154393 -0.0146433 -0.0138154 -0.0129554 -0.0120752 -0.0111863 -0.0102887 -0.00938257 -0.00848102 -0.00759738 -0.00673165 -0.00588383 -0.00506838 -0.00429973 -0.00357789 -0.00290286 -0.0022827 -0.00172547 -0.00123118 -0.000799808 -0.000449892 -0.000199952 -4.9988e-05 0 0 -7.24181e-05 -0.000289673 -0.000651763 -0.00115869 -0.00177949 -0.00248318 -0.00326977 -0.00413927 -0.00507758 -0.00607065 -0.00711846 -0.00822102 -0.00935637 -0.0105025 -0.0116596 -0.0128274 -0.0139871 -0.0151198 -0.0162253 -0.0173038 -0.0183398 -0.0193182 -0.0202388 -0.0211017 -0.0218958 -0.0226098 -0.0232439 -0.023798 -0.0242659 -0.0246416 -0.0249251 -0.0251162 -0.0252149 -0.0252208 -0.025134 -0.0249545 -0.0246882 -0.0243415 -0.0239143 -0.0234065 -0.0228302 -0.0221976 -0.0215086 -0.0207631 -0.0199778 -0.0191692 -0.0183372 -0.0174819 -0.0166218 -0.0157752 -0.0149422 -0.0141228 -0.0133342 -0.0125938 -0.0119016 -0.0112575 -0.0106744 -0.0101655 -0.00973062 -0.00936981 -0.00908933 -0.00889544 -0.00878815 -0.00876744 -0.00883176 -0.00897951 -0.00921071 -0.00952535 -0.00991442 -0.0103689 -0.0108888 -0.011474 -0.0121101 -0.0127822 -0.0134905 -0.014235 -0.0149981 -0.0157624 -0.016528 -0.0172948 -0.0180458 -0.0187638 -0.019449 -0.0201012 -0.0207066 -0.0212514 -0.0217355 -0.0221589 -0.0225128 -0.0227887 -0.0229864 -0.023106 -0.0231447 -0.0230997 -0.0229711 -0.0227588 -0.0224658 -0.022095 -0.0216464 -0.02112 -0.0205235 -0.0198645 -0.0191429 -0.0183589 -0.0175234 -0.0166477 -0.0157317 -0.0147754 -0.0137924 -0.0127963 -0.011787 -0.0107646 -0.00974454 -0.00874226 -0.00775779 -0.00679111 -0.00585912 -0.00497868 -0.0041498 -0.00337248 -0.00265646 -0.00201148 -0.00143756 -0.000934692 -0.000525764 -0.000233673 -5.84183e-05 0 0 -8.30813e-05 -0.000332325 -0.000747732 -0.0013293 -0.00204003 -0.0028429 -0.00373792 -0.00472509 -0.00578782 -0.00690951 -0.00809016 -0.00932978 -0.0106031 -0.011885 -0.0131753 -0.0144742 -0.0157598 -0.0170105 -0.0182262 -0.019407 -0.0205352 -0.0215935 -0.0225818 -0.0235001 -0.0243358 -0.0250762 -0.0257214 -0.0262713 -0.0267193 -0.0270586 -0.0272893 -0.0274113 -0.0274248 -0.0273302 -0.0271274 -0.0268165 -0.026405 -0.0259007 -0.0253037 -0.0246139 -0.0238459 -0.0230145 -0.0221196 -0.0211612 -0.0201592 -0.0191333 -0.0180836 -0.0170101 -0.0159347 -0.0148795 -0.0138444 -0.0128294 -0.0118551 -0.0109419 -0.0100898 -0.00929885 -0.00858434 -0.00796162 -0.00743069 -0.00699154 -0.00665157 -0.00641816 -0.00629131 -0.00627103 -0.00635542 -0.00654262 -0.00683261 -0.0072254 -0.00771031 -0.00827663 -0.00892438 -0.00965355 -0.0104468 -0.0112867 -0.0121733 -0.0131066 -0.0140658 -0.0150302 -0.0159997 -0.0169745 -0.0179339 -0.0188577 -0.0197459 -0.0205983 -0.0213983 -0.0221291 -0.0227907 -0.023383 -0.0238955 -0.0243171 -0.024648 -0.0248882 -0.0250339 -0.0250812 -0.0250303 -0.024881 -0.0246363 -0.0242993 -0.0238698 -0.0233479 -0.0227421 -0.022061 -0.0213045 -0.0204726 -0.019578 -0.0186335 -0.0176389 -0.0165944 -0.0155154 -0.0144176 -0.0133011 -0.0121658 -0.0110294 -0.00990994 -0.00880729 -0.00772147 -0.00667199 -0.00567834 -0.00474052 -0.00385854 -0.00304403 -0.00230863 -0.00165236 -0.0010752 -0.0006048 -0.0002688 -6.71999e-05 0 0 -9.39041e-05 -0.000375617 -0.000845137 -0.00150247 -0.00230424 -0.00320711 -0.00421106 -0.0053161 -0.00650286 -0.007752 -0.0090635 -0.0104374 -0.0118449 -0.0132573 -0.0146747 -0.016097 -0.0174996 -0.0188578 -0.0201716 -0.021441 -0.0226462 -0.0237674 -0.0248046 -0.0257577 -0.0266126 -0.0273553 -0.0279856 -0.0285037 -0.0289023 -0.0291741 -0.0293192 -0.0293376 -0.0292301 -0.0289977 -0.0286404 -0.0281582 -0.0275607 -0.0268574 -0.0260483 -0.0251335 -0.0241306 -0.0230572 -0.0219133 -0.0206989 -0.0194375 -0.0181527 -0.0168445 -0.0155129 -0.0141838 -0.0128831 -0.0116109 -0.0103672 -0.00917606 -0.0080615 -0.00702353 -0.00606217 -0.00519537 -0.00444111 -0.00379938 -0.00327018 -0.00286214 -0.0025839 -0.00243545 -0.00241678 -0.00252569 -0.00275993 -0.00311951 -0.00360443 -0.00420214 -0.0049001 -0.00569829 -0.00659673 -0.007575 -0.00861269 -0.00970979 -0.0108663 -0.0120578 -0.0132598 -0.0144722 -0.0156951 -0.0169044 -0.0180757 -0.0192091 -0.0203045 -0.021342 -0.0223015 -0.023183 -0.0239864 -0.0246987 -0.0253067 -0.0258104 -0.0262098 -0.0264998 -0.0266755 -0.0267368 -0.0266836 -0.026519 -0.0262455 -0.0258634 -0.0253725 -0.0247822 -0.024102 -0.0233319 -0.0224718 -0.021536 -0.0205389 -0.0194804 -0.0183606 -0.0171972 -0.0160079 -0.0147928 -0.0135518 -0.0123053 -0.0110736 -0.00985665 -0.00865451 -0.00748948 -0.00638388 -0.00533771 -0.00435096 -0.0034374 -0.0026108 -0.00187115 -0.00121845 -0.000685376 -0.000304612 -7.61529e-05 0 0 -0.000104887 -0.000419546 -0.000943979 -0.00167819 -0.00257214 -0.0035758 -0.00468919 -0.00591228 -0.00722272 -0.00859812 -0.0100385 -0.0115438 -0.0130816 -0.0146196 -0.0161577 -0.0176958 -0.0192064 -0.0206616 -0.0220614 -0.0234059 -0.0246728 -0.0258398 -0.0269071 -0.0278745 -0.0287264 -0.0294471 -0.0300367 -0.0304952 -0.0308148 -0.030988 -0.0310148 -0.0308951 -0.0306307 -0.0302233 -0.029673 -0.0289798 -0.0281554 -0.0272115 -0.0261482 -0.0249655 -0.0236844 -0.0223258 -0.0208897 -0.0193761 -0.0178128 -0.0162274 -0.0146199 -0.0129903 -0.0113689 -0.00978615 -0.00824191 -0.00673624 -0.00529714 -0.00395263 -0.00270272 -0.0015474 -0.000507529 0.000396041 0.00116331 0.00179428 0.00227895 0.00260734 0.00277945 0.00279528 0.00265744 0.00236854 0.00192858 0.00133756 0.000610076 -0.000239273 -0.00121049 -0.00230357 -0.00349474 -0.00476023 -0.00610005 -0.0075142 -0.00897409 -0.0104512 -0.0119454 -0.0134569 -0.0149571 -0.0164177 -0.0178386 -0.0192199 -0.0205378 -0.0217687 -0.0229124 -0.023969 -0.0249227 -0.0257576 -0.0264736 -0.0270708 -0.0275426 -0.0278825 -0.0280906 -0.0281668 -0.0281136 -0.0279337 -0.0276271 -0.0271937 -0.0266438 -0.0259876 -0.0252251 -0.0243564 -0.0233973 -0.0223639 -0.0212562 -0.0200741 -0.0188377 -0.017567 -0.016262 -0.0149227 -0.0135721 -0.0122332 -0.0109059 -0.00959023 -0.0083116 -0.00709531 -0.00594135 -0.00484975 -0.00383658 -0.00291798 -0.00209393 -0.00136443 -0.000767494 -0.000341109 -8.52772e-05 0 0 -0.000116029 -0.000464115 -0.00104426 -0.00185646 -0.00284371 -0.00394899 -0.0051723 -0.00651366 -0.0079474 -0.00944787 -0.0110151 -0.012649 -0.0143134 -0.0159718 -0.0176242 -0.0192707 -0.0208803 -0.022422 -0.0238957 -0.0253016 -0.0266149 -0.0278108 -0.0288893 -0.0298504 -0.030677 -0.0313517 -0.0318746 -0.0322457 -0.032457 -0.0325004 -0.032376 -0.0320838 -0.0316266 -0.031007 -0.0302252 -0.0292811 -0.028189 -0.0269631 -0.0256033 -0.0241098 -0.0225072 -0.0208201 -0.0190488 -0.017193 -0.0152851 -0.0133574 -0.0114098 -0.00944239 -0.00749027 -0.00558856 -0.00373728 -0.00193643 -0.000218324 0.00138469 0.00287261 0.00424544 0.00547918 0.00654983 0.00745737 0.00820182 0.00877171 0.00915557 0.00935339 0.00936518 0.00919397 0.0088428 0.00831167 0.00760057 0.00672635 0.00570584 0.00453903 0.00322594 0.00179401 0.000270668 -0.00134407 -0.00305021 -0.00481468 -0.0066044 -0.00841938 -0.0102596 -0.012092 -0.0138837 -0.0156345 -0.0173444 -0.0189858 -0.0205306 -0.021979 -0.0233309 -0.0245674 -0.0256696 -0.0266375 -0.0274711 -0.0281621 -0.0287024 -0.0290918 -0.0293304 -0.0294203 -0.0293639 -0.029161 -0.0288116 -0.0283269 -0.0277177 -0.0269843 -0.0261264 -0.025162 -0.0241085 -0.0229662 -0.0217349 -0.020437 -0.019095 -0.0177088 -0.0162785 -0.0148299 -0.0133887 -0.0119549 -0.0105286 -0.00913833 -0.00781261 -0.00655147 -0.00535489 -0.00424157 -0.00323018 -0.00232071 -0.00151316 -0.000851154 -0.000378291 -9.45727e-05 0 0 -0.000127136 -0.000508543 -0.00114422 -0.00203417 -0.00311419 -0.00432005 -0.00565177 -0.00710935 -0.00866361 -0.0102854 -0.0119747 -0.0137316 -0.0155156 -0.0172861 -0.0190432 -0.0207869 -0.0224828 -0.0240966 -0.0256283 -0.0270778 -0.0284178 -0.0296209 -0.0306873 -0.0316168 -0.0323907 -0.0329902 -0.0334152 -0.0336658 -0.0337337 -0.0336106 -0.0332966 -0.0327916 -0.0320996 -0.0312247 -0.0301668 -0.028926 -0.0275193 -0.0259638 -0.0242594 -0.0224061 -0.0204328 -0.0183684 -0.0162128 -0.0139662 -0.0116657 -0.00934875 -0.00701531 -0.00466539 -0.00233938 -7.77017e-05 0.00211966 0.00425269 0.00628436 0.00817762 0.00993248 0.0115489 0.0129995 0.0142569 0.0153209 0.0161918 0.0168562 0.0173013 0.017527 0.0175333 0.0173237 0.0169017 0.0162673 0.0154205 0.0143805 0.0131668 0.0117792 0.0102177 0.00851386 0.00669907 0.00477335 0.00273669 0.0006271 -0.00151742 -0.00369687 -0.00591124 -0.00812241 -0.0102922 -0.0124207 -0.0145079 -0.0165213 -0.0184287 -0.02023 -0.0219252 -0.023492 -0.024908 -0.0261734 -0.027288 -0.0282416 -0.0290239 -0.029635 -0.0300748 -0.030345 -0.0304472 -0.0303815 -0.0301478 -0.029758 -0.0292239 -0.0285454 -0.0277226 -0.026775 -0.025722 -0.0245637 -0.0233 -0.0219559 -0.0205562 -0.019101 -0.0175902 -0.0160526 -0.014517 -0.0129835 -0.0114519 -0.00995433 -0.00852273 -0.00715711 -0.00585748 -0.00464528 -0.00354198 -0.00254758 -0.00166209 -0.000934925 -0.000415522 -0.000103881 0 0 -0.000138014 -0.000552054 -0.00124212 -0.00220822 -0.00337881 -0.00468239 -0.00611895 -0.00768848 -0.0093581 -0.0110949 -0.0128989 -0.0147701 -0.0166636 -0.0185347 -0.0203834 -0.0222097 -0.0239757 -0.0256433 -0.0272127 -0.0286838 -0.0300266 -0.031211 -0.0322371 -0.0331048 -0.0337937 -0.0342836 -0.0345743 -0.0346659 -0.0345499 -0.034218 -0.03367 -0.032906 -0.0319316 -0.0307521 -0.0293677 -0.0277783 -0.0260041 -0.0240654 -0.021962 -0.0196941 -0.017295 -0.0147984 -0.0122042 -0.00951243 -0.00676593 -0.00400763 -0.0012375 0.00154444 0.00429202 0.00695908 0.00954561 0.0120516 0.0144349 0.0166533 0.0187069 0.0205956 0.0222883 0.0237538 0.0249921 0.0260034 0.0267727 0.0272852 0.027541 0.0275401 0.0272864 0.026784 0.0260329 0.0250331 0.0238065 0.0223751 0.0207388 0.0188976 0.0168874 0.014744 0.0124674 0.0100576 0.00755792 0.00501183 0.00241932 -0.000219627 -0.00286127 -0.00546186 -0.00802142 -0.0105399 -0.01298 -0.0153043 -0.0175127 -0.0196053 -0.0215559 -0.0233383 -0.0249526 -0.0263987 -0.027664 -0.028736 -0.0296148 -0.0303002 -0.0307933 -0.031095 -0.0312052 -0.031124 -0.030864 -0.0304376 -0.0298448 -0.0290856 -0.0281815 -0.0271536 -0.026002 -0.0247267 -0.0233551 -0.0219149 -0.0204061 -0.0188285 -0.0172141 -0.015595 -0.013971 -0.0123422 -0.0107442 -0.00921259 -0.00774738 -0.00634856 -0.00504061 -0.00384797 -0.00277066 -0.00180867 -0.00101737 -0.000452166 -0.000113042 0 0 -0.000148662 -0.000594647 -0.00133796 -0.00237859 -0.00363759 -0.005036 -0.00657383 -0.00825107 -0.0100309 -0.0118763 -0.0137875 -0.0157643 -0.0177575 -0.0197177 -0.0216449 -0.0235392 -0.0253588 -0.0270621 -0.0286491 -0.0301198 -0.0314414 -0.032581 -0.0335387 -0.0343144 -0.0348861 -0.035232 -0.0353519 -0.035246 -0.0349056 -0.0343224 -0.0334962 -0.0324272 -0.0311225 -0.0295894 -0.0278279 -0.025838 -0.0236434 -0.0212678 -0.0187112 -0.0159738 -0.0130939 -0.0101103 -0.00702292 -0.00383176 -0.000585803 0.00266599 0.00592362 0.00918709 0.012404 0.0155218 0.0185406 0.0214603 0.0242333 0.0268118 0.0291959 0.0313854 0.0333454 0.0350406 0.036471 0.0376367 0.0385209 0.0391072 0.0393953 0.0393854 0.0390821 0.0384898 0.0376086 0.0364385 0.0350043 0.0333307 0.0314179 0.0292657 0.0269147 0.0244055 0.0217381 0.0189124 0.0159778 0.0129834 0.00992917 0.00681523 0.00369138 0.000607449 -0.00243656 -0.00544064 -0.0083619 -0.0111574 -0.0138272 -0.0163712 -0.0187591 -0.0209604 -0.022975 -0.0248031 -0.0264295 -0.0278388 -0.0290313 -0.0300067 -0.0307653 -0.0313071 -0.0316321 -0.0317402 -0.0316447 -0.0313587 -0.0308823 -0.0302155 -0.0293814 -0.0284032 -0.027281 -0.0260148 -0.0246348 -0.0231712 -0.0216241 -0.0199935 -0.0183145 -0.0166226 -0.0149176 -0.0131996 -0.011508 -0.0098822 -0.00832226 -0.00682815 -0.00542756 -0.00414816 -0.00298993 -0.0019529 -0.0010985 -0.000488224 -0.000122056 0 0 -0.000159081 -0.000636322 -0.00143172 -0.00254529 -0.00389051 -0.00538089 -0.00701642 -0.00879711 -0.0106819 -0.0126297 -0.0146406 -0.0167145 -0.0187973 -0.0208351 -0.0228277 -0.0247752 -0.0266321 -0.0283528 -0.0299374 -0.0313857 -0.0326622 -0.033731 -0.0345921 -0.0352456 -0.0356679 -0.0358354 -0.0357481 -0.0354061 -0.0348008 -0.0339239 -0.0327753 -0.0313551 -0.0296725 -0.0277366 -0.0255474 -0.023105 -0.020437 -0.017571 -0.0145071 -0.0112452 -0.00782943 -0.00430402 -0.000668933 0.00307582 0.00687469 0.0106721 0.0144681 0.0182626 0.0219964 0.0256104 0.0291045 0.0324788 0.0356796 0.0386531 0.0413994 0.0439184 0.0461709 0.0481172 0.0497575 0.0510916 0.0521011 0.0527672 0.05309 0.0530695 0.0527107 0.052019 0.0509943 0.0496366 0.0479738 0.0460337 0.0438164 0.0413219 0.0385958 0.0356836 0.0325855 0.0293013 0.0258867 0.0223971 0.0188327 0.0151933 0.0115355 0.0079157 0.00433386 0.000790004 -0.00266695 -0.0059881 -0.00917343 -0.012223 -0.0151016 -0.0177742 -0.0202408 -0.0225014 -0.0245379 -0.0263322 -0.0278844 -0.0291943 -0.0302611 -0.0310837 -0.0316621 -0.0319963 -0.0321002 -0.0319874 -0.0316581 -0.0311121 -0.0303747 -0.0294709 -0.0284008 -0.0271644 -0.0257948 -0.024325 -0.0227551 -0.0210852 -0.0193538 -0.0175998 -0.0158232 -0.014024 -0.0122456 -0.0105315 -0.00888175 -0.00729625 -0.00580615 -0.00444253 -0.00320541 -0.00209478 -0.00117831 -0.000523694 -0.000130924 0 0 -0.00016912 -0.000676481 -0.00152208 -0.00270592 -0.00413391 -0.00571197 -0.00744008 -0.00931825 -0.011301 -0.0133429 -0.0154439 -0.0176041 -0.0197644 -0.0218658 -0.0239084 -0.0258921 -0.0277674 -0.0294847 -0.0