<?xml version="1.0"?> 
<VTKFile type="StructuredGrid" version="0.1"> 
<StructuredGrid WholeExtent="0 128 0 128 0 0"> 
<Piece Extent="0 128 0 128 0 0"> 
<PointData>
<DataArray type="Float32" Name="u" format="ascii" NumberOfComponents="1"> 
0 0 0 0 0 0 0 0 0 0 0 0 0 0 0 0 0 0 0 0 0 0 0 0 0 0 0 0 0 0 0 0 0 0 0 0 0 0 0 0 0 0 0 0 0 0 0 0 0 0 0 0 0 0 0 0 0 0 0 0 0 0 0 0 0 0 0 0 0 0 0 0 0 0 0 0 0 0 0 0 0 0 0 0 0 0 0 0 0 0 0 0 0 0 0 0 0 0 0 0 0 0 0 0 0 0 0 0 0 0 0 0 0 0 0 0 0 0 0 0 0 0 0 0 0 0 0 0 0 0 -2.8802e-07 -1.15208e-06 -2.59218e-06 -4.60832e-06 -7.23483e-06 -1.0506e-05 -1.44219e-05 -1.89826e-05 -2.41904e-05 -3.00482e-05 -3.65557e-05 -4.37131e-05 -5.14411e-05 -5.96605e-05 -6.83712e-05 -7.75732e-05 -8.7175e-05 -9.70849e-05 -0.000107303 -0.000117829 -0.000128568 -0.000139425 -0.0001504 -0.000161492 -0.000172606 -0.000183646 -0.000194613 -0.000205505 -0.000216234 -0.000226711 -0.000236937 -0.00024691 -0.000256561 -0.000265818 -0.000274681 -0.000283151 -0.000291185 -0.000298741 -0.000305819 -0.00031242 -0.000318536 -0.00032416 -0.000329292 -0.000333932 -0.000338107 -0.000341843 -0.000345139 -0.000347996 -0.000350465 -0.000352594 -0.000354386 -0.000355838 -0.000357011 -0.000357963 -0.000358695 -0.000359205 -0.000359545 -0.000359764 -0.000359863 -0.000359841 -0.000359726 -0.000359545 -0.000359298 -0.000358985 -0.000358603 -0.000358149 -0.000357622 -0.000357023 -0.00035632 -0.000355482 -0.000354507 -0.000353396 -0.000352099 -0.000350565 -0.000348793 -0.000346784 -0.000344484 -0.00034184 -0.000338851 -0.000335517 -0.000331797 -0.000327653 -0.000323083 -0.000318088 -0.000312653 -0.000306767 -0.000300428 -0.000293637 -0.000286413 -0.000278777 -0.000270728 -0.000262267 -0.000253445 -0.000244313 -0.000234873 -0.000225123 -0.00021514 -0.000204997 -0.000194696 -0.000184236 -0.000173704 -0.000163187 -0.000152683 -0.000142195 -0.000131807 -0.000121607 -0.000111594 -0.00010177 -9.22119e-05 -8.30009e-05 -7.41365e-05 -6.56187e-05 -5.75174e-05 -4.99024e-05 -4.27738e-05 -3.61314e-05 -3.00286e-05 -2.45185e-05 -1.96012e-05 -1.52766e-05 -1.15263e-05 -8.33175e-06 -5.69301e-06 -3.61008e-06 -2.03067e-06 -9.02519e-07 -2.2563e-07 0 0 -1.15208e-06 -4.60832e-06 -1.03687e-05 -1.84333e-05 -2.89393e-05 -4.20241e-05 -5.76878e-05 -7.59303e-05 -9.67618e-05 -0.000120193 -0.000146223 -0.000174853 -0.000205765 -0.000238642 -0.000273485 -0.000310293 -0.0003487 -0.00038834 -0.000429212 -0.000471317 -0.000514274 -0.000557702 -0.0006016 -0.000645969 -0.000690425 -0.000734586 -0.000778451 -0.000822019 -0.000864936 -0.000906845 -0.000947747 -0.000987641 -0.00102624 -0.00106327 -0.00109872 -0.0011326 -0.00116474 -0.00119496 -0.00122328 -0.00124968 -0.00127414 -0.00129664 -0.00131717 -0.00133573 -0.00135243 -0.00136737 -0.00138056 -0.00139198 -0.00140186 -0.00141038 -0.00141754 -0.00142335 -0.00142805 -0.00143185 -0.00143478 -0.00143682 -0.00143818 -0.00143906 -0.00143945 -0.00143936 -0.0014389 -0.00143818 -0.00143719 -0.00143594 -0.00143441 -0.00143259 -0.00143049 -0.00142809 -0.00142528 -0.00142193 -0.00141803 -0.00141358 -0.0014084 -0.00140226 -0.00139517 -0.00138714 -0.00137794 -0.00136736 -0.0013554 -0.00134207 -0.00132719 -0.00131061 -0.00129233 -0.00127235 -0.00125061 -0.00122707 -0.00120171 -0.00117455 -0.00114565 -0.00111511 -0.00108291 -0.00104907 -0.00101378 -0.000977254 -0.000939492 -0.000900494 -0.000860559 -0.00081999 -0.000778785 -0.000736946 -0.000694817 -0.000652747 -0.000610734 -0.000568778 -0.000527227 -0.000486427 -0.000446377 -0.000407078 -0.000368848 -0.000332004 -0.000296546 -0.000262475 -0.00023007 -0.00019961 -0.000171095 -0.000144526 -0.000120114 -9.80741e-05 -7.84048e-05 -6.11064e-05 -4.61051e-05 -3.3327e-05 -2.2772e-05 -1.44403e-05 -8.12267e-06 -3.61008e-06 -9.02519e-07 0 0 -2.59218e-06 -1.03687e-05 -2.33296e-05 -4.14748e-05 -6.51134e-05 -9.45543e-05 -0.000129798 -0.000170843 -0.000217714 -0.000270434 -0.000329002 -0.000393418 -0.00046297 -0.000536944 -0.000615341 -0.000698159 -0.000784575 -0.000873764 -0.000965727 -0.00106046 -0.00115712 -0.00125483 -0.0013536 -0.00145343 -0.00155346 -0.00165282 -0.00175151 -0.00184954 -0.00194611 -0.0020404 -0.00213243 -0.00222219 -0.00230905 -0.00239236 -0.00247213 -0.00254836 -0.00262066 -0.00268867 -0.00275237 -0.00281178 -0.00286682 -0.00291744 -0.00296363 -0.00300539 -0.00304296 -0.00307658 -0.00310625 -0.00313197 -0.00315418 -0.00317335 -0.00318947 -0.00320254 -0.0032131 -0.00322167 -0.00322825 -0.00323285 -0.0032359 -0.00323788 -0.00323876 -0.00323857 -0.00323753 -0.00323591 -0.00323368 -0.00323087 -0.00322743 -0.00322334 -0.0032186 -0.00321321 -0.00320688 -0.00319933 -0.00319056 -0.00318057 -0.00316889 -0.00315508 -0.00313914 -0.00312106 -0.00310036 -0.00307656 -0.00304966 -0.00301965 -0.00298618 -0.00294888 -0.00290775 -0.00286279 -0.00281388 -0.0027609 -0.00270385 -0.00264273 -0.00257772 -0.00250899 -0.00243655 -0.0023604 -0.002281 -0.00219882 -0.00211386 -0.00202611 -0.00193626 -0.00184498 -0.00175227 -0.00165813 -0.00156334 -0.00146868 -0.00137415 -0.00127975 -0.00118626 -0.00109446 -0.00100435 -0.000915926 -0.000829907 -0.000747008 -0.000667229 -0.000590569 -0.000517657 -0.000449122 -0.000384964 -0.000325183 -0.000270257 -0.000220667 -0.000176411 -0.000137489 -0.000103736 -7.49857e-05 -5.12371e-05 -3.24907e-05 -1.8276e-05 -8.12267e-06 -2.03067e-06 0 0 -4.60832e-06 -1.84333e-05 -4.14748e-05 -7.37331e-05 -0.000115757 -0.000168097 -0.000230751 -0.000303721 -0.000387047 -0.000480771 -0.000584892 -0.00069941 -0.000823058 -0.000954568 -0.00109394 -0.00124117 -0.0013948 -0.00155336 -0.00171685 -0.00188527 -0.0020571 -0.00223081 -0.0024064 -0.00258388 -0.0027617 -0.00293834 -0.0031138 -0.00328808 -0.00345974 -0.00362738 -0.00379099 -0.00395056 -0.00410497 -0.00425309 -0.0043949 -0.00453041 -0.00465896 -0.00477985 -0.00489311 -0.00499872 -0.00509658 -0.00518656 -0.00526867 -0.00534292 -0.00540971 -0.00546948 -0.00552222 -0.00556794 -0.00560743 -0.00564151 -0.00567017 -0.00569341 -0.00571218 -0.00572741 -0.00573911 -0.00574728 -0.00575272 -0.00575622 -0.0057578 -0.00575746 -0.00575562 -0.00575272 -0.00574877 -0.00574376 -0.00573765 -0.00573038 -0.00572195 -0.00571237 -0.00570113 -0.00568771 -0.00567211 -0.00565434 -0.00563358 -0.00560903 -0.00558069 -0.00554855 -0.00551175 -0.00546944 -0.00542161 -0.00536826 -0.00530876 -0.00524245 -0.00516933 -0.0050894 -0.00500245 -0.00490827 -0.00480685 -0.00469819 -0.00458261 -0.00446043 -0.00433165 -0.00419627 -0.00405512 -0.00390901 -0.00375797 -0.00360197 -0.00344224 -0.00327996 -0.00311514 -0.00294778 -0.00277927 -0.00261099 -0.00244293 -0.00227511 -0.00210891 -0.00194571 -0.00178551 -0.00162831 -0.00147539 -0.00132801 -0.00118618 -0.0010499 -0.000920279 -0.000798439 -0.00068438 -0.000578103 -0.000480458 -0.000392297 -0.000313619 -0.000244426 -0.00018442 -0.000133308 -9.10882e-05 -5.77612e-05 -3.24907e-05 -1.44403e-05 -3.61008e-06 0 0 -7.2327e-06 -2.89308e-05 -6.50943e-05 -0.000115723 -0.000181437 -0.000262854 -0.000359975 -0.0004728 -0.000601346 -0.000745628 -0.000905647 -0.0010814 -0.00127093 -0.00147227 -0.00168541 -0.00191036 -0.00214485 -0.00238663 -0.00263569 -0.00289203 -0.00315331 -0.00341717 -0.00368363 -0.00395267 -0.00422196 -0.00448913 -0.00475419 -0.00501714 -0.00527582 -0.00552805 -0.00577383 -0.00601318 -0.00624437 -0.00646571 -0.0066772 -0.00687883 -0.00706963 -0.0072486 -0.00741575 -0.00757109 -0.00771448 -0.00784583 -0.00796513 -0.00807238 -0.00816828 -0.00825356 -0.00832822 -0.00839224 -0.00844693 -0.00849358 -0.0085322 -0.00856278 -0.00858682 -0.00860582 -0.00861977 -0.00862868 -0.00863382 -0.00863645 -0.00863658 -0.0086342 -0.00863 -0.00862466 -0.0086182 -0.00861059 -0.00860178 -0.00859167 -0.00858026 -0.00856756 -0.00855276 -0.00853505 -0.00851443 -0.0084909 -0.00846317 -0.00842997 -0.00839128 -0.00834712 -0.00829609 -0.00823684 -0.00816935 -0.00809363 -0.00800862 -0.00791328 -0.0078076 -0.00769159 -0.00756485 -0.00742699 -0.00727801 -0.00711791 -0.00694712 -0.00676608 -0.00657479 -0.00637324 -0.00616267 -0.0059443 -0.00571813 -0.00548416 -0.00524421 -0.0050001 -0.00475182 -0.00449938 -0.00424489 -0.00399046 -0.00373609 -0.00348179 -0.00322969 -0.0029819 -0.00273843 -0.00249929 -0.00226643 -0.00204182 -0.00182545 -0.00161734 -0.0014192 -0.00123277 -0.00105805 -0.000895043 -0.000745073 -0.000609469 -0.000488232 -0.000381361 -0.000288447 -0.000209081 -0.000143263 -9.09928e-05 -5.11835e-05 -2.27482e-05 -5.68705e-06 0 0 -1.04975e-05 -4.19902e-05 -9.44779e-05 -0.000167961 -0.000262718 -0.00037903 -0.000516896 -0.000676316 -0.000857193 -0.00105943 -0.00128302 -0.00152797 -0.0017915 -0.0020708 -0.00236589 -0.00267675 -0.00300021 -0.00333308 -0.00367536 -0.00402705 -0.00438485 -0.00474547 -0.00510892 -0.0054752 -0.00584103 -0.00620315 -0.00656156 -0.00691626 -0.00726429 -0.00760266 -0.00793139 -0.00825046 -0.0085576 -0.00885052 -0.00912921 -0.00939368 -0.00964268 -0.00987498 -0.0100906 -0.0102895 -0.0104716 -0.0106371 -0.0107858 -0.0109178 -0.0110343 -0.0111363 -0.011224 -0.0112972 -0.011358 -0.0114083 -0.0114481 -0.0114775 -0.0114986 -0.0115136 -0.0115226 -0.0115256 -0.0115244 -0.0115209 -0.0115151 -0.011507 -0.0114975 -0.0114878 -0.0114777 -0.0114673 -0.0114565 -0.0114452 -0.0114332 -0.0114208 -0.0114065 -0.0113894 -0.0113693 -0.0113462 -0.0113184 -0.0112837 -0.0112424 -0.0111943 -0.0111374 -0.0110696 -0.010991 -0.0109014 -0.0107994 -0.0106833 -0.0105531 -0.0104087 -0.0102496 -0.0100749 -0.00988463 -0.00967886 -0.00945803 -0.00922259 -0.00897254 -0.00870789 -0.00843022 -0.00814115 -0.00784066 -0.00752876 -0.00720791 -0.00688056 -0.00654672 -0.00620638 -0.00586247 -0.00551789 -0.00517264 -0.00482672 -0.00448311 -0.00414477 -0.0038117 -0.00348391 -0.00316416 -0.00285522 -0.00255708 -0.00226975 -0.00199568 -0.00173732 -0.00149469 -0.00126776 -0.00105846 -0.000868692 -0.000698452 -0.000547742 -0.000416108 -0.000303094 -0.0002087 -0.000132927 -7.47712e-05 -3.32316e-05 -8.30791e-06 0 0 -1.44029e-05 -5.76114e-05 -0.000129626 -0.000230446 -0.000359602 -0.000516625 -0.000701514 -0.00091427 -0.00115459 -0.00142217 -0.00171702 -0.00203912 -0.00238475 -0.00275017 -0.00313537 -0.00354035 -0.00396088 -0.00439272 -0.00483586 -0.00529031 -0.00575171 -0.0062157 -0.00668227 -0.00715144 -0.00761891 -0.0080804 -0.00853591 -0.00898544 -0.00942516 -0.00985123 -0.0102636 -0.0106624 -0.0110447 -0.0114075 -0.0117509 -0.012075 -0.0123781 -0.012659 -0.0129176 -0.0131538 -0.013368 -0.0135603 -0.0137307 -0.0138793 -0.0140077 -0.0141178 -0.0142095 -0.0142828 -0.0143406 -0.0143856 -0.0144179 -0.0144375 -0.0144474 -0.0144508 -0.0144477 -0.0144381 -0.0144245 -0.0144096 -0.0143933 -0.0143757 -0.0143582 -0.014342 -0.0143273 -0.014314 -0.0143019 -0.0142908 -0.0142809 -0.014272 -0.0142624 -0.0142507 -0.0142366 -0.0142203 -0.0141991 -0.0141703 -0.014134 -0.01409 -0.0140356 -0.0139677 -0.0138864 -0.0137917 -0.0136812 -0.0135526 -0.0134058 -0.0132409 -0.0130566 -0.0128519 -0.0126267 -0.0123811 -0.0121153 -0.01183 -0.0115249 -0.0112002 -0.0108578 -0.0104996 -0.0101255 -0.00973576 -0.00933332 -0.00892134 -0.00849983 -0.0080688 -0.00763202 -0.00719327 -0.00675256 -0.00630989 -0.00586917 -0.00543431 -0.00500531 -0.00458218 -0.00416858 -0.00376821 -0.00338106 -0.00300713 -0.00264972 -0.0023121 -0.00199428 -0.00169626 -0.00142062 -0.00116996 -0.000944278 -0.000743568 -0.000567401 -0.000415345 -0.000287398 -0.000183562 -0.000103254 -4.58906e-05 -1.14726e-05 0 0 -1.89486e-05 -7.57944e-05 -0.000170538 -0.000303178 -0.000472087 -0.000675637 -0.000913829 -0.00118666 -0.00149354 -0.00183386 -0.00220763 -0.00261485 -0.0030507 -0.00351037 -0.00399385 -0.00450116 -0.00502686 -0.00556554 -0.0061172 -0.00668184 -0.00725391 -0.00782786 -0.00840369 -0.0089814 -0.0095556 -0.0101209 -0.0106772 -0.0112247 -0.0117584 -0.0122737 -0.0127706 -0.013249 -0.0137055 -0.0141366 -0.0145423 -0.0149227 -0.015276 -0.0156007 -0.0158967 -0.0161642 -0.0164036 -0.0166155 -0.0167999 -0.0169567 -0.0170886 -0.0171979 -0.0172847 -0.0173491 -0.0173948 -0.0174256 -0.0174416 -0.0174428 -0.0174333 -0.0174174 -0.017395 -0.017366 -0.0173341 -0.0173025 -0.0172713 -0.0172406 -0.017212 -0.0171875 -0.017167 -0.0171505 -0.0171378 -0.0171287 -0.0171232 -0.0171212 -0.0171205 -0.0171189 -0.0171165 -0.0171132 -0.0171055 -0.0170898 -0.0170661 -0.0170344 -0.0169907 -0.0169312 -0.0168558 -0.0167645 -0.016654 -0.0165211 -0.0163658 -0.016188 -0.015986 -0.0157581 -0.0155043 -0.0152245 -0.0149191 -0.0145882 -0.0142319 -0.0138502 -0.0134453 -0.0130195 -0.0125728 -0.0121052 -0.0116204 -0.0111224 -0.0106112 -0.0100866 -0.00955353 -0.00901661 -0.00847587 -0.00793131 -0.00738788 -0.00685053 -0.00631926 -0.00579408 -0.00527969 -0.00478079 -0.0042974 -0.0038295 -0.00338132 -0.0029571 -0.00255684 -0.00218054 -0.00183156 -0.00151328 -0.00122571 -0.000968839 -0.000742328 -0.000545835 -0.000379359 -0.0002429 -0.000136631 -6.0725e-05 -1.51812e-05 0 0 -2.41254e-05 -9.65016e-05 -0.000217129 -0.000386006 -0.000599895 -0.000855556 -0.00115299 -0.00149219 -0.00187213 -0.00229175 -0.00275108 -0.00325009 -0.00378274 -0.00434297 -0.00493078 -0.00554618 -0.00618241 -0.00683273 -0.00749715 -0.00817565 -0.00886138 -0.00954748 -0.0102339 -0.0109208 -0.0116014 -0.0122691 -0.012924 -0.0135661 -0.0141895 -0.0147887 -0.0153636 -0.0159142 -0.0164364 -0.0169263 -0.0173838 -0.0178089 -0.0181999 -0.0185553 -0.018875 -0.019159 -0.0194084 -0.0196242 -0.0198064 -0.019955 -0.0200735 -0.0201654 -0.0202307 -0.0202695 -0.0202867 -0.0202876 -0.020272 -0.0202401 -0.0201973 -0.020149 -0.0200953 -0.020036 -0.0199758 -0.019919 -0.0198657 -0.0198158 -0.0197717 -0.0197358 -0.0197081 -0.0196884 -0.0196766 -0.0196723 -0.0196755 -0.0196862 -0.0197015 -0.0197186 -0.0197374 -0.0197579 -0.0197755 -0.0197856 -0.0197881 -0.0197831 -0.0197652 -0.0197294 -0.0196757 -0.019604 -0.0195098 -0.0193889 -0.0192411 -0.0190665 -0.0188626 -0.0186267 -0.018359 -0.0180593 -0.0177277 -0.0173641 -0.0169685 -0.0165409 -0.0160838 -0.0155997 -0.0150886 -0.0145504 -0.0139898 -0.0134111 -0.0128145 -0.0121998 -0.0115729 -0.0109394 -0.0102993 -0.00965264 -0.00900552 -0.00836402 -0.00772812 -0.00709784 -0.00647902 -0.00587751 -0.00529333 -0.00472645 -0.0041822 -0.00366586 -0.00317744 -0.00271694 -0.00228865 -0.00189688 -0.00154162 -0.00122288 -0.000940517 -0.000694409 -0.000484554 -0.000310952 -0.00017491 -7.77379e-05 -1.94345e-05 0 0 -2.99238e-05 -0.000119695 -0.000269314 -0.000478781 -0.000742748 -0.00105587 -0.00141814 -0.00182956 -0.00228845 -0.00279312 -0.00334356 -0.00393978 -0.00457428 -0.00523956 -0.00593561 -0.00666243 -0.0074118 -0.00817549 -0.00895348 -0.00974578 -0.0105441 -0.0113401 -0.0121338 -0.0129252 -0.0137065 -0.0144696 -0.0152147 -0.0159417 -0.0166439 -0.0173147 -0.0179539 -0.0185617 -0.0191335 -0.0196648 -0.0201555 -0.0206057 -0.0210139 -0.0213784 -0.0216993 -0.0219766 -0.0222122 -0.0224077 -0.0225632 -0.0226788 -0.0227591 -0.022809 -0.0228284 -0.0228174 -0.0227827 -0.0227309 -0.0226621 -0.0225762 -0.0224802 -0.0223813 -0.0222794 -0.0221745 -0.0220723 -0.0219785 -0.021893 -0.021816 -0.0217503 -0.0216989 -0.0216619 -0.0216392 -0.0216305 -0.0216352 -0.0216534 -0.0216851 -0.0217265 -0.0217741 -0.0218277 -0.0218875 -0.0219474 -0.0220014 -0.0220496 -0.0220919 -0.0221216 -0.0221319 -0.0221229 -0.0220945 -0.0220409 -0.0219561 -0.0218401 -0.0216931 -0.0215112 -0.021291 -0.0210325 -0.0207355 -0.0203997 -0.0200244 -0.0196096 -0.0191553 -0.0186642 -0.0181387 -0.017579 -0.0169849 -0.0163618 -0.0157146 -0.0150434 -0.0143483 -0.0136359 -0.0129129 -0.0121795 -0.0114355 -0.0106884 -0.00994537 -0.00920645 -0.00847165 -0.0077481 -0.00704291 -0.00635608 -0.00568763 -0.00504406 -0.00443191 -0.00385116 -0.00330182 -0.0027893 -0.00231899 -0.00189089 -0.00150501 -0.0011616 -0.000860913 -0.000602957 -0.000387729 -0.000218098 -9.69322e-05 -2.42331e-05 0 0 -3.63438e-05 -0.000145375 -0.000327094 -0.000581501 -0.000900644 -0.00127657 -0.00170928 -0.00219878 -0.00274251 -0.00333795 -0.00398509 -0.00468393 -0.00542533 -0.00620012 -0.00700832 -0.00784992 -0.00871504 -0.0095938 -0.0104862 -0.0113922 -0.012302 -0.0132057 -0.0141033 -0.0149948 -0.0158709 -0.0167224 -0.0175493 -0.0183516 -0.0191215 -0.0198516 -0.0205416 -0.0211917 -0.0217968 -0.0223521 -0.0228576 -0.0233132 -0.0237177 -0.0240698 -0.0243696 -0.0246171 -0.024815 -0.0249661 -0.0250705 -0.0251281 -0.0251454 -0.0251286 -0.0250778 -0.024993 -0.0248827 -0.0247556 -0.0246117 -0.0244509 -0.0242821 -0.0241143 -0.0239474 -0.0237814 -0.0236235 -0.0234808 -0.0233533 -0.023241 -0.0231476 -0.0230767 -0.0230285 -0.0230029 -0.0229994 -0.0230173 -0.0230567 -0.0231176 -0.0231954 -0.0232853 -0.0233875 -0.0235019 -0.023621 -0.0237371 -0.0238505 -0.0239609 -0.0240598 -0.0241387 -0.0241975 -0.0242361 -0.024247 -0.0242226 -0.0241627 -0.0240675 -0.0239319 -0.023751 -0.0235248 -0.0232532 -0.0229351 -0.0225691 -0.0221552 -0.0216934 -0.0211864 -0.0206366 -0.020044 -0.0194087 -0.0187364 -0.0180329 -0.0172981 -0.016532 -0.0157425 -0.0149373 -0.0141165 -0.01328 -0.0124365 -0.0115946 -0.0107543 -0.00991553 -0.00908693 -0.00827697 -0.00748567 -0.00671303 -0.00596692 -0.00525524 -0.004578 -0.00393518 -0.00333349 -0.0027796 -0.00227351 -0.00181523 -0.00140557 -0.00104535 -0.000734569 -0.000473232 -0.000266193 -0.000118308 -2.9577e-05 0 0 -4.33854e-05 -0.000173542 -0.000390469 -0.000694167 -0.00107358 -0.00151767 -0.00202642 -0.00259983 -0.00323431 -0.00392626 -0.00467567 -0.00548254 -0.00633587 -0.00722467 -0.00814892 -0.00910863 -0.0100921 -0.0110877 -0.0120953 -0.013115 -0.0141352 -0.0151444 -0.0161425 -0.0171295 -0.0180947 -0.0190275 -0.0199278 -0.0207957 -0.0216224 -0.0223994 -0.0231266 -0.023804 -0.0244263 -0.0249883 -0.02549 -0.0259313 -0.0263115 -0.0266297 -0.026886 -0.0270803 -0.0272168 -0.0272994 -0.0273281 -0.027303 -0.0272323 -0.0271242 -0.0269788 -0.0267961 -0.0265867 -0.0263617 -0.0261208 -0.0258642 -0.0256029 -0.0253479 -0.0250993 -0.0248569 -0.0246296 -0.0244261 -0.0242466 -0.0240909 -0.0239636 -0.0238693 -0.0238079 -0.0237795 -0.0237833 -0.0238186 -0.0238855 -0.0239839 -0.0241081 -0.0242524 -0.0244168 -0.0246012 -0.0247963 -0.0249928 -0.0251907 -0.02539 -0.0255799 -0.0257497 -0.0258993 -0.0260288 -0.0261284 -0.0261885 -0.026209 -0.0261899 -0.0261247 -0.0260067 -0.0258359 -0.0256124 -0.0253339 -0.0249982 -0.0246053 -0.0241553 -0.0236505 -0.0230933 -0.0224837 -0.0218218 -0.0211138 -0.020366 -0.0195784 -0.0187511 -0.0178928 -0.0170126 -0.0161103 -0.0151861 -0.0142498 -0.0133116 -0.0123715 -0.0114295 -0.0104955 -0.00957972 -0.0086821 -0.00780264 -0.00695076 -0.00613586 -0.00535795 -0.00461702 -0.00392122 -0.00327871 -0.00268948 -0.00215353 -0.00167242 -0.00124771 -0.000879388 -0.000567461 -0.000319197 -0.000141865 -3.54663e-05 0 0 -5.09455e-05 -0.000203782 -0.00045851 -0.000815129 -0.00125902 -0.00177555 -0.00236474 -0.00302657 -0.00375615 -0.00454858 -0.00540384 -0.00632195 -0.00728981 -0.00829433 -0.00933551 -0.0104134 -0.0115142 -0.0126243 -0.0137438 -0.0148725 -0.0159972 -0.0171043 -0.0181939 -0.0192661 -0.0203085 -0.021309 -0.0222676 -0.0231843 -0.0240495 -0.0248535 -0.0255963 -0.0262779 -0.0268929 -0.0274357 -0.0279064 -0.0283049 -0.0286311 -0.0288849 -0.0290663 -0.0291753 -0.0292175 -0.0291985 -0.0291183 -0.0289769 -0.0287848 -0.0285524 -0.0282799 -0.0279672 -0.0276277 -0.0272748 -0.0269085 -0.0265288 -0.0261493 -0.0257833 -0.025431 -0.0250923 -0.0247779 -0.0244985 -0.0242542 -0.0240448 -0.0238759 -0.0237529 -0.023676 -0.023645 -0.0236592 -0.0237175 -0.0238201 -0.0239668 -0.0241508 -0.024365 -0.0246095 -0.0248841 -0.0251775 -0.0254783 -0.0257864 -0.0261019 -0.0264115 -0.0267019 -0.0269731 -0.0272251 -0.0274458 -0.027623 -0.0277567 -0.0278468 -0.0278849 -0.0278624 -0.0277791 -0.0276353 -0.0274273 -0.0271519 -0.0268089 -0.0263985 -0.0259226 -0.0253833 -0.0247807 -0.0241147 -0.0233921 -0.0226196 -0.0217973 -0.0209252 -0.0200133 -0.0190714 -0.0180997 -0.0170981 -0.0160782 -0.0150515 -0.0140179 -0.0129775 -0.011942 -0.0109231 -0.00992081 -0.00893513 -0.00797715 -0.00705797 -0.0061776 -0.00533604 -0.00454309 -0.0038086 -0.00313255 -0.00251496 -0.00195831 -0.00146512 -0.00103538 -0.000669103 -0.00037637 -0.000167276 -4.18189e-05 0 0 -5.8921e-05 -0.000235684 -0.000530289 -0.000942736 -0.00145439 -0.00204663 -0.00271945 -0.00347286 -0.00430035 -0.00519546 -0.00615818 -0.00718851 -0.00827101 -0.00939024 -0.0105462 -0.0117389 -0.0129525 -0.014171 -0.0153946 -0.0166231 -0.0178413 -0.0190337 -0.0202004 -0.0213414 -0.0224429 -0.023491 -0.024486 -0.0254276 -0.0263054 -0.0271089 -0.027838 -0.0284927 -0.0290674 -0.0295567 -0.0299606 -0.030279 -0.0305127 -0.0306626 -0.0307288 -0.0307111 -0.0306172 -0.0304545 -0.0302232 -0.0299231 -0.0295675 -0.0291696 -0.0287294 -0.0282469 -0.0277386 -0.0272208 -0.0266937 -0.0261571 -0.0256276 -0.0251214 -0.0246386 -0.0241793 -0.0237561 -0.0233822 -0.0230573 -0.0227817 -0.0225617 -0.0224041 -0.0223087 -0.0222757 -0.0223039 -0.0223922 -0.0225407 -0.0227492 -0.0230095 -0.0233129 -0.0236596 -0.0240494 -0.0244686 -0.0249033 -0.0253535 -0.0258192 -0.0262841 -0.0267322 -0.0271634 -0.0275777 -0.02796 -0.0282954 -0.0285836 -0.0288249 -0.0290082 -0.0291225 -0.0291678 -0.0291442 -0.0290467 -0.0288702 -0.0286148 -0.0282805 -0.0278688 -0.0273811 -0.0268175 -0.026178 -0.0254696 -0.0246995 -0.0238678 -0.0229743 -0.0220302 -0.0210466 -0.0200235 -0.0189607 -0.0178715 -0.016769 -0.015653 -0.0145237 -0.0133946 -0.0122791 -0.0111773 -0.0100891 -0.00902764 -0.00800578 -0.00702354 -0.00608093 -0.00518968 -0.00436153 -0.00359647 -0.00289451 -0.00225935 -0.00169469 -0.00120052 -0.000776846 -0.000436976 -0.000194211 -4.85529e-05 0 0 -6.73118e-05 -0.000269247 -0.000605806 -0.00107699 -0.00165971 -0.0023309 -0.00309056 -0.00393867 -0.00486691 -0.00586691 -0.00693868 -0.00808222 -0.00927947 -0.0105124 -0.011781 -0.0130852 -0.0144069 -0.0157277 -0.0170477 -0.0183668 -0.0196677 -0.0209327 -0.022162 -0.0233555 -0.0244979 -0.0255737 -0.0265829 -0.0275256 -0.0283904 -0.0291657 -0.0298517 -0.0304482 -0.0309499 -0.0313514 -0.0316525 -0.0318535 -0.0319562 -0.0319628 -0.0318732 -0.0316876 -0.0314157 -0.0310674 -0.0306427 -0.0301417 -0.0295806 -0.0289758 -0.0283273 -0.0276352 -0.0269193 -0.0261997 -0.0254763 -0.0247491 -0.0240379 -0.0233622 -0.0227222 -0.0221177 -0.0215642 -0.021077 -0.0206562 -0.0203016 -0.0200211 -0.0198227 -0.0197061 -0.0196715 -0.0197175 -0.0198428 -0.0200473 -0.0203311 -0.0206841 -0.0210961 -0.0215671 -0.0220971 -0.0226696 -0.0232679 -0.0238919 -0.0245418 -0.0251979 -0.0258407 -0.0264703 -0.0270865 -0.0276711 -0.0282055 -0.0286899 -0.0291241 -0.0294944 -0.029787 -0.030002 -0.0301392 -0.0301919 -0.0301532 -0.030023 -0.0298014 -0.0294891 -0.0290867 -0.0285942 -0.0280116 -0.0273463 -0.0266057 -0.0257897 -0.0248983 -0.0239438 -0.0229382 -0.0218815 -0.0207738 -0.0196298 -0.0184641 -0.0172769 -0.0160681 -0.0148532 -0.0136477 -0.0124515 -0.0112647 -0.0101022 -0.00897928 -0.00789576 -0.0068517 -0.00586098 -0.00493749 -0.00408124 -0.00329221 -0.00257555 -0.00193641 -0.00137479 -0.000890689 -0.000501013 -0.000222672 -5.56681e-05 0 0 -7.61179e-05 -0.000304472 -0.000685061 -0.00121789 -0.00187498 -0.00262837 -0.00347805 -0.00442403 -0.00545582 -0.00656292 -0.00774534 -0.00900308 -0.0103152 -0.0116608 -0.0130398 -0.0144524 -0.0158775 -0.0172944 -0.0187032 -0.0201037 -0.0214763 -0.0228013 -0.0240786 -0.0253084 -0.0264735 -0.0275568 -0.0285585 -0.0294784 -0.0303043 -0.0310239 -0.0316374 -0.0321446 -0.0325403 -0.0328196 -0.0329823 -0.0330284 -0.0329615 -0.0327853 -0.0324998 -0.0321048 -0.0316131 -0.0310371 -0.030377 -0.0296326 -0.0288239 -0.0279709 -0.0270736 -0.026132 -0.0251699 -0.0242114 -0.0232564 -0.0223049 -0.0213802 -0.0205058 -0.0196817 -0.0189077 -0.0182022 -0.0175831 -0.0170506 -0.0166045 -0.0162542 -0.0160087 -0.0158681 -0.0158324 -0.0159 -0.0160692 -0.01634 -0.0167125 -0.0171746 -0.0177145 -0.018332 -0.0190273 -0.0197805 -0.020572 -0.0214018 -0.0222698 -0.0231528 -0.0240274 -0.0248937 -0.0257516 -0.026579 -0.0273536 -0.0280754 -0.0287444 -0.0293436 -0.029856 -0.0302815 -0.0306203 -0.0308631 -0.0310008 -0.0310335 -0.0309612 -0.0307835 -0.0305 -0.0301107 -0.0296156 -0.0290223 -0.0283381 -0.0275631 -0.0266973 -0.0257539 -0.0247461 -0.0236739 -0.0225374 -0.0213529 -0.020137 -0.0188896 -0.0176107 -0.016318 -0.0150289 -0.0137435 -0.0124617 -0.011201 -0.00997847 -0.00879427 -0.00764835 -0.006557 -0.0055365 -0.00458684 -0.00370804 -0.00290691 -0.0021903 -0.00155821 -0.00101063 -0.000568481 -0.000252658 -6.31645e-05 0 0 -8.52161e-05 -0.000340865 -0.000766945 -0.00136346 -0.00209715 -0.00293477 -0.00387632 -0.00492179 -0.00605827 -0.00727284 -0.00856548 -0.00993621 -0.0113609 -0.0128156 -0.0143002 -0.0158147 -0.0173355 -0.0188389 -0.020325 -0.0217938 -0.0232231 -0.024591 -0.0258973 -0.0271421 -0.0283067 -0.0293721 -0.0303385 -0.0312059 -0.0319612 -0.0325913 -0.0330964 -0.0334763 -0.0337264 -0.0338421 -0.0338233 -0.0336701 -0.0333878 -0.0329819 -0.0324524 -0.0317993 -0.0310384 -0.0301854 -0.0292402 -0.0282029 -0.0270976 -0.0259481 -0.0247547 -0.0235172 -0.022264 -0.0210236 -0.0197959 -0.018581 -0.0174063 -0.0162993 -0.0152601 -0.0142886 -0.013406 -0.0126337 -0.0119716 -0.0114196 -0.0109886 -0.0106891 -0.0105213 -0.0104851 -0.0105786 -0.0107998 -0.0111488 -0.0116256 -0.012216 -0.0129061 -0.0136959 -0.0145853 -0.0155511 -0.0165703 -0.0176427 -0.0187684 -0.0199198 -0.0210694 -0.0222171 -0.0233631 -0.0244807 -0.0255434 -0.0265512 -0.0275041 -0.0283814 -0.0291624 -0.029847 -0.0304353 -0.0309154 -0.0312758 -0.0315163 -0.0316369 -0.0316361 -0.031512 -0.0312647 -0.0308943 -0.030408 -0.0298135 -0.0291106 -0.0282995 -0.0273943 -0.0264094 -0.0253446 -0.0242001 -0.0229941 -0.0217449 -0.0204524 -0.0191167 -0.0177575 -0.0163947 -0.0150283 -0.0136582 -0.0123043 -0.0109864 -0.00970432 -0.00845822 -0.00726697 -0.00614952 -0.00510587 -0.004136 -0.00324871 -0.00245279 -0.00174822 -0.00113503 -0.000638453 -0.000283757 -7.09393e-05 0 0 -9.44833e-05 -0.000377933 -0.00085035 -0.00151173 -0.0023232 -0.00324588 -0.00427976 -0.00542484 -0.00666548 -0.007986 -0.00938642 -0.0108667 -0.0123994 -0.0139569 -0.0155393 -0.0171465 -0.0187519 -0.0203288 -0.0218773 -0.0233973 -0.0248642 -0.0262534 -0.0275649 -0.0287988 -0.0299343 -0.0309511 -0.0318491 -0.0326283 -0.0332751 -0.0337756 -0.0341299 -0.034338 -0.0343959 -0.0342997 -0.0340493 -0.0336448 -0.0330937 -0.0324039 -0.0315752 -0.0306078 -0.0295209 -0.028334 -0.027047 -0.0256599 -0.0242015 -0.0227005 -0.0211568 -0.0195705 -0.017975 -0.0164038 -0.0148568 -0.0133341 -0.0118677 -0.0104898 -0.00920041 -0.00799952 -0.0069118 -0.00596195 -0.00514996 -0.00447582 -0.00395194 -0.00359072 -0.00339216 -0.00335626 -0.00348073 -0.0037633 -0.00420396 -0.00480272 -0.00554319 -0.00640899 -0.00740013 -0.0085166 -0.00973133 -0.0110173 -0.0123744 -0.0138028 -0.01527 -0.0167438 -0.0182241 -0.019711 -0.0211731 -0.0225788 -0.0239284 -0.0252216 -0.0264336 -0.0275394 -0.0285389 -0.0294322 -0.0302044 -0.0308407 -0.0313411 -0.0317057 -0.031931 -0.0320138 -0.031954 -0.0317517 -0.0314142 -0.0309486 -0.0303549 -0.0296333 -0.0287989 -0.027867 -0.0268376 -0.0257108 -0.0245066 -0.0232453 -0.0219268 -0.0205511 -0.0191404 -0.017717 -0.0162809 -0.014832 -0.0133929 -0.0119859 -0.0106112 -0.00926862 -0.00798013 -0.00676754 -0.00563087 -0.00457009 -0.00359624 -0.00272031 -0.0019423 -0.00126223 -0.000710003 -0.000315557 -7.88892e-05 0 0 -0.000103919 -0.000415677 -0.000935274 -0.00166271 -0.00255313 -0.00356168 -0.00468836 -0.00593317 -0.00727742 -0.00870241 -0.0102081 -0.0117946 -0.0134306 -0.0150848 -0.0167572 -0.0184479 -0.0201268 -0.0217642 -0.02336 -0.0249142 -0.0263995 -0.0277886 -0.0290815 -0.0302783 -0.0313565 -0.0322939 -0.0330902 -0.0337457 -0.034246 -0.0345767 -0.034738 -0.0347297 -0.0345488 -0.0341923 -0.0336602 -0.0329525 -0.0320795 -0.0310514 -0.0298683 -0.0285301 -0.0270605 -0.0254828 -0.0237971 -0.0220034 -0.0201357 -0.0182279 -0.0162801 -0.0142921 -0.0123031 -0.0103521 -0.00843915 -0.0065642 -0.00476451 -0.00307736 -0.00150272 -4.0611e-05 0.00128049 0.00243209 0.0034142 0.0042268 0.00485565 0.00528649 0.00551932 0.00555413 0.00539361 0.00504044 0.0044946 0.00375612 0.00284392 0.00177696 0.000555251 -0.000821222 -0.00232109 -0.00391301 -0.00559696 -0.00737296 -0.00920337 -0.0110506 -0.0129146 -0.0147954 -0.0166562 -0.01846 -0.0202069 -0.0218968 -0.0235001 -0.0249869 -0.0263571 -0.0276109 -0.0287299 -0.0296956 -0.0305081 -0.0311674 -0.0316682 -0.0320052 -0.0321785 -0.0321881 -0.0320407 -0.0317433 -0.031296 -0.0306986 -0.0299675 -0.029119 -0.0281529 -0.0270694 -0.0258904 -0.0246382 -0.0233128 -0.021914 -0.0204668 -0.0189959 -0.0175014 -0.0159831 -0.0144666 -0.0129771 -0.0115148 -0.0100796 -0.00869646 -0.00739056 -0.00616185 -0.00501032 -0.00394949 -0.00299286 -0.00214044 -0.00139223 -0.000783128 -0.000348057 -8.70142e-05 0 0 -0.000113524 -0.000454097 -0.00102172 -0.00181639 -0.00278693 -0.00388218 -0.00510213 -0.00644679 -0.00789411 -0.00942208 -0.0110307 -0.0127199 -0.0144545 -0.0161992 -0.0179539 -0.0197188 -0.0214603 -0.0231451 -0.0247731 -0.0263445 -0.027829 -0.0291966 -0.0304472 -0.0315808 -0.0325732 -0.0334003 -0.0340619 -0.034558 -0.0348739 -0.0349948 -0.0349206 -0.0346513 -0.0341851 -0.03352 -0.0326561 -0.0315933 -0.030345 -0.0289245 -0.0273316 -0.0255664 -0.0236571 -0.0216319 -0.0194907 -0.0172335 -0.0149002 -0.0125305 -0.0101244 -0.00768185 -0.00524813 -0.00286848 -0.00054288 0.00172865 0.00390325 0.00593803 0.007833 0.00958816 0.0111709 0.0125484 0.0137209 0.0146883 0.0154342 0.0159425 0.0162131 0.0162461 0.0160444 0.0156114 0.0149469 0.0140509 0.0129453 0.0116517 0.0101702 0.00850084 0.00667958 0.00474252 0.00268968 0.00052104 -0.00171994 -0.00398982 -0.0062886 -0.00861628 -0.01093 -0.0131868 -0.0153867 -0.0175298 -0.0195809 -0.0215049 -0.0233018 -0.0249716 -0.0264919 -0.0278404 -0.0290172 -0.0300221 -0.0308477 -0.0314864 -0.0319383 -0.0322032 -0.0322876 -0.0321978 -0.0319338 -0.0314956 -0.0309004 -0.0301653 -0.0292905 -0.0282758 -0.0271455 -0.0259237 -0.0246103 -0.0232055 -0.0217367 -0.0202314 -0.0186897 -0.0171115 -0.0155255 -0.01396 -0.0124152 -0.010891 -0.00941598 -0.00801857 -0.00669881 -0.00545668 -0.00430847 -0.00327046 -0.00234265 -0.00152503 -0.00085783 -0.000381258 -9.53145e-05 0 0 -0.000123172 -0.000492688 -0.00110855 -0.00197075 -0.00302152 -0.00420308 -0.00551542 -0.00695854 -0.0085