<?xml version="1.0"?> 
<VTKFile type="StructuredGrid" version="0.1"> 
<StructuredGrid WholeExtent="0 128 0 128 0 0"> 
<Piece Extent="0 128 0 128 0 0"> 
<PointData>
<DataArray type="Float32" Name="u" format="ascii" NumberOfComponents="1"> 
0 0 0 0 0 0 0 0 0 0 0 0 0 0 0 0 0 0 0 0 0 0 0 0 0 0 0 0 0 0 0 0 0 0 0 0 0 0 0 0 0 0 0 0 0 0 0 0 0 0 0 0 0 0 0 0 0 0 0 0 0 0 0 0 0 0 0 0 0 0 0 0 0 0 0 0 0 0 0 0 0 0 0 0 0 0 0 0 0 0 0 0 0 0 0 0 0 0 0 0 0 0 0 0 0 0 0 0 0 0 0 0 0 0 0 0 0 0 0 0 0 0 0 0 0 0 0 0 0 0 -5.87831e-07 -2.35132e-06 -5.29048e-06 -9.40529e-06 -1.45517e-05 -2.05856e-05 -2.7507e-05 -3.5316e-05 -4.39039e-05 -5.31623e-05 -6.30911e-05 -7.36904e-05 -8.47611e-05 -9.61042e-05 -0.00010772 -0.000119607 -0.000131598 -0.000143522 -0.000155379 -0.00016717 -0.000178758 -0.000190008 -0.00020092 -0.000211494 -0.000221626 -0.000231214 -0.000240256 -0.000248754 -0.000256639 -0.000263845 -0.000270371 -0.000276217 -0.00028136 -0.000285773 -0.000289457 -0.000292412 -0.000294661 -0.000296228 -0.000297111 -0.000297312 -0.000296899 -0.000295943 -0.000294444 -0.000292401 -0.000289922 -0.000287114 -0.000283976 -0.000280508 -0.000276837 -0.000273088 -0.000269263 -0.000265359 -0.0002615 -0.000257806 -0.000254278 -0.000250916 -0.000247813 -0.000245061 -0.000242661 -0.000240613 -0.000238962 -0.000237755 -0.00023699 -0.000236669 -0.00023678 -0.000237313 -0.000238268 -0.000239644 -0.000241378 -0.000243406 -0.000245728 -0.000248344 -0.00025115 -0.000254044 -0.000257026 -0.000260096 -0.000263134 -0.00026602 -0.000268754 -0.000271335 -0.000273652 -0.000275592 -0.000277155 -0.00027834 -0.000279063 -0.00027924 -0.000278871 -0.000277956 -0.000276451 -0.000274315 -0.000271547 -0.000268147 -0.000264117 -0.000259462 -0.000254181 -0.000248274 -0.000241785 -0.000234759 -0.000227196 -0.000219095 -0.000210535 -0.00020159 -0.000192262 -0.00018255 -0.000172554 -0.000162373 -0.000152008 -0.000141458 -0.000130841 -0.000120272 -0.000109753 -9.92829e-05 -8.89963e-05 -7.90276e-05 -6.93767e-05 -6.00437e-05 -5.1177e-05 -4.29251e-05 -3.5288e-05 -2.82657e-05 -2.19265e-05 -1.63388e-05 -1.15026e-05 -7.4179e-06 -4.17257e-06 -1.85448e-06 -4.63619e-07 0 0 -2.35132e-06 -9.40529e-06 -2.11619e-05 -3.76212e-05 -5.82068e-05 -8.23425e-05 -0.000110028 -0.000141264 -0.000175616 -0.000212649 -0.000252365 -0.000294762 -0.000339044 -0.000384417 -0.000430878 -0.000478429 -0.000526391 -0.000574087 -0.000621517 -0.000668679 -0.000715033 -0.000760033 -0.000803681 -0.000845976 -0.000886506 -0.000924855 -0.000961025 -0.000995015 -0.00102656 -0.00105538 -0.00108148 -0.00110487 -0.00112544 -0.00114309 -0.00115783 -0.00116965 -0.00117865 -0.00118491 -0.00118844 -0.00118925 -0.0011876 -0.00118377 -0.00117778 -0.00116961 -0.00115969 -0.00114845 -0.0011359 -0.00112203 -0.00110735 -0.00109235 -0.00107705 -0.00106144 -0.001046 -0.00103123 -0.00101711 -0.00100367 -0.000991251 -0.000980245 -0.000970645 -0.000962452 -0.000955849 -0.000951019 -0.000947961 -0.000946676 -0.000947121 -0.000949252 -0.000953071 -0.000958577 -0.000965514 -0.000973625 -0.000982912 -0.000993374 -0.0010046 -0.00101618 -0.0010281 -0.00104038 -0.00105254 -0.00106408 -0.00107501 -0.00108534 -0.00109461 -0.00110237 -0.00110862 -0.00111336 -0.00111625 -0.00111696 -0.00111548 -0.00111182 -0.0011058 -0.00109726 -0.00108619 -0.00107259 -0.00105647 -0.00103785 -0.00101672 -0.000993096 -0.00096714 -0.000939036 -0.000908783 -0.000876382 -0.000842138 -0.00080636 -0.000769047 -0.000730199 -0.000690215 -0.000649493 -0.000608032 -0.000565833 -0.000523363 -0.000481089 -0.000439012 -0.000397132 -0.000355985 -0.00031611 -0.000277507 -0.000240175 -0.000204708 -0.000171701 -0.000141152 -0.000113063 -8.7706e-05 -6.53552e-05 -4.60104e-05 -2.96716e-05 -1.66903e-05 -7.4179e-06 -1.85448e-06 0 0 -5.29048e-06 -2.11619e-05 -4.76143e-05 -8.46476e-05 -0.000130965 -0.000185271 -0.000247563 -0.000317844 -0.000395135 -0.000478461 -0.00056782 -0.000663214 -0.00076285 -0.000864937 -0.000969476 -0.00107647 -0.00118438 -0.0012917 -0.00139841 -0.00150453 -0.00160882 -0.00171007 -0.00180828 -0.00190345 -0.00199464 -0.00208092 -0.00216231 -0.00223878 -0.00230975 -0.0023746 -0.00243334 -0.00248596 -0.00253224 -0.00257195 -0.00260511 -0.00263171 -0.00265195 -0.00266605 -0.002674 -0.00267581 -0.00267209 -0.00266349 -0.00265 -0.00263161 -0.0026093 -0.00258402 -0.00255578 -0.00252457 -0.00249153 -0.0024578 -0.00242336 -0.00238823 -0.0023535 -0.00232026 -0.00228851 -0.00225825 -0.00223032 -0.00220555 -0.00218395 -0.00216552 -0.00215066 -0.00213979 -0.00213291 -0.00213002 -0.00213102 -0.00213582 -0.00214441 -0.0021568 -0.00217241 -0.00219066 -0.00221155 -0.00223509 -0.00226035 -0.0022864 -0.00231324 -0.00234086 -0.00236821 -0.00239418 -0.00241878 -0.00244202 -0.00246287 -0.00248033 -0.00249439 -0.00250506 -0.00251157 -0.00251316 -0.00250984 -0.0025016 -0.00248806 -0.00246883 -0.00244392 -0.00241332 -0.00237706 -0.00233516 -0.00228763 -0.00223447 -0.00217607 -0.00211283 -0.00204476 -0.00197186 -0.00189481 -0.00181431 -0.00173036 -0.00164295 -0.00155298 -0.00146136 -0.00136807 -0.00127312 -0.00117757 -0.00108245 -0.000987777 -0.000893546 -0.000800967 -0.000711248 -0.000624391 -0.000540393 -0.000460593 -0.000386326 -0.000317592 -0.000254391 -0.000197338 -0.000147049 -0.000103523 -6.67611e-05 -3.75531e-05 -1.66903e-05 -4.17257e-06 0 0 -9.40529e-06 -3.76212e-05 -8.46476e-05 -0.000150485 -0.000232827 -0.00032937 -0.000440113 -0.000565056 -0.000702463 -0.000850597 -0.00100946 -0.00117905 -0.00135618 -0.00153767 -0.00172351 -0.00191372 -0.00210557 -0.00229635 -0.00248607 -0.00267472 -0.00286013 -0.00304013 -0.00321472 -0.00338391 -0.00354602 -0.00369942 -0.0038441 -0.00398006 -0.00410623 -0.00422152 -0.00432593 -0.00441948 -0.00450175 -0.00457236 -0.00463131 -0.00467859 -0.00471458 -0.00473964 -0.00475378 -0.00475699 -0.00475039 -0.00473509 -0.0047111 -0.00467842 -0.00463876 -0.00459382 -0.00454361 -0.00448813 -0.00442939 -0.00436942 -0.0043082 -0.00424575 -0.004184 -0.0041249 -0.00406846 -0.00401466 -0.00396501 -0.00392098 -0.00388258 -0.00384981 -0.0038234 -0.00380408 -0.00379185 -0.0037867 -0.00378848 -0.00379701 -0.00381228 -0.00383431 -0.00386205 -0.0038945 -0.00393165 -0.0039735 -0.0040184 -0.00406471 -0.00411242 -0.00416154 -0.00421014 -0.00425632 -0.00430006 -0.00434137 -0.00437844 -0.00440948 -0.00443448 -0.00445344 -0.00446501 -0.00446784 -0.00446194 -0.00444729 -0.00442322 -0.00438904 -0.00434475 -0.00429034 -0.00422588 -0.0041514 -0.0040669 -0.00397238 -0.00386856 -0.00375615 -0.00363513 -0.00350553 -0.00336855 -0.00322544 -0.00307619 -0.0029208 -0.00276086 -0.00259797 -0.00243213 -0.00226333 -0.00209345 -0.00192436 -0.00175605 -0.00158853 -0.00142394 -0.00126444 -0.00111003 -0.0009607 -0.000818833 -0.000686802 -0.000564608 -0.000452251 -0.000350824 -0.000261421 -0.000184042 -0.000118686 -6.67611e-05 -2.96716e-05 -7.4179e-06 0 0 -1.45425e-05 -5.817e-05 -0.000130883 -0.00023268 -0.000359787 -0.000508427 -0.000678601 -0.000870308 -0.00108087 -0.0013076 -0.0015505 -0.00180957 -0.00207994 -0.00235674 -0.00263997 -0.00292962 -0.00322156 -0.00351161 -0.00379977 -0.00408606 -0.00436713 -0.00463966 -0.00490365 -0.00515908 -0.00540345 -0.0056342 -0.00585136 -0.0060549 -0.00624321 -0.00641464 -0.00656919 -0.00670688 -0.00682711 -0.00692932 -0.00701352 -0.00707969 -0.00712845 -0.00716041 -0.00717556 -0.00717392 -0.00715723 -0.00712728 -0.00708405 -0.00702755 -0.00696046 -0.00688545 -0.00680253 -0.0067117 -0.00661609 -0.00651887 -0.00642002 -0.00631955 -0.00622048 -0.00612584 -0.00603563 -0.00594985 -0.00587081 -0.00580083 -0.0057399 -0.00568804 -0.00564636 -0.00561601 -0.00559699 -0.00558929 -0.00559265 -0.0056068 -0.00563174 -0.00566748 -0.00571241 -0.00576496 -0.00582511 -0.00589286 -0.00596567 -0.00604095 -0.00611871 -0.00619896 -0.00627869 -0.00635492 -0.00642765 -0.00649688 -0.00655979 -0.00661356 -0.00665819 -0.00669368 -0.00671791 -0.00672875 -0.00672619 -0.00671024 -0.0066798 -0.00663377 -0.00657215 -0.00649494 -0.00640217 -0.00629387 -0.00617005 -0.0060307 -0.00587689 -0.00570967 -0.00552906 -0.00533506 -0.00512952 -0.00491432 -0.00468947 -0.00445496 -0.00421323 -0.00396673 -0.00371545 -0.0034594 -0.00320145 -0.00294447 -0.00268845 -0.00243341 -0.00218264 -0.00193944 -0.00170381 -0.00147574 -0.00125889 -0.00105688 -0.00086972 -0.000697406 -0.000541639 -0.000404118 -0.000284843 -0.000183813 -0.000103395 -4.59533e-05 -1.14883e-05 0 0 -2.05489e-05 -8.21955e-05 -0.00018494 -0.000328782 -0.000507839 -0.00071623 -0.000953953 -0.00122101 -0.00151362 -0.001828 -0.00216416 -0.00252209 -0.00289504 -0.00327629 -0.00366582 -0.00406363 -0.00446396 -0.00486103 -0.00525483 -0.00564537 -0.00602802 -0.00639812 -0.00675569 -0.00710072 -0.0074297 -0.00773914 -0.00802902 -0.00829936 -0.00854792 -0.00877248 -0.00897304 -0.00914959 -0.00930143 -0.00942785 -0.00952883 -0.00960438 -0.00965546 -0.00968305 -0.00968713 -0.00966771 -0.00962739 -0.00956874 -0.00949179 -0.00939652 -0.00928681 -0.00916653 -0.00903569 -0.00889428 -0.00874681 -0.00859781 -0.00844727 -0.0082952 -0.00814591 -0.00800374 -0.00786868 -0.00774074 -0.00762322 -0.0075194 -0.0074293 -0.00735291 -0.00729185 -0.00724773 -0.00722056 -0.00721032 -0.00721665 -0.00723915 -0.00727783 -0.00733268 -0.00740143 -0.00748181 -0.00757382 -0.00767746 -0.00778907 -0.00790497 -0.00802517 -0.00814968 -0.00827419 -0.00839443 -0.00851038 -0.00862206 -0.0087254 -0.00881634 -0.00889486 -0.00896099 -0.0090116 -0.00904361 -0.00905701 -0.00905181 -0.00902633 -0.00897894 -0.00890962 -0.00881838 -0.00870516 -0.00856989 -0.0084126 -0.00823326 -0.0080333 -0.00781412 -0.00757572 -0.00731812 -0.00704386 -0.00675553 -0.00645313 -0.00613665 -0.00580949 -0.00547504 -0.00513331 -0.00478429 -0.004432 -0.00408044 -0.00372962 -0.00337954 -0.0030348 -0.00269999 -0.00237511 -0.00206017 -0.00176022 -0.00148031 -0.00122045 -0.000980622 -0.000763262 -0.000570789 -0.000403204 -0.000260507 -0.000146535 -6.51267e-05 -1.62817e-05 0 0 -2.74244e-05 -0.000109697 -0.000246819 -0.00043879 -0.000676984 -0.000952777 -0.00126617 -0.00161716 -0.00200072 -0.00241181 -0.00285044 -0.0033166 -0.00380149 -0.00429631 -0.00480106 -0.00531574 -0.00583278 -0.00634461 -0.00685124 -0.00735266 -0.00784278 -0.00831551 -0.00877085 -0.0092088 -0.00962478 -0.0100142 -0.0103771 -0.0107134 -0.0110204 -0.011295 -0.0115375 -0.0117476 -0.0119247 -0.0120679 -0.0121772 -0.0122527 -0.0122956 -0.0123076 -0.0122885 -0.0122384 -0.0121608 -0.0120595 -0.0119343 -0.0117853 -0.0116178 -0.0114371 -0.0112431 -0.0110359 -0.0108215 -0.0106062 -0.01039 -0.0101727 -0.0099603 -0.00975861 -0.00956763 -0.00938735 -0.00922222 -0.0090767 -0.00895077 -0.00884444 -0.00875987 -0.00869925 -0.00866257 -0.00864982 -0.00866049 -0.00869407 -0.00875054 -0.00882991 -0.00892911 -0.00904508 -0.00917781 -0.0093273 -0.0094886 -0.00965677 -0.0098318 -0.0100137 -0.0101966 -0.0103748 -0.0105483 -0.0107169 -0.0108753 -0.0110178 -0.0111445 -0.0112553 -0.0113461 -0.0114124 -0.0114544 -0.011472 -0.0114628 -0.0114245 -0.0113572 -0.0112607 -0.0111348 -0.0109795 -0.0107945 -0.0105801 -0.0103378 -0.0100695 -0.00977511 -0.00945471 -0.00911159 -0.00874907 -0.00836717 -0.00796587 -0.00754963 -0.00712291 -0.00668569 -0.00623799 -0.0057851 -0.00533228 -0.00487956 -0.00442692 -0.00398041 -0.00354609 -0.00312395 -0.00271399 -0.00232284 -0.0019571 -0.00161679 -0.0013019 -0.00101569 -0.000761433 -0.000539125 -0.000348767 -0.000196181 -8.71918e-05 -2.17979e-05 0 0 -3.5169e-05 -0.000140676 -0.000316521 -0.000562704 -0.000867221 -0.00121807 -0.00161525 -0.00205876 -0.00254216 -0.00305902 -0.00360934 -0.00419311 -0.00479929 -0.00541682 -0.00604571 -0.00668595 -0.00732802 -0.00796236 -0.00858899 -0.00920791 -0.00981141 -0.0103918 -0.0109491 -0.0114833 -0.0119887 -0.0124594 -0.0128956 -0.0132971 -0.0136606 -0.0139823 -0.0142625 -0.014501 -0.014697 -0.0148496 -0.0149588 -0.0150245 -0.0150489 -0.015034 -0.0149796 -0.0148859 -0.0147576 -0.0145995 -0.0144116 -0.014194 -0.0139535 -0.013697 -0.0134247 -0.0131365 -0.0128403 -0.0125442 -0.0122481 -0.0119521 -0.0116637 -0.0113904 -0.0111325 -0.0108897 -0.0106678 -0.0104727 -0.0103043 -0.0101626 -0.0100504 -0.00997056 -0.00992301 -0.00990777 -0.00992418 -0.00997155 -0.0100499 -0.0101592 -0.0102955 -0.0104547 -0.010637 -0.0108424 -0.0110643 -0.0112964 -0.0115386 -0.011791 -0.012046 -0.0122961 -0.0125413 -0.0127814 -0.0130094 -0.013218 -0.0134071 -0.0135768 -0.0137214 -0.0138352 -0.0139184 -0.0139708 -0.0139892 -0.0139706 -0.0139148 -0.0138218 -0.0136912 -0.0135226 -0.0133159 -0.0130711 -0.0127904 -0.0124757 -0.0121272 -0.0117448 -0.0113327 -0.0108949 -0.0104316 -0.00994261 -0.00943366 -0.00891032 -0.0083726 -0.00782051 -0.00726074 -0.00669999 -0.00613825 -0.00557554 -0.00501948 -0.00447774 -0.00395032 -0.0034372 -0.00294673 -0.00248725 -0.00205875 -0.00166123 -0.00129893 -0.000976051 -0.000692607 -0.000448594 -0.000252334 -0.000112149 -2.80372e-05 0 0 -4.36535e-05 -0.000174614 -0.000392881 -0.000698455 -0.00107536 -0.00150762 -0.00199522 -0.00253818 -0.00312846 -0.00375802 -0.00442687 -0.00513499 -0.00586891 -0.00661511 -0.0073736 -0.00814439 -0.00891579 -0.00967614 -0.0104254 -0.0111637 -0.0118814 -0.0125693 -0.0132272 -0.0138553 -0.0144464 -0.0149936 -0.0154969 -0.0159563 -0.0163675 -0.0167265 -0.0170332 -0.0172875 -0.0174888 -0.0176359 -0.0177291 -0.0177682 -0.017756 -0.0176953 -0.017586 -0.0174283 -0.0172282 -0.016992 -0.0167197 -0.0164113 -0.0160757 -0.0157217 -0.0153493 -0.0149586 -0.0145596 -0.0141625 -0.0137673 -0.0133739 -0.0129919 -0.012631 -0.012291 -0.0119721 -0.0116815 -0.0114264 -0.0112067 -0.0110226 -0.0108775 -0.010775 -0.010715 -0.0106976 -0.0107219 -0.010787 -0.010893 -0.0110398 -0.0112224 -0.0114358 -0.01168 -0.011955 -0.0122527 -0.012565 -0.0128919 -0.0132334 -0.0135798 -0.0139217 -0.014259 -0.0145917 -0.0149106 -0.0152065 -0.0154794 -0.0157292 -0.0159488 -0.0161307 -0.0162751 -0.0163819 -0.0164469 -0.0164658 -0.0164386 -0.0163654 -0.0162453 -0.0160774 -0.0158619 -0.0155987 -0.0152901 -0.0149387 -0.0145443 -0.014107 -0.0136318 -0.0131236 -0.0125825 -0.0120084 -0.0114082 -0.0107889 -0.0101503 -0.00949258 -0.00882386 -0.00815241 -0.00747823 -0.00680133 -0.0061311 -0.00547693 -0.00483883 -0.00421679 -0.00362104 -0.0030618 -0.00253907 -0.00205285 -0.00160847 -0.00121128 -0.000861273 -0.000558454 -0.00031413 -0.000139613 -3.49033e-05 0 0 -5.27484e-05 -0.000210994 -0.000474736 -0.000843975 -0.00129821 -0.00181692 -0.00240013 -0.00304782 -0.00375013 -0.00449721 -0.00528904 -0.00612564 -0.00699084 -0.0078685 -0.00875861 -0.00966118 -0.0105622 -0.0114478 -0.0123179 -0.0131725 -0.0140003 -0.0147901 -0.0155418 -0.0162555 -0.0169228 -0.0175354 -0.0180934 -0.0185966 -0.0190403 -0.0194196 -0.0197346 -0.0199852 -0.0201706 -0.0202902 -0.0203439 -0.0203317 -0.0202574 -0.0201245 -0.0199332 -0.0196835 -0.0193831 -0.0190402 -0.0186545 -0.0182263 -0.0177665 -0.0172863 -0.0167858 -0.0162649 -0.0157361 -0.0152122 -0.014693 -0.0141787 -0.013681 -0.0132119 -0.0127713 -0.0123592 -0.0119847 -0.0116566 -0.0113749 -0.0111397 -0.0109553 -0.010826 -0.0107518 -0.0107328 -0.0107679 -0.0108559 -0.0109969 -0.011191 -0.0114318 -0.0117131 -0.0120351 -0.0123976 -0.0127906 -0.0132041 -0.013638 -0.0140924 -0.0145553 -0.0150149 -0.0154711 -0.0159239 -0.0163618 -0.0167732 -0.0171582 -0.0175167 -0.0178396 -0.0181176 -0.0183507 -0.018539 -0.0186769 -0.0187588 -0.0187849 -0.018755 -0.0186679 -0.0185222 -0.0183179 -0.018055 -0.0177362 -0.017364 -0.0169385 -0.0164597 -0.0159334 -0.0153655 -0.0147559 -0.0141047 -0.0134201 -0.0127103 -0.0119752 -0.0112149 -0.0104394 -0.0096584 -0.00887202 -0.00808023 -0.00729434 -0.00652563 -0.00577411 -0.00503977 -0.00433491 -0.00367182 -0.0030505 -0.00247095 -0.00193982 -0.00146375 -0.00104275 -0.000676809 -0.000380705 -0.000169202 -4.23006e-05 0 0 -6.24539e-05 -0.000249816 -0.000562085 -0.000999262 -0.00153576 -0.00214599 -0.00282996 -0.00358766 -0.00440717 -0.00527657 -0.00619586 -0.00716504 -0.00816508 -0.00917698 -0.0102007 -0.0112363 -0.0122673 -0.0132774 -0.0142664 -0.0152344 -0.0161681 -0.0170543 -0.017893 -0.0186841 -0.019418 -0.020085 -0.0206851 -0.0212182 -0.0216789 -0.0220618 -0.0223668 -0.0225939 -0.0227426 -0.0228123 -0.0228032 -0.0227152 -0.0225531 -0.0223217 -0.0220212 -0.0216515 -0.0212224 -0.0207439 -0.0202161 -0.0196388 -0.0190259 -0.0183909 -0.017734 -0.0170552 -0.0163697 -0.0156932 -0.0150254 -0.0143666 -0.013731 -0.0131332 -0.0125732 -0.0120509 -0.0115774 -0.0111633 -0.0108088 -0.0105138 -0.0102836 -0.0101235 -0.0100334 -0.0100133 -0.0100621 -0.0101782 -0.0103618 -0.0106128 -0.0109236 -0.0112868 -0.0117023 -0.0121701 -0.0126779 -0.0132135 -0.0137769 -0.0143682 -0.0149726 -0.0155757 -0.0161775 -0.0167779 -0.0173629 -0.0179181 -0.0184435 -0.0189393 -0.0193939 -0.0197959 -0.0201453 -0.0204421 -0.0206793 -0.0208498 -0.0209536 -0.0209907 -0.0209591 -0.0208568 -0.0206838 -0.0204401 -0.0201285 -0.0197517 -0.0193099 -0.0188029 -0.0182376 -0.0176205 -0.0169519 -0.0162315 -0.0154692 -0.0146744 -0.0138472 -0.0129876 -0.0121073 -0.0112179 -0.0103196 -0.00941224 -0.0085092 -0.00762384 -0.00675615 -0.00590614 -0.00508834 -0.00431731 -0.00359305 -0.00291555 -0.00229297 -0.00173347 -0.00123703 -0.000803662 -0.00045206 -0.000200915 -5.02289e-05 0 0 -7.27699e-05 -0.000291079 -0.000654929 -0.00116432 -0.00178802 -0.00249482 -0.00328472 -0.00415771 -0.00509958 -0.00609611 -0.00714732 -0.00825319 -0.00939164 -0.0105406 -0.0117 -0.0128698 -0.0140311 -0.0151648 -0.0162709 -0.0173493 -0.0183847 -0.0193618 -0.0202806 -0.021141 -0.0219319 -0.0226423 -0.023272 -0.023821 -0.0242834 -0.0246529 -0.0249297 -0.0251136 -0.0252046 -0.0252024 -0.025107 -0.0249185 -0.0246431 -0.0242869 -0.02385 -0.0233323 -0.022746 -0.0221034 -0.0214044 -0.020649 -0.0198538 -0.0190355 -0.0181941 -0.0173296 -0.0164605 -0.0156055 -0.0147645 -0.0139375 -0.0131418 -0.0123949 -0.0116967 -0.0110473 -0.0104596 -0.00994659 -0.00950838 -0.00914493 -0.00886252 -0.00866743 -0.00855966 -0.00853921 -0.0086045 -0.00875392 -0.00898749 -0.0093052 -0.00969799 -0.0101568 -0.0106816 -0.0112725 -0.0119146 -0.0125933 -0.0133087 -0.0140606 -0.0148316 -0.0156042 -0.0163783 -0.0171539 -0.0179139 -0.018641 -0.0193354 -0.0199969 -0.0206117 -0.0211656 -0.0216589 -0.0220913 -0.0224542 -0.0227387 -0.0229448 -0.0230724 -0.0231189 -0.0230813 -0.0229596 -0.0227539 -0.022467 -0.0221019 -0.0216584 -0.0211367 -0.0205443 -0.0198889 -0.0191704 -0.0183889 -0.0175555 -0.0166813 -0.0157663 -0.0148105 -0.0138276 -0.0128311 -0.011821 -0.0107973 -0.00977569 -0.00877157 -0.00778496 -0.00681589 -0.00588133 -0.00499827 -0.00416671 -0.00338665 -0.00266794 -0.00202043 -0.00144412 -0.000939011 -0.000528194 -0.000234753 -5.86882e-05 0 0 -8.34692e-05 -0.000333877 -0.000751222 -0.00133551 -0.00204944 -0.00285572 -0.00375436 -0.00474535 -0.00581195 -0.00693742 -0.00812175 -0.00936495 -0.0106416 -0.0119264 -0.0132193 -0.0145202 -0.0158075 -0.0170591 -0.0182752 -0.0194558 -0.0205832 -0.0216399 -0.0226259 -0.0235412 -0.0243731 -0.0251092 -0.0257493 -0.0262934 -0.0267349 -0.0270672 -0.0272901 -0.0274038 -0.0274086 -0.0273047 -0.0270922 -0.026771 -0.026349 -0.0258339 -0.0252259 -0.0245248 -0.0237455 -0.0229028 -0.0219965 -0.0210268 -0.0200136 -0.0189768 -0.0179165 -0.0168325 -0.0157471 -0.0146823 -0.0136382 -0.0126146 -0.0116323 -0.0107118 -0.00985304 -0.00905606 -0.00833626 -0.00770903 -0.00717437 -0.00673227 -0.00639015 -0.00615541 -0.00602805 -0.00600808 -0.0060936 -0.0062827 -0.0065754 -0.00697168 -0.00746082 -0.00803207 -0.00868544 -0.00942091 -0.0102211 -0.0110684 -0.011963 -0.0129048 -0.013873 -0.0148467 -0.0158259 -0.0168106 -0.0177802 -0.0187144 -0.0196129 -0.0204759 -0.0212865 -0.0220278 -0.0226998 -0.0233024 -0.0238249 -0.0242564 -0.0245969 -0.0248463 -0.0250008 -0.0250566 -0.0250136 -0.0248718 -0.0246342 -0.0243036 -0.0238801 -0.0233636 -0.0227626 -0.0220856 -0.0213327 -0.0205039 -0.0196117 -0.0186691 -0.0176758 -0.0166319 -0.0155532 -0.0144551 -0.0133378 -0.0122012 -0.0110633 -0.00994183 -0.00883692 -0.00774853 -0.00669628 -0.00569979 -0.00475906 -0.00387409 -0.00305664 -0.00231847 -0.00165957 -0.00107996 -0.000607476 -0.000269989 -6.74973e-05 0 0 -9.43246e-05 -0.000377298 -0.000848922 -0.00150919 -0.00231444 -0.00322099 -0.00422884 -0.00533799 -0.00652891 -0.00778208 -0.0090975 -0.0104752 -0.0118862 -0.0133017 -0.0147216 -0.0161461 -0.0175502 -0.0189093 -0.0202233 -0.0214923 -0.0226963 -0.0238155 -0.0248499 -0.0257995 -0.0266501 -0.0273877 -0.0280122 -0.0285236 -0.0289148 -0.0291785 -0.0293149 -0.0293239 -0.0292065 -0.0289636 -0.0285953 -0.0281016 -0.0274923 -0.0267769 -0.0259555 -0.025028 -0.0240124 -0.0229263 -0.0217697 -0.0205426 -0.0192688 -0.0179718 -0.0166517 -0.0153084 -0.0139681 -0.0126569 -0.0113746 -0.0101213 -0.00892128 -0.00779856 -0.00675319 -0.00578516 -0.0049125 -0.00415325 -0.0035074 -0.00297495 -0.00256455 -0.00228486 -0.00213588 -0.00211761 -0.00222779 -0.0024642 -0.00282682 -0.00331567 -0.00391813 -0.0046216 -0.00542608 -0.00633157 -0.00731758 -0.0083636 -0.00946964 -0.0106357 -0.0118372 -0.0130495 -0.0142728 -0.0155069 -0.0167275 -0.0179103 -0.0190554 -0.0201627 -0.0212121 -0.0221833 -0.0230764 -0.0238914 -0.0246151 -0.0252341 -0.0257485 -0.0261583 -0.0264583 -0.0266434 -0.0267137 -0.0266691 -0.0265124 -0.0262463 -0.0258709 -0.0253861 -0.0248014 -0.024126 -0.02336 -0.0225035 -0.0215706 -0.0205757 -0.0195188 -0.0184 -0.0172369 -0.0160475 -0.0148317 -0.0135895 -0.0123414 -0.0111077 -0.00988839 -0.00868355 -0.00751559 -0.00640697 -0.00535769 -0.00436775 -0.00345103 -0.00262144 -0.00187896 -0.0012236 -0.000688275 -0.0003059 -7.6475e-05 0 0 -0.000105336 -0.000421345 -0.000948026 -0.00168538 -0.00258304 -0.00359063 -0.00470815 -0.00593561 -0.00725044 -0.00863009 -0.0100745 -0.0115838 -0.0131253 -0.0146664 -0.016207 -0.0177473 -0.0192593 -0.0207153 -0.0221151 -0.0234588 -0.0247241 -0.0258887 -0.0269527 -0.027916 -0.0287629 -0.0294778 -0.0300607 -0.0305116 -0.0308229 -0.0309871 -0.031004 -0.0308738 -0.0305982 -0.0301791 -0.0296166 -0.0289106 -0.0280729 -0.0271156 -0.0260386 -0.0248419 -0.0235467 -0.022174 -0.0207239 -0.0191963 -0.0176192 -0.0160203 -0.0143997 -0.0127573 -0.0111236 -0.00952909 -0.00797374 -0.00645757 -0.00500869 -0.00365523 -0.00239719 -0.00123456 -0.000188268 0.00072076 0.00149253 0.00212703 0.00261426 0.0029442 0.00311685 0.00313221 0.00299292 0.00270159 0.00225824 0.00166285 0.0009301 7.46348e-05 -0.000903542 -0.00200443 -0.00320417 -0.00447888 -0.00582858 -0.00725326 -0.00872424 -0.0102128 -0.011719 -0.0132428 -0.0147556 -0.016229 -0.0176629 -0.0190573 -0.0203884 -0.0216322 -0.0227889 -0.0238583 -0.0248246 -0.0256717 -0.0263996 -0.0270084 -0.0274914 -0.0278419 -0.02806 -0.0281457 -0.0281015 -0.0279299 -0.0276309 -0.0272044 -0.0266607 -0.0260101 -0.0252524 -0.0243877 -0.023432 -0.0224012 -0.0212955 -0.0201146 -0.0188789 -0.0176082 -0.0163027 -0.0149623 -0.01361 -0.0122691 -0.0109394 -0.00962095 -0.00833927 -0.00711982 -0.0059626 -0.00486761 -0.00385111 -0.00292933 -0.00210227 -0.00136994 -0.000770591 -0.000342485 -8.56212e-05 0 0 -0.000116504 -0.000466016 -0.00104854 -0.00186406 -0.00285522 -0.00396464 -0.0051923 -0.00653822 -0.00797655 -0.00948144 -0.0110529 -0.0126909 -0.014359 -0.0160205 -0.0176755 -0.019324 -0.0209349 -0.0224771 -0.0239506 -0.0253554 -0.0266666 -0.0278596 -0.0289342 -0.0298906 -0.0307114 -0.0313795 -0.0318949 -0.0322575 -0.0324594 -0.0324927 -0.0323574 -0.0320535 -0.0315838 -0.0309513 -0.0301559 -0.0291977 -0.028091 -0.0268503 -0.0254754 -0.0239665 -0.0223483 -0.0206459 -0.0188591 -0.016988 -0.0150649 -0.0131225 -0.0111605 -0.00917911 -0.00721352 -0.00529902 -0.00343562 -0.00162332 0.000105433 0.00171819 0.00321496 0.00459573 0.00583644 0.00691299 0.0078254 0.00857367 0.00914629 0.00953179 0.00973015 0.00974138 0.00956853 0.00921467 0.00867978 0.00796388 0.00708385 0.00605662 0.00488217 0.00356051 0.00211918 0.000585731 -0.00103984 -0.00275754 -0.00453415 -0.00633648 -0.00816453 -0.0100183 -0.0118646 -0.0136702 -0.0154353 -0.0171596 -0.0188154 -0.0203746 -0.0218371 -0.0232031 -0.0244535 -0.0255692 -0.0265503 -0.0273967 -0.0281 -0.028652 -0.0290526 -0.0293018 -0.0294016 -0.0293544 -0.02916 -0.0288184 -0.0283406 -0.0277377 -0.0270097 -0.0261565 -0.0251959 -0.0241456 -0.0230056 -0.021776 -0.020479 -0.0191373 -0.0177508 -0.0163195 -0.0148693 -0.0134261 -0.0119899 -0.0105607 -0.0091673 -0.00783832 -0.00657378 -0.00537369 -0.00425687 -0.00324214 -0.00232951 -0.00151897 -0.000854423 -0.000379744 -9.49359e-05 0 0 -0.000127633 -0.00051053 -0.00114869 -0.00204212 -0.00312621 -0.00433638 -0.00567261 -0.00713491 -0.00869392 -0.0103202 -0.0120139 -0.0137749 -0.0155625 -0.0173362 -0.0190958 -0.0208413 -0.0225384 -0.0241524 -0.0256834 -0.0271314 -0.0284689 -0.0296686 -0.0307304 -0.0316545 -0.0324219 -0.0330139 -0.0334304 -0.0336716 -0.0337291 -0.0335948 -0.0332687 -0.0327507 -0.0320451 -0.0311559 -0.0300831 -0.0288269 -0.0274043 -0.0258325 -0.0241116 -0.0222415 -0.0202513 -0.01817 -0.0159977 -0.0137344 -0.0114175 -0.00908452 -0.0067355 -0.00437041 -0.00202982 0.000245703 0.00245616 0.00460156 0.00664473 0.0085485 0.0103129 0.0119379 0.013396 0.0146596 0.0157289 0.0166038 0.0172712 0.017718 0.0179442 0.0179498 0.0177384 0.0173134 0.0166749 0.0158228 0.0147766 0.0135555 0.0121595 0.0105888 0.00887469 0.00704892 0.00511142 0.00306221 0.000939414 -0.00121881 -0.00341247 -0.00564156 -0.0078678 -0.0100529 -0.0121969 -0.0142997 -0.0163288 -0.0182518 -0.0200686 -0.0217792 -0.0233612 -0.024792 -0.0260717 -0.0272003 -0.0281674 -0.0289626 -0.0295859 -0.0300374 -0.0303185 -0.030431 -0.0303746 -0.0301496 -0.0297676 -0.0292405 -0.0285681 -0.0277506 -0.0268074 -0.0257581 -0.0246026 -0.0233409 -0.021998 -0.0205989 -0.0191435 -0.0176319 -0.0160929 -0.0145554 -0.0130194 -0.011485 -0.00998428 -0.00854937 -0.00718028 -0.00587701 -0.00466119 -0.00355444 -0.00255676 -0.00166815 -0.000938336 -0.000417038 -0.00010426 0 0 -0.000138526 -0.000554105 -0.00124674 -0.00221642 -0.00339123 -0.00469922 -0.0061404 -0.00771477 -0.00938921 -0.0111306 -0.0129389 -0.0148142 -0.0167114 -0.0185855 -0.0204365 -0.0222645 -0.0240313 -0.0256988 -0.0272671 -0.0287362 -0.030076 -0.0312563 -0.0322772 -0.0331387 -0.0338203 -0.0343018 -0.0345831 -0.0346642 -0.0345368 -0.0341925 -0.0336312 -0.0328531 -0.0318637 -0.0306687 -0.0292681 -0.0276619 -0.0258704 -0.023914 -0.0217928 -0.0195067 -0.0170894 -0.0145746 -0.0119623 -0.00925255 -0.00648835 -0.00371281 -0.000925925 0.0018723 0.00463554 0.00731744 0.009918 0.0124372 0.0148328 0.0170625 0.0191262 0.021024 0.0227246 0.0241969 0.0254408 0.0264563 0.0272286 0.0277429 0.0279992 0.0279975 0.0277418 0.0272361 0.0264806 0.0254751 0.0242416 0.0228023 0.021157 0.0193058 0.0172846 0.0151294 0.01284 0.0104167 0.0079028 0.00534195 0.00273411 7.93017e-05 -0.00257859 -0.00519566 -0.00777192 -0.0103074 -0.0127644 -0.0151055 -0.0173307 -0.01944 -0.021407 -0.0232055 -0.0248353 -0.0262966 -0.0275766 -0.0286627 -0.0295548 -0.0302529 -0.030758 -0.0310708 -0.0311914 -0.0311197 -0.0308683 -0.0304497 -0.0298637 -0.0291105 -0.0282114 -0.0271877 -0.0260394 -0.0247665 -0.0233966 -0.0219573 -0.0204485 -0.0188703 -0.0172548 -0.0156338 -0.0140076 -0.012376 -0.0107748 -0.00923984 -0.00777112 -0.00636862 -0.00505697 -0.0038608 -0.00278012 -0.00181492 -0.00102089 -0.00045373 -0.000113432 0 0 -0.000149186 -0.000596742 -0.00134267 -0.00238697 -0.00365026 -0.00505316 -0.00659567 -0.00827779 -0.0100624 -0.0119125 -0.0138279 -0.0158088 -0.0178055 -0.0197685 -0.0216978 -0.0235934 -0.0254135 -0.0271163 -0.0287018 -0.03017 -0.0314879 -0.0326228 -0.0335746 -0.0343432 -0.0349068 -0.0352433 -0.0353529 -0.0352354 -0.0348825 -0.0342857 -0.0334451 -0.0323607 -0.0310398 -0.0294899 -0.0277108 -0.0257027 -0.0234894 -0.0210949 -0.0185191 -0.0157621 -0.0128627 -0.00985958 -0.00675282 -0.00354242 -0.000277527 0.00299268 0.00626819 0.00954903 0.0127826 0.0159162 0.0189499 0.0218837 0.0246697 0.0272601 0.0296549 0.0318541 0.0338224 0.0355247 0.0369609 0.0381311 0.0390185 0.0396066 0.0398952 0.0398844 0.0395788 0.0389829 0.0380969 0.0369207 0.0354791 0.033797 0.0318746 0.0297116 0.0273489 0.024827 0.022146 0.0193059 0.016356 0.0133458 0.0102752 0.0071443 0.00400305 0.00090147 -0.00216043 -0.00518266 -0.00812212 -0.0109358 -0.0136235 -0.0161855 -0.018591 -0.0208095 -0.022841 -0.0246855 -0.0263277 -0.0277522 -0.0289591 -0.0299484 -0.03072 -0.0312739 -0.0316102 -0.0317287 -0.0316427 -0.0313653 -0.0308965 -0.0302363 -0.0294079 -0.0284345 -0.0273161 -0.0260528 -0.0246748 -0.0232125 -0.0216659 -0.0200349 -0.0183549 -0.0166614 -0.0149542 -0.0132335 -0.0115388 -0.00990974 -0.00834631 -0.00684851 -0.00544419 -0.00416122 -0.00299958 -0.00195927 -0.00110209 -0.000489818 -0.000122454 0 0 -0.00015961 -0.00063844 -0.00143649 -0.00255376 -0.00390331 -0.0053982 -0.00703842 -0.00882398 -0.0107136 -0.0126659 -0.0146809 -0.0167587 -0.0188449 -0.0208852 -0.0228796 -0.0248282 -0.0266852 -0.0284049 -0.0299873 -0.0314326 -0.0327047 -0.033768 -0.0346225 -0.0352681 -0.0356813 -0.0358385 -0.0357398 -0.0353851 -0.0347662 -0.0338746 -0.0327104 -0.0312735 -0.0295734 -0.0276193 -0.0254113 -0.0229494 -0.0202614 -0.0173751 -0.0142906 -0.0110078 -0.00757113 -0.00402494 -0.000369229 0.003396 0.00721498 0.0110319 0.0148469 0.0186598 0.0224112 0.0260419 0.0295518 0.0329409 0.0361554 0.0391414 0.041899 0.0444282 0.0466894 0.0486432 0.0502895 0.0516283 0.052641 0.0533089 0.0536321 0.0536105 0.0532493 0.0525537 0.0515238 0.0501596 0.0484889 0.0465398 0.0443122 0.0418063 0.0390676 0.036142 0.0330294 0.0297298 0.026299 0.0227927 0.0192108 0.0155534 0.0118771 0.00823849 0.0046376 0.00107441 -0.00240196 -0.00574243 -0.008947 -0.0120157 -0.0149132 -0.0176042 -0.0200889 -0.022367 -0.0244206 -0.0262312 -0.0277989 -0.0291238 -0.0302046 -0.0310403 -0.031631 -0.0319766 -0.0320908 -0.0319874 -0.0316664 -0.0311278 -0.0303968 -0.0294984 -0.0284328 -0.0271998 -0.0258326 -0.0243646 -0.0227955 -0.0211255 -0.0193934 -0.017638 -0.0158595 -0.0140577 -0.0122764 -0.0105591 -0.00890584 -0.00731668 -0.00582287 -0.00445569 -0.00321513 -0.00210121 -0.00118193 -0.000525303 -0.000131326 0 0 -0.00016965 -0.0006786 -0.00152685 -0.0027144 -0.00414671 -0.00572924 -0.007462 -0.00934497 -0.0113324 -0.0133787 -0.0154838 -0.0176476 -0.019811 -0.0219147 -0.0239587 -0.025943 -0.0278179 