<?xml version="1.0"?> 
<VTKFile type="StructuredGrid" version="0.1"> 
<StructuredGrid WholeExtent="0 128 0 128 0 0"> 
<Piece Extent="0 128 0 128 0 0"> 
<PointData>
<DataArray type="Float32" Name="u" format="ascii" NumberOfComponents="1"> 
0 0 0 0 0 0 0 0 0 0 0 0 0 0 0 0 0 0 0 0 0 0 0 0 0 0 0 0 0 0 0 0 0 0 0 0 0 0 0 0 0 0 0 0 0 0 0 0 0 0 0 0 0 0 0 0 0 0 0 0 0 0 0 0 0 0 0 0 0 0 0 0 0 0 0 0 0 0 0 0 0 0 0 0 0 0 0 0 0 0 0 0 0 0 0 0 0 0 0 0 0 0 0 0 0 0 0 0 0 0 0 0 0 0 0 0 0 0 0 0 0 0 0 0 0 0 0 0 0 0 -1.85757e-07 -7.43027e-07 -1.67181e-06 -2.97211e-06 -4.73412e-06 -7.04806e-06 -9.91393e-06 -1.33317e-05 -1.73388e-05 -2.19725e-05 -2.72329e-05 -3.31199e-05 -3.95938e-05 -4.66145e-05 -5.41821e-05 -6.22966e-05 -7.08929e-05 -7.99059e-05 -8.93356e-05 -9.91819e-05 -0.000109365 -0.000119804 -0.000130499 -0.00014145 -0.000152566 -0.000163757 -0.000175022 -0.000186362 -0.000197682 -0.000208891 -0.000219988 -0.000230973 -0.000241763 -0.000252276 -0.000262512 -0.000272469 -0.000282089 -0.000291309 -0.000300131 -0.000308555 -0.000316549 -0.000324083 -0.000331159 -0.000337774 -0.000343931 -0.00034963 -0.00035487 -0.000359652 -0.000364001 -0.000367942 -0.000371474 -0.000374599 -0.000377351 -0.000379769 -0.000381853 -0.000383602 -0.000385051 -0.000386234 -0.000387152 -0.000387804 -0.00038821 -0.00038839 -0.000388344 -0.000388071 -0.000387572 -0.000386843 -0.000385886 -0.0003847 -0.000383264 -0.000381558 -0.00037958 -0.000377332 -0.00037478 -0.000371891 -0.000368667 -0.000365106 -0.000361178 -0.000356851 -0.000352125 -0.000347001 -0.000341462 -0.000335492 -0.000329091 -0.00032226 -0.000315008 -0.000307344 -0.000299269 -0.000290782 -0.000281923 -0.000272732 -0.000263207 -0.000253351 -0.000243227 -0.000232903 -0.000222378 -0.000211653 -0.00020081 -0.000189933 -0.000179022 -0.000168077 -0.000157185 -0.000146435 -0.000135827 -0.00012536 -0.000115115 -0.000105173 -9.55338e-05 -8.61972e-05 -7.72291e-05 -6.86953e-05 -6.05958e-05 -5.29306e-05 -4.57471e-05 -3.9093e-05 -3.29681e-05 -2.73725e-05 -2.23273e-05 -1.78534e-05 -1.39508e-05 -1.06196e-05 -7.81319e-06 -5.48516e-06 -3.63551e-06 -2.26422e-06 -1.27362e-06 -5.66054e-07 -1.41514e-07 0 0 -7.43027e-07 -2.97211e-06 -6.68724e-06 -1.18884e-05 -1.89365e-05 -2.81922e-05 -3.96557e-05 -5.33269e-05 -6.93552e-05 -8.78901e-05 -0.000108932 -0.00013248 -0.000158375 -0.000186458 -0.000216728 -0.000249187 -0.000283572 -0.000319624 -0.000357342 -0.000396728 -0.000437459 -0.000479214 -0.000521994 -0.000565799 -0.000610265 -0.000655028 -0.000700089 -0.000745446 -0.000790728 -0.000835564 -0.000879951 -0.000923892 -0.000967054 -0.00100911 -0.00105005 -0.00108988 -0.00112835 -0.00116524 -0.00120053 -0.00123422 -0.0012662 -0.00129633 -0.00132463 -0.0013511 -0.00137572 -0.00139852 -0.00141948 -0.00143861 -0.00145601 -0.00147177 -0.0014859 -0.00149839 -0.0015094 -0.00151908 -0.00152741 -0.00153441 -0.0015402 -0.00154494 -0.00154861 -0.00155122 -0.00155284 -0.00155356 -0.00155337 -0.00155229 -0.00155029 -0.00154737 -0.00154354 -0.0015388 -0.00153306 -0.00152623 -0.00151832 -0.00150933 -0.00149912 -0.00148757 -0.00147467 -0.00146042 -0.00144471 -0.0014274 -0.0014085 -0.001388 -0.00136585 -0.00134197 -0.00131637 -0.00128904 -0.00126003 -0.00122938 -0.00119708 -0.00116313 -0.00112769 -0.00109093 -0.00105283 -0.0010134 -0.000972908 -0.000931611 -0.000889512 -0.00084661 -0.000803239 -0.000759731 -0.000716087 -0.000672307 -0.000628741 -0.000585741 -0.000543307 -0.00050144 -0.000460461 -0.000420692 -0.000382135 -0.000344789 -0.000308917 -0.000274781 -0.000242383 -0.000211722 -0.000182989 -0.000156372 -0.000131872 -0.00010949 -8.93092e-05 -7.14135e-05 -5.58032e-05 -4.24783e-05 -3.12527e-05 -2.19407e-05 -1.4542e-05 -9.05687e-06 -5.09449e-06 -2.26422e-06 -5.66054e-07 0 0 -1.67181e-06 -6.68724e-06 -1.50463e-05 -2.6749e-05 -4.26071e-05 -6.34326e-05 -8.92253e-05 -0.000119985 -0.000156049 -0.000197753 -0.000245096 -0.00029808 -0.000356344 -0.00041953 -0.000487639 -0.00056067 -0.000638037 -0.000719153 -0.00080402 -0.000892637 -0.000984282 -0.00107823 -0.00117449 -0.00127305 -0.0013731 -0.00147381 -0.0015752 -0.00167725 -0.00177914 -0.00188002 -0.00197989 -0.00207876 -0.00217587 -0.00227049 -0.0023626 -0.00245222 -0.0025388 -0.00262178 -0.00270118 -0.00277699 -0.00284894 -0.00291675 -0.00298043 -0.00303997 -0.00309538 -0.00314667 -0.00319383 -0.00323687 -0.00327601 -0.00331148 -0.00334327 -0.00337139 -0.00339616 -0.00341792 -0.00343668 -0.00345242 -0.00346546 -0.00347611 -0.00348437 -0.00349024 -0.00349389 -0.00349551 -0.00349509 -0.00349264 -0.00348814 -0.00348159 -0.00347297 -0.0034623 -0.00344938 -0.00343402 -0.00341622 -0.00339599 -0.00337302 -0.00334702 -0.003318 -0.00328595 -0.0032506 -0.00321165 -0.00316912 -0.00312301 -0.00307315 -0.00301943 -0.00296182 -0.00290034 -0.00283507 -0.0027661 -0.00269342 -0.00261704 -0.00253731 -0.00245459 -0.00236887 -0.00228015 -0.00218904 -0.00209612 -0.0020014 -0.00190487 -0.00180729 -0.0017094 -0.0016112 -0.00151269 -0.00141467 -0.00131792 -0.00122244 -0.00112824 -0.00103604 -0.000946558 -0.000859804 -0.000775775 -0.000695062 -0.000618258 -0.000545362 -0.000476375 -0.000411724 -0.000351837 -0.000296713 -0.000246353 -0.000200946 -0.00016068 -0.000125557 -9.55761e-05 -7.03187e-05 -4.93665e-05 -3.27196e-05 -2.0378e-05 -1.14626e-05 -5.09449e-06 -1.27362e-06 0 0 -2.97211e-06 -1.18884e-05 -2.6749e-05 -4.75537e-05 -7.57459e-05 -0.000112769 -0.000158623 -0.000213307 -0.000277421 -0.00035156 -0.000435727 -0.000529919 -0.0006335 -0.000745832 -0.000866914 -0.000996746 -0.00113429 -0.00127849 -0.00142937 -0.00158691 -0.00174983 -0.00191686 -0.00208798 -0.0022632 -0.00244106 -0.00262011 -0.00280035 -0.00298178 -0.00316291 -0.00334225 -0.00351981 -0.00369557 -0.00386822 -0.00403642 -0.00420019 -0.00435951 -0.00451342 -0.00466095 -0.0048021 -0.00493688 -0.00506478 -0.00518534 -0.00529854 -0.00540439 -0.0055029 -0.00559408 -0.00567792 -0.00575444 -0.00582402 -0.00588707 -0.00594359 -0.00599358 -0.00603762 -0.00607631 -0.00610965 -0.00613763 -0.00616082 -0.00617975 -0.00619443 -0.00620486 -0.00621136 -0.00621424 -0.0062135 -0.00620914 -0.00620114 -0.00618949 -0.00617418 -0.0061552 -0.00613223 -0.00610493 -0.00607329 -0.00603731 -0.00599648 -0.00595026 -0.00589867 -0.00584169 -0.00577884 -0.00570961 -0.005634 -0.00555201 -0.00546339 -0.00536787 -0.00526546 -0.00515616 -0.00504013 -0.00491751 -0.0047883 -0.00465251 -0.00451077 -0.00436371 -0.00421132 -0.00405361 -0.00389163 -0.00372644 -0.00355805 -0.00338644 -0.00321296 -0.00303893 -0.00286435 -0.00268923 -0.00251496 -0.00234296 -0.00217323 -0.00200576 -0.00184184 -0.00168277 -0.00152854 -0.00137916 -0.00123567 -0.00109913 -0.000969533 -0.000846889 -0.000731954 -0.000625488 -0.00052749 -0.000437961 -0.000357237 -0.000285654 -0.000223213 -0.000169913 -0.000125011 -8.77626e-05 -5.81681e-05 -3.62275e-05 -2.0378e-05 -9.05687e-06 -2.26422e-06 0 0 -4.73514e-06 -1.89406e-05 -4.26163e-05 -7.57623e-05 -0.000120379 -0.000178467 -0.000250027 -0.000335059 -0.000434424 -0.000548986 -0.000678744 -0.000823699 -0.000982841 -0.00115516 -0.00134066 -0.00153933 -0.00174956 -0.00196973 -0.00219985 -0.0024399 -0.00268791 -0.0029419 -0.00320186 -0.0034678 -0.00373748 -0.00400867 -0.00428138 -0.00455559 -0.00482905 -0.00509949 -0.0053669 -0.00563129 -0.00589065 -0.00614298 -0.00638829 -0.00662657 -0.00685639 -0.00707631 -0.00728632 -0.00748644 -0.00767596 -0.00785422 -0.0080212 -0.00817691 -0.00832144 -0.00845485 -0.00857716 -0.00868836 -0.00878913 -0.00888014 -0.00896141 -0.00903291 -0.00909563 -0.00915051 -0.00919757 -0.00923679 -0.00926906 -0.00929527 -0.00931541 -0.0093295 -0.00933802 -0.00934149 -0.00933991 -0.00933327 -0.00932154 -0.00930469 -0.00928271 -0.00925561 -0.00922284 -0.00918385 -0.00913864 -0.00908722 -0.00902874 -0.00896234 -0.00888804 -0.00880583 -0.00871488 -0.00861437 -0.00850431 -0.00838468 -0.00825504 -0.00811492 -0.00796433 -0.00780326 -0.00763189 -0.00745038 -0.00725874 -0.00705697 -0.00684599 -0.00662669 -0.00639908 -0.00616316 -0.00592052 -0.00567272 -0.00541977 -0.00516166 -0.00490042 -0.00463806 -0.00437457 -0.00410997 -0.00384639 -0.00358598 -0.00332875 -0.00307468 -0.00282576 -0.00258399 -0.00234934 -0.00212184 -0.0019031 -0.00169476 -0.00149681 -0.00130926 -0.00113329 -0.000970092 -0.000819667 -0.000682014 -0.000557679 -0.000447211 -0.000350607 -0.00026787 -0.000197907 -0.00013963 -9.30375e-05 -5.813e-05 -3.26981e-05 -1.45325e-05 -3.63313e-06 0 0 -7.05214e-06 -2.82086e-05 -6.34693e-05 -0.000112834 -0.000178533 -0.000262794 -0.000365618 -0.000487005 -0.000628013 -0.000789702 -0.000972071 -0.00117512 -0.00139736 -0.00163731 -0.00189497 -0.00217033 -0.0024611 -0.00276496 -0.00308191 -0.00341196 -0.00375231 -0.00410017 -0.00445554 -0.00481841 -0.00518568 -0.00555424 -0.0059241 -0.00629524 -0.00666456 -0.00702894 -0.00738838 -0.00774287 -0.00808973 -0.00842625 -0.00875243 -0.00906826 -0.00937189 -0.00966143 -0.00993688 -0.0101982 -0.0104447 -0.0106755 -0.0108907 -0.0110901 -0.0112742 -0.0114431 -0.0115969 -0.0117357 -0.0118604 -0.0119723 -0.0120713 -0.0121574 -0.012232 -0.0122968 -0.0123517 -0.0123966 -0.012433 -0.0124621 -0.0124839 -0.0124985 -0.0125066 -0.012509 -0.0125056 -0.0124965 -0.0124816 -0.0124608 -0.0124341 -0.0124016 -0.0123624 -0.0123157 -0.0122614 -0.0121996 -0.012129 -0.0120483 -0.0119575 -0.0118565 -0.0117442 -0.0116191 -0.0114812 -0.0113307 -0.0111666 -0.0109882 -0.0107955 -0.0105884 -0.010367 -0.0101315 -0.00988176 -0.00961784 -0.00934085 -0.00905192 -0.00875104 -0.00843822 -0.00811554 -0.0077851 -0.00744687 -0.00710088 -0.00674985 -0.00639652 -0.0060409 -0.00568298 -0.00532572 -0.00497208 -0.00462207 -0.00427568 -0.00393569 -0.00360487 -0.00328321 -0.00297073 -0.00266973 -0.00238252 -0.0021091 -0.00184947 -0.00160534 -0.00137842 -0.00116871 -0.000976213 -0.000801771 -0.000646226 -0.000509577 -0.000391826 -0.000291585 -0.000207469 -0.000139477 -8.76102e-05 -4.92807e-05 -2.19025e-05 -5.47564e-06 0 0 -9.9231e-06 -3.96924e-05 -8.93079e-05 -0.00015877 -0.000250207 -0.000365749 -0.000505395 -0.000669146 -0.000858189 -0.00107371 -0.00131571 -0.00158418 -0.00187706 -0.00219229 -0.00252985 -0.00288976 -0.0032689 -0.00366417 -0.00407557 -0.0045031 -0.00494304 -0.00539167 -0.005849 -0.00631503 -0.00678566 -0.00725682 -0.00772851 -0.00820073 -0.00866943 -0.0091306 -0.00958423 -0.0100303 -0.0104655 -0.0108862 -0.0112926 -0.0116846 -0.0120599 -0.0124163 -0.0127538 -0.0130723 -0.0133711 -0.0136493 -0.0139069 -0.014144 -0.0143611 -0.0145588 -0.0147373 -0.0148964 -0.0150379 -0.0151635 -0.0152732 -0.0153669 -0.0154469 -0.0155152 -0.015572 -0.0156171 -0.0156525 -0.0156802 -0.0157 -0.015712 -0.0157172 -0.0157168 -0.0157107 -0.0156989 -0.0156813 -0.0156578 -0.0156285 -0.0155933 -0.015551 -0.0155004 -0.0154416 -0.0153746 -0.0152974 -0.0152082 -0.015107 -0.0149938 -0.0148667 -0.0147237 -0.0145648 -0.0143901 -0.0141981 -0.0139877 -0.0137589 -0.0135115 -0.0132456 -0.0129608 -0.0126574 -0.0123351 -0.0119954 -0.0116394 -0.0112672 -0.0108788 -0.0104767 -0.0100636 -0.00963937 -0.0092041 -0.00876125 -0.00831433 -0.00786333 -0.00740825 -0.00695294 -0.00650126 -0.0060532 -0.00560876 -0.00517161 -0.00474541 -0.00433015 -0.00392584 -0.00353556 -0.00316242 -0.0028064 -0.00246752 -0.0021481 -0.00185046 -0.00157462 -0.00132056 -0.00108951 -0.000882699 -0.000700123 -0.000541782 -0.000406045 -0.00029128 -0.000197488 -0.000124668 -7.01257e-05 -3.1167e-05 -7.79175e-06 0 0 -1.3348e-05 -5.33921e-05 -0.000120132 -0.000213568 -0.000335401 -0.000487331 -0.000669358 -0.000881483 -0.00112495 -0.00140101 -0.00170965 -0.00205088 -0.00242195 -0.00282009 -0.00324531 -0.00369761 -0.00417296 -0.00466737 -0.00518081 -0.0057133 -0.00626009 -0.0068164 -0.00738226 -0.00795765 -0.00853742 -0.00911641 -0.00969462 -0.010272 -0.0108437 -0.0114045 -0.0119545 -0.0124936 -0.0130178 -0.0135229 -0.0140088 -0.0144755 -0.0149205 -0.015341 -0.015737 -0.0161086 -0.016455 -0.0167754 -0.0170699 -0.0173385 -0.0175821 -0.017802 -0.0179982 -0.0181705 -0.0183216 -0.0184538 -0.0185671 -0.0186615 -0.0187401 -0.0188057 -0.0188585 -0.0188983 -0.0189278 -0.0189495 -0.0189635 -0.0189698 -0.0189698 -0.0189649 -0.0189551 -0.0189404 -0.0189207 -0.0188958 -0.0188657 -0.0188305 -0.0187885 -0.0187381 -0.0186793 -0.018612 -0.0185338 -0.018442 -0.0183366 -0.0182177 -0.0180824 -0.0179282 -0.017755 -0.0175627 -0.0173496 -0.0171135 -0.0168546 -0.0165727 -0.0162675 -0.0159384 -0.0155855 -0.0152088 -0.0148095 -0.0143891 -0.0139476 -0.0134848 -0.013004 -0.0125082 -0.0119973 -0.0114713 -0.0109346 -0.0103915 -0.00984185 -0.00928578 -0.00872806 -0.00817351 -0.00762213 -0.00707393 -0.00653354 -0.00600562 -0.00549015 -0.00498715 -0.00450059 -0.00403445 -0.00358873 -0.00316342 -0.00276157 -0.00238623 -0.00203739 -0.00171505 -0.0014209 -0.00115663 -0.000922244 -0.000717738 -0.000541287 -0.000391064 -0.000267069 -0.000169303 -9.52331e-05 -4.23258e-05 -1.05815e-05 0 0 -1.73567e-05 -6.94269e-05 -0.000156211 -0.000277708 -0.000434792 -0.000628336 -0.000858341 -0.00112481 -0.0014289 -0.00177181 -0.00215352 -0.00257404 -0.00302978 -0.00351713 -0.0040361 -0.00458668 -0.00516383 -0.00576246 -0.00638258 -0.0070242 -0.00768139 -0.00834826 -0.00902479 -0.00971099 -0.0104005 -0.0110871 -0.0117707 -0.0124513 -0.0131228 -0.0137793 -0.0144207 -0.0150471 -0.0156534 -0.0162349 -0.0167916 -0.0173234 -0.0178274 -0.0183006 -0.0187432 -0.019155 -0.0195356 -0.0198845 -0.0202015 -0.0204868 -0.0207421 -0.0209691 -0.021168 -0.0213386 -0.0214844 -0.0216089 -0.0217119 -0.0217936 -0.021858 -0.021909 -0.0219467 -0.0219711 -0.0219856 -0.0219936 -0.0219951 -0.0219902 -0.0219806 -0.0219684 -0.0219534 -0.0219357 -0.0219151 -0.0218914 -0.0218646 -0.0218346 -0.0217994 -0.0217567 -0.0217066 -0.021649 -0.0215806 -0.0214977 -0.0214005 -0.0212888 -0.0211591 -0.0210076 -0.0208343 -0.0206392 -0.0204194 -0.0201723 -0.0198977 -0.0195956 -0.0192651 -0.0189052 -0.0185159 -0.0180971 -0.0176502 -0.0171764 -0.0166757 -0.0161482 -0.0155972 -0.0150264 -0.0144356 -0.0138248 -0.0131993 -0.0125639 -0.0119189 -0.011264 -0.0106053 -0.00994842 -0.0092935 -0.00864051 -0.00799515 -0.00736317 -0.00674455 -0.00613931 -0.00555241 -0.00498884 -0.0044486 -0.00393168 -0.00344196 -0.00298333 -0.00255578 -0.0021593 -0.00179619 -0.00146873 -0.00117693 -0.00092077 -0.000698353 -0.000507761 -0.000348995 -0.000222054 -0.000124906 -5.55136e-05 -1.38784e-05 0 0 -2.1979e-05 -8.79162e-05 -0.000197811 -0.000351665 -0.000549054 -0.000789557 -0.00107317 -0.00139991 -0.00177066 -0.00218634 -0.00264695 -0.00315249 -0.00369832 -0.00427982 -0.00489698 -0.0055498 -0.00623202 -0.00693736 -0.00766582 -0.0084174 -0.0091849 -0.00996113 -0.0107461 -0.0115398 -0.0123346 -0.013123 -0.0139049 -0.0146805 -0.0154425 -0.0161839 -0.0169046 -0.0176048 -0.0182788 -0.018921 -0.0195316 -0.0201104 -0.0206544 -0.0211606 -0.021629 -0.0220595 -0.0224521 -0.0228068 -0.0231234 -0.0234021 -0.0236456 -0.0238566 -0.024035 -0.0241811 -0.0242993 -0.0243945 -0.0244666 -0.0245156 -0.0245469 -0.0245659 -0.0245724 -0.0245665 -0.0245528 -0.0245356 -0.0245151 -0.0244911 -0.0244661 -0.0244426 -0.0244205 -0.0243998 -0.0243802 -0.0243616 -0.0243438 -0.024327 -0.0243081 -0.0242844 -0.024256 -0.0242227 -0.02418 -0.0241233 -0.0240527 -0.023968 -0.0238644 -0.0237368 -0.0235853 -0.0234097 -0.0232062 -0.0229707 -0.0227033 -0.0224039 -0.0220708 -0.0217022 -0.021298 -0.0208583 -0.0203841 -0.0198764 -0.0193352 -0.0187605 -0.0181561 -0.0175257 -0.0168693 -0.0161869 -0.0154845 -0.0147677 -0.0140367 -0.0132914 -0.0125387 -0.0117856 -0.0110319 -0.0102778 -0.00953013 -0.00879575 -0.00807468 -0.00736693 -0.00667861 -0.00601581 -0.00537855 -0.00476681 -0.00418547 -0.00363937 -0.00312853 -0.00265293 -0.00221564 -0.00181972 -0.00146515 -0.00115195 -0.000878285 -0.000642313 -0.000444038 -0.00028346 -0.000159446 -7.08649e-05 -1.77162e-05 0 0 -2.7215e-05 -0.00010886 -0.000244935 -0.000435439 -0.000678188 -0.000970995 -0.00131386 -0.00170678 -0.00215021 -0.00264459 -0.00318993 -0.00378622 -0.00442759 -0.00510817 -0.00582796 -0.00658696 -0.00737754 -0.00819206 -0.00903051 -0.0098929 -0.0107706 -0.011655 -0.0125461 -0.013444 -0.0143396 -0.015224 -0.0160974 -0.0169596 -0.0178026 -0.0186181 -0.0194062 -0.0201668 -0.0208939 -0.0215812 -0.0222287 -0.0228366 -0.0234016 -0.0239209 -0.0243943 -0.024822 -0.0252044 -0.0255423 -0.0258357 -0.0260844 -0.0262926 -0.0264643 -0.0265994 -0.0266979 -0.0267662 -0.0268106 -0.026831 -0.0268274 -0.0268068 -0.0267762 -0.0267355 -0.0266846 -0.0266295 -0.0265758 -0.0265235 -0.0264726 -0.0264262 -0.0263874 -0.0263561 -0.0263325 -0.026316 -0.0263063 -0.0263035 -0.0263074 -0.0263146 -0.0263212 -0.0263273 -0.0263329 -0.0263321 -0.0263189 -0.0262933 -0.0262553 -0.0261984 -0.0261159 -0.0260079 -0.0258744 -0.0257099 -0.0255089 -0.0252715 -0.0249977 -0.0246846 -0.0243294 -0.023932 -0.0234925 -0.0230114 -0.0224892 -0.0219261 -0.0213219 -0.0206806 -0.0200061 -0.0192985 -0.0185577 -0.0177903 -0.0170029 -0.0161954 -0.015368 -0.0145285 -0.013685 -0.0128375 -0.0119859 -0.0111385 -0.0103034 -0.00948054 -0.00867003 -0.00787918 -0.00711536 -0.00637858 -0.00566882 -0.00499208 -0.00435436 -0.00375565 -0.00319594 -0.00267925 -0.00220958 -0.00178693 -0.00141129 -0.00108109 -0.000794721 -0.000552199 -0.000353519 -0.000198854 -8.83796e-05 -2.20949e-05 0 0 -3.30645e-05 -0.000132258 -0.00029758 -0.000529032 -0.000822194 -0.00117265 -0.0015804 -0.00204544 -0.00256757 -0.00314657 -0.00378246 -0.00447523 -0.00521756 -0.00600217 -0.00682903 -0.00769817 -0.0086004 -0.00952657 -0.0104767 -0.0114507 -0.0124385 -0.0134299 -0.0144249 -0.0154236 -0.0164155 -0.0173903 -0.0183481 -0.0192888 -0.0202032 -0.0210821 -0.0219254 -0.0227332 -0.0234987 -0.0242154 -0.0248831 -0.0255019 -0.026069 -0.0265814 -0.0270392 -0.0274424 -0.0277926 -0.0280911 -0.0283382 -0.0285337 -0.0286832 -0.0287924 -0.028861 -0.0288893 -0.0288853 -0.0288572 -0.0288052 -0.0287291 -0.0286378 -0.0285401 -0.0284359 -0.0283254 -0.0282157 -0.028114 -0.0280203 -0.0279347 -0.0278609 -0.0278029 -0.0277605 -0.0277338 -0.0277223 -0.0277255 -0.0277435 -0.0277761 -0.0278188 -0.027867 -0.0279207 -0.0279798 -0.0280368 -0.0280843 -0.0281222 -0.0281506 -0.0281609 -0.0281448 -0.0281022 -0.0280331 -0.0279304 -0.0277868 -0.0276023 -0.0273769 -0.0271064 -0.0267867 -0.0264177 -0.0259995 -0.0255319 -0.0250148 -0.0244483 -0.0238322 -0.0231707 -0.0224676 -0.021723 -0.020937 -0.0201166 -0.0192693 -0.018395 -0.0174937 -0.0165745 -0.0156467 -0.01471 -0.0137647 -0.0128202 -0.011886 -0.0109621 -0.0100486 -0.00915413 -0.00828749 -0.00744868 -0.0066377 -0.00586182 -0.00512829 -0.00443713 -0.00378833 -0.00318702 -0.00263833 -0.00214225 -0.00169878 -0.00130675 -0.000964985 -0.000673478 -0.000432232 -0.00024313 -0.000108058 -2.70145e-05 0 0 -3.9467e-05 -0.000157868 -0.000355203 -0.000631472 -0.000979554 -0.00139233 -0.00186979 -0.00241195 -0.0030177 -0.00368594 -0.00441667 -0.00520989 -0.00605662 -0.00694788 -0.00788367 -0.00886399 -0.00987796 -0.0109147 -0.0119742 -0.0130565 -0.0141497 -0.015242 -0.0163333 -0.0174237 -0.0185014 -0.0195545 -0.0205829 -0.0215868 -0.0225558 -0.0234796 -0.0243581 -0.0251915 -0.0259724 -0.026694 -0.0273561 -0.0279588 -0.0284996 -0.028976 -0.0293881 -0.0297358 -0.0300219 -0.0302492 -0.0304177 -0.0305274 -0.0305857 -0.0306001 -0.0305707 -0.0304974 -0.0303906 -0.030261 -0.0301084 -0.0299329 -0.0297455 -0.0295573 -0.0293682 -0.0291783 -0.0289965 -0.0288317 -0.028684 -0.0285533 -0.0284443 -0.0283619 -0.0283058 -0.0282763 -0.0282725 -0.028294 -0.0283406 -0.0284125 -0.0285037 -0.0286087 -0.0287273 -0.0288596 -0.0289963 -0.0291278 -0.0292543 -0.0293757 -0.0294813 -0.0295605 -0.0296133 -0.0296396 -0.0296302 -0.0295756 -0.0294759 -0.029331 -0.0291352 -0.0288824 -0.0285729 -0.0282064 -0.0277821 -0.0272988 -0.0267565 -0.0261553 -0.0254989 -0.0247913 -0.0240325 -0.0232224 -0.0223689 -0.02148 -0.0205556 -0.0195956 -0.0186105 -0.0176105 -0.0165955 -0.0155657 -0.0145319 -0.0135051 -0.0124854 -0.0114728 -0.0104774 -0.00950967 -0.00856951 -0.00765695 -0.0067807 -0.00594948 -0.0051633 -0.00442216 -0.00373251 -0.00310082 -0.00252708 -0.0020113 -0.00155293 -0.00115139 -0.000806701 -0.000518853 -0.000291855 -0.000129713 -3.24283e-05 0 0 -4.6362e-05 -0.000185448 -0.000417258 -0.000741793 -0.00114875 -0.00162784 -0.00217905 -0.0028024 -0.00349559 -0.00425635 -0.00508468 -0.00598058 -0.00693312 -0.00793137 -0.00897533 -0.010065 -0.0111876 -0.0123303 -0.013493 -0.0146759 -0.0158653 -0.0170473 -0.0182221 -0.0193896 -0.0205364 -0.0216492 -0.022728 -0.0237727 -0.024772 -0.0257145 -0.0266003 -0.0274293 -0.0281941 -0.0288875 -0.0295093 -0.0300596 -0.0305366 -0.0309385 -0.0312653 -0.031517 -0.031698 -0.0318126 -0.0318609 -0.0318428 -0.0317683 -0.0316471 -0.0314792 -0.0312646 -0.0310166 -0.0307483 -0.0304599 -0.0301512 -0.029836 -0.0295279 -0.0292269 -0.028933 -0.0286573 -0.0284106 -0.0281929 -0.0280043 -0.0278506 -0.0277373 -0.0276646 -0.0276324 -0.0276399 -0.0276864 -0.0277717 -0.027896 -0.0280521 -0.028233 -0.0284386 -0.0286689 -0.0289124 -0.0291575 -0.0294041 -0.0296523 -0.0298888 -0.0301001 -0.0302863 -0.0304474 -0.0305715 -0.0306466 -0.0306726 -0.0306496 -0.0305696 -0.0304248 -0.030215 -0.0299402 -0.0295982 -0.0291866 -0.0287054 -0.0281546 -0.0275377 -0.0268582 -0.0261161 -0.0253114 -0.0244525 -0.0235478 -0.0225972 -0.0216008 -0.0205701 -0.0195163 -0.0184397 -0.0173401 -0.0162301 -0.0151222 -0.0140164 -0.0129127 -0.011823 -0.0107594 -0.0097217 -0.00871004 -0.00773477 -0.00680625 -0.00592449 -0.00508948 -0.00430927 -0.00359191 -0.0029374 -0.00234574 -0.00181725 -0.00135223 -0.000950696 -0.000612637 -0.000344609 -0.000153159 -3.82898e-05 0 0 -5.37495e-05 -0.000214998 -0.000483746 -0.000859992 -0.00132979 -0.00187918 -0.00250818 -0.00321678 -0.00400123 -0.0048578 -0.00578649 -0.0067873 -0.00784707 -0.00895264 -0.010104 -0.0113012 -0.0125293 -0.0137733 -0.0150332 -0.016309 -0.0175852 -0.0188459 -0.0200912 -0.0213211 -0.0225206 -0.0236746 -0.0247832 -0.0258464 -0.0268517 -0.0277869 -0.0286519 -0.0294467 -0.0301638 -0.0307958 -0.0313427 -0.0318044 -0.03218 -0.0324689 -0.0326709 -0.032786 -0.0328207 -0.0327812 -0.0326677 -0.0324801 -0.032231 -0.0319331 -0.0315864 -0.031191 -0.0307631 -0.0303194 -0.0298596 -0.029384 -0.0289091 -0.0284518 -0.0280119 -0.0275895 -0.027198 -0.0268505 -0.0265471 -0.0262879 -0.0260796 -0.0259292 -0.0258367 -0.0258022 -0.0258245 -0.0259027 -0.0260368 -0.0262268 -0.026464 -0.0267399 -0.0270544 -0.0274076 -0.0277853 -0.0281734 -0.0285718 -0.0289805 -0.0293833 -0.0297635 -0.0301213 -0.0304566 -0.0307544 -0.0309996 -0.0311924 -0.0313326 -0.0314099 -0.0314137 -0.031344 -0.0312009 -0.0309803 -0.0306784 -0.030295 -0.0298302 -0.029287 -0.0286682 -0.0279739 -0.027204 -0.0263673 -0.0254726 -0.02452 -0.0235093 -0.0224532 -0.0213643 -0.0202426 -0.0190881 -0.0179149 -0.0167372 -0.0155551 -0.0143684 -0.0131909 -0.0120366 -0.0109052 -0.00979699 -0.00872403 -0.0076986 -0.00672068 -0.00579029 -0.0049173 -0.00411161 -0.00337321 -0.0027021 -0.00209972 -0.00156751 -0.00110546 -0.000713585 -0.000401392 -0.000178396 -4.45991e-05 0 0 -6.16295e-05 -0.000246518 -0.000554665 -0.000986071 -0.00152266 -0.00214636 -0.00285717 -0.00365509 -0.00453463 -0.0054903 -0.00652211 -0.00763004 -0.00879845 -0.0100117 -0.0112697 -0.0125726 -0.013903 -0.0152437 -0.0165946 -0.0179558 -0.0193094 -0.0206377 -0.0219407 -0.0232183 -0.0244538 -0.0256306 -0.0267486 -0.0278079 -0.028795 -0.0296966 -0.0305128 -0.0312436 -0.0318815 -0.032419 -0.0328562 -0.033193 -0.0334299 -0.0335671 -0.0336048 -0.0335428 -0.03339 -0.0331551 -0.0328381 -0.0324391 -0.0319738 -0.0314583 -0.0308925 -0.0302765 -0.0296303 -0.028974 -0.0283077 -0.0276313 -0.026965 -0.026329 -0.0257233 -0.0251478 -0.0246186 -0.0241515 -0.0237466 -0.0234038 -0.0231314 -0.0229375 -0.0228223 -0.0227856 -0.0228262 -0.022943 -0.0231358 -0.0234047 -0.0237394 -0.0241294 -0.0245749 -0.0250757 -0.0256149 -0.0261754 -0.0267572 -0.0273603 -0.0279648 -0.0285508 -0.0291182 -0.029667 -0.0301787 -0.0306348 -0.0310353 -0.0313801 -0.0316559 -0.0318492 -0.03196 -0.0319884 -0.0319284 -0.031774 -0.0315253 -0.0311822 -0.0307469 -0.0302214 -0.0296059 -0.0289002 -0.0281134 -0.0272546 -0.0263238 -0.025321 -0.0242599 -0.0231543 -0.0220042 -0.0208096 -0.0195863 -0.0183502 -0.0171014 -0.0158398 -0.0145811 -0.0133413 -0.0121201 -0.0109178 -0.00974848 -0.00862652 -0.00755189 -0.00652459 -0.00555661 -0.00465991 -0.0038345 -0.00308037 -0.00240034 -0.00179721 -0.001271 -0.000821695 -0.000462204 -0.000205424 -5.1356e-05 0 0 -6.99045e-05 -0.000279618 -0.000629141 -0.00111847 -0.00172497 -0.00242599 -0.00322152 -0.00411158 -0.00508861 -0.00614509 -0.007281 -0.00849636 -0.0097727 -0.0110916 -0.012453 -0.0138569 -0.0152836 -0.016713 -0.0181453 -0.0195804 -0.0209982 -0.0223786 -0.0237217 -0.0250275 -0.0262774 -0.027453 -0.0285543 -0.0295812 -0.0305196 -0.0313552 -0.0320879 -0.0327178 -0.0332377 -0.0336403 -0.0339256 -0.0340936 -0.0341464 -0.0340857 -0.0339115 -0.033624 -0.0332346 -0.0327549 -0.032185 -0.0315248 -0.030794 -0.0300124 -0.0291799 -0.0282965 -0.0273865 -0.0264743 -0.0255598 -0.024643 -0.0237481 -0.022899 -0.0220959 -0.0213388 -0.0206464 -0.0200378 -0.0195129 -0.0190717 -0.0187239 -0.0184792 -0.0183377 -0.0182992 -0.0183624 -0.0185257 -0.018789 -0.0191524 -0.0196036 -0.0201303 -0.0207324 -0.02141 -0.0221427 -0.0229103 -0.0237127 -0.0245499 -0.025398 -0.026233 -0.027055 -0.0278639 -0.0286371 -0.0293521 -0.0300089 -0.0306075 -0.031131 -0.0315626 -0.0319022 -0.0321499 -0.0322974 -0.0323363 -0.0322666 -0.0320884 -0.0318027 -0.0314104 -0.0309117 -0.0303064 -0.0296038 -0.0288131 -0.0279343 -0.0269673 -0.0259271 -0.0248286 -0.0236718 -0.0224566 -0.0212008 -0.019922 -0.0186202 -0.0172954 -0.0159655 -0.0146485 -0.0133444 -0.0120531 -0.0107912 -0.00957539 -0.00840555 -0.00728171 -0.0062182 -0.00522936 -0.00431518 -0.00347567 -0.00271529 -0.00203849 -0.00144528 -0.00093566 -0.000526309 -0.000233915 -5.84788e-05 0 0 -7.84774e-05 -0.00031391 -0.000706297 -0.00125564 -0.00193431 -0.00271467 -0.00359672 -0.00458047 -0.005656 -0.0068134 -0.00805266 -0.0093738 -0.0107552 -0.0121754 -0.0136343 -0.015132 -0.0166456 -0.0181527 -0.0196531 -0.0211469 -0.0226116 -0.0240244 -0.0253856 -0.026695 -0.0279324 -0.0290775 -0.0301302 -0.0310906 -0.0319435 -0.0326739 -0.0332817 -0.033767 -0.034123 -0.0343429 -0.0344267 -0.0343744 -0.0341899 -0.033877 -0.0334357 -0.032866 -0.0321829 -0.0314012 -0.0305209 -0.0295421 -0.0284888 -0.0273851 -0.0262309 -0.0250263 -0.0238004 -0.0225823 -0.0213719 -0.0201693 -0.019003 -0.0179016 -0.016865 -0.0158933 -0.0150087 -0.0142334 -0.0135674 -0.0130109 -0.012575 -0.0122712 -0.0120994 -0.0120597 -0.0121503 -0.0123692 -0.0127166 -0.0131924 -0.0137821 -0.0144711 -0.0152595 -0.0161473 -0.0171104 -0.0181248 -0.0191905 -0.0203075 -0.0214472 -0.0225813 -0.0237096 -0.0248323 -0.025922 -0.0269516 -0.027921 -0.0288303 -0.0296586 -0.030385 -0.0310096 -0.0315324 -0.0319422 -0.0322279 -0.0323894 -0.0324269 -0.0323398 -0.0321278 -0.0317909 -0.0313291 -0.0307516 -0.0300675 -0.0292768 -0.0283796 -0.0273918 -0.0263295 -0.0251927 -0.0239813 -0.022715 -0.0214132 -0.0200761 -0.0187035 -0.0173158 -0.0159333 -0.0145558 -0.0131835 -0.0118354 -0.0105306 -0.00926912 -0.00805095 -0.00689307 -0.00581247 -0.00480915 -0.00388312 -0.00304077 -0.00228849 -0.00162629 -0.00105417 -0.000592971 -0.000263543 -6.58857e-05 0 0 -8.73482e-05 -0.000349393 -0.000786134 -0.00139757 -0.00215067 -0.00301241 -0.00398277 -0.00506177 -0.00623679 -0.00749523 -0.00883708 -0.0102624 -0.011746 -0.0132631 -0.0148137 -0.0163976 -0.0179893 -0.0195628 -0.0211182 -0.0226555 -0.0241495 -0.0255751 -0.0269323 -0.0282209 -0.029419 -0.0305042 -0.0314765 -0.032336 -0.0330667 -0.0336528 -0.0340944 -0.0343913 -0.0345374 -0.0345268 -0.0343594 -0.0340353 -0.0335604 -0.0329411 -0.0321773 -0.031269 -0.030235 -0.029094 -0.027846 -0.0264911 -0.0250582 -0.0235764 -0.0220457 -0.020466 -0.018872 -0.017298 -0.015744 -0.0142101 -0.0127298 -0.0113365 -0.0100304 -0.00881133 -0.00770532 -0.00673832 -0.00591035 -0.0052214 -0.00468467 -0.00431336 -0.00410749 -0.00406704 -0.00418984 -0.00447371 -0.00491865 -0.00552465 -0.00627474 -0.00715193 -0.00815621 -0.00928758 -0.0105179 -0.0118189 -0.0131906 -0.014633 -0.0161126 -0.0175956 -0.0190822 -0.0205723 -0.0220334 -0.0234331 -0.0247715 -0.0260484 -0.0272386 -0.0283166 -0.0292824 -0.030136 -0.0308629 -0.0314489 -0.0318937 -0.0321976 -0.0323582 -0.0323735 -0.0322436 -0.0319683 -0.0315567 -0.0310178 -0.0303515 -0.0295579 -0.0286541 -0.0276571 -0.0265669 -0.0253837 -0.0241288 -0.022824 -0.0214691 -0.0200642 -0.0186321 -0.0171956 -0.0157545 -0.0143091 -0.012881 -0.0114922 -0.0101426 -0.00883231 -0.00758121 -0.00640925 -0.00531642 -0.00430272 -0.00337678 -0.00254721 -0.00181403 -0.00117723 -0.00066219 -0.000294307 -7.35767e-05 0 0 -9.65167e-05 -0.000386067 -0.000868651 -0.00154427 -0.00237407 -0.0033192 -0.00437967 -0.00555548 -0.00683099 -0.00819058 -0.00963426 -0.011162 -0.0127451 -0.0143548 -0.0159911 -0.017654 -0.0193144 -0.0209432 -0.0225404 -0.0241061 -0.0256122 -0.0270307 -0.0283617 -0.0296052 -0.030737 -0.0317329 -0.032593 -0.0333173 -0.0338891 -0.0342919 -0.0345257 -0.0345905 -0.034481 -0.0341922 -0.0337239 -0.0330762 -0.032258 -0.031278 -0.0301363 -0.0288329 -0.0273909 -0.0258333 -0.0241603 -0.0223717 -0.0205022 -0.0185864 -0.0166242 -0.0146156 -0.0126012 -0.0106214 -0.00867611 -0.00676547 -0.00492842 -0.00320398 -0.00159216 -9.29423e-05 0.00126359 0.00244738 0.00345843 0.00429673 0.00494705 0.00539417 0.0056381 0.00567882 0.00551891 0.00516094 0.0046049 0.0038508 0.00291835 0.00182725 0.000577516 -0.000830865 -0.00236512 -0.00399249 -0.00571298 -0.00752657 -0.00939401 -0.011276 -0.0131726 -0.0150838 -0.0169713 -0.0187968 -0.0205604 -0.022262 -0.0238711 -0.0253572 -0.0267204 -0.0279606 -0.0290596 -0.0299992 -0.0307795 -0.0314005 -0.0318579 -0.0321477 -0.0322697 -0.032224 -0.0320193 -0.031664 -0.0311584 -0.0305022 -0.0297138 -0.0288112 -0.0277945 -0.0266637 -0.0254424 -0.0241542 -0.0227993 -0.0213775 -0.0199144 -0.0184354 -0.0169405 -0.0154297 -0.013928 -0.0124601 -0.011026 -0.0096258 -0.00828264 -0.0070197 -0.00583698 -0.00473446 -0.00372331 -0.00281465 -0.00200849 -0.00130483 -0.000733967 -0.000326207 -8.15519e-05 0 0 -0.000105867 -0.000423467 -0.000952801 -0.00169387 -0.00260164 -0.00