<?xml version="1.0"?> 
<VTKFile type="StructuredGrid" version="0.1"> 
<StructuredGrid WholeExtent="0 128 0 128 0 0"> 
<Piece Extent="0 128 0 128 0 0"> 
<PointData>
<DataArray type="Float32" Name="u" format="ascii" NumberOfComponents="1"> 
0 0 0 0 0 0 0 0 0 0 0 0 0 0 0 0 0 0 0 0 0 0 0 0 0 0 0 0 0 0 0 0 0 0 0 0 0 0 0 0 0 0 0 0 0 0 0 0 0 0 0 0 0 0 0 0 0 0 0 0 0 0 0 0 0 0 0 0 0 0 0 0 0 0 0 0 0 0 0 0 0 0 0 0 0 0 0 0 0 0 0 0 0 0 0 0 0 0 0 0 0 0 0 0 0 0 0 0 0 0 0 0 0 0 0 0 0 0 0 0 0 0 0 0 0 0 0 0 0 0 8.50699e-09 3.40279e-08 7.65629e-08 1.36112e-07 2.74566e-07 5.53816e-07 9.73863e-07 1.53471e-06 2.2599e-06 3.17299e-06 4.27398e-06 5.56287e-06 7.02319e-06 8.63846e-06 1.04087e-05 1.23339e-05 1.43669e-05 1.64605e-05 1.86148e-05 2.08298e-05 2.30442e-05 2.51967e-05 2.72873e-05 2.9316e-05 3.12268e-05 3.29638e-05 3.4527e-05 3.59163e-05 3.70962e-05 3.80307e-05 3.872e-05 3.9164e-05 3.93525e-05 3.9275e-05 3.89316e-05 3.83223e-05 3.74592e-05 3.63543e-05 3.50077e-05 3.34194e-05 3.16189e-05 2.96356e-05 2.74696e-05 2.51208e-05 2.26331e-05 2.00502e-05 1.73721e-05 1.45989e-05 1.1786e-05 8.98928e-06 6.20859e-06 3.44396e-06 7.56606e-07 -1.7923e-06 -4.20274e-06 -6.47473e-06 -8.55405e-06 -1.03865e-05 -1.1972e-05 -1.33107e-05 -1.43706e-05 -1.51199e-05 -1.55587e-05 -1.56869e-05 -1.55057e-05 -1.50162e-05 -1.42185e-05 -1.31125e-05 -1.1732e-05 -1.01108e-05 -8.24886e-06 -6.14625e-06 -3.85812e-06 -1.43969e-06 1.10905e-06 3.7881e-06 6.53648e-06 9.29318e-06 1.20582e-05 1.48316e-05 1.75589e-05 2.01858e-05 2.27122e-05 2.51382e-05 2.7422e-05 2.95215e-05 3.14368e-05 3.31679e-05 3.46874e-05 3.59679e-05 3.70092e-05 3.78115e-05 3.83642e-05 3.86571e-05 3.86901e-05 3.84632e-05 3.79877e-05 3.72747e-05 3.63243e-05 3.51365e-05 3.37468e-05 3.21908e-05 3.04685e-05 2.85797e-05 2.65794e-05 2.45223e-05 2.24083e-05 2.02374e-05 1.80691e-05 1.59629e-05 1.39186e-05 1.19364e-05 1.00616e-05 8.33938e-06 6.76986e-06 5.35302e-06 4.10419e-06 3.03872e-06 2.15662e-06 1.45789e-06 9.19105e-07 5.16843e-07 2.51107e-07 1.21896e-07 6.85667e-08 3.04741e-08 7.61852e-09 0 0 3.40279e-08 1.36112e-07 3.06252e-07 5.44447e-07 1.09826e-06 2.21527e-06 3.89545e-06 6.13882e-06 9.03959e-06 1.2692e-05 1.70959e-05 2.22515e-05 2.80928e-05 3.45538e-05 4.16347e-05 4.93354e-05 5.74674e-05 6.5842e-05 7.44594e-05 8.33194e-05 9.21769e-05 0.000100787 0.000109149 0.000117264 0.000124907 0.000131855 0.000138108 0.000143665 0.000148385 0.000152123 0.00015488 0.000156656 0.00015741 0.0001571 0.000155727 0.000153289 0.000149837 0.000145417 0.000140031 0.000133678 0.000126476 0.000118542 0.000109878 0.000100483 9.05325e-05 8.02009e-05 6.94886e-05 5.83955e-05 4.71442e-05 3.59571e-05 2.48343e-05 1.37759e-05 3.02642e-06 -7.16919e-06 -1.6811e-05 -2.58989e-05 -3.42162e-05 -4.15459e-05 -4.7888e-05 -5.32426e-05 -5.74823e-05 -6.04797e-05 -6.22348e-05 -6.27476e-05 -6.20228e-05 -6.00649e-05 -5.68739e-05 -5.24499e-05 -4.69279e-05 -4.04431e-05 -3.29955e-05 -2.4585e-05 -1.54325e-05 -5.75876e-06 4.43621e-06 1.51524e-05 2.61459e-05 3.71727e-05 4.82328e-05 5.93263e-05 7.02355e-05 8.07431e-05 9.08489e-05 0.000100553 0.000109688 0.000118086 0.000125747 0.000132672 0.00013875 0.000143871 0.000148037 0.000151246 0.000153457 0.000154628 0.00015476 0.000153853 0.000151951 0.000149099 0.000145297 0.000140546 0.000134987 0.000128763 0.000121874 0.000114319 0.000106318 9.80891e-05 8.96331e-05 8.09496e-05 7.22765e-05 6.38515e-05 5.56746e-05 4.77458e-05 4.02463e-05 3.33575e-05 2.70795e-05 2.14121e-05 1.64167e-05 1.21549e-05 8.62649e-06 5.83156e-06 3.67642e-06 2.06737e-06 1.00443e-06 4.87585e-07 2.74267e-07 1.21896e-07 3.04741e-08 0 0 7.65629e-08 3.06252e-07 6.89066e-07 1.22501e-06 2.47109e-06 4.98435e-06 8.76477e-06 1.38124e-05 2.03391e-05 2.85569e-05 3.84658e-05 5.00659e-05 6.32087e-05 7.77462e-05 9.36782e-05 0.000111005 0.000129302 0.000148145 0.000167534 0.000187469 0.000207398 0.00022677 0.000245586 0.000263844 0.000281041 0.000296674 0.000310743 0.000323247 0.000333865 0.000342276 0.00034848 0.000352476 0.000354173 0.000353475 0.000350385 0.000344901 0.000337133 0.000327189 0.00031507 0.000300775 0.00028457 0.00026672 0.000247226 0.000226088 0.000203698 0.000180452 0.000156349 0.00013139 0.000106074 8.09035e-05 5.58773e-05 3.09957e-05 6.80945e-06 -1.61307e-05 -3.78247e-05 -5.82726e-05 -7.69864e-05 -9.34783e-05 -0.000107748 -0.000119796 -0.000129335 -0.000136079 -0.000140028 -0.000141182 -0.000139551 -0.000135146 -0.000127966 -0.000118012 -0.000105588 -9.0997e-05 -7.42398e-05 -5.53162e-05 -3.47231e-05 -1.29572e-05 9.98147e-06 3.40929e-05 5.88283e-05 8.36386e-05 0.000108524 0.000133484 0.00015803 0.000181672 0.00020441 0.000226244 0.000246798 0.000265693 0.000282931 0.000298511 0.000312187 0.000323711 0.000333083 0.000340303 0.000345278 0.000347914 0.000348211 0.000346169 0.000341889 0.000335472 0.000326919 0.000316229 0.000303722 0.000289717 0.000274216 0.000257218 0.000239215 0.0002207 0.000201674 0.000182137 0.000162622 0.000143666 0.000125268 0.000107428 9.05542e-05 7.50545e-05 6.09288e-05 4.81771e-05 3.69377e-05 2.73485e-05 1.94096e-05 1.3121e-05 8.27194e-06 4.65159e-06 2.25996e-06 1.09707e-06 6.171e-07 2.74267e-07 6.85667e-08 0 0 1.36112e-07 5.44447e-07 1.22501e-06 2.17779e-06 4.39305e-06 8.86106e-06 1.55818e-05 2.45553e-05 3.61584e-05 5.07678e-05 6.83837e-05 8.9006e-05 0.000112371 0.000138215 0.000166539 0.000197342 0.00022987 0.000263368 0.000297837 0.000333277 0.000368708 0.000403147 0.000436597 0.000469056 0.000499629 0.000527421 0.000552432 0.000574662 0.000593538 0.000608491 0.00061952 0.000626625 0.00062964 0.000628401 0.000622906 0.000613157 0.000599347 0.000581669 0.000560124 0.000534711 0.000505902 0.00047417 0.000439513 0.000401933 0.00036213 0.000320804 0.000277954 0.000233582 0.000188577 0.000143828 9.93374e-05 5.51034e-05 1.21057e-05 -2.86767e-05 -6.72439e-05 -0.000103596 -0.000136865 -0.000166184 -0.000191552 -0.000212971 -0.000229929 -0.000241919 -0.000248939 -0.00025099 -0.000248091 -0.000240259 -0.000227496 -0.000209799 -0.000187712 -0.000161772 -0.000131982 -9.834e-05 -6.173e-05 -2.3035e-05 1.77448e-05 6.06097e-05 0.000104584 0.000148691 0.000192931 0.000237305 0.000280942 0.000322972 0.000363396 0.000402212 0.000438751 0.000472344 0.000502989 0.000530687 0.000554999 0.000575486 0.000592147 0.000604983 0.000613828 0.000618514 0.000619042 0.000615411 0.000607803 0.000596395 0.000581189 0.000562184 0.00053995 0.000515053 0.000487495 0.000457276 0.000425271 0.000392356 0.000358532 0.000323799 0.000289106 0.000255406 0.000222698 0.000190983 0.000160985 0.00013343 0.000108318 8.56483e-05 6.5667e-05 4.86195e-05 3.4506e-05 2.33263e-05 1.47057e-05 8.26949e-06 4.01771e-06 1.95034e-06 1.09707e-06 4.87585e-07 1.21896e-07 0 0 2.78318e-07 1.11327e-06 2.50486e-06 4.45309e-06 8.37845e-06 1.57014e-05 2.64221e-05 4.05403e-05 5.85852e-05 8.10858e-05 0.000108042 0.000139454 0.000174886 0.000213901 0.000256501 0.000302685 0.000351289 0.000401146 0.000452259 0.000504626 0.000556756 0.000607158 0.000655832 0.000702777 0.000746647 0.000786095 0.000821119 0.000851721 0.000877053 0.00089627 0.00090937 0.000916354 0.000916993 0.000911058 0.00089855 0.000879468 0.000854127 0.000822842 0.000785613 0.00074244 0.000694062 0.00064122 0.000583912 0.00052214 0.000457 0.000389587 0.000319901 0.000247943 0.000175111 0.000102803 3.10184e-05 -4.02418e-05 -0.000109434 -0.000175016 -0.000236987 -0.000295347 -0.000348725 -0.000395752 -0.000436428 -0.000470752 -0.000497918 -0.000517121 -0.000528361 -0.000531638 -0.000526981 -0.000514417 -0.000493948 -0.000465573 -0.000430146 -0.000388521 -0.000340698 -0.000286678 -0.000227854 -0.000165623 -9.99844e-05 -3.09379e-05 3.99774e-05 0.000111222 0.000182797 0.000254702 0.000325568 0.000394028 0.000460082 0.000523729 0.00058392 0.000639604 0.000690782 0.000737454 0.00077893 0.00081452 0.000844226 0.000868046 0.000885709 0.00089694 0.000901741 0.000900111 0.000892301 0.000878565 0.000858902 0.000833311 0.000802637 0.000767723 0.000728569 0.000685176 0.000638862 0.000590946 0.000541429 0.000490309 0.000439034 0.000389053 0.000340364 0.000292967 0.000247984 0.000206535 0.00016862 0.000134238 0.000103799 7.77089e-05 5.59683e-05 3.85771e-05 2.50081e-05 1.47343e-05 7.75559e-06 4.07202e-06 2.29051e-06 1.018e-06 2.54501e-07 0 0 5.68825e-07 2.2753e-06 5.11943e-06 9.1012e-06 1.59416e-05 2.73615e-05 4.33611e-05 6.39401e-05 8.97075e-05 0.000121272 0.000158633 0.000201792 0.000250059 0.000302744 0.00035985 0.000421374 0.000485676 0.000551113 0.000617686 0.000685394 0.000752194 0.000816042 0.000876939 0.000934885 0.000988072 0.00103469 0.00107475 0.00110824 0.00113406 0.00115111 0.0011594 0.00115892 0.00114941 0.00113063 0.00110257 0.00106524 0.00101912 0.00096469 0.000901956 0.000830915 0.000752639 0.0006682 0.000577596 0.000480828 0.000379479 0.000275133 0.000167788 5.74449e-05 -5.3863e-05 -0.000164103 -0.000273276 -0.000381381 -0.000486161 -0.000585358 -0.000678972 -0.000767005 -0.000847443 -0.000918275 -0.000979503 -0.00103112 -0.00107196 -0.00110081 -0.00111769 -0.00112259 -0.00111556 -0.00109663 -0.00106581 -0.00102309 -0.000969737 -0.000906994 -0.000834865 -0.00075335 -0.000664497 -0.000570353 -0.000470917 -0.00036619 -0.000258425 -0.000149874 -4.05363e-05 6.9587e-05 0.000178504 0.000284224 0.000386745 0.000486068 0.000580673 0.000669042 0.000751173 0.000827066 0.000895722 0.000956138 0.00100831 0.00105225 0.00108752 0.0011137 0.0011308 0.0011388 0.001138 0.00112868 0.00111085 0.00108451 0.00105075 0.00101068 0.000964297 0.000911601 0.000854365 0.00079436 0.000731585 0.000666041 0.000599713 0.000534586 0.000470661 0.000407936 0.000347994 0.000292418 0.000241207 0.00019436 0.000152528 0.000116357 8.58493e-05 6.10032e-05 4.12098e-05 2.58592e-05 1.49515e-05 8.48671e-06 4.77378e-06 2.12168e-06 5.3042e-07 0 0 1.00763e-06 4.03053e-06 9.0687e-06 1.61221e-05 2.70825e-05 4.38413e-05 6.63987e-05 9.47547e-05 0.000129525 0.000171326 0.000220158 0.00027602 0.00033789 0.000404744 0.000476584 0.000553408 0.000633032 0.000713268 0.000794118 0.000875581 0.000955021 0.0010298 0.00109992 0.00116538 0.0012239 0.00127322 0.00131332 0.00134421 0.00136456 0.00137302 0.00136961 0.00135431 0.0013269 0.00128712 0.00123498 0.00117048 0.00109432 0.00100721 0.000909152 0.000800137 0.000681634 0.00055511 0.000420564 0.000277997 0.000129569 -2.2559e-05 -0.000178386 -0.000337913 -0.000498345 -0.000656889 -0.000813545 -0.000968314 -0.00111807 -0.0012597 -0.0013932 -0.00151857 -0.00163302 -0.00173375 -0.00182078 -0.00189409 -0.00195204 -0.00199299 -0.00201692 -0.00202385 -0.00201383 -0.0019869 -0.00194308 -0.00188236 -0.00180648 -0.00171719 -0.00161448 -0.00149836 -0.00137166 -0.00123722 -0.00109505 -0.000945147 -0.000790623 -0.000634597 -0.000477069 -0.00031804 -0.00016025 -6.44154e-06 0.000143385 0.000289229 0.000429013 0.000560657 0.000684161 0.000799526 0.000905376 0.00100034 0.00108441 0.0011576 0.00121927 0.00126881 0.00130621 0.00133147 0.00134488 0.00134674 0.00133703 0.00131577 0.00128429 0.00124392 0.00119468 0.00113655 0.00107178 0.0010026 0.000929002 0.000850995 0.000771142 0.000692007 0.000613589 0.00053589 0.000461017 0.00039108 0.000326079 0.000266014 0.000211854 0.000164565 0.000124149 9.06048e-05 6.33107e-05 4.16442e-05 2.56055e-05 1.51944e-05 8.54686e-06 3.79861e-06 9.49651e-07 0 0 1.59474e-06 6.37897e-06 1.43527e-05 2.55159e-05 4.18011e-05 6.51409e-05 9.55352e-05 0.000132984 0.000178038 0.000231249 0.000292615 0.000362138 0.000438379 0.000519901 0.000606704 0.000698788 0.000793356 0.000887612 0.000981556 0.00107519 0.00116524 0.00124843 0.00132477 0.00139426 0.00145414 0.00150167 0.00153683 0.00155964 0.00156855 0.001562 0.00154 0.00150254 0.00144945 0.00138052 0.00129577 0.00119518 0.00107974 0.000950415 0.000807203 0.000650106 0.000481047 0.000301951 0.000112817 -8.63541e-05 -0.000292732 -0.000503488 -0.00071862 -0.00093813 -0.00115834 -0.00137556 -0.00158979 -0.00180104 -0.00200517 -0.00219805 -0.00237967 -0.00255004 -0.00270545 -0.00284218 -0.00296025 -0.00305965 -0.00313818 -0.00319365 -0.00322606 -0.00323541 -0.00322178 -0.00318523 -0.00312576 -0.00304338 -0.00294039 -0.00281911 -0.00267955 -0.0025217 -0.00234934 -0.00216624 -0.00197239 -0.00176781 -0.00155662 -0.00134295 -0.0011268 -0.000908178 -0.000690694 -0.000477967 -0.000269999 -6.67877e-05 0.000128937 0.000314449 0.000489747 0.000654831 0.000807892 0.000947123 0.00107252 0.00118409 0.00128095 0.00136225 0.00142798 0.00147813 0.00151297 0.00153274 0.00153746 0.0015271 0.00150325 0.00146745 0.00141971 0.00136003 0.00129111 0.00121566 0.00113368 0.00104517 0.000953322 0.000861315 0.00076915 0.000676829 0.000587052 0.000502521 0.000423238 0.000349201 0.000281777 0.000222332 0.000170867 0.000127382 9.13108e-05 6.20894e-05 3.97175e-05 2.41951e-05 1.36098e-05 6.04879e-06 1.5122e-06 0 0 2.35997e-06 9.4399e-06 2.12398e-05 3.77596e-05 6.07779e-05 9.20733e-05 0.000131646 0.000179495 0.000235992 0.000301506 0.000376037 0.000459586 0.000550195 0.000645911 0.000746731 0.000852658 0.000960223 0.00106596 0.00116987 0.00127196 0.0013683 0.001455 0.00153204 0.00159943 0.00165398 0.0016925 0.00171499 0.00172145 0.00171018 0.00167949 0.00162938 0.00155985 0.00147083 0.00136224 0.00123409 0.00108637 0.000920377 0.000737398 0.000537433 0.000320483 8.89772e-05 -0.000154655 -0.000410414 -0.000678299 -0.000954739 -0.00123616 -0.00152257 -0.00181396 -0.00210565 -0.00239295 -0.00267586 -0.00295437 -0.0032232 -0.00347702 -0.00371584 -0.00393966 -0.0041437 -0.00432317 -0.00447808 -0.00460842 -0.00471137 -0.00478407 -0.00482653 -0.00483875 -0.00482082 -0.00477283 -0.00469478 -0.00458666 -0.00445148 -0.0042922 -0.00410884 -0.0039014 -0.00367474 -0.00343372 -0.00317835 -0.00290862 -0.00262985 -0.00234733 -0.00206106 -0.00177105 -0.00148191 -0.00119825 -0.000920066 -0.000647363 -0.000383588 -0.00013219 0.00010683 0.000333474 0.000545451 0.000740471 0.000918535 0.00107964 0.00122263 0.00134634 0.00145076 0.00153591 0.00160192 0.00164898 0.00167706 0.00168618 0.00167805 0.0016544 0.00161521 0.0015605 0.0014934 0.00141707 0.00133149 0.00123667 0.00113643 0.00103458 0.000931124 0.000826061 0.000722744 0.000624527 0.000531411 0.000443395 0.000362345 0.000290126 0.00022674 0.000172186 0.000126068 8.79899e-05 5.79522e-05 3.59547e-05 2.02245e-05 8.98867e-06 2.24717e-06 0 0 3.33315e-06 1.33326e-05 2.99984e-05 5.33304e-05 8.46935e-05 0.000125452 0.000175606 0.000235156 0.000304132 0.000382565 0.000470456 0.000567803 0.000672008 0.000780469 0.000893188 0.00101016 0.00112721 0.00124014 0.00134895 0.00145364 0.00154969 0.00163256 0.00170226 0.00175879 0.0017986 0.00181816 0.00181747 0.00179653 0.0017536 0.00168696 0.00159659 0.0014825 0.00134482 0.00118369 0.000999103 0.000791066 0.000561235 0.000311268 4.11667e-05 -0.00024907 -0.000556476 -0.000878085 -0.0012139 -0.00156391 -0.00192377 -0.00228909 -0.00265989 -0.00303617 -0.00341211 -0.00378192 -0.00414559 -0.00450313 -0.0048479 -0.00517324 -0.00547917 -0.00576568 -0.00602674 -0.00625632 -0.00645443 -0.00662106 -0.00675262 -0.00684551 -0.00689975 -0.00691533 -0.00689235 -0.00683093 -0.00673106 -0.00659275 -0.00641977 -0.0062159 -0.00598113 -0.00571547 -0.00542505 -0.00511601 -0.00478834 -0.00444204 -0.00408375 -0.00372014 -0.00335118 -0.00297689 -0.00260299 -0.00223518 -0.00187348 -0.00151788 -0.0011726 -0.00084187 -0.000525688 -0.000224054 6.0231e-05 0.000324366 0.00056835 0.000792184 0.000994362 0.00117338 0.00132923 0.00146192 0.00157143 0.00165772 0.00172081 0.00176068 0.00177911 0.00177788 0.00175699 0.00171644 0.00165973 0.00159035 0.0015083 0.00141359 0.00131064 0.00120387 0.00109329 0.000978895 0.00086474 0.000754884 0.000649329 0.000548073 0.000453606 0.000368416 0.000292504 0.00022587 0.00016844 0.000120141 8.09741e-05 5.09389e-05 2.86531e-05 1.27347e-05 3.18368e-06 0 0 4.51428e-06 1.80571e-05 4.06285e-05 7.22284e-05 0.000113548 0.000165277 0.000227416 0.000299966 0.000382459 0.000474427 0.000575871 0.000686791 0.000803817 0.000923577 0.00104607 0.0011713 0.00129431 0.00141013 0.00151877 0.00162023 0.00170938 0.00178112 0.00183543 0.00187233 0.00188801 0.00187866 0.00184429 0.0017849 0.00169882 0.00158439 0.0014416 0.00127047 0.00107141 0.000844856 0.000590809 0.000309269 2.31487e-06 -0.000327974 -0.000681596 -0.00105855 -0.00145531 -0.00186834 -0.00229763 -0.0027432 -0.00319981 -0.00366228 -0.00413059 -0.00460474 -0.00507771 -0.00554246 -0.00599899 -0.00644731 -0.00687927 -0.00728672 -0.00766966 -0.00802809 -0.00835456 -0.00864163 -0.00888929 -0.00909754 -0.00926193 -0.00937799 -0.00944573 -0.00946515 -0.00943637 -0.00935952 -0.00923461 -0.00906164 -0.00884527 -0.0085902 -0.00829641 -0.00796392 -0.00760029 -0.0072131 -0.00680235 -0.00636805 -0.00591834 -0.00546137 -0.00499716 -0.0045257 -0.00405392 -0.00358877 -0.00313024 -0.00267833 -0.0022381 -0.00181459 -0.00140781 -0.00101775 -0.000647766 -0.000301193 2.19663e-05 0.000321713 0.000596147 0.000843371 0.00106338 0.00125618 0.00142148 0.00155898 0.00166869 0.00175059 0.00180643 0.00183792 0.00184506 0.00182786 0.00179008 0.0017355 0.00166412 0.00157593 0.00147596 0.0013692 0.00125566 0.00113533 0.00101304 0.000893592 0.000776991 0.000663235 0.000555561 0.000457202 0.000368159 0.000288433 0.000218426 0.000158543 0.000108783 6.91477e-05 3.88956e-05 1.72869e-05 4.32173e-06 0 0 5.90335e-06 2.36134e-05 5.31301e-05 9.44536e-05 0.000147341 0.000211548 0.000287077 0.000373925 0.000470971 0.00057709 0.000692283 0.000816549 0.000945621 0.00107523 0.00120539 0.00133608 0.00146153 0.00157595 0.00167935 0.00177172 0.00184739 0.00190067 0.00193156 0.00194006 0.0019222 0.00187399 0.00179544 0.00168655 0.00154583 0.00137179 0.00116444 0.00092377 0.000650602 0.000345748 9.20685e-06 -0.00035902 -0.000756382 -0.00118033 -0.00163086 -0.00210797 -0.00260753 -0.00312541 -0.00366162 -0.00421615 -0.00478288 -0.00535572 -0.00593465 -0.00651969 -0.00710245 -0.00767457 -0.00823606 -0.00878691 -0.00931731 -0.00981744 -0.0102873 -0.0107269 -0.0111272 -0.0114791 -0.0117827 -0.0120379 -0.0122393 -0.0123815 -0.0124645 -0.0124882 -0.0124529 -0.0123586 -0.0122054 -0.0119933 -0.011728 -0.0114151 -0.0110547 -0.0106467 -0.0102004 -0.009725 -0.0092204 -0.00868666 -0.00813359 -0.00757104 -0.006999 -0.00641746 -0.00583471 -0.005259 -0.00469034 -0.00412872 -0.00358008 -0.00305035 -0.00253953 -0.00204762 -0.00157854 -0.00113621 -0.000720616 -0.000331771 2.79866e-05 0.000356316 0.000653216 0.000918687 0.00115208 0.00135275 0.0015207 0.00165593 0.00176 0.00183449 0.00187941 0.00189474 0.00188446 0.00185253 0.00179894 0.0017237 0.00163238 0.00153055 0.00141821 0.00129537 0.00116764 0.00104065 0.000914398 0.000788882 0.000668209 0.000556483 0.000453706 0.000359875 0.000276027 0.000203195 0.00014138 9.05811e-05 5.09519e-05 2.26453e-05 5.66132e-06 0 0 7.488e-06 2.9952e-05 6.7392e-05 0.000119808 0.000185732 0.000263696 0.000353701 0.000455745 0.000567867 0.000688102 0.00081645 0.000952913 0.0010922 0.00122904 0.00136342 0.00149534 0.00161819 0.00172535 0.00181681 0.00189259 0.00194652 0.00197247 0.00197043 0.00194041 0.00187841 0.00178045 0.00164653 0.00147664 0.00126965 0.00102443 0.000740969 0.00041927 6.06396e-05 -0.000333616 -0.000763498 -0.00122901 -0.0017271 -0.00225474 -0.00281192 -0.00339865 -0.00401024 -0.00464201 -0.00529396 -0.0059661 -0.00665144 -0.00734302 -0.00804085 -0.00874492 -0.0094455 -0.0101329 -0.010807 -0.0114679 -0.012104 -0.0127038 -0.0132671 -0.013794 -0.0142737 -0.0146955 -0.0150593 -0.0153651 -0.0156065 -0.0157769 -0.0158763 -0.0159047 -0.0158623 -0.0157493 -0.0155656 -0.0153113 -0.0149931 -0.0146179 -0.0141857 -0.0136965 -0.0131612 -0.0125908 -0.0119853 -0.0113447 -0.0106805 -0.0100045 -0.00931664 -0.00861686 -0.00791483 -0.00722016 -0.00653285 -0.00585291 -0.00518711 -0.00454223 -0.00391826 -0.00331521 -0.00273753 -0.00218966 -0.0016716 -0.00118335 -0.000727714 -0.000307497 7.73046e-05 0.000426689 0.000739552 0.00101478 0.00125239 0.00145236 0.00161596 0.00174445 0.00183781 0.00189606 0.00192318 0.00192317 0.00189604 0.00184177 0.00176642 0.00167603 0.00157061 0.00145014 0.00132108 0.00118987 0.0010565 0.000920993 0.000788425 0.000663898 0.00054741 0.000438961 0.000340396 0.000253556 0.000178441 0.000115052 6.47168e-05 2.8763e-05 7.19076e-06 0 0 9.25588e-06 3.70235e-05 8.33029e-05 0.000148094 0.000228382 0.000321152 0.000426404 0.000544137 0.000671342 0.000805007 0.000945133 0.00109172 0.00123834 0.00137859 0.00151245 0.00163993 0.00175361 0.00184606 0.00191728 0.00196727 0.00198959 0.00197779 0.00193186 0.00185181 0.00173388 0.00157433 0.00137315 0.00113033 0.000845332 0.000517582 0.000147084 -0.000266163 -0.000720236 -0.00121322 -0.0017451 -0.00231589 -0.00292208 -0.00356015 -0.0042301 -0.00493194 -0.00566056 -0.00641083 -0.00718277 -0.00797637 -0.00878395 -0.00959781 -0.0104179 -0.0112444 -0.012066 -0.0128719 -0.013662 -0.0144364 -0.0151815 -0.015884 -0.016544 -0.0171613 -0.0177234 -0.0182176 -0.0186439 -0.0190024 -0.0192854 -0.0194851 -0.0196016 -0.0196349 -0.0195851 -0.0194526 -0.0192371 -0.0189389 -0.0185658 -0.0181259 -0.0176193 -0.0170458 -0.0164183 -0.0157496 -0.0150398 -0.0142889 -0.0135102 -0.0127172 -0.01191 -0.0110886 -0.0102637 -0.00944649 -0.00863683 -0.00783475 -0.00704775 -0.0062833 -0.00554141 -0.00482207 -0.00413016 -0.00347053 -0.00284317 -0.0022481 -0.00168855 -0.00116778 -0.000685777 -0.000242553 0.000160209 0.00052082 0.00083928 0.00111559 0.00135046 0.00154462 0.00169805 0.00181076 0.00188654 0.00192918 0.00193867 0.00191503 0.0018646 0.00179375 0.00170247 0.00159076 0.00146587 0.00133504 0.00119827 0.00105555 0.000913085 0.000777083 0.00064754 0.000524456 0.000410685 0.000309081 0.000219644 0.000142374 8.00853e-05 3.55935e-05 8.89837e-06 0 0 1.1207e-05 4.48279e-05 0.000100863 0.000179312 0.00027529 0.000383915 0.000505185 0.000639101 0.000781397 0.000927806 0.00107833 0.00123297 0.00138404 0.00152388 0.00165249 0.00176985 0.00186778 0.00193808 0.00198075 0.00199578 0.00197659 0.00191661 0.00181583 0.00167426 0.00148861 0.00125563 0.000975298 0.000647626 0.000272859 -0.000148755 -0.000617218 -0.00113253 -0.00169203 -0.00229305 -0.0029356 -0.00361967 -0.00434131 -0.00509655 -0.0058854 -0.00670784 -0.00755848 -0.00843187 -0.00932804 -0.010247 -0.0111804 -0.0121201 -0.0130659 -0.014018 -0.0149641 -0.0158918 -0.0168012 -0.0176922 -0.0185497 -0.0193583 -0.020118 -0.0208288 -0.0214761 -0.0220454 -0.0225366 -0.0229497 -0.0232758 -0.0235061 -0.0236404 -0.0236787 -0.0236213 -0.0234685 -0.0232201 -0.0228762 -0.0224462 -0.0219392 -0.0213553 -0.0206945 -0.0199716 -0.0192015 -0.018384 -0.0175192 -0.0166225 -0.0157092 -0.0147792 -0.0138325 -0.0128814 -0.011938 -0.0110023 -0.0100743 -0.00916199 -0.00827356 -0.00740897 -0.0065682 -0.00575644 -0.00497882 -0.00423534 -0.00352602 -0.00285452 -0.00222452 -0.00163603 -0.00108904 -0.000585947 -0.000129141 0.000281376 0.000645605 0.000963496 0.001235 0.00146012 0.00163885 0.00177454 0.00187054 0.00192685 0.00194347 0.00192691 0.00188369 0.0018138 0.00171724 0.00160203 0.00147618 0.00133968 0.00119254 0.00104219 0.000896038 0.000754095 0.000616359 0.000486896 0.000369773 0.00026499 0.000172546 9.70573e-05 4.31366e-05 1.07841e-05 0 0 1.33413e-05 5.33652e-05 0.000120072 0.000213461 0.000326457 0.000451985 0.000590045 0.000740637 0.000898031 0.0010565 0.00121604 0.00137666 0.0015293 0.00166492 0.00178352 0.00188511 0.00196072 0.00200143 0.00200722 0.00197811 0.00190753 0.00178895 0.00162236 0.00140776 0.0011426 0.000824344 0.000452984 2.85198e-05 -0.000447763 -0.000974582 -0.00155194 -0.00217983 -0.00285473 -0.00357312 -0.00433499 -0.00514036 -0.00598481 -0.00686396 -0.00777781 -0.00872636 -0.009704 -0.0107051 -0.0117298 -0.0127779 -0.0138408 -0.0149098 -0.0159848 -0.0170659 -0.0181396 -0.0191924 -0.0202244 -0.0212355 -0.0222086 -0.0231265 -0.0239891 -0.0247964 -0.0255319 -0.0261788 -0.0267372 -0.027207 -0.027578 -0.0278398 -0.0279926 -0.0280362 -0.0279709 -0.027797 -0.0275145 -0.0271233 -0.0266341 -0.0260576 -0.0253938 -0.0246428 -0.0238213 -0.0229463 -0.0220178 -0.0210358 -0.0200176 -0.0189803 -0.0179241 -0.0168488 -0.0157679 -0.0146947 -0.0136292 -0.0125714 -0.0115298 -0.010513 -0.00952094 -0.00855361 -0.00761636 -0.00671452 -0.00584811 -0.00501711 -0.00422562 -0.00347774 -0.00277345 -0.00211277 -0.00149891 -0.000935098 -0.000421324 4.24081e-05 0.000455061 0.000815599 0.00112402 0.00138033 0.00158719 0.00174727 0.00186058 0.0019271 0.00195336 0.00194586 0.0019046 0.00182957 0.00172955 0.00161327 0.00148075 0.00133198 0.00117573 0.00102076 0.000867076 0.00071467 0.000569027 0.000435629 0.000314477 0.00020557 0.000115633 5.13924e-05 1.28481e-05 0 0 1.5606e-05 6.24241e-05 0.000140454 0.000249697 0.000380573 0.000523507 0.000678498 0.000845546 0.00101726 0.00118624 0.00135249 0.00151601 0.00166631 0.00179289 0.00189574 0.00197487 0.00202069 0.00202364 0.00198369 0.00190086 0.0017689 0.00158157 0.00133887 0.0010408 0.000685891 0.000272674 -0.000198851 -0.000728685 -0.00131421 -0.0019528 -0.00264447 -0.00338921 -0.00418251 -0.00501985 -0.00590124 -0.00682668 -0.00779144 -0.00879079 -0.00982473 -0.0108933 -0.0119909 -0.0131121 -0.0142568 -0.0154252 -0.0166082 -0.0177972 -0.018992 -0.0201927 -0.0213849 -0.0225542 -0.0237006 -0.0248241 -0.0259057 -0.0269264 -0.0278862 -0.0287851 -0.0296043 -0.0303251 -0.0309475 -0.0314715 -0.0318854 -0.0321776 -0.0323481 -0.0323968 -0.0323241 -0.03213 -0.0318148 -0.0313783 -0.0308326 -0.0301898 -0.02945 -0.0286132 -0.0276982 -0.0267242 -0.0256911 -0.0245989 -0.0234667 -0.0223136 -0.0211396 -0.0199447 -0.0187431 -0.0175493 -0.0163631 -0.0151845 -0.0140224 -0.0128852 -0.011773 -0.0106859 -0.00962897 -0.00860757 -0.00762167 -0.00667128 -0.00576081 -0.00489468 -0.00407289 -0.00329543 -0.00256649 -0.00189023 -0.00126664 -0.000695747 -0.00017985 0.000278729 0.00067999 0.00102393 0.0013122 0.00154645 0.00172667 0.00185287 0.00193129 0.00196815 0.00196348 0.00191726 0.00183889 0.00173778 0.00161392 0.00146731 0.00130813 0.00114658 0.000982633 0.000816303 0.000654682 0.000504863 0.000366846 0.00024063 0.000135354 6.01575e-05 1.50394e-05 0 0 1.79484e-05 7.17935e-05 0.000161535 0.000287174 0.00043633 0.000596625 0.000768059 0.000950632 0.00113509 0.00131218 0.0014819 0.00164426 0.00178727 0.00189895 0.0019793 0.00202832 0.00203598 0.00199225 0.00189714 0.00175063 0.00154718 0.00128124 0.000952808 0.000561877 0.000108522 -0.000407191 -0.000985261 -0.00162569 -0.00232415 -0.00307633 -0.00388221 -0.00474182 -0.00564951 -0.00659967 -0.0075923 -0.0086274 -0.00970008 -0.0108055 -0.0119436 -0.0131144 -0.0143129 -0.0155341 -0.0167781 -0.0180447 -0.0193257 -0.0206124 -0.0219049 -0.0232032 -0.0244924 -0.0257576 -0.0269988 -0.028216 -0.0293886 -0.030496 -0.0315383 -0.0325154 -0.0334066 -0.0341912 -0.0348691 -0.0354404 -0.035892 -0.0362108 -0.0363968 -0.03645 -0.0363708 -0.0361593 -0.0358155 -0.0353394 -0.0347446 -0.0340444 -0.033239 -0.0323283 -0.0313334 -0.0302751 -0.0291536 -0.0279688 -0.0267414 -0.025492 -0.0242207 -0.0229274 -0.021627 -0.0203343 -0.0190493 -0.0177719 -0.0165106 -0.0152736 -0.014061 -0.0128726 -0.0117133 -0.0105879 -0.00949622 -0.00843843 -0.00741904 -0.00644262 -0.00550918 -0.00461871 -0.00377646 -0.0029877 -0.00225241 -0.00157061 -0.000946248 -0.000383293 0.000118255 0.000558398 0.00093731 0.00125517 0.00151197 0.00170772 0.00184802 0.00193846 0.00197905 0.00196978 0.00192052 0.00184113 0.00173161 0.00159196 0.00143381 0.00126879 0.00109691 0.000918173 0.000741465 0.000575686 0.000420835 0.000276914 0.000155764 6.92285e-05 1.73071e-05 0 0 2.03683e-05 8.14732e-05 0.000183315 0.000325893 0.000493728 0.00067134 0.000858729 0.00105589 0.00125153 0.00143432 0.00160428 0.0017614 0.00189217 0.00198311 0.0020342 0.00204546 0.00200658 0.00190728 0.00174757 0.00152743 0.00124239 0.000887974 0.000464174 -2.90083e-05 -0.000589505 -0.00121525 -0.00190624 -0.00266249 -0.00347759 -0.00434515 -0.00526517 -0.00623766 -0.00725575 -0.00831259 -0.00940817 -0.0105425 -0.0117107 -0.012908 -0.0141343 -0.0153896 -0.01667 -0.0179713 -0.0192935 -0.0206366 -0.0219931 -0.0233554 -0.0247235 -0.0260974 -0.0274621 -0.0288026 -0.0301189 -0.0314111 -0.0326572 -0.0338353 -0.0349454 -0.0359875 -0.036939 -0.0377772 -0.0385021 -0.0391137 -0.0395976 -0.0399392 -0.0401387 -0.0401959 -0.0401112 -0.0398847 -0.0395166 -0.0390067 -0.0383701 -0.0376214 -0.0367609 -0.0357883 -0.0347268 -0.0335991 -0.0324054 -0.0311456 -0.0298416 -0.0285155 -0.0271673 -0.025797 -0.0244195 -0.0230498 -0.0216878 -0.0203336 -0.0189946 -0.0176784 -0.0163847 -0.0151138 -0.0138694 -0.0126554 -0.0114718 -0.0103186 -0.00920031 -0.00812156 -0.00708232 -0.00608259 -0.00512883 -0.00422751 -0.00337863 -0.00258217 -0.00184413 -0.00117047 -0.000561181 -1.62742e-05 0.000462509 0.000873426 0.00121647 0.00149166 0.00170356 0.00185678 0.00195131 0.00198715 0.00197445 0.00192335 0.00183384 0.00170593 0.00155275 0.00138741 0.00120992 0.00102028 0.000829374 0.000648097 0.000476446 0.000314422 0.000176862 7.86054e-05 1.96514e-05 0 0 2.28658e-05 9.14634e-05 0.000205793 0.000365854 0.000552766 0.00074765 0.000950506 0.00116133 0.00136657 0.00155267 0.00171962 0.00186742 0.00198102 0.00204537 0.00206045 0.00202628 0.00193249 0.00176872 0.00153498 0.00123125 0.000854521 0.00040176 -0.000127033 -0.000731858 -0.00140819 -0.0021515 -0.0029618 -0.00383908 -0.00477452 -0.00575927 -0.00679334 -0.00787673 -0.00900122 -0.0101586 -0.0113488 -0.012572 -0.0138234 -0.0150983 -0.0163969 -0.0177191 -0.0190622 -0.0204235 -0.0218031 -0.0232008 -0.0246106 -0.0260263 -0.0274478 -0.0288753 -0.0302939 -0.0316892 -0.033061 -0.0344094 -0.0357115 -0.0369441 -0.0381074 -0.0392014 -0.0402014 -0.0410831 -0.0418465 -0.0424915 -0.0430023 -0.043363 -0.0435737 -0.0436343 -0.0435452 -0.0433064 -0.0429181 -0.0423802 -0.0417091 -0.0409208 -0.0400155 -0.0389931 -0.0378784 -0.0366962 -0.0354464 -0.0341291 -0.0327673 -0.0313841 -0.0299795 -0.0285535 -0.0271207 -0.0256958 -0.0242787 -0.0228696 -0.0214744 -0.0200993 -0.0187443 -0.0174094 -0.0160972 -0.0148102 -0.0135483 -0.0123117 -0.0111046 -0.0099315 -0.00879232 -0.00768709 -0.00662361 -0.00560967 -0.00464528 -0.00373045 -0.0028735 -0.00208279 -0.00135832 -0.000700084 -0.000112198 0.000401223 0.00084018 0.00120467 0.00149791 0.00172311 0.00188026 0.00196937 0.00200067 0.00198442 0.00192061 0.00180924 0.00166496 0.00150243 0.