<?xml version="1.0"?> 
<VTKFile type="StructuredGrid" version="0.1"> 
<StructuredGrid WholeExtent="0 128 0 128 0 0"> 
<Piece Extent="0 128 0 128 0 0"> 
<PointData>
<DataArray type="Float32" Name="u" format="ascii" NumberOfComponents="1"> 
0 0 0 0 0 0 0 0 0 0 0 0 0 0 0 0 0 0 0 0 0 0 0 0 0 0 0 0 0 0 0 0 0 0 0 0 0 0 0 0 0 0 0 0 0 0 0 0 0 0 0 0 0 0 0 0 0 0 0 0 0 0 0 0 0 0 0 0 0 0 0 0 0 0 0 0 0 0 0 0 0 0 0 0 0 0 0 0 0 0 0 0 0 0 0 0 0 0 0 0 0 0 0 0 0 0 0 0 0 0 0 0 0 0 0 0 0 0 0 0 0 0 0 0 0 0 0 0 0 0 -5.31969e-08 -2.12787e-07 -4.78772e-07 -8.5115e-07 -1.48803e-06 -2.54753e-06 -4.02963e-06 -5.93436e-06 -8.34146e-06 -1.13307e-05 -1.49021e-05 -1.90556e-05 -2.38012e-05 -2.91489e-05 -3.50986e-05 -4.16505e-05 -4.87736e-05 -5.64375e-05 -6.46421e-05 -7.33875e-05 -8.2614e-05 -9.22624e-05 -0.000102333 -0.000112825 -0.000123656 -0.000134746 -0.000146094 -0.000157699 -0.000169468 -0.000181304 -0.000193209 -0.000205181 -0.000217127 -0.000228952 -0.000240656 -0.000252239 -0.000263618 -0.000274715 -0.000285527 -0.000296055 -0.000306242 -0.000316027 -0.000325412 -0.000334395 -0.000342946 -0.000351032 -0.000358652 -0.000365807 -0.000372487 -0.000378685 -0.000384399 -0.000389629 -0.000394382 -0.000398664 -0.000402475 -0.000405816 -0.000408696 -0.000411129 -0.000413114 -0.000414651 -0.000415749 -0.000416416 -0.000416652 -0.000416456 -0.000415831 -0.000414775 -0.00041329 -0.000411376 -0.000409025 -0.000406232 -0.000402997 -0.00039932 -0.000395193 -0.000390608 -0.000385566 -0.000380067 -0.00037411 -0.000367696 -0.000360824 -0.000353494 -0.000345724 -0.000337529 -0.00032891 -0.000319867 -0.000310438 -0.000300663 -0.000290543 -0.000280077 -0.000269329 -0.000258361 -0.000247175 -0.000235769 -0.000224225 -0.000212627 -0.000200974 -0.000189265 -0.000177593 -0.000166046 -0.000154627 -0.000143333 -0.000132253 -0.000121473 -0.000110993 -0.000100812 -9.10025e-05 -8.16341e-05 -7.27072e-05 -6.42218e-05 -5.62245e-05 -4.87624e-05 -4.18352e-05 -3.54432e-05 -2.96043e-05 -2.43368e-05 -1.96406e-05 -1.55157e-05 -1.19419e-05 -8.8987e-06 -6.38623e-06 -4.40445e-06 -2.87221e-06 -1.70835e-06 -9.12875e-07 -4.85788e-07 -2.73256e-07 -1.21447e-07 -3.03618e-08 0 0 -2.12787e-07 -8.5115e-07 -1.91509e-06 -3.4046e-06 -5.95213e-06 -1.01901e-05 -1.61185e-05 -2.37374e-05 -3.33658e-05 -4.53228e-05 -5.96083e-05 -7.62224e-05 -9.52049e-05 -0.000116596 -0.000140395 -0.000166602 -0.000195095 -0.00022575 -0.000258569 -0.00029355 -0.000330456 -0.00036905 -0.00040933 -0.000451299 -0.000494626 -0.000538985 -0.000584375 -0.000630797 -0.00067787 -0.000725216 -0.000772834 -0.000820725 -0.00086851 -0.000915809 -0.000962624 -0.00100895 -0.00105447 -0.00109886 -0.00114211 -0.00118422 -0.00122497 -0.00126411 -0.00130165 -0.00133758 -0.00137178 -0.00140413 -0.00143461 -0.00146323 -0.00148995 -0.00151474 -0.00153759 -0.00155852 -0.00157753 -0.00159466 -0.0016099 -0.00162326 -0.00163479 -0.00164452 -0.00165246 -0.00165861 -0.001663 -0.00166566 -0.00166661 -0.00166582 -0.00166332 -0.0016591 -0.00165316 -0.0016455 -0.0016361 -0.00162493 -0.00161199 -0.00159728 -0.00158077 -0.00156243 -0.00154227 -0.00152027 -0.00149644 -0.00147078 -0.0014433 -0.00141398 -0.0013829 -0.00135012 -0.00131564 -0.00127947 -0.00124175 -0.00120265 -0.00116217 -0.00112031 -0.00107732 -0.00103345 -0.000988699 -0.000943074 -0.000896901 -0.000850508 -0.000803895 -0.000757061 -0.00071037 -0.000664185 -0.000618506 -0.000573333 -0.000529013 -0.000485892 -0.000443971 -0.000403249 -0.00036401 -0.000326537 -0.000290829 -0.000256887 -0.000224898 -0.000195049 -0.000167341 -0.000141773 -0.000118417 -9.7347e-05 -7.85622e-05 -6.20628e-05 -4.77674e-05 -3.55948e-05 -2.55449e-05 -1.76178e-05 -1.14888e-05 -6.83339e-06 -3.6515e-06 -1.94315e-06 -1.09302e-06 -4.85788e-07 -1.21447e-07 0 0 -4.78772e-07 -1.91509e-06 -4.30895e-06 -7.66035e-06 -1.33923e-05 -2.29277e-05 -3.62667e-05 -5.34092e-05 -7.50731e-05 -0.000101976 -0.000134119 -0.0001715 -0.000214211 -0.00026234 -0.000315888 -0.000374854 -0.000438963 -0.000507938 -0.000581779 -0.000660487 -0.000743526 -0.000830362 -0.000920994 -0.00101542 -0.00111291 -0.00121272 -0.00131484 -0.00141929 -0.00152521 -0.00163174 -0.00173888 -0.00184663 -0.00195415 -0.00206057 -0.0021659 -0.00227015 -0.00237257 -0.00247243 -0.00256974 -0.0026645 -0.00275617 -0.00284424 -0.0029287 -0.00300956 -0.00308652 -0.00315928 -0.00322787 -0.00329226 -0.00335239 -0.00340816 -0.00345959 -0.00350666 -0.00354944 -0.00358798 -0.00362228 -0.00365234 -0.00367827 -0.00370016 -0.00371803 -0.00373186 -0.00374174 -0.00374774 -0.00374986 -0.00374811 -0.00374247 -0.00373298 -0.00371961 -0.00370238 -0.00368123 -0.00365609 -0.00362698 -0.00359388 -0.00355674 -0.00351548 -0.0034701 -0.0034206 -0.00336699 -0.00330926 -0.00324741 -0.00318145 -0.00311152 -0.00303776 -0.00296019 -0.0028788 -0.00279394 -0.00270597 -0.00261489 -0.0025207 -0.00242396 -0.00232525 -0.00222457 -0.00212192 -0.00201803 -0.00191364 -0.00180876 -0.00170339 -0.00159833 -0.00149442 -0.00139164 -0.00129 -0.00119028 -0.00109326 -0.000998934 -0.00090731 -0.000819022 -0.000734707 -0.000654365 -0.000577996 -0.000506021 -0.000438861 -0.000376517 -0.000318989 -0.000266439 -0.000219031 -0.000176765 -0.000139641 -0.000107477 -8.00883e-05 -5.74761e-05 -3.96401e-05 -2.58499e-05 -1.53751e-05 -8.21588e-06 -4.37209e-06 -2.4593e-06 -1.09302e-06 -2.73256e-07 0 0 -8.5115e-07 -3.4046e-06 -7.66035e-06 -1.36184e-05 -2.38085e-05 -4.07604e-05 -6.44742e-05 -9.49497e-05 -0.000133463 -0.000181291 -0.000238433 -0.00030489 -0.00038082 -0.000466382 -0.000561578 -0.000666407 -0.000780378 -0.000903001 -0.00103427 -0.0011742 -0.00132182 -0.0014762 -0.00163732 -0.00180519 -0.0019785 -0.00215594 -0.0023375 -0.00252319 -0.00271148 -0.00290086 -0.00309134 -0.0032829 -0.00347404 -0.00366324 -0.0038505 -0.00403582 -0.0042179 -0.00439543 -0.00456843 -0.00473689 -0.00489986 -0.00505643 -0.00520658 -0.00535033 -0.00548714 -0.00561651 -0.00573843 -0.00585291 -0.0059598 -0.00605896 -0.00615038 -0.00623406 -0.00631011 -0.00637863 -0.00643961 -0.00649305 -0.00653914 -0.00657807 -0.00660983 -0.00663442 -0.00665199 -0.00666265 -0.00666642 -0.0066633 -0.00665329 -0.0066364 -0.00661264 -0.00658201 -0.0065444 -0.00649972 -0.00644796 -0.00638912 -0.00632309 -0.00624973 -0.00616906 -0.00608107 -0.00598576 -0.00588313 -0.00577318 -0.00565591 -0.00553159 -0.00540047 -0.00526256 -0.00511786 -0.004967 -0.00481061 -0.00464869 -0.00448124 -0.00430927 -0.00413378 -0.00395479 -0.0037723 -0.00358761 -0.00340203 -0.00321558 -0.00302824 -0.00284148 -0.00265674 -0.00247403 -0.00229333 -0.00211605 -0.00194357 -0.00177588 -0.001613 -0.00145604 -0.00130615 -0.00116332 -0.00102755 -0.000899593 -0.000780198 -0.000669364 -0.000567091 -0.000473669 -0.000389388 -0.000314249 -0.000248251 -0.00019107 -0.000142379 -0.00010218 -7.04712e-05 -4.59553e-05 -2.73336e-05 -1.4606e-05 -7.77261e-06 -4.37209e-06 -1.94315e-06 -4.85788e-07 0 0 -1.49345e-06 -5.97379e-06 -1.3441e-05 -2.38952e-05 -4.10212e-05 -6.8504e-05 -0.000106344 -0.00015454 -0.000214988 -0.000289582 -0.000378321 -0.000481206 -0.000598438 -0.000730217 -0.000876544 -0.00103742 -0.00121206 -0.00139968 -0.0016003 -0.00181389 -0.002039 -0.00227414 -0.00251932 -0.00277453 -0.00303775 -0.00330698 -0.0035822 -0.00386343 -0.00414834 -0.00443462 -0.00472228 -0.0050113 -0.0052994 -0.00558428 -0.00586595 -0.00614441 -0.0064177 -0.00668389 -0.00694296 -0.00719493 -0.00743841 -0.00767204 -0.00789581 -0.00810972 -0.00831306 -0.00850509 -0.00868582 -0.00885525 -0.00901322 -0.00915958 -0.00929433 -0.00941747 -0.00952922 -0.00962978 -0.00971915 -0.00979733 -0.00986466 -0.00992146 -0.00996773 -0.0100035 -0.0100289 -0.0100443 -0.0100495 -0.0100447 -0.0100299 -0.010005 -0.00997004 -0.00992504 -0.00986981 -0.00980416 -0.0097281 -0.00964162 -0.00954449 -0.00943648 -0.00931758 -0.0091878 -0.00904707 -0.00889532 -0.00873256 -0.00855879 -0.00837434 -0.00817955 -0.00797442 -0.00775896 -0.00753406 -0.00730061 -0.00705863 -0.00680811 -0.00655055 -0.00628744 -0.00601878 -0.00574457 -0.00546679 -0.0051874 -0.00490642 -0.00462383 -0.00434184 -0.00406265 -0.00378627 -0.0035127 -0.00324404 -0.00298244 -0.00272788 -0.00248036 -0.00224163 -0.00201344 -0.00179579 -0.00158867 -0.00139325 -0.00121071 -0.00104104 -0.000884241 -0.000740789 -0.000611155 -0.00049534 -0.000393344 -0.00030471 -0.00022898 -0.000166155 -0.000116234 -7.72829e-05 -4.73684e-05 -2.64901e-05 -1.4648e-05 -8.23949e-06 -3.662e-06 -9.15499e-07 0 0 -2.5692e-06 -1.02768e-05 -2.31228e-05 -4.11071e-05 -6.88507e-05 -0.000110974 -0.000167478 -0.000238362 -0.000326099 -0.000433162 -0.000559551 -0.000705267 -0.000870474 -0.00105534 -0.00125986 -0.00148404 -0.00172672 -0.00198673 -0.00226409 -0.00255878 -0.00286871 -0.00319178 -0.00352799 -0.00387733 -0.00423699 -0.00460415 -0.00497881 -0.00536097 -0.00574744 -0.00613504 -0.00652375 -0.00691359 -0.00730143 -0.00768418 -0.00806183 -0.00843437 -0.00879923 -0.00915382 -0.00949813 -0.00983218 -0.0101542 -0.0104624 -0.0107569 -0.0110376 -0.0113037 -0.0115543 -0.0117896 -0.0120093 -0.0122137 -0.0124025 -0.0125758 -0.0127336 -0.0128764 -0.0130046 -0.0131182 -0.0132171 -0.0133021 -0.0133736 -0.0134316 -0.0134762 -0.0135076 -0.0135264 -0.0135324 -0.0135258 -0.0135064 -0.0134743 -0.0134296 -0.0133721 -0.0133016 -0.0132178 -0.0131206 -0.01301 -0.0128856 -0.012747 -0.0125941 -0.0124269 -0.0122452 -0.0120487 -0.0118375 -0.0116115 -0.011371 -0.0111163 -0.0108474 -0.0105644 -0.0102682 -0.00996 -0.00963976 -0.0093075 -0.00896514 -0.00861462 -0.00825594 -0.0078891 -0.00751673 -0.00714149 -0.00676335 -0.00638233 -0.00600143 -0.00562365 -0.00524899 -0.00487745 -0.00451197 -0.00415548 -0.00380797 -0.00346945 -0.00314237 -0.00282919 -0.00252989 -0.00224448 -0.00197464 -0.00172205 -0.0014867 -0.0012686 -0.00106848 -0.000887068 -0.000724366 -0.000580373 -0.000454561 -0.000346404 -0.0002559 -0.00018305 -0.00012531 -8.01393e-05 -4.75364e-05 -2.75015e-05 -1.54696e-05 -6.87538e-06 -1.71885e-06 0 0 -4.07839e-06 -1.63136e-05 -3.67055e-05 -6.52542e-05 -0.000107297 -0.000168171 -0.000247877 -0.000346414 -0.000466795 -0.000612031 -0.000782123 -0.000977071 -0.00119693 -0.00144175 -0.00171153 -0.00200628 -0.00232436 -0.00266415 -0.00302565 -0.00340886 -0.00381096 -0.00422911 -0.00466333 -0.0051136 -0.00557621 -0.00604745 -0.00652732 -0.00701581 -0.00750879 -0.00800211 -0.00849577 -0.00898977 -0.00948015 -0.00996293 -0.0104381 -0.0109057 -0.0113625 -0.0118052 -0.0122339 -0.0126486 -0.0130472 -0.0134276 -0.0137899 -0.0141339 -0.014459 -0.0147642 -0.0150496 -0.0153152 -0.0155612 -0.0157877 -0.0159949 -0.0161826 -0.0163517 -0.0165031 -0.0166367 -0.0167525 -0.0168514 -0.0169344 -0.0170014 -0.0170525 -0.0170882 -0.0171091 -0.0171152 -0.0171064 -0.0170829 -0.0170445 -0.0169913 -0.0169232 -0.0168398 -0.0167406 -0.0166254 -0.0164943 -0.0163465 -0.0161813 -0.0159986 -0.0157984 -0.0155802 -0.0153434 -0.015088 -0.014814 -0.0145216 -0.0142108 -0.0138816 -0.0135341 -0.0131694 -0.0127888 -0.0123921 -0.0119794 -0.011553 -0.0111153 -0.0106663 -0.0102059 -0.00973744 -0.00926428 -0.00878638 -0.00830376 -0.00782026 -0.00733973 -0.00686218 -0.00638761 -0.00591983 -0.00546269 -0.00501617 -0.00458028 -0.00415826 -0.00375338 -0.00336562 -0.00299499 -0.00264376 -0.00231422 -0.00200635 -0.00172018 -0.00145674 -0.00121713 -0.00100132 -0.000809336 -0.000640624 -0.00049465 -0.000371415 -0.000270919 -0.000190038 -0.000125646 -7.77448e-05 -4.63332e-05 -2.60624e-05 -1.15833e-05 -2.89583e-06 0 0 -6.02103e-06 -2.40841e-05 -5.41893e-05 -9.63365e-05 -0.00015636 -0.000240095 -0.000347541 -0.000478698 -0.000637078 -0.000826191 -0.00104604 -0.00129662 -0.0015778 -0.00188944 -0.00223155 -0.00260412 -0.00300498 -0.00343193 -0.00388498 -0.00436413 -0.00486573 -0.00538614 -0.00592534 -0.00648334 -0.00705542 -0.00763689 -0.00822773 -0.00882795 -0.00943238 -0.0100358 -0.0106383 -0.0112399 -0.0118355 -0.0124205 -0.0129948 -0.0135584 -0.0141074 -0.0146381 -0.0151504 -0.0156443 -0.0161175 -0.0165676 -0.0169947 -0.0173987 -0.017779 -0.0181348 -0.0184661 -0.0187728 -0.0190557 -0.0193152 -0.0195514 -0.0197643 -0.0199551 -0.0201252 -0.0202746 -0.0204033 -0.0205126 -0.0206039 -0.0206772 -0.0207325 -0.0207706 -0.0207923 -0.0207977 -0.0207866 -0.0207592 -0.0207154 -0.0206551 -0.0205784 -0.0204845 -0.0203725 -0.0202425 -0.0200944 -0.0199271 -0.0197393 -0.019531 -0.0193023 -0.019052 -0.0187793 -0.0184841 -0.0181664 -0.0178261 -0.0174629 -0.017077 -0.0166682 -0.0162378 -0.0157869 -0.0153156 -0.0148238 -0.0143142 -0.0137896 -0.0132498 -0.0126949 -0.0121289 -0.0115558 -0.0109755 -0.0103881 -0.00979832 -0.0092109 -0.00862584 -0.00804315 -0.00746763 -0.00690406 -0.00635246 -0.00581283 -0.0052893 -0.00478601 -0.00430297 -0.00384018 -0.00340061 -0.00298721 -0.00259999 -0.00223896 -0.00190558 -0.00160133 -0.00132622 -0.00108023 -0.000862897 -0.000673719 -0.000512701 -0.000379843 -0.000271465 -0.000183889 -0.000117115 -7.11431e-05 -4.0018e-05 -1.77858e-05 -4.44644e-06 0 0 -8.47608e-06 -3.39043e-05 -7.62847e-05 -0.000135617 -0.000217913 -0.000329183 -0.000469427 -0.000638645 -0.00084074 -0.00107962 -0.00135528 -0.00166771 -0.00201648 -0.00240111 -0.00282162 -0.00327799 -0.00376737 -0.00428689 -0.00483656 -0.00541638 -0.00602176 -0.0066481 -0.00729541 -0.00796368 -0.00864712 -0.00933993 -0.0100421 -0.0107536 -0.0114683 -0.0121798 -0.0128881 -0.0135933 -0.0142896 -0.0149712 -0.0156381 -0.0162903 -0.0169235 -0.0175332 -0.0181195 -0.0186822 -0.0192191 -0.0197276 -0.0202077 -0.0206595 -0.0210824 -0.0214761 -0.0218405 -0.0221757 -0.0224828 -0.022763 -0.0230163 -0.0232426 -0.023444 -0.0236225 -0.0237781 -0.0239108 -0.0240225 -0.0241152 -0.0241888 -0.0242434 -0.0242802 -0.0243002 -0.0243034 -0.0242899 -0.0242596 -0.0242125 -0.0241485 -0.0240677 -0.0239688 -0.0238508 -0.0237135 -0.023557 -0.0233794 -0.023179 -0.0229558 -0.0227097 -0.0224392 -0.0221425 -0.0218197 -0.0214707 -0.0210949 -0.0206917 -0.0202611 -0.019803 -0.0193185 -0.0188086 -0.0182732 -0.0177124 -0.0171291 -0.0165262 -0.0159037 -0.0152617 -0.0146046 -0.0139371 -0.0132593 -0.012571 -0.0118781 -0.0111861 -0.010495 -0.00980489 -0.00912156 -0.00845083 -0.00779273 -0.00714724 -0.00651949 -0.00591462 -0.00533262 -0.0047735 -0.00424101 -0.00373894 -0.00326727 -0.00282601 -0.00241715 -0.00204269 -0.00170263 -0.00139697 -0.00112538 -0.000887548 -0.000683475 -0.000513159 -0.000372455 -0.000257217 -0.000167446 -0.000103142 -5.80173e-05 -2.57855e-05 -6.44637e-06 0 0 -1.15225e-05 -4.60899e-05 -0.000103702 -0.00018436 -0.000293827 -0.000437871 -0.00061649 -0.000829685 -0.00108158 -0.00137629 -0.00171382 -0.00209416 -0.00251636 -0.00297945 -0.00348342 -0.00402827 -0.00461031 -0.00522585 -0.00587487 -0.00655739 -0.00726773 -0.00800024 -0.00875492 -0.00953177 -0.0103238 -0.011124 -0.0119324 -0.0127491 -0.0135665 -0.0143774 -0.0151817 -0.0159795 -0.0167642 -0.017529 -0.0182741 -0.0189993 -0.0197 -0.0203713 -0.0210132 -0.0216257 -0.0222064 -0.0227529 -0.0232653 -0.0237436 -0.0241879 -0.0245983 -0.0249748 -0.0253174 -0.0256281 -0.025909 -0.0261602 -0.0263815 -0.0265759 -0.0267465 -0.0268933 -0.0270161 -0.0271178 -0.0272011 -0.027266 -0.0273125 -0.0273422 -0.0273566 -0.0273558 -0.0273397 -0.0273083 -0.0272614 -0.027199 -0.0271212 -0.0270263 -0.0269125 -0.0267798 -0.0266284 -0.0264554 -0.0262584 -0.0260373 -0.025792 -0.0255201 -0.0252189 -0.0248885 -0.0245288 -0.0241385 -0.0237161 -0.0232616 -0.022775 -0.0222569 -0.0217079 -0.0211279 -0.020517 -0.0198782 -0.0192143 -0.0185255 -0.0178116 -0.0170779 -0.0163294 -0.0155661 -0.0147882 -0.014002 -0.0132142 -0.0124247 -0.0116336 -0.0108478 -0.0100742 -0.00931282 -0.00856363 -0.00783285 -0.00712671 -0.00644521 -0.00578835 -0.00516082 -0.00456732 -0.00400784 -0.0034824 -0.00299364 -0.00254422 -0.00213415 -0.00176343 -0.00143207 -0.00114008 -0.000887455 -0.000674207 -0.000495868 -0.000347977 -0.000230535 -0.000143541 -8.07416e-05 -3.58851e-05 -8.97129e-06 0 0 -1.51602e-05 -6.06409e-05 -0.000136442 -0.000242563 -0.000384103 -0.000566159 -0.000788731 -0.00105182 -0.00135959 -0.0017162 -0.00212166 -0.00257596 -0.00307744 -0.00362444 -0.00421695 -0.00485497 -0.00553382 -0.0062488 -0.00699991 -0.00778716 -0.00860367 -0.00944258 -0.0103039 -0.0111876 -0.0120855 -0.0129892 -0.0138988 -0.0148143 -0.0157271 -0.0166288 -0.0175193 -0.0183986 -0.0192593 -0.020094 -0.0209028 -0.0216855 -0.022437 -0.0231524 -0.0238316 -0.0244745 -0.0250792 -0.0256435 -0.0261675 -0.0266512 -0.0270955 -0.0275013 -0.0278687 -0.0281977 -0.0284915 -0.0287533 -0.0289831 -0.0291809 -0.0293508 -0.0294972 -0.02962 -0.0297192 -0.0297985 -0.0298617 -0.0299087 -0.0299397 -0.0299567 -0.0299617 -0.0299548 -0.029936 -0.0299051 -0.029862 -0.0298066 -0.0297389 -0.0296567 -0.0295576 -0.0294416 -0.0293087 -0.0291552 -0.0289774 -0.0287754 -0.0285491 -0.0282947 -0.0280086 -0.0276907 -0.0273409 -0.0269569 -0.0265361 -0.0260785 -0.0255842 -0.025053 -0.0244848 -0.0238797 -0.0232376 -0.0225613 -0.0218538 -0.0211149 -0.0203447 -0.0195488 -0.0187326 -0.0178962 -0.0170395 -0.01617 -0.0152952 -0.014415 -0.0135294 -0.0126464 -0.0117742 -0.0109127 -0.010062 -0.00922938 -0.00842229 -0.00764075 -0.00688474 -0.00616002 -0.00547234 -0.00482171 -0.00420811 -0.00363502 -0.00310591 -0.00262078 -0.00217963 -0.00178296 -0.0014313 -0.00112464 -0.000862987 -0.000641706 -0.000456171 -0.000306382 -0.000192339 -0.000108191 -4.80848e-05 -1.20212e-05 0 0 -1.93893e-05 -7.75573e-05 -0.000174504 -0.000310229 -0.000488741 -0.000714048 -0.000986151 -0.00130505 -0.00167477 -0.00209936 -0.00257881 -0.00311311 -0.00369973 -0.0043361 -0.00502222 -0.0057581 -0.00653789 -0.00735575 -0.00821168 -0.00910568 -0.0100296 -0.0109751 -0.0119423 -0.0129312 -0.0139321 -0.0149354 -0.0159411 -0.0169492 -0.01795 -0.0189339 -0.0199007 -0.0208505 -0.0217751 -0.0226663 -0.0235242 -0.0243486 -0.0251345 -0.0258765 -0.0265746 -0.0272288 -0.0278376 -0.0283994 -0.0289143 -0.0293821 -0.0298051 -0.0301852 -0.0305225 -0.0308169 -0.0310731 -0.0312958 -0.031485 -0.0316408 -0.0317687 -0.0318746 -0.0319584 -0.03202 -0.0320646 -0.0320969 -0.0321171 -0.0321251 -0.0321236 -0.0321154 -0.0321005 -0.0320788 -0.0320502 -0.0320143 -0.0319712 -0.0319209 -0.0318602 -0.0317862 -0.0316987 -0.0315978 -0.0314786 -0.031336 -0.0311701 -0.0309809 -0.0307631 -0.0305116 -0.0302261 -0.0299069 -0.02955 -0.0291517 -0.0287119 -0.0282305 -0.0277067 -0.0271394 -0.0265285 -0.0258741 -0.0251786 -0.0244446 -0.0236721 -0.0228611 -0.0220173 -0.0211467 -0.0202493 -0.0193251 -0.0183823 -0.0174292 -0.0164658 -0.0154921 -0.0145174 -0.0135508 -0.0125925 -0.0116423 -0.0107091 -0.00980137 -0.00891923 -0.00806267 -0.00723862 -0.00645402 -0.00570886 -0.00500315 -0.00434132 -0.00372777 -0.00316252 -0.00264555 -0.00217806 -0.00176122 -0.00139504 -0.0010795 -0.000809967 -0.000581796 -0.000394987 -0.000249537 -0.000140365 -6.23844e-05 -1.55961e-05 0 0 -2.42047e-05 -9.68188e-05 -0.000217842 -0.000387275 -0.000607572 -0.000881188 -0.00120812 -0.00158838 -0.00202562 -0.00252353 -0.0030821 -0.00370133 -0.00437754 -0.00510706 -0.00588989 -0.00672601 -0.00760826 -0.00852945 -0.00948957 -0.0104886 -0.011517 -0.0125648 -0.0136323 -0.0147193 -0.0158148 -0.0169076 -0.0179979 -0.0190855 -0.0201596 -0.0212093 -0.0222346 -0.0232354 -0.024203 -0.0251285 -0.0260119 -0.0268532 -0.0276471 -0.0283885 -0.0290774 -0.0297138 -0.0302968 -0.0308259 -0.0313009 -0.031722 -0.0320926 -0.0324162 -0.0326929 -0.0329226 -0.033112 -0.0332674 -0.0333889 -0.0334766 -0.0335379 -0.0335804 -0.0336042 -0.0336091 -0.0336017 -0.0335884 -0.0335691 -0.0335439 -0.0335162 -0.0334895 -0.0334639 -0.0334393 -0.0334154 -0.0333918 -0.0333685 -0.0333456 -0.0333189 -0.0332845 -0.0332424 -0.0331925 -0.0331284 -0.0330435 -0.0329378 -0.0328114 -0.0326572 -0.032468 -0.0322438 -0.0319848 -0.0316852 -0.0313396 -0.0309479 -0.0305102 -0.0300241 -0.0294874 -0.0289001 -0.0282621 -0.0275754 -0.0268419 -0.0260615 -0.0252343 -0.0243662 -0.0234634 -0.0225257 -0.0215531 -0.0205548 -0.0195398 -0.0185081 -0.0174597 -0.016405 -0.0153545 -0.0143081 -0.013266 -0.0122382 -0.0112347 -0.0102556 -0.00930082 -0.00837869 -0.00749745 -0.00665711 -0.00585767 -0.00510469 -0.00440372 -0.00375477 -0.00315782 -0.00261495 -0.0021282 -0.00169759 -0.00132312 -0.00100031 -0.000724711 -0.000496323 -0.000315145 -0.000177269 -7.87864e-05 -1.96966e-05 0 0 -2.96013e-05 -0.000118405 -0.000266412 -0.000473621 -0.000740428 -0.00106723 -0.00145402 -0.00190081 -0.00241061 -0.00298647 -0.00362837 -0.00433631 -0.00510521 -0.00592998 -0.0068106 -0.00774709 -0.00873069 -0.00975266 -0.010813 -0.0119117 -0.0130374 -0.0141788 -0.0153359 -0.0165087 -0.0176845 -0.0188508 -0.0200074 -0.0211545 -0.0222799 -0.0233716 -0.0244296 -0.0254538 -0.026435 -0.0273636 -0.0282397 -0.0290634 -0.0298296 -0.0305335 -0.0311752 -0.0317545 -0.032272 -0.0327282 -0.0331229 -0.0334563 -0.0337337 -0.0339606 -0.0341371 -0.034263 -0.0343473 -0.0343989 -0.0344176 -0.0344035 -0.0343666 -0.0343164 -0.0342532 -0.0341768 -0.0340956 -0.0340176 -0.0339428 -0.0338713 -0.0338075 -0.0337558 -0.0337162 -0.0336886 -0.0336727 -0.0336678 -0.0336741 -0.0336915 -0.0337148 -0.0337389 -0.0337637 -0.0337893 -0.0338072 -0.033809 -0.0337948 -0.0337644 -0.0337086 -0.033618 -0.0334926 -0.0333324 -0.0331296 -0.0328765 -0.0325731 -0.0322193 -0.0318113 -0.0313449 -0.0308203 -0.0302373 -0.0295971 -0.0289005 -0.0281475 -0.0273381 -0.0264784 -0.0255741 -0.0246253 -0.023632 -0.022604 -0.021551 -0.0204729 -0.0193698 -0.0182534 -0.0171354 -0.0160157 -0.0148944 -0.013783 -0.0126931 -0.0116248 -0.0105779 -0.00956228 -0.00858773 -0.00765424 -0.00676181 -0.00591733 -0.0051277 -0.00439294 -0.00371303 -0.00309118 -0.0025306 -0.00203127 -0.00159321 -0.00121238 -0.000884769 -0.000610365 -0.000389173 -0.00021891 -9.72932e-05 -2.43233e-05 0 0 -3.55791e-05 -0.000142316 -0.000320212 -0.000569266 -0.000887308 -0.00127217 -0.00172385 -0.00224234 -0.00282975 -0.00348818 -0.00421762 -0.00501807 -0.00588274 -0.00680484 -0.00778437 -0.00882134 -0.00990519 -0.0110254 -0.0121819 -0.0133748 -0.0145909 -0.015817 -0.0170532 -0.0182994 -0.0195414 -0.0207649 -0.0219699 -0.0231564 -0.0243111 -0.0254209 -0.0264858 -0.0275056 -0.0284708 -0.0293714 -0.0302075 -0.0309791 -0.0316819 -0.0323115 -0.0328679 -0.0333512 -0.0337633 -0.0341063 -0.0343802 -0.0345849 -0.0347284 -0.0348184 -0.0348549 -0.034838 -0.0347792 -0.0346902 -0.0345711 -0.0344217 -0.0342548 -0.0340827 -0.0339055 -0.0337232 -0.0335461 -0.0333844 -0.0332382 -0.0331075 -0.0329977 -0.0329143 -0.0328574 -0.0328269 -0.0328221 -0.0328425 -0.032888 -0.0329587 -0.0330479 -0.0331493 -0.0332627 -0.0333881 -0.033515 -0.0336326 -0.0337409 -0.0338399 -0.0339176 -0.0339618 -0.0339725 -0.0339498 -0.0338832 -0.0337624 -0.0335872 -0.0333579 -0.0330681 -0.0327118 -0.032289 -0.0317997 -0.0312436 -0.0306204 -0.02993 -0.0291726 -0.0283537 -0.0274789 -0.0265483 -0.0255618 -0.0245298 -0.0234626 -0.0223602 -0.0212226 -0.0200628 -0.0188937 -0.0177152 -0.0165275 -0.0153435 -0.0141766 -0.0130267 -0.0118938 -0.0107894 -0.00972488 -0.00870027 -0.00771556 -0.00677922 -0.00589971 -0.00507704 -0.00431119 -0.00360678 -0.00296841 -0.00239608 -0.00188978 -0.00144619 -0.00106197 -0.000737113 -0.00047162 -0.000265286 -0.000117905 -2.94763e-05 0 0 -4.21382e-05 -0.000168553 -0.000379243 -0.000674211 -0.00104821 -0.00149601 -0.0020176 -0.00261298 -0.00328304 -0.00402866 -0.00484985 -0.00574659 -0.00671012 -0.00773166 -0.0088112 -0.00994874 -0.0111317 -0.0123476 -0.0135964 -0.0148781 -0.0161775 -0.0174795 -0.0187842 -0.0200915 -0.0213854 -0.02265 -0.0238852 -0.025091 -0.0262531 -0.0273572 -0.0284031 -0.0293909 -0.0303105 -0.031152 -0.0319154 -0.0326005 -0.033204 -0.0337224 -0.0341556 -0.0345036 -0.0347705 -0.0349602 -0.0350727 -0.035108 -0.0350767 -0.0349895 -0.0348465 -0.0346475 -0.0344075 -0.0341415 -0.0338493 -0.0335311 -0.0332025 -0.0328791 -0.032561 -0.0322481 -0.0319532 -0.0316889 -0.0314553 -0.0312523 -0.0310867 -0.0309651 -0.0308875 -0.030854 -0.0308637 -0.0309158 -0.0310103 -0.0311472 -0.0313183 -0.0315157 -0.0317393 -0.0319891 -0.0322519 -0.0325143 -0.0327763 -0.0330379 -0.033284 -0.0334991 -0.0336835 -0.033837 -0.0339461 -0.0339972 -0.0339905 -0.0339258 -0.0337946 -0.0335881 -0.0333063 -0.0329492 -0.032515 -0.0320016 -0.0314092 -0.0307377 -0.0299922 -0.0291778 -0.0282945 -0.0273423 -0.0263321 -0.0252747 -0.02417 -0.0230181 -0.0218331 -0.0206293 -0.0194067 -0.0181652 -0.0169197 -0.0156852 -0.0144615 -0.0132487 -0.0120601 -0.0109089 -0.00979518 -0.00871893 -0.00769037 -0.00671975 -0.00580705 -0.00495229 -0.00416173 -0.00344163 -0.002792 -0.00221284 -0.00170174 -0.00125632 -0.000876566 -0.000562487 -0.000316399 -0.000140622 -3.51554e-05 0 0 -4.92164e-05 -0.000196866 -0.000442948 -0.000787463 -0.0012216 -0.00173653 -0.00233228 -0.00300882 -0.00376553 -0.00460176 -0.00551751 -0.00651278 -0.00757649 -0.00869755 -0.00987598 -0.0111118 -0.0123901 -0.0136961 -0.0150298 -0.0163912 -0.0177631 -0.019128 -0.0204861 -0.0218373 -0.0231638 -0.0244478 -0.0256894 -0.0268884 -0.0280295 -0.0290972 -0.0300914 -0.0310121 -0.0318493 -0.0325928 -0.0332426 -0.0337988 -0.0342589 -0.0346207 -0.0348841 -0.0350493 -0.0351224 -0.03511 -0.0350119 -0.0348283 -0.034573 -0.0342602 -0.0338898 -0.0334618 -0.0329949 -0.032508 -0.0320009 -0.0314737 -0.0309456 -0.030436 -0.0299448 -0.0294721 -0.0290333 -0.0286439 -0.0283038 -0.0280131 -0.0277799 -0.0276123 -0.0275102 -0.0274738 -0.0275019 -0.0275935 -0.0277485 -0.0279671 -0.0282392 -0.0285551 -0.0289148 -0.0293181 -0.0297489 -0.0301908 -0.0306439 -0.031108 -0.0315644 -0.031994 -0.0323969 -0.0327732 -0.0331055 -0.0333767 -0.0335868 -0.0337357 -0.0338118 -0.0338034 -0.0337103 -0.0335327 -0.0332665 -0.0329079 -0.0324569 -0.0319133 -0.0312817 -0.0305662 -0.0297669 -0.0288838 -0.0279281 -0.0269109 -0.0258323 -0.0246922 -0.0235061 -0.0222895 -0.0210424 -0.0197647 -0.0184732 -0.0171845 -0.0158986 -0.0146156 -0.0133506 -0.0121191 -0.0109211 -0.00975648 -0.00863756 -0.00757658 -0.00657355 -0.00562846 -0.00474953 -0.00394499 -0.00321483 -0.00255905 -0.00197648 -0.00146594 -0.00102742 -0.000660939 -0.000371778 -0.000165235 -4.13087e-05 0 0 -5.67519e-05 -0.000227008 -0.000510767 -0.00090803 -0.00140591 -0.00199153 -0.00266489 -0.00342598 -0.00427229 -0.00520132 -0.00621306 -0.00730752 -0.00847096 -0.00968966 -0.0109636 -0.0122928 -0.0136599 -0.0150475 -0.0164556 -0.0178842 -0.0193137 -0.0207244 -0.0221162 -0.0234893 -0.0248239 -0.0261003 -0.0273185 -0.0284786 -0.0295639 -0.0305579 -0.0314606 -0.032272 -0.0329822 -0.0335811 -0.0340687 -0.0344451 -0.0347094 -0.0348609 -0.0348996 -0.0348254 -0.0346476 -0.0343755 -0.0340092 -0.0335486 -0.0330117 -0.0324165 -0.031763 -0.0310511 -0.0303041 -0.0295451 -0.0287742 -0.0279913 -0.0272199 -0.0264834 -0.0257819 -0.0251154 -0.0245025 -0.0239618 -0.0234933 -0.0230971 -0.0227829 -0.0225603 -0.0224293 -0.0223901 -0.0224412 -0.0225813 -0.0228105 -0.0231287 -0.023524 -0.0239845 -0.0245102 -0.0251011 -0.0257373 -0.0263992 -0.0270867 -0.0277998 -0.0285153 -0.0292102 -0.0298843 -0.0305376 -0.0311488 -0.0316962 -0.03218 -0.0326 -0.0329409 -0.0331873 -0.0333393 -0.0333969 -0.0333535 -0.0332028 -0.0329448 -0.0325795 -0.0321101 -0.0315398 -0.0308685 -0.0300964 -0.0292347 -0.0282949 -0.027277 -0.026181 -0.0250236 -0.0238214 -0.0225746 -0.0212831 -0.0199654 -0.0186403 -0.0173077 -0.0159676 -0.0146375 -0.013335 -0.0120601 -0.0108128 -0.00960756 -0.008459 -0.00736708 -0.00633181 -0.00536368 -0.00447319 -0.00366033 -0.00292511 -0.00226787 -0.00168896 -0.00118838 -0.000766145 -0.000430957 -0.000191536 -4.78841e-05 0 0 -6.47446e-05 -0.000258978 -0.000582701 -0.00103591 -0.00160116 -0.002261 -0.00301542 -0.00386443 -0.00480331 -0.00582733 -0.0069365 -0.00813081 -0.00939354 -0.010708 -0.0120741 -0.0134919 -0.0149412 -0.0164018 -0.0178738 -0.019357 -0.0208293 -0.0222685 -0.0236746 -0.0250476 -0.0263657 -0.0276074 -0.0287727 -0.0298614 -0.0308561 -0.0317392 -0.0325107 -0.0331706 -0.0337092 -0.0341169 -0.0343937 -0.0345396 -0.0345557 -0.0344431 -0.0342018 -0.0338319 -0.0333461 -0.032757 -0.0320646 -0.031269 -0.0303928 -0.0294584 -0.028466 -0.0274154 -0.026335 -0.025253 -0.0241693 -0.0230841 -0.0220254 -0.0210215 -0.0200724 -0.0191781 -0.0183608 -0.0176427 -0.0170239 -0.0165044 -0.0160956 -0.0158091 -0.0156448 -0.0156028 -0.0156815 -0.0158793 -0.0161961 -0.016632 -0.0171727 -0.0178039 -0.0185257 -0.019338 -0.0202171 -0.0211394 -0.0221048 -0.0231133 -0.0241369 -0.0251476 -0.0261454 -0.0271303 -0.028076 -0.0289559 -0.0297701 -0.0305186 -0.0311817 -0.03174 -0.0321933 -0.0325418 -0.0327759 -0.0328864 -0.0328731 -0.0327362 -0.0324774 -0.0320984 -0.0315993 -0.03098 -0.030252 -0.0294268 -0.0285043 -0.0274845 -0.0263855 -0.0252251 -0.0240033 -0.0227202 -0.0213964 -0.0200526 -0.0186887 -0.0173047 -0.0159207 -0.0145565 -0.0132122 -0.0118878 -0.0106004 -0.00936699 -0.00818764 -0.00706235 -0.00600419 -0.00502624 -0.00412852 -0.00331101 -0.0025759 -0.00192538 -0.00135945 -0.000878104 -0.000493933 -0.000219526 -5.48815e-05 0 0 -7.31945e-05 -0.000292778 -0.000658751 -0.00117111 -0.00180735 -0.00254494 -0.00338389 -0.0043242 -0.0053586 -0.0064798 -0.00768782 -0.00898265 -0.0103442 -0.0117525 -0.0132074 -0.0147091 -0.0162341 -0.0177591 -0.0192843 -0.0208096 -0.0223099 -0.0237605 -0.0251612 -0.026512 -0.0277893 -0.0289692 -0.0300518 -0.031037 -0.0319063 -0.0326412 -0.0332417 -0.0337077 -0.0340303 -0.0342002 -0.0342175 -0.0340821 -0.0337976 -0.0333672 -0.032791 -0.032069 -0.0312178 -0.0302542 -0.0291781 -0.0279895 -0.0267163 -0.025386 -0.0239989 -0.0225547 -0.0210876 -0.0196314 -0.0181862 -0.0167519 -0.0153621 -0.0140501 -0.0128162 -0.0116601 -0.0106082 -0.00968674 -0.00889562 -0.00823489 -0.00771805 -0.00735863 -0.00715662 -0.00711204 -0.00722294 -0.00748738 -0.00790537 -0.00847691 -0.00918513 -0.0100132 -0.0109611 -0.0120288 -0.0131883 -0.0144114 -0.0156981 -0.0170484 -0.018429 -0.0198063 -0.0211804 -0.0225513 -0.023887 -0.0251557 -0.0263572 -0.0274915 -0.0285344 -0.0294613 -0.0302723 -0.0309674 -0.0315338 -0.0319586 -0.0322418 -0.0323835 -0.0323836 -0.0322422 -0.0319592 -0.0315347 -0.03098 -0.0303065 -0.0295141 -0.0286028 -0.0275919 -0.0265005 -0.0253286 -0.0240762 -0.0227662 -0.0214214 -0.0200416 -0.018627 -0.0172001 -0.0157836 -0.0143774 -0.0129816 -0.011616 -0.0103006 -0.00903524 -0.00782007 -0.00667104 -0.00560415 -0.00461938 -0.00371675 -0.00290059 -0.00217521