<?xml version="1.0"?> 
<VTKFile type="StructuredGrid" version="0.1"> 
<StructuredGrid WholeExtent="0 128 0 128 0 0"> 
<Piece Extent="0 128 0 128 0 0"> 
<PointData>
<DataArray type="Float32" Name="u" format="ascii" NumberOfComponents="1"> 
0 0 0 0 0 0 0 0 0 0 0 0 0 0 0 0 0 0 0 0 0 0 0 0 0 0 0 0 0 0 0 0 0 0 0 0 0 0 0 0 0 0 0 0 0 0 0 0 0 0 0 0 0 0 0 0 0 0 0 0 0 0 0 0 0 0 0 0 0 0 0 0 0 0 0 0 0 0 0 0 0 0 0 0 0 0 0 0 0 0 0 0 0 0 0 0 0 0 0 0 0 0 0 0 0 0 0 0 0 0 0 0 0 0 0 0 0 0 0 0 0 0 0 0 0 0 0 0 0 0 6.39847e-08 2.55939e-07 5.75862e-07 1.02376e-06 1.38743e-06 1.45471e-06 1.22559e-06 7.00064e-07 -2.35715e-07 -1.69561e-06 -3.67961e-06 -6.18773e-06 -9.27259e-06 -1.29868e-05 -1.73304e-05 -2.23034e-05 -2.79059e-05 -3.41378e-05 -4.09993e-05 -4.84904e-05 -5.65719e-05 -6.52047e-05 -7.43889e-05 -8.41245e-05 -9.43409e-05 -0.000104968 -0.000116005 -0.000127453 -0.000139219 -0.000151213 -0.000163433 -0.000175881 -0.000188456 -0.000201058 -0.000213687 -0.000226344 -0.000238932 -0.000251357 -0.000263619 -0.000275718 -0.000287572 -0.000299102 -0.000310306 -0.000321185 -0.000331678 -0.000341722 -0.000351319 -0.000360468 -0.000369127 -0.000377254 -0.000384851 -0.000391916 -0.000398425 -0.000404353 -0.0004097 -0.000414466 -0.000418638 -0.000422204 -0.000425163 -0.000427517 -0.000429259 -0.000430387 -0.0004309 -0.000430798 -0.000430084 -0.000428759 -0.000426823 -0.000424277 -0.000421129 -0.000417388 -0.000413053 -0.000408126 -0.000402624 -0.000396565 -0.000389948 -0.000382775 -0.000375076 -0.000366882 -0.000358194 -0.00034901 -0.000339379 -0.000329349 -0.00031892 -0.000308091 -0.000296928 -0.000285498 -0.0002738 -0.000261835 -0.000249684 -0.00023743 -0.000225074 -0.000212614 -0.000200144 -0.000187757 -0.000175451 -0.000163228 -0.000151181 -0.000139402 -0.000127892 -0.000116651 -0.00010576 -9.53007e-05 -8.52738e-05 -7.5679e-05 -6.65754e-05 -5.80221e-05 -5.00193e-05 -4.25668e-05 -3.5693e-05 -2.94262e-05 -2.37666e-05 -1.8714e-05 -1.42601e-05 -1.03966e-05 -7.12353e-06 -4.44084e-06 -2.29227e-06 -6.21551e-07 5.71313e-07 1.28632e-06 1.63295e-06 1.72064e-06 1.54941e-06 1.11925e-06 6.29577e-07 2.79812e-07 6.9953e-08 0 0 2.55939e-07 1.02376e-06 2.30345e-06 4.09502e-06 5.54973e-06 5.81884e-06 4.90235e-06 2.80026e-06 -9.4286e-07 -6.78243e-06 -1.47184e-05 -2.47509e-05 -3.70904e-05 -5.19473e-05 -6.93217e-05 -8.92137e-05 -0.000111623 -0.000136551 -0.000163997 -0.000193961 -0.000226287 -0.000260819 -0.000297556 -0.000336498 -0.000377364 -0.000419871 -0.00046402 -0.000509811 -0.000556877 -0.000604851 -0.000653733 -0.000703523 -0.000753822 -0.000804231 -0.000854748 -0.000905374 -0.000955729 -0.00100543 -0.00105448 -0.00110287 -0.00115029 -0.00119641 -0.00124122 -0.00128474 -0.00132671 -0.00136689 -0.00140528 -0.00144187 -0.00147651 -0.00150902 -0.0015394 -0.00156766 -0.0015937 -0.00161741 -0.0016388 -0.00165786 -0.00167455 -0.00168882 -0.00170065 -0.00171007 -0.00171704 -0.00172155 -0.0017236 -0.00172319 -0.00172034 -0.00171504 -0.00170729 -0.00169711 -0.00168452 -0.00166955 -0.00165221 -0.0016325 -0.0016105 -0.00158626 -0.00155979 -0.0015311 -0.0015003 -0.00146753 -0.00143277 -0.00139604 -0.00135752 -0.0013174 -0.00127568 -0.00123236 -0.00118771 -0.00114199 -0.0010952 -0.00104734 -0.000998736 -0.000949721 -0.000900295 -0.000850456 -0.000800577 -0.000751026 -0.000701805 -0.000652914 -0.000604724 -0.00055761 -0.000511569 -0.000466603 -0.000423039 -0.000381203 -0.000341095 -0.000302716 -0.000266301 -0.000232089 -0.000200077 -0.000170267 -0.000142772 -0.000117705 -9.50663e-05 -7.48559e-05 -5.70404e-05 -4.15865e-05 -2.84941e-05 -1.77633e-05 -9.16907e-06 -2.4862e-06 2.28525e-06 5.1453e-06 6.53179e-06 6.88257e-06 6.19763e-06 4.47699e-06 2.51831e-06 1.11925e-06 2.79812e-07 0 0 5.75862e-07 2.30345e-06 5.18276e-06 9.2138e-06 1.24869e-05 1.30924e-05 1.10303e-05 6.30058e-06 -2.12143e-06 -1.52605e-05 -3.31165e-05 -5.56896e-05 -8.34533e-05 -0.000116881 -0.000155974 -0.000200731 -0.000251153 -0.00030724 -0.000368994 -0.000436413 -0.000509147 -0.000586842 -0.0006695 -0.00075712 -0.000849069 -0.00094471 -0.00104405 -0.00114707 -0.00125297 -0.00136091 -0.0014709 -0.00158293 -0.0016961 -0.00180952 -0.00192318 -0.00203709 -0.00215039 -0.00226222 -0.00237257 -0.00248146 -0.00258815 -0.00269192 -0.00279275 -0.00289067 -0.0029851 -0.0030755 -0.00316187 -0.00324421 -0.00332214 -0.00339529 -0.00346366 -0.00352725 -0.00358583 -0.00363918 -0.0036873 -0.00373019 -0.00376774 -0.00379984 -0.00382647 -0.00384765 -0.00386333 -0.00387348 -0.0038781 -0.00387719 -0.00387076 -0.00385883 -0.00384141 -0.00381849 -0.00379016 -0.00375649 -0.00371748 -0.00367314 -0.00362361 -0.00356908 -0.00350954 -0.00344498 -0.00337569 -0.00330194 -0.00322374 -0.00314109 -0.00305441 -0.00296414 -0.00287028 -0.00277282 -0.00267235 -0.00256948 -0.0024642 -0.00235651 -0.00224716 -0.00213687 -0.00202566 -0.00191353 -0.0018013 -0.00168981 -0.00157906 -0.00146906 -0.00136063 -0.00125462 -0.00115103 -0.00104986 -0.000951837 -0.000857706 -0.000767464 -0.000681111 -0.000599178 -0.000522199 -0.000450174 -0.000383101 -0.000321237 -0.000264836 -0.000213899 -0.000168426 -0.000128341 -9.35695e-05 -6.41117e-05 -3.99675e-05 -2.06304e-05 -5.59396e-06 5.14182e-06 1.15769e-05 1.46965e-05 1.54858e-05 1.39447e-05 1.00732e-05 5.66619e-06 2.51831e-06 6.29577e-07 0 0 1.02376e-06 4.09502e-06 9.2138e-06 1.63801e-05 2.21989e-05 2.32754e-05 1.96094e-05 1.1201e-05 -3.77144e-06 -2.71297e-05 -5.88738e-05 -9.90037e-05 -0.000148361 -0.000207789 -0.000277287 -0.000356855 -0.000446494 -0.000546205 -0.000655989 -0.000775846 -0.00090515 -0.00104328 -0.00119022 -0.00134599 -0.00150946 -0.00167948 -0.00185608 -0.00203924 -0.00222751 -0.0024194 -0.00261493 -0.00281409 -0.00301529 -0.00321692 -0.00341899 -0.0036215 -0.00382292 -0.00402172 -0.00421791 -0.00441149 -0.00460116 -0.00478563 -0.00496489 -0.00513896 -0.00530684 -0.00546756 -0.0056211 -0.00576748 -0.00590603 -0.00603607 -0.00615762 -0.00627066 -0.0063748 -0.00646965 -0.0065552 -0.00663146 -0.00669821 -0.00675526 -0.00680262 -0.00684027 -0.00686815 -0.00688619 -0.0068944 -0.00689277 -0.00688134 -0.00686014 -0.00682917 -0.00678843 -0.00673806 -0.0066782 -0.00660885 -0.00653002 -0.00644198 -0.00634503 -0.00623917 -0.0061244 -0.00600122 -0.00587012 -0.0057311 -0.00558416 -0.00543007 -0.00526959 -0.00510271 -0.00492945 -0.00475085 -0.00456797 -0.0043808 -0.00418935 -0.00399494 -0.00379889 -0.00360118 -0.00340183 -0.00320231 -0.00300411 -0.00280722 -0.00261166 -0.0024189 -0.00223044 -0.00204628 -0.00186641 -0.00169216 -0.00152481 -0.00136438 -0.00121086 -0.00106521 -0.000928354 -0.000800308 -0.000681068 -0.000571088 -0.00047082 -0.000380265 -0.000299424 -0.000228162 -0.000166346 -0.000113976 -7.10534e-05 -3.66763e-05 -9.94482e-06 9.141e-06 2.05812e-05 2.61271e-05 2.75303e-05 2.47905e-05 1.7908e-05 1.00732e-05 4.47699e-06 1.11925e-06 0 0 1.37816e-06 5.51266e-06 1.24035e-05 2.20506e-05 2.94194e-05 2.94753e-05 2.22181e-05 7.64789e-06 -1.69617e-05 -5.43373e-05 -0.000104479 -0.000167386 -0.000244298 -0.000336453 -0.000443851 -0.000566492 -0.000704345 -0.000857378 -0.00102559 -0.00120898 -0.00140658 -0.00161738 -0.00184141 -0.00207866 -0.00232738 -0.00258584 -0.00285405 -0.003132 -0.00341745 -0.00370815 -0.00400411 -0.00430534 -0.00460939 -0.00491385 -0.00521872 -0.005524 -0.0058274 -0.00612661 -0.00642165 -0.0067125 -0.00699725 -0.00727398 -0.00754267 -0.00780334 -0.00805454 -0.00829484 -0.00852423 -0.00874272 -0.00894936 -0.00914318 -0.00932421 -0.00949243 -0.00964729 -0.00978826 -0.00991533 -0.0100285 -0.0101275 -0.0102121 -0.0102822 -0.010338 -0.0103792 -0.0104058 -0.0104179 -0.0104153 -0.0103983 -0.0103667 -0.0103206 -0.0102601 -0.0101853 -0.0100963 -0.0099932 -0.00987599 -0.00974506 -0.00960078 -0.00944317 -0.00927221 -0.00908862 -0.00889308 -0.00868559 -0.00846616 -0.00823588 -0.00799586 -0.00774608 -0.00748656 -0.00721884 -0.00694447 -0.00666346 -0.0063758 -0.00608346 -0.00578841 -0.00549063 -0.00519014 -0.00488917 -0.00458994 -0.00429248 -0.00399676 -0.00370506 -0.00341965 -0.00314052 -0.00286767 -0.00260311 -0.00234883 -0.00210485 -0.00187115 -0.00164921 -0.00144048 -0.00124497 -0.00106267 -0.000894305 -0.000740595 -0.000601539 -0.000477136 -0.000367215 -0.000271604 -0.000190303 -0.000123312 -6.92994e-05 -2.69338e-05 3.78495e-06 2.28568e-05 3.2907e-05 3.65603e-05 3.3817e-05 2.46769e-05 1.38808e-05 6.16922e-06 1.54231e-06 0 0 1.41763e-06 5.67054e-06 1.27587e-05 2.26822e-05 2.88821e-05 2.47996e-05 1.04347e-05 -1.42126e-05 -5.27612e-05 -0.00010883 -0.00018242 -0.000273529 -0.000383746 -0.000514655 -0.000666256 -0.00083855 -0.0010314 -0.00124469 -0.0014784 -0.00173255 -0.0020057 -0.00229644 -0.00260475 -0.00293066 -0.0032717 -0.00362544 -0.00399188 -0.00437102 -0.00475976 -0.00515499 -0.00555673 -0.00596497 -0.0063764 -0.00678772 -0.00719892 -0.00761002 -0.00801792 -0.00841956 -0.00881494 -0.00920405 -0.00958438 -0.0099534 -0.0103111 -0.0106575 -0.0109908 -0.0113091 -0.0116125 -0.011901 -0.0121733 -0.0124285 -0.0126664 -0.0128871 -0.01309 -0.0132744 -0.0134405 -0.0135881 -0.0137171 -0.0138272 -0.0139185 -0.0139908 -0.0140441 -0.0140785 -0.0140939 -0.0140902 -0.0140677 -0.0140262 -0.0139659 -0.0138867 -0.0137888 -0.0136723 -0.0135374 -0.0133839 -0.0132123 -0.013023 -0.012816 -0.0125912 -0.0123496 -0.0120919 -0.011818 -0.011528 -0.0112233 -0.0109051 -0.0105735 -0.0102284 -0.00987197 -0.00950604 -0.00913065 -0.0087458 -0.00835408 -0.00795808 -0.00755781 -0.00715326 -0.00674744 -0.00634336 -0.00594102 -0.00554042 -0.00514467 -0.00475685 -0.00437697 -0.00400503 -0.00364381 -0.0032961 -0.00296188 -0.00264116 -0.00233602 -0.00204851 -0.00177864 -0.0015264 -0.00129287 -0.0010791 -0.000885094 -0.00071085 -0.000556213 -0.000421032 -0.000305306 -0.000209034 -0.000130493 -6.7956e-05 -2.14242e-05 9.10262e-06 2.71192e-05 3.61203e-05 3.61058e-05 2.70757e-05 1.52301e-05 6.76893e-06 1.69223e-06 0 0 1.14217e-06 4.56867e-06 1.02795e-05 1.82747e-05 2.05868e-05 9.24829e-06 -1.57407e-05 -5.43803e-05 -0.00011117 -0.000190609 -0.000292697 -0.000417434 -0.000566705 -0.000742394 -0.000944502 -0.00117303 -0.00142767 -0.00170814 -0.00201443 -0.00234654 -0.00270253 -0.00308043 -0.00348025 -0.00390199 -0.00434241 -0.00479827 -0.00526957 -0.0057563 -0.00625444 -0.00675993 -0.00727278 -0.00779299 -0.00831632 -0.00883852 -0.00935959 -0.00987954 -0.0103945 -0.0109006 -0.0113978 -0.0118861 -0.0123625 -0.0128239 -0.0132702 -0.0137015 -0.0141156 -0.0145104 -0.014886 -0.0152422 -0.0155779 -0.0158919 -0.0161841 -0.0164546 -0.0167028 -0.0169282 -0.0171307 -0.0173104 -0.0174672 -0.0176008 -0.0177113 -0.0177987 -0.017863 -0.0179042 -0.0179224 -0.0179175 -0.0178896 -0.0178387 -0.0177649 -0.0176682 -0.0175486 -0.0174064 -0.0172414 -0.0170537 -0.0168437 -0.0166116 -0.0163576 -0.0160815 -0.0157842 -0.0154664 -0.0151283 -0.0147697 -0.0143922 -0.0139972 -0.0135849 -0.0131551 -0.0127102 -0.0122526 -0.0117823 -0.0112993 -0.0108068 -0.0103079 -0.00980271 -0.00929118 -0.00877712 -0.00826435 -0.00775285 -0.00724264 -0.0067377 -0.00624203 -0.00575563 -0.00527849 -0.00481427 -0.00436659 -0.00393547 -0.00352089 -0.00312562 -0.00275243 -0.00240131 -0.00207227 -0.00176679 -0.00148634 -0.00123093 -0.00100056 -0.000795157 -0.000614631 -0.000458985 -0.00032822 -0.000220256 -0.000133011 -6.64865e-05 -2.06815e-05 8.76397e-06 2.62101e-05 3.16569e-05 2.51044e-05 1.41212e-05 6.2761e-06 1.56902e-06 0 0 5.51764e-07 2.20706e-06 4.96588e-06 8.82822e-06 4.53358e-06 -1.71786e-05 -5.63082e-05 -0.000112855 -0.000192188 -0.000299672 -0.00043531 -0.000599099 -0.000793176 -0.00101967 -0.00127859 -0.00156993 -0.00189315 -0.00224773 -0.00263367 -0.00305097 -0.00349706 -0.00396937 -0.0044679 -0.00499266 -0.00553952 -0.00610433 -0.00668711 -0.00728785 -0.00790149 -0.00852296 -0.00915227 -0.00978941 -0.0104291 -0.0110663 -0.0117007 -0.0123326 -0.0129571 -0.0135697 -0.0141702 -0.0147588 -0.0153317 -0.0158855 -0.01642 -0.0169353 -0.017429 -0.0178988 -0.0183446 -0.0187664 -0.0191631 -0.0195335 -0.0198774 -0.020195 -0.0204858 -0.0207495 -0.020986 -0.0211953 -0.0213775 -0.0215327 -0.0216607 -0.0217617 -0.0218358 -0.021883 -0.0219035 -0.0218971 -0.021864 -0.0218042 -0.0217178 -0.0216046 -0.0214648 -0.0212984 -0.0211052 -0.0208855 -0.0206393 -0.0203668 -0.020068 -0.0197429 -0.0193923 -0.0190168 -0.0186165 -0.0181912 -0.0177427 -0.0172724 -0.0167803 -0.0162665 -0.0157336 -0.0151843 -0.0146186 -0.0140364 -0.0134416 -0.0128379 -0.0122253 -0.0116039 -0.0109782 -0.0103529 -0.00972797 -0.00910341 -0.00848417 -0.0078752 -0.0072765 -0.00668806 -0.00611448 -0.00556033 -0.00502561 -0.00451033 -0.00401803 -0.00355225 -0.003113 -0.00270027 -0.00231605 -0.00196231 -0.00163905 -0.00134628 -0.00108405 -0.000852399 -0.000651341 -0.00048087 -0.000338589 -0.0002221 -0.000131402 -6.64955e-05 -2.21588e-05 6.82982e-06 2.04704e-05 1.8763e-05 1.05542e-05 4.69074e-06 1.17268e-06 0 0 -4.73318e-07 -1.89327e-06 -4.25986e-06 -7.57309e-06 -2.21458e-05 -5.8291e-05 -0.000116009 -0.000195299 -0.000302316 -0.000443214 -0.000617994 -0.000826656 -0.00107147 -0.00135471 -0.00167637 -0.00203646 -0.0024341 -0.00286842 -0.00333941 -0.00384708 -0.00438813 -0.00495927 -0.00556051 -0.00619185 -0.00684816 -0.00752432 -0.00822034 -0.00893621 -0.00966578 -0.0104029 -0.0111476 -0.0118998 -0.0126533 -0.0134019 -0.0141455 -0.0148842 -0.0156126 -0.0163252 -0.0170219 -0.0177028 -0.0183639 -0.0190012 -0.0196145 -0.020204 -0.0207672 -0.0213016 -0.0218073 -0.0222842 -0.0227314 -0.0231478 -0.0235335 -0.0238884 -0.0242124 -0.0245056 -0.0247678 -0.0249992 -0.0252001 -0.0253708 -0.0255113 -0.0256217 -0.0257022 -0.0257532 -0.0257747 -0.0257667 -0.0257292 -0.0256623 -0.025566 -0.0254402 -0.0252849 -0.0250998 -0.0248849 -0.0246402 -0.0243657 -0.0240611 -0.0237265 -0.023362 -0.0229678 -0.0225445 -0.022092 -0.0216104 -0.021101 -0.0205654 -0.0200035 -0.0194153 -0.0188036 -0.0181713 -0.0175184 -0.0168449 -0.0161549 -0.0154529 -0.0147387 -0.0140124 -0.0132795 -0.0125452 -0.0118097 -0.0110728 -0.0103406 -0.00961892 -0.00890783 -0.00820729 -0.00752291 -0.00686028 -0.00621942 -0.00560031 -0.00500738 -0.00444505 -0.00391332 -0.0034122 -0.00294427 -0.0025121 -0.0021157 -0.00175506 -0.00143048 -0.00114222 -0.000890287 -0.000674684 -0.000492789 -0.000341982 -0.000222264 -0.000133634 -7.00752e-05 -2.55719e-05 -1.23814e-07 6.26917e-06 3.52641e-06 1.56729e-06 3.91823e-07 0 0 -2.05282e-06 -8.21127e-06 -1.84754e-05 -3.28451e-05 -6.23199e-05 -0.000117899 -0.000199583 -0.000307371 -0.000448055 -0.000628427 -0.000848486 -0.00110823 -0.0014099 -0.00175573 -0.00214571 -0.00257986 -0.00305679 -0.00357515 -0.00413492 -0.00473612 -0.00537459 -0.00604618 -0.00675089 -0.00748873 -0.00825348 -0.00903893 -0.00984507 -0.0106719 -0.0115122 -0.0123585 -0.013211 -0.0140696 -0.0149271 -0.0157763 -0.0166171 -0.0174497 -0.0182678 -0.0190654 -0.0198426 -0.0205992 -0.0213311 -0.022034 -0.0227079 -0.0233528 -0.0239664 -0.0245465 -0.0250931 -0.0256062 -0.0260852 -0.0265296 -0.0269395 -0.0273148 -0.027656 -0.0279637 -0.0282379 -0.0284786 -0.0286866 -0.0288629 -0.0290075 -0.0291203 -0.029202 -0.0292531 -0.0292737 -0.0292638 -0.0292234 -0.0291525 -0.0290511 -0.0289192 -0.0287564 -0.0285621 -0.0283363 -0.028079 -0.0277896 -0.0274675 -0.0271126 -0.0267249 -0.0263044 -0.0258509 -0.0253644 -0.024845 -0.0242935 -0.0237112 -0.023098 -0.0224539 -0.0217817 -0.021084 -0.020361 -0.0196125 -0.0188432 -0.0180577 -0.0172559 -0.0164378 -0.0156096 -0.0147774 -0.0139412 -0.0131009 -0.0122634 -0.0114358 -0.0106179 -0.00980974 -0.00901804 -0.00824946 -0.00750399 -0.00678163 -0.00608779 -0.00542788 -0.00480191 -0.00420986 -0.00365506 -0.00314081 -0.00266711 -0.00223398 -0.00184205 -0.00149197 -0.00118374 -0.000917362 -0.000690151 -0.000499419 -0.000345165 -0.00022739 -0.000139411 -7.45465e-05 -3.27958e-05 -1.41592e-05 -7.96454e-06 -3.53979e-06 -8.84949e-07 0 0 -4.18673e-06 -1.67469e-05 -3.76806e-05 -6.69877e-05 -0.000115988 -0.000196003 -0.000307031 -0.000449073 -0.000629407 -0.000855311 -0.00112678 -0.00144383 -0.00180847 -0.00222273 -0.00268661 -0.00320011 -0.00376122 -0.00436792 -0.00502021 -0.0057181 -0.00645643 -0.00723008 -0.00803904 -0.0088833 -0.00975547 -0.0106481 -0.0115613 -0.012495 -0.0134407 -0.0143899 -0.0153427 -0.016299 -0.0172507 -0.0181895 -0.0191156 -0.0200289 -0.0209227 -0.0217905 -0.0226323 -0.023448 -0.0242333 -0.0249841 -0.0257002 -0.0263816 -0.0270267 -0.0276334 -0.0282019 -0.0287322 -0.0292244 -0.0296788 -0.0300954 -0.0304742 -0.0308165 -0.0311238 -0.0313961 -0.0316334 -0.0318372 -0.0320092 -0.0321493 -0.0322576 -0.0323351 -0.0323827 -0.0324005 -0.0323885 -0.0323466 -0.0322748 -0.0321732 -0.0320417 -0.0318794 -0.0316853 -0.0314594 -0.0312018 -0.030911 -0.0305858 -0.030226 -0.0298318 -0.0294021 -0.0289361 -0.0284337 -0.0278949 -0.0273202 -0.0267099 -0.0260639 -0.0253824 -0.0246678 -0.0239224 -0.0231462 -0.0223394 -0.0215065 -0.0206523 -0.0197768 -0.01888 -0.0179687 -0.0170495 -0.0161225 -0.0151876 -0.0142527 -0.0133257 -0.0124066 -0.0114954 -0.0105999 -0.00972784 -0.00887931 -0.00805429 -0.00725927 -0.00650076 -0.00577875 -0.00509324 -0.00444841 -0.00384843 -0.0032933 -0.00278303 -0.00231875 -0.00190164 -0.00153169 -0.0012089 -0.000930676 -0.00069441 -0.000500107 -0.000347765 -0.000230167 -0.000140094 -7.75456e-05 -4.25221e-05 -2.39187e-05 -1.06305e-05 -2.65763e-06 0 0 -6.87507e-06 -2.75003e-05 -6.18756e-05 -0.000110001 -0.000183152 -0.000292602 -0.000438353 -0.000620404 -0.00084637 -0.00112387 -0.00145289 -0.00183345 -0.00226717 -0.00275571 -0.00329906 -0.00389722 -0.00454738 -0.00524673 -0.00599528 -0.00679301 -0.00763367 -0.00851098 -0.00942495 -0.0103756 -0.0113541 -0.012352 -0.0133691 -0.0144054 -0.0154513 -0.016497 -0.0175425 -0.0185878 -0.0196239 -0.0206416 -0.0216409 -0.0226218 -0.0235773 -0.0245004 -0.0253909 -0.026249 -0.0270705 -0.0278513 -0.0285913 -0.0292905 -0.029948 -0.0305624 -0.0311339 -0.0316624 -0.0321491 -0.0325954 -0.0330013 -0.0333666 -0.0336941 -0.033986 -0.0342426 -0.0344636 -0.0346518 -0.0348095 -0.0349368 -0.0350337 -0.0351016 -0.0351421 -0.0351551 -0.0351407 -0.0350988 -0.0350293 -0.0349322 -0.0348075 -0.0346537 -0.0344693 -0.0342543 -0.0340086 -0.03373 -0.0334161 -0.033067 -0.0326826 -0.032261 -0.0318 -0.0312998 -0.0307603 -0.030181 -0.0295613 -0.0289013 -0.0282008 -0.0274619 -0.0266864 -0.0258742 -0.0250254 -0.0241447 -0.0232367 -0.0223015 -0.0213391 -0.0203567 -0.0193616 -0.0183537 -0.017333 -0.0163085 -0.0152888 -0.0142741 -0.0132643 -0.0122684 -0.0112954 -0.0103454 -0.0094183 -0.00852183 -0.00766368 -0.00684385 -0.00606235 -0.00532434 -0.00463498 -0.00399427 -0.00340221 -0.0028606 -0.00237125 -0.00193415 -0.00154931 -0.00121436 -0.000926956 -0.000687088 -0.000494759 -0.000342343 -0.000222214 -0.000134373 -7.88196e-05 -4.4336e-05 -1.97049e-05 -4.92622e-06 0 0 -1.01622e-05 -4.0649e-05 -9.14602e-05 -0.000162596 -0.000264845 -0.000408996 -0.000595049 -0.000823005 -0.0011006 -0.00143558 -0.00182794 -0.00227768 -0.00278583 -0.00335341 -0.00398043 -0.00466687 -0.00540894 -0.00620285 -0.00704859 -0.00794616 -0.00888801 -0.00986659 -0.0108819 -0.0119339 -0.0130126 -0.0141078 -0.0152195 -0.0163477 -0.0174815 -0.0186098 -0.0197327 -0.0208502 -0.0219523 -0.023029 -0.0240804 -0.0251064 -0.0260998 -0.0270533 -0.0279668 -0.0288403 -0.0296703 -0.0304529 -0.0311882 -0.0318762 -0.0325168 -0.0331099 -0.0336556 -0.0341538 -0.0346072 -0.0350184 -0.0353876 -0.0357146 -0.0360035 -0.0362581 -0.0364787 -0.036665 -0.0368208 -0.0369499 -0.0370521 -0.0371276 -0.0371783 -0.0372065 -0.0372121 -0.0371951 -0.0371553 -0.0370927 -0.0370073 -0.0368989 -0.0367655 -0.0366046 -0.0364163 -0.0362007 -0.0359541 -0.035673 -0.0353574 -0.0350073 -0.0346193 -0.03419 -0.0337192 -0.033207 -0.0326517 -0.0320512 -0.0314056 -0.030715 -0.0299803 -0.0292024 -0.0283814 -0.0275173 -0.0266146 -0.0256775 -0.0247062 -0.0237006 -0.0226684 -0.0216171 -0.0205468 -0.0194575 -0.0183588 -0.0172606 -0.0161629 -0.0150657 -0.0139791 -0.0129135 -0.0118689 -0.0108452 -0.00985149 -0.00889678 -0.00798104 -0.00710429 -0.00627283 -0.00549297 -0.00476471 -0.00408805 -0.00346561 -0.00290004 -0.00239131 -0.00193945 -0.00154253 -0.00119866 -0.00090783 -0.000670039 -0.000477445 -0.000322198 -0.0002043 -0.000123751 -6.96097e-05 -3.09376e-05 -7.73441e-06 0 0 -1.40927e-05 -5.63707e-05 -0.000126834 -0.000225483 -0.000362104 -0.000546483 -0.00077862 -0.00105852 -0.00139376 -0.00179195 -0.00225308 -0.00277714 -0.00336427 -0.00401458 -0.00472807 -0.00550475 -0.00633957 -0.00722753 -0.00816863 -0.00916285 -0.0102012 -0.0112746 -0.0123832 -0.0135268 -0.0146939 -0.0158729 -0.0170638 -0.0182665 -0.0194689 -0.0206586 -0.0218357 -0.0230002 -0.0241413 -0.0252484 -0.0263215 -0.0273606 -0.0283583 -0.0293074 -0.0302079 -0.0310598 -0.0318602 -0.0326063 -0.0332979 -0.0339352 -0.0345196 -0.0350524 -0.0355337 -0.0359635 -0.0363463 -0.0366868 -0.0369848 -0.0372405 -0.0374596 -0.0376481 -0.0378059 -0.0379331 -0.0380349 -0.0381164 -0.0381776 -0.0382186 -0.0382422 -0.0382513 -0.0382459 -0.038226 -0.0381915 -0.0381419 -0.0380774 -0.037998 -0.0379004 -0.0377814 -0.037641 -0.0374792 -0.0372909 -0.0370709 -0.0368193 -0.036536 -0.0362157 -0.0358531 -0.0354482 -0.035001 -0.0345078 -0.033965 -0.0333727 -0.0327307 -0.0320389 -0.0312968 -0.0305045 -0.0296619 -0.0287729 -0.0278413 -0.0268671 -0.0258503 -0.0247986 -0.0237199 -0.0226141 -0.0214813 -0.020332 -0.0191768 -0.0180157 -0.0168487 -0.0156874 -0.0145432 -0.0134163 -0.0123065 -0.0112243 -0.0101802 -0.00917416 -0.00820618 -0.0072839 -0.00641496 -0.00559935 -0.00483708 -0.00413182 -0.00348726 -0.00290338 -0.0023802 -0.00191651 -0.00151113 -0.00116405 -0.000875277 -0.000636979 -0.000441336 -0.000288348 -0.000178014 -0.000100133 -4.45034e-05 -1.11259e-05 0 0 -1.86664e-05 -7.46655e-05 -0.000167997 -0.000298662 -0.000474928 -0.000705063 -0.000989066 -0.00132694 -0.00172585 -0.00219297 -0.00272829 -0.00333182 -0.00400249 -0.00473921 -0.005542 -0.00641084 -0.00733927 -0.00832078 -0.00935539 -0.0104431 -0.0115732 -0.0127351 -0.0139287 -0.0151542 -0.0163981 -0.0176473 -0.0189019 -0.0201618 -0.0214134 -0.0226432 -0.0238513 -0.0250377 -0.0261909 -0.0272998 -0.0283642 -0.0293842 -0.0303528 -0.0312628 -0.0321144 -0.0329075 -0.0336404 -0.0343114 -0.0349205 -0.0354677 -0.0359564 -0.03639 -0.0367684 -0.0370916 -0.0373667 -0.0376005 -0.037793 -0.0379443 -0.0380625 -0.0381559 -0.0382244 -0.0382681 -0.0382939 -0.038309 -0.0383132 -0.0383066 -0.0382931 -0.0382764 -0.0382566 -0.0382337 -0.0382072 -0.0381769 -0.0381428 -0.0381048 -0.0380585 -0.0379997 -0.0379282 -0.0378441 -0.0377404 -0.0376099 -0.0374526 -0.0372686 -0.0370501 -0.0367895 -0.0364869 -0.0361421 -0.0357494 -0.0353028 -0.0348023 -0.034248 -0.0336378 -0.0329696 -0.0322433 -0.0314591 -0.0306197 -0.0297281 -0.0287842 -0.027788 -0.0267473 -0.0256698 -0.0245555 -0.0234044 -0.0222279 -0.0210372 -0.0198324 -0.0186135 -0.0173933 -0.0161847 -0.0149876 -0.0138022 -0.0126403 -0.011514 -0.0104232 -0.00936801 -0.00835755 -0.00740094 -0.0064982 -0.00564931 -0.00485923 -0.00413292 -0.00347036 -0.00287156 -0.0023363 -0.00186437 -0.00145576 -0.00111047 -0.000820947 -0.000579629 -0.000386517 -0.000241609 -0.000135905 -6.04023e-05 -1.51006e-05 0 0 -2.38834e-05 -9.55334e-05 -0.00021495 -0.000382134 -0.000603317 -0.000884735 -0.00122639 -0.00162827 -0.00209687 -0.00263864 -0.00325359 -0.00394172 -0.00470048 -0.00552731 -0.0064222 -0.00738517 -0.00840802 -0.00948259 -0.0106089 -0.0117869 -0.0130041 -0.014248 -0.0155186 -0.016816 -0.0181252 -0.0194311 -0.0207339 -0.0220335 -0.023315 -0.0245638 -0.0257797 -0.0269628 -0.0281012 -0.0291831 -0.0302085 -0.0311774 -0.0320833 -0.0329195 -0.0336862 -0.0343833 -0.0350107 -0.0355682 -0.0360558 -0.0364736 -0.0368272 -0.0371225 -0.0373595 -0.0375381 -0.0376682 -0.0377595 -0.0378122 -0.037826 -0.0378121 -0.0377815 -0.037734 -0.0376698 -0.037598 -0.0375277 -0.037459 -0.0373918 -0.0373312 -0.037282 -0.0372442 -0.0372179 -0.0372026 -0.0371977 -0.0372032 -0.0372192 -0.0372398 -0.0372595 -0.037278 -0.0372956 -0.0373027 -0.0372899 -0.0372574 -0.0372051 -0.0371225 -0.0369992 -0.0368352 -0.0366305 -0.0363764 -0.0360645 -0.0356947 -0.0352669 -0.034777 -0.0342207 -0.033598 -0.0329089 -0.032155 -0.0313378 -0.0304575 -0.0295139 -0.0285146 -0.027467 -0.0263711 -0.025227 -0.0240466 -0.0228419 -0.0216131 -0.02036 -0.0190968 -0.0178378 -0.016583 -0.0153323 -0.0140994 -0.012898 -0.0117282 -0.0105898 -0.00949377 -0.00845091 -0.00746123 -0.00652473 -0.00564784 -0.00483701 -0.00409224 -0.00341353 -0.0028019 -0.00225837 -0.00178294 -0.00137562 -0.00102935 -0.000737077 -0.000498806 -0.000314537 -0.000176927 -7.86343e-05 -1.96586e-05 0 0 -2.97156e-05 -0.000118863 -0.000267441 -0.00047545 -0.000746555 -0.00108442 -0.00148904 -0.00196043 -0.00250404 -0.00312534 -0.00382433 -0.00460101 -0.00545102 -0.00636999 -0.00735792 -0.00841482 -0.00953053 -0.0106949 -0.011908 -0.0131697 -0.0144656 -0.0157812 -0.0171163 -0.0184711 -0.0198288 -0.0211724 -0.0225021 -0.0238178 -0.0251035 -0.026343 -0.0275363 -0.0286835 -0.0297723 -0.0307905 -0.0317382 -0.0326153 -0.0334161 -0.0341349 -0.0347716 -0.0353264 -0.0358009 -0.0361971 -0.036515 -0.0367546 -0.0369246 -0.0370336 -0.0370818 -0.0370691 -0.0370087 -0.0369138 -0.0367845 -0.0366208 -0.0364368 -0.0362469 -0.0360511 -0.0358493 -0.0356534 -0.0354749 -0.0353139 -0.0351704 -0.0350506 -0.0349607 -0.0349009 -0.034871 -0.0348704 -0.0348985 -0.0349551 -0.0350403 -0.0351468 -0.0352672 -0.0354015 -0.0355496 -0.0356996 -0.0358393 -0.0359686 -0.0360876 -0.0361826 -0.0362397 -0.036259 -0.0362405 -0.0361723 -0.0360424 -0.035851 -0.0355979 -0.0352763 -0.0348793 -0.0344068 -0.0338588 -0.0332352 -0.032536 -0.0317612 -0.0309107 -0.0299914 -0.0290105 -0.0279678 -0.0268633 -0.0257097 -0.0245195 -0.0232927 -0.0220294 -0.020745 -0.0194552 -0.0181599 -0.0168592 -0.0155685 -0.0143033 -0.0130637 -0.0118495 -0.0106736 -0.00954875 -0.00847483 -0.0074519 -0.00648813 -0.00559174 -0.00476271 -0.00400104 -0.0033093 -0.00269004 -0.00214326 -0.00166897 -0.0012609 -0.000912785 -0.00062463 -0.000396434 -0.000222994 -9.91085e-05 -2.47771e-05 0 0 -3.61353e-05 -0.000144541 -0.000325218 -0.000578165 -0.000903924 -0.00130304 -0.0017755 -0.00232132 -0.00294459 -0.00364944 -0.00443586 -0.00530385 -0.00624687 -0.00725838 -0.00833838 -0.00948688 -0.0106915 -0.0119397 -0.0132317 -0.0145673 -0.0159299 -0.0173026 -0.0186854 -0.0200783 -0.0214626 -0.0228195 -0.024149 -0.0254511 -0.0267085 -0.0279037 -0.0290369 -0.0301079 -0.0311044 -0.0320141 -0.032837 -0.033573 -0.0342176 -0.0347662 -0.0352189 -0.0355756 -0.0358407 -0.0360186 -0.0361092 -0.0361126 -0.0360411 -0.035907 -0.0357102 -0.0354508 -0.0351461 -0.0348133 -0.0344524 -0.0340635 -0.0336647 -0.0332742 -0.0328918 -0.0325178 -0.0321666 -0.031853 -0.031577 -0.0313386 -0.0311456 -0.0310056 -0.0309188 -0.0308851 -0.0309037 -0.0309735 -0.0310947 -0.0312672 -0.0314818 -0.0317292 -0.0320095 -0.0323226 -0.0326532 -0.0329861 -0.0333211 -0.0336584 -0.0339802 -0.0342688 -0.0345243 -0.0347467 -0.0349201 -0.0350287 -0.0350725 -0.0350515 -0.0349555 -0.0347743 -0.0345079 -0.0341562 -0.0337171 -0.0331881 -0.0325695 -0.0318611 -0.0310691 -0.0301995 -0.0292525 -0.028228 -0.027139 -0.0259985 -0.0248064 -0.0235629 -0.0222849 -0.0209893 -0.0196761 -0.0183453 -0.0170143 -0.0157007 -0.0144043 -0.0131252 -0.0118783 -0.0106783 -0.00952535 -0.00841938 -0.00737062 -0.00638931 -0.00547545 -0.00462903 -0.00385449 -0.00315627 -0.00253435 -0.00198876 -0.00151431 -0.00110586 -0.000763401 -0.000486936 -0.000273902 -0.000121734 -3.04335e-05 0 0 -4.31424e-05 -0.00017257 -0.000388281 -0.000690278 -0.00107542 -0.00154058 -0.00208575 -0.00271093 -0.00341853 -0.00421095 -0.00508818 -0.00605023 -0.00708802 -0.00819247 -0.00936359 -0.0106014 -0.0118908 -0.013217 -0.01458 -0.0159796 -0.0173968 -0.0188121 -0.0202257 -0.0216375 -0.0230266 -0.0243723 -0.0256745 -0.0269333 -0.02813 -0.029246 -0.0302814 -0.031236 -0.0320977 -0.032854 -0.033505 -0.0340505 -0.0344877 -0.0348135 -0.0350279 -0.0351309 -0.03513 -0.0350324 -0.0348383 -0.0345476 -0.0341769 -0.0337426 -0.0332447 -0.0326832 -0.0320803 -0.0314578 -0.0308158 -0.0301543 -0.0294959 -0.0288632 -0.0282563 -0.027675 -0.0271376 -0.026662 -0.0262484 -0.0258966 -0.0256162 -0.0254166 -0.025298 -0.0252603 -0.0253023 -0.0254229 -0.0256221 -0.0258999 -0.0262449 -0.0266456 -0.0271021 -0.0276144 -0.0281635 -0.0287303 -0.0293149 -0.0299173 -0.0305152 -0.0310865 -0.0316311 -0.0321491 -0.0326199 -0.0330233 -0.0333593 -0.0336277 -0.0338146 -0.0339058 -0.0339013 -0.0338012 -0.0336004 -0.0332942 -0.0328824 -0.0323652 -0.0317474 -0.0310342 -0.0302253 -0.029321 -0.0283343 -0.0272788 -0.0261542 -0.0249607 -0.0237165 -0.0224401 -0.0211315 -0.0197906 -0.018437 -0.0170902 -0.0157501 -0.0144169 -0.0131076 -0.0118396 -0.0106128 -0.00942716 -0.0082953 -0.00722973 -0.00623047 -0.0052975 -0.00443748 -0.00365706 -0.00295622 -0.00233498 -0.00178959 -0.0013163 -0.000915119 -0.000586044 -0.00032965 -0.000146511 -3.66277e-05 0 0 -5.07368e-05 -0.000202947 -0.000456632 -0.000811789 -0.00126105 -0.00179706 -0.0024198 -0.00312928 -0.00392585 -0.00480986 -0.00578129 -0.00684016 -0.00797449 -0.00917228 -0.0104335 -0.0117583 -0.0131287 -0.0145268 -0.0159528 -0.0174067 -0.0188663 -0.0203099 -0.0217373 -0.0231487 -0.0245208 -0.0258308 -0.0270787 -0.0282643 -0.029368 -0.0303698 -0.0312697 -0.0320679 -0.0327521 -0.0333101 -0.0337421 -0.0340479 -0.0342266 -0.0342769 -0.0341989 -0.0339925 -0.0336688 -0.0332388 -0.0327024 -0.0320596 -0.0313318 -0.0305403 -0.0296852 -0.0287664 -0.0278113 -0.0268474 -0.0258747 -0.0248931 -0.0239304 -0.0230141 -0.0221444 -0.0213212 -0.0205664 -0.019902 -0.0193279 -0.0188442 -0.0184624 -0.0181938 -0.0180385 -0.0179964 -0.0180662 -0.0182465 -0.0185372 -0.0189383 -0.019436 -0.0200163 -0.0206794 -0.0214252 -0.0222304 -0.0230721 -0.0239501 -0.0248644 -0.0257878 -0.0266927 -0.0275793 -0.0284476 -0.0292718 -0.0300264 -0.0307113 -0.0313266 -0.0318536 -0.0322738 -0.0325871 -0.0327937 -0.0328853 -0.0328541 -0.0327 -0.032423 -0.0320266 -0.0315143 -0.0308862 -0.0301423 -0.0292958 -0.0283604 -0.027336 -0.0262225 -0.0250399 -0.0238077 -0.0225262 -0.0211951 -0.0198364 -0.0184717 -0.0171011 -0.0157245 -0.0143618 -0.0130326 -0.0117371 -0.0104753 -0.00926216 -0.00811299 -0.00702776 -0.00600645 -0.00505828 -0.00419241 -0.00340887 -0.00270765 -0.00208673 -0.0015441