<?xml version="1.0"?> 
<VTKFile type="StructuredGrid" version="0.1"> 
<StructuredGrid WholeExtent="0 128 0 128 0 0"> 
<Piece Extent="0 128 0 128 0 0"> 
<PointData>
<DataArray type="Float32" Name="u" format="ascii" NumberOfComponents="1"> 
0 0 0 0 0 0 0 0 0 0 0 0 0 0 0 0 0 0 0 0 0 0 0 0 0 0 0 0 0 0 0 0 0 0 0 0 0 0 0 0 0 0 0 0 0 0 0 0 0 0 0 0 0 0 0 0 0 0 0 0 0 0 0 0 0 0 0 0 0 0 0 0 0 0 0 0 0 0 0 0 0 0 0 0 0 0 0 0 0 0 0 0 0 0 0 0 0 0 0 0 0 0 0 0 0 0 0 0 0 0 0 0 0 0 0 0 0 0 0 0 0 0 0 0 0 0 0 0 0 0 -1.13852e-07 -4.55409e-07 -1.02467e-06 -1.82164e-06 -2.97406e-06 -4.60971e-06 -6.72857e-06 -9.33064e-06 -1.24767e-05 -1.62276e-05 -2.05832e-05 -2.55437e-05 -3.10962e-05 -3.72282e-05 -4.39397e-05 -5.12306e-05 -5.90545e-05 -6.7365e-05 -7.6162e-05 -8.54455e-05 -9.51463e-05 -0.000105195 -0.000115592 -0.000126338 -0.000137345 -0.000148527 -0.000159884 -0.000171416 -0.000183029 -0.000194628 -0.000206212 -0.000217783 -0.000229249 -0.000240522 -0.000251601 -0.000262486 -0.000273105 -0.000283385 -0.000293326 -0.00030293 -0.000312148 -0.000320936 -0.000329294 -0.000337221 -0.000344701 -0.000351716 -0.000358266 -0.000364351 -0.000369978 -0.000375153 -0.000379878 -0.00038415 -0.000387993 -0.000391425 -0.000394447 -0.000397059 -0.000399283 -0.000401143 -0.000402637 -0.000403766 -0.000404544 -0.000404984 -0.000405087 -0.000404853 -0.000404282 -0.000403373 -0.000402126 -0.000400542 -0.000398606 -0.000396307 -0.000393643 -0.000390615 -0.000387204 -0.00038339 -0.000379172 -0.000374552 -0.000369514 -0.000364043 -0.00035814 -0.000351805 -0.000345039 -0.000337844 -0.000330219 -0.000322164 -0.000313706 -0.000304869 -0.000295655 -0.000286062 -0.000276144 -0.000265953 -0.000255489 -0.000244752 -0.000233818 -0.00022276 -0.000211581 -0.000200278 -0.000188941 -0.000177657 -0.000166426 -0.000155248 -0.000144211 -0.000133402 -0.000122821 -0.000112469 -0.000102421 -9.27528e-05 -8.34639e-05 -7.45547e-05 -6.60808e-05 -5.80978e-05 -5.06059e-05 -4.36049e-05 -3.71266e-05 -3.12026e-05 -2.58328e-05 -2.10173e-05 -1.67546e-05 -1.30433e-05 -9.88329e-06 -7.27462e-06 -5.15172e-06 -3.44904e-06 -2.16657e-06 -1.30431e-06 -7.33672e-07 -3.26076e-07 -8.15191e-08 0 0 -4.55409e-07 -1.82164e-06 -4.09868e-06 -7.28654e-06 -1.18962e-05 -1.84388e-05 -2.69143e-05 -3.73226e-05 -4.99069e-05 -6.49103e-05 -8.23329e-05 -0.000102175 -0.000124385 -0.000148913 -0.000175759 -0.000204922 -0.000236218 -0.00026946 -0.000304648 -0.000341782 -0.000380585 -0.000420781 -0.00046237 -0.000505351 -0.000549378 -0.000594107 -0.000639535 -0.000685665 -0.000732116 -0.000778511 -0.000824849 -0.000871132 -0.000916998 -0.000962089 -0.0010064 -0.00104994 -0.00109242 -0.00113354 -0.00117331 -0.00121172 -0.00124859 -0.00128374 -0.00131718 -0.00134889 -0.0013788 -0.00140686 -0.00143306 -0.0014574 -0.00147991 -0.00150061 -0.00151951 -0.0015366 -0.00155197 -0.0015657 -0.00157779 -0.00158824 -0.00159713 -0.00160457 -0.00161055 -0.00161506 -0.00161817 -0.00161994 -0.00162035 -0.00161941 -0.00161713 -0.00161349 -0.0016085 -0.00160217 -0.00159443 -0.00158523 -0.00157457 -0.00156246 -0.00154882 -0.00153356 -0.00151669 -0.00149821 -0.00147805 -0.00145617 -0.00143256 -0.00140722 -0.00138016 -0.00135138 -0.00132087 -0.00128866 -0.00125482 -0.00121948 -0.00118262 -0.00114425 -0.00110458 -0.00106381 -0.00102196 -0.000979009 -0.00093527 -0.000891042 -0.000846323 -0.000801113 -0.000755765 -0.000710629 -0.000665704 -0.000620993 -0.000576843 -0.000533608 -0.000491286 -0.000449877 -0.000409685 -0.000371011 -0.000333856 -0.000298219 -0.000264323 -0.000232391 -0.000202424 -0.00017442 -0.000148506 -0.00012481 -0.000103331 -8.40693e-05 -6.70186e-05 -5.21732e-05 -3.95332e-05 -2.90985e-05 -2.06069e-05 -1.37962e-05 -8.66626e-06 -5.21722e-06 -2.93469e-06 -1.30431e-06 -3.26076e-07 0 0 -1.02467e-06 -4.09868e-06 -9.22203e-06 -1.63947e-05 -2.67666e-05 -4.14873e-05 -6.05571e-05 -8.39758e-05 -0.00011229 -0.000146048 -0.000185249 -0.000229893 -0.000279866 -0.000335054 -0.000395457 -0.000461075 -0.000531491 -0.000606285 -0.000685458 -0.000769009 -0.000856317 -0.000946758 -0.00104033 -0.00113704 -0.0012361 -0.00133674 -0.00143895 -0.00154275 -0.00164726 -0.00175165 -0.00185591 -0.00196005 -0.00206325 -0.0021647 -0.00226441 -0.00236237 -0.00245794 -0.00255046 -0.00263994 -0.00272637 -0.00280933 -0.00288843 -0.00296365 -0.00303499 -0.00310231 -0.00316544 -0.00322439 -0.00327916 -0.0033298 -0.00337638 -0.0034189 -0.00345735 -0.00349193 -0.00352282 -0.00355002 -0.00357353 -0.00359355 -0.00361028 -0.00362373 -0.00363389 -0.00364089 -0.00364486 -0.00364579 -0.00364368 -0.00363854 -0.00363036 -0.00361913 -0.00360488 -0.00358746 -0.00356676 -0.00354279 -0.00351554 -0.00348484 -0.00345051 -0.00341255 -0.00337097 -0.00332562 -0.00327639 -0.00322326 -0.00316625 -0.00310535 -0.00304059 -0.00297197 -0.00289948 -0.00282335 -0.00274382 -0.00266089 -0.00257456 -0.0024853 -0.00239358 -0.0022994 -0.00220277 -0.00210436 -0.00200484 -0.00190423 -0.00180251 -0.00170047 -0.00159891 -0.00149783 -0.00139723 -0.0012979 -0.00120062 -0.00110539 -0.00101222 -0.000921791 -0.000834775 -0.000751175 -0.000670992 -0.000594727 -0.00052288 -0.000455453 -0.000392444 -0.000334139 -0.000280823 -0.000232495 -0.000189156 -0.000150792 -0.00011739 -8.89496e-05 -6.54716e-05 -4.63655e-05 -3.10413e-05 -1.94991e-05 -1.17388e-05 -6.60305e-06 -2.93469e-06 -7.33672e-07 0 0 -1.82164e-06 -7.28654e-06 -1.63947e-05 -2.91462e-05 -4.7585e-05 -7.37553e-05 -0.000107657 -0.00014929 -0.000199628 -0.000259641 -0.000329332 -0.000408698 -0.000497539 -0.000595651 -0.000703035 -0.00081969 -0.000944872 -0.00107784 -0.00121859 -0.00136713 -0.00152234 -0.00168312 -0.00184948 -0.0020214 -0.00219751 -0.00237643 -0.00255814 -0.00274266 -0.00292846 -0.00311404 -0.0032994 -0.00348453 -0.00366799 -0.00384835 -0.00402562 -0.00419978 -0.00436967 -0.00453416 -0.00469322 -0.00484687 -0.00499437 -0.00513498 -0.0052687 -0.00539554 -0.00551521 -0.00562745 -0.00573225 -0.00582961 -0.00591964 -0.00600245 -0.00607804 -0.00614641 -0.00620788 -0.0062628 -0.00631115 -0.00635294 -0.00638853 -0.00641828 -0.00644219 -0.00646025 -0.0064727 -0.00647975 -0.0064814 -0.00647765 -0.00646851 -0.00645396 -0.00643402 -0.00640867 -0.0063777 -0.00634091 -0.00629829 -0.00624985 -0.00619527 -0.00613423 -0.00606676 -0.00599283 -0.00591222 -0.00582469 -0.00573025 -0.00562889 -0.00552063 -0.0054055 -0.0052835 -0.00515462 -0.00501929 -0.00487791 -0.00473047 -0.00457699 -0.0044183 -0.00425525 -0.00408782 -0.00391604 -0.00374108 -0.00356417 -0.00338529 -0.00320445 -0.00302306 -0.00284251 -0.00266282 -0.00248397 -0.00230737 -0.00213443 -0.00196514 -0.00179951 -0.00163874 -0.00148404 -0.00133542 -0.00119287 -0.00105729 -0.000929565 -0.000809694 -0.000697679 -0.000594026 -0.000499241 -0.000413325 -0.000336277 -0.000268074 -0.000208693 -0.000158133 -0.000116394 -8.24276e-05 -5.51846e-05 -3.4665e-05 -2.08689e-05 -1.17388e-05 -5.21722e-06 -1.30431e-06 0 0 -2.97744e-06 -1.19098e-05 -2.6797e-05 -4.7639e-05 -7.73671e-05 -0.000118912 -0.000172274 -0.000237453 -0.000315882 -0.000408992 -0.000516783 -0.000639256 -0.000776062 -0.000926852 -0.00109163 -0.00127038 -0.00146196 -0.00166519 -0.00188008 -0.00210662 -0.0023431 -0.0025878 -0.00284074 -0.0031019 -0.00336916 -0.0036404 -0.00391562 -0.00419482 -0.00447568 -0.0047559 -0.00503549 -0.00531444 -0.00559058 -0.00586173 -0.00612789 -0.00638907 -0.00664354 -0.00688957 -0.00712715 -0.0073563 -0.00757595 -0.00778502 -0.00798352 -0.00817145 -0.00834845 -0.00851417 -0.00866861 -0.00881177 -0.00894388 -0.00906517 -0.00917564 -0.0092753 -0.00936471 -0.00944443 -0.00951446 -0.00957481 -0.00962606 -0.00966882 -0.00970307 -0.00972882 -0.00974643 -0.00975626 -0.00975832 -0.0097526 -0.00973909 -0.00971779 -0.0096887 -0.00965181 -0.00960678 -0.00955324 -0.00949121 -0.00942067 -0.00934111 -0.009252 -0.00915334 -0.00904514 -0.00892697 -0.0087984 -0.00865945 -0.00851011 -0.00835034 -0.00818012 -0.00799944 -0.00780831 -0.00760729 -0.00739695 -0.00717728 -0.0069483 -0.00671122 -0.00646729 -0.00621651 -0.00595887 -0.00569618 -0.00543024 -0.00516105 -0.00488861 -0.00461506 -0.0043425 -0.00407096 -0.00380043 -0.00353305 -0.00327096 -0.00301417 -0.00276268 -0.00251834 -0.00228302 -0.00205672 -0.00183944 -0.00163256 -0.00143748 -0.00125418 -0.00108267 -0.000923745 -0.000778216 -0.000646079 -0.000527334 -0.000421982 -0.000330024 -0.000251459 -0.000186288 -0.000132956 -8.99092e-05 -5.71471e-05 -3.46698e-05 -1.95018e-05 -8.66745e-06 -2.16686e-06 0 0 -4.62321e-06 -1.84929e-05 -4.16089e-05 -7.39714e-05 -0.000119128 -0.000180627 -0.000258469 -0.000352652 -0.000465017 -0.000597402 -0.000749807 -0.000922232 -0.00111409 -0.0013248 -0.00155436 -0.00180277 -0.00206835 -0.0023494 -0.00264594 -0.00295795 -0.00328302 -0.00361871 -0.00396504 -0.00432199 -0.0046866 -0.00505591 -0.00542992 -0.00580863 -0.00618886 -0.00656745 -0.00694438 -0.00731966 -0.00769034 -0.00805349 -0.00840911 -0.00875719 -0.00909546 -0.00942164 -0.00973572 -0.0100377 -0.0103263 -0.0106002 -0.0108593 -0.0111036 -0.0113329 -0.0115469 -0.0117454 -0.0119286 -0.0120969 -0.0122509 -0.0123904 -0.0125156 -0.0126273 -0.0127265 -0.0128133 -0.0128875 -0.0129501 -0.0130021 -0.0130435 -0.0130743 -0.0130949 -0.0131061 -0.0131077 -0.0130998 -0.0130823 -0.0130553 -0.0130187 -0.0129726 -0.0129163 -0.0128493 -0.0127717 -0.0126833 -0.0125834 -0.0124711 -0.0123464 -0.0122092 -0.012059 -0.0118948 -0.0117168 -0.0115249 -0.0113188 -0.0110985 -0.0108638 -0.0106147 -0.010352 -0.0100762 -0.00978724 -0.00948522 -0.00917167 -0.00884818 -0.00851474 -0.00817135 -0.0078204 -0.0074643 -0.00710305 -0.00673665 -0.00636798 -0.00599996 -0.00563258 -0.00526584 -0.00490271 -0.00454613 -0.00419612 -0.00385267 -0.00351839 -0.0031959 -0.00288519 -0.00258626 -0.00230109 -0.00203164 -0.00177793 -0.00153995 -0.00131888 -0.0011159 -0.000931017 -0.000764228 -0.000615631 -0.000485323 -0.000373305 -0.000279576 -0.000202114 -0.000138898 -8.99282e-05 -5.52036e-05 -3.1052e-05 -1.38009e-05 -3.45023e-06 0 0 -6.75896e-06 -2.70358e-05 -6.08306e-05 -0.000108143 -0.000172869 -0.000258901 -0.00036624 -0.000494886 -0.000647032 -0.000824871 -0.0010284 -0.00125762 -0.00151163 -0.0017895 -0.00209125 -0.00241686 -0.00276404 -0.00313048 -0.00351618 -0.00392114 -0.00434211 -0.00477586 -0.00522237 -0.00568166 -0.00614982 -0.00662295 -0.00710104 -0.0075841 -0.00806802 -0.00854867 -0.00902605 -0.00950018 -0.00996729 -0.0104237 -0.0108693 -0.0113041 -0.0117254 -0.0121304 -0.0125189 -0.0128911 -0.0132454 -0.0135804 -0.0138959 -0.0141921 -0.0144687 -0.0147256 -0.0149627 -0.0151802 -0.0153788 -0.0155595 -0.0157223 -0.0158672 -0.0159957 -0.0161091 -0.0162075 -0.0162909 -0.0163607 -0.0164182 -0.0164635 -0.0164966 -0.0165182 -0.0165291 -0.0165295 -0.0165192 -0.0164982 -0.0164665 -0.0164241 -0.016371 -0.0163063 -0.0162291 -0.0161396 -0.0160377 -0.0159221 -0.0157914 -0.0156458 -0.0154851 -0.0153083 -0.015114 -0.0149023 -0.0146732 -0.0144261 -0.0141606 -0.0138765 -0.0135739 -0.0132534 -0.0129156 -0.0125603 -0.0121878 -0.0117997 -0.0113979 -0.0109825 -0.0105535 -0.0101137 -0.00966635 -0.00921128 -0.00874855 -0.00828184 -0.00781489 -0.00734767 -0.00688021 -0.00641634 -0.00595993 -0.00551098 -0.00506949 -0.00463891 -0.00422269 -0.00382083 -0.00343334 -0.00306286 -0.00271207 -0.00238096 -0.00206952 -0.00177942 -0.00151229 -0.00126814 -0.00104696 -0.000849021 -0.000674592 -0.000523671 -0.000396258 -0.000289902 -0.000202152 -0.000133008 -8.24703e-05 -4.63896e-05 -2.06176e-05 -5.1544e-06 0 0 -9.38468e-06 -3.75387e-05 -8.44621e-05 -0.000150155 -0.000238588 -0.000353733 -0.000495589 -0.000664157 -0.000861929 -0.0010914 -0.00135257 -0.00164544 -0.00196867 -0.00232095 -0.00270228 -0.00311265 -0.00354904 -0.00400842 -0.0044908 -0.00499617 -0.00552037 -0.00605923 -0.00661275 -0.00718093 -0.00775883 -0.00834152 -0.00892898 -0.00952124 -0.0101131 -0.0106996 -0.0112805 -0.011856 -0.0124214 -0.0129722 -0.0135084 -0.0140299 -0.0145335 -0.0150158 -0.0154768 -0.0159165 -0.0163334 -0.0167257 -0.0170935 -0.0174368 -0.0177557 -0.0180502 -0.0183205 -0.0185664 -0.0187895 -0.0189912 -0.0191714 -0.0193303 -0.0194698 -0.0195922 -0.0196973 -0.0197852 -0.0198578 -0.0199171 -0.0199631 -0.0199958 -0.0200162 -0.0200255 -0.0200237 -0.0200108 -0.0199867 -0.0199514 -0.0199048 -0.0198469 -0.0197767 -0.0196927 -0.0195951 -0.0194839 -0.0193572 -0.0192131 -0.0190517 -0.0188728 -0.0186749 -0.0184559 -0.018216 -0.0179551 -0.0176722 -0.0173664 -0.0170376 -0.0166858 -0.0163115 -0.0159151 -0.0154966 -0.0150559 -0.0145952 -0.0141165 -0.0136198 -0.0131052 -0.0125762 -0.0120364 -0.0114858 -0.0109243 -0.0103566 -0.00978728 -0.00921624 -0.00864352 -0.00807395 -0.00751237 -0.00695876 -0.00641313 -0.00587988 -0.00536338 -0.00486364 -0.00438067 -0.00391789 -0.00347875 -0.00306325 -0.0026714 -0.00230538 -0.00196739 -0.00165744 -0.00137553 -0.00112215 -0.000897829 -0.000702556 -0.000536334 -0.00039632 -0.000279671 -0.000186388 -0.00011647 -6.55143e-05 -2.91175e-05 -7.27937e-06 0 0 -1.25571e-05 -5.02285e-05 -0.000113014 -0.000200914 -0.000317618 -0.000466817 -0.00064851 -0.000862697 -0.00111205 -0.00139926 -0.0017243 -0.0020872 -0.00248605 -0.00291897 -0.00338597 -0.00388705 -0.00441833 -0.00497593 -0.00555987 -0.00617013 -0.00680151 -0.0074488 -0.008112 -0.00879111 -0.00948007 -0.0101728 -0.0108693 -0.0115696 -0.0122674 -0.0129567 -0.0136373 -0.0143093 -0.0149673 -0.0156059 -0.016225 -0.0168248 -0.0174014 -0.017951 -0.0184738 -0.0189696 -0.0194369 -0.0198741 -0.0202811 -0.0206581 -0.0210056 -0.0213241 -0.0216137 -0.0218743 -0.0221081 -0.0223175 -0.0225023 -0.0226627 -0.0228014 -0.0229216 -0.0230231 -0.023106 -0.023173 -0.0232267 -0.0232671 -0.0232942 -0.0233094 -0.0233144 -0.0233091 -0.0232934 -0.0232673 -0.0232307 -0.0231836 -0.0231259 -0.023056 -0.0229723 -0.0228748 -0.0227634 -0.0226356 -0.0224888 -0.0223229 -0.0221381 -0.0219316 -0.0217008 -0.0214459 -0.0211666 -0.0208614 -0.0205287 -0.0201684 -0.0197805 -0.0193652 -0.0189224 -0.0184523 -0.0179547 -0.017432 -0.0168862 -0.0163173 -0.0157254 -0.0151146 -0.0144889 -0.0138485 -0.0131932 -0.0125285 -0.0118599 -0.0111873 -0.0105107 -0.00983606 -0.00916916 -0.00851002 -0.00785865 -0.00722047 -0.00660089 -0.00599993 -0.00541758 -0.00485816 -0.00432603 -0.00382118 -0.0033436 -0.00289616 -0.00248173 -0.0021003 -0.00175186 -0.00143731 -0.0011575 -0.000912431 -0.000702111 -0.0005234 -0.000373162 -0.000251398 -0.000158108 -8.89355e-05 -3.95269e-05 -9.88173e-06 0 0 -1.63331e-05 -6.53323e-05 -0.000146998 -0.000261329 -0.000411291 -0.000599847 -0.000826998 -0.00109274 -0.00139976 -0.00175071 -0.0021456 -0.00258444 -0.00306458 -0.00358338 -0.00414085 -0.00473698 -0.0053669 -0.00602572 -0.00671345 -0.00743008 -0.00816924 -0.00892454 -0.00969597 -0.0104835 -0.01128 -0.012078 -0.0128775 -0.0136786 -0.0144741 -0.0152565 -0.0160259 -0.0167823 -0.0175195 -0.0182314 -0.018918 -0.0195792 -0.020211 -0.0208094 -0.0213744 -0.0219059 -0.0224027 -0.0228634 -0.0232879 -0.0236764 -0.0240302 -0.0243504 -0.0246373 -0.0248906 -0.0251139 -0.0253102 -0.0254797 -0.0256223 -0.0257421 -0.0258432 -0.0259255 -0.0259892 -0.0260378 -0.0260748 -0.0261002 -0.0261141 -0.0261184 -0.0261151 -0.0261042 -0.0260857 -0.0260595 -0.0260253 -0.0259832 -0.0259331 -0.0258728 -0.0258002 -0.0257151 -0.0256176 -0.0255041 -0.0253711 -0.0252186 -0.0250466 -0.0248513 -0.0246291 -0.0243799 -0.0241038 -0.0237982 -0.0234603 -0.0230903 -0.0226881 -0.0222532 -0.0217851 -0.0212838 -0.0207493 -0.0201837 -0.0195891 -0.0189655 -0.0183128 -0.0176357 -0.0169385 -0.0162214 -0.0154844 -0.0147336 -0.0139754 -0.0132098 -0.0124367 -0.0116632 -0.010896 -0.0101353 -0.0093811 -0.00863985 -0.00791815 -0.00721599 -0.00653339 -0.00587569 -0.00524826 -0.00465108 -0.00408417 -0.00355119 -0.00305582 -0.00259806 -0.00217791 -0.00179677 -0.00145606 -0.00115577 -0.000895896 -0.000673176 -0.000484334 -0.000329372 -0.000208288 -0.000117162 -5.20721e-05 -1.3018e-05 0 0 -2.07125e-05 -8.28501e-05 -0.000186413 -0.0003314 -0.000519606 -0.000752824 -0.00103105 -0.0013543 -0.00172503 -0.00214576 -0.00261647 -0.00313716 -0.00370426 -0.00431417 -0.0049669 -0.00566244 -0.00639475 -0.00715779 -0.00795155 -0.00877604 -0.00962356 -0.0104864 -0.0113647 -0.0122582 -0.0131585 -0.014057 -0.0149537 -0.0158485 -0.016733 -0.017599 -0.0184463 -0.0192749 -0.0200781 -0.0208488 -0.0215871 -0.022293 -0.0229623 -0.0235909 -0.0241786 -0.0247255 -0.0252308 -0.0256936 -0.0261139 -0.0264917 -0.0268293 -0.0271292 -0.0273913 -0.0276155 -0.0278066 -0.0279693 -0.0281034 -0.0282091 -0.0282918 -0.0283569 -0.0284046 -0.0284347 -0.0284521 -0.0284613 -0.0284625 -0.0284555 -0.028443 -0.0284275 -0.0284091 -0.0283878 -0.0283632 -0.0283351 -0.0283036 -0.0282686 -0.0282271 -0.0281763 -0.0281161 -0.0280465 -0.0279628 -0.0278602 -0.0277387 -0.0275984 -0.0274341 -0.0272407 -0.0270183 -0.0267668 -0.0264824 -0.0261612 -0.0258032 -0.0254084 -0.0249755 -0.0245031 -0.0239912 -0.0234397 -0.0228505 -0.0222254 -0.0215644 -0.0208675 -0.0201395 -0.0193852 -0.0186047 -0.0177979 -0.016972 -0.016134 -0.0152838 -0.0144216 -0.0135553 -0.012693 -0.0118347 -0.0109805 -0.010138 -0.00931513 -0.00851183 -0.00772811 -0.00697047 -0.00624542 -0.00555297 -0.0048931 -0.00427046 -0.00368967 -0.00315073 -0.00265366 -0.00220054 -0.00179351 -0.00143256 -0.00111769 -0.000845647 -0.000613187 -0.000420309 -0.000267012 -0.000150194 -6.67531e-05 -1.66883e-05 0 0 -2.56955e-05 -0.000102782 -0.000231259 -0.000411128 -0.000642564 -0.000925747 -0.00126068 -0.00164735 -0.00208789 -0.00258441 -0.0031369 -0.00374537 -0.00440509 -0.00511134 -0.00586412 -0.00666343 -0.00750189 -0.00837214 -0.00927418 -0.010208 -0.0111645 -0.0121345 -0.013118 -0.0141151 -0.0151158 -0.01611 -0.0170977 -0.0180791 -0.0190444 -0.0199842 -0.0208985 -0.0217873 -0.0226429 -0.023458 -0.0242325 -0.0249663 -0.0256554 -0.0262954 -0.0268864 -0.0274284 -0.0279213 -0.0283648 -0.028759 -0.0291039 -0.0294032 -0.0296604 -0.0298757 -0.0300489 -0.0301865 -0.0302948 -0.0303736 -0.0304232 -0.0304505 -0.0304629 -0.0304603 -0.0304426 -0.030416 -0.0303864 -0.0303539 -0.0303184 -0.0302833 -0.0302518 -0.0302238 -0.0301995 -0.0301784 -0.0301601 -0.0301448 -0.0301323 -0.0301189 -0.0301007 -0.0300778 -0.0300502 -0.0300116 -0.029956 -0.0298832 -0.0297934 -0.0296798 -0.0295356 -0.0293608 -0.0291554 -0.0289141 -0.0286313 -0.0283072 -0.0279416 -0.0275322 -0.0270764 -0.0265743 -0.0260258 -0.0254323 -0.024795 -0.0241141 -0.0233894 -0.022626 -0.0218289 -0.0209982 -0.0201338 -0.0192436 -0.0183355 -0.0174093 -0.0164652 -0.0155124 -0.01456 -0.0136081 -0.0126568 -0.011715 -0.0107919 -0.00988745 -0.00900174 -0.0081425 -0.00731754 -0.00652683 -0.0057704 -0.00505397 -0.00438328 -0.00375832 -0.00317911 -0.00264862 -0.00216986 -0.00174281 -0.00136749 -0.00104081 -0.000759722 -0.00052421 -0.000334279 -0.000188032 -8.35698e-05 -2.08925e-05 0 0 -3.12514e-05 -0.000125006 -0.000281263 -0.000500022 -0.000779378 -0.00111742 -0.00151415 -0.00196957 -0.00248519 -0.00306252 -0.00370156 -0.0044023 -0.00515865 -0.0059645 -0.00681986 -0.00772471 -0.00867017 -0.00964737 -0.0106563 -0.0116969 -0.0127586 -0.0138306 -0.014913 -0.0160056 -0.0170971 -0.018176 -0.0192423 -0.0202959 -0.0213263 -0.0223226 -0.023285 -0.0242135 -0.0250998 -0.0259359 -0.0267219 -0.0274576 -0.0281392 -0.0287625 -0.0293277 -0.0298347 -0.0302844 -0.0306776 -0.0310142 -0.0312944 -0.0315235 -0.0317067 -0.0318441 -0.0319357 -0.0319899 -0.032015 -0.032011 -0.0319779 -0.031925 -0.0318614 -0.0317872 -0.0317023 -0.0316143 -0.0315309 -0.0314521 -0.0313779 -0.0313124 -0.0312596 -0.0312195 -0.0311922 -0.0311771 -0.0311739 -0.0311824 -0.0312028 -0.0312301 -0.0312594 -0.0312909 -0.0313246 -0.0313524 -0.0313666 -0.0313672 -0.0313541 -0.0313187 -0.0312521 -0.0311543 -0.0310253 -0.0308578 -0.0306445 -0.0303853 -0.0300803 -0.0297255 -0.029317 -0.0288548 -0.0283389 -0.0277699 -0.0271483 -0.026474 -0.0257472 -0.0249729 -0.0241561 -0.0232968 -0.0223951 -0.0214594 -0.0204984 -0.0195121 -0.0185003 -0.0174737 -0.0164425 -0.0154068 -0.0143666 -0.0133324 -0.0123147 -0.0113136 -0.0103289 -0.00937005 -0.00844612 -0.00755713 -0.0067031 -0.00589104 -0.00512796 -0.00441387 -0.00374876 -0.00313672 -0.00258184 -0.0020841 -0.00164352 -0.0012574 -0.000923068 -0.000640518 -0.000409751 -0.000230485 -0.000102438 -2.56094e-05 0 0 -3.73498e-05 -0.000149399 -0.000336148 -0.000597597 -0.00092926 -0.00132665 -0.00178977 -0.00231862 -0.00291382 -0.00357599 -0.00430512 -0.00510122 -0.00595652 -0.00686325 -0.00782142 -0.00883103 -0.00988145 -0.0109621 -0.0120729 -0.0132139 -0.0143727 -0.0155368 -0.0167062 -0.0178809 -0.0190479 -0.0201942 -0.0213198 -0.0224246 -0.0234969 -0.0245248 -0.0255084 -0.0264477 -0.0273342 -0.0281592 -0.0289229 -0.0296253 -0.0302627 -0.0308317 -0.0313323 -0.0317644 -0.0321304 -0.0324324 -0.0326704 -0.0328445 -0.0329621 -0.0330307 -0.0330502 -0.0330207 -0.0329531 -0.0328582 -0.0327361 -0.0325868 -0.0324218 -0.0322529 -0.0320801 -0.0319033 -0.0317321 -0.0315759 -0.0314349 -0.031309 -0.0312032 -0.0311226 -0.0310673 -0.0310371 -0.0310315 -0.0310498 -0.0310921 -0.0311584 -0.0312425 -0.0313384 -0.0314461 -0.0315656 -0.031687 -0.0318004 -0.0319057 -0.0320029 -0.0320809 -0.0321283 -0.0321453 -0.0321318 -0.032078 -0.0319743 -0.0318207 -0.0316171 -0.0313577 -0.0310368 -0.0306544 -0.0302103 -0.0297041 -0.0291354 -0.0285039 -0.0278098 -0.027058 -0.0262532 -0.0253955 -0.0244849 -0.0235304 -0.0225414 -0.0215178 -0.0204596 -0.0193784 -0.0182858 -0.0171819 -0.0160666 -0.014952 -0.0138501 -0.0127609 -0.0116844 -0.0106314 -0.0096127 -0.00862832 -0.00767824 -0.00677097 -0.00591503 -0.00511041 -0.0043571 -0.00366055 -0.00302619 -0.002454 -0.001944 -0.00149413 -0.00110236 -0.000768678 -0.000493088 -0.000277362 -0.000123272 -3.0818e-05 0 0 -4.39907e-05 -0.000175963 -0.000395916 -0.00070385 -0.00109221 -0.00155344 -0.00208753 -0.0026945 -0.00337377 -0.0041248 -0.00494757 -0.0058421 -0.00679868 -0.00780758 -0.00886882 -0.00998239 -0.0111357 -0.0123162 -0.013524 -0.0147589 -0.0160066 -0.0172529 -0.0184977 -0.0197411 -0.0209682 -0.0221646 -0.0233302 -0.0244651 -0.0255562 -0.0265907 -0.0275687 -0.0284901 -0.0293461 -0.030128 -0.0308357 -0.0314693 -0.0320259 -0.0325029 -0.0329001 -0.0332175 -0.0334593 -0.0336293 -0.0337276 -0.0337542 -0.0337191 -0.0336324 -0.033494 -0.033304 -0.0330763 -0.0328246 -0.0325491 -0.0322497 -0.031941 -0.0316374 -0.0313389 -0.0310456 -0.0307692 -0.0305214 -0.0303022 -0.0301116 -0.0299558 -0.029841 -0.0297671 -0.0297342 -0.0297414 -0.029788 -0.0298739 -0.0299991 -0.0301562 -0.0303376 -0.0305434 -0.0307734 -0.0310155 -0.0312572 -0.0314986 -0.0317397 -0.0319663 -0.0321644 -0.0323339 -0.0324749 -0.0325747 -0.0326208 -0.0326132 -0.032552 -0.0324289 -0.0322358 -0.0319729 -0.0316399 -0.0312351 -0.0307563 -0.0302037 -0.0295772 -0.0288812 -0.0281202 -0.0272942 -0.0264031 -0.0254566 -0.0244645 -0.0234266 -0.022343 -0.0212266 -0.02009 -0.0189335 -0.0177568 -0.0165738 -0.015398 -0.0142294 -0.013068 -0.0119265 -0.0108173 -0.00974039 -0.00869582 -0.00769379 -0.0067445 -0.00584795 -0.00500414 -0.00422012 -0.0035029 -0.00285251 -0.00226893 -0.00175101 -0.0012976 -0.00090869 -0.000584291 -0.000328664 -0.000146073 -3.65182e-05 0 0 -5.1174e-05 -0.000204696 -0.000460566 -0.000818784 -0.00126823 -0.00179778 -0.00240743 -0.00309719 -0.00386504 -0.00470895 -0.00562893 -0.00662497 -0.00768514 -0.0087975 -0.00996205 -0.0111788 -0.012433 -0.0137099 -0.0150095 -0.0163318 -0.0176605 -0.0189791 -0.0202876 -0.021586 -0.0228581 -0.0240873 -0.0252737 -0.0264173 -0.0275042 -0.0285204 -0.0294658 -0.0303405 -0.0311356 -0.0318422 -0.0324602 -0.0329897 -0.0334289 -0.033776 -0.0340311 -0.0341941 -0.0342711 -0.0342684 -0.0341858 -0.0340235 -0.0337945 -0.0335118 -0.0331755 -0.0327856 -0.0323593 -0.0319141 -0.0314499 -0.0309667 -0.0304824 -0.0300147 -0.0295637 -0.0291293 -0.0287257 -0.0283673 -0.028054 -0.0277859 -0.0275702 -0.0274147 -0.0273191 -0.0272835 -0.0273069 -0.0273883 -0.0275277 -0.0277251 -0.0279713 -0.0282571 -0.0285827 -0.0289479 -0.0293377 -0.0297371 -0.0301461 -0.0305645 -0.0309751 -0.0313603 -0.0317202 -0.0320546 -0.0323479 -0.032584 -0.0327631 -0.032885 -0.0329389 -0.0329141 -0.0328103 -0.0326278 -0.0323626 -0.0320112 -0.0315734 -0.0310493 -0.0304426 -0.0297571 -0.0289928 -0.0281498 -0.027238 -0.0262675 -0.0252384 -0.0241506 -0.0230181 -0.0218551 -0.0206615 -0.0194372 -0.0181977 -0.0169583 -0.0157191 -0.01448 -0.0132554 -0.0120599 -0.0108933 -0.00975584 -0.00865947 -0.00761635 -0.00662649 -0.00568987 -0.00481541 -0.00401199 -0.00327962 -0.00261831 -0.00202803 -0.00150878 -0.00106055 -0.00068336 -0.00038439 -0.00017084 -4.271e-05 0 0 -5.88213e-05 -0.000235285 -0.000529392 -0.000941141 -0.00145537 -0.00205691 -0.00274577 -0.00352195 -0.00438165 -0.00532108 -0.00634024 -0.00743914 -0.00860329 -0.00981823 -0.011084 -0.0124005 -0.0137506 -0.0151173 -0.0165004 -0.0179 -0.0192974 -0.0206742 -0.0220302 -0.0233654 -0.0246618 -0.0259011 -0.0270834 -0.0282086 -0.0292618 -0.030228 -0.0311071 -0.0318993 -0.0325956 -0.0331872 -0.033674 -0.0340562 -0.0343332 -0.0345047 -0.0345706 -0.0345309 -0.0343943 -0.0341697 -0.033857 -0.0334561 -0.0329838 -0.0324566 -0.0318747 -0.0312378 -0.0305675 -0.029885 -0.0291903 -0.0284834 -0.027786 -0.0271195 -0.026484 -0.0258794 -0.0253229 -0.0248316 -0.0244054 -0.0240445 -0.0237576 -0.0235537 -0.0234327 -0.0233947 -0.0234383 -0.0235624 -0.023767 -0.024052 -0.0244064 -0.0248192 -0.0252904 -0.02582 -0.0263897 -0.0269815 -0.0275952 -0.0282309 -0.0288673 -0.0294831 -0.0300783 -0.0306529 -0.0311872 -0.0316614 -0.0320757 -0.0324299 -0.0327099 -0.0329018 -0.0330053 -0.0330207 -0.0329419 -0.032763 -0.032484 -0.032105 -0.0316287 -0.0310579 -0.0303928 -0.0296332 -0.0287896 -0.0278722 -0.026881 -0.025816 -0.0246926 -0.0235258 -0.0223158 -0.0210625 -0.019783 -0.0184946 -0.0171973 -0.015891 -0.0145923 -0.0133177 -0.0120673 -0.010841 -0.00965307 -0.00851778 -0.00743512 -0.0064051 -0.00543875 -0.00454714 -0.00373025 -0.00298808 -0.00232205 -0.00173357 -0.00122263 -0.000789238 -0.000443946 -0.000197309 -4.93273e-05 0 0 -6.68542e-05 -0.000267417 -0.000601687 -0.00106967 -0.00165169 -0.00232808 -0.00309885 -0.00396399 -0.00491761 -0.00595381 -0.00707258 -0.00827393 -0.00954052 -0.010855 -0.0122174 -0.0136277 -0.015066 -0.0165126 -0.0179674 -0.0194305 -0.0208807 -0.0222972 -0.0236799 -0.0250288 -0.0263238 -0.027545 -0.0286924 -0.029766 -0.0307497 -0.0316278 -0.0324001 -0.0330666 -0.0336189 -0.0340483 -0.0343548 -0.0345384 -0.0346005 -0.0345422 -0.0343636 -0.0340648 -0.0336574 -0.0331535 -0.0325529 -0.0318557 -0.0310826 -0.0302546 -0.0293715 -0.0284333 -0.0274661 -0.0264957 -0.0255221 -0.0245454 -0.0235915 -0.0226861 -0.0218293 -0.0210211 -0.0202819 -0.0196321 -0.0190715 -0.0186004 -0.018229 -0.0179681 -0.0178175 -0.0177773 -0.017846 -0.0180219 -0.0183052 -0.0186957 -0.0191804 -0.0197461 -0.0203928 -0.0211205 -0.0219073 -0.0227316 -0.0235933 -0.0244923 -0.0254031 -0.0262998 -0.0271827 -0.0280515 -0.0288822 -0.0296505 -0.0303566 -0.0310003 -0.0315638 -0.0320292 -0.0323964 -0.0326655 -0.0328279 -0.032875 -0.0328067 -0.0326233 -0.0323261 -0.0319168 -0.0313953 -0.0307618 -0.0300266 -0.0292001 -0.0282823 -0.0272732 -0.0261893 -0.025047 -0.0238463 -0.0225872 -0.0212888 -0.0199701 -0.0186312 -0.017272 -0.0159115 -0.0145683 -0.0132424 -0.011934 -0.0106596 -0.00943594 -0.00826293 -0.00714061 -0.00608248 -0.00510203 -0.00419927 -0.0033742 -0.00262994 -0.00196963 -0.00139328 -0.000900868 -0.000506738 -0.000225217 -5.63043e-05 0 0 -7.52725e-05 -0.00030109 -0.000677453 -0.00120436 -0.00185718 -0.00261128 -0.00346666 -0.00442332 -0.00547292 -0.00660713 -0.00782594 -0.00912935 -0.0104968 -0.0119078 -0.0133623 -0.0148604 -0.0163792 -0.0178959 -0.0194106 -0.0209233 -0.0224103 -0.0238481 -0.0252367 -0.026576 -0.0278442 -0.0290191 -0.0301009 -0.0310895 -0.0319681 -0.0327198 -0.0333446 -0.0338426 -0.0342056 -0.0344255 -0.0345025 -0.0344364 -0.0342306 -0.0338886 -0.0334103 -0.0327957 -0.0320604 -0.0312197 -0.0302736 -0.0292222 -0.028091 -0.0269056 -0.0256659 -0.024372 -0.023055 -0.0217462 -0.0204454 -0.0191527 -0.0178988 -0.0167145 -0.0155997 -0.0145545 -0.0136029 -0.0127688 -0.0120523 -0.0114535 -0.0109846 -0.0106579 -0.0104736 -0.0104315 -0.0105298 -0.0107668 -0.0111423 -0.0116563 -0.0122934 -0.0130379 -0.01389 -0.0148494 -0.0158906 -0.0169875 -0.0181402 -0.0193487 -0.0205824 -0.0218106 -0.0230333 -0.0242504 -0.0254329 -0.0265514 -0.0276059 -0.0285964 -0.0295006 -0.0302963 -0.0309835 -0.0315621 -0.0320205 -0.032347 -0.0325415 -0.0326041 -0.0325348 -0.0323336 -0.0320005 -0.0315355 -0.0309489 -0.0302511 -0.0294422 -0.0285221 -0.0275084 -0.0264188 -0.0252532 -0.0240116 -0.0227151 -0.0213849 -0.0200209 -0.0186231 -0.0172128 -0.0158114 -0.0144187 -0.0130349 -0.0116792 -0.0103708 -0.00910992 -0.00789641 -0.00674658 -0.00567667 -0.0046867 -0.00377666 -0.0029517 -0.00221698 -0.0015725 -0.00101825 -0.000572766 -0.000254563 -6.36407e-05 0 0 -8.40765e-05 -0.000336306 -0.000756688 -0.00134522 -0.00207185 -0.00290651 -0.00384921 -0.00489994 -0.00604759 -0.00728105 -0.00860032 -0.0100054 -0.0114722 -0.0129767 -0.0145188 -0.0160986 -0.01769 -0.0192672 -0.02083 -0.0223785 -0.0238863 -0.025327 -0.0267007 -0.0280073 -0.0292228 -0.0303233 -0.0313087 -0.0321791 -0.0329167 -0.033504 -0.0339407 -0.0342271 -0.0343556 -0.0343189 -0.0341171 -0.0337501 -0.0332237 -0.0325439 -0.0317106 -0.0307238 -0.0296032 -0.0283683 -0.0270191 -0.0255557 -0.0240089 -0.0224097 -0.020758 -0.0190539 -0.0173344 -0.0156364 -0.0139601 -0.0123052 -0.0107081 -0.00920478 -0.00779525 -0.00647953 -0.00528569 -0.00424179 -0.00334784 -0.00260385 -0.00202417 -0.00162316 -0.00140082 -0.00135715 -0.00148994 -0.00179697 -0.00227823 -0.00293374 -0.00374527 -0.00469464 -0.00578183 -0.00700686 -0.0083394 -0.00974913 -0.0112361 -0.0128002 -0.0144053 -0.0160153 -0.0176301 -0.0192498 -0.0208393 -0.0223639 -0.0238234 -0.025218 -0.0265204 -0.0277033 -0.0287667 -0.0297106 -0.0305199 -0.0311791 -0.0316883 -0.0320475 -0.0322548 -0.0323084 -0.0322082 -0.0319542 -0.0315566 -0.0310255 -0.0303608 -0.0295627 -0.0286498 -0.027641 -0.0265362 -0.0253354 -0.0240619 -0.0227388 -0.0213662 -0.0199441 -0.0184964 -0.0170471 -0.0155962 -0.0141436 -0.0127116 -0.0113225 -0.00997608 -0.0086725 -0.00743105 -0.00627106 -0.00519253 -0.00419546 -0.00328732 -0.0024756 -0.00176029 -0.00114139 -0.0006