<?xml version="1.0"?> 
<VTKFile type="StructuredGrid" version="0.1"> 
<StructuredGrid WholeExtent="0 128 0 128 0 0"> 
<Piece Extent="0 128 0 128 0 0"> 
<PointData>
<DataArray type="Float32" Name="u" format="ascii" NumberOfComponents="1"> 
0 0 0 0 0 0 0 0 0 0 0 0 0 0 0 0 0 0 0 0 0 0 0 0 0 0 0 0 0 0 0 0 0 0 0 0 0 0 0 0 0 0 0 0 0 0 0 0 0 0 0 0 0 0 0 0 0 0 0 0 0 0 0 0 0 0 0 0 0 0 0 0 0 0 0 0 0 0 0 0 0 0 0 0 0 0 0 0 0 0 0 0 0 0 0 0 0 0 0 0 0 0 0 0 0 0 0 0 0 0 0 0 0 0 0 0 0 0 0 0 0 0 0 0 0 0 0 0 0 0 -4.08334e-07 -1.63333e-06 -3.675e-06 -6.53334e-06 -1.01737e-05 -1.45613e-05 -1.96962e-05 -2.55784e-05 -3.21675e-05 -3.94231e-05 -4.73453e-05 -5.59339e-05 -6.50626e-05 -7.46046e-05 -8.45602e-05 -9.49292e-05 -0.000105589 -0.000116417 -0.000127412 -0.000138576 -0.000149795 -0.000160959 -0.000172066 -0.000183118 -0.000194013 -0.000204653 -0.000215036 -0.000225164 -0.000234954 -0.000244324 -0.000253275 -0.000261806 -0.000269863 -0.000277393 -0.000284394 -0.000290868 -0.000296795 -0.00030216 -0.00030696 -0.000311197 -0.000314893 -0.000318069 -0.000320725 -0.000322863 -0.000324538 -0.000325809 -0.000326675 -0.000327138 -0.000327275 -0.000327168 -0.000326817 -0.000326222 -0.000325466 -0.000324633 -0.000323724 -0.000322738 -0.000321743 -0.000320807 -0.00031993 -0.000319111 -0.000318386 -0.000317789 -0.000317322 -0.000316983 -0.000316768 -0.00031667 -0.000316689 -0.000316826 -0.000317036 -0.000317275 -0.000317542 -0.000317838 -0.000318092 -0.000318232 -0.000318258 -0.00031817 -0.000317889 -0.000317334 -0.000316506 -0.000315404 -0.00031396 -0.000312105 -0.000309839 -0.000307161 -0.000304032 -0.000300409 -0.000296293 -0.000291684 -0.000286577 -0.000280969 -0.000274858 -0.000268246 -0.000261166 -0.00025365 -0.000245698 -0.000237312 -0.000228554 -0.000219488 -0.000210115 -0.000200435 -0.000190531 -0.000180486 -0.000170301 -0.000159975 -0.000149602 -0.000139273 -0.000128989 -0.00011875 -0.00010865 -9.87839e-05 -8.91525e-05 -7.97553e-05 -7.06883e-05 -6.20474e-05 -5.38326e-05 -4.60438e-05 -3.87723e-05 -3.21096e-05 -2.60554e-05 -2.06099e-05 -1.57886e-05 -1.16072e-05 -8.06558e-06 -5.16378e-06 -2.90463e-06 -1.29095e-06 -3.22736e-07 0 0 -1.63333e-06 -6.53334e-06 -1.47e-05 -2.61333e-05 -4.06946e-05 -5.82451e-05 -7.87848e-05 -0.000102314 -0.00012867 -0.000157693 -0.000189381 -0.000223736 -0.00026025 -0.000298419 -0.000338241 -0.000379717 -0.000422355 -0.000465666 -0.000509649 -0.000554303 -0.000599181 -0.000643835 -0.000688265 -0.00073247 -0.000776052 -0.00081861 -0.000860144 -0.000900655 -0.000939815 -0.000977296 -0.0010131 -0.00104722 -0.00107945 -0.00110957 -0.00113758 -0.00116347 -0.00118718 -0.00120864 -0.00122784 -0.00124479 -0.00125957 -0.00127227 -0.0012829 -0.00129145 -0.00129815 -0.00130324 -0.0013067 -0.00130855 -0.0013091 -0.00130867 -0.00130727 -0.00130489 -0.00130186 -0.00129853 -0.0012949 -0.00129095 -0.00128697 -0.00128323 -0.00127972 -0.00127644 -0.00127354 -0.00127116 -0.00126929 -0.00126793 -0.00126707 -0.00126668 -0.00126676 -0.0012673 -0.00126814 -0.0012691 -0.00127017 -0.00127135 -0.00127237 -0.00127293 -0.00127303 -0.00127268 -0.00127156 -0.00126934 -0.00126602 -0.00126162 -0.00125584 -0.00124842 -0.00123935 -0.00122865 -0.00121613 -0.00120164 -0.00118517 -0.00116674 -0.00114631 -0.00112388 -0.00109943 -0.00107299 -0.00104466 -0.0010146 -0.000982793 -0.000949247 -0.000914215 -0.000877953 -0.000840461 -0.00080174 -0.000762122 -0.000721943 -0.000681203 -0.000639902 -0.000598409 -0.000557094 -0.000515957 -0.000474999 -0.000434599 -0.000395136 -0.00035661 -0.000319021 -0.000282753 -0.00024819 -0.00021533 -0.000184175 -0.000155089 -0.000128438 -0.000104222 -8.24397e-05 -6.31546e-05 -4.64288e-05 -3.22623e-05 -2.06551e-05 -1.16185e-05 -5.16378e-06 -1.29095e-06 0 0 -3.675e-06 -1.47e-05 -3.3075e-05 -5.88e-05 -9.15629e-05 -0.000131051 -0.000177266 -0.000230206 -0.000289508 -0.000354808 -0.000426108 -0.000503405 -0.000585563 -0.000671442 -0.000761042 -0.000854363 -0.0009503 -0.00104775 -0.00114671 -0.00124718 -0.00134816 -0.00144863 -0.0015486 -0.00164806 -0.00174612 -0.00184187 -0.00193533 -0.00202647 -0.00211458 -0.00219892 -0.00227947 -0.00235625 -0.00242877 -0.00249653 -0.00255955 -0.00261781 -0.00267116 -0.00271944 -0.00276264 -0.00280077 -0.00283403 -0.00286262 -0.00288653 -0.00290576 -0.00292084 -0.00293228 -0.00294008 -0.00294424 -0.00294548 -0.00294452 -0.00294136 -0.002936 -0.00292919 -0.0029217 -0.00291352 -0.00290464 -0.00289569 -0.00288726 -0.00287937 -0.002872 -0.00286547 -0.0028601 -0.0028559 -0.00285285 -0.00285091 -0.00285003 -0.0028502 -0.00285143 -0.00285332 -0.00285547 -0.00285788 -0.00286054 -0.00286283 -0.00286409 -0.00286432 -0.00286353 -0.002861 -0.00285601 -0.00284856 -0.00283864 -0.00282564 -0.00280894 -0.00278855 -0.00276445 -0.00273629 -0.00270368 -0.00266664 -0.00262516 -0.0025792 -0.00252872 -0.00247373 -0.00241422 -0.00235049 -0.00228285 -0.00221128 -0.00213581 -0.00205698 -0.00197539 -0.00189104 -0.00180391 -0.00171477 -0.00162437 -0.00153271 -0.00143978 -0.00134642 -0.00125346 -0.0011609 -0.00106875 -0.000977848 -0.000889055 -0.000802372 -0.000717798 -0.000636195 -0.000558427 -0.000484493 -0.000414394 -0.000348951 -0.000288986 -0.000234499 -0.000185489 -0.000142098 -0.000104465 -7.25902e-05 -4.6474e-05 -2.61416e-05 -1.16185e-05 -2.90463e-06 0 0 -6.53334e-06 -2.61333e-05 -5.88e-05 -0.000104533 -0.000162778 -0.00023298 -0.000315139 -0.000409254 -0.00051468 -0.00063077 -0.000757525 -0.000894943 -0.001041 -0.00119367 -0.00135296 -0.00151887 -0.00168942 -0.00186266 -0.00203859 -0.00221721 -0.00239672 -0.00257534 -0.00275306 -0.00292988 -0.00310421 -0.00327444 -0.00344058 -0.00360262 -0.00375926 -0.00390918 -0.0040524 -0.0041889 -0.00431781 -0.00443828 -0.00455031 -0.00465388 -0.00474873 -0.00483455 -0.00491136 -0.00497915 -0.00503828 -0.0050891 -0.00513161 -0.0051658 -0.00519261 -0.00521294 -0.00522681 -0.0052342 -0.0052364 -0.0052347 -0.00522908 -0.00521955 -0.00520745 -0.00519413 -0.00517958 -0.00516381 -0.00514789 -0.00513291 -0.00511887 -0.00510577 -0.00509417 -0.00508463 -0.00507715 -0.00507173 -0.00506828 -0.00506671 -0.00506702 -0.00506921 -0.00507257 -0.00507639 -0.00508067 -0.00508541 -0.00508947 -0.00509171 -0.00509213 -0.00509073 -0.00508623 -0.00507735 -0.0050641 -0.00504647 -0.00502336 -0.00499368 -0.00495742 -0.00491458 -0.00486451 -0.00480655 -0.00474069 -0.00466695 -0.00458524 -0.0044955 -0.00439774 -0.00429194 -0.00417865 -0.00405839 -0.00393117 -0.00379699 -0.00365686 -0.00351181 -0.00336184 -0.00320696 -0.00304849 -0.00288777 -0.00272481 -0.00255961 -0.00239363 -0.00222838 -0.00206383 -0.0019 -0.0017384 -0.00158054 -0.00142644 -0.00127608 -0.00113101 -0.000992759 -0.000861321 -0.0007367 -0.000620357 -0.000513753 -0.000416887 -0.000329759 -0.000252618 -0.000185715 -0.000129049 -8.26205e-05 -4.6474e-05 -2.06551e-05 -5.16378e-06 0 0 -1.01683e-05 -4.06731e-05 -9.15144e-05 -0.000162692 -0.000253123 -0.000361724 -0.000488495 -0.000633435 -0.000795518 -0.000973716 -0.00116803 -0.00137846 -0.00160189 -0.00183522 -0.00207843 -0.00233154 -0.00259152 -0.00285535 -0.00312304 -0.00339458 -0.00366721 -0.00393819 -0.00420752 -0.00447519 -0.00473875 -0.00499576 -0.00524622 -0.00549012 -0.00572549 -0.00595032 -0.00616461 -0.00636838 -0.00656031 -0.00673912 -0.0069048 -0.00705736 -0.0071964 -0.00732154 -0.00743277 -0.00753009 -0.00761411 -0.00768543 -0.00774403 -0.00778993 -0.00782459 -0.00784949 -0.00786462 -0.00786998 -0.0078676 -0.0078595 -0.00784568 -0.00782613 -0.00780297 -0.0077783 -0.00775213 -0.00772445 -0.00769695 -0.00767134 -0.00764761 -0.00762576 -0.00760666 -0.0075912 -0.00757938 -0.00757119 -0.00756649 -0.00756514 -0.00756713 -0.00757247 -0.00758005 -0.00758874 -0.00759856 -0.0076095 -0.00761977 -0.00762759 -0.00763295 -0.00763586 -0.00763429 -0.00762624 -0.00761171 -0.00759069 -0.00756145 -0.00752223 -0.00747303 -0.00741386 -0.00734365 -0.00726132 -0.00716689 -0.00706035 -0.00694153 -0.0068103 -0.00666664 -0.00651055 -0.00634282 -0.00616421 -0.00597472 -0.00577436 -0.00556467 -0.00534718 -0.0051219 -0.00488883 -0.00465 -0.00440746 -0.0041612 -0.00391122 -0.0036598 -0.0034092 -0.00315942 -0.00291047 -0.00266468 -0.00242438 -0.00218959 -0.00196029 -0.00173886 -0.00152766 -0.00132668 -0.00113593 -0.000957653 -0.00079411 -0.000645299 -0.000511218 -0.000392286 -0.000288922 -0.000201124 -0.000128894 -7.25027e-05 -3.22234e-05 -8.05586e-06 0 0 -1.45397e-05 -5.81589e-05 -0.000130858 -0.000232636 -0.000361379 -0.000514975 -0.000693422 -0.000896721 -0.00112335 -0.00137178 -0.00164202 -0.00193407 -0.00224356 -0.00256617 -0.00290188 -0.0032507 -0.00360839 -0.00397075 -0.00433777 -0.00470946 -0.00508195 -0.00545141 -0.00581783 -0.00618121 -0.00653816 -0.00688528 -0.00722257 -0.00755002 -0.00786491 -0.00816453 -0.00844887 -0.00871792 -0.00896999 -0.00920334 -0.00941798 -0.0096139 -0.0097907 -0.00994794 -0.0100856 -0.0102038 -0.0103033 -0.0103853 -0.0104497 -0.0104965 -0.0105279 -0.0105462 -0.0105512 -0.0105431 -0.0105248 -0.0104992 -0.0104664 -0.0104263 -0.0103821 -0.0103367 -0.0102902 -0.0102426 -0.0101962 -0.0101537 -0.0101149 -0.0100799 -0.01005 -0.0100263 -0.0100089 -0.00999783 -0.00999282 -0.00999369 -0.0100004 -0.010013 -0.0100299 -0.0100494 -0.0100716 -0.0100964 -0.0101212 -0.0101435 -0.0101633 -0.0101805 -0.0101923 -0.0101956 -0.0101904 -0.0101769 -0.0101523 -0.0101142 -0.0100624 -0.00999711 -0.00991654 -0.00981909 -0.00970478 -0.00957359 -0.00942518 -0.00925918 -0.0090756 -0.00887444 -0.00865667 -0.00842326 -0.0081742 -0.0079095 -0.00763124 -0.00734148 -0.00704023 -0.00672748 -0.00640605 -0.00607873 -0.00574553 -0.00540645 -0.00506464 -0.00472328 -0.00438236 -0.00404188 -0.00370512 -0.00337536 -0.0030526 -0.00273684 -0.0024314 -0.00213959 -0.00186143 -0.0015969 -0.00134918 -0.00112143 -0.000913649 -0.000725838 -0.000558672 -0.000412826 -0.000288299 -0.000185093 -0.000104115 -4.62732e-05 -1.15683e-05 0 0 -1.96477e-05 -7.85909e-05 -0.000176829 -0.000314364 -0.000487547 -0.000692733 -0.000929922 -0.00119911 -0.00149817 -0.00182497 -0.0021795 -0.00256176 -0.00296602 -0.00338653 -0.0038233 -0.00427633 -0.00474004 -0.00520887 -0.0056828 -0.00616185 -0.00664094 -0.00711499 -0.007584 -0.00804797 -0.00850245 -0.008943 -0.00936962 -0.0097823 -0.0101775 -0.0105518 -0.0109052 -0.0112375 -0.0115468 -0.0118309 -0.0120898 -0.0123235 -0.0125316 -0.0127138 -0.0128699 -0.0130002 -0.0131059 -0.0131888 -0.0132486 -0.0132855 -0.0133026 -0.013303 -0.0132867 -0.0132536 -0.013208 -0.0131538 -0.0130912 -0.0130201 -0.0129448 -0.0128693 -0.0127938 -0.0127181 -0.0126458 -0.01258 -0.0125209 -0.0124683 -0.0124241 -0.0123899 -0.0123658 -0.0123517 -0.0123473 -0.0123524 -0.0123669 -0.0123909 -0.0124221 -0.0124584 -0.0124997 -0.012546 -0.0125938 -0.0126395 -0.0126832 -0.0127247 -0.0127601 -0.0127853 -0.0128003 -0.0128051 -0.012796 -0.0127696 -0.0127257 -0.0126643 -0.0125832 -0.0124799 -0.0123544 -0.0122067 -0.0120362 -0.0118422 -0.0116246 -0.0113836 -0.0111202 -0.0108355 -0.0105296 -0.0102024 -0.00985657 -0.00949471 -0.00911682 -0.00872292 -0.00831663 -0.0079016 -0.00747782 -0.00704529 -0.00660818 -0.00617063 -0.00573265 -0.00529424 -0.00485973 -0.00443348 -0.00401547 -0.00360572 -0.00320862 -0.00282857 -0.00246557 -0.00211963 -0.00179494 -0.00149571 -0.00122194 -0.000973618 -0.000751775 -0.000557427 -0.000390575 -0.000251218 -0.00014131 -6.28046e-05 -1.57011e-05 0 0 -2.54922e-05 -0.000101969 -0.00022943 -0.000407876 -0.000631625 -0.000894998 -0.00119799 -0.00154061 -0.00191999 -0.00233328 -0.00278046 -0.00326155 -0.00376925 -0.00429631 -0.00484271 -0.00540845 -0.00598646 -0.00656969 -0.00715812 -0.00775177 -0.00834418 -0.00892893 -0.00950602 -0.0100754 -0.0106316 -0.0111689 -0.0116874 -0.012187 -0.0126633 -0.0131122 -0.0135335 -0.0139272 -0.0142909 -0.0146219 -0.0149204 -0.0151862 -0.0154192 -0.015619 -0.0157857 -0.0159193 -0.0160219 -0.0160958 -0.0161408 -0.016157 -0.0161487 -0.01612 -0.0160709 -0.0160015 -0.0159172 -0.0158234 -0.0157202 -0.0156076 -0.015491 -0.0153761 -0.0152628 -0.0151512 -0.0150455 -0.0149503 -0.0148654 -0.0147909 -0.014729 -0.014682 -0.0146499 -0.0146327 -0.0146299 -0.0146412 -0.0146666 -0.014706 -0.0147567 -0.0148156 -0.0148829 -0.0149584 -0.0150375 -0.0151156 -0.0151925 -0.0152684 -0.0153379 -0.0153955 -0.0154413 -0.0154752 -0.0154925 -0.0154884 -0.0154627 -0.0154155 -0.0153436 -0.0152436 -0.0151156 -0.0149596 -0.0147745 -0.0145592 -0.0143137 -0.0140381 -0.0137334 -0.0134011 -0.0130409 -0.0126531 -0.0122407 -0.0118069 -0.0113517 -0.0108751 -0.0103818 -0.00987606 -0.00935806 -0.00882776 -0.0082904 -0.00775125 -0.00721029 -0.00666754 -0.00612851 -0.00559873 -0.00507821 -0.00456693 -0.00407052 -0.00359458 -0.00313911 -0.00270411 -0.00229494 -0.00191696 -0.00157016 -0.00125456 -0.000971596 -0.000722727 -0.000507951 -0.000327269 -0.000184089 -8.18174e-05 -2.04543e-05 0 0 -3.20166e-05 -0.000128066 -0.000288149 -0.000512265 -0.000792187 -0.00111969 -0.00149476 -0.00191742 -0.0023839 -0.00289044 -0.00343707 -0.00402376 -0.00464152 -0.00528136 -0.00594328 -0.00662728 -0.00732463 -0.00802662 -0.00873324 -0.00944451 -0.0101525 -0.0108493 -0.0115348 -0.0122092 -0.0128655 -0.0134969 -0.0141035 -0.0146851 -0.0152367 -0.015753 -0.016234 -0.0166798 -0.0170873 -0.0174538 -0.0177792 -0.0180636 -0.0183068 -0.0185091 -0.0186702 -0.0187903 -0.0188723 -0.0189192 -0.0189312 -0.018908 -0.0188554 -0.018779 -0.0186786 -0.0185543 -0.0184131 -0.0182622 -0.0181016 -0.0179312 -0.0177581 -0.0175895 -0.0174253 -0.0172656 -0.0171159 -0.0169818 -0.0168634 -0.0167606 -0.0166763 -0.0166133 -0.0165716 -0.0165513 -0.0165518 -0.0165726 -0.0166137 -0.0166751 -0.0167531 -0.0168441 -0.0169479 -0.0170646 -0.0171882 -0.0173126 -0.017438 -0.0175642 -0.0176843 -0.0177915 -0.0178857 -0.0179669 -0.0180288 -0.018065 -0.0180757 -0.0180608 -0.0180159 -0.0179366 -0.0178229 -0.0176748 -0.0174907 -0.0172688 -0.0170093 -0.0167121 -0.0163784 -0.0160094 -0.0156052 -0.0151657 -0.0146947 -0.0141959 -0.0136693 -0.0131149 -0.0125382 -0.0119447 -0.0113343 -0.010707 -0.0100694 -0.00942782 -0.00878226 -0.00813276 -0.00748613 -0.00684921 -0.006222 -0.0056045 -0.00500367 -0.00442646 -0.00387287 -0.0033429 -0.00284322 -0.00238049 -0.00195473 -0.00156592 -0.0012161 -0.000907277 -0.000639456 -0.000412637 -0.000232108 -0.000103159 -2.57898e-05 0 0 -3.9164e-05 -0.000156656 -0.000352476 -0.000626624 -0.000967802 -0.00136471 -0.00181735 -0.00232573 -0.00288497 -0.00349022 -0.00414147 -0.00483873 -0.00557107 -0.00632758 -0.00710824 -0.00791305 -0.0087315 -0.00955304 -0.0103777 -0.0112054 -0.0120267 -0.012832 -0.0136213 -0.0143946 -0.0151439 -0.0158608 -0.0165455 -0.0171979 -0.017812 -0.0183817 -0.018907 -0.0193879 -0.0198213 -0.0202039 -0.0205359 -0.0208172 -0.0210482 -0.0212294 -0.0213607 -0.0214421 -0.0214779 -0.0214721 -0.0214247 -0.0213357 -0.0212123 -0.0210618 -0.0208842 -0.0206795 -0.0204567 -0.0202248 -0.0199837 -0.0197336 -0.0194833 -0.0192418 -0.0190091 -0.0187853 -0.0185773 -0.0183921 -0.0182298 -0.0180903 -0.0179773 -0.0178942 -0.0178411 -0.017818 -0.0178242 -0.0178591 -0.0179226 -0.0180148 -0.018131 -0.0182665 -0.0184214 -0.0185956 -0.0187816 -0.0189717 -0.019166 -0.0193645 -0.0195583 -0.0197388 -0.0199059 -0.0200595 -0.0201916 -0.0202941 -0.020367 -0.0204103 -0.0204182 -0.0203848 -0.0203103 -0.0201945 -0.0200351 -0.0198295 -0.0195778 -0.0192799 -0.018937 -0.0185501 -0.0181193 -0.0176445 -0.0171299 -0.0165798 -0.0159942 -0.0153731 -0.0147229 -0.01405 -0.0133545 -0.0126364 -0.0119033 -0.011163 -0.0104156 -0.00966088 -0.00890727 -0.00816299 -0.00742805 -0.00670244 -0.00599462 -0.00531303 -0.00465767 -0.00402855 -0.00343382 -0.00288165 -0.00237203 -0.00190498 -0.00148325 -0.00110963 -0.00078412 -0.000506712 -0.000285025 -0.000126678 -3.16695e-05 0 0 -4.69346e-05 -0.000187738 -0.000422411 -0.000750953 -0.00115847 -0.00163008 -0.00216577 -0.00276554 -0.00342321 -0.00413259 -0.00489368 -0.00570647 -0.00655791 -0.00743494 -0.00833756 -0.00926577 -0.0102071 -0.0111489 -0.0120914 -0.0130344 -0.0139668 -0.0148771 -0.0157655 -0.0166319 -0.0174668 -0.0182607 -0.0190135 -0.0197253 -0.0203892 -0.0209983 -0.0215524 -0.0220517 -0.0224928 -0.0228724 -0.0231905 -0.0234471 -0.0236432 -0.0237799 -0.0238571 -0.0238749 -0.0238388 -0.0237542 -0.0236213 -0.0234399 -0.0232192 -0.0229686 -0.022688 -0.0223773 -0.0220479 -0.021711 -0.0213666 -0.0210148 -0.0206665 -0.020333 -0.0200143 -0.0197103 -0.0194297 -0.0191811 -0.0189646 -0.0187801 -0.0186321 -0.0185249 -0.0184584 -0.0184328 -0.0184471 -0.0185006 -0.0185932 -0.018725 -0.0188902 -0.019083 -0.0193034 -0.0195514 -0.0198177 -0.0200927 -0.0203766 -0.0206693 -0.0209599 -0.0212374 -0.0215018 -0.0217531 -0.0219811 -0.0221756 -0.0223366 -0.0224641 -0.0225505 -0.0225885 -0.0225779 -0.0225189 -0.0224078 -0.0222413 -0.0220192 -0.0217416 -0.0214094 -0.0210232 -0.0205832 -0.0200894 -0.0195463 -0.0189587 -0.0183264 -0.0176496 -0.0169357 -0.0161921 -0.0154187 -0.0146157 -0.0137921 -0.0129569 -0.0121102 -0.0112519 -0.0103919 -0.00954009 -0.00869636 -0.00786076 -0.00704337 -0.00625429 -0.00549352 -0.00476106 -0.00406675 -0.00342042 -0.00282208 -0.00227172 -0.00177306 -0.0013298 -0.000941942 -0.000609493 -0.00034284 -0.000152373 -3.80933e-05 0 0 -5.53282e-05 -0.000221313 -0.000497954 -0.000885251 -0.0013642 -0.00191578 -0.00254 -0.00323686 -0.00399863 -0.00481757 -0.00569368 -0.00662697 -0.00760203 -0.00860346 -0.00963126 -0.0106854 -0.0117514 -0.0128143 -0.0138744 -0.0149316 -0.0159727 -0.0169846 -0.0179674 -0.0189209 -0.0198342 -0.0206964 -0.0215075 -0.0222674 -0.0229684 -0.0236027 -0.0241703 -0.0246712 -0.025102 -0.0254593 -0.025743 -0.0259533 -0.0260919 -0.0261607 -0.0261596 -0.0260886 -0.025955 -0.0257658 -0.025521 -0.0252207 -0.0248763 -0.0244993 -0.0240897 -0.0236475 -0.0231867 -0.0227209 -0.0222503 -0.0217747 -0.0213079 -0.0208632 -0.0204408 -0.0200406 -0.0196731 -0.0193488 -0.0190678 -0.01883 -0.0186407 -0.0185052 -0.0184235 -0.0183956 -0.0184205 -0.0184972 -0.0186256 -0.0188058 -0.0190308 -0.0192935 -0.0195939 -0.019932 -0.0202965 -0.0206757 -0.0210698 -0.0214787 -0.021889 -0.0222873 -0.0226735 -0.0230477 -0.0233973 -0.0237095 -0.0239844 -0.024222 -0.0244129 -0.0245474 -0.0246257 -0.0246478 -0.0246088 -0.024504 -0.0243335 -0.0240972 -0.0237954 -0.0234288 -0.0229971 -0.0225005 -0.0219439 -0.0213323 -0.0206659 -0.0199445 -0.0191767 -0.0183708 -0.017527 -0.0166451 -0.0157357 -0.0148094 -0.0138661 -0.0129058 -0.0119401 -0.0109805 -0.0100269 -0.00907944 -0.00814992 -0.00725024 -0.00638042 -0.00554044 -0.00474201 -0.00399682 -0.00330486 -0.00266615 -0.00208551 -0.00156776 -0.00111292 -0.000720981 -0.000405552 -0.000180245 -4.50613e-05 0 0 -6.4192e-05 -0.000256768 -0.000577728 -0.00102707 -0.00158121 -0.00221657 -0.00293315 -0.00373093 -0.00460042 -0.00553208 -0.00652591 -0.00758192 -0.00868213 -0.00980859 -0.0109613 -0.0121402 -0.0133284 -0.014509 -0.0156819 -0.0168471 -0.0179895 -0.019094 -0.0201606 -0.0211893 -0.0221675 -0.0230829 -0.0239353 -0.0247249 -0.025443 -0.026081 -0.0266389 -0.0271167 -0.0275111 -0.0278187 -0.0280394 -0.0281734 -0.0282234 -0.0281924 -0.0280802 -0.027887 -0.0276217 -0.0272936 -0.0269026 -0.0264487 -0.0259461 -0.0254089 -0.0248371 -0.0242308 -0.0236066 -0.0229815 -0.0223555 -0.0217285 -0.0211169 -0.020537 -0.0199888 -0.0194724 -0.0190002 -0.0185849 -0.0182265 -0.0179251 -0.0176868 -0.0175181 -0.017419 -0.0173894 -0.017428 -0.0175338 -0.0177066 -0.0179464 -0.0182449 -0.0185936 -0.0189924 -0.0194414 -0.0199268 -0.0204348 -0.0209654 -0.0215185 -0.022078 -0.0226275 -0.0231672 -0.0236969 -0.0242012 -0.0246648 -0.0250875 -0.0254694 -0.0257986 -0.0260634 -0.0262638 -0.0263998 -0.026465 -0.0264532 -0.0263643 -0.0261984 -0.0259553 -0.0256347 -0.0252367 -0.0247613 -0.0242137 -0.0235993 -0.0229181 -0.0221701 -0.0213647 -0.0205115 -0.0196104 -0.0186615 -0.0176768 -0.0166683 -0.015636 -0.01458 -0.0135136 -0.0124501 -0.0113894 -0.0103317 -0.0092908 -0.00828045 -0.00730071 -0.00635158 -0.0054468 -0.00460014 -0.0038116 -0.00308117 -0.00241502 -0.00181931 -0.00129404 -0.000839213 -0.000472057 -0.000209803 -5.24508e-05 0 0 -7.33728e-05 -0.000293491 -0.000660355 -0.00117396 -0.00180577 -0.00252721 -0.00333829 -0.004239 -0.00521778 -0.00626304 -0.00737478 -0.00855301 -0.00977694 -0.0110258 -0.0122996 -0.0135982 -0.0149024 -0.0161926 -0.0174689 -0.0187311 -0.0199622 -0.0211448 -0.022279 -0.0233648 -0.024388 -0.0253348 -0.026205 -0.0269988 -0.0277067 -0.0283193 -0.0288367 -0.0292588 -0.0295826 -0.0298049 -0.0299257 -0.0299449 -0.0298668 -0.0296956 -0.0294312 -0.0290736 -0.0286343 -0.0281247 -0.0275449 -0.0268947 -0.0261916 -0.0254526 -0.0246779 -0.0238674 -0.0230413 -0.02222 -0.0214033 -0.0205913 -0.0198034 -0.0190592 -0.0183587 -0.0177019 -0.0171036 -0.016579 -0.016128 -0.0157507 -0.0154544 -0.0152466 -0.0151275 -0.0150968 -0.0151533 -0.0152953 -0.0155229 -0.0158361 -0.0162248 -0.0166789 -0.0171984 -0.0177835 -0.0184175 -0.019084 -0.019783 -0.0205146 -0.0212592 -0.0219973 -0.0227289 -0.0234541 -0.0241542 -0.0248103 -0.0254226 -0.0259911 -0.0265011 -0.0269382 -0.0273023 -0.0275934 -0.0278034 -0.0279241 -0.0279554 -0.0278974 -0.027749 -0.0275092 -0.027178 -0.0267554 -0.0262468 -0.0256578 -0.0249884 -0.0242385 -0.0234186 -0.0225392 -0.0216003 -0.020602 -0.0195577 -0.0184813 -0.0173727 -0.0162318 -0.0150741 -0.0139147 -0.0127536 -0.0115909 -0.0104425 -0.00932449 -0.00823677 -0.00717938 -0.00616834 -0.00521971 -0.00433349 -0.00350968 -0.002756 -0.0020802 -0.00148227 -0.000962225 -0.000541251 -0.000240556 -6.0139e-05 0 0 -8.28707e-05 -0.000331483 -0.000745837 -0.00132593 -0.00203785 -0.00284768 -0.00375542 -0.00476107 -0.00585071 -0.00701046 -0.0082403 -0.00954024 -0.0108864 -0.012255 -0.0136461 -0.0150595 -0.0164733 -0.0178652 -0.0192353 -0.0205837 -0.0218907 -0.023137 -0.0243226 -0.0254473 -0.0264958 -0.0274522 -0.0283166 -0.029089 -0.0297594 -0.0303176 -0.0307637 -0.0310976 -0.0313166 -0.031418 -0.0314018 -0.0312679 -0.0310222 -0.0306704 -0.0302126 -0.0296486 -0.0289927 -0.0282591 -0.0274478 -0.0265587 -0.0256126 -0.0246304 -0.023612 -0.0225574 -0.0214908 -0.0204362 -0.0193935 -0.0183629 -0.0173673 -0.0164298 -0.0155504 -0.0147291 -0.0139835 -0.0133312 -0.0127723 -0.0123067 -0.0119433 -0.0116907 -0.0115489 -0.0115181 -0.0115963 -0.0117818 -0.0120747 -0.0124748 -0.0129703 -0.0135494 -0.014212 -0.0149582 -0.0157685 -0.0166233 -0.0175228 -0.018467 -0.0194326 -0.0203965 -0.0213588 -0.0223194 -0.023256 -0.0241462 -0.0249899 -0.0257872 -0.0265204 -0.0271717 -0.0277411 -0.0282287 -0.028624 -0.0289167 -0.0291067 -0.029194 -0.0291766 -0.0290522 -0.028821 -0.0284828 -0.0280433 -0.027508 -0.0268768 -0.0261497 -0.0253383 -0.0244539 -0.0234966 -0.0224664 -0.0213786 -0.0202485 -0.019076 -0.0178613 -0.0166216 -0.0153743 -0.0141194 -0.0128569 -0.0116051 -0.0103824 -0.0091886 -0.00802383 -0.00690663 -0.00585553 -0.00487055 -0.00395167 -0.00310845 -0.00235044 -0.00167763 -0.00109002 -0.000613135 -0.000272504 -6.81261e-05 0 0 -9.26858e-05 -0.000370743 -0.000834172 -0.00148297 -0.00227747 -0.003178 -0.00418455 -0.00529712 -0.00649922 -0.00777434 -0.00912247 -0.0105436 -0.0120106 -0.0134964 -0.0150009 -0.0165241 -0.018041 -0.0195268 -0.0209814 -0.0224047 -0.0237751 -0.0250706 -0.0262912 -0.027437 -0.0284907 -0.029435 -0.03027 -0.0309956 -0.0316012 -0.0320759 -0.0324198 -0.0326329 -0.032713 -0.0326579 -0.0324677 -0.0321424 -0.0316895 -0.0311168 -0.0304243 -0.0296119 -0.028697 -0.0276968 -0.0266113 -0.0254405 -0.0242092 -0.0229422 -0.0216394 -0.0203009 -0.018955 -0.0176302 -0.0163263 -0.0150435 -0.0138086 -0.0126488 -0.0115639 -0.010554 -0.00963969 -0.00884146 -0.00815932 -0.00759329 -0.00715354 -0.00685025 -0.00668344 -0.00665309 -0.00675709 -0.00699333 -0.0073618 -0.0078625 -0.00848156 -0.0092051 -0.0100331 -0.0109656 -0.0119797 -0.0130528 -0.0141848 -0.0153756 -0.0165982 -0.0178252 -0.0190568 -0.0202928 -0.0215069 -0.0226724 -0.0237894 -0.0248578 -0.0258564 -0.0267639 -0.0275803 -0.0283056 -0.0289268 -0.029431 -0.0298181 -0.0300883 -0.030238 -0.0302637 -0.0301656 -0.0299436 -0.0296032 -0.0291497 -0.0285833 -0.0279039 -0.0271238 -0.0262557 -0.0252994 -0.024255 -0.0231394 -0.0219698 -0.0207461 -0.0194684 -0.0181561 -0.0168289 -0.0154868 -0.0141298 -0.0127786 -0.0114541 -0.0101562 -0.00888495 -0.00766166 -0.00650759 -0.00542276 -0.00440716 -0.00347238 -0.00263003 -0.0018801 -0.00122259 -0.000687707 -0.000305648 -7.64119e-05 0 0 -0.000102665 -0.000410661 -0.000923987 -0.00164264 -0.00252088 -0.00351293 -0.00461881 -0.0058385 -0.00715265 -0.00854186 -0.0100061 -0.0115455 -0.0131292 -0.0147266 -0.0163377 -0.0179624 -0.0195728 -0.0211409 -0.0226666 -0.02415 -0.0255667 -0.0268925 -0.0281273 -0.0292712 -0.0303052 -0.0312104 -0.0319868 -0.0326345 -0.033142 -0.0334981 -0.0337028 -0.0337562 -0.0336567 -0.033403 -0.0329952 -0.0324331 -0.0317267 -0.0308859 -0.0299106 -0.0288009 -0.0275776 -0.0262614 -0.0248525 -0.0233507 -0.0217854 -0.0201858 -0.0185518 -0.0168836 -0.0152142 -0.0135768 -0.0119714 -0.0103981 -0.00888811 -0.00747287 -0.00615235 -0.00492657 -0.0038193 -0.00285434 -0.00203169 -0.00135135 -0.00082506 -0.00046457 -0.000269877 -0.000240982 -0.000375401 -0.000670648 -0.00112672 -0.00174363 -0.00250526 -0.00339552 -0.0044144 -0.00556191 -0.00681157 -0.00813692 -0.00953795 -0.0110147 -0.0125354 -0.0140683 -0.0156135 -0.017171 -0.0187095 -0.0201981 -0.0216366 -0.0230251 -0.0243382 -0.0255507 -0.0266625 -0.0276736 -0.0285681 -0.0293302 -0.0299597 -0.0304568 -0.0308164 -0.0310335 -0.031108 -0.03104 -0.0308346 -0.0304972 -0.0300277 -0.0294261 -0.0287058 -0.0278801 -0.0269491 -0.0259127 -0.0247897 -0.0235991 -0.0223408 -0.0210147 -0.0196429 -0.0182473 -0.0168278 -0.0153844 -0.0139406 -0.01252 -0.0111224 -0.00974787 -0.00842071 -0.00716516 -0.00598122 -0.00486889 -0.00384206 -0.00291462 -0.00208657 -0.00135792 -0.000763828 -0.000339479 -8.48698e-05 0 0 -0.000112656 -0.000450625 -0.00101391 -0.0018025 -0.00276431 -0.00384726 -0.00505133 -0.00637653 -0.00780033 -0.00930022 -0.0108762 -0.0125283 -0.0142219 -0.0159226 -0.0176304 -0.0193452 -0.0210359 -0.0226711 -0.0242508 -0.0257751 -0.027217 -0.0285497 -0.0297731 -0.0308873 -0.0318716 -0.0327054 -0.0333887 -0.0339214 -0.0342919 -0.0344883 -0.0345106 -0.0343589 -0.0340327 -0.0335316 -0.0328557 -0.0320049 -0.0309917 -0.0298286 -0.0285156 -0.0270527 -0.0254648 -0.0237766 -0.0219882 -0.0200996 -0.018145 -0.0161587 -0.0141408 -0.0120912 -0.0100484 -0.00805089 -0.00609872 -0.00419186 -0.0023665 -0.000658838 0.00093114 0.00240343 0.00373068 0.00488553 0.00586799 0.00667806 0.00730227 0.00772718 0.00795278 0.00797907 0.00780895 0.00744532 0.00688817 0.00613751 0.00521188 0.00412985 0.00289142 0.00149658 -2.41294e-05 -0.00164016 -0.0033515 -0.00515817 -0.00702343 -0.00891055 -0.0108195 -0.0127504 -0.0146668 -0.0165324 -0.0183473 -0.0201114 -0.0217949 -0.0233679 -0.0248304 -0.0261823 -0.0274044 -0.0284775 -0.0294014 -0.0301763 -0.0307951 -0.031251 -0.031544 -0.031674 -0.0316459 -0.0314645 -0.0311298 -0.0306418 -0.0300147 -0.0292628 -0.0283862 -0.0273847 -0.0262792 -0.0250902 -0.0238179 -0.0224621 -0.0210473 -0.019598 -0.0181141 -0.0165956 -0.015069 -0.0135604 -0.01207 -0.0105977 -0.00917107 -0.0078175 -0.00653702 -0.00532963 -0.00421177 -0.00319987 -0.00229394 -0.00149397 -0.000840358 -0.000373492 -9.33731e-05 0 0 -0.000122659 -0.000490636 -0.00110393 -0.00196254 -0.00300779 -0.00418098 -0.00548211 -0.00691119 -0.00844228 -0.0100494 -0.0117326 -0.0134919 -0.0152887 -0.0170843 -0.0188789 -0.0206724 -0.0224301 -0.0241173 -0.0257339 -0.0272801 -0.0287261 -0.0300423 -0.0312287 -0.0322854 -0.0331899 -0.0339199 -0.0344755 -0.0348565 -0.0350509 -0.0350464 -0.0348431 -0.034441 -0.0338409 -0.0330436 -0.0320493 -0.0308578 -0.0294846 -0.0279451 -0.0262394 -0.0243675 -0.0223587 -0.0202423 -0.0180185 -0.0156871 -0.013288 -0.0108611 -0.00840632 -0.00592371 -0.00345764 -0.00105246 0.00129182 0.0035752 0.00575619 0.00779332 0.00968657 0.011436 0.0130102 0.0143782 0.0155397 0.0164949 0.0172285 0.017725 0.0179845 0.0180071 0.017796 0.0173546 0.0166829 0.0157809 0.0146699 0.013371 0.0118843 0.0102099 0.00838257 0.00643747 0.00437457 0.00219386 -6.24087e-05 -0.00235199 -0.00467489 -0.0070311 -0.0093786 -0.0116754 -0.0139215 -0.0161168 -0.0182265 -0.0202156 -0.022084 -0.0238317 -0.0254357 -0.0268729 -0.0281432 -0.0292467 -0.0301741 -0.0309165 -0.0314737 -0.0318458 -0.032037 -0.0320516 -0.0318895 -0.0315508 -0.0310505 -0.0304038 -0.0296107 -0.0286711 -0.0276077 -0.0264432 -0.0251774 -0.0238104 -0.0223693 -0.0208811 -0.0193459 -0.0177636 -0.0161636 -0.0145754 -0.0129991 -0.0114345 -0.00991273 -0.0084646 -0.00709015 -0.00578937 -0.00458151 -0.00348578 -0.00250219 -0.00163075 -0.000917296 -0.000407687 -0.000101922 0 0 -0.000132673 -0.000530693 -0.00119406 -0.00212277 -0.0032513 -0.00451409 -0.00591116 -0.0074425 -0.00907848 -0.0107895 -0.0125755 -0.0144364 -0.0163295 -0.0182118 -0.0200833 -0.021944 -0.0237555 -0.0254795 -0.027116 -0.0286649 -0.0300938 -0.0313702 -0.0324941 -0.0334654 -0.0342601 -0.0348541 -0.0352473 -0.0354397 -0.0354189 -0.0351725 -0.0347003 -0.0340025 -0.0330813 -0.0319392 -0.0305759 -0.0289917 -0.0272052 -0.0252353 -0.0230819 -0.0207451 -0.0182592 -0.0156586 -0.0129433 -0.0101132 -0.00721442 -0.00429281 -0.0013484 0.00161881 0.00455804 0.00741849 0.0102002 0.0129031 0.01548 0.0178836 0.0201139 0.022171 0.0240194 0.0256235 0.0269835 0.0280993 0.0289535 0.0295289 0.0298254 0.029843 0.0295856 0.0290571 0.0282574 0.0271866 0.0258687 0.024328 0.0225644 0.020578 0.0184085 0.016096 0.0136403 0.0110414 0.00834771 0.00560738 0.00282043 -1.31362e-05 -0.00284505 -0.00562705 -0.00835914 -0.0110413 -0.013633 -0.0160936 -0.0184232 -0.0206218 -0.022662 -0.0245164 -0.026185 -0.0276679 -0.0289534 -0.0300298 -0.0308971 -0.0315554 -0.032008 -0.0322585 -0.0323069 -0.0321532 -0.0318133 -0.0313031 -0.0306226 -0.0297719 -0.0287754 -0.0276579 -0.0264193 -0.0250597 -0.0236089 -0.0220967 -0.0205231 -0.0188881 -0.0172245 -0.015565 -0.0139096 -0.0122583 -0.0106457 -0.00910647 -0.00764061 -0.00624812 -0.00495128 -0.00377235 -0.00271134 -0.00176825 -0.000994643 -0.000442063 -0.000110516 0 0 -0.000142563 -0.000570252 -0.00128307 -0.00228101 -0.0034915 -0.00484196 -0.00633239 -0.00796279 -0.00969957 -0.0115091 -0.0133915 -0.0153467 -0.0173271 -0.0192854 -0.0212216 -0.0231355 -0.0249851 