<?xml version="1.0"?> 
<VTKFile type="StructuredGrid" version="0.1"> 
<StructuredGrid WholeExtent="0 128 0 128 0 0"> 
<Piece Extent="0 128 0 128 0 0"> 
<PointData>
<DataArray type="Float32" Name="u" format="ascii" NumberOfComponents="1"> 
0 0 0 0 0 0 0 0 0 0 0 0 0 0 0 0 0 0 0 0 0 0 0 0 0 0 0 0 0 0 0 0 0 0 0 0 0 0 0 0 0 0 0 0 0 0 0 0 0 0 0 0 0 0 0 0 0 0 0 0 0 0 0 0 0 0 0 0 0 0 0 0 0 0 0 0 0 0 0 0 0 0 0 0 0 0 0 0 0 0 0 0 0 0 0 0 0 0 0 0 0 0 0 0 0 0 0 0 0 0 0 0 0 0 0 0 0 0 0 0 0 0 0 0 0 0 0 0 0 0 2.66447e-09 1.06579e-08 2.39802e-08 4.26315e-08 4.11772e-08 -5.81688e-09 -9.83509e-08 -2.36425e-07 -4.26557e-07 -6.75264e-07 -9.82547e-07 -1.34841e-06 -1.75626e-06 -2.18951e-06 -2.64817e-06 -3.13224e-06 -3.60516e-06 -4.03039e-06 -4.40793e-06 -4.73778e-06 -4.97784e-06 -5.08602e-06 -5.06232e-06 -4.90674e-06 -4.58963e-06 -4.08135e-06 -3.3819e-06 -2.49127e-06 -1.40331e-06 -1.11838e-07 1.38314e-06 3.08161e-06 4.96806e-06 7.02696e-06 9.25831e-06 1.16621e-05 1.42118e-05 1.6881e-05 1.96696e-05 2.25776e-05 2.55769e-05 2.86394e-05 3.1765e-05 3.49539e-05 3.81767e-05 4.14041e-05 4.46363e-05 4.78731e-05 5.10778e-05 5.42139e-05 5.72813e-05 6.028e-05 6.3163e-05 6.58834e-05 6.8441e-05 7.0836e-05 7.302e-05 7.49446e-05 7.66098e-05 7.80156e-05 7.91306e-05 7.99233e-05 8.03936e-05 8.05416e-05 8.03675e-05 7.98718e-05 7.90545e-05 7.79154e-05 7.64868e-05 7.48005e-05 7.28565e-05 7.0655e-05 6.82445e-05 6.56736e-05 6.29424e-05 6.00509e-05 5.7046e-05 5.39748e-05 5.08372e-05 4.76333e-05 4.43995e-05 4.11724e-05 3.79518e-05 3.47379e-05 3.15595e-05 2.84455e-05 2.53961e-05 2.24111e-05 1.95183e-05 1.67454e-05 1.40924e-05 1.15592e-05 9.17208e-06 6.95697e-06 4.91388e-06 3.04282e-06 1.35894e-06 -1.22624e-07 -1.40188e-06 -2.47882e-06 -3.35981e-06 -4.05122e-06 -4.55303e-06 -4.86526e-06 -5.01745e-06 -5.03918e-06 -4.93043e-06 -4.6912e-06 -4.36327e-06 -3.98838e-06 -3.56654e-06 -3.09776e-06 -2.61817e-06 -2.16393e-06 -1.73504e-06 -1.33151e-06 -9.69659e-07 -6.65834e-07 -4.20032e-07 -2.32253e-07 -9.59968e-08 -4.76256e-09 4.14499e-08 4.26405e-08 2.39853e-08 1.06601e-08 2.66503e-09 0 0 1.06579e-08 4.26315e-08 9.59208e-08 1.70526e-07 1.64709e-07 -2.32675e-08 -3.93404e-07 -9.45699e-07 -1.70623e-06 -2.70106e-06 -3.93019e-06 -5.39363e-06 -7.02502e-06 -8.75805e-06 -1.05927e-05 -1.2529e-05 -1.44206e-05 -1.61216e-05 -1.76317e-05 -1.89511e-05 -1.99114e-05 -2.03441e-05 -2.02493e-05 -1.9627e-05 -1.83585e-05 -1.63254e-05 -1.35276e-05 -9.96509e-06 -5.61323e-06 -4.4735e-07 5.53254e-06 1.23264e-05 1.98723e-05 2.81079e-05 3.70333e-05 4.66484e-05 5.68474e-05 6.7524e-05 7.86783e-05 9.03103e-05 0.000102308 0.000114557 0.00012706 0.000139816 0.000152707 0.000165617 0.000178545 0.000191492 0.000204311 0.000216856 0.000229125 0.00024112 0.000252652 0.000263533 0.000273764 0.000283344 0.00029208 0.000299778 0.000306439 0.000312063 0.000316522 0.000319693 0.000321574 0.000322166 0.00032147 0.000319487 0.000316218 0.000311662 0.000305947 0.000299202 0.000291426 0.00028262 0.000272978 0.000262694 0.00025177 0.000240204 0.000228184 0.000215899 0.000203349 0.000190533 0.000177598 0.000164689 0.000151807 0.000138951 0.000126238 0.000113782 0.000101584 8.96443e-05 7.80731e-05 6.69815e-05 5.63694e-05 4.62369e-05 3.66883e-05 2.78279e-05 1.96555e-05 1.21713e-05 5.43578e-06 -4.90497e-07 -5.60752e-06 -9.91529e-06 -1.34393e-05 -1.62049e-05 -1.82121e-05 -1.9461e-05 -2.00698e-05 -2.01567e-05 -1.97217e-05 -1.87648e-05 -1.74531e-05 -1.59535e-05 -1.42662e-05 -1.2391e-05 -1.04727e-05 -8.65572e-06 -6.94018e-06 -5.32603e-06 -3.87864e-06 -2.66333e-06 -1.68013e-06 -9.29011e-07 -3.83987e-07 -1.90502e-08 1.658e-07 1.70562e-07 9.59412e-08 4.26405e-08 1.06601e-08 0 0 2.39802e-08 9.59208e-08 2.15822e-07 3.83683e-07 3.70595e-07 -5.23519e-08 -8.85158e-07 -2.12782e-06 -3.83901e-06 -6.07738e-06 -8.84293e-06 -1.21357e-05 -1.58063e-05 -1.97056e-05 -2.38335e-05 -2.81901e-05 -3.24464e-05 -3.62735e-05 -3.96714e-05 -4.264e-05 -4.48006e-05 -4.57742e-05 -4.55609e-05 -4.41607e-05 -4.13067e-05 -3.67322e-05 -3.04371e-05 -2.24214e-05 -1.26298e-05 -1.00654e-06 1.24482e-05 2.77345e-05 4.47126e-05 6.32427e-05 8.33248e-05 0.000104959 0.000127907 0.000151929 0.000177026 0.000203198 0.000230192 0.000257754 0.000285885 0.000314585 0.00034359 0.000372637 0.000401726 0.000430858 0.000459701 0.000487925 0.000515532 0.00054252 0.000568467 0.00059295 0.000615969 0.000637524 0.00065718 0.000674501 0.000689488 0.000702141 0.000712176 0.000719309 0.000723542 0.000724874 0.000723308 0.000718847 0.00071149 0.000701239 0.000688381 0.000673204 0.000655709 0.000635895 0.0006142 0.000591062 0.000566482 0.000540458 0.000513414 0.000485773 0.000457535 0.0004287 0.000399596 0.000370551 0.000341566 0.000312641 0.000284035 0.00025601 0.000228565 0.0002017 0.000175665 0.000150708 0.000126831 0.000104033 8.25488e-05 6.26127e-05 4.42249e-05 2.73854e-05 1.22305e-05 -1.10362e-06 -1.26169e-05 -2.23094e-05 -3.02383e-05 -3.6461e-05 -4.09773e-05 -4.37873e-05 -4.51571e-05 -4.53526e-05 -4.43738e-05 -4.22208e-05 -3.92694e-05 -3.58954e-05 -3.20989e-05 -2.78798e-05 -2.35635e-05 -1.94754e-05 -1.56154e-05 -1.19836e-05 -8.72693e-06 -5.9925e-06 -3.78028e-06 -2.09028e-06 -8.63971e-07 -4.2863e-08 3.73049e-07 3.83765e-07 2.15868e-07 9.59412e-08 2.39853e-08 0 0 4.26315e-08 1.70526e-07 3.83683e-07 6.82103e-07 6.58836e-07 -9.30701e-08 -1.57361e-06 -3.7828e-06 -6.8249e-06 -1.08042e-05 -1.57208e-05 -2.15745e-05 -2.81001e-05 -3.50322e-05 -4.23708e-05 -5.01158e-05 -5.76826e-05 -6.44863e-05 -7.05269e-05 -7.58045e-05 -7.96454e-05 -8.13763e-05 -8.09971e-05 -7.85078e-05 -7.34341e-05 -6.53016e-05 -5.41104e-05 -3.98603e-05 -2.24529e-05 -1.7894e-06 2.21302e-05 4.93058e-05 7.9489e-05 0.000112431 0.000148133 0.000186594 0.000227389 0.000270096 0.000314713 0.000361241 0.00040923 0.00045823 0.000508241 0.000559262 0.000610827 0.000662466 0.00071418 0.000765969 0.000817245 0.000867423 0.000916501 0.00096448 0.00101061 0.00105413 0.00109506 0.00113338 0.00116832 0.00119911 0.00122576 0.00124825 0.00126609 0.00127877 0.0012863 0.00128866 0.00128588 0.00127795 0.00126487 0.00124665 0.00122379 0.00119681 0.0011657 0.00113048 0.00109191 0.00105078 0.00100708 0.000960814 0.000912736 0.000863597 0.000813396 0.000762133 0.000710392 0.000658758 0.000607229 0.000555806 0.000504951 0.000455129 0.000406337 0.000358577 0.000312292 0.000267926 0.000225478 0.000184948 0.000146753 0.000111311 7.86221e-05 4.86852e-05 2.17431e-05 -1.96199e-06 -2.24301e-05 -3.96612e-05 -5.3757e-05 -6.48195e-05 -7.28485e-05 -7.78441e-05 -8.02793e-05 -8.06268e-05 -7.88868e-05 -7.50592e-05 -6.98123e-05 -6.38141e-05 -5.70647e-05 -4.95641e-05 -4.18907e-05 -3.46229e-05 -2.77607e-05 -2.13041e-05 -1.55145e-05 -1.06533e-05 -6.7205e-06 -3.71605e-06 -1.53595e-06 -7.62009e-08 6.63198e-07 6.82248e-07 3.83765e-07 1.70562e-07 4.26405e-08 0 0 4.16691e-08 1.66676e-07 3.75022e-07 6.66705e-07 4.6044e-07 -8.2506e-07 -3.1898e-06 -6.63377e-06 -1.12908e-05 -1.72946e-05 -2.46453e-05 -3.33429e-05 -4.29676e-05 -5.30997e-05 -6.37394e-05 -7.48865e-05 -8.56574e-05 -9.51688e-05 -0.00010342 -0.000110412 -0.000115153 -0.00011665 -0.000114903 -0.000109913 -0.000101007 -8.75132e-05 -6.94317e-05 -4.67625e-05 -1.93993e-05 1.27643e-05 4.97283e-05 9.14927e-05 0.000137664 0.000187848 0.000242045 0.000300256 0.000361854 0.000426215 0.00049334 0.000563227 0.000635237 0.000708731 0.000783709 0.00086017 0.000937447 0.00101488 0.00109246 0.00117019 0.0012472 0.00132263 0.00139648 0.00146874 0.00153828 0.00160395 0.00166575 0.00172368 0.00177654 0.00182315 0.0018635 0.00189759 0.00192464 0.00194388 0.00195529 0.00195888 0.00195467 0.00194264 0.00192282 0.00189519 0.00186054 0.00181969 0.00177262 0.00171933 0.00166102 0.00159891 0.00153297 0.00146323 0.00139081 0.00131686 0.00124139 0.00116439 0.00108672 0.00100926 0.000931984 0.00085491 0.000778692 0.000703988 0.000630799 0.000559124 0.000489595 0.00042284 0.000358861 0.000297658 0.000239844 0.000186035 0.00013623 9.04303e-05 4.90193e-05 1.23813e-05 -1.94836e-05 -4.65753e-05 -6.90052e-05 -8.68848e-05 -0.000100214 -0.000108993 -0.000113891 -0.000115581 -0.00011406 -0.00010933 -0.000102375 -9.41792e-05 -8.47421e-05 -7.4064e-05 -6.3019e-05 -5.24811e-05 -4.24505e-05 -3.2927e-05 -2.43244e-05 -1.7056e-05 -1.1122e-05 -6.52232e-06 -3.12333e-06 -7.91394e-07 4.73501e-07 6.71349e-07 3.77634e-07 1.67837e-07 4.19593e-08 0 0 -3.84951e-09 -1.5398e-08 -3.46456e-08 -6.15921e-08 -7.93582e-07 -2.92796e-06 -6.46473e-06 -1.14039e-05 -1.78635e-05 -2.59616e-05 -3.56983e-05 -4.70735e-05 -5.94699e-05 -7.22702e-05 -8.54744e-05 -9.90826e-05 -0.000111899 -0.00012273 -0.000131574 -0.000138432 -0.00014203 -0.000141093 -0.000135623 -0.00012562 -0.000110291 -8.88461e-05 -6.12854e-05 -2.76088e-05 1.22145e-05 5.8215e-05 0.000110393 0.000168748 0.000232699 0.000301666 0.000375649 0.000454647 0.000537858 0.000624477 0.000714506 0.000807943 0.000904029 0.00100201 0.00110187 0.00120363 0.00130648 0.00140964 0.0015131 0.00161687 0.00171982 0.00182083 0.00191991 0.00201706 0.0021107 0.00219927 0.00228277 0.00236121 0.00243289 0.00249614 0.00255097 0.00259736 0.00263422 0.00266042 0.00267597 0.00268088 0.00267514 0.00265878 0.00263178 0.00259415 0.00254702 0.00249152 0.00242764 0.00235539 0.00227645 0.00219252 0.00210358 0.00200965 0.00191229 0.00181306 0.00171197 0.00160902 0.00150532 0.00140199 0.00129902 0.00119642 0.00109496 0.000995438 0.000897846 0.000802187 0.000709208 0.000619657 0.000533534 0.000450839 0.000372362 0.000298893 0.000230433 0.000166981 0.000109105 5.73731e-05 1.17861e-05 -2.76565e-05 -6.09929e-05 -8.82613e-05 -0.000109462 -0.000124594 -0.000134449 -0.000139815 -0.000140694 -0.000137085 -0.000130252 -0.000121461 -0.00011071 -9.79996e-05 -8.45131e-05 -7.14329e-05 -5.87591e-05 -4.64916e-05 -3.52392e-05 -2.56107e-05 -1.7606e-05 -1.12251e-05 -6.34954e-06 -2.86077e-06 -7.5879e-07 -4.35967e-08 -2.45232e-08 -1.08992e-08 -2.7248e-09 0 0 -9.39243e-08 -3.75697e-07 -8.45319e-07 -1.50279e-06 -3.10323e-06 -6.40177e-06 -1.13984e-05 -1.80931e-05 -2.6543e-05 -3.68052e-05 -4.88796e-05 -6.27663e-05 -7.7607e-05 -9.25436e-05 -0.000107576 -0.000122704 -0.000136409 -0.00014717 -0.000154988 -0.000159863 -0.000160276 -0.000154707 -0.000143158 -0.000125628 -0.000101286 -6.93005e-05 -2.96714e-05 1.7601e-05 7.23884e-05 0.000134562 0.000204123 0.00028107 0.000364594 0.000453885 0.000548943 0.000649768 0.000755401 0.000864882 0.000978211 0.00109539 0.00121561 0.00133805 0.00146273 0.00158964 0.00171793 0.00184676 0.00197612 0.00210601 0.00223509 0.00236202 0.0024868 0.00260942 0.00272786 0.00284009 0.00294613 0.00304596 0.00313736 0.00321809 0.00328816 0.00334756 0.0033948 0.0034284 0.00344835 0.00345465 0.00344731 0.00342635 0.00339176 0.00334355 0.00328323 0.00321231 0.00313079 0.00303867 0.0029382 0.00283161 0.0027189 0.00260008 0.00247717 0.00235219 0.00222515 0.00209604 0.0019662 0.00183696 0.00170834 0.00158033 0.00145376 0.00132948 0.00120748 0.00108777 0.000971134 0.000858377 0.000749497 0.000644492 0.000544308 0.000449887 0.00036123 0.000278336 0.000201999 0.000133014 7.13789e-05 1.70952e-05 -2.97199e-05 -6.89489e-05 -0.000100592 -0.000124649 -0.000141951 -0.000153331 -0.000158788 -0.000158323 -0.000153443 -0.000145658 -0.000134967 -0.000121371 -0.000106373 -9.14783e-05 -7.66866e-05 -6.19979e-05 -4.82592e-05 -3.63174e-05 -2.61724e-05 -1.78244e-05 -1.12146e-05 -6.28433e-06 -3.03367e-06 -1.46259e-06 -8.22707e-07 -3.65647e-07 -9.14118e-08 0 0 -2.28555e-07 -9.14221e-07 -2.057e-06 -3.65689e-06 -6.46851e-06 -1.12465e-05 -1.79908e-05 -2.67015e-05 -3.73294e-05 -4.98254e-05 -6.41894e-05 -8.04214e-05 -9.7379e-05 -0.00011392 -0.000130044 -0.000145751 -0.000159185 -0.000168489 -0.000173662 -0.000174705 -0.000169891 -0.000157492 -0.000137508 -0.000109939 -7.39926e-05 -2.88762e-05 2.54102e-05 8.88667e-05 0.000161123 0.000241807 0.00033092 0.000428461 0.00053335 0.000644507 0.00076193 0.00088562 0.00101448 0.00114743 0.00128446 0.00142556 0.00156997 0.00171687 0.00186629 0.0020182 0.00217179 0.00232623 0.0024815 0.00263762 0.00279303 0.00294621 0.00309714 0.00324582 0.00338975 0.00352642 0.00365581 0.00377794 0.00388995 0.003989 0.00407508 0.00414819 0.00420641 0.00424782 0.00427241 0.00428019 0.00427116 0.00424535 0.00420276 0.00414338 0.00406916 0.00398205 0.00388205 0.00376917 0.00364626 0.00351618 0.00337894 0.00323453 0.00308546 0.00293426 0.00278091 0.00262543 0.00246934 0.00231417 0.00215994 0.00200664 0.00185509 0.00170611 0.0015597 0.00141586 0.00127537 0.001139 0.00100675 0.000878618 0.000755682 0.000639016 0.000528621 0.000424496 0.000327703 0.000239302 0.000159295 8.76798e-05 2.48137e-05 -2.89477e-05 -7.36044e-05 -0.000109156 -0.000136399 -0.000156128 -0.000168343 -0.000173044 -0.000171948 -0.000166772 -0.000157515 -0.000144178 -0.000128599 -0.000112617 -9.62328e-05 -7.94458e-05 -6.33842e-05 -4.91761e-05 -3.68214e-05 -2.63202e-05 -1.77184e-05 -1.10621e-05 -6.35115e-06 -3.58563e-06 -2.01692e-06 -8.96407e-07 -2.24102e-07 0 0 -4.14604e-07 -1.65842e-06 -3.73144e-06 -6.63367e-06 -1.10318e-05 -1.75924e-05 -2.63155e-05 -3.72012e-05 -5.00352e-05 -6.46033e-05 -8.09056e-05 -9.8942e-05 -0.000117255 -0.000134385 -0.000150334 -0.000165101 -0.000176524 -0.00018244 -0.000182849 -0.000177752 -0.000165315 -0.000143703 -0.000112918 -7.29584e-05 -2.32104e-05 3.69408e-05 0.000107495 0.000188453 0.000279088 0.000378677 0.000487218 0.000604712 0.00072978 0.000861042 0.0009985 0.00114215 0.00129084 0.00144342 0.00159988 0.00176023 0.00192383 0.00209005 0.00225889 0.00243034 0.00260374 0.0027784 0.00295433 0.00313152 0.00330832 0.00348309 0.00365582 0.00382652 0.00399221 0.00414993 0.00429967 0.00444143 0.00457174 0.00468711 0.00478755 0.00487305 0.00494125 0.00498975 0.00501857 0.0050277 0.00501716 0.00498696 0.00493711 0.0048676 0.00478084 0.00467923 0.00456277 0.00443146 0.00428879 0.00413826 0.00397986 0.0038136 0.00364244 0.00346936 0.00329435 0.00311742 0.00294021 0.00276435 0.00258986 0.00241673 0.00224563 0.00207722 0.00191151 0.0017485 0.0015888 0.00143304 0.00128122 0.00113333 0.000990513 0.000853906 0.000723508 0.000599318 0.000482694 0.000374991 0.00027621 0.000186351 0.00010612 3.62223e-05 -2.33416e-05 -7.25719e-05 -0.00011209 -0.000142516 -0.00016385 -0.000176093 -0.000181069 -0.0001806 -0.000174688 -0.000163332 -0.000148675 -0.000132859 -0.000115885 -9.77524e-05 -7.99018e-05 -6.37739e-05 -4.93685e-05 -3.66858e-05 -2.59345e-05 -1.73233e-05 -1.08523e-05 -6.52149e-06 -3.66834e-06 -1.63037e-06 -4.07593e-07 0 0 -6.58933e-07 -2.63573e-06 -5.9304e-06 -1.05429e-05 -1.69354e-05 -2.55697e-05 -3.6446e-05 -4.95642e-05 -6.44728e-05 -8.07202e-05 -9.83065e-05 -0.000117232 -0.000135702 -0.000151926 -0.000165902 -0.000177631 -0.00018472 -0.000184778 -0.000177803 -0.000163797 -0.000140986 -0.000107599 -6.36345e-05 -9.09363e-06 5.62606e-05 0.000132665 0.000220119 0.000318623 0.000426957 0.0005439 0.000669452 0.000803614 0.000944696 0.00109101 0.00124255 0.00139932 0.00156022 0.00172416 0.00189113 0.00206114 0.00223391 0.00240916 0.00258689 0.00276709 0.00294945 0.00313365 0.00331968 0.00350755 0.00369565 0.00388239 0.00406775 0.00425176 0.00443105 0.00460231 0.00476553 0.00492071 0.00506378 0.00519068 0.0053014 0.00539596 0.00547152 0.00552527 0.00555723 0.00556738 0.00555574 0.00552233 0.00546714 0.00539019 0.0052943 0.00518233 0.00505427 0.00491012 0.00475396 0.00458987 0.00441786 0.00423791 0.00405337 0.00386758 0.00368053 0.00349223 0.00330426 0.00311823 0.00293414 0.00275198 0.00257207 0.00239472 0.00221993 0.00204771 0.00187832 0.00171202 0.00154883 0.00138874 0.00123283 0.00108218 0.000936789 0.000796656 0.000663448 0.00053883 0.000422801 0.000315363 0.000217711 0.000131041 5.53539e-05 -9.35078e-06 -6.33212e-05 -0.000106805 -0.000139803 -0.000162315 -0.000176106 -0.000182941 -0.000182821 -0.000175745 -0.000164085 -0.000150214 -0.00013413 -0.000115834 -9.70995e-05 -7.96979e-05 -6.36296e-05 -4.88946e-05 -3.59361e-05 -2.51973e-05 -1.66783e-05 -1.03789e-05 -5.83815e-06 -2.59474e-06 -6.48684e-07 0 0 -9.61542e-07 -3.84617e-06 -8.65388e-06 -1.53847e-05 -2.41793e-05 -3.51785e-05 -4.83823e-05 -6.37907e-05 -8.06424e-05 -9.81761e-05 -0.000116392 -0.00013529 -0.000152722 -0.000166542 -0.000176748 -0.000183341 -0.000183774 -0.000175502 -0.000158523 -0.000132839 -9.69051e-05 -4.91781e-05 1.0342e-05 8.16554e-05 0.00016442 0.000258296 0.000363282 0.000479378 0.000604728 0.000737477 0.000877624 0.00102517 0.0011781 0.0013344 0.00149407 0.00165711 0.00182261 0.00198964 0.00215821 0.00232831 0.00250022 0.00267421 0.00285028 0.00302844 0.00320892 0.00339195 0.00357755 0.0037657 0.00395501 0.00414409 0.00433293 0.00452153 0.00470628 0.00488357 0.00505341 0.00521578 0.00536609 0.00549971 0.00561664 0.0057169 0.00579723 0.00585439 0.00588839 0.00589922 0.0058869 0.00585145 0.00579286 0.00571114 0.00560955 0.00549135 0.00535655 0.00520515 0.00504176 0.00487102 0.00469292 0.00450747 0.00431827 0.00412894 0.00393946 0.00374986 0.00356151 0.00337581 0.00319277 0.00301238 0.0028344 0.00265859 0.00248495 0.00231348 0.00214391 0.00197594 0.00180959 0.00164486 0.00148264 0.00132384 0.00116847 0.00101651 0.000869967 0.000730819 0.000599068 0.000474715 0.000359586 0.000255509 0.000162482 8.05071e-05 9.90629e-06 -4.89967e-05 -9.6202e-05 -0.000131709 -0.00015706 -0.000173795 -0.000181914 -0.000181417 -0.00017483 -0.000164681 -0.000150968 -0.000133692 -0.000114977 -9.69482e-05 -7.96046e-05 -6.29465e-05 -4.77233e-05 -3.46841e-05 -2.3829e-05 -1.5158e-05 -8.52637e-06 -3.7895e-06 -9.47374e-07 0 0 -1.32243e-06 -5.28972e-06 -1.19019e-05 -2.11589e-05 -3.27636e-05 -4.64187e-05 -6.21244e-05 -7.98804e-05 -9.85437e-05 -0.000116971 -0.000135162 -0.000153117 -0.000168315 -0.000178232 -0.000182871 -0.00018223 -0.000173685 -0.000154612 -0.00012501 -8.48787e-05 -3.30717e-05 3.15585e-05 0.000109012 0.000199289 0.000301269 0.000413834 0.000536983 0.000670717 0.000812403 0.000959407 0.00111173 0.00126937 0.00142999 0.00159122 0.00175307 0.00191554 0.00207801 0.00223987 0.0024011 0.00256172 0.00272274 0.0028852 0.00304908 0.0032144 0.00338214 0.00355332 0.00372793 0.00390598 0.00408642 0.0042682 0.00445135 0.00463584 0.00481789 0.00499371 0.0051633 0.00532665 0.00547865 0.00561419 0.00573327 0.00583588 0.00591837 0.00597709 0.00601205 0.00602323 0.00601065 0.00597433 0.00591426 0.00583045 0.00572657 0.00560629 0.00546962 0.00531655 0.0051522 0.00498171 0.00480507 0.00462228 0.00443713 0.00425342 0.00407114 0.0038903 0.00371194 0.00353709 0.00336575 0.00319793 0.00303263 0.00286884 0.00270658 0.00254583 0.00238558 0.0022248 0.0020635 0.00190168 0.00173993 0.00157889 0.00141854 0.00125888 0.00110225 0.000950958 0.000805011 0.000664408 0.000531747 0.000409625 0.000298043 0.000197002 0.000107593 3.09102e-05 -3.30462e-05 -8.42763e-05 -0.000123931 -0.000153161 -0.000171967 -0.000180347 -0.00018091 -0.00017626 -0.000166399 -0.000151325 -0.000133535 -0.000115525 -9.72935e-05 -7.88416e-05 -6.12961e-05 -4.57837e-05 -3.23046e-05 -2.08586e-05 -1.1733e-05 -5.21466e-06 -1.30366e-06 0 0 -1.72709e-06 -6.90838e-06 -1.55438e-05 -2.76335e-05 -4.23185e-05 -5.87398e-05 -7.68976e-05 -9.67917e-05 -0.000116836 -0.000135443 -0.000152614 -0.000168349 -0.000179782 -0.00018405 -0.000181153 -0.000171091 -0.000151315 -0.000119277 -7.49784e-05 -1.84178e-05 5.09174e-05 0.00013354 0.000229451 0.000338648 0.000459016 0.000588436 0.000726907 0.000874431 0.0010275 0.0011826 0.00133974 0.00149891 0.0016575 0.00181287 0.00196502 0.00211396 0.00225955 0.00240163 0.00254021 0.0026753 0.00280887 0.00294292 0.00307746 0.00321247 0.00334993 0.00349182 0.00363812 0.00378884 0.0039435 0.00410162 0.00426318 0.0044282 0.00459291 0.00475353 0.00491007 0.00506253 0.00520549 0.00533351 0.0054466 0.00554475 0.00562403 0.0056805 0.00571414 0.00572496 0.00571297 0.00567818 0.00562059 0.0055402 0.00544097 0.00532685 0.00519784 0.00505394 0.00490059 0.00474321 0.0045818 0.00441637 0.00425067 0.00408848 0.0039298 0.00377462 0.00362343 0.00347672 0.00333449 0.00319674 0.00306151 0.00292684 0.00279274 0.00265919 0.00252423 0.00238588 0.00224413 0.00209899 0.0019506 0.00179909 0.00164448 0.00148676 0.00132853 0.00117239 0.00101835 0.000866399 0.000720011 0.000582654 0.000454328 0.000335032 0.000226849 0.000131861 5.00687e-05 -1.85282e-05 -7.44547e-05 -0.000118236 -0.000149871 -0.000169361 -0.000179238 -0.000182037 -0.000177756 -0.000166397 -0.000150795 -0.000133786 -0.000115372 -9.55515e-05 -7.58901e-05 -5.79531e-05 -4.17404e-05 -2.72521e-05 -1.53293e-05 -6.81304e-06 -1.70326e-06 0 0 -2.16103e-06 -8.64411e-06 -1.94493e-05 -3.45764e-05 -5.24742e-05 -7.15912e-05 -9.19272e-05 -0.000113482 -0.000134177 -0.000151932 -0.000166746 -0.00017862 -0.000184429 -0.000181047 -0.000168475 -0.000146713 -0.000113523 -6.66667e-05 -6.14514e-06 6.8042e-05 0.000155465 0.000255696 0.000368733 0.000494577 0.000629871 0.000771258 0.000918737 0.00107231 0.00122753 0.00137997 0.00152961 0.00167647 0.00181777 0.00195075 0.0020754 0.00219174 0.00230032 0.00240172 0.00249593 0.00258295 0.00266598 0.00274819 0.00282959 0.00291018 0.0029931 0.00308151 0.00317539 0.00327476 0.00337993 0.00349122 0.00360862 0.00373214 0.00385836 0.00398385 0.00410862 0.00423267 0.0043506 0.00445703 0.00455196 0.00463538 0.00470329 0.0047517 0.00478059 0.00478998 0.00477986 0.00475023 0.0047011 0.00463246 0.00454832 0.00445269 0.00434557 0.00422696 0.00410224 0.0039768 0.00385065 0.00372378 0.00359961 0.00348157 0.00336965 0.00326384 0.00316385 0.00306937 0.00298039 0.00289691 0.00281581 0.00273396 0.00265137 0.00256803 0.00248078 0.00238646 0.00228506 0.0021766 0.00206051 0.00193623 0.00180377 0.00166312 0.00151704 0.00136827 0.0012168 0.00106265 0.0009102 0.00076386 0.000623625 0.000489496 0.000364784 0.000252801 0.000153547 6.70224e-05 -6.3669e-06 -6.62139e-05 -0.000112519 -0.000145281 -0.00016673 -0.000179094 -0.000182374 -0.00017657 -0.000164777 -0.000150092 -0.000132516 -0.000112048 -9.07411e-05 -7.06492e-05 -5.17721e-05 -3.41098e-05 -1.91868e-05 -8.52745e-06 -2.13186e-06 0 0 -2.62423e-06 -1.04969e-05 -2.36181e-05 -4.19877e-05 -6.32309e-05 -8.49728e-05 -0.000107213 -0.000129953 -0.000150568 -0.000166436 -0.000177557 -0.000183931 -0.000182254 -0.000169222 -0.000144837 -0.000109096 -6.03085e-05 3.22032e-06 8.14901e-05 0.000174501 0.000280573 0.000398025 0.000526859 0.000667075 0.000813834 0.0009623 0.00111247 0.00126435 0.00141251 0.00155151 0.00168135 0.00180203 0.00191079 0.00200485 0.00208421 0.00214887 0.00220034 0.00224014 0.00226825 0.00228469 0.00229406 0.00230099 0.00230548 0.00230752 0.00231164 0.00232239 0.00233975 0.00236373 0.0023957 0.00243701 0.00248766 0.00254766 0.00261424 0.00268467 0.00275894 0.00283705 0.00291399 0.00298475 0.00304934 0.00310775 0.00315615 0.0031907 0.00321142 0.00321828 0.0032113 0.00319047 0.00315577 0.00310722 0.00304864 0.00298384 0.00291283 0.0028356 0.00275716 0.0026825 0.00261162 0.00254452 0.00248396 0.00243269 0.00239069 0.00235798 0.00233321 0.00231502 0.00230343 0.00229842 0.00229551 0.00229019 0.00228246 0.00227233 0.00225521 0.00222653 0.0021863 0.0021345 0.00206967 0.0019903 0.0018964 0.00178797 0.00166778 0.00153858 0.00140037 0.00125315 0.00110231 0.000953241 0.000805935 0.000660394 0.000521399 0.000393731 0.00027739 0.000172376 8.03324e-05 2.90407e-06 -5.99094e-05 -0.000108108 -0.000143385 -0.000167433 -0.000180253 -0.000181844 -0.000175482 -0.000164442 -0.000148725 -0.00012833 -0.000105849 -8.38721e-05 -6.23997e-05 -4.14316e-05 -2.33053e-05 -1.03579e-05 -2.58948e-06 0 0 -3.11671e-06 -1.24668e-05 -2.80504e-05 -4.98673e-05 -7.45885e-05 -9.88848e-05 -0.000122756 -0.000146203 -0.000166008 -0.000178956 -0.000185047 -0.000184281 -0.000173258 -0.000148576 -0.000110238 -5.82415e-05 8.32732e-06 9.03835e-05 0.000187927 0.000300958 0.000426239 0.000560529 0.00070383 0.000856141 0.0010109 0.00116156 0.00130811 0.00145056 0.00158242 0.00169722 0.00179495 0.00187562 0.00193658 0.00197519 0.00199145 0.00198536 0.00195961 0.00191688 0.00185718 0.00178051 0.00169314 0.00160134 0.00150513 0.00140449 0.00130556 0.00121446 0.00113119 0.00105576 0.000990805 0.000938986 0.000900298 0.000874743 0.00086056 0.000855989 0.000861028 0.000875679 0.000895658 0.000916683 0.000938754 0.00096187 0.0009826 0.000997511 0.0010066 0.00100988 0.00100731 0.000998895 0.000984623 0.000964496 0.000941917 0.000920285 0.000899601 0.000879864 0.000865338 0.000860284 0.000864703 0.000878594 0.000903717 0.000941831 0.000992936 0.00105703 0.00113149 0.00121369 0.00130362 0.0014013 0.00150063 0.00159554 0.00168603 0.0017721 0.00184753 0.00190611 0.00194783 0.0019727 0.00197807 0.0019613 0.00192238 0.00186131 0.00178075 0.00168333 0.00156905 0.00143791 0.00129635 0.0011508 0.00100126 0.000847726 0.000696693 0.00055465 0.000421596 0.000297531 0.000185643 8.91182e-05 7.95653e-06 -5.7842e-05 -0.000109203 -0.000147053 -0.000171392 -0.00018222 -0.00018291 -0.000176836 -0.000164 -0.000144399 -0.000121214 -9.76218e-05 -7.3623e-05 -4.92176e-05 -2.76849e-05 -1.23044e-05 -3.0761e-06 0 0 -3.60492e-06 -1.44197e-05 -3.24443e-05 -5.76788e-05 -8.5734e-05 -0.000112221 -0.000137139 -0.000160489 -0.000178454 -0.000187216 -0.000186775 -0.000177132 -0.000154951 -0.000116895 -6.29648e-05 6.83951e-06 9.23476e-05 0.000193389 0.000309964 0.000442072 0.000584607 0.000732462 0.000885638 0.00104413 0.00119954 0.00134345 0.00147586 0.00159678 0.00169879 0.00177452 0.00182394 0.00184708 0.00184168 0.00180553 0.00173863 0.00164097 0.00151665 0.00136977 0.00120034 0.00100835 0.000801799 0.000588696 0.000369039 0.000142828 -8.22269e-05 -0.000298416 -0.000505739 -0.000704196 -0.000889715 -0.00105822 -0.00120972 -0.00134421 -0.00146204 -0.00156357 -0.00164882 -0.00171776 -0.00177339 -0.0018187 -0.00185369 -0.00187835 -0.0018953 -0.00190715 -0.00191391 -0.00191558 -0.00191218 -0.00190375 -0.0018903 -0.0018718 -0.00184572 -0.00180948 -0.00176309 -0.00170655 -0.0016369 -0.00155118 -0.00144941 -0.00133158 -0.00119732 -0.0010463 -0.000878498 -0.000693925 -0.000496617 -0.000290617 -7.59219e-05 0.000147467 0.000371902 0.000589737 0.000800971 0.00100561 0.00119572 0.00136338 0.00150859 0.00163136 0.00172765 0.00179341 0.00182866 0.00183339 0.00180985 0.00176028 0.00168469 0.00158307 0.00146278 0.00133118 0.00118826 0.00103402 0.000876801 0.000724925 0.000578394 0.000437207 0.000306401 0.000191014 9.10463e-05 6.49726e-06 -6.24877e-05 -0.000115763 -0.000153329 -0.000175186 -0.000184647 -0.000185025 -0.000176321 -0.000158534 -0.000135438 -0.000110806 -8.464e-05 -5.69384e-05 -3.20279e-05 -1.42346e-05 -3.55865e-06 0 0 -4.05536e-06 -1.62214e-05 -3.64982e-05 -6.48858e-05 -9.58545e-05 -0.000123875 -0.000148947 -0.00017107 -0.000185862 -0.000188938 -0.000180299 -0.000159945 -0.000124843 -7.19632e-05 -1.30402e-06 8.71341e-05 0.000191715 0.000310803 0.000444397 0.000592498 0.000747821 0.000903081 0.00105828 0.00121341 0.0013582 0.00148237 0.00158592 0.00166885 0.00172315 0.00174082 0.00172187 0.00166628 0.00157268 0.00143968 0.00126728 0.00105548 0.000810018 0.000536644 0.000235356 -9.38453e-05 -0.000441332 -0.000797477 -0.00116228 -0.00153574 -0.00190879 -0.00227238 -0.0026265 -0.00297116 -0.00330083 -0.00360999 -0.00389865 -0.0041668 -0.0044129 -0.0046354 -0.00483429 -0.00500958 -0.00516216 -0.00529293 -0.00540187 -0.00548899 -0.00555549 -0.00560256 -0.0056302 -0.00563841 -0.00562725 -0.00559675 -0.00554692 -0.00547776 -0.00538815 -0.00527697 -0.00514424 -0.00498994 -0.00481323 -0.00461326 -0.00439004 -0.00414355 -0.00387536 -0.003587 -0.00327848 -0.00294981 -0.00260644 -0.00225387 -0.0018921 -0.00152112 -0.00114991 -0.000787471 -0.000433793 -8.88781e-05 0.000237742 0.000536538 0.000807508 0.00105065 0.00126031 0.00143084 0.00156222 0.00165446 0.00170898 0.00172721 0.00170914 0.00165477 0.00157207 0.00146901 0.00134559 0.00120181 0.00104786 0.000893926 0.000740012 0.000586119 0.000439442 0.000307178 0.000189327 8.58897e-05 -1.54115e-06 -7.1372e-05 -0.000123603 -0.000158234 -0.00017828 -0.000186759 -0.00018367 -0.000169012 -0.000147122 -0.000122334 -9.46483e-05 -6.40648e-05 -3.60364e-05 -1.60162e-05 -4.00405e-06 0 0 -4.46802e-06 -1.78721e-05 -4.02121e-05 -7.14883e-05 -0.00010495 -0.000133847 -0.000158178 -0.000177945 -0.000188231 -0.000184123 -0.000165619 -0.000132719 -8.29362e-05 -1.37816e-05 7.47446e-05 0.000182642 0.00030643 0.000442625 0.000591228 0.000752238 0.000915882 0.00107238 0.00122175 0.00136397 0.00148688 0.00157832 0.00163828 0.00166677 0.00165548 0.00159613 0.00148871 0.00133323 0.00112957 0.000877628 0.000577399 0.000228885 -0.000160292 -0.000582511 -0.00103777 -0.00152607 -0.00203626 -0.00255718 -0.00308883 -0.00363121 -0.00417414 -0.00470743 -0.0052311 -0.00574512 -0.00624253 -0.00671632 -0.00716649 -0.00759305 -0.00799203 -0.00835948 -0.0086954 -0.00899979 -0.00927065 -0.00950598 -0.00970578 -0.00987005 -0.00999797 -0.0100887 -0.0101423 -0.0101586 -0.0101379 -0.0100801 -0.00998525 -0.00985336 -0.00968536 -0.00948219 -0.00924384 -0.00897031 -0.00866366 -0.00832595 -0.00795717 -0.00755733 -0.00713039 -0.00668028 -0.00620702 -0.00571061 -0.00519799 -0.00467608 -0.00414491 -0.00360445 -0.00306481 -0.00253609 -0.00201826 -0.00151135 -0.00102639 -0.000574414 -0.000155426 0.000230574 0.000576076 0.000873568 0.00112305 0.00132452 0.00147815 0.00158411 0.0016424 0.00165301 0.00162423 0.00156431 0.00147327 0.0013511 0.00120986 0.00106165 0.000906451 0.000744268 0.000584765 0.000437609 0.000302799 0.000180335 7.36364e-05 -1.38793e-05 -8.2212e-05 -0.000131361 -0.000163809 -0.000182038 -0.000186046 -0.000175835 -0.000156267 -0.000132205 -0.000103648 -7.05966e-05 -3.97106e-05 -1.76492e-05 -4.41229e-06 0 0 -4.84289e-06 -1.93716e-05 -4.3586e-05 -7.74862e-05 -0.00011302 -0.000142136 -0.000164834 -0.000181114 -0.000185563 -0.00017277 -0.000142734 -9.5455e-05 -2.92287e-05 5.765e-05 0.000165181 0.000293364 0.000436492 0.000588855 0.000750455 0.00092129 0.00108879 0.00124037 0.00137605 0.00149581 0.00158558 0.0016313 0.00163295 0.00159054 0.0014958 0.00134045 0.00112449 0.000847925 0.000512354 0.000119374 -0.000331014 -0.000838809 -0.00139428 -0.00198769 -0.00261904 -0.00328833 -0.00398298 -0.00469041 -0.00541061 -0.00614358 -0.00687826 -0.00760357 -0.00831952 -0.0090261 -0.00971482 -0.0103772 -0.0110132 -0.0116229 -0.0121994 -0.0127358 -0.0132321 -0.0136884 -0.0140989 -0.0144579 -0.0147654 -0.0150215 