<?xml version="1.0"?> 
<VTKFile type="StructuredGrid" version="0.1"> 
<StructuredGrid WholeExtent="0 128 0 128 0 0"> 
<Piece Extent="0 128 0 128 0 0"> 
<PointData>
<DataArray type="Float32" Name="u" format="ascii" NumberOfComponents="1"> 
0 0 0 0 0 0 0 0 0 0 0 0 0 0 0 0 0 0 0 0 0 0 0 0 0 0 0 0 0 0 0 0 0 0 0 0 0 0 0 0 0 0 0 0 0 0 0 0 0 0 0 0 0 0 0 0 0 0 0 0 0 0 0 0 0 0 0 0 0 0 0 0 0 0 0 0 0 0 0 0 0 0 0 0 0 0 0 0 0 0 0 0 0 0 0 0 0 0 0 0 0 0 0 0 0 0 0 0 0 0 0 0 0 0 0 0 0 0 0 0 0 0 0 0 0 0 0 0 0 0 4.30614e-08 1.72246e-07 3.87553e-07 6.88983e-07 8.73454e-07 7.37887e-07 2.82281e-07 -4.93365e-07 -1.69712e-06 -3.43706e-06 -5.71319e-06 -8.5255e-06 -1.19191e-05 -1.59392e-05 -2.05857e-05 -2.58586e-05 -3.17525e-05 -3.8262e-05 -4.5387e-05 -5.31276e-05 -6.14408e-05 -7.02837e-05 -7.96564e-05 -8.95587e-05 -9.9918e-05 -0.000110661 -0.000121788 -0.0001333 -0.000145102 -0.000157103 -0.000169303 -0.000181701 -0.000194199 -0.000206696 -0.000219193 -0.00023169 -0.000244093 -0.000256309 -0.000268339 -0.000280182 -0.000291762 -0.000303 -0.000313898 -0.000324455 -0.000334615 -0.000344321 -0.000353574 -0.000362375 -0.000370686 -0.000378473 -0.000385735 -0.000392473 -0.000398668 -0.000404301 -0.000409371 -0.000413879 -0.000417817 -0.000421177 -0.000423959 -0.000426162 -0.000427786 -0.000428829 -0.00042929 -0.000429169 -0.000428469 -0.000427191 -0.000425336 -0.000422902 -0.000419897 -0.000416325 -0.000412188 -0.000407484 -0.000402228 -0.000396432 -0.000390096 -0.00038322 -0.000375829 -0.000367949 -0.00035958 -0.000350721 -0.000341414 -0.000331701 -0.000321583 -0.000311059 -0.00030019 -0.000289038 -0.000277602 -0.000265883 -0.000253959 -0.00024191 -0.000229736 -0.000217436 -0.000205102 -0.000192825 -0.000180605 -0.000168442 -0.000156429 -0.000144659 -0.000133133 -0.000121849 -0.000110892 -0.000100344 -9.02049e-05 -8.04752e-05 -7.12162e-05 -6.24894e-05 -5.42947e-05 -4.66322e-05 -3.95337e-05 -3.3031e-05 -2.71241e-05 -2.1813e-05 -1.70941e-05 -1.29638e-05 -9.42226e-06 -6.46937e-06 -4.05523e-06 -2.12993e-06 -6.93477e-07 2.54136e-07 8.17538e-07 1.10136e-06 1.1056e-06 8.3026e-07 4.67021e-07 2.07565e-07 5.18913e-08 0 0 1.72246e-07 6.88983e-07 1.55021e-06 2.75593e-06 3.49382e-06 2.95155e-06 1.12912e-06 -1.97346e-06 -6.78849e-06 -1.37483e-05 -2.28528e-05 -3.4102e-05 -4.76765e-05 -6.37567e-05 -8.23427e-05 -0.000103434 -0.00012701 -0.000153048 -0.000181548 -0.00021251 -0.000245763 -0.000281135 -0.000318625 -0.000358235 -0.000399672 -0.000442645 -0.000487154 -0.000533198 -0.000580408 -0.000628413 -0.000677212 -0.000726805 -0.000776795 -0.000826784 -0.000876772 -0.000926759 -0.000976371 -0.00102524 -0.00107336 -0.00112073 -0.00116705 -0.001212 -0.00125559 -0.00129782 -0.00133846 -0.00137728 -0.0014143 -0.0014495 -0.00148274 -0.00151389 -0.00154294 -0.00156989 -0.00159467 -0.0016172 -0.00163748 -0.00165552 -0.00167127 -0.00168471 -0.00169583 -0.00170465 -0.00171115 -0.00171532 -0.00171716 -0.00171668 -0.00171388 -0.00170877 -0.00170134 -0.00169161 -0.00167959 -0.0016653 -0.00164875 -0.00162994 -0.00160891 -0.00158573 -0.00156038 -0.00153288 -0.00150332 -0.0014718 -0.00143832 -0.00140288 -0.00136566 -0.00132681 -0.00128633 -0.00124424 -0.00120076 -0.00115615 -0.00111041 -0.00106353 -0.00101584 -0.00096764 -0.000918943 -0.000869744 -0.000820409 -0.000771301 -0.000722421 -0.000673769 -0.000625716 -0.000578637 -0.000532531 -0.000487397 -0.000443568 -0.000401375 -0.00036082 -0.000321901 -0.000284865 -0.000249958 -0.000217179 -0.000186529 -0.000158135 -0.000132124 -0.000108496 -8.72519e-05 -6.83762e-05 -5.18553e-05 -3.7689e-05 -2.58775e-05 -1.62209e-05 -8.51973e-06 -2.77391e-06 1.01654e-06 3.27015e-06 4.40544e-06 4.4224e-06 3.32104e-06 1.86809e-06 8.3026e-07 2.07565e-07 0 0 3.87553e-07 1.55021e-06 3.48797e-06 6.20084e-06 7.86109e-06 6.64098e-06 2.54053e-06 -4.44028e-06 -1.52741e-05 -3.09336e-05 -5.14187e-05 -7.67295e-05 -0.000107272 -0.000143453 -0.000185271 -0.000232728 -0.000285773 -0.000344358 -0.000408483 -0.000478148 -0.000552967 -0.000632553 -0.000716907 -0.000806029 -0.000899262 -0.000995951 -0.0010961 -0.0011997 -0.00130592 -0.00141393 -0.00152373 -0.00163531 -0.00174779 -0.00186026 -0.00197274 -0.00208521 -0.00219684 -0.00230678 -0.00241505 -0.00252164 -0.00262586 -0.002727 -0.00282508 -0.00292009 -0.00301153 -0.00309889 -0.00318217 -0.00326137 -0.00333617 -0.00340625 -0.00347162 -0.00353226 -0.00358801 -0.00363871 -0.00368434 -0.00372491 -0.00376035 -0.00379059 -0.00381563 -0.00383546 -0.00385008 -0.00385946 -0.00386361 -0.00386252 -0.00385622 -0.00384472 -0.00382802 -0.00380612 -0.00377907 -0.00374693 -0.00370969 -0.00366736 -0.00362005 -0.00356789 -0.00351086 -0.00344898 -0.00338247 -0.00331154 -0.00323622 -0.00315649 -0.00307273 -0.00298531 -0.00289425 -0.00279953 -0.00270171 -0.00260134 -0.00249842 -0.00239295 -0.00228563 -0.00217719 -0.00206762 -0.00195692 -0.00184592 -0.00173543 -0.00162545 -0.00151598 -0.00140786 -0.00130193 -0.00119819 -0.00109664 -0.000998027 -0.000903094 -0.000811844 -0.000724277 -0.000640946 -0.000562404 -0.000488652 -0.00041969 -0.000355804 -0.000297279 -0.000244117 -0.000196317 -0.000153847 -0.000116674 -8.48003e-05 -5.82243e-05 -3.64971e-05 -1.91694e-05 -6.2413e-06 2.28722e-06 7.35784e-06 9.91223e-06 9.9504e-06 7.47234e-06 4.20319e-06 1.86809e-06 4.67021e-07 0 0 6.88983e-07 2.75593e-06 6.20084e-06 1.10237e-05 1.39753e-05 1.18062e-05 4.51649e-06 -7.89384e-06 -2.71539e-05 -5.4993e-05 -9.1411e-05 -0.000136408 -0.000190706 -0.000255027 -0.000329371 -0.000413738 -0.000508041 -0.000612192 -0.000726193 -0.000850042 -0.000983053 -0.00112454 -0.0012745 -0.00143294 -0.00159869 -0.00177058 -0.00194861 -0.00213279 -0.00232163 -0.00251365 -0.00270885 -0.00290722 -0.00310718 -0.00330714 -0.00350709 -0.00370703 -0.00390549 -0.00410095 -0.00429343 -0.00448292 -0.00466819 -0.00484801 -0.00502237 -0.00519128 -0.00535383 -0.00550914 -0.00565719 -0.00579799 -0.00593097 -0.00605556 -0.00617176 -0.00627957 -0.00637869 -0.00646881 -0.00654994 -0.00662207 -0.00668507 -0.00673883 -0.00678334 -0.0068186 -0.00684458 -0.00686126 -0.00686864 -0.00686671 -0.00685551 -0.00683506 -0.00680537 -0.00676643 -0.00671835 -0.00666121 -0.00659501 -0.00651975 -0.00643565 -0.00634291 -0.00624153 -0.00613152 -0.00601327 -0.00588719 -0.00575328 -0.00561153 -0.00546262 -0.00530722 -0.00514533 -0.00497694 -0.00480304 -0.00462461 -0.00444163 -0.00425413 -0.00406335 -0.00387056 -0.00367577 -0.00347898 -0.00328164 -0.0030852 -0.00288968 -0.00269507 -0.00250287 -0.00231455 -0.00213012 -0.00194959 -0.00177427 -0.0016055 -0.00144328 -0.0012876 -0.00113946 -0.00099983 -0.000868715 -0.000746116 -0.00063254 -0.000528496 -0.000433986 -0.000349007 -0.000273505 -0.000207421 -0.000150756 -0.00010351 -6.48837e-05 -3.40789e-05 -1.10956e-05 4.06617e-06 1.30806e-05 1.76217e-05 1.76896e-05 1.32842e-05 7.47234e-06 3.32104e-06 8.3026e-07 0 0 8.64844e-07 3.45937e-06 7.78359e-06 1.38375e-05 1.68145e-05 1.19082e-05 -8.8153e-07 -2.15547e-05 -5.26963e-05 -9.68914e-05 -0.00015414 -0.000224442 -0.000308854 -0.000408431 -0.000523174 -0.000653082 -0.000797989 -0.00095773 -0.0011323 -0.00132171 -0.00152487 -0.00174072 -0.00196926 -0.00221048 -0.00246258 -0.00272378 -0.00299407 -0.00327346 -0.00355967 -0.00385044 -0.00414578 -0.00444567 -0.00474772 -0.0050495 -0.00535101 -0.00565227 -0.00595101 -0.00624501 -0.00653426 -0.00681877 -0.00709669 -0.00736621 -0.00762732 -0.00788002 -0.00812299 -0.00835495 -0.00857587 -0.00878576 -0.00898383 -0.00916927 -0.00934207 -0.00950224 -0.00964938 -0.00978309 -0.00990336 -0.0100102 -0.0101034 -0.010183 -0.0102488 -0.0103008 -0.0103391 -0.0103637 -0.0103745 -0.0103715 -0.0103548 -0.0103244 -0.0102803 -0.0102225 -0.0101512 -0.0100664 -0.00996816 -0.00985646 -0.00973158 -0.00959378 -0.00944306 -0.00927944 -0.00910344 -0.00891564 -0.00871602 -0.00850459 -0.00828231 -0.00805012 -0.00780804 -0.00755606 -0.00729562 -0.00702814 -0.00675363 -0.00647209 -0.0061854 -0.00589546 -0.00560225 -0.00530577 -0.00500824 -0.00471183 -0.00441656 -0.00412242 -0.00383168 -0.00354659 -0.00326717 -0.0029934 -0.00272733 -0.00247098 -0.00222436 -0.00198746 -0.00176182 -0.00154893 -0.00134882 -0.00116147 -0.000987691 -0.000828286 -0.000683255 -0.000552596 -0.000436256 -0.000334178 -0.000246363 -0.00017281 -0.000112343 -6.37845e-05 -2.71353e-05 -2.39493e-06 1.29434e-05 2.13868e-05 2.29351e-05 1.75884e-05 9.89349e-06 4.39711e-06 1.09928e-06 0 0 7.03444e-07 2.81378e-06 6.331e-06 1.12551e-05 1.13571e-05 4.08058e-07 -2.15921e-05 -5.46433e-05 -0.000102169 -0.000167594 -0.000250916 -0.000352138 -0.000472593 -0.000613618 -0.000775213 -0.000957377 -0.00115979 -0.00138215 -0.00162444 -0.00188667 -0.00216728 -0.00246473 -0.00277902 -0.00311014 -0.00345558 -0.00381281 -0.00418184 -0.00456266 -0.00495215 -0.00534717 -0.00574772 -0.00615381 -0.00656215 -0.00696945 -0.0073757 -0.00778092 -0.0081821 -0.00857624 -0.00896334 -0.00934339 -0.00971402 -0.0100728 -0.0104198 -0.0107549 -0.0110766 -0.0113832 -0.0116747 -0.0119511 -0.0122114 -0.0124548 -0.0126812 -0.0128907 -0.0130828 -0.0132571 -0.0134137 -0.0135525 -0.0136735 -0.0137765 -0.0138617 -0.0139289 -0.0139782 -0.0140097 -0.0140233 -0.0140191 -0.013997 -0.0139572 -0.0138997 -0.0138244 -0.0137314 -0.0136208 -0.0134926 -0.0133468 -0.0131837 -0.0130035 -0.0128061 -0.0125917 -0.0123607 -0.0121138 -0.011851 -0.0115722 -0.0112787 -0.0109716 -0.0106509 -0.0103165 -0.0099703 -0.00961413 -0.00924799 -0.00887186 -0.00848823 -0.00809958 -0.00770589 -0.00730719 -0.00690641 -0.00650652 -0.00610751 -0.00570939 -0.00531524 -0.00492817 -0.00454818 -0.00417526 -0.00381223 -0.00346192 -0.00312432 -0.00279944 -0.00248942 -0.00219641 -0.00192041 -0.00166142 -0.00142061 -0.00119916 -0.000997076 -0.000814355 -0.000651004 -0.000507027 -0.000382426 -0.0002772 -0.000189836 -0.000118822 -6.41585e-05 -2.58444e-05 -5.48603e-07 1.50602e-05 2.09821e-05 1.72171e-05 9.6846e-06 4.30427e-06 1.07607e-06 0 0 2.04784e-07 8.19137e-07 1.84306e-06 3.27655e-06 -2.39702e-06 -2.26943e-05 -5.76152e-05 -0.00010716 -0.000175573 -0.0002671 -0.00038174 -0.000519494 -0.000681922 -0.000870587 -0.00108549 -0.00132662 -0.00159346 -0.00188545 -0.00220261 -0.00254492 -0.00291028 -0.00329657 -0.00370379 -0.00413194 -0.00457768 -0.00503767 -0.00551191 -0.0060004 -0.00649906 -0.00700382 -0.00751468 -0.00803163 -0.00855047 -0.00906698 -0.00958116 -0.010093 -0.0105988 -0.0110946 -0.0115806 -0.0120568 -0.0125202 -0.0129678 -0.0133998 -0.0138161 -0.0142148 -0.014594 -0.0149537 -0.015294 -0.0156138 -0.0159122 -0.0161892 -0.0164449 -0.0166788 -0.0168908 -0.0170809 -0.017249 -0.0173952 -0.0175196 -0.0176221 -0.0177028 -0.0177618 -0.0177993 -0.0178152 -0.0178095 -0.0177823 -0.0177337 -0.0176635 -0.017572 -0.0174589 -0.0173244 -0.0171684 -0.0169909 -0.0167921 -0.016572 -0.0163307 -0.0160682 -0.015785 -0.0154816 -0.0151581 -0.0148145 -0.0144519 -0.0140717 -0.0136738 -0.0132582 -0.0128271 -0.0123826 -0.0119247 -0.0114534 -0.0109718 -0.0104829 -0.00998672 -0.00948322 -0.00897616 -0.00846927 -0.00796254 -0.00745598 -0.00695357 -0.00645929 -0.00597315 -0.00549515 -0.00502897 -0.00457831 -0.00414317 -0.00372354 -0.00332229 -0.00294227 -0.00258349 -0.00224595 -0.00193129 -0.00164112 -0.00137545 -0.00113428 -0.000917748 -0.000725968 -0.000558946 -0.00041668 -0.000297364 -0.000199193 -0.000122165 -6.62822e-05 -2.73956e-05 -1.35795e-06 1.18306e-05 1.21701e-05 6.84567e-06 3.04252e-06 7.6063e-07 0 0 -6.31136e-07 -2.52455e-06 -5.68023e-06 -1.00982e-05 -2.44479e-05 -5.73987e-05 -0.000108951 -0.000179104 -0.000272907 -0.00039541 -0.000546611 -0.000726511 -0.000936842 -0.00117934 -0.001454 -0.00176082 -0.00209898 -0.00246764 -0.0028668 -0.00329647 -0.00375387 -0.00423624 -0.00474357 -0.00527587 -0.00582888 -0.00639835 -0.00698428 -0.00758667 -0.00820042 -0.00882041 -0.00944665 -0.0100791 -0.0107127 -0.0113421 -0.0119674 -0.0125885 -0.013201 -0.0138002 -0.0143862 -0.014959 -0.0155151 -0.0160512 -0.0165673 -0.0170634 -0.0175374 -0.0179872 -0.0184129 -0.0188144 -0.0191909 -0.0195414 -0.0198661 -0.0201648 -0.0204376 -0.0206843 -0.020905 -0.0210997 -0.0212686 -0.021412 -0.02153 -0.0216226 -0.02169 -0.0217325 -0.0217501 -0.0217428 -0.0217106 -0.0216536 -0.0215719 -0.0214653 -0.0213338 -0.0211771 -0.0209954 -0.0207886 -0.0205566 -0.0202993 -0.0200168 -0.019709 -0.0193764 -0.0190192 -0.0186375 -0.0182313 -0.0178018 -0.0173503 -0.0168768 -0.0163812 -0.015866 -0.0153335 -0.0147838 -0.0142168 -0.0136362 -0.0130455 -0.0124447 -0.0118339 -0.0112175 -0.0106001 -0.00998164 -0.00936218 -0.00874665 -0.00813995 -0.0075421 -0.00695309 -0.00637756 -0.00582017 -0.0052809 -0.00475975 -0.0042604 -0.0037865 -0.00333807 -0.00291509 -0.00251973 -0.00215416 -0.00181838 -0.00151238 -0.00123649 -0.000991002 -0.000775922 -0.00059125 -0.000434927 -0.000304895 -0.000201156 -0.000123708 -6.75974e-05 -2.78678e-05 -4.51948e-06 2.44747e-06 1.3767e-06 6.11867e-07 1.52967e-07 0 0 -1.91704e-06 -7.66816e-06 -1.72534e-05 -3.06726e-05 -5.74922e-05 -0.000107278 -0.000180031 -0.00027575 -0.000400201 -0.000559153 -0.000752604 -0.000980555 -0.00124479 -0.00154711 -0.00188749 -0.00226596 -0.00268126 -0.00313218 -0.0036187 -0.00414083 -0.00469503 -0.00527777 -0.00588904 -0.00652886 -0.00719195 -0.00787305 -0.00857217 -0.0092893 -0.0100182 -0.0107528 -0.011493 -0.0122388 -0.012984 -0.0137225 -0.0144542 -0.0151792 -0.0158921 -0.0165878 -0.0172662 -0.0179272 -0.0185673 -0.0191825 -0.0197728 -0.0203384 -0.0208771 -0.0213868 -0.0218675 -0.0223193 -0.0227416 -0.0231336 -0.0234955 -0.0238272 -0.024129 -0.0244014 -0.0246442 -0.0248576 -0.0250421 -0.0251985 -0.0253267 -0.0254268 -0.0254992 -0.0255444 -0.0255624 -0.0255533 -0.025517 -0.0254536 -0.0253631 -0.0252455 -0.0251004 -0.0249274 -0.0247265 -0.0244978 -0.0242408 -0.023955 -0.0236405 -0.0232973 -0.0229253 -0.0225246 -0.0220952 -0.0216372 -0.0211514 -0.0206391 -0.0201002 -0.0195347 -0.0189451 -0.0183339 -0.017701 -0.0170466 -0.0163745 -0.0156889 -0.0149898 -0.0142771 -0.0135561 -0.0128321 -0.0121052 -0.0113753 -0.0106482 -0.00993007 -0.00922071 -0.00852017 -0.00783413 -0.00716823 -0.00652248 -0.00589688 -0.005296 -0.0047244 -0.00418209 -0.00366906 -0.00318811 -0.00274206 -0.0023309 -0.00195463 -0.00161384 -0.00130913 -0.00104049 -0.000807932 -0.000609234 -0.000442192 -0.000306805 -0.000203074 -0.000125307 -6.78107e-05 -3.05864e-05 -1.36337e-05 -7.66897e-06 -3.40843e-06 -8.52108e-07 0 0 -3.76565e-06 -1.50626e-05 -3.38909e-05 -6.02504e-05 -0.000104227 -0.000175905 -0.000275287 -0.00040237 -0.000563485 -0.00076496 -0.0010068 -0.00128899 -0.00161321 -0.00198113 -0.00239274 -0.00284804 -0.00334524 -0.00388255 -0.00445998 -0.00507751 -0.00573073 -0.00641519 -0.00713089 -0.00787784 -0.00864965 -0.00943997 -0.0102488 -0.0110761 -0.0119146 -0.0127569 -0.013603 -0.0144529 -0.0152995 -0.0161357 -0.0169614 -0.0177766 -0.0185755 -0.0193522 -0.0201067 -0.0208389 -0.021545 -0.0222209 -0.0228668 -0.0234826 -0.0240665 -0.0246166 -0.0251331 -0.0256158 -0.0260647 -0.0264798 -0.026861 -0.0272084 -0.027523 -0.0278058 -0.0280567 -0.0282758 -0.0284644 -0.0286236 -0.0287534 -0.028854 -0.028926 -0.0289702 -0.0289868 -0.0289756 -0.0289367 -0.02887 -0.0287757 -0.0286536 -0.0285031 -0.0283234 -0.0281145 -0.0278764 -0.0276081 -0.0273086 -0.0269779 -0.026616 -0.0262222 -0.025796 -0.0253375 -0.0248465 -0.0243237 -0.0237697 -0.0231844 -0.0225679 -0.0219225 -0.0212506 -0.0205522 -0.0198272 -0.01908 -0.0183148 -0.0175317 -0.0167307 -0.0159177 -0.0150986 -0.0142735 -0.0134424 -0.0126121 -0.0117896 -0.0109747 -0.0101675 -0.00937479 -0.00860325 -0.0078529 -0.00712373 -0.00642133 -0.00575126 -0.00511352 -0.00450812 -0.00393862 -0.0034086 -0.00291806 -0.002467 -0.00205643 -0.00168736 -0.0013598 -0.00107375 -0.000826998 -0.000617344 -0.000444788 -0.000309331 -0.000204676 -0.000124528 -6.88885e-05 -3.77565e-05 -2.1238e-05 -9.43912e-06 -2.35978e-06 0 0 -6.17697e-06 -2.47079e-05 -5.55927e-05 -9.88315e-05 -0.000164652 -0.000263281 -0.000394718 -0.000558965 -0.000762757 -0.00101283 -0.00130918 -0.00165182 -0.0020421 -0.0024814 -0.00296972 -0.00350705 -0.00409089 -0.00471875 -0.00539063 -0.00610653 -0.00686097 -0.0076485 -0.00846911 -0.0093228 -0.010202 -0.0110991 -0.0120141 -0.0129471 -0.0138894 -0.0148326 -0.0157767 -0.0167216 -0.0176594 -0.0185818 -0.019489 -0.020381 -0.0212513 -0.0220935 -0.0229077 -0.0236939 -0.0244482 -0.0251666 -0.0258492 -0.026496 -0.0271056 -0.0276768 -0.0282095 -0.0287037 -0.0291603 -0.02958 -0.0299628 -0.0303087 -0.0306197 -0.0308976 -0.0311425 -0.0313544 -0.0315353 -0.0316872 -0.0318102 -0.0319041 -0.0319703 -0.0320099 -0.032023 -0.0320096 -0.0319695 -0.0319029 -0.0318096 -0.0316897 -0.031542 -0.0313652 -0.0311593 -0.0309244 -0.0306586 -0.0303601 -0.030029 -0.0296651 -0.0292671 -0.0288335 -0.0283642 -0.0278593 -0.0273186 -0.026742 -0.0261294 -0.0254808 -0.0247983 -0.0240838 -0.0233373 -0.0225587 -0.0217526 -0.0209232 -0.0200706 -0.0191948 -0.0183022 -0.0173995 -0.0164867 -0.0155637 -0.0146383 -0.0137185 -0.0128041 -0.0118951 -0.0109996 -0.0101252 -0.00927214 -0.0084403 -0.00763637 -0.00686706 -0.00613236 -0.00543226 -0.00477125 -0.00415378 -0.00357986 -0.00304949 -0.00256424 -0.00212569 -0.00173385 -0.0013887 -0.00108822 -0.000830352 -0.000615105 -0.000442478 -0.000305704 -0.00019802 -0.000119426 -6.99208e-05 -3.93304e-05 -1.74802e-05 -4.37005e-06 0 0 -9.15099e-06 -3.6604e-05 -8.23589e-05 -0.000146416 -0.000238767 -0.000369404 -0.000538326 -0.000745535 -0.000998018 -0.00130276 -0.00165977 -0.00206904 -0.00253147 -0.00304793 -0.00361844 -0.004243 -0.00491823 -0.00564079 -0.00641067 -0.00722787 -0.00808576 -0.0089777 -0.0099037 -0.0108638 -0.011849 -0.0128504 -0.0138682 -0.0149022 -0.0159427 -0.01698 -0.018014 -0.0190449 -0.0200635 -0.0210609 -0.0220371 -0.0229921 -0.0239192 -0.0248116 -0.0256694 -0.0264924 -0.027277 -0.0280196 -0.0287201 -0.0293785 -0.0299944 -0.0305671 -0.0310967 -0.0315831 -0.0320283 -0.0324342 -0.0328007 -0.0331279 -0.0334189 -0.0336768 -0.0339016 -0.0340933 -0.034255 -0.0343895 -0.0344969 -0.0345772 -0.0346322 -0.0346635 -0.0346712 -0.0346553 -0.0346156 -0.0345522 -0.0344649 -0.0343537 -0.034217 -0.0340527 -0.0338609 -0.0336417 -0.0333922 -0.0331095 -0.0327937 -0.0324448 -0.0320601 -0.031637 -0.0311755 -0.0306756 -0.0301362 -0.029556 -0.0289351 -0.0282735 -0.0275725 -0.0268334 -0.0260563 -0.0252412 -0.0243923 -0.0235141 -0.0226064 -0.0216693 -0.0207098 -0.0197349 -0.0187447 -0.017739 -0.0167268 -0.0157167 -0.0147088 -0.013703 -0.0127084 -0.0117342 -0.0107802 -0.00984658 -0.00894115 -0.00807182 -0.00723861 -0.0064415 -0.005686 -0.0049776 -0.0043163 -0.0037021 -0.00313728 -0.00262412 -0.00216263 -0.00175279 -0.00139289 -0.00108122 -0.000817756 -0.000602516 -0.000428393 -0.000288287 -0.000182198 -0.000110127 -6.19462e-05 -2.75317e-05 -6.88291e-06 0 0 -1.27233e-05 -5.08931e-05 -0.000114509 -0.000203572 -0.000327392 -0.000495277 -0.000707228 -0.000963245 -0.00127035 -0.00163558 -0.00205891 -0.00254037 -0.00308012 -0.00367834 -0.00433504 -0.00505022 -0.00581946 -0.00663834 -0.00750687 -0.00842504 -0.0093849 -0.0103785 -0.0114058 -0.0124669 -0.0135514 -0.014649 -0.0157597 -0.0168835 -0.0180095 -0.0191265 -0.0202347 -0.021334 -0.0224145 -0.0234666 -0.0244902 -0.0254853 -0.026445 -0.0273622 -0.028237 -0.0290695 -0.0298564 -0.0305945 -0.0312839 -0.0319246 -0.0325171 -0.033062 -0.0335594 -0.0340091 -0.0344147 -0.0347795 -0.0351036 -0.0353869 -0.035634 -0.0358498 -0.036034 -0.0361869 -0.0363125 -0.0364151 -0.0364948 -0.0365514 -0.0365875 -0.0366053 -0.0366049 -0.0365863 -0.0365493 -0.0364937 -0.0364195 -0.0363268 -0.0362129 -0.0360752 -0.0359137 -0.0357284 -0.0355151 -0.0352699 -0.0349926 -0.0346833 -0.0343379 -0.0339521 -0.0335259 -0.0330595 -0.0325501 -0.0319954 -0.0313952 -0.0307496 -0.0300589 -0.0293236 -0.0285436 -0.027719 -0.0268536 -0.0259516 -0.0250129 -0.0240375 -0.0230327 -0.0220059 -0.0209572 -0.0198865 -0.0188034 -0.0177177 -0.0166292 -0.0155381 -0.0144547 -0.0133892 -0.0123417 -0.0113122 -0.0103098 -0.00934391 -0.00841442 -0.00752135 -0.00667139 -0.0058712 -0.0051208 -0.00442017 -0.00377249 -0.00318092 -0.00264546 -0.0021661 -0.00174166 -0.00137095 -0.00105396 -0.000790696 -0.000573912 -0.000396359 -0.000258038 -0.000158948 -8.94083e-05 -3.9737e-05 -9.93426e-06 0 0 -1.69294e-05 -6.77174e-05 -0.000152364 -0.00027087 -0.000431345 -0.000641902 -0.000902541 -0.00121326 -0.00158085 -0.00201208 -0.00250697 -0.00306551 -0.00368687 -0.00437026 -0.00511565 -0.00592306 -0.00678678 -0.0077011 -0.00866602 -0.00968155 -0.0107382 -0.0118266 -0.0129467 -0.0140984 -0.0152701 -0.0164497 -0.0176374 -0.0188332 -0.0200247 -0.0211997 -0.0223583 -0.0235003 -0.0246154 -0.025693 -0.026733 -0.0277356 -0.0286938 -0.0296007 -0.0304563 -0.0312606 -0.0320114 -0.0327063 -0.0333453 -0.0339284 -0.0344578 -0.0349357 -0.035362 -0.0357367 -0.0360653 -0.0363531 -0.0366001 -0.0368063 -0.0369784 -0.0371229 -0.0372399 -0.0373294 -0.0373971 -0.037449 -0.0374848 -0.0375047 -0.0375119 -0.0375095 -0.0374975 -0.037476 -0.0374447 -0.0374032 -0.0373516 -0.0372899 -0.0372145 -0.0371218 -0.0370117 -0.0368843 -0.0367339 -0.0365546 -0.0363464 -0.0361094 -0.0358374 -0.0355244 -0.0351702 -0.034775 -0.0343343 -0.0338437 -0.0333032 -0.0327129 -0.0320716 -0.0313784 -0.0306334 -0.0298364 -0.0289908 -0.0281 -0.0271639 -0.0261825 -0.0251634 -0.0241139 -0.023034 -0.0219239 -0.0207939 -0.0196545 -0.0185057 -0.0173476 -0.0161916 -0.0150495 -0.0139212 -0.0128066 -0.0117166 -0.0106617 -0.00964193 -0.00865733 -0.00771593 -0.00682574 -0.00598679 -0.00519906 -0.00446683 -0.00379436 -0.00318166 -0.00262873 -0.00213516 -0.00170056 -0.00132493 -0.00100827 -0.000743431 -0.000523267 -0.000347776 -0.00021696 -0.00012204 -5.42399e-05 -1.356e-05 0 0 -2.17693e-05 -8.7077e-05 -0.000195923 -0.000348308 -0.000550628 -0.000809281 -0.00112427 -0.00149558 -0.0019295 -0.00243229 -0.00300394 -0.00364446 -0.00435174 -0.00512368 -0.00596026 -0.00686151 -0.00782018 -0.00882905 -0.00988813 -0.0109974 -0.0121457 -0.013322 -0.0145262 -0.0157584 -0.017005 -0.0182526 -0.0195013 -0.020751 -0.0219883 -0.0231995 -0.0243847 -0.0255439 -0.026666 -0.0277399 -0.0287656 -0.0297431 -0.0306658 -0.0315272 -0.0323272 -0.0330658 -0.033742 -0.0343548 -0.0349041 -0.03539 -0.0358166 -0.0361881 -0.0365046 -0.036766 -0.0369802 -0.0371549 -0.0372903 -0.0373862 -0.0374518 -0.0374961 -0.0375191 -0.0375208 -0.0375089 -0.037491 -0.037467 -0.0374372 -0.0374055 -0.0373761 -0.0373492 -0.0373245 -0.0373019 -0.0372807 -0.0372612 -0.0372431 -0.0372218 -0.0371925 -0.0371551 -0.0371096 -0.0370484 -0.0369635 -0.036855 -0.0367229 -0.0365587 -0.0363538 -0.0361083 -0.0358222 -0.0354887 -0.035101 -0.0346593 -0.0341634 -0.0336105 -0.032998 -0.0323256 -0.0315935 -0.030804 -0.0299593 -0.0290595 -0.0281045 -0.0271018 -0.0260587 -0.0249752 -0.0238514 -0.0226983 -0.0215273 -0.0203383 -0.0191313 -0.0179193 -0.016715 -0.0155186 -0.01433 -0.0131614 -0.0120251 -0.0109212 -0.00984945 -0.00881962 -0.00784122 -0.00691427 -0.00603876 -0.00522029 -0.00446445 -0.00377124 -0.00314067 -0.00257338 -0.00207005 -0.00163067 -0.00125524 -0.000936951 -0.00066901 -0.000451413 -0.000284161 -0.000159841 -7.10402e-05 -1.77601e-05 0 0 -2.7243e-05 -0.000108972 -0.000245187 -0.000435887 -0.00068524 -0.000997412 -0.0013724 -0.00181021 -0.00231631 -0.00289618 -0.00354982 -0.00427722 -0.00507471 -0.0059386 -0.00686889 -0.00786557 -0.00891967 -0.0100222 -0.0111732 -0.0123726 -0.0136074 -0.0148647 -0.0161445 -0.0174467 -0.0187562 -0.0200577 -0.0213514 -0.0226372 -0.0239002 -0.0251259 -0.026314 -0.0274647 -0.0285663 -0.0296074 -0.0305878 -0.0315077 -0.032361 -0.0331416 -0.0338496 -0.0344849 -0.0350482 -0.0355401 -0.0359604 -0.0363093 -0.0365934 -0.0368193 -0.0369872 -0.0370969 -0.0371592 -0.037185 -0.0371741 -0.0371267 -0.0370545 -0.0369696 -0.0368718 -0.0367612 -0.0366477 -0.0365411 -0.0364414 -0.0363487 -0.0362682 -0.0362052 -0.0361597 -0.0361318 -0.0361209 -0.0361263 -0.0361481 -0.0361864 -0.0362349 -0.0362873 -0.0363438 -0.0364043 -0.0364586 -0.0364966 -0.0365184 -0.0365239 -0.0365017 -0.0364405 -0.0363403 -0.036201 -0.0360132 -0.0357673 -0.0354632 -0.0351011 -0.0346758 -0.0341822 -0.0336204 -0.0329904 -0.0322931 -0.0315295 -0.0306996 -0.0298034 -0.028848 -0.0278404 -0.0267807 -0.0256688 -0.0245167 -0.023336 -0.022127 -0.0208894 -0.0196376 -0.0183858 -0.017134 -0.0158822 -0.0146444 -0.0134343 -0.0122521 -0.0110977 -0.00998246 -0.00891763 -0.00790324 -0.00693927 -0.00603286 -0.00519117 -0.00441419 -0.00370192 -0.00305634 -0.00247942 -0.00197117 -0.0015316 -0.00115447 -0.000833589 -0.00056895 -0.000360552 -0.000202811 -9.01381e-05 -2.25345e-05 0 0 -3.33161e-05 -0.000133265 -0.000299845 -0.000533058 -0.000834309 -0.001205 -0.00164514 -0.00215472 -0.00273811 -0.00339968 -0.00413942 -0.00495735 -0.00584787 -0.0068054 -0.00782993 -0.00892146 -0.010069 -0.0112615 -0.0124991 -0.0137816 -0.0150941 -0.0164215 -0.0177638 -0.0191209 -0.020476 -0.021812 -0.0231288 -0.0244266 -0.0256891 -0.0269005 -0.0280607 -0.0291697 -0.0302156 -0.0311866 -0.0320827 -0.0329038 -0.0336449 -0.0343007 -0.0348713 -0.0353567 -0.0357595 -0.0360824 -0.0363253 -0.0364883 -0.0365811 -0.0366134 -0.0365851 -0.0364963 -0.0363612 -0.0361941 -0.035995 -0.0357639 -0.035516 -0.0352666 -0.0350157 -0.0347633 -0.0345218 -0.0343037 -0.034109 -0.0339377 -0.0337963 -0.0336917 -0.0336236 -0.0335922 -0.0335966 -0.0336362 -0.033711 -0.0338208 -0.033958 -0.0341146 -0.0342907 -0.0344862 -0.0346882 -0.0348838 -0.035073 -0.0352558 -0.0354175 -0.0355432 -0.035633 -0.0356868 -0.0356919 -0.0356353 -0.0355169 -0.0353368 -0.0350872 -0.0347602 -0.0343559 -0.0338742 -0.0333143 -0.0326756 -0.0319579 -0.0311613 -0.0302923 -0.0293574 -0.0283566 -0.0272899 -0.0261697 -0.0250083 -0.0238057 -0.022562 -0.0212927 -0.0200134 -0.0187241 -0.0174247 -0.0161312 -0.014859 -0.0136084 -0.0123792 -0.0111846 -0.010038 -0.00893924 -0.00788838 -0.00689434 -0.00596609 -0.0051036 -0.00430688 -0.00357954 -0.00292516 -0.00234374 -0.0018353 -0.00139447 -0.00101593 -0.000699663 -0.000445681 -0.000250696 -0.00011142 -2.78551e-05 0 0 -3.99545e-05 -0.000159818 -0.000359591 -0.000639273 -0.000996962 -0.00143076 -0.00194066 -0.00252667 -0.0031917 -0.00393866 -0.00476756 -0.00567839 -0.0066633 -0.00771443 -0.0088318 -0.0100154 -0.0112519 -0.012528 -0.0138437 -0.0151989 -0.0165765 -0.0179589 -0.0193463 -0.0207387 -0.022117 -0.0234624 -0.0247748 -0.0260542 -0.0272833 -0.028445 -0.0295392 -0.0305658 -0.031513 -0.0323687 -0.033133 -0.0338058 -0.0343832 -0.0348613 -0.0352402 -0.0355197 -0.0357052 -0.0358019 -0.0358098 -0.0357289 -0.0355726 -0.0353542 -0.0350736 -0.034731 -0.0343447 -0.0339331 -0.0334962 -0.0330341 -0.0325659 -0.0321108 -0.0316687 -0.0312398 -0.0308394 -0.0304831 -0.0301707 -0.0299024 -0.0296863 -0.0295305 -0.029435 -0.0293999 -0.0294242 -0.0295069 -0.029648 -0.0298475 -0.0300957 -0.0303827 -0.0307086 -0.0310734 -0.0314608 -0.0318548 -0.0322552 -0.0326621 -0.0330568 -0.0334205 -0.0337532 -0.0340549 -0.0343087 -0.0344977 -0.0346219 -0.0346813 -0.0346648 -0.034561 -0.0343702 -0.0340922 -0.033724 -0.0332627 -0.0327082 -0.0320605 -0.0313253 -0.0305082 -0.0296091 -0.0286282 -0.0275781 -0.0264715 -0.0253086 -0.0240892 -0.0228304 -0.0215491 -0.0202452 -0.0189189 -0.0175876 -0.0162692 -0.0149636 -0.0136709 -0.0124063 -0.0111853 -0.0100078 -0.00887388 -0.00779452 -0.00678074 -0.00583256 -0.00494996 -0.00413851 -0.00340375 -0.00274567 -0.00216428 -0.00165542 -0.00121494 -0.000842831 -0.000539096 -0.000303241 -0.000134774 -3.36935e-05 0 0 -4.71581e-05 -0.000188632 -0.000424423 -0.00075453 -0.0011732 -0.00167468 -0.00225897 -0.00292607 -0.0036771 -0.00451315 -0.00543422 -0.00644033 -0.00752099 -0.00866571 -0.00987451 -0.0111474 -0.0124684 -0.0138216 -0.015207 -0.0166246 -0.0180546 -0.0194771 -0.0208922 -0.0222999 -0.0236792 -0.0250089 -0.0262892 -0.02752 -0.0286829 -0.0297594 -0.0307495 -0.0316532 -0.0324586 -0.0331538 -0.0337388 -0.0342136 -0.0345759 -0.0348234 -0.0349561 -0.0349739 -0.0348853 -0.0346987 -0.0344139 -0.0340311 -0.0335678 -0.0330418 -0.0324528 -0.0318011 -0.0311098 -0.030402 -0.0296779 -0.0289374 -0.0282042 -0.027502 -0.0268308 -0.0261907 -0.0256005 -0.0250791 -0.0246266 -0.0242429 -0.0239379 -0.0237217 -0.023594 -0.0235551 -0.0236036 -0.0237384 -0.0239593 -0.0242665 -0.0246479 -0.0250916 -0.0255976 -0.0261659 -0.0267765 -0.0274095 -0.028065 -0.0287428 -0.0294198 -0.0300725 -0.030701 -0.0313052 -0.0318636 -0.0323547 -0.0327783 -0.0331347 -0.0334085 -0.0335848 -0.0336634 -0.0336444 -0.0335221 -0.0332907 -0.0329503 -0.0325009 -0.0319469 -0.0312927 -0.0305382 -0.0296836 -0.0287419 -0.0277258 -0.0266356 -0.0254712 -0.0242509 -0.022993 -0.0216976 -0.0203646 -0.0190137 -0.0176648 -0.0163179 -0.0149729 -0.0136475 -0.0123596 -0.011109 -0.00989579 -0.00873338 -0.00763514 -0.00660107 -0.00563116 -0.00473325 -0.00391518 -0.00317695 -0.00251855 -0.00193733 -0.00143063 -0.000998455 -0.000640796 -0.000360448 -0.000160199 -4.00498e-05 0 0 -5.49269e-05 -0.000219707 -0.000494342 -0.00087883 -0.00136302 -0.00193677 -0.00260007 -0.00335293 -0.00419429 -0.00512312 -0.00613942 -0.00724319 -0.00842095 -0.00965923 -0.010958 -0.0123174 -0.0137184 -0.0151423 -0.016589 -0.0180585 -0.0195284 -0.020976 -0.0224014 -0.0238046 -0.0251624 -0.0264516 -0.0276722 -0.0288242 -0.0298879 -0.0308437 -0.0316917 -0.0324318 -0.0330524 -0.0335418 -0.0339001 -0.0341273 -0.034223 -0.0341869 -0.034019 -0.0337193 -0.0332999 -0.0327727 -0.0321377 -0.0313949 -0.0305669 -0.0296761 -0.0287227 -0.0277066 -0.0266564 -0.0256009 -0.02454 -0.0234737 -0.0224309 -0.0214403 -0.020502 -0.019616 -0.018805 -0.0180919 -0.0174766 -0.0169591 -0.0165513 -0.0162652 -0.0161006 -0.0160577 -0.0161348 -0.0163305 -0.0166448 -0.0170777 -0.0176147 -0.0182413 -0.0189576 -0.0197636 -0.0206351 -0.021548 -0.0225023 -0.0234979 -0.0245064 -0.0254992 -0.0264764 -0.0274378 -0.0283566 -0.0292061 -0.0299862 -0.0306968 -0.0313185 -0.0318313 -0.0322354 -0.0325308 -0.0327086 -0.0327598 -0.0326844 -0.0324826 -0.0321571 -0.0317109 -0.031144 -0.0304563 -0.029661 -0.0287712 -0.0277868 -0.0267079 -0.0255541 -0.0243452 -0.0230811 -0.0217619 -0.0204095 -0.0190459 -0.0176711 -0.0162851 -0.0149082 -0.0135608 -0.0122427 -0.0109541 -0.00971093 -0.00852928 -0.00740912 -0.00635047 -0.00536376 -0.00445947 -0.00363759 -0.00289811 -0.0022402 -0.001663 -0.00116653 -0.0007507