<?xml version="1.0"?> 
<VTKFile type="StructuredGrid" version="0.1"> 
<StructuredGrid WholeExtent="0 128 0 128 0 0"> 
<Piece Extent="0 128 0 128 0 0"> 
<PointData>
<DataArray type="Float32" Name="u" format="ascii" NumberOfComponents="1"> 
0 0 0 0 0 0 0 0 0 0 0 0 0 0 0 0 0 0 0 0 0 0 0 0 0 0 0 0 0 0 0 0 0 0 0 0 0 0 0 0 0 0 0 0 0 0 0 0 0 0 0 0 0 0 0 0 0 0 0 0 0 0 0 0 0 0 0 0 0 0 0 0 0 0 0 0 0 0 0 0 0 0 0 0 0 0 0 0 0 0 0 0 0 0 0 0 0 0 0 0 0 0 0 0 0 0 0 0 0 0 0 0 0 0 0 0 0 0 0 0 0 0 0 0 0 0 0 0 0 0 -1.10682e-08 -4.42728e-08 -9.96139e-08 -1.77091e-07 -2.00282e-07 -9.27618e-08 1.45469e-07 5.1441e-07 1.04686e-06 1.77562e-06 2.70068e-06 3.82205e-06 5.13188e-06 6.62232e-06 8.29337e-06 1.0145e-05 1.21348e-05 1.42201e-05 1.6401e-05 1.86775e-05 2.09898e-05 2.32779e-05 2.55421e-05 2.77821e-05 2.99418e-05 3.19647e-05 3.38509e-05 3.56004e-05 3.71765e-05 3.85427e-05 3.96989e-05 4.06452e-05 4.13703e-05 4.18631e-05 4.21234e-05 4.21514e-05 4.19574e-05 4.15519e-05 4.09349e-05 4.01065e-05 3.90918e-05 3.79164e-05 3.65802e-05 3.50832e-05 3.34611e-05 3.17496e-05 2.99485e-05 2.8058e-05 2.61215e-05 2.41826e-05 2.22412e-05 2.02974e-05 1.83981e-05 1.65906e-05 1.48747e-05 1.32506e-05 1.17598e-05 1.0444e-05 9.30315e-06 8.33731e-06 7.57095e-06 7.0286e-06 6.71025e-06 6.61589e-06 6.7446e-06 7.09543e-06 7.66838e-06 8.46346e-06 9.45459e-06 1.06157e-05 1.19468e-05 1.34479e-05 1.50766e-05 1.67905e-05 1.85896e-05 2.04738e-05 2.23965e-05 2.43108e-05 2.62166e-05 2.8114e-05 2.99605e-05 3.17139e-05 3.33741e-05 3.49412e-05 3.6381e-05 3.76597e-05 3.87772e-05 3.97336e-05 4.05051e-05 4.10683e-05 4.14231e-05 4.15696e-05 4.14986e-05 4.12012e-05 4.06773e-05 3.9927e-05 3.89621e-05 3.77945e-05 3.64242e-05 3.48512e-05 3.31118e-05 3.1242e-05 2.92421e-05 2.71119e-05 2.49065e-05 2.26809e-05 2.04351e-05 1.81691e-05 1.59408e-05 1.38083e-05 1.17715e-05 9.83049e-06 8.02604e-06 6.39902e-06 4.94943e-06 3.67727e-06 2.58958e-06 1.69337e-06 9.8866e-07 4.7544e-07 1.21386e-07 -1.05831e-07 -2.06211e-07 -1.79753e-07 -1.01111e-07 -4.49383e-08 -1.12346e-08 0 0 -4.42728e-08 -1.77091e-07 -3.98456e-07 -7.08365e-07 -8.01127e-07 -3.71047e-07 5.81875e-07 2.05764e-06 4.18744e-06 7.10246e-06 1.08027e-05 1.52882e-05 2.05275e-05 2.64893e-05 3.31735e-05 4.05801e-05 4.85392e-05 5.68805e-05 6.56041e-05 7.47101e-05 8.39591e-05 9.31118e-05 0.000102168 0.000111129 0.000119767 0.000127859 0.000135404 0.000142402 0.000148706 0.000154171 0.000158796 0.000162581 0.000165481 0.000167452 0.000168494 0.000168606 0.00016783 0.000166208 0.00016374 0.000160426 0.000156367 0.000151666 0.000146321 0.000140333 0.000133845 0.000126998 0.000119794 0.000112232 0.000104486 9.67304e-05 8.89648e-05 8.11894e-05 7.35925e-05 6.63623e-05 5.9499e-05 5.30024e-05 4.70392e-05 4.17759e-05 3.72126e-05 3.33492e-05 3.02838e-05 2.81144e-05 2.6841e-05 2.64636e-05 2.69784e-05 2.83817e-05 3.06735e-05 3.38538e-05 3.78184e-05 4.24628e-05 4.77872e-05 5.37916e-05 6.03063e-05 6.71619e-05 7.43582e-05 8.18954e-05 8.95861e-05 9.72431e-05 0.000104866 0.000112456 0.000119842 0.000126856 0.000133497 0.000139765 0.000145524 0.000150639 0.000155109 0.000158934 0.000162021 0.000164273 0.000165693 0.000166278 0.000165994 0.000164805 0.000162709 0.000159708 0.000155849 0.000151178 0.000145697 0.000139405 0.000132447 0.000124968 0.000116968 0.000108448 9.96261e-05 9.07237e-05 8.17405e-05 7.26764e-05 6.37633e-05 5.52332e-05 4.70861e-05 3.9322e-05 3.21042e-05 2.55961e-05 1.97977e-05 1.47091e-05 1.03583e-05 6.77349e-06 3.95464e-06 1.90176e-06 4.85543e-07 -4.23326e-07 -8.24844e-07 -7.19013e-07 -4.04445e-07 -1.79753e-07 -4.49383e-08 0 0 -9.96139e-08 -3.98456e-07 -8.96525e-07 -1.59382e-06 -1.80254e-06 -8.34856e-07 1.30922e-06 4.62969e-06 9.42173e-06 1.59805e-05 2.43061e-05 3.43985e-05 4.61869e-05 5.96009e-05 7.46404e-05 9.13053e-05 0.000109213 0.000127981 0.000147609 0.000168098 0.000188908 0.000209502 0.000229879 0.000250039 0.000269476 0.000287683 0.000304658 0.000320403 0.000334589 0.000346884 0.00035729 0.000365807 0.000372333 0.000376768 0.000379111 0.000379363 0.000377617 0.000373967 0.000368415 0.000360958 0.000351827 0.000341248 0.000329222 0.000315749 0.00030115 0.000285746 0.000269537 0.000252522 0.000235094 0.000217643 0.000200171 0.000182676 0.000165583 0.000149315 0.000133873 0.000119255 0.000105838 9.39958e-05 8.37284e-05 7.50358e-05 6.81386e-05 6.32574e-05 6.03922e-05 5.9543e-05 6.07014e-05 6.38589e-05 6.90154e-05 7.61711e-05 8.50913e-05 9.55413e-05 0.000107521 0.000121031 0.000135689 0.000151114 0.000167306 0.000184265 0.000201569 0.000218797 0.000235949 0.000253026 0.000269645 0.000285425 0.000300367 0.000314471 0.000327429 0.000338938 0.000348995 0.000357602 0.000364546 0.000369615 0.000372808 0.000374126 0.000373487 0.000370811 0.000366096 0.000359343 0.000350659 0.000340151 0.000327818 0.000313661 0.000298006 0.000281178 0.000263179 0.000244007 0.000224159 0.000204128 0.000183916 0.000163522 0.000143467 0.000124275 0.000105944 8.84744e-05 7.22344e-05 5.75912e-05 4.45449e-05 3.30955e-05 2.33062e-05 1.52403e-05 8.89794e-06 4.27896e-06 1.09247e-06 -9.52483e-07 -1.8559e-06 -1.61778e-06 -9.10001e-07 -4.04445e-07 -1.01111e-07 0 0 -1.77091e-07 -7.08365e-07 -1.59382e-06 -2.83346e-06 -3.20451e-06 -1.48419e-06 2.3275e-06 8.23055e-06 1.67497e-05 2.84099e-05 4.32109e-05 6.11528e-05 8.21101e-05 0.000105957 0.000132694 0.000162321 0.000194157 0.000227522 0.000262417 0.00029884 0.000335836 0.000372447 0.000408673 0.000444514 0.000479069 0.000511436 0.000541615 0.000569606 0.000594824 0.000616683 0.000635183 0.000650323 0.000661926 0.000669809 0.000673975 0.000674422 0.000671319 0.000664831 0.000654959 0.000641703 0.000625469 0.000606663 0.000585284 0.000561332 0.000535378 0.000507993 0.000479176 0.000448928 0.000417945 0.000386922 0.000355859 0.000324758 0.00029437 0.000265449 0.000237996 0.00021201 0.000188157 0.000167104 0.00014885 0.000133397 0.000121135 0.000112458 0.000107364 0.000105854 0.000107914 0.000113527 0.000122694 0.000135415 0.000151273 0.000169851 0.000191149 0.000215166 0.000241225 0.000268647 0.000297433 0.000327582 0.000358344 0.000388972 0.000419465 0.000449823 0.000479368 0.000507423 0.000533986 0.000559059 0.000582097 0.000602556 0.000620436 0.000635737 0.000648082 0.000657093 0.00066277 0.000665113 0.000663978 0.000659219 0.000650837 0.000638832 0.000623394 0.000604712 0.000582788 0.00055762 0.000529788 0.000499873 0.000467874 0.000433791 0.000398505 0.000362895 0.000326962 0.000290705 0.000255053 0.000220933 0.000188345 0.000157288 0.000128417 0.000102384 7.91909e-05 5.88364e-05 4.14332e-05 2.70939e-05 1.58186e-05 7.60705e-06 1.94217e-06 -1.6933e-06 -3.29938e-06 -2.87605e-06 -1.61778e-06 -7.19013e-07 -1.79753e-07 0 0 -1.9763e-07 -7.9052e-07 -1.77867e-06 -3.16208e-06 -3.16122e-06 3.45296e-09 6.33193e-06 1.58242e-05 2.9235e-05 4.73191e-05 7.00765e-05 9.75071e-05 0.000129383 0.000165476 0.000205787 0.000250314 0.000298004 0.000347798 0.000399697 0.000453701 0.00050835 0.000562184 0.000615202 0.000667404 0.00071743 0.00076392 0.000806875 0.000846293 0.000881305 0.00091104 0.000935497 0.000954678 0.00096833 0.000976204 0.000978299 0.000974615 0.000965428 0.000951013 0.00093137 0.000906499 0.000877042 0.000843639 0.00080629 0.000764995 0.000720657 0.000674177 0.000625555 0.000574791 0.000522994 0.000471271 0.000419624 0.000368051 0.000317758 0.000269953 0.000224634 0.000181802 0.000142527 0.000107879 7.78583e-05 5.24647e-05 3.23292e-05 1.80824e-05 9.7246e-06 7.25564e-06 1.06521e-05 1.98904e-05 3.49706e-05 5.58927e-05 8.19866e-05 0.000112582 0.00014768 0.000187279 0.000230291 0.000275627 0.000323285 0.000373267 0.000424373 0.000475401 0.000526353 0.000577227 0.000626944 0.000674422 0.000719662 0.000762663 0.000802564 0.000838505 0.000870483 0.000898501 0.000921959 0.000940261 0.000953406 0.000961394 0.000963985 0.000960939 0.000952255 0.000937933 0.000918242 0.000893448 0.000863552 0.000828554 0.000789317 0.000746704 0.000700714 0.000651347 0.000599934 0.000547802 0.000494952 0.000441384 0.000388514 0.000337758 0.000289116 0.000242588 0.00019919 0.000159937 0.000124829 9.38655e-05 6.72549e-05 4.52039e-05 2.77126e-05 1.4781e-05 5.66459e-06 -3.81271e-07 -3.35654e-06 -3.26122e-06 -1.83444e-06 -8.15306e-07 -2.03827e-07 0 0 -8.21549e-08 -3.2862e-07 -7.39394e-07 -1.31448e-06 1.73163e-07 5.95057e-06 1.60177e-05 3.03747e-05 4.99412e-05 7.56371e-05 0.000107462 0.000145417 0.000189092 0.000238076 0.000292371 0.000351976 0.000415387 0.000481103 0.000549121 0.000619443 0.000690056 0.000758946 0.000826113 0.000891558 0.000953445 0.00100994 0.00106104 0.00110675 0.00114592 0.00117743 0.00120126 0.00121742 0.00122562 0.00122558 0.00121729 0.00120077 0.00117644 0.00114473 0.00110564 0.00105918 0.00100629 0.000947905 0.000884025 0.000814653 0.000741114 0.000664734 0.000585514 0.000503452 0.000420198 0.0003374 0.000255058 0.000173172 9.35535e-05 1.80136e-05 -5.34478e-05 -0.000120831 -0.000182519 -0.000236899 -0.000283968 -0.000323729 -0.000355224 -0.000377501 -0.000390557 -0.000394395 -0.000389046 -0.000374546 -0.000350894 -0.000318091 -0.000277147 -0.000229076 -0.000173876 -0.000111548 -4.37362e-05 2.79165e-05 0.00010341 0.000182744 0.000264114 0.000345715 0.000427549 0.000509615 0.000590301 0.000667997 0.000742702 0.000814417 0.000881871 0.000943796 0.00100019 0.00105105 0.00109551 0.00113267 0.00116254 0.00118512 0.00120003 0.00120688 0.00120567 0.0011964 0.00117939 0.00115494 0.00112306 0.00108374 0.00103812 0.000987324 0.00093136 0.000870226 0.000805717 0.000739629 0.000671961 0.000602714 0.000533841 0.000467298 0.000403084 0.0003412 0.000283092 0.000230209 0.000182551 0.000140117 0.000103287 7.24398e-05 4.75763e-05 2.8696e-05 1.48897e-05 5.24813e-06 -2.28662e-07 -1.54069e-06 -8.6664e-07 -3.85173e-07 -9.62933e-08 0 0 1.69334e-07 6.77337e-07 1.52401e-06 2.70935e-06 6.79863e-06 1.63572e-05 3.13849e-05 5.18819e-05 7.88681e-05 0.000113364 0.000155369 0.000204883 0.000261236 0.000323757 0.000392446 0.000467304 0.000546308 0.000627437 0.00071069 0.000796067 0.000880954 0.000962734 0.00104141 0.00111698 0.00118711 0.00124949 0.00130411 0.00135097 0.00138868 0.00141584 0.00143246 0.00143854 0.00143379 0.00141793 0.00139096 0.00135289 0.00130434 0.00124597 0.00117778 0.00109976 0.00101322 0.000919459 0.00081849 0.000710306 0.000596751 0.000479667 0.000359053 0.00023491 0.000109556 -1.46939e-05 -0.000137839 -0.000259878 -0.000378245 -0.000490368 -0.000596249 -0.000695888 -0.000786982 -0.000867229 -0.00093663 -0.000995183 -0.00104153 -0.00107429 -0.00109348 -0.0010991 -0.00109118 -0.00106978 -0.0010349 -0.000986535 -0.000926128 -0.000855123 -0.000773519 -0.000681316 -0.000580857 -0.000474483 -0.000362194 -0.00024399 -0.000122433 -8.50352e-08 0.000123055 0.000246986 0.00036944 0.000488147 0.000603107 0.00071432 0.000820017 0.00091843 0.00100956 0.0010934 0.00116873 0.00123433 0.00129018 0.0013363 0.00137211 0.00139704 0.00141108 0.00141424 0.00140684 0.0013892 0.00136131 0.00132317 0.00127619 0.00122173 0.00115981 0.00109043 0.00101585 0.000938375 0.000857988 0.000774695 0.000691036 0.000609555 0.000530251 0.000453124 0.000380124 0.000313202 0.000252357 0.00019759 0.000149529 0.000108802 7.54095e-05 4.93518e-05 2.96174e-05 1.51949e-05 6.08427e-06 2.28554e-06 1.28562e-06 5.71386e-07 1.42846e-07 0 0 5.56837e-07 2.22735e-06 5.01153e-06 8.90939e-06 1.67152e-05 3.12232e-05 5.24334e-05 8.03459e-05 0.000116016 0.000160499 0.000213795 0.000275904 0.000345816 0.000422519 0.000506013 0.0005963 0.000690766 0.0007868 0.000884402 0.000983572 0.00108104 0.00117355 0.00126109 0.00134366 0.00141844 0.00148258 0.00153609 0.00157896 0.00160957 0.00162629 0.00162912 0.00161805 0.00159284 0.00155326 0.0014993 0.00143097 0.00134915 0.00125475 0.00114778 0.00102822 0.000897816 0.000758304 0.000609683 0.000451953 0.000287566 0.000118973 -5.3827e-05 -0.000230833 -0.000408932 -0.000585009 -0.000759065 -0.000931101 -0.00109764 -0.00125519 -0.00140377 -0.00154337 -0.00167086 -0.00178311 -0.00188013 -0.0019619 -0.00202657 -0.00207229 -0.00209905 -0.00210685 -0.00209575 -0.00206582 -0.00201705 -0.00194944 -0.00186496 -0.00176556 -0.00165125 -0.00152202 -0.00138107 -0.00123157 -0.00107353 -0.000906934 -0.000735268 -0.000562 -0.00038713 -0.000210658 -3.56392e-05 0.000134872 0.000300876 0.000462373 0.000617002 0.000762406 0.000898583 0.00102553 0.00114162 0.00124522 0.00133632 0.00141493 0.00148023 0.00153142 0.0015685 0.00159145 0.00160059 0.00159621 0.0015783 0.00154686 0.00150353 0.00144993 0.00138607 0.00131195 0.00123035 0.00114404 0.00105303 0.000957327 0.000860099 0.000764528 0.000670615 0.00057836 0.000490286 0.000408915 0.000334248 0.000266285 0.000205981 0.00015429 0.000111212 7.67487e-05 4.98478e-05 2.9459e-05 1.55822e-05 8.21748e-06 4.62233e-06 2.05437e-06 5.13593e-07 0 0 1.11912e-06 4.47648e-06 1.00721e-05 1.79059e-05 3.08218e-05 5.16635e-05 8.0431e-05 0.000117124 0.000162724 0.000218212 0.000283587 0.00035885 0.000442544 0.000533212 0.000630853 0.000735468 0.000843786 0.000952536 0.00106172 0.00117133 0.00127744 0.0013761 0.00146732 0.0015511 0.00162411 0.00168306 0.00172794 0.00175874 0.00177367 0.00177092 0.00175047 0.00171234 0.00165639 0.00158248 0.0014906 0.00138076 0.00125417 0.00111203 0.000954348 0.000781119 0.000594564 0.000396898 0.000188122 -3.1764e-05 -0.000259621 -0.00049231 -0.000729831 -0.000972185 -0.00121533 -0.00145523 -0.00169189 -0.0019253 -0.0021509 -0.00236414 -0.00256502 -0.00275353 -0.00292555 -0.00307694 -0.00320772 -0.00331788 -0.00340497 -0.00346651 -0.00350251 -0.00351297 -0.00349798 -0.00345759 -0.00339182 -0.00330067 -0.00318672 -0.00305256 -0.0028982 -0.00272363 -0.00253305 -0.00233066 -0.00211646 -0.00189044 -0.00165717 -0.00142119 -0.00118251 -0.000941121 -0.000700998 -0.00046611 -0.000236455 -1.20346e-05 0.000204124 0.000408994 0.000602574 0.000784865 0.000953774 0.00110721 0.00124517 0.00136765 0.00147356 0.00156181 0.00163238 0.00168528 0.00172072 0.00173891 0.00173984 0.00172352 0.00169176 0.00164639 0.0015874 0.00151479 0.00143182 0.00134174 0.00124456 0.00114028 0.00103273 0.000925759 0.000819357 0.000713529 0.000611438 0.000516249 0.000427962 0.000346576 0.000273477 0.000210051 0.000156296 0.000112213 7.6818e-05 4.91275e-05 2.91413e-05 1.68595e-05 9.48344e-06 4.21486e-06 1.05372e-06 0 0 1.89495e-06 7.5798e-06 1.70546e-05 3.03192e-05 5.00174e-05 7.87927e-05 0.000116645 0.000163575 0.000220333 0.000287672 0.000365591 0.000454091 0.000551134 0.000654686 0.000764745 0.000881313 0.00100039 0.00111799 0.0012341 0.00134872 0.00145727 0.00155512 0.00164229 0.00171876 0.00178084 0.00182479 0.00185062 0.00185833 0.00184604 0.00181186 0.00175579 0.00167783 0.00157804 0.00145648 0.00131314 0.00114802 0.000962707 0.000758767 0.000536201 0.000295009 3.793e-05 -0.000232299 -0.000515678 -0.000812206 -0.00111799 -0.00142915 -0.00174567 -0.00206755 -0.00238971 -0.00270705 -0.00301957 -0.00332727 -0.00362433 -0.0039049 -0.00416899 -0.00441661 -0.00464242 -0.00484112 -0.00501269 -0.00515714 -0.00527129 -0.00535195 -0.00539912 -0.00541279 -0.00539307 -0.00534005 -0.00525372 -0.00513409 -0.00498451 -0.00480831 -0.00460551 -0.0043761 -0.00412548 -0.00385908 -0.00357688 -0.00327888 -0.00297092 -0.00265882 -0.00234258 -0.0020222 -0.0017027 -0.00138908 -0.00108135 -0.000779512 -0.000487319 -0.000208537 5.68361e-05 0.000308799 0.000544761 0.000762135 0.000960918 0.00114111 0.00130128 0.00143998 0.0015572 0.00165296 0.00172729 0.00178022 0.00181175 0.00182188 0.00181253 0.00178558 0.00174105 0.00167893 0.00160289 0.0015166 0.00142004 0.00131323 0.00120064 0.00108679 0.000971657 0.000855251 0.000741443 0.000634104 0.000533236 0.000438837 0.000352854 0.000277232 0.00021197 0.00015707 0.000111765 7.52873e-05 4.76376e-05 2.88158e-05 1.62089e-05 7.20394e-06 1.80099e-06 0 0 2.88433e-06 1.15373e-05 2.5959e-05 4.61492e-05 7.4302e-05 0.000112611 0.000161076 0.000219697 0.000288842 0.000368879 0.000459806 0.000561625 0.000671586 0.000786942 0.000907691 0.00103384 0.00116059 0.00128315 0.00140154 0.00151575 0.00162052 0.00171059 0.00178598 0.00184667 0.00188862 0.00190778 0.00190415 0.00187773 0.00182667 0.00174911 0.00164506 0.0015145 0.00135779 0.00117526 0.000966913 0.00073275 0.000474767 0.000194963 -0.000106663 -0.000430112 -0.000772085 -0.00112929 -0.00150172 -0.00188937 -0.00228755 -0.00269153 -0.00310133 -0.00351693 -0.00393207 -0.00434047 -0.00474212 -0.00513703 -0.00551791 -0.00587746 -0.0062157 -0.00653261 -0.00682149 -0.00707563 -0.00729503 -0.00747968 -0.00762556 -0.00772862 -0.00778887 -0.0078063 -0.00778103 -0.00771317 -0.00760273 -0.0074497 -0.00725832 -0.00703281 -0.00677318 -0.00647942 -0.00615836 -0.00581681 -0.00545477 -0.00507224 -0.00467652 -0.00427488 -0.00386735 -0.0034539 -0.00304074 -0.00263405 -0.00223382 -0.00184006 -0.00145733 -0.00109019 -0.000738632 -0.000402666 -8.54139e-05 0.00021 0.000483576 0.000735314 0.000963377 0.00116593 0.00134297 0.00149451 0.00162031 0.00172015 0.00179403 0.00184195 0.00186581 0.00186751 0.00184703 0.00180439 0.00174358 0.0016686 0.00157946 0.00147616 0.00136383 0.00124762 0.00112752 0.00100353 0.0008803 0.000762481 0.00065007 0.000543067 0.000444109 0.000355833 0.000278237 0.000211322 0.000154689 0.000107938 7.10711e-05 4.40864e-05 2.47986e-05 1.10216e-05 2.7554e-06 0 0 4.08725e-06 1.6349e-05 3.67853e-05 6.5396e-05 0.000103676 0.000153118 0.000213723 0.000285492 0.000368252 0.000461832 0.000566232 0.000681453 0.0008039 0.000929979 0.00105969 0.00119304 0.00132437 0.00144804 0.00156405 0.0016724 0.00176719 0.00184252 0.00189839 0.0019348 0.00194745 0.00193202 0.00188852 0.00181695 0.00171558 0.00158269 0.00141829 0.00122236 0.00099564 0.000738828 0.00045193 0.000134945 -0.000209651 -0.000579381 -0.000974245 -0.00139424 -0.00183548 -0.00229406 -0.00276999 -0.00326326 -0.00376829 -0.00427947 -0.00479682 -0.00532033 -0.00584241 -0.00635548 -0.00685953 -0.00735456 -0.00783164 -0.00828183 -0.00870513 -0.00910153 -0.00946275 -0.00978048 -0.0100547 -0.0102855 -0.0104678 -0.0105965 -0.0106718 -0.0106935 -0.0106619 -0.010577 -0.0104389 -0.0102475 -0.0100082 -0.00972606 -0.00940121 -0.00903361 -0.00863168 -0.00820386 -0.00775014 -0.00727053 -0.00677396 -0.00626939 -0.00575681 -0.00523623 -0.00471513 -0.004201 -0.00369385 -0.00319368 -0.0027059 -0.00223595 -0.00178383 -0.00134953 -0.000936751 -0.000549195 -0.00018686 0.000150254 0.00045986 0.000739671 0.000989688 0.00120991 0.00139977 0.00155869 0.00168667 0.00178372 0.00185162 0.00189216 0.00190534 0.00189115 0.00185387 0.00179776 0.00172284 0.00162909 0.0015223 0.00140824 0.00128693 0.00115836 0.00102801 0.000901378 0.000778465 0.000659268 0.000547245 0.000445854 0.000355094 0.000274967 0.000205589 0.000147081 9.94417e-05 6.26715e-05 3.52527e-05 1.56679e-05 3.91697e-06 0 0 5.5018e-06 2.20072e-05 4.95162e-05 8.80288e-05 0.00013805 0.000200084 0.000274132 0.000360193 0.000457372 0.000564776 0.000682404 0.000810257 0.00094376 0.00107834 0.001214 0.00135074 0.00148202 0.00160131 0.00170861 0.00180392 0.00188077 0.00193269 0.00195969 0.00196177 0.00193451 0.0018735 0.00177875 0.00165026 0.00148659 0.00128634 0.00104949 0.000776043 0.000467204 0.000124172 -0.000253053 -0.000664471 -0.00110711 -0.00157798 -0.00207708 -0.00260443 -0.00315556 -0.00372601 -0.00431579 -0.0049249 -0.00554689 -0.00617531 -0.00681017 -0.00745146 -0.00809023 -0.00871753 -0.00933337 -0.00993774 -0.0105199 -0.0110692 -0.0115855 -0.012069 -0.0125094 -0.0128968 -0.0132312 -0.0135126 -0.0137348 -0.0138918 -0.0139835 -0.0140099 -0.0139713 -0.0138678 -0.0136993 -0.0134658 -0.0131738 -0.0128297 -0.0124333 -0.0119848 -0.0114943 -0.010972 -0.010418 -0.00983227 -0.00922548 -0.00860843 -0.00798109 -0.00734348 -0.00670444 -0.00607281 -0.00544859 -0.00483179 -0.00422866 -0.00364547 -0.00308223 -0.00253893 -0.00201981 -0.00152911 -0.00106682 -0.000632948 -0.000230251 0.00013851 0.000473334 0.000774222 0.00104015 0.00127009 0.00146404 0.00162201 0.00174551 0.00183606 0.00189366 0.00191831 0.00191439 0.0018863 0.00183405 0.00175762 0.00166337 0.00155765 0.00144046 0.0013118 0.00117803 0.00104551 0.000914243 0.00078423 0.00065988 0.000545604 0.000441401 0.000347273 0.000264034 0.000192499 0.00013267 8.45448e-05 4.75564e-05 2.11362e-05 5.28405e-06 0 0 7.12605e-06 2.85042e-05 6.41345e-05 0.000114017 0.000177337 0.000253279 0.000341845 0.000443034 0.000555014 0.000675955 0.000805857 0.000944719 0.00108685 0.00122657 0.00136388 0.00149877 0.00162382 0.00173164 0.0018222 0.00189553 0.00194471 0.00196288 0.00195002 0.00190615 0.00182697 0.00170821 0.00154988 0.00135196 0.00111358 0.000833813 0.000512676 0.000150166 -0.000251904 -0.000691717 -0.00116927 -0.00168458 -0.00223415 -0.00281453 -0.00342572 -0.00406772 -0.00473561 -0.00542451 -0.00613442 -0.00686532 -0.00761004 -0.0083614 -0.0091194 -0.00988403 -0.010645 -0.0113921 -0.0121252 -0.0128444 -0.0135371 -0.0141907 -0.0148051 -0.0153804 -0.0159047 -0.0163658 -0.0167639 -0.0170989 -0.0173636 -0.0175505 -0.0176597 -0.0176912 -0.0176452 -0.0175218 -0.017321 -0.0170429 -0.0166951 -0.0162852 -0.0158132 -0.0152791 -0.014695 -0.0140731 -0.0134135 -0.012716 -0.0119933 -0.0112581 -0.0105103 -0.00974999 -0.00898726 -0.00823233 -0.00748517 -0.0067458 -0.00602121 -0.00531839 -0.00463732 -0.00397803 -0.00334517 -0.0027434 -0.00217274 -0.00163317 -0.00112793 -0.00066024 -0.000230099 0.000162491 0.000515924 0.000828593 0.0011005 0.00133164 0.00152304 0.00167573 0.0017897 0.00186495 0.00190578 0.00191646 0.00189699 0.00184738 0.0017744 0.00168483 0.00157867 0.00145592 0.00132382 0.00118959 0.00105323 0.000914747 0.000779635 0.000653392 0.000536016 0.000427508 0.000329589 0.000243978 0.000170675 0.00010968 6.16952e-05 2.74201e-05 6.85503e-06 0 0 8.96001e-06 3.584e-05 8.06401e-05 0.00014336 0.000221536 0.000312704 0.000416864 0.000534015 0.000661177 0.000795369 0.000936589 0.00108484 0.00123318 0.00137467 0.00150932 0.00163712 0.00174979 0.00183903 0.00190484 0.00194723 0.00195903 0.00193309 0.00186939 0.00176794 0.00162483 0.00143615 0.00120189 0.000922063 0.000596518 0.000225114 -0.000192147 -0.000655267 -0.00116168 -0.00170884 -0.00229674 -0.00292537 -0.00359079 -0.00428906 -0.00502016 -0.0057841 -0.00657565 -0.00738957 -0.00822586 -0.00908451 -0.00995774 -0.0108377 -0.0117245 -0.012618 -0.0135068 -0.0143791 -0.0152351 -0.0160746 -0.0168833 -0.0176464 -0.0183639 -0.019036 -0.0196485 -0.0201874 -0.0206528 -0.0210445 -0.021354 -0.0215727 -0.0217004 -0.0217372 -0.0216834 -0.021539 -0.0213042 -0.0209789 -0.020572 -0.0200927 -0.0195408 -0.0189165 -0.0182338 -0.0175072 -0.0167364 -0.0159217 -0.0150775 -0.0142184 -0.0133445 -0.0124557 -0.0115636 -0.0106796 -0.0098036 -0.00893573 -0.00808356 -0.00725468 -0.0064491 -0.00566682 -0.00491281 -0.00419208 -0.00350461 -0.00285042 -0.00223318 -0.00165658 -0.00112061 -0.000625283 -0.000172907 0.000234198 0.000596034 0.000912599 0.0011842 0.00141115 0.00159345 0.00173109 0.00182803 0.00188822 0.00191167 0.00189836 0.00185537 0.00178977 0.00170156 0.00159072 0.00146538 0.00133361 0.00119542 0.00105082 0.00090651 0.000769217 0.000638938 0.000515673 0.000402254 0.000301516 0.000213457 0.000138078 7.7669e-05 3.45196e-05 8.62989e-06 0 0 1.10037e-05 4.40147e-05 9.9033e-05 0.000176059 0.000270648 0.000378358 0.000499187 0.000633137 0.000775862 0.000923017 0.0010746 0.00123062 0.00138274 0.00152265 0.00165033 0.00176581 0.00185991 0.00192348 0.00195652 0.00195903 0.00192372 0.00184331 0.00171778 0.00154715 0.0013281 0.00105732 0.000734802 0.000360556 -6.45781e-05 -0.000539758 -0.00106498 -0.00164026 -0.00226214 -0.0029272 -0.00363544 -0.00438685 -0.00517702 -0.00600154 -0.00686039 -0.00775359 -0.00867567 -0.00962118 -0.0105901 -0.0115825 -0.01259 -0.0136043 -0.0146255 -0.0156535 -0.0166755 -0.0176786 -0.0186629 -0.0196284 -0.0205583 -0.0214362 -0.0222619 -0.0230356 -0.023741 -0.0243617 -0.0248978 -0.0253494 -0.0257062 -0.0259583 -0.0261056 -0.0261481 -0.026086 -0.0259195 -0.0256488 -0.0252736 -0.0248046 -0.0242521 -0.0236163 -0.022897 -0.0221108 -0.0212741 -0.020387 -0.0194494 -0.0184779 -0.0174894 -0.0164836 -0.0154607 -0.0144335 -0.0134145 -0.0124039 -0.0114016 -0.0104157 -0.00945437 -0.00851757 -0.00760529 -0.00672275 -0.00587513 -0.00506245 -0.00428469 -0.003546 -0.00285051 -0.00219821 -0.0015891 -0.00102634 -0.000513094 -4.93475e-05 0.000364894 0.000729 0.00104234 0.00130491 0.00151672 0.00168115 0.0018016 0.00187808 0.00191057 0.0019063 0.00187248 0.00180911 0.0017162 0.0016027 0.00147758 0.00134082 0.00119244 0.00104051 0.00089308 0.000750167 0.000611766 0.000482031 0.000365115 0.000261017 0.000169738 9.54779e-05 4.24346e-05 1.06087e-05 0 0 1.32128e-05 5.28514e-05 0.000118916 0.000211405 0.000323569 0.000448653 0.000586659 0.000737586 0.000895511 0.00105451 0.00121459 0.00137574 0.00152816 0.00166205 0.00177739 0.0018742 0.00194253 0.00197245 0.00196395 0.00191705 0.00182457 0.00167936 0.00148143 0.00123076 0.00092501 0.000561803 0.000141143 -0.00033697 -0.000870402 -0.00145702 -0.00209683 -0.00278982 -0.00353155 -0.00431759 -0.00514793 -0.00602258 -0.00693673 -0.00788559 -0.00886917 -0.00988747 -0.0109351 -0.0120066 -0.013102 -0.0142213 -0.015356 -0.0164976 -0.0176462 -0.0188017 -0.0199502 -0.0210779 -0.0221847 -0.0232706 -0.0243171 -0.0253054 -0.0262357 -0.0271078 -0.0279033 -0.0286037 -0.0292089 -0.0297189 -0.0301222 -0.030407 -0.0305735 -0.0306215 -0.0305514 -0.0303634 -0.0300574 -0.0296335 -0.0291037 -0.02848 -0.0277624 -0.0269509 -0.0260643 -0.0251213 -0.024122 -0.0230663 -0.0219729 -0.0208605 -0.0197291 -0.0185787 -0.017423 -0.0162759 -0.0151374 -0.0140075 -0.0128944 -0.0118066 -0.0107439 -0.00970638 -0.0086992 -0.0077275 -0.00679129 -0.00589056 -0.00502981 -0.00421353 -0.00344173 -0.00271441 -0.00203568 -0.00140968 -0.000836412 -0.000315871 0.000150072 0.000559546 0.000912553 0.00120909 0.00145166 0.00164274 0.00178234 0.00187047 0.00191423 0.00192075 0.00189001 0.00182203 0.00172655 0.0016133 0.00148229 0.00133351 0.00117648 0.00102073 0.000866263 0.00071307 0.000566835 0.000433242 0.00031229 0.00020398 0.000114739 5.09949e-05 1.27487e-05 0 0 1.55434e-05 6.21735e-05 0.00013989 0.000248694 0.000379195 0.000522004 0.000677122 0.000844547 0.00101657 0.00118547 0.00135124 0.0015139 0.00166209 0.00178445 0.00188098 0.00195168 0.00198601 0.0019734 0.00191387 0.00180741 0.00164736 0.00142707 0.00114654 0.000805764 0.0004038 -6.0303e-05 -0.000586546 -0.00117493 -0.00182164 -0.00252289 -0.00327867 -0.00408897 -0.00494822 -0.00585083 -0.00679679 -0.0077861 -0.00881378 -0.00987483 -0.0109692 -0.012097 -0.0132532 -0.014433 -0.0156362 -0.0168629 -0.0181049 -0.0193541 -0.0206104 -0.0218739 -0.02313 -0.0243641 -0.0255763 -0.0267665 -0.0279143 -0.0289994 -0.0300216 -0.0309811 -0.031857 -0.0326285 -0.0332957 -0.0338585 -0.0343038 -0.0346184 -0.0348023 -0.0348555 -0.0347782 -0.0345707 -0.034233 -0.033765 -0.0331805 -0.0324928 -0.0317022 -0.0308085 -0.0298328 -0.0287961 -0.0276984 -0.0265398 -0.0253407 -0.0241215 -0.0228823 -0.0216231 -0.0203583 -0.0191025 -0.0178556 -0.0166176 -0.0153966 -0.0142004 -0.0130293 -0.011883 -0.0107664 -0.00968412 -0.00863619 -0.00762259 -0.00664802 -0.00571718 -0.00483005 -0.00398665 -0.00319221 -0.00245197 -0.00176593 -0.00113409 -0.000559943 -4.69671e-05 0.000404835 0.000795465 0.00112606 0.00139777 0.0016106 0.00176453 0.00186623 0.00192236 0.00193292 0.0018979 0.00182767 0.00173259 0.00161266 0.00146789 0.0013093 0.00114793 0.000983788 0.000816865 0.000654585 0.000504367 0.000366212 0.000240121 0.000135068 6.00302e-05 1.50075e-05 0 0 1.79952e-05 7.19809e-05 0.000161957 0.000287924 0.000437526 0.00059841 0.000770575 0.000954022 0.00113903 0.00131588 0.00148457 0.0016451 0.00178451 0.00188984 0.00196109 0.00199825 0.00199034 0.00192635 0.00180627 0.00163011 0.00139209 0.00108642 0.000713111 0.00027215 -0.000235529 -0.000809 -0.00144826 -0.00215332 -0.00291831 -0.00373737 -0.00461051 -0.00553772 -0.00651214 -0.0075269 -0.008582 -0.00967743 -0.0108082 -0.0119692 -0.0131606 -0.0143823 -0.0156302 -0.0169004 -0.0181927 -0.0195073 -0.0208368 -0.0221737 -0.0235182 -0.0248702 -0.0262148 -0.0275373 -0.0288377 -0.030116 -0.0313501 -0.032518 -0.0336198 -0.0346555 -0.0356019 -0.0364362 -0.0371583 -0.0377682 -0.0382512 -0.0385924 -0.038792 -0.0388498 -0.0387662 -0.0385414 -0.0381753 -0.0376681 -0.0370348 -0.0362906 -0.0354356 -0.0344697 -0.0334162 -0.0322985 -0.0311163 -0.0298699 -0.0285812 -0.0272723 -0.0259433 -0.0245941 -0.0232395 -0.0218943 -0.0205585 -0.019232 -0.0179221 -0.0166359 -0.0153737 -0.0141352 -0.0129243 -0.011745 -0.0105972 -0.00948079 -0.00840064 -0.00736143 -0.00636316 -0.00540583 -0.00449592 -0.00363994 -0.00283789 -0.00208977 -0.00140104 -0.000777201 -0.00021824 0.00027584 0.000704376 0.00106671 0.00136283 0.00159275 0.00176231 0.00187733 0.00193783 0.00194379 0.00190606 0.00183544 0.00173195 0.00159559 0.00143896 0.00127468 0.00110274 0.000923152 0.000745279 0.00057849 0.000422784 0.000278161 0.000156466 6.95403e-05 1.73851e-05 0 0 2.05684e-05 8.22737e-05 0.000185116 0.000329095 0.000498563 0.000677871 0.00086702 0.00106601 0.0012629 0.00144575 0.00161456 0.00176933 0.00189543 0.00197823 0.00201772 0.00201392 0.00195553 0.00183127 0.00164115 0.00138516 0.00105877 0.000657428 0.000181147 -0.000370077 -0.000992979 -0.00168429 -0.00244401 -0.00327214 -0.00416038 -0.00510045 -0.00609235 -0.00713606 -0.00822332 -0.00934582 -0.0105036 -0.0116966 -0.0129199 -0.0141688 -0.0154433 -0.0167432 -0.0180659 -0.0194088 -0.0207716 -0.0221546 -0.0235516 -0.0249565 -0.0263695 -0.0277904 -0.0292047 -0.0305975 -0.031969 -0.0333191 -0.0346243 -0.0358614 -0.0370303 -0.0381309 -0.0391381 -0.0400267 -0.0407967 -0.041448 -0.0419643 -0.0423292 -0.0425426 -0.0426047 -0.0425156 -0.0422755 -0.0418846 -0.0413427 -0.0406666 -0.0398733 -0.0389626 -0.0379346 -0.0368147 -0.0356284 -0.0343756 -0.0330565 -0.0316944 -0.030313 -0.028912 -0.0274917 -0.0260666 -0.0246514 -0.023246 -0.0218505 -0.0204709 -0.0191131 -0.0177771 -0.0164629 -0.015173 -0.0139101 -0.0126742 -0.0114652 -0.0102877 -0.0091463 -0.00804106 -0.00697194 -0.00594683 -0.00497362 -0.00405231 -0.0031829 -0.00237323 -0.00163115 -0.000956673 -0.000349784 0.000186593 0.000649539 0.00103905 0.00135514 0.00160245 0.00178565 0.00190474 0.00195972 0.00196171 0.00192186 0.00184016 0.00171661 0.00156546 0.00140096 0.001