<?xml version="1.0"?> 
<VTKFile type="StructuredGrid" version="0.1"> 
<StructuredGrid WholeExtent="0 128 0 128 0 0"> 
<Piece Extent="0 128 0 128 0 0"> 
<PointData>
<DataArray type="Float32" Name="u" format="ascii" NumberOfComponents="1"> 
0 0 0 0 0 0 0 0 0 0 0 0 0 0 0 0 0 0 0 0 0 0 0 0 0 0 0 0 0 0 0 0 0 0 0 0 0 0 0 0 0 0 0 0 0 0 0 0 0 0 0 0 0 0 0 0 0 0 0 0 0 0 0 0 0 0 0 0 0 0 0 0 0 0 0 0 0 0 0 0 0 0 0 0 0 0 0 0 0 0 0 0 0 0 0 0 0 0 0 0 0 0 0 0 0 0 0 0 0 0 0 0 0 0 0 0 0 0 0 0 0 0 0 0 0 0 0 0 0 0 -1.15535e-07 -4.62141e-07 -1.03982e-06 -1.84856e-06 -3.01528e-06 -4.66685e-06 -6.80329e-06 -9.42458e-06 -1.2591e-05 -1.63627e-05 -2.07399e-05 -2.57223e-05 -3.12969e-05 -3.74501e-05 -4.41822e-05 -5.1493e-05 -5.93357e-05 -6.76633e-05 -7.6476e-05 -8.57735e-05 -9.54866e-05 -0.000105546 -0.000115951 -0.000126702 -0.000137713 -0.000148896 -0.000160252 -0.000171781 -0.000183389 -0.00019498 -0.000206554 -0.000218112 -0.000229564 -0.00024082 -0.000251881 -0.000262745 -0.000273342 -0.000283598 -0.000293515 -0.000303091 -0.000312282 -0.000321042 -0.00032937 -0.000337267 -0.000344717 -0.000351701 -0.000358221 -0.000364276 -0.000369874 -0.000375021 -0.000379717 -0.000383963 -0.00038778 -0.000391189 -0.000394189 -0.000396781 -0.000398987 -0.00040083 -0.000402311 -0.000403429 -0.000404198 -0.000404632 -0.000404732 -0.000404497 -0.000403927 -0.000403022 -0.000401782 -0.000400207 -0.000398283 -0.000395997 -0.00039335 -0.00039034 -0.000386949 -0.000383156 -0.000378961 -0.000374365 -0.000369353 -0.000363909 -0.000358033 -0.000351726 -0.000344988 -0.000337821 -0.000330224 -0.000322197 -0.000313767 -0.000304957 -0.000295768 -0.000286201 -0.000276306 -0.000266138 -0.000255695 -0.000244978 -0.000234061 -0.00022302 -0.000211854 -0.000200564 -0.000189238 -0.000177962 -0.000166737 -0.000155564 -0.000144529 -0.00013372 -0.000123138 -0.000112782 -0.000102728 -9.30525e-05 -8.37545e-05 -7.48344e-05 -6.6348e-05 -5.83514e-05 -5.08445e-05 -4.38273e-05 -3.73319e-05 -3.13902e-05 -2.60023e-05 -2.11681e-05 -1.68867e-05 -1.31571e-05 -9.97944e-06 -7.35361e-06 -5.21451e-06 -3.49703e-06 -2.20116e-06 -1.3269e-06 -7.46382e-07 -3.31725e-07 -8.29313e-08 0 0 -4.62141e-07 -1.84856e-06 -4.15927e-06 -7.39425e-06 -1.20611e-05 -1.86674e-05 -2.72131e-05 -3.76983e-05 -5.0364e-05 -6.5451e-05 -8.29594e-05 -0.000102889 -0.000125187 -0.000149801 -0.000176729 -0.000205972 -0.000237343 -0.000270653 -0.000305904 -0.000343094 -0.000381946 -0.000422183 -0.000463804 -0.000506808 -0.000550851 -0.000595585 -0.00064101 -0.000687126 -0.000733555 -0.000779918 -0.000826216 -0.000872449 -0.000918257 -0.000963282 -0.00100752 -0.00105098 -0.00109337 -0.00113439 -0.00117406 -0.00121236 -0.00124913 -0.00128417 -0.00131748 -0.00134907 -0.00137887 -0.00140681 -0.00143288 -0.0014571 -0.00147949 -0.00150008 -0.00151887 -0.00153585 -0.00155112 -0.00156475 -0.00157676 -0.00158712 -0.00159595 -0.00160332 -0.00160924 -0.00161372 -0.00161679 -0.00161853 -0.00161893 -0.00161799 -0.00161571 -0.00161209 -0.00160713 -0.00160083 -0.00159313 -0.00158399 -0.0015734 -0.00156136 -0.00154779 -0.00153262 -0.00151584 -0.00149746 -0.00147741 -0.00145564 -0.00143213 -0.0014069 -0.00137995 -0.00135128 -0.0013209 -0.00128879 -0.00125507 -0.00121983 -0.00118307 -0.0011448 -0.00110523 -0.00106455 -0.00102278 -0.000979911 -0.000936244 -0.00089208 -0.000847417 -0.000802257 -0.000756951 -0.000711848 -0.000666949 -0.000622255 -0.000578115 -0.00053488 -0.000492551 -0.000451128 -0.000410913 -0.00037221 -0.000335018 -0.000299337 -0.000265392 -0.000233406 -0.000203378 -0.000175309 -0.000149328 -0.000125561 -0.000104009 -8.46722e-05 -6.75466e-05 -5.26285e-05 -3.99177e-05 -2.94144e-05 -2.0858e-05 -1.39881e-05 -8.80463e-06 -5.30761e-06 -2.98553e-06 -1.3269e-06 -3.31725e-07 0 0 -1.03982e-06 -4.15927e-06 -9.35835e-06 -1.66371e-05 -2.71375e-05 -4.20017e-05 -6.12296e-05 -8.48213e-05 -0.000113319 -0.000147265 -0.000186659 -0.000231501 -0.000281672 -0.000337051 -0.00039764 -0.000463437 -0.000534021 -0.00060897 -0.000688284 -0.000771962 -0.000859379 -0.000949912 -0.00104356 -0.00114032 -0.00123941 -0.00134007 -0.00144227 -0.00154603 -0.0016505 -0.00175482 -0.00185899 -0.00196301 -0.00206608 -0.00216738 -0.00226693 -0.00236471 -0.00246008 -0.00255238 -0.00264163 -0.00272782 -0.00281054 -0.00288937 -0.00296433 -0.00303541 -0.00310245 -0.00316531 -0.00322399 -0.00327849 -0.00332886 -0.00337519 -0.00341746 -0.00345567 -0.00349002 -0.0035207 -0.0035477 -0.00357103 -0.00359088 -0.00360747 -0.0036208 -0.00363086 -0.00363778 -0.00364169 -0.00364259 -0.00364047 -0.00363534 -0.0036272 -0.00361604 -0.00360186 -0.00358455 -0.00356398 -0.00354015 -0.00351306 -0.00348254 -0.0034484 -0.00341065 -0.00336929 -0.00332418 -0.00327518 -0.0032223 -0.00316554 -0.0031049 -0.00304039 -0.00297202 -0.00289978 -0.0028239 -0.00274461 -0.00266191 -0.0025758 -0.00248676 -0.00239524 -0.00230125 -0.0022048 -0.00210655 -0.00200718 -0.00190669 -0.00180508 -0.00170314 -0.00160166 -0.00150064 -0.00140007 -0.00130076 -0.00120348 -0.00110824 -0.00101504 -0.000924555 -0.000837472 -0.00075379 -0.000673509 -0.000597132 -0.000525163 -0.000457601 -0.000394446 -0.000335987 -0.000282512 -0.00023402 -0.000190513 -0.00015198 -0.000118414 -8.98149e-05 -6.61825e-05 -4.69306e-05 -3.14733e-05 -1.98104e-05 -1.19421e-05 -6.71744e-06 -2.98553e-06 -7.46382e-07 0 0 -1.84856e-06 -7.39425e-06 -1.66371e-05 -2.9577e-05 -4.82444e-05 -7.46696e-05 -0.000108853 -0.000150793 -0.000201456 -0.000261804 -0.000331838 -0.000411557 -0.00050075 -0.000599202 -0.000706915 -0.000823888 -0.000949371 -0.00108261 -0.00122362 -0.00137238 -0.00152779 -0.00168873 -0.00185521 -0.00202723 -0.0022034 -0.00238234 -0.00256404 -0.0027485 -0.00293422 -0.00311967 -0.00330487 -0.0034898 -0.00367303 -0.00385313 -0.00403009 -0.00420392 -0.00437347 -0.00453757 -0.00469623 -0.00484946 -0.00499651 -0.00513666 -0.00526992 -0.00539628 -0.00551547 -0.00562722 -0.00573154 -0.00582842 -0.00591798 -0.00600033 -0.00607548 -0.00614341 -0.00620448 -0.00625902 -0.00630702 -0.00634849 -0.00638379 -0.00641329 -0.00643698 -0.00645486 -0.00646717 -0.00647412 -0.00647571 -0.00647195 -0.00646283 -0.00644835 -0.00642851 -0.00640331 -0.00637253 -0.00633596 -0.0062936 -0.00624544 -0.00619118 -0.00613049 -0.00606338 -0.00598985 -0.00590965 -0.00582254 -0.00572853 -0.00562762 -0.00551981 -0.00540514 -0.00528358 -0.00515516 -0.00502026 -0.00487931 -0.00473229 -0.00457921 -0.0044209 -0.0042582 -0.00409112 -0.00391964 -0.00374498 -0.00356832 -0.00338967 -0.00320903 -0.0030278 -0.00284739 -0.0026678 -0.00248902 -0.00231246 -0.00213952 -0.00197021 -0.00180451 -0.00164365 -0.00148884 -0.00134007 -0.00119735 -0.00106157 -0.000933623 -0.000813512 -0.000701238 -0.00059731 -0.000502243 -0.000416036 -0.000338689 -0.000270187 -0.000210514 -0.000159671 -0.000117658 -8.34322e-05 -5.59525e-05 -3.52185e-05 -2.12304e-05 -1.19421e-05 -5.30761e-06 -1.3269e-06 0 0 -3.0186e-06 -1.20744e-05 -2.71674e-05 -4.82976e-05 -7.83746e-05 -0.000120308 -0.000174099 -0.000239746 -0.000318669 -0.000412287 -0.0005206 -0.000643608 -0.000780946 -0.000932252 -0.00109752 -0.00127676 -0.00146879 -0.00167244 -0.0018877 -0.00211458 -0.00235135 -0.0025963 -0.00284942 -0.00311073 -0.00337807 -0.00364934 -0.00392453 -0.00420364 -0.00448436 -0.00476439 -0.00504372 -0.00532236 -0.00559813 -0.00586887 -0.00613458 -0.00639525 -0.00664917 -0.00689461 -0.00713158 -0.00736007 -0.00757903 -0.0077874 -0.00798519 -0.00817238 -0.00834864 -0.00851361 -0.00866731 -0.00880973 -0.00894112 -0.00906171 -0.00917151 -0.00927051 -0.0093593 -0.00943844 -0.00950794 -0.00956779 -0.0096186 -0.00966096 -0.00969488 -0.00972036 -0.00973775 -0.00974744 -0.0097494 -0.00974366 -0.00973019 -0.00970899 -0.00968006 -0.0096434 -0.00959865 -0.00954546 -0.00948381 -0.00941372 -0.00933465 -0.00924607 -0.00914798 -0.00904038 -0.00892283 -0.00879492 -0.00865663 -0.00850797 -0.0083489 -0.00817937 -0.00799939 -0.00780894 -0.0076086 -0.00739892 -0.00717989 -0.00695152 -0.00671503 -0.00647166 -0.00622139 -0.00596424 -0.00570199 -0.00543645 -0.00516762 -0.00489549 -0.00462219 -0.00434985 -0.00407847 -0.00380805 -0.00354073 -0.00327866 -0.00302183 -0.00277025 -0.00252578 -0.00229028 -0.00206377 -0.00184623 -0.00163905 -0.00144363 -0.00125997 -0.00108807 -0.000928737 -0.00078278 -0.000650203 -0.000531004 -0.000425198 -0.000332798 -0.000253803 -0.000188215 -0.000134489 -9.10816e-05 -5.79927e-05 -3.52223e-05 -1.98125e-05 -8.80557e-06 -2.20139e-06 0 0 -4.68013e-06 -1.87205e-05 -4.21212e-05 -7.48821e-05 -0.000120521 -0.000182555 -0.000260985 -0.00035581 -0.000468851 -0.00060193 -0.000755047 -0.000928201 -0.00112079 -0.0013322 -0.00156244 -0.0018115 -0.00207769 -0.0023593 -0.00265634 -0.0029688 -0.00329426 -0.00363027 -0.00397684 -0.00433397 -0.00469868 -0.00506801 -0.00544197 -0.00582054 -0.00620056 -0.00657885 -0.00695541 -0.00733025 -0.00770042 -0.00806299 -0.00841795 -0.00876532 -0.00910281 -0.00942817 -0.00974138 -0.0100425 -0.0103301 -0.010603 -0.0108611 -0.0111044 -0.0113327 -0.0115456 -0.0117431 -0.0119253 -0.0120926 -0.0122455 -0.0123841 -0.0125084 -0.0126193 -0.0127177 -0.0128037 -0.0128772 -0.0129392 -0.0129907 -0.0130316 -0.013062 -0.0130823 -0.0130933 -0.0130948 -0.0130868 -0.0130694 -0.0130426 -0.0130062 -0.0129604 -0.0129045 -0.012838 -0.0127609 -0.0126731 -0.0125739 -0.0124623 -0.0123384 -0.0122021 -0.0120527 -0.0118895 -0.0117124 -0.0115214 -0.0113164 -0.0110969 -0.0108632 -0.0106151 -0.0103533 -0.0100784 -0.0097904 -0.00948924 -0.00917653 -0.00885382 -0.0085211 -0.00817839 -0.00782808 -0.00747254 -0.00711179 -0.00674583 -0.00637754 -0.00600983 -0.00564269 -0.00527612 -0.00491308 -0.00455654 -0.00420649 -0.00386294 -0.0035285 -0.00320578 -0.00289478 -0.0025955 -0.00230993 -0.00204005 -0.00178585 -0.00154734 -0.0013257 -0.00112215 -0.000936667 -0.000769261 -0.000620045 -0.000489134 -0.000376529 -0.000282229 -0.000204227 -0.000140517 -9.10965e-05 -5.59674e-05 -3.14816e-05 -1.39918e-05 -3.49796e-06 0 0 -6.83317e-06 -2.73327e-05 -6.14986e-05 -0.000109331 -0.000174683 -0.00026141 -0.000369511 -0.000498985 -0.000652004 -0.000830736 -0.00103518 -0.00126534 -0.00152027 -0.00179904 -0.00210165 -0.00242809 -0.00277605 -0.0031432 -0.00352953 -0.00393506 -0.00435651 -0.00479065 -0.00523746 -0.00569696 -0.00616522 -0.00663835 -0.00711635 -0.00759921 -0.00808282 -0.00856307 -0.00903995 -0.00951347 -0.00997989 -0.0104355 -0.0108802 -0.0113141 -0.0117344 -0.0121382 -0.0125256 -0.0128966 -0.0132497 -0.0135833 -0.0138975 -0.0141923 -0.0144676 -0.0147231 -0.0149589 -0.015175 -0.0153723 -0.0155518 -0.0157133 -0.0158571 -0.0159844 -0.0160967 -0.0161942 -0.0162767 -0.0163457 -0.0164025 -0.0164472 -0.0164797 -0.0165009 -0.0165116 -0.0165118 -0.0165015 -0.0164806 -0.0164491 -0.0164069 -0.0163542 -0.0162901 -0.0162136 -0.0161248 -0.0160236 -0.0159089 -0.0157792 -0.0156346 -0.0154751 -0.0152994 -0.0151063 -0.0148958 -0.014668 -0.0144222 -0.0141579 -0.0138751 -0.0135738 -0.0132545 -0.0129179 -0.0125638 -0.0121924 -0.0118054 -0.0114047 -0.0109902 -0.0105621 -0.0101232 -0.00967659 -0.0092222 -0.00876006 -0.00829386 -0.00782733 -0.00736045 -0.00689323 -0.00642951 -0.00597317 -0.0055242 -0.00508259 -0.00465181 -0.00423532 -0.00383311 -0.00344518 -0.00307421 -0.00272286 -0.00239113 -0.00207903 -0.00178821 -0.00152035 -0.00127543 -0.00105346 -0.000854728 -0.000679525 -0.000527849 -0.000399701 -0.000292647 -0.000204257 -0.00013453 -8.34657e-05 -4.69495e-05 -2.08664e-05 -5.21661e-06 0 0 -9.47772e-06 -3.79109e-05 -8.52995e-05 -0.000151643 -0.000240862 -0.000356873 -0.000499676 -0.000669273 -0.000868126 -0.0010987 -0.001361 -0.00165502 -0.0019794 -0.00233278 -0.00271517 -0.00312655 -0.00356389 -0.00402413 -0.00450728 -0.00501333 -0.00553811 -0.00607743 -0.00663129 -0.0071997 -0.0077777 -0.00836036 -0.00894768 -0.00953965 -0.0101311 -0.010717 -0.0112973 -0.011872 -0.0124365 -0.0129863 -0.0135214 -0.0140417 -0.0145439 -0.0150248 -0.0154844 -0.0159226 -0.0163378 -0.0167285 -0.0170946 -0.0174362 -0.0177533 -0.0180462 -0.0183147 -0.018559 -0.0187804 -0.0189804 -0.0191591 -0.0193165 -0.0194546 -0.0195756 -0.0196795 -0.0197663 -0.0198379 -0.0198964 -0.0199416 -0.0199736 -0.0199935 -0.0200025 -0.0200005 -0.0199876 -0.0199636 -0.0199285 -0.0198823 -0.019825 -0.0197553 -0.0196722 -0.0195755 -0.0194653 -0.0193397 -0.0191968 -0.0190367 -0.0188593 -0.0186627 -0.0184453 -0.0182069 -0.0179476 -0.0176663 -0.0173621 -0.0170349 -0.0166848 -0.0163121 -0.0159172 -0.0155001 -0.0150609 -0.0146016 -0.0141242 -0.0136288 -0.0131154 -0.0125874 -0.0120486 -0.0114988 -0.0109382 -0.0103712 -0.00980235 -0.00923176 -0.00865937 -0.00809003 -0.00752855 -0.00697494 -0.0064292 -0.00589573 -0.00537891 -0.00487876 -0.00439526 -0.00393189 -0.00349208 -0.00307583 -0.00268316 -0.00231627 -0.00197738 -0.00166649 -0.0013836 -0.00112925 -0.000903968 -0.000707762 -0.000540629 -0.000399749 -0.000282304 -0.000188293 -0.000117717 -6.6216e-05 -2.94293e-05 -7.35734e-06 0 0 -1.26699e-05 -5.06796e-05 -0.000114029 -0.000202718 -0.000320373 -0.000470616 -0.00065345 -0.000868873 -0.00111953 -0.00140805 -0.00173445 -0.00209871 -0.00249893 -0.00293316 -0.00340141 -0.00390369 -0.00443608 -0.0049947 -0.00557953 -0.00619058 -0.00682263 -0.00747044 -0.00813402 -0.00881336 -0.0095024 -0.0101951 -0.0108913 -0.0115912 -0.0122885 -0.0129771 -0.0136569 -0.0143279 -0.0149847 -0.0156221 -0.0162398 -0.0168381 -0.017413 -0.0179609 -0.0184818 -0.0189758 -0.0194411 -0.0198762 -0.0202813 -0.0206561 -0.0210015 -0.0213179 -0.0216053 -0.0218639 -0.0220957 -0.0223031 -0.022486 -0.0226445 -0.0227815 -0.0229001 -0.0230001 -0.0230817 -0.0231474 -0.0232 -0.0232395 -0.0232658 -0.0232805 -0.023285 -0.0232795 -0.0232638 -0.0232378 -0.0232015 -0.0231548 -0.0230978 -0.0230287 -0.022946 -0.0228495 -0.0227394 -0.022613 -0.0224677 -0.0223034 -0.0221203 -0.0219156 -0.0216867 -0.0214336 -0.0211563 -0.0208531 -0.0205223 -0.020164 -0.0197781 -0.0193647 -0.0189238 -0.0184555 -0.0179598 -0.0174387 -0.0168946 -0.0163273 -0.0157368 -0.0151273 -0.0145029 -0.0138635 -0.0132092 -0.0125454 -0.0118775 -0.0112055 -0.0105293 -0.00985498 -0.00918825 -0.00852915 -0.00787768 -0.00723927 -0.00661934 -0.00601791 -0.00543496 -0.00487486 -0.00434194 -0.00383621 -0.00335767 -0.0029092 -0.00249369 -0.00211114 -0.00176156 -0.00144584 -0.00116489 -0.000918704 -0.000707292 -0.000527542 -0.000376347 -0.000253705 -0.000159619 -8.97856e-05 -3.99047e-05 -9.97618e-06 0 0 -1.64659e-05 -6.58635e-05 -0.000148193 -0.000263454 -0.000414533 -0.000604314 -0.000832799 -0.00109999 -0.00140851 -0.001761 -0.00215746 -0.00259789 -0.0030796 -0.00359991 -0.00415882 -0.00475632 -0.00538752 -0.00604749 -0.00673623 -0.00745375 -0.00819364 -0.00894949 -0.00972132 -0.0105091 -0.0113056 -0.0121034 -0.0129027 -0.0137033 -0.014498 -0.0152795 -0.0160479 -0.0168031 -0.0175389 -0.0182492 -0.0189341 -0.0195935 -0.0202233 -0.0208196 -0.0213824 -0.0219116 -0.022406 -0.0228643 -0.0232864 -0.0236723 -0.0240235 -0.0243413 -0.0246256 -0.0248765 -0.0250973 -0.0252912 -0.0254584 -0.0255989 -0.0257166 -0.0258158 -0.0258964 -0.0259584 -0.0260055 -0.0260412 -0.0260656 -0.0260785 -0.0260821 -0.0260784 -0.0260672 -0.0260487 -0.0260226 -0.0259888 -0.0259472 -0.0258979 -0.0258386 -0.0257671 -0.0256833 -0.0255873 -0.0254755 -0.0253443 -0.0251937 -0.0250237 -0.0248306 -0.0246105 -0.0243636 -0.0240899 -0.0237866 -0.0234511 -0.0230834 -0.0226836 -0.022251 -0.0217852 -0.0212862 -0.0207539 -0.0201904 -0.0195977 -0.0189759 -0.018325 -0.0176495 -0.0169539 -0.0162381 -0.0155023 -0.0147526 -0.0139953 -0.0132304 -0.0124579 -0.0116847 -0.0109179 -0.0101573 -0.00940294 -0.00866147 -0.0079394 -0.00723674 -0.00655349 -0.00589501 -0.00526669 -0.00466852 -0.00410051 -0.00356635 -0.00306975 -0.00261071 -0.00218922 -0.00180674 -0.0014647 -0.00116311 -0.000901969 -0.000678037 -0.000488076 -0.000332086 -0.000210067 -0.000118163 -5.25167e-05 -1.31292e-05 0 0 -2.08656e-05 -8.34625e-05 -0.000187791 -0.00033385 -0.000523342 -0.000757967 -0.00103772 -0.00136262 -0.00173508 -0.00215756 -0.00263004 -0.00315254 -0.00372142 -0.00433303 -0.00498738 -0.00568446 -0.0064182 -0.00718251 -0.00797739 -0.00880283 -0.00965114 -0.0105146 -0.0113932 -0.012287 -0.0131873 -0.0140855 -0.0149817 -0.0158758 -0.0167595 -0.0176244 -0.0184704 -0.0192976 -0.020099 -0.0208679 -0.0216041 -0.0223078 -0.0229748 -0.0236008 -0.024186 -0.0247302 -0.0252327 -0.0256926 -0.02611 -0.0264848 -0.0268194 -0.0271163 -0.0273754 -0.0275968 -0.0277851 -0.0279449 -0.0280764 -0.0281796 -0.0282598 -0.0283227 -0.0283683 -0.0283965 -0.0284122 -0.0284199 -0.0284198 -0.0284118 -0.0283985 -0.0283825 -0.0283638 -0.0283423 -0.0283179 -0.0282903 -0.0282594 -0.0282253 -0.028185 -0.0281356 -0.0280769 -0.0280091 -0.0279273 -0.0278268 -0.0277075 -0.0275695 -0.0274077 -0.0272169 -0.0269972 -0.0267484 -0.0264668 -0.0261484 -0.0257932 -0.0254012 -0.0249711 -0.0245014 -0.023992 -0.0234432 -0.0228565 -0.0222337 -0.0215749 -0.0208801 -0.020154 -0.0194015 -0.0186227 -0.0178174 -0.0169927 -0.0161558 -0.0153066 -0.014445 -0.0135793 -0.0127173 -0.0118592 -0.011005 -0.0101623 -0.00933909 -0.00853526 -0.00775084 -0.00699236 -0.00626634 -0.00557278 -0.00491169 -0.00428772 -0.00370555 -0.00316517 -0.00266658 -0.00221194 -0.00180341 -0.00144098 -0.00112466 -0.000851233 -0.000617491 -0.000423434 -0.000269061 -0.000151347 -6.72652e-05 -1.68163e-05 0 0 -2.58692e-05 -0.000103477 -0.000232823 -0.000413907 -0.0006468 -0.000931573 -0.00126823 -0.00165676 -0.00209923 -0.00259771 -0.00315219 -0.00376268 -0.00442439 -0.00513252 -0.0058871 -0.0066881 -0.00752812 -0.00839975 -0.00930299 -0.0102378 -0.0111951 -0.0121657 -0.0131497 -0.0141469 -0.0151474 -0.0161413 -0.0171284 -0.0181089 -0.0190732 -0.0200116 -0.0209244 -0.0218114 -0.022665 -0.0234779 -0.02425 -0.0249812 -0.0256675 -0.0263046 -0.0268926 -0.0274314 -0.027921 -0.0283612 -0.028752 -0.0290935 -0.0293892 -0.0296431 -0.0298549 -0.0300248 -0.0301591 -0.0302642 -0.03034 -0.0303866 -0.0304112 -0.0304209 -0.0304159 -0.0303961 -0.0303675 -0.0303362 -0.0303022 -0.0302656 -0.0302296 -0.0301974 -0.0301691 -0.0301447 -0.0301238 -0.0301061 -0.0300915 -0.0300801 -0.030068 -0.0300514 -0.0300302 -0.0300046 -0.0299683 -0.029915 -0.0298449 -0.0297578 -0.0296471 -0.0295059 -0.0293342 -0.029132 -0.0288938 -0.0286143 -0.0282934 -0.0279311 -0.0275249 -0.0270722 -0.0265732 -0.0260277 -0.025437 -0.0248025 -0.0241242 -0.0234019 -0.0226408 -0.0218459 -0.0210171 -0.0201545 -0.0192658 -0.018359 -0.017434 -0.0164908 -0.0155386 -0.0145867 -0.0136351 -0.0126838 -0.0117419 -0.0108184 -0.00991347 -0.00902702 -0.00816689 -0.00734087 -0.00654898 -0.0057912 -0.00507331 -0.00440109 -0.00377453 -0.00319364 -0.00266145 -0.00218101 -0.00175231 -0.00137536 -0.00104713 -0.000764593 -0.00052775 -0.000336602 -0.000189338 -8.41504e-05 -2.10376e-05 0 0 -3.14453e-05 -0.000125781 -0.000283008 -0.000503124 -0.000784103 -0.00112392 -0.00152256 -0.00198004 -0.0024978 -0.00307729 -0.00371852 -0.00442148 -0.00518 -0.00598791 -0.00684521 -0.00775189 -0.00869904 -0.00967771 -0.0106879 -0.0117296 -0.0127921 -0.0138647 -0.0149474 -0.0160401 -0.0171313 -0.0182097 -0.0192752 -0.0203278 -0.0213569 -0.0223517 -0.0233122 -0.0242385 -0.0251225 -0.025956 -0.0267392 -0.0274719 -0.0281503 -0.0287703 -0.029332 -0.0298353 -0.0302812 -0.0306706 -0.0310034 -0.0312796 -0.0315047 -0.031684 -0.0318176 -0.0319053 -0.0319557 -0.0319772 -0.0319697 -0.0319334 -0.0318773 -0.0318108 -0.0317338 -0.0316464 -0.0315563 -0.031471 -0.0313905 -0.031315 -0.0312484 -0.0311949 -0.0311544 -0.0311271 -0.0311123 -0.0311096 -0.031119 -0.0311406 -0.0311693 -0.0312005 -0.031234 -0.0312699 -0.0313003 -0.0313173 -0.0313208 -0.0313109 -0.0312787 -0.0312155 -0.0311212 -0.0309959 -0.0308321 -0.0306224 -0.0303669 -0.0300656 -0.0297145 -0.0293096 -0.028851 -0.0283385 -0.0277728 -0.0271543 -0.0264831 -0.0257592 -0.0249875 -0.0241732 -0.0233162 -0.0224165 -0.0214827 -0.0205232 -0.0195382 -0.0185276 -0.0175018 -0.0164713 -0.015436 -0.0143959 -0.0133616 -0.0123436 -0.011342 -0.0103566 -0.00939677 -0.00847173 -0.00758147 -0.006726 -0.00591236 -0.00514762 -0.00443178 -0.00376484 -0.00315094 -0.00259421 -0.00209465 -0.00165227 -0.00126443 -0.000928493 -0.000644464 -0.00041234 -0.000231941 -0.000103085 -2.57713e-05 0 0 -3.75627e-05 -0.000150251 -0.000338065 -0.000601004 -0.000934447 -0.00133377 -0.00179899 -0.00233008 -0.00292761 -0.00359213 -0.00432363 -0.00512212 -0.00597975 -0.0068887 -0.00784895 -0.0088605 -0.0099127 -0.0109949 -0.012107 -0.0132491 -0.0144087 -0.0155733 -0.0167429 -0.0179176 -0.0190843 -0.0202299 -0.0213545 -0.022458 -0.0235287 -0.0245548 -0.0255362 -0.0264731 -0.0273568 -0.0281789 -0.0289393 -0.0296382 -0.030272 -0.0308371 -0.0313337 -0.0317618 -0.0321235 -0.0324211 -0.0326548 -0.0328244 -0.0329376 -0.0330017 -0.0330169 -0.0329831 -0.0329113 -0.0328123 -0.0326863 -0.0325332 -0.0323648 -0.0321926 -0.0320167 -0.0318372 -0.0316635 -0.0315052 -0.0313624 -0.031235 -0.031128 -0.0310467 -0.0309909 -0.0309607 -0.0309554 -0.0309744 -0.0310177 -0.0310853 -0.0311711 -0.031269 -0.031379 -0.0315011 -0.0316253 -0.0317417 -0.0318503 -0.0319511 -0.0320328 -0.0320841 -0.032105 -0.0320955 -0.0320459 -0.0319464 -0.0317969 -0.0315975 -0.0313423 -0.0310255 -0.030647 -0.0302068 -0.0297045 -0.0291393 -0.0285113 -0.0278205 -0.0270717 -0.0262698 -0.0254147 -0.0245064 -0.0235541 -0.022567 -0.021545 -0.0204881 -0.019408 -0.0183162 -0.0172128 -0.0160978 -0.0149832 -0.013881 -0.0127913 -0.0117141 -0.0106602 -0.00964034 -0.00865463 -0.00770303 -0.0067941 -0.00593639 -0.00512989 -0.00437461 -0.00367605 -0.00303968 -0.00246552 -0.00195357 -0.00150182 -0.0011083 -0.000773005 -0.000495929 -0.00027896 -0.000123982 -3.09956e-05 0 0 -4.42215e-05 -0.000176886 -0.000397994 -0.000707544 -0.00109783 -0.00156115 -0.0020975 -0.00270688 -0.00338866 -0.0041422 -0.00496752 -0.0058646 -0.00682365 -0.00783489 -0.00889832 -0.0100139 -0.0111691 -0.0123512 -0.0135602 -0.0147962 -0.0160448 -0.0172915 -0.0185364 -0.0197796 -0.0210062 -0.0222018 -0.0233661 -0.0244994 -0.0255887 -0.026621 -0.0275964 -0.028515 -0.0293679 -0.0301464 -0.0308504 -0.0314801 -0.0320326 -0.0325052 -0.0328979 -0.0332107 -0.0334477 -0.0336129 -0.0337063 -0.0337279 -0.0336879 -0.0335962 -0.033453 -0.0332582 -0.0330257 -0.0327696 -0.0324898 -0.0321862 -0.0318736 -0.0315664 -0.0312646 -0.0309682 -0.0306891 -0.0304389 -0.0302178 -0.0300256 -0.0298685 -0.0297528 -0.0296785 -0.0296455 -0.0296531 -0.0297004 -0.0297874 -0.0299142 -0.0300731 -0.0302567 -0.030465 -0.030698 -0.0309432 -0.0311883 -0.0314334 -0.0316784 -0.0319092 -0.0321116 -0.0322855 -0.0324309 -0.0325354 -0.0325861 -0.0325832 -0.0325266 -0.0324082 -0.0322197 -0.0319612 -0.0316327 -0.031232 -0.0307574 -0.0302086 -0.0295858 -0.0288933 -0.0281356 -0.0273125 -0.0264242 -0.0254802 -0.0244902 -0.0234542 -0.0223722 -0.0212571 -0.0201216 -0.0189657 -0.0177895 -0.0166065 -0.0154306 -0.0142616 -0.0130996 -0.0119571 -0.0108467 -0.00976845 -0.00872231 -0.00771854 -0.00676739 -0.00586886 -0.00502296 -0.00423678 -0.00351744 -0.00286493 -0.00227926 -0.00175932 -0.00130402 -0.000913373 -0.000587367 -0.000330394 -0.000146842 -3.67105e-05 0 0 -5.14216e-05 -0.000205687 -0.000462795 -0.000822746 -0.00127426 -0.00180604 -0.0024181 -0.00311044 -0.00388095 -0.00472753 -0.00565019 -0.00664892 -0.00771169 -0.00882649 -0.00999332 -0.0112122 -0.0124682 -0.0137467 -0.0150477 -0.016371 -0.0177004 -0.0190193 -0.0203278 -0.0216259 -0.0228972 -0.0241253 -0.0253103 -0.0264521 -0.0275367 -0.0285503 -0.0294929 -0.0303643 -0.0311559 -0.0318586 -0.0324725 -0.0329976 -0.0334321 -0.0337744 -0.0340245 -0.0341823 -0.034254 -0.0342459 -0.0341579 -0.0339901 -0.0337556 -0.0334675 -0.0331258 -0.0327306 -0.0322992 -0.031849 -0.0313801 -0.0308924 -0.0304038 -0.0299321 -0.0294774 -0.0290397 -0.0286331 -0.0282722 -0.0279567 -0.0276867 -0.0274698 -0.0273133 -0.0272172 -0.0271816 -0.0272054 -0.0272876 -0.0274283 -0.0276273 -0.0278755 -0.0281639 -0.0284922 -0.0288606 -0.029254 -0.0296571 -0.0300701 -0.0304929 -0.030908 -0.0312979 -0.0316626 -0.0320021 -0.0323005 -0.0325418 -0.032726 -0.0328531 -0.0329122 -0.0328924 -0.0327936 -0.0326159 -0.0323555 -0.0320086 -0.0315752 -0.0310552 -0.0304524 -0.0297706 -0.0290097 -0.0281698 -0.0272608 -0.0262929 -0.0252659 -0.02418 -0.0230491 -0.0218873 -0.0206946 -0.0194709 -0.0182317 -0.0169923 -0.0157527 -0.014513 -0.0132875 -0.0120908 -0.0109229 -0.00978382 -0.00868566 -0.00764062 -0.00664869 -0.00570988 -0.00483315 -0.00402749 -0.00329288 -0.00262934 -0.00203691 -0.00151565 -0.00106557 -0.000686656 -0.000386244 -0.000171664 -4.2916e-05 0 0 -5.90842e-05 -0.000236337 -0.000531758 -0.000945347 -0.00146177 -0.00206568 -0.00275708 -0.00353597 -0.00439847 -0.0053407 -0.00636266 -0.00746436 -0.00863122 -0.00984868 -0.0111167 -0.0124354 -0.0137874 -0.0151557 -0.01654 -0.0179406 -0.0193386 -0.0207156 -0.0220714 -0.0234061 -0.0247015 -0.0259395 -0.02712 -0.028243 -0.0292937 -0.0302569 -0.0311328 -0.0319213 -0.0326135 -0.0332008 -0.0336831 -0.0340603 -0.0343322 -0.0344983 -0.0345586 -0.0345132 -0.0343708 -0.0341403 -0.0338215 -0.0334147 -0.0329363 -0.0324032 -0.0318154 -0.0311728 -0.0304968 -0.0298089 -0.0291091 -0.0283973 -0.0276952 -0.0270244 -0.0263849 -0.0257767 -0.025217 -0.0247229 -0.0242944 -0.0239315 -0.0236432 -0.0234383 -0.0233168 -0.0232788 -0.0233229 -0.0234479 -0.0236538 -0.0239406 -0.0242973 -0.0247128 -0.025187 -0.0257201 -0.0262937 -0.0268896 -0.0275077 -0.0281481 -0.0287895 -0.0294104 -0.0300109 -0.030591 -0.0311309 -0.0316108 -0.0320307 -0.0323906 -0.0326763 -0.0328737 -0.0329828 -0.0330035 -0.03293 -0.0327561 -0.032482 -0.0321075 -0.0316356 -0.031069 -0.0304076 -0.0296516 -0.0288111 -0.0278966 -0.0269079 -0.0258452 -0.0247235 -0.0235583 -0.0223493 -0.0210968 -0.0198178 -0.0185295 -0.017232 -0.0159251 -0.0146256 -0.01335 -0.0120982 -0.0108702 -0.00968048 -0.00854321 -0.00745843 -0.00642613 -0.00545744 -0.00456348 -0.00374424 -0.00299974 -0.00233145 -0.00174085 -0.00122794 -0.000792731 -0.000445911 -0.000198183 -4.95457e-05 0 0 -6.71303e-05 -0.000268521 -0.000604172 -0.00107408 -0.0016584 -0.00233727 -0.00311069 -0.00397867 -0.0049352 -0.0059743 -0.00709597 -0.00830021 -0.00956957 -0.0108866 -0.0122514 -0.0136638 -0.015104 -0.0165521 -0.0180081 -0.019472 -0.0209227 -0.0223392 -0.0237216 -0.0250696 -0.0263635 -0.0275831 -0.0287284 -0.0297994 -0.0307802 -0.0316549 -0.0324235 -0.0330859 -0.0336337 -0.0340583 -0.0343597 -0.0345379 -0.0345943 -0.0345301 -0.0343455 -0.0340403 -0.0336266 -0.0331162 -0.0325091 -0.0318053 -0.0310257 -0.0301912 -0.0293018 -0.0283574 -0.0273841 -0.0264078 -0.0254287 -0.0244467 -0.0234877 -0.0225777 -0.0217167 -0.0209047 -0.020162 -0.0195092 -0.0189461 -0.0184729 -0.0181 -0.0178381 -0.017687 -0.0176468 -0.0177159 -0.0178929 -0.0181776 -0.0185702 -0.0190573 -0.0196259 -0.0202759 -0.0210074 -0.0217984 -0.0226271 -0.0234935 -0.0243977 -0.0253138 -0.0262162 -0.0271048 -0.0279796 -0.0288163 -0.0295908 -0.030303 -0.0309529 -0.0315226 -0.031994 -0.0323672 -0.0326422 -0.0328103 -0.0328629 -0.0328001 -0.0326217 -0.0323293 -0.0319245 -0.0314074 -0.0307777 -0.0300461 -0.0292228 -0.0283079 -0.0273014 -0.0262196 -0.0250791 -0.0238798 -0.0226217 -0.0213239 -0.0200055 -0.0186665 -0.0173069 -0.0159456 -0.0146013 -0.0132742 -0.0119642 -0.010688 -0.0094623 -0.00828713 -0.00716248 -0.00610194 -0.00511907 -0.00421389 -0.00338638 -0.00263977 -0.00197726 -0.00139885 -0.000904531 -0.000508799 -0.000226133 -5.65332e-05 0 0 -7.55598e-05 -0.000302239 -0.000680039 -0.00120896 -0.00186417 -0.00262083 -0.00347896 -0.00443854 -0.00549115 -0.00662834 -0.00785011 -0.00915646 -0.0105268 -0.0119403 -0.0133972 -0.0148974 -0.016418 -0.0179361 -0.0194519 -0.0209653 -0.0224526 -0.0238903 -0.0252783 -0.0266165 -0.0278831 -0.0290561 -0.0301355 -0.0311212 -0.0319964 -0.0327444 -0.033365 -0.0338584 -0.0342164 -0.0344311 -0.0345024 -0.0344304 -0.0342184 -0.03387 -0.0333851 -0.0327637 -0.0320214 -0.0311737 -0.0302206 -0.0291621 -0.0280238 -0.0268315 -0.025585 -0.0242844 -0.0229609 -0.0216458 -0.020339 -0.0190407 -0.0177814 -0.0165922 -0.0154729 -0.0144235 -0.0134682 -0.012631 -0.0119119 -0.0113109 -0.0108403 -0.0105126 -0.0103277 -0.0102857 -0.0103846 -0.0106226 -0.0109997 -0.0115159 -0.0121556 -0.0129033 -0.0137589 -0.0147224 -0.015768 -0.0168697 -0.0180276 -0.0192416 -0.0204811 -0.0217152 -0.0229441 -0.0241677 -0.0253567 -0.0264817 -0.0275429 -0.0285401 -0.029451 -0.0302533 -0.030947 -0.031532 -0.0319966 -0.0323291 -0.0325294 -0.0325976 -0.0325336 -0.0323374 -0.032009 -0.0315483 -0.0309657 -0.0302716 -0.0294659 -0.0285487 -0.0275375 -0.0264499 -0.0252859 -0.0240456 -0.02275 -0.0214202 -0.0200563 -0.0186583 -0.0172474 -0.015845 -0.0144511 -0.0130657 -0.0117082 -0.0103979 -0.0091348 -0.00791894 -0.00676664 -0.00569427 -0.00470181 -0.00378927 -0.00296189 -0.00222489 -0.00157828 -0.00102206 -0.000574906 -0.000255514 -6.38785e-05 0 0 -8.43729e-05 -0.000337492 -0.000759356 -0.00134997 -0.00207906 -0.00291636 -0.00386187 -0.0049156 -0.00606631 -0.00730281 -0.00862508 -0.0100331 -0.0115028 -0.0130098 -0.0145542 -0.0161361 -0.0177293 -0.0193077 -0.0208715 -0.0224205 -0.0239284 -0.0253687 -0.0267415 -0.0280467 -0.0292604 -0.0303586 -0.0313412 -0.0322083 -0.0329422 -0.0335252 -0.0339574 -0.0342386 -0.0343617 -0.0343192 -0.0341112 -0.0337377 -0.0332046 -0.0325178 -0.0316774 -0.0306833 -0.0295551 -0.0283127 -0.026956 -0.0254849 -0.0239306 -0.0223239 -0.020665 -0.0189538 -0.0172273 -0.0155227 -0.01384 -0.0121791 -0.0105763 -0.00906773 -0.00765341 -0.00633333 -0.00513562 -0.0040884 -0.00319166 -0.00244541 -0.00186403 -0.00146191 -0.00123903 -0.00119541 -0.00132882 -0.00163703 -0.00212004 -0.00277786 -0.00359224 -0.00454494 -0.00563596 -0.0068653 -0.00820259 -0.00961745 -0.0111099 -0.0126799 -0.0142912 -0.0159076 -0.017529 -0.0191555 -0.020752 -0.0222836 -0.0237503 -0.0251521 -0.0264616 -0.0276516 -0.028722 -0.0296729 -0.0304889 -0.0311546 -0.0316701 -0.0320354 -0.0322485 -0.0323075 -0.0322125 -0.0319633 -0.0315701 -0.031043 -0.030382 -0.0295871 -0.028677 -0.0276706 -0.0265677 -0.0253685 -0.024096 -0.0227737 -0.0214014 -0.0199792 -0.018531 -0.0170809 -0.0156288 -0.0141748 -0.0127411 -0.01135 -0.0100014 -0.00869549 -0.00745156 -0.00628907 -0.00520802 -0.0042084 -0.00329779 -0.00248373 -0.00176624 -0.00114531 -0.000644234 -0.00028632