<?xml version="1.0"?> 
<VTKFile type="StructuredGrid" version="0.1"> 
<StructuredGrid WholeExtent="0 128 0 128 0 0"> 
<Piece Extent="0 128 0 128 0 0"> 
<PointData>
<DataArray type="Float32" Name="u" format="ascii" NumberOfComponents="1"> 
0 0 0 0 0 0 0 0 0 0 0 0 0 0 0 0 0 0 0 0 0 0 0 0 0 0 0 0 0 0 0 0 0 0 0 0 0 0 0 0 0 0 0 0 0 0 0 0 0 0 0 0 0 0 0 0 0 0 0 0 0 0 0 0 0 0 0 0 0 0 0 0 0 0 0 0 0 0 0 0 0 0 0 0 0 0 0 0 0 0 0 0 0 0 0 0 0 0 0 0 0 0 0 0 0 0 0 0 0 0 0 0 0 0 0 0 0 0 0 0 0 0 0 0 0 0 0 0 0 0 -6.25989e-07 -2.50396e-06 -5.6339e-06 -1.00158e-05 -1.54813e-05 -2.1862e-05 -2.91578e-05 -3.73687e-05 -4.63711e-05 -5.60413e-05 -6.63792e-05 -7.7385e-05 -8.88436e-05 -0.00010054 -0.000112475 -0.000124648 -0.00013688 -0.000148991 -0.000160981 -0.00017285 -0.000184458 -0.000195663 -0.000206467 -0.000216868 -0.000226763 -0.000236048 -0.000244724 -0.00025279 -0.000260183 -0.000266838 -0.000272757 -0.000277938 -0.000282364 -0.000286018 -0.0002889 -0.000291008 -0.000292377 -0.000293039 -0.000292993 -0.000292239 -0.000290859 -0.000288932 -0.00028646 -0.000283441 -0.000279995 -0.000276238 -0.000272172 -0.000267797 -0.000263247 -0.000258661 -0.000254037 -0.000249377 -0.000244809 -0.000240463 -0.000236341 -0.00023244 -0.000228861 -0.000225702 -0.000222963 -0.000220643 -0.00021879 -0.000217453 -0.000216631 -0.000216325 -0.000216522 -0.00021721 -0.00021839 -0.000220061 -0.000222156 -0.000224604 -0.000227407 -0.000230564 -0.000233966 -0.000237501 -0.000241171 -0.000244976 -0.000248785 -0.000252471 -0.000256033 -0.000259472 -0.000262664 -0.000265488 -0.000267944 -0.00027003 -0.000271654 -0.000272722 -0.000273232 -0.000273185 -0.00027253 -0.000271215 -0.00026924 -0.000266605 -0.000263307 -0.00025934 -0.000254706 -0.000249404 -0.000243474 -0.000236956 -0.00022985 -0.000222156 -0.00021395 -0.000205305 -0.000196223 -0.000186703 -0.000176845 -0.000166752 -0.000156423 -0.000145858 -0.000135178 -0.000124505 -0.000113839 -0.000103179 -9.26693e-05 -8.24512e-05 -7.25251e-05 -6.28908e-05 -5.37091e-05 -4.51406e-05 -3.71855e-05 -2.98435e-05 -2.31947e-05 -1.73189e-05 -1.22162e-05 -7.88645e-06 -4.43613e-06 -1.97161e-06 -4.92903e-07 0 0 -2.50396e-06 -1.00158e-05 -2.25356e-05 -4.00633e-05 -6.19253e-05 -8.74478e-05 -0.000116631 -0.000149475 -0.000185484 -0.000224165 -0.000265517 -0.00030954 -0.000355375 -0.000402162 -0.000449902 -0.000498594 -0.000547521 -0.000595964 -0.000643924 -0.000691401 -0.000737832 -0.000782653 -0.000825866 -0.000867471 -0.000907051 -0.000944193 -0.000978896 -0.00101116 -0.00104073 -0.00106735 -0.00109103 -0.00111175 -0.00112946 -0.00114407 -0.0011556 -0.00116403 -0.00116951 -0.00117215 -0.00117197 -0.00116896 -0.00116343 -0.00115573 -0.00114584 -0.00113376 -0.00111998 -0.00110495 -0.00108869 -0.00107119 -0.00105299 -0.00103464 -0.00101615 -0.000997506 -0.000979234 -0.000961853 -0.000945362 -0.000929762 -0.000915446 -0.000902809 -0.00089185 -0.00088257 -0.000875161 -0.000869812 -0.000866525 -0.0008653 -0.000866088 -0.000868842 -0.000873561 -0.000880246 -0.000888622 -0.000898416 -0.000909628 -0.000922257 -0.000935863 -0.000950006 -0.000964686 -0.000979902 -0.00099514 -0.00100988 -0.00102413 -0.00103789 -0.00105066 -0.00106195 -0.00107177 -0.00108012 -0.00108662 -0.00109089 -0.00109293 -0.00109274 -0.00109012 -0.00108486 -0.00107696 -0.00106642 -0.00105323 -0.00103736 -0.00101882 -0.000997616 -0.000973896 -0.000947824 -0.000919401 -0.000888626 -0.000855799 -0.000821221 -0.000784891 -0.00074681 -0.000707382 -0.000667009 -0.000625692 -0.000583431 -0.000540711 -0.000498019 -0.000455354 -0.000412717 -0.000370677 -0.000329805 -0.0002901 -0.000251563 -0.000214836 -0.000180563 -0.000148742 -0.000119374 -9.27789e-05 -6.92758e-05 -4.88647e-05 -3.15458e-05 -1.77445e-05 -7.88645e-06 -1.97161e-06 0 0 -5.6339e-06 -2.25356e-05 -5.07051e-05 -9.01424e-05 -0.000139332 -0.000196758 -0.00026242 -0.000336318 -0.00041734 -0.000504372 -0.000597413 -0.000696465 -0.000799593 -0.000904864 -0.00101228 -0.00112184 -0.00123192 -0.00134092 -0.00144883 -0.00155565 -0.00166012 -0.00176097 -0.0018582 -0.00195181 -0.00204087 -0.00212443 -0.00220252 -0.00227511 -0.00234164 -0.00240154 -0.00245481 -0.00250144 -0.00254128 -0.00257416 -0.0026001 -0.00261908 -0.0026314 -0.00263735 -0.00263693 -0.00263015 -0.00261773 -0.00260039 -0.00257814 -0.00255097 -0.00251995 -0.00248615 -0.00244955 -0.00241017 -0.00236923 -0.00232795 -0.00228634 -0.00224439 -0.00220328 -0.00216417 -0.00212706 -0.00209196 -0.00205975 -0.00203132 -0.00200666 -0.00198578 -0.00196911 -0.00195708 -0.00194968 -0.00194693 -0.0019487 -0.00195489 -0.00196551 -0.00198055 -0.0019994 -0.00202144 -0.00204666 -0.00207508 -0.00210569 -0.00213751 -0.00217054 -0.00220478 -0.00223906 -0.00227224 -0.0023043 -0.00233525 -0.00236398 -0.00238939 -0.00241149 -0.00243027 -0.00244489 -0.00245449 -0.00245909 -0.00245867 -0.00245277 -0.00244094 -0.00242316 -0.00239945 -0.00236976 -0.00233406 -0.00229235 -0.00224464 -0.00219127 -0.0021326 -0.00206865 -0.00199941 -0.00192555 -0.00184775 -0.00176601 -0.00168032 -0.00159161 -0.00150077 -0.00140781 -0.00131272 -0.0012166 -0.00112054 -0.00102455 -0.000928613 -0.000834024 -0.000742061 -0.000652726 -0.000566017 -0.000483382 -0.000406266 -0.000334669 -0.000268592 -0.000208752 -0.00015587 -0.000109946 -7.09781e-05 -3.99252e-05 -1.77445e-05 -4.43613e-06 0 0 -1.00158e-05 -4.00633e-05 -9.01424e-05 -0.000160253 -0.000247701 -0.000349791 -0.000466524 -0.000597899 -0.000741938 -0.000896661 -0.00106207 -0.00123816 -0.0014215 -0.00160865 -0.00179961 -0.00199438 -0.00219008 -0.00238386 -0.0025757 -0.0027656 -0.00295133 -0.00313061 -0.00330347 -0.00346988 -0.0036282 -0.00377677 -0.00391558 -0.00404464 -0.00416292 -0.00426941 -0.00436411 -0.00444701 -0.00451783 -0.00457629 -0.00462239 -0.00465614 -0.00467804 -0.00468862 -0.00468788 -0.00467582 -0.00465374 -0.00462292 -0.00458336 -0.00453506 -0.00447992 -0.00441982 -0.00435476 -0.00428474 -0.00421196 -0.00413857 -0.0040646 -0.00399003 -0.00391694 -0.00384741 -0.00378145 -0.00371905 -0.00366178 -0.00361123 -0.0035674 -0.00353028 -0.00350064 -0.00347925 -0.0034661 -0.0034612 -0.00346435 -0.00347537 -0.00349424 -0.00352098 -0.00355449 -0.00359366 -0.00363851 -0.00368903 -0.00374345 -0.00380002 -0.00385874 -0.00391961 -0.00398056 -0.00403953 -0.00409653 -0.00415155 -0.00420263 -0.00424781 -0.0042871 -0.00432049 -0.00434647 -0.00436354 -0.00437171 -0.00437096 -0.00436048 -0.00433944 -0.00430784 -0.00426569 -0.00421291 -0.00414945 -0.0040753 -0.00399046 -0.00389558 -0.0037913 -0.0036776 -0.0035545 -0.0034232 -0.00328488 -0.00313957 -0.00298724 -0.00282953 -0.00266804 -0.00250277 -0.00233372 -0.00216285 -0.00199208 -0.00182142 -0.00165087 -0.00148271 -0.00131922 -0.0011604 -0.00100625 -0.000859345 -0.00072225 -0.000594967 -0.000477496 -0.000371116 -0.000277103 -0.000195459 -0.000126183 -7.09781e-05 -3.15458e-05 -7.88645e-06 0 0 -1.54715e-05 -6.1886e-05 -0.000139244 -0.000247544 -0.000382414 -0.000539479 -0.000718739 -0.000920194 -0.0011408 -0.00137749 -0.00163029 -0.00189918 -0.00217891 -0.00246423 -0.00275514 -0.00305165 -0.00334934 -0.00364383 -0.00393512 -0.00422319 -0.00450461 -0.00477592 -0.00503712 -0.00528821 -0.00552666 -0.00574991 -0.00595799 -0.00615087 -0.00632702 -0.0064849 -0.0066245 -0.00674582 -0.00684846 -0.00693203 -0.00699651 -0.00704191 -0.00706907 -0.00707883 -0.00707119 -0.00704615 -0.00700575 -0.00695202 -0.00688495 -0.00680454 -0.00671376 -0.00661555 -0.00650991 -0.00639684 -0.00627974 -0.00616201 -0.00604365 -0.00592465 -0.00580824 -0.00569766 -0.0055929 -0.00549397 -0.00540331 -0.00532337 -0.00525415 -0.00519565 -0.00514905 -0.00511555 -0.00509514 -0.00508782 -0.0050933 -0.00511127 -0.00514174 -0.0051847 -0.00523846 -0.00530131 -0.00537325 -0.00545428 -0.00554166 -0.00563266 -0.00572728 -0.00582551 -0.00592414 -0.00601997 -0.006113 -0.00620322 -0.00628757 -0.00636301 -0.00642952 -0.00648711 -0.00653341 -0.00656607 -0.00658507 -0.00659043 -0.00658082 -0.00655494 -0.00651279 -0.00645436 -0.00637953 -0.00628815 -0.00618022 -0.00605575 -0.00591569 -0.00576099 -0.00559165 -0.00540768 -0.0052109 -0.00500314 -0.00478439 -0.00455467 -0.00431644 -0.00407218 -0.00382189 -0.00356556 -0.00330619 -0.00304676 -0.00278726 -0.00252769 -0.00227157 -0.00202237 -0.00178011 -0.00154478 -0.00132032 -0.00111066 -0.000915798 -0.000735743 -0.00057247 -0.000427958 -0.000302207 -0.000195218 -0.00010981 -4.88044e-05 -1.22011e-05 0 0 -2.18227e-05 -8.72909e-05 -0.000196404 -0.000349164 -0.000538851 -0.000758749 -0.00100886 -0.00128918 -0.00159543 -0.00192333 -0.00227287 -0.00264407 -0.00302964 -0.00342234 -0.00382216 -0.00422909 -0.00463704 -0.0050399 -0.00543767 -0.00583035 -0.00621313 -0.00658122 -0.00693461 -0.00727331 -0.00759381 -0.00789257 -0.00816961 -0.00842492 -0.0086564 -0.00886195 -0.00904157 -0.00919526 -0.00932254 -0.00942294 -0.00949645 -0.00954308 -0.00956411 -0.00956083 -0.00953323 -0.00948132 -0.00940805 -0.0093164 -0.00920636 -0.00907794 -0.00893537 -0.00878293 -0.0086206 -0.00844839 -0.00827115 -0.00809376 -0.0079162 -0.00773849 -0.00756522 -0.00740099 -0.00724583 -0.00709971 -0.00696612 -0.00684856 -0.00674701 -0.00666147 -0.00659364 -0.0065452 -0.00651615 -0.00650648 -0.00651578 -0.00654361 -0.00658998 -0.00665488 -0.00673589 -0.00683058 -0.00693896 -0.00706101 -0.00719285 -0.00733056 -0.00747414 -0.00762359 -0.00777432 -0.00792175 -0.00806587 -0.00820667 -0.00833978 -0.00846078 -0.00856969 -0.00866649 -0.00874777 -0.00881009 -0.00885345 -0.00887786 -0.00888136 -0.008862 -0.00881978 -0.0087547 -0.00866647 -0.0085548 -0.00841969 -0.00826115 -0.00808042 -0.00787877 -0.0076562 -0.00741271 -0.00715081 -0.00687301 -0.00657931 -0.00626972 -0.00594766 -0.00561658 -0.00527648 -0.00492736 -0.00457339 -0.00421872 -0.00386336 -0.0035073 -0.00315543 -0.00281261 -0.00247883 -0.0021541 -0.00184388 -0.00155362 -0.00128332 -0.00103299 -0.000805417 -0.00060342 -0.000426993 -0.000276138 -0.000155328 -6.90346e-05 -1.72586e-05 0 0 -2.90695e-05 -0.000116278 -0.000261625 -0.000465111 -0.000717012 -0.0010076 -0.00133688 -0.00170486 -0.00210584 -0.00253417 -0.00298983 -0.00347283 -0.0039737 -0.00448297 -0.00500064 -0.00552671 -0.00605318 -0.00657207 -0.00708336 -0.00758707 -0.00807689 -0.00854651 -0.00899595 -0.00942519 -0.00982965 -0.0102047 -0.0105505 -0.0108668 -0.0111511 -0.0114006 -0.0116153 -0.0117953 -0.0119401 -0.012049 -0.0121222 -0.0121597 -0.0121632 -0.0121346 -0.012074 -0.0119813 -0.0118606 -0.0117161 -0.0115476 -0.0113552 -0.0111448 -0.010922 -0.0106868 -0.0104394 -0.0101862 -0.00993381 -0.00968226 -0.00943154 -0.00918786 -0.00895741 -0.00874021 -0.00853625 -0.00835021 -0.00818678 -0.00804596 -0.00792775 -0.00783441 -0.0077682 -0.00772912 -0.00771718 -0.0077318 -0.00777239 -0.00783896 -0.00793151 -0.00804677 -0.00818148 -0.00833563 -0.00850923 -0.00869701 -0.00889371 -0.00909933 -0.00931386 -0.00953111 -0.00974487 -0.00995514 -0.0101619 -0.0103592 -0.0105411 -0.0107076 -0.0108586 -0.0109895 -0.0110956 -0.0111769 -0.0112333 -0.0112621 -0.0112606 -0.0112288 -0.0111667 -0.0110737 -0.0109494 -0.0107937 -0.0106067 -0.0103898 -0.0101446 -0.00987125 -0.0095696 -0.00924294 -0.00889451 -0.00852433 -0.00813238 -0.00772318 -0.00730124 -0.00686655 -0.00641912 -0.00596443 -0.00550796 -0.00504972 -0.0045897 -0.0041343 -0.00368992 -0.00325657 -0.00283423 -0.00243004 -0.00205114 -0.00169754 -0.00136923 -0.00106996 -0.000803488 -0.000569817 -0.000368945 -0.000207532 -9.22362e-05 -2.30591e-05 0 0 -3.72117e-05 -0.000148847 -0.000334906 -0.000595388 -0.000916898 -0.00128604 -0.00170282 -0.00216722 -0.00267203 -0.00321001 -0.00378115 -0.00438546 -0.00501108 -0.00564612 -0.00629059 -0.00694449 -0.00759776 -0.00824032 -0.00887219 -0.00949336 -0.0100959 -0.0106718 -0.0112211 -0.0117438 -0.0122342 -0.0126864 -0.0131005 -0.0134765 -0.013811 -0.0141008 -0.0143458 -0.014546 -0.014701 -0.0148103 -0.0148739 -0.0148917 -0.0148663 -0.0148002 -0.0146935 -0.0145461 -0.0143635 -0.014151 -0.0139087 -0.0136365 -0.0133419 -0.0130326 -0.0127086 -0.0123698 -0.0120248 -0.0116822 -0.0113418 -0.0110038 -0.0106762 -0.0103669 -0.0100761 -0.0098036 -0.00955558 -0.00933805 -0.00915102 -0.00899448 -0.00887135 -0.00878455 -0.00873407 -0.00871993 -0.00874136 -0.00879761 -0.0088887 -0.0090146 -0.00917111 -0.009354 -0.00956327 -0.00979892 -0.0100541 -0.0103221 -0.0106028 -0.0108963 -0.0111945 -0.0114893 -0.0117808 -0.012069 -0.012346 -0.0126041 -0.0128433 -0.0130635 -0.0132587 -0.0134226 -0.0135553 -0.0136566 -0.013723 -0.0137508 -0.0137399 -0.0136904 -0.0136013 -0.013472 -0.0133023 -0.0130923 -0.0128438 -0.0125586 -0.0122368 -0.0118783 -0.0114873 -0.0110676 -0.0106194 -0.0101427 -0.00964301 -0.00912615 -0.00859209 -0.00804083 -0.00747932 -0.00691449 -0.00634634 -0.00577488 -0.00520818 -0.00465433 -0.00411331 -0.00358515 -0.00307879 -0.00260323 -0.00215845 -0.00174446 -0.00136609 -0.00102816 -0.000730678 -0.000473637 -0.000266421 -0.000118409 -2.96023e-05 0 0 -4.61045e-05 -0.000184418 -0.00041494 -0.000737671 -0.00113493 -0.00158905 -0.00210001 -0.00266783 -0.00328352 -0.00393808 -0.00463153 -0.00536386 -0.00612059 -0.00688726 -0.00766387 -0.00845041 -0.00923459 -0.0100041 -0.0107589 -0.0114991 -0.0122148 -0.0128964 -0.0135439 -0.0141572 -0.0147293 -0.0152533 -0.0157291 -0.0161567 -0.0165321 -0.0168516 -0.0171149 -0.0173222 -0.0174731 -0.0175671 -0.0176043 -0.0175846 -0.0175115 -0.0173883 -0.0172151 -0.0169918 -0.0167254 -0.0164228 -0.016084 -0.0157091 -0.0153077 -0.0148893 -0.0144539 -0.0140017 -0.0135433 -0.0130895 -0.0126405 -0.012196 -0.0117664 -0.0113617 -0.0109818 -0.0106269 -0.0103045 -0.0100222 -0.00978004 -0.00957797 -0.00941968 -0.00930883 -0.00924541 -0.00922942 -0.00925992 -0.00933596 -0.00945752 -0.00962463 -0.00983195 -0.0100742 -0.0103513 -0.0106633 -0.0110017 -0.0113577 -0.0117315 -0.0121231 -0.0125221 -0.0129186 -0.0133124 -0.0137037 -0.0140824 -0.0144388 -0.0147727 -0.0150843 -0.0153656 -0.0156087 -0.0158136 -0.0159802 -0.0161038 -0.0161795 -0.0162074 -0.0161873 -0.0161181 -0.0159985 -0.0158285 -0.015608 -0.0153391 -0.015024 -0.0146626 -0.014255 -0.013806 -0.0133204 -0.0127983 -0.0122397 -0.0116515 -0.0110407 -0.0104072 -0.00975114 -0.00908097 -0.00840523 -0.00772394 -0.00703709 -0.00635459 -0.00568636 -0.0050324 -0.0043927 -0.00377825 -0.00320003 -0.00265804 -0.00215227 -0.0016888 -0.00127367 -0.000906903 -0.000588485 -0.000331023 -0.000147121 -3.67803e-05 0 0 -5.56025e-05 -0.00022241 -0.000500422 -0.00088964 -0.00136754 -0.00191161 -0.00252184 -0.00319823 -0.00392982 -0.00470562 -0.00552564 -0.00638988 -0.00728106 -0.00818187 -0.00909233 -0.0100124 -0.0109275 -0.0118228 -0.0126983 -0.013554 -0.0143784 -0.0151596 -0.0158979 -0.0165931 -0.0172369 -0.017821 -0.0183453 -0.01881 -0.0192104 -0.019542 -0.0198048 -0.0199989 -0.0201239 -0.0201798 -0.0201666 -0.0200841 -0.019937 -0.0197296 -0.019462 -0.0191341 -0.0187548 -0.0183328 -0.0178682 -0.0173608 -0.0168228 -0.0162662 -0.0156909 -0.0150969 -0.0144977 -0.0139066 -0.0133237 -0.0127489 -0.0121948 -0.0116738 -0.011186 -0.0107314 -0.0103193 -0.00995912 -0.00965087 -0.00939453 -0.00919461 -0.00905561 -0.00897753 -0.00896038 -0.00900296 -0.0091041 -0.0092638 -0.00948206 -0.00975231 -0.010068 -0.0104291 -0.0108356 -0.011277 -0.0117425 -0.0122322 -0.0127462 -0.0132717 -0.0137961 -0.0143196 -0.014842 -0.015351 -0.0158344 -0.0162921 -0.0167241 -0.0171206 -0.0174714 -0.0177766 -0.0180362 -0.018244 -0.0183938 -0.0184855 -0.0185192 -0.018493 -0.018405 -0.0182553 -0.0180437 -0.0177726 -0.0174442 -0.0170585 -0.0166156 -0.0161212 -0.0155808 -0.0149946 -0.0143626 -0.013693 -0.0129941 -0.012266 -0.0115087 -0.0107323 -0.00994714 -0.00915324 -0.00835058 -0.00755106 -0.00676657 -0.00599713 -0.00524272 -0.00451652 -0.0038317 -0.00318827 -0.00258622 -0.00203305 -0.00153625 -0.00109582 -0.000711755 -0.000400362 -0.000177939 -4.44847e-05 0 0 -6.57058e-05 -0.000262823 -0.000591353 -0.00105129 -0.00161472 -0.00225372 -0.00296829 -0.00375843 -0.00461094 -0.00551263 -0.0064635 -0.00746355 -0.00849247 -0.00952995 -0.010576 -0.0116306 -0.0126765 -0.0136964 -0.0146903 -0.0156582 -0.0165865 -0.0174615 -0.0182832 -0.0190515 -0.0197569 -0.0203895 -0.0209493 -0.0214365 -0.0218458 -0.0221721 -0.0224155 -0.0225759 -0.0226535 -0.0226484 -0.0225606 -0.0223902 -0.0221428 -0.0218241 -0.0214343 -0.0209733 -0.0204519 -0.0198812 -0.0192611 -0.0185916 -0.0178874 -0.0171634 -0.0164194 -0.0156555 -0.0148881 -0.0141334 -0.0133916 -0.0126624 -0.0119613 -0.0113034 -0.0106886 -0.010117 -0.00959993 -0.00914877 -0.00876351 -0.00844415 -0.00819614 -0.0080249 -0.00793046 -0.0079128 -0.00797048 -0.00810206 -0.00830753 -0.00858691 -0.00893221 -0.00933547 -0.00979668 -0.0103158 -0.0108801 -0.0114764 -0.012105 -0.0127656 -0.0134431 -0.0141219 -0.0148021 -0.0154838 -0.0161517 -0.0167909 -0.0174013 -0.017983 -0.0185235 -0.0190107 -0.0194444 -0.0198247 -0.0201437 -0.0203936 -0.0205744 -0.0206861 -0.020726 -0.0206916 -0.0205827 -0.0203994 -0.0201441 -0.0198192 -0.0194245 -0.0189602 -0.0184328 -0.0178489 -0.0172084 -0.0165114 -0.0157675 -0.0149866 -0.0141685 -0.0133134 -0.0124333 -0.0115402 -0.0106342 -0.00971535 -0.00879758 -0.00789497 -0.00700751 -0.0061352 -0.00529359 -0.00449824 -0.00374915 -0.00304631 -0.00239885 -0.00181589 -0.00129742 -0.000843449 -0.00047444 -0.000210862 -5.27156e-05 0 0 -7.64145e-05 -0.000305658 -0.000687731 -0.00122263 -0.00187648 -0.00261539 -0.00343937 -0.00434841 -0.00532687 -0.0063591 -0.00744509 -0.00858485 -0.00975483 -0.0109315 -0.0121148 -0.0133048 -0.0144815 -0.0156249 -0.0167349 -0.0178117 -0.0188393 -0.019802 -0.0206998 -0.0215326 -0.0222893 -0.0229588 -0.0235411 -0.0240362 -0.0244383 -0.0247419 -0.0249469 -0.0250534 -0.0250618 -0.0249729 -0.0247865 -0.0245027 -0.0241288 -0.0236719 -0.023132 -0.0225091 -0.0218166 -0.0210679 -0.0202628 -0.0194013 -0.0185014 -0.0175808 -0.0166395 -0.0156775 -0.0147145 -0.01377 -0.012844 -0.0119366 -0.011066 -0.0102503 -0.00948954 -0.00878372 -0.00814641 -0.00759115 -0.00711796 -0.00672684 -0.00642426 -0.0062167 -0.00610418 -0.00608668 -0.00616247 -0.00632982 -0.00658871 -0.00693917 -0.00737164 -0.0078766 -0.00845404 -0.00910398 -0.00981095 -0.0105595 -0.0113497 -0.0121815 -0.0130364 -0.0138959 -0.0147602 -0.0156292 -0.0164846 -0.0173084 -0.0181005 -0.0188608 -0.0195745 -0.0202265 -0.0208169 -0.0213456 -0.0218028 -0.022179 -0.022474 -0.0226879 -0.0228171 -0.0228581 -0.0228107 -0.0226752 -0.0224538 -0.0221489 -0.0217606 -0.0212888 -0.020741 -0.0201246 -0.0194397 -0.018686 -0.0178751 -0.017018 -0.0161147 -0.0151654 -0.0141839 -0.0131844 -0.0121669 -0.0111314 -0.0100942 -0.00907154 -0.00806353 -0.00707014 -0.00610948 -0.00519966 -0.00434068 -0.00353255 -0.00278621 -0.0021126 -0.00151171 -0.000983566 -0.000553256 -0.000245891 -6.14729e-05 0 0 -8.74856e-05 -0.000349942 -0.00078737 -0.00139977 -0.00214687 -0.0029884 -0.00392437 -0.00495477 -0.00606125 -0.00722549 -0.00844746 -0.00972719 -0.0110377 -0.0123519 -0.0136699 -0.0149917 -0.0162944 -0.017555 -0.0187737 -0.0199505 -0.0210672 -0.0221057 -0.0230662 -0.0239485 -0.0247401 -0.0254283 -0.0260132 -0.0264948 -0.0268668 -0.0271231 -0.0272637 -0.0272886 -0.0271989 -0.0269958 -0.0266794 -0.0262496 -0.0257154 -0.0250858 -0.0243607 -0.0235401 -0.0226402 -0.021677 -0.0206505 -0.0195607 -0.0184289 -0.0172763 -0.016103 -0.0149088 -0.0137172 -0.0125514 -0.0114114 -0.0102972 -0.00923031 -0.00823227 -0.00730306 -0.00644268 -0.00566714 -0.00499243 -0.00441855 -0.00394549 -0.0035809 -0.00333239 -0.00319997 -0.00318363 -0.00328131 -0.00349095 -0.00381254 -0.00424608 -0.00478031 -0.00540396 -0.00611702 -0.00691951 -0.00779314 -0.00871964 -0.00969902 -0.0107313 -0.0117945 -0.0128668 -0.0139482 -0.0150388 -0.0161167 -0.0171603 -0.0181698 -0.0191449 -0.0200678 -0.0209204 -0.0217027 -0.0224147 -0.0230446 -0.0235804 -0.0240222 -0.0243698 -0.0246187 -0.0247642 -0.0248062 -0.0247448 -0.0245823 -0.024321 -0.023961 -0.0235022 -0.0229529 -0.0223213 -0.0216076 -0.0208117 -0.0199464 -0.0190245 -0.018046 -0.0170109 -0.0159353 -0.0148355 -0.0137113 -0.0125629 -0.0114088 -0.010268 -0.00914037 -0.00802594 -0.00694559 -0.00592017 -0.0049497 -0.00403416 -0.00318654 -0.00241981 -0.00173396 -0.00112901 -0.00063507 -0.000282253 -7.05633e-05 0 0 -9.86761e-05 -0.000394705 -0.000888085 -0.00157882 -0.00241995 -0.00336454 -0.00441257 -0.00556406 -0.00679771 -0.00809225 -0.00944767 -0.010864 -0.0123105 -0.0137567 -0.0152024 -0.0166477 -0.0180668 -0.0194336 -0.0207482 -0.0220107 -0.0232005 -0.0242973 -0.025301 -0.0262117 -0.0270152 -0.0276975 -0.0282585 -0.0286983 -0.0290101 -0.0291875 -0.0292304 -0.0291387 -0.0289146 -0.0285598 -0.0280744 -0.0274585 -0.0267229 -0.0258788 -0.024926 -0.0238646 -0.0227138 -0.0214928 -0.0202017 -0.0188404 -0.017434 -0.0160077 -0.0145615 -0.0130954 -0.0116367 -0.0102129 -0.0088239 -0.00746978 -0.0061757 -0.00496687 -0.00384329 -0.00280494 -0.00187053 -0.00105874 -0.000369573 0.000196976 0.000632015 0.000926656 0.0010809 0.00109474 0.000970622 0.000710977 0.000315806 -0.000214892 -0.000867926 -0.00163011 -0.00250143 -0.00348191 -0.00455012 -0.00568465 -0.0068855 -0.00815268 -0.00946046 -0.0107831 -0.0121207 -0.0134731 -0.0148149 -0.0161203 -0.0173895 -0.0186223 -0.0197975 -0.0208935 -0.0219103 -0.0228481 -0.0236922 -0.0244284 -0.0250567 -0.0255771 -0.0259834 -0.0262697 -0.026436 -0.0264822 -0.0264105 -0.0262231 -0.0259199 -0.025501 -0.0249754 -0.0243523 -0.0236316 -0.0228134 -0.0219121 -0.0209422 -0.0199036 -0.0187963 -0.0176387 -0.0164491 -0.0152274 -0.0139738 -0.0127096 -0.011456 -0.0102132 -0.00898099 -0.00778334 -0.00664402 -0.00556303 -0.00454037 -0.00359128 -0.00273096 -0.00195944 -0.00127669 -0.000718141 -0.000319174 -7.97934e-05 0 0 -0.000109986 -0.000439945 -0.000989875 -0.00175978 -0.00269573 -0.0037438 -0.00490399 -0.0061763 -0.00753626 -0.00895939 -0.0104457 -0.0119952 -0.0135734 -0.0151457 -0.0167122 -0.0182729 -0.0197987 -0.0212605 -0.0226584 -0.0239922 -0.0252393 -0.0263766 -0.0274042 -0.028322 -0.0291146 -0.0297662 -0.0302768 -0.0306465 -0.0308683 -0.0309351 -0.030847 -0.0306039 -0.0302089 -0.0296648 -0.0289716 -0.0281293 -0.0271513 -0.0260508 -0.0248279 -0.0234825 -0.0220374 -0.0205154 -0.0189163 -0.0172402 -0.0155166 -0.0137749 -0.012015 -0.0102371 -0.00847289 -0.00675439 -0.00508156 -0.00345441 -0.00190218 -0.000454119 0.000889775 0.0021295 0.00324342 0.00420991 0.00502896 0.00570057 0.00621448 0.00656043 0.00673841 0.00674843 0.00659333 0.00627596 0.00579631 0.0051544 0.00436551 0.00344495 0.00239272 0.00120882 -8.18913e-05 -0.00145455 -0.00290914 -0.00444569 -0.00603424 -0.00764485 -0.00927753 -0.0109323 -0.0125792 -0.0141883 -0.0157596 -0.0172931 -0.0187636 -0.0201459 -0.0214398 -0.0226455 -0.0237457 -0.0247231 -0.0255777 -0.0263096 -0.0269111 -0.0273745 -0.0276999 -0.0278873 -0.0279384 -0.0278551 -0.0276374 -0.0272853 -0.0268087 -0.0262175 -0.0255117 -0.0246913 -0.0237724 -0.0227712 -0.0216875 -0.0205216 -0.0192939 -0.0180251 -0.0167153 -0.0153643 -0.0139964 -0.0126356 -0.0112819 -0.00993528 -0.00862273 -0.0073712 -0.00618069 -0.00505119 -0.00400042 -0.00304606 -0.00218813 -0.00142661 -0.00080247 -0.000356653 -8.91633e-05 0 0 -0.000121416 -0.000485663 -0.00109274 -0.00194265 -0.0029742 -0.00412618 -0.00539861 -0.00679147 -0.00827688 -0.00982691 -0.0114416 -0.0131209 -0.0148262 -0.0165191 -0.0181994 -0.0198673 -0.0214902 -0.0230359 -0.0245042 -0.0258952 -0.0271835 -0.0283437 -0.0293757 -0.0302797 -0.0310383 -0.0316345 -0.0320683 -0.0323396 -0.0324412 -0.0323658 -0.0321135 -0.0316841 -0.0310819 -0.0303108 -0.0293709 -0.0282622 -0.0270006 -0.025602 -0.0240665 -0.022394 -0.0206111 -0.0187446 -0.0167943 -0.0147603 -0.0126768 -0.0105779 -0.00846364 -0.006334 -0.00422583 -0.00217595 -0.000184368 0.00174892 0.00359026 0.00530599 0.00689612 0.00836064 0.00967472 0.0108135 0.011777 0.0125653 0.0131665 0.0135689 0.0137726 0.0137774 0.0135868 0.013204 0.012629 0.0118618 0.01092 0.00982121 0.00856543 0.00715267 0.00561154 0.00397067 0.00223006 0.000389703 -0.00151583 -0.003452 -0.00541879 -0.00741621 -0.00940958 -0.0113642 -0.0132801 -0.0151573 -0.0169663 -0.0186776 -0.0202912 -0.0218071 -0.0232049 -0.0244643 -0.0255851 -0.0265674 -0.0274018 -0.0280787 -0.0285981 -0.0289601 -0.0291659 -0.0292171 -0.0291135 -0.0288551 -0.0284527 -0.0279169 -0.0272478 -0.0264452 -0.0255271 -0.0245113 -0.0233979 -0.0221868 -0.020901 -0.0195637 -0.0181748 -0.0167344 -0.0152694 -0.0138068 -0.0123466 -0.0108888 -0.00946376 -0.00810171 -0.00680266 -0.00556661 -0.00441397 -0.00336511 -0.00242004 -0.00157877 -0.000888056 -0.000394692 -9.86729e-05 0 0 -0.00013276 -0.000531041 -0.00119484 -0.00212416 -0.00325035 -0.00450476 -0.00588738 -0.00739821 -0.0090057 -0.0106783 -0.0124159 -0.0142186 -0.0160435 -0.0178479 -0.0196317 -0.0213949 -0.0231016 -0.024716 -0.0262381 -0.0276677 -0.028977 -0.0301379 -0.0311503 -0.0320143 -0.0327112 -0.0332222 -0.0335474 -0.0336868 -0.0336328 -0.0333781 -0.0329226 -0.0322664 -0.0314148 -0.0303734 -0.0291421 -0.0277209 -0.0261287 -0.0243844 -0.022488 -0.0204394 -0.0182698 -0.0160098 -0.0136597 -0.0112193 -0.00872802 -0.00622528 -0.00371106 -0.00118535 0.00130963 0.00373164 0.00608069 0.00835678 0.0105215 0.0125363 0.0144012 0.0161163 0.0176532 0.0189837 0.0201077 0.0210252 0.0217229 0.0221873 0.0224186 0.0224167 0.0221854 0.0217285 0.021046 0.0201379 0.0190242 0.0177252 0.0162407 0.0145708 0.0127482 0.0108056 0.00874308 0.00656055 0.00429763 0.00199392 -0.000350594 -0.0027359 -0.0051221 -0.00746931 -0.00977751 -0.0120467 -0.0142428 -0.0163316 -0.0183131 -0.0201873 -0.0219303 -0.0235181 -0.0249507 -0.0262281 -0.0273388 -0.0282711 -0.029025 -0.0296006 -0.0299986 -0.0302197 -0.030264 -0.0301314 -0.0298333 -0.0293813 -0.0287751 -0.028015 -0.0271204 -0.026111 -0.0249869 -0.0237479 -0.0224198 -0.0210281 -0.0195728 -0.018054 -0.0165015 -0.0149456 -0.0133861 -0.0118231 -0.0102905 -0.00882195 -0.00741757 -0.00607733 -0.00482453 -0.00368245 -0.00265111 -0.00173049 -0.000973403 -0.000432624 -0.000108156 0 0 -0.000143816 -0.000575263 -0.00129434 -0.00230105 -0.0035192 -0.0048726 -0.00636125 -0.00798514 -0.00970883 -0.0114969 -0.0133493 -0.015266 -0.0171998 -0.0191033 -0.0209767 -0.0228198 -0.0245932 -0.0262574 -0.0278123 -0.0292579 -0.0305636 -0.0316984 -0.0326625 -0.0334559 -0.0340582 -0.0344492 -0.0346289 -0.0345974 -0.034347 -0.0338703 -0.0331672 -0.0322377 -0.031089 -0.029728 -0.0281547 -0.0263691 -0.0243935 -0.0222501 -0.0199388 -0.0174596 -0.0148482 -0.0121405 -0.00933631 -0.0064357 -0.00348375 -0.000525535 0.00243895 0.0054097 0.00833861 0.0111776 0.0139266 0.0165857 0.0191112 0.0214595 0.0236306 0.0256243 0.0274088 0.028952 0.0302538 0.0313143 0.0321183 0.0326508 0.0329118 0.0329013 0.0326236 0.032083 0.0312795 0.0302132 0.0289069 0.0273833 0.0256424 0.0236843 0.0215461 0.019265 0.0168409 0.0142739 0.011609 0.00889139 0.00612095 0.00329773 0.000467335 -0.00232462 -0.00507815 -0.00779324 -0.0104306 -0.012951 -0.0153543 -0.0176407 -0.0197821 -0.0217507 -0.0235464 -0.0251694 -0.0266055 -0.0278408 -0.0288753 -0.029709 -0.0303418 -0.0307738 -0.0310048 -0.0310351 -0.0308764 -0.0305411 -0.0300291 -0.0293403 -0.0284962 -0.0275184 -0.0264067 -0.0251612 -0.0238102 -0.0223818 -0.0208761 -0.0192931 -0.017666 -0.016028 -0.0143793 -0.0127197 -0.0110869 -0.00951833 -0.00801405 -0.00657403 -0.00522469 -0.00399243 -0.00287724 -0.00187914 -0.00105701 -0.000469784 -0.000117446 0 0 -0.000154582 -0.000618328 -0.00139124 -0.00247331 -0.00378074 -0.0052297 -0.00682021 -0.00855225 -0.0103863 -0.0122828 -0.0142417 -0.016263 -0.0182949 -0.0202854 -0.0222344 -0.0241421 -0.025965 -0.02766 -0.0292269 -0.0306658 -0.0319431 -0.0330253 -0.0339124 -0.0346043 -0.0350792 -0.0353153 -0.0353127 -0.0350714 -0.0345837 -0.0338423 -0.0328472 -0.0315982 -0.0301044 -0.0283746 -0.0264088 -0.024207 -0.0217952 -0.0191991 -0.0164188 -0.0134543 -0.0103466 -0.00713657 -0.00382424 -0.00040962 0.003056 0.00652134 0.00998638 0.0134511 0.0168611 0.0201619 0.0233535 0.0264358 0.0293596 0.0320757 0.0345841 0.0368847 0.0389415 0.0407184 0.0422154 0.0434325 0.0443528 0.0449593 0.0452521 0.0452311 0.0449012 0.0442674 0.0433296 0.0420879 0.040568 0.0387956 0.0367707 0.0344933 0.0320053 0.0293488 0.0265236 0.0235298 0.0204184 0.0172404 0.0139958 0.0106847 0.00735873 0.00406983 0.000817966 -0.00239686 -0.00552972 -0.00853572 -0.0114149 -0.0141671 -0.0167602 -0.0191619 -0.0213722 -0.0233911 -0.0252018 -0.0267877 -0.0281488 -0.0292851 -0.0301956 -0.0308792 -0.0313361 -0.0315661 -0.031582 -0.0313965 -0.0310096 -0.0304212 -0.0296547 -0.0287335 -0.0276574 -0.0264266 -0.0250721 -0.0236247 -0.0220846 -0.0204517 -0.0187627 -0.0170542 -0.0153261 -0.0135786 -0.011853 -0.0101909 -0.00859208 -0.00705672 -0.00561446 -0.00429504 -0.00309845 -0.00202469 -0.00113889 -0.000506173 -0.000126543 0 0 -0.000165059 -0.000660236 -0.00148553 -0.00264094 -0.00403496 -0.00557607 -0.00726426 -0.00909955 -0.0110381 -0.0130359 -0.0150932 -0.0172098 -0.019329 -0.021394 -0.0234049 -0.0253616 -0.027217 -0.0289237 -0.0304819 -0.0318914 -0.0331158 -0.0341186 -0.0348998 -0.0354595 -0.0357743 -0.0358207 -0.0355989 -0.0351088 -0.0343431 -0.0332943 -0.0319625 -0.0303478 -0.028461 -0.0263132 -0.0239044 -0.0212345 -0.0183336 -0.0152315 -0.0119282 -0.00842376 -0.00476483 -0.000998065 0.00287654 0.00685898 0.0108912 0.0149153 0.0189312 0.022939 0.0268772 0.0306846 0.0343612 0.0379069 0.0412666 0.0443849 0.0472619 0.0498974 0.0522513 0.054283 0.0559926 0.05738 0.0584265 0.0591129 0.0594395 0.0594061 0.0590183 0.0582817 0.0571962 0.0557619 0.0540075 0.0519621 0.0496254 0.0469976 0.0441258 0.0410569 0.037791 0.0343282 0.0307257 0.027041 0.0232741 0.0194249 0.0155521 0.011714 0.00791083 0.00414242 0.000459855 -0.00308586 -0.00649472 -0.00976672 -0.0128648 -0.0157519 -0.0184281 -0.0208933 -0.0231278 -0.025112 -0.0268457 -0.0283291 -0.0295599 -0.0305361 -0.0312577 -0.0317246 -0.0319501 -0.0319474 -0.0317166 -0.0312577 -0.0305958 -0.0297563 -0.028739 -0.0275441 -0.0262055 -0.0247569 -0.0231983 -0.0215299 -0.0197917 -0.018024 -0.0162267 -0.0143998 -0.0125889 -0.0108395 -0.00915168 -0.00752538 -0.00599385 -0.0045903 -0.00331473 -0.00216716 -0.00121903 -0.00054179 -0.000135448 0 0 -0.000175094 -0.000700377 -0.00157585 -0.00280151 -0.00427814 -0.00590652 -0.00768665 -0.00961853 -0.0116538 -0.013744 -0.015889