<?xml version="1.0"?> 
<VTKFile type="StructuredGrid" version="0.1"> 
<StructuredGrid WholeExtent="0 128 0 128 0 0"> 
<Piece Extent="0 128 0 128 0 0"> 
<PointData>
<DataArray type="Float32" Name="u" format="ascii" NumberOfComponents="1"> 
0 0 0 0 0 0 0 0 0 0 0 0 0 0 0 0 0 0 0 0 0 0 0 0 0 0 0 0 0 0 0 0 0 0 0 0 0 0 0 0 0 0 0 0 0 0 0 0 0 0 0 0 0 0 0 0 0 0 0 0 0 0 0 0 0 0 0 0 0 0 0 0 0 0 0 0 0 0 0 0 0 0 0 0 0 0 0 0 0 0 0 0 0 0 0 0 0 0 0 0 0 0 0 0 0 0 0 0 0 0 0 0 0 0 0 0 0 0 0 0 0 0 0 0 0 0 0 0 0 0 -1.80781e-07 -7.23125e-07 -1.62703e-06 -2.8925e-06 -4.61238e-06 -6.87954e-06 -9.69396e-06 -1.30557e-05 -1.70036e-05 -2.15769e-05 -2.67755e-05 -3.25993e-05 -3.90105e-05 -4.5971e-05 -5.34809e-05 -6.15401e-05 -7.00848e-05 -7.90512e-05 -8.84393e-05 -9.8249e-05 -0.000108401 -0.000118816 -0.000129493 -0.000140433 -0.000151545 -0.000162738 -0.000174013 -0.000185369 -0.000196713 -0.000207953 -0.000219087 -0.000230116 -0.000240957 -0.000251526 -0.000261822 -0.000271848 -0.000281539 -0.000290836 -0.000299739 -0.000308246 -0.000316328 -0.000323952 -0.000331118 -0.000337826 -0.000344076 -0.000349868 -0.0003552 -0.000360074 -0.000364512 -0.000368539 -0.000372155 -0.000375359 -0.000378188 -0.000380676 -0.000382825 -0.000384634 -0.000386137 -0.000387367 -0.000388324 -0.000389009 -0.000389441 -0.000389638 -0.000389602 -0.000389332 -0.000388827 -0.000388086 -0.000387109 -0.000385895 -0.000384424 -0.000382676 -0.000380651 -0.000378348 -0.000375736 -0.000372783 -0.000369489 -0.000365854 -0.000361848 -0.000357441 -0.000352633 -0.000347424 -0.000341798 -0.000335742 -0.000329256 -0.000322338 -0.000315 -0.000307253 -0.000299097 -0.000290531 -0.000281597 -0.000272333 -0.000262741 -0.000252821 -0.000242638 -0.00023226 -0.000221687 -0.000210919 -0.000200039 -0.000189131 -0.000178195 -0.00016723 -0.000156326 -0.000145569 -0.000134959 -0.000124498 -0.000114264 -0.000104338 -9.47204e-05 -8.5411e-05 -7.64749e-05 -6.79771e-05 -5.99177e-05 -5.22966e-05 -4.51602e-05 -3.85551e-05 -3.24811e-05 -2.69382e-05 -2.1946e-05 -1.75239e-05 -1.36719e-05 -1.039e-05 -7.6304e-06 -5.34521e-06 -3.53446e-06 -2.19816e-06 -1.23646e-06 -5.49539e-07 -1.37385e-07 0 0 -7.23125e-07 -2.8925e-06 -6.50813e-06 -1.157e-05 -1.84495e-05 -2.75182e-05 -3.87758e-05 -5.22226e-05 -6.80145e-05 -8.63076e-05 -0.000107102 -0.000130397 -0.000156042 -0.000183884 -0.000213924 -0.00024616 -0.000280339 -0.000316205 -0.000353757 -0.000392996 -0.000433604 -0.000475262 -0.000517972 -0.000561732 -0.00060618 -0.000650953 -0.000696052 -0.000741476 -0.000786854 -0.00083181 -0.000876347 -0.000920464 -0.000963827 -0.0010061 -0.00104729 -0.00108739 -0.00112616 -0.00116335 -0.00119896 -0.00123299 -0.00126531 -0.00129581 -0.00132447 -0.0013513 -0.00137631 -0.00139947 -0.0014208 -0.0014403 -0.00145805 -0.00147416 -0.00148862 -0.00150144 -0.00151275 -0.00152271 -0.0015313 -0.00153854 -0.00154455 -0.00154947 -0.0015533 -0.00155604 -0.00155776 -0.00155855 -0.00155841 -0.00155733 -0.00155531 -0.00155234 -0.00154843 -0.00154358 -0.0015377 -0.00153071 -0.0015226 -0.00151339 -0.00150294 -0.00149113 -0.00147796 -0.00146342 -0.00144739 -0.00142976 -0.00141053 -0.00138969 -0.00136719 -0.00134297 -0.00131702 -0.00128935 -0.00126 -0.00122901 -0.00119639 -0.00116213 -0.00112639 -0.00108933 -0.00105097 -0.00101128 -0.000970553 -0.000929042 -0.000886749 -0.000843676 -0.000800156 -0.000756523 -0.000712778 -0.000668921 -0.000625303 -0.000582275 -0.000539837 -0.00049799 -0.000457055 -0.000417352 -0.000378882 -0.000341644 -0.0003059 -0.000271908 -0.000239671 -0.000209186 -0.000180641 -0.00015422 -0.000129924 -0.000107753 -8.77842e-05 -7.00958e-05 -5.46878e-05 -4.15601e-05 -3.05216e-05 -2.13808e-05 -1.41378e-05 -8.79263e-06 -4.94585e-06 -2.19816e-06 -5.49539e-07 0 0 -1.62703e-06 -6.50813e-06 -1.46433e-05 -2.60325e-05 -4.15115e-05 -6.19158e-05 -8.72456e-05 -0.000117501 -0.000153033 -0.000194192 -0.000240979 -0.000293394 -0.000351095 -0.000413739 -0.000481328 -0.000553861 -0.000630763 -0.000711461 -0.000795954 -0.000884241 -0.000975609 -0.00106934 -0.00116544 -0.0012639 -0.0013639 -0.00146464 -0.00156612 -0.00166832 -0.00177042 -0.00187157 -0.00197178 -0.00207104 -0.00216861 -0.00226373 -0.0023564 -0.00244663 -0.00253385 -0.00261753 -0.00269765 -0.00277422 -0.00284695 -0.00291556 -0.00298006 -0.00304044 -0.00309669 -0.00314881 -0.0031968 -0.00324067 -0.00328061 -0.00331686 -0.0033494 -0.00337823 -0.00340369 -0.00342609 -0.00344543 -0.00346171 -0.00347523 -0.0034863 -0.00349492 -0.00350108 -0.00350497 -0.00350675 -0.00350642 -0.00350399 -0.00349945 -0.00349277 -0.00348398 -0.00347305 -0.00345982 -0.00344409 -0.00342586 -0.00340513 -0.00338162 -0.00335505 -0.0033254 -0.00329269 -0.00325663 -0.00321697 -0.0031737 -0.00312681 -0.00307618 -0.00302168 -0.0029633 -0.00290104 -0.002835 -0.00276528 -0.00269187 -0.00261478 -0.00253437 -0.002451 -0.00236467 -0.00227539 -0.00218374 -0.00209034 -0.00199519 -0.00189827 -0.00180035 -0.00170218 -0.00160375 -0.00150507 -0.00140693 -0.00131012 -0.00121463 -0.00112048 -0.00102837 -0.000939042 -0.000852484 -0.000768699 -0.000688274 -0.000611794 -0.000539259 -0.000470669 -0.000406442 -0.000346996 -0.00029233 -0.000242444 -0.000197514 -0.000157716 -0.000123047 -9.35103e-05 -6.86736e-05 -4.81069e-05 -3.18101e-05 -1.97834e-05 -1.11282e-05 -4.94585e-06 -1.23646e-06 0 0 -2.8925e-06 -1.157e-05 -2.60325e-05 -4.628e-05 -7.37982e-05 -0.000110073 -0.000155103 -0.00020889 -0.000272058 -0.00034523 -0.000428407 -0.000521589 -0.000624168 -0.000735537 -0.000855694 -0.000984642 -0.00112136 -0.00126482 -0.00141503 -0.00157198 -0.00173442 -0.00190105 -0.00207189 -0.00224693 -0.00242472 -0.00260381 -0.00278421 -0.00296591 -0.00314741 -0.00332724 -0.00350539 -0.00368186 -0.00385531 -0.00402441 -0.00418916 -0.00434956 -0.00450463 -0.00465338 -0.00479582 -0.00493194 -0.00506125 -0.00518323 -0.00529788 -0.00540522 -0.00550522 -0.00559788 -0.0056832 -0.00576118 -0.0058322 -0.00589663 -0.00595448 -0.00600575 -0.00605101 -0.00609082 -0.0061252 -0.00615415 -0.00617819 -0.00619787 -0.00621319 -0.00622415 -0.00623105 -0.00623422 -0.00623364 -0.00622932 -0.00622124 -0.00620938 -0.00619374 -0.00617432 -0.00615079 -0.00612282 -0.00609041 -0.00605357 -0.00601178 -0.00596453 -0.00591182 -0.00585366 -0.00578957 -0.00571906 -0.00564213 -0.00555878 -0.00546877 -0.00537188 -0.00526809 -0.00515741 -0.00504001 -0.00491605 -0.00478555 -0.0046485 -0.00450555 -0.00435734 -0.00420386 -0.00404513 -0.00388221 -0.00371617 -0.003547 -0.0033747 -0.00320062 -0.00302609 -0.00285111 -0.00267568 -0.00250121 -0.0023291 -0.00215935 -0.00199196 -0.00182822 -0.00166941 -0.00151553 -0.00136658 -0.0012236 -0.00108763 -0.000958683 -0.000836745 -0.000722564 -0.000616881 -0.000519697 -0.000431012 -0.000351137 -0.000280383 -0.000218751 -0.000166241 -0.000122086 -8.55233e-05 -5.65513e-05 -3.51705e-05 -1.97834e-05 -8.79263e-06 -2.19816e-06 0 0 -4.61356e-06 -1.84543e-05 -4.15221e-05 -7.3817e-05 -0.000117405 -0.000174353 -0.00024466 -0.000328326 -0.000426255 -0.000539348 -0.000667606 -0.000811028 -0.000968652 -0.00113951 -0.00132361 -0.00152095 -0.00172993 -0.00194898 -0.0021781 -0.00241727 -0.00266455 -0.00291796 -0.0031775 -0.00344318 -0.00371277 -0.00398405 -0.00425701 -0.00453165 -0.0048057 -0.0050769 -0.00534524 -0.00561072 -0.00587132 -0.00612504 -0.00637187 -0.00661182 -0.00684342 -0.00706522 -0.00727721 -0.0074794 -0.00767107 -0.00785151 -0.00802073 -0.00817872 -0.00832554 -0.00846123 -0.00858579 -0.00869923 -0.0088022 -0.00889533 -0.00897863 -0.0090521 -0.00911668 -0.00917329 -0.00922193 -0.00926262 -0.0092962 -0.00932356 -0.00934468 -0.00935956 -0.00936871 -0.00937262 -0.00937128 -0.0093647 -0.00935284 -0.00933567 -0.0093132 -0.00928541 -0.00925178 -0.00921177 -0.00916539 -0.00911264 -0.00905269 -0.00898471 -0.0089087 -0.00882467 -0.00873182 -0.00862935 -0.00851726 -0.00839555 -0.00826379 -0.00812156 -0.00796884 -0.00780565 -0.00763218 -0.00744863 -0.007255 -0.00705129 -0.00683844 -0.00661738 -0.0063881 -0.00615061 -0.00590651 -0.00565738 -0.00540324 -0.00514407 -0.0048819 -0.00461876 -0.00435464 -0.00408956 -0.00382564 -0.00356505 -0.00330777 -0.00305381 -0.00280515 -0.00256375 -0.00232963 -0.00210277 -0.0018848 -0.00167732 -0.00148034 -0.00129386 -0.00111903 -0.000957015 -0.000807822 -0.000671446 -0.000548399 -0.000439187 -0.000343812 -0.000262273 -0.000193448 -0.000136213 -9.05695e-05 -5.65161e-05 -3.17903e-05 -1.4129e-05 -3.53226e-06 0 0 -6.88426e-06 -2.7537e-05 -6.19583e-05 -0.000110148 -0.000174428 -0.000257121 -0.000358226 -0.000477744 -0.000616788 -0.000776471 -0.000956794 -0.00115776 -0.00137794 -0.00161591 -0.00187167 -0.00214523 -0.00243431 -0.00273666 -0.00305228 -0.00338116 -0.00372053 -0.00406764 -0.00442247 -0.00478503 -0.00515222 -0.00552094 -0.00589119 -0.00626297 -0.00663316 -0.00699863 -0.00735939 -0.00771544 -0.00806406 -0.00840253 -0.00873086 -0.00904903 -0.00935516 -0.00964733 -0.00992555 -0.0101898 -0.0104393 -0.0106732 -0.0108914 -0.011094 -0.0112813 -0.0114534 -0.0116103 -0.0117522 -0.01188 -0.0119948 -0.0120966 -0.0121854 -0.0122627 -0.0123298 -0.0123869 -0.0124339 -0.0124721 -0.0125027 -0.0125259 -0.0125417 -0.0125506 -0.0125536 -0.0125506 -0.0125415 -0.0125264 -0.0125052 -0.0124778 -0.0124444 -0.012404 -0.0123558 -0.0122999 -0.0122363 -0.0121636 -0.0120807 -0.0119875 -0.011884 -0.011769 -0.0116412 -0.0115005 -0.0113471 -0.0111801 -0.0109987 -0.010803 -0.010593 -0.0103687 -0.0101303 -0.0098778 -0.00961116 -0.00933157 -0.00904016 -0.00873694 -0.00842192 -0.00809719 -0.00776487 -0.00742496 -0.00707745 -0.00672511 -0.00637066 -0.00601412 -0.00565549 -0.00529773 -0.00494379 -0.00459369 -0.00424741 -0.00390772 -0.00357739 -0.00325641 -0.00294479 -0.00264481 -0.00235876 -0.00208663 -0.00182844 -0.00158585 -0.00136053 -0.0011525 -0.000961738 -0.000789047 -0.000635216 -0.000500243 -0.000384131 -0.000285447 -0.000202761 -0.000136073 -8.53825e-05 -4.80276e-05 -2.13456e-05 -5.3364e-06 0 0 -9.70457e-06 -3.88183e-05 -8.73412e-05 -0.000155273 -0.000244867 -0.000358377 -0.000495802 -0.000657143 -0.000843656 -0.0010566 -0.00129597 -0.00156177 -0.00185202 -0.00216472 -0.00249987 -0.00285747 -0.00323448 -0.00362785 -0.00403756 -0.00446363 -0.00490237 -0.00535009 -0.00580679 -0.00627247 -0.00674307 -0.0072145 -0.00768677 -0.00815988 -0.00862978 -0.00909244 -0.00954786 -0.00999604 -0.0104335 -0.0108569 -0.0112661 -0.0116612 -0.0120399 -0.0123997 -0.0127408 -0.0130632 -0.0133659 -0.0136481 -0.0139099 -0.0141511 -0.0143724 -0.0145743 -0.0147569 -0.0149201 -0.0150656 -0.015195 -0.0153084 -0.0154057 -0.015489 -0.0155605 -0.0156201 -0.0156679 -0.0157057 -0.0157354 -0.015757 -0.0157704 -0.0157768 -0.0157772 -0.0157715 -0.0157598 -0.0157419 -0.0157179 -0.0156876 -0.0156512 -0.0156073 -0.0155549 -0.015494 -0.0154245 -0.0153446 -0.0152526 -0.0151483 -0.0150318 -0.0149011 -0.0147545 -0.014592 -0.0144134 -0.0142176 -0.0140034 -0.0137706 -0.0135194 -0.0132496 -0.0129611 -0.0126539 -0.0123281 -0.0119849 -0.0116257 -0.0112504 -0.010859 -0.0104543 -0.0100386 -0.00961216 -0.00917487 -0.00873024 -0.0082818 -0.00782955 -0.00737349 -0.00691747 -0.00646534 -0.00601709 -0.00557275 -0.00513594 -0.00471031 -0.00429588 -0.00389263 -0.00350363 -0.00313194 -0.00277756 -0.0024405 -0.00212303 -0.00182744 -0.00155373 -0.00130189 -0.00107308 -0.000868469 -0.000688045 -0.000531813 -0.000398083 -0.000285165 -0.000193061 -0.000121769 -6.84953e-05 -3.04424e-05 -7.61059e-06 0 0 -1.30745e-05 -5.22981e-05 -0.000117671 -0.000209192 -0.000328723 -0.000478121 -0.000657388 -0.000866523 -0.00110686 -0.00137973 -0.00168514 -0.00202308 -0.0023909 -0.00278594 -0.00320821 -0.00365769 -0.00413046 -0.00462254 -0.00513396 -0.0056647 -0.00621005 -0.0067653 -0.00733046 -0.0079055 -0.00848531 -0.00906472 -0.00964373 -0.0102224 -0.0107956 -0.0113583 -0.0119106 -0.0124525 -0.0129797 -0.0134881 -0.0139776 -0.0144483 -0.0148975 -0.0153224 -0.0157231 -0.0160995 -0.0164509 -0.0167765 -0.0170761 -0.0173499 -0.0175989 -0.017824 -0.0180254 -0.0182029 -0.018359 -0.018496 -0.018614 -0.0187129 -0.0187957 -0.0188653 -0.0189216 -0.0189648 -0.0189973 -0.0190216 -0.0190378 -0.0190459 -0.0190473 -0.0190433 -0.0190341 -0.0190195 -0.0189995 -0.0189738 -0.0189426 -0.0189058 -0.0188619 -0.0188091 -0.0187476 -0.0186773 -0.0185957 -0.0185002 -0.0183909 -0.0182678 -0.0181282 -0.0179695 -0.0177916 -0.0175945 -0.0173765 -0.0171355 -0.0168717 -0.0165849 -0.0162748 -0.015941 -0.0155834 -0.0152021 -0.0147985 -0.014374 -0.0139285 -0.013462 -0.0129777 -0.0124787 -0.0119649 -0.0114363 -0.0108973 -0.0103522 -0.00980093 -0.00924355 -0.00868486 -0.00812968 -0.007578 -0.00702983 -0.00648979 -0.00596252 -0.00544802 -0.00494628 -0.00446125 -0.00399686 -0.00355313 -0.00313004 -0.00273058 -0.00235774 -0.00201151 -0.0016919 -0.00140051 -0.00113895 -0.000907218 -0.00070532 -0.000531355 -0.000383427 -0.000261534 -0.000165677 -9.31934e-05 -4.14193e-05 -1.03548e-05 0 0 -1.70258e-05 -6.81032e-05 -0.000153232 -0.000272413 -0.000426715 -0.00061721 -0.000843898 -0.00110678 -0.00140713 -0.00174623 -0.00212408 -0.00254068 -0.00299256 -0.00347623 -0.00399171 -0.00453898 -0.00511307 -0.00570899 -0.00632675 -0.00696635 -0.00762192 -0.0082876 -0.00896339 -0.00964928 -0.010339 -0.0110262 -0.0117108 -0.012393 -0.0130666 -0.0137255 -0.0143699 -0.0149996 -0.0156097 -0.0161954 -0.0167565 -0.0172932 -0.0178024 -0.0182812 -0.0187294 -0.0191473 -0.019534 -0.0198891 -0.0202125 -0.0205042 -0.020766 -0.0209994 -0.0212046 -0.0213815 -0.0215335 -0.0216639 -0.0217726 -0.0218598 -0.0219293 -0.0219852 -0.0220273 -0.0220557 -0.0220738 -0.0220849 -0.0220891 -0.0220864 -0.0220786 -0.0220675 -0.0220532 -0.0220356 -0.0220146 -0.02199 -0.0219618 -0.0219299 -0.0218922 -0.0218467 -0.0217933 -0.021732 -0.0216593 -0.021572 -0.02147 -0.0213533 -0.0212182 -0.0210612 -0.0208821 -0.0206811 -0.0204554 -0.0202023 -0.0199216 -0.0196136 -0.0192771 -0.0189114 -0.0185163 -0.0180919 -0.0176396 -0.0171607 -0.0166552 -0.016123 -0.0155677 -0.0149929 -0.0143985 -0.0137845 -0.0131561 -0.0125183 -0.0118711 -0.0112146 -0.0105545 -0.00989681 -0.00924143 -0.00858837 -0.00794335 -0.00731206 -0.00669451 -0.0060907 -0.00550557 -0.00494404 -0.00440612 -0.0038918 -0.0034049 -0.00294923 -0.00252477 -0.00213154 -0.00177171 -0.00144748 -0.00115885 -0.000905813 -0.000686376 -0.00049854 -0.000342304 -0.000217669 -0.000122439 -5.44173e-05 -1.36043e-05 0 0 -2.15901e-05 -8.63604e-05 -0.000194311 -0.000345442 -0.000539567 -0.000776501 -0.00105624 -0.0013788 -0.00174519 -0.00215645 -0.00261259 -0.00311359 -0.00365498 -0.00423224 -0.00484539 -0.00549442 -0.00617316 -0.00687543 -0.00760124 -0.00835058 -0.00911631 -0.00989128 -0.0106755 -0.011469 -0.0122641 -0.0130534 -0.0138368 -0.0146144 -0.0153789 -0.0161234 -0.0168478 -0.017552 -0.0182306 -0.0188779 -0.0194939 -0.0200787 -0.020629 -0.0211418 -0.021617 -0.0220547 -0.0224547 -0.0228168 -0.0231411 -0.0234275 -0.0236787 -0.0238973 -0.0240834 -0.0242369 -0.0243625 -0.0244647 -0.0245436 -0.0245991 -0.0246366 -0.0246612 -0.024673 -0.0246719 -0.0246625 -0.024649 -0.0246316 -0.0246102 -0.0245873 -0.0245651 -0.0245438 -0.0245232 -0.0245032 -0.0244835 -0.024464 -0.0244448 -0.0244231 -0.024396 -0.0243636 -0.0243258 -0.0242782 -0.0242162 -0.0241399 -0.0240492 -0.0239392 -0.023805 -0.0236466 -0.023464 -0.0232534 -0.0230107 -0.0227361 -0.0224295 -0.0220893 -0.0217136 -0.0213026 -0.0208562 -0.0203755 -0.0198616 -0.0193145 -0.0187343 -0.0181246 -0.0174894 -0.0168286 -0.0161423 -0.0154363 -0.0147164 -0.0139828 -0.0132354 -0.0124811 -0.0117267 -0.0109724 -0.0102181 -0.00947065 -0.00873696 -0.00801703 -0.00731084 -0.00662447 -0.00596397 -0.00532933 -0.00472056 -0.00414243 -0.00359973 -0.00309245 -0.00262059 -0.00218709 -0.00179491 -0.00144403 -0.00113445 -0.000864257 -0.0006315 -0.000436185 -0.00027831 -0.000156549 -6.95774e-05 -1.73943e-05 0 0 -2.67674e-05 -0.00010707 -0.000240907 -0.000428279 -0.000667278 -0.000955994 -0.00129443 -0.00168258 -0.00212104 -0.0026104 -0.00315066 -0.00374181 -0.00437815 -0.00505397 -0.00576926 -0.00652402 -0.00731073 -0.00812186 -0.00895741 -0.00981738 -0.0106932 -0.0115764 -0.0124668 -0.0133646 -0.0142607 -0.0151465 -0.0160217 -0.0168864 -0.0177326 -0.0185518 -0.0193443 -0.0201099 -0.0208424 -0.0215357 -0.0221898 -0.0228047 -0.0233772 -0.0239042 -0.0243858 -0.0248219 -0.025213 -0.0255597 -0.025862 -0.0261198 -0.0263371 -0.0265177 -0.0266617 -0.026769 -0.0268459 -0.0268985 -0.0269267 -0.0269308 -0.0269173 -0.0268933 -0.0268587 -0.0268135 -0.0267633 -0.0267139 -0.0266653 -0.0266174 -0.0265734 -0.0265361 -0.0265058 -0.0264822 -0.0264651 -0.0264542 -0.0264493 -0.0264506 -0.0264544 -0.026457 -0.0264585 -0.0264589 -0.0264523 -0.0264328 -0.0264006 -0.0263555 -0.0262911 -0.0262009 -0.0260849 -0.0259431 -0.0257703 -0.0255609 -0.0253151 -0.0250328 -0.0247113 -0.0243478 -0.0239423 -0.0234949 -0.0230062 -0.0224767 -0.0219066 -0.0212958 -0.0206483 -0.019968 -0.0192552 -0.0185096 -0.0177379 -0.0169468 -0.0161362 -0.0153061 -0.0144645 -0.0136195 -0.012771 -0.011919 -0.0110717 -0.0102372 -0.00941556 -0.0086067 -0.00781797 -0.00705665 -0.00632277 -0.00561631 -0.00494316 -0.00430924 -0.00371454 -0.00315905 -0.00264665 -0.00218122 -0.00176275 -0.00139124 -0.001065 -0.000782308 -0.000543175 -0.000347598 -0.000195524 -8.68994e-05 -2.17249e-05 0 0 -3.25578e-05 -0.000130231 -0.00029302 -0.000520925 -0.000809848 -0.00115569 -0.00155845 -0.00201813 -0.00253469 -0.00310807 -0.00373829 -0.00442534 -0.00516209 -0.00594141 -0.00676331 -0.00762778 -0.00852579 -0.00944828 -0.0103953 -0.0113668 -0.0123526 -0.0133428 -0.0143373 -0.0153361 -0.0163288 -0.0173053 -0.0182654 -0.0192093 -0.0201275 -0.0210109 -0.0218594 -0.0226731 -0.0234451 -0.0241688 -0.0248442 -0.0254713 -0.026047 -0.0265685 -0.0270358 -0.0274488 -0.027809 -0.0281178 -0.0283752 -0.0285812 -0.0287412 -0.0288606 -0.0289395 -0.0289779 -0.0289837 -0.0289652 -0.0289222 -0.0288548 -0.0287717 -0.0286816 -0.0285845 -0.0284804 -0.0283764 -0.0282796 -0.0281902 -0.028108 -0.0280369 -0.0279806 -0.0279392 -0.0279127 -0.0279005 -0.0279022 -0.0279178 -0.0279473 -0.0279861 -0.0280297 -0.028078 -0.0281311 -0.0281815 -0.0282218 -0.0282521 -0.0282722 -0.0282739 -0.0282489 -0.0281971 -0.0281185 -0.0280061 -0.0278528 -0.0276585 -0.0274233 -0.0271431 -0.0268138 -0.0264355 -0.0260081 -0.0255316 -0.025006 -0.0244313 -0.0238075 -0.0231387 -0.0224289 -0.0216782 -0.0208864 -0.020061 -0.0192092 -0.0183311 -0.0174266 -0.0165048 -0.015575 -0.0146371 -0.0136911 -0.0127465 -0.0118129 -0.0108901 -0.00997828 -0.00908604 -0.00822209 -0.00738643 -0.00657904 -0.0058071 -0.00507776 -0.00439104 -0.00374692 -0.00315039 -0.00260642 -0.00211502 -0.00167618 -0.0012886 -0.000950962 -0.000663275 -0.000425534 -0.000239363 -0.000106383 -2.65959e-05 0 0 -3.89027e-05 -0.000155611 -0.000350125 -0.000622444 -0.00096581 -0.00137346 -0.0018454 -0.00238163 -0.00298123 -0.00364328 -0.00436779 -0.00515474 -0.00599536 -0.00688087 -0.00781127 -0.00878656 -0.009796 -0.0108288 -0.0118851 -0.0129647 -0.014056 -0.0151472 -0.0162382 -0.017329 -0.0184079 -0.0194631 -0.0204945 -0.0215022 -0.0224757 -0.0234048 -0.0242895 -0.0251297 -0.0259183 -0.026648 -0.027319 -0.0279312 -0.028482 -0.0289688 -0.0293917 -0.0297507 -0.0300483 -0.0302873 -0.0304675 -0.0305892 -0.0306594 -0.0306856 -0.0306678 -0.030606 -0.0305104 -0.0303915 -0.0302493 -0.0300836 -0.0299056 -0.0297259 -0.0295448 -0.0293621 -0.0291867 -0.0290276 -0.0288846 -0.0287577 -0.0286517 -0.0285713 -0.0285163 -0.0284869 -0.0284823 -0.0285021 -0.028546 -0.0286143 -0.0287011 -0.0288008 -0.0289134 -0.0290389 -0.029168 -0.0292914 -0.0294091 -0.0295211 -0.029617 -0.029686 -0.0297283 -0.0297439 -0.0297234 -0.0296578 -0.0295469 -0.0293908 -0.0291838 -0.0289202 -0.0285999 -0.0282229 -0.0277884 -0.0272953 -0.0267437 -0.0261335 -0.0254688 -0.0247534 -0.0239873 -0.0231707 -0.0223113 -0.0214171 -0.0204881 -0.0195243 -0.018536 -0.0175336 -0.0165169 -0.0154861 -0.014452 -0.0134256 -0.012407 -0.011396 -0.010403 -0.00943803 -0.0085012 -0.00759249 -0.00672049 -0.00589382 -0.00511246 -0.00437643 -0.00369201 -0.0030655 -0.00249691 -0.00198624 -0.00153277 -0.00113581 -0.000795353 -0.000511401 -0.000287663 -0.00012785 -3.19625e-05 0 0 -4.57437e-05 -0.000182975 -0.000411693 -0.000731899 -0.0011337 -0.00160719 -0.00215239 -0.00276928 -0.00345579 -0.00420984 -0.00503144 -0.00592059 -0.00686656 -0.00785866 -0.00889688 -0.00998122 -0.011099 -0.0122377 -0.0133971 -0.0145774 -0.0157649 -0.016946 -0.0181207 -0.019289 -0.0204375 -0.021553 -0.0226353 -0.0236845 -0.0246892 -0.025638 -0.0265308 -0.0273678 -0.0281414 -0.0288441 -0.0294761 -0.0300372 -0.0305256 -0.0309393 -0.0312784 -0.0315427 -0.0317367 -0.0318645 -0.0319261 -0.0319215 -0.0318603 -0.0317523 -0.0315975 -0.0313958 -0.0311603 -0.0309041 -0.0306272 -0.0303295 -0.0300247 -0.0297262 -0.029434 -0.0291482 -0.0288796 -0.0286392 -0.0284268 -0.0282425 -0.028092 -0.0279809 -0.0279094 -0.0278773 -0.0278839 -0.0279284 -0.0280107 -0.0281309 -0.028282 -0.028457 -0.0286558 -0.0288785 -0.0291135 -0.0293495 -0.0295863 -0.029824 -0.0300495 -0.0302494 -0.0304239 -0.0305729 -0.0306846 -0.0307471 -0.0307606 -0.030725 -0.0306325 -0.0304753 -0.0302534 -0.0299668 -0.0296132 -0.0291906 -0.0286987 -0.0281378 -0.0275113 -0.0268228 -0.0260725 -0.0252602 -0.0243944 -0.0234836 -0.0225277 -0.0215267 -0.0204922 -0.0194355 -0.0183567 -0.0172557 -0.0161451 -0.0150374 -0.0139324 -0.0128304 -0.011743 -0.0106822 -0.009648 -0.00864039 -0.00766962 -0.00674592 -0.00586932 -0.00503979 -0.00426521 -0.00355346 -0.00290452 -0.00231839 -0.00179524 -0.0013352 -0.00093828 -0.00060448 -0.00034002 -0.00015112 -3.778e-05 0 0 -5.30807e-05 -0.000212323 -0.000477726 -0.000849291 -0.00131351 -0.00185688 -0.0024794 -0.00318106 -0.00395835 -0.00480775 -0.00572926 -0.00672288 -0.00777569 -0.00887478 -0.0100201 -0.0112118 -0.0124349 -0.0136748 -0.0149313 -0.0162047 -0.0174791 -0.0187392 -0.0199847 -0.0212159 -0.0224177 -0.023575 -0.0246878 -0.0257563 -0.0267679 -0.0277103 -0.0285835 -0.0293874 -0.0301145 -0.0307572 -0.0313154 -0.0317893 -0.0321778 -0.0324799 -0.0326957 -0.032825 -0.0328742 -0.0328494 -0.0327507 -0.0325781 -0.0323439 -0.0320607 -0.0317286 -0.0313474 -0.0309334 -0.0305029 -0.030056 -0.0295925 -0.0291291 -0.0286824 -0.0282522 -0.0278387 -0.0274551 -0.0271144 -0.0268168 -0.0265623 -0.0263576 -0.0262096 -0.0261184 -0.0260839 -0.0261051 -0.0261811 -0.0263118 -0.0264973 -0.026729 -0.0269983 -0.0273053 -0.02765 -0.0280183 -0.0283962 -0.0287837 -0.0291809 -0.0295714 -0.029939 -0.0302837 -0.0306055 -0.0308895 -0.0311209 -0.0312997 -0.0314259 -0.0314892 -0.0314792 -0.031396 -0.0312396 -0.0310061 -0.0306917 -0.0302964 -0.0298202 -0.0292661 -0.0286372 -0.0279335 -0.027155 -0.0263104 -0.0254087 -0.0244498 -0.0234338 -0.0223732 -0.0212808 -0.0201564 -0.019 -0.0178259 -0.0166481 -0.0154665 -0.0142813 -0.0131061 -0.0119546 -0.0108268 -0.00972274 -0.00865446 -0.00763408 -0.0066616 -0.00573701 -0.00487001 -0.00407028 -0.00333782 -0.00267264 -0.00207599 -0.00154913 -0.00109205 -0.000704773 -0.000396435 -0.000176193 -4.40483e-05 0 0 -6.09138e-05 -0.000243655 -0.000548224 -0.00097462 -0.00150525 -0.00212252 -0.00282643 -0.00361698 -0.00448893 -0.00543702 -0.00646125 -0.00756162 -0.00872275 -0.00992921 -0.011181 -0.0124782 -0.0138036 -0.0151401 -0.0164878 -0.0178466 -0.0191988 -0.0205268 -0.0218304 -0.0231098 -0.0243483 -0.025529 -0.0266521 -0.0277176 -0.0287119 -0.0296219 -0.0304474 -0.0311885 -0.0318375 -0.0323871 -0.0328371 -0.0331875 -0.0334387 -0.0335907 -0.0336436 -0.0335975 -0.0334608 -0.0332421 -0.0329415 -0.032559 -0.0321102 -0.0316108 -0.031061 -0.0304606 -0.0298297 -0.029188 -0.0285356 -0.0278726 -0.0272188 -0.0265944 -0.0259994 -0.0254336 -0.024913 -0.0244534 -0.0240548 -0.0237171 -0.0234485 -0.0232572 -0.0231433 -0.0231066 -0.0231461 -0.0232603 -0.0234494 -0.0237134 -0.0240419 -0.0244247 -0.0248619 -0.0253533 -0.0258822 -0.0264315 -0.0270014 -0.0275917 -0.0281828 -0.0287548 -0.0293078 -0.0298418 -0.0303383 -0.0307791 -0.0311642 -0.0314935 -0.0317538 -0.0319319 -0.0320277 -0.0320413 -0.0319669 -0.0317987 -0.0315367 -0.0311808 -0.0307334 -0.0301966 -0.0295705 -0.028855 -0.0280593 -0.0271925 -0.0262546 -0.0252456 -0.0241792 -0.0230694 -0.0219159 -0.020719 -0.0194943 -0.0182577 -0.0170092 -0.0157489 -0.0144923 -0.0132552 -0.0120376 -0.0108395 -0.00967503 -0.00855829 -0.00748931 -0.00646809 -0.00550639 -0.00461597 -0.00379684 -0.00304898 -0.00237503 -0.00177759 -0.00125668 -0.000812279 -0.000456907 -0.00020307 -5.07674e-05 0 0 -6.91468e-05 -0.000276587 -0.000622322 -0.00110635 -0.00170654 -0.00240077 -0.00318904 -0.00407135 -0.00504042 -0.00608896 -0.00721698 -0.00842448 -0.00969328 -0.0110052 -0.0123602 -0.0137584 -0.01518 -0.0166054 -0.0180346 -0.0194675 -0.0208843 -0.0222648 -0.0236092 -0.0249173 -0.0261708 -0.0273512 -0.0284584 -0.0294926 -0.0304393 -0.0312842 -0.0320274 -0.0326689 -0.0332013 -0.0336173 -0.0339169 -0.0341001 -0.0341686 -0.0341242 -0.0339669 -0.0336967 -0.033325 -0.0328631 -0.0323111 -0.031669 -0.0309562 -0.0301922 -0.0293771 -0.0285108 -0.0276174 -0.0267211 -0.0258218 -0.0249195 -0.0240381 -0.0232017 -0.0224101 -0.0216634 -0.0209804 -0.0203798 -0.0198616 -0.0194259 -0.0190822 -0.0188403 -0.0187001 -0.0186617 -0.0187235 -0.018884 -0.0191432 -0.0195012 -0.0199457 -0.0204644 -0.0210575 -0.0217249 -0.0224464 -0.0232018 -0.0239911 -0.0248144 -0.0256478 -0.0264677 -0.0272739 -0.0280666 -0.0288232 -0.0295216 -0.0301615 -0.0307431 -0.0312496 -0.0316645 -0.0319876 -0.0322191 -0.0323507 -0.0323743 -0.03229 -0.0320977 -0.0317985 -0.0313937 -0.0308831 -0.0302669 -0.0295543 -0.0287545 -0.0278676 -0.0268935 -0.0258473 -0.0247437 -0.0235829 -0.0223648 -0.021107 -0.0198272 -0.0185254 -0.0172016 -0.0158736 -0.0145593 -0.0132586 -0.0119715 -0.0107146 -0.00950405 -0.00834001 -0.00722244 -0.00616545 -0.00518315 -0.00427553 -0.00344259 -0.00268859 -0.00201778 -0.00143015 -0.000925706 -0.00052071 -0.000231427 -5.78566e-05 0 0 -7.76839e-05 -0.000310736 -0.000699155 -0.00124294 -0.00191502 -0.00268829 -0.00356278 -0.00453847 -0.00560573 -0.00675492 -0.00798605 -0.00929912 -0.0106728 -0.012086 -0.0135384 -0.0150303 -0.0165391 -0.0180423 -0.0195399 -0.0210319 -0.0224959 -0.0239094 -0.0252724 -0.0265849 -0.0278267 -0.0289774 -0.030037 -0.0310056 -0.0318679 -0.0326089 -0.0332285 -0.0337266 -0.0340965 -0.0343312 -0.0344307 -0.0343951 -0.0342279 -0.0339328 -0.03351 -0.0329592 -0.0322953 -0.031533 -0.0306722 -0.029713 -0.0286791 -0.0275945 -0.0264592 -0.025273 -0.024065 -0.022864 -0.0216699 -0.0204829 -0.0193312 -0.0182432 -0.017219 -0.0162585 -0.0153839 -0.0146172 -0.0139584 -0.0134077 -0.0129762 -0.0126752 -0.0125049 -0.0124651 -0.0125541 -0.01277 -0.013113 -0.0135828 -0.0141652 -0.0148457 -0.0156244 -0.0165011 -0.017452 -0.0184533 -0.0195049 -0.0206068 -0.0217307 -0.0228484 -0.0239597 -0.0250648 -0.0261366 -0.027148 -0.0280992 -0.02899 -0.0297999 -0.0305082 -0.0311148 -0.0316199 -0.0320124 -0.0322814 -0.0324269 -0.0324488 -0.0323469 -0.0321211 -0.0317711 -0.0312972 -0.0307085 -0.0300142 -0.0292145 -0.0283092 -0.0273145 -0.0262463 -0.0251048 -0.0238898 -0.0226209 -0.0213176 -0.0199801 -0.0186081 -0.017222 -0.0158419 -0.0144678 -0.0130996 -0.0117563 -0.0104569 -0.00920126 -0.00798948 -0.00683828 -0.00576441 -0.00476786 -0.00384864 -0.00301292 -0.00226686 -0.00161048 -0.00104376 -0.000587117 -0.000260941 -6.52352e-05 0 0 -8.65249e-05 -0.0003461 -0.000778724 -0.0013844 -0.00213067 -0.00298508 -0.00394764 -0.00501833 -0.00618486 -0.0074349 -0.00876846 -0.0101855 -0.0116614 -0.0131715 -0.0147156 -0.016294 -0.0178808 -0.0194508 -0.0210037 -0.0225396 -0.0240336 -0.0254603 -0.02682 -0.0281126 -0.0293158 -0.0304076 -0.0313879 -0.0322566 -0.032998 -0.0335959 -0.0340505 -0.0343616 -0.0345231 -0.0345288 -0.0343786 -0.0340725 -0.0336166 -0.0330167 -0.0322728 -0.0313851 -0.0303719 -0.0292518 -0.0280248 -0.026691 -0.025279 -0.0238177 -0.0223071 -0.0207473 -0.0191723 -0.0176166 -0.0160801 -0.0145628 -0.0130981 -0.0117192 -0.0104261 -0.00921899 -0.00812354 -0.00716563 -0.00634527 -0.00566244 -0.00513031 -0.00476201 -0.00455755 -0.00451693 -0.00463799 -0.00491858 -0.00535869 -0.00595832 -0.0067006 -0.00756862 -0.00856238 -0.00968189 -0.0108991 -0.012186 -0.0135426 -0.0149689 -0.0164315 -0.0178969 -0.0193653 -0.0208364 -0.0222783 -0.0236585 -0.0249772 -0.0262343 -0.0274046 -0.028463 -0.0294094 -0.0302438 -0.0309521 -0.0315199 -0.0319472 -0.0322342 -0.0323787 -0.0323788 -0.0322345 -0.0319459 -0.0315219 -0.0309717 -0.0302953 -0.0294926 -0.0285809 -0.0275772 -0.0264815 -0.0252939 -0.0240358 -0.0227289 -0.0213731 -0.0199684 -0.0185375 -0.0171031 -0.0156651 -0.0142236 -0.0128003 -0.0114167 -0.0100731 -0.00876922 -0.00752489 -0.00635977 -0.00527385 -0.00426713 -0.003348 -0.00252484 -0.00179766 -0.00116645 -0.000656128 -0.000291612 -7.29031e-05 0 0 -9.56699e-05 -0.00038268 -0.000861029 -0.00153072 -0.0023535 -0.00329113 -0.00434361 -0.00551094 -0.00677781 -0.0081289 -0.0095642 -0.0110837 -0.0126591 -0.0142618 -0.0158918 -0.0175493 -0.0192052 -0.0208308 -0.022426 -0.0239908 -0.0254973 -0.0269178 -0.0282521 -0.0295003 -0.0306383 -0.0316418 -0.032511 -0.0332457 -0.0338294 -0.0342453 -0.0344935 -0.0345739 -0.0344812 -0.0342101 -0.0337605 -0.0331325 -0.0323347 -0.0313757 -0.0302556 -0.0289742 -0.0275546 -0.0260195 -0.0243689 -0.0226029 -0.0207557 -0.0188618 -0.0169211 -0.0149336 -0.0129395 -0.0109791 -0.00905234 -0.00715928 -0.00533871 -0.00362944 -0.00203148 -0.000544829 0.000800587 0.00197483 0.00297789 0.00380978 0.00445533 0.00489935 0.00514186 0.00518285 0.00502487 0.00467046 0.00411962 0.00337234 0.00244825 0.00136694 0.000128416 -0.00126732 -0.00278767 -0.00440003 -0.0061044 -0.00790079 -0.00975013 -0.0116134 -0.0134905 -0.0153815 -0.0172484 -0.0190531 -0.0207956 -0.0224759 -0.0240638 -0.0255289 -0.0268712 -0.0280908 -0.0291696 -0.0300897 -0.0308511 -0.0314538 -0.0318937 -0.0321669 -0.0322733 -0.032213 -0.0319946 -0.031627 -0.03111 -0.0304437 -0.0296464 -0.0287362 -0.0277131 -0.0265771 -0.0253519 -0.024061 -0.0227046 -0.0212825 -0.0198201 -0.0183428 -0.0168507 -0.0153437 -0.0138464 -0.0123837 -0.0109554 -0.00956164 -0.00822527 -0.00696921 -0.00579348 -0.00469806 -0.00369384 -0.00279172 -0.0019917 -0.00129377 -0.000727744 -0.000323442 -8.08604e-05 0 0 -0.000105003 -0.000420012 -0.000945027 -0.001