<?xml version="1.0"?> 
<VTKFile type="StructuredGrid" version="0.1"> 
<StructuredGrid WholeExtent="0 128 0 128 0 0"> 
<Piece Extent="0 128 0 128 0 0"> 
<PointData>
<DataArray type="Float32" Name="u" format="ascii" NumberOfComponents="1"> 
0 0 0 0 0 0 0 0 0 0 0 0 0 0 0 0 0 0 0 0 0 0 0 0 0 0 0 0 0 0 0 0 0 0 0 0 0 0 0 0 0 0 0 0 0 0 0 0 0 0 0 0 0 0 0 0 0 0 0 0 0 0 0 0 0 0 0 0 0 0 0 0 0 0 0 0 0 0 0 0 0 0 0 0 0 0 0 0 0 0 0 0 0 0 0 0 0 0 0 0 0 0 0 0 0 0 0 0 0 0 0 0 0 0 0 0 0 0 0 0 0 0 0 0 0 0 0 0 0 0 2.01011e-07 8.04044e-07 1.8091e-06 3.21618e-06 4.7644e-06 6.19291e-06 7.50171e-06 8.69078e-06 9.61413e-06 1.01257e-05 1.02256e-05 9.91377e-06 9.09034e-06 7.65551e-06 5.60927e-06 2.95162e-06 -3.54736e-07 -4.34709e-06 -9.02543e-06 -1.43898e-05 -2.04298e-05 -2.71353e-05 -3.45062e-05 -4.25426e-05 -5.11961e-05 -6.04185e-05 -7.02099e-05 -8.05701e-05 -9.1423e-05 -0.000102692 -0.000114378 -0.000126479 -0.000138904 -0.000151557 -0.000164439 -0.000177549 -0.000190788 -0.000204052 -0.000217342 -0.000230658 -0.000243897 -0.000256959 -0.000269843 -0.000282549 -0.00029498 -0.00030704 -0.000318728 -0.000330044 -0.000340902 -0.000351213 -0.000360979 -0.000370199 -0.000378801 -0.000386713 -0.000393934 -0.000400465 -0.000406254 -0.00041125 -0.000415452 -0.000418861 -0.00042145 -0.000423195 -0.000424095 -0.00042415 -0.000423363 -0.000421738 -0.000419275 -0.000415974 -0.000411866 -0.000406986 -0.000401332 -0.000394904 -0.000387761 -0.000379961 -0.000371502 -0.000362386 -0.00035269 -0.000342491 -0.00033179 -0.000320586 -0.000308971 -0.000297035 -0.000284779 -0.000272202 -0.000259403 -0.000246479 -0.000233431 -0.000220258 -0.000207061 -0.000193939 -0.000180892 -0.000167921 -0.00015512 -0.000142587 -0.000130321 -0.000118321 -0.000106674 -9.54638e-05 -8.46905e-05 -7.43541e-05 -6.45205e-05 -5.52556e-05 -4.65593e-05 -3.84317e-05 -3.09109e-05 -2.40348e-05 -1.78035e-05 -1.22169e-05 -7.27767e-06 -2.98826e-06 6.51317e-07 3.64107e-06 6.02156e-06 7.83336e-06 9.07647e-06 9.7509e-06 9.95327e-06 9.78022e-06 9.23174e-06 8.30784e-06 7.14504e-06 5.87985e-06 4.51227e-06 3.04231e-06 1.7113e-06 7.60578e-07 1.90144e-07 0 0 8.04044e-07 3.21618e-06 7.23639e-06 1.28647e-05 1.90576e-05 2.47717e-05 3.00068e-05 3.47631e-05 3.84565e-05 4.0503e-05 4.09025e-05 3.96551e-05 3.63614e-05 3.0622e-05 2.24371e-05 1.18065e-05 -1.41894e-06 -1.73883e-05 -3.61017e-05 -5.75591e-05 -8.17193e-05 -0.000108541 -0.000138025 -0.00017017 -0.000204784 -0.000241674 -0.00028084 -0.000322281 -0.000365692 -0.000410768 -0.00045751 -0.000505917 -0.000555614 -0.000606227 -0.000657754 -0.000710198 -0.000763151 -0.000816207 -0.000869367 -0.00092263 -0.000975589 -0.00102784 -0.00107937 -0.0011302 -0.00117992 -0.00122816 -0.00127491 -0.00132018 -0.00136361 -0.00140485 -0.00144392 -0.0014808 -0.0015152 -0.00154685 -0.00157574 -0.00160186 -0.00162502 -0.001645 -0.00166181 -0.00167544 -0.0016858 -0.00169278 -0.00169638 -0.0016966 -0.00169345 -0.00168695 -0.0016771 -0.00166389 -0.00164747 -0.00162794 -0.00160533 -0.00157962 -0.00155105 -0.00151984 -0.00148601 -0.00144954 -0.00141076 -0.00136996 -0.00132716 -0.00128234 -0.00123588 -0.00118814 -0.00113912 -0.00108881 -0.00103761 -0.000985915 -0.000933722 -0.000881032 -0.000828243 -0.000775755 -0.000723568 -0.000671682 -0.000620481 -0.000570348 -0.000521283 -0.000473286 -0.000426697 -0.000381855 -0.000338762 -0.000297416 -0.000258082 -0.000221022 -0.000186237 -0.000153727 -0.000123643 -9.61391e-05 -7.12138e-05 -4.88677e-05 -2.91107e-05 -1.19531e-05 2.60527e-06 1.45643e-05 2.40862e-05 3.13334e-05 3.63059e-05 3.90036e-05 3.98131e-05 3.91209e-05 3.6927e-05 3.32314e-05 2.85802e-05 2.35194e-05 1.80491e-05 1.21692e-05 6.8452e-06 3.04231e-06 7.60578e-07 0 0 1.8091e-06 7.23639e-06 1.62819e-05 2.89456e-05 4.28796e-05 5.57362e-05 6.75154e-05 7.8217e-05 8.65272e-05 9.11317e-05 9.20306e-05 8.92239e-05 8.18131e-05 6.88996e-05 5.04834e-05 2.65645e-05 -3.19263e-06 -3.91238e-05 -8.12289e-05 -0.000129508 -0.000183868 -0.000244218 -0.000310556 -0.000382883 -0.000460765 -0.000543767 -0.000631889 -0.000725131 -0.000822807 -0.000924229 -0.0010294 -0.00113831 -0.00125013 -0.00136401 -0.00147995 -0.00159795 -0.00171709 -0.00183647 -0.00195608 -0.00207592 -0.00219508 -0.00231263 -0.00242859 -0.00254294 -0.00265482 -0.00276336 -0.00286855 -0.0029704 -0.00306812 -0.00316092 -0.00324881 -0.00333179 -0.00340921 -0.00348041 -0.00354541 -0.00360419 -0.00365629 -0.00370125 -0.00373907 -0.00376975 -0.00379305 -0.00380876 -0.00381685 -0.00381735 -0.00381027 -0.00379564 -0.00377347 -0.00374376 -0.0037068 -0.00366287 -0.00361199 -0.00355414 -0.00348985 -0.00341964 -0.00334352 -0.00326147 -0.00317421 -0.00308242 -0.00298611 -0.00288528 -0.00278074 -0.00267332 -0.00256301 -0.00244982 -0.00233462 -0.00221831 -0.00210088 -0.00198232 -0.00186355 -0.00174545 -0.00162803 -0.00151129 -0.00139608 -0.00128328 -0.00117289 -0.00106489 -0.000960068 -0.000859175 -0.000762214 -0.000669187 -0.000580684 -0.0004973 -0.000419034 -0.000345886 -0.000278198 -0.000216313 -0.000160231 -0.000109952 -6.54991e-05 -2.68944e-05 5.86186e-06 3.27696e-05 5.4194e-05 7.05002e-05 8.16883e-05 8.77581e-05 8.95794e-05 8.8022e-05 8.30857e-05 7.47706e-05 6.43054e-05 5.29187e-05 4.06105e-05 2.73808e-05 1.54017e-05 6.8452e-06 1.7113e-06 0 0 3.21618e-06 1.28647e-05 2.89456e-05 5.14588e-05 7.62305e-05 9.90866e-05 0.000120027 0.000139053 0.000153826 0.000162012 0.00016361 0.00015862 0.000145445 0.000122488 8.97483e-05 4.72259e-05 -5.67578e-06 -6.95534e-05 -0.000144407 -0.000230236 -0.000326877 -0.000434165 -0.0005521 -0.000680681 -0.000819138 -0.000966697 -0.00112336 -0.00128912 -0.00146277 -0.00164307 -0.00183004 -0.00202367 -0.00222246 -0.00242491 -0.00263102 -0.00284079 -0.0030526 -0.00326483 -0.00347747 -0.00369052 -0.00390236 -0.00411135 -0.00431749 -0.00452079 -0.00471968 -0.00491264 -0.00509965 -0.00528071 -0.00545443 -0.00561941 -0.00577567 -0.00592319 -0.00606082 -0.0061874 -0.00630295 -0.00640744 -0.00650007 -0.00658 -0.00664723 -0.00670177 -0.00674321 -0.00677112 -0.00678552 -0.00678639 -0.00677381 -0.00674781 -0.0067084 -0.00665558 -0.00658986 -0.00651177 -0.00642131 -0.00631847 -0.00620418 -0.00607937 -0.00594403 -0.00579817 -0.00564303 -0.00547985 -0.00530864 -0.00512938 -0.00494354 -0.00475257 -0.00455647 -0.00435524 -0.00415044 -0.00394366 -0.00373489 -0.00352413 -0.00331297 -0.00310302 -0.00289427 -0.00268673 -0.00248193 -0.00228139 -0.00208513 -0.00189314 -0.00170679 -0.00152742 -0.00135505 -0.00118967 -0.00103233 -0.000884089 -0.000744949 -0.000614908 -0.000494574 -0.000384556 -0.000284855 -0.000195471 -0.000116443 -4.78122e-05 1.04211e-05 5.82571e-05 9.63449e-05 0.000125334 0.000145224 0.000156014 0.000159252 0.000156484 0.000147708 0.000132926 0.000114321 9.40776e-05 7.21964e-05 4.8677e-05 2.73808e-05 1.21692e-05 3.04231e-06 0 0 4.75205e-06 1.90082e-05 4.27684e-05 7.60328e-05 0.000112527 0.000145978 0.000176384 0.000203747 0.000224548 0.00023527 0.000235913 0.000226477 0.00020457 0.000167802 0.000116173 4.96815e-05 -3.25484e-05 -0.000131394 -0.000246856 -0.000378933 -0.000527346 -0.000691815 -0.000872339 -0.00106892 -0.00128036 -0.00150544 -0.00174419 -0.00199658 -0.00226076 -0.00253484 -0.00281882 -0.00311271 -0.00341422 -0.00372107 -0.00403325 -0.00435077 -0.00467117 -0.004992 -0.00531325 -0.00563493 -0.0059546 -0.0062698 -0.00658053 -0.0068868 -0.00718629 -0.0074767 -0.00775803 -0.00803028 -0.00829138 -0.00853926 -0.00877394 -0.0089954 -0.00920194 -0.00939187 -0.00956517 -0.00972185 -0.0098607 -0.0099805 -0.0100812 -0.0101629 -0.010225 -0.0102668 -0.0102883 -0.0102895 -0.0102706 -0.0102316 -0.0101725 -0.0100933 -0.00999469 -0.00987756 -0.00974184 -0.00958755 -0.00941605 -0.00922871 -0.00902551 -0.00880647 -0.00857342 -0.0083282 -0.0080708 -0.00780122 -0.00752163 -0.00723418 -0.00693888 -0.00663571 -0.00632703 -0.00601518 -0.00570016 -0.00538197 -0.005063 -0.00474566 -0.00442995 -0.00411587 -0.00380574 -0.00350188 -0.00320429 -0.00291297 -0.00263 -0.00235745 -0.00209532 -0.00184361 -0.00160394 -0.00137794 -0.0011656 -0.000966921 -0.000782862 -0.000614373 -0.000461454 -0.000324104 -0.000202415 -9.64758e-05 -6.28657e-06 6.81527e-05 0.000127801 0.000173618 0.000205603 0.000223757 0.000230397 0.000227839 0.000216085 0.000195134 0.000168277 0.000138805 0.000106719 7.20173e-05 4.05097e-05 1.80043e-05 4.50108e-06 0 0 6.14349e-06 2.4574e-05 5.52914e-05 9.82958e-05 0.000145187 0.000187564 0.000225427 0.000258776 0.000282886 0.000293031 0.000289211 0.000271425 0.000236499 0.000181257 0.000105698 9.82246e-06 -0.000107491 -0.000247363 -0.000409794 -0.000594785 -0.000801873 -0.0010306 -0.00128096 -0.00155295 -0.00184487 -0.00215499 -0.00248332 -0.00282985 -0.00319197 -0.00356706 -0.00395513 -0.00435618 -0.00476706 -0.00518464 -0.00560892 -0.0060399 -0.00647426 -0.00690867 -0.00734314 -0.00777765 -0.00820896 -0.0086338 -0.00905216 -0.00946405 -0.00986643 -0.0102563 -0.0106336 -0.0109983 -0.0113478 -0.0116794 -0.0119931 -0.0122888 -0.0125645 -0.0128179 -0.0130489 -0.0132576 -0.0134425 -0.013602 -0.013736 -0.0138446 -0.0139271 -0.0139825 -0.014011 -0.0140126 -0.0139872 -0.0139351 -0.0138563 -0.0137507 -0.0136193 -0.0134631 -0.0132821 -0.0130763 -0.0128475 -0.0125973 -0.0123259 -0.0120332 -0.0117215 -0.0113934 -0.0110486 -0.0106874 -0.0103124 -0.00992646 -0.00952964 -0.00912191 -0.00870636 -0.00828609 -0.00786109 -0.00743136 -0.00700012 -0.00657057 -0.00614272 -0.00571657 -0.00529526 -0.00488195 -0.00447663 -0.00407932 -0.00369286 -0.00332012 -0.00296109 -0.00261578 -0.00228645 -0.00197539 -0.00168259 -0.00140805 -0.00115315 -0.000919265 -0.000706393 -0.000514535 -0.000343889 -0.000194654 -6.68306e-05 3.95824e-05 0.000125825 0.000193137 0.000241519 0.000270971 0.000284578 0.000285423 0.000273509 0.000248834 0.000215825 0.00017891 0.000138089 9.33614e-05 5.25158e-05 2.33403e-05 5.83508e-06 0 0 7.3905e-06 2.9562e-05 6.65145e-05 0.000118248 0.000174209 0.000223845 0.000267156 0.000304142 0.000328842 0.000335296 0.000323504 0.000293466 0.000241232 0.000162851 5.83234e-05 -7.23512e-05 -0.000230502 -0.00041746 -0.000633224 -0.000877794 -0.00115046 -0.00145051 -0.00177796 -0.00213278 -0.00251268 -0.00291534 -0.00334075 -0.00378892 -0.0042564 -0.00473975 -0.00523897 -0.00575406 -0.00628097 -0.00681562 -0.00735803 -0.00790819 -0.00846188 -0.00901485 -0.00956712 -0.0101187 -0.0106655 -0.0112034 -0.0117324 -0.0122525 -0.0127601 -0.0132513 -0.0137262 -0.0141847 -0.0146237 -0.0150398 -0.0154331 -0.0158035 -0.0161485 -0.0164654 -0.0167542 -0.0170148 -0.0172455 -0.0174445 -0.0176116 -0.0177469 -0.0178495 -0.0179185 -0.0179538 -0.0179555 -0.0179237 -0.0178585 -0.0177599 -0.0176279 -0.0174637 -0.0172685 -0.0170422 -0.0167848 -0.0164985 -0.0161853 -0.0158452 -0.0154783 -0.0150874 -0.0146754 -0.0142422 -0.0137878 -0.0133157 -0.0128294 -0.0123288 -0.0118138 -0.0112884 -0.0107564 -0.0102177 -0.00967232 -0.00912433 -0.00857775 -0.00803258 -0.00748882 -0.00695048 -0.00642159 -0.00590216 -0.00539218 -0.00489536 -0.00441542 -0.00395236 -0.00350617 -0.00307986 -0.00267645 -0.00229593 -0.0019383 -0.00160544 -0.00129923 -0.00101967 -0.000766762 -0.000540865 -0.000342348 -0.000171211 -2.74537e-05 9.04162e-05 0.000183891 0.000252971 0.000297656 0.000321795 0.000329236 0.000319979 0.000294025 0.000256965 0.000214393 0.000166307 0.000112709 6.33989e-05 2.81773e-05 7.04432e-06 0 0 8.49308e-06 3.39723e-05 7.64377e-05 0.000135889 0.000199595 0.000254822 0.000301572 0.000339843 0.000362415 0.000362065 0.000338793 0.0002926 0.000218769 0.000112586 -2.59503e-05 -0.000196839 -0.000401584 -0.000641685 -0.000917143 -0.00122796 -0.00157311 -0.00195156 -0.00236333 -0.00280841 -0.00328379 -0.00378648 -0.00431648 -0.00487379 -0.00545404 -0.00605289 -0.00667033 -0.00730637 -0.00795595 -0.00861402 -0.00928059 -0.00995564 -0.010634 -0.0113105 -0.0119852 -0.012658 -0.0133241 -0.0139785 -0.0146212 -0.0152523 -0.0158673 -0.0164619 -0.017036 -0.0175896 -0.0181191 -0.0186205 -0.019094 -0.0195395 -0.0199539 -0.0203344 -0.0206809 -0.0209934 -0.0212698 -0.0215079 -0.0217079 -0.0218697 -0.0219922 -0.0220745 -0.0221165 -0.0221183 -0.0220799 -0.0220016 -0.0218832 -0.0217249 -0.0215279 -0.0212936 -0.021022 -0.020713 -0.020369 -0.0199926 -0.0195835 -0.0191419 -0.018671 -0.0181742 -0.0176514 -0.0171026 -0.0165318 -0.015943 -0.0153362 -0.0147115 -0.0140732 -0.0134261 -0.0127699 -0.0121048 -0.0114356 -0.0107672 -0.0100995 -0.00943262 -0.0087714 -0.00812082 -0.00748087 -0.00685155 -0.00623751 -0.00564336 -0.00506912 -0.00451478 -0.00398417 -0.00348112 -0.00300561 -0.00255767 -0.00213973 -0.00175428 -0.00140129 -0.00108079 -0.000793343 -0.000539557 -0.000319428 -0.000132956 2.15751e-05 0.00014588 0.000239959 0.000303812 0.000342049 0.000359276 0.000355496 0.000330707 0.000291697 0.000245252 0.000191374 0.00013006 7.3159e-05 3.25151e-05 8.12878e-06 0 0 9.29135e-06 3.71654e-05 8.36222e-05 0.000148662 0.000217488 0.000275306 0.000322116 0.000357917 0.000374264 0.000362711 0.000323256 0.000255901 0.00015524 1.58654e-05 -0.000162222 -0.000379023 -0.000636125 -0.000935117 -0.001276 -0.00165877 -0.00208199 -0.00254423 -0.00304548 -0.00358574 -0.00416123 -0.00476815 -0.00540651 -0.0060763 -0.00677218 -0.00748879 -0.00822613 -0.00898421 -0.00975695 -0.0105383 -0.0113281 -0.0121266 -0.0129275 -0.0137248 -0.0145185 -0.0153085 -0.0160893 -0.0168552 -0.0176061 -0.0183422 -0.0190584 -0.0197498 -0.0204164 -0.0210582 -0.0216712 -0.022251 -0.0227978 -0.0233116 -0.0237891 -0.024227 -0.0246255 -0.0249844 -0.0253015 -0.0255747 -0.0258039 -0.0259891 -0.0261292 -0.0262231 -0.0262709 -0.0262725 -0.026228 -0.0261377 -0.0260016 -0.0258196 -0.0255931 -0.0253236 -0.025011 -0.0246554 -0.0242593 -0.0238253 -0.0233534 -0.0228435 -0.0222993 -0.0217244 -0.0211186 -0.0204821 -0.0198192 -0.0191344 -0.0184277 -0.017699 -0.0169534 -0.0161961 -0.0154271 -0.0146464 -0.0138595 -0.0130721 -0.0122843 -0.0114959 -0.0107129 -0.00994103 -0.00918038 -0.00843092 -0.00769825 -0.00698798 -0.00630009 -0.0056346 -0.00499623 -0.0043897 -0.00381501 -0.00327217 -0.00276432 -0.00229459 -0.00186298 -0.0014695 -0.00111505 -0.000800544 -0.000525987 -0.000291375 -9.48464e-05 6.54597e-05 0.000189544 0.000277405 0.00033435 0.000365681 0.0003714 0.000351507 0.000313954 0.000266694 0.000209727 0.000143054 8.04676e-05 3.57634e-05 8.94085e-06 0 0 9.62545e-06 3.85018e-05 8.6629e-05 0.000154007 0.000224035 0.000280109 0.000322232 0.000350402 0.00035505 0.000326607 0.000265073 0.000170447 3.67735e-05 -0.000141906 -0.000365591 -0.000634282 -0.000949517 -0.00131283 -0.00172424 -0.00218372 -0.0026893 -0.00323899 -0.00383278 -0.00447069 -0.005148 -0.00586005 -0.00660681 -0.00738829 -0.00819808 -0.00902974 -0.00988329 -0.0107587 -0.0116489 -0.0125467 -0.0134522 -0.0143654 -0.0152792 -0.0161868 -0.0170881 -0.0179831 -0.0188657 -0.0197296 -0.0205748 -0.0214012 -0.0222037 -0.022977 -0.023721 -0.0244358 -0.0251172 -0.0257608 -0.0263667 -0.0269349 -0.0274622 -0.0279453 -0.0283842 -0.0287789 -0.0291272 -0.029427 -0.0296783 -0.029881 -0.0300341 -0.0301366 -0.0301883 -0.0301895 -0.0301401 -0.0300404 -0.0298903 -0.0296898 -0.0294404 -0.0291435 -0.0287989 -0.0284067 -0.0279695 -0.0274898 -0.0269676 -0.0264029 -0.0257993 -0.0251605 -0.0244864 -0.023777 -0.023037 -0.0222709 -0.0214787 -0.0206604 -0.0198216 -0.0189676 -0.0180985 -0.0172144 -0.0163213 -0.0154257 -0.0145274 -0.0136265 -0.0127297 -0.0118436 -0.0109683 -0.0101038 -0.00925656 -0.0084333 -0.00763398 -0.0068586 -0.00611288 -0.00540251 -0.00472749 -0.00408784 -0.00348748 -0.00293035 -0.00241645 -0.00194578 -0.0015197 -0.00113957 -0.000805395 -0.000517163 -0.000272996 -7.10138e-05 8.87852e-05 0.000206401 0.000287709 0.000338587 0.000359034 0.00034905 0.000317668 0.00027392 0.000217806 0.000149326 8.3996e-05 3.73316e-05 9.33289e-06 0 0 9.49537e-06 3.79815e-05 8.54583e-05 0.000151926 0.000219234 0.000269232 0.000301919 0.000317297 0.000304772 0.000253754 0.000164243 3.62374e-05 -0.00013663 -0.000360728 -0.000636057 -0.000962616 -0.00134176 -0.00177484 -0.00226185 -0.00280281 -0.00339502 -0.00403584 -0.00472525 -0.00546325 -0.00624413 -0.00706218 -0.00791739 -0.00880977 -0.00973174 -0.0106758 -0.0116418 -0.0126299 -0.0136318 -0.0146395 -0.0156529 -0.016672 -0.017689 -0.0186964 -0.0196939 -0.0206818 -0.0216533 -0.0226017 -0.023527 -0.0244294 -0.0253033 -0.0261434 -0.0269498 -0.0277224 -0.0284571 -0.0291499 -0.0298007 -0.0304094 -0.0309733 -0.0314891 -0.031957 -0.0323769 -0.0327469 -0.033065 -0.0333312 -0.0335456 -0.0337071 -0.0338149 -0.033869 -0.0338693 -0.0338161 -0.0337094 -0.0335493 -0.0333357 -0.0330699 -0.0327532 -0.0323855 -0.0319668 -0.0314995 -0.0309859 -0.0304261 -0.0298199 -0.0291709 -0.0284825 -0.0277546 -0.0269872 -0.0261849 -0.0253523 -0.0244893 -0.0235958 -0.0226777 -0.0217405 -0.0207842 -0.0198089 -0.0188212 -0.0178279 -0.016829 -0.0158245 -0.0148219 -0.0138286 -0.0128447 -0.0118701 -0.0109124 -0.00997933 -0.00907079 -0.0081868 -0.00733412 -0.00651954 -0.00574306 -0.00500466 -0.00430921 -0.00366156 -0.0030617 -0.00250964 -0.00200731 -0.00155665 -0.00115765 -0.000810319 -0.000512875 -0.00026354 -6.23161e-05 9.07985e-05 0.000202127 0.000277993 0.000318396 0.000323337 0.000302841 0.000266932 0.000215612 0.000148878 8.37441e-05 3.72196e-05 9.3049e-06 0 0 8.90111e-06 3.56045e-05 8.011e-05 0.000142418 0.000203086 0.000242673 0.000261178 0.000258602 0.000223431 0.000144153 2.07661e-05 -0.000146728 -0.000364971 -0.000640601 -0.00097362 -0.00136403 -0.00181285 -0.00232113 -0.00288885 -0.00351603 -0.00419917 -0.00493478 -0.00572287 -0.00656343 -0.0074496 -0.00837454 -0.00933825 -0.0103407 -0.0113732 -0.0124268 -0.0135017 -0.0145977 -0.0157057 -0.0168165 -0.0179301 -0.0190464 -0.020157 -0.0212536 -0.0223361 -0.0234045 -0.024452 -0.0254714 -0.026463 -0.0274266 -0.0283571 -0.0292491 -0.0301027 -0.030918 -0.031691 -0.0324183 -0.0330996 -0.0337352 -0.0343223 -0.0348586 -0.0353439 -0.0357784 -0.0361604 -0.0364885 -0.0367626 -0.0369827 -0.0371481 -0.0372581 -0.0373128 -0.037312 -0.037256 -0.0371448 -0.0369785 -0.0367571 -0.0364815 -0.0361527 -0.0357708 -0.0353357 -0.0348494 -0.0343138 -0.0337289 -0.0330947 -0.0324142 -0.0316904 -0.0309232 -0.0301127 -0.0292632 -0.0283787 -0.0274594 -0.0265052 -0.0255218 -0.0245148 -0.0234841 -0.0224299 -0.0213591 -0.0202788 -0.0191891 -0.0180899 -0.0169895 -0.015896 -0.0148094 -0.0137298 -0.0126659 -0.0116261 -0.0106105 -0.00961917 -0.00865997 -0.00774081 -0.0068617 -0.00602265 -0.00522953 -0.00448822 -0.00379874 -0.00316108 -0.00257787 -0.00205177 -0.00158276 -0.00117084 -0.000814481 -0.00051212 -0.00026376 -6.94014e-05 7.76028e-05 0.000183899 0.000249487 0.000274368 0.000269471 0.00024573 0.000203143 0.00014171 7.9712e-05 3.54276e-05 8.85689e-06 0 0 7.73954e-06 3.09582e-05 6.96559e-05 0.000123833 0.000173123 0.00019716 0.000195945 0.000169478 0.00010549 -8.28655e-06 -0.000171852 -0.000385205 -0.000655054 -0.000988106 -0.00138436 -0.00184382 -0.002367 -0.00295443 -0.00360611 -0.00432203 -0.00509773 -0.00592872 -0.006815 -0.00775658 -0.00874533 -0.00977313 -0.01084 -0.0119458 -0.0130807 -0.0142345 -0.0154071 -0.0165987 -0.017799 -0.0189977 -0.0201948 -0.0213904 -0.0225754 -0.0237409 -0.0248869 -0.0260134 -0.0271134 -0.0281799 -0.0292131 -0.0302129 -0.0311744 -0.032093 -0.0329686 -0.0338012 -0.0345878 -0.0353255 -0.0360142 -0.036654 -0.0372431 -0.03778 -0.0382644 -0.0386966 -0.0390755 -0.0394003 -0.039671 -0.0398876 -0.0400497 -0.040157 -0.0402096 -0.0402073 -0.0401503 -0.0400387 -0.0398725 -0.0396516 -0.0393767 -0.0390483 -0.0386665 -0.0382311 -0.0377436 -0.0372051 -0.0366156 -0.0359752 -0.035286 -0.0345503 -0.033768 -0.0329392 -0.0320674 -0.0311562 -0.0302055 -0.0292155 -0.0281913 -0.0271384 -0.0260565 -0.0249459 -0.0238136 -0.0226668 -0.0215056 -0.0203299 -0.0191485 -0.0179704 -0.0167955 -0.0156237 -0.0144648 -0.0133284 -0.0122145 -0.0111231 -0.0100633 -0.00904429 -0.00806604 -0.00712856 -0.0062389 -0.00540412 -0.00462421 -0.00389917 -0.00323251 -0.00262775 -0.00208488 -0.00160389 -0.00118366 -0.000823031 -0.000522006 -0.000280584 -9.19821e-05 5.05843e-05 0.000147115 0.00019761 0.000213761 0.000207256 0.000178097 0.000126283 7.1034e-05 3.15707e-05 7.89267e-06 0 0 5.90751e-06 2.36301e-05 5.31676e-05 9.45202e-05 0.000126876 0.000129422 0.000102158 4.5085e-05 -5.45879e-05 -0.000209651 -0.000420104 -0.000685948 -0.00101369 -0.00140982 -0.00187436 -0.0024073 -0.00300841 -0.00367747 -0.00441448 -0.00521944 -0.00608668 -0.00701053 -0.007991 -0.00902808 -0.0101122 -0.0112339 -0.0123931 -0.0135898 -0.0148127 -0.0160503 -0.0173025 -0.0185695 -0.0198401 -0.0211029 -0.0223582 -0.0236057 -0.0248363 -0.0260406 -0.0272186 -0.0283703 -0.029489 -0.0305682 -0.0316079 -0.032608 -0.0335647 -0.034474 -0.035336 -0.0361507 -0.0369163 -0.037631 -0.0382949 -0.0389079 -0.0394696 -0.0399797 -0.0404379 -0.0408445 -0.0411994 -0.0415029 -0.0417548 -0.0419553 -0.0421044 -0.0422024 -0.0422493 -0.042245 -0.0421895 -0.042083 -0.0419255 -0.0417168 -0.041457 -0.041146 -0.0407839 -0.0403707 -0.0399065 -0.0393915 -0.0388258 -0.0382094 -0.0375432 -0.0368283 -0.0360646 -0.0352521 -0.0343933 -0.0334906 -0.0325441 -0.0315536 -0.0305238 -0.0294591 -0.0283596 -0.0272253 -0.0260631 -0.0248801 -0.0236763 -0.0224515 -0.0212152 -0.0199766 -0.0187356 -0.0174924 -0.0162574 -0.0150413 -0.0138442 -0.0126659 -0.0115171 -0.010408 -0.00933868 -0.00830917 -0.00732783 -0.00640301 -0.00553473 -0.00472299 -0.00397236 -0.00328742 -0.00266818 -0.00211463 -0.00162626 -0.00120255 -0.000843511 -0.000549135 -0.000312747 -0.000127673 6.08689e-06 8.85336e-05 0.000131909 0.000148454 0.00013817 0.000101057 5.68444e-05 2.52642e-05 6.31604e-06 0 0 3.40503e-06 1.36201e-05 3.06453e-05 5.44805e-05 6.43446e-05 3.94564e-05 -2.01841e-05 -0.000114577 -0.000256802 -0.000459941 -0.000723992 -0.00104896 -0.00144087 -0.00190576 -0.00244362 -0.00305447 -0.00373708 -0.00449025 -0.00531398 -0.00620826 -0.00716604 -0.00818024 -0.00925087 -0.0103779 -0.0115503 -0.0127569 -0.0139977 -0.0152727 -0.0165691 -0.0178742 -0.0191878 -0.0205101 -0.0218289 -0.0231323 -0.0244201 -0.0256924 -0.0269398 -0.0281527 -0.0293312 -0.0304753 -0.031579 -0.0326363 -0.0336474 -0.0346121 -0.0355279 -0.0363922 -0.0372051 -0.0379666 -0.0386765 -0.0393349 -0.0399417 -0.0404969 -0.0410018 -0.0414577 -0.0418645 -0.0422222 -0.0425324 -0.0427963 -0.0430142 -0.0431859 -0.0433123 -0.0433942 -0.0434318 -0.0434249 -0.0433736 -0.0432778 -0.0431375 -0.0429526 -0.0427224 -0.0424459 -0.0421232 -0.0417543 -0.041338 -0.040873 -0.0403595 -0.0397973 -0.0391858 -0.0385244 -0.037813 -0.0370516 -0.036241 -0.0353822 -0.034475 -0.0335195 -0.0325191 -0.0314771 -0.0303935 -0.0292682 -0.0281079 -0.0269189 -0.0257012 -0.024455 -0.0231896 -0.0219146 -0.0206299 -0.0193357 -0.0180435 -0.0167647 -0.0154994 -0.0142477 -0.0130212 -0.0118319 -0.0106796 -0.00956449 -0.0084963 -0.00748491 -0.00653032 -0.00563254 -0.00479741 -0.00403078 -0.00333266 -0.00270305 -0.00214227 -0.00165068 -0.00122828 -0.000875053 -0.000584692 -0.000350874 -0.000173597 -5.28628e-05 2.39159e-05 6.93246e-05 8.33634e-05 6.60322e-05 3.71431e-05 1.65081e-05 4.12701e-06 0 0 2.3209e-07 9.28361e-07 2.08881e-06 3.71344e-06 -1.44703e-05 -7.27351e-05 -0.000171081 -0.000309508 -0.000501153 -0.000759156 -0.00108352 -0.00147423 -0.0019366 -0.0024759 -0.00309215 -0.00378533 -0.00455302 -0.00539277 -0.0063046 -0.00728849 -0.00833579 -0.00943782 -0.0105946 -0.0118061 -0.0130595 -0.0143421 -0.0156537 -0.0169944 -0.01835 -0.0197062 -0.021063 -0.0224205 -0.0237656 -0.0250857 -0.0263806 -0.0276504 -0.0288857 -0.0300772 -0.0312247 -0.0323283 -0.0333832 -0.0343842 -0.0353315 -0.036225 -0.037064 -0.0378476 -0.0385759 -0.0392488 -0.0398685 -0.0404371 -0.0409545 -0.0414209 -0.0418396 -0.0422139 -0.042544 -0.0428297 -0.0430742 -0.0432807 -0.043449 -0.0435793 -0.0436732 -0.0437325 -0.0437572 -0.0437473 -0.0437026 -0.043623 -0.0435085 -0.0433591 -0.0431729 -0.042948 -0.0426844 -0.0423821 -0.0420381 -0.0416496 -0.0412166 -0.0407389 -0.0402139 -0.0396386 -0.0390132 -0.0383375 -0.0376105 -0.0368307 -0.0359983 -0.0351133 -0.0341773 -0.0331922 -0.032158 -0.0310746 -0.0299477 -0.028783 -0.0275805 -0.0263401 -0.0250715 -0.0237843 -0.0224784 -0.0211538 -0.0198231 -0.0184986 -0.0171804 -0.0158683 -0.0145758 -0.013316 -0.0120889 -0.0108945 -0.00974432 -0.00864981 -0.00761098 -0.00662782 -0.00570767 -0.00485784 -0.00407833 -0.00336915 -0.0027317 -0.00216742 -0.0016763 -0.00125834 -0.000907818 -0.000619017 -0.000391938 -0.000226579 -0.000110218 -3.0133e-05 1.36761e-05 2.12093e-05 1.19303e-05 5.30233e-06 1.32558e-06 0 0 -3.63127e-06 -1.45251e-05 -3.26815e-05 -5.81004e-05 -0.000110018 -0.000207672 -0.000351062 -0.000540187 -0.000787963 -0.0011073 -0.0014982 -0.00196067 -0.00249893 -0.00311722 -0.00381553 -0.00459387 -0.0054483 -0.00637487 -0.00737359 -0.00844445 -0.00957696 -0.0107606 -0.0119954 -0.0132813 -0.0146037 -0.0159479 -0.0173138 -0.0187015 -0.0200952 -0.0214792 -0.0228535 -0.0242181 -0.0255595 -0.026864 -0.0281317 -0.0293625 -0.0305474 -0.0316775 -0.0327527 -0.0337729 -0.0347348 -0.0356348 -0.0364729 -0.0372491 -0.037965 -0.038622 -0.0392202 -0.0397595 -0.0402449 -0.0406813 -0.0410686 -0.0414068 -0.041702 -0.0419602 -0.0421816 -0.042366 -0.0425187 -0.0426448 -0.0427444 -0.0428174 -0.0428666 -0.0428949 -0.0429022 -0.0428886 -0.0428538 -0.0427975 -0.0427197 -0.0426204 -0.0424964 -0.0423447 -0.042165 -0.0419575 -0.0417171 -0.0414386 -0.0411219 -0.0407672 -0.0403688 -0.0399214 -0.0394249 -0.0388794 -0.0382809 -0.0376256 -0.0369134 -0.0361445 -0.0353184 -0.0344347 -0.0334936 -0.0324949 -0.0314431 -0.0303426 -0.0291935 -0.0279958 -0.0267588 -0.025492 -0.0241955 -0.0228691 -0.0215263 -0.0201801 -0.0188307 -0.017478 -0.0161367 -0.0148217 -0.0135329 -0.0122703 -0.0110472 -0.00987687 -0.00875931 -0.00769453 -0.00669155 -0.00575939 -0.00489807 -0.00410758 -0.00339068 -0.00275014 -0.00218595 -0.00169812 -0.00128182 -0.000932219 -0.000649324 -0.000433134 -0.000271042 -0.000150444 -7.13398e-05 -3.37287e-05 -1.89724e-05 -8.43218e-06 -2.10804e-06 0 0 -8.20503e-06 -3.28201e-05 -7.38452e-05 -0.00013128 -0.000222749 -0.000365875 -0.000560657 -0.000807097 -0.00111755 -0.00150438 -0.00196759 -0.00250717 -0.00312593 -0.00382667 -0.00460939 -0.0054741 -0.00641501 -0.00742638 -0.00850819 -0.00966045 -0.0108706 -0.0121259 -0.0134265 -0.0147723 -0.0161467 -0.0175328 -0.0189307 -0.0203403 -0.0217445 -0.023126 -0.0244847 -0.0258207 -0.0271198 -0.0283679 -0.0295651 -0.0307112 -0.031798 -0.0328172 -0.0337686 -0.0346524 -0.0354671 -0.036211 -0.0368841 -0.0374866 -0.0380228 -0.0384973 -0.0389101 -0.0392611 -0.0395587 -0.0398112 -0.0400187 -0.0401811 -0.0403078 -0.0404082 -0.0404823 -0.0405301 -0.0405593 -0.0405777 -0.0405852 -0.0405818 -0.0405717 -0.040559 -0.0405436 -0.0405256 -0.0405046 -0.0404801 -0.0404522 -0.0404208 -0.0403811 -0.0403285 -0.0402629 -0.0401843 -0.040085 -0.0399569 -0.0398003 -0.039615 -0.0393922 -0.0391232 -0.038808 -0.0384465 -0.0380315 -0.037556 -0.0370197 -0.0364229 -0.0357622 -0.0350348 -0.0342406 -0.0333795 -0.0324543 -0.0314678 -0.0304199 -0.0293107 -0.0281491 -0.0269442 -0.0256958 -0.0244041 -0.0230829 -0.0217463 -0.0203942 -0.0190266 -0.01766 -0.0163105 -0.0149781 -0.013663 -0.0123802 -0.0111452 -0.00995794 -0.00881834 -0.00773745 -0.00672626 -0.00578478 -0.004913 -0.00411534 -0.0033962 -0.0027556 -0.00219352 -0.00170638 -0.00129059 -0.000946147 -0.000673048 -0.000459107 -0.000292135 -0.000172132 -9.90986e-05 -5.5743e-05 -2.47747e-05 -6.19367e-06 0 0 -1.34892e-05 -5.39567e-05 -0.000121403 -0.000215827 -0.000352662 -0.000547342 -0.000799867 -0.00111024 -0.00148992 -0.0019504 -0.00249167 -0.00311373 -0.0038176 -0.00460426 -0.00547373 -0.006426 -0.00745316 -0.0085473 -0.00970841 -0.0109365 -0.0122166 -0.0135337 -0.0148879 -0.0162791 -0.0176884 -0.0190968 -0.0205044 -0.021911 -0.0232981 -0.0246466 -0.0259566 -0.0272282 -0.0284467 -0.0295976 -0.0306809 -0.0316966 -0.0326375 -0.0334961 -0.0342726 -0.0349669 -0.03558 -0.0361127 -0.0365652 -0.0369375 -0.0372375 -0.0374735 -0.0376455 -0.0377533 -0.0378096 -0.0378268 -0.0378049 -0.037744 -0.0376572 -0.037558 -0.0374462 -0.0373221 -0.0371962 -0.0370793 -0.0369715 -0.0368727 -0.0367885 -0.0367248 -0.0366814 -0.0366583 -0.036655 -0.0366709 -0.036706 -0.0367602 -0.0368269 -0.0368995 -0.036978 -0.0370625 -0.0371417 -0.0372048 -0.0372517 -0.0372824 -0.0372841 -0.0372441 -0.0371624 -0.0370389 -0.0368624 -0.0366219 -0.0363172 -0.0359483 -0.0355089 -0.0349924 -0.0343989 -0.0337284 -0.0329814 -0.0321584 -0.0312596 -0.0302849 -0.0292425 -0.0281407 -0.0269794 -0.0257586 -0.024493 -0.0231971 -0.0218709 -0.0205144 -0.0191455 -0.0177822 -0.0164246 -0.0150725 -0.0137435 -0.0124549 -0.0112069 -0.00999926 -0.00884539 -0.00775845 -0.00673846 -0.00578541 -0.00490567 -0.00410562 -0.00338524 -0.00274455 -0.00218152 -0.00169414 -0.00128241 -0.000946322 -0.000674413 -0.000455206 -0.000288702 -0.0001749 -9.83815e-05 -4.37251e-05 -1.09313e-05 0 0 -1.94837e-05 -7.79348e-05 -0.000175353 -0.000311739 -0.000499758 -0.000752075 -0.00106869 -0.0014496 -0.00190507 -0.00244536 -0.00307045 -0.00378036 -0.00457392 -0.00544998 -0.00640853 -0.00744958 -0.00856274 -0.00973763 -0.0109742 -0.0122726 -0.0136151 -0.0149841 -0.0163796 -0.0178016 -0.0192288 -0.0206399 -0.0220348 -0.0234136 -0.0247558 -0.026041 -0.0272692 -0.0284405 -0.02954 -0.0305528 -0.0314791 -0.0323187 -0.0330658 -0.0337145 -0.0342646 -0.0347163 -0.0350735 -0.0353401 -0.0355162 -0.0356017 -0.0356091 -0.0355507 -0.0354264 -0.0352364 -0.0349979 -0.0347282 -0.0344273 -0.0340953 -0.03375 -0.0334094 -0.0330733 -0.0327418 -0.0324292 -0.0321497 -0.0319032 -0.0316899 -0.0315171 -0.0313922 -0.0313155 -0.0312867 -0.0313051 -0.0313699 -0.0314811 -0.0316386 -0.0318337 -0.0320577 -0.0323104 -0.0325919 -0.0328874 -0.0331821 -0.0334761 -0.0337694 -0.0340444 -0.034284 -0.034488 -0.0346565 -0.0347736 -0.0348234 -0.0348058 -0.0347209 -0.0345583 -0.0343076 -0.0339687 -0.0335416 -0.0330243 -0.0324147 -0.0317127 -0.0309184 -0.030039 -0.0290816 -0.0280462 -0.0269328 -0.0257566 -0.0245326 -0.0232607 -0.0219411 -0.0205933 -0.019237 -0.0178722 -0.0164989 -0.0151368 -0.0138059 -0.0125061 -0.0112373 -0.0100153 -0.00885595 -0.0077591 -0.0067248 -0.00576168 -0.00487837 -0.00407488 -0.00335119 -0.00270722 -0.00214286 -0.0016581 -0.00125296 -0.000916959 -0.00063965