<?xml version="1.0"?> 
<VTKFile type="StructuredGrid" version="0.1"> 
<StructuredGrid WholeExtent="0 128 0 128 0 0"> 
<Piece Extent="0 128 0 128 0 0"> 
<PointData>
<DataArray type="Float32" Name="u" format="ascii" NumberOfComponents="1"> 
0 0 0 0 0 0 0 0 0 0 0 0 0 0 0 0 0 0 0 0 0 0 0 0 0 0 0 0 0 0 0 0 0 0 0 0 0 0 0 0 0 0 0 0 0 0 0 0 0 0 0 0 0 0 0 0 0 0 0 0 0 0 0 0 0 0 0 0 0 0 0 0 0 0 0 0 0 0 0 0 0 0 0 0 0 0 0 0 0 0 0 0 0 0 0 0 0 0 0 0 0 0 0 0 0 0 0 0 0 0 0 0 0 0 0 0 0 0 0 0 0 0 0 0 0 0 0 0 0 0 2.60019e-07 1.04008e-06 2.34018e-06 4.16031e-06 6.23563e-06 8.30127e-06 1.03572e-05 1.24035e-05 1.42887e-05 1.58615e-05 1.71219e-05 1.80698e-05 1.85874e-05 1.8557e-05 1.79784e-05 1.68517e-05 1.51215e-05 1.27321e-05 9.68365e-06 5.9761e-06 1.60121e-06 -3.44927e-06 -9.17534e-06 -1.5577e-05 -2.26254e-05 -3.02918e-05 -3.85761e-05 -4.74783e-05 -5.69413e-05 -6.69079e-05 -7.73781e-05 -8.8352e-05 -9.97514e-05 -0.000111498 -0.000123593 -0.000136035 -0.00014873 -0.000161586 -0.000174603 -0.000187779 -0.00020101 -0.00021419 -0.000227318 -0.000240395 -0.000253307 -0.00026594 -0.000278294 -0.00029037 -0.000302052 -0.000313225 -0.00032389 -0.000334047 -0.000343591 -0.000352418 -0.000360528 -0.000367921 -0.000374517 -0.000380236 -0.000385078 -0.000389044 -0.00039209 -0.000394177 -0.000395302 -0.000395467 -0.000394674 -0.000392929 -0.00039023 -0.000386578 -0.000382022 -0.000376611 -0.000370346 -0.000363225 -0.000355335 -0.000346763 -0.000337507 -0.000327568 -0.000317055 -0.000306077 -0.000294632 -0.000282723 -0.000270465 -0.000257975 -0.000245253 -0.000232299 -0.000219227 -0.000206149 -0.000193066 -0.000179978 -0.000166986 -0.000154194 -0.0001416 -0.000129205 -0.000117096 -0.000105361 -9.39994e-05 -8.30112e-05 -7.2466e-05 -6.24333e-05 -5.29132e-05 -4.39055e-05 -3.54582e-05 -2.7619e-05 -2.03879e-05 -1.37649e-05 -7.77036e-06 -2.42472e-06 2.27205e-06 6.31994e-06 9.73272e-06 1.25242e-05 1.46943e-05 1.6243e-05 1.72267e-05 1.77016e-05 1.76677e-05 1.7125e-05 1.61855e-05 1.49615e-05 1.34528e-05 1.16596e-05 9.72261e-06 7.78272e-06 5.83994e-06 3.89426e-06 2.19052e-06 9.73565e-07 2.43391e-07 0 0 1.04008e-06 4.16031e-06 9.3607e-06 1.66412e-05 2.49425e-05 3.32051e-05 4.14289e-05 4.9614e-05 5.71549e-05 6.34461e-05 6.84875e-05 7.22791e-05 7.43497e-05 7.42279e-05 7.19136e-05 6.7407e-05 6.04859e-05 5.09284e-05 3.87346e-05 2.39044e-05 6.40483e-06 -1.37971e-05 -3.67014e-05 -6.2308e-05 -9.05016e-05 -0.000121167 -0.000154304 -0.000189913 -0.000227765 -0.000267632 -0.000309513 -0.000353408 -0.000399005 -0.000445993 -0.000494371 -0.000544139 -0.000594922 -0.000646346 -0.000698411 -0.000751116 -0.00080404 -0.000856758 -0.000909271 -0.000961579 -0.00101323 -0.00106376 -0.00111318 -0.00116148 -0.00120821 -0.0012529 -0.00129556 -0.00133619 -0.00137436 -0.00140967 -0.00144211 -0.00147168 -0.00149807 -0.00152094 -0.00154031 -0.00155617 -0.00156836 -0.00157671 -0.00158121 -0.00158187 -0.0015787 -0.00157172 -0.00156092 -0.00154631 -0.00152809 -0.00150645 -0.00148138 -0.0014529 -0.00142134 -0.00138705 -0.00135003 -0.00131027 -0.00126822 -0.00122431 -0.00117853 -0.00113089 -0.00108186 -0.0010319 -0.000981011 -0.000929197 -0.000876908 -0.000824598 -0.000772266 -0.000719912 -0.000667945 -0.000616774 -0.000566399 -0.00051682 -0.000468385 -0.000421444 -0.000375998 -0.000332045 -0.000289864 -0.000249733 -0.000211653 -0.000175622 -0.000141833 -0.000110476 -8.15516e-05 -5.50595e-05 -3.10815e-05 -9.69887e-06 9.08819e-06 2.52797e-05 3.89309e-05 5.00967e-05 5.87771e-05 6.49722e-05 6.8907e-05 7.08065e-05 7.06708e-05 6.84999e-05 6.47421e-05 5.98459e-05 5.38114e-05 4.66384e-05 3.88904e-05 3.11309e-05 2.33598e-05 1.5577e-05 8.76208e-06 3.89426e-06 9.73565e-07 0 0 2.34018e-06 9.3607e-06 2.10616e-05 3.74428e-05 5.61206e-05 7.47114e-05 9.3215e-05 0.000111632 0.000128599 0.000142754 0.000154097 0.000162628 0.000167287 0.000167013 0.000161806 0.000151666 0.000136093 0.000114589 8.71529e-05 5.37849e-05 1.44109e-05 -3.10435e-05 -8.25781e-05 -0.000140193 -0.000203629 -0.000272626 -0.000347184 -0.000427305 -0.000512472 -0.000602171 -0.000696403 -0.000795168 -0.000897762 -0.00100348 -0.00111233 -0.00122431 -0.00133857 -0.00145428 -0.00157142 -0.00169001 -0.00180909 -0.00192771 -0.00204586 -0.00216355 -0.00227976 -0.00239346 -0.00250465 -0.00261333 -0.00271846 -0.00281903 -0.00291501 -0.00300642 -0.00309232 -0.00317176 -0.00324475 -0.00331129 -0.00337065 -0.00342212 -0.0034657 -0.00350139 -0.00352881 -0.00354759 -0.00355772 -0.0035592 -0.00355207 -0.00353636 -0.00351207 -0.0034792 -0.0034382 -0.0033895 -0.00333311 -0.00326903 -0.00319802 -0.00312086 -0.00303756 -0.00294811 -0.0028535 -0.00275469 -0.00265169 -0.00254451 -0.00243418 -0.00232177 -0.00220727 -0.00209069 -0.00197304 -0.00185534 -0.0017376 -0.0016198 -0.00150288 -0.00138774 -0.0012744 -0.00116284 -0.00105387 -0.00094825 -0.000845994 -0.000747101 -0.000652194 -0.0005619 -0.000476218 -0.00039515 -0.000319124 -0.000248571 -0.000183491 -0.000123884 -6.99333e-05 -2.18225e-05 2.04484e-05 5.68794e-05 8.75945e-05 0.000112717 0.000132248 0.000146187 0.000155041 0.000159315 0.000159009 0.000154125 0.00014567 0.000134653 0.000121076 0.000104936 8.75035e-05 7.00445e-05 5.25595e-05 3.50483e-05 1.97147e-05 8.76208e-06 2.19052e-06 0 0 4.16031e-06 1.66412e-05 3.74428e-05 6.6565e-05 9.977e-05 0.00013282 0.000165716 0.000198456 0.00022862 0.000253784 0.00027395 0.000289117 0.000297399 0.000296912 0.000287655 0.000269628 0.000241944 0.000203714 0.000154938 9.56176e-05 2.56193e-05 -5.51884e-05 -0.000146805 -0.000249232 -0.000362007 -0.000484668 -0.000617217 -0.000759653 -0.000911061 -0.00107053 -0.00123805 -0.00141363 -0.00159602 -0.00178397 -0.00197748 -0.00217655 -0.00237969 -0.00258538 -0.00279364 -0.00300447 -0.00321616 -0.00342703 -0.00363708 -0.00384632 -0.00405291 -0.00425504 -0.00445271 -0.00464592 -0.00483283 -0.0050116 -0.00518224 -0.00534475 -0.00549746 -0.00563869 -0.00576845 -0.00588673 -0.00599226 -0.00608377 -0.00616125 -0.0062247 -0.00627345 -0.00630683 -0.00632483 -0.00632747 -0.00631479 -0.00628686 -0.00624368 -0.00618525 -0.00611236 -0.00602578 -0.00592553 -0.0058116 -0.00568537 -0.0055482 -0.00540011 -0.00524109 -0.00507288 -0.00489723 -0.00471412 -0.00452357 -0.00432743 -0.00412759 -0.00392404 -0.00371679 -0.00350763 -0.00329839 -0.00308906 -0.00287965 -0.00267178 -0.0024671 -0.0022656 -0.00206728 -0.00187354 -0.00168578 -0.00150399 -0.00132818 -0.00115946 -0.000998933 -0.000846611 -0.000702489 -0.000567332 -0.000441904 -0.000326206 -0.000220238 -0.000124326 -3.87955e-05 3.63528e-05 0.000101119 0.000155723 0.000200387 0.000235108 0.000259889 0.000275628 0.000283226 0.000282683 0.000274 0.000258968 0.000239384 0.000215245 0.000186554 0.000155562 0.000124524 9.34391e-05 6.23082e-05 3.50483e-05 1.5577e-05 3.89426e-06 0 0 6.22442e-06 2.48977e-05 5.60198e-05 9.95908e-05 0.000149198 0.000198427 0.000247279 0.000295754 0.000340193 0.000376936 0.000405983 0.000427334 0.000438153 0.000435603 0.000419684 0.000390397 0.000346416 0.000286419 0.000210404 0.000118372 1.01519e-05 -0.000114429 -0.000255371 -0.000412674 -0.000585607 -0.000773439 -0.000976171 -0.0011938 -0.00142492 -0.00166811 -0.00192336 -0.00219069 -0.00246818 -0.00275393 -0.00304792 -0.00335017 -0.00365839 -0.00397032 -0.00428596 -0.0046053 -0.0049258 -0.00524491 -0.00556263 -0.00587896 -0.00619117 -0.00649653 -0.00679503 -0.00708669 -0.00736875 -0.00763847 -0.00789585 -0.00814088 -0.00837108 -0.00858395 -0.00877949 -0.00895769 -0.00911666 -0.00925449 -0.00937117 -0.00946671 -0.00954009 -0.00959033 -0.00961742 -0.00962136 -0.00960223 -0.00956014 -0.00949507 -0.00940703 -0.0092972 -0.00916674 -0.00901566 -0.00884396 -0.00865369 -0.00844691 -0.00822361 -0.00798379 -0.00773006 -0.00746502 -0.00718866 -0.00690099 -0.0066048 -0.00630291 -0.00599529 -0.00568196 -0.00536563 -0.00504903 -0.00473214 -0.00441497 -0.00409999 -0.00378967 -0.00348399 -0.00318296 -0.0028887 -0.00260334 -0.00232687 -0.00205928 -0.0018023 -0.00155761 -0.00132522 -0.00110514 -0.000898536 -0.000706609 -0.000529355 -0.000366775 -0.000219393 -8.77336e-05 2.82023e-05 0.000128415 0.000213213 0.000282903 0.000337485 0.00037696 0.000402672 0.000415966 0.000416843 0.000405302 0.000384043 0.000355768 0.000320476 0.000278167 0.000232248 0.000186125 0.000139798 9.32665e-05 5.24624e-05 2.33166e-05 5.82916e-06 0 0 8.25645e-06 3.30258e-05 7.4308e-05 0.000132103 0.00019771 0.000262427 0.000326255 0.000389193 0.000446293 0.000492606 0.000528131 0.00055287 0.000563016 0.000554766 0.000528119 0.000483075 0.00041789 0.000330819 0.000221862 9.1019e-05 -6.18697e-05 -0.000236964 -0.000434263 -0.000653768 -0.0008944 -0.00115508 -0.00143581 -0.0017366 -0.00205543 -0.00239032 -0.00274126 -0.00310825 -0.00348865 -0.00387982 -0.00428175 -0.00469444 -0.00511481 -0.00553975 -0.00596926 -0.00640334 -0.00683857 -0.00727151 -0.00770218 -0.00813057 -0.00855303 -0.00896594 -0.0093693 -0.0097631 -0.0101437 -0.0105075 -0.0108544 -0.0111845 -0.0114945 -0.011781 -0.0120442 -0.0122839 -0.0124976 -0.0126829 -0.0128397 -0.012968 -0.0130666 -0.013134 -0.0131704 -0.0131756 -0.0131498 -0.0130931 -0.0130056 -0.0128871 -0.0127394 -0.0125638 -0.0123605 -0.0121295 -0.0118733 -0.0115948 -0.011294 -0.0109708 -0.0106287 -0.0102712 -0.00989816 -0.00950969 -0.00910948 -0.00870125 -0.00828498 -0.00786069 -0.007432 -0.00700254 -0.00657231 -0.0061413 -0.00571285 -0.00529027 -0.00487356 -0.00446273 -0.00406066 -0.00367025 -0.0032915 -0.00292442 -0.00257137 -0.00223471 -0.00191445 -0.00161059 -0.00132482 -0.00105882 -0.000812596 -0.000586147 -0.000380268 -0.000195753 -3.26017e-05 0.000109185 0.000229957 0.000330064 0.000409506 0.000468283 0.000508175 0.000530959 0.000536637 0.000525208 0.000500299 0.000465537 0.000420922 0.000366455 0.000306746 0.000246406 0.000185435 0.000123834 6.96563e-05 3.09584e-05 7.73959e-06 0 0 1.02564e-05 4.10255e-05 9.23074e-05 0.000164102 0.000245307 0.000324821 0.000402643 0.000478773 0.000546921 0.000600795 0.000640396 0.000665724 0.000671988 0.0006544 0.000612958 0.000547663 0.000456365 0.000336915 0.000189313 1.35575e-05 -0.000190446 -0.000422792 -0.000683481 -0.000972514 -0.00128839 -0.0016296 -0.00199615 -0.00238804 -0.0028026 -0.00323716 -0.00369173 -0.0041663 -0.00465742 -0.00516164 -0.00567896 -0.00620939 -0.00674894 -0.00729366 -0.00784354 -0.00839858 -0.00895446 -0.00950684 -0.0100557 -0.0106011 -0.0111385 -0.0116633 -0.0121755 -0.0126751 -0.0131577 -0.0136186 -0.014058 -0.0144757 -0.0148677 -0.01523 -0.0155625 -0.0158652 -0.0161351 -0.0163689 -0.0165668 -0.0167287 -0.0168529 -0.0169379 -0.0169836 -0.0169901 -0.0169574 -0.0168858 -0.0167751 -0.0166255 -0.0164389 -0.0162171 -0.0159601 -0.0156681 -0.0153442 -0.0149919 -0.0146112 -0.0142021 -0.0137688 -0.0133157 -0.0128426 -0.0123497 -0.0118415 -0.0113226 -0.0107931 -0.010253 -0.00970674 -0.00915893 -0.00860957 -0.00805864 -0.00751035 -0.00696892 -0.00643432 -0.00590658 -0.0053894 -0.00488651 -0.0043979 -0.00392359 -0.00346667 -0.00303024 -0.0026143 -0.00221886 -0.00184618 -0.00149854 -0.00117593 -0.000878354 -0.00060695 -0.000362852 -0.000146059 4.34279e-05 0.000205956 0.000341871 0.000451172 0.00053386 0.000592137 0.000628206 0.000642066 0.000633718 0.000607736 0.000568691 0.000516585 0.000451416 0.000379054 0.000305365 0.00023035 0.000154009 8.66301e-05 3.85023e-05 9.62557e-06 0 0 1.22242e-05 4.88969e-05 0.000110018 0.000195588 0.00029199 0.000385608 0.000476442 0.000564493 0.000642075 0.000701503 0.000742776 0.000765896 0.000765069 0.000734505 0.000674202 0.000584161 0.000461842 0.000304707 0.000112756 -0.000114012 -0.000375575 -0.000671913 -0.00100303 -0.00136891 -0.00176757 -0.00219699 -0.00265718 -0.00314812 -0.00366642 -0.00420864 -0.00477477 -0.00536484 -0.00597449 -0.0065994 -0.00723957 -0.007895 -0.00856079 -0.00923206 -0.00990881 -0.010591 -0.0112735 -0.0119509 -0.0126233 -0.0132907 -0.0139476 -0.0145886 -0.0152137 -0.0158228 -0.0164107 -0.0169719 -0.0175064 -0.0180143 -0.0184907 -0.0189307 -0.0193344 -0.0197018 -0.0200291 -0.0203126 -0.0205525 -0.0207486 -0.0208991 -0.021002 -0.0210572 -0.0210649 -0.0210251 -0.0209381 -0.0208038 -0.0206223 -0.0203957 -0.0201265 -0.0198145 -0.0194598 -0.0190664 -0.0186382 -0.0181754 -0.0176777 -0.0171504 -0.0165985 -0.016022 -0.0154209 -0.0148008 -0.014167 -0.0135197 -0.0128588 -0.0121898 -0.0115182 -0.0108439 -0.010167 -0.0094925 -0.0088256 -0.00816627 -0.00751451 -0.00687493 -0.00625211 -0.00564607 -0.00505679 -0.00448819 -0.00394418 -0.00342476 -0.00292993 -0.00246262 -0.00202576 -0.00161935 -0.0012434 -0.000899441 -0.000589033 -0.000312171 -6.88555e-05 0.00014121 0.000318323 0.000462482 0.000573689 0.000654558 0.000707706 0.00073313 0.000730833 0.000706353 0.00066523 0.000607462 0.000533052 0.000449174 0.000363004 0.000274544 0.000183793 0.000103384 4.59483e-05 1.14871e-05 0 0 1.39924e-05 5.59698e-05 0.000125932 0.000223879 0.000333703 0.000439298 0.000540661 0.000637795 0.000721619 0.000783056 0.000822105 0.000838767 0.00082629 0.000777923 0.000693668 0.000573523 0.000414628 0.000214121 -2.79981e-05 -0.000311729 -0.000636842 -0.00100311 -0.00141052 -0.00185909 -0.00234621 -0.00286925 -0.00342822 -0.00402313 -0.0046497 -0.00530368 -0.00598505 -0.00669384 -0.00742476 -0.00817255 -0.00893721 -0.00971874 -0.0105113 -0.0113092 -0.0121122 -0.0129205 -0.013728 -0.0145284 -0.0153219 -0.0161083 -0.0168815 -0.0176352 -0.0183694 -0.019084 -0.0197731 -0.0204304 -0.021056 -0.0216498 -0.0222064 -0.0227203 -0.0231915 -0.0236199 -0.0240015 -0.024332 -0.0246114 -0.0248398 -0.0250149 -0.0251345 -0.0251987 -0.0252074 -0.0251608 -0.0250592 -0.0249024 -0.0246906 -0.0244263 -0.0241121 -0.0237479 -0.0233338 -0.0228743 -0.0223739 -0.0218326 -0.0212505 -0.0206332 -0.0199866 -0.0193106 -0.0186052 -0.0178768 -0.0171316 -0.0163697 -0.015591 -0.0148018 -0.0140085 -0.0132109 -0.0124092 -0.0116093 -0.0108171 -0.0100327 -0.00925613 -0.00849276 -0.00774813 -0.00702224 -0.00631509 -0.00563145 -0.0049761 -0.00434902 -0.00375023 -0.0031834 -0.00265222 -0.00215669 -0.0016968 -0.00127462 -0.000892204 -0.000549548 -0.000246654 1.66393e-05 0.000240495 0.000424912 0.00056989 0.000678399 0.000753406 0.000794911 0.000802914 0.000783884 0.00074429 0.000684132 0.000603411 0.000510615 0.000414231 0.00031426 0.000210703 0.00011852 5.26756e-05 1.31689e-05 0 0 1.53935e-05 6.15739e-05 0.000138541 0.000246296 0.000366395 0.000480399 0.000588307 0.000690118 0.000775416 0.000833781 0.000865215 0.000869716 0.000839679 0.000767498 0.000653174 0.000496706 0.00029503 4.50816e-05 -0.000253139 -0.000599633 -0.000993828 -0.00143515 -0.00192361 -0.00245919 -0.00303856 -0.00365837 -0.00431862 -0.00501931 -0.00575524 -0.00652121 -0.00731722 -0.00814326 -0.00899311 -0.00986052 -0.0107455 -0.0116481 -0.0125615 -0.0134791 -0.014401 -0.015327 -0.0162503 -0.0171641 -0.0180684 -0.0189631 -0.0198414 -0.0206965 -0.0215282 -0.0223367 -0.0231152 -0.0238572 -0.0245626 -0.0252314 -0.0258578 -0.0264357 -0.0269651 -0.0274462 -0.0278743 -0.028245 -0.0285582 -0.028814 -0.02901 -0.0291438 -0.0292154 -0.0292248 -0.0291723 -0.0290579 -0.0288818 -0.0286439 -0.0283471 -0.027994 -0.0275847 -0.0271191 -0.0266023 -0.026039 -0.0254293 -0.0247732 -0.0240769 -0.0233466 -0.0225824 -0.0217843 -0.0209591 -0.0201137 -0.0192481 -0.0183623 -0.0174632 -0.0165579 -0.0156462 -0.0147283 -0.0138107 -0.0129003 -0.0119971 -0.011101 -0.0102184 -0.00935564 -0.0085127 -0.00768958 -0.00689196 -0.00612552 -0.00539025 -0.00468617 -0.00401779 -0.00338965 -0.00280175 -0.0022541 -0.00174937 -0.00129027 -0.000876803 -0.000508957 -0.000186836 8.94608e-05 0.000319934 0.000504583 0.000646619 0.000749254 0.000812488 0.000836321 0.000828059 0.000795009 0.000737172 0.000654546 0.000556888 0.000453953 0.000345742 0.000232253 0.000130642 5.80633e-05 1.45158e-05 0 0 1.64273e-05 6.57093e-05 0.000147846 0.000262837 0.000390066 0.000508913 0.000619379 0.000721464 0.000803465 0.000853679 0.000872105 0.000858743 0.000805237 0.000703229 0.00055272 0.000353709 0.000103049 -0.000202411 -0.000562668 -0.000977724 -0.00144653 -0.00196805 -0.00254227 -0.0031692 -0.00384463 -0.00456435 -0.00532837 -0.00613668 -0.00698305 -0.00786125 -0.00877127 -0.00971311 -0.0106795 -0.0116633 -0.0126645 -0.013683 -0.0147114 -0.015742 -0.016775 -0.0178103 -0.0188405 -0.019858 -0.0208629 -0.0218551 -0.0228274 -0.0237725 -0.0246902 -0.0255808 -0.0264371 -0.0272523 -0.0280263 -0.0287592 -0.0294448 -0.0300768 -0.0306554 -0.0311805 -0.0316475 -0.0320516 -0.0323929 -0.0326714 -0.0328845 -0.0330299 -0.0331075 -0.0331173 -0.0330595 -0.0329345 -0.032742 -0.0324822 -0.032158 -0.0317722 -0.0313248 -0.0308159 -0.0302504 -0.0296336 -0.0289654 -0.0282458 -0.0274814 -0.0266786 -0.0258375 -0.0249581 -0.0240475 -0.0231131 -0.0221548 -0.0211727 -0.020174 -0.0191664 -0.0181498 -0.0171241 -0.0160968 -0.0150752 -0.0140593 -0.0130492 -0.0120519 -0.0110746 -0.0101174 -0.00918024 -0.0082697 -0.00739244 -0.00654846 -0.00573775 -0.00496579 -0.00423806 -0.00355456 -0.00291528 -0.0023237 -0.00178325 -0.00129394 -0.000855763 -0.000469216 -0.000134779 0.000147549 0.000377766 0.000559218 0.000695251 0.000785863 0.000831055 0.000838879 0.000817387 0.000766579 0.000686455 0.000587993 0.000482171 0.000368988 0.000248446 0.000139751 6.21114e-05 1.55278e-05 0 0 1.7094e-05 6.83761e-05 0.000153846 0.000273504 0.000404714 0.000524838 0.000633878 0.000731832 0.000805767 0.000842748 0.000842775 0.000805849 0.000722964 0.000585116 0.000392306 0.000144533 -0.000161317 -0.000528355 -0.000956584 -0.001446 -0.00199496 -0.0026018 -0.00326652 -0.00398913 -0.00476442 -0.0055872 -0.00645748 -0.00737524 -0.00833313 -0.00932378 -0.0103472 -0.0114034 -0.0124841 -0.013581 -0.0146941 -0.0158235 -0.0169609 -0.0180978 -0.0192344 -0.0203706 -0.0214985 -0.0226101 -0.0237053 -0.0247843 -0.0258394 -0.0268631 -0.0278554 -0.0288163 -0.0297388 -0.0306157 -0.0314472 -0.0322331 -0.0329674 -0.0336438 -0.0342623 -0.034823 -0.035321 -0.0357519 -0.0361154 -0.0364117 -0.0366383 -0.0367927 -0.0368748 -0.0368847 -0.0368226 -0.0366887 -0.036483 -0.0362055 -0.0358591 -0.0354467 -0.0349683 -0.0344239 -0.0338187 -0.0331577 -0.032441 -0.0316685 -0.0308468 -0.0299826 -0.0290759 -0.0281266 -0.0271422 -0.0261299 -0.0250899 -0.0240221 -0.0229343 -0.0218341 -0.0207216 -0.0195967 -0.0184675 -0.0173417 -0.0162194 -0.0151006 -0.0139932 -0.0129051 -0.0118364 -0.0107871 -0.00976469 -0.00877688 -0.00782364 -0.00690497 -0.00602739 -0.00519743 -0.00441509 -0.00368036 -0.00299759 -0.00237112 -0.00180095 -0.00128707 -0.0008305 -0.000432223 -9.22431e-05 0.000189441 0.000416197 0.000591395 0.000715035 0.000787116 0.000816344 0.000811424 0.000772356 0.00069914 0.000603931 0.000498884 0.000384 0.000259279 0.000145845 6.48198e-05 1.6205e-05 0 0 1.72645e-05 6.90578e-05 0.00015538 0.000276231 0.000407234 0.00052401 0.00062656 0.000714883 0.000774931 0.000792655 0.000768055 0.00070113 0.000582399 0.000402378 0.000161068 -0.000141532 -0.000508326 -0.000942217 -0.0014432 -0.00201129 -0.00264404 -0.00333901 -0.00409621 -0.00491563 -0.00579094 -0.0067158 -0.00769019 -0.00871413 -0.00977903 -0.0108763 -0.012006 -0.013168 -0.0143531 -0.015552 -0.0167646 -0.0179911 -0.0192223 -0.0204494 -0.0216723 -0.0228911 -0.0240974 -0.0252831 -0.0264482 -0.0275926 -0.0287089 -0.0297896 -0.0308346 -0.0318441 -0.0328111 -0.0337289 -0.0345975 -0.0354168 -0.0361811 -0.0368843 -0.0375265 -0.0381077 -0.0386234 -0.0390691 -0.039445 -0.0397508 -0.0399844 -0.0401433 -0.0402275 -0.040237 -0.040172 -0.0400327 -0.0398192 -0.0395313 -0.039172 -0.0387438 -0.038247 -0.0376813 -0.0370518 -0.0363634 -0.035616 -0.0348096 -0.0339507 -0.0330455 -0.032094 -0.0310963 -0.0300595 -0.0289909 -0.0278904 -0.0267581 -0.0256017 -0.0244289 -0.0232398 -0.0220344 -0.0208208 -0.0196073 -0.0183939 -0.0171806 -0.0159761 -0.0147889 -0.0136191 -0.0124667 -0.0113403 -0.0102484 -0.00919116 -0.0081685 -0.00718811 -0.00625764 -0.00537711 -0.0045465 -0.00377121 -0.00305661 -0.00240271 -0.0018095 -0.00127867 -0.0008119 -0.000409186 -7.05284e-05 0.000207302 0.000427536 0.000590173 0.000695214 0.000751862 0.000769323 0.000747596 0.000686681 0.000599808 0.00050021 0.000387884 0.000262832 0.000147843 6.57079e-05 1.6427e-05 0 0 1.68096e-05 6.72384e-05 0.000151286 0.000268954 0.000394519 0.000502261 0.000592181 0.000664277 0.000703567 0.000695064 0.000638771 0.000534686 0.000373082 0.000144235 -0.000151857 -0.000515194 -0.000948239 -0.00145346 -0.00203085 -0.00268041 -0.00339871 -0.00418231 -0.0050312 -0.00594539 -0.00691722 -0.00793901 -0.00901078 -0.0101325 -0.0112943 -0.0124863 -0.0137085 -0.0149608 -0.016233 -0.0175148 -0.0188061 -0.020107 -0.0214081 -0.0226997 -0.023982 -0.0252549 -0.0265103 -0.0277399 -0.0289438 -0.0301219 -0.0312673 -0.0323729 -0.0334387 -0.0344648 -0.035445 -0.0363733 -0.0372496 -0.0380739 -0.0388411 -0.039546 -0.0401886 -0.0407689 -0.0412829 -0.0417268 -0.0421006 -0.0424042 -0.0426356 -0.0427927 -0.0428755 -0.042884 -0.0428183 -0.0426786 -0.042465 -0.0421774 -0.0418182 -0.0413899 -0.0408925 -0.0403259 -0.0396946 -0.0390028 -0.0382506 -0.0374379 -0.0365705 -0.0356539 -0.0346882 -0.0336734 -0.032616 -0.0315227 -0.0303934 -0.0292281 -0.0280342 -0.0268191 -0.0255827 -0.0243251 -0.0230545 -0.0217793 -0.0204993 -0.0192146 -0.0179344 -0.0166679 -0.015415 -0.0141758 -0.0129598 -0.0117767 -0.0106264 -0.00950903 -0.00843343 -0.00740854 -0.00643435 -0.00551087 -0.00464469 -0.00384243 -0.00310409 -0.00242966 -0.00182171 -0.00128283 -0.000813022 -0.000412275 -7.77185e-05 0.000193522 0.000401448 0.000546057 0.00063684 0.000683284 0.000685391 0.000643159 0.000570735 0.000482264 0.000377745 0.000257179 0.000144663 6.42947e-05 1.60737e-05 0 0 1.57295e-05 6.29178e-05 0.000141565 0.000251671 0.00036657 0.000459593 0.000530742 0.000580016 0.000591674 0.000549977 0.000454923 0.000306514 9.50133e-05 -0.000189315 -0.00054647 -0.000976453 -0.00148106 -0.00206208 -0.00271952 -0.00345337 -0.00425898 -0.00513169 -0.0060715 -0.0070784 -0.00814324 -0.00925686 -0.0104193 -0.0116304 -0.012879 -0.0141538 -0.0154548 -0.0167819 -0.0181238 -0.0194694 -0.0208186 -0.0221714 -0.0235181 -0.0248487 -0.0261634 -0.0274621 -0.0287371 -0.0299804 -0.0311921 -0.0323722 -0.0335145 -0.034613 -0.0356677 -0.0366785 -0.0376405 -0.0385488 -0.0394035 -0.0402044 -0.0409476 -0.041629 -0.0422486 -0.0428065 -0.0432996 -0.0437249 -0.0440823 -0.0443719 -0.044592 -0.044741 -0.0448189 -0.0448257 -0.0447615 -0.0446264 -0.0444204 -0.0441436 -0.0437977 -0.0433848 -0.0429048 -0.0423578 -0.041747 -0.041076 -0.0403448 -0.0395534 -0.0387062 -0.0378079 -0.0368585 -0.0358579 -0.0348117 -0.0337253 -0.0325987 -0.031432 -0.0302317 -0.0290045 -0.0277502 -0.026469 -0.0251688 -0.0238577 -0.0225356 -0.0212026 -0.0198682 -0.018542 -0.017224 -0.0159142 -0.0146232 -0.0133616 -0.0121294 -0.0109265 -0.00976337 -0.00865013 -0.00758683 -0.00657347 -0.00561806 -0.0047286 -0.00390509 -0.00314754 -0.00245962 -0.00184503 -0.00130375 -0.000835799 -0.000438864 -0.000110645 0.000148859 0.000339647 0.000471278 0.00055331 0.000585742 0.000568576 0.00051671 0.000445046 0.000353583 0.000242322 0.000136306 6.05804e-05 1.51451e-05 0 0 1.4024e-05 5.60961e-05 0.000126216 0.000224384 0.000323386 0.000396005 0.000442242 0.000462098 0.000439253 0.000357392 0.000216513 1.66162e-05 -0.000251808 -0.00059827 -0.00102277 -0.00152531 -0.00210678 -0.00276808 -0.00350921 -0.00433016 -0.00522484 -0.00618716 -0.0072171 -0.00831466 -0.00946902 -0.0106693 -0.0119156 -0.0132078 -0.0145332 -0.0158788 -0.0172448 -0.0186311 -0.0200256 -0.0214159 -0.0228021 -0.0241843 -0.0255524 -0.0268965 -0.0282166 -0.0295128 -0.0307778 -0.0320046 -0.0331932 -0.0343435 -0.0354507 -0.03651 -0.0375215 -0.0384852 -0.0393976 -0.0402556 -0.0410592 -0.0418083 -0.0425004 -0.0431332 -0.0437066 -0.0442207 -0.0446735 -0.0450633 -0.0453901 -0.0456538 -0.0458535 -0.0459881 -0.0460577 -0.0460622 -0.0460016 -0.0458761 -0.0456855 -0.04543 -0.0451107 -0.0447287 -0.0442841 -0.0437768 -0.0432091 -0.042583 -0.0418987 -0.041156 -0.0403579 -0.0395076 -0.0386049 -0.0376499 -0.0366465 -0.0355987 -0.0345066 -0.0333699 -0.0321943 -0.0309852 -0.0297424 -0.028466 -0.0271636 -0.0258425 -0.0245028 -0.0231445 -0.0217774 -0.0204113 -0.0190462 -0.0176821 -0.0163306 -0.0150033 -0.0137001 -0.0124211 -0.0111779 -0.0099824 -0.00883453 -0.0077343 -0.00669129 -0.0057151 -0.00480572 -0.00396315 -0.0031924 -0.00249848 -0.00188138 -0.0013411 -0.000876136 -0.000484967 -0.000167594 7.5983e-05 0.000255176 0.000379399 0.00044865 0.00046293 0.000437734 0.000388557 0.000315399 0.00021826 0.000122771 5.45649e-05 1.36412e-05 0 0 1.16428e-05 4.65713e-05 0.000104785 0.000186285 0.000263773 0.000309951 0.000324818 0.000308376 0.000243962 0.000114916 -7.87624e-05 -0.000337074 -0.000669012 -0.00108357 -0.00158075 -0.00216055 -0.00282269 -0.00356689 -0.00439314 -0.00530144 -0.006284 -0.00733302 -0.0084485 -0.00963044 -0.0108661 -0.0121428 -0.0134606 -0.0148194 -0.0162047 -0.0176024 -0.0190122 -0.0204342 -0.0218554 -0.0232626 -0.0246559 -0.0260351 -0.0273906 -0.0287124 -0.0300006 -0.0312552 -0.0324701 -0.0336392 -0.0347626 -0.0358402 -0.0368691 -0.0378464 -0.038772 -0.039646 -0.0404673 -0.0412347 -0.0419483 -0.0426081 -0.0432137 -0.0437648 -0.0442614 -0.0447034 -0.0450908 -0.0454232 -0.0457006 -0.0459231 -0.0460904 -0.0462025 -0.0462591 -0.0462605 -0.0462065 -0.046097 -0.0459321 -0.0457118 -0.0454362 -0.0451056 -0.04472 -0.0442793 -0.0437841 -0.0432348 -0.0426313 -0.0419738 -0.041263 -0.0405 -0.0396846 -0.0388169 -0.0378988 -0.036932 -0.0359167 -0.0348527 -0.0337439 -0.0325939 -0.0314028 -0.0301706 -0.0289037 -0.0276088 -0.0262859 -0.024935 -0.023566 -0.0221886 -0.0208029 -0.0194089 -0.0180191 -0.016646 -0.0152896 -0.0139499 -0.0126402 -0.0113739 -0.0101509 -0.00897123 -0.00784628 -0.0067874 -0.00579461 -0.00486791 -0.00401387 -0.00323907 -0.00254351 -0.00192719 -0.00138965 -0.000930431 -0.000549529 -0.000246947 -1.36833e-05 0.000159259 0.00027188 0.000324181 0.000332039 0.000311333 0.000262064 0.000184231 0.00010363 4.60576e-05 1.15144e-05 0 0 8.53543e-06 3.41417e-05 7.68189e-05 0.000136567 0.000186538 0.000199884 0.000176606 0.000116703 3.45879e-06 -0.000179843 -0.000433203 -0.000756621 -0.00115823 -0.00164616 -0.00222041 -0.00288098 -0.00362609 -0.00445393 -0.00536453 -0.00635787 -0.00742415 -0.00855361 -0.00974622 -0.011002 -0.0123061 -0.0136438 -0.015015 -0.0164197 -0.0178419 -0.0192655 -0.0206904 -0.0221167 -0.0235305 -0.024918 -0.026279 -0.0276137 -0.0289125 -0.0301662 -0.0313745 -0.0325377 -0.0336512 -0.0347105 -0.0357157 -0.0366668 -0.0375632 -0.0384046 -0.039191 -0.0399223 -0.0406004 -0.0412272 -0.0418025 -0.0423264 -0.0428014 -0.0432298 -0.0436116 -0.0439469 -0.0442375 -0.0444853 -0.0446904 -0.0448526 -0.0449729 -0.0450523 -0.0450906 -0.0450878 -0.0450439 -0.0449587 -0.0448321 -0.0446641 -0.0444538 -0.0441999 -0.0439025 -0.0435616 -0.0431754 -0.0427423 -0.0422621 -0.041735 -0.0411589 -0.0405322 -0.0398547 -0.0391265 -0.0383466 -0.0375141 -0.036629 -0.0356913 -0.0347023 -0.0336636 -0.0325751 -0.0314369 -0.030254 -0.0290317 -0.02777 -0.0264689 -0.025138 -0.0237868 -0.0224155 -0.0210241 -0.0196258 -0.0182341 -0.016849 -0.0154705 -0.0141135 -0.0127932 -0.0115094 -0.0102621 -0.00906489 -0.00793099 -0.00686044 -0.00585324 -0.00491784 -0.00406268 -0.00328776 -0.00259307 -0.00197953 -0.00144803 -0.000998568 -0.000631153 -0.000337519 -0.000109401 5.32015e-05 0.000150288 0.000197858 0.000211912 0.00019245 0.000139472 7.84532e-05 3.48681e-05 8.71702e-06 0 0 4.70183e-06 1.88073e-05 4.23165e-05 7.52293e-05 9.16809e-05 6.58064e-05 -2.39423e-06 -0.000112921 -0.000282257 -0.000526887 -0.00084681 -0.00124203 -0.00171946 -0.00228603 -0.00294174 -0.00368659 -0.00451696 -0.00542922 -0.00642338 -0.00749943 -0.0086453 -0.00984891 -0.0111102 -0.0124293 -0.013789 -0.0151722 -0.0165788 -0.0180089 -0.0194447 -0.0208682 -0.0222795 -0.0236786 -0.0250509 -0.0263819 -0.0276715 -0.0289198 -0.0301181 -0.0312576 -0.0323384 -0.0333604 -0.0343213 -0.0352187 -0.0360527 -0.0368232 -0.037533 -0.0381847 -0.0387784 -0.0393141 -0.0397971 -0.040233 -0.0406217 -0.0409632 -0.0412634 -0.0415282 -0.0417574 -0.0419511 -0.0421137 -0.0422498 -0.0423594 -0.0424424 -0.042501 -0.0425376 -0.0425519 -0.0425442 -0.042514 -0.0424611 -0.0423855 -0.0422871 -0.0421633 -0.0420114 -0.0418315 -0.0416236 -0.0413831 -0.0411056 -0.040791 -0.0404395 -0.0400456 -0.0396042 -0.0391152 -0.0385786 -0.03799 -0.037345 -0.0366435 -0.0358855 -0.0350696 -0.0341942 -0.0332594 -0.032265 -0.0312145 -0.0301112 -0.028955 -0.027746 -0.0264933 -0.025206 -0.0238841 -0.0225276 -0.0211507 -0.0197676 -0.0183782 -0.0169827 -0.0155978 -0.0142402 -0.0129099 -0.011607 -0.0103471 -0.00914585 -0.00800319 -0.00691915 -0.00590433 -0.00496932 -0.00411413 -0.00333875 -0.00264576 -0.00203775 -0.00151471 -0.00107664 -0.000716331 -0.000426581 -0.000207387 -5.87493e-05 3.51912e-05 9.02937e-05 0.000106558 8.39848e-05 4.72415e-05 2.09962e-05 5.24905e-06 0 0 1.4203e-07 5.6812e-07 1.27827e-06 2.27248e-06 -2.07984e-05 -9.22835e-05 -0.000212183 -0.000380496 -0.000613186 -0.000926215 -0.00131958 -0.00179329 -0.0023527 -0.00300319 -0.00374475 -0.00457738 -0.00549531 -0.00649274 -0.00756969 -0.00872615 -0.00994745 -0.0112189 -0.0125406 -0.0139124 -0.0153148 -0.016728 -0.0181521 -0.019587 -0.021013 -0.0224106 -0.0237795 -0.0251199 -0.0264166 -0.0276545 -0.0288335 -0.0299537 -0.0310073 -0.0319868 -0.0328921 -0.0337231 -0.0344802 -0.0351637 -0.0357734 -0.0363095 -0.0367784 -0.0371867 -0.0375343 -0.0378212 -0.0380572 -0.0382521 -0.0384059 -0.0385185 -0.0385999 -0.0386599 -0.0386986 -0.0387159 -0.0387194 -0.0387167 -0.0387077 -0.0386924 -0.0386747 -0.0386583 -0.0386433 -0.0386296 -0.0386167 -0.0386043 -0.0385922 -0.0385805 -0.0385647 -0.0385402 -0.0385071 -0.0384652 -0.038407 -0.0383246 -0.038218 -0.0380873 -0.0379231 -0.0377161 -0.0374661 -0.0371733 -0.0368291 -0.0364247 -0.0359602 -0.0354356 -0.0348458 -0.0341858 -0.0334555 -0.032655 -0.0317852 -0.0308472 -0.0298409 -0.0287664 -0.027632 -0.0264461 -0.0252086 -0.0239195 -0.0225938 -0.0212464 -0.0198774 -0.0184867 -0.0170929 -0.0157149 -0.0143526 -0.0130059 -0.011693 -0.010432 -0.00922286 -0.00806563 -0.00697332 -0.00595898 -0.00502262 -0.00416422 -0.00338836 -0.00269961 -0.00209795 -0.0015834 -0.00115012 -0.000792281 -0.000509885 -0.000302931 -0.000155962 -5.35224e-05 