<?xml version="1.0"?> 
<VTKFile type="StructuredGrid" version="0.1"> 
<StructuredGrid WholeExtent="0 128 0 128 0 0"> 
<Piece Extent="0 128 0 128 0 0"> 
<PointData>
<DataArray type="Float32" Name="u" format="ascii" NumberOfComponents="1"> 
0 0 0 0 0 0 0 0 0 0 0 0 0 0 0 0 0 0 0 0 0 0 0 0 0 0 0 0 0 0 0 0 0 0 0 0 0 0 0 0 0 0 0 0 0 0 0 0 0 0 0 0 0 0 0 0 0 0 0 0 0 0 0 0 0 0 0 0 0 0 0 0 0 0 0 0 0 0 0 0 0 0 0 0 0 0 0 0 0 0 0 0 0 0 0 0 0 0 0 0 0 0 0 0 0 0 0 0 0 0 0 0 0 0 0 0 0 0 0 0 0 0 0 0 0 0 0 0 0 0 1.85503e-07 7.4201e-07 1.66952e-06 2.96804e-06 4.53224e-06 6.25678e-06 8.14167e-06 1.01869e-05 1.23222e-05 1.44771e-05 1.66517e-05 1.8846e-05 2.09769e-05 2.29613e-05 2.47991e-05 2.64904e-05 2.79701e-05 2.91727e-05 3.00985e-05 3.07473e-05 3.10702e-05 3.10182e-05 3.05915e-05 2.97899e-05 2.85817e-05 2.69348e-05 2.48495e-05 2.23255e-05 1.93505e-05 1.59117e-05 1.20093e-05 7.64309e-06 2.82286e-06 -2.44178e-06 -8.15084e-06 -1.43043e-05 -2.0866e-05 -2.77998e-05 -3.51057e-05 -4.27837e-05 -5.07662e-05 -5.89855e-05 -6.74416e-05 -7.61346e-05 -8.49636e-05 -9.38278e-05 -0.000102727 -0.000111662 -0.000120504 -0.000129127 -0.000137531 -0.000145716 -0.000153547 -0.000160889 -0.000167742 -0.000174107 -0.00017987 -0.000184916 -0.000189245 -0.000192857 -0.000195689 -0.000197675 -0.000198815 -0.00019911 -0.000198562 -0.000197174 -0.000194946 -0.000191878 -0.00018804 -0.0001835 -0.00017826 -0.000172319 -0.000165794 -0.000158803 -0.000151345 -0.000143421 -0.000135166 -0.000126715 -0.000118069 -0.000109228 -0.000100318 -9.1464e-05 -8.26665e-05 -7.39255e-05 -6.53387e-05 -5.70041e-05 -4.89216e-05 -4.10912e-05 -3.35765e-05 -2.64413e-05 -1.96855e-05 -1.33092e-05 -7.34424e-06 -1.82273e-06 3.25535e-06 7.89e-06 1.20753e-05 1.58053e-05 1.90801e-05 2.18996e-05 2.42792e-05 2.62343e-05 2.77648e-05 2.88708e-05 2.95855e-05 2.99423e-05 2.99411e-05 2.95819e-05 2.89136e-05 2.79847e-05 2.67953e-05 2.53454e-05 2.36981e-05 2.19164e-05 2.00003e-05 1.795e-05 1.58441e-05 1.37616e-05 1.17025e-05 9.66669e-06 7.72003e-06 5.92824e-06 4.29131e-06 2.80925e-06 1.58021e-06 7.02313e-07 1.75578e-07 0 0 7.4201e-07 2.96804e-06 6.67809e-06 1.18722e-05 1.81289e-05 2.50271e-05 3.25667e-05 4.07476e-05 4.92886e-05 5.79084e-05 6.66068e-05 7.5384e-05 8.39076e-05 9.18451e-05 9.91965e-05 0.000105962 0.00011188 0.000116691 0.000120394 0.000122989 0.000124281 0.000124073 0.000122366 0.00011916 0.000114327 0.000107739 9.93979e-05 8.93022e-05 7.74019e-05 6.36469e-05 4.8037e-05 3.05723e-05 1.12914e-05 -9.76713e-06 -3.26034e-05 -5.72172e-05 -8.34641e-05 -0.000111199 -0.000140423 -0.000171135 -0.000203065 -0.000235942 -0.000269766 -0.000304538 -0.000339854 -0.000375311 -0.000410908 -0.000446646 -0.000482016 -0.000516509 -0.000550124 -0.000582863 -0.000614187 -0.000643555 -0.00067097 -0.00069643 -0.000719479 -0.000739662 -0.000756979 -0.00077143 -0.000782756 -0.0007907 -0.000795261 -0.00079644 -0.000794248 -0.000788696 -0.000779784 -0.000767512 -0.000752158 -0.000734001 -0.00071304 -0.000689276 -0.000663177 -0.000635211 -0.00060538 -0.000573683 -0.000540662 -0.00050686 -0.000472277 -0.000436913 -0.000401272 -0.000365856 -0.000330666 -0.000295702 -0.000261355 -0.000228016 -0.000195686 -0.000164365 -0.000134306 -0.000105765 -7.87421e-05 -5.32367e-05 -2.93769e-05 -7.29092e-06 1.30214e-05 3.156e-05 4.83012e-05 6.32214e-05 7.63205e-05 8.75985e-05 9.7117e-05 0.000104937 0.000111059 0.000115483 0.000118342 0.000119769 0.000119764 0.000118328 0.000115654 0.000111939 0.000107181 0.000101382 9.47922e-05 8.76655e-05 8.00014e-05 7.17999e-05 6.33764e-05 5.50464e-05 4.68099e-05 3.86668e-05 3.08801e-05 2.3713e-05 1.71653e-05 1.1237e-05 6.32082e-06 2.80925e-06 7.02313e-07 0 0 1.66952e-06 6.67809e-06 1.50257e-05 2.67124e-05 4.07901e-05 5.6311e-05 7.3275e-05 9.16821e-05 0.000110899 0.000130294 0.000149865 0.000169614 0.000188792 0.000206651 0.000223192 0.000238414 0.000251731 0.000262555 0.000270886 0.000276725 0.000279631 0.000279164 0.000275324 0.000268109 0.000257235 0.000242414 0.000223645 0.00020093 0.000174154 0.000143205 0.000108083 6.87878e-05 2.54057e-05 -2.19761e-05 -7.33576e-05 -0.000128739 -0.000187794 -0.000250199 -0.000315952 -0.000385053 -0.000456895 -0.000530869 -0.000606975 -0.000685212 -0.000764673 -0.00084445 -0.000924544 -0.00100495 -0.00108454 -0.00116214 -0.00123778 -0.00131144 -0.00138192 -0.001448 -0.00150968 -0.00156697 -0.00161883 -0.00166424 -0.0017032 -0.00173572 -0.0017612 -0.00177908 -0.00178934 -0.00179199 -0.00178706 -0.00177457 -0.00175451 -0.0017269 -0.00169236 -0.0016515 -0.00160434 -0.00155087 -0.00149215 -0.00142923 -0.00136211 -0.00129079 -0.00121649 -0.00114044 -0.00106262 -0.000983055 -0.000902861 -0.000823176 -0.000743999 -0.000665329 -0.000588049 -0.000513037 -0.000440294 -0.000369821 -0.000302189 -0.000237972 -0.00017717 -0.000119783 -6.60981e-05 -1.64046e-05 2.92981e-05 7.101e-05 0.000108678 0.000142248 0.000171721 0.000197097 0.000218513 0.000236109 0.000249883 0.000259837 0.00026627 0.000269481 0.00026947 0.000266238 0.000260222 0.000251862 0.000241158 0.000228108 0.000213283 0.000197247 0.000180003 0.00016155 0.000142597 0.000123854 0.000105322 8.70002e-05 6.94803e-05 5.33542e-05 3.86218e-05 2.52833e-05 1.42218e-05 6.32082e-06 1.58021e-06 0 0 2.96804e-06 1.18722e-05 2.67124e-05 4.74887e-05 7.25158e-05 0.000100108 0.000130267 0.00016299 0.000197154 0.000231633 0.000266427 0.000301536 0.00033563 0.00036738 0.000396786 0.000423847 0.000447521 0.000466764 0.000481575 0.000491956 0.000497123 0.000496292 0.000489464 0.000476639 0.000457307 0.000430958 0.000397592 0.000357209 0.000309608 0.000254588 0.000192148 0.000122289 4.51657e-05 -3.90685e-05 -0.000130413 -0.000228869 -0.000333856 -0.000444797 -0.000561692 -0.000684539 -0.000812259 -0.000943767 -0.00107907 -0.00121815 -0.00135942 -0.00150124 -0.00164363 -0.00178658 -0.00192806 -0.00206603 -0.0022005 -0.00233145 -0.00245675 -0.00257422 -0.00268388 -0.00278572 -0.00287792 -0.00295865 -0.00302792 -0.00308572 -0.00313102 -0.0031628 -0.00318105 -0.00318576 -0.00317699 -0.00315478 -0.00311914 -0.00307005 -0.00300863 -0.002936 -0.00285216 -0.0027571 -0.00265271 -0.00254084 -0.00242152 -0.00229473 -0.00216265 -0.00202744 -0.00188911 -0.00174765 -0.00160509 -0.00146342 -0.00132266 -0.00118281 -0.00104542 -0.000912066 -0.000782745 -0.000657459 -0.000537225 -0.000423061 -0.000314969 -0.000212947 -0.000117508 -2.91637e-05 5.20856e-05 0.00012624 0.000193205 0.000252885 0.000305282 0.000350394 0.000388468 0.000419749 0.000444237 0.000461933 0.000473368 0.000479076 0.000479057 0.000473311 0.000462617 0.000447755 0.000428725 0.000405526 0.000379169 0.000350662 0.000320006 0.0002872 0.000253506 0.000220186 0.000187239 0.000154667 0.000123521 9.48518e-05 6.8661e-05 4.49481e-05 2.52833e-05 1.1237e-05 2.80925e-06 0 0 4.53671e-06 1.81468e-05 4.08304e-05 7.25873e-05 0.00011078 0.000152769 0.000198555 0.000248138 0.000299783 0.000351751 0.000404044 0.000456661 0.000507572 0.000554746 0.000598183 0.000637882 0.000672264 0.000699745 0.000720327 0.000734009 0.000739621 0.000735992 0.000723123 0.000701014 0.00066892 0.000626096 0.000572541 0.000508257 0.000432969 0.000346401 0.000248555 0.00013943 1.92851e-05 -0.00011162 -0.000253286 -0.000405711 -0.000568004 -0.000739268 -0.000919505 -0.00110871 -0.00130524 -0.00150745 -0.00171532 -0.00192887 -0.00214563 -0.00236316 -0.00258145 -0.0028005 -0.00301723 -0.00322852 -0.00343439 -0.00363483 -0.00382657 -0.00400632 -0.00417408 -0.00432985 -0.00447086 -0.00459433 -0.00470025 -0.00478864 -0.0048579 -0.00490648 -0.00493437 -0.00494157 -0.00492815 -0.00489418 -0.00483966 -0.00476458 -0.00467065 -0.00455956 -0.0044313 -0.00428588 -0.00412616 -0.00395499 -0.00377236 -0.00357829 -0.00337607 -0.00316901 -0.00295711 -0.00274036 -0.00252183 -0.00230459 -0.00208863 -0.00187395 -0.00166294 -0.00145798 -0.00125907 -0.00106621 -0.000880948 -0.000704845 -0.000537899 -0.000380112 -0.000232275 -9.51831e-05 3.11653e-05 0.00014677 0.000251462 0.000345074 0.000427606 0.000499058 0.000559773 0.000610095 0.000650024 0.00067956 0.000699484 0.000710578 0.000712842 0.000706276 0.000692046 0.000671318 0.000644094 0.000610372 0.000571684 0.00052956 0.000484 0.000435004 0.0003845 0.000334416 0.000284751 0.000235507 0.000188307 0.000144776 0.000104913 6.87192e-05 3.86546e-05 1.71798e-05 4.29495e-06 0 0 6.27467e-06 2.50987e-05 5.6472e-05 0.000100395 0.000153055 0.000210641 0.000273154 0.000340592 0.000410512 0.000480471 0.000550467 0.000620501 0.000687769 0.000749464 0.000805589 0.000856141 0.000898971 0.000931925 0.000955005 0.00096821 0.000969992 0.0009588 0.000934637 0.000897501 0.000846453 0.000780552 0.000699799 0.000604194 0.000493444 0.000367255 0.000225628 6.85619e-05 -0.000103523 -0.000290206 -0.000491488 -0.00070737 -0.000936588 -0.00117788 -0.00143125 -0.0016967 -0.00197194 -0.00225472 -0.00254502 -0.00284286 -0.00314486 -0.00344766 -0.00375127 -0.00405568 -0.00435666 -0.00464995 -0.00493558 -0.00521352 -0.00547929 -0.00572838 -0.0059608 -0.00617654 -0.00637178 -0.00654272 -0.00668935 -0.00681167 -0.00690752 -0.00697473 -0.00701331 -0.00702325 -0.00700465 -0.0069576 -0.00688209 -0.00677814 -0.00664807 -0.00649421 -0.00631656 -0.00611512 -0.00589381 -0.00565657 -0.00540337 -0.00513424 -0.0048537 -0.00456628 -0.00427199 -0.00397082 -0.00366697 -0.00336465 -0.00306385 -0.00276458 -0.0024701 -0.00218367 -0.00190531 -0.001635 -0.00137489 -0.00112713 -0.000891723 -0.000668661 -0.000459071 -0.000264078 -8.36812e-05 8.21184e-05 0.000233028 0.000368754 0.000489296 0.000594654 0.00068522 0.000761384 0.000823147 0.000870509 0.000904464 0.000926008 0.000935139 0.000931858 0.000917714 0.000894253 0.000861477 0.000819385 0.000770062 0.000715593 0.000655978 0.000591218 0.000523977 0.00045692 0.000390048 0.00032336 0.000259146 0.000199696 0.000145009 9.50847e-05 5.34852e-05 2.37712e-05 5.9428e-06 0 0 8.18192e-06 3.27277e-05 7.36373e-05 0.000130911 0.000199342 0.000273726 0.000354063 0.000440351 0.000529344 0.000617792 0.000705696 0.000793055 0.000876219 0.000951534 0.001019 0.00107862 0.00112764 0.0011633 0.00118561 0.00119456 0.00118824 0.00116472 0.001124 0.0010661 0.000989905 0.000894327 0.000779365 0.00064502 0.000491033 0.000317149 0.000123366 -9.03144e-05 -0.000323257 -0.000574827 -0.000845022 -0.00113384 -0.00143961 -0.00176064 -0.00209693 -0.00244849 -0.00281236 -0.00318559 -0.00356817 -0.00396012 -0.00435709 -0.00475475 -0.00515309 -0.00555211 -0.00594635 -0.00633033 -0.00670405 -0.00706752 -0.00741491 -0.00774041 -0.00804403 -0.00832577 -0.00858068 -0.00880382 -0.0089952 -0.00915482 -0.00927987 -0.00936755 -0.00941786 -0.00943079 -0.00940647 -0.00934502 -0.00924644 -0.00911073 -0.0089409 -0.00873997 -0.00850794 -0.00824482 -0.00795567 -0.00764558 -0.00731455 -0.00696258 -0.00659553 -0.00621925 -0.00583375 -0.00543903 -0.00504051 -0.00464361 -0.00424834 -0.00385469 -0.00346688 -0.00308914 -0.00272145 -0.00236383 -0.00201906 -0.00168993 -0.00137644 -0.00107859 -0.000797894 -0.000535847 -0.000292454 -6.77134e-05 0.000137903 0.000323925 0.000490351 0.000637183 0.000764809 0.000873617 0.000963607 0.00103478 0.00108831 0.00112536 0.00114595 0.00115006 0.00113962 0.00111656 0.00108087 0.00103256 0.000974301 0.00090876 0.00083594 0.000755841 0.000671936 0.000587699 0.000503129 0.000418226 0.000336038 0.000259612 0.000188948 0.000124044 6.9775e-05 3.10111e-05 7.75278e-06 0 0 1.02585e-05 4.10339e-05 9.23262e-05 0.000164135 0.000249641 0.000342023 0.000441282 0.000547416 0.000656277 0.000763715 0.000869731 0.000974324 0.00107292 0.00116096 0.00123843 0.00130533 0.00135828 0.00139388 0.00141214 0.00141306 0.00139435 0.00135374 0.00129123 0.00120681 0.00109928 0.000967421 0.000811239 0.000630734 0.000425737 0.000196083 -5.82293e-05 -0.000337199 -0.000639919 -0.000965481 -0.00131389 -0.00168513 -0.00207707 -0.00248754 -0.00291655 -0.00336409 -0.00382648 -0.00430004 -0.00478477 -0.00528066 -0.00578234 -0.00628442 -0.00678691 -0.0072898 -0.00778631 -0.00826965 -0.00873982 -0.00919682 -0.00963343 -0.0100424 -0.0104238 -0.0107775 -0.0110975 -0.0113776 -0.0116178 -0.0118181 -0.011975 -0.0120849 -0.012148 -0.0121642 -0.0121336 -0.0120565 -0.0119327 -0.0117623 -0.0115491 -0.0112968 -0.0110054 -0.010675 -0.0103117 -0.00992204 -0.0095059 -0.00906331 -0.00860156 -0.00812792 -0.0076424 -0.007145 -0.00664245 -0.00614148 -0.00564209 -0.00514428 -0.00465329 -0.00417437 -0.0037075 -0.0032527 -0.00281345 -0.00239323 -0.00199205 -0.00160991 -0.00124874 -0.000910492 -0.000595153 -0.000302726 -3.39124e-05 0.000210587 0.000430773 0.000626645 0.000798539 0.000946792 0.0010714 0.00117237 0.00125102 0.00130865 0.00134527 0.00136088 0.00135777 0.00133824 0.00130228 0.00124991 0.0011844 0.00110906 0.00102388 0.000928873 0.000828378 0.000726751 0.000623994 0.000520105 0.000418983 0.000324525 0.00023673 0.000155599 8.75242e-05 3.88996e-05 9.72491e-06 0 0 1.24324e-05 4.97295e-05 0.000111891 0.000198918 0.000302176 0.000413031 0.000531484 0.000657534 0.000786029 0.000911813 0.00103489 0.00115525 0.00126736 0.00136566 0.00145015 0.00152085 0.00157371 0.00160473 0.00161391 0.00160123 0.00156413 0.00150001 0.00140888 0.00129073 0.00114433 0.000968446 0.000763075 0.000528218 0.00026389 -2.98918e-05 -0.000353128 -0.000705818 -0.00108671 -0.00149457 -0.00192937 -0.00239114 -0.0028772 -0.00338489 -0.00391421 -0.00446516 -0.00503331 -0.00561424 -0.00620794 -0.00681441 -0.00742722 -0.00803993 -0.00865256 -0.00926509 -0.00986941 -0.0104574 -0.0110291 -0.0115844 -0.0121147 -0.0126113 -0.0130743 -0.0135036 -0.0138919 -0.0142316 -0.014523 -0.0147658 -0.014956 -0.0150894 -0.0151658 -0.0151854 -0.0151483 -0.0150546 -0.0149044 -0.0146977 -0.014439 -0.0141328 -0.0137791 -0.0133779 -0.0129369 -0.0124635 -0.0119579 -0.0114201 -0.0108586 -0.0102824 -0.00969145 -0.00908565 -0.00847314 -0.00786195 -0.0072521 -0.00664358 -0.00604267 -0.00545563 -0.00488247 -0.00432318 -0.00378197 -0.00326304 -0.00276639 -0.00229202 -0.00184233 -0.00141974 -0.00102424 -0.000655833 -0.000315515 -4.28331e-06 0.000277861 0.000530917 0.000755083 0.000950552 0.00111733 0.0012554 0.00136616 0.00145097 0.00150983 0.00154274 0.00155231 0.00154117 0.00150929 0.0014567 0.00138729 0.00130499 0.0012098 0.00110171 0.000986006 0.000867985 0.000747641 0.000624976 0.000504837 0.000392072 0.00028668 0.000188662 0.000106123 4.71656e-05 1.17914e-05 0 0 1.46317e-05 5.85269e-05 0.000131685 0.000234107 0.000355169 0.000484248 0.000621343 0.000766455 0.000913315 0.00105566 0.00119348 0.00132678 0.00144899 0.00155357 0.00164049 0.00170977 0.00175678 0.00177693 0.0017702 0.0017366 0.00167334 0.00157765 0.00144952 0.00128895 0.00109483 0.000866017 0.000602526 0.000304353 -2.81732e-05 -0.000394723 -0.000795298 -0.0012299 -0.00169685 -0.00219447 -0.00272277 -0.00328176 -0.00386822 -0.00447898 -0.00511402 -0.00577336 -0.00645184 -0.00714432 -0.0078508 -0.00857129 -0.00929834 -0.0100245 -0.0107499 -0.0114743 -0.0121886 -0.0128831 -0.0135579 -0.0142131 -0.0148385 -0.0154241 -0.0159698 -0.0164757 -0.0169331 -0.0173333 -0.0176764 -0.0179625 -0.0181864 -0.0183434 -0.0184333 -0.0184563 -0.0184125 -0.0183021 -0.0181251 -0.0178815 -0.0175766 -0.0172158 -0.0167989 -0.016326 -0.015806 -0.0152477 -0.0146512 -0.0140165 -0.0133537 -0.012673 -0.0119744 -0.0112579 -0.0105329 -0.00980873 -0.00908537 -0.00836281 -0.00764833 -0.00694918 -0.00626535 -0.00559684 -0.00494855 -0.00432537 -0.0037273 -0.00315433 -0.00260938 -0.00209533 -0.00161218 -0.00115995 -0.000739999 -0.000353712 -1.08596e-06 0.000317878 0.000603109 0.000854539 0.00107217 0.00125599 0.00140732 0.00152744 0.00161635 0.00167407 0.00170341 0.00170722 0.00168549 0.00163822 0.00156991 0.00148506 0.00138366 0.00126573 0.00113753 0.0010053 0.000869068 0.000728817 0.000590458 0.000459894 0.000337125 0.000222152 0.00012496 5.55379e-05 1.38845e-05 0 0 1.68565e-05 6.74259e-05 0.000151708 0.000269704 0.000408622 0.000555674 0.000710859 0.000874178 0.00103814 0.00119524 0.0013455 0.00148891 0.00161784 0.00172468 0.00180943 0.00187209 0.00190749 0.00191047 0.00188103 0.00181916 0.001722 0.00158667 0.00141316 0.00120148 0.000950764 0.000660133 0.000329592 -4.08608e-05 -0.000450453 -0.000898412 -0.00138474 -0.00190943 -0.00247031 -0.0030652 -0.00369409 -0.00435699 -0.00505014 -0.00576981 -0.00651599 -0.00728868 -0.00808206 -0.00889029 -0.00971337 -0.0105513 -0.0113957 -0.0122382 -0.0130788 -0.0139176 -0.0147437 -0.0155467 -0.0163265 -0.0170831 -0.017805 -0.0184808 -0.0191104 -0.0196938 -0.0202212 -0.0206827 -0.0210783 -0.0214079 -0.021666 -0.0218469 -0.0219505 -0.0219769 -0.0219263 -0.0217989 -0.0215947 -0.0213138 -0.0209621 -0.0205458 -0.0200648 -0.0195192 -0.0189191 -0.0182746 -0.0175857 -0.0168525 -0.0160866 -0.0152995 -0.0144912 -0.0136618 -0.0128218 -0.0119818 -0.0111419 -0.010302 -0.00947029 -0.00865501 -0.00785614 -0.00707368 -0.00631319 -0.00558022 -0.00487477 -0.00419685 -0.00354987 -0.00293724 -0.00235898 -0.00181507 -0.00130737 -0.000837698 -0.000406067 -1.24745e-05 0.000342619 0.000658751 0.000935923 0.00117414 0.00137448 0.00153805 0.00166484 0.00175487 0.00181106 0.0018364 0.00183086 0.00179446 0.00173224 0.00164925 0.00154549 0.00142096 0.00128294 0.00113871 0.000988273 0.000831629 0.000675845 0.00052799 0.000388063 0.000256066 0.000144037 6.40165e-05 1.60041e-05 0 0 1.91067e-05 7.64267e-05 0.00017196 0.000305707 0.000462534 0.000627309 0.000800032 0.000980702 0.00116049 0.00133058 0.00149096 0.00164163 0.00177389 0.001879 0.00195697 0.00200781 0.00202583 0.00200535 0.00194639 0.00184892 0.0017101 0.00152706 0.0012998 0.00102832 0.000712145 0.000350795 -5.57274e-05 -0.000507423 -0.00100295 -0.00154096 -0.00212145 -0.00274443 -0.00340712 -0.00410675 -0.00484332 -0.00561683 -0.00642296 -0.00725738 -0.00812011 -0.00901114 -0.00992398 -0.0108521 -0.0117956 -0.0127545 -0.0137193 -0.014681 -0.0156395 -0.0165947 -0.0175349 -0.0184483 -0.0193347 -0.0201942 -0.0210141 -0.0217813 -0.0224959 -0.0231579 -0.0237562 -0.0242797 -0.0247284 -0.0251023 -0.0253949 -0.0255999 -0.0257174 -0.0257472 -0.0256897 -0.0255451 -0.0253134 -0.0249945 -0.0245954 -0.0241229 -0.0235769 -0.0229575 -0.0222761 -0.0215441 -0.0207615 -0.0199283 -0.0190575 -0.018162 -0.017242 -0.0162973 -0.0153398 -0.0143812 -0.0134217 -0.0124611 -0.0115085 -0.0105731 -0.00965486 -0.00875371 -0.00787589 -0.00702759 -0.00620882 -0.00541957 -0.00466381 -0.0039455 -0.00326463 -0.00262121 -0.00201762 -0.00145624 -0.000937082 -0.000460139 -2.63888e-05 0.00036319 0.000708598 0.00100983 0.00126765 0.00148281 0.0016553 0.00178513 0.00187527 0.0019287 0.00194542 0.00192543 0.00187429 0.00179757 0.00169526 0.00156737 0.00142224 0.0012682 0.00110526 0.000933411 0.000760998 0.000596359 0.000439495 0.000290405 0.000163353 7.26014e-05 1.81503e-05 0 0 2.12852e-05 8.51409e-05 0.000191567 0.000340564 0.000514534 0.000695883 0.000884609 0.00108071 0.00127394 0.00145405 0.00162103 0.00177488 0.0019058 0.00200396 0.00206937 0.00210202 0.00209583 0.00204469 0.0019486 0.00180757 0.00161892 0.00137996 0.0010907 0.000751131 0.000361374 -7.84593e-05 -0.000568367 -0.00110835 -0.00169632 -0.00233021 -0.00301 -0.0037357 -0.00450386 -0.00531103 -0.00615722 -0.00704243 -0.00796177 -0.0089104 -0.0098883 -0.0108955 -0.0119249 -0.0129695 -0.0140294 -0.0151044 -0.0161847 -0.0172603 -0.018331 -0.019397 -0.0204454 -0.0214632 -0.0224505 -0.0234074 -0.0243196 -0.0251732 -0.0259681 -0.0267042 -0.0273695 -0.0279515 -0.0284502 -0.0288658 -0.0291911 -0.0294189 -0.0295494 -0.0295824 -0.0295184 -0.0293575 -0.0290997 -0.028745 -0.0283011 -0.0277754 -0.027168 -0.0264789 -0.0257206 -0.0249058 -0.0240344 -0.0231066 -0.0221364 -0.0211382 -0.020112 -0.0190578 -0.0179883 -0.0169165 -0.0158423 -0.0147658 -0.0136967 -0.0126449 -0.0116104 -0.0105931 -0.00959987 -0.00863734 -0.00770554 -0.00680448 -0.00593864 -0.00511251 -0.00432608 -0.00357937 -0.00287538 -0.00221713 -0.00160462 -0.00103784 -0.000518466 -4.81403e-05 0.000373132 0.000745351 0.00106874 0.00134352 0.0015697 0.00174726 0.00187906 0.00196792 0.00201385 0.00201685 0.00198291 0.00191801 0.00182217 0.00169537 0.00154703 0.00138654 0.0012139 0.00102911 0.00084188 0.0006619 0.000489173 0.000323698 0.00018208 8.09244e-05 2.02311e-05 0 0 2.3295e-05 9.31801e-05 0.000209655 0.00037272 0.000562251 0.000758124 0.000960338 0.00116889 0.00137204 0.00155804 0.00172688 0.00187857 0.00200223 0.00208699 0.00213285 0.00213981 0.00210151 0.00201157 0.00187001 0.00167682 0.00142974 0.00112651 0.000767121 0.000351583 -0.000119143 -0.000644092 -0.00122326 -0.00185666 -0.00254124 -0.00327401 -0.00405494 -0.00488404 -0.00575711 -0.00666995 -0.00762255 -0.00861492 -0.0096417 -0.0106975 -0.0117825 -0.0128964 -0.0140321 -0.0151821 -0.0163464 -0.017525 -0.0187075 -0.0198834 -0.0210528 -0.0222155 -0.0233582 -0.024467 -0.025542 -0.0265833 -0.0275757 -0.0285041 -0.0293685 -0.0301689 -0.0308922 -0.0315249 -0.0320672 -0.0325189 -0.0328725 -0.0331201 -0.0332619 -0.0332978 -0.033228 -0.0330529 -0.0327724 -0.0323866 -0.0319036 -0.0313317 -0.0306708 -0.029921 -0.0290959 -0.0282091 -0.0272606 -0.0262504 -0.0251937 -0.0241059 -0.0229868 -0.0218366 -0.0206689 -0.0194972 -0.0183215 -0.0171419 -0.0159685 -0.0148118 -0.0136717 -0.0125482 -0.0114484 -0.0103793 -0.00934105 -0.00833355 -0.00736178 -0.0064307 -0.0055403 -0.00469059 -0.0038853 -0.00312816 -0.00241916 -0.00175832 -0.00114816 -0.000591234 -8.75306e-05 0.000362947 0.00075964 0.00110199 0.00139 0.00162366 0.00180545 0.00193785 0.00202085 0.00205445 0.00204494 0.00199858 0.00191538 0.00179535 0.0016489 0.00148647 0.00130807 0.00111368 0.000914454 0.000721509 0.000534847 0.00035447 0.000199389 8.86175e-05 2.21544e-05 0 0 2.51361e-05 0.000100544 0.000226225 0.000402177 0.000605685 0.000814033 0.00102722 0.00124525 0.0014548 0.00164256 0.00180852 0.0019527 0.00206319 0.0021281 0.00214743 0.00212118 0.00204287 0.00190601 0.00171061 0.00145666 0.00114256 0.000766695 0.000329066 -0.000170325 -0.000729406 -0.0013461 -0.00202041 -0.00275234 -0.00353771 -0.00437235 -0.00525627 -0.00618946 -0.00716688 -0.0081835 -0.00923931 -0.0103343 -0.0114627 -0.0126188 -0.0138026 -0.015014 -0.0162456 -0.0174898 -0.0187466 -0.0200161 -0.0212875 -0.0225504 -0.0238047 -0.0250504 -0.0262734 -0.0274596 -0.0286091 -0.0297219 -0.0307821 -0.0317739 -0.0326972 -0.0335521 -0.0343244 -0.0350001 -0.0355792 -0.0360616 -0.0364392 -0.0367036 -0.0368549 -0.0368931 -0.0368185 -0.0366313 -0.0363315 -0.0359191 -0.0354029 -0.0347917 -0.0340854 -0.0332841 -0.0324022 -0.0314541 -0.03044 -0.0293596 -0.0282293 -0.0270648 -0.0258664 -0.0246339 -0.0233815 -0.0221232 -0.0208592 -0.0195892 -0.0183239 -0.0170738 -0.0158388 -0.0146189 -0.0134214 -0.0122536 -0.0111154 -0.0100068 -0.00893324 -0.00790007 -0.00690727 -0.00595486 -0.00504736 -0.00418932 -0.00338072 -0.00262157 -0.00191548 -0.00126609 -0.00067339 -0.000137377 0.000340356 0.000758217 0.00111621 0.00141433 0.00165446 0.00183849 0.00196641 0.00203824 0.00206038 0.00203928 0.00197491 0.0018673 0.00172785 0.00156801 0.00138777 0.00118713 0.000978721 0.000775185 0.000576519 0.000382722 0.000215281 9.56806e-05 2.39202e-05 0 0 2.68084e-05 0.000107233 0.000241275 0.000428934 0.000644836 0.00086361 0.00108525 0.00130977 0.0015222 0.0017076 0.00186595 0.00199727 0.00208867 0.00212728 0.0021131 0.00204613 0.00191991 0.001728 0.0014704 0.0011471 0.000757379 0.000300525 -0.000223465 -0.000814593 -0.00146942 -0.00218449 -0.00295982 -0.0037954 -0.00468572 -0.00562525 -0.006614 -0.00765195 -0.00873317 -0.00985168 -0.0110075 -0.0122006 -0.0134249 -0.0146743 -0.0159487 -0.0172482 -0.0185653 -0.0198926 -0.0212301 -0.0225777 -0.0239249 -0.0252613 -0.0265868 -0.0279014 -0.0291909 -0.0304411 -0.0316519 -0.0328233 -0.0339391 -0.0349827 -0.0359542 -0.0368536 -0.0376661 -0.038377 -0.0389862 -0.0394939 -0.0398912 -0.0401694 -0.0403285 -0.0403686 -0.0402899 -0.0400927 -0.0397769 -0.0393427 -0.0387991 -0.0381555 -0.0374118 -0.036568 -0.0356393 -0.0346408 -0.0335725 -0.0324344 -0.0312431 -0.0300152 -0.0287507 -0.0274496 -0.0261261 -0.0247947 -0.0234553 -0.0221079 -0.0207629 -0.0194308 -0.0181116 -0.0168052 -0.0155189 -0.01426 -0.0130284 -0.0118242 -0.010653 -0.00952062 -0.00842701 -0.00737219 -0.00636158 -0.00540061 -0.00448928 -0.00362758 -0.00282043 -0.00207271 -0.00138445 -0.000755621 -0.000189114 0.000312202 0.000748326 0.00111926 0.00142607 0.00166983 0.00185054 0.0019682 0.00202924 0.00204009 0.00200075 0.00191122 0.00178389 0.00163115 0.001453 0.00124944 0.00103468 0.000822928 0.000614187 0.000408455 0.000229756 0.000102114 2.55284e-05 0 0 2.82212e-05 0.000112885 0.000253991 0.000451539 0.000677507 0.000903871 0.00113063 0.00135779 0.00156872 0.0017468 0.00189205 0.00200444 0.00207023 0.00207566 0.00202072 0.00190541 0.00172353 0.00146889 0.00114148 0.000741295 0.000268819 -0.000275475 -0.000891586 -0.00157952 -0.00233414 -0.00315032 -0.00402806 -0.00496736 -0.00596112 -0.00700224 -0.00809072 -0.00922656 -0.0104028 -0.0116126 -0.0128558 -0.0141325 -0.0154363 -0.0167611 -0.0181066 -0.019473 -0.0208532 -0.0222401 -0.0236336 -0.0250339 -0.0264308 -0.0278145 -0.0291849 -0.030542 -0.0318719 -0.0331606 -0.0344081 -0.0356143 -0.0367629 -0.0378372 -0.0388373 -0.0397631 -0.0405996 -0.0413315 -0.0419589 -0.0424817 -0.0428909 -0.0431774 -0.0433412 -0.0433824 -0.0433012 -0.0430979 -0.0427724 -0.0423248 -0.0417645 -0.0411012 -0.0403348 -0.0394653 -0.0385083 -0.0374793 -0.0363782 -0.0352051 -0.0339768 -0.03271 -0.0314047 -0.0300609 -0.0286926 -0.027314 -0.0259251 -0.0245258 -0.0231261 -0.0217359 -0.0203554 -0.0189844 -0.01763 -0.0162989 -0.0149912 -0.013707 -0.012452 -0.0112324 -0.0100482 -0.00889919 -0.00779193 -0.00673275 -0.00572166 -0.00475866 -0.00385017 -0.0030026 -0.00221596 -0.00149025 -0.000829928 -0.000239473 0.000281118 0.000731846 0.00111267 0.00142355 0.00166448 0.00183547 0.00194275 0.00199253 0.00198483 0.00191963 0.00181021 0.00166983 0.00149848 0.00129616 0.0010787 0.000861899 0.000645762 0.000430287 0.000242036 0.000107572 2.68929e-05 0 0 2.92839e-05 0.000117136 0.000263555 0.000468543 0.000701502 0.000931834 0.00115954 0.00138462 0.00158881 0.00175383 0.00187969 0.00196639 0.00199944 0.00196435 0.00186113 0.00168978 0.00144463 0.00112002 0.000715958 0.000232434 -0.000328496 -0.000964777 -0.00167641 -0.00246339 -0.00331853 -0.00423463 -0.00521169 -0.00624971 -0.00733975 -0.00847286 -0.00964905 -0.0108683 -0.0121227 -0.0134042 -0.0147128 -0.0160486 -0.0174053 -0.0187765 -0.0201622 -0.0215624 -0.0229709 -0.0243815 -0.025794 -0.0272086 -0.0286164 -0.0300084 -0.0313848 -0.0327454 -0.0340773 -0.0353673 -0.0366154 -0.0378217 -0.03897 -0.0400443 -0.0410444 -0.0419705 -0.0428073 -0.0435396 -0.0441675 -0.044691 -0.0451007 -0.0453877 -0.0455517 -0.0455929 -0.0455115 -0.0453077 -0.0449814 -0.0445328 -0.0439714 -0.0433069 -0.0425392 -0.0416684 -0.04071 -0.0396795 -0.038577 -0.0374023 -0.036172 -0.0349024 -0.0335934 -0.0322451 -0.0308708 -0.0294836 -0.0280835 -0.0266707 -0.0252539 -0.0238422 -0.0224355 -0.0210338 -0.0196434 -0.0182703 -0.0169146 -0.0155762 -0.0142613 -0.0129756 -0.0117194 -0.0104925 -0.00930238 -0.00815644 -0.00705468 -0.00599709 -0.00499189 -0.00404726 -0.0031632 -0.00233972 -0.00158325 -0.000900224 -0.000290651 0.000245474 0.000706631 0.0010913 0.00139948 0.00163117 0.00179213 0.00188809 0.00191906 0.00188504 0.00180002 0.00167798 0.00151892 0.00132284 0.00110715 0.000889258 0.000669152 0.000446837 0.000251346 0.000111709 2.79273e-05 0 0 2.99965e-05 0.000119986 0.000269969 0.000479944 0.000716819 0.000947499 0.00117198 0.00139028 0.00158247 0.00172868 0.00182889 0.0018831 0.00187628 0.00179336 0.00163435 0.00139924 0.0010832 0.000681402 0.000193838 -0.000379489 -0.00103457 -0.00176738 -0.00257793 -0.00346622 -0.00442261 -0.00543744 -0.00651073 -0.00764247 -0.00882161 -0.0100371 -0.011289 -0.0125772 -0.0138927 -0.0152266 -0.0165787 -0.0179491 -0.0193317 -0.0207205 -0.0221154 -0.0235164 -0.0249185 -0.0263168 -0.0277113 -0.029102 -0.0304816 -0.0318431 -0.0331864 -0.0345115 -0.035807 -0.0370611 -0.0382739 -0.0394455 -0.0405605 -0.0416039 -0.0425756 -0.0434756 -0.0442891 -0.0450013 -0.0456122 -0.0461217 -0.0465208 -0.0468002 -0.04696 -0.0470001 -0.0469207 -0.046722 -0.0464041 -0.0459668 -0.0454198 -0.0447726 -0.0440251 -0.0431773 -0.0422444 -0.0412416 -0.0401688 -0.0390259 -0.0378286 -0.0365922 -0.0353168 -0.0340023 -0.0326605 -0.0313033 -0.0299307 -0.0285427 -0.0271465 -0.0257496 -0.0243519 -0.0229534 -0.0215592 -0.0201742 -0.0187985 -0.017432 -0.0160806 -0.0147502 -0.0134407 -0.0121521 -0.0108929 -0.00967167 -0.00848832 -0.00734288 -0.00624559 -0.00520668 -0.00422616 -0.00330403 -0.00244907 -0.00167005 -0.000966981 -0.000339855 0.000207956 0.000673085 0.00105553 0.0013553 0.00157737 0.00172676 0.00180345 0.00180744 0.00175331 0.0016556 0.00151433 0.00132948 0.00112004 0.000905003 0.000684357 0.000458107 0.000257685 0.000114527 2.86317e-05 0 0 3.0359e-05 0.000121436 0.000273231 0.000485744 0.00072346 0.000950867 0.00116796 0.00137475 0.00154971 0.00167134 0.00173963 0.00175459 0.00170076 0.00156268 0.00134036 0.00103379 0.000639247 0.000153024 -0.000424883 -0.00109447 -0.00184939 -0.00268329 -0.00359616 -0.00458801 -0.00564636 -0.00675875 -0.00792517 -0.00914563 -0.0104067 -0.011695 -0.0130105 -0.0143532 -0.015713 -0.0170797 -0.0184533 -0.0198339 -0.0212157 -0.0225931 -0.0239662 -0.0253349 -0.026696 -0.0280462 -0.0293855 -0.0307139 -0.0320265 -0.0333184 -0.0345898 -0.0358404 -0.0370611 -0.0382421 -0.0393836 -0.0404856 -0.0415343 -0.0425161 -0.0434308 -0.0442785 -0.0450451 -0.0457166 -0.0462929 -0.046774 -0.0471511 -0.047415 -0.047566 -0.0476038 -0.0475288 -0.0473409 -0.0470403 -0.0466268 -0.0461098 -0.0454983 -0.0447924 -0.0439921 -0.0431116 -0.0421655 -0.0411536 -0.040076 -0.0389466 -0.0377796 -0.0365748 -0.0353323 -0.0340619 -0.0327734 -0.0314666 -0.0301417 -0.0288039 -0.0274581 -0.0261046 -0.0247432 -0.0233775 -0.0220107 -0.020643 -0.0192744 -0.0179102 -0.0165561 -0.015212 -0.013878 -0.0125636 -0.0112785 -0.0100226 -0.00879602 -0.00761126 -0.00648087 -0.00540484 -0.00438319 -0.00342739 -0.00254896 -0.00174787 -0.00102414 -0.000383355 0.000168907 0.000632641 0.00100785 0.0012985 0.00150854 0.00163799 0.00168685 0.00167009 0.00160271 0.0014847 0.00131607 0.00111737 0.000909136 0.000691379 0.000464095 0.000261053 0.000116024 2.90059e