<?xml version="1.0"?> 
<VTKFile type="StructuredGrid" version="0.1"> 
<StructuredGrid WholeExtent="0 128 0 128 0 0"> 
<Piece Extent="0 128 0 128 0 0"> 
<PointData>
<DataArray type="Float32" Name="u" format="ascii" NumberOfComponents="1"> 
0 0 0 0 0 0 0 0 0 0 0 0 0 0 0 0 0 0 0 0 0 0 0 0 0 0 0 0 0 0 0 0 0 0 0 0 0 0 0 0 0 0 0 0 0 0 0 0 0 0 0 0 0 0 0 0 0 0 0 0 0 0 0 0 0 0 0 0 0 0 0 0 0 0 0 0 0 0 0 0 0 0 0 0 0 0 0 0 0 0 0 0 0 0 0 0 0 0 0 0 0 0 0 0 0 0 0 0 0 0 0 0 0 0 0 0 0 0 0 0 0 0 0 0 0 0 0 0 0 0 2.28098e-07 9.12394e-07 2.05289e-06 3.64957e-06 5.54722e-06 7.59057e-06 9.77964e-06 1.21144e-05 1.44981e-05 1.68339e-05 1.91217e-05 2.13617e-05 2.34547e-05 2.53016e-05 2.69026e-05 2.82575e-05 2.92992e-05 2.99606e-05 3.02418e-05 3.01427e-05 2.96215e-05 2.86363e-05 2.71871e-05 2.52739e-05 2.28764e-05 1.99742e-05 1.65674e-05 1.26559e-05 8.23975e-06 3.31911e-06 -2.10605e-06 -8.03574e-06 -1.4448e-05 -2.13209e-05 -2.86544e-05 -3.64485e-05 -4.46553e-05 -5.32265e-05 -6.21623e-05 -7.14627e-05 -8.10484e-05 -9.08402e-05 -0.000100838 -0.000111042 -0.000121341 -0.000131622 -0.000141887 -0.000152134 -0.000162228 -0.000172033 -0.000181549 -0.000190776 -0.000199573 -0.000207799 -0.000215454 -0.000222539 -0.000228935 -0.000234527 -0.000239314 -0.000243296 -0.000246407 -0.000248582 -0.000249821 -0.000250124 -0.000249493 -0.000247934 -0.000245444 -0.000242025 -0.000237747 -0.000232682 -0.00022683 -0.000220192 -0.000212887 -0.000205038 -0.000196644 -0.000187705 -0.000178364 -0.000168762 -0.0001589 -0.000148778 -0.000138531 -0.000128294 -0.000118066 -0.000107849 -9.77503e-05 -8.78788e-05 -7.82346e-05 -6.88176e-05 -5.97028e-05 -5.09652e-05 -4.26047e-05 -3.46212e-05 -2.70581e-05 -1.99584e-05 -1.33222e-05 -7.14932e-06 -1.45704e-06 3.73758e-06 8.43453e-06 1.26338e-05 1.63395e-05 1.95556e-05 2.22822e-05 2.45192e-05 2.62898e-05 2.7617e-05 2.8501e-05 2.89415e-05 2.89814e-05 2.8663e-05 2.79865e-05 2.69519e-05 2.56243e-05 2.40689e-05 2.22857e-05 2.02747e-05 1.81298e-05 1.59449e-05 1.37199e-05 1.1455e-05 9.24047e-06 7.16689e-06 5.23424e-06 3.44251e-06 1.93641e-06 8.60629e-07 2.15157e-07 0 0 9.12394e-07 3.64957e-06 8.21154e-06 1.45983e-05 2.21889e-05 3.03623e-05 3.91186e-05 4.84577e-05 5.79924e-05 6.73355e-05 7.6487e-05 8.54468e-05 9.38188e-05 0.000101207 0.00010761 0.00011303 0.000117197 0.000119843 0.000120967 0.000120571 0.000118486 0.000114545 0.000108748 0.000101096 9.15056e-05 7.98969e-05 6.62695e-05 5.06235e-05 3.2959e-05 1.32764e-05 -8.42421e-06 -3.2143e-05 -5.7792e-05 -8.52836e-05 -0.000114618 -0.000145794 -0.000178621 -0.000212906 -0.000248649 -0.000285851 -0.000324194 -0.000363361 -0.000403353 -0.000444169 -0.000485364 -0.00052649 -0.000567548 -0.000608537 -0.000648914 -0.000688134 -0.000726197 -0.000763104 -0.00079829 -0.000831195 -0.000861816 -0.000890155 -0.000915742 -0.000938109 -0.000957256 -0.000973184 -0.000985628 -0.000994328 -0.000999284 -0.00100049 -0.000997974 -0.000991734 -0.000981775 -0.000968098 -0.000950987 -0.000930729 -0.000907322 -0.000880767 -0.000851549 -0.000820151 -0.000786575 -0.00075082 -0.000713455 -0.000675049 -0.000635601 -0.000595113 -0.000554124 -0.000513175 -0.000472266 -0.000431396 -0.000391001 -0.000351515 -0.000312938 -0.00027527 -0.000238811 -0.000203861 -0.000170419 -0.000138485 -0.000108232 -7.98337e-05 -5.32886e-05 -2.85973e-05 -5.82815e-06 1.49503e-05 3.37381e-05 5.05353e-05 6.5358e-05 7.82225e-05 8.91288e-05 9.80769e-05 0.000105159 0.000110468 0.000114004 0.000115766 0.000115925 0.000114652 0.000111946 0.000107808 0.000102497 9.62754e-05 8.91427e-05 8.10987e-05 7.25191e-05 6.37795e-05 5.48797e-05 4.58199e-05 3.69619e-05 2.86675e-05 2.09369e-05 1.37701e-05 7.74566e-06 3.44251e-06 8.60629e-07 0 0 2.05289e-06 8.21154e-06 1.8476e-05 3.28462e-05 4.9925e-05 6.83151e-05 8.80167e-05 0.00010903 0.000130483 0.000151505 0.000172096 0.000192255 0.000211092 0.000227715 0.000242123 0.000254317 0.000263693 0.000269646 0.000272176 0.000271285 0.000266594 0.000257727 0.000244684 0.000227465 0.000205888 0.000179768 0.000149106 0.000113903 7.41577e-05 2.9872e-05 -1.89545e-05 -7.23217e-05 -0.000130032 -0.000191888 -0.00025789 -0.000328037 -0.000401897 -0.000479039 -0.000559461 -0.000643164 -0.000729435 -0.000817562 -0.000907544 -0.00099938 -0.00109207 -0.0011846 -0.00127698 -0.00136921 -0.00146006 -0.0015483 -0.00163394 -0.00171698 -0.00179615 -0.00187019 -0.00193909 -0.00200285 -0.00206042 -0.00211075 -0.00215383 -0.00218966 -0.00221766 -0.00223724 -0.00224839 -0.00225111 -0.00224544 -0.0022314 -0.00220899 -0.00217822 -0.00213972 -0.00209414 -0.00204147 -0.00198173 -0.00191598 -0.00184534 -0.00176979 -0.00168935 -0.00160527 -0.00151886 -0.0014301 -0.001339 -0.00124678 -0.00115464 -0.0010626 -0.000970642 -0.000879753 -0.000790909 -0.000704111 -0.000619359 -0.000537326 -0.000458687 -0.000383442 -0.000311591 -0.000243523 -0.000179626 -0.000119899 -6.43439e-05 -1.31133e-05 3.36382e-05 7.59108e-05 0.000113704 0.000147055 0.000176001 0.00020054 0.000220673 0.000236608 0.000248553 0.000256509 0.000260474 0.000260832 0.000257967 0.000251879 0.000242567 0.000230618 0.00021662 0.000200571 0.000182472 0.000163168 0.000143504 0.000123479 0.000103095 8.31642e-05 6.4502e-05 4.71081e-05 3.09826e-05 1.74277e-05 7.74566e-06 1.93641e-06 0 0 3.64957e-06 1.45983e-05 3.28462e-05 5.83932e-05 8.87555e-05 0.000121449 0.000156474 0.000193831 0.00023197 0.000269342 0.000305948 0.000341787 0.000375275 0.000404826 0.000430441 0.000452119 0.000468787 0.00047937 0.000483869 0.000482284 0.000473944 0.000458181 0.000434994 0.000404383 0.000366023 0.000319588 0.000265078 0.000202494 0.000131836 5.31058e-05 -3.36968e-05 -0.000128572 -0.000231168 -0.000341134 -0.00045847 -0.000583177 -0.000714484 -0.000851625 -0.000994597 -0.0011434 -0.00129677 -0.00145344 -0.00161341 -0.00177668 -0.00194145 -0.00210596 -0.00227019 -0.00243415 -0.00259565 -0.00275254 -0.00290479 -0.00305241 -0.00319316 -0.00332478 -0.00344726 -0.00356062 -0.00366297 -0.00375244 -0.00382903 -0.00389273 -0.00394251 -0.00397731 -0.00399714 -0.00400198 -0.0039919 -0.00396694 -0.0039271 -0.00387239 -0.00380395 -0.00372291 -0.00362929 -0.00352307 -0.00340619 -0.00328061 -0.0031463 -0.00300328 -0.00285382 -0.00270019 -0.00254241 -0.00238045 -0.0022165 -0.0020527 -0.00188906 -0.00172559 -0.00156401 -0.00140606 -0.00125175 -0.00110108 -0.000955245 -0.000815443 -0.000681675 -0.00055394 -0.00043293 -0.000319335 -0.000213154 -0.000114389 -2.33126e-05 5.98013e-05 0.000134952 0.000202141 0.000261432 0.00031289 0.000356515 0.000392307 0.000420637 0.000441873 0.000456015 0.000463064 0.000463702 0.000458608 0.000447784 0.00043123 0.000409988 0.000385102 0.000356571 0.000324395 0.000290077 0.000255118 0.000219519 0.00018328 0.000147847 0.00011467 8.37478e-05 5.50802e-05 3.09826e-05 1.37701e-05 3.44251e-06 0 0 5.5487e-06 2.21948e-05 4.99383e-05 8.87792e-05 0.000134881 0.000184409 0.000237361 0.000293739 0.000351171 0.000407289 0.000462091 0.000515578 0.00056534 0.000608967 0.000646459 0.000677815 0.000701414 0.000715632 0.00072047 0.000715927 0.00070101 0.000674721 0.000637062 0.000588033 0.00052717 0.00045401 0.000368554 0.0002708 0.000160783 3.8535e-05 -9.59428e-05 -0.000242651 -0.000401031 -0.000570527 -0.000751138 -0.000942864 -0.00114452 -0.00135494 -0.00157411 -0.00180203 -0.00203679 -0.00227644 -0.002521 -0.00277046 -0.00302211 -0.00327326 -0.00352389 -0.00377401 -0.00402032 -0.00425952 -0.00449161 -0.00471659 -0.00493106 -0.00513158 -0.00531817 -0.00549083 -0.0056467 -0.00578295 -0.00589958 -0.00599658 -0.00607237 -0.00612535 -0.00615552 -0.00616288 -0.00614751 -0.0061095 -0.00604883 -0.0059655 -0.00586126 -0.00573783 -0.00559521 -0.00543341 -0.00525535 -0.00506399 -0.00485932 -0.00464135 -0.00441351 -0.00417927 -0.00393862 -0.00369157 -0.00344139 -0.00319135 -0.00294146 -0.00269172 -0.00244476 -0.00220322 -0.0019671 -0.0017364 -0.00151295 -0.00129856 -0.00109324 -0.000896989 -0.000710866 -0.000535935 -0.000372195 -0.000219647 -7.87305e-05 5.01148e-05 0.000166889 0.000271591 0.000364291 0.000445056 0.000513886 0.000570781 0.000616274 0.000650896 0.000674648 0.000687529 0.000690554 0.000684739 0.000670082 0.000646584 0.000615822 0.000579372 0.000537235 0.00048941 0.000438183 0.000385838 0.000332376 0.000277796 0.000224314 0.000174148 0.000127296 8.37591e-05 4.71145e-05 2.09398e-05 5.23494e-06 0 0 7.5965e-06 3.0386e-05 6.83685e-05 0.000121544 0.000184504 0.000251838 0.000323548 0.000399632 0.000476807 0.000551788 0.000624573 0.000695164 0.000760261 0.000816563 0.00086407 0.000902783 0.000930507 0.000945047 0.000946403 0.000934575 0.000908262 0.000866162 0.000808276 0.000734602 0.000644591 0.000537691 0.000413902 0.000273224 0.000115786 -5.82832e-05 -0.000248984 -0.000456316 -0.000679453 -0.000917571 -0.00117067 -0.00143875 -0.00172016 -0.00201326 -0.00231805 -0.00263453 -0.00296006 -0.003292 -0.00363036 -0.00397513 -0.00432264 -0.00466919 -0.00501479 -0.00535944 -0.00569865 -0.00602793 -0.00634729 -0.00665672 -0.00695158 -0.00722722 -0.00748363 -0.00772083 -0.00793493 -0.00812205 -0.0082822 -0.00841538 -0.00851942 -0.00859213 -0.00863353 -0.00864361 -0.00862248 -0.00857024 -0.0084869 -0.00837244 -0.00822925 -0.00805967 -0.0078637 -0.00764136 -0.00739664 -0.00713355 -0.00685209 -0.00655226 -0.00623877 -0.00591631 -0.00558487 -0.00524447 -0.00489956 -0.00455461 -0.0042096 -0.00386454 -0.00352303 -0.00318865 -0.0028614 -0.00254129 -0.00223082 -0.00193248 -0.00164627 -0.0013722 -0.00111175 -0.000866401 -0.000636163 -0.000421032 -0.000221672 -3.87459e-05 0.000127745 0.000277802 0.000411437 0.000528664 0.000629484 0.000713895 0.000782548 0.000836093 0.00087453 0.000897858 0.000907411 0.000904521 0.000889189 0.000861415 0.000823333 0.00077708 0.000722656 0.00066006 0.000592425 0.00052288 0.000451427 0.000378065 0.000305868 0.000237911 0.000174193 0.000114716 6.45275e-05 2.86789e-05 7.16972e-06 0 0 9.79298e-06 3.91719e-05 8.81369e-05 0.000156688 0.000237622 0.000323738 0.000415034 0.000511512 0.000608877 0.000702838 0.000793394 0.000880545 0.000960036 0.00102761 0.00108328 0.00112702 0.00115607 0.00116761 0.00116167 0.00113823 0.0010957 0.0010325 0.000948633 0.00084409 0.000718284 0.000570629 0.000401123 0.000209766 -3.1533e-06 -0.000237349 -0.00049282 -0.000769567 -0.00106643 -0.00138227 -0.00171707 -0.00207083 -0.00244139 -0.00282659 -0.00322642 -0.00364088 -0.00406658 -0.00450011 -0.00494149 -0.0053907 -0.00584303 -0.00629377 -0.00674291 -0.00719045 -0.00763065 -0.00805778 -0.00847182 -0.00887279 -0.00925473 -0.00961168 -0.00994364 -0.0102506 -0.0105276 -0.0107697 -0.0109769 -0.0111491 -0.0112837 -0.0113777 -0.0114312 -0.0114442 -0.0114168 -0.0113492 -0.0112413 -0.0110932 -0.0109079 -0.0106884 -0.0104348 -0.0101469 -0.00983005 -0.00948927 -0.0091246 -0.00873604 -0.00832959 -0.0079113 -0.00748116 -0.00703916 -0.00659102 -0.00614246 -0.00569347 -0.00524404 -0.0047988 -0.00436233 -0.00393465 -0.00351574 -0.00310885 -0.00271718 -0.00234076 -0.00197956 -0.00163557 -0.00131073 -0.00100506 -0.000718544 -0.000452136 -0.000206781 1.75219e-05 0.000220772 0.00040287 0.000563715 0.000703308 0.000821649 0.00091946 0.000997464 0.00105566 0.00109405 0.00111427 0.00111796 0.00110511 0.00107572 0.00103252 0.000978227 0.000912835 0.000836346 0.000752803 0.000666245 0.000576672 0.000484086 0.000392507 0.000305958 0.000224439 0.000147949 8.32216e-05 3.69874e-05 9.24684e-06 0 0 1.21381e-05 4.85526e-05 0.000109243 0.00019421 0.000294237 0.000400107 0.00051182 0.000629377 0.000747382 0.000860441 0.000968554 0.00107172 0.00116467 0.00124212 0.00130407 0.00135054 0.00137809 0.00138334 0.00136627 0.00132688 0.00126333 0.00117375 0.00105813 0.000916495 0.000748251 0.000552825 0.000330217 8.04269e-05 -0.000196036 -0.000498662 -0.000827451 -0.0011824 -0.00156197 -0.00196461 -0.00239033 -0.00283911 -0.00330822 -0.00379492 -0.00429921 -0.00482109 -0.00535635 -0.00590078 -0.00645439 -0.00701716 -0.00758329 -0.00814698 -0.00870823 -0.00926703 -0.00981633 -0.0103491 -0.0108652 -0.0113648 -0.0118405 -0.012285 -0.0126982 -0.0130802 -0.0134249 -0.013726 -0.0139837 -0.0141979 -0.0143651 -0.014482 -0.0145484 -0.0145646 -0.0145304 -0.0144463 -0.0143121 -0.0141278 -0.0138972 -0.0136241 -0.0133084 -0.0129501 -0.0125556 -0.0121312 -0.0116769 -0.0111927 -0.010686 -0.0101643 -0.00962747 -0.00907563 -0.00851577 -0.00795492 -0.00739307 -0.00683023 -0.00627208 -0.00572428 -0.00518684 -0.00465976 -0.00414704 -0.00365269 -0.0031767 -0.00271909 -0.00228233 -0.00186893 -0.00147888 -0.00111218 -0.000770123 -0.00045399 -0.000163781 0.000100502 0.000338589 0.000550208 0.000735359 0.000894042 0.00102701 0.00113501 0.00121804 0.00127611 0.00131114 0.00132504 0.00131783 0.00128951 0.00124339 0.00118281 0.00110777 0.00101827 0.000919316 0.000815931 0.000708113 0.00059586 0.000484233 0.000378291 0.000278034 0.000183461 0.000103197 4.58652e-05 1.14663e-05 0 0 1.45291e-05 5.81165e-05 0.000130762 0.000232466 0.00035183 0.000477455 0.000609343 0.000747493 0.000885322 0.00101625 0.00114027 0.0012574 0.00136128 0.00144561 0.00151036 0.00155556 0.00157717 0.00157121 0.00153765 0.00147651 0.00138573 0.00126325 0.00110906 0.00092317 0.000705109 0.000454409 0.00017107 -0.000144908 -0.0004927 -0.000871477 -0.00128124 -0.00172199 -0.00219172 -0.00268842 -0.00321209 -0.00376273 -0.00433699 -0.00493153 -0.00554635 -0.00618144 -0.00683179 -0.00749236 -0.00816317 -0.0088442 -0.00952859 -0.0102094 -0.0108868 -0.0115605 -0.0122224 -0.012864 -0.0134853 -0.0140864 -0.0146584 -0.0151928 -0.0156895 -0.0161485 -0.0165625 -0.0169242 -0.0172337 -0.0174908 -0.0176916 -0.0178319 -0.0179116 -0.0179309 -0.0178899 -0.0177887 -0.0176274 -0.0174061 -0.017129 -0.0168008 -0.0164214 -0.0159907 -0.0155164 -0.015006 -0.0144595 -0.0138769 -0.013267 -0.0126386 -0.0119917 -0.0113263 -0.0106508 -0.00997355 -0.00929448 -0.0086136 -0.00793768 -0.00727342 -0.00662085 -0.00597996 -0.00535553 -0.00475235 -0.00417042 -0.00360975 -0.00307339 -0.00256439 -0.00208275 -0.00162848 -0.00120328 -0.000808821 -0.000445121 -0.000112175 0.000189482 0.000459315 0.000697326 0.000903513 0.00107857 0.00122317 0.00133734 0.00142105 0.00147647 0.00150575 0.00150888 0.00148587 0.00144064 0.0013771 0.00129527 0.00119513 0.00108272 0.000964058 0.000839145 0.000707982 0.000576749 0.000451624 0.000332609 0.000219703 0.000123583 5.49258e-05 1.37314e-05 0 0 1.6863e-05 6.74521e-05 0.000151767 0.000269808 0.000407881 0.000552292 0.00070304 0.000860126 0.0010157 0.00116192 0.00129878 0.00142628 0.00153702 0.00162361 0.00168604 0.00172432 0.0017339 0.00171022 0.00165329 0.00156309 0.0014375 0.00127437 0.00107369 0.000835463 0.000559478 0.000245514 -0.00010643 -0.000496354 -0.000922984 -0.00138505 -0.00188255 -0.00241548 -0.00298131 -0.00357747 -0.00420398 -0.00486083 -0.00554406 -0.00624969 -0.00697774 -0.0077282 -0.00849528 -0.0092732 -0.0100619 -0.0108615 -0.0116641 -0.0124617 -0.0132545 -0.0140423 -0.0148156 -0.0155649 -0.01629 -0.0169911 -0.0176581 -0.0182809 -0.0188597 -0.0193944 -0.0198765 -0.0202977 -0.020658 -0.0209573 -0.021191 -0.0213542 -0.021447 -0.0214693 -0.0214214 -0.0213035 -0.0211157 -0.0208578 -0.0205351 -0.0201527 -0.0197105 -0.0192087 -0.0186558 -0.0180607 -0.0174232 -0.0167435 -0.0160316 -0.0152976 -0.0145417 -0.0137637 -0.0129733 -0.0121799 -0.0113837 -0.0105847 -0.00979041 -0.00900871 -0.00823956 -0.00748296 -0.00674444 -0.00602953 -0.00533822 -0.00467053 -0.00403007 -0.0034205 -0.0028418 -0.00229399 -0.00177923 -0.00129972 -0.000855454 -0.000446428 -7.35665e-05 0.000262208 0.000560897 0.000822499 0.00104751 0.00123641 0.0013892 0.0015059 0.00158875 0.00164004 0.00165976 0.00164792 0.00160896 0.00154737 0.00146313 0.00135625 0.00123377 0.00110274 0.000963169 0.000815048 0.000665757 0.000522673 0.000385797 0.000255129 0.00014351 6.37823e-05 1.59456e-05 0 0 1.91399e-05 7.65595e-05 0.000172259 0.000306238 0.000462392 0.000624617 0.000792912 0.000967277 0.00113852 0.00129745 0.00144406 0.00157836 0.00169187 0.00177612 0.00183111 0.00185684 0.00184827 0.00180038 0.00171316 0.00158662 0.00141864 0.00120711 0.000952017 0.000653376 0.000311358 -7.38626e-05 -0.000502285 -0.000973909 -0.00148689 -0.00203938 -0.00263138 -0.00326289 -0.00393075 -0.00463179 -0.00536601 -0.00613342 -0.00692942 -0.0077494 -0.00859339 -0.00946136 -0.0103468 -0.0112433 -0.0121507 -0.0130692 -0.0139898 -0.0149039 -0.0158114 -0.0167123 -0.017596 -0.0184516 -0.0192793 -0.020079 -0.0208394 -0.0215493 -0.0222088 -0.0228178 -0.0233669 -0.0238465 -0.0242567 -0.0245974 -0.0248632 -0.0250489 -0.0251545 -0.0251798 -0.0251251 -0.0249908 -0.0247768 -0.024483 -0.0241154 -0.0236797 -0.0231759 -0.022604 -0.0219738 -0.0212951 -0.020568 -0.0197924 -0.0189798 -0.0181414 -0.0172774 -0.0163877 -0.015483 -0.0145741 -0.0136609 -0.0127434 -0.0118303 -0.0109301 -0.010043 -0.00916877 -0.00831378 -0.00748423 -0.00668011 -0.00590142 -0.0051524 -0.00443727 -0.00375603 -0.0031087 -0.002498 -0.00192669 -0.00139478 -0.000902256 -0.000450556 -4.11132e-05 0.000326072 0.000650999 0.000933825 0.00117471 0.00137365 0.00153064 0.00164797 0.00172792 0.00177047 0.00177564 0.00174837 0.00169361 0.00161136 0.00150161 0.00137246 0.00123198 0.00108018 0.000917056 0.000751257 0.000591438 0.000437598 0.000289739 0.000162978 7.24347e-05 1.81087e-05 0 0 2.13597e-05 8.54388e-05 0.000192237 0.000341755 0.000515363 0.00069443 0.000878957 0.00106894 0.00125378 0.00142284 0.00157613 0.00171365 0.00182584 0.00190314 0.00194556 0.00195309 0.00192029 0.00184169 0.00171729 0.0015471 0.00132914 0.00106146 0.00074405 0.000376908 -3.92518e-05 -0.000503719 -0.00101649 -0.00157757 -0.00218441 -0.00283447 -0.00352773 -0.00426421 -0.00504004 -0.00585136 -0.00669818 -0.00758049 -0.00849307 -0.00943067 -0.0103933 -0.0113809 -0.0123864 -0.0134026 -0.0144295 -0.0154671 -0.0165057 -0.0175359 -0.0185575 -0.0195706 -0.0205635 -0.0215243 -0.0224532 -0.02335 -0.0242024 -0.024998 -0.0257369 -0.0264189 -0.0270336 -0.0275705 -0.0280296 -0.0284109 -0.0287084 -0.0289161 -0.0290341 -0.0290623 -0.029001 -0.0288505 -0.0286107 -0.0282817 -0.0278699 -0.0273818 -0.0268173 -0.0261765 -0.0254703 -0.0247094 -0.0238939 -0.0230237 -0.0221116 -0.02117 -0.0201989 -0.0191984 -0.0181802 -0.017156 -0.0161259 -0.0150898 -0.0140573 -0.0130377 -0.0120311 -0.0110374 -0.0100635 -0.00911645 -0.00819607 -0.00730243 -0.00644035 -0.00561469 -0.00482544 -0.0040726 -0.00335957 -0.00268974 -0.0020631 -0.00147966 -0.000941485 -0.000450649 -7.14961e-06 0.000389013 0.000737526 0.00103808 0.00129067 0.00149529 0.00165414 0.00176938 0.00184101 0.00186905 0.00185886 0.00181582 0.00173995 0.00163123 0.0014988 0.00135179 0.00119019 0.00101401 0.00083325 0.000657918 0.000488012 0.000323533 0.000181987 8.08832e-05 2.02208e-05 0 0 2.34063e-05 9.36253e-05 0.000210657 0.000374501 0.000563968 0.000757868 0.000956202 0.00115897 0.00135408 0.00152946 0.0016851 0.001821 0.00192656 0.00199118 0.00201485 0.00199758 0.00193361 0.00181717 0.00164826 0.0014269 0.00115142 0.000820185 0.000433199 -9.54017e-06 -0.000506592 -0.00105651 -0.00165931 -0.00231497 -0.00302009 -0.00377128 -0.00456852 -0.00541182 -0.00629655 -0.00721809 -0.00817644 -0.0091716 -0.0101977 -0.011249 -0.0123254 -0.0134269 -0.0145459 -0.0156746 -0.016813 -0.0179612 -0.0191089 -0.0202459 -0.0213722 -0.0224877 -0.02358 -0.0246365 -0.0256571 -0.0266419 -0.0275774 -0.0284504 -0.0292608 -0.0300087 -0.0306826 -0.0312712 -0.0317743 -0.0321921 -0.0325181 -0.0327456 -0.0328748 -0.0329055 -0.0328382 -0.032673 -0.03241 -0.0320492 -0.0315975 -0.031062 -0.0304428 -0.0297397 -0.0289646 -0.0281292 -0.0272336 -0.0262778 -0.0252753 -0.0242397 -0.023171 -0.0220691 -0.0209468 -0.0198166 -0.0186785 -0.0175324 -0.0163886 -0.0152571 -0.0141378 -0.0130308 -0.0119435 -0.0108834 -0.00985032 -0.00884439 -0.007871 -0.00693558 -0.00603813 -0.00517864 -0.00436124 -0.00359002 -0.002865 -0.00218617 -0.00155639 -0.000978522 -0.00045257 2.14668e-05 0.000442619 0.000809917 0.00112336 0.00138295 0.00159059 0.00174821 0.00185579 0.00191334 0.00192657 0.00190118 0.00183716 0.00173453 0.00160341 0.00145397 0.00128619 0.00110007 0.000907031 0.000718463 0.000534372 0.000354756 0.00019955 8.8689e-05 2.21723e-05 0 0 2.51636e-05 0.000100655 0.000226473 0.000402618 0.000605385 0.000811069 0.00101967 0.00123118 0.00143205 0.00160868 0.0017611 0.00188929 0.00198169 0.00202674 0.00202444 0.00197479 0.0018719 0.00170986 0.00148869 0.00120839 0.000867857 0.000466021 2.87933e-06 -0.000521568 -0.0011049 -0.0017447 -0.00244097 -0.00319371 -0.00399846 -0.00485078 -0.00575066 -0.00669811 -0.00768767 -0.00871389 -0.00977676 -0.0108763 -0.0120061 -0.0131599 -0.0143376 -0.0155393 -0.0167569 -0.0179825 -0.019216 -0.0204575 -0.0216964 -0.0229221 -0.0241347 -0.0253343 -0.0265076 -0.0276417 -0.0287366 -0.0297923 -0.0307948 -0.0317299 -0.0325978 -0.0333985 -0.0341198 -0.0347497 -0.0352881 -0.0357351 -0.0360838 -0.0363271 -0.0364652 -0.036498 -0.0364257 -0.0362487 -0.035967 -0.0355805 -0.0350968 -0.0345232 -0.0338598 -0.0331066 -0.032276 -0.0313805 -0.0304201 -0.0293949 -0.028319 -0.0272068 -0.0260582 -0.0248733 -0.0236651 -0.0224468 -0.0212183 -0.0199797 -0.0187415 -0.017514 -0.0162972 -0.0150911 -0.0139035 -0.0127422 -0.0116071 -0.0104982 -0.00942142 -0.00838277 -0.00738221 -0.00641975 -0.00550029 -0.00462873 -0.00380507 -0.00302931 -0.00230529 -0.00163685 -0.00102399 -0.000466715 3.31163e-05 0.000473631 0.000854828 0.00117671 0.00144069 0.00164819 0.0017992 0.00189374 0.00193766 0.00193683 0.00189126 0.00180093 0.00167694 0.00153036 0.00136119 0.00116942 0.000967895 0.000769424 0.000574011 0.000381655 0.000214681 9.54137e-05 2.38534e-05 0 0 2.66316e-05 0.000106527 0.000239685 0.000426106 0.000639614 0.000854032 0.00106936 0.0012856 0.00148767 0.00166051 0.00180413 0.00191851 0.00199122 0.00200982 0.00197432 0.00188472 0.00173515 0.00151977 0.00123858 0.000891572 0.000478464 -1.0299e-06 -0.00054691 -0.00115918 -0.00183419 -0.00256829 -0.0033615 -0.0042138 -0.00511952 -0.00607297 -0.00707416 -0.00812308 -0.00921339 -0.0103387 -0.0114991 -0.0126946 -0.0139182 -0.0151634 -0.01643 -0.0177181 -0.0190196 -0.0203264 -0.0216385 -0.0229559 -0.0242681 -0.0255645 -0.0268452 -0.0281102 -0.0293462 -0.03054 -0.0316918 -0.0328014 -0.0338544 -0.0348366 -0.0357479 -0.0365882 -0.0373451 -0.038006 -0.0385709 -0.0390399 -0.0394056 -0.0396608 -0.0398055 -0.0398397 -0.0397636 -0.0395777 -0.0392817 -0.0388759 -0.0383678 -0.0377654 -0.0370685 -0.0362772 -0.0354045 -0.0344632 -0.0334534 -0.032375 -0.0312428 -0.0300714 -0.0288607 -0.0276108 -0.026335 -0.0250465 -0.0237454 -0.0224317 -0.0211159 -0.0198083 -0.0185091 -0.0172183 -0.0159436 -0.0146929 -0.0134663 -0.0122637 -0.0110916 -0.00995624 -0.00885768 -0.00779592 -0.00677672 -0.00580585 -0.0048833 -0.00400909 -0.0031882 -0.00242564 -0.00172142 -0.00107553 -0.000490983 2.92173e-05 0.00048507 0.000876573 0.00120442 0.00146932 0.00167126 0.00181024 0.00189213 0.00192279 0.00190223 0.00183045 0.00171938 0.00158095 0.00141518 0.00122206 0.00101584 0.000810801 0.000606929 0.000404229 0.000227379 0.000101057 2.52643e-05 0 0 2.78104e-05 0.000111241 0.000250293 0.000444966 0.000666655 0.000886757 0.00110527 0.0013222 0.00152095 0.00168495 0.00181418 0.00190866 0.00195515 0.00194043 0.0018645 0.00172736 0.00152337 0.00124689 0.000897918 0.00047645 -1.67614e-05 -0.000580968 -0.00121617 -0.00192236 -0.00269444 -0.00352728 -0.00442087 -0.00537524 -0.00638326 -0.00743786 -0.00853901 -0.00968674 -0.0108737 -0.0120927 -0.0133436 -0.0146264 -0.0159341 -0.0172595 -0.0186026 -0.0199633 -0.0213339 -0.0227063 -0.0240804 -0.0254565 -0.0268241 -0.0281731 -0.0295036 -0.0308154 -0.0320957 -0.0333314 -0.0345225 -0.035669 -0.0367565 -0.0377704 -0.0387109 -0.0395779 -0.0403586 -0.0410402 -0.0416228 -0.0421064 -0.0424834 -0.0427465 -0.0428955 -0.0429306 -0.0428519 -0.0426598 -0.0423542 -0.0419352 -0.0414106 -0.0407885 -0.0400689 -0.0392517 -0.0383501 -0.0373773 -0.0363334 -0.0352183 -0.0340467 -0.0328334 -0.0315784 -0.0302817 -0.0289565 -0.0276159 -0.0262598 -0.0248884 -0.0235118 -0.0221402 -0.0207737 -0.0194123 -0.0180636 -0.0167355 -0.015428 -0.0141411 -0.0128815 -0.011656 -0.0104645 -0.00930716 -0.00819054 -0.00712139 -0.00609971 -0.0051255 -0.00420511 -0.00334489 -0.00254485 -0.00180499 -0.00112968 -0.000523322 1.40857e-05 0.000482545 0.000881801 0.0012116 0.00147195 0.00166283 0.00178997 0.00185905 0.00187009 0.00182307 0.00173072 0.00160576 0.00144817 0.00125797 0.00105088 0.000842593 0.000633127 0.000422479 0.000237645 0.00010562 2.64049e-05 0 0 2.8609e-05 0.000114436 0.000257481 0.000457744 0.000684317 0.000906289 0.00112366 0.00133644 0.00152654 0.00167592 0.00178456 0.00185247 0.00186579 0.00181064 0.00168703 0.00149496 0.00122924 0.000884667 0.000461254 -4.10039e-05 -0.00062002 -0.00127371 -0.00200207 -0.0028051 -0.00367592 -0.00460764 -0.00560026 -0.00665379 -0.00775949 -0.00890865 -0.0101013 -0.0113374 -0.0126086 -0.0139067 -0.0152316 -0.0165834 -0.0179547 -0.0193383 -0.0207341 -0.0221421 -0.0235549 -0.024965 -0.0263724 -0.0277772 -0.0291698 -0.0305409 -0.0318905 -0.0332185 -0.0345127 -0.0357607 -0.0369626 -0.0381183 -0.0392138 -0.040235 -0.0411819 -0.0420545 -0.0428401 -0.043526 -0.0441121 -0.0445986 -0.0449779 -0.0452424 -0.0453922 -0.0454273 -0.0453479 -0.0451542 -0.0448463 -0.044424 -0.0438955 -0.0432687 -0.0425435 -0.0417199 -0.0408112 -0.0398302 -0.0387771 -0.0376518 -0.0364687 -0.0352422 -0.0339723 -0.032659 -0.0313148 -0.0299522 -0.0285714 -0.0271721 -0.0257641 -0.0243567 -0.02295 -0.021544 -0.0201461 -0.0187636 -0.0173965 -0.0160448 -0.0147155 -0.0134155 -0.012145 -0.0109037 -0.00969954 -0.00854008 -0.00742537 -0.00635539 -0.00533806 -0.00438129 -0.00348507 -0.00264941 -0.00188037 -0.001184 -0.000560315 -9.30175e-06 0.000467542 0.000868721 0.00119424 0.00144409 0.00162359 0.00173806 0.00178749 0.00177188 0.0017046 0.001599 0.00145508 0.00127285 0.00106944 0.000861996 0.000650527 0.000435028 0.000244703 0.000108757 2.71893e-05 0 0 2.89369e-05 0.000115747 0.000260432 0.00046299 0.000690408 0.000909673 0.00112078 0.00132374 0.00149909 0.00162736 0.00170856 0.00174268 0.00171544 0.00161254 0.00143397 0.00117974 0.000845406 0.000426537 -7.68715e-05 -0.000664818 -0.00133351 -0.00207917 -0.00290178 -0.00380136 -0.00476889 -0.00579537 -0.00688081 -0.00802521 -0.00921799 -0.0104486 -0.011717 -0.0130232 -0.0143579 -0.0157118 -0.0170849 -0.0184771 -0.0198813 -0.0212901 -0.0227035 -0.0241216 -0.0255378 -0.0269456 -0.028345 -0.029736 -0.0311106 -0.0324608 -0.0337865 -0.0350877 -0.0363535 -0.0375729 -0.0387459 -0.0398725 -0.0409396 -0.0419341 -0.0428559 -0.0437051 -0.0444695 -0.0451368 -0.0457072 -0.0461806 -0.0465496 -0.0468069 -0.0469525 -0.0469864 -0.0469088 -0.0467199 -0.0464197 -0.0460081 -0.0454929 -0.0448819 -0.0441749 -0.0433721 -0.042486 -0.041529 -0.0405012 -0.0394026 -0.0382467 -0.0370468 -0.035803 -0.0345153 -0.0331949 -0.0318531 -0.0304899 -0.0291053 -0.0277075 -0.0263048 -0.0248972 -0.0234846 -0.0220736 -0.0206707 -0.0192759 -0.0178893 -0.0165178 -0.0151684 -0.0138411 -0.0125359 -0.0112615 -0.0100267 -0.00883138 -0.00767561 -0.00656909 -0.0055215 -0.00453285 -0.00360314 -0.00274045 -0.00195284 -0.00124032 -0.00060289 -4.3631e-05 0.000434364 0.000831095 0.00114656 0.0013854 0.00155224 0.0016471 0.00166995 0.00163462 0.00155491 0.00143082 0.00126234 0.00106797 0.000866209 0.000657052 0.0004405 0.000247781 0.000110125 2.75312e-05 0 0 2.87939e-05 0.000115176 0.000259145 0.000460702 0.000684929 0.000896908 0.00109664 0.00128412 0.00143859 0.00153927 0.00158618 0.00157929 0.00150411 0.00134612 0.00110531 0.000781697 0.000371886 -0.000127499 -0.000716459 -0.00139499 -0.00215724 -0.00299735 -0.00391531 -0.00491113 -0.00597333 -0.00709047 -0.00826252 -0.0094895 -0.0107588 -0.0120577 -0.0133862 -0.0147443 -0.0161218 -0.0175081 -0.0189034 -0.0203076 -0.0217137 -0.0231148 -0.0245108 -0.0259017 -0.0272825 -0.028648 -0.0299982 -0.0313331 -0.0326466 -0.0339328 -0.0351917 -0.0364231 -0.0376182 -0.038768 -0.0398725 -0.0409316 -0.0419338 -0.0428675 -0.0437328 -0.0445296 -0.0452467 -0.0458728 -0.046408 -0.0468522 -0.0471985 -0.0474398 -0.0475763 -0.0476079 -0.0475347 -0.0473569 -0.0470744 -0.0466873 -0.0462028 -0.0456281 -0.0449633 -0.0442082 -0.0433745 -0.0424738 -0.0415059 -0.0404709 -0.0393808 -0.0382474 -0.0370707 -0.0358508 -0.0345969 -0.0333184 -0.0320154 -0.0306879 -0.0293421 -0.0279845 -0.0266151 -0.0252338 -0.023846 -0.0224569 -0.0210664 -0.0196747 -0.0182884 -0.0169145 -0.0155529 -0.0142037 -0.0128765 -0.0115812 -0.0103177 -0.00908616 -0.00789819 -0.00676553 -0.0056882 -0.00466619 -0.00370992 -0.00282984 -0.00202594 -0.00129822 -0.000651717 -9.14715e-05 0.000382517 0.000770249 0.00107539 0.00130161 0.00144891 0.00151728 0.00152079 0.00147349 0.00137538 0.00122645 0.00104648 0.000855231 0.000652702 0.000438894 0.000246878 0.000109724 2.74309e-05 0 0 2.81801e-05 0.00011272 0.000253621 0.000450882 0.00066788 0.000867995 0.00105123 0.00121757 0.00134505 0.00141166 0.00141741 0.0013623 0.0012318 0.00101139 0.00070107 0.000300839 -0.000191324 -0.00077744 -0.00145751 -0.00223153 -0.00309121 -0.00402825 -0.00504265 -0.00613442 -0.00728927 -0.00849293 -0.0097454 -0.0110467 -0.0123818 -0.0137359 -0.0151088 -0.0165007 -0.0179001 -0.0192956 -0.0206871 -0.0220748 -0.0234521 -0.0248124 -0.026156 -0.0274826 -0.0287891 -0.0300722 -0.0313319 -0.0325683 -0.0337778 -0.034957 -0.036106 -0.0372247 -0.0383068 -0.0393459 -0.0403422 -0.0412954 -0.0421963 -0.0430354 -0.0438127 -0.0445281 -0.0451719 -0.045734 -0.0462146 -0.0466135 -0.0469245 -0.0471412 -0.0472636 -0.0472917 -0.0472256 -0.0470652 -0.0468106 -0.0464618 -0.0460252 -0.0455075 -0.0449085 -0.0442282 -0.0434769 -0.0426645 -0.0417911 -0.0408566 -0.039871 -0.0388439 -0.0377753 -0.0366653 -0.0355207 -0.0343483 -0.033148 -0.0319199 -0.0306679 -0.0293959 -0.0281039 -0.0267918 -0.0254634 -0.0241221 -0.0227679 -0.0214009 -0.0200274 -0.018654 -0.0172805 -0.015907 -0.0145444 -0.0132036 -0.0118844 -0.010587 -0.00932537 -0.00811339 -0.00695112 -0.00583854 -0.00478879 -0.003815 -0.00291716 -0.00209529 -0.00135672 -0.000708784 -0.000151495 0.000315151 0.000693566 0.000986158 0.00119293 0.00131388 0.00136311 0.00135474 0.00128877 0.00116519 0.00100496 0.000829061 0.000637477 0.000430211 0.000241994 0.000107553 2.68882e-05 0 0 2.70355e-05 0.00