<?xml version="1.0"?> 
<VTKFile type="StructuredGrid" version="0.1"> 
<StructuredGrid WholeExtent="0 128 0 128 0 0"> 
<Piece Extent="0 128 0 128 0 0"> 
<PointData>
<DataArray type="Float32" Name="u" format="ascii" NumberOfComponents="1"> 
0 0 0 0 0 0 0 0 0 0 0 0 0 0 0 0 0 0 0 0 0 0 0 0 0 0 0 0 0 0 0 0 0 0 0 0 0 0 0 0 0 0 0 0 0 0 0 0 0 0 0 0 0 0 0 0 0 0 0 0 0 0 0 0 0 0 0 0 0 0 0 0 0 0 0 0 0 0 0 0 0 0 0 0 0 0 0 0 0 0 0 0 0 0 0 0 0 0 0 0 0 0 0 0 0 0 0 0 0 0 0 0 0 0 0 0 0 0 0 0 0 0 0 0 0 0 0 0 0 0 -1.08802e-07 -4.35206e-07 -9.79214e-07 -1.74083e-06 -2.85037e-06 -4.43819e-06 -6.50428e-06 -9.04863e-06 -1.21336e-05 -1.58217e-05 -2.01128e-05 -2.5007e-05 -3.04935e-05 -3.65615e-05 -4.3211e-05 -5.0442e-05 -5.82094e-05 -6.6468e-05 -7.52179e-05 -8.44589e-05 -9.41228e-05 -0.000104141 -0.000114514 -0.000125241 -0.000136236 -0.000147414 -0.000158773 -0.000170315 -0.000181944 -0.000193566 -0.000205181 -0.000216788 -0.000228298 -0.00023962 -0.000250754 -0.0002617 -0.000272385 -0.000282736 -0.000292753 -0.000302436 -0.000311737 -0.000320611 -0.000329056 -0.000337073 -0.000344643 -0.000351749 -0.000358389 -0.000364564 -0.00037028 -0.000375541 -0.000380348 -0.000384701 -0.000388619 -0.000392122 -0.00039521 -0.000397883 -0.000400162 -0.000402068 -0.000403603 -0.000404766 -0.00040557 -0.000406029 -0.000406143 -0.000405912 -0.000405336 -0.000404415 -0.000403148 -0.000401536 -0.000399566 -0.000397225 -0.000394514 -0.000391432 -0.00038796 -0.000384081 -0.000379795 -0.000375101 -0.000369986 -0.000364436 -0.000358452 -0.000352033 -0.000345182 -0.000337902 -0.000330193 -0.000322055 -0.000313514 -0.000304597 -0.000295305 -0.000285638 -0.000275648 -0.00026539 -0.000254864 -0.000244068 -0.00023308 -0.000221975 -0.000210753 -0.000199414 -0.000188046 -0.000176737 -0.000165487 -0.000154297 -0.000143253 -0.000132443 -0.000121868 -0.000111528 -0.000101497 -9.18507e-05 -8.25895e-05 -7.37132e-05 -6.52767e-05 -5.73351e-05 -4.98882e-05 -4.29362e-05 -3.65094e-05 -3.06386e-05 -2.53235e-05 -2.05644e-05 -1.6358e-05 -1.27014e-05 -9.59449e-06 -7.03738e-06 -4.96315e-06 -3.30492e-06 -2.06269e-06 -1.23646e-06 -6.95508e-07 -3.09115e-07 -7.72786e-08 0 0 -4.35206e-07 -1.74083e-06 -3.91686e-06 -6.9633e-06 -1.14015e-05 -1.77528e-05 -2.60171e-05 -3.61945e-05 -4.85346e-05 -6.32869e-05 -8.04514e-05 -0.000100028 -0.000121974 -0.000146246 -0.000172844 -0.000201768 -0.000232838 -0.000265872 -0.000300872 -0.000337836 -0.000376491 -0.000416564 -0.000458055 -0.000500964 -0.000544945 -0.000589655 -0.000635094 -0.000681261 -0.000727777 -0.000774265 -0.000820723 -0.000867153 -0.000913193 -0.00095848 -0.00100302 -0.0010468 -0.00108954 -0.00113095 -0.00117101 -0.00120974 -0.00124695 -0.00128244 -0.00131622 -0.00134829 -0.00137857 -0.00140699 -0.00143356 -0.00145826 -0.00148112 -0.00150216 -0.00152139 -0.0015388 -0.00155448 -0.00156849 -0.00158084 -0.00159153 -0.00160065 -0.00160827 -0.00161441 -0.00161906 -0.00162228 -0.00162412 -0.00162457 -0.00162365 -0.00162134 -0.00161766 -0.00161259 -0.00160614 -0.00159826 -0.0015889 -0.00157805 -0.00156573 -0.00155184 -0.00153633 -0.00151918 -0.0015004 -0.00147994 -0.00145774 -0.00143381 -0.00140813 -0.00138073 -0.00135161 -0.00132077 -0.00128822 -0.00125405 -0.00121839 -0.00118122 -0.00114255 -0.00110259 -0.00106156 -0.00101945 -0.000976273 -0.000932321 -0.000887901 -0.000843012 -0.000797656 -0.000752183 -0.000706948 -0.000661949 -0.000617186 -0.000573011 -0.000529773 -0.000487473 -0.000446111 -0.000405987 -0.000367403 -0.000330358 -0.000294853 -0.000261107 -0.00022934 -0.000199553 -0.000171745 -0.000146038 -0.000122554 -0.000101294 -8.22574e-05 -6.54319e-05 -5.08054e-05 -3.83779e-05 -2.81495e-05 -1.98526e-05 -1.32197e-05 -8.25075e-06 -4.94583e-06 -2.78203e-06 -1.23646e-06 -3.09115e-07 0 0 -9.79214e-07 -3.91686e-06 -8.81293e-06 -1.56674e-05 -2.56534e-05 -3.99437e-05 -5.85385e-05 -8.14377e-05 -0.000109203 -0.000142395 -0.000181016 -0.000225063 -0.000274441 -0.000329053 -0.000388899 -0.000453978 -0.000523885 -0.000598212 -0.000676961 -0.00076013 -0.000847105 -0.00093727 -0.00103062 -0.00112717 -0.00122613 -0.00132672 -0.00142896 -0.00153284 -0.0016375 -0.0017421 -0.00184663 -0.00195109 -0.00205468 -0.00215658 -0.00225679 -0.0023553 -0.00245147 -0.00254463 -0.00263478 -0.00272192 -0.00280563 -0.00288549 -0.0029615 -0.00303366 -0.00310179 -0.00316574 -0.0032255 -0.00328108 -0.00333252 -0.00337987 -0.00342313 -0.00346231 -0.00349757 -0.0035291 -0.00355689 -0.00358094 -0.00360145 -0.00361862 -0.00363243 -0.00364289 -0.00365013 -0.00365426 -0.00365529 -0.00365321 -0.00364803 -0.00363973 -0.00362833 -0.00361382 -0.00359609 -0.00357503 -0.00355062 -0.00352288 -0.00349164 -0.00345673 -0.00341815 -0.00337591 -0.00332987 -0.00327992 -0.00322607 -0.0031683 -0.00310664 -0.00304112 -0.00297174 -0.00289849 -0.00282162 -0.00274137 -0.00265775 -0.00257074 -0.00248083 -0.00238851 -0.00229377 -0.00219661 -0.00209772 -0.00199778 -0.00189678 -0.00179473 -0.00169241 -0.00159063 -0.00148938 -0.00138867 -0.00128927 -0.00119199 -0.00109681 -0.00100375 -0.000913471 -0.000826656 -0.000743306 -0.000663419 -0.000587491 -0.000516016 -0.000448994 -0.000386426 -0.000328585 -0.000275747 -0.000227912 -0.000185079 -0.000147222 -0.000114312 -8.63504e-05 -6.33364e-05 -4.46683e-05 -2.97443e-05 -1.85642e-05 -1.11281e-05 -6.25957e-06 -2.78203e-06 -6.95508e-07 0 0 -1.74083e-06 -6.9633e-06 -1.56674e-05 -2.78532e-05 -4.5606e-05 -7.1011e-05 -0.000104068 -0.000144778 -0.000194138 -0.000253148 -0.000321806 -0.000400112 -0.000487896 -0.000584984 -0.000691376 -0.000807072 -0.000931351 -0.00106349 -0.00120349 -0.00135134 -0.00150597 -0.00166626 -0.00183222 -0.00200386 -0.00217978 -0.00235862 -0.00254038 -0.00272504 -0.00291111 -0.00309706 -0.00328289 -0.00346861 -0.00365277 -0.00383392 -0.00401207 -0.0041872 -0.00435817 -0.00452378 -0.00468405 -0.00483897 -0.0049878 -0.00512977 -0.00526489 -0.00539316 -0.00551429 -0.00562798 -0.00573422 -0.00583302 -0.00592447 -0.00600865 -0.00608557 -0.00615522 -0.00621791 -0.00627396 -0.00632336 -0.00636612 -0.00640258 -0.00643309 -0.00645765 -0.00647626 -0.00648912 -0.00649647 -0.0064983 -0.0064946 -0.00648538 -0.00647063 -0.00645037 -0.00642457 -0.00639305 -0.0063556 -0.00631222 -0.00626291 -0.00620737 -0.0061453 -0.00607672 -0.00600161 -0.00591977 -0.00583098 -0.00573523 -0.00563253 -0.00552292 -0.00540644 -0.00528309 -0.00515287 -0.00501622 -0.00487356 -0.00472488 -0.0045702 -0.00441037 -0.00424624 -0.00407782 -0.00390509 -0.00372928 -0.0035516 -0.00337205 -0.00319062 -0.00300873 -0.00282779 -0.00264779 -0.00246874 -0.00229204 -0.00211909 -0.00194989 -0.00178444 -0.00162395 -0.00146961 -0.00132143 -0.00117941 -0.00104443 -0.000917361 -0.000798212 -0.000686979 -0.000584151 -0.000490217 -0.000405177 -0.00032903 -0.000261728 -0.000203222 -0.000153512 -0.000112598 -7.94104e-05 -5.28787e-05 -3.3003e-05 -1.97833e-05 -1.11281e-05 -4.94583e-06 -1.23646e-06 0 0 -2.85392e-06 -1.14157e-05 -2.56853e-05 -4.56627e-05 -7.4343e-05 -0.000114721 -0.000166797 -0.000230571 -0.000307514 -0.000399098 -0.000505322 -0.000626188 -0.000761391 -0.00091063 -0.0010739 -0.00125121 -0.00144142 -0.0016434 -0.00185715 -0.00208267 -0.00231827 -0.00256224 -0.0028146 -0.00307534 -0.00334234 -0.00361349 -0.00388878 -0.00416823 -0.00444951 -0.00473032 -0.00501066 -0.00529053 -0.00556774 -0.00584011 -0.00610765 -0.00637034 -0.00662645 -0.00687422 -0.00711366 -0.00734477 -0.00756645 -0.00777762 -0.00797827 -0.00816841 -0.00834764 -0.00851558 -0.00867224 -0.00881761 -0.00895189 -0.00907529 -0.0091878 -0.00928942 -0.00938069 -0.00946215 -0.00953379 -0.00959562 -0.00964821 -0.00969212 -0.00972737 -0.00975395 -0.0097722 -0.00978249 -0.00978481 -0.00977916 -0.00976554 -0.00974393 -0.00971435 -0.00967678 -0.00963089 -0.00957634 -0.00951314 -0.00944127 -0.00936024 -0.00926955 -0.0091692 -0.00905919 -0.00893912 -0.00880861 -0.00866766 -0.00851626 -0.00835441 -0.00818212 -0.00799937 -0.00780618 -0.00760313 -0.00739082 -0.00716925 -0.00693842 -0.00669958 -0.006454 -0.00620166 -0.00594258 -0.00567857 -0.00541144 -0.0051412 -0.00486784 -0.00459351 -0.00432033 -0.00404832 -0.00377746 -0.0035099 -0.00324778 -0.00299111 -0.00273988 -0.00249594 -0.00226115 -0.00203551 -0.00181902 -0.00161305 -0.00141895 -0.00123674 -0.00106641 -0.000908738 -0.000764496 -0.000633685 -0.000516305 -0.000412319 -0.00032169 -0.000244416 -0.000180499 -0.000128352 -8.63884e-05 -5.46079e-05 -3.30108e-05 -1.85686e-05 -8.25271e-06 -2.06318e-06 0 0 -4.45237e-06 -1.78095e-05 -4.00714e-05 -7.1238e-05 -0.000114948 -0.00017484 -0.000250915 -0.000343171 -0.000453502 -0.000583801 -0.000734068 -0.000904302 -0.00109398 -0.00130258 -0.00153011 -0.00177656 -0.00204029 -0.00231966 -0.00261467 -0.00292532 -0.00324921 -0.00358394 -0.00392951 -0.00428592 -0.00465022 -0.00501946 -0.00539363 -0.00577274 -0.0061536 -0.00653304 -0.00691106 -0.00728766 -0.00765988 -0.00802477 -0.00838232 -0.00873254 -0.00907312 -0.00940175 -0.00971844 -0.0100232 -0.0103146 -0.0105914 -0.0108535 -0.011101 -0.0113334 -0.0115504 -0.0117521 -0.0119383 -0.0121097 -0.0122665 -0.0124089 -0.0125368 -0.0126511 -0.0127528 -0.0128417 -0.012918 -0.0129825 -0.0130361 -0.0130789 -0.0131108 -0.0131323 -0.0131441 -0.0131461 -0.0131382 -0.0131206 -0.0130932 -0.0130559 -0.0130088 -0.0129514 -0.012883 -0.0128037 -0.0127135 -0.0126115 -0.012497 -0.0123699 -0.0122303 -0.0120774 -0.0119105 -0.0117297 -0.0115349 -0.011326 -0.0111027 -0.0108651 -0.0106132 -0.0103476 -0.0100691 -0.00977746 -0.00947285 -0.00915684 -0.00883102 -0.00849539 -0.00814996 -0.00779714 -0.00743936 -0.00707661 -0.00670889 -0.00633911 -0.00597018 -0.00560209 -0.00523486 -0.00487143 -0.00451476 -0.00416487 -0.00382174 -0.00348797 -0.00316617 -0.00285633 -0.00255845 -0.00227448 -0.00200637 -0.00175412 -0.00151773 -0.00129835 -0.00109712 -0.000914035 -0.000749103 -0.000602367 -0.000473872 -0.000363618 -0.000271605 -0.000195767 -0.000134039 -8.64196e-05 -5.291e-05 -2.97619e-05 -1.32275e-05 -3.30687e-06 0 0 -6.53619e-06 -2.61448e-05 -5.88257e-05 -0.000104579 -0.000167421 -0.000251368 -0.000356421 -0.000482579 -0.000632104 -0.000807258 -0.00100804 -0.00123445 -0.00148567 -0.00176084 -0.00205999 -0.00238311 -0.00272795 -0.00309225 -0.00347603 -0.00387928 -0.00429878 -0.00473134 -0.00517695 -0.00563562 -0.00610344 -0.00657654 -0.00705492 -0.00753857 -0.00802338 -0.00850522 -0.0089841 -0.00946001 -0.0099292 -0.0103879 -0.0108361 -0.0112738 -0.0116982 -0.0121064 -0.0124984 -0.0128742 -0.0132323 -0.0135711 -0.0138906 -0.0141909 -0.0144715 -0.0147325 -0.0149737 -0.0151952 -0.0153978 -0.0155824 -0.0157489 -0.0158974 -0.0160292 -0.0161458 -0.0162472 -0.0163332 -0.0164054 -0.0164651 -0.0165122 -0.0165467 -0.0165695 -0.0165812 -0.016582 -0.0165719 -0.0165507 -0.0165184 -0.0164751 -0.0164207 -0.0163544 -0.0162755 -0.0161838 -0.0160795 -0.0159611 -0.0158276 -0.0156789 -0.0155149 -0.0153346 -0.0151368 -0.0149214 -0.0146885 -0.0144376 -0.0141682 -0.0138804 -0.013574 -0.0132498 -0.0129083 -0.0125495 -0.0121735 -0.0117821 -0.0113773 -0.010959 -0.0105272 -0.010085 -0.00963535 -0.00917826 -0.00871375 -0.00824553 -0.00777731 -0.00730912 -0.00684093 -0.00637662 -0.00592003 -0.00547117 -0.00503002 -0.00460004 -0.00418466 -0.00378387 -0.00339768 -0.00302872 -0.0026796 -0.00235034 -0.00204094 -0.00175298 -0.00148808 -0.00124623 -0.00102742 -0.000831871 -0.000659769 -0.000511117 -0.000385915 -0.000281655 -0.00019583 -0.000128438 -7.94808e-05 -4.47079e-05 -1.98702e-05 -4.96755e-06 0 0 -9.10536e-06 -3.64215e-05 -8.19483e-05 -0.000145686 -0.000231762 -0.000344306 -0.000483316 -0.000648794 -0.000843318 -0.00106947 -0.00132724 -0.00161664 -0.00193644 -0.00228541 -0.00266356 -0.00307087 -0.0035044 -0.00396119 -0.00444124 -0.00494455 -0.005467 -0.00600446 -0.00655693 -0.00712441 -0.00770199 -0.00828473 -0.00887264 -0.00946573 -0.0100588 -0.0106469 -0.0112298 -0.0118076 -0.0123757 -0.0129295 -0.013469 -0.0139941 -0.0145016 -0.0149881 -0.0154535 -0.0158979 -0.0163196 -0.0167168 -0.0170896 -0.0174381 -0.0177621 -0.0180618 -0.0183372 -0.0185882 -0.0188163 -0.0190229 -0.0192078 -0.0193712 -0.019515 -0.0196413 -0.0197501 -0.0198414 -0.0199171 -0.019979 -0.0200272 -0.0200617 -0.0200836 -0.020094 -0.0200927 -0.02008 -0.0200556 -0.0200196 -0.0199718 -0.0199124 -0.0198401 -0.0197539 -0.0196536 -0.0195393 -0.0194092 -0.0192614 -0.0190961 -0.0189131 -0.0187107 -0.0184873 -0.0182427 -0.0179771 -0.0176894 -0.0173787 -0.0170451 -0.0166885 -0.0163095 -0.0159084 -0.0154854 -0.0150404 -0.0145755 -0.0140928 -0.0135925 -0.0130744 -0.0125421 -0.0119994 -0.0114462 -0.0108824 -0.0103128 -0.00974175 -0.0091694 -0.0085957 -0.00802548 -0.00746359 -0.00691 -0.00636473 -0.00583215 -0.00531662 -0.00481815 -0.00433673 -0.00387577 -0.00343866 -0.00302542 -0.00263603 -0.00227264 -0.00193738 -0.00163026 -0.00135126 -0.00110083 -0.00087938 -0.000686913 -0.00052343 -0.000386017 -0.000271761 -0.000180664 -0.000112723 -6.34068e-05 -2.81808e-05 -7.0452e-06 0 0 -1.22185e-05 -4.88741e-05 -0.000109967 -0.000195497 -0.000309349 -0.000455409 -0.000633676 -0.000844152 -0.00108961 -0.00137284 -0.00169384 -0.0020526 -0.00244736 -0.00287635 -0.00333958 -0.00383704 -0.00436495 -0.00491951 -0.00550073 -0.0061086 -0.00673798 -0.00738369 -0.00804574 -0.00872412 -0.0094128 -0.0101057 -0.0108029 -0.0115043 -0.0122037 -0.012895 -0.0135782 -0.0142531 -0.0149145 -0.0155569 -0.0161802 -0.0167845 -0.0173659 -0.0179207 -0.0184489 -0.0189504 -0.0194237 -0.0198669 -0.0202802 -0.0206635 -0.0210173 -0.0213421 -0.021638 -0.0219048 -0.0221448 -0.0223601 -0.0225507 -0.0227165 -0.0228605 -0.0229855 -0.0230915 -0.0231786 -0.0232492 -0.0233061 -0.0233493 -0.0233786 -0.0233956 -0.0234018 -0.0233972 -0.0233817 -0.0233553 -0.0233178 -0.0232692 -0.0232096 -0.0231373 -0.0230507 -0.0229499 -0.0228347 -0.0227028 -0.0225515 -0.0223809 -0.0221909 -0.0219791 -0.0217428 -0.0214821 -0.0211971 -0.020886 -0.0205473 -0.0201811 -0.0197873 -0.0193661 -0.0189177 -0.018442 -0.0179391 -0.0174111 -0.0168604 -0.016287 -0.0156907 -0.0150759 -0.0144466 -0.0138029 -0.0131447 -0.0124775 -0.0118067 -0.0111324 -0.0104545 -0.00977899 -0.0091116 -0.00845238 -0.00780133 -0.00716386 -0.00654535 -0.00594581 -0.00536525 -0.00480794 -0.00427818 -0.00377596 -0.0033013 -0.00285696 -0.00244576 -0.00206768 -0.00172273 -0.00141167 -0.00113529 -0.000893581 -0.000686542 -0.000510954 -0.000363596 -0.000244467 -0.000153568 -8.6382e-05 -3.8392e-05 -9.598e-06 0 0 -1.59343e-05 -6.37373e-05 -0.000143409 -0.000254949 -0.000401558 -0.000586434 -0.000809577 -0.00107099 -0.00137346 -0.00171979 -0.00210998 -0.00254403 -0.00301944 -0.0035337 -0.00408683 -0.00467883 -0.0053049 -0.00596027 -0.00664493 -0.0073589 -0.00809584 -0.00884942 -0.00961966 -0.0104065 -0.0112028 -0.0120012 -0.0128017 -0.0136044 -0.0144018 -0.0151868 -0.0159594 -0.0167195 -0.0174608 -0.0181774 -0.018869 -0.0195357 -0.0201735 -0.0207781 -0.0213496 -0.0218881 -0.022392 -0.0228599 -0.0232919 -0.023688 -0.0240494 -0.0243772 -0.0246715 -0.0249324 -0.0251629 -0.0253663 -0.0255426 -0.0256918 -0.0258178 -0.0259246 -0.0260124 -0.0260809 -0.0261339 -0.0261747 -0.0262034 -0.0262199 -0.0262263 -0.0262245 -0.0262144 -0.0261961 -0.0261695 -0.0261342 -0.0260904 -0.026038 -0.0259748 -0.0258988 -0.0258097 -0.0257077 -0.0255893 -0.025451 -0.0252927 -0.0251146 -0.0249129 -0.0246841 -0.0244282 -0.0241451 -0.0238323 -0.0234873 -0.0231102 -0.0227009 -0.022259 -0.0217841 -0.0212761 -0.0207351 -0.0201633 -0.0195628 -0.0189336 -0.0182756 -0.0175936 -0.016892 -0.0161709 -0.0154302 -0.0146763 -0.0139155 -0.0131477 -0.0123729 -0.0115981 -0.0108302 -0.0100693 -0.00931528 -0.00857472 -0.00785413 -0.00715353 -0.0064729 -0.00581756 -0.00519279 -0.00459861 -0.00403502 -0.00350559 -0.00301393 -0.00256004 -0.0021439 -0.00176682 -0.00143009 -0.00113369 -0.000877645 -0.000658569 -0.000473094 -0.000321219 -0.000202946 -0.000114157 -5.07365e-05 -1.26841e-05 0 0 -2.02527e-05 -8.1011e-05 -0.000182275 -0.000324044 -0.000508389 -0.000737381 -0.00101102 -0.0013293 -0.00169486 -0.00211032 -0.00257568 -0.00309095 -0.00365269 -0.00425748 -0.00490533 -0.00559623 -0.00632425 -0.00708346 -0.00787386 -0.00869543 -0.00954058 -0.0104017 -0.0112787 -0.0121717 -0.013072 -0.0139712 -0.0148692 -0.0157659 -0.0166531 -0.0175223 -0.0183734 -0.0192065 -0.0200147 -0.020791 -0.0215354 -0.0222479 -0.0229243 -0.0235602 -0.0241557 -0.0247108 -0.0252245 -0.0256959 -0.026125 -0.0265117 -0.0268583 -0.027167 -0.0274379 -0.0276709 -0.0278706 -0.0280415 -0.0281836 -0.028297 -0.0283869 -0.0284588 -0.0285127 -0.0285485 -0.028571 -0.0285847 -0.0285896 -0.0285858 -0.0285757 -0.0285619 -0.0285444 -0.0285233 -0.0284981 -0.0284688 -0.0284353 -0.0283976 -0.0283527 -0.0282979 -0.028233 -0.0281582 -0.0280686 -0.0279598 -0.0278316 -0.0276841 -0.0275123 -0.0273112 -0.0270808 -0.0268211 -0.0265283 -0.0261988 -0.0258324 -0.0254293 -0.0249881 -0.0245076 -0.0239878 -0.0234286 -0.0228321 -0.0222 -0.0215323 -0.0208291 -0.0200952 -0.0193356 -0.0185502 -0.0177391 -0.0169094 -0.016068 -0.0152152 -0.0143507 -0.0134828 -0.0126195 -0.0117608 -0.0109066 -0.0100647 -0.00924298 -0.00844129 -0.00765969 -0.00690461 -0.0061825 -0.00549336 -0.0048372 -0.00421853 -0.00364191 -0.00310733 -0.0026148 -0.00216628 -0.00176377 -0.00140725 -0.00109674 -0.000828862 -0.000600256 -0.000410921 -0.000260857 -0.000146732 -6.52143e-05 -1.63036e-05 0 0 -2.51738e-05 -0.000100695 -0.000226564 -0.000402781 -0.000629843 -0.000908249 -0.001238 -0.00161909 -0.00205381 -0.00254442 -0.00309094 -0.00369334 -0.00434711 -0.00504768 -0.00579506 -0.00658926 -0.00742301 -0.00828909 -0.00918749 -0.0101182 -0.0110722 -0.0120404 -0.0130229 -0.0140195 -0.0150204 -0.0160157 -0.0170052 -0.017989 -0.0189576 -0.0199013 -0.0208202 -0.0217143 -0.022576 -0.0233977 -0.0241794 -0.024921 -0.0256183 -0.026267 -0.0268671 -0.0274187 -0.0279213 -0.0283748 -0.0287792 -0.0291344 -0.0294441 -0.0297116 -0.0299371 -0.0301204 -0.0302679 -0.0303857 -0.0304738 -0.0305321 -0.0305678 -0.0305879 -0.0305924 -0.0305813 -0.0305606 -0.0305361 -0.030508 -0.0304761 -0.0304437 -0.0304141 -0.0303872 -0.0303631 -0.0303413 -0.0303216 -0.0303039 -0.0302883 -0.0302709 -0.0302481 -0.0302199 -0.0301861 -0.0301408 -0.030078 -0.0299975 -0.0298994 -0.0297771 -0.0296239 -0.0294399 -0.0292251 -0.028974 -0.0286816 -0.0283478 -0.0279725 -0.0275535 -0.0270883 -0.026577 -0.0260195 -0.0254174 -0.0247719 -0.0240831 -0.0233511 -0.0225808 -0.0217774 -0.0209409 -0.0200713 -0.0191765 -0.0182644 -0.0173349 -0.0163881 -0.0154332 -0.0144794 -0.0135267 -0.0125752 -0.0116339 -0.0107119 -0.00980911 -0.00892561 -0.00806911 -0.00724731 -0.00646022 -0.00570783 -0.00499578 -0.00432969 -0.00370957 -0.00313541 -0.00261005 -0.00213633 -0.00171426 -0.00134382 -0.00102183 -0.000745083 -0.000513572 -0.000327301 -0.000184107 -8.18253e-05 -2.04563e-05 0 0 -3.06691e-05 -0.000122676 -0.000276022 -0.000490705 -0.000765184 -0.00109792 -0.0014889 -0.00193814 -0.00244732 -0.00301813 -0.00365059 -0.00434468 -0.0050945 -0.00589415 -0.00674364 -0.00764295 -0.00858335 -0.0095561 -0.0105612 -0.0115986 -0.0126578 -0.013728 -0.0148094 -0.0159018 -0.0169939 -0.0180743 -0.0191428 -0.0201996 -0.0212339 -0.022235 -0.0232029 -0.0241376 -0.025031 -0.0258748 -0.0266691 -0.0274139 -0.028105 -0.0287385 -0.0293141 -0.0298321 -0.030293 -0.0306976 -0.0310459 -0.0313379 -0.0315788 -0.0317738 -0.0319229 -0.032026 -0.0320914 -0.0321273 -0.0321338 -0.0321108 -0.0320673 -0.0320125 -0.0319464 -0.0318689 -0.0317876 -0.03171 -0.0316361 -0.0315659 -0.0315034 -0.0314528 -0.0314139 -0.0313867 -0.0313709 -0.031366 -0.0313719 -0.0313886 -0.0314114 -0.0314355 -0.0314609 -0.0314876 -0.0315078 -0.0315137 -0.0315055 -0.031483 -0.0314377 -0.0313609 -0.0312525 -0.0311127 -0.0309342 -0.0307098 -0.0304395 -0.0301234 -0.0297576 -0.0293383 -0.0288656 -0.0283394 -0.0277604 -0.0271293 -0.0264461 -0.0257107 -0.0249284 -0.0241042 -0.0232382 -0.0223303 -0.0213892 -0.0204234 -0.019433 -0.018418 -0.0173887 -0.0163557 -0.0153189 -0.0142782 -0.0132443 -0.0122276 -0.011228 -0.0102457 -0.00928962 -0.00836903 -0.00748389 -0.00663421 -0.00582689 -0.00506881 -0.00435998 -0.0037004 -0.00309399 -0.00254465 -0.00205239 -0.00161722 -0.00123628 -0.000906765 -0.00062866 -0.000401969 -0.000226107 -0.000100492 -2.5123e-05 0 0 -3.67102e-05 -0.000146841 -0.000330391 -0.000587362 -0.000913676 -0.00130525 -0.00176209 -0.0022842 -0.00287239 -0.00352749 -0.00424949 -0.00503839 -0.00588666 -0.00678675 -0.00773865 -0.00874237 -0.00978745 -0.0108634 -0.0119703 -0.013108 -0.0142643 -0.0154268 -0.0165955 -0.0177703 -0.0189384 -0.0200866 -0.0212151 -0.0223237 -0.0234007 -0.0244343 -0.0254244 -0.026371 -0.0272656 -0.0280996 -0.0288729 -0.0295856 -0.030234 -0.0308144 -0.0313269 -0.0317715 -0.0321502 -0.0324652 -0.0327164 -0.0329038 -0.0330348 -0.0331166 -0.0331492 -0.0331327 -0.0330777 -0.032995 -0.0328846 -0.0327464 -0.0325921 -0.032433 -0.0322692 -0.0321007 -0.0319369 -0.0317872 -0.0316516 -0.0315302 -0.0314278 -0.0313496 -0.0312955 -0.0312655 -0.031259 -0.0312754 -0.0313147 -0.0313769 -0.031456 -0.0315459 -0.0316468 -0.0317585 -0.0318713 -0.0319754 -0.0320708 -0.0321574 -0.0322243 -0.0322602 -0.0322654 -0.0322396 -0.0321734 -0.0320572 -0.0318911 -0.0316749 -0.0314031 -0.03107 -0.0306756 -0.0302198 -0.0297024 -0.0291228 -0.028481 -0.0277772 -0.0270161 -0.0262028 -0.0253373 -0.0244195 -0.0234588 -0.0224642 -0.0214358 -0.0203735 -0.0192891 -0.0181942 -0.0170887 -0.0159726 -0.014858 -0.0137568 -0.0126691 -0.0115948 -0.0105447 -0.00952949 -0.00854912 -0.00760364 -0.0067014 -0.00585079 -0.00505181 -0.00430445 -0.00361397 -0.0029856 -0.00241936 -0.00191523 -0.00147101 -0.00108449 -0.000755673 -0.000484549 -0.000272559 -0.000121137 -3.02843e-05 0 0 -4.32971e-05 -0.000173188 -0.000389674 -0.000692753 -0.00107532 -0.00153026 -0.00205758 -0.00265728 -0.00332903 -0.00407247 -0.00488763 -0.00577449 -0.00672359 -0.00772546 -0.00878011 -0.00988752 -0.0110353 -0.0122111 -0.0134148 -0.0146465 -0.0158919 -0.0171368 -0.0183811 -0.019625 -0.0208538 -0.0220527 -0.0232219 -0.0243613 -0.0254581 -0.0264992 -0.0274847 -0.0284146 -0.02928 -0.030072 -0.0307907 -0.031436 -0.032005 -0.0324949 -0.0329055 -0.033237 -0.033493 -0.0336776 -0.0337906 -0.0338321 -0.0338119 -0.03374 -0.0336162 -0.0334405 -0.0332268 -0.0329887 -0.0327261 -0.0324392 -0.0321421 -0.0318494 -0.031561 -0.0312768 -0.0310086 -0.0307679 -0.0305547 -0.030369 -0.030217 -0.0301047 -0.0300322 -0.0299994 -0.0300056 -0.03005 -0.0301325 -0.0302532 -0.0304047 -0.0305795 -0.0307775 -0.0309989 -0.0312314 -0.0314629 -0.0316932 -0.0319225 -0.0321368 -0.0323221 -0.0324784 -0.0326058 -0.0326917 -0.0327239 -0.0327024 -0.0326271 -0.03249 -0.0322833 -0.0320069 -0.0316608 -0.0312433 -0.0307523 -0.0301881 -0.0295505 -0.028844 -0.0280733 -0.0272383 -0.0263391 -0.0253853 -0.0243866 -0.0233431 -0.0222547 -0.0211344 -0.0199949 -0.0188362 -0.0176584 -0.016475 -0.0152996 -0.0141324 -0.0129731 -0.0118344 -0.0107287 -0.00965591 -0.0086161 -0.00761932 -0.00667564 -0.00578505 -0.00494755 -0.00416998 -0.00345918 -0.00281514 -0.00223787 -0.00172602 -0.00127827 -0.000894611 -0.000575043 -0.000323462 -0.000143761 -3.59402e-05 0 0 -5.04298e-05 -0.000201719 -0.000453868 -0.000806877 -0.00125011 -0.00177294 -0.00237537 -0.00305739 -0.00381723 -0.0046531 -0.00556502 -0.00655298 -0.00760529 -0.0087103 -0.009868 -0.0110784 -0.0123269 -0.013599 -0.0148947 -0.0162139 -0.0175404 -0.0188579 -0.0201664 -0.0214659 -0.0227401 -0.0239726 -0.0251634 -0.0263125 -0.027406 -0.0284298 -0.0293839 -0.0302683 -0.031074 -0.0317921 -0.0324225 -0.0329652 -0.0334183 -0.0337798 -0.0340499 -0.0342284 -0.0343214 -0.0343348 -0.0342686 -0.0341228 -0.0339102 -0.0336439 -0.0333236 -0.0329495 -0.0325387 -0.0321084 -0.0316584 -0.0311889 -0.0307174 -0.0302617 -0.0298216 -0.0293972 -0.0290026 -0.0286519 -0.0283451 -0.0280823 -0.0278708 -0.0277179 -0.0276238 -0.0275884 -0.0276106 -0.0276896 -0.0278252 -0.0280176 -0.0282575 -0.0285361 -0.0288532 -0.0292089 -0.0295882 -0.0299762 -0.030373 -0.0307785 -0.0311754 -0.0315465 -0.0318918 -0.0322112 -0.0324891 -0.0327099 -0.0328734 -0.0329798 -0.0330183 -0.0329782 -0.0328596 -0.0326624 -0.032383 -0.032018 -0.0315671 -0.0310305 -0.0304121 -0.0297157 -0.0289413 -0.0280889 -0.0271687 -0.0261907 -0.025155 -0.0240616 -0.0229245 -0.0217578 -0.0205615 -0.0193355 -0.0180952 -0.016856 -0.0156178 -0.0143806 -0.0131587 -0.0119666 -0.0108042 -0.0096716 -0.00858065 -0.00754335 -0.0065597 -0.0056297 -0.00476204 -0.00396538 -0.00323975 -0.00258513 -0.00200131 -0.0014881 -0.00104547 -0.000673451 -0.000378816 -0.000168363 -4.20907e-05 0 0 -5.80313e-05 -0.000232125 -0.000522281 -0.0009285 -0.00143614 -0.00203058 -0.0027118 -0.00347982 -0.00433109 -0.0052621 -0.00627283 -0.0073633 -0.0085193 -0.00972665 -0.0109854 -0.0122954 -0.0136398 -0.0150017 -0.016381 -0.0177777 -0.0191734 -0.0205494 -0.0219059 -0.0232428 -0.024542 -0.0257854 -0.0269729 -0.0281046 -0.0291654 -0.0301404 -0.0310294 -0.0318326 -0.0325409 -0.0331453 -0.033646 -0.0340429 -0.0343354 -0.0345228 -0.0346053 -0.0345828 -0.0344639 -0.034257 -0.0339622 -0.0335794 -0.0331252 -0.0326159 -0.0320515 -0.031432 -0.0307785 -0.0301122 -0.029433 -0.028741 -0.0280575 -0.0274039 -0.0267803 -0.0261866 -0.0256397 -0.0251568 -0.0247377 -0.0243825 -0.0241 -0.023899 -0.0237795 -0.0237416 -0.0237839 -0.0239053 -0.0241058 -0.0243853 -0.0247328 -0.0251376 -0.0255996 -0.0261187 -0.026677 -0.0272564 -0.0278568 -0.0284783 -0.0290998 -0.0297001 -0.0302794 -0.0308375 -0.0313551 -0.0318124 -0.0322097 -0.0325468 -0.0328098 -0.0329849 -0.0330721 -0.0330713 -0.0329768 -0.0327828 -0.0324894 -0.0320964 -0.031607 -0.031024 -0.0303475 -0.0295774 -0.0287242 -0.0277982 -0.0267995 -0.0257281 -0.0245991 -0.0234279 -0.0222145 -0.0209589 -0.0196781 -0.0183894 -0.0170928 -0.0157882 -0.014492 -0.0132208 -0.0119744 -0.010753 -0.00957057 -0.00844123 -0.00736498 -0.00634181 -0.00538255 -0.00449799 -0.00368815 -0.00295302 -0.00229379 -0.00171167 -0.00120665 -0.000778733 -0.000438038 -0.000194683 -4.86708e-05 0 0 -6.60243e-05 -0.000264097 -0.000594219 -0.00105639 -0.0016315 -0.00230045 -0.00306324 -0.00391987 -0.00486472 -0.00589218 -0.00700224 -0.00819491 -0.00945314 -0.0107599 -0.0121152 -0.013519 -0.0149517 -0.0163936 -0.0178449 -0.0193053 -0.0207542 -0.0221705 -0.0235543 -0.0249055 -0.0262042 -0.0274303 -0.0285839 -0.029665 -0.0306575 -0.0315455 -0.0323289 -0.0330078 -0.0335735 -0.0340172 -0.0343391 -0.0345389 -0.034618 -0.0345774 -0.034417 -0.034137 -0.0337488 -0.0332642 -0.0326832 -0.0320057 -0.0312523 -0.0304436 -0.0295795 -0.0286601 -0.0277111 -0.0267582 -0.0258014 -0.0248407 -0.0239017 -0.0230103 -0.0221663 -0.0213697 -0.0206409 -0.02 -0.019447 -0.0189819 -0.0186152 -0.0183574 -0.0182084 -0.0181682 -0.0182354 -0.0184084 -0.0186871 -0.0190717 -0.019549 -0.020106 -0.0207427 -0.021459 -0.0222335 -0.0230443 -0.0238916 -0.0247752 -0.0256698 -0.0265499 -0.0274154 -0.0282664 -0.0290789 -0.0298289 -0.0305165 -0.0311416 -0.0316866 -0.0321337 -0.032483 -0.0327344 -0.0328795 -0.03291 -0.0328259 -0.0326271 -0.0323155 -0.0318926 -0.0313585 -0.0307132 -0.0299672 -0.029131 -0.0282046 -0.0271881 -0.0260978 -0.0249503 -0.0237454 -0.0224833 -0.021183 -0.0198635 -0.0185249 -0.017167 -0.0158087 -0.0144686 -0.0131468 -0.0118432 -0.0105743 -0.00935658 -0.00819008 -0.00707479 -0.00602393 -0.00505077 -0.00415531 -0.00333754 -0.00260037 -0.0019467 -0.00137653 -0.000889853 -0.000500542 -0.000222463 -5.56158e-05 0 0 -7.44089e-05 -0.000297636 -0.00066968 -0.00119054 -0.00183618 -0.00258257 -0.00342969 -0.00437755 -0.00541812 -0.00654335 -0.00775325 -0.00904781 -0.0104068 -0.01181 -0.0132575 -0.0147491 -0.0162624 -0.0177748 -0.0192862 -0.0207968 -0.0222829 -0.0237211 -0.0251115 -0.0264539 -0.0277265 -0.0289073 -0.0299964 -0.0309936 -0.0318822 -0.0326451 -0.0332824 -0.0337941 -0.034172 -0.0344078 -0.0345016 -0.0344533 -0.0342662 -0.0339434 -0.033485 -0.0328909 -0.0321763 -0.0313566 -0.0304317 -0.0294015 -0.0282915 -0.0271269 -0.0259077 -0.024634 -0.0233366 -0.0220464 -0.0207635 -0.019488 -0.0182502 -0.0170807 -0.0159795 -0.0149467 -0.014006 -0.0131815 -0.012473 -0.0118806 -0.0114166 -0.0110932 -0.0109104 -0.0108683 -0.010965 -0.0111987 -0.0115693 -0.0120769 -0.012706 -0.0134412 -0.0142824 -0.0152298 -0.0162575 -0.01734 -0.0184773 -0.0196693 -0.0208856 -0.0220958 -0.0232999 -0.0244978 -0.0256607 -0.0267593 -0.0277939 -0.0287643 -0.0296485 -0.0304245 -0.0310922 -0.0316516 -0.0320913 -0.0323996 -0.0325768 -0.0326226 -0.0325374 -0.0323212 -0.0319741 -0.0314961 -0.0308975 -0.030189 -0.0293703 -0.0284417 -0.0274206 -0.0263248 -0.0251543 -0.0239089 -0.0226099 -0.0212783 -0.019914 -0.0185171 -0.0171087 -0.0157101 -0.0143212 -0.0129421 -0.0115917 -0.0102894 -0.00903503 -0.00782862 -0.00668619 -0.00562373 -0.00464123 -0.0037387 -0.00292105 -0.00219319 -0.00155511 -0.00100681 -0.00056633 -0.000251702 -6.29255e-05 0 0 -8.31851e-05 -0.00033274 -0.000748666 -0.00133096 -0.00205019 -0.00287692 -0.00381114 -0.00485286 -0.00599128 -0.00721562 -0.00852586 -0.00992201 -0.0113803 -0.0128771 -0.0144122 -0.0159858 -0.017572 -0.0191451 -0.0207051 -0.022252 -0.0237595 -0.0252013 -0.0265776 -0.0278881 -0.0291091 -0.0302165 -0.0312103 -0.0320906 -0.0328395 -0.0334392 -0.0338899 -0.0341914 -0.0343363 -0.034317 -0.0341336 -0.0337861 -0.03328 -0.032621 -0.0318092 -0.0308445 -0.0297464 -0.028534 -0.0272076 -0.025767 -0.0242429 -0.0226659 -0.0210362 -0.0193536 -0.0176549 -0.0159769 -0.0143195 -0.0126829 -0.0111028 -0.00961517 -0.00822005 -0.00691741 -0.00573519 -0.00470131 -0.00381576 -0.00307855 -0.00250397 -0.00210632 -0.00188559 -0.00184179 -0.00197273 -0.00227621 -0.00275222 -0.00340078 -0.00420379 -0.00514314 -0.00621885 -0.0074309 -0.00874917 -0.0101435 -0.0116139 -0.0131604 -0.014747 -0.0163378 -0.0179327 -0.0195318 -0.0211003 -0.0226037 -0.0240419 -0.0254149 -0.0266957 -0.0278573 -0.0288997 -0.029823 -0.030612 -0.0312516 -0.0317419 -0.0320829 -0.0322729 -0.0323101 -0.0321945 -0.0319262 -0.0315153 -0.0309721 -0.0302966 -0.0294889 -0.0285676 -0.0275516 -0.026441 -0.0252356 -0.0239588 -0.0226337 -0.0212602 -0.0198384 -0.0183922 -0.0169453 -0.0154979 -0.0140497 -0.012623 -0.0112397 -0.0098998 -0.00860332 -0.00736932 -0.00621685 -0.00514591 -0.0041565 -0.00325583 -0.00245113 -0.00174238 -0.0011296 -0.000635401 -0.0002824 -7.06001e-05 0