<?xml version="1.0"?> 
<VTKFile type="StructuredGrid" version="0.1"> 
<StructuredGrid WholeExtent="0 128 0 128 0 0"> 
<Piece Extent="0 128 0 128 0 0"> 
<PointData>
<DataArray type="Float32" Name="u" format="ascii" NumberOfComponents="1"> 
0 0 0 0 0 0 0 0 0 0 0 0 0 0 0 0 0 0 0 0 0 0 0 0 0 0 0 0 0 0 0 0 0 0 0 0 0 0 0 0 0 0 0 0 0 0 0 0 0 0 0 0 0 0 0 0 0 0 0 0 0 0 0 0 0 0 0 0 0 0 0 0 0 0 0 0 0 0 0 0 0 0 0 0 0 0 0 0 0 0 0 0 0 0 0 0 0 0 0 0 0 0 0 0 0 0 0 0 0 0 0 0 0 0 0 0 0 0 0 0 0 0 0 0 0 0 0 0 0 0 -1.3104e-09 -5.2416e-09 -1.17936e-08 -2.09664e-08 -2.15675e-07 -7.78834e-07 -1.71044e-06 -3.01051e-06 -4.77435e-06 -7.09733e-06 -9.97943e-06 -1.34207e-05 -1.745e-05 -2.20966e-05 -2.73604e-05 -3.32414e-05 -3.97225e-05 -4.67866e-05 -5.44337e-05 -6.26637e-05 -7.1426e-05 -8.06698e-05 -9.03952e-05 -0.000100602 -0.000111213 -0.000122151 -0.000133415 -0.000145007 -0.00015683 -0.000168792 -0.000180893 -0.000193132 -0.000205411 -0.000217634 -0.000229799 -0.000241908 -0.000253871 -0.000265601 -0.000277097 -0.000288361 -0.000299322 -0.000309912 -0.000320132 -0.000329981 -0.000339414 -0.000348385 -0.000356896 -0.000364946 -0.000372512 -0.000379571 -0.000386122 -0.000392166 -0.000397696 -0.000402705 -0.000407193 -0.00041116 -0.000414607 -0.000417536 -0.000419947 -0.00042184 -0.000423218 -0.000424084 -0.000424438 -0.000424281 -0.000423613 -0.000422437 -0.000420751 -0.000418557 -0.000415853 -0.000412641 -0.000408919 -0.000404689 -0.000399953 -0.000394715 -0.000388974 -0.00038273 -0.000375997 -0.000368788 -0.000361103 -0.000352942 -0.000344334 -0.000335311 -0.00032587 -0.000316014 -0.000305792 -0.000295257 -0.000284407 -0.000273243 -0.000261836 -0.00025026 -0.000238513 -0.000226596 -0.000214597 -0.000202601 -0.00019061 -0.000178624 -0.000166734 -0.000155034 -0.000143523 -0.000132201 -0.000121154 -0.000110466 -0.000100138 -9.0169e-05 -8.0626e-05 -7.15745e-05 -6.30147e-05 -5.49466e-05 -4.74089e-05 -4.04407e-05 -3.40419e-05 -2.82125e-05 -2.29591e-05 -1.8288e-05 -1.41993e-05 -1.0693e-05 -7.7328e-06 -5.2823e-06 -3.34154e-06 -1.9105e-06 -8.9515e-07 -2.01464e-07 1.70562e-07 2.20928e-07 1.24272e-07 5.5232e-08 1.3808e-08 0 0 -5.2416e-09 -2.09664e-08 -4.71744e-08 -8.38656e-08 -8.627e-07 -3.11534e-06 -6.84178e-06 -1.2042e-05 -1.90974e-05 -2.83893e-05 -3.99177e-05 -5.36826e-05 -6.98002e-05 -8.83866e-05 -0.000109442 -0.000132966 -0.00015889 -0.000187147 -0.000217735 -0.000250655 -0.000285704 -0.000322679 -0.000361581 -0.000402409 -0.000444853 -0.000488604 -0.000533661 -0.000580026 -0.000627321 -0.000675169 -0.000723571 -0.000772527 -0.000821645 -0.000870535 -0.000919197 -0.000967631 -0.00101548 -0.0010624 -0.00110839 -0.00115344 -0.00119729 -0.00123965 -0.00128053 -0.00131992 -0.00135765 -0.00139354 -0.00142759 -0.00145978 -0.00149005 -0.00151828 -0.00154449 -0.00156866 -0.00159078 -0.00161082 -0.00162877 -0.00164464 -0.00165843 -0.00167014 -0.00167979 -0.00168736 -0.00169287 -0.00169633 -0.00169775 -0.00169712 -0.00169445 -0.00168975 -0.00168301 -0.00167423 -0.00166341 -0.00165056 -0.00163568 -0.00161876 -0.00159981 -0.00157886 -0.00155589 -0.00153092 -0.00150399 -0.00147515 -0.00144441 -0.00141177 -0.00137734 -0.00134124 -0.00130348 -0.00126406 -0.00122317 -0.00118103 -0.00113763 -0.00109297 -0.00104735 -0.00100104 -0.000954053 -0.000906386 -0.000858386 -0.000810405 -0.000762441 -0.000714495 -0.000666936 -0.000620134 -0.00057409 -0.000528804 -0.000484615 -0.000441864 -0.000400551 -0.000360676 -0.000322504 -0.000286298 -0.000252059 -0.000219786 -0.000189636 -0.000161763 -0.000136168 -0.00011285 -9.18363e-05 -7.31519e-05 -5.67972e-05 -4.27721e-05 -3.09312e-05 -2.11292e-05 -1.33661e-05 -7.64198e-06 -3.5806e-06 -8.05856e-07 6.82248e-07 8.83712e-07 4.97088e-07 2.20928e-07 5.5232e-08 0 0 -1.17936e-08 -4.71744e-08 -1.06142e-07 -1.88698e-07 -1.94107e-06 -7.00951e-06 -1.5394e-05 -2.70945e-05 -4.29692e-05 -6.3876e-05 -8.98149e-05 -0.000120786 -0.00015705 -0.00019887 -0.000246244 -0.000299173 -0.000357503 -0.00042108 -0.000489903 -0.000563973 -0.000642834 -0.000726029 -0.000813557 -0.000905419 -0.00100092 -0.00109936 -0.00120074 -0.00130506 -0.00141147 -0.00151913 -0.00162804 -0.00173819 -0.0018487 -0.0019587 -0.00206819 -0.00217717 -0.00228484 -0.00239041 -0.00249388 -0.00259524 -0.0026939 -0.00278921 -0.00288119 -0.00296983 -0.00305472 -0.00313547 -0.00321207 -0.00328452 -0.00335261 -0.00341613 -0.0034751 -0.00352949 -0.00357927 -0.00362435 -0.00366474 -0.00370044 -0.00373146 -0.00375782 -0.00377952 -0.00379656 -0.00380896 -0.00381675 -0.00381994 -0.00381853 -0.00381252 -0.00380193 -0.00378676 -0.00376701 -0.00374268 -0.00371377 -0.00368027 -0.0036422 -0.00359958 -0.00355243 -0.00350076 -0.00344457 -0.00338398 -0.0033191 -0.00324993 -0.00317648 -0.00309901 -0.00301779 -0.00293283 -0.00284413 -0.00275213 -0.00265731 -0.00255966 -0.00245918 -0.00235653 -0.00225234 -0.00214662 -0.00203937 -0.00193137 -0.00182341 -0.00171549 -0.00160761 -0.00150061 -0.0013953 -0.0012917 -0.00118981 -0.00109038 -0.000994193 -0.000901239 -0.000811521 -0.000725634 -0.000644171 -0.000567132 -0.000494519 -0.00042668 -0.000363967 -0.000306377 -0.000253913 -0.000206632 -0.000164592 -0.000127794 -9.62372e-05 -6.95952e-05 -4.75407e-05 -3.00738e-05 -1.71945e-05 -8.05635e-06 -1.81318e-06 1.53506e-06 1.98835e-06 1.11845e-06 4.97088e-07 1.24272e-07 0 0 -2.09664e-08 -8.38656e-08 -1.88698e-07 -3.35462e-07 -3.4508e-06 -1.24613e-05 -2.73671e-05 -4.81681e-05 -7.63897e-05 -0.000113557 -0.000159671 -0.00021473 -0.000279201 -0.000353546 -0.000437767 -0.000531863 -0.000635561 -0.000748586 -0.000870939 -0.00100262 -0.00114282 -0.00129072 -0.00144632 -0.00160963 -0.00177941 -0.00195441 -0.00213465 -0.0023201 -0.00250928 -0.00270068 -0.00289429 -0.00309011 -0.00328658 -0.00348214 -0.00367679 -0.00387052 -0.00406193 -0.00424961 -0.00443356 -0.00461377 -0.00478915 -0.00495859 -0.00512211 -0.00527969 -0.00543062 -0.00557417 -0.00571034 -0.00583914 -0.00596019 -0.00607313 -0.00617795 -0.00627466 -0.00636314 -0.00644328 -0.00651509 -0.00657856 -0.00663371 -0.00668057 -0.00671915 -0.00674943 -0.00677148 -0.00678534 -0.00679101 -0.0067885 -0.00677782 -0.00675899 -0.00673202 -0.00669691 -0.00665365 -0.00660225 -0.00654271 -0.00647503 -0.00639925 -0.00631543 -0.00622358 -0.00612368 -0.00601596 -0.00590061 -0.00577765 -0.00564707 -0.00550935 -0.00536497 -0.00521393 -0.00505622 -0.00489268 -0.00472411 -0.00455051 -0.00437188 -0.00418938 -0.00400416 -0.00381621 -0.00362554 -0.00343355 -0.00324162 -0.00304976 -0.00285798 -0.00266774 -0.00248054 -0.00229636 -0.00211521 -0.00193846 -0.00176745 -0.0016022 -0.0014427 -0.00129002 -0.00114519 -0.00100824 -0.000879145 -0.000758543 -0.000647052 -0.000544671 -0.000451401 -0.000367345 -0.000292608 -0.000227189 -0.000171088 -0.000123725 -8.45168e-05 -5.34646e-05 -3.05679e-05 -1.43224e-05 -3.22342e-06 2.72899e-06 3.53485e-06 1.98835e-06 8.83712e-07 2.20928e-07 0 0 -2.22835e-07 -8.9134e-07 -2.00552e-06 -3.56536e-06 -9.87359e-06 -2.52329e-05 -4.96433e-05 -8.31048e-05 -0.000127892 -0.000186278 -0.000258263 -0.000343849 -0.000443698 -0.000558475 -0.000688182 -0.000832817 -0.00099193 -0.00116507 -0.00135224 -0.00155344 -0.0017674 -0.00199285 -0.00222981 -0.00247827 -0.00273632 -0.00300206 -0.00327549 -0.0035566 -0.0038431 -0.00413269 -0.00442537 -0.00472114 -0.00501763 -0.00531246 -0.00560565 -0.00589718 -0.00618496 -0.00646684 -0.00674285 -0.00701298 -0.0072756 -0.00752909 -0.00777344 -0.00800867 -0.00823372 -0.00844756 -0.0086502 -0.00884162 -0.00902135 -0.00918887 -0.00934419 -0.00948731 -0.00961811 -0.0097365 -0.00984247 -0.00993602 -0.0100172 -0.0100862 -0.0101429 -0.0101873 -0.0102196 -0.0102399 -0.010248 -0.0102442 -0.0102283 -0.0102004 -0.0101605 -0.0101086 -0.0100447 -0.00996874 -0.00988073 -0.00978067 -0.00966858 -0.0095445 -0.00940842 -0.00926035 -0.00910055 -0.00892926 -0.0087465 -0.00855226 -0.00834721 -0.00813201 -0.00790667 -0.00767117 -0.00742672 -0.00717449 -0.00691449 -0.00664671 -0.00637287 -0.00609468 -0.00581213 -0.00552522 -0.00523606 -0.00494676 -0.0046573 -0.00436769 -0.00408018 -0.003797 -0.00351817 -0.00324368 -0.00297562 -0.00271606 -0.00246501 -0.00222246 -0.00199006 -0.00176942 -0.00156055 -0.00136345 -0.0011791 -0.00100846 -0.00085155 -0.000708356 -0.000579071 -0.000463886 -0.0003628 -0.000275813 -0.000202079 -0.000140751 -9.18295e-05 -5.53143e-05 -2.89572e-05 -1.05099e-05 2.74228e-08 2.65491e-06 1.49339e-06 6.63727e-07 1.65932e-07 0 0 -8.07475e-07 -3.2299e-06 -7.26727e-06 -1.29196e-05 -2.56911e-05 -5.10862e-05 -8.91048e-05 -0.000139747 -0.000206008 -0.000290882 -0.00039437 -0.000516472 -0.000657988 -0.000819717 -0.00100166 -0.00120381 -0.00142548 -0.00166594 -0.0019252 -0.00220326 -0.00249832 -0.00280855 -0.00313396 -0.00347455 -0.00382764 -0.00419058 -0.00456337 -0.00494599 -0.00533528 -0.00572807 -0.00612435 -0.00652412 -0.00692418 -0.00732128 -0.00771544 -0.00810665 -0.00849208 -0.00886893 -0.00923718 -0.00959685 -0.00994581 -0.010282 -0.0106053 -0.0109159 -0.0112124 -0.0114936 -0.0117594 -0.0120099 -0.0122446 -0.012463 -0.012665 -0.0128506 -0.0130199 -0.0131729 -0.0133095 -0.0134299 -0.0135341 -0.0136225 -0.013695 -0.0137516 -0.0137926 -0.0138181 -0.0138281 -0.0138227 -0.0138018 -0.0137656 -0.0137139 -0.0136468 -0.0135642 -0.0134659 -0.0133521 -0.0132226 -0.0130773 -0.0129163 -0.0127394 -0.0125467 -0.0123384 -0.0121146 -0.0118754 -0.0116208 -0.0113515 -0.0110682 -0.010771 -0.0104598 -0.0101362 -0.00980155 -0.00945593 -0.00909932 -0.00873396 -0.00836207 -0.00798366 -0.00759872 -0.00721008 -0.00682055 -0.00643014 -0.00603884 -0.00564973 -0.00526586 -0.00488724 -0.00451387 -0.00414863 -0.00379442 -0.00345122 -0.00311903 -0.00280017 -0.00249691 -0.00220927 -0.00193723 -0.00168222 -0.00144565 -0.00122752 -0.00102782 -0.000846904 -0.000685113 -0.000542444 -0.000418899 -0.000313417 -0.000224937 -0.00015346 -9.89855e-05 -5.85392e-05 -2.91461e-05 -1.08063e-05 -3.51976e-06 -1.97986e-06 -8.79939e-07 -2.19985e-07 0 0 -1.77489e-06 -7.09954e-06 -1.5974e-05 -2.83982e-05 -5.09035e-05 -9.00213e-05 -0.000145752 -0.000218094 -0.000310738 -0.00042737 -0.000567992 -0.000732602 -0.000922071 -0.00113727 -0.0013782 -0.00164485 -0.0019362 -0.00225119 -0.00258982 -0.0029521 -0.00333558 -0.0037378 -0.00415876 -0.00459846 -0.00505338 -0.00551998 -0.00599828 -0.00648826 -0.00698581 -0.00748679 -0.00799121 -0.00849906 -0.00900623 -0.0095086 -0.0100062 -0.0104989 -0.0109833 -0.0114559 -0.0119166 -0.0123654 -0.0127998 -0.0132173 -0.0136178 -0.0140014 -0.0143667 -0.0147122 -0.015038 -0.0153441 -0.01563 -0.0158954 -0.0161402 -0.0163645 -0.0165685 -0.0167524 -0.0169163 -0.0170601 -0.0171843 -0.0172894 -0.0173754 -0.0174422 -0.0174903 -0.01752 -0.0175312 -0.0175241 -0.0174985 -0.0174545 -0.0173922 -0.0173115 -0.0172121 -0.0170939 -0.0169567 -0.0168007 -0.0166255 -0.0164307 -0.0162165 -0.0159827 -0.0157294 -0.0154566 -0.0151644 -0.0148526 -0.0145221 -0.0141735 -0.0138068 -0.0134221 -0.013021 -0.0126053 -0.0121748 -0.0117297 -0.0112726 -0.0108063 -0.0103308 -0.00984603 -0.00935558 -0.008863 -0.00836829 -0.00787144 -0.0073764 -0.00688711 -0.00640357 -0.00592578 -0.00545751 -0.00500253 -0.00456083 -0.00413242 -0.00372035 -0.00332767 -0.00295438 -0.00260048 -0.00226791 -0.00195861 -0.00167257 -0.00140979 -0.00117084 -0.000956288 -0.000766122 -0.000600346 -0.000457738 -0.000337074 -0.000238356 -0.000161582 -0.000103068 -5.91318e-05 -2.97721e-05 -1.49891e-05 -8.43139e-06 -3.74729e-06 -9.36822e-07 0 0 -3.12507e-06 -1.25003e-05 -2.81256e-05 -5.00011e-05 -8.55106e-05 -0.000142038 -0.000219584 -0.000318147 -0.000442082 -0.000595742 -0.000779128 -0.000992238 -0.00123595 -0.00151114 -0.0018178 -0.00215594 -0.0025241 -0.00292082 -0.00334611 -0.00379995 -0.00427918 -0.0047806 -0.00530421 -0.00585001 -0.00641352 -0.00699026 -0.00758023 -0.00818343 -0.0087947 -0.00940887 -0.010026 -0.010646 -0.0112638 -0.0118744 -0.0124778 -0.013074 -0.0136587 -0.0142277 -0.014781 -0.0153185 -0.0158375 -0.0163349 -0.0168108 -0.0172652 -0.0176965 -0.0181035 -0.018486 -0.0188441 -0.0191775 -0.0194862 -0.0197701 -0.0200291 -0.0202639 -0.0204751 -0.0206627 -0.0208267 -0.0209679 -0.021087 -0.0211841 -0.0212593 -0.0213129 -0.0213456 -0.0213574 -0.0213483 -0.0213182 -0.0212673 -0.0211954 -0.0211026 -0.0209885 -0.0208525 -0.0206947 -0.0205151 -0.020313 -0.0200879 -0.0198396 -0.0195683 -0.0192736 -0.0189553 -0.0186134 -0.0182477 -0.0178591 -0.0174479 -0.0170142 -0.0165581 -0.0160813 -0.0155856 -0.0150712 -0.0145379 -0.0139889 -0.0134275 -0.0128536 -0.0122672 -0.0116726 -0.0110741 -0.0104717 -0.00986548 -0.0092602 -0.00866076 -0.00806716 -0.00747942 -0.00690225 -0.00634039 -0.00579385 -0.00526261 -0.00475059 -0.00426168 -0.00379589 -0.0033532 -0.00293617 -0.00254734 -0.00218671 -0.00185427 -0.00155089 -0.00127741 -0.00103383 -0.000820154 -0.000635042 -0.000477163 -0.000346517 -0.000243102 -0.000162545 -0.000100467 -5.68701e-05 -3.17533e-05 -1.78612e-05 -7.93832e-06 -1.98458e-06 0 0 -4.95544e-06 -1.98218e-05 -4.4599e-05 -7.9287e-05 -0.000131836 -0.000210194 -0.000314362 -0.00044434 -0.000605051 -0.000801416 -0.00103344 -0.00130111 -0.0016052 -0.00194645 -0.00232488 -0.00274047 -0.00319125 -0.00367521 -0.00419237 -0.00474273 -0.00532223 -0.00592687 -0.00655663 -0.00721151 -0.00788599 -0.00857453 -0.00927713 -0.00999379 -0.0107183 -0.0114443 -0.0121719 -0.012901 -0.0136257 -0.0143399 -0.0150436 -0.0157368 -0.0164147 -0.0170723 -0.0177096 -0.0183267 -0.0189204 -0.0194874 -0.0200279 -0.0205417 -0.0210277 -0.0214844 -0.0219118 -0.0223101 -0.0226793 -0.0230198 -0.0233315 -0.0236145 -0.0238698 -0.0240986 -0.0243009 -0.0244766 -0.0246272 -0.0247539 -0.0248566 -0.0249354 -0.024991 -0.0250244 -0.0250354 -0.0250241 -0.0249905 -0.0249345 -0.0248563 -0.0247557 -0.024632 -0.0244844 -0.024313 -0.0241178 -0.0238976 -0.0236513 -0.023379 -0.0230807 -0.0227555 -0.0224027 -0.0220223 -0.0216144 -0.0211791 -0.0207167 -0.0202272 -0.0197106 -0.0191687 -0.0186033 -0.0180144 -0.017402 -0.0167697 -0.0161209 -0.0154556 -0.014774 -0.0140808 -0.0133812 -0.0126751 -0.0119626 -0.0112494 -0.0105414 -0.00983861 -0.00914095 -0.00845424 -0.00778423 -0.00713092 -0.00649431 -0.00587926 -0.00529059 -0.00472832 -0.00419244 -0.0036862 -0.00321288 -0.00277246 -0.00236496 -0.0019916 -0.00165364 -0.00135108 -0.00108391 -0.000850793 -0.000650399 -0.000482721 -0.000347762 -0.000240531 -0.00015604 -9.42902e-05 -5.528e-05 -3.1095e-05 -1.382e-05 -3.455e-06 0 0 -7.36343e-06 -2.94537e-05 -6.62708e-05 -0.000117815 -0.000192201 -0.000297546 -0.000433848 -0.000601109 -0.000804654 -0.00104981 -0.00133658 -0.00166496 -0.0020354 -0.00244837 -0.00290386 -0.00340187 -0.00393972 -0.00451475 -0.00512695 -0.00577632 -0.00645785 -0.00716652 -0.00790233 -0.00866528 -0.0094487 -0.0102459 -0.0110569 -0.0118816 -0.0127128 -0.013543 -0.0143722 -0.0152004 -0.0160207 -0.0168261 -0.0176167 -0.0183924 -0.0191479 -0.0198777 -0.0205818 -0.0212602 -0.0219098 -0.0225272 -0.0231125 -0.0236656 -0.0241858 -0.0246719 -0.0251241 -0.0255424 -0.0259276 -0.0262807 -0.0266018 -0.0268908 -0.0271496 -0.0273802 -0.0275827 -0.0277569 -0.0279049 -0.0280286 -0.0281281 -0.0282033 -0.0282554 -0.0282856 -0.0282939 -0.0282802 -0.0282447 -0.0281871 -0.0281075 -0.028006 -0.0278812 -0.0277321 -0.0275586 -0.0273607 -0.0271366 -0.0268846 -0.0266046 -0.0262967 -0.0259593 -0.0255908 -0.0251913 -0.0247607 -0.0242988 -0.0238051 -0.0232796 -0.0227224 -0.022135 -0.0215189 -0.020874 -0.0202004 -0.0195019 -0.018782 -0.0180408 -0.0172783 -0.0165 -0.0157116 -0.0149131 -0.0141045 -0.0132924 -0.0124838 -0.0116785 -0.0108766 -0.0100849 -0.00931025 -0.0085527 -0.00781221 -0.00709469 -0.00640602 -0.0057462 -0.00511524 -0.00451722 -0.00395627 -0.00343237 -0.00294553 -0.00249752 -0.00209013 -0.00172335 -0.00139718 -0.00111045 -0.000861975 -0.000651748 -0.000479773 -0.00034059 -0.00022874 -0.000144222 -8.70374e-05 -4.89586e-05 -2.17594e-05 -5.43984e-06 0 0 -1.0349e-05 -4.13961e-05 -9.31412e-05 -0.000165584 -0.000266608 -0.000404094 -0.000578042 -0.000788452 -0.00104089 -0.00134092 -0.00168855 -0.00208377 -0.00252655 -0.00301687 -0.00355473 -0.00414012 -0.00476952 -0.00543943 -0.00614983 -0.00690074 -0.00768602 -0.00849954 -0.0093413 -0.0102113 -0.0111016 -0.0120044 -0.0129195 -0.013847 -0.0147783 -0.015705 -0.0166269 -0.0175441 -0.0184488 -0.0193331 -0.0201971 -0.0210408 -0.0218583 -0.0226439 -0.0233975 -0.0241191 -0.0248057 -0.0254542 -0.0260646 -0.0266369 -0.0271708 -0.0276661 -0.0281228 -0.0285409 -0.0289223 -0.029269 -0.0295809 -0.029858 -0.0301034 -0.0303201 -0.0305081 -0.0306674 -0.0308008 -0.0309112 -0.0309986 -0.031063 -0.031106 -0.0311293 -0.0311329 -0.0311167 -0.0310808 -0.031025 -0.0309492 -0.0308536 -0.0307362 -0.0305955 -0.0304314 -0.0302439 -0.0300303 -0.0297878 -0.0295166 -0.0292165 -0.028885 -0.0285196 -0.0281202 -0.0276868 -0.0272182 -0.0267132 -0.0261716 -0.0255936 -0.0249802 -0.0243323 -0.0236499 -0.0229331 -0.0221855 -0.0214108 -0.020609 -0.0197801 -0.0189302 -0.0180654 -0.0171856 -0.016291 -0.0153892 -0.0144878 -0.0135868 -0.0126863 -0.0117942 -0.0109185 -0.0100592 -0.00921631 -0.00839689 -0.00760797 -0.00684954 -0.0061216 -0.00542923 -0.00477751 -0.00416643 -0.00359599 -0.00306865 -0.00258687 -0.00215065 -0.00175999 -0.00141402 -0.00111189 -0.000853597 -0.000639136 -0.000462722 -0.000318566 -0.000206667 -0.000127025 -7.14518e-05 -3.17564e-05 -7.93909e-06 0 0 -1.39122e-05 -5.56489e-05 -0.00012521 -0.000222596 -0.000355055 -0.000529837 -0.000746943 -0.00100637 -0.00131376 -0.00167476 -0.00208935 -0.00255756 -0.00307866 -0.00365197 -0.0042775 -0.00495522 -0.00568064 -0.00644925 -0.00726103 -0.00811599 -0.00900675 -0.00992594 -0.0108736 -0.0118496 -0.0128448 -0.0138499 -0.0148649 -0.0158898 -0.0169149 -0.0179303 -0.018936 -0.0199322 -0.02091 -0.0218609 -0.0227849 -0.023682 -0.024546 -0.0253709 -0.0261567 -0.0269033 -0.0276082 -0.0282685 -0.0288842 -0.0294554 -0.0299828 -0.030467 -0.0309079 -0.0313057 -0.0316634 -0.0319845 -0.0322687 -0.0325162 -0.0327313 -0.0329183 -0.0330773 -0.0332082 -0.033315 -0.0334017 -0.0334682 -0.0335145 -0.0335428 -0.0335555 -0.0335524 -0.0335336 -0.0334989 -0.0334481 -0.0333813 -0.0332984 -0.0331971 -0.0330748 -0.0329315 -0.0327674 -0.0325784 -0.0323609 -0.0321147 -0.03184 -0.0315327 -0.031189 -0.030809 -0.0303925 -0.0299373 -0.0294408 -0.0289031 -0.0283242 -0.0277043 -0.0270436 -0.0263422 -0.0256 -0.0248205 -0.0240073 -0.0231602 -0.0222794 -0.0213713 -0.0204424 -0.0194928 -0.0185224 -0.0175397 -0.0165535 -0.0155636 -0.0145701 -0.0135821 -0.0126089 -0.0116504 -0.0107066 -0.00978586 -0.00889644 -0.00803833 -0.00721153 -0.00642223 -0.0056766 -0.00497463 -0.00431634 -0.003705 -0.00314388 -0.00263299 -0.00217232 -0.0017615 -0.00140015 -0.00108827 -0.000825852 -0.000606927 -0.000425518 -0.000281624 -0.000175244 -9.85748e-05 -4.3811e-05 -1.09528e-05 0 0 -1.80698e-05 -7.22794e-05 -0.000162629 -0.000289118 -0.000457906 -0.000675154 -0.000940862 -0.00125503 -0.00162315 -0.00205071 -0.00253771 -0.00308416 -0.00368845 -0.00434897 -0.00506574 -0.00583874 -0.00666227 -0.00753064 -0.00844384 -0.00940187 -0.010396 -0.0114173 -0.012466 -0.0135419 -0.0146344 -0.0157328 -0.0168371 -0.0179472 -0.0190522 -0.0201411 -0.0212139 -0.0222706 -0.0233018 -0.024298 -0.0252593 -0.0261857 -0.027071 -0.027909 -0.0286998 -0.0294432 -0.0301373 -0.03078 -0.0313713 -0.0319112 -0.0324017 -0.0328446 -0.0332401 -0.0335881 -0.0338934 -0.0341611 -0.034391 -0.0345831 -0.0347436 -0.0348785 -0.0349878 -0.0350714 -0.0351347 -0.0351829 -0.035216 -0.0352341 -0.0352401 -0.0352369 -0.0352244 -0.0352028 -0.0351717 -0.0351308 -0.0350803 -0.03502 -0.0349468 -0.0348572 -0.0347513 -0.0346291 -0.0344854 -0.0343148 -0.0341174 -0.0338931 -0.0336364 -0.0333419 -0.0330093 -0.0326389 -0.0322265 -0.0317682 -0.031264 -0.030714 -0.0301172 -0.0294728 -0.0287807 -0.0280411 -0.0272568 -0.026431 -0.0255637 -0.0246548 -0.0237111 -0.0227393 -0.0217395 -0.0207117 -0.0196652 -0.0186095 -0.0175446 -0.0164706 -0.0153977 -0.0143364 -0.0132868 -0.0122488 -0.011232 -0.0102462 -0.00929129 -0.00836731 -0.00748168 -0.00664183 -0.00584777 -0.00509948 -0.00440126 -0.00375738 -0.00316784 -0.00263264 -0.0021521 -0.00172653 -0.00135592 -0.0010403 -0.000773671 -0.000550081 -0.000369526 -0.000232006 -0.000130503 -5.80014e-05 -1.45003e-05 0 0 -2.28386e-05 -9.13546e-05 -0.000205548 -0.000365418 -0.000575524 -0.000840421 -0.00116011 -0.00153459 -0.00196893 -0.00246818 -0.00303235 -0.00366143 -0.00435264 -0.00510317 -0.00591302 -0.0067822 -0.00770358 -0.00867004 -0.00968158 -0.0107382 -0.0118296 -0.0129453 -0.0140854 -0.0152499 -0.0164266 -0.0176032 -0.0187796 -0.0199561 -0.0211202 -0.0222597 -0.0233748 -0.0244654 -0.0255214 -0.0265328 -0.0274996 -0.0284219 -0.0292936 -0.0301086 -0.0308671 -0.031569 -0.0322133 -0.0327988 -0.0333258 -0.033794 -0.0342073 -0.0345693 -0.03488 -0.0351394 -0.0353546 -0.0355325 -0.0356732 -0.0357767 -0.0358511 -0.0359046 -0.0359373 -0.035949 -0.0359468 -0.0359376 -0.0359215 -0.0358983 -0.0358719 -0.0358461 -0.035821 -0.0357963 -0.035772 -0.0357474 -0.0357227 -0.0356979 -0.0356685 -0.0356302 -0.0355831 -0.0355272 -0.0354553 -0.0353604 -0.0352426 -0.0351018 -0.0349305 -0.0347208 -0.0344728 -0.0341866 -0.0338561 -0.0334753 -0.0330442 -0.0325629 -0.0320289 -0.0314398 -0.0307957 -0.0300964 -0.0293444 -0.0285418 -0.0276886 -0.0267847 -0.0258371 -0.0248525 -0.0238309 -0.0227722 -0.0216868 -0.0205846 -0.0194658 -0.0183303 -0.0171898 -0.016056 -0.0149289 -0.0138084 -0.0127058 -0.011632 -0.0105872 -0.00957123 -0.00859306 -0.00766152 -0.0067766 -0.00593832 -0.00515216 -0.00442362 -0.0037527 -0.00313941 -0.00258502 -0.00209079 -0.00165673 -0.00128285 -0.00096342 -0.000692739 -0.000470807 -0.000297622 -0.000167412 -7.44055e-05 -1.86014e-05 0 0 -2.82186e-05 -0.000112875 -0.000253968 -0.000451498 -0.000707908 -0.00102564 -0.00140469 -0.00184506 -0.00235111 -0.00292717 -0.00357326 -0.00428938 -0.00507124 -0.00591456 -0.00681936 -0.00778562 -0.00880458 -0.00986746 -0.0109743 -0.012125 -0.0133076 -0.0145099 -0.0157319 -0.0169737 -0.0182213 -0.019461 -0.0206927 -0.0219164 -0.0231187 -0.0242862 -0.0254187 -0.0265165 -0.0275689 -0.0285653 -0.0295059 -0.0303905 -0.0312137 -0.0319698 -0.0326588 -0.0332808 -0.033836 -0.034325 -0.0347476 -0.0351038 -0.0353997 -0.0356409 -0.0358276 -0.0359597 -0.036047 -0.0360989 -0.0361155 -0.0360969 -0.0360537 -0.0359967 -0.0359258 -0.0358411 -0.0357515 -0.0356659 -0.0355844 -0.0355069 -0.0354383 -0.0353833 -0.035342 -0.0353143 -0.0352997 -0.0352978 -0.0353085 -0.0353319 -0.0353622 -0.0353939 -0.035427 -0.0354615 -0.0354881 -0.0354978 -0.0354905 -0.0354662 -0.0354147 -0.0353258 -0.0351995 -0.0350357 -0.0348261 -0.034562 -0.0342436 -0.0338708 -0.0334393 -0.0329446 -0.0323869 -0.031766 -0.0310832 -0.0303395 -0.0295348 -0.0286693 -0.0277495 -0.0267821 -0.0257669 -0.0247041 -0.0236044 -0.0224787 -0.021327 -0.0201493 -0.0189586 -0.0177677 -0.0165767 -0.0153856 -0.0142071 -0.0130539 -0.0119259 -0.0108233 -0.00975636 -0.00873565 -0.00776114 -0.00683284 -0.00595767 -0.00514259 -0.00438757 -0.00369263 -0.00306026 -0.00249295 -0.0019907 -0.00155351 -0.00117617 -0.000853493 -0.000585467 -0.000372094 -0.000209303 -9.30234e-05 -2.32559e-05 0 0 -3.42098e-05 -0.000136839 -0.000307888 -0.000547357 -0.000855058 -0.0012308 -0.0016746 -0.00218643 -0.00276968 -0.00342768 -0.00416046 -0.00496799 -0.00584424 -0.00678316 -0.00778474 -0.00884899 -0.00996526 -0.0111229 -0.0123219 -0.0135622 -0.0148299 -0.016111 -0.0174054 -0.0187132 -0.0200187 -0.0213064 -0.0225763 -0.0238283 -0.0250479 -0.0262204 -0.0273457 -0.028424 -0.0294442 -0.0303956 -0.031278 -0.0320916 -0.0328313 -0.0334924 -0.0340748 -0.0345785 -0.0350057 -0.0353584 -0.0356368 -0.0358407 -0.0359788 -0.0360596 -0.036083 -0.036049 -0.0359705 -0.0358601 -0.0357178 -0.0355437 -0.0353514 -0.0351546 -0.0349533 -0.0347476 -0.0345487 -0.0343678 -0.0342049 -0.0340601 -0.0339392 -0.0338483 -0.0337875 -0.0337566 -0.033755 -0.0337821 -0.0338378 -0.0339221 -0.034028 -0.0341483 -0.0342829 -0.0344321 -0.0345839 -0.0347269 -0.034861 -0.0349862 -0.0350892 -0.0351569 -0.0351893 -0.0351863 -0.0351365 -0.0350285 -0.0348623 -0.0346379 -0.0343485 -0.0339873 -0.0335545 -0.0330499 -0.0324732 -0.0318241 -0.0311025 -0.0303085 -0.0294483 -0.028528 -0.0275476 -0.0265072 -0.0254182 -0.0242919 -0.0231284 -0.0219276 -0.0207039 -0.0194715 -0.0182303 -0.0169803 -0.0157361 -0.0145118 -0.0133076 -0.0121235 -0.0109716 -0.00986423 -0.00880138 -0.00778305 -0.00681782 -0.00591429 -0.00507245 -0.0042923 -0.00357782 -0.00293299 -0.00235781 -0.00185227 -0.00141193 -0.00103234 -0.000713506 -0.00045542 -0.000256174 -0.000113855 -2.84638e-05 0 0 -4.07648e-05 -0.000163059 -0.000366883 -0.000652237 -0.00101579 -0.00145419 -0.00196746 -0.00255559 -0.00322063 -0.00396464 -0.00478762 -0.00568956 -0.00666233 -0.00769778 -0.00879592 -0.00995674 -0.0111674 -0.0124153 -0.0137002 -0.0150222 -0.0163652 -0.0177131 -0.0190659 -0.0204235 -0.0217686 -0.0230838 -0.024369 -0.0256243 -0.0268338 -0.0279817 -0.029068 -0.0300927 -0.0310447 -0.0319129 -0.0326973 -0.0333979 -0.0340108 -0.0345321 -0.0349619 -0.0353001 -0.035551 -0.0357192 -0.0358045 -0.0358069 -0.0357382 -0.0356101 -0.0354226 -0.0351757 -0.0348857 -0.0345691 -0.0342259 -0.033856 -0.0334766 -0.033105 -0.0327411 -0.0323849 -0.0320504 -0.0317514 -0.031488 -0.0312602 -0.0310752 -0.0309405 -0.0308561 -0.030822 -0.0308372 -0.030901 -0.0310132 -0.0311739 -0.0313743 -0.0316056 -0.0318677 -0.0321606 -0.0324698 -0.0327808 -0.0330936 -0.033408 -0.0337075 -0.0339752 -0.0342112 -0.0344154 -0.0345729 -0.0346687 -0.0347029 -0.0346755 -0.0345768 -0.0343971 -0.0341365 -0.0337949 -0.0333702 -0.03286 -0.0322644 -0.0315834 -0.0308225 -0.0299872 -0.0290775 -0.0280935 -0.0270469 -0.0259497 -0.0248019 -0.0236034 -0.0223698 -0.0211167 -0.019844 -0.0185519 -0.0172563 -0.0159737 -0.0147039 -0.013447 -0.0122171 -0.0110285 -0.00988123 -0.00877521 -0.00772095 -0.00672895 -0.00579921 -0.00493173 -0.00413227 -0.00340657 -0.00275465 -0.00217649 -0.00166869 -0.00122783 -0.000853928 -0.000546969 -0.00030767 -0.000136742 -3.41856e-05 0 0 -4.78363e-05 -0.000191345 -0.000430526 -0.00076538 -0.0011889 -0.00169408 -0.00228091 -0.00294941 -0.00369996 -0.00453298 -0.00544845 -0.00644639 -0.00751619 -0.00864728 -0.00983964 -0.0110933 -0.012393 -0.0137235 -0.0150849 -0.0164772 -0.0178818 -0.0192805 -0.0206731 -0.0220598 -0.0234211 -0.0247377 -0.0260096 -0.0272369 -0.0284025 -0.0294894 -0.0304978 -0.0314275 -0.0322674 -0.0330065 -0.0336448 -0.0341822 -0.0346163 -0.0349445 -0.0351669 -0.0352834 -0.0353012 -0.0352273 -0.0350618 -0.0348047 -0.0344714 -0.0340776 -0.0336231 -0.033108 -0.0325531 -0.0319788 -0.0313854 -0.0307726 -0.0301619 -0.0295744 -0.0290102 -0.0284692 -0.0279684 -0.0275249 -0.0271387 -0.0268097 -0.026547 -0.0263593 -0.0262467 -0.0262093 -0.0262458 -0.0263552 -0.0265375 -0.0267926 -0.0271098 -0.0274782 -0.0278978 -0.0283688 -0.028873 -0.0293926 -0.0299276 -0.0304781 -0.0310231 -0.0315417 -0.032034 -0.0325 -0.0329206 -0.0332766 -0.0335682 -0.0337953 -0.0339447 -0.0340033 -0.0339711 -0.0338481 -0.0336298 -0.0333115 -0.0328932 -0.0323749 -0.0317613 -0.0310567 -0.0302612 -0.0293748 -0.0284097 -0.0273779 -0.0262797 -0.0251148 -0.0239002 -0.0226528 -0.0213726 -0.0200595 -0.0187317 -0.0174074 -0.0160864 -0.0147689 -0.0134713 -0.0122098 -0.0109846 -0.00979556 -0.0086554 -0.0075768 -0.00655975 -0.00560425 -0.00471816 -0.00390934 -0.00317779 -0.00252351 -0.00194444 -0.00143851 -0.00100574 -0.000646108 -0.000363436 -0.000161527 -4.03817e-05 0 0 -5.54242e-05 -0.000221697 -0.000498818 -0.000886787 -0.0013744 -0.00195046 -0.00261495 -0.00336789 -0.00420766 -0.00513268 -0.00614295 -0.00723846 -0.00840582 -0.00963164 -0.0109159 -0.0122586 -0.0136419 -0.0150477 -0.0164761 -0.0179272 -0.0193798 -0.0208132 -0.0222273 -0.023622 -0.0249761 -0.0262681 -0.0274981 -0.0286661 -0.029754 -0.0307436 -0.0316351 -0.0324283 -0.0331124 -0.0336765 -0.0341206 -0.0344446 -0.0346479 -0.0347296 -0.0346899 -0.0345285 -0.0342561 -0.0338828 -0.0334088 -0.032834 -0.0321784 -0.0314618 -0.0306844 -0.0298461 -0.0289725 -0.0280892 -0.0271963 -0.0262937 -0.0254073 -0.0245629 -0.0237606 -0.0230005 -0.0223028 -0.0216884 -0.021157 -0.0207088 -0.0203544 -0.0201045 -0.0199592 -0.0199184 -0.0199807 -0.0201448 -0.0204106 -0.0207781 -0.0212343 -0.0217661 -0.0223735 -0.0230565 -0.0237933 -0.0245623 -0.0253632 -0.0261963 -0.0270359 -0.0278564 -0.0286579 -0.0294402 -0.0301797 -0.0308523 -0.0314581 -0.0319971 -0.0324521 -0.0328058 -0.0330583 -0.0332095 -0.0332521 -0.0331785 -0.0329889 -0.0326832 -0.0322647 -0.0317365 -0.0310986 -0.0303511 -0.0295063 -0.0285765 -0.0275617 -0.0264618 -0.0252952 -0.0240798 -0.0228159 -0.0215032 -0.0201622 -0.0188128 -0.0174553 -0.0160894 -0.0147341 -0.0134081 -0.0121115 -0.0108441 -0.00962119 -0.00845785 -0.00735406 -0.00630985 -0.00533549 -0.00444128 -0.00362723 -0.00289333 -0.00223918 -0.00166438 -0.00116893 -0.000752836 -0.00042347 -0.000188209 -4.70523e-05 0 0 -6.35286e-05 -0.000254114 -0.000571758 -0.00101646 -0.00157229 -0.00222333 -0.00296957 -0.00381102 -0.00474374 -0.00576377 -0.00687112 -0.00806579 -0.00933122 -0.0106509 -0.0120247 -0.0134528 -0.0149141 -0.0163878 -0.0178738 -0.0193722 -0.0208592 -0.0223112 -0.0237282 -0.0251102 -0.0264336 -0.0276751 -0.0288346 -0.029912 -0.0308883 -0.0317443 -0.0324799 -0.0330952 -0.0335797 -0.0339228 -0.0341246 -0.0341851 -0.0341056 -0.0338875 -0.0335308 -0.0330355 -0.0324157 -0.0316857 -0.0308454 -0.0298949 -0.0288591 -0.027763 -0.0266066 -0.0253899 -0.0241441 -0.0229003 -0.0216587 -0.0204191 -0.0192127 -0.0180705 -0.0169925 -0.0159787 -0.0150536 -0.0142417 -0.0135429 -0.0129573 -0.0124975 -0.0121762 -0.0119935 -0.0119493 -0.0120419 -0.0122697 -0.0126325 -0.0131305 -0.013748 -0.0144694 -0.0152947 -0.0162239 -0.0172309 -0.0182898 -0.0194004 -0.0205628 -0.0217461 -0.0229194 -0.0240827 -0.025236 -0.0263501 -0.0273956 -0.0283726 -0.0292811 -0.0300991 -0.0308047 -0.0313981 -0.031879 -0.032237 -0.0324611 -0.0325515 -0.0325082 -0.0323327 -0.0320265 -0.0315898 -0.0310225 -0.030337 -0.0295455 -0.028648 -0.0276445 -0.0265546 -0.0253977 -0.0241739 -0.0228831 -0.0215477 -0.0201901 -0.0188104 -0.0174084 -0.0160056 -0.0146234 -0.0132618 -0.0119208 -0.0106183 -0.00937208 -0.00818215 -0.00704853 -0.00598426 -0.00500241 -0.00410297 -0.00328595 -0.00