<?xml version="1.0"?> 
<VTKFile type="StructuredGrid" version="0.1"> 
<StructuredGrid WholeExtent="0 128 0 128 0 0"> 
<Piece Extent="0 128 0 128 0 0"> 
<PointData>
<DataArray type="Float32" Name="u" format="ascii" NumberOfComponents="1"> 
0 0 0 0 0 0 0 0 0 0 0 0 0 0 0 0 0 0 0 0 0 0 0 0 0 0 0 0 0 0 0 0 0 0 0 0 0 0 0 0 0 0 0 0 0 0 0 0 0 0 0 0 0 0 0 0 0 0 0 0 0 0 0 0 0 0 0 0 0 0 0 0 0 0 0 0 0 0 0 0 0 0 0 0 0 0 0 0 0 0 0 0 0 0 0 0 0 0 0 0 0 0 0 0 0 0 0 0 0 0 0 0 0 0 0 0 0 0 0 0 0 0 0 0 0 0 0 0 0 0 -3.69848e-07 -1.47939e-06 -3.32863e-06 -5.91757e-06 -9.23396e-06 -1.32656e-05 -1.80124e-05 -2.34745e-05 -2.96253e-05 -3.64386e-05 -4.39142e-05 -5.20522e-05 -6.07413e-05 -6.98701e-05 -7.94388e-05 -8.94473e-05 -9.97828e-05 -0.000110333 -0.000121097 -0.000132075 -0.00014316 -0.000154247 -0.000165334 -0.000176423 -0.000187413 -0.000198206 -0.000208803 -0.000219202 -0.000229321 -0.000239074 -0.000248462 -0.000257484 -0.00026608 -0.000274192 -0.000281818 -0.00028896 -0.00029559 -0.000301683 -0.00030724 -0.00031226 -0.000316756 -0.00032074 -0.000324212 -0.000327173 -0.000329669 -0.000331749 -0.000333411 -0.000334657 -0.000335556 -0.000336179 -0.000336526 -0.000336598 -0.000336469 -0.000336216 -0.000335839 -0.000335338 -0.000334775 -0.000334212 -0.00033365 -0.000333087 -0.000332557 -0.000332093 -0.000331694 -0.000331361 -0.000331089 -0.000330872 -0.000330711 -0.000330606 -0.000330517 -0.000330403 -0.000330264 -0.0003301 -0.000329847 -0.000329439 -0.000328878 -0.000328162 -0.000327221 -0.000325983 -0.000324447 -0.000322614 -0.000320424 -0.000317818 -0.000314795 -0.000311356 -0.000307469 -0.0003031 -0.000298251 -0.000292921 -0.000287113 -0.000280832 -0.000274078 -0.000266849 -0.000259187 -0.000251129 -0.000242677 -0.000233829 -0.000224654 -0.00021522 -0.000205526 -0.000195572 -0.000185444 -0.000175225 -0.000164917 -0.000154517 -0.000144119 -0.000133812 -0.000123596 -0.000113471 -0.000103527 -9.38547e-05 -8.44537e-05 -7.53238e-05 -6.65529e-05 -5.82283e-05 -5.03501e-05 -4.29184e-05 -3.60122e-05 -2.97105e-05 -2.40135e-05 -1.8921e-05 -1.44378e-05 -1.05682e-05 -7.31242e-06 -4.67037e-06 -2.62708e-06 -1.16759e-06 -2.91898e-07 0 0 -1.47939e-06 -5.91757e-06 -1.33145e-05 -2.36703e-05 -3.69359e-05 -5.30623e-05 -7.20497e-05 -9.38979e-05 -0.000118501 -0.000145754 -0.000175657 -0.000208209 -0.000242965 -0.000279481 -0.000317755 -0.000357789 -0.000399131 -0.00044133 -0.000484386 -0.000528299 -0.000572642 -0.000616988 -0.000661338 -0.00070569 -0.000749651 -0.000792824 -0.00083521 -0.000876809 -0.000917284 -0.000956296 -0.000993846 -0.00102993 -0.00106432 -0.00109677 -0.00112727 -0.00115584 -0.00118236 -0.00120673 -0.00122896 -0.00124904 -0.00126702 -0.00128296 -0.00129685 -0.00130869 -0.00131868 -0.00132699 -0.00133364 -0.00133863 -0.00134222 -0.00134472 -0.00134611 -0.00134639 -0.00134588 -0.00134486 -0.00134336 -0.00134135 -0.0013391 -0.00133685 -0.0013346 -0.00133235 -0.00133023 -0.00132837 -0.00132678 -0.00132544 -0.00132435 -0.00132349 -0.00132284 -0.00132242 -0.00132207 -0.00132161 -0.00132105 -0.0013204 -0.00131939 -0.00131776 -0.00131551 -0.00131265 -0.00130888 -0.00130393 -0.00129779 -0.00129046 -0.0012817 -0.00127127 -0.00125918 -0.00124543 -0.00122988 -0.0012124 -0.001193 -0.00117168 -0.00114845 -0.00112333 -0.00109631 -0.0010674 -0.00103675 -0.00100452 -0.000970707 -0.000935317 -0.000898618 -0.00086088 -0.000822104 -0.00078229 -0.000741776 -0.000700901 -0.000659666 -0.00061807 -0.000576476 -0.000535247 -0.000494382 -0.000453883 -0.000414108 -0.000375419 -0.000337815 -0.000301295 -0.000266211 -0.000232913 -0.000201401 -0.000171674 -0.000144049 -0.000118842 -9.6054e-05 -7.56842e-05 -5.7751e-05 -4.22729e-05 -2.92497e-05 -1.86815e-05 -1.05083e-05 -4.67037e-06 -1.16759e-06 0 0 -3.32863e-06 -1.33145e-05 -2.99577e-05 -5.32581e-05 -8.31057e-05 -0.00011939 -0.000162112 -0.00021127 -0.000266628 -0.000327947 -0.000395228 -0.00046847 -0.000546671 -0.000628831 -0.000714949 -0.000805026 -0.000898045 -0.000992993 -0.00108987 -0.00118867 -0.00128844 -0.00138822 -0.00148801 -0.0015878 -0.00168671 -0.00178385 -0.00187922 -0.00197282 -0.00206389 -0.00215167 -0.00223615 -0.00231735 -0.00239472 -0.00246773 -0.00253636 -0.00260064 -0.00266031 -0.00271515 -0.00276516 -0.00281034 -0.0028508 -0.00288666 -0.00291791 -0.00294456 -0.00296702 -0.00298574 -0.0030007 -0.00301191 -0.00302 -0.00302561 -0.00302874 -0.00302938 -0.00302822 -0.00302595 -0.00302255 -0.00301804 -0.00301298 -0.00300791 -0.00300285 -0.00299778 -0.00299302 -0.00298884 -0.00298525 -0.00298225 -0.0029798 -0.00297785 -0.0029764 -0.00297546 -0.00297465 -0.00297362 -0.00297237 -0.0029709 -0.00296862 -0.00296495 -0.0029599 -0.00295346 -0.00294499 -0.00293384 -0.00292002 -0.00290353 -0.00288382 -0.00286036 -0.00283316 -0.00280221 -0.00276722 -0.0027279 -0.00268426 -0.00263629 -0.00258402 -0.00252749 -0.0024667 -0.00240164 -0.00233268 -0.00226016 -0.00218409 -0.00210446 -0.00202189 -0.00193698 -0.00184973 -0.00176015 -0.001669 -0.00157703 -0.00148425 -0.00139066 -0.00129707 -0.0012043 -0.00111236 -0.00102124 -0.000931744 -0.000844693 -0.000760083 -0.000677915 -0.000598976 -0.000524055 -0.000453151 -0.000386266 -0.00032411 -0.000267395 -0.000216121 -0.000170289 -0.00012994 -9.5114e-05 -6.58118e-05 -4.20333e-05 -2.36437e-05 -1.05083e-05 -2.62708e-06 0 0 -5.91757e-06 -2.36703e-05 -5.32581e-05 -9.46811e-05 -0.000147743 -0.000212249 -0.000288199 -0.000375592 -0.000474005 -0.000583017 -0.000702627 -0.000832835 -0.00097186 -0.00111792 -0.00127102 -0.00143116 -0.00159652 -0.00176532 -0.00193754 -0.0021132 -0.00229057 -0.00246795 -0.00264535 -0.00282276 -0.0029986 -0.0031713 -0.00334084 -0.00350724 -0.00366913 -0.00382518 -0.00397538 -0.00411974 -0.00425728 -0.00438707 -0.00450909 -0.00462335 -0.00472944 -0.00482693 -0.00491584 -0.00499616 -0.00506809 -0.00513184 -0.00518739 -0.00523476 -0.00527471 -0.00530798 -0.00533458 -0.00535451 -0.00536889 -0.00537886 -0.00538442 -0.00538556 -0.0053835 -0.00537946 -0.00537343 -0.00536541 -0.0053564 -0.0053474 -0.00533839 -0.00532939 -0.00532092 -0.00531349 -0.00530711 -0.00530178 -0.00529742 -0.00529395 -0.00529138 -0.0052897 -0.00528827 -0.00528644 -0.00528422 -0.0052816 -0.00527755 -0.00527103 -0.00526204 -0.0052506 -0.00523554 -0.00521572 -0.00519115 -0.00516182 -0.00512679 -0.00508509 -0.00503673 -0.0049817 -0.0049195 -0.0048496 -0.00477201 -0.00468673 -0.00459381 -0.00449332 -0.00438524 -0.00426959 -0.00414699 -0.00401807 -0.00388283 -0.00374127 -0.00359447 -0.00344352 -0.00328842 -0.00312916 -0.0029671 -0.00280361 -0.00263866 -0.00247228 -0.0023059 -0.00214099 -0.00197753 -0.00181553 -0.00165643 -0.00150168 -0.00135126 -0.00120518 -0.00106485 -0.000931653 -0.000805602 -0.000686694 -0.000576195 -0.000475369 -0.000384216 -0.000302737 -0.000231004 -0.000169092 -0.000116999 -7.47259e-05 -4.20333e-05 -1.86815e-05 -4.67037e-06 0 0 -9.22957e-06 -3.69183e-05 -8.30661e-05 -0.000147673 -0.000230209 -0.000330144 -0.000447478 -0.000582212 -0.000733656 -0.000901125 -0.00108462 -0.00128413 -0.00149693 -0.00172026 -0.00195414 -0.00219855 -0.00245073 -0.00270789 -0.00297003 -0.00323716 -0.00350665 -0.00377587 -0.00404482 -0.00431351 -0.00457951 -0.00484039 -0.00509617 -0.00534684 -0.00559034 -0.00582464 -0.00604971 -0.00626558 -0.00647079 -0.00666392 -0.00684497 -0.00701394 -0.00717024 -0.00731328 -0.00744307 -0.0075596 -0.00766325 -0.00775437 -0.00783297 -0.00789904 -0.00795382 -0.00799852 -0.00803314 -0.00805769 -0.00807396 -0.00808372 -0.00808699 -0.00808376 -0.00807595 -0.00806547 -0.00805231 -0.00803649 -0.00801955 -0.00800306 -0.00798702 -0.00797143 -0.00795711 -0.00794487 -0.00793471 -0.00792664 -0.00792053 -0.00791626 -0.00791383 -0.00791325 -0.00791348 -0.00791353 -0.00791339 -0.00791306 -0.00791092 -0.00790533 -0.00789629 -0.00788381 -0.00786608 -0.00784128 -0.00780941 -0.00777048 -0.00772297 -0.00766534 -0.0075976 -0.00751976 -0.00743095 -0.00733033 -0.00721791 -0.00709368 -0.00695767 -0.00680992 -0.00665043 -0.00647921 -0.00629717 -0.00610524 -0.00590341 -0.0056917 -0.00547172 -0.00524512 -0.0050119 -0.00477205 -0.00452765 -0.00428075 -0.00403136 -0.00377948 -0.00352734 -0.00327716 -0.00302894 -0.00278268 -0.00254061 -0.00230495 -0.00207568 -0.00185282 -0.00163852 -0.00143496 -0.00124211 -0.00106 -0.000890568 -0.000735776 -0.000595623 -0.00047011 -0.000359387 -0.000263604 -0.000182763 -0.000116862 -6.57346e-05 -2.92154e-05 -7.30385e-06 0 0 -1.3248e-05 -5.29919e-05 -0.000119232 -0.000211968 -0.000329863 -0.00047158 -0.000637119 -0.00082648 -0.0010386 -0.00127243 -0.00152796 -0.00180519 -0.00210028 -0.00240937 -0.00273247 -0.00306959 -0.00341681 -0.00377027 -0.00412995 -0.00449586 -0.00486433 -0.00523167 -0.00559789 -0.00596299 -0.00632361 -0.00667639 -0.00702132 -0.00735841 -0.00768484 -0.00799781 -0.00829731 -0.00858335 -0.00885402 -0.00910741 -0.00934352 -0.00956234 -0.00976319 -0.00994538 -0.0101089 -0.0102538 -0.0103806 -0.0104901 -0.0105823 -0.0106571 -0.0107164 -0.0107622 -0.0107943 -0.0108127 -0.0108202 -0.0108194 -0.0108103 -0.0107928 -0.0107698 -0.010744 -0.0107155 -0.0106843 -0.0106526 -0.0106227 -0.0105945 -0.0105681 -0.0105447 -0.0105255 -0.0105104 -0.0104994 -0.0104925 -0.0104892 -0.0104898 -0.0104942 -0.0105009 -0.0105084 -0.0105167 -0.0105259 -0.0105335 -0.0105372 -0.010537 -0.0105329 -0.0105222 -0.0105022 -0.010473 -0.0104346 -0.0103847 -0.010321 -0.0102435 -0.0101522 -0.0100458 -0.00992292 -0.00978358 -0.00962778 -0.00945542 -0.00926641 -0.00906077 -0.00883848 -0.00860072 -0.00834868 -0.00808234 -0.00780172 -0.00750901 -0.00720641 -0.00689393 -0.00657157 -0.00624217 -0.00590858 -0.00557079 -0.0052288 -0.00488573 -0.00454468 -0.00420564 -0.00386861 -0.00353672 -0.00321309 -0.0028977 -0.00259056 -0.00229472 -0.00201321 -0.00174605 -0.00149322 -0.00125749 -0.00104163 -0.000845629 -0.000669493 -0.000513531 -0.000378051 -0.000263055 -0.000168543 -9.48052e-05 -4.21357e-05 -1.05339e-05 0 0 -1.79728e-05 -7.18913e-05 -0.000161755 -0.000287565 -0.000446704 -0.000636556 -0.00085712 -0.0011084 -0.00138885 -0.00169693 -0.00203265 -0.00239601 -0.0027819 -0.00318524 -0.00360603 -0.00404426 -0.00449478 -0.00495247 -0.00541731 -0.0058893 -0.0063636 -0.00683535 -0.00730455 -0.00777121 -0.00823092 -0.00867928 -0.00911629 -0.00954194 -0.00995262 -0.0103447 -0.0107182 -0.0110731 -0.011407 -0.0117175 -0.0120047 -0.0122686 -0.0125083 -0.0127232 -0.0129134 -0.0130787 -0.0132202 -0.0133391 -0.0134354 -0.013509 -0.0135626 -0.0135989 -0.0136179 -0.0136196 -0.0136078 -0.013586 -0.0135543 -0.0135127 -0.013465 -0.0134152 -0.0133631 -0.0133089 -0.0132555 -0.0132062 -0.0131609 -0.0131195 -0.0130838 -0.0130554 -0.0130342 -0.0130202 -0.0130132 -0.0130129 -0.0130193 -0.0130325 -0.0130504 -0.0130709 -0.0130941 -0.01312 -0.0131452 -0.0131666 -0.0131841 -0.0131977 -0.0132038 -0.0131986 -0.0131821 -0.0131543 -0.013112 -0.0130521 -0.0129744 -0.0128791 -0.0127641 -0.0126274 -0.012469 -0.012289 -0.0120871 -0.0118628 -0.0116162 -0.0113474 -0.0110576 -0.0107484 -0.0104196 -0.0100713 -0.00970633 -0.00932739 -0.00893452 -0.00852772 -0.00811067 -0.00768708 -0.00725694 -0.00682025 -0.00638109 -0.00594355 -0.00550763 -0.00507332 -0.00464476 -0.00422609 -0.0038173 -0.0034184 -0.00303342 -0.00266642 -0.0023174 -0.00198635 -0.00167697 -0.00139293 -0.00113423 -0.000900886 -0.000693436 -0.000512433 -0.000357877 -0.000229769 -0.000129245 -5.74423e-05 -1.43606e-05 0 0 -2.34041e-05 -9.36164e-05 -0.000210637 -0.000374466 -0.000580734 -0.000825073 -0.00110748 -0.00142796 -0.00178439 -0.00217463 -0.0025987 -0.00305658 -0.0035418 -0.00404787 -0.00457479 -0.00512256 -0.00568464 -0.00625448 -0.00683209 -0.00741747 -0.00800446 -0.00858691 -0.00916481 -0.00973817 -0.0103014 -0.0108491 -0.0113811 -0.0118974 -0.0123937 -0.0128653 -0.0133123 -0.0137347 -0.0141297 -0.0144943 -0.0148286 -0.0151326 -0.0154056 -0.0156469 -0.0158564 -0.0160343 -0.016182 -0.0163014 -0.0163922 -0.0164546 -0.0164922 -0.0165087 -0.0165041 -0.0164784 -0.0164365 -0.0163834 -0.016319 -0.0162434 -0.0161616 -0.0160789 -0.015995 -0.0159102 -0.0158283 -0.0157536 -0.0156861 -0.0156256 -0.0155744 -0.0155345 -0.015506 -0.0154889 -0.0154827 -0.0154872 -0.0155024 -0.0155282 -0.0155621 -0.0156012 -0.0156457 -0.0156954 -0.0157462 -0.0157936 -0.0158377 -0.0158785 -0.015911 -0.0159303 -0.0159364 -0.0159294 -0.0159049 -0.0158586 -0.0157904 -0.0157003 -0.0155857 -0.0154437 -0.0152743 -0.0150774 -0.0148526 -0.0145991 -0.0143169 -0.014006 -0.0136679 -0.0133044 -0.0129152 -0.0125005 -0.0120637 -0.011608 -0.0111337 -0.0106405 -0.0101332 -0.00961627 -0.00908982 -0.00855382 -0.00801341 -0.00747378 -0.00693491 -0.0063968 -0.00586473 -0.00534396 -0.00483449 -0.00433633 -0.00385464 -0.00339458 -0.00295617 -0.0025394 -0.00214899 -0.00178967 -0.00146143 -0.00116429 -0.000899102 -0.000666748 -0.000467228 -0.000300541 -0.000169054 -7.51353e-05 -1.87838e-05 0 0 -2.95003e-05 -0.000118001 -0.000265503 -0.000472005 -0.000730893 -0.00103555 -0.00138598 -0.00178218 -0.00222128 -0.00270041 -0.00321956 -0.00377874 -0.00436989 -0.00498497 -0.00562397 -0.0062869 -0.00696567 -0.00765218 -0.00834645 -0.00904846 -0.00975064 -0.0104454 -0.0111327 -0.0118126 -0.0124783 -0.013123 -0.0137467 -0.0143495 -0.0149259 -0.0154705 -0.0159834 -0.0164645 -0.0169107 -0.0173185 -0.017688 -0.0180193 -0.0183117 -0.0185647 -0.0187783 -0.0189525 -0.0190897 -0.0191922 -0.0192601 -0.0192934 -0.0192969 -0.0192755 -0.0192293 -0.0191583 -0.0190688 -0.0189674 -0.018854 -0.0187286 -0.0185978 -0.0184682 -0.0183398 -0.0182126 -0.0180919 -0.0179827 -0.0178853 -0.0177995 -0.017728 -0.0176736 -0.0176363 -0.017616 -0.0176123 -0.0176247 -0.0176533 -0.0176981 -0.0177556 -0.0178223 -0.0178983 -0.0179836 -0.0180726 -0.0181597 -0.018245 -0.0183283 -0.0184034 -0.0184639 -0.0185097 -0.0185409 -0.0185517 -0.0185365 -0.0184953 -0.018428 -0.0183308 -0.0182001 -0.0180357 -0.0178377 -0.0176049 -0.0173362 -0.0170316 -0.0166911 -0.0163163 -0.015909 -0.015469 -0.0149964 -0.0144951 -0.0139692 -0.0134187 -0.0128435 -0.0122493 -0.0116415 -0.0110202 -0.0103854 -0.00974337 -0.00910053 -0.00845684 -0.00781231 -0.00717347 -0.00654682 -0.00593239 -0.00533016 -0.00474656 -0.00418802 -0.00365454 -0.00314612 -0.00266868 -0.00222811 -0.00182443 -0.00145762 -0.00112903 -0.000839965 -0.000590439 -0.000380448 -0.000214002 -9.51119e-05 -2.3778e-05 0 0 -3.622e-05 -0.00014488 -0.00032598 -0.000579521 -0.000896125 -0.00126642 -0.00169039 -0.00216806 -0.00269558 -0.00326912 -0.00388869 -0.00455427 -0.00525606 -0.00598422 -0.00673876 -0.00751968 -0.00831717 -0.00912145 -0.00993251 -0.0107504 -0.0115658 -0.0123698 -0.0131623 -0.0139432 -0.0147045 -0.0154382 -0.0161442 -0.0168226 -0.017467 -0.0180711 -0.018635 -0.0191587 -0.0196386 -0.020071 -0.0204559 -0.0207934 -0.0210832 -0.0213251 -0.0215191 -0.0216652 -0.0217668 -0.0218272 -0.0218465 -0.0218246 -0.0217679 -0.021683 -0.0215698 -0.0214284 -0.0212669 -0.0210936 -0.0209086 -0.0207119 -0.0205117 -0.0203164 -0.0201261 -0.0199408 -0.0197669 -0.0196112 -0.0194737 -0.0193542 -0.0192563 -0.0191833 -0.0191352 -0.019112 -0.0191131 -0.0191379 -0.0191865 -0.0192588 -0.0193505 -0.0194573 -0.0195791 -0.0197159 -0.0198607 -0.0200064 -0.020153 -0.0203006 -0.0204408 -0.0205657 -0.0206752 -0.0207694 -0.0208407 -0.0208819 -0.020893 -0.0208739 -0.0208195 -0.0207248 -0.0205897 -0.0204143 -0.0201967 -0.0199351 -0.0196294 -0.0192797 -0.0188875 -0.0184545 -0.0179806 -0.0174658 -0.0169147 -0.0163318 -0.015717 -0.0150704 -0.0143986 -0.013708 -0.0129987 -0.0122707 -0.0115316 -0.010789 -0.0100428 -0.00929312 -0.00854781 -0.0078148 -0.00709409 -0.00638567 -0.00569738 -0.00503705 -0.00440469 -0.00380029 -0.00323114 -0.0027045 -0.00222039 -0.00177881 -0.0013817 -0.00103105 -0.00072684 -0.000469078 -0.000263856 -0.00011727 -2.93174e-05 0 0 -4.35633e-05 -0.000174253 -0.000392069 -0.000697012 -0.00107643 -0.00151766 -0.00202072 -0.0025856 -0.00320729 -0.00388078 -0.00460608 -0.00538319 -0.00620031 -0.00704563 -0.00791915 -0.00882088 -0.00973915 -0.0106623 -0.0115903 -0.0125232 -0.0134501 -0.0143602 -0.0152535 -0.01613 -0.0169802 -0.0177948 -0.0185736 -0.0193167 -0.020017 -0.0206671 -0.0212673 -0.0218173 -0.0223134 -0.0227517 -0.0231322 -0.023455 -0.0237202 -0.0239282 -0.0240789 -0.0241724 -0.0242133 -0.0242063 -0.0241512 -0.0240482 -0.0239054 -0.0237313 -0.0235257 -0.0232887 -0.0230308 -0.0227622 -0.022483 -0.0221932 -0.0219032 -0.0216235 -0.0213539 -0.0210945 -0.0208535 -0.0206391 -0.0204512 -0.0202899 -0.0201593 -0.0200636 -0.0200028 -0.0199769 -0.0199851 -0.0200268 -0.0201019 -0.0202104 -0.020347 -0.0205061 -0.0206879 -0.0208923 -0.0211105 -0.0213337 -0.021562 -0.0217952 -0.0220232 -0.0222359 -0.0224331 -0.022615 -0.022772 -0.0228949 -0.0229836 -0.0230381 -0.0230517 -0.0230178 -0.0229364 -0.0228075 -0.0226282 -0.0223958 -0.0221104 -0.0217718 -0.0213816 -0.020941 -0.0204501 -0.0199089 -0.0193224 -0.0186957 -0.0180286 -0.0173212 -0.0165811 -0.0158159 -0.0150255 -0.0142099 -0.0133782 -0.0125391 -0.0116928 -0.0108392 -0.00998777 -0.0091479 -0.0083196 -0.00750287 -0.0067071 -0.00594168 -0.00520661 -0.0045019 -0.00383637 -0.00321885 -0.00264934 -0.00212784 -0.00165714 -0.00124 -0.000876433 -0.000566432 -0.000318618 -0.000141608 -3.5402e-05 0 0 -5.153e-05 -0.00020612 -0.00046377 -0.000824479 -0.0012718 -0.0017893 -0.00237696 -0.00303479 -0.0037564 -0.00453538 -0.00537175 -0.0062655 -0.00720265 -0.0081692 -0.00916516 -0.0101905 -0.0112316 -0.0122747 -0.0133198 -0.0143669 -0.0154033 -0.0164165 -0.0174064 -0.0183729 -0.0193053 -0.0201926 -0.0210348 -0.021832 -0.0225759 -0.0232586 -0.02388 -0.0244402 -0.0249351 -0.0253607 -0.025717 -0.026004 -0.0262226 -0.0263738 -0.0264577 -0.0264741 -0.0264293 -0.0263294 -0.0261744 -0.0259642 -0.0257094 -0.0254203 -0.025097 -0.0247394 -0.0243605 -0.023973 -0.0235771 -0.0231727 -0.0227725 -0.0223893 -0.0220231 -0.0216739 -0.0213517 -0.0210664 -0.020818 -0.0206065 -0.020437 -0.0203146 -0.0202391 -0.0202107 -0.0202285 -0.0202914 -0.0203996 -0.0205529 -0.0207449 -0.0209689 -0.0212248 -0.0215128 -0.021822 -0.0221417 -0.0224717 -0.0228123 -0.0231507 -0.0234744 -0.0237834 -0.0240777 -0.0243456 -0.0245753 -0.024767 -0.0249206 -0.0250275 -0.0250792 -0.0250757 -0.0250171 -0.0248993 -0.0247184 -0.0244744 -0.0241674 -0.0237984 -0.0233685 -0.0228776 -0.0223257 -0.0217183 -0.0210609 -0.0203534 -0.0195959 -0.0187969 -0.0179651 -0.0171005 -0.016203 -0.015283 -0.0143509 -0.0134068 -0.0124506 -0.0114933 -0.0105461 -0.00960892 -0.00868176 -0.00777571 -0.0069019 -0.00606031 -0.00525095 -0.00448437 -0.00377114 -0.00311127 -0.00250473 -0.00195533 -0.00146682 -0.00103922 -0.000672511 -0.000378287 -0.000168128 -4.20319e-05 0 0 -5.99831e-05 -0.000239932 -0.000539848 -0.000959729 -0.00147888 -0.00207659 -0.00275287 -0.00350772 -0.00433311 -0.00522101 -0.00617143 -0.00718437 -0.00824342 -0.00933218 -0.0104507 -0.0115989 -0.0127608 -0.0139207 -0.0150785 -0.0162342 -0.0173733 -0.018481 -0.0195575 -0.0206026 -0.0216041 -0.0225495 -0.0234388 -0.0242721 -0.0250402 -0.0257344 -0.0263545 -0.0269007 -0.0273688 -0.0277547 -0.0280585 -0.0282802 -0.0284216 -0.0284846 -0.0284693 -0.0283755 -0.0282113 -0.0279847 -0.0276956 -0.027344 -0.0269429 -0.0265053 -0.0260312 -0.0255205 -0.0249891 -0.0244525 -0.0239109 -0.0233642 -0.0228278 -0.0223172 -0.0218324 -0.0213734 -0.0209521 -0.0205806 -0.0202589 -0.019987 -0.0197709 -0.0196166 -0.0195243 -0.0194939 -0.0195242 -0.0196142 -0.0197639 -0.0199732 -0.0202342 -0.0205389 -0.0208873 -0.0212795 -0.0217022 -0.0221426 -0.0226007 -0.0230763 -0.0235543 -0.0240193 -0.0244714 -0.0249104 -0.0253222 -0.0256921 -0.0260203 -0.0263067 -0.0265407 -0.0267113 -0.0268186 -0.0268627 -0.0268381 -0.0267394 -0.0265668 -0.0263201 -0.0259999 -0.0256068 -0.0251408 -0.0246018 -0.0239956 -0.0233281 -0.0225993 -0.021809 -0.0209671 -0.0200832 -0.0191572 -0.0181891 -0.0171909 -0.0161744 -0.0151397 -0.0140867 -0.0130283 -0.0119772 -0.0109336 -0.00989727 -0.00888134 -0.00789874 -0.00694948 -0.00603354 -0.00516342 -0.00435164 -0.00359818 -0.00290305 -0.00227123 -0.00170771 -0.00121248 -0.000785556 -0.000441875 -0.000196389 -4.90972e-05 0 0 -6.87856e-05 -0.000275142 -0.00061907 -0.00110057 -0.00169428 -0.00237483 -0.00314222 -0.00399646 -0.00492761 -0.00592575 -0.00699086 -0.00812296 -0.00930298 -0.0105118 -0.0117496 -0.0130161 -0.0142932 -0.0155626 -0.0168242 -0.0180781 -0.0193075 -0.0204959 -0.0216433 -0.0227496 -0.0238009 -0.0247831 -0.0256964 -0.0265408 -0.0273063 -0.0279833 -0.0285718 -0.0290718 -0.0294793 -0.0297904 -0.0300051 -0.0301234 -0.0301484 -0.0300831 -0.0299276 -0.0296818 -0.0293559 -0.0289602 -0.0284945 -0.0279589 -0.0273693 -0.0267417 -0.0260761 -0.0253724 -0.0246498 -0.0239271 -0.0232045 -0.0224818 -0.0217777 -0.0211106 -0.0204805 -0.0198874 -0.0193457 -0.0188696 -0.0184591 -0.0181143 -0.0178424 -0.0176504 -0.0175386 -0.0175068 -0.0175536 -0.0176778 -0.0178794 -0.0181582 -0.0185049 -0.0189097 -0.0193729 -0.0198942 -0.0204582 -0.0210491 -0.0216671 -0.0223119 -0.0229654 -0.0236089 -0.0242426 -0.0248663 -0.0254627 -0.026014 -0.0265205 -0.0269819 -0.027385 -0.0277164 -0.027976 -0.0281638 -0.0282728 -0.0282957 -0.0282325 -0.0280834 -0.027848 -0.0275261 -0.0271177 -0.0266229 -0.0260476 -0.0253979 -0.0246738 -0.0238752 -0.0230129 -0.0220976 -0.0211292 -0.0201077 -0.0190467 -0.0179596 -0.0168464 -0.015707 -0.0145563 -0.013409 -0.012265 -0.0111244 -0.0100021 -0.00891324 -0.0078578 -0.00683576 -0.0058618 -0.00495058 -0.0041021 -0.00331636 -0.0025998 -0.00195885 -0.00139352 -0.000903811 -0.000508394 -0.000225953 -5.64882e-05 0 0 -7.79374e-05 -0.00031175 -0.000701436 -0.001247 -0.001918 -0.002684 -0.003545 -0.00450101 -0.0055399 -0.00664958 -0.00783005 -0.00908129 -0.0103813 -0.0117082 -0.0130619 -0.0144424 -0.0158288 -0.0172003 -0.0185568 -0.0198984 -0.0212062 -0.0224614 -0.0236639 -0.0248138 -0.0258955 -0.0268935 -0.0278077 -0.0286381 -0.0293742 -0.0300055 -0.030532 -0.0309536 -0.0312667 -0.0314678 -0.0315568 -0.0315336 -0.0314029 -0.0311693 -0.0308326 -0.030393 -0.0298631 -0.0292558 -0.028571 -0.0278088 -0.0269885 -0.0261294 -0.0252316 -0.024295 -0.0233425 -0.0223967 -0.0214577 -0.0205255 -0.019622 -0.0187693 -0.0179672 -0.0172159 -0.0165323 -0.0159331 -0.0154185 -0.0149885 -0.0146515 -0.014416 -0.0142819 -0.0142494 -0.0143167 -0.0144822 -0.014746 -0.015108 -0.0155568 -0.0160813 -0.0166814 -0.0173571 -0.0180899 -0.0188611 -0.0196709 -0.0205191 -0.0213839 -0.0222432 -0.023097 -0.0239453 -0.0247671 -0.0255411 -0.0262675 -0.0269461 -0.0275606 -0.0280945 -0.0285478 -0.0289205 -0.0292033 -0.0293871 -0.0294717 -0.0294573 -0.0293425 -0.0291262 -0.0288083 -0.028389 -0.0278742 -0.0272702 -0.0265769 -0.0257944 -0.0249343 -0.0240084 -0.0230165 -0.0219588 -0.0208504 -0.0197064 -0.0185268 -0.0173116 -0.0160775 -0.0148414 -0.0136032 -0.012363 -0.011138 -0.00994539 -0.00878528 -0.00765762 -0.0065795 -0.00556796 -0.00462302 -0.00374466 -0.00294104 -0.00222026 -0.00158234 -0.00102728 -0.000577843 -0.000256819 -6.42047e-05 0 0 -8.74386e-05 -0.000349754 -0.000786947 -0.00139902 -0.00215005 -0.00300411 -0.00396122 -0.00502137 -0.00616999 -0.00739253 -0.00868898 -0.0100593 -0.0114785 -0.0129212 -0.0143876 -0.0158775 -0.0173675 -0.0188337 -0.0202763 -0.0216951 -0.0230692 -0.0243772 -0.0256192 -0.0267953 -0.0278881 -0.0288805 -0.0297725 -0.030564 -0.0312439 -0.0318009 -0.0322349 -0.032546 -0.0327311 -0.0327869 -0.0327135 -0.0325108 -0.0321853 -0.0317431 -0.0311844 -0.0305091 -0.0297329 -0.0288716 -0.0279253 -0.0268938 -0.0258005 -0.0246685 -0.0234978 -0.0222884 -0.0210673 -0.0198614 -0.0186707 -0.0174953 -0.0163609 -0.0152934 -0.0142927 -0.013359 -0.0125119 -0.0117713 -0.0111372 -0.0106096 -0.0101983 -0.00991319 -0.00975435 -0.00972174 -0.0098134 -0.0100274 -0.0103637 -0.0108224 -0.0113902 -0.0120537 -0.012813 -0.0136682 -0.0145973 -0.0155787 -0.0166122 -0.0176979 -0.0188098 -0.0199221 -0.0210346 -0.0221474 -0.0232354 -0.0242733 -0.0252613 -0.0261993 -0.0270674 -0.0278456 -0.0285341 -0.0291327 -0.0296298 -0.0300137 -0.0302844 -0.0304418 -0.0304835 -0.0304072 -0.0302127 -0.0299001 -0.0294755 -0.0289451 -0.0283088 -0.0275666 -0.0267313 -0.0258155 -0.0248191 -0.0237424 -0.022602 -0.0214148 -0.0201809 -0.0189003 -0.0175918 -0.0162745 -0.0149483 -0.0136132 -0.012289 -0.0109952 -0.00973191 -0.00849912 -0.00731652 -0.00620379 -0.00516094 -0.00418797 -0.00329494 -0.00249193 -0.00177893 -0.00115595 -0.000650222 -0.000288988 -7.22469e-05 0 0 -9.71457e-05 -0.000388583 -0.000874311 -0.00155433 -0.00238689 -0.00333025 -0.0043844 -0.00554935 -0.0068078 -0.00814245 -0.0095533 -0.0110404 -0.0125751 -0.0141288 -0.0157016 -0.0172934 -0.0188777 -0.0204278 -0.0219437 -0.0234254 -0.0248494 -0.0261919 -0.0274531 -0.0286329 -0.0297124 -0.0306727 -0.0315138 -0.0322358 -0.0328266 -0.0332745 -0.0335795 -0.0337415 -0.0337581 -0.0336267 -0.0333474 -0.0329202 -0.0323535 -0.0316558 -0.0308269 -0.029867 -0.0287952 -0.0276306 -0.0263733 -0.0250232 -0.0236079 -0.022155 -0.0206644 -0.0191363 -0.0176021 -0.0160936 -0.0146107 -0.0131535 -0.011752 -0.0104364 -0.00920675 -0.00806297 -0.00702808 -0.00612504 -0.00535388 -0.00471458 -0.00421857 -0.00387729 -0.00369073 -0.00365889 -0.00377947 -0.00405019 -0.00447103 -0.005042 -0.00574766 -0.00657256 -0.00751671 -0.00858009 -0.0097373 -0.0109629 -0.0122569 -0.0136194 -0.0150198 -0.0164279 -0.0178437 -0.0192671 -0.0206684 -0.0220181 -0.0233161 -0.0245624 -0.0257332 -0.0268047 -0.0277767 -0.0286494 -0.0294082 -0.0300385 -0.0305403 -0.0309136 -0.0311545 -0.031259 -0.0312272 -0.031059 -0.0307605 -0.0303375 -0.02979 -0.0291181 -0.0283354 -0.0274556 -0.0264786 -0.0254046 -0.0242521 -0.0230399 -0.0217678 -0.020436 -0.0190656 -0.017678 -0.0162731 -0.0148509 -0.0134337 -0.0120438 -0.0106813 -0.00934608 -0.00806075 -0.00684786 -0.00570741 -0.00463941 -0.00365611 -0.00276976 -0.00198037 -0.00128793 -0.000724459 -0.000321982 -8.04954e-05 0 0 -0.000106915 -0.000427662 -0.000962239 -0.00171065 -0.00262502 -0.0036575 -0.00480808 -0.00607677 -0.00744325 -0.00888721 -0.0104087 -0.0120076 -0.0136517 -0.0153088 -0.0169788 -0.0186618 -0.0203279 -0.0219474 -0.0235202 -0.0250463 -0.0264996 -0.0278539 -0.0291092 -0.0302655 -0.0313022 -0.0321985 -0.0329547 -0.0335705 -0.0340336 -0.0343317 -0.0344646 -0.0344324 -0.0342335 -0.0338663 -0.0333308 -0.0326271 -0.031766 -0.0307584 -0.0296043 -0.0283038 -0.0268799 -0.0253556 -0.023731 -0.0220061 -0.0202132 -0.018385 -0.0165214 -0.0146224 -0.0127249 -0.0108657 -0.00904484 -0.00726236 -0.00555312 -0.00395203 -0.00245908 -0.00107427 0.000175886 0.00126487 0.00219269 0.00295934 0.00355168 0.00395659 0.00417407 0.0042041 0.00404939 0.00371262 0.00319379 0.00249291 0.00162782 0.000616375 -0.000541416 -0.00184556 -0.00326662 -0.00477517 -0.00637122 -0.00805475 -0.00979046 -0.011543 -0.0133124 -0.0150987 -0.0168671 -0.0185828 -0.020246 -0.0218565 -0.0233861 -0.0248065 -0.0261176 -0.0273195 -0.0283944 -0.0293243 -0.0301093 -0.0307494 -0.0312388 -0.0315718 -0.0317484 -0.0317686 -0.0316379 -0.0313621 -0.0309411 -0.0303749 -0.0296781 -0.0288653 -0.0279365 -0.0268918 -0.0257516 -0.0245364 -0.0232464 -0.0218814 -0.0204652 -0.0190215 -0.0175503 -0.0160517 -0.0145507 -0.0130725 -0.011617 -0.0101843 -0.00880009 -0.00748997 -0.00625399 -0.00509215 -0.00401914 -0.00304966 -0.00218371 -0.0014213 -0.000799479 -0.000355324 -8.8831e-05 0 0 -0.000116748 -0.000466991 -0.00105073 -0.00186796 -0.00286443 -0.00398586 -0.00523226 -0.00660363 -0.00807635 -0.00962683 -0.0112551 -0.012961 -0.0147085 -0.0164613 -0.0182193 -0.0199827 -0.0217181 -0.0233924 -0.0250057 -0.0265578 -0.02802 -0.0293633 -0.0305877 -0.0316932 -0.0326574 -0.033458 -0.0340949 -0.0345682 -0.0348649 -0.0349723 -0.0348902 -0.0346186 -0.0341573 -0.0335056 -0.0326636 -0.0316314 -0.0304226 -0.029051 -0.0275166 -0.0258195 -0.023987 -0.0220467 -0.0199985 -0.0178425 -0.0156166 -0.0133586 -0.0110687 -0.0087468 -0.00643558 -0.0041777 -0.00197316 0.00017803 0.00223574 0.00415982 0.00595029 0.00760712 0.00909996 0.0103984 0.0115025 0.0124122 0.0131125 0.0135885 0.01384 0.0138672 0.0136732 0.013261 0.0126307 0.0117823 0.0107363 0.00951311 0.00811282 0.00653542 0.00481473 0.00298459 0.00104501 -0.00100402 -0.00312172 -0.00526735 -0.00744089 -0.00964234 -0.0118313 -0.0139675 -0.0160509 -0.0180815 -0.020026 -0.0218511 -0.0235568 -0.0251431 -0.0265884 -0.0278712 -0.0289915 -0.0299492 -0.0307365 -0.0313456 -0.0317763 -0.0320287 -0.0321079 -0.0320191 -0.0317621 -0.0313371 -0.0307595 -0.0300447 -0.0291929 -0.0282039 -0.0271003 -0.0259045 -0.0246166 -0.0232365 -0.0217905 -0.0203051 -0.0187802 -0.0172158 -0.0156401 -0.0140812 -0.0125391 -0.0110139 -0.00953453 -0.00813013 -0.00680068 -0.00554617 -0.00438402 -0.00333162 -0.00238896 -0.00155606 -0.000875283 -0.000389015 -9.72536e-05 0 0 -0.000126643 -0.000506571 -0.00113978 -0.00202628 -0.00310512 -0.00431533 -0.00565694 -0.00712992 -0.00870711 -0.0103613 -0.0120925 -0.0139007 -0.0157454 -0.0175862 -0.0194231 -0.021256 -0.0230483 -0.024763 -0.0264002 -0.0279599 -0.0294104 -0.0307199 -0.0318884 -0.0329159 -0.0337782 -0.0344511 -0.0349347 -0.0352289 -0.0353205 -0.0351963 -0.0348562 -0.0343003 -0.0335294 -0.0325446 -0.0313458 -0.0299331 -0.0283233 -0.0265336 -0.0245638 -0.022414 -0.0201166 -0.0177039 -0.0151759 -0.0125325 -0.00981785 -0.00707579 -0.00430633 -0.00150948 0.00126574 0.00397035 0.00660434 0.0091677 0.0116146 0.0138991 0.0160213 0.0179812 0.0197441 0.0212756 0.0225755 0.023644 0.0244639 0.0250183 0.0253072 0.0253305 0.0250919 0.024595 0.0238398 0.0228262 0.0215777 0.0201176 0.018446 0.0165628 0.0145067 0.0123164 0.00999174 0.00753284 0.00498638 0.00239909 -0.000229023 -0.00289797 -0.00556121 -0.0081722 -0.0107309 -0.0132374 -0.0156529 -0.0179385 -0.0200942 -0.02212 -0.0239903 -0.0256792 -0.0271868 -0.028513 -0.0296476 -0.0305802 -0.0313108 -0.0318394 -0.0321705 -0.0323084 -0.0322531 -0.0320047 -0.0315795 -0.0309938 -0.0302476 -0.029341 -0.0282984 -0.0271442 -0.0258785 -0.0245013 -0.0230417 -0.0215288 -0.0199626 -0.0183431 -0.0167017 -0.0150699 -0.0134475 -0.0118347 -0.0102641 -0.00876833 -0.00734746 -0.00600149 -0.00475076 -0.00361564 -0.00259612 -0.00169221 -0.00095187 -0.000423053 -0.000105763 0 0 -0.000136467 -0.000545868 -0.0012282 -0.00218347 -0.00334382 -0.00464138 -0.00607616 -0.00764815 -0.00932632 -0.0110796 -0.012908 -0.0148116 -0.0167453 -0.0186642 