<?xml version="1.0"?> 
<VTKFile type="StructuredGrid" version="0.1"> 
<StructuredGrid WholeExtent="0 128 0 128 0 0"> 
<Piece Extent="0 128 0 128 0 0"> 
<PointData>
<DataArray type="Float32" Name="u" format="ascii" NumberOfComponents="1"> 
0 0 0 0 0 0 0 0 0 0 0 0 0 0 0 0 0 0 0 0 0 0 0 0 0 0 0 0 0 0 0 0 0 0 0 0 0 0 0 0 0 0 0 0 0 0 0 0 0 0 0 0 0 0 0 0 0 0 0 0 0 0 0 0 0 0 0 0 0 0 0 0 0 0 0 0 0 0 0 0 0 0 0 0 0 0 0 0 0 0 0 0 0 0 0 0 0 0 0 0 0 0 0 0 0 0 0 0 0 0 0 0 0 0 0 0 0 0 0 0 0 0 0 0 0 0 0 0 0 0 1.65328e-07 6.61312e-07 1.48795e-06 2.64525e-06 3.88236e-06 4.94843e-06 5.84347e-06 6.56747e-06 6.98143e-06 6.94637e-06 6.46228e-06 5.52916e-06 4.05904e-06 1.96395e-06 -7.56118e-07 -4.10116e-06 -8.09849e-06 -1.27755e-05 -1.81321e-05 -2.41683e-05 -3.08654e-05 -3.82048e-05 -4.61863e-05 -5.48101e-05 -6.40204e-05 -7.37617e-05 -8.40339e-05 -9.48372e-05 -0.000106089 -0.000117707 -0.000129691 -0.000142042 -0.000154661 -0.000167451 -0.000180413 -0.000193546 -0.000206749 -0.000219919 -0.000233057 -0.000246164 -0.00025914 -0.000271891 -0.000284414 -0.000296711 -0.000308694 -0.000320275 -0.000331455 -0.000342233 -0.000352536 -0.00036229 -0.000371495 -0.00038015 -0.000388198 -0.000395581 -0.000402299 -0.000408352 -0.0004137 -0.000418304 -0.000422164 -0.000425279 -0.000427632 -0.000429203 -0.000429991 -0.000429998 -0.000429225 -0.000427677 -0.000425353 -0.000422253 -0.000418402 -0.000413825 -0.000408523 -0.000402496 -0.000395788 -0.000388446 -0.00038047 -0.000371859 -0.000362678 -0.00035299 -0.000342795 -0.000332093 -0.000320963 -0.000309482 -0.000297652 -0.000285471 -0.00027303 -0.000260417 -0.000247634 -0.000234679 -0.000221649 -0.000208641 -0.000195654 -0.000182688 -0.00016984 -0.000157206 -0.000144787 -0.000132582 -0.000120682 -0.000109173 -9.80578e-05 -8.7335e-05 -7.70766e-05 -6.73546e-05 -5.81689e-05 -4.95195e-05 -4.14512e-05 -3.40091e-05 -2.71931e-05 -2.10032e-05 -1.54494e-05 -1.05418e-05 -6.28037e-06 -2.66511e-06 3.35913e-07 2.75462e-06 4.59101e-06 5.8451e-06 6.6033e-06 6.95205e-06 6.89136e-06 6.42121e-06 5.67222e-06 4.77498e-06 3.72948e-06 2.53574e-06 1.42635e-06 6.33934e-07 1.58484e-07 0 0 6.61312e-07 2.64525e-06 5.95181e-06 1.0581e-05 1.55294e-05 1.97937e-05 2.33739e-05 2.62699e-05 2.79257e-05 2.77855e-05 2.58491e-05 2.21167e-05 1.62362e-05 7.85579e-06 -3.02447e-06 -1.64046e-05 -3.2394e-05 -5.11018e-05 -7.25282e-05 -9.66731e-05 -0.000123462 -0.000152819 -0.000184745 -0.00021924 -0.000256082 -0.000295047 -0.000336136 -0.000379349 -0.000424356 -0.000470828 -0.000518765 -0.000568167 -0.000618644 -0.000669806 -0.000721652 -0.000774184 -0.000826994 -0.000879676 -0.000932229 -0.000984654 -0.00103656 -0.00108756 -0.00113766 -0.00118684 -0.00123477 -0.0012811 -0.00132582 -0.00136893 -0.00141015 -0.00144916 -0.00148598 -0.0015206 -0.00155279 -0.00158232 -0.0016092 -0.00163341 -0.0016548 -0.00167322 -0.00168866 -0.00170112 -0.00171053 -0.00171681 -0.00171996 -0.00171999 -0.0017169 -0.00171071 -0.00170141 -0.00168901 -0.00167361 -0.0016553 -0.00163409 -0.00160998 -0.00158315 -0.00155378 -0.00152188 -0.00148744 -0.00145071 -0.00141196 -0.00137118 -0.00132837 -0.00128385 -0.00123793 -0.00119061 -0.00114188 -0.00109212 -0.00104167 -0.000990534 -0.000938716 -0.000886597 -0.000834564 -0.000782615 -0.000730751 -0.000679358 -0.000628824 -0.000579148 -0.00053033 -0.000482726 -0.000436693 -0.000392231 -0.00034934 -0.000308307 -0.000269418 -0.000232676 -0.000198078 -0.000165805 -0.000136037 -0.000108772 -8.40128e-05 -6.17976e-05 -4.21672e-05 -2.51215e-05 -1.06604e-05 1.34365e-06 1.10185e-05 1.83641e-05 2.33804e-05 2.64132e-05 2.78082e-05 2.75654e-05 2.56849e-05 2.26889e-05 1.90999e-05 1.49179e-05 1.0143e-05 5.70541e-06 2.53574e-06 6.33934e-07 0 0 1.48795e-06 5.95181e-06 1.33916e-05 2.38072e-05 3.49412e-05 4.45359e-05 5.25912e-05 5.91072e-05 6.28329e-05 6.25174e-05 5.81605e-05 4.97625e-05 3.65314e-05 1.76755e-05 -6.80506e-06 -3.69104e-05 -7.28865e-05 -0.000114979 -0.000163188 -0.000217514 -0.000277789 -0.000343843 -0.000415677 -0.00049329 -0.000576183 -0.000663855 -0.000756305 -0.000853534 -0.000954801 -0.00105936 -0.00116722 -0.00127838 -0.00139195 -0.00150706 -0.00162372 -0.00174191 -0.00186074 -0.00197927 -0.00209752 -0.00221547 -0.00233226 -0.00244702 -0.00255973 -0.0026704 -0.00277824 -0.00288248 -0.00298309 -0.0030801 -0.00317283 -0.00326061 -0.00334345 -0.00342135 -0.00349378 -0.00356023 -0.00362069 -0.00367517 -0.0037233 -0.00376474 -0.00379947 -0.00382752 -0.00384869 -0.00386282 -0.00386992 -0.00386998 -0.00386303 -0.00384909 -0.00382818 -0.00380027 -0.00376562 -0.00372443 -0.00367671 -0.00362246 -0.00356209 -0.00349601 -0.00342423 -0.00334673 -0.0032641 -0.00317691 -0.00308516 -0.00298884 -0.00288867 -0.00278534 -0.00267886 -0.00256924 -0.00245727 -0.00234375 -0.0022287 -0.00211211 -0.00199484 -0.00187777 -0.00176088 -0.00164419 -0.00152856 -0.00141485 -0.00130308 -0.00119324 -0.00108613 -0.00098256 -0.00088252 -0.000786015 -0.00069369 -0.000606191 -0.00052352 -0.000445675 -0.000373061 -0.000306082 -0.000244738 -0.000189029 -0.000139045 -9.48762e-05 -5.65233e-05 -2.39859e-05 3.02322e-06 2.47916e-05 4.13191e-05 5.26059e-05 5.94297e-05 6.25685e-05 6.20222e-05 5.77909e-05 5.105e-05 4.29748e-05 3.35653e-05 2.28216e-05 1.28372e-05 5.70541e-06 1.42635e-06 0 0 2.64525e-06 1.0581e-05 2.38072e-05 4.2324e-05 6.21177e-05 7.91749e-05 9.34954e-05 0.000105079 0.000111703 0.000111142 0.000103397 8.84666e-05 6.49447e-05 3.14232e-05 -1.20979e-05 -6.56185e-05 -0.000129576 -0.000204407 -0.000290113 -0.000386692 -0.000493847 -0.000611276 -0.000738981 -0.000876961 -0.00102433 -0.00118019 -0.00134454 -0.00151739 -0.00169742 -0.00188331 -0.00207506 -0.00227267 -0.00247458 -0.00267922 -0.00288661 -0.00309674 -0.00330798 -0.0035187 -0.00372892 -0.00393862 -0.00414625 -0.00435025 -0.00455063 -0.00474738 -0.0049391 -0.0051244 -0.00530328 -0.00547573 -0.00564058 -0.00579664 -0.00594392 -0.0060824 -0.00621117 -0.0063293 -0.00643679 -0.00653363 -0.0066192 -0.00669286 -0.00675462 -0.00680447 -0.00684211 -0.00686724 -0.00687986 -0.00687996 -0.0068676 -0.00684283 -0.00680564 -0.00675604 -0.00669443 -0.00662121 -0.00653637 -0.00643993 -0.00633261 -0.00621513 -0.00608751 -0.00594975 -0.00580285 -0.00564784 -0.00548472 -0.00531349 -0.00513541 -0.00495172 -0.00476243 -0.00456753 -0.00436847 -0.00416667 -0.00396214 -0.00375486 -0.00354639 -0.00333825 -0.00313046 -0.002923 -0.00271743 -0.0025153 -0.00231659 -0.00212132 -0.0019309 -0.00174677 -0.00156892 -0.00139736 -0.00123323 -0.00107767 -0.000930702 -0.000792311 -0.00066322 -0.000544146 -0.00043509 -0.000336051 -0.000247191 -0.000168669 -0.000100486 -4.26417e-05 5.37461e-06 4.40739e-05 7.34562e-05 9.35216e-05 0.000105653 0.000111233 0.000110262 0.000102739 9.07555e-05 7.63996e-05 5.96717e-05 4.05718e-05 2.28216e-05 1.0143e-05 2.53574e-06 0 0 3.87046e-06 1.54818e-05 3.48341e-05 6.19273e-05 9.07484e-05 0.000115284 0.000135535 0.000151501 0.000159838 0.000157203 0.000143595 0.000119016 8.13634e-05 2.85375e-05 -3.9462e-05 -0.000122635 -0.000221615 -0.000337035 -0.000468895 -0.000617195 -0.000781451 -0.000961175 -0.00115637 -0.00136703 -0.00159179 -0.00182926 -0.00207943 -0.00234232 -0.0026159 -0.00289815 -0.00318908 -0.00348867 -0.00379457 -0.00410439 -0.00441813 -0.00473581 -0.00505495 -0.00537311 -0.00569028 -0.00600647 -0.00631934 -0.00662657 -0.00692815 -0.00722408 -0.00751229 -0.00779071 -0.00805932 -0.00831814 -0.00856543 -0.00879943 -0.00902016 -0.0092276 -0.00942042 -0.00959725 -0.00975808 -0.00990294 -0.0100309 -0.010141 -0.0102333 -0.0103078 -0.010364 -0.0104015 -0.0104202 -0.0104203 -0.0104018 -0.0103647 -0.010309 -0.0102348 -0.0101426 -0.010033 -0.00990603 -0.00976166 -0.00960097 -0.00942502 -0.00923381 -0.00902735 -0.00880712 -0.00857462 -0.00832985 -0.00807282 -0.00780536 -0.00752934 -0.00724475 -0.00695159 -0.006652 -0.0063481 -0.0060399 -0.00572739 -0.00541288 -0.00509868 -0.00478479 -0.00447121 -0.00416028 -0.00385433 -0.00355337 -0.0032574 -0.00296858 -0.00268909 -0.00241893 -0.00215809 -0.00190836 -0.00167148 -0.00144746 -0.00123629 -0.00103911 -0.000857022 -0.00069003 -0.000538135 -0.000401608 -0.000280724 -0.000175482 -8.58832e-05 -1.11784e-05 4.93796e-05 9.57908e-05 0.000128055 0.00014824 0.000158413 0.000158575 0.000148724 0.000132005 0.000111562 8.73954e-05 5.95049e-05 3.34715e-05 1.48762e-05 3.71906e-06 0 0 4.90083e-06 1.96033e-05 4.41074e-05 7.84132e-05 0.000114523 0.000144438 0.000168159 0.000185686 0.00019254 0.000184243 0.000160795 0.000122197 6.56751e-05 -1.15427e-05 -0.000109456 -0.000228066 -0.000368156 -0.00053051 -0.000715129 -0.000922012 -0.00115042 -0.0013996 -0.00166956 -0.00196029 -0.00226985 -0.00259627 -0.00293956 -0.00329971 -0.00367392 -0.00405937 -0.00445607 -0.00486402 -0.00527997 -0.00570066 -0.00612609 -0.00655628 -0.00698789 -0.00741761 -0.00784545 -0.00827141 -0.00869238 -0.00910528 -0.00951009 -0.00990682 -0.0102928 -0.0106652 -0.0110242 -0.0113696 -0.0116994 -0.0120111 -0.012305 -0.0125808 -0.012837 -0.0130718 -0.0132852 -0.0134772 -0.0136467 -0.0137925 -0.0139147 -0.0140131 -0.0140874 -0.0141368 -0.0141616 -0.0141615 -0.0141367 -0.0140874 -0.0140135 -0.013915 -0.0137927 -0.0136472 -0.0134786 -0.0132869 -0.0130735 -0.0128395 -0.0125852 -0.0123104 -0.0120171 -0.0117071 -0.0113805 -0.0110373 -0.0106798 -0.0103105 -0.00992928 -0.00953622 -0.0091341 -0.00872571 -0.00831104 -0.0078901 -0.00746597 -0.00704171 -0.00661734 -0.00619284 -0.00577139 -0.00535615 -0.00494712 -0.00454431 -0.00415069 -0.00376926 -0.00340001 -0.00304294 -0.00270052 -0.00237521 -0.00206702 -0.00177593 -0.00150356 -0.0012515 -0.00101976 -0.000808334 -0.000617671 -0.000448221 -0.000299987 -0.000172966 -6.6212e-05 2.12228e-05 8.93384e-05 0.000138135 0.00017035 0.000188722 0.000193251 0.000183937 0.000164997 0.00014065 0.000110895 7.57325e-05 4.25995e-05 1.89331e-05 4.73328e-06 0 0 5.73636e-06 2.29454e-05 5.16272e-05 9.17817e-05 0.000133441 0.000166636 0.000191367 0.000207634 0.000209808 0.000192263 0.000154997 9.80099e-05 1.78796e-05 -8.88174e-05 -0.000222081 -0.000381912 -0.000569199 -0.000784833 -0.00102881 -0.00130114 -0.00160074 -0.00192654 -0.00227854 -0.00265674 -0.00305851 -0.00348124 -0.00392492 -0.00438956 -0.00487146 -0.00536696 -0.00587604 -0.00639871 -0.00693078 -0.00746804 -0.00801049 -0.00855815 -0.00910679 -0.00965222 -0.0101944 -0.0107334 -0.0112654 -0.0117864 -0.0122964 -0.0127956 -0.0132805 -0.013748 -0.0141978 -0.0146302 -0.0150424 -0.0154318 -0.0157983 -0.016142 -0.0164609 -0.0167529 -0.0170181 -0.0172565 -0.0174667 -0.0176475 -0.0177988 -0.0179206 -0.0180124 -0.0180734 -0.0181038 -0.0181034 -0.0180725 -0.018011 -0.0179191 -0.0177967 -0.0176447 -0.0174638 -0.0172542 -0.0170157 -0.0167501 -0.0164587 -0.0161416 -0.0157989 -0.0154327 -0.0150453 -0.0146367 -0.0142069 -0.0137588 -0.0132951 -0.012816 -0.0123214 -0.0118148 -0.0112995 -0.0107756 -0.010243 -0.00970565 -0.00916734 -0.00862809 -0.00808788 -0.00755075 -0.00702074 -0.00649784 -0.00598205 -0.00547725 -0.00498729 -0.00451217 -0.0040519 -0.00360972 -0.00318888 -0.00278938 -0.00241122 -0.00205657 -0.00172759 -0.00142428 -0.00114665 -0.000895378 -0.000671161 -0.000473998 -0.00030389 -0.000159726 -4.03965e-05 5.4099e-05 0.000123761 0.000171982 0.00020216 0.000214292 0.000208379 0.000189732 0.000163663 0.00013017 8.92544e-05 5.02056e-05 2.23136e-05 5.5784e-06 0 0 6.37705e-06 2.55082e-05 5.73935e-05 0.000102033 0.000147502 0.000181877 0.000205158 0.000217345 0.000211644 0.000181262 0.000126199 4.64547e-05 -6.2023e-05 -0.000203287 -0.000377336 -0.000584172 -0.000824744 -0.0011 -0.00140995 -0.00175458 -0.00213243 -0.00254201 -0.00298332 -0.00345637 -0.00395777 -0.00448416 -0.00503552 -0.00561187 -0.00620855 -0.00682092 -0.00744899 -0.00809275 -0.00874699 -0.00940652 -0.0100713 -0.0107414 -0.0114117 -0.0120769 -0.0127372 -0.0133926 -0.0140383 -0.0146698 -0.0152872 -0.0158904 -0.0164756 -0.0170389 -0.0175803 -0.0180999 -0.0185946 -0.0190614 -0.0195002 -0.0199112 -0.0202921 -0.0206406 -0.0209569 -0.0212408 -0.0214909 -0.0217059 -0.0218856 -0.0220302 -0.022139 -0.0222112 -0.0222469 -0.0222461 -0.022209 -0.0221355 -0.0220258 -0.0218799 -0.0216986 -0.0214828 -0.0212327 -0.0209481 -0.0206308 -0.0202825 -0.0199032 -0.0194929 -0.0190541 -0.0185893 -0.0180985 -0.0175817 -0.0170422 -0.0164833 -0.015905 -0.0153072 -0.014694 -0.0140695 -0.0134335 -0.0127861 -0.0121319 -0.0114756 -0.010817 -0.0101563 -0.00949838 -0.00884811 -0.00820553 -0.00757064 -0.00694825 -0.00634317 -0.00575541 -0.00518497 -0.00463595 -0.00411248 -0.00361455 -0.00314217 -0.00269814 -0.00228529 -0.0019036 -0.00155308 -0.00123473 -0.000949542 -0.000697517 -0.000478655 -0.000291721 -0.000135478 -9.9274e-06 8.4932e-05 0.000153137 0.000198725 0.000221696 0.00022205 0.000206211 0.000180601 0.000145221 0.000100071 5.62898e-05 2.50177e-05 6.25442e-06 0 0 6.67203e-06 2.66881e-05 6.00483e-05 0.000106752 0.000153075 0.00018529 0.000203397 0.000207397 0.000189382 0.000141444 6.35843e-05 -4.4198e-05 -0.000186498 -0.00036791 -0.000588435 -0.000848073 -0.00114774 -0.00148836 -0.00186992 -0.00229244 -0.00275392 -0.00325238 -0.00378783 -0.00436026 -0.00496544 -0.00559914 -0.00626136 -0.0069521 -0.00766567 -0.00839641 -0.0091443 -0.00990935 -0.0106853 -0.0114659 -0.0122512 -0.0130412 -0.0138298 -0.014611 -0.0153848 -0.0161512 -0.016905 -0.0176409 -0.0183589 -0.019059 -0.0197369 -0.0203884 -0.0210135 -0.0216121 -0.0221812 -0.0227174 -0.0232208 -0.0236913 -0.0241268 -0.0245249 -0.0248856 -0.0252089 -0.0254934 -0.0257378 -0.0259419 -0.0261058 -0.0262288 -0.0263104 -0.0263504 -0.026349 -0.0263062 -0.0262222 -0.0260969 -0.0259304 -0.0257236 -0.0254774 -0.0251918 -0.0248667 -0.024504 -0.0241054 -0.0236708 -0.0232004 -0.0226966 -0.0221621 -0.0215969 -0.021001 -0.0203779 -0.0197313 -0.019061 -0.0183671 -0.0176541 -0.0169264 -0.0161841 -0.0154271 -0.0146608 -0.0138904 -0.013116 -0.0123375 -0.0115608 -0.0107917 -0.0100302 -0.00927624 -0.00853571 -0.00781436 -0.00711221 -0.00642926 -0.00577056 -0.00514117 -0.0045411 -0.00397035 -0.00343247 -0.00293102 -0.002466 -0.00203741 -0.00164665 -0.00129512 -0.000982813 -0.000709739 -0.000474616 -0.000276167 -0.000114391 1.07114e-05 0.000103746 0.000169317 0.000207427 0.000218073 0.000208752 0.000186958 0.000152692 0.000105952 5.9598e-05 2.6488e-05 6.622e-06 0 0 6.47041e-06 2.58816e-05 5.82337e-05 0.000103527 0.000146527 0.000172 0.000179947 0.000170367 0.000134356 6.30123e-05 -4.36658e-05 -0.000185678 -0.00036801 -0.000595647 -0.000868591 -0.00118684 -0.00155114 -0.00196223 -0.00242012 -0.0029248 -0.00347365 -0.00406405 -0.00469599 -0.00536948 -0.00607931 -0.00682029 -0.00759243 -0.00839571 -0.00922335 -0.0100686 -0.0109314 -0.0118117 -0.0127024 -0.0135961 -0.0144928 -0.0153924 -0.0162883 -0.0171735 -0.0180481 -0.018912 -0.0197595 -0.0205848 -0.0213879 -0.0221689 -0.0229233 -0.0236467 -0.0243391 -0.0250004 -0.0256276 -0.0262175 -0.02677 -0.0272853 -0.0277611 -0.0281955 -0.0285884 -0.0289398 -0.0292485 -0.0295133 -0.0297342 -0.0299112 -0.0300437 -0.0301312 -0.0301738 -0.0301715 -0.0301243 -0.0300323 -0.0298957 -0.0297143 -0.029489 -0.0292206 -0.0289091 -0.0285544 -0.0281581 -0.0277219 -0.0272457 -0.0267294 -0.0261756 -0.0255868 -0.024963 -0.024304 -0.0236136 -0.0228953 -0.022149 -0.0213747 -0.0205773 -0.0197613 -0.0189268 -0.0180739 -0.0172083 -0.0163359 -0.0154567 -0.0145707 -0.0136846 -0.0128049 -0.0119318 -0.0110651 -0.0102116 -0.00937831 -0.00856506 -0.00777189 -0.00700488 -0.00627013 -0.00556761 -0.00489735 -0.00426374 -0.00367122 -0.00311977 -0.00260941 -0.00214205 -0.00171963 -0.00134216 -0.00100962 -0.000720831 -0.000474605 -0.000270942 -0.000109839 1.374e-05 0.000104835 0.000163445 0.000189571 0.000191677 0.000178229 0.000149226 0.000104669 5.88762e-05 2.61672e-05 6.54179e-06 0 0 5.77219e-06 2.30888e-05 5.19497e-05 9.23551e-05 0.000127857 0.000142007 0.000134806 0.000106254 4.65681e-05 -5.40336e-05 -0.000195551 -0.000377985 -0.000606559 -0.000886499 -0.0012178 -0.00160048 -0.00203494 -0.00252163 -0.00306054 -0.00365167 -0.00429162 -0.004977 -0.0057078 -0.00648403 -0.0072994 -0.00814763 -0.00902873 -0.0099427 -0.0108816 -0.0118374 -0.0128102 -0.0137999 -0.0147983 -0.015797 -0.016796 -0.0177953 -0.0187873 -0.0197646 -0.0207271 -0.0216748 -0.0226016 -0.0235015 -0.0243744 -0.0252203 -0.026035 -0.026814 -0.0275572 -0.0282648 -0.0289339 -0.0295616 -0.030148 -0.030693 -0.0311951 -0.0316525 -0.0320653 -0.0324334 -0.0327561 -0.0330325 -0.0332626 -0.0334464 -0.0335835 -0.0336738 -0.0337171 -0.0337135 -0.0336631 -0.0335659 -0.0334221 -0.0332315 -0.0329948 -0.0327125 -0.0323846 -0.0320111 -0.0315931 -0.031132 -0.0306276 -0.0300801 -0.0294913 -0.0288636 -0.0281968 -0.0274909 -0.0267493 -0.0259753 -0.0251689 -0.02433 -0.0234634 -0.022574 -0.0216616 -0.0207263 -0.0197744 -0.018812 -0.0178392 -0.016856 -0.0158697 -0.0148878 -0.0139103 -0.0129371 -0.0119761 -0.011035 -0.0101139 -0.00921285 -0.00833892 -0.00749933 -0.00669408 -0.00592316 -0.00519197 -0.00450589 -0.00386493 -0.00326908 -0.00272094 -0.0022231 -0.00177555 -0.00137829 -0.00103037 -0.000730795 -0.000479579 -0.00027672 -0.00011688 5.27711e-06 8.97512e-05 0.000136542 0.000154984 0.000154411 0.000134824 9.62207e-05 5.41242e-05 2.40552e-05 6.0138e-06 0 0 4.57738e-06 1.83095e-05 4.11964e-05 7.3238e-05 9.70661e-05 9.53123e-05 6.79767e-05 1.50593e-05 -7.39831e-05 -0.000209693 -0.000392072 -0.000621118 -0.000902145 -0.00124046 -0.00163608 -0.00208898 -0.00259915 -0.00316655 -0.00379118 -0.00447305 -0.00520784 -0.00599125 -0.00682327 -0.00770391 -0.00862569 -0.00958115 -0.0105703 -0.0115931 -0.0126403 -0.0137029 -0.0147808 -0.0158739 -0.016973 -0.0180686 -0.0191608 -0.0202496 -0.0213268 -0.0223842 -0.0234218 -0.0244396 -0.0254314 -0.0263909 -0.0273182 -0.0282132 -0.0290718 -0.0298901 -0.0306679 -0.0314052 -0.0320999 -0.0327497 -0.0333546 -0.0339145 -0.0344286 -0.0348959 -0.0353163 -0.0356898 -0.0360163 -0.0362954 -0.0365271 -0.0367114 -0.0368484 -0.036938 -0.0369802 -0.0369751 -0.0369227 -0.036823 -0.0366761 -0.036482 -0.0362409 -0.035953 -0.0356183 -0.0352368 -0.034809 -0.0343357 -0.0338168 -0.0332523 -0.0326436 -0.0319923 -0.0312983 -0.0305616 -0.029785 -0.0289714 -0.0281207 -0.0272329 -0.0263127 -0.0253645 -0.0243885 -0.0233845 -0.0223591 -0.0213188 -0.0202635 -0.0191933 -0.0181162 -0.0170404 -0.0159657 -0.0148923 -0.0138289 -0.0127845 -0.0117589 -0.0107522 -0.00977268 -0.0088288 -0.0079205 -0.00704779 -0.00621714 -0.00543504 -0.00470146 -0.00401643 -0.00338332 -0.0028055 -0.00228298 -0.00181576 -0.00140322 -0.00104473 -0.000740304 -0.000489931 -0.000288114 -0.000129355 -1.36546e-05 5.89883e-05 9.86751e-05 0.000115507 0.000109485 8.06081e-05 4.53421e-05 2.0152e-05 5.03801e-06 0 0 2.79824e-06 1.1193e-05 2.51842e-05 4.47718e-05 5.20628e-05 2.91638e-05 -2.39251e-05 -0.000107204 -0.000231794 -0.000408815 -0.000638268 -0.000920152 -0.00125965 -0.00166195 -0.00212705 -0.00265495 -0.00324498 -0.00389644 -0.00460936 -0.00538371 -0.00621413 -0.00709523 -0.008027 -0.00900944 -0.0100338 -0.0110912 -0.0121817 -0.0133054 -0.0144516 -0.01561 -0.0167805 -0.0179631 -0.0191476 -0.0203235 -0.0214908 -0.0226496 -0.0237912 -0.0249068 -0.0259966 -0.0270606 -0.0280925 -0.0290862 -0.0300419 -0.0309594 -0.0318353 -0.0326662 -0.033452 -0.0341928 -0.0348872 -0.035534 -0.0361332 -0.0366847 -0.0371887 -0.0376451 -0.0380541 -0.0384155 -0.03873 -0.0389981 -0.0392199 -0.0393952 -0.0395246 -0.0396086 -0.039647 -0.03964 -0.0395874 -0.0394895 -0.0393461 -0.0391573 -0.0389228 -0.0386422 -0.0383155 -0.0379428 -0.0375238 -0.0370582 -0.0365461 -0.0359874 -0.0353826 -0.0347322 -0.0340362 -0.0332946 -0.0325094 -0.0316824 -0.0308137 -0.0299032 -0.0289552 -0.0279735 -0.0269583 -0.0259096 -0.0248337 -0.0237373 -0.0226203 -0.0214828 -0.0203333 -0.0191805 -0.0180244 -0.016865 -0.0157121 -0.0145755 -0.0134554 -0.0123516 -0.0112737 -0.0102314 -0.00922465 -0.00825343 -0.00732545 -0.00644839 -0.00562225 -0.00484704 -0.00412708 -0.00346671 -0.00286593 -0.00232473 -0.00184303 -0.00142073 -0.00105783 -0.000754332 -0.000504763 -0.00030366 -0.000151022 -4.68493e-05 1.95661e-05 5.8932e-05 7.12485e-05 5.65155e-05 3.179e-05 1.41289e-05 3.53222e-06 0 0 3.47064e-07 1.38826e-06 3.12358e-06 5.55303e-06 -9.24428e-06 -5.91892e-05 -0.000144282 -0.000264522 -0.00043136 -0.000656246 -0.000939179 -0.00128016 -0.00168397 -0.00215537 -0.00269439 -0.003301 -0.00397365 -0.00471078 -0.00551238 -0.00637845 -0.00730234 -0.00827739 -0.0093036 -0.010381 -0.0114992 -0.0126482 -0.0138278 -0.0150381 -0.0162673 -0.0175036 -0.0187468 -0.0199972 -0.0212433 -0.0224741 -0.0236894 -0.0248892 -0.0260648 -0.027207 -0.028316 -0.0293916 -0.0304284 -0.0314205 -0.0323681 -0.033271 -0.0341269 -0.0349335 -0.0356907 -0.0363985 -0.0370571 -0.0376666 -0.038227 -0.0387383 -0.039202 -0.0396197 -0.0399913 -0.0403169 -0.0405982 -0.0408369 -0.0410331 -0.0411866 -0.0412986 -0.0413701 -0.0414012 -0.0413918 -0.0413419 -0.0412514 -0.0411204 -0.0409488 -0.0407357 -0.0404799 -0.0401815 -0.0398405 -0.0394554 -0.0390247 -0.0385485 -0.0380267 -0.0374584 -0.0368426 -0.0361794 -0.0354686 -0.0347109 -0.0339071 -0.0330569 -0.0321605 -0.031221 -0.0302415 -0.0292221 -0.0281628 -0.0270696 -0.0259489 -0.0248006 -0.0236247 -0.0224302 -0.0212261 -0.0200125 -0.0187892 -0.0175672 -0.0163571 -0.015159 -0.0139729 -0.0128096 -0.0116801 -0.0105843 -0.00952228 -0.00850306 -0.00753569 -0.00662016 -0.00575648 -0.00495013 -0.00420659 -0.00352585 -0.00290791 -0.00235345 -0.0018631 -0.00143688 -0.00107478 -0.000771628 -0.000522234 -0.000326601 -0.000184729 -8.55251e-05 -1.7898e-05 1.81528e-05 2.26273e-05 1.27279e-05 5.65683e-06 1.41421e-06 0 0 -2.77615e-06 -1.11046e-05 -2.49854e-05 -4.44184e-05 -8.68551e-05 -0.000169747 -0.000293093 -0.000456895 -0.000672682 -0.000951986 -0.00129481 -0.00170114 -0.00217509 -0.00272073 -0.00333808 -0.00402712 -0.00478518 -0.00560955 -0.00650025 -0.00745727 -0.00847247 -0.00953774 -0.0106531 -0.0118184 -0.0130221 -0.0142521 -0.0155085 -0.0167914 -0.0180875 -0.0193836 -0.0206798 -0.021976 -0.0232603 -0.0245204 -0.0257565 -0.0269686 -0.0281476 -0.0292847 -0.0303797 -0.0314328 -0.0324391 -0.0333937 -0.0342967 -0.035148 -0.0359467 -0.036692 -0.0373839 -0.0380224 -0.0386096 -0.0391474 -0.039636 -0.0400753 -0.0404686 -0.0408196 -0.0411281 -0.0413941 -0.041621 -0.0418118 -0.0419667 -0.0420856 -0.0421703 -0.0422227 -0.0422428 -0.0422306 -0.042186 -0.0421087 -0.0419989 -0.0418566 -0.0416797 -0.0414663 -0.0412163 -0.0409299 -0.0406039 -0.0402353 -0.0398241 -0.0393703 -0.038871 -0.0383235 -0.0377276 -0.0370834 -0.0363898 -0.0356455 -0.0348504 -0.0340047 -0.0331102 -0.0321685 -0.0311798 -0.030144 -0.0290667 -0.0279535 -0.0268042 -0.025619 -0.024407 -0.0231773 -0.0219301 -0.0206652 -0.0193943 -0.0181292 -0.0168698 -0.0156161 -0.0143803 -0.0131748 -0.0119995 -0.0108543 -0.00974998 -0.00869693 -0.00769519 -0.00674476 -0.00585247 -0.00502512 -0.00426274 -0.0035653 -0.00293446 -0.00237184 -0.00187745 -0.00145129 -0.00108871 -0.000785077 -0.000540391 -0.00035465 -0.000216599 -0.000114983 -4.9802e-05 -2.10563e-05 -1.18442e-05 -5.26408e-06 -1.31602e-06 0 0 -6.57141e-06 -2.62856e-05 -5.91427e-05 -0.000105143 -0.00018077 -0.000302509 -0.00047036 -0.000684323 -0.00095576 -0.00129603 -0.00170515 -0.0021831 -0.00273301 -0.00335802 -0.00405812 -0.00483332 -0.00567955 -0.00659277 -0.00757297 -0.00862015 -0.00972451 -0.0108763 -0.0120754 -0.0133219 -0.0146023 -0.0159029 -0.0172238 -0.0185651 -0.019912 -0.0212501 -0.0225793 -0.0238996 -0.0251983 -0.0264625 -0.0276923 -0.0288876 -0.0300397 -0.0311398 -0.032188 -0.0331842 -0.0341247 -0.0350059 -0.0358278 -0.0365903 -0.0372946 -0.0379417 -0.0385317 -0.0390646 -0.0395447 -0.0399766 -0.0403603 -0.0406956 -0.0409886 -0.0412448 -0.0414643 -0.0416471 -0.0417982 -0.0419228 -0.0420208 -0.0420922 -0.0421397 -0.0421663 -0.0421719 -0.0421564 -0.0421197 -0.0420615 -0.0419818 -0.0418805 -0.0417547 -0.0416012 -0.0414199 -0.0412109 -0.0409692 -0.0406899 -0.0403728 -0.0400181 -0.0396205 -0.0391748 -0.038681 -0.0381392 -0.0375459 -0.0368976 -0.0361943 -0.035436 -0.0346227 -0.0337546 -0.0328315 -0.0318535 -0.0308251 -0.029751 -0.0286312 -0.0274657 -0.0262636 -0.025034 -0.0237771 -0.0224927 -0.0211934 -0.0198917 -0.0185876 -0.0172811 -0.0159859 -0.0147155 -0.0134701 -0.0122496 -0.0110662 -0.00993212 -0.00884735 -0.00781188 -0.00683409 -0.00592233 -0.0050766 -0.0042969 -0.00358607 -0.00294695 -0.00237954 -0.00188384 -0.00145601 -0.00109219 -0.000792392 -0.000556613 -0.000373655 -0.000232322 -0.000132616 -7.45355e-05 -4.19262e-05 -1.86339e-05 -4.65847e-06 0 0 -1.10447e-05 -4.41786e-05 -9.9402e-05 -0.000176715 -0.000291096 -0.000457526 -0.000676003 -0.000946529 -0.00128 -0.00168733 -0.0021685 -0.00272352 -0.00335422 -0.00406246 -0.00484822 -0.0057115 -0.00664662 -0.00764787 -0.00871525 -0.00984876 -0.0110367 -0.0122674 -0.0135408 -0.014857 -0.0162005 -0.0175559 -0.0189232 -0.0203025 -0.0216777 -0.0230327 -0.0243677 -0.0256825 -0.0269639 -0.0281983 -0.0293858 -0.0305265 -0.0316119 -0.0326339 -0.0335924 -0.0344875 -0.035317 -0.0360789 -0.0367732 -0.0373998 -0.0379625 -0.0384648 -0.0389066 -0.039288 -0.0396165 -0.0398994 -0.0401367 -0.0403284 -0.0404833 -0.0406098 -0.0407081 -0.0407782 -0.0408272 -0.0408626 -0.0408843 -0.0408923 -0.0408905 -0.0408829 -0.0408695 -0.0408503 -0.0408249 -0.0407929 -0.0407543 -0.0407092 -0.040653 -0.0405812 -0.0404938 -0.0403908 -0.0402649 -0.0401087 -0.0399223 -0.0397055 -0.0394504 -0.0391489 -0.0388009 -0.0384066 -0.0379594 -0.0374533 -0.0368881 -0.0362638 -0.0355783 -0.0348292 -0.0340165 -0.0331402 -0.0322037 -0.03121 -0.0301593 -0.0290515 -0.0278955 -0.0267002 -0.0254656 -0.0241917 -0.0228918 -0.0215791 -0.0202536 -0.0189153 -0.0175794 -0.0162609 -0.01496 -0.0136764 -0.0124244 -0.0112178 -0.0100568 -0.00894116 -0.00788116 -0.00688688 -0.00595833 -0.0050955 -0.0043027 -0.00358423 -0.0029401 -0.00237031 -0.0018721 -0.00144273 -0.00108218 -0.000790459 -0.000556698 -0.000370022 -0.000230431 -0.000137926 -7.75831e-05 -3.44814e-05 -8.62035e-06 0 0 -1.62019e-05 -6.48075e-05 -0.000145817 -0.00025923 -0.000417942 -0.000634847 -0.000909947 -0.00124324 -0.00164482 -0.00212479 -0.00268315 -0.00331989 -0.0040352 -0.00482926 -0.00570206 -0.00665361 -0.00767625 -0.00876231 -0.00991181 -0.0111247 -0.0123873 -0.0136855 -0.0150195 -0.0163893 -0.0177773 -0.0191663 -0.0205561 -0.0219469 -0.023321 -0.0246611 -0.0259672 -0.0272392 -0.0284633 -0.0296257 -0.0307264 -0.0317653 -0.0327351 -0.0336282 -0.0344447 -0.0351845 -0.0358478 -0.0364345 -0.0369447 -0.0373784 -0.0377423 -0.0380432 -0.0382811 -0.038456 -0.0385789 -0.038661 -0.0387022 -0.0387026 -0.0386742 -0.0386293 -0.0385679 -0.0384899 -0.0384053 -0.038324 -0.0382462 -0.0381718 -0.0381061 -0.0380545 -0.0380169 -0.0379934 -0.0379834 -0.0379863 -0.0380021 -0.0380309 -0.0380665 -0.0381027 -0.0381394 -0.0381767 -0.0382043 -0.0382121 -0.0382 -0.0381681 -0.0381047 -0.0379982 -0.0378487 -0.0376561 -0.0374106 -0.0371024 -0.0367315 -0.0362979 -0.0357964 -0.0352219 -0.0345743 -0.0338536 -0.0330614 -0.0321988 -0.0312661 -0.0302631 -0.0291982 -0.0280797 -0.0269077 -0.025682 -0.0244167 -0.0231256 -0.0218087 -0.0204659 -0.019114 -0.0177696 -0.0164326 -0.0151032 -0.0137972 -0.0125307 -0.0113036 -0.0101159 -0.00897983 -0.00790747 -0.00689883 -0.0059539 -0.00507877 -0.0042795 -0.0035561 -0.00290857 -0.00233559 -0.00183584 -0.00140932 -0.00105603 -0.000765732 -0.000528185 -0.000343388 -0.000211342 -0.00011888 -5.28355e-05 -1.32089e-05 0 0 -2.2043e-05 -8.81721e-05 -0.000198387 -0.000352688 -0.000561307 -0.000834474 -0.00117219 -0.00157445 -0.00205022 -0.00260843 -0.0032491 -0.00397223 -0.00477595 -0.00565843 -0.00661965 -0.00765963 -0.00876842 -0.0099361 -0.0111627 -0.0124481 -0.0137762 -0.0151307 -0.0165115 -0.0179188 -0.0193328 -0.0207341 -0.0221225 -0.0234982 -0.024842 -0.0261353 -0.0273778 -0.0285697 -0.0296967 -0.0307448 -0.031714 -0.0326042 -0.0334092 -0.0341227 -0.0347448 -0.0352753 -0.0357171 -0.0360728 -0.0363424 -0.036526 -0.036634 -0.0366771 -0.0366552 -0.0365684 -0.036432 -0.0362615 -0.0360568 -0.0358181 -0.0355615 -0.0353033 -0.0350435 -0.0347821 -0.0345323 -0.0343071 -0.0341066 -0.0339309 -0.0337867 -0.0336811 -0.0336141 -0.0335857 -0.0335951 -0.0336416 -0.0337252 -0.0338458 -0.0339954 -0.0341657 -0.0343568 -0.0345686 -0.0347876 -0.0350001 -0.0352062 -0.0354058 -0.0355832 -0.0357227 -0.0358242 -0.0358878 -0.0358994 -0.035845 -0.0357247 -0.0355383 -0.0352772 -0.0349327 -0.0345049 -0.0339937 -0.0333982 -0.0327175 -0.0319516 -0.0311005 -0.0301717 -0.0291726 -0.0281032 -0.0269636 -0.0257681 -0.0245312 -0.0232527 -0.0219328 -0.0205897 -0.0192414 -0.0178882 -0.0165299 -0.0151846 -0.0138706 -0.0125878 -0.0113361 -0.0101301 -0.00898409 -0.00789809 -0.00687211 -0.00591428 -0.00503275 -0.00422753 -0.00349861 -0.00284646 -0.00227153 -0.00177382 -0.00135333 -0.00100076 -0.000706813 -0.000471488 -0.000294785 -0.000165817 -7.36962e-05 -1.84241e-05 0 0 -2.85681e-05 -0.000114273 -0.000257113 -0.00045709 -0.000721191 -0.00105641 -0.00146273 -0.00194017 -0.00249619 -0.00313825 -0.00386636 -0.00468052 -0.00557647 -0.00654996 -0.00760099 -0.00872956 -0.00992315 -0.0111692 -0.0124678 -0.0138188 -0.0152035 -0.0166028 -0.0180168 -0.0194455 -0.020867 -0.0222593 -0.0236224 -0.0249564 -0.0262408 -0.0274552 -0.0285995 -0.0296739 -0.030664 -0.0315556 -0.0323486 -0.0330431 -0.0336343 -0.0341175 -0.0344927 -0.0347599 -0.0349249 -0.0349937 -0.0349663 -0.0348426 -0.0346376 -0.0343664 -0.0340289 -0.0336252 -0.0331757 -0.0327008 -0.0322006 -0.0316749 -0.031145 -0.0306316 -0.0301349 -0.0296549 -0.0292082 -0.0288118 -0.0284655 -0.0281693 -0.0279322 -0.0277628 -0.0276611 -0.0276273 -0.0276602 -0.027759 -0.0279235 -0.0281539 -0.0284396 -0.0287703 -0.0291459 -0.0295665 -0.0300145 -0.0304726 -0.0309406 -0.0314186 -0.0318861 -0.0323224 -0.0327276 -0.0331018 -0.0334259 -0.0336811 -0.0338674 -0.0339848 -0.0340205 -0.0339617 -0.0338083 -0.0335603 -0.0332141 -0.032766 -0.0322158 -0.0315637 -0.030816 -0.0299788 -0.0290524 -0.0280365 -0.0269461 -0.0257959 -0.0245859 -0.0233161 -0.0220064 -0.0206765 -0.0193266 -0.0179564 -0.0165867 -0.0152376 -0.0139093 -0.0126018 -0.011332 -0.0101168 -0.00895613 -0.00785012 -0.00680923 -0.00584398 -0.00495439 -0.00414044 -0.00340471 -0.00274979 -0.00217567 -0.00168235 -0.00126178 -0.000905905 -0.0