<?xml version="1.0"?> 
<VTKFile type="StructuredGrid" version="0.1"> 
<StructuredGrid WholeExtent="0 128 0 128 0 0"> 
<Piece Extent="0 128 0 128 0 0"> 
<PointData>
<DataArray type="Float32" Name="u" format="ascii" NumberOfComponents="1"> 
0 0 0 0 0 0 0 0 0 0 0 0 0 0 0 0 0 0 0 0 0 0 0 0 0 0 0 0 0 0 0 0 0 0 0 0 0 0 0 0 0 0 0 0 0 0 0 0 0 0 0 0 0 0 0 0 0 0 0 0 0 0 0 0 0 0 0 0 0 0 0 0 0 0 0 0 0 0 0 0 0 0 0 0 0 0 0 0 0 0 0 0 0 0 0 0 0 0 0 0 0 0 0 0 0 0 0 0 0 0 0 0 0 0 0 0 0 0 0 0 0 0 0 0 0 0 0 0 0 0 -4.68258e-08 -1.87303e-07 -4.21432e-07 -7.49213e-07 -1.13361e-06 -1.53758e-06 -1.96112e-06 -2.40424e-06 -2.83576e-06 -3.22451e-06 -3.57049e-06 -3.8737e-06 -4.09443e-06 -4.19297e-06 -4.16932e-06 -4.02347e-06 -3.72306e-06 -3.23573e-06 -2.56148e-06 -1.70031e-06 -6.38727e-07 6.3677e-07 2.12618e-06 3.8295e-06 5.73683e-06 7.8383e-06 1.01339e-05 1.26236e-05 1.52827e-05 1.80862e-05 2.10342e-05 2.41268e-05 2.73396e-05 3.06485e-05 3.40534e-05 3.75544e-05 4.11376e-05 4.47894e-05 4.85096e-05 5.22983e-05 5.61476e-05 6.00496e-05 6.40044e-05 6.80119e-05 7.20542e-05 7.61136e-05 8.019e-05 8.42835e-05 8.83519e-05 9.2353e-05 9.62869e-05 0.000100154 0.000103887 0.000107423 0.00011076 0.000113898 0.000116768 0.000119301 0.000121495 0.000123353 0.000124827 0.000125874 0.000126493 0.000126685 0.000126449 0.000125786 0.000124697 0.00012318 0.000121283 0.000119049 0.00011648 0.000113576 0.000110406 0.00010704 0.000103479 9.97216e-05 9.58348e-05 9.18839e-05 8.78689e-05 8.37899e-05 7.96889e-05 7.5608e-05 7.15471e-05 6.75063e-05 6.35034e-05 5.95559e-05 5.56638e-05 5.18273e-05 4.80539e-05 4.43511e-05 4.07191e-05 3.71579e-05 3.36807e-05 3.0301e-05 2.70187e-05 2.38339e-05 2.07702e-05 1.78512e-05 1.50769e-05 1.24473e-05 9.98656e-06 7.71876e-06 5.64393e-06 3.76207e-06 2.08254e-06 6.14705e-07 -6.41446e-07 -1.68591e-06 -2.53236e-06 -3.19448e-06 -3.67226e-06 -3.96571e-06 -4.10698e-06 -4.1282e-06 -4.02939e-06 -3.81054e-06 -3.51083e-06 -3.16943e-06 -2.78636e-06 -2.36161e-06 -1.92576e-06 -1.50941e-06 -1.11256e-06 -7.3521e-07 -4.13555e-07 -1.83802e-07 -4.59506e-08 0 0 -1.87303e-07 -7.49213e-07 -1.68573e-06 -2.99685e-06 -4.53443e-06 -6.15031e-06 -7.84448e-06 -9.61696e-06 -1.1343e-05 -1.2898e-05 -1.4282e-05 -1.54948e-05 -1.63777e-05 -1.67719e-05 -1.66773e-05 -1.60939e-05 -1.48922e-05 -1.29429e-05 -1.02459e-05 -6.80125e-06 -2.55491e-06 2.54708e-06 8.50471e-06 1.5318e-05 2.29473e-05 3.13532e-05 4.05356e-05 5.04945e-05 6.11307e-05 7.23448e-05 8.4137e-05 9.65071e-05 0.000109358 0.000122594 0.000136214 0.000150217 0.000164551 0.000179157 0.000194038 0.000209193 0.00022459 0.000240198 0.000256017 0.000272047 0.000288217 0.000304454 0.00032076 0.000337134 0.000353407 0.000369412 0.000385148 0.000400614 0.00041555 0.000429691 0.000443038 0.000455591 0.000467072 0.000477203 0.000485982 0.00049341 0.000499308 0.000503495 0.000505972 0.000506738 0.000505795 0.000503145 0.000498787 0.000492721 0.00048513 0.000476197 0.000465922 0.000454303 0.000441623 0.00042816 0.000413914 0.000398886 0.000383339 0.000367536 0.000351476 0.00033516 0.000318756 0.000302432 0.000286188 0.000270025 0.000254013 0.000238223 0.000222655 0.000207309 0.000192215 0.000177405 0.000162877 0.000148631 0.000134723 0.000121204 0.000108075 9.53357e-05 8.30809e-05 7.14049e-05 6.03077e-05 4.97893e-05 3.99462e-05 3.0875e-05 2.25757e-05 1.50483e-05 8.33018e-06 2.45882e-06 -2.56578e-06 -6.74363e-06 -1.01294e-05 -1.27779e-05 -1.4689e-05 -1.58628e-05 -1.64279e-05 -1.65128e-05 -1.61176e-05 -1.52422e-05 -1.40433e-05 -1.26777e-05 -1.11454e-05 -9.44643e-06 -7.70305e-06 -6.03766e-06 -4.45025e-06 -2.94084e-06 -1.65422e-06 -7.3521e-07 -1.83802e-07 0 0 -4.21432e-07 -1.68573e-06 -3.79289e-06 -6.74292e-06 -1.02025e-05 -1.38382e-05 -1.76501e-05 -2.16382e-05 -2.55218e-05 -2.90206e-05 -3.21344e-05 -3.48633e-05 -3.68499e-05 -3.77367e-05 -3.75238e-05 -3.62112e-05 -3.35075e-05 -2.91216e-05 -2.30534e-05 -1.53028e-05 -5.74854e-06 5.73093e-06 1.91356e-05 3.44655e-05 5.16315e-05 7.05447e-05 9.12051e-05 0.000113613 0.000137544 0.000162776 0.000189308 0.000217141 0.000246056 0.000275836 0.00030648 0.000337989 0.000370239 0.000403104 0.000436586 0.000470684 0.000505328 0.000540446 0.000576039 0.000612107 0.000648488 0.000685023 0.00072171 0.000758552 0.000795167 0.000831177 0.000866582 0.000901382 0.000934986 0.000966804 0.000996836 0.00102508 0.00105091 0.00107371 0.00109346 0.00111017 0.00112344 0.00113286 0.00113844 0.00114016 0.00113804 0.00113208 0.00112227 0.00110862 0.00109154 0.00107144 0.00104832 0.00102218 0.000993651 0.00096336 0.000931307 0.000897494 0.000862513 0.000826955 0.000790821 0.000754109 0.0007172 0.000680472 0.000643924 0.000607557 0.00057153 0.000536003 0.000500975 0.000466446 0.000432485 0.00039916 0.000366472 0.000334421 0.000303126 0.000272709 0.000243168 0.000214505 0.000186932 0.000160661 0.000135692 0.000112026 8.9879e-05 6.94688e-05 5.07954e-05 3.38587e-05 1.87429e-05 5.53234e-06 -5.77301e-06 -1.51732e-05 -2.27912e-05 -2.87503e-05 -3.30503e-05 -3.56914e-05 -3.69628e-05 -3.71538e-05 -3.62645e-05 -3.42948e-05 -3.15974e-05 -2.85249e-05 -2.50773e-05 -2.12545e-05 -1.73319e-05 -1.35847e-05 -1.00131e-05 -6.61689e-06 -3.722e-06 -1.65422e-06 -4.13555e-07 0 0 -7.49213e-07 -2.99685e-06 -6.74292e-06 -1.19874e-05 -1.81377e-05 -2.46012e-05 -3.13779e-05 -3.84678e-05 -4.53722e-05 -5.15922e-05 -5.71279e-05 -6.19793e-05 -6.5511e-05 -6.70875e-05 -6.6709e-05 -6.43755e-05 -5.9569e-05 -5.17717e-05 -4.09837e-05 -2.7205e-05 -1.02196e-05 1.01883e-05 3.40188e-05 6.12719e-05 9.17893e-05 0.000125413 0.000162142 0.000201978 0.000244523 0.000289379 0.000336548 0.000386028 0.000437433 0.000490375 0.000544854 0.00060087 0.000658202 0.00071663 0.000776153 0.000836772 0.000898361 0.000960794 0.00102407 0.00108819 0.00115287 0.00121782 0.00128304 0.00134854 0.00141363 0.00147765 0.00154059 0.00160246 0.0016622 0.00171876 0.00177215 0.00182237 0.00186829 0.00190881 0.00194393 0.00197364 0.00199723 0.00201398 0.00202389 0.00202695 0.00202318 0.00201258 0.00199515 0.00197088 0.00194052 0.00190479 0.00186369 0.00181721 0.00176649 0.00171264 0.00165566 0.00159555 0.00153336 0.00147014 0.0014059 0.00134064 0.00127502 0.00120973 0.00114475 0.0010801 0.00101605 0.000952894 0.000890621 0.000829237 0.000768862 0.000709618 0.000651506 0.000594526 0.000538891 0.000484815 0.000432299 0.000381343 0.000332324 0.00028562 0.000241231 0.000199157 0.000159785 0.0001235 9.03029e-05 6.01932e-05 3.33207e-05 9.83528e-06 -1.02631e-05 -2.69745e-05 -4.05177e-05 -5.11116e-05 -5.87562e-05 -6.34514e-05 -6.57116e-05 -6.60512e-05 -6.44702e-05 -6.09686e-05 -5.61732e-05 -5.07109e-05 -4.45818e-05 -3.77857e-05 -3.08122e-05 -2.41506e-05 -1.7801e-05 -1.17634e-05 -6.61689e-06 -2.94084e-06 -7.3521e-07 0 0 -1.13468e-06 -4.53872e-06 -1.02121e-05 -1.81549e-05 -2.74391e-05 -3.71369e-05 -4.72482e-05 -5.77731e-05 -6.79467e-05 -7.7004e-05 -8.49451e-05 -9.177e-05 -9.65318e-05 -9.82835e-05 -9.70252e-05 -9.2757e-05 -8.47344e-05 -7.22132e-05 -5.51935e-05 -3.36752e-05 -7.38387e-06 2.39551e-05 6.03418e-05 0.000101776 0.000147973 0.000198649 0.000253802 0.000313434 0.000376922 0.000443644 0.0005136 0.00058679 0.000662635 0.000740558 0.000820559 0.000902637 0.00098649 0.00107182 0.00115862 0.00124689 0.00133649 0.00142727 0.00151923 0.00161237 0.00170631 0.00180066 0.00189543 0.00199062 0.00208525 0.00217836 0.00226996 0.00236003 0.00244705 0.00252948 0.00260732 0.00268056 0.00274757 0.00280671 0.00285798 0.00290138 0.00293585 0.00296032 0.00297479 0.00297927 0.00297376 0.00295828 0.00293282 0.00289738 0.00285304 0.00280087 0.00274089 0.00267307 0.00259908 0.00252057 0.00243753 0.00234996 0.0022594 0.0021674 0.00207395 0.00197906 0.00188368 0.00178879 0.00169438 0.00160046 0.00150741 0.0014156 0.00132504 0.00123572 0.00114779 0.00106138 0.000976503 0.000893151 0.00081162 0.000732201 0.000654896 0.000579703 0.000507188 0.000437914 0.000371881 0.00030909 0.000250146 0.000195656 0.000145618 0.000100033 5.91729e-05 2.33088e-05 -7.55913e-06 -3.3431e-05 -5.45864e-05 -7.13049e-05 -8.35865e-05 -9.14313e-05 -9.55789e-05 -9.6769e-05 -9.50016e-05 -9.02766e-05 -8.35285e-05 -7.56916e-05 -6.67659e-05 -5.67513e-05 -4.63988e-05 -3.64588e-05 -2.69315e-05 -1.78168e-05 -1.00219e-05 -4.45419e-06 -1.11355e-06 0 0 -1.54187e-06 -6.16748e-06 -1.38768e-05 -2.46699e-05 -3.72056e-05 -5.01427e-05 -6.34812e-05 -7.72212e-05 -9.0298e-05 -0.000101647 -0.000111269 -0.000119163 -0.000124083 -0.000124784 -0.000121265 -0.000113526 -0.000100662 -8.1766e-05 -5.68391e-05 -2.58809e-05 1.1343e-05 5.50673e-05 0.000105292 0.000162017 0.000224736 0.000292944 0.00036664 0.000445825 0.000529598 0.000617059 0.000708208 0.000803045 0.000900807 0.00100073 0.00110282 0.00120707 0.00131315 0.00142075 0.00152985 0.00164046 0.0017525 0.00186589 0.00198063 0.00209671 0.00221375 0.00233137 0.00244956 0.00256832 0.00268648 0.00280286 0.00291747 0.00303031 0.00313942 0.00324287 0.00334066 0.00343278 0.00351714 0.00359162 0.00365622 0.00371096 0.00375446 0.00378534 0.00380361 0.00380928 0.00380234 0.00378281 0.00375069 0.00370598 0.00365007 0.00358434 0.00350879 0.00342343 0.00333037 0.00323171 0.00312748 0.00301765 0.00290419 0.00278904 0.0026722 0.00255367 0.00243462 0.00231624 0.00219851 0.00208145 0.00196542 0.00185083 0.00173766 0.00162593 0.0015157 0.00140705 0.00129999 0.0011945 0.00109092 0.000989543 0.000890385 0.000793441 0.000699457 0.000609177 0.000522602 0.000439732 0.000361446 0.000288621 0.000221259 0.000159359 0.000103409 5.38941e-05 1.0816e-05 -2.58258e-05 -5.62745e-05 -8.0773e-05 -9.93214e-05 -0.00011192 -0.000119469 -0.000122871 -0.000122125 -0.000117232 -0.000109421 -9.99225e-05 -8.87363e-05 -7.58625e-05 -6.23463e-05 -4.92327e-05 -3.65219e-05 -2.42137e-05 -1.36202e-05 -6.05342e-06 -1.51335e-06 0 0 -1.97078e-06 -7.88313e-06 -1.7737e-05 -3.15325e-05 -4.74372e-05 -6.36186e-05 -8.00769e-05 -9.6812e-05 -0.000112426 -0.000125522 -0.000136099 -0.000144158 -0.000148165 -0.000146589 -0.000139428 -0.000126683 -0.000107351 -8.04302e-05 -4.59206e-05 -3.82211e-06 4.59611e-05 0.000103525 0.000168869 0.000241993 0.000322077 0.000408297 0.000500655 0.00059915 0.00070255 0.000809625 0.000920373 0.00103479 0.00115195 0.00127089 0.00139163 0.00151416 0.00163819 0.00176342 0.00188986 0.0020175 0.00214641 0.00227667 0.00240827 0.00254122 0.00267521 0.00280995 0.00294543 0.00308165 0.00321732 0.00335115 0.00348314 0.00361328 0.00373931 0.00385894 0.00397218 0.00407903 0.00417697 0.00426352 0.00433865 0.00440238 0.00445306 0.00448905 0.00451035 0.00451697 0.0045089 0.00448617 0.00444876 0.00439669 0.00433161 0.00425519 0.00416741 0.00406829 0.00396034 0.00384608 0.00372551 0.00359862 0.00346771 0.00333505 0.00320064 0.00306448 0.00292786 0.00279208 0.00265715 0.00252305 0.00239009 0.00225858 0.0021285 0.00199987 0.0018726 0.00174663 0.00162196 0.00149858 0.00137678 0.00125684 0.00113877 0.00102256 0.00090913 0.000799409 0.000693393 0.000591083 0.000493683 0.000402398 0.000317228 0.000238172 0.000166028 0.000101591 4.48623e-05 -4.15909e-06 -4.55821e-05 -7.9516e-05 -0.000105961 -0.000124917 -0.000137383 -0.000144357 -0.000145842 -0.000141835 -0.000133851 -0.000123404 -0.000110493 -9.51192e-05 -7.86547e-05 -6.24724e-05 -4.65722e-05 -3.09541e-05 -1.74117e-05 -7.73851e-06 -1.93463e-06 0 0 -2.42142e-06 -9.68567e-06 -2.17928e-05 -3.87427e-05 -5.81339e-05 -7.75647e-05 -9.70353e-05 -0.000116545 -0.000134331 -0.000148628 -0.000159436 -0.000166755 -0.000168778 -0.000163698 -0.000151514 -0.000132227 -0.000104802 -6.82056e-05 -2.24379e-05 3.25013e-05 9.64702e-05 0.000169327 0.000251073 0.000341707 0.000439996 0.00054471 0.000655848 0.00077341 0.000895779 0.00102134 0.00115009 0.00128204 0.00141606 0.00155105 0.001687 0.00182392 0.0019616 0.00209984 0.00223863 0.00237799 0.00251821 0.0026596 0.00280217 0.0029459 0.00309068 0.00323639 0.00338303 0.0035306 0.00367777 0.00382322 0.00396694 0.00410895 0.0042467 0.00437768 0.00450188 0.0046193 0.00472709 0.00482241 0.00490526 0.00497564 0.00503166 0.00507145 0.00509501 0.00510234 0.00509345 0.00506835 0.00502704 0.00496951 0.00489767 0.00481342 0.00471674 0.00460766 0.00448901 0.00436366 0.00423162 0.00409288 0.00394997 0.00380544 0.00365927 0.00351148 0.00336339 0.00321632 0.00307028 0.00292528 0.00278142 0.00263885 0.00249755 0.00235754 0.00221849 0.00208012 0.00194241 0.00180538 0.00166921 0.0015341 0.00140004 0.00126705 0.00113621 0.00100861 0.000884254 0.000763143 0.000646858 0.000536985 0.000433523 0.000336472 0.000247031 0.0001664 9.45797e-05 3.15693e-05 -2.25092e-05 -6.75339e-05 -0.000103505 -0.000130422 -0.000149319 -0.000161228 -0.00016615 -0.000164085 -0.000156818 -0.000146135 -0.000132036 -0.000114521 -9.53241e-05 -7.61778e-05 -5.70824e-05 -3.80379e-05 -2.13963e-05 -9.50948e-06 -2.37737e-06 0 0 -2.86441e-06 -1.14576e-05 -2.57797e-05 -4.58306e-05 -6.85738e-05 -9.09728e-05 -0.000113028 -0.000134738 -0.000153955 -0.000168529 -0.000178458 -0.000183744 -0.000182357 -0.000172266 -0.000153472 -0.000125974 -8.88253e-05 -4.1078e-05 1.72679e-05 8.62123e-05 0.000165232 0.000253805 0.00035193 0.000459607 0.000575083 0.000696601 0.000824161 0.000957765 0.00109537 0.00123494 0.00137648 0.00151998 0.00166421 0.0018079 0.00195108 0.00209372 0.00223582 0.00237736 0.00251834 0.00265874 0.00279925 0.0029405 0.0030825 0.00322525 0.00336894 0.00351375 0.00365967 0.00380672 0.00395368 0.00409933 0.00424368 0.00438672 0.00452585 0.00465844 0.00478449 0.004904 0.00501394 0.00511128 0.00519601 0.00526813 0.00532563 0.00536648 0.00539068 0.00539823 0.00538914 0.00536342 0.00532107 0.00526208 0.0051885 0.00510235 0.00500365 0.00489238 0.0047716 0.00464435 0.00451062 0.00437042 0.00422637 0.0040811 0.00393461 0.00378689 0.00363917 0.00349266 0.00334737 0.00320329 0.00306025 0.00291807 0.00277676 0.00263631 0.00249607 0.0023554 0.00221428 0.00207274 0.00193077 0.00178839 0.00164561 0.00150243 0.00136006 0.00121974 0.00108146 0.000945223 0.000813032 0.000686888 0.000566791 0.000452741 0.000346453 0.000249641 0.000162304 8.44439e-05 1.65546e-05 -4.08682e-05 -8.78245e-05 -0.000124314 -0.000151289 -0.000169699 -0.000179544 -0.000180825 -0.000175549 -0.000165722 -0.000151345 -0.000132416 -0.00011105 -8.93598e-05 -6.73445e-05 -4.50046e-05 -2.53151e-05 -1.12511e-05 -2.81278e-06 0 0 -3.2704e-06 -1.30816e-05 -2.94336e-05 -5.23264e-05 -7.80351e-05 -0.000102835 -0.000126726 -0.000149707 -0.000169241 -0.000182787 -0.000190345 -0.000191915 -0.000185337 -0.000168448 -0.000141249 -0.000103741 -5.52318e-05 4.9669e-06 7.68555e-05 0.000160434 0.000254609 0.000358286 0.000471465 0.000594147 0.000723924 0.000858388 0.000997539 0.00114138 0.00128742 0.00143318 0.00157865 0.00172384 0.00186745 0.00200817 0.00214601 0.00228096 0.00241331 0.00254336 0.00267111 0.00279656 0.00292087 0.00304517 0.00316948 0.0032938 0.00341878 0.00354506 0.00367266 0.00380156 0.00393089 0.00405974 0.00418811 0.00431601 0.00444098 0.00456055 0.00467474 0.00478354 0.00488397 0.00497307 0.00505083 0.00511726 0.00517033 0.00520806 0.00523043 0.00523745 0.00522912 0.00520544 0.00516642 0.00511205 0.00504435 0.00496533 0.00487499 0.00477334 0.00466336 0.00454801 0.00442731 0.00430126 0.00417232 0.00404295 0.00391315 0.00378292 0.00365318 0.00352482 0.00339784 0.00327225 0.00314741 0.00302268 0.00289807 0.00277357 0.00264804 0.00252035 0.0023905 0.00225848 0.00212402 0.00198682 0.00184688 0.0017042 0.00156006 0.00141576 0.00127128 0.00112664 0.000984264 0.000846611 0.000713679 0.000585465 0.00046433 0.000352633 0.000250373 0.000157549 7.52197e-05 4.43966e-06 -5.47907e-05 -0.000102471 -0.000139303 -0.000165984 -0.000182517 -0.000188899 -0.000187271 -0.00017977 -0.000166397 -0.000147151 -0.000124529 -0.000101029 -7.66505e-05 -5.13932e-05 -2.89087e-05 -1.28483e-05 -3.21208e-06 0 0 -3.63939e-06 -1.45576e-05 -3.27545e-05 -5.82302e-05 -8.65179e-05 -0.000113151 -0.000138129 -0.000161452 -0.000180188 -0.000191402 -0.000195095 -0.000191268 -0.000177718 -0.000152244 -0.000114847 -6.55264e-05 -4.02139e-06 6.99291e-05 0.000156325 0.000255167 0.0003646 0.00048277 0.000609679 0.000745325 0.000886519 0.00103007 0.00117598 0.00132425 0.00147192 0.00161603 0.0017566 0.00189362 0.00202579 0.00215186 0.0022718 0.00238562 0.00249406 0.00259784 0.00269697 0.00279145 0.00288307 0.00297362 0.00306311 0.00315154 0.00324018 0.00333033 0.00342198 0.00351513 0.00360941 0.00370445 0.00380025 0.00389681 0.00399209 0.00408403 0.00417264 0.00425791 0.00433719 0.0044078 0.00446974 0.00452301 0.00456578 0.0045962 0.00461427 0.00462 0.00461338 0.00459441 0.00456309 0.00451941 0.00446522 0.00440234 0.00433078 0.00425053 0.00416427 0.00407466 0.0039817 0.0038854 0.0037878 0.00369097 0.00359489 0.00349958 0.00340542 0.00331279 0.00322171 0.00313217 0.00304291 0.00295268 0.00286148 0.00276931 0.0026744 0.00257498 0.00247105 0.00236262 0.00224897 0.00212938 0.00200384 0.00187236 0.00173621 0.00159667 0.00145372 0.00130738 0.00116055 0.00101616 0.000874185 0.000734644 0.000600663 0.000475377 0.000358784 0.000250886 0.000153486 6.83897e-05 -4.40357e-06 -6.48936e-05 -0.000113361 -0.000150085 -0.000175067 -0.000188307 -0.000191984 -0.00018828 -0.000177194 -0.000158726 -0.000135761 -0.000111186 -8.50005e-05 -5.72039e-05 -3.21772e-05 -1.4301e-05 -3.57524e-06 0 0 -3.97137e-06 -1.58855e-05 -3.57423e-05 -6.35419e-05 -9.40221e-05 -0.000121921 -0.000147238 -0.000169973 -0.000186796 -0.000194375 -0.00019271 -0.000181802 -0.000159499 -0.000123654 -7.42643e-05 -1.13314e-05 6.4806e-05 0.000153809 0.000255677 0.00037041 0.000495205 0.000627259 0.000766571 0.000913143 0.00106287 0.00121165 0.00135949 0.00150637 0.00164887 0.00178352 0.00191033 0.0020293 0.00213924 0.00223895 0.00232844 0.00240772 0.00247807 0.0025408 0.00259591 0.0026434 0.00268585 0.00272585 0.00276339 0.00279847 0.00283317 0.00286956 0.00290764 0.00294742 0.00298924 0.00303347 0.0030801 0.00312913 0.00317918 0.00322886 0.00327818 0.00332713 0.00337359 0.00341546 0.00345273 0.0034854 0.00351196 0.00353089 0.0035422 0.00354588 0.00354193 0.00353033 0.00351107 0.00348417 0.00345111 0.00341339 0.003371 0.00332395 0.00327434 0.00322429 0.00317378 0.00312283 0.00307283 0.00302517 0.00297984 0.00293686 0.00289588 0.00285659 0.00281897 0.00278304 0.00274675 0.00270807 0.002667 0.00262353 0.00257514 0.00251928 0.00245595 0.00238515 0.00230561 0.00221606 0.0021165 0.00200692 0.00188851 0.00176247 0.00162878 0.00148746 0.0013419 0.00119552 0.00104831 0.000900276 0.000755451 0.000617872 0.000487539 0.000364453 0.000251354 0.000150982 6.3337e-05 -1.15807e-05 -7.34629e-05 -0.000122001 -0.000157196 -0.000179048 -0.000189688 -0.00019125 -0.000183734 -0.00016714 -0.000144746 -0.000119831 -9.23944e-05 -6.24367e-05 -3.51206e-05 -1.56092e-05 -3.90229e-06 0 0 -4.22687e-06 -1.69075e-05 -3.80419e-05 -6.763e-05 -9.96043e-05 -0.000127897 -0.000152509 -0.000173439 -0.000186993 -0.000189477 -0.000180891 -0.000161235 -0.000128551 -8.08824e-05 -1.82287e-05 5.94101e-05 0.000150887 0.000255055 0.000371914 0.000501464 0.000639766 0.00078288 0.000930806 0.00108354 0.001236 0.00138308 0.00152479 0.00166113 0.0017882 0.00190213 0.00200292 0.00209056 0.00216409 0.00222256 0.00226596 0.00229429 0.00230956 0.00231376 0.00230691 0.002289 0.00226349 0.00223385 0.00220007 0.00216216 0.00212309 0.00208584 0.00205039 0.00201676 0.00198622 0.00196004 0.00193823 0.00192079 0.0019073 0.00189736 0.00189096 0.00188811 0.0018876 0.00188821 0.00188995 0.00189281 0.00189584 0.00189809 0.00189956 0.00190025 0.00190014 0.0018992 0.00189743 0.00189483 0.00189231 0.00189079 0.00189027 0.00189074 0.00189341 0.00189946 0.00190889 0.0019217 0.00193831 0.00195915 0.0019842 0.00201348 0.00204573 0.00207971 0.00211543 0.00215289 0.00218916 0.00222132 0.00224938 0.00227333 0.00228978 0.00229531 0.00228992 0.00227363 0.00224446 0.00220046 0.00214163 0.00206798 0.00198046 0.00188005 0.00176676 0.00164057 0.00150535 0.00136493 0.00121931 0.0010685 0.000917519 0.000771378 0.00063008 0.000493626 0.000365877 0.000250694 0.000148078 5.80283e-05 -1.8353e-05 -7.9964e-05 -0.000126805 -0.000158875 -0.000178121 -0.00018649 -0.000183981 -0.000170594 -0.000149967 -0.000125737 -9.79054e-05 -6.64711e-05 -3.739e-05 -1.66178e-05 -4.15444e-06 0 0 -4.36642e-06 -1.74657e-05 -3.92978e-05 -6.98627e-05 -0.000102321 -0.000129833 -0.000152398 -0.000170017 -0.000178705 -0.000174479 -0.000157339 -0.000127285 -8.27416e-05 -2.21359e-05 5.45325e-05 0.000147264 0.000253858 0.000372117 0.000502041 0.000643629 0.000791622 0.000940761 0.00109105 0.00124248 0.00138894 0.00152433 0.00164864 0.00176188 0.00185986 0.00193838 0.00199745 0.00203706 0.00205668 0.00205578 0.00203435 0.0019924 0.00193276 0.00185828 0.00176897 0.00166483 0.00155024 0.0014296 0.00130292 0.00117019 0.00103533 0.000902264 0.000770986 0.000641498 0.000516185 0.000397434 0.000285244 0.000179615 8.14916e-05 -8.18214e-06 -8.94061e-05 -0.00016218 -0.000226354 -0.000281776 -0.000328446 -0.000366365 -0.000395608 -0.000416251 -0.000428294 -0.000431736 -0.000426616 -0.000412973 -0.000390807 -0.000360116 -0.000320891 -0.000273117 -0.000216796 -0.000151927 -7.86919e-05 2.72823e-06 9.23333e-05 0.000190123 0.000295163 0.000406516 0.000524184 0.000648165 0.000776118 0.0009057 0.00103691 0.00116975 0.00130037 0.00142492 0.00154339 0.00165579 0.0017578 0.00184511 0.00191771 0.0019756 0.00201601 0.00203616 0.00203603 0.00201564 0.00197555 0.00191631 0.00183794 0.00174042 0.00162792 0.0015046 0.00137045 0.00122547 0.00107569 0.000927155 0.00077985 0.00063378 0.00049411 0.000366005 0.000249467 0.000144495 5.32252e-05 -2.22041e-05 -8.17933e-05 -0.000125542 -0.000155023 -0.000171807 -0.000175895 -0.000167287 -0.000149907 -0.00012768 -0.000100607 -6.8687e-05 -3.86364e-05 -1.71717e-05 -4.29293e-06 0 0 -4.39001e-06 -1.756e-05 -3.95101e-05 -7.02401e-05 -0.000102172 -0.000127727 -0.000146906 -0.000159708 -0.000161933 -0.000149383 -0.000122055 -7.99511e-05 -2.20707e-05 5.25861e-05 0.000144019 0.000252229 0.00037372 0.000504996 0.000646058 0.000796905 0.000950775 0.0011009 0.00124729 0.00138994 0.00152169 0.00163539 0.00173104 0.00180864 0.00186383 0.00189225 0.00189391 0.0018688 0.00181701 0.00173862 0.00163362 0.00150203 0.00134767 0.00117435 0.000982091 0.000770883 0.0005461 0.000313118 7.19356e-05 -0.000177447 -0.000430116 -0.00068116 -0.000930579 -0.00117837 -0.00142086 -0.00165436 -0.00187887 -0.00209439 -0.00229824 -0.00248776 -0.00266293 -0.00282376 -0.00296828 -0.00309451 -0.00320246 -0.00329213 -0.00336239 -0.00341214 -0.00344137 -0.00345009 -0.00343834 -0.00340619 -0.00335363 -0.00328066 -0.0031885 -0.00307834 -0.0029502 -0.00280407 -0.00264196 -0.0024659 -0.00227587 -0.00207189 -0.00185662 -0.00163273 -0.00140022 -0.00115908 -0.000912951 -0.000665456 -0.000416597 -0.000166371 8.03894e-05 0.000318857 0.000549031 0.000770912 0.000979223 0.00116869 0.00133931 0.00149108 0.00162027 0.00172314 0.00179969 0.00184992 0.00187379 0.00187126 0.00184233 0.00178701 0.00170963 0.00161453 0.00150171 0.00137117 0.00122998 0.0010852 0.000936849 0.000784914 0.000636052 0.000496915 0.000367504 0.000247818 0.000141272 5.12782e-05 -2.21621e-05 -7.90494e-05 -0.000120393 -0.000147203 -0.000159478 -0.00015722 -0.000144567 -0.00012566 -0.000100499 -6.90842e-05 -3.88599e-05 -1.72711e-05 -4.31776e-06 0 0 -4.29764e-06 -1.71906e-05 -3.86788e-05 -6.87622e-05 -9.91574e-05 -0.000121581 -0.000136032 -0.000142512 -0.000136677 -0.000114186 -7.50385e-05 -1.92342e-05 5.34616e-05 0.000143284 0.000250232 0.000374306 0.000510471 0.000653691 0.000803964 0.000961293 0.00111722 0.00126331 0.00139954 0.00152593 0.00163424 0.00171625 0.00177197 0.00180139 0.00180012 0.00176376 0.00169232 0.00158578 0.00144507 0.00127106 0.00106377 0.000823197 0.000554282 0.000261972 -5.37322e-05 -0.000392832 -0.000748924 -0.00111561 -0.00149288 -0.00188075 -0.00227325 -0.00266444 -0.0030543 -0.00344285 -0.00382491 -0.00419533 -0.0045541 -0.00490122 -0.0052319 -0.00554136 -0.0058296 -0.00609662 -0.00633817 -0.00654999 -0.00673209 -0.00688447 -0.00700451 -0.00708958 -0.00713967 -0.0071548 -0.00713503 -0.00708044 -0.00699104 -0.00686681 -0.00671051 -0.00652489 -0.00630994 -0.00606568 -0.0057964 -0.00550642 -0.00519573 -0.00486435 -0.00451704 -0.00415859 -0.003789 -0.00340826 -0.00302148 -0.00263376 -0.00224509 -0.00185548 -0.00147079 -0.00109686 -0.0007337 -0.000381308 -4.59664e-05 0.000266043 0.000554719 0.000820063 0.00105724 0.00126143 0.00143261 0.00157081 0.00167517 0.00174488 0.00177994 0.00178034 0.00175047 0.00169473 0.0016131 0.0015056 0.00138036 0.00124552 0.00110108 0.000947029 0.000791704 0.000643423 0.000502189 0.000367999 0.000245786 0.000140483 5.20888e-05 -1.93963e-05 -7.42315e-05 -0.000112676 -0.000134729 -0.000140392 -0.000133946 -0.000119676 -9.7582e-05 -6.76629e-05 -3.80604e-05 -1.69157e-05 -4.22893e-06 0 0 -4.05192e-06 -1.62077e-05 -3.64673e-05 -6.48307e-05 -9.24093e-05 -0.000110314 -0.000118546 -0.000117104 -0.000101633 -6.77738e-05 -1.55283e-05 5.51042e-05 0.000143364 0.000248492 0.000370487 0.000509351 0.000658278 0.000810464 0.00096591 0.00112461 0.00127635 0.00141089 0.00152824 0.00162839 0.00170218 0.00174046 0.00174323 0.00171048 0.00163809 0.00152192 0.00136198 0.00115826 0.000912753 0.000627453 0.00030236 -6.25269e-05 -0.000461071 -0.000887137 -0.00134073 -0.00182184 -0.00232319 -0.0028375 -0.00336477 -0.003905 -0.00445138 -0.0049971 -0.00554216 -0.00608656 -0.00662362 -0.00714666 -0.0076557 -0.00815072 -0.00862448 -0.00906972 -0.00948645 -0.00987467 -0.0102273 -0.0105373 -0.0108047 -0.0110295 -0.0112071 -0.011333 -0.0114073 -0.0114299 -0.0114009 -0.0113204 -0.0111884 -0.0110049 -0.0107747 -0.0105023 -0.0101878 -0.00983121 -0.00943962 -0.00902018 -0.00857289 -0.00809776 -0.00760202 -0.00709292 -0.00657046 -0.00603463 -0.00549204 -0.00494929 -0.00440638 -0.00386331 -0.00332677 -0.00280347 -0.00229339 -0.00179655 -0.00132009 -0.000871132 -0.000449693 -5.5769e-05 0.000304645 0.000625552 0.000906953 0.00114885 0.00134934 0.00150655 0.00162046 0.00169109 0.00172257 0.00171905 0.00168053 0.00160701 0.00150757 0.00139127 0.00125813 0.00110813 0.000951364 0.000797914 0.00064778 0.000500961 0.000364134 0.000243973 0.00014048 5.36548e-05 -1.57864e-05 -6.71258e-05 -0.000100363 -0.000115499 -0.000116834 -0.000108668 -9.10016e-05 -6.38346e-05 -3.59069e-05 -1.59586e-05 -3.98966e-06 0 0 -3.61545e-06 -1.44618e-05 -3.2539e-05 -5.78472e-05 -8.10595e-05 -9.28492e-05 -9.32164e-05 -8.21611e-05 -5.54947e-05 -9.02871e-06 5.72368e-05 0.000143302 0.000247145 0.000366746 0.000502103 0.000653217 0.000811304 0.000967579 0.00112204 0.00127469 0.00141354 0.00152658 0.00161382 0.00167525 0.00170109 0.00168153 0.00161659 0.00150625 0.00134711 0.00113577 0.000872226 0.000556481 0.000191968 -0.000217876 -0.000673052 -0.00117356 -0.00171207 -0.00228126 -0.00288112 -0.00351165 -0.00416504 -0.00483348 -0.00551696 -0.00621549 -0.00692182 -0.00762871 -0.00833614 -0.00904413 -0.00974462 -0.0104295 -0.0110989 -0.0117527 -0.012381 -0.0129735 -0.0135305 -0.0140518 -0.014527 -0.0149457 -0.0153077 -0.0156132 -0.0158553 -0.016027 -0.0161283 -0.0161593 -0.01612 -0.0160106 -0.0158311 -0.0155815 -0.0152688 -0.0149002 -0.0144756 -0.0139951 -0.0134692 -0.0129085 -0.012313 -0.0116826 -0.0110275 -0.0103576 -0.00967289 -0.00897345 -0.00826721 -0.00756215 -0.00685828 -0.00615558 -0.00546118 -0.0047822 -0.00411864 -0.00347051 -0.00284545 -0.00225114 -0.00168756 -0.00115473 -0.000659796 -0.000209933 0.000194862 0.000554589 0.000865943 0.00112562 0.00133362 0.00148995 0.00159804 0.00166135 0.00167987 0.00165361 0.00159229 0.00150561 0.00139359 0.00125622 0.00110533 0.000952771 0.000798537 0.000642629 0.000493678 0.000360313 0.000242534 0.000140342 5.56939e-05 -9.45226e-06 -5.50965e-05 -8.1239e-05 -9.20183e-05 -9.15735e-05 -7.99044e-05 -5.7011e-05 -3.20687e-05 -1.42527e-05 -3.56319e-06 0 0 -2.98823e-06 -1.19529e-05 -2.68941e-05 -4.78117e-05 -6.5108e-05 -6.91851e-05 -6.0043e-05 -3.76819e-05 1.73627e-06 6.20491e-05 0.000143257 0.000245359 0.000364806 0.000498045 0.000645079 0.000805905 0.00096955 0.00112504 0.00127236 0.00141153 0.00152879 0.00161037 0.00165628 0.00166653 0.00163097 0.00153947 0.00139204 0.00118868 0.000927168 0.000605292 0.000223053 -0.000219551 -0.000717288 -0.00126493 -0.00186246 -0.00250991 -0.00319872 -0.00392039 -0.0046749 -0.00546227 -0.00627448 -0.00710354 -0.00794946 -0.00881222 -0.00968457 -0.0105592 -0.0114362 -0.0123156 -0.0131879 -0.014044 -0.0148838 -0.0157073 -0.0165013 -0.0172528 -0.0179617 -0.0186281 -0.0192373 -0.019775 -0.0202412 -0.0206358 -0.0209491 -0.0211714 -0.0213027 -0.021343 -0.0212924 -0.0211511 -0.0209191 -0.0205964 -0.0201928 -0.0197185 -0.0191734 -0.0185574 -0.0178853 -0.0171715 -0.016416 -0.015619 -0.0147934 -0.0139525 -0.0130963 -0.0122247 -0.011347 -0.0104723 -0.00960078 -0.00873229 -0.00787401 -0.00703306 -0.00620945 -0.00540318 -0.00462208 -0.00387398 -0.00315889 -0.00247681 -0.00183608 -0.00124503 -0.000703659 -0.000211972 0.000224967 0.000602095 0.000919409 0.00117691 0.00137689 0.00152164 0.00161115 0.00164542 0.00163453 0.00158855 0.00150747 0.00139129 0.0012536 0.00110799 0.00095446 0.000793003 0.000634418 0.0004895 0.000358249 0.000240665 0.000140209 6.03449e-05 1.07158e-06 -3.76107e-05 -5.94996e-05 -6.83928e-05 -6.42903e-05 -4.71921e-05 -2.65456e-05 -1.1798e-05 -2.94951e-06 0 0 -2.17027e-06 -8.68106e-06 -1.95324e-05 -3.47242e-05 -4.45547e-05 -3.9322e-05 -1.9026e-05 1.63333e-05 7.00603e-05 0.00014546 0.000242532 0.000361276 0.000496345 0.000642391 0.000799415 0.000967416 0.00113302 0.00128283 0.00141687 0.00153513 0.0016221 0.00166226 0.00165564 0.00160221 0.00149181 0.00131428 0.0010696 0.000757786 0.000378272 -6.95034e-05 -0.00058554 -0.00116984 -0.00181502 -0.0025137 -0.00326588 -0.00407156 -0.00492102 -0.00580453 -0.00672209 -0.0076737 -0.00865151 -0.0096477 -0.0106623 -0.0116952 -0.0127396 -0.0137887 -0.0148425 -0.0159009 -0.0169535 -0.0179899 -0.0190102 -0.0200143 -0.0209856 -0.0219076 -0.0227802 -0.0236034 -0.0243581 -0.0250253 -0.0256049 -0.026097 -0.0264885 -0.0267663 -0.0269305 -0.0269811 -0.0269182 -0.026742 -0.0264524 -0.0260496 -0.0255468 -0.0249573 -0.0242811 -0.0235181 -0.0226877 -0.021809 -0.020882 -0.0199068 -0.0188999 -0.0178778 -0.0168407 -0.0157884 -0.0147314 -0.0136799 -0.0126339 -0.0115934 -0.0105653 -0.00955605 -0.00856581 -0.007594