<?xml version="1.0"?> 
<VTKFile type="StructuredGrid" version="0.1"> 
<StructuredGrid WholeExtent="0 128 0 128 0 0"> 
<Piece Extent="0 128 0 128 0 0"> 
<PointData>
<DataArray type="Float32" Name="u" format="ascii" NumberOfComponents="1"> 
0 0 0 0 0 0 0 0 0 0 0 0 0 0 0 0 0 0 0 0 0 0 0 0 0 0 0 0 0 0 0 0 0 0 0 0 0 0 0 0 0 0 0 0 0 0 0 0 0 0 0 0 0 0 0 0 0 0 0 0 0 0 0 0 0 0 0 0 0 0 0 0 0 0 0 0 0 0 0 0 0 0 0 0 0 0 0 0 0 0 0 0 0 0 0 0 0 0 0 0 0 0 0 0 0 0 0 0 0 0 0 0 0 0 0 0 0 0 0 0 0 0 0 0 0 0 0 0 0 0 8.92058e-08 3.56823e-07 8.02852e-07 1.42729e-06 2.0074e-06 2.32042e-06 2.36637e-06 2.14523e-06 1.5364e-06 4.19282e-07 -1.20613e-06 -3.33984e-06 -6.04344e-06 -9.37852e-06 -1.33451e-05 -1.79431e-05 -2.31794e-05 -2.90608e-05 -3.55871e-05 -4.27585e-05 -5.05406e-05 -5.88991e-05 -6.78339e-05 -7.73451e-05 -8.73653e-05 -9.78271e-05 -0.000108731 -0.000120076 -0.000131773 -0.000143731 -0.00015595 -0.000168432 -0.000181074 -0.000193778 -0.000206543 -0.000219369 -0.000232159 -0.000244815 -0.000257338 -0.000269726 -0.000281896 -0.000293761 -0.000305322 -0.000316578 -0.000327462 -0.000337907 -0.000347911 -0.000357475 -0.00036655 -0.000375086 -0.000383085 -0.000390544 -0.000397433 -0.000403719 -0.000409402 -0.000414481 -0.000418939 -0.000422756 -0.000425932 -0.000428469 -0.000430357 -0.00043159 -0.000432168 -0.00043209 -0.000431359 -0.000429978 -0.000427946 -0.000425263 -0.000421942 -0.000417996 -0.000413423 -0.000408225 -0.000402426 -0.000396049 -0.000389095 -0.000381564 -0.000373494 -0.000364924 -0.000355854 -0.000346283 -0.000336268 -0.000325862 -0.000315065 -0.000303879 -0.000292373 -0.000280621 -0.000268621 -0.000256375 -0.000243968 -0.000231485 -0.000218928 -0.000206297 -0.000193684 -0.000181186 -0.000168801 -0.000156529 -0.000144465 -0.000132699 -0.000121233 -0.000110066 -9.92789e-05 -8.89507e-05 -7.90817e-05 -6.96718e-05 -6.07772e-05 -5.2454e-05 -4.47021e-05 -3.75215e-05 -3.09363e-05 -2.49706e-05 -1.96244e-05 -1.48977e-05 -1.07763e-05 -7.24608e-06 -4.30712e-06 -1.95939e-06 -1.38989e-07 1.21796e-06 2.11146e-06 2.54151e-06 2.62322e-06 2.47173e-06 2.08701e-06 1.46908e-06 8.26357e-07 3.6727e-07 9.18174e-08 0 0 3.56823e-07 1.42729e-06 3.21141e-06 5.70917e-06 8.02959e-06 9.28169e-06 9.46547e-06 8.58091e-06 6.14561e-06 1.67713e-06 -4.82453e-06 -1.33594e-05 -2.41738e-05 -3.75141e-05 -5.33803e-05 -7.17725e-05 -9.27177e-05 -0.000116243 -0.000142349 -0.000171034 -0.000202163 -0.000235596 -0.000271336 -0.00030938 -0.000349461 -0.000391308 -0.000434922 -0.000480303 -0.00052709 -0.000574923 -0.000623802 -0.000673726 -0.000724296 -0.000775111 -0.000826171 -0.000877476 -0.000928636 -0.000979261 -0.00102935 -0.00107891 -0.00112758 -0.00117504 -0.00122129 -0.00126631 -0.00130985 -0.00135163 -0.00139164 -0.0014299 -0.0014662 -0.00150035 -0.00153234 -0.00156218 -0.00158973 -0.00161488 -0.00163761 -0.00165792 -0.00167575 -0.00169102 -0.00170373 -0.00171387 -0.00172143 -0.00172636 -0.00172867 -0.00172836 -0.00172544 -0.00171991 -0.00171178 -0.00170105 -0.00168777 -0.00167198 -0.00165369 -0.0016329 -0.0016097 -0.0015842 -0.00155638 -0.00152625 -0.00149398 -0.0014597 -0.00142341 -0.00138513 -0.00134507 -0.00130345 -0.00126026 -0.00121551 -0.00116949 -0.00112248 -0.00107448 -0.0010255 -0.00097587 -0.000925942 -0.000875714 -0.000825187 -0.000774737 -0.000724742 -0.000675202 -0.000626117 -0.000577858 -0.000530796 -0.000484932 -0.000440265 -0.000397116 -0.000355803 -0.000316327 -0.000278687 -0.000243109 -0.000209816 -0.000178808 -0.000150086 -0.000123745 -9.98825e-05 -7.84976e-05 -5.95906e-05 -4.3105e-05 -2.89843e-05 -1.72285e-05 -7.83754e-06 -5.55954e-07 4.87184e-06 8.44583e-06 1.0166e-05 1.04929e-05 9.8869e-06 8.34804e-06 5.87632e-06 3.30543e-06 1.46908e-06 3.6727e-07 0 0 8.02852e-07 3.21141e-06 7.22567e-06 1.28456e-05 1.80666e-05 2.08838e-05 2.12973e-05 1.93071e-05 1.38276e-05 3.77354e-06 -1.08552e-05 -3.00586e-05 -5.43909e-05 -8.44066e-05 -0.000120106 -0.000161488 -0.000208615 -0.000261547 -0.000320284 -0.000384827 -0.000454866 -0.000530092 -0.000610505 -0.000696106 -0.000786287 -0.000880444 -0.000978576 -0.00108068 -0.00118595 -0.00129358 -0.00140355 -0.00151588 -0.00162967 -0.001744 -0.00185889 -0.00197432 -0.00208943 -0.00220334 -0.00231604 -0.00242754 -0.00253706 -0.00264385 -0.0027479 -0.0028492 -0.00294716 -0.00304116 -0.0031312 -0.00321727 -0.00329895 -0.00337578 -0.00344776 -0.0035149 -0.0035769 -0.00363347 -0.00368461 -0.00373033 -0.00377045 -0.0038048 -0.00383339 -0.00385622 -0.00387321 -0.00388431 -0.00388951 -0.00388881 -0.00388223 -0.0038698 -0.00385151 -0.00382737 -0.00379748 -0.00376196 -0.00372081 -0.00367403 -0.00362183 -0.00356444 -0.00350185 -0.00343407 -0.00336144 -0.00328431 -0.00320268 -0.00311655 -0.00302641 -0.00293276 -0.00283559 -0.00273491 -0.00263136 -0.00252559 -0.00241759 -0.00230737 -0.00219571 -0.00208337 -0.00197036 -0.00185667 -0.00174316 -0.00163067 -0.00151921 -0.00140876 -0.00130018 -0.00119429 -0.0010911 -0.000990597 -0.00089351 -0.000800556 -0.000711735 -0.000627046 -0.000546995 -0.000472086 -0.000402319 -0.000337693 -0.000278427 -0.000224736 -0.00017662 -0.000134079 -9.69863e-05 -6.52147e-05 -3.87641e-05 -1.76345e-05 -1.2509e-06 1.09616e-05 1.90031e-05 2.28736e-05 2.3609e-05 2.22455e-05 1.87831e-05 1.32217e-05 7.43721e-06 3.30543e-06 8.26357e-07 0 0 1.42729e-06 5.70917e-06 1.28456e-05 2.28367e-05 3.21184e-05 3.71268e-05 3.78619e-05 3.43237e-05 2.45824e-05 6.70851e-06 -1.92981e-05 -5.34375e-05 -9.6695e-05 -0.000150056 -0.000213521 -0.00028709 -0.000370871 -0.000464972 -0.000569394 -0.000684137 -0.00080865 -0.000942386 -0.00108534 -0.00123752 -0.00139784 -0.00156523 -0.00173969 -0.00192121 -0.00210836 -0.00229969 -0.00249521 -0.0026949 -0.00289718 -0.00310044 -0.00330468 -0.00350991 -0.00371455 -0.00391705 -0.0041174 -0.00431562 -0.00451034 -0.00470018 -0.00488515 -0.00506525 -0.0052394 -0.00540651 -0.00556657 -0.0057196 -0.0058648 -0.00600138 -0.00612935 -0.00624871 -0.00635893 -0.00645951 -0.00655043 -0.0066317 -0.00670302 -0.00676409 -0.00681492 -0.0068555 -0.00688571 -0.00690544 -0.00691468 -0.00691344 -0.00690175 -0.00687964 -0.00684713 -0.00680421 -0.00675107 -0.00668793 -0.00661477 -0.0065316 -0.00643881 -0.00633678 -0.00622552 -0.00610502 -0.0059759 -0.00583878 -0.00569366 -0.00554053 -0.00538028 -0.00521379 -0.00504105 -0.00486206 -0.00467797 -0.00448993 -0.00429794 -0.004102 -0.00390348 -0.00370377 -0.00350285 -0.00330075 -0.00309895 -0.00289897 -0.00270081 -0.00250447 -0.00231143 -0.00212319 -0.00193973 -0.00176106 -0.00158846 -0.00142321 -0.00126531 -0.00111475 -0.000972436 -0.000839264 -0.000715233 -0.000600344 -0.000494981 -0.00039953 -0.000313991 -0.000238363 -0.00017242 -0.000115937 -6.89139e-05 -3.13502e-05 -2.22382e-06 1.94873e-05 3.37833e-05 4.06641e-05 4.19716e-05 3.95476e-05 3.33922e-05 2.35053e-05 1.32217e-05 5.87632e-06 1.46908e-06 0 0 1.99737e-06 7.98948e-06 1.79763e-05 3.19579e-05 4.46342e-05 5.07052e-05 5.01709e-05 4.30312e-05 2.63945e-05 -2.6307e-06 -4.40446e-05 -9.7847e-05 -0.000165495 -0.000248446 -0.000346699 -0.000460254 -0.000589244 -0.000733799 -0.000893921 -0.00106961 -0.00126 -0.00146422 -0.00168227 -0.00191417 -0.00215823 -0.0024128 -0.00267788 -0.00295347 -0.00323737 -0.00352737 -0.00382346 -0.00412566 -0.00443153 -0.00473864 -0.00504698 -0.00535656 -0.00566503 -0.00597004 -0.00627159 -0.00656968 -0.00686228 -0.00714734 -0.00742488 -0.00769489 -0.00795578 -0.00820596 -0.00844541 -0.00867415 -0.00889105 -0.00909495 -0.00928587 -0.0094638 -0.00962802 -0.00977778 -0.0099131 -0.010034 -0.01014 -0.0102307 -0.0103062 -0.0103664 -0.0104112 -0.0104405 -0.0104541 -0.0104521 -0.0104347 -0.0104017 -0.0103533 -0.0102894 -0.0102103 -0.0101162 -0.0100073 -0.00988339 -0.00974513 -0.00959303 -0.00942709 -0.00924732 -0.00905458 -0.00884976 -0.00863286 -0.00840387 -0.00816408 -0.00791476 -0.0076559 -0.00738752 -0.00711129 -0.00682892 -0.0065404 -0.00624574 -0.00594699 -0.0056462 -0.00534339 -0.00503854 -0.00473394 -0.00443185 -0.00413229 -0.00383524 -0.00354297 -0.00325773 -0.00297954 -0.00270837 -0.00244621 -0.002195 -0.00195474 -0.00172544 -0.00150849 -0.00130526 -0.00111578 -0.00094002 -0.000778614 -0.000632171 -0.000500691 -0.000384174 -0.000282308 -0.00019478 -0.000121588 -6.27342e-05 -1.67005e-05 1.80302e-05 4.14577e-05 5.35821e-05 5.71669e-05 5.49754e-05 4.70078e-05 3.32639e-05 1.8711e-05 8.31598e-06 2.079e-06 0 0 2.28031e-06 9.12125e-06 2.05228e-05 3.6485e-05 5.00635e-05 5.43138e-05 4.9236e-05 3.48302e-05 7.24845e-06 -3.73569e-05 -9.89858e-05 -0.000177638 -0.0002752 -0.000393557 -0.000532709 -0.000692656 -0.000873492 -0.00107531 -0.00129811 -0.00154189 -0.00180538 -0.00208733 -0.00238773 -0.00270658 -0.00304154 -0.00339027 -0.00375277 -0.00412905 -0.00451604 -0.0049107 -0.00531303 -0.00572303 -0.00613738 -0.00655277 -0.00696918 -0.00738663 -0.00780195 -0.00821199 -0.00861675 -0.00901624 -0.00940776 -0.00978866 -0.0101589 -0.0105186 -0.0108655 -0.0111978 -0.0115154 -0.0118182 -0.012105 -0.0123743 -0.0126261 -0.0128604 -0.0130763 -0.0132731 -0.0134507 -0.0136091 -0.0137479 -0.0138666 -0.0139652 -0.0140438 -0.0141021 -0.0141401 -0.0141576 -0.0141548 -0.0141316 -0.0140882 -0.0140245 -0.0139406 -0.0138367 -0.0137132 -0.01357 -0.0134072 -0.0132253 -0.013025 -0.0128063 -0.0125692 -0.0123147 -0.0120439 -0.0117568 -0.0114534 -0.0111352 -0.0108039 -0.0104594 -0.0101018 -0.00973329 -0.00935596 -0.00896986 -0.00857497 -0.00817403 -0.00776975 -0.00736213 -0.00695118 -0.00653996 -0.00613153 -0.00572591 -0.00532308 -0.00492614 -0.00453819 -0.00415923 -0.00378925 -0.00343098 -0.00308715 -0.00275774 -0.00244277 -0.0021442 -0.001864 -0.00160217 -0.00135871 -0.00113453 -0.000930562 -0.000746801 -0.000583248 -0.000439553 -0.00031537 -0.000210697 -0.000125536 -5.79065e-05 -5.82857e-06 3.06976e-05 5.16721e-05 6.07812e-05 6.17113e-05 5.44625e-05 3.90346e-05 2.1957e-05 9.75866e-06 2.43966e-06 0 0 2.27612e-06 9.10448e-06 2.04851e-05 3.64179e-05 4.8406e-05 4.79525e-05 3.50574e-05 9.72059e-06 -3.28559e-05 -9.747e-05 -0.000184122 -0.000292811 -0.00042581 -0.000585391 -0.000771553 -0.000984297 -0.00122361 -0.0014895 -0.00178195 -0.00210097 -0.00244481 -0.00281172 -0.0032017 -0.00361475 -0.00404777 -0.00449764 -0.00496436 -0.00544793 -0.00594437 -0.0064497 -0.00696392 -0.00748702 -0.00801475 -0.00854284 -0.00907129 -0.0096001 -0.0101253 -0.0106429 -0.0111529 -0.0116553 -0.0121468 -0.0126241 -0.0130873 -0.0135363 -0.0139687 -0.014382 -0.0147764 -0.0151518 -0.0155066 -0.0158394 -0.0161499 -0.0164384 -0.0167039 -0.0169455 -0.0171632 -0.0173571 -0.0175267 -0.0176717 -0.017792 -0.0178876 -0.0179584 -0.0180043 -0.0180253 -0.0180214 -0.0179927 -0.0179392 -0.0178609 -0.0177579 -0.0176305 -0.0174788 -0.0173029 -0.0171029 -0.0168793 -0.0166327 -0.0163631 -0.0160706 -0.0157563 -0.0154212 -0.0150655 -0.014689 -0.0142936 -0.0138812 -0.0134516 -0.013005 -0.012544 -0.0120711 -0.0115863 -0.0110897 -0.0105846 -0.0100744 -0.00955909 -0.00903866 -0.00851701 -0.00799801 -0.00748167 -0.00696799 -0.00646096 -0.00596457 -0.00547881 -0.0050037 -0.00454279 -0.00409966 -0.00367431 -0.00326674 -0.00287959 -0.00251548 -0.00217441 -0.0018564 -0.00156273 -0.00129471 -0.00105232 -0.000835582 -0.000644154 -0.000477708 -0.000336241 -0.000219756 -0.000125842 -5.2089e-05 1.50304e-06 3.4934e-05 5.28145e-05 5.97553e-05 5.57562e-05 4.08174e-05 2.29598e-05 1.02044e-05 2.55109e-06 0 0 1.98479e-06 7.93915e-06 1.78631e-05 3.17566e-05 3.9662e-05 3.16214e-05 7.63487e-06 -3.22976e-05 -9.39184e-05 -0.00018297 -0.000299453 -0.000443366 -0.000617326 -0.000823947 -0.00106323 -0.00133518 -0.00163961 -0.00197637 -0.00234546 -0.00274686 -0.00317827 -0.00363739 -0.00412419 -0.0046387 -0.00517693 -0.00573491 -0.00631264 -0.00691012 -0.00752236 -0.00814436 -0.00877611 -0.00941762 -0.0100636 -0.0107088 -0.0113533 -0.011997 -0.0126351 -0.0132627 -0.01388 -0.0144868 -0.0150794 -0.0156538 -0.01621 -0.016748 -0.0172651 -0.0177587 -0.0182286 -0.0186749 -0.019096 -0.0194902 -0.0198575 -0.0201979 -0.0205107 -0.0207949 -0.0210507 -0.021278 -0.0214765 -0.021646 -0.0217864 -0.0218977 -0.02198 -0.0220331 -0.0220571 -0.022052 -0.0220178 -0.0219546 -0.0218625 -0.0217414 -0.0215915 -0.0214131 -0.0212061 -0.0209706 -0.0207071 -0.0204161 -0.0200976 -0.0197516 -0.0193793 -0.0189817 -0.0185589 -0.0181107 -0.0176393 -0.0171466 -0.0166325 -0.0160971 -0.0155433 -0.0149742 -0.0143897 -0.0137899 -0.0131787 -0.0125602 -0.0119343 -0.011301 -0.0106651 -0.0100313 -0.00939958 -0.00876997 -0.00814741 -0.00753685 -0.00693828 -0.0063517 -0.00578162 -0.00523254 -0.00470445 -0.00419735 -0.00371463 -0.00325969 -0.00283251 -0.0024331 -0.00206322 -0.0017246 -0.00141725 -0.00114118 -0.000896112 -0.000681793 -0.00049822 -0.000345394 -0.000220507 -0.000120751 -4.61261e-05 3.36782e-06 3.32669e-05 4.91073e-05 5.08891e-05 3.86123e-05 2.17194e-05 9.65306e-06 2.41327e-06 0 0 1.27833e-06 5.11333e-06 1.1505e-05 2.04533e-05 2.0761e-05 1.23069e-06 -3.81376e-05 -9.73439e-05 -0.000183 -0.00030172 -0.000453501 -0.000638345 -0.000859105 -0.00111863 -0.00141693 -0.00175399 -0.00212939 -0.00254268 -0.00299386 -0.00348294 -0.00400692 -0.00456282 -0.00515064 -0.00577037 -0.0064171 -0.00708588 -0.0077767 -0.00848959 -0.00921844 -0.00995718 -0.0107058 -0.0114643 -0.0122265 -0.0129859 -0.0137427 -0.0144968 -0.0152426 -0.0159744 -0.0166924 -0.0173964 -0.0180822 -0.0187453 -0.0193858 -0.0200037 -0.020596 -0.02116 -0.0216956 -0.0222029 -0.0226802 -0.0231261 -0.0235406 -0.0239236 -0.0242747 -0.0245932 -0.0248792 -0.0251326 -0.0253535 -0.0255418 -0.0256974 -0.0258205 -0.025911 -0.0259692 -0.025995 -0.0259884 -0.0259495 -0.0258784 -0.025775 -0.0256394 -0.0254717 -0.0252718 -0.0250398 -0.0247757 -0.0244798 -0.0241523 -0.0237934 -0.023403 -0.0229819 -0.0225313 -0.0220509 -0.0215409 -0.0210031 -0.0204395 -0.0198501 -0.019235 -0.0185972 -0.01794 -0.0172635 -0.0165677 -0.015857 -0.015136 -0.0144047 -0.0136632 -0.0129168 -0.0121713 -0.0114266 -0.0106827 -0.00994548 -0.00922096 -0.0085091 -0.00780992 -0.0071289 -0.00647156 -0.0058379 -0.00522791 -0.00464584 -0.00409591 -0.00357814 -0.00309252 -0.00264135 -0.00222695 -0.0018493 -0.00150843 -0.00120421 -0.000936564 -0.000705481 -0.000510965 -0.0003499 -0.000219172 -0.000118782 -4.87289e-05 -2.6128e-06 2.59673e-05 3.70114e-05 3.05196e-05 1.71673e-05 7.6299e-06 1.90748e-06 0 0 2.87647e-08 1.15059e-07 2.58882e-07 4.60235e-07 -1.13671e-05 -4.73092e-05 -0.000107366 -0.000191538 -0.000307163 -0.000461581 -0.000654791 -0.000886793 -0.00116051 -0.00147886 -0.00184184 -0.00224946 -0.00270085 -0.00319517 -0.00373241 -0.00431258 -0.00493187 -0.0055865 -0.00627646 -0.00700175 -0.00775638 -0.00853435 -0.00933565 -0.0101603 -0.011001 -0.0118507 -0.0127092 -0.0135767 -0.0144458 -0.0153092 -0.0161669 -0.017019 -0.0178591 -0.0186809 -0.0194844 -0.0202696 -0.0210318 -0.0217665 -0.0224736 -0.0231531 -0.0238023 -0.0244183 -0.0250012 -0.0255509 -0.0260664 -0.0265464 -0.026991 -0.0274002 -0.0277739 -0.0281121 -0.0284148 -0.028682 -0.028914 -0.0291113 -0.029274 -0.0294019 -0.0294956 -0.0295552 -0.0295809 -0.0295726 -0.0295304 -0.0294544 -0.0293444 -0.0292007 -0.0290228 -0.0288106 -0.0285642 -0.0282834 -0.0279683 -0.0276185 -0.0272342 -0.0268153 -0.0263624 -0.0258757 -0.0253555 -0.0248016 -0.0242156 -0.0235993 -0.0229527 -0.0222756 -0.0215714 -0.0208432 -0.0200912 -0.0193151 -0.0185201 -0.0177109 -0.0168876 -0.0160502 -0.0152049 -0.0143581 -0.0135097 -0.0126597 -0.0118151 -0.0109828 -0.0101628 -0.00935498 -0.00856605 -0.00780253 -0.00706443 -0.00635175 -0.00566969 -0.00502343 -0.00441298 -0.00383834 -0.0033025 -0.00280845 -0.00235619 -0.00194572 -0.00157724 -0.00125096 -0.000966872 -0.000724982 -0.000522017 -0.000354709 -0.000223056 -0.000127059 -5.95754e-05 -1.34647e-05 1.12738e-05 1.464e-05 8.23498e-06 3.65999e-06 9.14998e-07 0 0 -1.76392e-06 -7.05567e-06 -1.58753e-05 -2.82227e-05 -5.67222e-05 -0.000113998 -0.000200051 -0.00031488 -0.000466407 -0.000662554 -0.000903322 -0.00118871 -0.00152154 -0.00190462 -0.00233796 -0.00282156 -0.00335399 -0.00393384 -0.00456111 -0.00523578 -0.00595314 -0.00670843 -0.00750166 -0.00833283 -0.00919478 -0.0100803 -0.0109895 -0.0119222 -0.0128701 -0.0138249 -0.0147864 -0.0157547 -0.0167215 -0.0176786 -0.018626 -0.0195636 -0.0204846 -0.021382 -0.0222559 -0.0231063 -0.0239284 -0.0247174 -0.0254734 -0.0261964 -0.0268839 -0.0275335 -0.0281453 -0.0287191 -0.0292545 -0.0297511 -0.0302089 -0.0306277 -0.0310085 -0.0313517 -0.0316576 -0.031926 -0.032158 -0.0323547 -0.0325161 -0.0326421 -0.0327336 -0.0327911 -0.0328148 -0.0328046 -0.0327605 -0.0326825 -0.0325707 -0.032425 -0.0322449 -0.0320297 -0.0317793 -0.0314939 -0.0311727 -0.0308147 -0.0304201 -0.0299888 -0.0295206 -0.0290152 -0.0284726 -0.0278928 -0.0272769 -0.026626 -0.02594 -0.025219 -0.0244659 -0.0236838 -0.0228725 -0.0220322 -0.021168 -0.0202848 -0.0193829 -0.0184621 -0.0175293 -0.0165916 -0.0156489 -0.0147012 -0.0137564 -0.0128224 -0.0118992 -0.0109869 -0.0100931 -0.00922544 -0.00838405 -0.00756887 -0.00678618 -0.00604223 -0.00533703 -0.00467057 -0.00404666 -0.0034691 -0.0029379 -0.00245305 -0.00201519 -0.00162497 -0.00128239 -0.000987446 -0.00073686 -0.000527361 -0.000358948 -0.000231621 -0.000137621 -6.91886e-05 -2.63238e-05 -9.02668e-06 -5.07751e-06 -2.25667e-06 -5.64167e-07 0 0 -4.09971e-06 -1.63988e-05 -3.68974e-05 -6.55954e-05 -0.000115305 -0.000198837 -0.000316192 -0.00046737 -0.000660732 -0.00090464 -0.00119909 -0.00154409 -0.00194219 -0.00239592 -0.00290529 -0.00347031 -0.00408882 -0.0047587 -0.00547995 -0.00625256 -0.00707072 -0.00792861 -0.00882625 -0.00976362 -0.0107323 -0.0117238 -0.0127381 -0.0137754 -0.0148258 -0.0158797 -0.0169373 -0.0179983 -0.0190537 -0.0200943 -0.0211199 -0.0221306 -0.0231191 -0.0240779 -0.0250071 -0.0259066 -0.0267718 -0.027598 -0.0283853 -0.0291335 -0.029841 -0.0305057 -0.0311279 -0.0317074 -0.0322447 -0.0327403 -0.0331941 -0.0336062 -0.0339782 -0.034312 -0.0346075 -0.0348647 -0.0350855 -0.0352718 -0.0354237 -0.035541 -0.0356251 -0.0356769 -0.0356967 -0.0356843 -0.0356396 -0.0355628 -0.0354538 -0.0353125 -0.0351379 -0.0349288 -0.0346852 -0.0344071 -0.0340929 -0.0337408 -0.0333509 -0.0329233 -0.0324565 -0.0319495 -0.0314022 -0.0308146 -0.030187 -0.0295196 -0.0288123 -0.0280652 -0.0272808 -0.0264617 -0.0256077 -0.024719 -0.0238006 -0.0228578 -0.0218905 -0.0208988 -0.0198901 -0.0188719 -0.0178442 -0.016807 -0.0157692 -0.0147397 -0.0137185 -0.0127056 -0.0117099 -0.0107403 -0.00979673 -0.00887927 -0.00799532 -0.00715233 -0.00635029 -0.00558921 -0.00487384 -0.00420891 -0.00359444 -0.00303042 -0.00251808 -0.00205862 -0.00165204 -0.00129836 -0.000994429 -0.00073713 -0.000526459 -0.000362417 -0.00023675 -0.000141205 -7.57815e-05 -4.04803e-05 -2.27702e-05 -1.01201e-05 -2.53002e-06 0 0 -7.03377e-06 -2.81351e-05 -6.33039e-05 -0.00011254 -0.000188411 -0.000303481 -0.000457753 -0.000651224 -0.000892491 -0.00119015 -0.00154419 -0.00195463 -0.0024235 -0.00295286 -0.0035427 -0.00419303 -0.00490079 -0.00566294 -0.00647949 -0.00735042 -0.00826869 -0.00922725 -0.0102261 -0.0112652 -0.0123349 -0.0134251 -0.014536 -0.0156675 -0.0168087 -0.0179487 -0.0190875 -0.0202251 -0.0213513 -0.0224562 -0.0235395 -0.0246015 -0.0256343 -0.0266303 -0.0275894 -0.0285118 -0.0293931 -0.0302289 -0.0310193 -0.0317642 -0.0324629 -0.0331144 -0.0337186 -0.0342757 -0.0347874 -0.0352553 -0.0356796 -0.0360603 -0.0364003 -0.0367029 -0.036968 -0.0371957 -0.0373888 -0.0375505 -0.0376808 -0.0377795 -0.0378485 -0.0378896 -0.0379027 -0.0378878 -0.0378448 -0.0377737 -0.0376744 -0.0375469 -0.0373895 -0.0372002 -0.036979 -0.0367261 -0.0364385 -0.0361134 -0.0357509 -0.0353509 -0.0349109 -0.0344283 -0.0339032 -0.0333354 -0.0327241 -0.0320682 -0.0313678 -0.0306228 -0.0298351 -0.0290062 -0.0281362 -0.0272252 -0.0262779 -0.0252995 -0.0242899 -0.0232491 -0.022185 -0.0211056 -0.0200108 -0.0189006 -0.0177848 -0.0166734 -0.0155662 -0.0144633 -0.0133748 -0.012311 -0.0112716 -0.0102569 -0.00927547 -0.00833607 -0.00743869 -0.00658334 -0.00577588 -0.00502213 -0.00432212 -0.00367583 -0.00308525 -0.00255234 -0.0020771 -0.00165955 -0.00129688 -0.000986344 -0.000727924 -0.000521623 -0.000358877 -0.00023112 -0.000138351 -8.05712e-05 -4.53213e-05 -2.01428e-05 -5.0357e-06 0 0 -1.06212e-05 -4.24849e-05 -9.5591e-05 -0.00016994 -0.000277337 -0.00042959 -0.000626698 -0.000868661 -0.00116404 -0.00152139 -0.00194071 -0.00242201 -0.00296653 -0.00357555 -0.00424906 -0.00498707 -0.00578537 -0.00663977 -0.00755028 -0.0085169 -0.00953115 -0.0105846 -0.0116771 -0.0128089 -0.0139685 -0.0151445 -0.0163371 -0.0175462 -0.0187596 -0.0199651 -0.0211627 -0.0223524 -0.0235232 -0.0246644 -0.0257758 -0.0268575 -0.0279018 -0.0289008 -0.0298546 -0.0307633 -0.0316231 -0.0324306 -0.0331857 -0.0338884 -0.0345393 -0.0351389 -0.0356871 -0.0361839 -0.036633 -0.0370379 -0.0373985 -0.0377149 -0.037992 -0.0382346 -0.0384428 -0.0386166 -0.0387604 -0.0388787 -0.0389714 -0.0390385 -0.0390825 -0.039106 -0.0391089 -0.0390913 -0.0390528 -0.0389935 -0.0389132 -0.0388119 -0.038687 -0.0385357 -0.0383579 -0.0381537 -0.0379188 -0.0376489 -0.0373439 -0.0370038 -0.0366244 -0.0362012 -0.0357342 -0.0352235 -0.0346663 -0.0340601 -0.0334049 -0.0327005 -0.0319476 -0.0311466 -0.0302976 -0.0294005 -0.0284597 -0.0274797 -0.0264604 -0.0254018 -0.0243122 -0.0231996 -0.0220639 -0.0209053 -0.0197343 -0.0185618 -0.0173877 -0.0162119 -0.015046 -0.0139013 -0.0127779 -0.0116758 -0.010605 -0.00957581 -0.00858815 -0.00764205 -0.00674463 -0.00590303 -0.00511724 -0.00438727 -0.00371608 -0.00310661 -0.00255886 -0.00207285 -0.00164639 -0.00127733 -0.000965677 -0.000711418 -0.000505919 -0.000340542 -0.000215285 -0.00013015 -7.32092e-05 -3.25374e-05 -8.13435e-06 0 0 -1.48621e-05 -5.94484e-05 -0.000133759 -0.000237793 -0.000382084 -0.000577162 -0.000823027 -0.00111968 -0.00147537 -0.00189836 -0.00238864 -0.00294622 -0.00357128 -0.004264 -0.00502438 -0.00585242 -0.00674255 -0.00768919 -0.00869234 -0.009752 -0.0108581 -0.0120005 -0.0131793 -0.0143945 -0.0156331 -0.0168821 -0.0181417 -0.0194117 -0.0206786 -0.0219291 -0.0231629 -0.0243802 -0.0255694 -0.0267189 -0.0278287 -0.0288987 -0.0299216 -0.0308895 -0.0318027 -0.032661 -0.0334619 -0.0342031 -0.0348845 -0.035506 -0.0360702 -0.0365792 -0.0370332 -0.0374321 -0.0377817 -0.0380879 -0.0383507 -0.0385701 -0.0387531 -0.0389071 -0.0390319 -0.0391275 -0.0392003 -0.0392562 -0.0392954 -0.0393179 -0.039327 -0.0393262 -0.0393154 -0.0392947 -0.0392637 -0.0392222 -0.0391701 -0.0391075 -0.0390305 -0.0389353 -0.0388218 -0.0386901 -0.038534 -0.0383473 -0.03813 -0.0378821 -0.0375969 -0.037268 -0.0368954 -0.0364789 -0.0360138 -0.0354954 -0.0349235 -0.0342983 -0.0336185 -0.032883 -0.0320918 -0.0312449 -0.0303459 -0.0293982 -0.0284019 -0.0273569 -0.0262715 -0.0251538 -0.0240036 -0.0228212 -0.0216178 -0.0204051 -0.019183 -0.0179515 -0.0167234 -0.0155114 -0.0143155 -0.0131358 -0.0119839 -0.0108715 -0.00979868 -0.00876533 -0.0077801 -0.00685158 -0.0059798 -0.00516474 -0.00441056 -0.00372142 -0.00309731 -0.00253825 -0.00204295 -0.0016101 -0.00123972 -0.000931802 -0.000677876 -0.00046947 -0.000306583 -0.000189216 -0.000106434 -4.73039e-05 -1.1826e-05 0 0 -1.97564e-05 -7.90255e-05 -0.000177807 -0.000316102 -0.000502651 -0.000746197 -0.00104674 -0.00140428 -0.0018265 -0.00232107 -0.00288799 -0.00352727 -0.00423773 -0.00501819 -0.00586864 -0.00678908 -0.00777233 -0.00881118 -0.00990565 -0.0110557 -0.0122495 -0.0134752 -0.0147327 -0.0160221 -0.0173287 -0.0186379 -0.0199496 -0.0212638 -0.0225657 -0.0238405 -0.0250881 -0.0263087 -0.0274899 -0.0286198 -0.0296982 -0.0307252 -0.0316937 -0.0325964 -0.0334335 -0.0342049 -0.0349096 -0.0355465 -0.0361157 -0.0366171 -0.0370555 -0.0374354 -0.0377569 -0.0380201 -0.0382334 -0.0384054 -0.0385362 -0.0386257 -0.0386838 -0.0387203 -0.0387351 -0.0387284 -0.0387083 -0.0386832 -0.038653 -0.0386178 -0.038582 -0.0385501 -0.0385221 -0.038498 -0.0384774 -0.0384598 -0.0384452 -0.0384337 -0.03842 -0.0383991 -0.0383708 -0.0383353 -0.038284 -0.0382087 -0.0381092 -0.0379856 -0.0378286 -0.0376289 -0.0373866 -0.0371016 -0.0367665 -0.0363739 -0.0359238 -0.0354162 -0.0348478 -0.0342154 -0.033519 -0.0327586 -0.0319365 -0.0310551 -0.0301144 -0.0291144 -0.028063 -0.0269682 -0.0258299 -0.0246482 -0.0234352 -0.0222032 -0.0209521 -0.019682 -0.018407 -0.0171411 -0.0158845 -0.0146371 -0.0134122 -0.0122233 -0.0110703 -0.00995318 -0.00888228 -0.00786781 -0.0069098 -0.00600823 -0.00516869 -0.00439677 -0.00369246 -0.00305577 -0.00248655 -0.00198464 -0.00155005 -0.00118277 -0.000874748 -0.000617905 -0.000412245 -0.000257769 -0.000144995 -6.44422e-05 -1.61106e-05 0 0 -2.5284e-05 -0.000101136 -0.000227556 -0.000404544 -0.000638514 -0.000935879 -0.00129664 -0.00172079 -0.00221514 -0.00278647 -0.00343479 -0.0041601 -0.00495952 -0.00583019 -0.0067721 -0.00778526 -0.00886058 -0.00998898 -0.0111705 -0.012405 -0.0136788 -0.0149779 -0.0163023 -0.0176521 -0.0190107 -0.0203616 -0.0217048 -0.0230403 -0.024352 -0.0256237 -0.0268554 -0.0280471 -0.0291863 -0.0302603 -0.0312692 -0.0322131 -0.0330854 -0.0338797 -0.0345961 -0.0352346 -0.0357961 -0.0362813 -0.0366904 -0.0370233 -0.0372876 -0.0374906 -0.0376326 -0.0377134 -0.0377449 -0.0377391 -0.0376959 -0.0376154 -0.0375106 -0.0373944 -0.0372669 -0.0371282 -0.0369888 -0.0368597 -0.0367407 -0.036632 -0.0365391 -0.036468 -0.0364185 -0.0363908 -0.0363841 -0.0363979 -0.0364322 -0.036487 -0.0365555 -0.0366311 -0.0367136 -0.0368032 -0.0368888 -0.0369592 -0.0370146 -0.0370549 -0.0370676 -0.0370402 -0.0369727 -0.0368652 -0.0367069 -0.0364874 -0.0362065 -0.0358643 -0.035455 -0.0349727 -0.0344174 -0.0337891 -0.0330886 -0.0323165 -0.031473 -0.0305579 -0.0295787 -0.028543 -0.0274508 -0.026302 -0.0251094 -0.0238859 -0.0226314 -0.021346 -0.0200452 -0.0187445 -0.0174438 -0.0161433 -0.014858 -0.0136032 -0.0123788 -0.0111848 -0.0100334 -0.00893667 -0.00789463 -0.00690727 -0.00598187 -0.00512569 -0.00433874 -0.00362101 -0.00297379 -0.00239838 -0.00189476 -0.00146295 -0.00109555 -0.000785183 -0.000531853 -0.000335557 -0.000188751 -8.38892e-05 -2.09723e-05 0 0 -3.1425e-05 -0.0001257 -0.000282825 -0.0005028 -0.000789147 -0.00114539 -0.00157152 -0.00206755 -0.00263904 -0.00329155 -0.00402508 -0.00483963 -0.00573027 -0.00669207 -0.00772504 -0.00882916 -0.00999317 -0.0112058 -0.012467 -0.0137768 -0.0151192 -0.0164779 -0.0178531 -0.0192446 -0.0206341 -0.022003 -0.0233513 -0.024679 -0.0259688 -0.027203 -0.0283818 -0.0295051 -0.03056 -0.031534 -0.0324268 -0.0332386 -0.0339639 -0.0345976 -0.0351395 -0.0355897 -0.0359515 -0.0362282 -0.0364198 -0.0365263 -0.0365588 -0.036528 -0.0364342 -0.0362773 -0.0360732 -0.0358377 -0.0355709 -0.0352727 -0.03496 -0.0346497 -0.0343416 -0.0340358 -0.033746 -0.0334858 -0.0332553 -0.0330543 -0.0328902 -0.0327703 -0.0326944 -0.0326627 -0.0326743 -0.0327283 -0.0328249 -0.032964 -0.0331369 -0.0333353 -0.033559 -0.033808 -0.0340682 -0.0343253 -0.0345794 -0.0348305 -0.0350622 -0.0352581 -0.0354184 -0.035543 -0.0356174 -0.0356272 -0.0355724 -0.0354529 -0.0352598 -0.034984 -0.0346255 -0.0341843 -0.0336591 -0.0330484 -0.0323523 -0.0315708 -0.0307107 -0.0297785 -0.0287743 -0.0276981 -0.0265633 -0.025383 -0.0241572 -0.0228861 -0.0215864 -0.0202752 -0.0189525 -0.0176182 -0.0162894 -0.0149834 -0.0137001 -0.0124394 -0.0112157 -0.0100431 -0.00892167 -0.00785138 -0.00684148 -0.00590121 -0.00503057 -0.00422957 -0.00350126 -0.00284872 -0.00227194 -0.00177093 -0.00133929 -0.00097064 -0.000664987 -0.000422327 -0.000237559 -0.000105582 -2.63954e-05 0 0 -3.81793e-05 -0.000152717 -0.000343614 -0.000610869 -0.00095455 -0.00137473 -0.0018714 -0.00244456 -0.0030982 -0.00383629 -0.00465885 -0.00556586 -0.00654997 -0.00760383 -0.00872743 -0.00992078 -0.0111701 -0.0124616 -0.0137953 -0.0151712 -0.0165708 -0.0179754 -0.019385 -0.0207998 -0.022199 -0.0235621 -0.0248891 -0.02618 -0.027416 -0.0285785 -0.0296673 -0.0306825 -0.0316113 -0.0324407 -0.0331708 -0.0338017 -0.0343293 -0.03475 -0.0350635 -0.0352701 -0.0353759 -0.0353872 -0.0353039 -0.0351262 -0.0348691 -0.0345476 -0.0341619 -0.0337119 -0.0332182 -0.0327012 -0.0321611 -0.0315977 -0.0310323 -0.0304861 -0.0299591 -0.0294514 -0.0289799 -0.0285616 -0.0281966 -0.0278848 -0.0276353 -0.0274569 -0.0273497 -0.0273137 -0.0273478 -0.027451 -0.0276232 -0.0278646 -0.0281643 -0.0285118 -0.0289068 -0.0293496 -0.0298222 -0.0303069 -0.0308036 -0.0313124 -0.0318124 -0.0322828 -0.0327238 -0.0331352 -0.0334981 -0.0337935 -0.0340215 -0.0341821 -0.0342623 -0.0342494 -0.0341434 -0.0339442 -0.033648 -0.0332508 -0.0327526 -0.0321534 -0.0314588 -0.0306745 -0.0298005 -0.0288367 -0.0277968 -0.0266944 -0.0255295 -0.0243022 -0.0230307 -0.0217334 -0.0204104 -0.0190617 -0.0177065 -0.0163639 -0.0150341 -0.013717 -0.0124292 -0.0111871 -0.00999093 -0.00884056 -0.00774752 -0.00672332 -0.00576796 -0.00488145 -0.00406896 -0.00333567 -0.00268159 -0.00210671 -0.00160596 -0.00117428 -0.000811648 -0.000518079 -0.000291419 -0.00012952 -3.23799e-05 0 0 -4.55469e-05 -0.000182188 -0.000409922 -0.000728751 -0.00113472 -0.00162389 -0.00219625 -0.00285181 -0.00359261 -0.00442071 -0.0053361 -0.00633879 -0.00741863 -0.00856546 -0.00977929 -0.0110601 -0.0123914 -0.0137564 -0.0151554 -0.0165881 -0.0180335 -0.0194702 -0.0208982 -0.0223175 -0.0237054 -0.0250389 -0.0263182 -0.0275431 -0.0286937 -0.02975 -0.0307119 -0.0315794 -0.0323399 -0.0329805 -0.0335014 -0.0339024 -0.0341816 -0.0343369 -0.0343683 -0.0342758 -0.0340692 -0.0337582 -0.0333427 -0.0328229 -0.0322185 -0.0315494 -0.0308157 -0.0300172 -0.0291799 -0.0283297 -0.0274664 -0.0265902 -0.0257272 -0.0249036 -0.0241195 -0.0233748 -0.0226904 -0.022087 -0.0215647 -0.0211235 -0.0207742 -0.0205278 -0.0203843 -0.0203437 -0.0204046 -0.0205658 -0.0208272 -0.0211889 -0.0216377 -0.0221605 -0.0227573 -0.0234281 -0.024151 -0.024904 -0.0256872 -0.0265005 -0.0273182 -0.0281142 -0.0288887 -0.0296416 -0.0303489 -0.0309863 -0.0315539 -0.0320517 -0.0324625 -0.0327689 -0.032971 -0.0330688 -0.0330554 -0.0329237 -0.0326737 -0.0323054 -0.0318232 -0.0312311 -0.0305293 -0.0297177 -0.02881 -0.0278203 -0.0267484 -0.0255943 -0.0243779 -0.023119 -0.0218177 -0.0204739 -0.0191091 -0.0177448 -0.0163809 -0.0150176 -0.0136738 -0.0123687 -0.0111024 -0.00987481 -0.00869999 -0.00759202 -0.00655091 -0.00557665 -0.00467688 -0.00385924 -0.00312371 -0.00247031 -0.00189558 -0.00139609 -0.000971836 -0.0006