<?xml version="1.0"?> 
<VTKFile type="StructuredGrid" version="0.1"> 
<StructuredGrid WholeExtent="0 128 0 128 0 0"> 
<Piece Extent="0 128 0 128 0 0"> 
<PointData>
<DataArray type="Float32" Name="u" format="ascii" NumberOfComponents="1"> 
0 0 0 0 0 0 0 0 0 0 0 0 0 0 0 0 0 0 0 0 0 0 0 0 0 0 0 0 0 0 0 0 0 0 0 0 0 0 0 0 0 0 0 0 0 0 0 0 0 0 0 0 0 0 0 0 0 0 0 0 0 0 0 0 0 0 0 0 0 0 0 0 0 0 0 0 0 0 0 0 0 0 0 0 0 0 0 0 0 0 0 0 0 0 0 0 0 0 0 0 0 0 0 0 0 0 0 0 0 0 0 0 0 0 0 0 0 0 0 0 0 0 0 0 0 0 0 0 0 0 8.60895e-08 3.44358e-07 7.74806e-07 1.37743e-06 1.93077e-06 2.21335e-06 2.22517e-06 1.96624e-06 1.31676e-06 1.56949e-07 -1.51319e-06 -3.69366e-06 -6.44496e-06 -9.82757e-06 -1.38415e-05 -1.84867e-05 -2.37692e-05 -2.96949e-05 -3.62638e-05 -4.3476e-05 -5.12964e-05 -5.96901e-05 -6.86572e-05 -7.81976e-05 -8.82436e-05 -9.87274e-05 -0.000109649 -0.000121009 -0.000132716 -0.00014468 -0.000156901 -0.00016938 -0.000182016 -0.000194709 -0.000207458 -0.000220265 -0.000233032 -0.000245661 -0.000258152 -0.000270506 -0.000282638 -0.000294462 -0.00030598 -0.00031719 -0.000328027 -0.000338422 -0.000348376 -0.000357889 -0.000366913 -0.000375399 -0.000383348 -0.000390759 -0.000397601 -0.000403842 -0.000409483 -0.000414524 -0.000418946 -0.000422732 -0.000425881 -0.000428395 -0.000430265 -0.000431485 -0.000432054 -0.000431974 -0.000431245 -0.00042987 -0.00042785 -0.000425184 -0.000421885 -0.000417964 -0.000413421 -0.000408256 -0.000402494 -0.000396156 -0.000389244 -0.000381757 -0.000373733 -0.000365209 -0.000356186 -0.000346663 -0.000336695 -0.000326335 -0.000315583 -0.00030444 -0.000292976 -0.000281263 -0.0002693 -0.000257087 -0.00024471 -0.000232255 -0.000219722 -0.00020711 -0.000194514 -0.000182027 -0.000169651 -0.000157384 -0.00014532 -0.000133551 -0.000122078 -0.0001109 -0.000100099 -8.97528e-05 -7.98628e-05 -7.04286e-05 -6.15068e-05 -5.31538e-05 -4.53696e-05 -3.81542e-05 -3.15322e-05 -2.55283e-05 -2.01423e-05 -1.53744e-05 -1.12111e-05 -7.63894e-06 -4.65802e-06 -2.26831e-06 -4.06842e-07 9.89318e-07 1.92017e-06 2.38573e-06 2.50041e-06 2.37864e-06 2.02042e-06 1.42576e-06 8.01992e-07 3.56441e-07 8.91103e-08 0 0 3.44358e-07 1.37743e-06 3.09922e-06 5.50973e-06 7.72308e-06 8.8534e-06 8.90069e-06 7.86495e-06 5.26704e-06 6.27797e-07 -6.05277e-06 -1.47747e-05 -2.57798e-05 -3.93103e-05 -5.53659e-05 -7.39469e-05 -9.50769e-05 -0.00011878 -0.000145055 -0.000173904 -0.000205185 -0.00023876 -0.000274629 -0.00031279 -0.000352974 -0.00039491 -0.000438596 -0.000484034 -0.000530862 -0.000578719 -0.000627605 -0.00067752 -0.000728063 -0.000778834 -0.000829833 -0.000881061 -0.000932127 -0.000982643 -0.00103261 -0.00108202 -0.00113055 -0.00117785 -0.00122392 -0.00126876 -0.00131211 -0.00135369 -0.00139351 -0.00143156 -0.00146765 -0.0015016 -0.00153339 -0.00156304 -0.0015904 -0.00161537 -0.00163793 -0.0016581 -0.00167578 -0.00169093 -0.00170353 -0.00171358 -0.00172106 -0.00172594 -0.00172822 -0.00172789 -0.00172498 -0.00171948 -0.0017114 -0.00170074 -0.00168754 -0.00167186 -0.00165368 -0.00163303 -0.00160997 -0.00158462 -0.00155698 -0.00152703 -0.00149493 -0.00146084 -0.00142474 -0.00138665 -0.00134678 -0.00130534 -0.00126233 -0.00121776 -0.0011719 -0.00112505 -0.0010772 -0.00102835 -0.000978841 -0.000929021 -0.000878887 -0.000828439 -0.000778055 -0.000728109 -0.000678603 -0.000629535 -0.000581279 -0.000534204 -0.000488312 -0.000443602 -0.000400395 -0.000359011 -0.000319451 -0.000281714 -0.000246027 -0.000212615 -0.000181478 -0.000152617 -0.000126129 -0.000102113 -8.05693e-05 -6.14975e-05 -4.48443e-05 -3.05558e-05 -1.86321e-05 -9.07322e-06 -1.62737e-06 3.95727e-06 7.6807e-06 9.54291e-06 1.00016e-05 9.51455e-06 8.0817e-06 5.70306e-06 3.20797e-06 1.42576e-06 3.56441e-07 0 0 7.74806e-07 3.09922e-06 6.97325e-06 1.23969e-05 1.73769e-05 1.99202e-05 2.00266e-05 1.76961e-05 1.18508e-05 1.41254e-06 -1.36187e-05 -3.3243e-05 -5.80046e-05 -8.84481e-05 -0.000124573 -0.000166381 -0.000213923 -0.000267254 -0.000326375 -0.000391284 -0.000461667 -0.000537211 -0.000617914 -0.000703778 -0.000794192 -0.000888547 -0.000986842 -0.00108908 -0.00119444 -0.00130212 -0.00141211 -0.00152442 -0.00163814 -0.00175238 -0.00186712 -0.00198239 -0.00209729 -0.00221095 -0.00232337 -0.00243456 -0.00254374 -0.00265016 -0.00275382 -0.00285471 -0.00295224 -0.0030458 -0.00313539 -0.003221 -0.00330222 -0.00337859 -0.00345013 -0.00351683 -0.00357841 -0.00363458 -0.00368535 -0.00373071 -0.00377051 -0.00380459 -0.00383293 -0.00385555 -0.00387238 -0.00388336 -0.00388849 -0.00388776 -0.0038812 -0.00386883 -0.00385065 -0.00382666 -0.00379696 -0.00376167 -0.00372079 -0.00367431 -0.00362244 -0.00356541 -0.0035032 -0.00343581 -0.0033636 -0.00328688 -0.00320567 -0.00311997 -0.00303025 -0.00293701 -0.00284025 -0.00273996 -0.00263678 -0.00253136 -0.0024237 -0.00231378 -0.00220239 -0.0020903 -0.0019775 -0.00186399 -0.00175062 -0.00163825 -0.00152686 -0.00141645 -0.00130788 -0.00120196 -0.0010987 -0.000998104 -0.000900888 -0.000807775 -0.000718765 -0.000633858 -0.000553561 -0.000478384 -0.000408326 -0.000343388 -0.00028379 -0.000229754 -0.000181281 -0.000138369 -0.0001009 -6.87505e-05 -4.19222e-05 -2.04148e-05 -3.66158e-06 8.90387e-06 1.72816e-05 2.14715e-05 2.25036e-05 2.14077e-05 1.81838e-05 1.28319e-05 7.21793e-06 3.20797e-06 8.01992e-07 0 0 1.37743e-06 5.50973e-06 1.23969e-05 2.20389e-05 3.08923e-05 3.54136e-05 3.56028e-05 3.14598e-05 2.10681e-05 2.51119e-06 -2.42111e-05 -5.90986e-05 -0.000103119 -0.000157241 -0.000221464 -0.000295788 -0.000380307 -0.000475119 -0.000580221 -0.000695615 -0.000820742 -0.000955041 -0.00109851 -0.00125116 -0.0014119 -0.00157964 -0.00175439 -0.00193614 -0.00212345 -0.00231488 -0.00251042 -0.00271008 -0.00291225 -0.00311534 -0.00331933 -0.00352424 -0.00372851 -0.00393057 -0.00413044 -0.0043281 -0.00452221 -0.0047114 -0.00489568 -0.00507505 -0.00524843 -0.00541475 -0.00557402 -0.00572623 -0.00587061 -0.00600639 -0.00613357 -0.00625214 -0.00636162 -0.00646148 -0.00655173 -0.00663238 -0.00670313 -0.00676371 -0.0068141 -0.00685432 -0.00688424 -0.00690376 -0.00691287 -0.00691158 -0.00689992 -0.00687792 -0.0068456 -0.00680295 -0.00675016 -0.00668742 -0.00661473 -0.0065321 -0.0064399 -0.0063385 -0.0062279 -0.00610811 -0.00597973 -0.00584335 -0.00569898 -0.00554661 -0.00538712 -0.00522136 -0.00504933 -0.00487104 -0.00468762 -0.0045002 -0.00430879 -0.00411339 -0.00391536 -0.00371608 -0.00351555 -0.00331376 -0.00311222 -0.00291244 -0.00271441 -0.00251814 -0.00232511 -0.00213682 -0.00195325 -0.00177441 -0.00160158 -0.00143604 -0.0012778 -0.00112686 -0.000984109 -0.000850461 -0.000725914 -0.000610467 -0.000504516 -0.000408452 -0.000322277 -0.00024599 -0.000179377 -0.000122223 -7.45284e-05 -3.62929e-05 -6.50947e-06 1.58291e-05 3.07228e-05 3.81716e-05 4.00065e-05 3.80582e-05 3.23268e-05 2.28122e-05 1.28319e-05 5.70306e-06 1.42576e-06 0 0 1.92083e-06 7.68334e-06 1.72875e-05 3.07333e-05 4.2753e-05 4.80785e-05 4.671e-05 3.86474e-05 2.10192e-05 -9.04621e-06 -5.15488e-05 -0.000106489 -0.000175296 -0.0002594 -0.000358802 -0.000473501 -0.000603609 -0.000749238 -0.000910387 -0.00108706 -0.00127836 -0.00148343 -0.00170226 -0.00193485 -0.00217953 -0.00243462 -0.00270013 -0.00297605 -0.00326018 -0.0035503 -0.00384643 -0.00414854 -0.00445423 -0.00476104 -0.00506899 -0.00537808 -0.00568596 -0.00599028 -0.00629106 -0.00658828 -0.00687993 -0.00716399 -0.00744045 -0.00770933 -0.00796903 -0.008218 -0.00845622 -0.0086837 -0.00889933 -0.00910199 -0.00929169 -0.00946842 -0.00963148 -0.00978015 -0.00991445 -0.0100344 -0.0101395 -0.0102295 -0.0103043 -0.010364 -0.0104083 -0.0104372 -0.0104506 -0.0104486 -0.0104312 -0.0103984 -0.0103503 -0.0102868 -0.0102082 -0.0101148 -0.0100066 -0.00988352 -0.00974616 -0.00959503 -0.00943012 -0.00925144 -0.00905983 -0.00885615 -0.00864041 -0.0084126 -0.00817397 -0.00792579 -0.00766805 -0.00740074 -0.00712555 -0.00684415 -0.00655654 -0.00626271 -0.00596473 -0.00566462 -0.0053624 -0.00505806 -0.00475387 -0.00445211 -0.00415277 -0.00385585 -0.00356361 -0.00327832 -0.00299996 -0.00272856 -0.00246606 -0.00221443 -0.00197368 -0.0017438 -0.0015262 -0.00132226 -0.001132 -0.000955404 -0.00079311 -0.000645743 -0.000513303 -0.000395789 -0.000292907 -0.000204362 -0.000130152 -7.02775e-05 -2.32451e-05 1.24399e-05 3.67775e-05 4.97677e-05 5.41571e-05 5.26923e-05 4.53734e-05 3.22003e-05 1.81127e-05 8.05008e-06 2.01252e-06 0 0 2.17361e-06 8.69442e-06 1.95624e-05 3.47777e-05 4.74426e-05 5.06597e-05 4.44291e-05 2.87505e-05 -1.9569e-07 -4.62296e-05 -0.000109351 -0.00018956 -0.000288706 -0.000408637 -0.000549353 -0.000710855 -0.000893208 -0.00109648 -0.00132066 -0.00156576 -0.00183049 -0.00211357 -0.00241499 -0.00273476 -0.00307053 -0.00341993 -0.00378297 -0.00415965 -0.00454692 -0.00494171 -0.00534402 -0.00575385 -0.00616789 -0.00658282 -0.00699864 -0.00741535 -0.0078298 -0.00823885 -0.00864249 -0.00904073 -0.0094309 -0.00981036 -0.0101791 -0.0105371 -0.0108824 -0.011213 -0.0115288 -0.0118299 -0.0121149 -0.0123824 -0.0126325 -0.0128651 -0.0130795 -0.0132747 -0.0134509 -0.0136079 -0.0137455 -0.0138631 -0.0139609 -0.0140386 -0.0140963 -0.0141338 -0.0141511 -0.0141482 -0.0141251 -0.0140819 -0.0140187 -0.0139353 -0.0138322 -0.0137095 -0.0135673 -0.0134057 -0.0132251 -0.0130261 -0.0128089 -0.0125733 -0.0123204 -0.0120512 -0.0117657 -0.011464 -0.0111474 -0.0108177 -0.0104749 -0.0101188 -0.00975173 -0.00937578 -0.00899097 -0.0085973 -0.00819746 -0.00779417 -0.00738742 -0.00697722 -0.00656662 -0.00615868 -0.00575342 -0.00535082 -0.00495398 -0.004566 -0.00418687 -0.0038166 -0.00345792 -0.00311355 -0.0027835 -0.00246778 -0.00216835 -0.0018872 -0.00162433 -0.00137975 -0.00115438 -0.000949162 -0.000764102 -0.000599196 -0.000454122 -0.000328554 -0.000222493 -0.000135938 -6.69425e-05 -1.35568e-05 2.42187e-05 4.63841e-05 5.66023e-05 5.85364e-05 5.21864e-05 3.75523e-05 2.11232e-05 9.38808e-06 2.34702e-06 0 0 2.13575e-06 8.54299e-06 1.92217e-05 3.4172e-05 4.49613e-05 4.31572e-05 2.87598e-05 1.76911e-06 -4.25766e-05 -0.000109039 -0.000197618 -0.000308313 -0.00044335 -0.000604951 -0.000793118 -0.00100785 -0.0012491 -0.00151683 -0.00181104 -0.00213173 -0.00247712 -0.00284545 -0.00323671 -0.0036509 -0.00408489 -0.00453556 -0.00500292 -0.00548695 -0.00598366 -0.00648908 -0.0070032 -0.00752601 -0.00805326 -0.00858068 -0.00910828 -0.00963606 -0.01016 -0.0106763 -0.0111847 -0.0116854 -0.0121751 -0.0126505 -0.0131116 -0.0135584 -0.0139886 -0.0143997 -0.0147918 -0.0151648 -0.0155173 -0.0158476 -0.016156 -0.0164422 -0.0167055 -0.0169451 -0.017161 -0.0173531 -0.0175211 -0.0176647 -0.0177837 -0.0178783 -0.0179483 -0.0179936 -0.0180143 -0.0180103 -0.0179816 -0.0179285 -0.0178508 -0.0177485 -0.017622 -0.0174715 -0.017297 -0.0170985 -0.0168766 -0.0166318 -0.0163642 -0.0160737 -0.0157615 -0.0154285 -0.0150749 -0.0147007 -0.0143075 -0.0138972 -0.0134698 -0.0130252 -0.0125661 -0.0120951 -0.0116121 -0.0111171 -0.0106136 -0.0101047 -0.0095906 -0.00907122 -0.00855045 -0.00803217 -0.00751637 -0.00700306 -0.00649622 -0.00599986 -0.00551396 -0.00503853 -0.00457715 -0.0041334 -0.00370728 -0.00329878 -0.00291057 -0.00254528 -0.00220292 -0.00188349 -0.00158832 -0.00131871 -0.00107467 -0.000856211 -0.00066302 -0.0004948 -0.000351552 -0.000233276 -0.000137602 -6.2161e-05 -6.95345e-06 2.80209e-05 4.73422e-05 5.55906e-05 5.27659e-05 3.88683e-05 2.18634e-05 9.71707e-06 2.42927e-06 0 0 1.80726e-06 7.22903e-06 1.62653e-05 2.89161e-05 3.53089e-05 2.5571e-05 -2.9763e-07 -4.22969e-05 -0.000106123 -0.000197474 -0.000316349 -0.000462748 -0.000639227 -0.000848343 -0.00109009 -0.00136448 -0.00167129 -0.00201031 -0.00238153 -0.00278497 -0.00321826 -0.00367907 -0.0041674 -0.00468325 -0.00522262 -0.00578152 -0.00635996 -0.00695793 -0.00757042 -0.00819243 -0.00882396 -0.00946501 -0.0101103 -0.0107546 -0.0113979 -0.0120402 -0.0126767 -0.0133025 -0.0139178 -0.0145224 -0.0151126 -0.0156844 -0.016238 -0.0167733 -0.0172875 -0.0177781 -0.0182451 -0.0186884 -0.0191065 -0.0194977 -0.0198621 -0.0201997 -0.0205097 -0.0207914 -0.0210448 -0.0212699 -0.0214664 -0.021634 -0.0217729 -0.021883 -0.0219642 -0.0220166 -0.0220401 -0.0220348 -0.0220008 -0.021938 -0.0218466 -0.0217265 -0.0215779 -0.0214009 -0.0211957 -0.0209621 -0.0207008 -0.020412 -0.020096 -0.0197526 -0.019383 -0.0189881 -0.0185681 -0.0181228 -0.0176542 -0.0171642 -0.0166528 -0.01612 -0.0155688 -0.0150021 -0.0144199 -0.0138222 -0.013213 -0.0125963 -0.0119719 -0.0113401 -0.0107054 -0.0100726 -0.00944162 -0.00881256 -0.00819034 -0.0075799 -0.00698124 -0.00639435 -0.00582377 -0.00527398 -0.004745 -0.00423682 -0.00375285 -0.0032965 -0.00286776 -0.00246665 -0.00209493 -0.00175439 -0.00144502 -0.00116683 -0.000919602 -0.0007031 -0.000517329 -0.000362289 -0.000235223 -0.000133373 -5.67391e-05 -5.32182e-06 2.63768e-05 4.38547e-05 4.71118e-05 3.61481e-05 2.03333e-05 9.03703e-06 2.25926e-06 0 0 1.06116e-06 4.24463e-06 9.55041e-06 1.69785e-05 1.54399e-05 -6.15458e-06 -4.78048e-05 -0.000109511 -0.000197829 -0.000319316 -0.000473971 -0.000661795 -0.000885568 -0.00114807 -0.00144931 -0.00178927 -0.00216748 -0.00258343 -0.00303713 -0.00352858 -0.00405475 -0.00461262 -0.00520218 -0.00582344 -0.00647144 -0.00714122 -0.00783278 -0.00854613 -0.00927516 -0.0100138 -0.010762 -0.0115199 -0.012281 -0.0130392 -0.0137944 -0.0145467 -0.0152904 -0.01602 -0.0167354 -0.0174366 -0.0181193 -0.0187793 -0.0194165 -0.0200309 -0.0206197 -0.02118 -0.0217119 -0.0222154 -0.022689 -0.0231313 -0.0235422 -0.0239217 -0.0242694 -0.0245848 -0.0248678 -0.0251185 -0.0253369 -0.025523 -0.0256768 -0.0257982 -0.0258875 -0.0259448 -0.0259701 -0.0259633 -0.0259246 -0.025854 -0.0257515 -0.0256171 -0.0254509 -0.0252528 -0.0250229 -0.0247613 -0.024468 -0.0241434 -0.0237875 -0.0234003 -0.0229826 -0.0225353 -0.0220584 -0.0215518 -0.0210176 -0.0204574 -0.0198714 -0.0192596 -0.018625 -0.0179709 -0.0172973 -0.0166041 -0.015896 -0.0151772 -0.014448 -0.0137083 -0.0129635 -0.0122193 -0.0114757 -0.0107325 -0.00999587 -0.00927161 -0.00855976 -0.00786032 -0.0071788 -0.00652073 -0.00588609 -0.00527489 -0.00469139 -0.00413985 -0.00362028 -0.00313267 -0.00267936 -0.00226269 -0.00188267 -0.00153929 -0.00123251 -0.000962261 -0.000728557 -0.000531393 -0.000367717 -0.000234476 -0.000131669 -5.92965e-05 -1.10051e-05 1.95593e-05 3.23965e-05 2.75067e-05 1.54725e-05 6.87668e-06 1.71917e-06 0 0 -2.2954e-07 -9.18161e-07 -2.06586e-06 -3.67264e-06 -1.76914e-05 -5.60749e-05 -0.000118823 -0.000205936 -0.000324686 -0.000482344 -0.00067891 -0.000914385 -0.0011916 -0.0015134 -0.00187978 -0.00229074 -0.00274537 -0.00324273 -0.00378284 -0.00436569 -0.00498744 -0.00564426 -0.00633614 -0.00706309 -0.00781907 -0.00859806 -0.00940006 -0.0102251 -0.0110659 -0.0119152 -0.0127731 -0.0136396 -0.0145073 -0.0153691 -0.0162248 -0.0170746 -0.017912 -0.0187309 -0.0195312 -0.0203129 -0.0210715 -0.0218023 -0.0225053 -0.0231806 -0.0238253 -0.0244369 -0.0250153 -0.0255605 -0.0260715 -0.0265471 -0.0269874 -0.0273924 -0.0277621 -0.0280965 -0.0283956 -0.0286595 -0.0288885 -0.0290832 -0.0292436 -0.0293697 -0.0294618 -0.0295204 -0.0295454 -0.0295369 -0.0294949 -0.0294195 -0.0293107 -0.0291684 -0.0289924 -0.0287824 -0.0285385 -0.0282607 -0.0279488 -0.0276025 -0.0272218 -0.0268068 -0.0263578 -0.0258753 -0.0253592 -0.0248096 -0.0242279 -0.0236158 -0.0229733 -0.0223003 -0.0216 -0.0208756 -0.020127 -0.0193544 -0.0185624 -0.0177561 -0.0169354 -0.0161003 -0.0152571 -0.014412 -0.013565 -0.0127161 -0.0118723 -0.0110405 -0.0102206 -0.00941268 -0.00862331 -0.00785907 -0.00711997 -0.006406 -0.00572238 -0.00507435 -0.00446189 -0.00388502 -0.00334675 -0.00285013 -0.00239515 -0.00198181 -0.00161037 -0.00128109 -0.000993966 -0.000749001 -0.000542996 -0.000372754 -0.000238273 -0.000139556 -6.95147e-05 -2.10653e-05 5.79254e-06 1.10589e-05 6.22061e-06 2.76472e-06 6.91179e-07 0 0 -2.06483e-06 -8.25933e-06 -1.85835e-05 -3.30373e-05 -6.40848e-05 -0.00012419 -0.000213353 -0.000331574 -0.000486695 -0.000686559 -0.000931167 -0.00122052 -0.00155733 -0.00194433 -0.00238152 -0.00286889 -0.00340495 -0.0039882 -0.00461865 -0.00529629 -0.00601634 -0.006774 -0.00756929 -0.00840219 -0.00926551 -0.010152 -0.0110618 -0.0119948 -0.0129426 -0.0138967 -0.0148573 -0.0158242 -0.0167893 -0.0177442 -0.018689 -0.0196237 -0.0205414 -0.0214353 -0.0223053 -0.0231514 -0.023969 -0.0247534 -0.0255045 -0.0262223 -0.0269046 -0.0275489 -0.0281553 -0.0287238 -0.0292538 -0.0297452 -0.0301978 -0.0306117 -0.0309876 -0.0313264 -0.0316281 -0.0318926 -0.0321211 -0.0323147 -0.0324734 -0.0325973 -0.032687 -0.0327433 -0.0327662 -0.0327557 -0.0327119 -0.0326347 -0.0325242 -0.0323803 -0.0322023 -0.0319897 -0.0317425 -0.0314605 -0.0311431 -0.0307892 -0.0303989 -0.0299722 -0.0295088 -0.0290082 -0.0284706 -0.027896 -0.0272852 -0.0266393 -0.0259582 -0.0252421 -0.0244937 -0.0237161 -0.0229091 -0.0220729 -0.0212125 -0.0203329 -0.0194341 -0.0185162 -0.017586 -0.0166505 -0.0157096 -0.0147634 -0.0138198 -0.0128865 -0.0119638 -0.0110514 -0.0101573 -0.00928902 -0.00844664 -0.00763015 -0.00684583 -0.00609998 -0.00539261 -0.0047237 -0.00409711 -0.0035167 -0.00298246 -0.00249439 -0.00205319 -0.00165959 -0.00131356 -0.00101511 -0.00076106 -0.000548207 -0.000376553 -0.000246099 -0.000149152 -7.80191e-05 -3.27002e-05 -1.31955e-05 -7.42245e-06 -3.29887e-06 -8.24716e-07 0 0 -4.44472e-06 -1.77789e-05 -4.00025e-05 -7.11156e-05 -0.000123741 -0.0002105 -0.000331394 -0.000486422 -0.000683855 -0.000931961 -0.00123074 -0.00158019 -0.00198276 -0.00244086 -0.00295452 -0.00352371 -0.00414623 -0.00481985 -0.00554457 -0.00632039 -0.00714144 -0.00800185 -0.00890162 -0.00984075 -0.0108108 -0.0118032 -0.012818 -0.0138552 -0.0149052 -0.0159583 -0.0170144 -0.0180737 -0.0191268 -0.0201646 -0.0211871 -0.0221942 -0.0231787 -0.0241331 -0.0250576 -0.0259521 -0.0268119 -0.0276325 -0.028414 -0.0291562 -0.0298574 -0.030516 -0.0311319 -0.0317051 -0.0322361 -0.0327255 -0.0331734 -0.0335796 -0.0339461 -0.0342747 -0.0345653 -0.034818 -0.0350347 -0.0352175 -0.0353662 -0.035481 -0.0355631 -0.0356135 -0.0356324 -0.0356197 -0.0355754 -0.0354995 -0.035392 -0.0352528 -0.0350808 -0.0348748 -0.0346347 -0.0343607 -0.0340509 -0.0337036 -0.0333188 -0.0328965 -0.0324353 -0.031934 -0.0313926 -0.030811 -0.0301893 -0.0295278 -0.0288264 -0.0280851 -0.0273063 -0.0264925 -0.0256437 -0.0247598 -0.0238461 -0.0229075 -0.0219441 -0.0209559 -0.0199504 -0.0189349 -0.0179096 -0.0168744 -0.0158381 -0.0148097 -0.0137892 -0.0127766 -0.0117807 -0.0108106 -0.00986611 -0.00894734 -0.00806173 -0.00721676 -0.00641242 -0.00564871 -0.00493044 -0.0042624 -0.0036446 -0.00307703 -0.00256098 -0.00209775 -0.00168733 -0.00132973 -0.00102191 -0.000760835 -0.000546507 -0.000378927 -0.000249917 -0.000151302 -8.30818e-05 -4.52563e-05 -2.54566e-05 -1.13141e-05 -2.82852e-06 0 0 -7.42303e-06 -2.96921e-05 -6.68073e-05 -0.000118768 -0.000197923 -0.000316618 -0.000474853 -0.000672628 -0.000918433 -0.00122076 -0.0015796 -0.00199496 -0.00246877 -0.00300293 -0.00359746 -0.00425234 -0.00496444 -0.00573063 -0.00655089 -0.00742523 -0.00834653 -0.00930769 -0.0103087 -0.0113496 -0.0124204 -0.0135114 -0.0146225 -0.0157537 -0.0168942 -0.0180328 -0.0191698 -0.020305 -0.0214284 -0.0225299 -0.0236094 -0.024667 -0.025695 -0.0266858 -0.0276394 -0.0285557 -0.0294307 -0.03026 -0.0310436 -0.0317815 -0.032473 -0.0331172 -0.0337142 -0.034264 -0.0347684 -0.0352293 -0.0356468 -0.0360207 -0.0363544 -0.036651 -0.0369105 -0.037133 -0.0373215 -0.0374791 -0.0376058 -0.0377016 -0.0377684 -0.0378078 -0.0378199 -0.0378048 -0.0377622 -0.0376921 -0.0375946 -0.0374695 -0.037315 -0.0371293 -0.0369122 -0.0366639 -0.0363814 -0.0360619 -0.0357052 -0.0353114 -0.0348779 -0.034402 -0.0338835 -0.0333227 -0.0327183 -0.0320693 -0.0313757 -0.0306375 -0.0298562 -0.0290336 -0.0281697 -0.0272644 -0.0263227 -0.0253493 -0.0243444 -0.0233078 -0.0222476 -0.0211716 -0.0200797 -0.0189719 -0.0178582 -0.0167483 -0.0156422 -0.0145398 -0.0134515 -0.0123873 -0.0113472 -0.0103312 -0.00934816 -0.00840675 -0.00750699 -0.00664889 -0.00583835 -0.00508127 -0.00437767 -0.00372753 -0.00313292 -0.00259589 -0.00211644 -0.00169456 -0.0013276 -0.00101288 -0.000750396 -0.000540154 -0.000373675 -0.000242482 -0.000146576 -8.5955e-05 -4.83497e-05 -2.14887e-05 -5.37219e-06 0 0 -1.10536e-05 -4.42143e-05 -9.94821e-05 -0.000176857 -0.000287896 -0.000444156 -0.000645636 -0.000892337 -0.0011927 -0.00155516 -0.00197972 -0.00246638 -0.00301626 -0.00363047 -0.00430902 -0.0050519 -0.00585483 -0.00671349 -0.0076279 -0.00859806 -0.00961541 -0.0106714 -0.0117661 -0.0128995 -0.0140601 -0.0152367 -0.0164292 -0.0176376 -0.0188498 -0.0200535 -0.0212486 -0.0224353 -0.0236026 -0.0247396 -0.0258464 -0.0269229 -0.0279615 -0.0289544 -0.0299017 -0.0308034 -0.0316559 -0.0324558 -0.0332031 -0.0338977 -0.0345404 -0.0351316 -0.0356715 -0.0361601 -0.0366009 -0.0369977 -0.0373506 -0.0376594 -0.0379292 -0.0381651 -0.038367 -0.038535 -0.0386735 -0.0387871 -0.0388759 -0.0389397 -0.0389812 -0.0390028 -0.0390047 -0.0389868 -0.0389488 -0.0388907 -0.0388124 -0.0387138 -0.0385923 -0.038445 -0.0382719 -0.0380731 -0.037844 -0.0375803 -0.0372819 -0.036949 -0.0365769 -0.0361612 -0.035702 -0.0351992 -0.03465 -0.0340516 -0.0334042 -0.0327076 -0.0319622 -0.0311685 -0.0303265 -0.0294361 -0.0285016 -0.0275275 -0.0265138 -0.0254603 -0.0243753 -0.0232668 -0.0221347 -0.0209792 -0.0198108 -0.0186403 -0.0174677 -0.0162929 -0.0151274 -0.0139827 -0.0128587 -0.0117555 -0.0106832 -0.00965204 -0.00866199 -0.00771307 -0.00681246 -0.00596736 -0.00517779 -0.00444372 -0.00376822 -0.00315432 -0.00260202 -0.00211133 -0.00168019 -0.00130658 -0.000990477 -0.000731894 -0.000522291 -0.000353127 -0.000224405 -0.000136123 -7.65693e-05 -3.40308e-05 -8.5077e-06 0 0 -1.53363e-05 -6.13454e-05 -0.000138027 -0.000245382 -0.00039366 -0.000593114 -0.000843743 -0.00114555 -0.00150665 -0.00193516 -0.00243109 -0.00299444 -0.00362522 -0.00432348 -0.00508921 -0.0059224 -0.00681738 -0.00776845 -0.00877562 -0.00983888 -0.0109481 -0.0120931 -0.0132738 -0.0144904 -0.0157298 -0.016979 -0.018238 -0.0195069 -0.0207721 -0.0220201 -0.0232509 -0.0244645 -0.0256494 -0.0267939 -0.0278982 -0.0289621 -0.0299783 -0.0309391 -0.0318447 -0.032695 -0.0334876 -0.0342201 -0.0348925 -0.0355048 -0.0360596 -0.0365592 -0.0370038 -0.0373933 -0.0377336 -0.0380308 -0.0382848 -0.0384957 -0.0386706 -0.038817 -0.0389348 -0.0390239 -0.0390908 -0.0391416 -0.0391764 -0.0391952 -0.0392015 -0.0391986 -0.0391867 -0.0391657 -0.0391353 -0.0390952 -0.0390454 -0.0389858 -0.0389127 -0.038822 -0.0387138 -0.0385881 -0.0384385 -0.0382588 -0.038049 -0.037809 -0.0375322 -0.0372119 -0.0368479 -0.0364404 -0.0359843 -0.0354748 -0.0349118 -0.0342954 -0.0336242 -0.0328971 -0.0321139 -0.0312747 -0.030383 -0.0294422 -0.0284524 -0.0274134 -0.0263334 -0.0252206 -0.0240748 -0.0228961 -0.021696 -0.0204858 -0.0192658 -0.0180357 -0.0168085 -0.0155968 -0.0144006 -0.0132201 -0.0120668 -0.0109526 -0.00987741 -0.00884124 -0.00785277 -0.00692067 -0.00604494 -0.00522559 -0.00446687 -0.00377303 -0.00314408 -0.00258002 -0.00207968 -0.00164193 -0.00126675 -0.000954148 -0.000695764 -0.000483238 -0.00031657 -0.000195761 -0.000110115 -4.89402e-05 -1.2235e-05 0 0 -2.02714e-05 -8.10854e-05 -0.000182442 -0.000324342 -0.000515215 -0.000763493 -0.00106918 -0.00143226 -0.00186028 -0.00236077 -0.00293372 -0.00357914 -0.00429567 -0.00508196 -0.00593802 -0.00686384 -0.00785211 -0.0088955 -0.00999403 -0.0111477 -0.0123445 -0.0135726 -0.0148319 -0.0161224 -0.0174295 -0.0187383 -0.020049 -0.0213616 -0.0226611 -0.0239328 -0.0251766 -0.0263926 -0.0275687 -0.0286927 -0.0297646 -0.0307845 -0.0317453 -0.0326399 -0.0334683 -0.0342305 -0.0349256 -0.0355527 -0.0361118 -0.0366028 -0.0370306 -0.0374001 -0.0377111 -0.0379636 -0.0381666 -0.0383285 -0.0384495 -0.0385296 -0.0385787 -0.0386067 -0.0386138 -0.0385998 -0.0385733 -0.0385425 -0.0385075 -0.0384682 -0.0384292 -0.0383952 -0.0383659 -0.0383416 -0.0383216 -0.0383056 -0.0382935 -0.0382855 -0.0382761 -0.0382602 -0.0382378 -0.0382089 -0.038165 -0.0380975 -0.0380064 -0.0378917 -0.037744 -0.0375538 -0.0373213 -0.0370463 -0.0367214 -0.0363388 -0.0358987 -0.0354009 -0.0348423 -0.0342193 -0.033532 -0.0327805 -0.0319668 -0.0310934 -0.0301601 -0.029167 -0.028122 -0.0270329 -0.0258998 -0.0247227 -0.0235136 -0.0222849 -0.0210365 -0.0197683 -0.0184947 -0.0172296 -0.015973 -0.0147251 -0.0134991 -0.0123085 -0.0111533 -0.0100334 -0.00895928 -0.00794119 -0.00697914 -0.00607314 -0.00522887 -0.00445203 -0.00374262 -0.00310063 -0.00252608 -0.00201894 -0.00157922 -0.00120692 -0.000894095 -0.000632814 -0.000423071 -0.000264868 -0.000148988 -6.62169e-05 -1.65542e-05 0 0 -2.58376e-05 -0.00010335 -0.000232538 -0.000413401 -0.000652012 -0.000954441 -0.00132069 -0.00175076 -0.00225128 -0.00282888 -0.00348356 -0.00421532 -0.00502111 -0.00589786 -0.00684558 -0.00786428 -0.00894472 -0.0100777 -0.0112632 -0.0125013 -0.0137779 -0.0150792 -0.0164051 -0.0177556 -0.0191142 -0.0204643 -0.021806 -0.0231392 -0.0244478 -0.0257156 -0.0269427 -0.028129 -0.029262 -0.0303292 -0.0313306 -0.0322662 -0.0331297 -0.0339148 -0.0346213 -0.0352495 -0.0358002 -0.0362744 -0.0366721 -0.0369934 -0.0372459 -0.0374373 -0.0375675 -0.0376366 -0.0376567 -0.0376397 -0.0375858 -0.0374948 -0.0373801 -0.0372547 -0.0371186 -0.036972 -0.0368255 -0.0366902 -0.0365659 -0.0364528 -0.0363565 -0.036283 -0.0362323 -0.0362042 -0.0361983 -0.0362139 -0.036251 -0.0363096 -0.0363829 -0.036464 -0.0365531 -0.03665 -0.0367436 -0.0368228 -0.0368874 -0.0369375 -0.0369605 -0.0369437 -0.0368871 -0.0367906 -0.0366436 -0.0364353 -0.0361655 -0.0358344 -0.035436 -0.0349643 -0.0344193 -0.033801 -0.03311 -0.0323469 -0.0315118 -0.0306047 -0.0296329 -0.0286039 -0.0275178 -0.0263743 -0.0251865 -0.023967 -0.0227159 -0.0214331 -0.0201342 -0.0188347 -0.0175346 -0.016234 -0.0149479 -0.0136917 -0.0124652 -0.0112686 -0.0101141 -0.00901374 -0.00796764 -0.00697576 -0.0060455 -0.00518424 -0.00439197 -0.0036687 -0.00301588 -0.00243495 -0.00192591 -0.00148876 -0.00111626 -0.000801162 -0.000543468 -0.000343177 -0.000193037 -8.57943e-05 -2.14486e-05 0 0 -3.2014e-05 -0.000128056 -0.000288126 -0.000512224 -0.000803501 -0.00116511 -0.00159705 -0.00209932 -0.0026773 -0.00333638 -0.00407655 -0.00489782 -0.00579505 -0.00676312 -0.00780203 -0.00891177 -0.0100809 -0.0112981 -0.0125633 -0.0138764 -0.0152214 -0.016582 -0.0179582 -0.01935 -0.020739 -0.0221065 -0.0234526 -0.0247773 -0.0260632 -0.0272927 -0.0284659 -0.0295828 -0.0306306 -0.0315967 -0.0324809 -0.0332833 -0.0339987 -0.0346218 -0.0351527 -0.0355913 -0.0359411 -0.0362056 -0.0363846 -0.0364783 -0.0364977 -0.0364541 -0.0363475 -0.0361777 -0.035961 -0.0357133 -0.0354347 -0.0351252 -0.0348017 -0.0344813 -0.0341639 -0.0338495 -0.033552 -0.0332851 -0.0330488 -0.0328431 -0.0326754 -0.0325529 -0.0324757 -0.0324437 -0.0324561 -0.0325122 -0.0326118 -0.0327551 -0.0329333 -0.0331378 -0.0333685 -0.0336256 -0.0338946 -0.0341613 -0.0344255 -0.0346874 -0.0349303 -0.0351379 -0.0353101 -0.0354469 -0.0355337 -0.0355559 -0.0355133 -0.0354062 -0.0352251 -0.0349611 -0.034614 -0.034184 -0.0336694 -0.0330689 -0.0323824 -0.0316099 -0.0307581 -0.0298336 -0.0288365 -0.0277666 -0.0266374 -0.0254619 -0.0242403 -0.0229724 -0.0216754 -0.020366 -0.0190443 -0.0177103 -0.0163812 -0.0150741 -0.013789 -0.012526 -0.0112992 -0.0101232 -0.00899769 -0.00792287 -0.00690804 -0.00596257 -0.00508648 -0.00427974 -0.00354561 -0.00288732 -0.00230487 -0.00179825 -0.00136123 -0.00098759 -0.000677321 -0.000430423 -0.000242113 -0.000107606 -2.69014e-05 0 0 -3.88006e-05 -0.000155202 -0.000349205 -0.000620809 -0.000969683 -0.00139549 -0.00189824 -0.00247793 -0.00313834 -0.00388327 -0.00471269 -0.00562663 -0.00661751 -0.00767775 -0.00880736 -0.0100063 -0.0112608 -0.0125567 -0.0138941 -0.0152731 -0.016675 -0.018081 -0.0194913 -0.0209058 -0.0223039 -0.0236649 -0.024989 -0.026276 -0.0275073 -0.0286641 -0.0297463 -0.0307541 -0.0316746 -0.0324951 -0.0332155 -0.0338357 -0.0343522 -0.0347611 -0.0350624 -0.0352561 -0.0353486 -0.0353463 -0.0352493 -0.0350574 -0.0347861 -0.0344506 -0.0340509 -0.0335869 -0.0330795 -0.0325493 -0.0319964 -0.0314207 -0.0308436 -0.0302865 -0.0297495 -0.0292325 -0.0287527 -0.0283272 -0.0279561 -0.0276393 -0.0273858 -0.0272048 -0.0270961 -0.0270599 -0.0270949 -0.0272003 -0.027376 -0.0276219 -0.0279273 -0.0282814 -0.0286842 -0.0291357 -0.029618 -0.0301129 -0.0306207 -0.0311412 -0.0316534 -0.0321365 -0.0325905 -0.0330152 -0.0333916 -0.0337006 -0.0339421 -0.0341161 -0.0342096 -0.0342097 -0.0341163 -0.0339295 -0.0336451 -0.0332592 -0.0327717 -0.0321826 -0.0314975 -0.030722 -0.029856 -0.0288996 -0.0278662 -0.0267695 -0.0256096 -0.0243863 -0.0231181 -0.0218233 -0.020502 -0.0191542 -0.017799 -0.0164558 -0.0151246 -0.0138054 -0.0125148 -0.0112694 -0.0100693 -0.00891445 -0.00781648 -0.00678704 -0.00582613 -0.00493376 -0.00411528 -0.00337605 -0.00271608 -0.00213537 -0.00162901 -0.0011921 -0.00082463 -0.000526605 -0.000296215 -0.000131651 -3.29128e-05 0 0 -4.61973e-05 -0.000184789 -0.000415776 -0.000739157 -0.00115056 -0.0016456 -0.00222428 -0.00288661 -0.00363442 -0.00446955 -0.00539199 -0.00640176 -0.00748846 -0.00864173 -0.00986156 -0.011148 -0.0124842 -0.0138535 -0.0152559 -0.0166914 -0.0181386 -0.0195763 -0.0210043 -0.0224228 -0.0238088 -0.0251396 -0.026415 -0.0276352 -0.0287801 -0.0298297 -0.030784 -0.031643 -0.032394 -0.0330245 -0.0335343 -0.0339236 -0.0341903 -0.0343325 -0.0343503 -0.0342437 -0.0340225 -0.0336966 -0.0332661 -0.0327309 -0.0321111 -0.0314267 -0.0306777 -0.0298642 -0.0290122 -0.0281477 -0.0272707 -0.0263812 -0.0255057 -0.0246704 -0.0238755 -0.0231209 -0.0224276 -0.0218166 -0.0212877 -0.0208412 -0.0204878 -0.0202386 -0.0200936 -0.0200528 -0.0201148 -0.0202784 -0.0205434 -0.0209101 -0.021365 -0.021895 -0.0225002 -0.0231804 -0.0239136 -0.0246778 -0.0254729 -0.0262989 -0.0271298 -0.0279395 -0.0287281 -0.0294954 -0.0302173 -0.0308694 -0.0314517 -0.0319642 -0.0323894 -0.0327101 -0.0329261 -0.0330374 -0.0330371 -0.0329178 -0.0326798 -0.0323229 -0.0318512 -0.0312691 -0.0305763 -0.0297731 -0.028873 -0.0278899 -0.0268238 -0.0256747 -0.0244624 -0.0232068 -0.0219078 -0.0205655 -0.0192013 -0.0178368 -0.016472 -0.0151069 -0.0137607 -0.0124525 -0.0111825 -0.00995051 -0.00877083 -0.00765764 -0.00661095 -0.00563074 -0.00472486 -0.00390114 -0.00315956 -0.00250014 -0.0019196 -0.001