<?xml version="1.0"?> 
<VTKFile type="StructuredGrid" version="0.1"> 
<StructuredGrid WholeExtent="0 128 0 128 0 0"> 
<Piece Extent="0 128 0 128 0 0"> 
<PointData>
<DataArray type="Float32" Name="u" format="ascii" NumberOfComponents="1"> 
0 0 0 0 0 0 0 0 0 0 0 0 0 0 0 0 0 0 0 0 0 0 0 0 0 0 0 0 0 0 0 0 0 0 0 0 0 0 0 0 0 0 0 0 0 0 0 0 0 0 0 0 0 0 0 0 0 0 0 0 0 0 0 0 0 0 0 0 0 0 0 0 0 0 0 0 0 0 0 0 0 0 0 0 0 0 0 0 0 0 0 0 0 0 0 0 0 0 0 0 0 0 0 0 0 0 0 0 0 0 0 0 0 0 0 0 0 0 0 0 0 0 0 0 0 0 0 0 0 0 2.49399e-07 9.97595e-07 2.24459e-06 3.99038e-06 6.05101e-06 8.24252e-06 1.05649e-05 1.30182e-05 1.54905e-05 1.78701e-05 2.01569e-05 2.2351e-05 2.43448e-05 2.60309e-05 2.74094e-05 2.84801e-05 2.91755e-05 2.94281e-05 2.92378e-05 2.86046e-05 2.74916e-05 2.58616e-05 2.37149e-05 2.10512e-05 1.78584e-05 1.41238e-05 9.84759e-06 5.02971e-06 -3.2059e-07 -6.19406e-06 -1.25907e-05 -1.95105e-05 -2.69224e-05 -3.47952e-05 -4.3129e-05 -5.19238e-05 -6.11231e-05 -7.06705e-05 -8.05661e-05 -9.08098e-05 -0.000101316 -0.000111997 -0.000122855 -0.000133888 -0.000144981 -0.000156017 -0.000166996 -0.000177918 -0.000188645 -0.000199038 -0.000209098 -0.000218824 -0.000228076 -0.000236712 -0.000244734 -0.00025214 -0.000258816 -0.000264644 -0.000269626 -0.000273761 -0.000276985 -0.000279233 -0.000280506 -0.000280803 -0.000280128 -0.000278485 -0.000275873 -0.000272292 -0.000267813 -0.000262507 -0.000256373 -0.000249411 -0.000241743 -0.000233487 -0.000224645 -0.000215215 -0.000205341 -0.000195166 -0.000184689 -0.00017391 -0.000162968 -0.000151999 -0.000141004 -0.000129983 -0.00011905 -0.000108318 -9.77866e-05 -8.74566e-05 -7.74094e-05 -6.77268e-05 -5.84089e-05 -4.94555e-05 -4.09178e-05 -3.28468e-05 -2.52426e-05 -1.81052e-05 -1.14601e-05 -5.33287e-06 2.76553e-07 5.36813e-06 9.93769e-06 1.39811e-05 1.74982e-05 2.04892e-05 2.29701e-05 2.4957e-05 2.64499e-05 2.74488e-05 2.79922e-05 2.81184e-05 2.78275e-05 2.71195e-05 2.60603e-05 2.47156e-05 2.30855e-05 2.117e-05 1.90709e-05 1.68899e-05 1.46271e-05 1.22825e-05 9.96034e-06 7.76516e-06 5.69693e-06 3.75564e-06 2.11255e-06 9.38909e-07 2.34727e-07 0 0 9.97595e-07 3.99038e-06 8.97835e-06 1.59615e-05 2.4204e-05 3.29701e-05 4.22596e-05 5.20727e-05 6.1962e-05 7.14803e-05 8.06276e-05 8.94039e-05 9.73792e-05 0.000104124 0.000109637 0.00011392 0.000116702 0.000117712 0.000116951 0.000114418 0.000109966 0.000103447 9.48595e-05 8.4205e-05 7.14334e-05 5.64952e-05 3.93903e-05 2.01188e-05 -1.28236e-06 -2.47762e-05 -5.03628e-05 -7.80421e-05 -0.00010769 -0.000139181 -0.000172516 -0.000207695 -0.000244492 -0.000282682 -0.000322264 -0.000363239 -0.000405262 -0.000447989 -0.000491419 -0.000535553 -0.000579924 -0.000624068 -0.000667984 -0.000711673 -0.00075458 -0.000796153 -0.000836391 -0.000875295 -0.000912302 -0.000946848 -0.000978934 -0.00100856 -0.00103526 -0.00105858 -0.0010785 -0.00109504 -0.00110794 -0.00111693 -0.00112202 -0.00112321 -0.00112051 -0.00111394 -0.00110349 -0.00108917 -0.00107125 -0.00105003 -0.00102549 -0.000997646 -0.000966971 -0.000933949 -0.000898578 -0.00086086 -0.000821365 -0.000780663 -0.000738755 -0.000695641 -0.000651871 -0.000607997 -0.000564018 -0.000519934 -0.0004762 -0.000433271 -0.000391146 -0.000349826 -0.000309638 -0.000270907 -0.000233635 -0.000197822 -0.000163671 -0.000131387 -0.000100971 -7.24209e-05 -4.58405e-05 -2.13315e-05 1.10621e-06 2.14725e-05 3.97508e-05 5.59242e-05 6.99929e-05 8.19568e-05 9.18803e-05 9.98278e-05 0.000105799 0.000109795 0.000111969 0.000112474 0.00011131 0.000108478 0.000104241 9.88624e-05 9.23421e-05 8.46801e-05 7.62837e-05 6.75598e-05 5.85085e-05 4.91298e-05 3.98414e-05 3.10606e-05 2.27877e-05 1.50225e-05 8.45018e-06 3.75564e-06 9.38909e-07 0 0 2.24459e-06 8.97835e-06 2.02013e-05 3.59134e-05 5.44591e-05 7.41827e-05 9.50842e-05 0.000117164 0.000139415 0.000160831 0.000181412 0.000201159 0.000219103 0.000234278 0.000246684 0.000256321 0.00026258 0.000264853 0.00026314 0.000257441 0.000247424 0.000232755 0.000213434 0.000189461 0.000160725 0.000127114 8.86283e-05 4.52674e-05 -2.88531e-06 -5.57465e-05 -0.000113316 -0.000175595 -0.000242302 -0.000313157 -0.000388161 -0.000467314 -0.000550108 -0.000636034 -0.000725095 -0.000817288 -0.00091184 -0.00100797 -0.00110569 -0.00120499 -0.00130483 -0.00140415 -0.00150296 -0.00160126 -0.00169781 -0.00179134 -0.00188188 -0.00196941 -0.00205268 -0.00213041 -0.0022026 -0.00226926 -0.00232934 -0.0023818 -0.00242663 -0.00246385 -0.00249286 -0.0025131 -0.00252455 -0.00252723 -0.00252115 -0.00250636 -0.00248285 -0.00245063 -0.00241032 -0.00236256 -0.00230736 -0.0022447 -0.00217568 -0.00210138 -0.0020218 -0.00193694 -0.00184807 -0.00175649 -0.0016622 -0.00156519 -0.00146671 -0.00136799 -0.00126904 -0.00116985 -0.00107145 -0.00097486 -0.00088008 -0.000787109 -0.000696685 -0.000609542 -0.00052568 -0.000445099 -0.00036826 -0.000295621 -0.000227184 -0.000162947 -0.000103141 -4.79958e-05 2.48898e-06 4.83132e-05 8.94393e-05 0.00012583 0.000157484 0.000184403 0.000206731 0.000224613 0.000238049 0.000247039 0.00025193 0.000253066 0.000250448 0.000244076 0.000234543 0.00022244 0.00020777 0.00019053 0.000171638 0.00015201 0.000131644 0.000110542 8.96431e-05 6.98865e-05 5.12723e-05 3.38007e-05 1.90129e-05 8.45018e-06 2.11255e-06 0 0 3.99038e-06 1.59615e-05 3.59134e-05 6.38461e-05 9.68161e-05 0.00013188 0.000169039 0.000208291 0.000247848 0.000285921 0.000322511 0.000357616 0.000389517 0.000416495 0.00043855 0.000455681 0.000466808 0.00047085 0.000467805 0.000457674 0.000439865 0.000413786 0.000379438 0.00033682 0.000285734 0.000225981 0.000157561 8.04753e-05 -5.12943e-06 -9.91049e-05 -0.000201451 -0.000312168 -0.000430758 -0.000556724 -0.000690064 -0.00083078 -0.000977969 -0.00113073 -0.00128906 -0.00145296 -0.00162105 -0.00179195 -0.00196568 -0.00214221 -0.0023197 -0.00249627 -0.00267194 -0.00284669 -0.00301832 -0.00318461 -0.00334557 -0.00350118 -0.00364921 -0.00378739 -0.00391574 -0.00403424 -0.00414105 -0.00423431 -0.00431402 -0.00438017 -0.00443176 -0.00446773 -0.00448809 -0.00449285 -0.00448205 -0.00445576 -0.00441396 -0.00435667 -0.00428501 -0.00420011 -0.00410197 -0.00399058 -0.00386788 -0.00373579 -0.00359431 -0.00344344 -0.00328546 -0.00312265 -0.00295502 -0.00278256 -0.00260748 -0.00243199 -0.00225607 -0.00207974 -0.0019048 -0.00173308 -0.00156459 -0.00139931 -0.00123855 -0.00108363 -0.000934542 -0.000791287 -0.000654684 -0.000525549 -0.000403882 -0.000289684 -0.000183362 -8.53259e-05 4.42485e-06 8.58901e-05 0.000159003 0.000223697 0.000279972 0.000327827 0.000367521 0.000399311 0.000423198 0.000439181 0.000447875 0.000449895 0.000445241 0.000433913 0.000416964 0.00039545 0.000369368 0.000338721 0.000305135 0.000270239 0.000234034 0.000196519 0.000159365 0.000124243 9.11508e-05 6.00902e-05 3.38007e-05 1.50225e-05 3.75564e-06 0 0 6.05012e-06 2.42005e-05 5.44511e-05 9.68019e-05 0.000146731 0.000199716 0.000255757 0.000314855 0.00037428 0.000431305 0.000485929 0.000538152 0.000585367 0.000624963 0.000656941 0.000681301 0.000696412 0.000700644 0.000693996 0.000676468 0.000647185 0.000605272 0.000550728 0.000483553 0.000403479 0.000310234 0.000203819 8.42343e-05 -4.82645e-05 -0.000193421 -0.000351236 -0.00052171 -0.000704061 -0.000897513 -0.00110206 -0.00131772 -0.00154308 -0.00177679 -0.00201883 -0.00226921 -0.00252584 -0.00278662 -0.00305156 -0.00332065 -0.00359108 -0.00386003 -0.00412749 -0.00439348 -0.00465464 -0.00490762 -0.00515243 -0.00538907 -0.00561412 -0.00582419 -0.00601928 -0.00619937 -0.00636168 -0.00650339 -0.0066245 -0.00672501 -0.00680337 -0.00685801 -0.00688894 -0.00689615 -0.00687974 -0.00683977 -0.00677625 -0.00668919 -0.00658028 -0.00645124 -0.00630208 -0.00613278 -0.00594626 -0.00574543 -0.0055303 -0.00530087 -0.00506058 -0.00481289 -0.0045578 -0.00429531 -0.00402876 -0.00376147 -0.00349346 -0.00322471 -0.00295798 -0.00269602 -0.00243883 -0.00218642 -0.00194076 -0.00170385 -0.00147568 -0.00125625 -0.00104682 -0.000848643 -0.000661713 -0.000486032 -0.000322245 -0.000170995 -3.22815e-05 9.38946e-05 0.000207402 0.000308108 0.000396014 0.000471119 0.000533785 0.000584373 0.000622883 0.000649316 0.000664583 0.000669597 0.000664357 0.000648863 0.000624707 0.000593477 0.000555174 0.000509799 0.000459822 0.000407716 0.00035348 0.000297113 0.000241166 0.000188186 0.000138172 9.11258e-05 5.12583e-05 2.27815e-05 5.69536e-06 0 0 8.23896e-06 3.29558e-05 7.41506e-05 0.000131823 0.000199659 0.000271343 0.000346875 0.000426256 0.000505727 0.000581533 0.000653673 0.000722147 0.000783399 0.000833871 0.000873565 0.000902479 0.000918416 0.000919178 0.000904765 0.000875177 0.000829281 0.000765941 0.000685159 0.000586933 0.00047098 0.000337012 0.000185031 1.50361e-05 -0.00017254 -0.000377266 -0.000599141 -0.000838165 -0.00109321 -0.00136316 -0.001648 -0.00194774 -0.00226046 -0.00258425 -0.00291911 -0.00326503 -0.00361916 -0.00397866 -0.00434353 -0.00471375 -0.00508552 -0.00545501 -0.00582222 -0.00618715 -0.00654527 -0.00689204 -0.00722746 -0.00755154 -0.00785966 -0.0081472 -0.00841416 -0.00866053 -0.00888253 -0.00907633 -0.00924194 -0.00937935 -0.00948646 -0.00956114 -0.00960339 -0.00961322 -0.00959074 -0.00953605 -0.00944916 -0.00933006 -0.00918109 -0.00900455 -0.00880044 -0.00856878 -0.0083135 -0.00803856 -0.00774396 -0.0074297 -0.00710046 -0.00676093 -0.00641111 -0.00605099 -0.0056851 -0.00531795 -0.00494954 -0.00457988 -0.0042127 -0.00385173 -0.00349698 -0.00314845 -0.00280884 -0.00248087 -0.00216455 -0.00185986 -0.00156856 -0.00129238 -0.00103132 -0.000785394 -0.000555531 -0.000342675 -0.000146825 3.20178e-05 0.000193595 0.000337645 0.00046417 0.000573168 0.000665055 0.000740246 0.000798742 0.000840542 0.000866834 0.000878809 0.000876465 0.000859803 0.000830968 0.000792109 0.000743224 0.000684314 0.00061875 0.000549906 0.000477782 0.000402376 0.000327203 0.000255772 0.000188086 0.000124143 6.98302e-05 3.10356e-05 7.75891e-06 0 0 1.05569e-05 4.22276e-05 9.50121e-05 0.00016891 0.000255601 0.000346761 0.000442392 0.000542493 0.00064219 0.000736606 0.000825743 0.0009096 0.000983614 0.00104322 0.00108842 0.00111921 0.00113282 0.00112645 0.00110011 0.0010538 0.000986152 0.000895795 0.000782731 0.00064696 0.000488237 0.000306316 0.000101197 -0.000127119 -0.000377957 -0.000650639 -0.000945165 -0.00126154 -0.00159821 -0.00195366 -0.00232787 -0.00272086 -0.0031301 -0.00355311 -0.00398987 -0.0044404 -0.00490102 -0.00536809 -0.00584159 -0.00632153 -0.00680303 -0.00728123 -0.00775612 -0.00822771 -0.00869021 -0.00913787 -0.00957066 -0.00998861 -0.0103858 -0.0107564 -0.0111004 -0.0114177 -0.0117036 -0.0119531 -0.0121663 -0.0123432 -0.012481 -0.0125771 -0.0126315 -0.0126441 -0.0126151 -0.0125446 -0.0124327 -0.0122793 -0.0120874 -0.01186 -0.0115971 -0.0112986 -0.0109696 -0.0106152 -0.0102353 -0.00982994 -0.00940511 -0.00896678 -0.00851495 -0.0080496 -0.0075765 -0.00710141 -0.00662433 -0.00614526 -0.00566897 -0.00520023 -0.00473904 -0.0042854 -0.00384279 -0.00341471 -0.00300115 -0.00260211 -0.00221988 -0.00185675 -0.00151271 -0.00118777 -0.000883221 -0.000600367 -0.000339207 -9.97403e-05 0.000117582 0.000312308 0.000484439 0.000633974 0.000761331 0.000866931 0.000950773 0.00101286 0.00105463 0.00107753 0.00108156 0.00106673 0.00103575 0.000991346 0.000933517 0.000862265 0.000781919 0.000696811 0.000606941 0.000512308 0.000417475 0.000327002 0.000240891 0.00015914 8.95165e-05 3.97851e-05 9.94627e-06 0 0 1.30039e-05 5.20158e-05 0.000117035 0.000208063 0.000314556 0.000425971 0.000542308 0.000663568 0.000783668 0.000896525 0.00100214 0.00110051 0.00118601 0.00125301 0.00130151 0.00133151 0.00133962 0.00132246 0.00128004 0.00121234 0.0011178 0.000994833 0.000843445 0.000663634 0.000455251 0.000218145 -4.76823e-05 -0.000342232 -0.000664514 -0.00101354 -0.00138931 -0.00179182 -0.00221906 -0.00266901 -0.00314168 -0.00363706 -0.00415201 -0.00468337 -0.00523114 -0.00579533 -0.00637142 -0.00695488 -0.00754573 -0.00814396 -0.0087436 -0.00933868 -0.0099292 -0.0105151 -0.0110895 -0.0116451 -0.012182 -0.0127003 -0.0131926 -0.0136518 -0.0140779 -0.0144709 -0.0148249 -0.0151338 -0.0153977 -0.0156165 -0.0157871 -0.0159059 -0.0159731 -0.0159887 -0.0159527 -0.0158654 -0.0157268 -0.0155369 -0.0152993 -0.0150177 -0.014692 -0.0143222 -0.0139146 -0.0134753 -0.0130043 -0.0125016 -0.0119745 -0.0114305 -0.0108693 -0.0102911 -0.00970296 -0.00911186 -0.00851782 -0.00792085 -0.0073268 -0.00674152 -0.00616501 -0.00559727 -0.00504261 -0.00450535 -0.00398548 -0.003483 -0.0030008 -0.00254176 -0.00210588 -0.00169316 -0.00130531 -0.000944071 -0.000609426 -0.00030138 -2.0637e-05 0.000232097 0.000456821 0.000653536 0.000822615 0.000964428 0.00107898 0.00116626 0.00122796 0.00126576 0.00127966 0.00126965 0.00123905 0.00119119 0.00112605 0.00104365 0.000949328 0.00084843 0.000740956 0.000626909 0.000511983 0.000401876 0.000296588 0.000196119 0.000110317 4.90298e-05 1.22575e-05 0 0 1.54594e-05 6.18376e-05 0.000139135 0.00024735 0.000373579 0.000504915 0.000641358 0.000782908 0.000922202 0.00105188 0.00117193 0.00128237 0.00137647 0.00144752 0.00149551 0.00152045 0.00151837 0.00148531 0.00142128 0.00132628 0.00119859 0.00103649 0.000840001 0.000609109 0.000343862 4.43049e-05 -0.000289562 -0.000657739 -0.00105883 -0.00149143 -0.00195554 -0.00245116 -0.00297573 -0.0035267 -0.00410405 -0.0047078 -0.00533411 -0.00597917 -0.00664297 -0.00732551 -0.00802143 -0.00872536 -0.00943731 -0.0101573 -0.0108782 -0.011593 -0.0123018 -0.0130045 -0.0136928 -0.0143584 -0.0150012 -0.0156213 -0.0162102 -0.0167593 -0.0172687 -0.0177383 -0.0181611 -0.0185301 -0.0188453 -0.0191067 -0.0193102 -0.0194521 -0.0195323 -0.0195507 -0.0195077 -0.0194034 -0.0192377 -0.0190108 -0.0187269 -0.0183903 -0.018001 -0.0175589 -0.0170715 -0.0165461 -0.0159825 -0.0153809 -0.0147499 -0.0140981 -0.0134255 -0.0127321 -0.0120263 -0.0113163 -0.0106022 -0.00988402 -0.00916858 -0.00846284 -0.00776679 -0.00708044 -0.00640891 -0.00575734 -0.00512573 -0.00451408 -0.0039259 -0.0033647 -0.00283048 -0.00232325 -0.0018452 -0.00139856 -0.000983313 -0.000599465 -0.000248067 6.98276e-05 0.00035422 0.000605109 0.000822728 0.00100731 0.00115885 0.00127736 0.00136468 0.00142266 0.0014513 0.00145061 0.00142446 0.00137676 0.00130749 0.00121667 0.00111067 0.000995897 0.000872339 0.000739999 0.00060578 0.000476586 0.000352415 0.000233269 0.000131214 5.83172e-05 1.45793e-05 0 0 1.78026e-05 7.12103e-05 0.000160223 0.000284841 0.000429725 0.000579537 0.000734275 0.00089394 0.00104983 0.00119325 0.0013242 0.00144268 0.00154089 0.00161103 0.00165311 0.00166712 0.0016486 0.00159309 0.00150059 0.0013711 0.00120288 0.000994214 0.000745101 0.000455539 0.000125912 -0.0002434 -0.000652396 -0.00110108 -0.00158751 -0.00210975 -0.00266782 -0.0032617 -0.00388821 -0.00454419 -0.00522962 -0.00594451 -0.00668436 -0.00744466 -0.00822542 -0.00902664 -0.00984216 -0.0106658 -0.0114976 -0.0123376 -0.0131777 -0.01401 -0.0148343 -0.0156508 -0.01645 -0.0172223 -0.0179678 -0.0186865 -0.0193687 -0.0200047 -0.0205944 -0.0211379 -0.0216272 -0.0220541 -0.0224186 -0.0227208 -0.0229562 -0.0231201 -0.0232128 -0.023234 -0.0231841 -0.0230633 -0.0228716 -0.022609 -0.0222804 -0.0218907 -0.0214399 -0.0209281 -0.0203637 -0.0197548 -0.0191017 -0.0184042 -0.0176723 -0.0169158 -0.0161347 -0.015329 -0.0145082 -0.0136818 -0.0128498 -0.0120121 -0.0111767 -0.0103515 -0.0095363 -0.00873129 -0.0079423 -0.00717523 -0.0064301 -0.00570689 -0.00500976 -0.00434285 -0.00370618 -0.00309973 -0.00252628 -0.00198861 -0.0014867 -0.00102056 -0.000591715 -0.000201682 0.000149538 0.000461946 0.000735498 0.00097015 0.0011659 0.00132276 0.00144262 0.00152739 0.00157707 0.00159167 0.00157557 0.00153318 0.00146449 0.00136951 0.00125565 0.00113035 0.000993599 0.000845401 0.00069392 0.000547323 0.000405608 0.000268778 0.000151188 6.71945e-05 1.67986e-05 0 0 2.00335e-05 8.01339e-05 0.000180301 0.000320536 0.000482995 0.000649836 0.00082106 0.000996666 0.00116656 0.00132065 0.00145894 0.00158143 0.00167925 0.00174354 0.0017743 0.00177153 0.00173033 0.00164581 0.00151796 0.00134679 0.00113068 0.000867995 0.000558744 0.000202925 -0.0001986 -0.00064497 -0.00113618 -0.00167224 -0.00225055 -0.00286852 -0.00352615 -0.00422343 -0.0049565 -0.00572148 -0.00651838 -0.0073472 -0.00820275 -0.00907985 -0.00997851 -0.0108987 -0.0118336 -0.0127763 -0.0137267 -0.014685 -0.0156422 -0.0165894 -0.0175267 -0.0184541 -0.0193609 -0.0202369 -0.0210819 -0.0218959 -0.0226682 -0.023388 -0.0240552 -0.0246699 -0.025223 -0.0257055 -0.0261176 -0.026459 -0.0267249 -0.0269101 -0.0270146 -0.0270385 -0.026982 -0.0268453 -0.0266284 -0.0263314 -0.0259597 -0.0255189 -0.0250089 -0.0244298 -0.0237909 -0.0231016 -0.0223618 -0.0215715 -0.0207418 -0.0198836 -0.018997 -0.0180819 -0.0171488 -0.0162084 -0.0152605 -0.0143052 -0.0133512 -0.0124074 -0.0114735 -0.0105498 -0.00964276 -0.00875902 -0.00789857 -0.00706142 -0.00625237 -0.00547622 -0.00473296 -0.0040226 -0.00334855 -0.00271421 -0.00211958 -0.00156467 -0.00105158 -0.000582432 -0.000157223 0.000224047 0.000560922 0.000852948 0.00110012 0.00130245 0.00146178 0.00157995 0.00165697 0.00169283 0.00169238 0.00166045 0.00159705 0.00150217 0.00138426 0.00125179 0.00110474 0.000943114 0.000776402 0.000614087 0.000456169 0.000302647 0.000170239 7.56617e-05 1.89154e-05 0 0 2.21521e-05 8.86085e-05 0.000199369 0.000354434 0.000533387 0.000715813 0.000901712 0.00109108 0.00127239 0.00143408 0.00157616 0.00169862 0.00179156 0.00184505 0.00185908 0.00183366 0.00176354 0.00164345 0.00147339 0.00125337 0.000981981 0.000657836 0.000280931 -0.000148734 -0.000629673 -0.0011604 -0.00174093 -0.00237124 -0.00304797 -0.00376773 -0.00453053 -0.00533636 -0.00618059 -0.00705859 -0.00797034 -0.00891586 -0.00988928 -0.0108847 -0.0119022 -0.0129417 -0.0139957 -0.0150567 -0.0161246 -0.0171995 -0.0182716 -0.0193315 -0.020379 -0.0214143 -0.0224258 -0.0234021 -0.0243434 -0.0252495 -0.0261087 -0.0269092 -0.027651 -0.0283341 -0.0289485 -0.0294846 -0.0299422 -0.0303213 -0.0306164 -0.0308219 -0.0309378 -0.0309642 -0.0309012 -0.0307492 -0.0305082 -0.0301781 -0.0297649 -0.0292749 -0.0287079 -0.028064 -0.0273533 -0.0265862 -0.0257627 -0.0248828 -0.0239584 -0.0230016 -0.0220123 -0.0209907 -0.0199481 -0.018896 -0.0178343 -0.0167632 -0.0156921 -0.0146306 -0.0135785 -0.012536 -0.0115103 -0.0105087 -0.00953115 -0.00857768 -0.00765375 -0.0067648 -0.00591084 -0.00509187 -0.004312 -0.00357537 -0.00288196 -0.00223178 -0.00162766 -0.00107242 -0.000566065 -0.000108589 0.000299002 0.000655705 0.000961518 0.00121644 0.00142216 0.00158034 0.00169098 0.00175409 0.00177488 0.00175857 0.00170516 0.00161465 0.00149651 0.00136021 0.00120575 0.00103314 0.000853226 0.000676879 0.000504095 0.000334876 0.000188368 8.37189e-05 2.09297e-05 0 0 2.4033e-05 9.61321e-05 0.000216297 0.000384528 0.000577858 0.00077332 0.000970914 0.00117064 0.00135949 0.00152445 0.00166553 0.00178271 0.0018651 0.00190178 0.00189275 0.00183801 0.00173206 0.00156943 0.0013501 0.00107408 0.000740374 0.000347994 -0.000103061 -0.000612792 -0.0011789 -0.0017991 -0.00247337 -0.00320173 -0.00397987 -0.00480346 -0.00567251 -0.00658702 -0.00754153 -0.00853057 -0.00955415 -0.0106123 -0.0116984 -0.0128061 -0.0139353 -0.0150861 -0.0162503 -0.0174199 -0.018595 -0.0197755 -0.0209513 -0.0221121 -0.023258 -0.024389 -0.0254931 -0.026558 -0.0275839 -0.0285708 -0.029506 -0.030377 -0.0311839 -0.0319265 -0.0325944 -0.0331769 -0.0336741 -0.0340859 -0.0344064 -0.0346295 -0.0347553 -0.0347837 -0.0347151 -0.0345497 -0.0342875 -0.0339286 -0.0334793 -0.0329463 -0.0323294 -0.0316288 -0.0308555 -0.0300203 -0.0291233 -0.0281645 -0.0271567 -0.0261127 -0.0250326 -0.0239163 -0.0227759 -0.0216237 -0.0204597 -0.0192837 -0.018106 -0.0169366 -0.0157755 -0.0146227 -0.0134859 -0.0123731 -0.0112841 -0.0102191 -0.00918397 -0.0081849 -0.00722187 -0.00629487 -0.00540881 -0.00456859 -0.0037742 -0.00302566 -0.00232664 -0.00168083 -0.00108824 -0.00054887 -6.44462e-05 0.000363292 0.000734343 0.00104871 0.00130772 0.00151272 0.00166371 0.00176068 0.00180911 0.00181448 0.00177678 0.00169602 0.00158263 0.00144704 0.00128926 0.00110929 0.000919379 0.00073179 0.000546522 0.000363574 0.000204511 9.08936e-05 2.27234e-05 0 0 2.55508e-05 0.000102203 0.000229957 0.000408812 0.000613365 0.00081821 0.00102335 0.00122878 0.00142005 0.0015827 0.00171674 0.00182215 0.00188717 0.00189998 0.0018606 0.00176903 0.00161972 0.00140714 0.0011313 0.000792177 0.000389438 -7.72719e-05 -0.000607953 -0.0012026 -0.00185788 -0.00257044 -0.00334027 -0.00416739 -0.00504636 -0.00597178 -0.00694365 -0.00796195 -0.00902036 -0.0101125 -0.0112385 -0.0123982 -0.0135846 -0.0147907 -0.0160165 -0.017262 -0.0185189 -0.0197788 -0.0210417 -0.0223077 -0.0235663 -0.0248073 -0.0260305 -0.0272361 -0.0284116 -0.0295446 -0.0306351 -0.0316833 -0.0326759 -0.0336001 -0.0344559 -0.0352432 -0.0359511 -0.0365683 -0.0370951 -0.0375312 -0.0378706 -0.0381068 -0.0382398 -0.0382697 -0.0381968 -0.0380213 -0.0377432 -0.0373625 -0.036886 -0.0363206 -0.0356662 -0.0349228 -0.0341019 -0.033215 -0.0322621 -0.0312432 -0.0301715 -0.0290603 -0.0279097 -0.0267195 -0.0255025 -0.0242709 -0.0230248 -0.0217643 -0.0204996 -0.0192411 -0.0179887 -0.0167425 -0.0155106 -0.014301 -0.0131138 -0.011949 -0.0108131 -0.00971281 -0.00864809 -0.00761895 -0.00663112 -0.00569036 -0.00479667 -0.00395003 -0.00315518 -0.00241685 -0.00173502 -0.00110971 -0.000543607 -3.94184e-05 0.000402858 0.000783221 0.00110244 0.00136128 0.00155975 0.00169784 0.00178111 0.00181512 0.00179986 0.00173535 0.00163287 0.00150371 0.00134788 0.00116538 0.000969845 0.000774912 0.000580581 0.000386853 0.000217605 9.67132e-05 2.41783e-05 0 0 2.67053e-05 0.000106821 0.000240348 0.000427285 0.000639906 0.000850482 0.00105901 0.0012655 0.00145407 0.00160883 0.00172979 0.00181694 0.00185774 0.00183964 0.00176264 0.00162673 0.00142651 0.0011566 0.000816983 0.000407665 -7.08261e-05 -0.000617963 -0.00123374 -0.00191817 -0.00266661 -0.00347443 -0.00434163 -0.0052682 -0.00624746 -0.00727271 -0.00834393 -0.00946115 -0.0106171 -0.0118045 -0.0130233 -0.0142736 -0.0155478 -0.0168386 -0.0181458 -0.0194696 -0.0208015 -0.0221333 -0.0234648 -0.024796 -0.0261169 -0.0274171 -0.0286965 -0.0299554 -0.0311812 -0.0323617 -0.033497 -0.0345869 -0.0356185 -0.0365786 -0.0374671 -0.0382842 -0.0390185 -0.0396588 -0.0402051 -0.0406573 -0.041009 -0.0412537 -0.0413915 -0.0414222 -0.0413463 -0.0411639 -0.0408751 -0.0404798 -0.0399851 -0.0393978 -0.0387181 -0.0379458 -0.0370927 -0.0361706 -0.0351793 -0.0341188 -0.0330027 -0.0318443 -0.0306435 -0.0294005 -0.0281276 -0.0268374 -0.0255298 -0.0242049 -0.0228729 -0.021544 -0.0202182 -0.0188956 -0.0175843 -0.0162925 -0.0150202 -0.0137674 -0.0125412 -0.0113485 -0.0101895 -0.0090641 -0.00797895 -0.0069407 -0.00594935 -0.0050049 -0.00411329 -0.00328046 -0.00250639 -0.0017911 -0.00113848 -0.000552425 -3.29376e-05 0.000419983 0.000806309 0.00112601 0.0013791 0.00156556 0.00169086 0.00176048 0.0017744 0.00173263 0.00164722 0.00153022 0.00138162 0.00120142 0.00100462 0.000806243 0.000606272 0.000404711 0.00022765 0.000101178 2.52945e-05 0 0 2.74967e-05 0.000109987 0.00024747 0.000439947 0.000657481 0.000870136 0.00107791 0.00128081 0.00146154 0.00160283 0.00170468 0.00176708 0.00177684 0.00172076 0.00159885 0.0014111 0.00115244 0.000817793 0.00040716 -7.94581e-05 -0.000640419 -0.00127408 -0.00198044 -0.00275949 -0.00360509 -0.00451107 -0.00547743 -0.00650418 -0.00758316 -0.00870623 -0.00987338 -0.0110846 -0.0123317 -0.0136063 -0.0149086 -0.0162384 -0.0175881 -0.0189497 -0.0203233 -0.0217089 -0.0230983 -0.0244833 -0.0258641 -0.0272405 -0.0286029 -0.0299414 -0.0312561 -0.0325469 -0.033802 -0.0350095 -0.0361694 -0.0372818 -0.0383337 -0.0393123 -0.0402175 -0.0410494 -0.0417968 -0.0424483 -0.0430041 -0.043464 -0.0438216 -0.0440703 -0.0442102 -0.0442412 -0.0441636 -0.0439776 -0.0436833 -0.0432806 -0.0427765 -0.042178 -0.0414851 -0.0406979 -0.0398279 -0.0388868 -0.0378747 -0.0367915 -0.0356504 -0.0344646 -0.0332342 -0.0319591 -0.0306514 -0.0293233 -0.0279746 -0.0266055 -0.0252258 -0.0238453 -0.022464 -0.0210819 -0.0197071 -0.0183476 -0.0170034 -0.0156744 -0.0143682 -0.0130921 -0.0118461 -0.0106303 -0.00945228 -0.00831959 -0.00723226 -0.00619028 -0.00520097 -0.00427167 -0.00340236 -0.00259305 -0.00184906 -0.00117573 -0.000573043 -4.1007e-05 0.000419329 0.000806916 0.00112175 0.00136384 0.00153838 0.00165056 0.0017004 0.00168788 0.0016257 0.00152656 0.00139046 0.00121739 0.00102372 0.000825786 0.000623596 0.00041715 0.000234647 0.000104287 2.60719e-05 0 0 2.78367e-05 0.000111347 0.00025053 0.000445387 0.000663967 0.000874318 0.00107644 0.00127034 0.00143739 0.001559 0.00163515 0.00166586 0.00163745 0.00153626 0.0013623 0.00111555 0.000791526 0.00038572 -0.000101869 -0.000671239 -0.00131934 -0.00204311 -0.00284255 -0.00371767 -0.00466049 -0.00566306 -0.00672537 -0.00784742 -0.00901944 -0.0102316 -0.011484 -0.0127765 -0.0140999 -0.015445 -0.0168117 -0.0182002 -0.0196023 -0.0210101 -0.0224237 -0.023843 -0.0252604 -0.0266684 -0.0280669 -0.0294559 -0.0308267 -0.0321704 -0.0334871 -0.0347766 -0.0360282 -0.0372309 -0.0383847 -0.0394896 -0.0405334 -0.0415039 -0.0424012 -0.0432253 -0.0439652 -0.0446102 -0.0451602 -0.0456153 -0.0459689 -0.0462148 -0.046353 -0.0463833 -0.0463061 -0.0461215 -0.0458296 -0.0454303 -0.0449305 -0.0443369 -0.0436496 -0.0428686 -0.042005 -0.0410703 -0.0400643 -0.038987 -0.0378511 -0.0366689 -0.0354406 -0.0341661 -0.0328567 -0.0315234 -0.0301664 -0.0287857 -0.0273901 -0.0259888 -0.0245817 -0.0231688 -0.0217577 -0.0203559 -0.0189635 -0.0175805 -0.0162144 -0.014873 -0.0135562 -0.012264 -0.0110051 -0.00978808 -0.00861289 -0.00747956 -0.00639698 -0.00537406 -0.00441079 -0.00350718 -0.00267025 -0.00190704 -0.00121755 -0.000601786 -6.20949e-05 0.000399161 0.000781981 0.00108637 0.00131701 0.00147862 0.00157118 0.0015947 0.00156235 0.00148732 0.0013696 0.00120918 0.00102372 0.000830837 0.000630543 0.000422833 0.000237844 0.000105708 2.64271e-05 0 0 2.76371e-05 0.000110549 0.000248734 0.000442194 0.000657238 0.000860175 0.001051 0.00122973 0.00137653 0.00147161 0.00151495 0.00150657 0.00143257 0.00127905 0.00104602 0.000733476 0.000337801 -0.000144624 -0.000713799 -0.00136972 -0.00210758 -0.00292254 -0.00381461 -0.00478379 -0.00581998 -0.00691309 -0.00806311 -0.00927005 -0.0105223 -0.0118081 -0.0131277 -0.0144808 -0.0158574 -0.0172471 -0.01865 -0.020066 -0.0214872 -0.0229058 -0.0243218 -0.0257351 -0.0271392 -0.0285276 -0.0299002 -0.031257 -0.0325908 -0.0338943 -0.0351676 -0.0364107 -0.0376142 -0.0387689 -0.0398748 -0.0409319 -0.0419292 -0.0428561 -0.0437123 -0.0444981 -0.0452032 -0.0458177 -0.0463417 -0.0467749 -0.0471116 -0.0473455 -0.0474767 -0.0475052 -0.0474312 -0.0472547 -0.0469759 -0.0465947 -0.0461174 -0.0455504 -0.0448938 -0.0441475 -0.0433219 -0.0424273 -0.0414639 -0.0404315 -0.0393414 -0.0382049 -0.0370219 -0.0357924 -0.0345262 -0.0332328 -0.0319123 -0.0305647 -0.0291975 -0.0278183 -0.0264269 -0.0250236 -0.0236148 -0.0222074 -0.0208012 -0.0193962 -0.0180002 -0.0166207 -0.0152579 -0.0139116 -0.0125915 -0.0113072 -0.0100588 -0.00884616 -0.00768008 -0.00657121 -0.00551955 -0.0045251 -0.00359692 -0.00274408 -0.00196657 -0.00126439 -0.000641558 -0.00010208 0.000354044 0.000726814 0.00102013 0.00123788 0.00138008 0.00144672 0.00145124 0.00140707 0.0013142 0.00117265 0.00100121 0.000818697 0.000625102 0.000420428 0.000236491 0.000105107 2.62767e-05 0 0 2.6898e-05 0.000107592 0.000242082 0.000430368 0.000637294 0.000827705 0.0010016 0.00115898 0.00127896 0.00134066 0.00134408 0.00128922 0.0011622 0.000949131 0.000650025 0.000264877 -0.000208736 -0.000773239 -0.00142863 -0.00217491 -0.00300514 -0.00391238 -0.00489662 -0.00595786 -0.00708356 -0.00826116 -0.00949065 -0.010772 -0.0120917 -0.0134358 -0.0148045 -0.0161977 -0.0176042 -0.0190128 -0.0204233 -0.0218359 -0.023243 -0.0246369 -0.0260177 -0.0273853 -0.0287348 -0.030061 -0.031364 -0.0326437 -0.033895 -0.035113 -0.0362977 -0.037449 -0.03856 -0.0396236 -0.0406398 -0.0416087 -0.0425213 -0.0433687 -0.0441509 -0.0448678 -0.0455107 -0.0460709 -0.0465483 -0.046943 -0.0472495 -0.0474623 -0.0475814 -0.0476069 -0.0475389 -0.0473773 -0.0471222 -0.0467736 -0.0463372 -0.0458185 -0.0452177 -0.0445346 -0.0437784 -0.042958 -0.0420735 -0.0411248 -0.0401213 -0.0390723 -0.0379779 -0.0368379 -0.03566 -0.0344514 -0.0332123 -0.0319427 -0.030648 -0.0293336 -0.0279998 -0.0266463 -0.0252785 -0.0239019 -0.0225162 -0.0211216 -0.0197255 -0.0183354 -0.0169512 -0.0155729 -0.0142113 -0.0128769 -0.0115699 -0.0102901 -0.00905027 -0.00786313 -0.00672864 -0.00564682 -0.00462908 -0.00368684 -0.00282008 -0.00202882 -0.00131906 -0.000696806 -0.000162058 0.000285184 0.000647723 0.000928363 0.0011271 0.00124395 0.00129236 0.0012858 0.00122428 0.0011078 0.000956207 0.000789366 0.000607275 0.000409933 0.000230587 0.000102483 2.56208e-05 0 0 2.56193e-05 0.000102477 0.000230573 0.000409908 0.000604136 0.00077691 0.000928232 0.0010581 0.00114469 0.00116617 0.00112254 0.00101381 0.000826336 0.000546504 0.00017431 -0.000290247 -0.000848086 -0.00150013 -0.00224637 -0.00308681 -0.00401203 -0.00501262 -0.00608857 -0.00723989 -0.00845124 -0.00970727 -0.011008 -0.0123534 -0.0137276 -0.0151146 -0.0165145 -0.0179271 -0.0193404 -0.020742 -0.0221318 -0.02351 -0.0248695 -0.0262033 -0.0275113 -0.0287936 -0.0300471 -0.0312687 -0.0324583 -0.033616 -0.0347395 -0.0358266 -0.0368773 -0.0378916 -0.0388654 -0.0397948 -0.0406797 -0.0415201 -0.0423097 -0.0430419 -0.0437168 -0.0443345 -0.0448877 -0.0453697 -0.0457802 -0.0461194 -0.0463826 -0.0465652 -0.0466672 -0.0466885 -0.0466291 -0.0464891 -0.0462685 -0.0459671 -0.0455898 -0.0451412 -0.0446213 -0.04403 -0.0433746 -0.0426623 -0.0418931 -0.041067 -0.0401909 -0.0392714 -0.0383087 -0.0373027 -0.036258 -0.0351793 -0.0340665 -0.0329196 -0.0317415 -0.030535 -0.0293001 -0.0280369 -0.0267488 -0.0254394 -0.0241087 -0.0227567 -0.0213904 -0.0200169 -0.0186362 -0.0172482 -0.0158646 -0.0144973 -0.0131462 -0.0118113 -0.0105076 -0.0092498 -0.00803806 -0.00687234 -0.00576673 -0.00473532 -0.0037781 -0.00289508 -0.0020946 -0.00138502 -0.000766325 -0.000238523 0.000199799 0.000550056 0.000812246 0.00098637 0.0010857 0.00112352 0.00109983 0.00101463 0.000888698 0.000742843 0.00057706 0.000391349 0.000220134 9.78373e-05 2.44593e-05 0 0 2.37531e-05 9.50124