<?xml version="1.0"?> 
<VTKFile type="StructuredGrid" version="0.1"> 
<StructuredGrid WholeExtent="0 128 0 128 0 0"> 
<Piece Extent="0 128 0 128 0 0"> 
<PointData>
<DataArray type="Float32" Name="u" format="ascii" NumberOfComponents="1"> 
0 0 0 0 0 0 0 0 0 0 0 0 0 0 0 0 0 0 0 0 0 0 0 0 0 0 0 0 0 0 0 0 0 0 0 0 0 0 0 0 0 0 0 0 0 0 0 0 0 0 0 0 0 0 0 0 0 0 0 0 0 0 0 0 0 0 0 0 0 0 0 0 0 0 0 0 0 0 0 0 0 0 0 0 0 0 0 0 0 0 0 0 0 0 0 0 0 0 0 0 0 0 0 0 0 0 0 0 0 0 0 0 0 0 0 0 0 0 0 0 0 0 0 0 0 0 0 0 0 0 -3.001e-09 -1.2004e-08 -2.7009e-08 -4.80161e-08 -9.5635e-08 -1.90476e-07 -3.32538e-07 -5.21823e-07 -7.60586e-07 -1.05109e-06 -1.39332e-06 -1.78729e-06 -2.21129e-06 -2.64361e-06 -3.08425e-06 -3.5332e-06 -3.95073e-06 -4.29711e-06 -4.57234e-06 -4.7764e-06 -4.86783e-06 -4.8051e-06 -4.58824e-06 -4.21724e-06 -3.6667e-06 -2.91121e-06 -1.95077e-06 -7.85386e-07 5.85827e-07 2.16375e-06 3.94839e-06 5.93974e-06 8.1192e-06 1.04682e-05 1.29867e-05 1.56747e-05 1.85063e-05 2.14554e-05 2.45222e-05 2.77065e-05 3.09828e-05 3.43257e-05 3.77351e-05 4.12111e-05 4.47256e-05 4.82508e-05 5.17865e-05 5.53329e-05 5.88505e-05 6.23001e-05 6.56816e-05 6.89951e-05 7.2187e-05 7.52037e-05 7.80451e-05 8.07113e-05 8.31462e-05 8.52935e-05 8.71533e-05 8.87256e-05 8.99736e-05 9.08608e-05 9.1387e-05 9.15523e-05 9.13572e-05 9.08018e-05 8.98862e-05 8.86105e-05 8.70119e-05 8.51277e-05 8.29579e-05 8.05025e-05 7.7818e-05 7.49608e-05 7.1931e-05 6.87286e-05 6.54071e-05 6.20202e-05 5.85679e-05 5.50501e-05 5.1506e-05 4.79746e-05 4.44561e-05 4.09504e-05 3.74852e-05 3.40879e-05 3.07588e-05 2.74977e-05 2.43297e-05 2.12801e-05 1.83487e-05 1.55356e-05 1.28663e-05 1.03662e-05 8.03538e-06 5.87385e-06 3.89973e-06 2.13119e-06 5.68227e-07 -7.89168e-07 -1.94215e-06 -2.89186e-06 -3.63831e-06 -4.1815e-06 -4.5468e-06 -4.7596e-06 -4.81989e-06 -4.72766e-06 -4.52412e-06 -4.25042e-06 -3.90658e-06 -3.49259e-06 -3.04776e-06 -2.61141e-06 -2.18352e-06 -1.76412e-06 -1.37458e-06 -1.03632e-06 -7.49325e-07 -5.13608e-07 -3.26866e-07 -1.86805e-07 -9.34239e-08 -4.67226e-08 -2.62814e-08 -1.16806e-08 -2.92016e-09 0 0 -1.2004e-08 -4.80161e-08 -1.08036e-07 -1.92064e-07 -3.8254e-07 -7.61903e-07 -1.33015e-06 -2.08729e-06 -3.04235e-06 -4.20434e-06 -5.57329e-06 -7.14918e-06 -8.84517e-06 -1.05744e-05 -1.2337e-05 -1.41328e-05 -1.58029e-05 -1.71885e-05 -1.82893e-05 -1.91056e-05 -1.94713e-05 -1.92204e-05 -1.8353e-05 -1.6869e-05 -1.46668e-05 -1.16448e-05 -7.80308e-06 -3.14154e-06 2.34331e-06 8.65501e-06 1.57936e-05 2.3759e-05 3.24768e-05 4.18727e-05 5.19467e-05 6.26988e-05 7.40251e-05 8.58217e-05 9.80886e-05 0.000110826 0.000123931 0.000137303 0.000150941 0.000164844 0.000178903 0.000193003 0.000207146 0.000221331 0.000235402 0.0002492 0.000262727 0.000275981 0.000288748 0.000300815 0.00031218 0.000322845 0.000332585 0.000341174 0.000348613 0.000354902 0.000359894 0.000363443 0.000365548 0.000366209 0.000365429 0.000363207 0.000359545 0.000354442 0.000348048 0.000340511 0.000331832 0.00032201 0.000311272 0.000299843 0.000287724 0.000274914 0.000261629 0.000248081 0.000234272 0.0002202 0.000206024 0.000191899 0.000177825 0.000163802 0.000149941 0.000136352 0.000123035 0.000109991 9.7319e-05 8.51203e-05 7.33948e-05 6.21424e-05 5.1465e-05 4.14647e-05 3.21415e-05 2.34954e-05 1.55989e-05 8.52478e-06 2.27291e-06 -3.15667e-06 -7.76858e-06 -1.15674e-05 -1.45532e-05 -1.6726e-05 -1.81872e-05 -1.90384e-05 -1.92795e-05 -1.89107e-05 -1.80965e-05 -1.70017e-05 -1.56263e-05 -1.39704e-05 -1.2191e-05 -1.04456e-05 -8.7341e-06 -7.05646e-06 -5.49832e-06 -4.14526e-06 -2.9973e-06 -2.05443e-06 -1.30747e-06 -7.4722e-07 -3.73695e-07 -1.8689e-07 -1.05126e-07 -4.67226e-08 -1.16806e-08 0 0 -2.7009e-08 -1.08036e-07 -2.43081e-07 -4.32144e-07 -8.60715e-07 -1.71428e-06 -2.99285e-06 -4.69641e-06 -6.84528e-06 -9.45978e-06 -1.25399e-05 -1.60856e-05 -1.99016e-05 -2.37925e-05 -2.77582e-05 -3.17988e-05 -3.55566e-05 -3.8674e-05 -4.1151e-05 -4.29876e-05 -4.38104e-05 -4.32459e-05 -4.12942e-05 -3.79552e-05 -3.30003e-05 -2.62009e-05 -1.75569e-05 -7.06847e-06 5.27244e-06 1.94738e-05 3.55355e-05 5.34576e-05 7.30728e-05 9.42137e-05 0.00011688 0.000141072 0.000166556 0.000193099 0.000220699 0.000249358 0.000278845 0.000308931 0.000339616 0.0003709 0.000402531 0.000434257 0.000466079 0.000497996 0.000529655 0.000560701 0.000591135 0.000620956 0.000649683 0.000676833 0.000702406 0.000726402 0.000748316 0.000767641 0.00078438 0.00079853 0.000809762 0.000817747 0.000822483 0.000823971 0.000822214 0.000817216 0.000808976 0.000797495 0.000783107 0.000766149 0.000746621 0.000724523 0.000700362 0.000674648 0.000647379 0.000618558 0.000588664 0.000558182 0.000527111 0.000495451 0.000463554 0.000431772 0.000400105 0.000368554 0.000337366 0.000306791 0.000276829 0.000247479 0.000218968 0.000191521 0.000165138 0.00013982 0.000115796 9.32956e-05 7.23184e-05 5.28646e-05 3.50976e-05 1.91808e-05 5.11404e-06 -7.10251e-06 -1.74793e-05 -2.60267e-05 -3.27448e-05 -3.76335e-05 -4.09212e-05 -4.28364e-05 -4.3379e-05 -4.2549e-05 -4.0717e-05 -3.82538e-05 -3.51592e-05 -3.14333e-05 -2.74298e-05 -2.35027e-05 -1.96517e-05 -1.5877e-05 -1.23712e-05 -9.32684e-06 -6.74393e-06 -4.62247e-06 -2.9418e-06 -1.68125e-06 -8.40815e-07 -4.20503e-07 -2.36533e-07 -1.05126e-07 -2.62814e-08 0 0 -4.80161e-08 -1.92064e-07 -4.32144e-07 -7.68257e-07 -1.53016e-06 -3.04761e-06 -5.32061e-06 -8.34917e-06 -1.21694e-05 -1.68174e-05 -2.22932e-05 -2.85967e-05 -3.53807e-05 -4.22978e-05 -4.93479e-05 -5.65312e-05 -6.32117e-05 -6.87538e-05 -7.31574e-05 -7.64225e-05 -7.78852e-05 -7.68817e-05 -7.34119e-05 -6.74759e-05 -5.86672e-05 -4.65793e-05 -3.12123e-05 -1.25662e-05 9.37323e-06 3.462e-05 6.31742e-05 9.50358e-05 0.000129907 0.000167491 0.000207787 0.000250795 0.0002961 0.000343287 0.000392354 0.000443303 0.000495725 0.000549212 0.000603762 0.000659378 0.00071561 0.000772012 0.000828584 0.000885326 0.000941608 0.000996802 0.00105091 0.00110392 0.00115499 0.00120326 0.00124872 0.00129138 0.00133034 0.0013647 0.00139445 0.00141961 0.00143958 0.00145377 0.00146219 0.00146484 0.00146171 0.00145283 0.00143818 0.00141777 0.00139219 0.00136204 0.00132733 0.00128804 0.00124509 0.00119937 0.0011509 0.00109966 0.00104651 0.000992324 0.000937086 0.000880801 0.000824095 0.000767594 0.000711298 0.000655207 0.000599762 0.000545407 0.000492141 0.000439963 0.000389276 0.000340481 0.000293579 0.000248569 0.00020586 0.000165859 0.000128566 9.39815e-05 6.23957e-05 3.40991e-05 9.09164e-06 -1.26267e-05 -3.10743e-05 -4.62698e-05 -5.8213e-05 -6.6904e-05 -7.27489e-05 -7.61536e-05 -7.71182e-05 -7.56426e-05 -7.23859e-05 -6.80067e-05 -6.25052e-05 -5.58814e-05 -4.87642e-05 -4.17825e-05 -3.49364e-05 -2.82258e-05 -2.19933e-05 -1.65811e-05 -1.19892e-05 -8.21772e-06 -5.22986e-06 -2.98888e-06 -1.49478e-06 -7.47561e-07 -4.20503e-07 -1.8689e-07 -4.67226e-08 0 0 -9.51802e-08 -3.80721e-07 -8.56622e-07 -1.52288e-06 -2.8402e-06 -5.26926e-06 -8.81006e-06 -1.34626e-05 -1.92574e-05 -2.62248e-05 -3.4365e-05 -4.36778e-05 -5.36238e-05 -6.36636e-05 -7.37971e-05 -8.40244e-05 -9.33919e-05 -0.000100946 -0.000106687 -0.000110615 -0.000111759 -0.000109149 -0.000102785 -9.2666e-05 -7.82266e-05 -5.89001e-05 -3.46866e-05 -5.58617e-06 2.83814e-05 6.7196e-05 0.000110858 0.000159367 0.000212259 0.000269071 0.000329803 0.000394455 0.000462418 0.000533086 0.000606458 0.000682534 0.000760739 0.0008405 0.000921816 0.00100469 0.00108848 0.00117256 0.00125694 0.0013416 0.00142563 0.0015081 0.00158901 0.00166835 0.00174484 0.00181719 0.00188538 0.00194942 0.00200795 0.00205958 0.00210432 0.00214217 0.00217223 0.0021936 0.00220628 0.00221026 0.00220557 0.0021922 0.00217015 0.00213943 0.00210095 0.00205563 0.00200345 0.00194444 0.00187995 0.00181138 0.00173872 0.00166197 0.00158243 0.00150139 0.00141885 0.00133481 0.00125019 0.00116591 0.00108198 0.000998388 0.000915763 0.00083473 0.000755289 0.000677439 0.000601746 0.000528775 0.000458526 0.000390998 0.000326789 0.000266496 0.000210118 0.000157655 0.00010956 6.62871e-05 2.78352e-05 -5.79527e-06 -3.45913e-05 -5.85398e-05 -7.76407e-05 -9.1894e-05 -0.000101866 -0.000108123 -0.000110664 -0.000109491 -0.000105566 -9.98522e-05 -9.23505e-05 -8.30607e-05 -7.2926e-05 -6.28899e-05 -5.29523e-05 -4.31133e-05 -3.39048e-05 -2.58587e-05 -1.89751e-05 -1.3254e-05 -8.66363e-06 -5.17236e-06 -2.78018e-06 -1.48709e-06 -8.36487e-07 -3.71772e-07 -9.2943e-08 0 0 -1.88657e-07 -7.54627e-07 -1.69791e-06 -3.01851e-06 -5.24015e-06 -8.88657e-06 -1.39578e-05 -2.04538e-05 -2.83519e-05 -3.76298e-05 -4.82872e-05 -6.03243e-05 -7.29725e-05 -8.54633e-05 -9.77967e-05 -0.000109973 -0.000120721 -0.00012877 -0.00013412 -0.000136771 -0.000135497 -0.00012907 -0.000117491 -0.00010076 -7.82376e-05 -4.92832e-05 -1.38973e-05 2.792e-05 7.60325e-05 0.000130304 0.000190734 0.000257323 0.000329406 0.00040632 0.000488063 0.000574637 0.000665272 0.000759197 0.000856414 0.000956922 0.00106006 0.00116515 0.00127221 0.00138124 0.00149148 0.00160221 0.00171342 0.0018251 0.00193609 0.00204519 0.0021524 0.00225772 0.0023594 0.00245571 0.00254663 0.00263217 0.00271044 0.00277955 0.00283949 0.00289026 0.00293062 0.00295932 0.00297635 0.0029817 0.00297541 0.00295747 0.00292788 0.00288665 0.00283504 0.00277433 0.00270451 0.00262559 0.00253946 0.00244803 0.0023513 0.00224926 0.00214367 0.00203626 0.00192705 0.00181603 0.00170438 0.00159328 0.00148273 0.00137273 0.001264 0.00115729 0.00105259 0.000949905 0.000849882 0.000753176 0.000659787 0.000569716 0.000483718 0.000402548 0.000326206 0.000254693 0.000188658 0.000128752 7.49744e-05 2.73257e-05 -1.4068e-05 -4.90801e-05 -7.77108e-05 -9.99599e-05 -0.000116468 -0.000127876 -0.000134185 -0.000135393 -0.000132719 -0.000127382 -0.000119381 -0.000108717 -9.66473e-05 -8.44294e-05 -7.20636e-05 -5.95497e-05 -4.7646e-05 -3.71107e-05 -2.79437e-05 -2.01451e-05 -1.37351e-05 -8.73391e-06 -5.14159e-06 -2.95811e-06 -1.66394e-06 -7.39527e-07 -1.84882e-07 0 0 -3.28446e-07 -1.31378e-06 -2.95601e-06 -5.25513e-06 -8.73002e-06 -1.38996e-05 -2.07638e-05 -2.93226e-05 -3.94531e-05 -5.10322e-05 -6.40599e-05 -7.85362e-05 -9.34267e-05 -0.000107697 -0.000121347 -0.000134376 -0.000145198 -0.000152224 -0.000155455 -0.00015489 -0.000149097 -0.000136645 -0.000117532 -9.17593e-05 -5.87002e-05 -1.77286e-05 3.11556e-05 8.79524e-05 0.000152327 0.000223944 0.000302803 0.000388905 0.00048135 0.000579238 0.000682569 0.000791343 0.00090466 0.00102162 0.00114222 0.00126647 0.00139368 0.00152317 0.00165496 0.00178903 0.00192461 0.00206094 0.00219802 0.00233583 0.00247299 0.00260807 0.00274108 0.00287202 0.00299867 0.00311883 0.00323248 0.00333963 0.00343782 0.00352459 0.00359994 0.00366388 0.00371475 0.00375092 0.00377239 0.00377916 0.00377124 0.00374864 0.00371137 0.00365942 0.00359446 0.00351815 0.0034305 0.00333149 0.00322361 0.00310932 0.00298862 0.00286152 0.00273022 0.00259695 0.0024617 0.00232447 0.00218667 0.00204969 0.00191354 0.00177822 0.00164448 0.00151309 0.00138405 0.00125736 0.00113368 0.00101368 0.000897363 0.000784722 0.000676645 0.000574014 0.000476831 0.000385095 0.000299689 0.000221493 0.000150509 8.67361e-05 3.04957e-05 -1.78908e-05 -5.84233e-05 -9.11018e-05 -0.000116556 -0.000135415 -0.000147679 -0.000153348 -0.000153846 -0.000150596 -0.000143597 -0.000132851 -0.000119928 -0.000106401 -9.22703e-05 -7.75352e-05 -6.32171e-05 -5.0337e-05 -3.8895e-05 -2.88911e-05 -2.04442e-05 -1.36735e-05 -8.57901e-06 -5.16062e-06 -2.90285e-06 -1.29016e-06 -3.22539e-07 0 0 -5.14547e-07 -2.05819e-06 -4.63092e-06 -8.23275e-06 -1.33098e-05 -2.03082e-05 -2.9228e-05 -4.00692e-05 -5.25608e-05 -6.64321e-05 -8.16831e-05 -9.83136e-05 -0.000114986 -0.000130364 -0.000144447 -0.000157235 -0.000166824 -0.000171309 -0.000170692 -0.000164972 -0.000152561 -0.000131872 -0.000102906 -6.56624e-05 -1.96145e-05 3.57637e-05 0.000100472 0.000174511 0.000257264 0.000348115 0.000447065 0.000554113 0.000668089 0.000787824 0.000913319 0.00104457 0.00118058 0.00132035 0.00146388 0.00161117 0.0017616 0.00191456 0.00207005 0.00222806 0.00238788 0.00254877 0.00271074 0.00287379 0.00303632 0.00319674 0.00335505 0.00351126 0.00366265 0.00380654 0.00394292 0.00407179 0.00419007 0.00429471 0.00438569 0.00446301 0.00452461 0.00456841 0.00459442 0.00460263 0.00459306 0.00456572 0.00452062 0.00445775 0.00437921 0.0042871 0.00418141 0.00406215 0.0039324 0.00379525 0.0036507 0.00349875 0.0033421 0.00318344 0.00302278 0.00286013 0.00269705 0.00253515 0.00237443 0.00221487 0.0020572 0.00190213 0.00174967 0.0015998 0.00145315 0.0013103 0.00117125 0.00103602 0.00090557 0.000780896 0.000661993 0.000548863 0.000442653 0.000344512 0.000254439 0.000172436 9.90997e-05 3.50283e-05 -1.97781e-05 -6.53196e-05 -0.000102129 -0.000130738 -0.000151148 -0.000163358 -0.000168947 -0.000169494 -0.000164998 -0.000155461 -0.000142768 -0.000128805 -0.000113572 -9.70697e-05 -8.06179e-05 -6.55376e-05 -5.18289e-05 -3.94918e-05 -2.87911e-05 -1.99912e-05 -1.30924e-05 -8.09463e-06 -4.55323e-06 -2.02366e-06 -5.05914e-07 0 0 -7.49885e-07 -2.99954e-06 -6.74897e-06 -1.19982e-05 -1.90262e-05 -2.81123e-05 -3.92563e-05 -5.24584e-05 -6.72418e-05 -8.31302e-05 -0.000100123 -0.000118221 -0.000135765 -0.000151093 -0.000164206 -0.000175105 -0.000181617 -0.000181573 -0.00017497 -0.000161811 -0.000140467 -0.000109314 -6.83512e-05 -1.75782e-05 4.32888e-05 0.000114534 0.000196157 0.000288158 0.000389537 0.000499292 0.000617423 0.000743932 0.000877362 0.00101626 0.00116062 0.00131046 0.00146474 0.00162244 0.00178357 0.00194812 0.00211569 0.00228584 0.00245858 0.00263392 0.00281131 0.0029902 0.0031706 0.00335251 0.00353426 0.00371415 0.0038922 0.0040684 0.00423962 0.00440273 0.00455773 0.00470462 0.00483973 0.00495939 0.0050636 0.00515236 0.00522317 0.00527352 0.00530343 0.00531289 0.00530192 0.00527053 0.00521872 0.0051465 0.00505639 0.00495091 0.00483007 0.00469386 0.00454597 0.00439009 0.00422621 0.00405433 0.00387759 0.00369912 0.00351891 0.00333698 0.00315498 0.00297459 0.00279582 0.00261866 0.00244364 0.00227129 0.00210163 0.00193464 0.00177073 0.00161031 0.00145338 0.00129993 0.00115098 0.00100752 0.000869548 0.000737072 0.000611521 0.000494324 0.000385481 0.000284993 0.000193838 0.000112993 4.24588e-05 -1.77648e-05 -6.79725e-05 -0.000108459 -0.000139224 -0.000160269 -0.000173211 -0.000179671 -0.000179649 -0.000173145 -0.00016231 -0.000149297 -0.000134106 -0.000116737 -9.88289e-05 -8.2023e-05 -6.63188e-05 -5.17164e-05 -3.86835e-05 -2.76876e-05 -1.87286e-05 -1.18068e-05 -6.6413e-06 -2.95169e-06 -7.37922e-07 0 0 -1.03739e-06 -4.14954e-06 -9.33647e-06 -1.65982e-05 -2.5926e-05 -3.73115e-05 -5.07545e-05 -6.6255e-05 -8.30627e-05 -0.000100427 -0.000118347 -0.000136825 -0.000153874 -0.00016751 -0.000177733 -0.000184542 -0.000185599 -0.00017856 -0.000163428 -0.000140201 -0.000107396 -6.35305e-05 -8.60331e-06 5.73852e-05 0.000134279 0.000221922 0.000320314 0.000429456 0.000547837 0.000673946 0.000807783 0.000949348 0.00109691 0.00124872 0.0014048 0.00156513 0.00172881 0.00189491 0.00206345 0.00223441 0.00240779 0.00258354 0.00276168 0.00294219 0.00312494 0.00330974 0.00349662 0.00368556 0.00387496 0.00406324 0.00425039 0.0044364 0.00461785 0.00479128 0.0049567 0.00511411 0.00525931 0.00538813 0.00550056 0.0055966 0.00567337 0.00572798 0.00576043 0.00577072 0.00575887 0.00572489 0.00566878 0.00559054 0.00549309 0.00537933 0.00524927 0.00510291 0.00494445 0.00477808 0.00460381 0.00442164 0.00423501 0.00404736 0.00385869 0.003669 0.00347989 0.00329295 0.00310817 0.00292557 0.00274528 0.00256747 0.00239213 0.00221927 0.0020489 0.00188103 0.00171567 0.00155281 0.00139335 0.0012382 0.00108735 0.000940801 0.000800263 0.000667446 0.00054235 0.000424975 0.000316804 0.000219319 0.000132522 5.64111e-05 -8.87307e-06 -6.31912e-05 -0.000106543 -0.000138929 -0.00016183 -0.000176724 -0.000183614 -0.000182497 -0.000175697 -0.000165534 -0.000152008 -0.00013512 -0.000116831 -9.91035e-05 -8.19378e-05 -6.53338e-05 -5.00294e-05 -3.6763e-05 -2.55344e-05 -1.63436e-05 -9.1933e-06 -4.08591e-06 -1.02148e-06 0 0 -1.37705e-06 -5.50819e-06 -1.23934e-05 -2.20328e-05 -3.40092e-05 -4.79058e-05 -6.37224e-05 -8.14592e-05 -0.000100023 -0.000118322 -0.000136355 -0.000154123 -0.000169314 -0.000179615 -0.000185026 -0.000185547 -0.000178767 -0.000162273 -0.000136065 -0.000100143 -5.33479e-05 5.47881e-06 7.63373e-05 0.000159228 0.000253356 0.000357928 0.000472945 0.000598405 0.000732164 0.000872077 0.00101814 0.00117036 0.00132672 0.00148522 0.00164584 0.00180859 0.0019728 0.00213778 0.00230353 0.00247005 0.0026379 0.00280766 0.00297932 0.00315288 0.00332877 0.0035074 0.00368878 0.00387292 0.00405844 0.00424401 0.00442962 0.00461528 0.00479735 0.00497219 0.00513983 0.00530024 0.00544881 0.00558092 0.00569657 0.00579575 0.00587524 0.00593179 0.00596542 0.00597612 0.00596391 0.0059288 0.00587078 0.00578987 0.00568931 0.00557236 0.00543903 0.00528931 0.00512783 0.00495923 0.00478351 0.00460067 0.00441434 0.00422815 0.00404211 0.0038562 0.00367179 0.00349021 0.00331148 0.0031356 0.00296213 0.00279066 0.00262118 0.00245369 0.00228764 0.00212244 0.00195811 0.00179464 0.00163269 0.00147295 0.0013154 0.00116005 0.00100888 0.000863879 0.000725046 0.000592381 0.000467997 0.000354007 0.000250411 0.000157208 7.51696e-05 5.06538e-06 -5.31044e-05 -9.93399e-05 -0.000134802 -0.000160653 -0.000176892 -0.000183519 -0.000182928 -0.000177515 -0.000167278 -0.000152219 -0.000134624 -0.000116779 -9.8686e-05 -8.03439e-05 -6.2829e-05 -4.72176e-05 -3.35097e-05 -2.17053e-05 -1.22092e-05 -5.42632e-06 -1.35658e-06 0 0 -1.76887e-06 -7.07549e-06 -1.59199e-05 -2.8302e-05 -4.32758e-05 -5.98952e-05 -7.81602e-05 -9.80709e-05 -0.000118124 -0.000136816 -0.000154147 -0.000170118 -0.000182085 -0.000187408 -0.000186086 -0.00017812 -0.000161123 -0.000132711 -9.28814e-05 -4.16361e-05 2.16781e-05 9.77137e-05 0.000186471 0.000287949 0.000400519 0.000522552 0.000654047 0.000795005 0.00094252 0.00109369 0.0012485 0.00140697 0.00156681 0.00172574 0.00188375 0.00204084 0.00219671 0.00235103 0.0025038 0.00265502 0.00280604 0.0029582 0.00311152 0.00326598 0.0034228 0.00358317 0.0037471 0.00391459 0.00408469 0.00425646 0.00442991 0.00460502 0.00477811 0.00494547 0.00510711 0.00526302 0.00540823 0.00553776 0.00565162 0.00574979 0.00582875 0.00588495 0.0059184 0.00592909 0.00591704 0.00588226 0.00582474 0.00574449 0.00564506 0.00553001 0.00539934 0.00525305 0.00509612 0.00493354 0.00476531 0.00459144 0.0044156 0.00424152 0.00406917 0.00389858 0.00373067 0.00356639 0.00340576 0.00324875 0.00309418 0.00294085 0.00278876 0.00263791 0.00248695 0.00233455 0.00218071 0.00202542 0.001869 0.00171176 0.0015537 0.00139482 0.00123737 0.00108362 0.00093357 0.000787213 0.000647419 0.000517057 0.000396126 0.000284626 0.000184155 9.63107e-05 2.10922e-05 -4.15003e-05 -9.21291e-05 -0.000131457 -0.000159483 -0.000176208 -0.000184004 -0.000185239 -0.000179916 -0.000168034 -0.000152207 -0.00013505 -0.000116563 -9.67467e-05 -7.7082e-05 -5.90513e-05 -4.26545e-05 -2.78917e-05 -1.56891e-05 -6.97292e-06 -1.74323e-06 0 0 -2.19358e-06 -8.77434e-06 -1.97423e-05 -3.50974e-05 -5.32443e-05 -7.25878e-05 -9.31277e-05 -0.000114864 -0.000135832 -0.000154064 -0.000169561 -0.000182324 -0.000189431 -0.000187961 -0.000177915 -0.000159292 -0.000129907 -8.75719e-05 -3.22875e-05 3.59462e-05 0.000117034 0.000210882 0.00031749 0.000436857 0.000566314 0.000703191 0.000847488 0.000999205 0.0011546 0.00130994 0.00146522 0.00162045 0.00177313 0.00192081 0.00206348 0.00220114 0.00233402 0.00246232 0.00258606 0.00270523 0.00282216 0.00293918 0.0030563 0.00317351 0.00329298 0.0034169 0.00354526 0.00367806 0.00381497 0.00395566 0.00410012 0.00424836 0.00439685 0.00454204 0.00468394 0.00482256 0.00495278 0.00506951 0.00517275 0.0052625 0.00533505 0.00538673 0.00541752 0.00542744 0.00541647 0.00538464 0.00533193 0.00525836 0.00516762 0.00506341 0.00494575 0.00481462 0.00467514 0.0045324 0.00438641 0.00423717 0.0040882 0.00394305 0.0038017 0.00366418 0.0035308 0.00340191 0.00327752 0.00315761 0.00304004 0.00292264 0.00280541 0.00268836 0.00256917 0.00244552 0.00231743 0.00218488 0.00204766 0.00190556 0.00175857 0.0016067 0.00145239 0.00129811 0.00114385 0.000989611 0.000839093 0.000695994 0.000560312 0.000432047 0.000313828 0.000208283 0.000115412 3.52147e-05 -3.22336e-05 -8.68574e-05 -0.000128657 -0.000157631 -0.000175958 -0.000185814 -0.000187199 -0.000180112 -0.000167447 -0.000152095 -0.000134057 -0.000113333 -9.18615e-05 -7.15819e-05 -5.24944e-05 -3.45989e-05 -1.94619e-05 -8.64973e-06 -2.16243e-06 0 0 -2.63191e-06 -1.05276e-05 -2.36872e-05 -4.21105e-05 -6.34334e-05 -8.52915e-05 -0.000107685 -0.000130613 -0.000151613 -0.000168221 -0.000180436 -0.000188259 -0.000188594 -0.000178345 -0.000157513 -0.000126096 -8.23571e-05 -2.45563e-05 4.73064e-05 0.000133231 0.000232074 0.000342693 0.000465088 0.000599258 0.000741283 0.000887241 0.00103713 0.00119095 0.00134411 0.00149201 0.00163466 0.00177204 0.00190165 0.00202097 0.00213001 0.00222875 0.00231819 0.0023993 0.0024721 0.00253657 0.00259623 0.0026546 0.00271167 0.00276745 0.00282526 0.00288842 0.00295693 0.0030308 0.00311054 0.00319666 0.00328916 0.00338804 0.00349028 0.00359285 0.00369574 0.00379896 0.00389767 0.00398701 0.004067 0.00413762 0.00419528 0.00423639 0.00426095 0.00426896 0.00426041 0.00423532 0.00419366 0.00413545 0.00406428 0.00398374 0.00389382 0.00379453 0.00369071 0.0035872 0.003484 0.00338111 0.00328155 0.00318835 0.00310152 0.00302105 0.00294644 0.00287719 0.0028133 0.00275477 0.00269831 0.0026406 0.00258166 0.00252149 0.0024566 0.00238351 0.00230221 0.00221272 0.00211406 0.00200527 0.00188635 0.00175729 0.00162059 0.00147877 0.00133181 0.00117972 0.00102705 0.000878345 0.000733614 0.000592853 0.000459932 0.000338722 0.000229221 0.00013143 4.64606e-05 -2.45761e-05 -8.16799e-05 -0.000124851 -0.000155826 -0.000176343 -0.000186401 -0.000186001 -0.000178209 -0.000166094 -0.000149655 -0.000128894 -0.00010624 -8.41274e-05 -6.25551e-05 -4.15232e-05 -2.33568e-05 -1.03808e-05 -2.5952e-06 0 0 -3.08384e-06 -1.23354e-05 -2.77546e-05 -4.93414e-05 -7.3843e-05 -9.80064e-05 -0.000121832 -0.000145318 -0.00016547 -0.000179288 -0.000186772 -0.000187923 -0.000179575 -0.00015856 -0.000124879 -7.85317e-05 -1.84745e-05 5.63362e-05 0.0001459 0.000250218 0.000366797 0.000493146 0.000629265 0.000775153 0.000925427 0.0010747 0.00122298 0.00137025 0.00151105 0.00163991 0.00175681 0.00186176 0.00195237 0.00202622 0.00208332 0.00212366 0.00214923 0.00216198 0.00216192 0.00214905 0.00212826 0.00210446 0.00207765 0.00204782 0.00201962 0.00199773 0.00198213 0.00197282 0.0019714 0.00197947 0.00199702 0.00202406 0.00205841 0.00209789 0.0021425 0.00219224 0.0022429 0.00229027 0.00233435 0.00237515 0.00240943 0.00243393 0.00244868 0.00245366 0.00244887 0.00243429 0.00240993 0.00237577 0.00233505 0.00229098 0.00224355 0.00219278 0.00214284 0.00209794 0.00205808 0.00202326 0.00199565 0.00197744 0.00196862 0.0019692 0.00197759 0.00199223 0.00201311 0.00204023 0.00206898 0.00209474 0.00211751 0.0021373 0.00214924 0.0021485 0.00213507 0.00210895 0.00206821 0.0020109 0.00193702 0.00184658 0.00174197 0.0016256 0.00149745 0.00135753 0.00121128 0.00106411 0.000916031 0.000767043 0.000622467 0.000487626 0.000362519 0.000247146 0.000143954 5.53871e-05 -1.85533e-05 -7.78677e-05 -0.000123608 -0.000156827 -0.000177524 -0.000185699 -0.000184493 -0.000177046 -0.000163358 -0.000143428 -0.000120218 -9.66877e-05 -7.28364e-05 -4.86645e-05 -2.73738e-05 -1.21661e-05 -3.04153e-06 0 0 -3.54938e-06 -1.41975e-05 -3.19445e-05 -5.67902e-05 -8.44733e-05 -0.000110733 -0.000135568 -0.000158979 -0.0001774 -0.000187263 -0.000188569 -0.000181317 -0.000162374 -0.000128606 -8.00148e-05 -1.65989e-05 6.17412e-05 0.000155106 0.000263494 0.000386907 0.000521203 0.000662241 0.00081002 0.000964542 0.00111875 0.00126557 0.00140502 0.0015371 0.00165542 0.00175361 0.00183168 0.00188961 0.00192528 0.00193655 0.00192342 0.00188589 0.00182714 0.00175035 0.00165552 0.00154266 0.00141825 0.00128877 0.00115422 0.0010146 0.000876087 0.000744831 0.000620836 0.000504103 0.000397546 0.00030408 0.000223705 0.00015642 0.000101238 5.71703e-05 2.42177e-05 2.37993e-06 -1.15349e-05 -2.07185e-05 -2.5171e-05 -2.48922e-05 -2.25066e-05 -2.06382e-05 -1.92872e-05 -1.84534e-05 -1.81614e-05 -1.84352e-05 -1.92751e-05 -2.06809e-05 -2.00707e-05 -1.48624e-05 -5.05602e-06 9.34845e-06 3.15181e-05 6.46202e-05 0.000108655 0.000163621 0.000230508 0.000310304 0.000403008 0.000508621 0.000624256 0.000747028 0.000876937 0.00101398 0.00115206 0.00128505 0.00141295 0.00153578 0.0016471 0.00174051 0.001816 0.00187357 0.00191009 0.00192243 0.0019106 0.00187458 0.00181654 0.0017386 0.00164077 0.00152306 0.00139178 0.00125329 0.00110757 0.000954619 0.000801434 0.000654996 0.000515305 0.000382363 0.000260245 0.000153032 6.07233e-05 -1.66814e-05 -7.93039e-05 -0.000127266 -0.000160567 -0.000179208 -0.000186299 -0.000184951 -0.000175164 -0.000156937 -0.000133796 -0.000109263 -8.33385e-05 -5.60228e-05 -3.15128e-05 -1.40057e-05 -3.50143e-06 0 0 -3.99144e-06 -1.59658e-05 -3.5923e-05 -6.38631e-05 -9.44314e-05 -0.000122273 -0.000147389 -0.000169778 -0.000185316 -0.000189878 -0.000183464 -0.000166073 -0.000134784 -8.66779e-05 -2.17529e-05 5.99903e-05 0.000157401 0.000269327 0.00039577 0.000536729 0.00068613 0.000837901 0.00099204 0.00114855 0.0012986 0.00143339 0.0015529 0.00165714 0.001739 0.00179136 0.00181423 0.0018076 0.00176989 0.00169954 0.00159653 0.00146086 0.00129715 0.00111 0.000899396 0.00066535 0.000415955 0.000159309 -0.000104589 -0.000375738 -0.000646511 -0.000909282 -0.00116405 -0.00141082 -0.00164523 -0.00186295 -0.00206396 -0.00224827 -0.00241526 -0.00256432 -0.00269544 -0.00280863 -0.00290547 -0.00298755 -0.00305488 -0.00310746 -0.00314687 -0.00317469 -0.00319092 -0.00319556 -0.00318866 -0.00317024 -0.00314032 -0.00309889 -0.00304443 -0.00297544 -0.0028919 -0.00279382 -0.00267965 -0.00254783 -0.00239836 -0.00223124 -0.00204709 -0.00184652 -0.00162954 -0.00139614 -0.00115064 -0.000897348 -0.000636262 -0.000367383 -9.82684e-05 0.000163526 0.000417999 0.000665152 0.000896973 0.00110545 0.00129059 0.00145239 0.00158632 0.00168785 0.00175697 0.0017937 0.00179963 0.00177637 0.00172391 0.00164226 0.00153849 0.00141967 0.00128581 0.0011369 0.000981677 0.000828886 0.000678522 0.000530586 0.00039107 0.000265967 0.000155275 5.89963e-05 -2.17574e-05 -8.58728e-05 -0.00013335 -0.000164189 -0.000181293 -0.000187568 -0.000183012 -0.000167627 -0.000145488 -0.000120673 -9.31809e-05 -6.30127e-05 -3.54447e-05 -1.57532e-05 -3.9383e-06 0 0 -4.37292e-06 -1.74917e-05 -3.93563e-05 -6.99667e-05 -0.000102825 -0.000131433 -0.000155791 -0.000175898 -0.000187131 -0.000184862 -0.000169094 -0.000139825 -9.46016e-05 -3.09689e-05 5.1073e-05 0.000151524 0.000267615 0.000396577 0.00053841 0.000693115 0.000852418 0.00100805 0.00116001 0.00130829 0.00144237 0.00155168 0.00163624 0.00169604 0.00172359 0.00171139 0.00165944 0.00156775 0.00143571 0.00126275 0.00104886 0.000794046 0.000504525 0.000186518 -0.000159973 -0.000534948 -0.00092885 -0.00133212 -0.00174476 -0.00216676 -0.00258932 -0.00300362 -0.00340965 -0.00380743 -0.00419116 -0.00455506 -0.00489914 -0.0052234 -0.00552512 -0.00580159 -0.00605282 -0.0062788 -0.00647874 -0.00665183 -0.00679809 -0.0069175 -0.00701001 -0.00707558 -0.00711418 -0.00712584 -0.0071106 -0.00706851 -0.00699959 -0.00690383 -0.00678138 -0.00663239 -0.00645687 -0.00625481 -0.00602706 -0.00577446 -0.00549703 -0.00519475 -0.00487034 -0.00452651 -0.00416324 -0.00378056 -0.00338418 -0.00297984 -0.00256754 -0.00214728 -0.0017278 -0.00131782 -0.000917347 -0.000526374 -0.000154357 0.000189251 0.00050445 0.000791241 0.0010435 0.0012551 0.00142604 0.00155633 0.0016466 0.00169748 0.00170898 0.0016811 0.00162129 0.00153704 0.00142834 0.00129519 0.00114804 0.000997351 0.000843111 0.000685325 0.000532163 0.000391798 0.000264228 0.000149454 5.01868e-05 -3.08616e-05 -9.36914e-05 -0.000138303 -0.000167142 -0.000182654 -0.000184841 -0.000173702 -0.00015381 -0.000129737 -0.000101483 -6.90489e-05 -3.884e-05 -1.72622e-05 -4.31555e-06 0 0 -4.69381e-06 -1.87752e-05 -4.22443e-05 -7.5101e-05 -0.000109654 -0.000138211 -0.000160773 -0.000177339 -0.000182842 -0.000172216 -0.00014546 -0.000102574 -4.18253e-05 3.85205e-05 0.000138463 0.000258002 0.000392384 0.000536855 0.000691415 0.000856063 0.00102007 0.00117269 0.00131392 0.00144378 0.00155003 0.00162045 0.00165504 0.00165379 0.00160919 0.0015137 0.00136732 0.00117006 0.000922739 0.000626195 0.000280427 -0.000114567 -0.00055075 -0.00102009 -0.00152258 -0.00205823 -0.00261617 -0.00318552 -0.00376628 -0.00435847 -0.00495234 -0.00553817 -0.00611597 -0.00668572 -0.00724022 -0.00777226 -0.00828184 -0.00876896 -0.00922832 -0.00965463 -0.0100479 -0.0104081 -0.0107313 -0.0110136 -0.0112548 -0.011455 -0.0116119 -0.0117233 -0.0117891 -0.0118093 -0.011784 -0.0117132 -0.0115971 -0.0114355 -0.0112309 -0.0109857 -0.0107 -0.0103736 -0.0100107 -0.00961529 -0.00918736 -0.00872692 -0.00823926 -0.00772965 -0.0071981 -0.00664462 -0.00607634 -0.00550044 -0.0049169 -0.00432572 -0.00373655 -0.003159 -0.00259309 -0.0020388 -0.00150689 -0.0010081 -0.000542431 -0.000109884 0.000281627 0.000624192 0.000917809 0.00116248 0.00135744 0.00150195 0.00159599 0.00163957 0.00164021 0.00160541 0.00153518 0.00142951 0.00130054 0.00116039 0.00100907 0.000846578 0.000683524 0.000530526 0.000387581 0.000254691 0.000136529 3.77679e-05 -4.15918e-05 -0.00010155 -0.000143844 -0.000170211 -0.000180651 -0.000175164 -0.000158761 -0.000136455 -0.000108245 -7.41312e-05 -4.16988e-05 -1.85328e-05 -4.6332e-06 0 0 -4.95412e-06 -1.98165e-05 -4.45871e-05 -7.92659e-05 -0.000114918 -0.000142607 -0.000162335 -0.0001741 -0.000172452 -0.000151939 -0.000112562 -5.43201e-05 2.35446e-05 0.00012179 0.000240417 0.000379425 0.000531708 0.000690161 0.000854784 0.00102558 0.00118907 0.00133181 0.00145379 0.00155501 0.0016216 0.00163969 0.00160929 0.00153039 0.00139578 0.00119827 0.000937854 0.000614526 0.000230971 -0.000210131 -0.000708779 -0.00126497 -0.00186867 -0.00250983 -0.00318844 -0.0039045 -0.00464599 -0.00540089 -0.00616917 -0.00695086 -0.00773557 -0.00851295 -0.00928299 -0.0100457 -0.0107924 -0.0115146 -0.0122121 -0.0128849 -0.0135249 -0.0141235 -0.0146807 -0.0151966 -0.0156633 -0.0160727 -0.016425 -0.01672 -0.0169527 -0