<?xml version="1.0"?> 
<VTKFile type="StructuredGrid" version="0.1"> 
<StructuredGrid WholeExtent="0 128 0 128 0 0"> 
<Piece Extent="0 128 0 128 0 0"> 
<PointData>
<DataArray type="Float32" Name="u" format="ascii" NumberOfComponents="1"> 
0 0 0 0 0 0 0 0 0 0 0 0 0 0 0 0 0 0 0 0 0 0 0 0 0 0 0 0 0 0 0 0 0 0 0 0 0 0 0 0 0 0 0 0 0 0 0 0 0 0 0 0 0 0 0 0 0 0 0 0 0 0 0 0 0 0 0 0 0 0 0 0 0 0 0 0 0 0 0 0 0 0 0 0 0 0 0 0 0 0 0 0 0 0 0 0 0 0 0 0 0 0 0 0 0 0 0 0 0 0 0 0 0 0 0 0 0 0 0 0 0 0 0 0 0 0 0 0 0 0 -1.03749e-07 -4.14995e-07 -9.33738e-07 -1.65998e-06 -2.72662e-06 -4.26656e-06 -6.27981e-06 -8.76636e-06 -1.17902e-05 -1.54154e-05 -1.96418e-05 -2.44695e-05 -2.98897e-05 -3.58934e-05 -4.24807e-05 -4.96515e-05 -5.73621e-05 -6.55685e-05 -7.42708e-05 -8.34689e-05 -9.30954e-05 -0.000103083 -0.00011343 -0.000124139 -0.000135122 -0.000146295 -0.000157656 -0.000169207 -0.000180851 -0.000192496 -0.00020414 -0.000215784 -0.000227336 -0.000238707 -0.000249896 -0.000260902 -0.000271653 -0.000282075 -0.000292166 -0.000301928 -0.000311312 -0.00032027 -0.000328803 -0.000336909 -0.00034457 -0.000351766 -0.000358496 -0.000364761 -0.000370565 -0.000375912 -0.000380802 -0.000385235 -0.000389229 -0.000392803 -0.000395957 -0.00039869 -0.000401024 -0.000402978 -0.000404554 -0.00040575 -0.000406581 -0.000407059 -0.000407184 -0.000406956 -0.000406375 -0.000405441 -0.000404154 -0.000402514 -0.00040051 -0.000398128 -0.000395368 -0.000392232 -0.000388701 -0.000384758 -0.000380402 -0.000375635 -0.000370442 -0.000364814 -0.000358748 -0.000352245 -0.00034531 -0.000337946 -0.000330153 -0.000321931 -0.000313308 -0.000304312 -0.000294942 -0.0002852 -0.00027514 -0.000264815 -0.000254226 -0.000243373 -0.000232332 -0.000221179 -0.000209915 -0.00019854 -0.000187141 -0.000175808 -0.00016454 -0.000153337 -0.000142288 -0.000131478 -0.000120909 -0.000110581 -0.000100567 -9.09441e-05 -8.1711e-05 -7.2868e-05 -6.44695e-05 -5.65695e-05 -4.9168e-05 -4.22652e-05 -3.58904e-05 -3.0073e-05 -2.48129e-05 -2.01103e-05 -1.59604e-05 -1.23587e-05 -9.30513e-06 -6.79972e-06 -4.77427e-06 -3.16058e-06 -1.95867e-06 -1.16852e-06 -6.57295e-07 -2.92131e-07 -7.30328e-08 0 0 -4.14995e-07 -1.65998e-06 -3.73495e-06 -6.63992e-06 -1.09065e-05 -1.70663e-05 -2.51192e-05 -3.50654e-05 -4.71608e-05 -6.16614e-05 -7.85672e-05 -9.78781e-05 -0.000119559 -0.000143574 -0.000169923 -0.000198606 -0.000229448 -0.000262274 -0.000297083 -0.000333876 -0.000372382 -0.00041233 -0.000453721 -0.000496555 -0.000540488 -0.000585178 -0.000630624 -0.000676826 -0.000723406 -0.000769984 -0.00081656 -0.000863135 -0.000909345 -0.000954828 -0.000999582 -0.00104361 -0.00108661 -0.0011283 -0.00116866 -0.00120771 -0.00124525 -0.00128108 -0.00131521 -0.00134764 -0.00137828 -0.00140706 -0.00143398 -0.00145905 -0.00148226 -0.00150365 -0.00152321 -0.00154094 -0.00155692 -0.00157121 -0.00158383 -0.00159476 -0.00160409 -0.00161191 -0.00161821 -0.001623 -0.00162632 -0.00162823 -0.00162873 -0.00162782 -0.0016255 -0.00162176 -0.00161662 -0.00161006 -0.00160204 -0.00159251 -0.00158147 -0.00156893 -0.0015548 -0.00153903 -0.00152161 -0.00150254 -0.00148177 -0.00145925 -0.00143499 -0.00140898 -0.00138124 -0.00135178 -0.00132061 -0.00128772 -0.00125323 -0.00121725 -0.00117977 -0.0011408 -0.00110056 -0.00105926 -0.0010169 -0.000973492 -0.000929327 -0.000884717 -0.000839662 -0.00079416 -0.000748566 -0.000703233 -0.000658161 -0.00061335 -0.000569151 -0.000525913 -0.000483637 -0.000442322 -0.000402269 -0.000363776 -0.000326844 -0.000291472 -0.000257878 -0.000226278 -0.000196672 -0.000169061 -0.000143562 -0.000120292 -9.92517e-05 -8.04411e-05 -6.38416e-05 -4.94348e-05 -3.72205e-05 -2.71989e-05 -1.90971e-05 -1.26423e-05 -7.83468e-06 -4.6741e-06 -2.62918e-06 -1.16852e-06 -2.92131e-07 0 0 -9.33738e-07 -3.73495e-06 -8.40364e-06 -1.49398e-05 -2.45396e-05 -3.83991e-05 -5.65183e-05 -7.88972e-05 -0.000106112 -0.000138738 -0.000176776 -0.000220226 -0.000269007 -0.000323041 -0.000382326 -0.000446864 -0.000516258 -0.000590116 -0.000668437 -0.00075122 -0.000837858 -0.000927743 -0.00102087 -0.00111725 -0.0012161 -0.00131665 -0.0014189 -0.00152286 -0.00162766 -0.00173246 -0.00183726 -0.00194205 -0.00204603 -0.00214836 -0.00224906 -0.00234812 -0.00244488 -0.00253867 -0.0026295 -0.00271735 -0.00280181 -0.00288243 -0.00295922 -0.00303218 -0.00310113 -0.00316589 -0.00322647 -0.00328285 -0.00333509 -0.00338321 -0.00342722 -0.00346712 -0.00350307 -0.00353523 -0.00356361 -0.00358821 -0.00360921 -0.0036268 -0.00364098 -0.00365175 -0.00365923 -0.00366353 -0.00366465 -0.0036626 -0.00365737 -0.00364897 -0.00363739 -0.00362263 -0.00360459 -0.00358315 -0.00355832 -0.00353009 -0.00349831 -0.00346282 -0.00342362 -0.00338071 -0.00333398 -0.00328332 -0.00322873 -0.00317021 -0.00310779 -0.00304151 -0.00297138 -0.00289738 -0.00281977 -0.0027388 -0.00265448 -0.0025668 -0.00247626 -0.00238334 -0.00228804 -0.00219036 -0.00209099 -0.00199061 -0.00188924 -0.00178686 -0.00168427 -0.00158227 -0.00148086 -0.00138004 -0.00128059 -0.0011833 -0.00108818 -0.000995225 -0.000905105 -0.000818497 -0.000735399 -0.000655812 -0.000580225 -0.000509125 -0.000442512 -0.000380387 -0.000323014 -0.000270657 -0.000223316 -0.000180993 -0.000143644 -0.000111228 -8.37462e-05 -6.11975e-05 -4.29684e-05 -2.84453e-05 -1.7628e-05 -1.05167e-05 -5.91565e-06 -2.62918e-06 -6.57295e-07 0 0 -1.65998e-06 -6.63992e-06 -1.49398e-05 -2.65597e-05 -4.36259e-05 -6.8265e-05 -0.000100477 -0.000140262 -0.000188643 -0.000246646 -0.000314269 -0.000391513 -0.000478235 -0.000574295 -0.000679691 -0.000794424 -0.000917793 -0.0010491 -0.00118833 -0.0013355 -0.00148953 -0.00164932 -0.00181488 -0.00198622 -0.00216195 -0.00234071 -0.0025225 -0.0027073 -0.00289362 -0.00307993 -0.00326624 -0.00345254 -0.00363738 -0.00381931 -0.00399833 -0.00417444 -0.00434645 -0.00451319 -0.00467466 -0.00483085 -0.00498099 -0.00512432 -0.00526084 -0.00539055 -0.00551312 -0.00562825 -0.00573594 -0.00583618 -0.00592904 -0.0060146 -0.00609283 -0.00616376 -0.00622767 -0.00628485 -0.00633531 -0.00637904 -0.00641638 -0.00644765 -0.00647286 -0.006492 -0.00650529 -0.00651294 -0.00651494 -0.00651129 -0.00650199 -0.00648705 -0.00646646 -0.00644023 -0.00640815 -0.00637004 -0.0063259 -0.00627571 -0.00621922 -0.00615612 -0.00608644 -0.00601015 -0.00592708 -0.00583702 -0.00573997 -0.00563593 -0.00552496 -0.00540714 -0.00528245 -0.00515089 -0.00501292 -0.00486898 -0.00471908 -0.00456321 -0.00440224 -0.00423704 -0.00406762 -0.00389397 -0.00371731 -0.00353887 -0.00335865 -0.00317664 -0.00299426 -0.00281293 -0.00263264 -0.0024534 -0.0022766 -0.00210365 -0.00193455 -0.00176929 -0.00160908 -0.0014551 -0.00130738 -0.00116589 -0.00103151 -0.000905111 -0.000786689 -0.000676244 -0.000574246 -0.000481167 -0.000397007 -0.000321764 -0.000255367 -0.000197739 -0.000148882 -0.000108795 -7.63883e-05 -5.05694e-05 -3.13387e-05 -1.86964e-05 -1.05167e-05 -4.6741e-06 -1.16852e-06 0 0 -2.73033e-06 -1.09213e-05 -2.4573e-05 -4.36854e-05 -7.13171e-05 -0.000110527 -0.000161315 -0.000223682 -0.000299137 -0.000389191 -0.000493845 -0.000613097 -0.000746693 -0.000894374 -0.00105614 -0.00123199 -0.00142083 -0.00162155 -0.00183415 -0.00205864 -0.00229334 -0.00253657 -0.00278834 -0.00304864 -0.00331537 -0.00358641 -0.00386177 -0.00414145 -0.00442314 -0.00470452 -0.0049856 -0.00526637 -0.00554465 -0.00581823 -0.00608712 -0.00635131 -0.00660905 -0.00685855 -0.00709984 -0.0073329 -0.00755662 -0.00776987 -0.00797267 -0.008165 -0.00834646 -0.00851662 -0.00867549 -0.00882307 -0.00895952 -0.00908501 -0.00919955 -0.00930314 -0.00939627 -0.00947947 -0.00955272 -0.00961604 -0.00966996 -0.00971504 -0.00975129 -0.00977869 -0.00979759 -0.00980833 -0.00981092 -0.00980534 -0.0097916 -0.00976969 -0.00973961 -0.00970137 -0.00965463 -0.00959907 -0.00953469 -0.00946149 -0.00937899 -0.00928672 -0.00918468 -0.00907286 -0.00895091 -0.00881845 -0.0086755 -0.00852205 -0.00835812 -0.00818376 -0.00799895 -0.0078037 -0.00759863 -0.00738436 -0.00716089 -0.00692822 -0.00668763 -0.0064404 -0.00618653 -0.00592602 -0.00566069 -0.00539239 -0.0051211 -0.00484684 -0.00457175 -0.00429796 -0.00402548 -0.0037543 -0.00348658 -0.00322445 -0.0029679 -0.00271694 -0.00247342 -0.00223918 -0.00201421 -0.00179852 -0.00159345 -0.00140036 -0.00121924 -0.0010501 -0.000893685 -0.000750737 -0.000621258 -0.000505249 -0.000402634 -0.000313338 -0.00023736 -0.0001747 -0.00012374 -8.28621e-05 -5.20652e-05 -3.13496e-05 -1.76342e-05 -7.83741e-06 -1.95935e-06 0 0 -4.28142e-06 -1.71257e-05 -3.85328e-05 -6.85028e-05 -0.000110765 -0.000169048 -0.000243353 -0.00033368 -0.000441974 -0.000570182 -0.000718304 -0.00088634 -0.00107383 -0.00128032 -0.0015058 -0.00175027 -0.00201215 -0.00228982 -0.00258329 -0.00289256 -0.00321526 -0.00354901 -0.00389382 -0.00424968 -0.00461365 -0.00498279 -0.0053571 -0.00573658 -0.00611806 -0.00649834 -0.00687743 -0.00725534 -0.00762908 -0.00799568 -0.00835516 -0.00870749 -0.00905036 -0.00938144 -0.00970072 -0.0100082 -0.0103025 -0.0105822 -0.0108473 -0.0110978 -0.0113333 -0.0115535 -0.0117582 -0.0119475 -0.0121219 -0.0122817 -0.0124269 -0.0125575 -0.0126744 -0.0127785 -0.0128697 -0.012948 -0.0130143 -0.0130696 -0.0131137 -0.0131467 -0.0131692 -0.0131816 -0.0131839 -0.0131762 -0.0131584 -0.0131306 -0.0130926 -0.0130446 -0.0129859 -0.0129161 -0.0128352 -0.0127431 -0.0126391 -0.0125224 -0.012393 -0.0122508 -0.0120953 -0.0119257 -0.0117421 -0.0115445 -0.0113326 -0.0111065 -0.010866 -0.0106112 -0.0103428 -0.0100615 -0.00976724 -0.00946005 -0.00914158 -0.00881344 -0.00847565 -0.00812819 -0.00777352 -0.00741406 -0.00704983 -0.00668081 -0.00630993 -0.00594011 -0.00557134 -0.00520362 -0.00483991 -0.00448318 -0.00413341 -0.00379062 -0.00345738 -0.00313628 -0.00282733 -0.00253051 -0.00224775 -0.00198099 -0.00173022 -0.00149544 -0.00127776 -0.00107828 -0.000897006 -0.000733939 -0.000589071 -0.000462395 -0.000353911 -0.000263619 -0.000189409 -0.000129171 -8.29057e-05 -5.0613e-05 -2.84698e-05 -1.26532e-05 -3.16331e-06 0 0 -6.31324e-06 -2.5253e-05 -5.68192e-05 -0.000101012 -0.000161969 -0.000243829 -0.000346591 -0.000470256 -0.000617155 -0.000789618 -0.000987647 -0.00121124 -0.00145965 -0.00173212 -0.00202866 -0.00234927 -0.00269174 -0.0030539 -0.00343574 -0.00383726 -0.00425528 -0.00468663 -0.00513132 -0.00558933 -0.0060568 -0.00652985 -0.00700848 -0.0074927 -0.00797838 -0.00846139 -0.00894174 -0.00941943 -0.00989066 -0.0103517 -0.0108024 -0.011243 -0.0116704 -0.0120819 -0.0124773 -0.0128568 -0.0132186 -0.0135613 -0.0138847 -0.014189 -0.0144738 -0.0147388 -0.0149841 -0.0152096 -0.0154162 -0.0156046 -0.0157748 -0.0159269 -0.0160621 -0.0161818 -0.0162861 -0.0163749 -0.0164495 -0.0165113 -0.0165601 -0.0165962 -0.0166201 -0.0166327 -0.0166339 -0.0166239 -0.0166025 -0.0165696 -0.0165254 -0.0164698 -0.016402 -0.0163212 -0.0162274 -0.0161206 -0.0159996 -0.0158631 -0.0157113 -0.0155441 -0.0153603 -0.0151589 -0.0149399 -0.0147032 -0.0144485 -0.0141753 -0.0138836 -0.0135735 -0.0132455 -0.0129004 -0.0125381 -0.0121587 -0.0117641 -0.0113562 -0.010935 -0.0105005 -0.0100558 -0.0096039 -0.00914482 -0.00867855 -0.00820882 -0.00773938 -0.00727022 -0.00680134 -0.0063366 -0.00587985 -0.00543109 -0.00499032 -0.00456096 -0.00414643 -0.00374673 -0.00336186 -0.00299442 -0.00264701 -0.00231962 -0.00201225 -0.00172646 -0.00146379 -0.00122425 -0.00100783 -0.000814678 -0.000644911 -0.000498536 -0.000375551 -0.000273393 -0.000189496 -0.00012386 -7.64864e-05 -4.30236e-05 -1.91216e-05 -4.7804e-06 0 0 -8.8258e-06 -3.53032e-05 -7.94322e-05 -0.000141213 -0.00022493 -0.000334869 -0.000471029 -0.000633411 -0.000824679 -0.0010475 -0.00130187 -0.0015878 -0.00190415 -0.00224979 -0.00262473 -0.00302897 -0.00345962 -0.0039138 -0.0043915 -0.00489273 -0.00541341 -0.00594944 -0.00650084 -0.0070676 -0.00764482 -0.00822759 -0.00881592 -0.00940981 -0.0100041 -0.0105937 -0.0111785 -0.0117586 -0.0123294 -0.0128862 -0.013429 -0.0139578 -0.0144692 -0.0149598 -0.0154296 -0.0158786 -0.016305 -0.0167071 -0.017085 -0.0174385 -0.0177678 -0.0180726 -0.0183531 -0.0186093 -0.0188424 -0.0190537 -0.0192433 -0.0194112 -0.0195593 -0.0196896 -0.0198021 -0.0198967 -0.0199755 -0.0200401 -0.0200906 -0.0201269 -0.0201503 -0.0201616 -0.020161 -0.0201484 -0.0201237 -0.020087 -0.0200381 -0.0199771 -0.0199028 -0.0198142 -0.0197112 -0.0195939 -0.0194604 -0.019309 -0.0191397 -0.0189526 -0.0187458 -0.0185179 -0.0182687 -0.0179983 -0.0177057 -0.0173903 -0.0170518 -0.0166905 -0.0163067 -0.015901 -0.0154735 -0.0150242 -0.0145551 -0.0140686 -0.0135645 -0.0130429 -0.0125075 -0.0119619 -0.0114061 -0.01084 -0.0102684 -0.00969578 -0.00912213 -0.00854748 -0.00797664 -0.00741446 -0.00686092 -0.00631604 -0.00578415 -0.00526961 -0.00477242 -0.00429258 -0.00383346 -0.00339841 -0.00298743 -0.00260054 -0.00223979 -0.00190728 -0.00160299 -0.00132694 -0.00107945 -0.000860886 -0.000671234 -0.000510498 -0.000375693 -0.000263837 -0.000174929 -0.00010897 -6.12956e-05 -2.72425e-05 -6.81062e-06 0 0 -1.18796e-05 -4.75183e-05 -0.000106916 -0.000190073 -0.00030107 -0.000443986 -0.000618823 -0.000825579 -0.00106714 -0.00134638 -0.00166331 -0.00201792 -0.00240858 -0.00283362 -0.00329306 -0.00378688 -0.0043114 -0.0048629 -0.00544137 -0.00604684 -0.00667417 -0.00731827 -0.00797914 -0.00865677 -0.00934514 -0.0100382 -0.010736 -0.0114385 -0.0121395 -0.0128329 -0.0135185 -0.0141963 -0.0148611 -0.0155072 -0.0161346 -0.0167434 -0.0173297 -0.0178897 -0.0184232 -0.0189305 -0.0194096 -0.0198589 -0.0202783 -0.0206679 -0.0210281 -0.0213592 -0.0216614 -0.0219345 -0.0221806 -0.0224018 -0.022598 -0.0227694 -0.0229186 -0.0230484 -0.0231589 -0.0232501 -0.0233245 -0.0233846 -0.0234305 -0.0234621 -0.023481 -0.0234884 -0.0234844 -0.0234691 -0.0234423 -0.023404 -0.023354 -0.0232924 -0.0232177 -0.0231283 -0.0230241 -0.0229052 -0.0227691 -0.0226134 -0.0224379 -0.0222429 -0.0220257 -0.0217839 -0.0215176 -0.0212266 -0.0209096 -0.020565 -0.0201929 -0.0197932 -0.0193662 -0.0189121 -0.0184309 -0.0179226 -0.0173895 -0.0168339 -0.0162559 -0.0156554 -0.0150366 -0.0144037 -0.0137567 -0.0130956 -0.0124259 -0.011753 -0.011077 -0.0103979 -0.00972147 -0.00905362 -0.00839435 -0.00774365 -0.00710691 -0.0064895 -0.00589142 -0.00531267 -0.00475749 -0.00423013 -0.00373057 -0.00325883 -0.00281763 -0.00240967 -0.00203496 -0.0016935 -0.00138597 -0.00111303 -0.000874685 -0.000670938 -0.000498481 -0.000354009 -0.000237522 -0.00014902 -8.38237e-05 -3.7255e-05 -9.31374e-06 0 0 -1.55351e-05 -6.21404e-05 -0.000139816 -0.000248561 -0.000391812 -0.000573001 -0.00079213 -0.0010492 -0.00134712 -0.00168882 -0.00207429 -0.00250353 -0.00297419 -0.0034839 -0.00403267 -0.0046205 -0.0052427 -0.00589458 -0.00657616 -0.00728742 -0.00802211 -0.00877395 -0.00954296 -0.0103291 -0.0111252 -0.011924 -0.0127254 -0.0135295 -0.014329 -0.0151166 -0.0158922 -0.0166559 -0.0174014 -0.0181225 -0.0188192 -0.0194914 -0.0201351 -0.0207459 -0.021324 -0.0218693 -0.0223803 -0.0228555 -0.0232949 -0.0236985 -0.0240675 -0.0244029 -0.0247048 -0.0249731 -0.0252109 -0.0254214 -0.0256045 -0.0257602 -0.0258924 -0.026005 -0.0260981 -0.0261716 -0.0262289 -0.0262736 -0.0263055 -0.0263248 -0.0263333 -0.0263329 -0.0263237 -0.0263056 -0.0262784 -0.0262421 -0.0261966 -0.0261419 -0.0260758 -0.0259963 -0.0259033 -0.0257968 -0.0256734 -0.0255298 -0.0253658 -0.0251816 -0.0249735 -0.0247381 -0.0244754 -0.0241853 -0.0238654 -0.0235134 -0.0231291 -0.0227127 -0.0222638 -0.0217821 -0.0212675 -0.02072 -0.020142 -0.0195356 -0.0189008 -0.0182376 -0.0175507 -0.0168447 -0.0161196 -0.0153754 -0.0146184 -0.0138549 -0.0130849 -0.0123085 -0.0115325 -0.010764 -0.0100028 -0.00924905 -0.0085092 -0.00778977 -0.00709074 -0.00641212 -0.00575915 -0.00513709 -0.00454593 -0.00398568 -0.00345983 -0.0029719 -0.00252189 -0.00210979 -0.00173679 -0.00140404 -0.00111156 -0.00085935 -0.000643929 -0.000461828 -0.00031305 -0.000197593 -0.000111146 -4.93981e-05 -1.23495e-05 0 0 -1.97923e-05 -7.91693e-05 -0.000178131 -0.000316677 -0.000497155 -0.000721913 -0.000990949 -0.00130426 -0.00166463 -0.00207481 -0.00253481 -0.00304462 -0.00360099 -0.00420064 -0.00484359 -0.00552982 -0.00625352 -0.00700886 -0.00779585 -0.00861449 -0.00945722 -0.0103165 -0.0111923 -0.0120846 -0.012985 -0.0138848 -0.014784 -0.0156827 -0.0165725 -0.0174448 -0.0182997 -0.0191373 -0.0199504 -0.0207323 -0.0214827 -0.0222018 -0.0228852 -0.0235285 -0.0241318 -0.024695 -0.0252171 -0.0256971 -0.0261348 -0.0265305 -0.026886 -0.0272036 -0.0274834 -0.0277251 -0.0279334 -0.0281126 -0.0282627 -0.0283837 -0.0284808 -0.0285595 -0.0286196 -0.0286612 -0.0286888 -0.0287069 -0.0287156 -0.0287149 -0.0287073 -0.0286952 -0.0286786 -0.0286576 -0.028632 -0.0286014 -0.0285659 -0.0285254 -0.0284772 -0.0284183 -0.0283488 -0.0282687 -0.0281734 -0.0280582 -0.0279234 -0.0277687 -0.0275894 -0.0273805 -0.0271421 -0.0268742 -0.0265731 -0.0262353 -0.0258606 -0.0254491 -0.0249996 -0.024511 -0.0239834 -0.0234166 -0.0228126 -0.0221735 -0.0214992 -0.0207898 -0.0200501 -0.0192852 -0.018495 -0.0176795 -0.0168459 -0.0160014 -0.0151458 -0.0142793 -0.0134098 -0.0125455 -0.0116863 -0.0108322 -0.00999102 -0.00917041 -0.00837038 -0.00759092 -0.00683844 -0.0061193 -0.00543351 -0.00478107 -0.00416641 -0.00359399 -0.00306379 -0.00257581 -0.00213191 -0.00173393 -0.00138188 -0.00107574 -0.000812035 -0.000587294 -0.000401512 -0.000254688 -0.000143262 -6.3672e-05 -1.5918e-05 0 0 -2.46513e-05 -9.86052e-05 -0.000221862 -0.000394421 -0.000617101 -0.000890721 -0.00121528 -0.00159078 -0.00201966 -0.00250435 -0.00304486 -0.00364119 -0.00428897 -0.00498384 -0.00572579 -0.00651484 -0.00734386 -0.00820573 -0.00910046 -0.010028 -0.0109795 -0.0119459 -0.0129272 -0.0139233 -0.0149245 -0.0159207 -0.0169119 -0.0178982 -0.01887 -0.0198176 -0.0207411 -0.0216405 -0.0225082 -0.0233364 -0.0241252 -0.0248745 -0.0255801 -0.0262375 -0.0268467 -0.0274077 -0.0279201 -0.0283836 -0.0287981 -0.0291637 -0.0294836 -0.0297615 -0.0299971 -0.0301906 -0.030348 -0.0304753 -0.0305726 -0.0306398 -0.0306838 -0.0307117 -0.0307234 -0.0307188 -0.030704 -0.0306846 -0.0306608 -0.0306325 -0.0306029 -0.0305752 -0.0305494 -0.0305254 -0.030503 -0.0304818 -0.0304618 -0.0304431 -0.0304218 -0.0303943 -0.0303607 -0.0303209 -0.0302689 -0.0301988 -0.0301105 -0.0300042 -0.0298732 -0.0297111 -0.0295178 -0.0292935 -0.0290328 -0.0287307 -0.0283872 -0.0280022 -0.0275735 -0.027099 -0.0265785 -0.0260121 -0.0254014 -0.0247477 -0.0240512 -0.0233117 -0.0225346 -0.0217249 -0.0208827 -0.0200079 -0.0191085 -0.0181925 -0.0172597 -0.0163102 -0.0153533 -0.0143981 -0.0134448 -0.0124932 -0.0115524 -0.0106314 -0.00973034 -0.00884909 -0.00799535 -0.00717676 -0.00639331 -0.005645 -0.00493737 -0.00427591 -0.00366064 -0.00309156 -0.00257135 -0.0021027 -0.00168562 -0.00132009 -0.0010028 -0.000730406 -0.000502908 -0.000320306 -0.000180172 -8.00766e-05 -2.00191e-05 0 0 -3.00857e-05 -0.000120343 -0.000270771 -0.000481371 -0.000750964 -0.00107837 -0.00146359 -0.00190663 -0.00240936 -0.00297364 -0.00359949 -0.00428689 -0.00503016 -0.00582359 -0.00666717 -0.00756092 -0.00849622 -0.00946447 -0.0104657 -0.0114998 -0.0125564 -0.0136249 -0.0147052 -0.0157974 -0.0168901 -0.0179718 -0.0190426 -0.0201024 -0.0211406 -0.0221464 -0.0231198 -0.0240608 -0.0249611 -0.0258126 -0.0266153 -0.027369 -0.0280697 -0.0287131 -0.0292992 -0.0298281 -0.0303003 -0.0307163 -0.0310763 -0.0313801 -0.0316328 -0.0318396 -0.0320002 -0.0321149 -0.0321916 -0.0322383 -0.0322552 -0.0322422 -0.0322083 -0.0321623 -0.0321042 -0.0320342 -0.0319595 -0.0318877 -0.0318187 -0.0317525 -0.0316932 -0.0316447 -0.031607 -0.03158 -0.0315635 -0.0315568 -0.0315601 -0.0315732 -0.0315915 -0.0316103 -0.0316296 -0.0316493 -0.0316619 -0.0316596 -0.0316425 -0.0316106 -0.0315554 -0.0314684 -0.0313495 -0.0311988 -0.0310093 -0.0307738 -0.0304925 -0.0301652 -0.0297884 -0.0293584 -0.0288751 -0.0283387 -0.0277497 -0.0271092 -0.0264169 -0.0256731 -0.0248828 -0.0240512 -0.0231785 -0.0222645 -0.021318 -0.0203475 -0.0193531 -0.0183348 -0.017303 -0.0162682 -0.0152303 -0.0141893 -0.0131557 -0.0121399 -0.011142 -0.0101619 -0.00920878 -0.00829157 -0.00741033 -0.00656503 -0.00576248 -0.00500943 -0.0043059 -0.00365187 -0.00305111 -0.00250735 -0.00202059 -0.00159084 -0.00121511 -0.000890417 -0.000616771 -0.000394166 -0.000221719 -9.85416e-05 -2.46354e-05 0 0 -3.60693e-05 -0.000144277 -0.000324624 -0.000577108 -0.000898061 -0.00128381 -0.00173436 -0.0022497 -0.00283086 -0.00347886 -0.00419371 -0.00497539 -0.00581659 -0.00671 -0.0076556 -0.0086534 -0.00969309 -0.0107644 -0.0118672 -0.0130017 -0.0141554 -0.0153162 -0.0164841 -0.017659 -0.0188281 -0.0199782 -0.0211095 -0.0222219 -0.0233036 -0.0243427 -0.0253393 -0.0262932 -0.027196 -0.0280388 -0.0288217 -0.0295446 -0.0302039 -0.0307958 -0.0313202 -0.0317772 -0.0321687 -0.0324966 -0.0327609 -0.0329617 -0.033106 -0.0332011 -0.0332468 -0.0332432 -0.0332008 -0.0331303 -0.0330316 -0.0329047 -0.0327609 -0.0326117 -0.032457 -0.0322968 -0.0321404 -0.0319971 -0.031867 -0.0317501 -0.0316512 -0.0315753 -0.0315225 -0.0314927 -0.0314853 -0.0314998 -0.0315361 -0.0315942 -0.0316682 -0.0317522 -0.0318461 -0.03195 -0.0320543 -0.0321491 -0.0322345 -0.0323106 -0.0323663 -0.0323908 -0.0323841 -0.0323461 -0.0322675 -0.0321388 -0.0319601 -0.0317314 -0.0314472 -0.0311019 -0.0306955 -0.0302281 -0.0296993 -0.029109 -0.0284569 -0.0277433 -0.0269731 -0.0261514 -0.0252781 -0.0243532 -0.0233861 -0.0223859 -0.0213528 -0.0202866 -0.0191991 -0.0181018 -0.0169947 -0.015878 -0.0147634 -0.013663 -0.0125768 -0.0115048 -0.0104576 -0.00944587 -0.00846956 -0.0075287 -0.00663153 -0.00578629 -0.00499298 -0.0042516 -0.00356721 -0.00294488 -0.0023846 -0.00188637 -0.00144782 -0.00106658 -0.000742631 -0.000475987 -0.000267743 -0.000118997 -2.97492e-05 0 0 -4.2602e-05 -0.000170408 -0.000383418 -0.000681632 -0.00105839 -0.00150704 -0.00202757 -0.00261998 -0.00328417 -0.00402001 -0.00482752 -0.00570668 -0.00664827 -0.00764307 -0.00869108 -0.0097923 -0.0109345 -0.0121054 -0.0133051 -0.0145335 -0.0157765 -0.01702 -0.0182639 -0.0195082 -0.0207385 -0.0219399 -0.0231127 -0.0242567 -0.025359 -0.0264066 -0.0273996 -0.0283379 -0.0292126 -0.0300148 -0.0307444 -0.0314014 -0.0319828 -0.0324855 -0.0329095 -0.0332549 -0.0335253 -0.0337244 -0.0338521 -0.0339085 -0.0339032 -0.033846 -0.0337368 -0.0335755 -0.0333759 -0.0331512 -0.0329017 -0.0326271 -0.0323418 -0.03206 -0.0317816 -0.0315066 -0.0312466 -0.0310129 -0.0308058 -0.030625 -0.0304768 -0.0303671 -0.0302959 -0.0302633 -0.0302685 -0.0303107 -0.0303899 -0.030506 -0.0306519 -0.03082 -0.0310104 -0.0312231 -0.0314461 -0.0316672 -0.0318865 -0.032104 -0.0323059 -0.0324785 -0.0326216 -0.0327353 -0.0328074 -0.0328257 -0.0327901 -0.0327008 -0.0325498 -0.0323294 -0.0320396 -0.0316804 -0.0312501 -0.030747 -0.0301711 -0.0295225 -0.0288057 -0.0280253 -0.0271814 -0.026274 -0.0253128 -0.0243077 -0.0232586 -0.0221656 -0.0210414 -0.0198989 -0.0187382 -0.0175592 -0.0163755 -0.0152007 -0.0140347 -0.0128777 -0.0117419 -0.0106396 -0.00957102 -0.00853601 -0.00754453 -0.00660649 -0.00572189 -0.00489074 -0.00411966 -0.0034153 -0.00277765 -0.00220671 -0.00170096 -0.00125889 -0.00088049 -0.000565769 -0.000318245 -0.000141442 -3.53605e-05 0 0 -4.96839e-05 -0.000198736 -0.000447155 -0.000794942 -0.00123195 -0.00174805 -0.00234322 -0.00301748 -0.00376928 -0.00459709 -0.00550092 -0.00648075 -0.00752518 -0.0086228 -0.00977361 -0.0109776 -0.0122204 -0.0134876 -0.0147793 -0.0160953 -0.0174197 -0.018736 -0.0200445 -0.021345 -0.0226213 -0.0238569 -0.0250521 -0.0262067 -0.0273066 -0.028338 -0.0293007 -0.0301948 -0.0310112 -0.0317407 -0.0323834 -0.0329392 -0.0334062 -0.0337822 -0.0340672 -0.0342613 -0.0343702 -0.0343997 -0.0343498 -0.0342205 -0.0340244 -0.0337743 -0.0334702 -0.033112 -0.0327166 -0.0323011 -0.0318655 -0.0314096 -0.030951 -0.0305072 -0.0300781 -0.0296637 -0.029278 -0.0289351 -0.0286349 -0.0283774 -0.02817 -0.02802 -0.0279273 -0.027892 -0.0279131 -0.0279896 -0.0281215 -0.0283088 -0.0285425 -0.0288137 -0.0291224 -0.0294685 -0.0298373 -0.030214 -0.0305986 -0.030991 -0.0313743 -0.0317313 -0.032062 -0.0323664 -0.032629 -0.0328343 -0.0329824 -0.0330732 -0.0330962 -0.033041 -0.0329074 -0.0326956 -0.0324021 -0.0320234 -0.0315596 -0.0310105 -0.0303804 -0.029673 -0.0288885 -0.0280269 -0.0270982 -0.0261128 -0.0250706 -0.0239716 -0.02283 -0.0216596 -0.0204606 -0.019233 -0.017992 -0.0167529 -0.0155158 -0.0142805 -0.0130615 -0.0118729 -0.0107147 -0.00958696 -0.00850146 -0.00747002 -0.00649263 -0.00556929 -0.00470846 -0.0039186 -0.00319973 -0.00255184 -0.00197451 -0.00146735 -0.00103035 -0.000663511 -0.000373225 -0.000165878 -4.14694e-05 0 0 -5.72392e-05 -0.000228957 -0.000515153 -0.000915827 -0.00141687 -0.00200418 -0.00267774 -0.00343757 -0.00428039 -0.00520293 -0.0062052 -0.0072872 -0.00843501 -0.00963474 -0.0108864 -0.0121899 -0.0135286 -0.0148856 -0.016261 -0.0176548 -0.0190486 -0.0204239 -0.0217808 -0.0231193 -0.0244213 -0.0256687 -0.0268614 -0.0279995 -0.0290679 -0.0300516 -0.0309504 -0.0317645 -0.0324848 -0.0331021 -0.0336166 -0.0340281 -0.034336 -0.0345395 -0.0346386 -0.0346332 -0.0345318 -0.0343427 -0.0340658 -0.0337012 -0.033265 -0.0327735 -0.0322267 -0.0316245 -0.030988 -0.0303378 -0.0296742 -0.0289971 -0.0283276 -0.027687 -0.0270752 -0.0264924 -0.0259553 -0.0254807 -0.0250687 -0.0247192 -0.0244411 -0.0242431 -0.0241252 -0.0240873 -0.0241284 -0.024247 -0.0244433 -0.0247173 -0.0250581 -0.0254548 -0.0259076 -0.0264163 -0.026963 -0.02753 -0.0281171 -0.0287244 -0.0293309 -0.0299158 -0.0304791 -0.0310208 -0.0315215 -0.031962 -0.0323423 -0.0326623 -0.0329083 -0.0330667 -0.0331374 -0.0331205 -0.0330103 -0.0328013 -0.0324934 -0.0320866 -0.0315841 -0.0309889 -0.030301 -0.0295205 -0.0286577 -0.0277232 -0.026717 -0.025639 -0.0245046 -0.0233291 -0.0221124 -0.0208545 -0.0195725 -0.0182835 -0.0169876 -0.0156847 -0.0143911 -0.0131232 -0.011881 -0.0106646 -0.00948767 -0.00836433 -0.00729452 -0.00627826 -0.00532611 -0.00444865 -0.00364589 -0.00291783 -0.00226543 -0.0016897 -0.00119062 -0.000768194 -0.000432109 -0.000192048 -4.80121e-05 0 0 -6.51921e-05 -0.000260768 -0.000586729 -0.00104307 -0.00161126 -0.00227275 -0.00302753 -0.00387562 -0.00481167 -0.00583035 -0.00693166 -0.0081156 -0.00936543 -0.0106644 -0.0120125 -0.0134098 -0.0148368 -0.0162741 -0.0177217 -0.0191795 -0.0206269 -0.022043 -0.0234278 -0.0247813 -0.0260835 -0.0273145 -0.0284743 -0.0295628 -0.0305641 -0.031462 -0.0322565 -0.0329477 -0.0335267 -0.0339848 -0.0343219 -0.034538 -0.0346341 -0.034611 -0.0344689 -0.0342076 -0.0338387 -0.0333734 -0.0328119 -0.0321541 -0.0314204 -0.030631 -0.029786 -0.0288854 -0.0279546 -0.0270192 -0.0260792 -0.0251345 -0.0242106 -0.0233331 -0.0225019 -0.021717 -0.0209986 -0.0203667 -0.0198212 -0.0193623 -0.0190003 -0.0187456 -0.0185982 -0.018558 -0.0186237 -0.0187937 -0.0190679 -0.0194465 -0.0199164 -0.0204647 -0.0210914 -0.0217964 -0.0225584 -0.0233558 -0.0241886 -0.0250569 -0.0259353 -0.0267987 -0.0276469 -0.02848 -0.0292743 -0.0300059 -0.030675 -0.0312815 -0.031808 -0.0322368 -0.0325681 -0.0328019 -0.0329298 -0.0329438 -0.0328437 -0.0326297 -0.0323035 -0.0318671 -0.0313203 -0.0306633 -0.0299066 -0.0290608 -0.0281259 -0.0271019 -0.0260053 -0.0248525 -0.0236436 -0.0223786 -0.0210764 -0.0197562 -0.0184178 -0.0170613 -0.0157053 -0.0143684 -0.0130505 -0.0117518 -0.0104885 -0.00927684 -0.00811691 -0.00700867 -0.00596513 -0.0049993 -0.00411117 -0.00330074 -0.00257069 -0.00192368 -0.00135972 -0.000878797 -0.000494324 -0.000219699 -5.49248e-05 0 0 -7.35427e-05 -0.000294171 -0.000661884 -0.00117668 -0.00181512 -0.00255376 -0.0033926 -0.00433163 -0.00536313 -0.00647935 -0.00768029 -0.00896596 -0.0103164 -0.0117118 -0.0131521 -0.0146373 -0.016145 -0.017653 -0.0191611 -0.0206695 -0.0221547 -0.0235933 -0.0249853 -0.0263309 -0.0276079 -0.0287945 -0.0298908 -0.0308966 -0.0317951 -0.0325692 -0.0332189 -0.0337443 -0.034137 -0.0343887 -0.0344993 -0.0344688 -0.0343003 -0.0339967 -0.0335581 -0.0329844 -0.0322907 -0.031492 -0.0305882 -0.0295793 -0.0284905 -0.0273467 -0.0261481 -0.0248945 -0.0236166 -0.0223453 -0.0210803 -0.0198219 -0.0186002 -0.0174456 -0.0163581 -0.0153377 -0.0144081 -0.013593 -0.0128926 -0.0123067 -0.0118475 -0.0115274 -0.0113463 -0.0113041 -0.0113991 -0.0116295 -0.0119953 -0.0124964 -0.0131175 -0.0138433 -0.0146738 -0.015609 -0.0166234 -0.0176914 -0.0188132 -0.0199886 -0.0211876 -0.0223798 -0.0235652 -0.0247439 -0.0258871 -0.026966 -0.0279806 -0.0289309 -0.0297951 -0.0305513 -0.0311995 -0.0317397 -0.0321606 -0.032451 -0.0326107 -0.0326399 -0.0325387 -0.0323076 -0.0319465 -0.0314555 -0.030845 -0.0301256 -0.0292973 -0.0283602 -0.0273318 -0.0262299 -0.0250544 -0.0238054 -0.0225039 -0.0211709 -0.0198064 -0.0184104 -0.017004 -0.0156083 -0.0142232 -0.0128487 -0.0115039 -0.0102076 -0.00895977 -0.00776052 -0.00662553 -0.00557055 -0.00459557 -0.00370059 -0.00289028 -0.0021693 -0.00153765 -0.000995322 -0.000559868 -0.00024883 -6.22076e-05 0 0 -8.22908e-05 -0.000329163 -0.000740617 -0.00131665 -0.00202846 -0.00284722 -0.00377294 -0.00480561 -0.00593477 -0.00714993 -0.0084511 -0.00983827 -0.011288 -0.012777 -0.0143051 -0.0158724 -0.0174533 -0.0190224 -0.0205795 -0.0221247 -0.0236318 -0.0250748 -0.0264535 -0.027768 -0.0289944 -0.0301087 -0.0311108 -0.0320009 -0.032761 -0.0333732 -0.0338377 -0.0341544 -0.0343157 -0.0343138 -0.0341487 -0.0338206 -0.0333347 -0.0326967 -0.0319063 -0.0309637 -0.029888 -0.0286983 -0.0273945 -0.0259768 -0.0244754 -0.0229207 -0.0213129 -0.0196518 -0.017974 -0.016316 -0.0146777 -0.0130592 -0.0114962 -0.0100244 -0.00864373 -0.00735422 -0.00618366 -0.00515982 -0.0042827 -0.0035523 -0.00298285 -0.00258857 -0.00236948 -0.00232556 -0.00245465 -0.00275457 -0.00322534 -0.00386695 -0.00466141 -0.00559073 -0.00665493 -0.00785399 -0.00915796 -0.0105369 -0.0119907 -0.0135196 -0.0150876 -0.0166591 -0.0182341 -0.0198126 -0.0213601 -0.0228423 -0.024259 -0.0256104 -0.0268697 -0.02801 -0.0290314 -0.029934 -0.0307027 -0.0313228 -0.0317942 -0.0321171 -0.0322897 -0.0323105 -0.0321796 -0.0318969 -0.0314728 -0.0309176 -0.0302313 -0.0294139 -0.0284843 -0.0274612 -0.0263448 -0.0251349 -0.0238549 -0.0225277 -0.0211534 -0.019732 -0.0182873 -0.0168429 -0.0153989 -0.0139553 -0.0125339 -0.0111565 -0.00982313 -0.0085338 -0.0073073 -0.00616239 -0.00509908 -0.00411736 -0.0032242 -0.00242655 -0.0017244 -0.00111777 -0.000628744 -0.000279442 -6.98