<?xml version="1.0"?> 
<VTKFile type="StructuredGrid" version="0.1"> 
<StructuredGrid WholeExtent="0 128 0 128 0 0"> 
<Piece Extent="0 128 0 128 0 0"> 
<PointData>
<DataArray type="Float32" Name="u" format="ascii" NumberOfComponents="1"> 
0 0 0 0 0 0 0 0 0 0 0 0 0 0 0 0 0 0 0 0 0 0 0 0 0 0 0 0 0 0 0 0 0 0 0 0 0 0 0 0 0 0 0 0 0 0 0 0 0 0 0 0 0 0 0 0 0 0 0 0 0 0 0 0 0 0 0 0 0 0 0 0 0 0 0 0 0 0 0 0 0 0 0 0 0 0 0 0 0 0 0 0 0 0 0 0 0 0 0 0 0 0 0 0 0 0 0 0 0 0 0 0 0 0 0 0 0 0 0 0 0 0 0 0 0 0 0 0 0 0 1.24998e-05 4.99993e-05 0.000112498 0.000199997 0.000312495 0.000449993 0.000612491 0.000799988 0.000999167 0.00119671 0.00139261 0.00158688 0.00177951 0.0019705 0.00215986 0.00234758 0.00253278 0.00271461 0.00289305 0.0030681 0.00323977 0.00340805 0.00357295 0.00373447 0.00389121 0.00404178 0.00418618 0.00432442 0.00445649 0.00458239 0.00470213 0.0048157 0.00492319 0.00502469 0.0051202 0.00520972 0.00529325 0.00537079 0.00544234 0.0055079 0.00556834 0.00562456 0.00567654 0.00572429 0.0057678 0.00580708 0.00584213 0.00587295 0.00590047 0.00592564 0.00594846 0.00596893 0.00598705 0.00600282 0.00601623 0.0060273 0.00603657 0.0060446 0.0060514 0.00605697 0.00606129 0.00606438 0.00606624 0.00606686 0.00606624 0.00606439 0.0060613 0.00605697 0.00605141 0.00604461 0.00603657 0.0060273 0.00601624 0.00600283 0.00598706 0.00596894 0.00594847 0.00592565 0.00590048 0.00587296 0.00584215 0.0058071 0.00576782 0.00572431 0.00567656 0.00562459 0.00556837 0.00550793 0.00544237 0.00537083 0.00529329 0.00520976 0.00512025 0.00502474 0.00492324 0.00481576 0.00470219 0.00458246 0.00445656 0.00432449 0.00418626 0.00404186 0.00389129 0.00373456 0.00357305 0.00340815 0.00323987 0.0030682 0.00289315 0.00271472 0.0025329 0.00234769 0.00215998 0.00197062 0.00177963 0.00158699 0.00139272 0.0011968 0.000999247 0.000800053 0.000612541 0.00045003 0.000312521 0.000200013 0.000112507 5.00033e-05 1.25008e-05 0 0 4.99993e-05 0.000199997 0.000449993 0.000799988 0.00124998 0.00179997 0.00244996 0.00319995 0.00399667 0.00478683 0.00557045 0.00634752 0.00711804 0.00788201 0.00863943 0.00939031 0.0101311 0.0108584 0.0115722 0.0122724 0.0129591 0.0136322 0.0142918 0.0149379 0.0155648 0.0161671 0.0167447 0.0172977 0.017826 0.0183296 0.0188085 0.0192628 0.0196927 0.0200987 0.0204808 0.0208389 0.021173 0.0214831 0.0217693 0.0220316 0.0222734 0.0224982 0.0227062 0.0228971 0.0230712 0.0232283 0.0233685 0.0234918 0.0236019 0.0237026 0.0237938 0.0238757 0.0239482 0.0240113 0.0240649 0.0241092 0.0241463 0.0241784 0.0242056 0.0242279 0.0242452 0.0242575 0.024265 0.0242674 0.024265 0.0242575 0.0242452 0.0242279 0.0242056 0.0241784 0.0241463 0.0241092 0.024065 0.0240113 0.0239482 0.0238758 0.0237939 0.0237026 0.0236019 0.0234919 0.0233686 0.0232284 0.0230713 0.0228972 0.0227063 0.0224983 0.0222735 0.0220317 0.0217695 0.0214833 0.0211732 0.020839 0.020481 0.020099 0.019693 0.019263 0.0188088 0.0183298 0.0178262 0.017298 0.016745 0.0161674 0.0155652 0.0149382 0.0142922 0.0136326 0.0129595 0.0122728 0.0115726 0.0108589 0.0101316 0.00939078 0.00863991 0.00788249 0.0071185 0.00634796 0.00557086 0.0047872 0.00399699 0.00320021 0.00245016 0.00180012 0.00125008 0.000800053 0.00045003 0.000200013 5.00033e-05 0 0 0.000112498 0.000449993 0.00101248 0.00179997 0.00281246 0.00404994 0.00551242 0.00719989 0.0089925 0.0107704 0.0125335 0.0142819 0.0160156 0.0177345 0.0194387 0.0211282 0.0227951 0.0244315 0.0260374 0.0276129 0.0291579 0.0306725 0.0321566 0.0336102 0.0350208 0.036376 0.0376756 0.0389198 0.0401084 0.0412415 0.0423192 0.0433413 0.0443087 0.0452222 0.0460818 0.0468875 0.0476392 0.0483371 0.048981 0.0495711 0.0501151 0.050621 0.0510888 0.0515186 0.0519102 0.0522637 0.0525792 0.0528565 0.0531042 0.0533308 0.0535362 0.0537204 0.0538834 0.0540254 0.0541461 0.0542457 0.0543291 0.0544014 0.0544626 0.0545127 0.0545516 0.0545795 0.0545962 0.0546017 0.0545962 0.0545795 0.0545517 0.0545127 0.0544627 0.0544015 0.0543292 0.0542457 0.0541462 0.0540254 0.0538835 0.0537205 0.0535363 0.0533309 0.0531044 0.0528567 0.0525793 0.0522639 0.0519104 0.0515188 0.0510891 0.0506213 0.0501154 0.0495714 0.0489813 0.0483374 0.0476396 0.0468879 0.0460822 0.0452227 0.0443092 0.0433418 0.0423197 0.0412421 0.040109 0.0389204 0.0376763 0.0363767 0.0350216 0.033611 0.0321574 0.0306734 0.0291588 0.0276138 0.0260384 0.0244325 0.0227961 0.0211293 0.0194398 0.0177356 0.0160166 0.0142829 0.0125344 0.0107712 0.00899322 0.00720048 0.00551287 0.00405027 0.00281269 0.00180012 0.00101257 0.00045003 0.000112507 0 0 0.000199997 0.000799988 0.00179997 0.00319995 0.00499993 0.00719989 0.00979985 0.0127998 0.0159867 0.0191473 0.0222818 0.0253901 0.0284721 0.031528 0.0345577 0.0375612 0.0405245 0.0434337 0.0462887 0.0490896 0.0518363 0.0545288 0.0571672 0.0597515 0.0622593 0.0646684 0.0669789 0.0691907 0.0713038 0.0733183 0.0752341 0.0770512 0.078771 0.080395 0.0819232 0.0833555 0.0846919 0.0859326 0.0870774 0.0881263 0.0890935 0.0899929 0.0908246 0.0915886 0.0922848 0.0929133 0.0934741 0.0939671 0.0944075 0.0948103 0.0951754 0.0955029 0.0957928 0.0960451 0.0962597 0.0964368 0.0965851 0.0967137 0.0968225 0.0969115 0.0969807 0.0970301 0.0970598 0.0970697 0.0970598 0.0970302 0.0969807 0.0969115 0.0968225 0.0967137 0.0965852 0.0964369 0.0962598 0.0960452 0.0957929 0.0955031 0.0951756 0.0948105 0.0944077 0.0939674 0.0934744 0.0929136 0.0922852 0.091589 0.090825 0.0899934 0.089094 0.0881269 0.087078 0.0859332 0.0846926 0.0833562 0.0819239 0.0803958 0.0787719 0.0770521 0.0752351 0.0733193 0.071305 0.0691919 0.0669802 0.0646697 0.0622607 0.0597529 0.0571687 0.0545304 0.0518379 0.0490913 0.0462905 0.0434355 0.0405264 0.0375631 0.0345596 0.0315299 0.028474 0.0253918 0.0222834 0.0191488 0.0159879 0.0128008 0.00980065 0.00720048 0.00500033 0.00320021 0.00180012 0.000800053 0.000200013 0 0 0.000312495 0.00124998 0.00281246 0.00499993 0.00781238 0.0112498 0.0153123 0.0199997 0.0249792 0.0299177 0.0348153 0.039672 0.0444877 0.0492625 0.0539964 0.0586894 0.0633196 0.0678652 0.0723261 0.0767025 0.0809942 0.0852013 0.0893238 0.0933617 0.0972801 0.101044 0.104655 0.10811 0.111412 0.11456 0.117553 0.120392 0.12308 0.125617 0.128005 0.130243 0.132331 0.13427 0.136058 0.137697 0.139209 0.140614 0.141913 0.143107 0.144195 0.145177 0.146053 0.146824 0.147512 0.148141 0.148712 0.149223 0.149676 0.15007 0.150406 0.150682 0.150914 0.151115 0.151285 0.151424 0.151532 0.15161 0.151656 0.151671 0.151656 0.15161 0.151532 0.151424 0.151285 0.151115 0.150914 0.150683 0.150406 0.150071 0.149676 0.149224 0.148712 0.148141 0.147512 0.146824 0.146054 0.145178 0.144196 0.143108 0.141914 0.140615 0.139209 0.137698 0.136059 0.134271 0.132332 0.130244 0.128006 0.125618 0.123081 0.120394 0.117555 0.114561 0.111414 0.108112 0.104656 0.101046 0.0972823 0.0933639 0.0893262 0.0852038 0.0809967 0.0767051 0.0723289 0.067868 0.0633225 0.0586924 0.0539994 0.0492655 0.0444906 0.0396748 0.0348179 0.02992 0.0249812 0.0200013 0.0153135 0.0112507 0.00781302 0.00500033 0.00281269 0.00125008 0.000312521 0 0 0.000449993 0.00179997 0.00404994 0.00719989 0.0112498 0.0161998 0.0220497 0.0287996 0.03597 0.0430815 0.050134 0.0571277 0.0640623 0.0709381 0.0777549 0.0845127 0.0911802 0.0977258 0.10415 0.110452 0.116632 0.12269 0.128626 0.134441 0.140083 0.145504 0.150703 0.155679 0.160434 0.164966 0.169277 0.173365 0.177235 0.180889 0.184327 0.18755 0.190557 0.193348 0.195924 0.198284 0.20046 0.202484 0.204355 0.206074 0.207641 0.209055 0.210317 0.211426 0.212417 0.213323 0.214145 0.214882 0.215534 0.216101 0.216584 0.216983 0.217317 0.217606 0.217851 0.218051 0.218207 0.218318 0.218385 0.218407 0.218385 0.218318 0.218207 0.218051 0.217851 0.217606 0.217317 0.216983 0.216585 0.216102 0.215534 0.214882 0.214145 0.213324 0.212417 0.211427 0.210317 0.209056 0.207642 0.206075 0.204356 0.202485 0.200461 0.198285 0.195925 0.19335 0.190558 0.187551 0.184329 0.180891 0.177237 0.173367 0.169279 0.164969 0.160436 0.155682 0.150705 0.145507 0.140086 0.134444 0.12863 0.122693 0.116635 0.110455 0.104154 0.0977299 0.0911844 0.084517 0.0777592 0.0709424 0.0640665 0.0571316 0.0501377 0.0430848 0.0359729 0.0288019 0.0220515 0.0162011 0.0112507 0.00720048 0.00405027 0.00180012 0.00045003 0 0 0.000612491 0.00244996 0.00551242 0.00979985 0.0153123 0.0220497 0.0300121 0.0391994 0.0489592 0.0586387 0.068238 0.0777571 0.0871959 0.0965546 0.105833 0.115031 0.124106 0.133016 0.141759 0.150337 0.158749 0.166995 0.175075 0.182989 0.190669 0.198047 0.205123 0.211897 0.218368 0.224537 0.230404 0.235969 0.241236 0.24621 0.25089 0.255276 0.259369 0.263169 0.266674 0.269887 0.272849 0.275603 0.27815 0.28049 0.282622 0.284547 0.286264 0.287774 0.289123 0.290356 0.291475 0.292478 0.293365 0.294138 0.294795 0.295338 0.295792 0.296186 0.296519 0.296791 0.297003 0.297155 0.297246 0.297276 0.297246 0.297155 0.297003 0.296792 0.296519 0.296186 0.295792 0.295338 0.294796 0.294138 0.293366 0.292478 0.291475 0.290357 0.289124 0.287775 0.286265 0.284548 0.282623 0.280491 0.278152 0.275605 0.27285 0.269889 0.266676 0.26317 0.259371 0.255278 0.250892 0.246212 0.241239 0.235972 0.230407 0.22454 0.218371 0.2119 0.205127 0.198051 0.190673 0.182993 0.175079 0.166999 0.158754 0.150342 0.141765 0.133021 0.124112 0.115037 0.105839 0.0965605 0.0872017 0.0777625 0.068243 0.0586432 0.0489631 0.0392026 0.0300145 0.0220515 0.0153135 0.00980065 0.00551287 0.00245016 0.000612541 0 0 0.000799988 0.00319995 0.00719989 0.0127998 0.0199997 0.0287996 0.0391994 0.0511992 0.0639467 0.0765893 0.0891272 0.10156 0.113889 0.126112 0.138231 0.150245 0.162098 0.173735 0.185155 0.196358 0.207345 0.218115 0.228669 0.239006 0.249037 0.258674 0.267916 0.276763 0.285215 0.293273 0.300936 0.308205 0.315084 0.32158 0.327693 0.333422 0.338768 0.34373 0.348309 0.352505 0.356374 0.359972 0.363298 0.366354 0.369139 0.371653 0.373896 0.375869 0.37763 0.379241 0.380702 0.382012 0.383171 0.38418 0.385039 0.385747 0.38634 0.386855 0.38729 0.387646 0.387923 0.388121 0.388239 0.388279 0.388239 0.388121 0.387923 0.387646 0.38729 0.386855 0.386341 0.385747 0.385039 0.384181 0.383172 0.382012 0.380702 0.379242 0.377631 0.37587 0.373898 0.371655 0.369141 0.366356 0.3633 0.359974 0.356376 0.352507 0.348312 0.343733 0.33877 0.333425 0.327696 0.321583 0.315088 0.308208 0.30094 0.293277 0.28522 0.276768 0.267921 0.258679 0.249043 0.239012 0.228675 0.218122 0.207352 0.196365 0.185162 0.173742 0.162106 0.150252 0.138239 0.12612 0.113896 0.101567 0.0891338 0.0765952 0.0639518 0.0512034 0.0392026 0.0288019 0.0200013 0.0128008 0.00720048 0.00320021 0.000800053 0 0 0.000999166 0.00399666 0.00899249 0.0159866 0.0249791 0.03597 0.0489591 0.0639466 0.0798673 0.0956562 0.111313 0.126838 0.142232 0.157493 0.172623 0.187621 0.202417 0.216942 0.231196 0.245178 0.258889 0.272329 0.285497 0.298394 0.310908 0.32293 0.334458 0.345493 0.356035 0.366083 0.375638 0.3847 0.393276 0.401373 0.408992 0.416133 0.422795 0.428978 0.434683 0.439909 0.444728 0.449208 0.453351 0.457156 0.460623 0.463752 0.466544 0.468998 0.471189 0.473193 0.47501 0.476639 0.478081 0.479336 0.480403 0.481283 0.48202 0.482659 0.4832 0.483642 0.483986 0.484232 0.484379 0.484428 0.484379 0.484232 0.483986 0.483642 0.4832 0.482659 0.48202 0.481283 0.480403 0.479336 0.478082 0.47664 0.475011 0.473194 0.47119 0.468999 0.466545 0.463754 0.460625 0.457158 0.453353 0.44921 0.44473 0.439912 0.434686 0.428981 0.422798 0.416136 0.408996 0.401377 0.39328 0.384705 0.375643 0.366088 0.35604 0.345499 0.334464 0.322936 0.310915 0.298401 0.285504 0.272336 0.258897 0.245187 0.231205 0.216951 0.202426 0.18763 0.172633 0.157503 0.142241 0.126847 0.111321 0.0956636 0.0798737 0.0639518 0.0489631 0.0359729 0.0249812 0.0159879 0.00899322 0.00399699 0.000999246 0 0 0.0011967 0.00478681 0.0107703 0.0191473 0.0299176 0.0430813 0.0586385 0.076589 0.095656 0.114562 0.133308 0.151893 0.170317 0.188581 0.206684 0.224627 0.242325 0.259697 0.276741 0.293458 0.309848 0.325911 0.341646 0.357055 0.372004 0.386361 0.400127 0.413302 0.425884 0.437876 0.449275 0.460083 0.470309 0.479963 0.489045 0.497554 0.505491 0.512856 0.519648 0.525869 0.531601 0.536931 0.541858 0.546383 0.550504 0.554222 0.557538 0.560451 0.563051 0.565428 0.567583 0.569515 0.571224 0.572711 0.573975 0.575017 0.575889 0.576644 0.577284 0.577807 0.578214 0.578505 0.578679 0.578737 0.578679 0.578505 0.578214 0.577807 0.577284 0.576645 0.575889 0.575017 0.573976 0.572712 0.571225 0.569516 0.567584 0.565429 0.563052 0.560452 0.55754 0.554224 0.550506 0.546385 0.541861 0.536934 0.531604 0.525872 0.519652 0.51286 0.505495 0.497558 0.489049 0.479968 0.470314 0.460089 0.449281 0.437882 0.425891 0.413309 0.400135 0.386369 0.372012 0.357063 0.341655 0.32592 0.309858 0.293468 0.276751 0.259707 0.242336 0.224638 0.206696 0.188592 0.170328 0.151903 0.133318 0.114571 0.0956635 0.0765952 0.0586432 0.0430848 0.02992 0.0191488 0.0107712 0.0047872 0.0011968 0 0 0.0013926 0.00557041 0.0125334 0.0222816 0.0348151 0.0501337 0.0682375 0.0891266 0.111313 0.133308 0.155111 0.176724 0.198145 0.219375 0.240414 0.261262 0.281823 0.301999 0.321791 0.341199 0.360222 0.378862 0.397118 0.414989 0.432324 0.448968 0.464924 0.480189 0.494765 0.508651 0.521848 0.534355 0.546184 0.55735 0.56785 0.577686 0.586857 0.595364 0.603206 0.610384 0.616996 0.623142 0.628821 0.634035 0.638782 0.643064 0.646879 0.650228 0.653216 0.655947 0.658422 0.66064 0.662602 0.664307 0.665756 0.666948 0.667946 0.668811 0.669542 0.670141 0.670607 0.670939 0.671139 0.671205 0.671139 0.670939 0.670607 0.670141 0.669543 0.668811 0.667947 0.666949 0.665757 0.664308 0.662603 0.660641 0.658423 0.655948 0.653217 0.65023 0.646881 0.643066 0.638785 0.634038 0.628824 0.623145 0.616999 0.610387 0.60321 0.595368 0.586862 0.577691 0.567855 0.557355 0.54619 0.534361 0.521855 0.508658 0.494773 0.480197 0.464932 0.448977 0.432333 0.414999 0.397128 0.378873 0.360234 0.34121 0.321803 0.302011 0.281835 0.261275 0.240428 0.219388 0.198158 0.176736 0.155122 0.133318 0.111321 0.0891336 0.0682429 0.0501377 0.0348178 0.0222834 0.0125344 0.00557085 0.00139271 0 0 0.00158686 0.00634745 0.0142818 0.0253898 0.0396716 0.057127 0.0777563 0.101559 0.126837 0.151892 0.176723 0.201331 0.225715 0.249876 0.273814 0.297528 0.320909 0.343848 0.366345 0.3884 0.410012 0.431182 0.45191 0.472196 0.491867 0.510751 0.528847 0.546155 0.562676 0.57841 0.593356 0.607514 0.620901 0.633532 0.645408 0.656528 0.666893 0.676502 0.685356 0.693454 0.70091 0.707839 0.71424 0.720113 0.725458 0.730276 0.734566 0.738329 0.741683 0.744749 0.747525 0.750013 0.752213 0.754123 0.755745 0.757078 0.758193 0.759158 0.759976 0.760644 0.761164 0.761536 0.761759 0.761833 0.761759 0.761536 0.761165 0.760645 0.759976 0.759159 0.758193 0.757079 0.755746 0.754124 0.752214 0.750015 0.747527 0.74475 0.741685 0.738331 0.734569 0.730279 0.725461 0.720116 0.714243 0.707842 0.700914 0.693458 0.68536 0.676507 0.666898 0.656534 0.645414 0.633539 0.620908 0.607521 0.593363 0.578418 0.562685 0.546164 0.528856 0.510761 0.491878 0.472207 0.451922 0.431194 0.410024 0.388412 0.366358 0.343862 0.320923 0.297542 0.273828 0.249891 0.225729 0.201344 0.176736 0.151903 0.126847 0.101567 0.0777623 0.0571315 0.0396746 0.0253918 0.0142829 0.00634794 0.00158699 0 0 0.00177948 0.00711793 0.0160153 0.0284717 0.0444871 0.0640614 0.0871947 0.113887 0.14223 0.170315 0.198144 0.225714 0.253028 0.280083 0.306882 0.333423 0.359584 0.385244 0.410403 0.435061 0.459217 0.482871 0.506025 0.528677 0.550635 0.571709 0.591897 0.6112 0.629618 0.647151 0.663799 0.679562 0.69446 0.708512 0.721719 0.734082 0.745599 0.756271 0.766098 0.775079 0.783345 0.791023 0.798113 0.804616 0.810532 0.81586 0.820601 0.824754 0.828454 0.831834 0.834895 0.837636 0.840058 0.84216 0.843943 0.845406 0.846628 0.847687 0.848583 0.849317 0.849887 0.850294 0.850539 0.85062 0.850539 0.850294 0.849887 0.849317 0.848584 0.847688 0.846629 0.845407 0.843944 0.842161 0.840059 0.837637 0.834896 0.831836 0.828456 0.824756 0.820603 0.815863 0.810535 0.80462 0.798117 0.791027 0.783349 0.775084 0.766102 0.756276 0.745604 0.734088 0.721726 0.708519 0.694467 0.67957 0.663808 0.64716 0.629628 0.61121 0.591908 0.57172 0.550647 0.528689 0.506037 0.482885 0.45923 0.435075 0.410418 0.38526 0.3596 0.333439 0.306898 0.280099 0.253043 0.225729 0.198157 0.170328 0.142241 0.113896 0.0872013 0.0640663 0.0444905 0.0284739 0.0160166 0.00711848 0.00177962 0 0 0.00197046 0.00788186 0.0177342 0.0315274 0.0492616 0.0709367 0.0965527 0.12611 0.157491 0.188578 0.219373 0.249874 0.280082 0.309997 0.339619 0.368948 0.397849 0.426188 0.453966 0.481182 0.507837 0.533929 0.559461 0.58443 0.608627 0.631842 0.654074 0.675324 0.695591 0.714876 0.733178 0.750498 0.76686 0.782288 0.796783 0.810345 0.822974 0.834669 0.845431 0.85526 0.8643 0.872694 0.880442 0.887545 0.894003 0.899815 0.904982 0.909503 0.913527 0.917202 0.920529 0.923507 0.926136 0.928417 0.930349 0.931932 0.933252 0.934397 0.935366 0.936158 0.936774 0.937215 0.937479 0.937567 0.937479 0.937215 0.936775 0.936158 0.935366 0.934398 0.933253 0.931933 0.93035 0.928418 0.926138 0.923509 0.920531 0.917204 0.913529 0.909505 0.904984 0.899818 0.894006 0.887549 0.880446 0.872698 0.864304 0.855265 0.845437 0.834675 0.82298 0.810352 0.79679 0.782296 0.766868 0.750506 0.733187 0.714886 0.695602 0.675335 0.654086 0.631854 0.60864 0.584443 0.559474 0.533944 0.507852 0.481198 0.453982 0.426205 0.397866 0.368965 0.339637 0.310015 0.280099 0.24989 0.219388 0.188592 0.157502 0.126119 0.09656 0.070942 0.0492653 0.0315298 0.0177355 0.00788245 0.00197061 0 0 0.00215981 0.00863922 0.0194383 0.0345569 0.0539952 0.077753 0.105831 0.138228 0.172619 0.20668 0.24041 0.27381 0.306879 0.339617 0.372025 0.404102 0.435702 0.466679 0.497033 0.526764 0.555872 0.584356 0.612218 0.639456 0.665843 0.691151 0.715378 0.738526 0.760595 0.781583 0.801492 0.820322 0.838101 0.854861 0.8706 0.88532 0.899019 0.911698 0.923357 0.933997 0.943775 0.952852 0.961227 0.9689 0.975871 0.982141 0.987709 0.992576 0.996903 1.00085 1.00443 1.00763 1.01045 1.01289 1.01496 1.01666 1.01807 1.01929 1.02032 1.02117 1.02183 1.0223 1.02258 1.02267 1.02258 1.0223 1.02183 1.02117 1.02032 1.01929 1.01807 1.01666 1.01496 1.0129 1.01045 1.00763 1.00443 1.00086 0.996906 0.992578 0.987712 0.982144 0.975875 0.968904 0.961231 0.952856 0.94378 0.934002 0.923363 0.911704 0.899026 0.885327 0.870608 0.854869 0.83811 0.820331 0.801502 0.781594 0.760606 0.738538 0.715391 0.691164 0.665857 0.639471 0.612233 0.584372 0.555888 0.526781 0.497051 0.466697 0.43572 0.404121 0.372044 0.339636 0.306897 0.273827 0.240427 0.206695 0.172632 0.138238 0.105838 0.0777588 0.0539991 0.0345594 0.0194397 0.00863986 0.00215997 0 0 0.00234751 0.00939004 0.0211276 0.0375601 0.0586877 0.0845103 0.115028 0.150241 0.187616 0.224621 0.261257 0.297522 0.333418 0.368944 0.4041 0.438886 0.473145 0.506718 0.539605 0.571806 0.603322 0.634152 0.664297 0.693756 0.722284 0.749635 0.775809 0.800807 0.824629 0.847274 0.868742 0.889034 0.908185 0.92623 0.94317 0.959004 0.973734 0.987357 0.999876 1.01129 1.02177 1.0315 1.04047 1.04868 1.05614 1.06284 1.06878 1.07397 1.07858 1.08279 1.08659 1.09 1.093 1.09559 1.09779 1.09958 1.10107 1.10236 1.10345 1.10435 1.10504 1.10554 1.10584 1.10594 1.10584 1.10554 1.10504 1.10435 1.10345 1.10236 1.10107 1.09958 1.09779 1.09559 1.093 1.09 1.0866 1.08279 1.07858 1.07398 1.06879 1.06284 1.05614 1.04868 1.04047 1.0315 1.02178 1.01129 0.999882 0.987364 0.973741 0.959012 0.943178 0.926239 0.908194 0.889044 0.868753 0.847285 0.824641 0.80082 0.775823 0.749649 0.722298 0.693771 0.664313 0.634169 0.603339 0.571824 0.539623 0.506737 0.473164 0.438906 0.40412 0.368964 0.333438 0.297541 0.261274 0.224637 0.187629 0.150251 0.115036 0.0845164 0.058692 0.0375629 0.0211291 0.00939071 0.00234768 0 0 0.0025327 0.0101308 0.0227943 0.0405232 0.0633175 0.0911772 0.124102 0.162093 0.202411 0.242318 0.281815 0.320902 0.359578 0.397843 0.435698 0.473143 0.510007 0.546123 0.581489 0.616106 0.649973 0.683091 0.71546 0.74708 0.777688 0.807024 0.835086 0.861875 0.887392 0.911635 0.934605 0.956303 0.976769 0.996046 1.01413 1.03103 1.04674 1.06126 1.0746 1.08674 1.09788 1.10822 1.11775 1.12647 1.13438 1.14148 1.14777 1.15325 1.15812 1.16256 1.16658 1.17016 1.17332 1.17605 1.17836 1.18024 1.1818 1.18315 1.18429 1.18523 1.18596 1.18648 1.18679 1.18689 1.18679 1.18648 1.18596 1.18523 1.18429 1.18315 1.1818 1.18024 1.17836 1.17605 1.17332 1.17016 1.16658 1.16256 1.15812 1.15326 1.14777 1.14148 1.13438 1.12647 1.11775 1.10822 1.09789 1.08675 1.0746 1.06127 1.04675 1.03104 1.01414 0.996055 0.976779 0.956313 0.934617 0.911647 0.887404 0.861889 0.8351 0.807038 0.777704 0.747096 0.715477 0.683109 0.649991 0.616124 0.581508 0.546143 0.510028 0.473164 0.435719 0.397864 0.359598 0.320921 0.281833 0.242335 0.202425 0.162104 0.124111 0.0911836 0.063322 0.0405261 0.0227959 0.0101315 0.00253288 0 0 0.00271451 0.010858 0.0244305 0.0434321 0.0678626 0.0977222 0.133011 0.173728 0.216934 0.259688 0.301989 0.343839 0.385236 0.42618 0.466673 0.506713 0.54612 0.584714 0.622493 0.659458 0.695609 0.730947 0.76547 0.79918 0.831798 0.863047 0.892927 0.921439 0.948581 0.974355 0.99876 1.0218 1.04351 1.06396 1.08313 1.10104 1.11767 1.13304 1.14713 1.15995 1.17171 1.18261 1.19265 1.20183 1.21016 1.21763 1.22423 1.22998 1.23508 1.23973 1.24392 1.24767 1.25097 1.25382 1.25622 1.25817 1.25979 1.26119 1.26238 1.26335 1.2641 1.26464 1.26497 1.26507 1.26497 1.26464 1.2641 1.26335 1.26238 1.26119 1.25979 1.25817 1.25622 1.25382 1.25097 1.24767 1.24392 1.23973 1.23508 1.22999 1.22424 1.21763 1.21016 1.20184 1.19266 1.18262 1.17172 1.15996 1.14714 1.13304 1.11768 1.10105 1.08314 1.06397 1.04352 1.02181 0.998772 0.974368 0.948595 0.921453 0.892942 0.863062 0.831814 0.799196 0.765488 0.730965 0.695628 0.659478 0.622513 0.584735 0.546142 0.506735 0.466695 0.426203 0.385257 0.343859 0.302008 0.259705 0.216949 0.17374 0.13302 0.0977289 0.0678673 0.0434351 0.0244322 0.0108588 0.00271469 0 0 0.00289293 0.0115717 0.0260363 0.0462868 0.0723231 0.104145 0.141753 0.185147 0.231186 0.276731 0.32178 0.366334 0.410392 0.453956 0.497025 0.539598 0.581484 0.62249 0.662617 0.701864 0.740231 0.777719 0.814327 0.850055 0.884612 0.917704 0.949333 0.979497 1.0082 1.03543 1.06121 1.08552 1.10842 1.12997 1.15017 1.16902 1.18652 1.20268 1.21748 1.23093 1.24325 1.25467 1.26518 1.27479 1.28349 1.29129 1.29817 1.30416 1.30945 1.31428 1.31864 1.32252 1.32594 1.32889 1.33137 1.33338 1.33504 1.33648 1.3377 1.3387 1.33948 1.34003 1.34036 1.34047 1.34036 1.34003 1.33948 1.3387 1.3377 1.33648 1.33504 1.33338 1.33137 1.32889 1.32594 1.32253 1.31864 1.31428 1.30946 1.30416 1.29818 1.29129 1.28349 1.27479 1.26519 1.25468 1.24326 1.23094 1.21748 1.20268 1.18653 1.16903 1.15018 1.12998 1.10843 1.08553 1.06122 1.03545 1.00821 0.979512 0.949348 0.91772 0.884629 0.850073 0.814345 0.777738 0.740251 0.701885 0.662638 0.622512 0.581506 0.539621 0.497048 0.453979 0.410415 0.366355 0.321799 0.276748 0.231202 0.18516 0.141763 0.104152 0.072328 0.0462899 0.0260381 0.0115725 0.00289312 0 0 0.00306796 0.0122718 0.0276117 0.0490874 0.076699 0.110447 0.15033 0.19635 0.245167 0.293446 0.341186 0.388386 0.435048 0.48117 0.526753 0.571797 0.616098 0.659453 0.701861 0.743323 0.783839 0.823408 0.862031 0.899707 0.936131 0.970996 1.0043 1.03605 1.06624 1.09487 1.12195 1.14746 1.17148 1.19408 1.21524 1.23498 1.2533 1.27018 1.28564 1.29967 1.31251 1.3244 1.33534 1.34533 1.35437 1.36246 1.36959 1.37578 1.38125 1.38623 1.39072 1.39472 1.39824 1.40127 1.40381 1.40586 1.40756 1.40903 1.41027 1.41129 1.41208 1.41265 1.41299 1.4131 1.41299 1.41265 1.41208 1.41129 1.41027 1.40903 1.40756 1.40586 1.40381 1.40127 1.39824 1.39472 1.39072 1.38623 1.38125 1.37578 1.3696 1.36246 1.35437 1.34533 1.33535 1.32441 1.31252 1.29968 1.28565 1.27019 1.2533 1.23499 1.21525 1.19409 1.17149 1.14747 1.12196 1.09489 1.06626 1.03607 1.00432 0.971012 0.936148 0.899725 0.86205 0.823428 0.78386 0.743345 0.701883 0.659476 0.616121 0.571821 0.526777 0.481194 0.435071 0.388408 0.341206 0.293464 0.245183 0.196362 0.15034 0.110454 0.076704 0.0490906 0.0276135 0.0122726 0.00306816 0 0 0.00323961 0.0129584 0.0291565 0.0518338 0.0809903 0.116626 0.158741 0.207335 0.258877 0.309834 0.360207 0.409996 0.459201 0.507822 0.555858 0.60331 0.649963 0.695602 0.740226 0.783836 0.826432 0.868014 0.908581 0.948134 0.986354 1.02292 1.05784 1.0911 1.12271 1.15267 1.18098 1.20763 1.23271 1.25628 1.27835 1.29892 1.31799 1.33555 1.35161 1.36617 1.37948 1.3918 1.40312 1.41345 1.42279 1.43114 1.43849 1.44485 1.45046 1.45556 1.46016 1.46426 1.46786 1.47095 1.47354 1.47562 1.47734 1.47882 1.48008 1.48111 1.48191 1.48249 1.48283 1.48295 1.48283 1.48249 1.48192 1.48111 1.48008 1.47882 1.47734 1.47562 1.47354 1.47095 1.46786 1.46426 1.46017 1.45556 1.45046 1.44485 1.43849 1.43114 1.4228 1.41346 1.40313 1.3918 1.37949 1.36618 1.35162 1.33556 1.318 1.29893 1.27836 1.25629 1.23272 1.20764 1.18099 1.15268 1.12273 1.09112 1.05785 1.02294 0.986372 0.948153 0.908601 0.868034 0.826453 0.783858 0.740249 0.695625 0.649987 0.603335 0.555883 0.507846 0.459225 0.410019 0.360228 0.309853 0.258893 0.207348 0.158751 0.116633 0.0809954 0.0518371 0.0291584 0.0129593 0.00323982 0 0 0.00340788 0.0136315 0.0306709 0.054526 0.0851969 0.122684 0.166986 0.218104 0.272315 0.325895 0.378845 0.431165 0.482854 0.533912 0.58434 0.634138 0.683079 0.730936 0.777711 0.823402 0.868011 0.911536 0.953978 0.995337 1.03528 1.07348 1.10994 1.14464 1.17761 1.20883 1.2383 1.26602 1.29209 1.31658 1.3395 1.36084 1.3806 1.39879 1.4154 1.43043 1.44417 1.45687 1.46853 1.47916 1.48876 1.49733 1.50486 1.51136 1.51708 1.52229 1.52698 1.53115 1.5348 1.53794 1.54055 1.54265 1.54438 1.54587 1.54714 1.54817 1.54898 1.54955 1.5499 1.55001 1.5499 1.54955 1.54898 1.54817 1.54714 1.54587 1.54438 1.54265 1.54055 1.53794 1.5348 1.53115 1.52698 1.52229 1.51709 1.51136 1.50486 1.49733 1.48877 1.47917 1.46854 1.45687 1.44417 1.43044 1.41541 1.3988 1.38061 1.36085 1.33951 1.31659 1.2921 1.26604 1.23831 1.20884 1.17762 1.14466 1.10995 1.0735 1.0353 0.995357 0.953998 0.911557 0.868033 0.823425 0.777734 0.73096 0.683103 0.634163 0.584365 0.533937 0.482878 0.431188 0.378867 0.325914 0.272331 0.218118 0.166996 0.122691 0.0852022 0.0545294 0.0306728 0.0136323 0.00340809 0 0 0.00357276 0.014291 0.0321548 0.0571641 0.0893189 0.128619 0.175065 0.228656 0.285482 0.341629 0.397099 0.45189 0.506004 0.559441 0.612199 0.664279 0.715445 0.765457 0.814316 0.862022 0.908575 0.953975 0.998222 1.04132 1.08292 1.12268 1.1606 1.19668 1.23093 1.26334 1.29391 1.32264 1.34964 1.37498 1.39868 1.42073 1.44113 1.45989 1.477 1.49246 1.50657 1.5196 1.53156 1.54246 1.55228 1.56103 1.56871 1.57532 1.58113 1.58641 1.59116 1.59538 1.59907 1.60223 1.60486 1.60696 1.60868 1.61017 1.61144 1.61247 1.61327 1.61385 1.61419 1.61431 1.61419 1.61385 1.61327 1.61247 1.61144 1.61017 1.60868 1.60696 1.60486 1.60223 1.59907 1.59538 1.59116 1.58641 1.58113 1.57532 1.56871 1.56103 1.55228 1.54246 1.53157 1.51961 1.50657 1.49247 1.47701 1.4599 1.44114 1.42074 1.39869 1.37499 1.34965 1.32266 1.29393 1.26335 1.23095 1.1967 1.16062 1.12269 1.08293 1.04134 0.998243 0.953997 0.908597 0.862045 0.814339 0.765481 0.715469 0.664305 0.612224 0.559466 0.506029 0.451914 0.39712 0.341649 0.285498 0.22867 0.175076 0.128627 0.0893243 0.0571675 0.0321567 0.0142919 0.00357297 0 0 0.00373425 0.014937 0.0336083 0.059748 0.0933563 0.134433 0.182978 0.238992 0.298377 0.357036 0.414968 0.472174 0.528654 0.584407 0.639435 0.693735 0.747061 0.799163 0.850041 0.899695 0.948125 0.995331 1.04131 1.08607 1.12925 1.1705 1.20983 1.24722 1.28268 1.31621 1.34782 1.37749 1.40534 1.43148 1.45589 1.4786 1.49958 1.51886 1.53641 1.55225 1.56668 1.58001 1.59222 1.60333 1.61334 1.62224 1.63004 1.63672 1.64259 1.64792 1.6527 1.65695 1.66066 1.66383 1.66645 1.66854 1.67025 1.67173 1.67298 1.674 1.6748 1.67536 1.67571 1.67582 1.67571 1.67536 1.6748 1.674 1.67298 1.67173 1.67025 1.66854 1.66646 1.66383 1.66066 1.65695 1.65271 1.64792 1.64259 1.63673 1.63004 1.62225 1.61335 1.60334 1.59223 1.58001 1.56669 1.55226 1.53642 1.51886 1.49959 1.47861 1.4559 1.43149 1.40535 1.3775 1.34783 1.31623 1.2827 1.24724 1.20984 1.17052 1.12927 1.08609 1.04133 0.995353 0.948147 0.899718 0.850065 0.799188 0.747086 0.693761 0.63946 0.584433 0.528679 0.472198 0.41499 0.357055 0.298394 0.239006 0.182989 0.134441 0.0933617 0.0597515 0.0336102 0.0149379 0.00373447 0 0 0.00389097 0.0155639 0.0350187 0.0622555 0.0972743 0.140075 0.190658 0.249022 0.31089 0.371983 0.4323 0.491843 0.55061 0.608602 0.665819 0.72226 0.777667 0.831778 0.884594 0.936116 0.986342 1.03527 1.08291 1.12925 1.17393 1.2166 1.25724 1.29586 1.33247 1.36705 1.39961 1.43016 1.4588 1.48566 1.51074 1.53404 1.55555 1.57528 1.59323 1.6094 1.62411 1.63768 1.65011 1.6614 1.67156 1.68057 1.68845 1.69519 1.70109 1.70644 1.71124 1.71549 1.7192 1.72236 1.72497 1.72703 1.72871 1.73017 1.7314 1.7324 1.73319 1.73375 1.73408 1.73419 1.73408 1.73375 1.73319 1.7324 1.7314 1.73017 1.72871 1.72703 1.72497 1.72236 1.7192 1.71549 1.71124 1.70644 1.70109 1.69519 1.68845 1.68058 1.67156 1.66141 1.65012 1.63768 1.62412 1.60941 1.59324 1.57529 1.55556 1.53405 1.51075 1.48567 1.45881 1.43017 1.39963 1.36707 1.33248 1.29588 1.25726 1.21661 1.17395 1.12927 1.08293 1.03529 0.986364 0.936139 0.884618 0.831803 0.777692 0.722286 0.665845 0.608628 0.550635 0.491867 0.432322 0.372003 0.310907 0.249036 0.190668 0.140083 0.0972797 0.062259 0.0350207 0.0155648 0.00389119 0 0 0.00404152 0.0161661 0.0363737 0.0646644 0.101038 0.145495 0.198035 0.258658 0.32291 0.386339 0.448943 0.510724 0.571681 0.631814 0.691123 0.749609 0.806999 0.863024 0.917684 0.970978 1.02291 1.07347 1.12267 1.1705 1.21659 1.26058 1.30246 1.34223 1.3799 1.41546 1.4489 1.48025 1.50961 1.53713 1.56281 1.58664 1.60862 1.62876 1.64706 1.6635 1.67845 1.69222 1.70483 1.71626 1.72653 1.73563 1.74357 1.75033 1.75624 1.76159 1.76638 1.77063 1.77431 1.77745 1.78003 1.78206 1.7837 1.78513 1.78633 1.78732 1.78808 1.78863 1.78896 1.78907 1.78896 1.78863 1.78808 1.78732 1.78633 1.78513 1.7837 1.78206 1.78003 1.77745 1.77432 1.77063 1.76638 1.76159 1.75624 1.75033 1.74357 1.73564 1.72654 1.71627 1.70483 1.69223 1.67845 1.6