<?xml version="1.0"?> 
<VTKFile type="StructuredGrid" version="0.1"> 
<StructuredGrid WholeExtent="0 128 0 128 0 0"> 
<Piece Extent="0 128 0 128 0 0"> 
<PointData>
<DataArray type="Float32" Name="u" format="ascii" NumberOfComponents="1"> 
0 0 0 0 0 0 0 0 0 0 0 0 0 0 0 0 0 0 0 0 0 0 0 0 0 0 0 0 0 0 0 0 0 0 0 0 0 0 0 0 0 0 0 0 0 0 0 0 0 0 0 0 0 0 0 0 0 0 0 0 0 0 0 0 0 0 0 0 0 0 0 0 0 0 0 0 0 0 0 0 0 0 0 0 0 0 0 0 0 0 0 0 0 0 0 0 0 0 0 0 0 0 0 0 0 0 0 0 0 0 0 0 0 0 0 0 0 0 0 0 0 0 0 0 0 0 0 0 0 0 1.24999e-05 4.99995e-05 0.000112499 0.000199998 0.000312497 0.000449995 0.000612494 0.000799992 0.000999171 0.00119671 0.00139262 0.00158689 0.00177952 0.00197051 0.00215987 0.00234759 0.00253279 0.00271462 0.00289306 0.00306811 0.00323978 0.00340807 0.00357297 0.00373448 0.00389122 0.00404179 0.0041862 0.00432443 0.00445651 0.00458241 0.00470214 0.00481571 0.0049232 0.0050247 0.00512021 0.00520973 0.00529326 0.0053708 0.00544235 0.00550791 0.00556836 0.00562457 0.00567655 0.0057243 0.00576782 0.0058071 0.00584214 0.00587296 0.00590048 0.00592565 0.00594847 0.00596894 0.00598706 0.00600283 0.00601624 0.00602731 0.00603658 0.00604462 0.00605141 0.00605698 0.0060613 0.00606439 0.00606625 0.00606687 0.00606625 0.0060644 0.00606131 0.00605698 0.00605142 0.00604462 0.00603659 0.00602732 0.00601625 0.00600284 0.00598707 0.00596895 0.00594849 0.00592567 0.0059005 0.00587298 0.00584216 0.00580712 0.00576784 0.00572432 0.00567658 0.0056246 0.00556839 0.00550794 0.00544239 0.00537084 0.0052933 0.00520978 0.00512026 0.00502475 0.00492326 0.00481577 0.00470221 0.00458247 0.00445658 0.00432451 0.00418628 0.00404187 0.00389131 0.00373457 0.00357306 0.00340816 0.00323988 0.00306822 0.00289317 0.00271473 0.00253291 0.00234771 0.00215999 0.00197063 0.00177963 0.001587 0.00139272 0.00119681 0.000999251 0.000800057 0.000612544 0.000450032 0.000312522 0.000200014 0.000112508 5.00036e-05 1.25009e-05 0 0 4.99995e-05 0.000199998 0.000449995 0.000799992 0.00124999 0.00179998 0.00244998 0.00319997 0.00399669 0.00478685 0.00557047 0.00634755 0.00711807 0.00788204 0.00863947 0.00939035 0.0101312 0.0108585 0.0115722 0.0122724 0.0129591 0.0136323 0.0142919 0.0149379 0.0155649 0.0161672 0.0167448 0.0172977 0.017826 0.0183296 0.0188086 0.0192629 0.0196928 0.0200988 0.0204809 0.0208389 0.021173 0.0214832 0.0217694 0.0220316 0.0222734 0.0224983 0.0227062 0.0228972 0.0230713 0.0232284 0.0233686 0.0234918 0.0236019 0.0237026 0.0237939 0.0238758 0.0239482 0.0240113 0.024065 0.0241092 0.0241463 0.0241785 0.0242057 0.0242279 0.0242452 0.0242576 0.024265 0.0242675 0.024265 0.0242576 0.0242452 0.0242279 0.0242057 0.0241785 0.0241463 0.0241093 0.024065 0.0240113 0.0239483 0.0238758 0.0237939 0.0237027 0.023602 0.0234919 0.0233687 0.0232285 0.0230713 0.0228973 0.0227063 0.0224984 0.0222736 0.0220318 0.0217695 0.0214834 0.0211732 0.0208391 0.020481 0.020099 0.019693 0.0192631 0.0188088 0.0183299 0.0178263 0.017298 0.0167451 0.0161675 0.0155652 0.0149383 0.0142922 0.0136327 0.0129595 0.0122729 0.0115727 0.0108589 0.0101316 0.00939082 0.00863995 0.00788252 0.00711853 0.00634799 0.00557089 0.00478722 0.00399701 0.00320023 0.00245017 0.00180013 0.00125009 0.000800057 0.000450032 0.000200014 5.00036e-05 0 0 0.000112499 0.000449995 0.00101249 0.00179998 0.00281247 0.00404996 0.00551244 0.00719993 0.00899254 0.0107704 0.0125336 0.014282 0.0160157 0.0177346 0.0194388 0.0211283 0.0227952 0.0244316 0.0260375 0.027613 0.029158 0.0306726 0.0321567 0.0336103 0.035021 0.0363761 0.0376758 0.0389199 0.0401085 0.0412417 0.0423193 0.0433414 0.0443088 0.0452223 0.0460819 0.0468876 0.0476394 0.0483372 0.0489812 0.0495712 0.0501152 0.0506211 0.051089 0.0515187 0.0519103 0.0522639 0.0525793 0.0528566 0.0531043 0.0533309 0.0535363 0.0537205 0.0538836 0.0540255 0.0541462 0.0542458 0.0543292 0.0544015 0.0544627 0.0545128 0.0545517 0.0545796 0.0545962 0.0546018 0.0545962 0.0545796 0.0545518 0.0545128 0.0544628 0.0544016 0.0543293 0.0542458 0.0541463 0.0540255 0.0538836 0.0537206 0.0535364 0.053331 0.0531045 0.0528568 0.0525795 0.052264 0.0519105 0.0515189 0.0510892 0.0506214 0.0501155 0.0495715 0.0489815 0.0483376 0.0476397 0.046888 0.0460824 0.0452228 0.0443093 0.0433419 0.0423199 0.0412423 0.0401092 0.0389206 0.0376765 0.0363769 0.0350218 0.0336111 0.0321575 0.0306735 0.0291589 0.027614 0.0260385 0.0244326 0.0227962 0.0211293 0.0194399 0.0177357 0.0160167 0.014283 0.0125345 0.0107713 0.00899326 0.00720051 0.00551289 0.00405029 0.0028127 0.00180013 0.00101257 0.000450032 0.000112508 0 0 0.000199998 0.000799992 0.00179998 0.00319997 0.00499995 0.00719993 0.0097999 0.0127999 0.0159867 0.0191474 0.0222819 0.0253902 0.0284723 0.0315282 0.0345579 0.0375614 0.0405247 0.0434339 0.0462889 0.0490898 0.0518365 0.0545291 0.0571675 0.0597517 0.0622595 0.0646687 0.0669792 0.069191 0.0713041 0.0733185 0.0752343 0.0770514 0.0787712 0.0803952 0.0819234 0.0833557 0.0846922 0.0859328 0.0870776 0.0881266 0.0890937 0.0899932 0.0908248 0.0915888 0.092285 0.0929135 0.0934743 0.0939673 0.0944077 0.0948105 0.0951756 0.0955031 0.095793 0.0960453 0.0962599 0.0964369 0.0965853 0.0967138 0.0968226 0.0969116 0.0969809 0.0970303 0.09706 0.0970699 0.09706 0.0970303 0.0969809 0.0969117 0.0968227 0.0967139 0.0965854 0.096437 0.09626 0.0960454 0.0957931 0.0955033 0.0951758 0.0948107 0.0944079 0.0939676 0.0934746 0.0929139 0.0922854 0.0915892 0.0908253 0.0899936 0.0890942 0.0881271 0.0870782 0.0859335 0.0846929 0.0833564 0.0819242 0.0803961 0.0787721 0.0770524 0.0752353 0.0733196 0.0713052 0.0691921 0.0669804 0.06467 0.0622609 0.0597531 0.057169 0.0545306 0.0518381 0.0490915 0.0462907 0.0434357 0.0405266 0.0375633 0.0345598 0.0315301 0.0284741 0.025392 0.0222835 0.0191489 0.015988 0.0128009 0.0098007 0.00720051 0.00500036 0.00320023 0.00180013 0.000800057 0.000200014 0 0 0.000312497 0.00124999 0.00281247 0.00499995 0.00781242 0.0112499 0.0153123 0.0199998 0.0249793 0.0299178 0.0348155 0.0396722 0.0444879 0.0492628 0.0539967 0.0586897 0.0633199 0.0678655 0.0723264 0.0767028 0.0809945 0.0852016 0.0893241 0.093362 0.0972805 0.101045 0.104655 0.108111 0.111413 0.11456 0.117554 0.120393 0.12308 0.125618 0.128005 0.130243 0.132332 0.13427 0.136059 0.137698 0.139209 0.140614 0.141914 0.143108 0.144195 0.145177 0.146054 0.146824 0.147512 0.148141 0.148712 0.149224 0.149677 0.150071 0.150406 0.150683 0.150915 0.151115 0.151285 0.151424 0.151533 0.15161 0.151656 0.151672 0.151656 0.15161 0.151533 0.151425 0.151285 0.151116 0.150915 0.150683 0.150406 0.150071 0.149677 0.149224 0.148712 0.148142 0.147512 0.146824 0.146054 0.145178 0.144196 0.143108 0.141914 0.140615 0.13921 0.137699 0.13606 0.134271 0.132333 0.130244 0.128007 0.125619 0.123081 0.120394 0.117555 0.114562 0.111414 0.108113 0.104657 0.101047 0.0972827 0.0933643 0.0893265 0.0852041 0.0809971 0.0767054 0.0723292 0.0678683 0.0633228 0.0586926 0.0539997 0.0492658 0.0444908 0.0396749 0.034818 0.0299202 0.0249813 0.0200014 0.0153136 0.0112508 0.00781306 0.00500036 0.0028127 0.00125009 0.000312522 0 0 0.000449995 0.00179998 0.00404996 0.00719993 0.0112499 0.0161998 0.0220498 0.0287997 0.0359702 0.0430817 0.0501343 0.0571279 0.0640626 0.0709384 0.0777552 0.0845131 0.0911806 0.0977263 0.10415 0.110452 0.116632 0.12269 0.128627 0.134441 0.140084 0.145505 0.150703 0.15568 0.160434 0.164967 0.169277 0.173366 0.177235 0.180889 0.184328 0.18755 0.190557 0.193349 0.195925 0.198285 0.200461 0.202485 0.204356 0.206075 0.207641 0.209055 0.210317 0.211427 0.212417 0.213324 0.214145 0.214882 0.215534 0.216102 0.216585 0.216983 0.217317 0.217606 0.217851 0.218051 0.218207 0.218318 0.218385 0.218407 0.218385 0.218318 0.218207 0.218051 0.217851 0.217606 0.217317 0.216983 0.216585 0.216102 0.215535 0.214882 0.214145 0.213324 0.212418 0.211427 0.210318 0.209056 0.207642 0.206076 0.204357 0.202486 0.200462 0.198286 0.195926 0.19335 0.190559 0.187552 0.184329 0.180891 0.177237 0.173368 0.169279 0.164969 0.160437 0.155682 0.150706 0.145507 0.140087 0.134445 0.12863 0.122694 0.116636 0.110456 0.104154 0.0977303 0.0911848 0.0845174 0.0777596 0.0709427 0.0640668 0.0571319 0.050138 0.043085 0.035973 0.028802 0.0220516 0.0162012 0.0112508 0.00720051 0.00405029 0.00180013 0.000450032 0 0 0.000612494 0.00244998 0.00551244 0.0097999 0.0153123 0.0220498 0.0300122 0.0391996 0.0489594 0.058639 0.0682383 0.0777574 0.0871963 0.096555 0.105834 0.115032 0.124107 0.133016 0.14176 0.150337 0.158749 0.166995 0.175075 0.18299 0.19067 0.198048 0.205124 0.211897 0.218369 0.224538 0.230405 0.23597 0.241237 0.24621 0.25089 0.255277 0.25937 0.263169 0.266675 0.269888 0.27285 0.275604 0.278151 0.280491 0.282623 0.284548 0.286265 0.287775 0.289124 0.290357 0.291475 0.292478 0.293366 0.294139 0.294796 0.295338 0.295792 0.296186 0.296519 0.296792 0.297004 0.297155 0.297246 0.297277 0.297246 0.297155 0.297004 0.296792 0.296519 0.296186 0.295793 0.295338 0.294796 0.294139 0.293366 0.292479 0.291476 0.290358 0.289124 0.287776 0.286266 0.284549 0.282624 0.280492 0.278152 0.275605 0.272851 0.269889 0.266677 0.263171 0.259372 0.255279 0.250893 0.246213 0.24124 0.235973 0.230408 0.224541 0.218372 0.211901 0.205127 0.198052 0.190674 0.182994 0.17508 0.167 0.158754 0.150343 0.141765 0.133022 0.124113 0.115038 0.105839 0.0965609 0.087202 0.0777629 0.0682434 0.0586435 0.0489633 0.0392028 0.0300146 0.0220516 0.0153136 0.0098007 0.00551289 0.00245017 0.000612544 0 0 0.000799992 0.00319997 0.00719993 0.0127999 0.0199998 0.0287997 0.0391996 0.0511995 0.063947 0.0765897 0.0891276 0.101561 0.113889 0.126113 0.138232 0.150246 0.162099 0.173736 0.185156 0.196359 0.207346 0.218116 0.22867 0.239007 0.249038 0.258675 0.267917 0.276764 0.285216 0.293274 0.300937 0.308206 0.315085 0.321581 0.327694 0.333423 0.338769 0.343731 0.34831 0.352506 0.356375 0.359973 0.363299 0.366355 0.36914 0.371654 0.373897 0.375869 0.377631 0.379242 0.380702 0.382012 0.383172 0.384181 0.38504 0.385748 0.386341 0.386855 0.387291 0.387647 0.387923 0.388121 0.38824 0.38828 0.38824 0.388121 0.387924 0.387647 0.387291 0.386856 0.386341 0.385748 0.38504 0.384182 0.383173 0.382013 0.380703 0.379243 0.377632 0.37587 0.373898 0.371655 0.369142 0.366357 0.363301 0.359974 0.356377 0.352508 0.348313 0.343734 0.338771 0.333426 0.327697 0.321584 0.315089 0.308209 0.300941 0.293278 0.285221 0.276769 0.267922 0.25868 0.249044 0.239013 0.228676 0.218123 0.207353 0.196366 0.185163 0.173743 0.162106 0.150253 0.138239 0.12612 0.113897 0.101568 0.0891342 0.0765956 0.0639521 0.0512036 0.0392028 0.028802 0.0200014 0.0128009 0.00720051 0.00320023 0.000800057 0 0 0.00099917 0.00399668 0.00899253 0.0159867 0.0249793 0.0359701 0.0489593 0.0639469 0.0798677 0.0956567 0.111314 0.126839 0.142233 0.157494 0.172624 0.187622 0.202418 0.216943 0.231197 0.245179 0.25889 0.27233 0.285498 0.298395 0.31091 0.322931 0.334459 0.345494 0.356036 0.366084 0.375639 0.384701 0.393277 0.401375 0.408993 0.416134 0.422796 0.428979 0.434684 0.439911 0.444729 0.449209 0.453352 0.457157 0.460624 0.463753 0.466545 0.468999 0.47119 0.473194 0.475011 0.47664 0.478082 0.479336 0.480404 0.481284 0.482021 0.48266 0.4832 0.483643 0.483987 0.484232 0.48438 0.484429 0.48438 0.484233 0.483987 0.483643 0.483201 0.48266 0.482021 0.481284 0.480404 0.479337 0.478083 0.476641 0.475011 0.473195 0.471191 0.469 0.466546 0.463755 0.460626 0.457159 0.453354 0.449211 0.444731 0.439913 0.434687 0.428982 0.422799 0.416137 0.408997 0.401379 0.393281 0.384706 0.375644 0.366089 0.356041 0.3455 0.334465 0.322938 0.310917 0.298402 0.285506 0.272338 0.258898 0.245188 0.231205 0.216952 0.202427 0.187631 0.172633 0.157504 0.142242 0.126848 0.111322 0.095664 0.0798741 0.0639521 0.0489633 0.035973 0.0249813 0.015988 0.00899326 0.003997 0.000999251 0 0 0.00119671 0.00478684 0.0107704 0.0191473 0.0299177 0.0430815 0.0586388 0.0765894 0.0956564 0.114563 0.133309 0.151894 0.170318 0.188582 0.206685 0.224628 0.242326 0.259698 0.276742 0.293459 0.309849 0.325912 0.341648 0.357056 0.372005 0.386363 0.400129 0.413303 0.425886 0.437877 0.449277 0.460085 0.470311 0.479965 0.489046 0.497555 0.505493 0.512857 0.51965 0.52587 0.531603 0.536933 0.54186 0.546384 0.550505 0.554224 0.557539 0.560452 0.563052 0.565429 0.567584 0.569516 0.571225 0.572712 0.573976 0.575018 0.57589 0.576645 0.577285 0.577808 0.578215 0.578506 0.57868 0.578738 0.57868 0.578506 0.578215 0.577808 0.577285 0.576646 0.57589 0.575018 0.573977 0.572713 0.571226 0.569517 0.567585 0.565431 0.563053 0.560454 0.557541 0.554226 0.550507 0.546386 0.541862 0.536935 0.531606 0.525873 0.519653 0.512861 0.505497 0.49756 0.489051 0.47997 0.470316 0.46009 0.449283 0.437883 0.425893 0.41331 0.400136 0.386371 0.372014 0.357065 0.341657 0.325922 0.309859 0.293469 0.276753 0.259709 0.242337 0.224639 0.206697 0.188593 0.170329 0.151904 0.133318 0.114572 0.095664 0.0765955 0.0586435 0.043085 0.0299201 0.0191489 0.0107712 0.00478722 0.00119681 0 0 0.00139261 0.00557044 0.0125335 0.0222817 0.0348152 0.0501339 0.0682378 0.089127 0.111313 0.133308 0.155112 0.176725 0.198146 0.219376 0.240416 0.261264 0.281824 0.302 0.321792 0.3412 0.360224 0.378864 0.397119 0.414991 0.432325 0.44897 0.464925 0.480191 0.494767 0.508653 0.521849 0.534356 0.546186 0.557351 0.567852 0.577688 0.586859 0.595366 0.603208 0.610385 0.616997 0.623143 0.628823 0.634036 0.638784 0.643065 0.64688 0.650229 0.653217 0.655948 0.658423 0.660641 0.662603 0.664308 0.665757 0.66695 0.667947 0.668812 0.669544 0.670142 0.670608 0.67094 0.67114 0.671207 0.67114 0.670941 0.670608 0.670143 0.669544 0.668812 0.667948 0.66695 0.665758 0.664309 0.662604 0.660642 0.658424 0.65595 0.653219 0.650231 0.646882 0.643067 0.638786 0.634039 0.628826 0.623146 0.617001 0.610389 0.603212 0.59537 0.586864 0.577693 0.567857 0.557357 0.546192 0.534363 0.521856 0.50866 0.494774 0.480199 0.464934 0.448979 0.432335 0.415 0.397129 0.378874 0.360235 0.341212 0.321804 0.302012 0.281836 0.261276 0.240429 0.219389 0.198159 0.176737 0.155123 0.133318 0.111322 0.089134 0.0682432 0.0501379 0.034818 0.0222835 0.0125345 0.00557088 0.00139272 0 0 0.00158687 0.00634748 0.0142818 0.0253899 0.0396717 0.0571273 0.0777566 0.10156 0.126838 0.151893 0.176724 0.201332 0.225716 0.249877 0.273815 0.297529 0.32091 0.343849 0.366346 0.388401 0.410014 0.431184 0.451912 0.472198 0.491869 0.510753 0.528849 0.546157 0.562678 0.578412 0.593358 0.607516 0.620903 0.633534 0.64541 0.65653 0.666895 0.676504 0.685358 0.693456 0.700912 0.70784 0.714241 0.720115 0.72546 0.730278 0.734568 0.73833 0.741685 0.74475 0.747527 0.750015 0.752214 0.754125 0.755746 0.75708 0.758194 0.75916 0.759977 0.760646 0.761166 0.761537 0.76176 0.761834 0.76176 0.761537 0.761166 0.760646 0.759977 0.75916 0.758195 0.75708 0.755747 0.754126 0.752215 0.750016 0.747528 0.744752 0.741687 0.738332 0.73457 0.73028 0.725463 0.720118 0.714245 0.707844 0.700916 0.69346 0.685362 0.676509 0.6669 0.656536 0.645416 0.633541 0.62091 0.607523 0.593365 0.57842 0.562687 0.546166 0.528858 0.510763 0.49188 0.472209 0.451924 0.431196 0.410026 0.388414 0.36636 0.343863 0.320924 0.297543 0.27383 0.249892 0.22573 0.201345 0.176736 0.151904 0.126848 0.101568 0.0777627 0.0571318 0.0396748 0.0253919 0.0142829 0.00634797 0.00158699 0 0 0.00177949 0.00711796 0.0160154 0.0284719 0.0444873 0.0640617 0.0871951 0.113887 0.142231 0.170316 0.198145 0.225715 0.253029 0.280085 0.306883 0.333424 0.359586 0.385246 0.410405 0.435062 0.459219 0.482873 0.506027 0.528679 0.550637 0.571711 0.591899 0.611202 0.629621 0.647154 0.663801 0.679564 0.694462 0.708514 0.721721 0.734084 0.745601 0.756273 0.7661 0.775081 0.783347 0.791025 0.798115 0.804618 0.810534 0.815862 0.820603 0.824756 0.828455 0.831836 0.834896 0.837637 0.840059 0.842161 0.843944 0.845407 0.846629 0.847689 0.848585 0.849318 0.849888 0.850296 0.85054 0.850622 0.85054 0.850296 0.849889 0.849318 0.848585 0.847689 0.84663 0.845408 0.843945 0.842163 0.84006 0.837639 0.834898 0.831837 0.828457 0.824758 0.820605 0.815865 0.810537 0.804621 0.798119 0.791029 0.783351 0.775086 0.766104 0.756278 0.745606 0.73409 0.721728 0.708521 0.694469 0.679572 0.66381 0.647163 0.62963 0.611212 0.59191 0.571722 0.550649 0.528691 0.506039 0.482887 0.459232 0.435077 0.41042 0.385261 0.359601 0.33344 0.306899 0.280101 0.253044 0.22573 0.198158 0.170329 0.142241 0.113896 0.0872017 0.0640666 0.0444907 0.028474 0.0160166 0.00711851 0.00177963 0 0 0.00197047 0.00788189 0.0177343 0.0315276 0.0492618 0.070937 0.0965532 0.12611 0.157491 0.188579 0.219374 0.249875 0.280083 0.309998 0.33962 0.368949 0.39785 0.42619 0.453968 0.481184 0.507839 0.533932 0.559463 0.584432 0.608629 0.631844 0.654076 0.675326 0.695594 0.714878 0.73318 0.7505 0.766862 0.78229 0.796786 0.810348 0.822976 0.834672 0.845434 0.855262 0.864302 0.872696 0.880444 0.887547 0.894005 0.899817 0.904984 0.909505 0.913529 0.917204 0.920531 0.923509 0.926138 0.928419 0.93035 0.931933 0.933254 0.934399 0.935367 0.936159 0.936776 0.937216 0.93748 0.937568 0.93748 0.937216 0.936776 0.93616 0.935368 0.934399 0.933255 0.931934 0.930351 0.92842 0.926139 0.92351 0.920533 0.917206 0.913531 0.909507 0.904986 0.89982 0.894008 0.887551 0.880448 0.8727 0.864306 0.855267 0.845439 0.834677 0.822982 0.810354 0.796793 0.782298 0.76687 0.750509 0.73319 0.714888 0.695604 0.675337 0.654088 0.631856 0.608642 0.584445 0.559477 0.533946 0.507854 0.4812 0.453984 0.426207 0.397867 0.368966 0.339638 0.310016 0.2801 0.249891 0.219389 0.188593 0.157503 0.12612 0.0965604 0.0709424 0.0492655 0.0315299 0.0177356 0.00788248 0.00197062 0 0 0.00215982 0.00863926 0.0194383 0.0345571 0.0539954 0.0777534 0.105831 0.138228 0.17262 0.206681 0.240411 0.273811 0.30688 0.339619 0.372027 0.404104 0.435704 0.466681 0.497035 0.526766 0.555874 0.584359 0.61222 0.639459 0.665846 0.691153 0.715381 0.738529 0.760597 0.781586 0.801495 0.820324 0.838104 0.854863 0.870603 0.885322 0.899021 0.911701 0.92336 0.933999 0.943777 0.952854 0.961229 0.968902 0.975874 0.982143 0.987711 0.992578 0.996905 1.00086 1.00443 1.00763 1.01045 1.0129 1.01496 1.01666 1.01807 1.01929 1.02032 1.02117 1.02183 1.0223 1.02258 1.02267 1.02258 1.0223 1.02183 1.02117 1.02032 1.01929 1.01807 1.01666 1.01497 1.0129 1.01045 1.00763 1.00443 1.00086 0.996908 0.99258 0.987714 0.982146 0.975877 0.968906 0.961233 0.952858 0.943782 0.934004 0.923366 0.911707 0.899028 0.885329 0.87061 0.854871 0.838113 0.820334 0.801505 0.781596 0.760608 0.738541 0.715393 0.691166 0.665859 0.639473 0.612235 0.584374 0.55589 0.526783 0.497053 0.466699 0.435722 0.404122 0.372046 0.339638 0.306899 0.273829 0.240428 0.206696 0.172632 0.138238 0.105839 0.0777591 0.0539994 0.0345596 0.0194398 0.0086399 0.00215998 0 0 0.00234752 0.00939008 0.0211277 0.0375603 0.058688 0.0845107 0.115028 0.150241 0.187617 0.224622 0.261258 0.297524 0.33342 0.368946 0.404102 0.438888 0.473147 0.50672 0.539607 0.571809 0.603325 0.634155 0.664299 0.693758 0.722286 0.749637 0.775812 0.80081 0.824632 0.847276 0.868745 0.889037 0.908187 0.926233 0.943173 0.959007 0.973736 0.98736 0.999878 1.01129 1.02177 1.0315 1.04047 1.04868 1.05614 1.06284 1.06879 1.07397 1.07858 1.08279 1.0866 1.09 1.093 1.09559 1.09779 1.09958 1.10107 1.10236 1.10346 1.10435 1.10505 1.10554 1.10584 1.10594 1.10584 1.10554 1.10505 1.10435 1.10346 1.10236 1.10107 1.09958 1.09779 1.0956 1.093 1.09 1.0866 1.08279 1.07859 1.07398 1.06879 1.06284 1.05614 1.04869 1.04047 1.0315 1.02178 1.0113 0.999884 0.987366 0.973743 0.959015 0.943181 0.926241 0.908197 0.889047 0.868755 0.847288 0.824643 0.800823 0.775825 0.749651 0.722301 0.693774 0.664315 0.634171 0.603342 0.571826 0.539625 0.506739 0.473166 0.438908 0.404122 0.368966 0.333439 0.297542 0.261275 0.224638 0.18763 0.150252 0.115037 0.0845168 0.0586922 0.037563 0.0211292 0.00939076 0.00234769 0 0 0.00253271 0.0101308 0.0227944 0.0405234 0.0633178 0.0911776 0.124103 0.162093 0.202412 0.242319 0.281816 0.320903 0.359579 0.397845 0.4357 0.473145 0.510009 0.546125 0.581491 0.616108 0.649975 0.683094 0.715463 0.747082 0.777691 0.807026 0.835089 0.861878 0.887395 0.911638 0.934608 0.956305 0.976772 0.996049 1.01414 1.03104 1.04675 1.06127 1.0746 1.08674 1.09789 1.10822 1.11775 1.12647 1.13438 1.14148 1.14777 1.15326 1.15812 1.16256 1.16658 1.17016 1.17332 1.17605 1.17836 1.18024 1.1818 1.18315 1.1843 1.18523 1.18596 1.18648 1.18679 1.1869 1.18679 1.18648 1.18596 1.18523 1.1843 1.18315 1.1818 1.18024 1.17836 1.17606 1.17332 1.17016 1.16658 1.16257 1.15813 1.15326 1.14778 1.14148 1.13438 1.12647 1.11775 1.10823 1.09789 1.08675 1.07461 1.06127 1.04675 1.03104 1.01415 0.996058 0.976782 0.956316 0.934619 0.91165 0.887407 0.861892 0.835103 0.807041 0.777706 0.747099 0.71548 0.683111 0.649994 0.616127 0.58151 0.546145 0.51003 0.473166 0.435721 0.397866 0.3596 0.320923 0.281835 0.242336 0.202426 0.162105 0.124112 0.091184 0.0633222 0.0405262 0.022796 0.0101316 0.00253289 0 0 0.00271452 0.0108581 0.0244307 0.0434323 0.0678629 0.0977226 0.133011 0.173729 0.216935 0.259689 0.301991 0.34384 0.385237 0.426182 0.466675 0.506715 0.546123 0.584716 0.622495 0.659461 0.695612 0.730949 0.765473 0.799182 0.8318 0.86305 0.89293 0.921442 0.948584 0.974358 0.998763 1.0218 1.04352 1.06396 1.08314 1.10104 1.11768 1.13304 1.14713 1.15996 1.17171 1.18261 1.19265 1.20184 1.21016 1.21763 1.22424 1.22999 1.23508 1.23973 1.24392 1.24767 1.25097 1.25382 1.25622 1.25817 1.25979 1.26119 1.26238 1.26335 1.2641 1.26464 1.26497 1.26508 1.26497 1.26464 1.2641 1.26335 1.26238 1.26119 1.25979 1.25817 1.25622 1.25382 1.25097 1.24767 1.24393 1.23973 1.23508 1.22999 1.22424 1.21763 1.21017 1.20184 1.19266 1.18262 1.17172 1.15996 1.14714 1.13305 1.11768 1.10105 1.08315 1.06397 1.04353 1.02181 0.998775 0.974371 0.948598 0.921456 0.892945 0.863065 0.831817 0.799199 0.765491 0.730968 0.695631 0.65948 0.622516 0.584737 0.546144 0.506737 0.466697 0.426204 0.385259 0.343861 0.30201 0.259706 0.21695 0.173741 0.133021 0.0977294 0.0678676 0.0434353 0.0244323 0.0108588 0.0027147 0 0 0.00289294 0.0115718 0.0260364 0.046287 0.0723235 0.104146 0.141754 0.185148 0.231187 0.276732 0.321781 0.366335 0.410394 0.453958 0.497027 0.5396 0.581486 0.622493 0.66262 0.701867 0.740234 0.777722 0.81433 0.850058 0.884615 0.917707 0.949336 0.9795 1.0082 1.03544 1.06121 1.08552 1.10842 1.12997 1.15017 1.16903 1.18653 1.20268 1.21748 1.23093 1.24326 1.25467 1.26519 1.27479 1.28349 1.29129 1.29818 1.30416 1.30946 1.31428 1.31864 1.32253 1.32594 1.32889 1.33137 1.33338 1.33504 1.33648 1.3377 1.3387 1.33948 1.34003 1.34037 1.34048 1.34037 1.34003 1.33948 1.3387 1.3377 1.33649 1.33504 1.33338 1.33137 1.32889 1.32595 1.32253 1.31864 1.31428 1.30946 1.30416 1.29818 1.29129 1.2835 1.2748 1.26519 1.25468 1.24326 1.23094 1.21749 1.20269 1.18654 1.16903 1.15018 1.12998 1.10843 1.08553 1.06122 1.03545 1.00821 0.979515 0.949351 0.917723 0.884632 0.850076 0.814348 0.777741 0.740254 0.701887 0.662641 0.622515 0.581509 0.539623 0.49705 0.453981 0.410416 0.366356 0.321801 0.27675 0.231203 0.18516 0.141764 0.104153 0.0723283 0.0462901 0.0260382 0.0115725 0.00289313 0 0 0.00306797 0.0122719 0.0276118 0.0490876 0.0766994 0.110447 0.150331 0.19635 0.245168 0.293447 0.341187 0.388388 0.435049 0.481172 0.526755 0.571799 0.616101 0.659456 0.701864 0.743326 0.783842 0.823411 0.862034 0.89971 0.936134 0.970999 1.00431 1.03605 1.06624 1.09488 1.12195 1.14746 1.17149 1.19408 1.21525 1.23499 1.2533 1.27018 1.28564 1.29967 1.31251 1.3244 1.33534 1.34533 1.35437 1.36246 1.36959 1.37578 1.38125 1.38623 1.39072 1.39472 1.39824 1.40127 1.40381 1.40586 1.40756 1.40903 1.41027 1.41129 1.41208 1.41265 1.41299 1.4131 1.41299 1.41265 1.41208 1.41129 1.41027 1.40903 1.40756 1.40586 1.40381 1.40127 1.39824 1.39473 1.39072 1.38623 1.38125 1.37578 1.3696 1.36246 1.35437 1.34534 1.33535 1.32441 1.31252 1.29968 1.28565 1.27019 1.25331 1.235 1.21526 1.19409 1.1715 1.14748 1.12196 1.09489 1.06626 1.03607 1.00432 0.971016 0.936151 0.899728 0.862053 0.823431 0.783862 0.743347 0.701886 0.659478 0.616124 0.571823 0.526779 0.481195 0.435072 0.38841 0.341207 0.293466 0.245184 0.196363 0.150341 0.110454 0.0767044 0.0490908 0.0276136 0.0122727 0.00306817 0 0 0.00323963 0.0129585 0.0291566 0.051834 0.0809906 0.116627 0.158742 0.207336 0.258878 0.309836 0.360209 0.409998 0.459203 0.507824 0.55586 0.603313 0.649966 0.695604 0.740229 0.783839 0.826435 0.868017 0.908584 0.948137 0.986357 1.02292 1.05784 1.0911 1.12271 1.15267 1.18098 1.20763 1.23271 1.25628 1.27836 1.29892 1.31799 1.33555 1.35161 1.36617 1.37948 1.3918 1.40313 1.41346 1.42279 1.43114 1.43849 1.44485 1.45046 1.45556 1.46017 1.46426 1.46786 1.47095 1.47354 1.47562 1.47734 1.47883 1.48009 1.48112 1.48192 1.48249 1.48283 1.48295 1.48283 1.48249 1.48192 1.48112 1.48009 1.47883 1.47734 1.47562 1.47354 1.47095 1.46786 1.46427 1.46017 1.45557 1.45046 1.44485 1.43849 1.43114 1.4228 1.41346 1.40313 1.39181 1.37949 1.36618 1.35162 1.33556 1.318 1.29893 1.27837 1.25629 1.23272 1.20765 1.18099 1.15269 1.12273 1.09112 1.05786 1.02294 0.986375 0.948156 0.908604 0.868037 0.826456 0.783861 0.740251 0.695628 0.649989 0.603337 0.555885 0.507848 0.459227 0.410021 0.36023 0.309854 0.258894 0.207349 0.158752 0.116634 0.0809958 0.0518373 0.0291585 0.0129593 0.00323983 0 0 0.00340789 0.0136316 0.030671 0.0545263 0.0851973 0.122684 0.166987 0.218105 0.272316 0.325897 0.378847 0.431166 0.482855 0.533914 0.584342 0.63414 0.683081 0.730939 0.777714 0.823405 0.868014 0.911539 0.953982 0.995341 1.03529 1.07349 1.10994 1.14465 1.17761 1.20883 1.2383 1.26603 1.29209 1.31659 1.3395 1.36084 1.3806 1.39879 1.4154 1.43044 1.44417 1.45687 1.46853 1.47917 1.48876 1.49733 1.50486 1.51136 1.51709 1.52229 1.52698 1.53115 1.5348 1.53794 1.54055 1.54265 1.54438 1.54587 1.54714 1.54818 1.54898 1.54956 1.5499 1.55002 1.5499 1.54956 1.54898 1.54818 1.54714 1.54588 1.54438 1.54266 1.54056 1.53794 1.5348 1.53115 1.52698 1.52229 1.51709 1.51136 1.50487 1.49733 1.48877 1.47917 1.46854 1.45687 1.44418 1.43045 1.41541 1.3988 1.38061 1.36085 1.33951 1.3166 1.29211 1.26604 1.23831 1.20884 1.17763 1.14466 1.10996 1.0735 1.0353 0.99536 0.954002 0.91156 0.868036 0.823428 0.777737 0.730963 0.683105 0.634165 0.584368 0.533939 0.48288 0.431189 0.378868 0.325916 0.272333 0.218118 0.166997 0.122692 0.0852025 0.0545296 0.0306729 0.0136324 0.0034081 0 0 0.00357277 0.0142911 0.0321549 0.0571643 0.0893193 0.12862 0.175066 0.228657 0.285483 0.34163 0.3971 0.451892 0.506006 0.559443 0.612201 0.664282 0.715447 0.76546 0.814319 0.862025 0.908578 0.953979 0.998226 1.04132 1.08292 1.12268 1.1606 1.19669 1.23093 1.26334 1.29391 1.32265 1.34964 1.37498 1.39868 1.42073 1.44114 1.45989 1.477 1.49247 1.50657 1.5196 1.53157 1.54246 1.55228 1.56103 1.56871 1.57532 1.58113 1.58641 1.59116 1.59538 1.59907 1.60223 1.60486 1.60696 1.60868 1.61018 1.61144 1.61247 1.61327 1.61385 1.61419 1.61431 1.61419 1.61385 1.61327 1.61247 1.61144 1.61018 1.60868 1.60696 1.60486 1.60223 1.59907 1.59538 1.59116 1.58641 1.58113 1.57532 1.56872 1.56104 1.55229 1.54246 1.53157 1.51961 1.50658 1.49247 1.47701 1.4599 1.44114 1.42074 1.39869 1.37499 1.34965 1.32266 1.29393 1.26336 1.23095 1.1967 1.16062 1.1227 1.08294 1.04134 0.998246 0.954 0.9086 0.862048 0.814342 0.765484 0.715472 0.664307 0.612227 0.559468 0.506031 0.451916 0.397122 0.34165 0.2855 0.228671 0.175076 0.128627 0.0893246 0.0571678 0.0321569 0.0142919 0.00357299 0 0 0.00373427 0.0149371 0.0336084 0.0597483 0.0933567 0.134434 0.182979 0.238993 0.298378 0.357037 0.41497 0.472176 0.528656 0.58441 0.639437 0.693738 0.747064 0.799166 0.850044 0.899698 0.948128 0.995335 1.04132 1.08608 1.12926 1.17051 1.20983 1.24722 1.28268 1.31622 1.34782 1.37749 1.40534 1.43148 1.4559 1.4786 1.49959 1.51886 1.53642 1.55226 1.56668 1.58001 1.59223 1.60334 1.61334 1.62224 1.63004 1.63673 1.64259 1.64792 1.65271 1.65695 1.66066 1.66383 1.66646 1.66855 1.67025 1.67173 1.67298 1.674 1.6748 1.67537 1.67571 1.67582 1.67571 1.67537 1.6748 1.674 1.67298 1.67173 1.67025 1.66855 1.66646 1.66383 1.66066 1.65695 1.65271 1.64792 1.6426 1.63673 1.63004 1.62225 1.61335 1.60334 1.59223 1.58001 1.56669 1.55226 1.53642 1.51887 1.4996 1.47861 1.45591 1.43149 1.40536 1.37751 1.34783 1.31623 1.2827 1.24724 1.20985 1.17053 1.12928 1.08609 1.04134 0.995356 0.948151 0.899721 0.850068 0.79919 0.747089 0.693764 0.639463 0.584435 0.528681 0.4722 0.414992 0.357057 0.298395 0.239007 0.18299 0.134441 0.0933621 0.0597517 0.0336103 0.0149379 0.00373448 0 0 0.00389099 0.0155639 0.0350189 0.0622558 0.0972747 0.140076 0.190658 0.249023 0.310891 0.371984 0.432302 0.491845 0.550612 0.608604 0.665821 0.722263 0.77767 0.831781 0.884597 0.936119 0.986345 1.03528 1.08291 1.12925 1.17394 1.2166 1.25724 1.29587 1.33247 1.36705 1.39962 1.43016 1.4588 1.48567 1.51074 1.53404 1.55555 1.57529 1.59324 1.6094 1.62411 1.63768 1.65011 1.66141 1.67156 1.68058 1.68845 1.69519 1.70109 1.70644 1.71124 1.71549 1.7192 1.72236 1.72497 1.72704 1.72871 1.73017 1.7314 1.73241 1.73319 1.73375 1.73408 1.7342 1.73408 1.73375 1.73319 1.73241 1.7314 1.73017 1.72871 1.72704 1.72497 1.72236 1.7192 1.7155 1.71124 1.70644 1.70109 1.6952 1.68846 1.68058 1.67156 1.66141 1.65012 1.63769 1.62412 1.60941 1.59324 1.57529 1.55556 1.53405 1.51075 1.48568 1.45882 1.43017 1.39963 1.36707 1.33249 1.29588 1.25726 1.21662 1.17396 1.12927 1.08293 1.0353 0.986368 0.936142 0.884622 0.831806 0.777695 0.722289 0.665847 0.60863 0.550637 0.491868 0.432324 0.372004 0.310908 0.249037 0.190669 0.140083 0.0972801 0.0622593 0.0350208 0.0155648 0.0038912 0 0 0.00404154 0.0161662 0.0363739 0.0646646 0.101038 0.145495 0.198035 0.258659 0.322911 0.38634 0.448945 0.510726 0.571683 0.631816 0.691126 0.749611 0.807002 0.863027 0.917687 0.970981 1.02291 1.07347 1.12267 1.1705 1.2166 1.26058 1.30246 1.34224 1.3799 1.41546 1.44891 1.48025 1.50962 1.53714 1.56281 1.58664 1.60863 1.62876 1.64706 1.66351 1.67845 1.69222 1.70483 1.71627 1.72654 1.73564 1.74357 1.75033 1.75624 1.76159 1.76638 1.77063 1.77432 1.77745 1.78003 1.78206 1.78371 1.78513 1.78633 1.78732 1.78808 1.78863 1.78896 1.78907 1.78896 1.78863 1.78809 1.78732 1.78633 1.78513 1.78371 1.78206 1.78004 1.77745 1.77432 1.77063 1.76639 1.76159 1.75624 1.75034 1.74357 1.73564 1.72654 1.71627 1.70483 1.69223 1.67846 1.66351 1.64707 1.62877 1.60863 1.58665 1.56282 1.53715 1.50963 1.48026 1.4