<?xml version="1.0"?> 
<VTKFile type="StructuredGrid" version="0.1"> 
<StructuredGrid WholeExtent="0 128 0 128 0 0"> 
<Piece Extent="0 128 0 128 0 0"> 
<PointData>
<DataArray type="Float32" Name="u" format="ascii" NumberOfComponents="1"> 
0 0 0 0 0 0 0 0 0 0 0 0 0 0 0 0 0 0 0 0 0 0 0 0 0 0 0 0 0 0 0 0 0 0 0 0 0 0 0 0 0 0 0 0 0 0 0 0 0 0 0 0 0 0 0 0 0 0 0 0 0 0 0 0 0 0 0 0 0 0 0 0 0 0 0 0 0 0 0 0 0 0 0 0 0 0 0 0 0 0 0 0 0 0 0 0 0 0 0 0 0 0 0 0 0 0 0 0 0 0 0 0 0 0 0 0 0 0 0 0 0 0 0 0 0 0 0 0 0 0 -1.9254e-07 -7.70159e-07 -1.73286e-06 -3.08064e-06 -4.81349e-06 -6.93143e-06 -9.43445e-06 -1.23225e-05 -1.55648e-05 -1.91303e-05 -2.3019e-05 -2.7231e-05 -3.17662e-05 -3.66246e-05 -4.18062e-05 -4.73111e-05 -5.30885e-05 -5.90877e-05 -6.53086e-05 -7.17512e-05 -7.84156e-05 -8.53017e-05 -9.24096e-05 -9.97393e-05 -0.000107089 -0.000114258 -0.000121246 -0.000128053 -0.000134679 -0.000141124 -0.000147388 -0.000153471 -0.000159199 -0.000164398 -0.000169069 -0.000173211 -0.000176824 -0.000179908 -0.000182464 -0.000184491 -0.000186011 -0.000187046 -0.000187594 -0.000187658 -0.000187236 -0.000186328 -0.000184935 -0.000183056 -0.0001809 -0.000178675 -0.000176381 -0.000174019 -0.000171587 -0.000169087 -0.000166518 -0.000163879 -0.000161374 -0.000159202 -0.000157365 -0.000155862 -0.000154692 -0.000153857 -0.000153356 -0.000153189 -0.000153356 -0.000153857 -0.000154692 -0.000155862 -0.000157365 -0.000159202 -0.000161374 -0.000163879 -0.000166518 -0.000169087 -0.000171587 -0.000174019 -0.000176381 -0.000178675 -0.0001809 -0.000183056 -0.000184935 -0.000186328 -0.000187236 -0.000187658 -0.000187594 -0.000187046 -0.000186011 -0.000184491 -0.000182464 -0.000179908 -0.000176824 -0.000173211 -0.000169069 -0.000164398 -0.000159199 -0.000153471 -0.000147388 -0.000141124 -0.000134679 -0.000128053 -0.000121246 -0.000114258 -0.000107089 -9.97393e-05 -9.24096e-05 -8.53017e-05 -7.84156e-05 -7.17512e-05 -6.53086e-05 -5.90877e-05 -5.30885e-05 -4.73111e-05 -4.18062e-05 -3.66246e-05 -3.17661e-05 -2.72309e-05 -2.3019e-05 -1.91303e-05 -1.55648e-05 -1.23225e-05 -9.43444e-06 -6.93143e-06 -4.81349e-06 -3.08063e-06 -1.73286e-06 -7.70158e-07 -1.9254e-07 0 0 -7.70159e-07 -3.08064e-06 -6.93143e-06 -1.23225e-05 -1.9254e-05 -2.77257e-05 -3.77378e-05 -4.92902e-05 -6.22592e-05 -7.65211e-05 -9.2076e-05 -0.000108924 -0.000127065 -0.000146498 -0.000167225 -0.000189245 -0.000212354 -0.000236351 -0.000261234 -0.000287005 -0.000313662 -0.000341207 -0.000369639 -0.000398957 -0.000428357 -0.000457033 -0.000484985 -0.000512213 -0.000538717 -0.000564496 -0.000589552 -0.000613884 -0.000636796 -0.000657593 -0.000676275 -0.000692843 -0.000707296 -0.000719634 -0.000729857 -0.000737965 -0.000744045 -0.000748182 -0.000750378 -0.000750631 -0.000748943 -0.000745312 -0.000739739 -0.000732224 -0.0007236 -0.0007147 -0.000705525 -0.000696075 -0.000686349 -0.000676348 -0.000666071 -0.000655518 -0.000645496 -0.00063681 -0.00062946 -0.000623447 -0.00061877 -0.000615429 -0.000613425 -0.000612757 -0.000613425 -0.000615429 -0.00061877 -0.000623447 -0.00062946 -0.00063681 -0.000645496 -0.000655518 -0.000666071 -0.000676348 -0.000686349 -0.000696075 -0.000705525 -0.0007147 -0.0007236 -0.000732224 -0.000739739 -0.000745312 -0.000748943 -0.000750631 -0.000750378 -0.000748182 -0.000744045 -0.000737965 -0.000729857 -0.000719634 -0.000707296 -0.000692843 -0.000676275 -0.000657593 -0.000636796 -0.000613884 -0.000589552 -0.000564496 -0.000538717 -0.000512213 -0.000484985 -0.000457033 -0.000428357 -0.000398957 -0.000369639 -0.000341207 -0.000313662 -0.000287005 -0.000261234 -0.000236351 -0.000212354 -0.000189245 -0.000167225 -0.000146498 -0.000127065 -0.000108924 -9.2076e-05 -7.65211e-05 -6.22591e-05 -4.92901e-05 -3.77378e-05 -2.77257e-05 -1.9254e-05 -1.23225e-05 -6.93143e-06 -3.08063e-06 -7.70158e-07 0 0 -1.73286e-06 -6.93143e-06 -1.55957e-05 -2.77257e-05 -4.33214e-05 -6.23829e-05 -8.491e-05 -0.000110903 -0.000140083 -0.000172173 -0.000207171 -0.000245079 -0.000285895 -0.000329621 -0.000376256 -0.0004258 -0.000477797 -0.000531789 -0.000587777 -0.000645761 -0.00070574 -0.000767716 -0.000831687 -0.000897654 -0.000963804 -0.00102832 -0.00109122 -0.00115248 -0.00121211 -0.00127012 -0.00132649 -0.00138124 -0.00143279 -0.00147958 -0.00152162 -0.0015589 -0.00159142 -0.00161918 -0.00164218 -0.00166042 -0.0016741 -0.00168341 -0.00168835 -0.00168892 -0.00168512 -0.00167695 -0.00166441 -0.0016475 -0.0016281 -0.00160808 -0.00158743 -0.00156617 -0.00154429 -0.00152178 -0.00149866 -0.00147492 -0.00145237 -0.00143282 -0.00141629 -0.00140276 -0.00139223 -0.00138472 -0.00138021 -0.0013787 -0.00138021 -0.00138472 -0.00139223 -0.00140276 -0.00141629 -0.00143282 -0.00145237 -0.00147492 -0.00149866 -0.00152178 -0.00154429 -0.00156617 -0.00158743 -0.00160808 -0.0016281 -0.0016475 -0.00166441 -0.00167695 -0.00168512 -0.00168892 -0.00168835 -0.00168341 -0.0016741 -0.00166042 -0.00164218 -0.00161918 -0.00159142 -0.0015589 -0.00152162 -0.00147958 -0.00143279 -0.00138124 -0.00132649 -0.00127012 -0.00121211 -0.00115248 -0.00109122 -0.00102832 -0.000963804 -0.000897654 -0.000831687 -0.000767716 -0.00070574 -0.000645761 -0.000587777 -0.000531789 -0.000477797 -0.0004258 -0.000376256 -0.000329621 -0.000285895 -0.000245079 -0.000207171 -0.000172172 -0.000140083 -0.000110903 -8.491e-05 -6.23828e-05 -4.33214e-05 -2.77257e-05 -1.55957e-05 -6.93143e-06 -1.73286e-06 0 0 -3.08064e-06 -1.23225e-05 -2.77257e-05 -4.92902e-05 -7.70159e-05 -0.000110903 -0.000150951 -0.000197161 -0.000249037 -0.000306085 -0.000368304 -0.000435695 -0.000508258 -0.000585993 -0.0006689 -0.000756978 -0.000849416 -0.000945403 -0.00104494 -0.00114802 -0.00125465 -0.00136483 -0.00147855 -0.00159583 -0.00171343 -0.00182813 -0.00193994 -0.00204885 -0.00215487 -0.00225799 -0.00235821 -0.00245553 -0.00254718 -0.00263037 -0.0027051 -0.00277137 -0.00282918 -0.00287853 -0.00291943 -0.00295186 -0.00297618 -0.00299273 -0.00300151 -0.00300253 -0.00299577 -0.00298125 -0.00295896 -0.00292889 -0.0028944 -0.0028588 -0.0028221 -0.0027843 -0.0027454 -0.00270539 -0.00266428 -0.00262207 -0.00258198 -0.00254724 -0.00251784 -0.00249379 -0.00247508 -0.00246172 -0.0024537 -0.00245103 -0.0024537 -0.00246172 -0.00247508 -0.00249379 -0.00251784 -0.00254724 -0.00258198 -0.00262207 -0.00266428 -0.00270539 -0.0027454 -0.0027843 -0.0028221 -0.0028588 -0.0028944 -0.0029289 -0.00295896 -0.00298125 -0.00299577 -0.00300253 -0.00300151 -0.00299273 -0.00297618 -0.00295186 -0.00291943 -0.00287853 -0.00282918 -0.00277137 -0.0027051 -0.00263037 -0.00254718 -0.00245553 -0.00235821 -0.00225799 -0.00215487 -0.00204885 -0.00193994 -0.00182813 -0.00171343 -0.00159583 -0.00147855 -0.00136483 -0.00125465 -0.00114802 -0.00104494 -0.000945403 -0.000849416 -0.000756978 -0.0006689 -0.000585993 -0.000508258 -0.000435695 -0.000368304 -0.000306084 -0.000249037 -0.000197161 -0.000150951 -0.000110903 -7.70158e-05 -4.92901e-05 -2.77257e-05 -1.23225e-05 -3.08063e-06 0 0 -4.81349e-06 -1.9254e-05 -4.33214e-05 -7.70159e-05 -0.000120337 -0.000173286 -0.000235861 -0.000308064 -0.00038912 -0.000478257 -0.000575475 -0.000680774 -0.000794154 -0.000915614 -0.00104516 -0.00118278 -0.00132721 -0.00147719 -0.00163271 -0.00179378 -0.00196039 -0.00213254 -0.00231024 -0.00249348 -0.00267723 -0.00285646 -0.00303116 -0.00320133 -0.00336698 -0.0035281 -0.0036847 -0.00383677 -0.00397997 -0.00410996 -0.00422672 -0.00433027 -0.0044206 -0.00449771 -0.0045616 -0.00461228 -0.00465028 -0.00467614 -0.00468986 -0.00469145 -0.00468089 -0.0046582 -0.00462337 -0.0045764 -0.0045225 -0.00446688 -0.00440953 -0.00435047 -0.00428968 -0.00422717 -0.00416294 -0.00409699 -0.00403435 -0.00398006 -0.00393413 -0.00389654 -0.00386731 -0.00384643 -0.00383391 -0.00382973 -0.00383391 -0.00384643 -0.00386731 -0.00389654 -0.00393413 -0.00398006 -0.00403435 -0.00409699 -0.00416294 -0.00422717 -0.00428968 -0.00435047 -0.00440953 -0.00446688 -0.0045225 -0.0045764 -0.00462337 -0.0046582 -0.00468089 -0.00469145 -0.00468986 -0.00467614 -0.00465028 -0.00461228 -0.0045616 -0.00449771 -0.0044206 -0.00433027 -0.00422672 -0.00410996 -0.00397997 -0.00383677 -0.0036847 -0.0035281 -0.00336698 -0.00320133 -0.00303116 -0.00285646 -0.00267723 -0.00249348 -0.00231024 -0.00213254 -0.00196039 -0.00179378 -0.00163271 -0.00147719 -0.00132721 -0.00118278 -0.00104516 -0.000915614 -0.000794154 -0.000680774 -0.000575475 -0.000478257 -0.00038912 -0.000308063 -0.000235861 -0.000173286 -0.000120337 -7.70158e-05 -4.33214e-05 -1.9254e-05 -4.81349e-06 0 0 -6.93143e-06 -2.77257e-05 -6.23829e-05 -0.000110903 -0.000173286 -0.000249531 -0.00033964 -0.000443612 -0.000560333 -0.00068869 -0.000828684 -0.000980315 -0.00114358 -0.00131848 -0.00150502 -0.0017032 -0.00191119 -0.00212716 -0.00235111 -0.00258304 -0.00282296 -0.00307086 -0.00332675 -0.00359061 -0.00385522 -0.0041133 -0.00436487 -0.00460992 -0.00484845 -0.00508047 -0.00530597 -0.00552495 -0.00573116 -0.00591834 -0.00608648 -0.00623559 -0.00636566 -0.0064767 -0.00656871 -0.00664168 -0.0066964 -0.00673364 -0.0067534 -0.00675568 -0.00674048 -0.00670781 -0.00665765 -0.00659001 -0.0065124 -0.0064323 -0.00634973 -0.00626468 -0.00617714 -0.00608713 -0.00599463 -0.00589966 -0.00580946 -0.00573129 -0.00566514 -0.00561102 -0.00556893 -0.00553886 -0.00552082 -0.00551481 -0.00552082 -0.00553886 -0.00556893 -0.00561102 -0.00566514 -0.00573129 -0.00580946 -0.00589966 -0.00599463 -0.00608713 -0.00617714 -0.00626468 -0.00634973 -0.0064323 -0.0065124 -0.00659001 -0.00665765 -0.00670781 -0.00674048 -0.00675568 -0.0067534 -0.00673364 -0.0066964 -0.00664168 -0.00656871 -0.0064767 -0.00636566 -0.00623559 -0.00608648 -0.00591834 -0.00573116 -0.00552495 -0.00530597 -0.00508047 -0.00484845 -0.00460992 -0.00436487 -0.0041133 -0.00385522 -0.00359061 -0.00332675 -0.00307086 -0.00282296 -0.00258304 -0.00235111 -0.00212716 -0.00191119 -0.0017032 -0.00150502 -0.00131848 -0.00114358 -0.000980314 -0.000828684 -0.00068869 -0.000560332 -0.000443611 -0.00033964 -0.000249531 -0.000173286 -0.000110903 -6.23828e-05 -2.77257e-05 -6.93143e-06 0 0 -9.43445e-06 -3.77378e-05 -8.491e-05 -0.000150951 -0.000235861 -0.00033964 -0.000462288 -0.000603805 -0.000762675 -0.000937384 -0.00112793 -0.00133432 -0.00155654 -0.0017946 -0.00204851 -0.00231825 -0.00260134 -0.0028953 -0.00320012 -0.00351581 -0.00384236 -0.00417979 -0.00452807 -0.00488723 -0.00524738 -0.00559866 -0.00594107 -0.00627461 -0.00659928 -0.00691508 -0.00722201 -0.00752007 -0.00780075 -0.00805551 -0.00828437 -0.00848732 -0.00866437 -0.00881551 -0.00894074 -0.00904007 -0.00911455 -0.00916523 -0.00919213 -0.00919523 -0.00917455 -0.00913007 -0.0090618 -0.00896974 -0.0088641 -0.00875508 -0.00864269 -0.00852692 -0.00840778 -0.00828526 -0.00815936 -0.00803009 -0.00790732 -0.00780092 -0.00771089 -0.00763723 -0.00757993 -0.00753901 -0.00751445 -0.00750627 -0.00751445 -0.00753901 -0.00757993 -0.00763723 -0.00771089 -0.00780092 -0.00790732 -0.00803009 -0.00815936 -0.00828526 -0.00840778 -0.00852692 -0.00864269 -0.00875508 -0.0088641 -0.00896974 -0.0090618 -0.00913007 -0.00917455 -0.00919523 -0.00919213 -0.00916523 -0.00911455 -0.00904007 -0.00894074 -0.00881551 -0.00866437 -0.00848733 -0.00828437 -0.00805551 -0.00780075 -0.00752007 -0.00722201 -0.00691508 -0.00659928 -0.00627461 -0.00594107 -0.00559866 -0.00524738 -0.00488723 -0.00452807 -0.00417979 -0.00384236 -0.00351581 -0.00320012 -0.0028953 -0.00260134 -0.00231825 -0.00204851 -0.0017946 -0.00155654 -0.00133432 -0.00112793 -0.000937383 -0.000762675 -0.000603804 -0.000462288 -0.00033964 -0.000235861 -0.000150951 -8.491e-05 -3.77378e-05 -9.43444e-06 0 0 -1.23225e-05 -4.92902e-05 -0.000110903 -0.000197161 -0.000308064 -0.000443612 -0.000603805 -0.000788643 -0.000996147 -0.00122434 -0.00147322 -0.00174278 -0.00203303 -0.00234397 -0.0026756 -0.00302791 -0.00339767 -0.00378161 -0.00417975 -0.00459208 -0.0050186 -0.00545931 -0.00591422 -0.00638332 -0.00685372 -0.00731253 -0.00775976 -0.00819541 -0.00861947 -0.00903194 -0.00943283 -0.00982214 -0.0101887 -0.0105215 -0.0108204 -0.0110855 -0.0113167 -0.0115141 -0.0116777 -0.0118074 -0.0119047 -0.0119709 -0.012006 -0.0120101 -0.0119831 -0.011925 -0.0118358 -0.0117156 -0.0115776 -0.0114352 -0.0112884 -0.0111372 -0.0109816 -0.0108216 -0.0106571 -0.0104883 -0.0103279 -0.010189 -0.0100714 -0.00997515 -0.00990032 -0.00984687 -0.0098148 -0.00980411 -0.0098148 -0.00984687 -0.00990032 -0.00997515 -0.0100714 -0.010189 -0.0103279 -0.0104883 -0.0106571 -0.0108216 -0.0109816 -0.0111372 -0.0112884 -0.0114352 -0.0115776 -0.0117156 -0.0118358 -0.011925 -0.0119831 -0.0120101 -0.012006 -0.0119709 -0.0119047 -0.0118074 -0.0116777 -0.0115141 -0.0113167 -0.0110855 -0.0108204 -0.0105215 -0.0101887 -0.00982214 -0.00943283 -0.00903194 -0.00861947 -0.00819541 -0.00775976 -0.00731253 -0.00685372 -0.00638332 -0.00591422 -0.00545931 -0.0050186 -0.00459208 -0.00417975 -0.00378161 -0.00339766 -0.00302791 -0.0026756 -0.00234397 -0.00203303 -0.00174278 -0.00147322 -0.00122434 -0.000996146 -0.000788642 -0.000603804 -0.000443611 -0.000308063 -0.000197161 -0.000110903 -4.92901e-05 -1.23225e-05 0 0 -1.55171e-05 -6.20686e-05 -0.000139654 -0.000248274 -0.000387929 -0.000558617 -0.00076034 -0.000993097 -0.00125411 -0.0015406 -0.00185256 -0.00219001 -0.00255293 -0.00294132 -0.0033552 -0.00379454 -0.00425518 -0.0047329 -0.00522771 -0.00573961 -0.00626859 -0.00681467 -0.00737783 -0.00795809 -0.00853923 -0.00910508 -0.00965562 -0.0101909 -0.0107108 -0.0112154 -0.0117047 -0.0121788 -0.0126237 -0.0130257 -0.0133848 -0.0137009 -0.0139742 -0.0142045 -0.0143919 -0.0145364 -0.01464 -0.0147048 -0.0147308 -0.0147179 -0.0146661 -0.0145756 -0.0144462 -0.0142779 -0.0140879 -0.0138932 -0.0136938 -0.0134898 -0.013281 -0.0130676 -0.0128495 -0.0126267 -0.0124157 -0.0122327 -0.012078 -0.0119513 -0.0118528 -0.0117825 -0.0117403 -0.0117262 -0.0117403 -0.0117825 -0.0118528 -0.0119513 -0.012078 -0.0122327 -0.0124157 -0.0126267 -0.0128495 -0.0130676 -0.013281 -0.0134898 -0.0136938 -0.0138932 -0.0140879 -0.0142779 -0.0144462 -0.0145756 -0.0146661 -0.0147179 -0.0147308 -0.0147048 -0.01464 -0.0145364 -0.0143919 -0.0142045 -0.0139742 -0.0137009 -0.0133848 -0.0130257 -0.0126237 -0.0121788 -0.0117048 -0.0112154 -0.0107108 -0.0101909 -0.00965562 -0.00910508 -0.00853923 -0.00795809 -0.00737783 -0.00681467 -0.00626859 -0.00573961 -0.00522771 -0.0047329 -0.00425518 -0.00379454 -0.00335519 -0.00294132 -0.00255293 -0.00219001 -0.00185256 -0.0015406 -0.00125411 -0.000993096 -0.000760339 -0.000558617 -0.000387928 -0.000248274 -0.000139654 -6.20685e-05 -1.55171e-05 0 0 -1.89397e-05 -7.57586e-05 -0.000170457 -0.000303035 -0.000473492 -0.000681828 -0.000928043 -0.00121214 -0.00152992 -0.00187721 -0.002254 -0.00266029 -0.00309609 -0.00356138 -0.00405618 -0.00458048 -0.00512888 -0.00569595 -0.00628171 -0.00688615 -0.00750928 -0.00815108 -0.00881157 -0.00949074 -0.0101689 -0.0108264 -0.0114633 -0.0120795 -0.012675 -0.0132499 -0.0138041 -0.0143376 -0.0148342 -0.0152776 -0.0156677 -0.0160045 -0.0162882 -0.0165186 -0.0166958 -0.0168197 -0.0168937 -0.0169211 -0.0169019 -0.0168362 -0.0167238 -0.0165648 -0.0163593 -0.0161071 -0.01583 -0.0155496 -0.0152659 -0.0149789 -0.0146886 -0.014395 -0.0140981 -0.0137979 -0.0135149 -0.0132696 -0.0130621 -0.0128923 -0.0127603 -0.0126659 -0.0126093 -0.0125905 -0.0126093 -0.0126659 -0.0127603 -0.0128923 -0.0130621 -0.0132696 -0.0135149 -0.0137979 -0.0140981 -0.014395 -0.0146886 -0.0149789 -0.0152659 -0.0155496 -0.01583 -0.0161071 -0.0163593 -0.0165648 -0.0167238 -0.0168362 -0.0169019 -0.0169211 -0.0168937 -0.0168197 -0.0166958 -0.0165186 -0.0162882 -0.0160045 -0.0156677 -0.0152776 -0.0148342 -0.0143376 -0.0138041 -0.0132499 -0.012675 -0.0120795 -0.0114633 -0.0108264 -0.0101689 -0.00949074 -0.00881157 -0.00815108 -0.00750928 -0.00688615 -0.00628171 -0.00569595 -0.00512888 -0.00458048 -0.00405618 -0.00356138 -0.00309609 -0.00266029 -0.002254 -0.00187721 -0.00152992 -0.00121214 -0.000928043 -0.000681827 -0.000473491 -0.000303034 -0.000170457 -7.57586e-05 -1.89396e-05 0 0 -2.25901e-05 -9.03604e-05 -0.000203311 -0.000361442 -0.000564753 -0.000813244 -0.00110692 -0.00144577 -0.00182359 -0.00223418 -0.00267753 -0.00315364 -0.00366252 -0.00420416 -0.00477856 -0.00538573 -0.00601877 -0.00667078 -0.00734176 -0.00803172 -0.00874065 -0.00946855 -0.0102154 -0.0109813 -0.0117428 -0.0124766 -0.0131828 -0.0138613 -0.0145122 -0.0151353 -0.0157308 -0.0162987 -0.0168203 -0.0172771 -0.0176691 -0.0179963 -0.0182587 -0.0184563 -0.0185892 -0.0186572 -0.0186656 -0.0186197 -0.0185195 -0.0183649 -0.018156 -0.0178928 -0.0175752 -0.0172032 -0.016804 -0.0164045 -0.0160047 -0.0156047 -0.0152043 -0.0148038 -0.0144029 -0.0140018 -0.0136257 -0.0132996 -0.0130238 -0.0127981 -0.0126225 -0.0124972 -0.0124219 -0.0123968 -0.0124219 -0.0124972 -0.0126225 -0.0127981 -0.0130238 -0.0132996 -0.0136257 -0.0140018 -0.0144029 -0.0148038 -0.0152043 -0.0156047 -0.0160047 -0.0164045 -0.016804 -0.0172032 -0.0175752 -0.0178928 -0.018156 -0.0183649 -0.0185195 -0.0186197 -0.0186656 -0.0186572 -0.0185892 -0.0184564 -0.0182587 -0.0179963 -0.0176691 -0.0172771 -0.0168203 -0.0162987 -0.0157308 -0.0151353 -0.0145122 -0.0138613 -0.0131828 -0.0124766 -0.0117428 -0.0109813 -0.0102154 -0.00946855 -0.00874065 -0.00803172 -0.00734176 -0.00667078 -0.00601877 -0.00538573 -0.00477856 -0.00420416 -0.00366252 -0.00315364 -0.00267753 -0.00223418 -0.00182359 -0.00144577 -0.00110691 -0.000813243 -0.000564752 -0.000361441 -0.000203311 -9.03603e-05 -2.25901e-05 0 0 -2.64685e-05 -0.000105874 -0.000238216 -0.000423496 -0.000661712 -0.000952865 -0.00129696 -0.00169398 -0.00213511 -0.00261149 -0.00312314 -0.00367005 -0.00425222 -0.00486965 -0.00552233 -0.00621028 -0.00692485 -0.00765737 -0.00840785 -0.0091763 -0.00996271 -0.0107671 -0.0115894 -0.0124297 -0.0132608 -0.0140556 -0.0148141 -0.0155363 -0.0162222 -0.0168718 -0.017485 -0.0180619 -0.0185819 -0.0190243 -0.0193891 -0.0196763 -0.0198858 -0.0200178 -0.0200722 -0.020049 -0.0199559 -0.0198007 -0.0195835 -0.0193042 -0.0189628 -0.0185594 -0.0180938 -0.0175662 -0.0170097 -0.0164577 -0.0159101 -0.0153669 -0.0148282 -0.0142939 -0.013764 -0.0132385 -0.0127479 -0.0123227 -0.011963 -0.0116687 -0.0114397 -0.0112762 -0.0111781 -0.0111454 -0.0111781 -0.0112762 -0.0114397 -0.0116687 -0.011963 -0.0123227 -0.0127479 -0.0132385 -0.013764 -0.0142939 -0.0148282 -0.0153669 -0.0159101 -0.0164577 -0.0170097 -0.0175662 -0.0180938 -0.0185594 -0.0189628 -0.0193042 -0.0195835 -0.0198007 -0.0199559 -0.020049 -0.0200722 -0.0200178 -0.0198858 -0.0196763 -0.0193891 -0.0190243 -0.0185819 -0.0180619 -0.017485 -0.0168718 -0.0162222 -0.0155363 -0.0148141 -0.0140556 -0.0132608 -0.0124297 -0.0115894 -0.0107671 -0.00996271 -0.0091763 -0.00840785 -0.00765737 -0.00692484 -0.00621028 -0.00552233 -0.00486964 -0.00425221 -0.00367005 -0.00312314 -0.00261149 -0.00213511 -0.00169398 -0.00129695 -0.000952864 -0.000661711 -0.000423495 -0.000238216 -0.000105874 -2.64684e-05 0 0 -3.05748e-05 -0.000122299 -0.000275173 -0.000489196 -0.000764369 -0.00110069 -0.00149816 -0.00195678 -0.00246448 -0.00300916 -0.00359084 -0.00420952 -0.00486518 -0.00555784 -0.0062875 -0.00705415 -0.00784711 -0.00865573 -0.00947999 -0.0103199 -0.0111755 -0.0120467 -0.0129335 -0.013836 -0.0147231 -0.0155635 -0.0163573 -0.0171045 -0.0178051 -0.0184592 -0.0190666 -0.0196274 -0.0201191 -0.0205192 -0.0208276 -0.0210443 -0.0211695 -0.0212029 -0.0211448 -0.020995 -0.0207644 -0.0204641 -0.0200939 -0.019654 -0.0191442 -0.0185646 -0.0179152 -0.017196 -0.0164473 -0.0157094 -0.0149822 -0.0142658 -0.0135602 -0.0128653 -0.0121812 -0.0115079 -0.0108817 -0.010339 -0.00987974 -0.00950402 -0.0092118 -0.00900306 -0.00887782 -0.00883608 -0.00887782 -0.00900306 -0.0092118 -0.00950402 -0.00987974 -0.010339 -0.0108817 -0.0115079 -0.0121812 -0.0128653 -0.0135602 -0.0142658 -0.0149822 -0.0157094 -0.0164473 -0.017196 -0.0179152 -0.0185646 -0.0191442 -0.019654 -0.0200939 -0.0204641 -0.0207644 -0.020995 -0.0211448 -0.0212029 -0.0211695 -0.0210443 -0.0208276 -0.0205192 -0.0201191 -0.0196274 -0.0190666 -0.0184592 -0.0178051 -0.0171045 -0.0163573 -0.0155635 -0.0147231 -0.013836 -0.0129335 -0.0120467 -0.0111755 -0.0103199 -0.00947999 -0.00865573 -0.00784711 -0.00705414 -0.0062875 -0.00555784 -0.00486518 -0.00420951 -0.00359084 -0.00300916 -0.00246448 -0.00195678 -0.00149816 -0.00110069 -0.000764368 -0.000489196 -0.000275173 -0.000122299 -3.05747e-05 0 0 -3.4909e-05 -0.000139636 -0.000314181 -0.000558544 -0.000872724 -0.00125672 -0.00171054 -0.00223417 -0.0028117 -0.00342719 -0.00408064 -0.00477205 -0.00550142 -0.00626876 -0.00707406 -0.00791732 -0.00878557 -0.00966586 -0.0105582 -0.0114625 -0.0123789 -0.0133073 -0.0142478 -0.0152002 -0.0161294 -0.0170001 -0.0178123 -0.0185659 -0.019261 -0.0198976 -0.0204756 -0.0209951 -0.0214319 -0.0217617 -0.0219846 -0.0221006 -0.0221097 -0.0220118 -0.021807 -0.0214953 -0.0210913 -0.0206098 -0.0200508 -0.0194143 -0.0187002 -0.0179086 -0.0170394 -0.0160928 -0.0151167 -0.0141595 -0.013221 -0.0123012 -0.0114003 -0.0105181 -0.00965463 -0.00880998 -0.00802692 -0.00734826 -0.00677402 -0.00630418 -0.00593875 -0.00567773 -0.00552112 -0.00546891 -0.00552112 -0.00567773 -0.00593875 -0.00630418 -0.00677402 -0.00734826 -0.00802692 -0.00880998 -0.00965463 -0.0105181 -0.0114003 -0.0123012 -0.013221 -0.0141595 -0.0151167 -0.0160928 -0.0170394 -0.0179086 -0.0187002 -0.0194143 -0.0200508 -0.0206098 -0.0210913 -0.0214953 -0.021807 -0.0220118 -0.0221097 -0.0221006 -0.0219846 -0.0217617 -0.0214319 -0.0209951 -0.0204756 -0.0198976 -0.019261 -0.0185659 -0.0178123 -0.0170001 -0.0161294 -0.0152002 -0.0142478 -0.0133073 -0.0123789 -0.0114625 -0.0105582 -0.00966586 -0.00878557 -0.00791731 -0.00707405 -0.00626875 -0.00550142 -0.00477204 -0.00408063 -0.00342718 -0.0028117 -0.00223417 -0.00171054 -0.00125672 -0.000872723 -0.000558543 -0.00031418 -0.000139636 -3.49089e-05 0 0 -3.94711e-05 -0.000157884 -0.00035524 -0.000631538 -0.000986778 -0.00142096 -0.00193408 -0.00252615 -0.00317677 -0.00386556 -0.00459251 -0.00535764 -0.00616093 -0.00700238 -0.007882 -0.00879979 -0.00974022 -0.0106878 -0.0116424 -0.0126042 -0.013573 -0.014549 -0.0155321 -0.0165223 -0.01748 -0.0183656 -0.0191791 -0.0199205 -0.0205898 -0.0211869 -0.021712 -0.022165 -0.0225202 -0.0227519 -0.0228602 -0.022845 -0.0227064 -0.0224443 -0.0220588 -0.0215498 -0.0209365 -0.0202379 -0.0194541 -0.018585 -0.0176308 -0.0165912 -0.0154664 -0.0142564 -0.013018 -0.0118079 -0.0106264 -0.0094732 -0.00834847 -0.00725217 -0.00618429 -0.00514484 -0.00418368 -0.00335068 -0.00264583 -0.00206913 -0.00162059 -0.00130021 -0.00110797 -0.0010439 -0.00110797 -0.00130021 -0.00162059 -0.00206913 -0.00264583 -0.00335068 -0.00418368 -0.00514484 -0.00618429 -0.00725217 -0.00834847 -0.0094732 -0.0106264 -0.0118079 -0.013018 -0.0142564 -0.0154664 -0.0165912 -0.0176308 -0.0185851 -0.0194541 -0.0202379 -0.0209365 -0.0215498 -0.0220588 -0.0224443 -0.0227064 -0.022845 -0.0228602 -0.0227519 -0.0225202 -0.022165 -0.021712 -0.0211869 -0.0205898 -0.0199205 -0.0191791 -0.0183656 -0.01748 -0.0165223 -0.0155321 -0.014549 -0.013573 -0.0126042 -0.0116424 -0.0106878 -0.00974022 -0.00879979 -0.007882 -0.00700238 -0.00616092 -0.00535763 -0.00459251 -0.00386556 -0.00317677 -0.00252615 -0.00193408 -0.00142096 -0.000986777 -0.000631537 -0.00035524 -0.000157884 -3.94711e-05 0 0 -4.42612e-05 -0.000177045 -0.00039835 -0.000708179 -0.00110653 -0.0015934 -0.0021688 -0.00283271 -0.0035597 -0.00432429 -0.00512648 -0.00596629 -0.0068437 -0.00775872 -0.00871134 -0.00970158 -0.0107111 -0.0117214 -0.0127327 -0.0137448 -0.0147579 -0.0157718 -0.0167866 -0.0178023 -0.0187748 -0.0196599 -0.0204577 -0.0211683 -0.0217914 -0.0223273 -0.0227759 -0.0231371 -0.023384 -0.0234898 -0.0234543 -0.0232776 -0.0229597 -0.0225005 -0.0219002 -0.0211586 -0.0203 -0.0193484 -0.0183038 -0.0171663 -0.0159359 -0.0146125 -0.0131962 -0.0116869 -0.010151 -0.00865485 -0.00719843 -0.00578176 -0.00440482 -0.00306763 -0.00177016 -0.000512441 0.000648047 0.0016538 0.00250483 0.00320112 0.00374268 0.00412951 0.00436161 0.00443897 0.00436161 0.00412951 0.00374268 0.00320112 0.00250483 0.0016538 0.000648047 -0.000512441 -0.00177016 -0.00306763 -0.00440482 -0.00578176 -0.00719843 -0.00865485 -0.010151 -0.0116869 -0.0131962 -0.0146125 -0.0159359 -0.0171663 -0.0183038 -0.0193484 -0.0203 -0.0211586 -0.0219002 -0.0225005 -0.0229597 -0.0232776 -0.0234543 -0.0234898 -0.023384 -0.0231371 -0.0227759 -0.0223273 -0.0217914 -0.0211683 -0.0204577 -0.0196599 -0.0187748 -0.0178023 -0.0167866 -0.0157718 -0.0147579 -0.0137448 -0.0127327 -0.0117214 -0.0107111 -0.00970157 -0.00871134 -0.00775871 -0.00684369 -0.00596628 -0.00512648 -0.00432428 -0.00355969 -0.00283271 -0.00216879 -0.0015934 -0.00110653 -0.000708178 -0.00039835 -0.000177044 -4.42611e-05 0 0 -4.92694e-05 -0.000197078 -0.000443425 -0.00078831 -0.00123173 -0.0017737 -0.0024142 -0.00315324 -0.00395963 -0.00480217 -0.00568086 -0.0065957 -0.00754669 -0.00853384 -0.00955714 -0.0106166 -0.0116907 -0.0127578 -0.0138181 -0.0148714 -0.0159178 -0.0169574 -0.01799 -0.0190157 -0.0199857 -0.0208511 -0.021612 -0.0222683 -0.0228201 -0.0232674 -0.0236102 -0.0238483 -0.023954 -0.0238992 -0.0236838 -0.023308 -0.0227716 -0.0220747 -0.0212174 -0.0201995 -0.019051 -0.0178019 -0.0164521 -0.0150017 -0.0134507 -0.011799 -0.0100467 -0.00819372 -0.00631697 -0.00449331 -0.00272276 -0.0010053 0.000659069 0.00227034 0.00382851 0.00533359 0.00671971 0.00792101 0.0089375 0.00976918 0.010416 0.0108781 0.0111553 0.0112477 0.0111553 0.0108781 0.010416 0.00976918 0.0089375 0.00792101 0.00671971 0.00533359 0.00382851 0.00227034 0.000659069 -0.0010053 -0.00272276 -0.00449331 -0.00631697 -0.00819372 -0.0100467 -0.011799 -0.0134507 -0.0150017 -0.0164521 -0.0178019 -0.019051 -0.0201995 -0.0212174 -0.0220747 -0.0227716 -0.023308 -0.0236838 -0.0238992 -0.023954 -0.0238483 -0.0236102 -0.0232674 -0.0228201 -0.0222683 -0.021612 -0.0208511 -0.0199857 -0.0190157 -0.01799 -0.0169574 -0.0159178 -0.0148714 -0.0138181 -0.0127578 -0.0116907 -0.0106166 -0.00955713 -0.00853383 -0.00754669 -0.00659569 -0.00568085 -0.00480216 -0.00395962 -0.00315324 -0.0024142 -0.0017737 -0.00123173 -0.00078831 -0.000443424 -0.000197077 -4.92693e-05 0 0 -5.4486e-05 -0.000217944 -0.000490374 -0.000871777 -0.00136215 -0.0019615 -0.00266982 -0.00348711 -0.00437572 -0.005298 -0.00625395 -0.00724357 -0.00826686 -0.00932382 -0.0104144 -0.0115387 -0.0126716 -0.0137879 -0.0148876 -0.0159708 -0.0170375 -0.0180875 -0.0191211 -0.020138 -0.0210847 -0.0219072 -0.0226056 -0.0231799 -0.02363 -0.023956 -0.024158 -0.0242358 -0.0241607 -0.023904 -0.0234657 -0.0228458 -0.0220443 -0.0210612 -0.0198965 -0.0185502 -0.0170589 -0.0154592 -0.0137512 -0.0119349 -0.0100103 -0.0079773 -0.00583599 -0.00358634 -0.00131697 0.000883501 0.00301508 0.00507778 0.00707157 0.00899648 0.0108525 0.0126396 0.0142827 0.0157068 0.0169118 0.0178976 0.0186644 0.0192121 0.0195408 0.0196503 0.0195408 0.0192121 0.0186644 0.0178976 0.0169118 0.0157068 0.0142827 0.0126396 0.0108525 0.00899648 0.00707157 0.00507778 0.00301508 0.000883501 -0.00131697 -0.00358634 -0.00583599 -0.0079773 -0.0100103 -0.0119349 -0.0137512 -0.0154592 -0.0170589 -0.0185502 -0.0198965 -0.0210612 -0.0220443 -0.0228458 -0.0234657 -0.023904 -0.0241607 -0.0242358 -0.024158 -0.0239561 -0.02363 -0.0231799 -0.0226056 -0.0219072 -0.0210847 -0.020138 -0.0191211 -0.0180875 -0.0170375 -0.0159708 -0.0148876 -0.0137879 -0.0126716 -0.0115387 -0.0104144 -0.00932381 -0.00826685 -0.00724356 -0.00625394 -0.00529799 -0.00437571 -0.0034871 -0.00266981 -0.0019615 -0.00136215 -0.000871776 -0.000490374 -0.000217944 -5.4486e-05 0 0 -5.99111e-05 -0.000239645 -0.0005392 -0.000958578 -0.00149778 -0.0021568 -0.00293565 -0.00383431 -0.00480797 -0.00581179 -0.00684576 -0.0079099 -0.0090042 -0.0101287 -0.0112833 -0.012468 -0.0136539 -0.0148117 -0.0159414 -0.0170431 -0.0181167 -0.0191623 -0.0201799 -0.0211694 -0.0220718 -0.0228282 -0.0234386 -0.0239028 -0.024221 -0.0243932 -0.0244193 -0.0242993 -0.0240041 -0.0235043 -0.0228 -0.0218912 -0.0207778 -0.01946 -0.0179376 -0.0162107 -0.0143235 -0.0123203 -0.0102011 -0.00796587 -0.00561462 -0.00314736 -0.000564072 0.00213523 0.00484898 0.0074756 0.0100151 0.0124675 0.0148327 0.0171108 0.0193018 0.0214056 0.0233371 0.0250111 0.0264276 0.0275865 0.0284879 0.0291317 0.029518 0.0296468 0.029518 0.0291317 0.0284879 0.0275865 0.0264276 0.0250111 0.0233371 0.0214056 0.0193018 0.0171108 0.0148327 0.0124675 0.0100151 0.0074756 0.00484898 0.00213523 -0.000564072 -0.00314736 -0.00561462 -0.00796587 -0.0102011 -0.0123203 -0.0143235 -0.0162107 -0.0179376 -0.01946 -0.0207778 -0.0218912 -0.0228 -0.0235043 -0.0240041 -0.0242993 -0.0244193 -0.0243932 -0.024221 -0.0239028 -0.0234386 -0.0228282 -0.0220718 -0.0211694 -0.0201799 -0.0191623 -0.0181167 -0.0170431 -0.0159414 -0.0148117 -0.0136539 -0.012468 -0.0112833 -0.0101286 -0.00900419 -0.00790989 -0.00684576 -0.00581178 -0.00480796 -0.00383431 -0.00293564 -0.0021568 -0.00149778 -0.000958577 -0.0005392 -0.000239644 -5.99111e-05 0 0 -6.55446e-05 -0.000262179 -0.000589902 -0.00104871 -0.00163862 -0.00235961 -0.00321169 -0.00419486 -0.00525638 -0.00634353 -0.0074563 -0.00859469 -0.00975871 -0.0109483 -0.0121636 -0.0134045 -0.0146375 -0.0158291 -0.0169793 -0.0180882 -0.0191556 -0.0201817 -0.0211664 -0.0221097 -0.0229471 -0.0236142 -0.0241109 -0.0244372 -0.0245932 -0.0245788 -0.0243941 -0.024039 -0.0234841 -0.0227 -0.0216866 -0.020444 -0.0189721 -0.017271 -0.0153406 -0.013181 -0.010845 -0.0083852 -0.00580174 -0.00309458 -0.000263727 0.00269082 0.00576907 0.00897101 0.0121809 0.015283 0.0182773 0.0211637 0.0239424 0.0266133 0.0291764 0.0316316 0.0338829 0.035834 0.037485 0.0388357 0.0398863 0.0406368 0.041087 0.0412371 0.041087 0.0406368 0.0398863 0.0388357 0.037485 0.035834 0.0338829 0.0316316 0.0291764 0.0266133 0.0239424 0.0211637 0.0182773 0.015283 0.0121809 0.00897101 0.00576907 0.00269082 -0.000263727 -0.00309458 -0.00580174 -0.0083852 -0.010845 -0.013181 -0.0153406 -0.017271 -0.0189721 -0.020444 -0.0216866 -0.0227 -0.0234841 -0.024039 -0.0243941 -0.0245788 -0.0245932 -0.0244372 -0.0241109 -0.0236142 -0.0229471 -0.0221097 -0.0211664 -0.0201817 -0.0191556 -0.0180882 -0.0169793 -0.0158291 -0.0146375 -0.0134045 -0.0121636 -0.01094