<?xml version="1.0"?> 
<VTKFile type="StructuredGrid" version="0.1"> 
<StructuredGrid WholeExtent="0 128 0 128 0 0"> 
<Piece Extent="0 128 0 128 0 0"> 
<PointData>
<DataArray type="Float32" Name="u" format="ascii" NumberOfComponents="1"> 
0 0 0 0 0 0 0 0 0 0 0 0 0 0 0 0 0 0 0 0 0 0 0 0 0 0 0 0 0 0 0 0 0 0 0 0 0 0 0 0 0 0 0 0 0 0 0 0 0 0 0 0 0 0 0 0 0 0 0 0 0 0 0 0 0 0 0 0 0 0 0 0 0 0 0 0 0 0 0 0 0 0 0 0 0 0 0 0 0 0 0 0 0 0 0 0 0 0 0 0 0 0 0 0 0 0 0 0 0 0 0 0 0 0 0 0 0 0 0 0 0 0 0 0 0 0 0 0 0 0 9.24232e-07 3.69693e-06 8.31809e-06 1.47877e-05 2.31058e-05 3.32724e-05 4.52874e-05 5.91509e-05 7.44252e-05 9.06728e-05 0.000107894 0.000126088 0.000145255 0.000165396 0.00018651 0.000208597 0.000231791 0.000256225 0.000281898 0.000308811 0.000336964 0.000366357 0.00039699 0.000428862 0.000461808 0.000495661 0.000530421 0.000566088 0.000602662 0.000640143 0.000678531 0.000717826 0.000757643 0.000797599 0.000837692 0.000877922 0.000918291 0.000958797 0.000999441 0.00104022 0.00108063 0.00112017 0.00115883 0.00119661 0.00123351 0.00126954 0.00130469 0.00133896 0.00137188 0.00140297 0.00143223 0.00145967 0.00148527 0.00150905 0.001531 0.00155112 0.00156913 0.00158473 0.00159794 0.00160874 0.00161715 0.00162315 0.00162675 0.00162795 0.00162675 0.00162315 0.00161715 0.00160874 0.00159794 0.00158473 0.00156913 0.00155112 0.001531 0.00150905 0.00148527 0.00145967 0.00143223 0.00140297 0.00137188 0.00133896 0.00130469 0.00126954 0.00123351 0.00119661 0.00115883 0.00112017 0.00108064 0.00104022 0.000999441 0.000958797 0.000918291 0.000877923 0.000837692 0.000797599 0.000757644 0.000717826 0.000678531 0.000640143 0.000602662 0.000566088 0.000530421 0.000495661 0.000461808 0.000428863 0.00039699 0.000366358 0.000336965 0.000308812 0.000281899 0.000256225 0.000231792 0.000208598 0.000186511 0.000165397 0.000145256 0.000126089 0.000107894 9.06735e-05 7.44258e-05 5.91513e-05 4.52877e-05 3.32726e-05 2.3106e-05 1.47878e-05 8.31816e-06 3.69696e-06 9.2424e-07 0 0 3.69693e-06 1.47877e-05 3.32724e-05 5.91509e-05 9.24232e-05 0.000133089 0.00018115 0.000236603 0.000297701 0.000362691 0.000431575 0.000504352 0.000581021 0.000661584 0.00074604 0.000834389 0.000927164 0.0010249 0.00112759 0.00123525 0.00134786 0.00146543 0.00158796 0.00171545 0.00184723 0.00198264 0.00212168 0.00226435 0.00241065 0.00256057 0.00271412 0.0028713 0.00303057 0.00319039 0.00335077 0.00351169 0.00367316 0.00383519 0.00399776 0.00416089 0.00432254 0.00448068 0.00463531 0.00478643 0.00493405 0.00507815 0.00521875 0.00535583 0.00548751 0.00561187 0.00572892 0.00583866 0.00594109 0.0060362 0.006124 0.00620448 0.00627651 0.00633894 0.00639176 0.00643497 0.00646859 0.00649259 0.006507 0.0065118 0.006507 0.00649259 0.00646859 0.00643497 0.00639176 0.00633894 0.00627651 0.00620448 0.006124 0.0060362 0.00594109 0.00583866 0.00572892 0.00561187 0.00548751 0.00535583 0.00521875 0.00507815 0.00493405 0.00478643 0.00463531 0.00448068 0.00432254 0.00416089 0.00399776 0.00383519 0.00367316 0.00351169 0.00335077 0.0031904 0.00303057 0.0028713 0.00271412 0.00256057 0.00241065 0.00226435 0.00212168 0.00198265 0.00184723 0.00171545 0.00158796 0.00146543 0.00134786 0.00123525 0.0011276 0.0010249 0.000927168 0.000834393 0.000746044 0.000661588 0.000581025 0.000504355 0.000431578 0.000362694 0.000297703 0.000236605 0.000181151 0.000133091 9.2424e-05 5.91513e-05 3.32726e-05 1.47878e-05 3.69696e-06 0 0 8.31809e-06 3.32724e-05 7.48628e-05 0.000133089 0.000207952 0.000299451 0.000407586 0.000532358 0.000669827 0.000816056 0.000971044 0.00113479 0.0013073 0.00148856 0.00167859 0.00187738 0.00208612 0.00230602 0.00253708 0.0027793 0.00303268 0.00329721 0.00357291 0.00385976 0.00415627 0.00446095 0.00477379 0.00509479 0.00542396 0.00576128 0.00610678 0.00646043 0.00681879 0.00717839 0.00753922 0.0079013 0.00826462 0.00862917 0.00899497 0.00936201 0.00972571 0.0100815 0.0104294 0.0107695 0.0111016 0.0114258 0.0117422 0.0120506 0.0123469 0.0126267 0.0128901 0.013137 0.0133674 0.0135814 0.013779 0.0139601 0.0141221 0.0142626 0.0143815 0.0144787 0.0145543 0.0146083 0.0146408 0.0146516 0.0146408 0.0146083 0.0145543 0.0144787 0.0143814 0.0142626 0.0141221 0.0139601 0.013779 0.0135814 0.0133674 0.013137 0.0128901 0.0126267 0.0123469 0.0120506 0.0117422 0.0114258 0.0111016 0.0107695 0.0104294 0.0100815 0.00972572 0.00936201 0.00899497 0.00862918 0.00826462 0.0079013 0.00753923 0.00717839 0.00681879 0.00646044 0.00610678 0.00576129 0.00542396 0.00509479 0.00477379 0.00446095 0.00415628 0.00385976 0.00357291 0.00329722 0.00303268 0.00277931 0.00253709 0.00230603 0.00208613 0.00187738 0.0016786 0.00148857 0.00130731 0.0011348 0.00097105 0.000816062 0.000669832 0.000532362 0.00040759 0.000299454 0.000207954 0.000133091 7.48634e-05 3.32726e-05 8.31816e-06 0 0 1.47877e-05 5.91509e-05 0.000133089 0.000236603 0.000369693 0.000532358 0.000724598 0.000946414 0.0011908 0.00145077 0.0017263 0.00201741 0.00232409 0.00264634 0.00298416 0.00333756 0.00370866 0.00409959 0.00451037 0.00494098 0.00539143 0.00586171 0.00635184 0.00686179 0.00738893 0.00793057 0.00848673 0.0090574 0.00964259 0.0102423 0.0108565 0.0114852 0.0121223 0.0127616 0.0134031 0.0140468 0.0146927 0.0153408 0.0159911 0.0166436 0.0172902 0.0179227 0.0185412 0.0191457 0.0197362 0.0203126 0.020875 0.0214233 0.02195 0.0224475 0.0229157 0.0233546 0.0237643 0.0241448 0.024496 0.0248179 0.025106 0.0253557 0.025567 0.0257399 0.0258743 0.0259704 0.026028 0.0260472 0.026028 0.0259704 0.0258743 0.0257399 0.025567 0.0253557 0.025106 0.0248179 0.024496 0.0241448 0.0237643 0.0233546 0.0229157 0.0224475 0.02195 0.0214233 0.020875 0.0203126 0.0197362 0.0191457 0.0185412 0.0179227 0.0172902 0.0166436 0.0159911 0.0153408 0.0146927 0.0140468 0.0134031 0.0127616 0.0121223 0.0114852 0.0108565 0.0102423 0.00964259 0.00905741 0.00848674 0.00793058 0.00738894 0.0068618 0.00635184 0.00586172 0.00539144 0.00494099 0.00451038 0.00409961 0.00370867 0.00333757 0.00298417 0.00264635 0.0023241 0.00201742 0.00172631 0.00145078 0.00119081 0.000946421 0.000724604 0.000532362 0.000369696 0.000236605 0.000133091 5.91513e-05 1.47878e-05 0 0 2.31058e-05 9.24232e-05 0.000207952 0.000369693 0.000577645 0.000831809 0.00113218 0.00147877 0.00186063 0.00226682 0.00269734 0.0031522 0.00363138 0.0041349 0.00466275 0.00521493 0.00579478 0.00640562 0.00704745 0.00772028 0.00842411 0.00915893 0.00992474 0.0107216 0.0115452 0.0123915 0.0132605 0.0141522 0.0150665 0.0160036 0.0169633 0.0179456 0.0189411 0.01994 0.0209423 0.0219481 0.0229573 0.0239699 0.024986 0.0260056 0.0270159 0.0280042 0.0289707 0.0299152 0.0308378 0.0317384 0.0326172 0.033474 0.0342969 0.0350742 0.0358058 0.0364916 0.0371318 0.0377262 0.038275 0.038778 0.0392282 0.0396183 0.0399485 0.0402186 0.0404287 0.0405787 0.0406688 0.0406988 0.0406688 0.0405787 0.0404287 0.0402186 0.0399485 0.0396183 0.0392282 0.038778 0.038275 0.0377262 0.0371318 0.0364916 0.0358058 0.0350742 0.0342969 0.033474 0.0326172 0.0317384 0.0308378 0.0299152 0.0289707 0.0280042 0.0270159 0.0260056 0.024986 0.0239699 0.0229573 0.0219481 0.0209423 0.01994 0.0189411 0.0179457 0.0169633 0.0160036 0.0150666 0.0141522 0.0132605 0.0123915 0.0115452 0.0107216 0.00992476 0.00915894 0.00842412 0.0077203 0.00704747 0.00640564 0.0057948 0.00521495 0.00466277 0.00413492 0.0036314 0.00315222 0.00269736 0.00226684 0.00186065 0.00147878 0.00113219 0.000831816 0.00057765 0.000369696 0.000207954 9.2424e-05 2.3106e-05 0 0 3.32724e-05 0.000133089 0.000299451 0.000532358 0.000831809 0.0011978 0.00163035 0.00212943 0.00267931 0.00326422 0.00388417 0.00453916 0.00522919 0.00595426 0.00671436 0.0075095 0.00834448 0.00922409 0.0101483 0.0111172 0.0121307 0.0131889 0.0142916 0.015439 0.0166251 0.0178438 0.0190951 0.0203792 0.0216958 0.0230451 0.0244271 0.0258417 0.0272752 0.0287136 0.0301569 0.0316052 0.0330585 0.0345167 0.0359799 0.037448 0.0389029 0.0403261 0.0417178 0.0430779 0.0444064 0.0457034 0.0469687 0.0482025 0.0493876 0.0505069 0.0515603 0.052548 0.0534698 0.0543258 0.055116 0.0558403 0.0564886 0.0570504 0.0575258 0.0579148 0.0582173 0.0584334 0.058563 0.0586062 0.058563 0.0584334 0.0582173 0.0579148 0.0575258 0.0570504 0.0564886 0.0558403 0.055116 0.0543258 0.0534698 0.052548 0.0515603 0.0505069 0.0493876 0.0482025 0.0469687 0.0457034 0.0444064 0.0430779 0.0417178 0.0403261 0.0389029 0.037448 0.0359799 0.0345167 0.0330585 0.0316052 0.0301569 0.0287136 0.0272752 0.0258417 0.0244271 0.0230451 0.0216958 0.0203792 0.0190952 0.0178438 0.0166251 0.0154391 0.0142917 0.0131889 0.0121307 0.0111172 0.0101484 0.00922412 0.00834451 0.00750953 0.00671439 0.00595429 0.00522922 0.00453919 0.0038842 0.00326425 0.00267933 0.00212945 0.00163036 0.00119781 0.000831816 0.000532362 0.000299454 0.000133091 3.32726e-05 0 0 4.52874e-05 0.00018115 0.000407586 0.000724598 0.00113218 0.00163035 0.00221908 0.00289839 0.00364684 0.00444297 0.00528679 0.00617831 0.00711751 0.00810441 0.00913899 0.0102213 0.0113578 0.012555 0.013813 0.0151318 0.0165112 0.0179515 0.0194525 0.0210142 0.0226286 0.0242874 0.0259906 0.0277383 0.0295304 0.031367 0.033248 0.0351735 0.0371245 0.0390823 0.0410469 0.0430182 0.0449963 0.0469811 0.0489726 0.0509709 0.0529511 0.0548883 0.0567826 0.0586338 0.0604421 0.0622073 0.0639296 0.065609 0.067222 0.0687454 0.0701793 0.0715236 0.0727783 0.0739434 0.075019 0.0760049 0.0768873 0.077652 0.078299 0.0788284 0.0792402 0.0795343 0.0797108 0.0797696 0.0797108 0.0795343 0.0792402 0.0788284 0.078299 0.077652 0.0768873 0.0760049 0.075019 0.0739434 0.0727783 0.0715236 0.0701793 0.0687454 0.067222 0.065609 0.0639296 0.0622073 0.0604421 0.0586338 0.0567826 0.0548883 0.0529511 0.0509709 0.0489726 0.0469811 0.0449963 0.0430182 0.0410469 0.0390823 0.0371245 0.0351735 0.033248 0.031367 0.0295304 0.0277383 0.0259906 0.0242874 0.0226286 0.0210143 0.0194525 0.0179515 0.0165113 0.0151318 0.013813 0.012555 0.0113578 0.0102213 0.00913903 0.00810445 0.00711755 0.00617835 0.00528683 0.004443 0.00364686 0.00289842 0.0022191 0.00163036 0.00113219 0.000724604 0.00040759 0.000181151 4.52877e-05 0 0 5.91509e-05 0.000236603 0.000532358 0.000946414 0.00147877 0.00212943 0.00289839 0.00378566 0.00476321 0.00580306 0.0069052 0.00806963 0.00929634 0.0105853 0.0119366 0.0133502 0.0148346 0.0163984 0.0180415 0.0197639 0.0215657 0.0234469 0.0254073 0.0274472 0.0295557 0.0317223 0.0339469 0.0362296 0.0385703 0.0409691 0.043426 0.0459409 0.0484892 0.0510463 0.0536123 0.056187 0.0587706 0.061363 0.0639642 0.0665743 0.0691606 0.0716909 0.074165 0.0765829 0.0789447 0.0812504 0.0834999 0.0856933 0.0878002 0.08979 0.0916628 0.0934186 0.0950574 0.0965792 0.097984 0.0992717 0.100424 0.101423 0.102268 0.10296 0.103497 0.103882 0.104112 0.104189 0.104112 0.103882 0.103497 0.10296 0.102268 0.101423 0.100424 0.0992717 0.097984 0.0965792 0.0950574 0.0934186 0.0916628 0.08979 0.0878002 0.0856933 0.0834999 0.0812504 0.0789447 0.0765829 0.074165 0.0716909 0.0691606 0.0665743 0.0639642 0.061363 0.0587706 0.056187 0.0536123 0.0510463 0.0484892 0.0459409 0.043426 0.0409692 0.0385704 0.0362296 0.033947 0.0317223 0.0295557 0.0274472 0.0254074 0.0234469 0.0215658 0.019764 0.0180415 0.0163984 0.0148347 0.0133503 0.0119367 0.0105854 0.0092964 0.00806968 0.00690525 0.00580311 0.00476325 0.00378569 0.00289842 0.00212945 0.00147878 0.000946421 0.000532362 0.000236605 5.91513e-05 0 0 7.42475e-05 0.00029699 0.000668228 0.00118796 0.00185619 0.00267291 0.00363813 0.00475184 0.0059787 0.00728333 0.00866576 0.010126 0.011664 0.0132798 0.0149733 0.0167447 0.0186045 0.0205635 0.0226216 0.0247789 0.0270353 0.0293909 0.0318457 0.0343996 0.0370393 0.0397515 0.0425362 0.0453933 0.0483229 0.0513251 0.0543996 0.0575467 0.0607355 0.0639351 0.0671457 0.0703671 0.0735995 0.0768428 0.0800969 0.083362 0.0865974 0.0897625 0.0928572 0.0958817 0.0988359 0.10172 0.104533 0.107277 0.109912 0.1124 0.114742 0.116938 0.118988 0.120891 0.122648 0.124258 0.125699 0.126948 0.128005 0.12887 0.129543 0.130023 0.130311 0.130407 0.130311 0.130023 0.129543 0.12887 0.128005 0.126948 0.125699 0.124258 0.122648 0.120891 0.118988 0.116938 0.114742 0.1124 0.109912 0.107277 0.104533 0.10172 0.0988359 0.0958817 0.0928572 0.0897625 0.0865974 0.083362 0.0800969 0.0768428 0.0735995 0.0703671 0.0671457 0.0639351 0.0607355 0.0575467 0.0543997 0.0513251 0.048323 0.0453933 0.0425362 0.0397515 0.0370393 0.0343996 0.0318457 0.029391 0.0270354 0.024779 0.0226217 0.0205635 0.0186046 0.0167447 0.0149734 0.0132798 0.011664 0.010126 0.00866582 0.00728339 0.00597874 0.00475188 0.00363816 0.00267293 0.0018562 0.00118797 0.000668233 0.000296993 7.42481e-05 0 0 8.99621e-05 0.000359848 0.000809659 0.00143939 0.00224905 0.00323864 0.00440814 0.00575757 0.00724353 0.00882262 0.0104948 0.0122602 0.0141187 0.0160703 0.018115 0.0202529 0.0224968 0.0248596 0.0273413 0.0299419 0.0326614 0.0354997 0.038457 0.0415332 0.0447122 0.0479779 0.0513304 0.0547696 0.0582956 0.0619082 0.0656077 0.0693938 0.0732297 0.0770783 0.0809397 0.0848139 0.0887008 0.0926005 0.0965129 0.100438 0.104327 0.108132 0.111852 0.115487 0.119037 0.122503 0.125884 0.12918 0.132346 0.135336 0.13815 0.140788 0.143251 0.145537 0.147647 0.149582 0.151313 0.152813 0.154083 0.155121 0.155929 0.156506 0.156853 0.156968 0.156853 0.156506 0.155929 0.155121 0.154083 0.152813 0.151313 0.149582 0.147647 0.145537 0.143251 0.140788 0.13815 0.135336 0.132346 0.12918 0.125884 0.122503 0.119037 0.115487 0.111852 0.108132 0.104327 0.100438 0.0965129 0.0926005 0.0887008 0.0848139 0.0809398 0.0770784 0.0732297 0.0693938 0.0656077 0.0619083 0.0582956 0.0547697 0.0513305 0.047978 0.0447123 0.0415333 0.0384571 0.0354998 0.0326614 0.0299419 0.0273414 0.0248597 0.0224969 0.020253 0.0181151 0.0160704 0.0141188 0.0122603 0.0104949 0.00882269 0.00724359 0.00575762 0.00440818 0.00323866 0.00224907 0.00143941 0.000809666 0.000359851 8.99628e-05 0 0 0.000106295 0.000425178 0.000956651 0.00170071 0.00265736 0.0038266 0.00520843 0.00680285 0.00855773 0.0104209 0.0123925 0.0144723 0.0166605 0.018957 0.0213618 0.0238749 0.0265115 0.0292867 0.0322005 0.0352528 0.0384438 0.0417733 0.0452414 0.0488481 0.0525744 0.0564017 0.0603297 0.0643585 0.0684882 0.0727187 0.07705 0.0814822 0.0859719 0.090476 0.0949945 0.0995274 0.104075 0.108636 0.113212 0.117803 0.12235 0.126799 0.131148 0.135398 0.139548 0.143599 0.147551 0.151403 0.155103 0.158597 0.161886 0.164969 0.167846 0.170517 0.172983 0.175243 0.177265 0.179018 0.180501 0.181714 0.182658 0.183332 0.183736 0.183871 0.183736 0.183332 0.182658 0.181714 0.180501 0.179018 0.177265 0.175243 0.172983 0.170517 0.167846 0.164969 0.161886 0.158597 0.155103 0.151403 0.147551 0.143599 0.139548 0.135398 0.131148 0.126799 0.12235 0.117803 0.113212 0.108636 0.104075 0.0995274 0.0949945 0.090476 0.0859719 0.0814822 0.0770501 0.0727187 0.0684882 0.0643586 0.0603297 0.0564017 0.0525745 0.0488481 0.0452414 0.0417734 0.0384438 0.0352529 0.0322006 0.0292868 0.0265116 0.023875 0.0213619 0.0189571 0.0166606 0.0144724 0.0123925 0.010421 0.0085578 0.00680291 0.00520848 0.00382664 0.00265739 0.00170073 0.000956659 0.000425182 0.000106295 0 0 0.000123245 0.00049298 0.0011092 0.00197192 0.00308112 0.00443682 0.006039 0.00788768 0.00992128 0.0120782 0.0143586 0.0167623 0.0192894 0.0219398 0.0247136 0.0276108 0.0306487 0.0338449 0.0371992 0.0407118 0.0443826 0.0482116 0.0521987 0.0563441 0.060626 0.0650226 0.069534 0.07416 0.0789009 0.0837564 0.0887267 0.0938118 0.0989621 0.104128 0.10931 0.114507 0.119721 0.12495 0.130195 0.135455 0.140667 0.145764 0.150747 0.155615 0.160369 0.16501 0.169535 0.173947 0.178184 0.182184 0.18595 0.189479 0.192773 0.195831 0.198654 0.201241 0.203555 0.205562 0.207259 0.208648 0.209728 0.2105 0.210962 0.211117 0.210962 0.2105 0.209728 0.208648 0.207259 0.205561 0.203555 0.201241 0.198654 0.195831 0.192773 0.189479 0.18595 0.182184 0.178183 0.173947 0.169535 0.16501 0.160369 0.155615 0.150747 0.145764 0.140667 0.135455 0.130195 0.12495 0.119721 0.114507 0.10931 0.104128 0.0989621 0.0938118 0.0887268 0.0837565 0.0789009 0.0741601 0.069534 0.0650227 0.0606261 0.0563442 0.0521988 0.0482116 0.0443827 0.0407119 0.0371993 0.033845 0.0306488 0.0276109 0.0247137 0.0219399 0.0192895 0.0167624 0.0143587 0.0120783 0.00992136 0.00788774 0.00603905 0.00443685 0.00308115 0.00197194 0.00110921 0.000492984 0.000123246 0 0 0.000140813 0.000563253 0.00126732 0.00225301 0.00352033 0.00506928 0.00689985 0.00901205 0.0113342 0.0137946 0.0163932 0.0191301 0.0220053 0.0250187 0.0281704 0.0314604 0.0349083 0.038534 0.0423375 0.0463188 0.0504778 0.0548146 0.0593291 0.0640214 0.0688669 0.0738408 0.0789432 0.0841742 0.0895335 0.0950214 0.100638 0.106383 0.1122 0.118035 0.123886 0.129754 0.135639 0.141542 0.147461 0.153396 0.159276 0.165026 0.170647 0.176139 0.181501 0.186733 0.191837 0.19681 0.201587 0.206097 0.210341 0.21432 0.218033 0.22148 0.224661 0.227576 0.230184 0.232445 0.234358 0.235923 0.23714 0.238009 0.238531 0.238705 0.238531 0.238009 0.23714 0.235923 0.234358 0.232445 0.230184 0.227576 0.224661 0.22148 0.218033 0.21432 0.210341 0.206097 0.201587 0.19681 0.191837 0.186733 0.181501 0.176139 0.170647 0.165026 0.159276 0.153396 0.147461 0.141542 0.135639 0.129754 0.123886 0.118035 0.1122 0.106383 0.100638 0.0950215 0.0895336 0.0841742 0.0789433 0.0738409 0.068867 0.0640215 0.0593292 0.0548147 0.0504779 0.0463189 0.0423376 0.0385341 0.0349084 0.0314605 0.0281705 0.0250189 0.0220054 0.0191303 0.0163934 0.0137947 0.0113343 0.00901212 0.00689991 0.00506932 0.00352036 0.00225303 0.00126733 0.000563258 0.000140814 0 0 0.000158999 0.000635998 0.001431 0.00254399 0.00397499 0.00572398 0.00779097 0.010176 0.0127965 0.0155699 0.0184964 0.0215759 0.0248084 0.0281938 0.0317323 0.0354237 0.0392903 0.0433542 0.0476153 0.0520737 0.0567294 0.0615823 0.0666325 0.07188 0.0772971 0.0828563 0.0885575 0.0944009 0.100386 0.106514 0.112783 0.119195 0.125686 0.132196 0.138723 0.145268 0.151831 0.158411 0.16501 0.171626 0.178179 0.184587 0.19085 0.196968 0.202942 0.208771 0.214455 0.219994 0.225313 0.230335 0.235061 0.239491 0.243625 0.247462 0.251003 0.254248 0.257151 0.259667 0.261796 0.263538 0.264893 0.265861 0.266442 0.266635 0.266442 0.265861 0.264893 0.263538 0.261796 0.259667 0.257151 0.254248 0.251003 0.247462 0.243625 0.239491 0.235061 0.230335 0.225313 0.219994 0.214455 0.208771 0.202942 0.196968 0.19085 0.184587 0.178179 0.171626 0.16501 0.158411 0.151831 0.145268 0.138723 0.132196 0.125686 0.119195 0.112783 0.106514 0.100386 0.0944009 0.0885576 0.0828564 0.0772972 0.0718801 0.0666326 0.0615824 0.0567295 0.0520738 0.0476154 0.0433543 0.0392905 0.0354239 0.0317324 0.028194 0.0248085 0.021576 0.0184965 0.0155701 0.0127966 0.010176 0.00779104 0.00572403 0.00397502 0.00254401 0.00143101 0.000636003 0.000159001 0 0 0.000177804 0.000711214 0.00160023 0.00284486 0.00444509 0.00640093 0.00871237 0.0113794 0.0143081 0.0174043 0.0206681 0.0240995 0.0276985 0.0314651 0.0353992 0.0395009 0.0437948 0.0483054 0.0530326 0.0579766 0.0631373 0.0685148 0.0741089 0.0799197 0.0859166 0.092069 0.0983769 0.10484 0.111459 0.118233 0.125163 0.132248 0.13942 0.146611 0.15382 0.161048 0.168294 0.175559 0.182842 0.190144 0.197374 0.204445 0.211355 0.218104 0.224693 0.231122 0.23739 0.243497 0.249361 0.254899 0.260109 0.264992 0.269549 0.273779 0.277682 0.281258 0.284457 0.28723 0.289576 0.291495 0.292988 0.294055 0.294695 0.294908 0.294695 0.294055 0.292988 0.291495 0.289576 0.28723 0.284457 0.281258 0.277682 0.273779 0.269549 0.264992 0.260109 0.254899 0.249361 0.243497 0.23739 0.231122 0.224693 0.218104 0.211355 0.204445 0.197374 0.190144 0.182842 0.175559 0.168294 0.161048 0.15382 0.146611 0.13942 0.132248 0.125163 0.118233 0.111459 0.10484 0.0983769 0.0920691 0.0859167 0.0799198 0.074109 0.0685149 0.0631375 0.0579768 0.0530328 0.0483055 0.0437949 0.0395011 0.0353994 0.0314652 0.0276987 0.0240997 0.0206683 0.0174044 0.0143082 0.0113795 0.00871244 0.00640098 0.00444512 0.00284488 0.00160024 0.00071122 0.000177805 0 0 0.000197226 0.000788902 0.00177503 0.00315561 0.00493064 0.00710012 0.00966405 0.0126224 0.0158691 0.0192977 0.0229083 0.026701 0.0306757 0.0348324 0.0391711 0.0436919 0.0484217 0.0533876 0.0585895 0.0640276 0.0697017 0.075612 0.0817583 0.0881407 0.0947255 0.101479 0.108401 0.115492 0.122752 0.13018 0.137777 0.145543 0.153402 0.161281 0.169178 0.177095 0.18503 0.192984 0.200958 0.20895 0.216863 0.2246 0.232161 0.239546 0.246754 0.253786 0.260642 0.267321 0.273733 0.279788 0.285485 0.290824 0.295806 0.30043 0.304696 0.308604 0.312101 0.315131 0.317695 0.319793 0.321425 0.322591 0.32329 0.323523 0.32329 0.322591 0.321425 0.319793 0.317695 0.315131 0.312101 0.308604 0.304696 0.30043 0.295806 0.290824 0.285485 0.279788 0.273733 0.267321 0.260642 0.253786 0.246754 0.239546 0.232161 0.2246 0.216863 0.20895 0.200958 0.192984 0.18503 0.177095 0.169178 0.161281 0.153402 0.145543 0.137777 0.13018 0.122752 0.115492 0.108401 0.101479 0.0947256 0.0881408 0.0817584 0.0756121 0.0697019 0.0640277 0.0585897 0.0533877 0.0484218 0.0436921 0.0391713 0.0348326 0.0306759 0.0267012 0.0229085 0.0192978 0.0158692 0.0126225 0.00966413 0.00710018 0.00493068 0.00315563 0.00177504 0.000788909 0.000197227 0 0 0.000217246 0.000868984 0.00195521 0.00347593 0.00543115 0.00782085 0.0106451 0.0139037 0.0174778 0.0212483 0.0252151 0.0293782 0.0337377 0.0382935 0.0430456 0.0479941 0.0531684 0.0585982 0.0642834 0.0702239 0.0764199 0.0828713 0.089578 0.0965402 0.103721 0.111083 0.118628 0.126354 0.134261 0.142351 0.150622 0.159075 0.167629 0.176201 0.184793 0.193404 0.202034 0.210683 0.219351 0.228038 0.236639 0.245047 0.253263 0.261286 0.269117 0.276756 0.284201 0.291455 0.298418 0.304992 0.311178 0.316974 0.322383 0.327402 0.332033 0.336275 0.34007 0.343358 0.346141 0.348418 0.350189 0.351454 0.352213 0.352466 0.352213 0.351454 0.350189 0.348418 0.346141 0.343358 0.34007 0.336275 0.332033 0.327402 0.322383 0.316974 0.311178 0.304992 0.298418 0.291455 0.284201 0.276756 0.269117 0.261286 0.253263 0.245047 0.236639 0.228038 0.219351 0.210683 0.202034 0.193404 0.184793 0.176201 0.167629 0.159075 0.150622 0.142351 0.134262 0.126354 0.118628 0.111084 0.103721 0.0965403 0.0895782 0.0828714 0.07642 0.0702241 0.0642835 0.0585984 0.0531686 0.0479943 0.0430458 0.0382937 0.0337379 0.0293784 0.0252152 0.0212484 0.017478 0.0139039 0.0106451 0.00782092 0.00543119 0.00347596 0.00195523 0.000868991 0.000217248 0 0 0.000237845 0.00095138 0.00214061 0.00380552 0.00594613 0.00856242 0.0116544 0.0152221 0.0191329 0.0232543 0.0275863 0.0321289 0.036882 0.0418457 0.0470201 0.052405 0.0580325 0.0639347 0.0701115 0.076563 0.0832892 0.09029 0.0975655 0.105116 0.1129 0.12088 0.129054 0.137422 0.145985 0.154743 0.163695 0.172842 0.182096 0.191368 0.20066 0.209971 0.2193 0.228649 0.238017 0.247404 0.256695 0.265778 0.274652 0.283318 0.291774 0.300021 0.30806 0.31589 0.323405 0.3305 0.337176 0.343432 0.349268 0.354684 0.35968 0.364256 0.36835 0.371897 0.374899 0.377355 0.379266 0.38063 0.381449 0.381722 0.381449 0.38063 0.379266 0.377355 0.374899 0.371897 0.36835 0.364256 0.35968 0.354684 0.349268 0.343432 0.337176 0.3305 0.323405 0.31589 0.30806 0.300021 0.291774 0.283318 0.274652 0.265778 0.256695 0.247404 0.238017 0.228649 0.2193 0.209971 0.20066 0.191368 0.182096 0.172842 0.163695 0.154743 0.145985 0.137422 0.129054 0.12088 0.112901 0.105116 0.0975656 0.0902902 0.0832894 0.0765632 0.0701117 0.0639349 0.0580327 0.0524052 0.0470203 0.041846 0.0368822 0.0321291 0.0275865 0.0232545 0.0191331 0.0152222 0.0116545 0.00856249 0.00594618 0.00380555 0.00214062 0.000951388 0.000237847 0 0 0.000259023 0.00103609 0.00233121 0.00414437 0.00647558 0.00932483 0.0126921 0.0165775 0.0208342 0.0253157 0.030022 0.034953 0.0401087 0.0454893 0.0510945 0.0569246 0.0630139 0.0693971 0.0760741 0.083045 0.0903097 0.0978683 0.105721 0.113867 0.122264 0.130868 0.139679 0.148697 0.157923 0.167356 0.176996 0.186843 0.196803 0.206782 0.216779 0.226795 0.23683 0.246883 0.256955 0.267045 0.277032 0.286794 0.29633 0.30564 0.314724 0.323584 0.332217 0.340625 0.348695 0.356313 0.36348 0.370196 0.376461 0.382275 0.387637 0.392548 0.396941 0.400748 0.40397 0.406605 0.408655 0.410119 0.410998 0.411291 0.410998 0.410119 0.408655 0.406605 0.40397 0.400748 0.396941 0.392548 0.387637 0.382275 0.376461 0.370196 0.36348 0.356313 0.348695 0.340625 0.332217 0.323584 0.314724 0.30564 0.29633 0.286794 0.277032 0.267045 0.256955 0.246883 0.23683 0.226795 0.216779 0.206782 0.196803 0.186843 0.176996 0.167356 0.157923 0.148698 0.139679 0.130868 0.122264 0.113867 0.105721 0.0978684 0.0903099 0.0830452 0.0760743 0.0693973 0.0630141 0.0569248 0.0510948 0.0454895 0.040109 0.0349532 0.0300222 0.0253159 0.0208344 0.0165776 0.0126922 0.00932491 0.00647563 0.0041444 0.00233123 0.0010361 0.000259025 0 0 0.00028078 0.00112312 0.00252702 0.00449248 0.0070195 0.0101081 0.0137582 0.0179699 0.0225818 0.0274326 0.0325222 0.0378506 0.0434179 0.049224 0.055269 0.0615528 0.0681126 0.0749853 0.082171 0.0896697 0.0974813 0.105606 0.114044 0.122794 0.131811 0.141048 0.150504 0.160179 0.170075 0.18019 0.190524 0.201078 0.211751 0.222442 0.233151 0.243877 0.254622 0.265385 0.276165 0.286964 0.29765 0.308093 0.318294 0.328253 0.337969 0.347442 0.356673 0.365662 0.374287 0.38243 0.390091 0.397268 0.403963 0.410175 0.415905 0.421151 0.425844 0.429911 0.433352 0.436168 0.438357 0.439922 0.44086 0.441173 0.44086 0.439922 0.438357 0.436168 0.433352 0.429911 0.425844 0.421151 0.415905 0.410175 0.403963 0.397268 0.390091 0.38243 0.374287 0.365662 0.356673 0.347442 0.337969 0.328253 0.318294 0.308093 0.29765 0.286964 0.276165 0.265385 0.254622 0.243877 0.233151 0.222442 0.211751 0.201078 0.190524 0.18019 0.170075 0.16018 0.150504 0.141048 0.131811 0.122794 0.114044 0.105606 0.0974815 0.0896699 0.0821712 0.0749855 0.0681128 0.0615531 0.0552693 0.0492243 0.0434181 0.0378508 0.0325224 0.0274328 0.022582 0.0179701 0.0137583 0.0101082 0.00701955 0.00449251 0.00252704 0.00112313 0.000280782 0 0 0.000303116 0.00121246 0.00272804 0.00484985 0.00757789 0.0109122 0.0148527 0.0193994 0.0243757 0.0296048 0.0350868 0.0408217 0.0468094 0.05305 0.0595435 0.0662898 0.0733286 0.0806994 0.0884023 0.0964372 0.104804 0.113503 0.122534 0.131897 0.141542 0.151419 0.161528 0.171868 0.182441 0.193245 0.20428 0.215548 0.22694 0.238349 0.249775 0.261218 0.272677 0.284154 0.295648 0.307158 0.318548 0.329677 0.340547 0.351157 0.361507 0.371597 0.381428 0.390999 0.400182 0.408852 0.417007 0.424647 0.431773 0.438385 0.444482 0.450065 0.455058 0.459385 0.463047 0.466042 0.468372 0.470037 0.471035 0.471368 0.471035 0.470037 0.468372 0.466042 0.463047 0.459385 0.455058 0.450065 0.444482 0.438385 0.431773 0.424647 0.417007 0.408852 0.400182 0.390999 0.381428 0.371597 0.361507 0.351157 0.340547 0.329677 0.318548 0.307158 0.295648 0.284154 0.272677 0.261218 0.249775 0.238349 0.22694 0.215548 0.20428 0.193245 0.182441 0.171868 0.161528 0.151419 0.141543 0.131898 0.122534 0.113503 0.104804 0.0964374 0.0884025 0.0806996 0.0733288 0.0662901 0.0595437 0.0530503 0.0468097 0.0408219 0.0350871 0.029605 0.0243759 0.0193995 0.0148528 0.0109122 0.00757795 0.00484989 0.00272806 0.00121247 0.000303118 0 0 0.00032603 0.00130412 0.00293427 0.00521648 0.00815075 0.0117371 0.0159755 0.0208659 0.0262158 0.0318325 0.037716 0.0438663 0.0502833 0.0569672 0.0639179 0.0711354 0.0786619 0.0865394 0.0947679 0.103347 0.112278 0.12156 0.131193 0.141176 0.151458 0.161983 0.172751 0.183764 0.19502 0.20652 0.218264 0.230252 0.242369 0.254502 0.266651 0.278815 0.290995 0.303191 0.315403 0.32763 0.339726 0.351545 0.363087 0.374351 0.385339 0.396049 0.406481 0.416637 0.42638 0.435577 0.444229 0.452333 0.459892 0.466904 0.47337 0.47929 0.484584 0.489172 0.493054 0.49623 0.4987 0.500465 0.501524 0.501876 0.501524 0.500465 0.4987 0.49623 0.493054 0.489172 0.484584 0.47929 0.47337 0.466904 0.459892 0.452333 0.444229 0.435577 0.42638 0.416637 0.406481 0.396049 0.385339 0.374351 0.363087 0.351545 0.339726 0.32763 0.315403 0.303191 0.290995 0.278815 0.266651 0.254502 0.242369 0.230252 0.218264 0.20652 0.19502 0.183764 0.172752 0.161983 0.151458 0.141177 0.131193 0.12156 0.112278 0.103348 0.0947681 0.0865396 0.0786621 0.0711357 0.0639182 0.0569675 0.0502836 0.0438665 0.0377162 0.0318327 0.026216 0.0208661 0.0159756 0.0117372 0.00815081 0.00521652 0.00293429 0.00130413 0.000326032 0 0 0.000349523 0.00139809 0.00314571 0.00559237 0.00873808 0.0125828 0.0171266 0.0223695 0.0281022 0.0341156 0.0404096 0.0469843 0.0538397 0.0609757 0.0683924 0.0760898 0.0841125 0.0925052 0.101268 0.110401 0.119903 0.129776 0.140019 0.150631 0.161557 0.172738 0.184174 0.195866 0.207814 0.220017 0.232476 0.24519 0.258039 0.270902 0.283779 0.296671 0.309576 0.322496 0.33543 0.348378 0.361185 0.373698 0.385915 0.397837 0.409464 0.420796 0.431833 0.442575 0.452881 0.462608 0.471756 0.480327 0.488319 0.495733 0.502568 0.508825 0.51442 0.51927 0.523373 0.52673 0.529341 0.531206 0.532325 0.532698 0.532325 0.531206 0.529341 0.52673 0.523373 0.51927 0.51442 0.508825 0.502568 0.495733 0.488319 0.480327 0.471756 0.462608 0.452881 0.442575 0.431833 0.420796 0.409464 0.397837 0.385915 0.373698 0.361185 0.348378 0.33543 0.322496 0.309576 0.296671 0.28378 0.270902 0.258039 0.24519 0.232476 0.220017 0.207814 0.195867 0.184175 0.172738 0.161557 0.150632 0.140019 0.129776 0.119904 0.110401 0.101268 0.0925055 0.0841128 0.0760901 0.0683927 0.060976 0.05384 0.0469846 0.0404099 0.0341158 0.0281024 0.0223697 0.0171268 0.0125829 0.00873815 0.00559241 0.00314573 0.0013981 0.000349526 0 0 0.000373595 0.00149438 0.00336236 0.00597752 0.00933988 0.0134494 0.0183062 0.0239101 0.0300348 0.036454 0.0431677 0.0501758 0.0574784 0.0650754 0.0729669 0.0811528 0.0896804 0.0985969 0.107902 0.117596 0.12768 0.138152 0.149013 0.160262 0.17184 0.183685 0.195797 0.208176 0.220822 0.233735 0.246915 0.260363 0.27395 0.287549 0.30116 0.314784 0.32842 0.342069 0.355729 0.369402 0.382925 0.396134 0.40903 0.421614 0.433884 0.44584 0.457484 0.468815 0.479684 0.489942 0.49959 0.508627 0.517054 0.52487 0.532076 0.538672 0.544569 0.549679 0.554004 0.557542 0.560294 0.56226 0.563439 0.563832 0.563439 0.56226 0.560294 0.557542 0.554004 0.549679 0.544569 0.538672 0.532076 0.5248