<?xml version="1.0"?> 
<VTKFile type="StructuredGrid" version="0.1"> 
<StructuredGrid WholeExtent="0 128 0 128 0 0"> 
<Piece Extent="0 128 0 128 0 0"> 
<PointData>
<DataArray type="Float32" Name="u" format="ascii" NumberOfComponents="1"> 
0 0 0 0 0 0 0 0 0 0 0 0 0 0 0 0 0 0 0 0 0 0 0 0 0 0 0 0 0 0 0 0 0 0 0 0 0 0 0 0 0 0 0 0 0 0 0 0 0 0 0 0 0 0 0 0 0 0 0 0 0 0 0 0 0 0 0 0 0 0 0 0 0 0 0 0 0 0 0 0 0 0 0 0 0 0 0 0 0 0 0 0 0 0 0 0 0 0 0 0 0 0 0 0 0 0 0 0 0 0 0 0 0 0 0 0 0 0 0 0 0 0 0 0 0 0 0 0 0 0 2.4372e-06 9.74882e-06 2.19348e-05 3.89953e-05 6.09301e-05 8.77394e-05 0.000119423 0.000155981 0.00019555 0.000236266 0.000278129 0.00032114 0.000365297 0.000410602 0.000457054 0.000504653 0.000553462 0.000603544 0.000654898 0.000707524 0.000761424 0.000816595 0.00087304 0.000930756 0.000989339 0.00104838 0.00110788 0.00116784 0.00122825 0.00128913 0.00135046 0.00141225 0.00147397 0.00153511 0.00159565 0.0016556 0.00171495 0.00177372 0.00183189 0.00188947 0.00194593 0.00200072 0.00205385 0.00210532 0.00215513 0.00220328 0.00224977 0.0022946 0.00233733 0.00237756 0.00241526 0.00245045 0.00248313 0.00251329 0.00254093 0.00256606 0.00258844 0.00260783 0.00262424 0.00263767 0.00264811 0.00265557 0.00266005 0.00266154 0.00266005 0.00265557 0.00264811 0.00263767 0.00262424 0.00260783 0.00258844 0.00256606 0.00254093 0.00251329 0.00248313 0.00245045 0.00241526 0.00237756 0.00233734 0.0022946 0.00224977 0.00220328 0.00215513 0.00210532 0.00205385 0.00200072 0.00194593 0.00188947 0.00183189 0.00177372 0.00171495 0.0016556 0.00159565 0.00153511 0.00147398 0.00141225 0.00135046 0.00128913 0.00122825 0.00116784 0.00110788 0.00104838 0.000989342 0.00093076 0.000873044 0.0008166 0.000761428 0.000707529 0.000654903 0.000603549 0.000553468 0.000504659 0.00045706 0.000410608 0.000365303 0.000321145 0.000278134 0.000236271 0.000195554 0.000155984 0.000119425 8.77412e-05 6.09314e-05 3.89961e-05 2.19353e-05 9.74902e-06 2.43725e-06 0 0 9.74882e-06 3.89953e-05 8.77394e-05 0.000155981 0.00024372 0.000350957 0.000477692 0.000623924 0.0007822 0.000945064 0.00111252 0.00128456 0.00146119 0.00164241 0.00182822 0.00201861 0.00221385 0.00241417 0.00261959 0.0028301 0.00304569 0.00326638 0.00349216 0.00372303 0.00395735 0.00419352 0.00443151 0.00467134 0.00491301 0.0051565 0.00540183 0.005649 0.00589589 0.00614042 0.00638259 0.00662238 0.00685981 0.00709487 0.00732756 0.00755789 0.0077837 0.00800288 0.00821541 0.00842129 0.00862053 0.00881313 0.00899908 0.00917839 0.00934934 0.00951023 0.00966106 0.00980182 0.00993252 0.0100532 0.0101637 0.0102642 0.0103537 0.0104313 0.010497 0.0105507 0.0105924 0.0106223 0.0106402 0.0106462 0.0106402 0.0106223 0.0105924 0.0105507 0.010497 0.0104313 0.0103537 0.0102642 0.0101637 0.0100532 0.00993252 0.00980182 0.00966106 0.00951023 0.00934934 0.00917839 0.00899908 0.00881313 0.00862054 0.0084213 0.00821541 0.00800288 0.00778371 0.00755789 0.00732756 0.00709487 0.00685981 0.00662239 0.00638259 0.00614043 0.0058959 0.00564901 0.00540184 0.00515651 0.00491302 0.00467135 0.00443153 0.00419353 0.00395737 0.00372304 0.00349218 0.0032664 0.00304571 0.00283012 0.00261961 0.0024142 0.00221387 0.00201864 0.00182824 0.00164243 0.00146121 0.00128458 0.00111254 0.000945082 0.000782216 0.000623937 0.000477702 0.000350965 0.000243725 0.000155984 8.77412e-05 3.89961e-05 9.74902e-06 0 0 2.19348e-05 8.77394e-05 0.000197414 0.000350957 0.000548371 0.000789654 0.00107481 0.00140383 0.00175995 0.00212639 0.00250316 0.00289026 0.00328767 0.00369542 0.00411349 0.00454188 0.00498116 0.00543189 0.00589408 0.00636772 0.00685281 0.00734936 0.00785736 0.00837681 0.00890405 0.00943541 0.0099709 0.0105105 0.0110543 0.0116021 0.0121541 0.0127102 0.0132658 0.013816 0.0143608 0.0149004 0.0154346 0.0159635 0.016487 0.0170052 0.0175133 0.0180065 0.0184847 0.0189479 0.0193962 0.0198295 0.0202479 0.0206514 0.021036 0.021398 0.0217374 0.0220541 0.0223482 0.0226196 0.0228684 0.0230945 0.0232959 0.0234705 0.0236182 0.023739 0.023833 0.0239001 0.0239404 0.0239538 0.0239404 0.0239001 0.023833 0.023739 0.0236182 0.0234705 0.0232959 0.0230945 0.0228684 0.0226196 0.0223482 0.0220541 0.0217374 0.021398 0.021036 0.0206514 0.0202479 0.0198295 0.0193962 0.0189479 0.0184847 0.0180065 0.0175133 0.0170052 0.016487 0.0159635 0.0154346 0.0149004 0.0143608 0.013816 0.0132658 0.0127103 0.0121541 0.0116022 0.0110543 0.0105105 0.00997093 0.00943544 0.00890408 0.00837684 0.00785739 0.0073494 0.00685285 0.00636776 0.00589413 0.00543194 0.00498121 0.00454193 0.00411354 0.00369547 0.00328773 0.00289031 0.00250321 0.00212644 0.00175999 0.00140386 0.00107483 0.000789671 0.000548382 0.000350965 0.000197418 8.77412e-05 2.19353e-05 0 0 3.89953e-05 0.000155981 0.000350957 0.000623924 0.000974882 0.00140383 0.00191077 0.0024957 0.0031288 0.00378026 0.00445007 0.00513823 0.00584476 0.00656963 0.00731286 0.00807445 0.00885539 0.0096567 0.0104784 0.0113204 0.0121828 0.0130655 0.0139686 0.0148921 0.0158294 0.0167741 0.0177261 0.0186854 0.019652 0.020626 0.0216073 0.022596 0.0235836 0.0245617 0.0255303 0.0264895 0.0274392 0.0283795 0.0293102 0.0302315 0.0311348 0.0320115 0.0328616 0.0336852 0.0344821 0.0352525 0.0359963 0.0367135 0.0373974 0.0380409 0.0386442 0.0392073 0.0397301 0.0402126 0.0406549 0.041057 0.041415 0.0417253 0.0419879 0.0422027 0.0423698 0.0424891 0.0425607 0.0425846 0.0425607 0.0424891 0.0423698 0.0422027 0.0419879 0.0417253 0.041415 0.041057 0.0406549 0.0402126 0.0397301 0.0392073 0.0386442 0.0380409 0.0373974 0.0367136 0.0359963 0.0352525 0.0344821 0.0336852 0.0328616 0.0320115 0.0311348 0.0302316 0.0293103 0.0283795 0.0274393 0.0264895 0.0255304 0.0245617 0.0235836 0.022596 0.0216074 0.0206261 0.0196521 0.0186854 0.0177261 0.0167741 0.0158295 0.0148922 0.0139687 0.0130656 0.0121829 0.0113205 0.0104784 0.00965678 0.00885548 0.00807454 0.00731296 0.00656973 0.00584485 0.00513832 0.00445015 0.00378033 0.00312886 0.00249575 0.00191081 0.00140386 0.000974902 0.000623937 0.000350965 0.000155984 3.89961e-05 0 0 6.09301e-05 0.00024372 0.000548371 0.000974882 0.00152325 0.00219348 0.00298558 0.00389953 0.00488875 0.00590665 0.00695323 0.00802849 0.00913243 0.010265 0.0114263 0.0126163 0.0138366 0.0150886 0.0163724 0.0176881 0.0190356 0.0204149 0.021826 0.0232689 0.0247335 0.0262095 0.027697 0.0291959 0.0307063 0.0322281 0.0337615 0.0353062 0.0368493 0.0383776 0.0398912 0.0413899 0.0428738 0.0443429 0.0457973 0.0472368 0.0486482 0.050018 0.0513463 0.0526331 0.0538783 0.0550821 0.0562443 0.0573649 0.0584334 0.0594389 0.0603816 0.0612614 0.0620782 0.0628322 0.0635233 0.0641515 0.0647109 0.0651958 0.065606 0.0659417 0.0662028 0.0663893 0.0665012 0.0665385 0.0665012 0.0663893 0.0662028 0.0659417 0.065606 0.0651958 0.0647109 0.0641515 0.0635233 0.0628322 0.0620782 0.0612614 0.0603816 0.0594389 0.0584334 0.0573649 0.0562443 0.0550821 0.0538783 0.0526331 0.0513463 0.050018 0.0486482 0.0472368 0.0457973 0.044343 0.0428738 0.0413899 0.0398912 0.0383777 0.0368494 0.0353063 0.0337615 0.0322282 0.0307064 0.029196 0.027697 0.0262096 0.0247336 0.023269 0.0218261 0.020415 0.0190357 0.0176882 0.0163726 0.0150887 0.0138367 0.0126165 0.0114265 0.0102652 0.00913257 0.00802863 0.00695336 0.00590676 0.00488885 0.00389961 0.00298564 0.00219353 0.00152328 0.000974902 0.000548382 0.000243725 6.09314e-05 0 0 8.77394e-05 0.000350957 0.000789654 0.00140383 0.00219348 0.00315862 0.00429923 0.00561532 0.0070398 0.00850558 0.0100127 0.011561 0.0131507 0.0147817 0.0164539 0.0181675 0.0199246 0.0217276 0.0235763 0.0254709 0.0274112 0.0293974 0.0314294 0.0335072 0.0356162 0.0377417 0.0398836 0.0420421 0.0442171 0.0464085 0.0486165 0.050841 0.053063 0.0552638 0.0574433 0.0596014 0.0617383 0.0638538 0.065948 0.068021 0.0700533 0.0720259 0.0739387 0.0757916 0.0775848 0.0793182 0.0809917 0.0826055 0.0841441 0.0855921 0.0869495 0.0882164 0.0893927 0.0904784 0.0914736 0.0923781 0.0931837 0.0938819 0.0944727 0.0949561 0.095332 0.0956006 0.0957617 0.0958154 0.0957617 0.0956006 0.095332 0.0949561 0.0944727 0.0938819 0.0931837 0.0923781 0.0914736 0.0904784 0.0893927 0.0882164 0.0869495 0.0855921 0.0841441 0.0826055 0.0809917 0.0793182 0.0775848 0.0757917 0.0739387 0.0720259 0.0700534 0.068021 0.0659481 0.0638538 0.0617383 0.0596015 0.0574433 0.0552639 0.0530631 0.050841 0.0486166 0.0464086 0.0442172 0.0420422 0.0398837 0.0377418 0.0356163 0.0335074 0.0314296 0.0293976 0.0274114 0.0254711 0.0235765 0.0217278 0.0199248 0.0181677 0.0164542 0.0147819 0.0131509 0.0115612 0.0100128 0.00850574 0.00703994 0.00561544 0.00429932 0.00315868 0.00219353 0.00140386 0.000789671 0.000350965 8.77412e-05 0 0 0.000119423 0.000477692 0.00107481 0.00191077 0.00298558 0.00429923 0.00585173 0.00764307 0.00958195 0.011577 0.0136283 0.0157358 0.0178996 0.0201195 0.0223956 0.024728 0.0271196 0.0295736 0.03209 0.0346687 0.0373098 0.0400132 0.0427789 0.0456071 0.0484776 0.0513706 0.054286 0.0572239 0.0601843 0.0631672 0.0661725 0.0692002 0.0722247 0.0752202 0.0781867 0.0811242 0.0840326 0.0869121 0.0897626 0.0925841 0.0953504 0.0980353 0.100639 0.103161 0.105602 0.107961 0.110239 0.112435 0.114529 0.1165 0.118348 0.120072 0.121673 0.123151 0.124506 0.125737 0.126833 0.127784 0.128588 0.129246 0.129757 0.130123 0.130342 0.130415 0.130342 0.130123 0.129757 0.129246 0.128588 0.127784 0.126833 0.125737 0.124506 0.123151 0.121673 0.120072 0.118348 0.1165 0.114529 0.112435 0.110239 0.107961 0.105602 0.103161 0.100639 0.0980353 0.0953504 0.0925841 0.0897627 0.0869122 0.0840327 0.0811242 0.0781868 0.0752203 0.0722248 0.0692003 0.0661726 0.0631673 0.0601845 0.0572241 0.0542862 0.0513708 0.0484778 0.0456073 0.0427791 0.0400134 0.03731 0.0346689 0.0320902 0.0295739 0.0271199 0.0247283 0.0223959 0.0201198 0.0178998 0.0157361 0.0136286 0.0115773 0.00958214 0.00764323 0.00585185 0.00429932 0.00298564 0.00191081 0.00107483 0.000477702 0.000119425 0 0 0.000155981 0.000623924 0.00140383 0.0024957 0.00389953 0.00561532 0.00764307 0.00998279 0.0125152 0.015121 0.0178003 0.0205529 0.023379 0.0262785 0.0292515 0.0322978 0.0354216 0.0386268 0.0419135 0.0452816 0.0487311 0.0522621 0.0558745 0.0595684 0.0633177 0.0670963 0.0709042 0.0747415 0.0786081 0.082504 0.0864293 0.090384 0.0943343 0.0982468 0.102121 0.105958 0.109757 0.113518 0.117241 0.120926 0.124539 0.128046 0.131447 0.134741 0.137929 0.14101 0.143985 0.146854 0.149589 0.152164 0.154577 0.156829 0.15892 0.16085 0.16262 0.164228 0.16566 0.166901 0.167951 0.168811 0.169479 0.169957 0.170243 0.170338 0.170243 0.169957 0.169479 0.168811 0.167951 0.166901 0.16566 0.164228 0.16262 0.16085 0.15892 0.156829 0.154577 0.152164 0.149589 0.146854 0.143985 0.14101 0.137929 0.134741 0.131447 0.128046 0.124539 0.120926 0.117241 0.113518 0.109757 0.105958 0.102121 0.0982469 0.0943344 0.0903841 0.0864295 0.0825042 0.0786083 0.0747417 0.0709044 0.0670965 0.0633179 0.0595687 0.0558748 0.0522624 0.0487314 0.0452819 0.0419138 0.0386271 0.0354219 0.0322982 0.0292518 0.0262789 0.0233794 0.0205533 0.0178006 0.0151213 0.0125155 0.009983 0.00764323 0.00561544 0.00389961 0.00249575 0.00140386 0.000623937 0.000155984 0 0 0.000195341 0.000781365 0.00175807 0.00312546 0.00488353 0.00703229 0.00957173 0.0125018 0.0156731 0.0189359 0.0222903 0.0257363 0.0292739 0.032903 0.0366238 0.040436 0.044345 0.0483556 0.0524678 0.0566817 0.0609973 0.0654145 0.0699334 0.074554 0.0792436 0.0839697 0.0887322 0.0935313 0.0983667 0.103239 0.108147 0.113092 0.118031 0.122923 0.127767 0.132564 0.137313 0.142015 0.146669 0.151275 0.155791 0.160174 0.164425 0.168542 0.172526 0.176377 0.180095 0.18368 0.187098 0.190315 0.19333 0.196145 0.198758 0.201169 0.20338 0.205389 0.207178 0.208729 0.210041 0.211115 0.21195 0.212546 0.212904 0.213024 0.212904 0.212546 0.21195 0.211115 0.210041 0.208729 0.207178 0.205389 0.20338 0.201169 0.198758 0.196145 0.19333 0.190315 0.187098 0.18368 0.180095 0.176377 0.172526 0.168542 0.164425 0.160175 0.155791 0.151275 0.146669 0.142015 0.137313 0.132564 0.127767 0.122923 0.118031 0.113092 0.108147 0.103239 0.098367 0.0935315 0.0887325 0.08397 0.0792439 0.0745543 0.0699338 0.0654149 0.0609977 0.0566821 0.0524682 0.048356 0.0443454 0.0404365 0.0366242 0.0329035 0.0292743 0.0257368 0.0222907 0.0189363 0.0156734 0.0125021 0.00957193 0.00703244 0.00488364 0.00312553 0.00175811 0.000781382 0.000195345 0 0 0.000235432 0.000941727 0.00211889 0.00376691 0.00588579 0.00847554 0.0115362 0.0150676 0.0188892 0.0228201 0.0268604 0.03101 0.035269 0.0396373 0.0441149 0.0487019 0.0534044 0.0582284 0.0631741 0.0682414 0.0734302 0.0787407 0.0841728 0.0897265 0.0953626 0.101042 0.106764 0.11253 0.118339 0.124191 0.130086 0.136024 0.141955 0.147829 0.153644 0.159403 0.165103 0.170746 0.176331 0.181859 0.187278 0.192537 0.197636 0.202575 0.207354 0.211973 0.216432 0.220731 0.22483 0.228687 0.232303 0.235677 0.23881 0.241701 0.244351 0.246759 0.248904 0.250763 0.252336 0.253622 0.254623 0.255338 0.255767 0.25591 0.255767 0.255338 0.254623 0.253622 0.252336 0.250763 0.248904 0.246759 0.244351 0.241701 0.23881 0.235677 0.232303 0.228687 0.22483 0.220731 0.216432 0.211973 0.207354 0.202575 0.197636 0.192537 0.187278 0.181859 0.176331 0.170746 0.165103 0.159403 0.153645 0.147829 0.141955 0.136024 0.130086 0.124191 0.118339 0.11253 0.106765 0.101042 0.0953629 0.0897269 0.0841732 0.0787412 0.0734307 0.0682418 0.0631746 0.0582289 0.0534049 0.0487025 0.0441155 0.0396378 0.0352695 0.0310105 0.0268609 0.0228206 0.0188896 0.0150679 0.0115364 0.00847572 0.00588592 0.00376699 0.00211893 0.000941746 0.000235437 0 0 0.000276252 0.00110501 0.00248627 0.00442003 0.0069063 0.00994508 0.0135364 0.0176801 0.0221635 0.0267736 0.0315105 0.036374 0.0413643 0.0464812 0.0517249 0.0570954 0.0625998 0.0682454 0.0740323 0.0799605 0.08603 0.0922407 0.0985927 0.105086 0.111675 0.118313 0.125 0.131737 0.138524 0.14536 0.152245 0.15918 0.166106 0.172963 0.179753 0.186474 0.193127 0.199712 0.206229 0.212678 0.218999 0.225133 0.23108 0.236839 0.242412 0.247798 0.252996 0.258007 0.262784 0.26728 0.271494 0.275426 0.279076 0.282445 0.285532 0.288338 0.290836 0.293002 0.294834 0.296333 0.297499 0.298331 0.298831 0.298998 0.298831 0.298331 0.297499 0.296333 0.294834 0.293002 0.290836 0.288338 0.285532 0.282445 0.279076 0.275426 0.271494 0.26728 0.262784 0.258007 0.252996 0.247798 0.242412 0.236839 0.23108 0.225133 0.218999 0.212678 0.206229 0.199712 0.193127 0.186474 0.179753 0.172963 0.166106 0.15918 0.152245 0.14536 0.138524 0.131738 0.125001 0.118313 0.111675 0.105086 0.0985932 0.0922412 0.0860305 0.0799611 0.0740329 0.068246 0.0626004 0.057096 0.0517256 0.0464819 0.0413649 0.0363746 0.031511 0.0267742 0.022164 0.0176805 0.0135366 0.00994528 0.00690645 0.00442013 0.00248632 0.00110503 0.000276258 0 0 0.000317803 0.00127121 0.00286022 0.00508484 0.00794507 0.0114409 0.0155723 0.0203394 0.0254961 0.0307964 0.0362405 0.0418283 0.0475598 0.053435 0.0594538 0.0656164 0.0719311 0.0784065 0.0850426 0.0918392 0.0987965 0.105915 0.113193 0.120632 0.12818 0.135782 0.14344 0.151153 0.158922 0.166746 0.174626 0.18256 0.190483 0.198327 0.206092 0.213778 0.221385 0.228912 0.236361 0.243731 0.250954 0.257962 0.264756 0.271336 0.277701 0.283851 0.289787 0.295508 0.300962 0.306093 0.310903 0.315391 0.319557 0.323402 0.326925 0.330126 0.332976 0.335446 0.337536 0.339246 0.340576 0.341526 0.342096 0.342286 0.342096 0.341526 0.340576 0.339246 0.337536 0.335446 0.332976 0.330126 0.326925 0.323402 0.319557 0.315391 0.310903 0.306093 0.300962 0.295509 0.289787 0.283851 0.277701 0.271336 0.264756 0.257962 0.250954 0.243731 0.236361 0.228913 0.221385 0.213778 0.206092 0.198327 0.190483 0.182561 0.174626 0.166747 0.158923 0.151154 0.143441 0.135783 0.12818 0.120633 0.113194 0.105915 0.0987971 0.0918399 0.0850432 0.0784072 0.0719319 0.0656171 0.0594546 0.0534357 0.0475605 0.041829 0.0362412 0.030797 0.0254966 0.0203398 0.0155726 0.0114411 0.00794523 0.00508495 0.00286028 0.00127124 0.000317809 0 0 0.000360083 0.00144033 0.00324075 0.00576133 0.00900208 0.012963 0.0176441 0.0230453 0.0288868 0.0348885 0.0410506 0.0473729 0.0538555 0.0604984 0.0673016 0.0742651 0.0813985 0.0887118 0.0962047 0.103877 0.11173 0.119762 0.127974 0.136366 0.144878 0.15345 0.162084 0.170779 0.179534 0.18835 0.197227 0.206165 0.215087 0.22392 0.232662 0.241314 0.249876 0.258347 0.266729 0.275019 0.283144 0.291026 0.298666 0.306064 0.31322 0.320134 0.326805 0.333235 0.339362 0.345128 0.350531 0.355573 0.360253 0.364571 0.368528 0.372122 0.375322 0.378096 0.380443 0.382363 0.383856 0.384923 0.385563 0.385776 0.385563 0.384923 0.383856 0.382363 0.380443 0.378096 0.375322 0.372122 0.368528 0.364571 0.360253 0.355573 0.350531 0.345128 0.339362 0.333235 0.326805 0.320134 0.31322 0.306064 0.298666 0.291026 0.283144 0.275019 0.266729 0.258348 0.249876 0.241315 0.232663 0.22392 0.215088 0.206165 0.197227 0.18835 0.179534 0.170779 0.162085 0.153451 0.144878 0.136366 0.127975 0.119763 0.111731 0.103878 0.0962055 0.0887125 0.0813993 0.0742659 0.0673024 0.0604993 0.0538564 0.0473737 0.0410513 0.0348892 0.0288874 0.0230458 0.0176444 0.0129633 0.00900226 0.00576145 0.00324081 0.00144036 0.00036009 0 0 0.000403094 0.00161237 0.00362784 0.0064495 0.0100773 0.0145114 0.0197516 0.025798 0.0323357 0.03905 0.0459406 0.0530078 0.0602515 0.0676716 0.0752682 0.0830413 0.0910019 0.0991611 0.107519 0.116075 0.12483 0.133783 0.142935 0.152286 0.161769 0.171317 0.180932 0.190612 0.200359 0.210171 0.220049 0.229993 0.239919 0.249742 0.259464 0.269084 0.278602 0.288017 0.297331 0.306542 0.315568 0.324323 0.332809 0.341024 0.34897 0.356645 0.36405 0.371186 0.377985 0.384383 0.390378 0.395972 0.401163 0.405953 0.410341 0.414327 0.417876 0.420951 0.423553 0.425682 0.427338 0.428521 0.429231 0.429467 0.429231 0.428521 0.427338 0.425682 0.423553 0.420951 0.417876 0.414327 0.410341 0.405953 0.401163 0.395972 0.390378 0.384383 0.377985 0.371186 0.36405 0.356645 0.34897 0.341024 0.332809 0.324323 0.315568 0.306542 0.297331 0.288017 0.278602 0.269084 0.259464 0.249743 0.239919 0.229993 0.220049 0.210171 0.200359 0.190613 0.180932 0.171318 0.161769 0.152287 0.142936 0.133784 0.124831 0.116076 0.10752 0.099162 0.0910028 0.0830422 0.0752692 0.0676726 0.0602524 0.0530087 0.0459415 0.0390507 0.0323364 0.0257985 0.019752 0.0145117 0.0100775 0.00644963 0.00362792 0.00161241 0.000403102 0 0 0.000446834 0.00178734 0.00402151 0.00714935 0.0111709 0.016086 0.0218949 0.0285974 0.0358429 0.0432807 0.0509107 0.058733 0.0667476 0.0749545 0.0833537 0.0919452 0.100741 0.109755 0.118985 0.128432 0.138097 0.147979 0.158077 0.168393 0.178853 0.189383 0.199984 0.210655 0.221397 0.232209 0.243092 0.254045 0.264977 0.275794 0.286497 0.297086 0.307561 0.317921 0.328168 0.3383 0.348226 0.357854 0.367184 0.376216 0.38495 0.393385 0.401523 0.409362 0.416831 0.423858 0.430444 0.436587 0.442288 0.447548 0.452365 0.456741 0.460636 0.464012 0.466868 0.469205 0.471023 0.472321 0.4731 0.47336 0.4731 0.472321 0.471023 0.469205 0.466868 0.464012 0.460636 0.456741 0.452365 0.447548 0.442288 0.436587 0.430444 0.423858 0.416831 0.409362 0.401523 0.393385 0.38495 0.376216 0.367184 0.357855 0.348227 0.3383 0.328168 0.317922 0.307561 0.297086 0.286497 0.275794 0.264977 0.254045 0.243092 0.232209 0.221397 0.210656 0.199984 0.189384 0.178854 0.168394 0.158078 0.147979 0.138098 0.128433 0.118986 0.109755 0.100742 0.0919462 0.0833548 0.0749556 0.0667487 0.058734 0.0509116 0.0432815 0.0358436 0.028598 0.0218953 0.0160864 0.0111711 0.00714949 0.00402159 0.00178737 0.000446843 0 0 0.000491305 0.00196522 0.00442175 0.00786088 0.0122826 0.017687 0.0240739 0.0314435 0.0394082 0.0475807 0.0559608 0.0645486 0.073344 0.0823472 0.0915581 0.100977 0.110617 0.120492 0.130603 0.140949 0.151531 0.162348 0.1734 0.184687 0.19613 0.207648 0.21924 0.230907 0.242648 0.254465 0.266356 0.278321 0.290261 0.302074 0.313761 0.325321 0.336754 0.34806 0.35924 0.370293 0.381119 0.391619 0.401793 0.41164 0.42116 0.430354 0.439222 0.447763 0.4559 0.463555 0.470728 0.477419 0.483628 0.489355 0.4946 0.499364 0.503603 0.507278 0.510387 0.512931 0.514909 0.516322 0.51717 0.517453 0.51717 0.516322 0.514909 0.512931 0.510387 0.507278 0.503603 0.499364 0.4946 0.489355 0.483628 0.477419 0.470728 0.463555 0.4559 0.447763 0.439222 0.430354 0.42116 0.41164 0.401793 0.391619 0.38112 0.370293 0.35924 0.34806 0.336754 0.325321 0.313761 0.302075 0.290262 0.278322 0.266356 0.254465 0.242649 0.230907 0.21924 0.207648 0.196131 0.184688 0.173401 0.162348 0.151532 0.14095 0.130604 0.120493 0.110618 0.100978 0.0915592 0.0823483 0.0733452 0.0645496 0.0559618 0.0475816 0.039409 0.0314442 0.0240744 0.0176873 0.0122829 0.00786104 0.00442183 0.00196526 0.000491315 0 0 0.000536394 0.00214558 0.00482754 0.0085823 0.0134098 0.0193102 0.0262833 0.0343292 0.0430229 0.0519393 0.0610786 0.0704406 0.0800253 0.0898328 0.0998631 0.110116 0.120607 0.131352 0.142349 0.1536 0.165105 0.176862 0.188873 0.201137 0.213567 0.226076 0.238663 0.251329 0.264072 0.276895 0.289796 0.302775 0.315724 0.328533 0.341202 0.353732 0.366122 0.378372 0.390483 0.402454 0.414178 0.425546 0.43656 0.447218 0.457522 0.46747 0.477064 0.486302 0.495102 0.50338 0.511137 0.518371 0.525084 0.531275 0.536945 0.542092 0.546673 0.550644 0.554003 0.556752 0.55889 0.560417 0.561333 0.561638 0.561333 0.560417 0.55889 0.556752 0.554003 0.550644 0.546673 0.542092 0.536945 0.531275 0.525084 0.518371 0.511137 0.50338 0.495102 0.486302 0.477064 0.46747 0.457522 0.447218 0.43656 0.425546 0.414178 0.402454 0.390483 0.378373 0.366122 0.353732 0.341203 0.328533 0.315724 0.302776 0.289796 0.276895 0.264073 0.251329 0.238664 0.226077 0.213568 0.201138 0.188874 0.176863 0.165106 0.153601 0.14235 0.131353 0.120608 0.110117 0.0998644 0.0898341 0.0800265 0.0704417 0.0610796 0.0519403 0.0430237 0.0343299 0.0262838 0.0193106 0.0134101 0.00858247 0.00482764 0.00214562 0.000536404 0 0 0.000581989 0.00232795 0.0052379 0.00931182 0.0145497 0.0209516 0.0285174 0.0372473 0.0466779 0.0563461 0.0662519 0.0763952 0.0867762 0.0973947 0.108251 0.119344 0.130692 0.142311 0.154201 0.166361 0.178793 0.191495 0.204468 0.217712 0.231132 0.244634 0.258218 0.271883 0.285629 0.299458 0.313368 0.327359 0.341315 0.355118 0.368767 0.382263 0.395607 0.408796 0.421833 0.434717 0.447332 0.459563 0.471411 0.482874 0.493954 0.504651 0.514963 0.524892 0.534348 0.543243 0.551576 0.559348 0.566559 0.573208 0.579296 0.584823 0.589741 0.594004 0.59761 0.600561 0.602856 0.604496 0.605479 0.605807 0.605479 0.604496 0.602856 0.600561 0.59761 0.594004 0.589741 0.584823 0.579296 0.573208 0.566559 0.559348 0.551576 0.543243 0.534348 0.524892 0.514963 0.504651 0.493954 0.482874 0.471411 0.459563 0.447332 0.434717 0.421833 0.408797 0.395607 0.382264 0.368767 0.355118 0.341315 0.32736 0.313368 0.299458 0.28563 0.271883 0.258218 0.244635 0.231133 0.217713 0.204469 0.191496 0.178794 0.166362 0.154202 0.142312 0.130694 0.119346 0.108252 0.097396 0.0867775 0.0763965 0.066253 0.0563471 0.0466788 0.037248 0.028518 0.020952 0.01455 0.009312 0.005238 0.002328 0.000582 0 0 0.00062809 0.00251236 0.00565281 0.0100494 0.0157022 0.0226112 0.0307764 0.0401977 0.0503732 0.0608009 0.0714806 0.0824125 0.0935966 0.105033 0.116721 0.128661 0.140872 0.153371 0.166157 0.179232 0.192595 0.206245 0.220184 0.234411 0.248824 0.263322 0.277903 0.292569 0.307319 0.322153 0.337071 0.352074 0.367035 0.381829 0.396456 0.410915 0.425207 0.439333 0.45329 0.467081 0.480582 0.49367 0.506345 0.518608 0.530458 0.541895 0.55292 0.563532 0.573637 0.583142 0.592046 0.600349 0.608052 0.615154 0.621656 0.627557 0.632807 0.637358 0.641208 0.644358 0.646809 0.648559 0.649609 0.649959 0.649609 0.648559 0.646809 0.644358 0.641208 0.637358 0.632807 0.627557 0.621656 0.615154 0.608052 0.600349 0.592046 0.583142 0.573637 0.563532 0.55292 0.541895 0.530458 0.518608 0.506345 0.49367 0.480582 0.467081 0.453291 0.439333 0.425208 0.410915 0.396456 0.381829 0.367035 0.352074 0.337072 0.322154 0.307319 0.29257 0.277904 0.263322 0.248825 0.234412 0.220185 0.206247 0.192596 0.179233 0.166158 0.153372 0.140873 0.128663 0.116722 0.105034 0.0935979 0.0824139 0.0714819 0.060802 0.0503742 0.0401985 0.030777 0.0226117 0.0157025 0.0100496 0.00565292 0.00251241 0.000628102 0 0 0.000674697 0.00269879 0.00607227 0.0107951 0.0168674 0.0242891 0.0330601 0.0431806 0.0541089 0.0653037 0.0767649 0.0884925 0.100487 0.112747 0.125274 0.138067 0.151146 0.16453 0.178219 0.192212 0.206511 0.221114 0.236022 0.251235 0.266644 0.282139 0.29772 0.313387 0.329141 0.344981 0.360907 0.376919 0.392884 0.408667 0.424268 0.439687 0.454925 0.469981 0.484855 0.499547 0.513928 0.527867 0.541364 0.554419 0.567033 0.579205 0.590935 0.602223 0.61297 0.623078 0.632546 0.641375 0.649564 0.657113 0.664023 0.670293 0.675871 0.680706 0.684797 0.688144 0.690747 0.692606 0.693722 0.694094 0.693722 0.692606 0.690747 0.688144 0.684797 0.680706 0.675871 0.670293 0.664023 0.657113 0.649564 0.641375 0.632546 0.623078 0.61297 0.602223 0.590935 0.579205 0.567033 0.554419 0.541364 0.527867 0.513928 0.499547 0.484855 0.469981 0.454925 0.439687 0.424268 0.408667 0.392884 0.37692 0.360907 0.344981 0.329142 0.313388 0.297721 0.28214 0.266645 0.251236 0.236023 0.221115 0.206512 0.192213 0.17822 0.164531 0.151147 0.138069 0.125275 0.112748 0.100488 0.0884939 0.0767662 0.0653049 0.05411 0.0431814 0.0330608 0.0242895 0.0168677 0.0107954 0.00607239 0.00269884 0.00067471 0 0 0.00072181 0.00288724 0.00649629 0.011549 0.0180452 0.0259851 0.0353687 0.0461958 0.057885 0.0698546 0.0821046 0.0946351 0.107446 0.120537 0.133909 0.147561 0.161515 0.175789 0.190385 0.205302 0.22054 0.2361 0.251981 0.268184 0.284591 0.301086 0.317668 0.334338 0.351096 0.367941 0.384874 0.401895 0.418861 0.435631 0.452203 0.468579 0.484758 0.500741 0.516526 0.532115 0.54737 0.562154 0.576467 0.590308 0.603679 0.616579 0.629007 0.640964 0.652347 0.663051 0.673077 0.682425 0.691094 0.699085 0.706398 0.713032 0.718933 0.724048 0.728376 0.731917 0.734671 0.736638 0.737818 0.738212 0.737818 0.736638 0.734671 0.731917 0.728376 0.724048 0.718933 0.713032 0.706398 0.699085 0.691094 0.682425 0.673077 0.663051 0.652347 0.640964 0.629007 0.616579 0.603679 0.590308 0.576467 0.562154 0.54737 0.532115 0.516527 0.500741 0.484759 0.468579 0.452204 0.435631 0.418862 0.401895 0.384875 0.367942 0.351096 0.334339 0.317669 0.301086 0.284592 0.268185 0.251982 0.236101 0.220542 0.205303 0.190386 0.17579 0.161516 0.147563 0.133911 0.120539 0.107448 0.0946366 0.082106 0.0698559 0.0578861 0.0461967 0.0353693 0.0259856 0.0180456 0.0115492 0.00649641 0.00288729 0.000721823 0 0 0.000769429 0.00307771 0.00692486 0.0123109 0.0192357 0.0276994 0.037702 0.0492434 0.0617014 0.0744535 0.0874999 0.10084 0.114475 0.128404 0.142627 0.157144 0.171977 0.187148 0.202656 0.218501 0.234684 0.251204 0.268062 0.285257 0.302665 0.320162 0.337747 0.355421 0.373183 0.391034 0.408973 0.427001 0.444967 0.462721 0.480262 0.497591 0.514708 0.531613 0.548305 0.564785 0.580908 0.596531 0.611653 0.626275 0.640396 0.654017 0.667137 0.679757 0.691768 0.703062 0.713639 0.723499 0.732643 0.74107 0.74878 0.755773 0.761993 0.767384 0.771946 0.775678 0.778581 0.780654 0.781898 0.782313 0.781898 0.780654 0.778581 0.775678 0.771946 0.767384 0.761994 0.755773 0.74878 0.74107 0.732643 0.723499 0.713639 0.703062 0.691768 0.679757 0.667137 0.654017 0.640396 0.626275 0.611653 0.596531 0.580908 0.564785 0.548305 0.531613 0.514709 0.497592 0.480263 0.462721 0.444968 0.427002 0.408974 0.391035 0.373184 0.355422 0.337748 0.320163 0.302666 0.285258 0.268063 0.251206 0.234685 0.218503 0.202657 0.187149 0.171979 0.157146 0.142629 0.128406 0.114477 0.100842 0.0875013 0.0744549 0.0617025 0.0492444 0.0377027 0.0277 0.0192361 0.0123111 0.00692499 0.00307777 0.000769443 0 0 0.000817554 0.00327022 0.00735799 0.0130809 0.0204388 0.0294319 0.0400601 0.0523235 0.0655582 0.0791005 0.0929506 0.107108 0.121574 0.136347 0.151428 0.166816 0.182535 0.198607 0.215032 0.23181 0.248942 0.266426 0.284264 0.302455 0.320867 0.339368 0.357957 0.376636 0.395403 0.414259 0.433204 0.452238 0.471202 0.489938 0.508445 0.526724 0.544775 0.562597 0.580191 0.597556 0.614542 0.630998 0.646924 0.662319 0.677185 0.69152 0.705325 0.7186 0.731232 0.743109 0.754231 0.764598 0.774211 0.783068 0.79117 0.798518 0.805052 0.810715 0.815506 0.819427 0.822476 0.824654 0.825961 0.826397 0.825961 0.824654 0.822476 0.819427 0.815506 0.810715 0.805052 0.798518 0.79117 0.783068 0.774211 0.764598 0.754231 0.743109 0.731232 0.7186 0.705325 0.69152 0.677185 0.662319 0.646924 0.630998 0.614542 0.597556 0.580191 0.562597 0.544775 0.526724 0.508445 0.489938 0.471203 0.452239 0.433205 0.41426 0.395404 0.376637 0.357958 0.339369 0.320868 0.302456 0.284265 0.266428 0.248943 0.231812 0.215034 0.198608 0.182537 0.166818 0.151429 0.136349 0.121575 0.10711 0.0929521 0.0791019 0.0655594 0.0523244 0.0400609 0.0294325 0.0204392 0.0130811 0.00735812 0.00327028 0.000817569 0 0 0.000866185 0.00346474 0.00779567 0.013859 0.0216546 0.0311827 0.0424431 0.0554359 0.0694553 0.0837956 0.0984568 0.113439 0.128742 0.144366 0.160311 0.176576 0.193187 0.210166 0.227513 0.245229 0.263313 0.281766 0.300588 0.319778 0.339196 0.358703 0.378299 0.397983 0.417756 0.437617 0.457567 0.477605 0.497566 0.517281 0.536751 0.555977 0.574957 0.593693 0.612183 0.630429 0.648272 0.665555 0.682278 0.698441 0.714044 0.729087 0.74357 0.757493 0.770739 0.783193 0.794854 0.805722 0.815797 0.825079 0.833568 0.841264 0.848108 0.854039 0.859058 0.863164 0.866358 0.868639 0.870008 0.870464 0.870008 0.868639 0.866358 0.863164 0.859058 0.854039 0.848108 0.841264 0.833568 0.825079 0.815797 0.805722 0.794854 0.783193 0.77074 0.757493 0.74357 0.729087 0.714044 0.698441 0.682278 0.665555 0.648272 0.630429 0.612184 0.593693 0.574958 0.555977 0.536752 0.517281 0.497566 0.477606 0.457567 0.437618 0.417756 0.397984 0.3783 0.358704 0.339197 0.319779 0.300589 0.281768 0.263315 0.245231 0.227515 0.210167 0.193189 0.176578 0.160313 0.144368 0.128744 0.113441 0.0984584 0.083797 0.0694565 0.0554369 0.0424439 0.0311832 0.021655 0.0138592 0.00779581 0.0034648 0.000866201 0 0 0.000914824 0.0036593 0.00823342 0.0146372 0.0228706 0.0329337 0.0448264 0.0585488 0.0733528 0.0884907 0.103962 0.119768 0.135907 0.15238 0.169186 0.186