<?xml version="1.0"?> 
<VTKFile type="StructuredGrid" version="0.1"> 
<StructuredGrid WholeExtent="0 128 0 128 0 0"> 
<Piece Extent="0 128 0 128 0 0"> 
<PointData>
<DataArray type="Float32" Name="u" format="ascii" NumberOfComponents="1"> 
0 0 0 0 0 0 0 0 0 0 0 0 0 0 0 0 0 0 0 0 0 0 0 0 0 0 0 0 0 0 0 0 0 0 0 0 0 0 0 0 0 0 0 0 0 0 0 0 0 0 0 0 0 0 0 0 0 0 0 0 0 0 0 0 0 0 0 0 0 0 0 0 0 0 0 0 0 0 0 0 0 0 0 0 0 0 0 0 0 0 0 0 0 0 0 0 0 0 0 0 0 0 0 0 0 0 0 0 0 0 0 0 0 0 0 0 0 0 0 0 0 0 0 0 0 0 0 0 0 0 1.24999e-05 4.99994e-05 0.000112499 0.000199998 0.000312496 0.000449995 0.000612493 0.000799991 0.00099917 0.00119671 0.00139262 0.00158688 0.00177951 0.00197051 0.00215986 0.00234758 0.00253279 0.00271461 0.00289305 0.00306811 0.00323978 0.00340806 0.00357296 0.00373448 0.00389122 0.00404179 0.00418619 0.00432443 0.0044565 0.0045824 0.00470214 0.00481571 0.0049232 0.0050247 0.00512021 0.00520973 0.00529326 0.0053708 0.00544235 0.00550791 0.00556835 0.00562457 0.00567655 0.0057243 0.00576781 0.00580709 0.00584214 0.00587296 0.00590048 0.00592565 0.00594847 0.00596894 0.00598706 0.00600282 0.00601624 0.00602731 0.00603658 0.00604461 0.00605141 0.00605697 0.0060613 0.00606439 0.00606625 0.00606686 0.00606625 0.00606439 0.0060613 0.00605698 0.00605141 0.00604462 0.00603658 0.00602731 0.00601625 0.00600283 0.00598707 0.00596895 0.00594848 0.00592566 0.00590049 0.00587297 0.00584216 0.00580711 0.00576783 0.00572432 0.00567657 0.0056246 0.00556838 0.00550794 0.00544238 0.00537084 0.0052933 0.00520977 0.00512026 0.00502475 0.00492325 0.00481577 0.0047022 0.00458247 0.00445657 0.0043245 0.00418627 0.00404187 0.0038913 0.00373457 0.00357306 0.00340816 0.00323988 0.00306821 0.00289316 0.00271473 0.00253291 0.0023477 0.00215998 0.00197063 0.00177963 0.001587 0.00139272 0.0011968 0.00099925 0.000800056 0.000612543 0.000450031 0.000312522 0.000200014 0.000112508 5.00035e-05 1.25009e-05 0 0 4.99994e-05 0.000199998 0.000449995 0.000799991 0.00124999 0.00179998 0.00244997 0.00319996 0.00399668 0.00478685 0.00557047 0.00634754 0.00711806 0.00788203 0.00863946 0.00939033 0.0101312 0.0108585 0.0115722 0.0122724 0.0129591 0.0136322 0.0142918 0.0149379 0.0155649 0.0161671 0.0167448 0.0172977 0.017826 0.0183296 0.0188086 0.0192628 0.0196928 0.0200988 0.0204808 0.0208389 0.021173 0.0214832 0.0217694 0.0220316 0.0222734 0.0224983 0.0227062 0.0228972 0.0230712 0.0232284 0.0233686 0.0234918 0.0236019 0.0237026 0.0237939 0.0238758 0.0239482 0.0240113 0.024065 0.0241092 0.0241463 0.0241784 0.0242056 0.0242279 0.0242452 0.0242576 0.024265 0.0242675 0.024265 0.0242576 0.0242452 0.0242279 0.0242057 0.0241785 0.0241463 0.0241092 0.024065 0.0240113 0.0239483 0.0238758 0.0237939 0.0237027 0.023602 0.0234919 0.0233686 0.0232284 0.0230713 0.0228973 0.0227063 0.0224984 0.0222735 0.0220318 0.0217695 0.0214833 0.0211732 0.0208391 0.020481 0.020099 0.019693 0.0192631 0.0188088 0.0183299 0.0178263 0.017298 0.0167451 0.0161675 0.0155652 0.0149383 0.0142922 0.0136326 0.0129595 0.0122729 0.0115727 0.0108589 0.0101316 0.00939081 0.00863994 0.00788251 0.00711852 0.00634798 0.00557088 0.00478722 0.003997 0.00320022 0.00245017 0.00180013 0.00125009 0.000800056 0.000450031 0.000200014 5.00035e-05 0 0 0.000112499 0.000449995 0.00101249 0.00179998 0.00281247 0.00404995 0.00551244 0.00719992 0.00899253 0.0107704 0.0125335 0.014282 0.0160156 0.0177346 0.0194388 0.0211282 0.0227951 0.0244315 0.0260375 0.027613 0.029158 0.0306726 0.0321566 0.0336103 0.0350209 0.0363761 0.0376757 0.0389199 0.0401085 0.0412416 0.0423193 0.0433414 0.0443088 0.0452223 0.0460819 0.0468875 0.0476393 0.0483372 0.0489811 0.0495711 0.0501152 0.0506211 0.0510889 0.0515187 0.0519103 0.0522638 0.0525793 0.0528566 0.0531043 0.0533308 0.0535362 0.0537205 0.0538835 0.0540254 0.0541462 0.0542458 0.0543292 0.0544015 0.0544627 0.0545128 0.0545517 0.0545795 0.0545962 0.0546018 0.0545962 0.0545795 0.0545517 0.0545128 0.0544627 0.0544015 0.0543292 0.0542458 0.0541462 0.0540255 0.0538836 0.0537205 0.0535363 0.053331 0.0531044 0.0528567 0.0525794 0.052264 0.0519105 0.0515189 0.0510892 0.0506214 0.0501155 0.0495714 0.0489814 0.0483375 0.0476397 0.046888 0.0460823 0.0452227 0.0443093 0.0433419 0.0423198 0.0412422 0.0401091 0.0389205 0.0376764 0.0363768 0.0350217 0.0336111 0.0321575 0.0306734 0.0291589 0.0276139 0.0260385 0.0244325 0.0227962 0.0211293 0.0194399 0.0177356 0.0160167 0.014283 0.0125345 0.0107712 0.00899325 0.0072005 0.00551288 0.00405028 0.0028127 0.00180013 0.00101257 0.000450031 0.000112508 0 0 0.000199998 0.000799991 0.00179998 0.00319996 0.00499994 0.00719992 0.00979989 0.0127999 0.0159867 0.0191474 0.0222819 0.0253901 0.0284722 0.0315281 0.0345578 0.0375613 0.0405247 0.0434338 0.0462889 0.0490897 0.0518364 0.054529 0.0571674 0.0597516 0.0622594 0.0646686 0.0669791 0.0691909 0.071304 0.0733184 0.0752342 0.0770513 0.0787712 0.0803952 0.0819233 0.0833556 0.0846921 0.0859327 0.0870775 0.0881265 0.0890936 0.0899931 0.0908248 0.0915887 0.092285 0.0929135 0.0934742 0.0939673 0.0944076 0.0948104 0.0951755 0.095503 0.0957929 0.0960452 0.0962599 0.0964369 0.0965852 0.0967138 0.0968226 0.0969116 0.0969808 0.0970303 0.0970599 0.0970698 0.0970599 0.0970303 0.0969808 0.0969116 0.0968226 0.0967139 0.0965853 0.096437 0.09626 0.0960453 0.0957931 0.0955032 0.0951757 0.0948106 0.0944079 0.0939675 0.0934745 0.0929138 0.0922853 0.0915891 0.0908252 0.0899935 0.0890941 0.088127 0.0870781 0.0859334 0.0846928 0.0833564 0.0819241 0.080396 0.0787721 0.0770523 0.0752352 0.0733195 0.0713051 0.0691921 0.0669803 0.0646699 0.0622608 0.0597531 0.0571689 0.0545306 0.0518381 0.0490914 0.0462906 0.0434356 0.0405265 0.0375632 0.0345598 0.03153 0.0284741 0.0253919 0.0222835 0.0191489 0.015988 0.0128009 0.00980068 0.0072005 0.00500035 0.00320022 0.00180013 0.000800056 0.000200014 0 0 0.000312496 0.00124999 0.00281247 0.00499994 0.00781241 0.0112499 0.0153123 0.0199998 0.0249792 0.0299178 0.0348154 0.0396721 0.0444879 0.0492627 0.0539966 0.0586896 0.0633198 0.0678654 0.0723263 0.0767027 0.0809944 0.0852015 0.089324 0.0933619 0.0972804 0.101045 0.104655 0.108111 0.111412 0.11456 0.117553 0.120393 0.12308 0.125617 0.128005 0.130243 0.132331 0.13427 0.136059 0.137698 0.139209 0.140614 0.141914 0.143107 0.144195 0.145177 0.146054 0.146824 0.147512 0.148141 0.148712 0.149223 0.149676 0.150071 0.150406 0.150683 0.150914 0.151115 0.151285 0.151424 0.151533 0.15161 0.151656 0.151672 0.151656 0.15161 0.151533 0.151424 0.151285 0.151115 0.150915 0.150683 0.150406 0.150071 0.149677 0.149224 0.148712 0.148142 0.147512 0.146824 0.146054 0.145178 0.144196 0.143108 0.141914 0.140615 0.13921 0.137698 0.13606 0.134271 0.132332 0.130244 0.128006 0.125619 0.123081 0.120394 0.117555 0.114562 0.111414 0.108113 0.104657 0.101047 0.0972825 0.0933642 0.0893264 0.085204 0.080997 0.0767053 0.0723291 0.0678682 0.0633227 0.0586925 0.0539996 0.0492657 0.0444908 0.0396749 0.034818 0.0299201 0.0249812 0.0200014 0.0153136 0.0112508 0.00781304 0.00500035 0.0028127 0.00125009 0.000312522 0 0 0.000449995 0.00179998 0.00404995 0.00719992 0.0112499 0.0161998 0.0220497 0.0287997 0.0359701 0.0430816 0.0501342 0.0571278 0.0640625 0.0709383 0.0777551 0.084513 0.0911805 0.0977261 0.10415 0.110452 0.116632 0.12269 0.128627 0.134441 0.140084 0.145504 0.150703 0.155679 0.160434 0.164967 0.169277 0.173365 0.177235 0.180889 0.184327 0.18755 0.190557 0.193349 0.195924 0.198285 0.200461 0.202484 0.204356 0.206075 0.207641 0.209055 0.210317 0.211426 0.212417 0.213323 0.214145 0.214882 0.215534 0.216102 0.216585 0.216983 0.217317 0.217606 0.217851 0.218051 0.218207 0.218318 0.218385 0.218407 0.218385 0.218318 0.218207 0.218051 0.217851 0.217606 0.217317 0.216983 0.216585 0.216102 0.215534 0.214882 0.214145 0.213324 0.212418 0.211427 0.210318 0.209056 0.207642 0.206076 0.204357 0.202485 0.200462 0.198286 0.195926 0.19335 0.190559 0.187552 0.184329 0.180891 0.177237 0.173368 0.169279 0.164969 0.160437 0.155682 0.150706 0.145507 0.140087 0.134444 0.12863 0.122694 0.116636 0.110456 0.104154 0.0977302 0.0911847 0.0845173 0.0777594 0.0709426 0.0640667 0.0571318 0.0501379 0.043085 0.035973 0.028802 0.0220515 0.0162011 0.0112508 0.0072005 0.00405028 0.00180013 0.000450031 0 0 0.000612493 0.00244997 0.00551244 0.00979989 0.0153123 0.0220497 0.0300122 0.0391995 0.0489593 0.0586389 0.0682382 0.0777573 0.0871962 0.0965549 0.105833 0.115032 0.124107 0.133016 0.14176 0.150337 0.158749 0.166995 0.175075 0.182989 0.19067 0.198048 0.205123 0.211897 0.218368 0.224538 0.230405 0.23597 0.241237 0.24621 0.25089 0.255277 0.25937 0.263169 0.266675 0.269887 0.272849 0.275604 0.278151 0.280491 0.282623 0.284548 0.286265 0.287775 0.289123 0.290357 0.291475 0.292478 0.293366 0.294138 0.294796 0.295338 0.295792 0.296186 0.296519 0.296792 0.297004 0.297155 0.297246 0.297276 0.297246 0.297155 0.297004 0.296792 0.296519 0.296186 0.295793 0.295338 0.294796 0.294139 0.293366 0.292479 0.291476 0.290357 0.289124 0.287776 0.286266 0.284548 0.282624 0.280492 0.278152 0.275605 0.272851 0.269889 0.266677 0.263171 0.259372 0.255279 0.250893 0.246213 0.241239 0.235973 0.230408 0.224541 0.218372 0.211901 0.205127 0.198052 0.190674 0.182994 0.17508 0.167 0.158754 0.150342 0.141765 0.133022 0.124112 0.115037 0.105839 0.0965607 0.0872019 0.0777628 0.0682433 0.0586434 0.0489632 0.0392027 0.0300146 0.0220515 0.0153136 0.00980068 0.00551288 0.00245017 0.000612543 0 0 0.000799991 0.00319996 0.00719992 0.0127999 0.0199998 0.0287997 0.0391995 0.0511994 0.0639469 0.0765896 0.0891275 0.101561 0.113889 0.126113 0.138231 0.150245 0.162099 0.173735 0.185155 0.196359 0.207346 0.218116 0.22867 0.239006 0.249038 0.258674 0.267916 0.276763 0.285216 0.293274 0.300937 0.308205 0.315085 0.321581 0.327693 0.333423 0.338768 0.343731 0.34831 0.352506 0.356375 0.359972 0.363299 0.366355 0.36914 0.371654 0.373897 0.375869 0.377631 0.379242 0.380702 0.382012 0.383172 0.384181 0.385039 0.385748 0.386341 0.386855 0.38729 0.387646 0.387923 0.388121 0.38824 0.388279 0.38824 0.388121 0.387923 0.387647 0.387291 0.386855 0.386341 0.385748 0.38504 0.384181 0.383172 0.382013 0.380703 0.379242 0.377632 0.37587 0.373898 0.371655 0.369141 0.366356 0.363301 0.359974 0.356377 0.352508 0.348312 0.343733 0.338771 0.333425 0.327696 0.321584 0.315088 0.308209 0.300941 0.293278 0.285221 0.276768 0.267921 0.25868 0.249043 0.239012 0.228676 0.218122 0.207352 0.196366 0.185162 0.173743 0.162106 0.150253 0.138239 0.12612 0.113896 0.101568 0.089134 0.0765955 0.063952 0.0512036 0.0392027 0.028802 0.0200014 0.0128009 0.0072005 0.00320022 0.000800056 0 0 0.000999169 0.00399667 0.00899252 0.0159867 0.0249792 0.0359701 0.0489593 0.0639468 0.0798676 0.0956565 0.111314 0.126839 0.142232 0.157494 0.172624 0.187622 0.202418 0.216943 0.231196 0.245179 0.25889 0.272329 0.285498 0.298395 0.310909 0.322931 0.334459 0.345494 0.356035 0.366084 0.375639 0.384701 0.393277 0.401374 0.408993 0.416133 0.422795 0.428979 0.434684 0.43991 0.444728 0.449209 0.453352 0.457156 0.460624 0.463753 0.466545 0.468998 0.47119 0.473194 0.47501 0.47664 0.478081 0.479336 0.480403 0.481283 0.482021 0.48266 0.4832 0.483642 0.483986 0.484232 0.48438 0.484429 0.48438 0.484232 0.483987 0.483643 0.4832 0.48266 0.482021 0.481284 0.480404 0.479337 0.478082 0.47664 0.475011 0.473195 0.471191 0.469 0.466546 0.463755 0.460625 0.457158 0.453354 0.449211 0.444731 0.439913 0.434687 0.428982 0.422799 0.416137 0.408997 0.401378 0.393281 0.384705 0.375644 0.366089 0.356041 0.3455 0.334465 0.322937 0.310916 0.298402 0.285505 0.272337 0.258898 0.245187 0.231205 0.216952 0.202427 0.187631 0.172633 0.157503 0.142242 0.126848 0.111322 0.0956639 0.0798739 0.063952 0.0489632 0.035973 0.0249812 0.015988 0.00899325 0.003997 0.00099925 0 0 0.00119671 0.00478683 0.0107704 0.0191473 0.0299177 0.0430815 0.0586387 0.0765893 0.0956563 0.114563 0.133308 0.151893 0.170318 0.188582 0.206685 0.224627 0.242326 0.259698 0.276742 0.293459 0.309849 0.325912 0.341647 0.357056 0.372005 0.386362 0.400128 0.413303 0.425885 0.437877 0.449276 0.460084 0.47031 0.479964 0.489046 0.497555 0.505492 0.512857 0.519649 0.52587 0.531602 0.536932 0.541859 0.546383 0.550505 0.554223 0.557539 0.560452 0.563052 0.565429 0.567584 0.569516 0.571225 0.572712 0.573976 0.575017 0.575889 0.576645 0.577284 0.577808 0.578215 0.578505 0.57868 0.578738 0.57868 0.578505 0.578215 0.577808 0.577285 0.576645 0.57589 0.575018 0.573977 0.572713 0.571226 0.569517 0.567585 0.56543 0.563053 0.560453 0.557541 0.554225 0.550507 0.546386 0.541862 0.536935 0.531605 0.525873 0.519653 0.512861 0.505496 0.497559 0.48905 0.479969 0.470316 0.46009 0.449282 0.437883 0.425892 0.41331 0.400136 0.38637 0.372013 0.357064 0.341656 0.325921 0.309859 0.293469 0.276752 0.259708 0.242337 0.224639 0.206696 0.188593 0.170329 0.151904 0.133318 0.114571 0.0956638 0.0765954 0.0586434 0.0430849 0.0299201 0.0191489 0.0107712 0.00478721 0.0011968 0 0 0.00139261 0.00557043 0.0125335 0.0222817 0.0348152 0.0501339 0.0682377 0.0891269 0.111313 0.133308 0.155112 0.176724 0.198146 0.219376 0.240415 0.261263 0.281823 0.302 0.321792 0.3412 0.360223 0.378863 0.397119 0.41499 0.432325 0.44897 0.464925 0.48019 0.494766 0.508652 0.521849 0.534356 0.546186 0.557351 0.567851 0.577687 0.586858 0.595365 0.603207 0.610385 0.616997 0.623143 0.628822 0.634036 0.638783 0.643065 0.64688 0.650229 0.653216 0.655948 0.658422 0.660641 0.662603 0.664308 0.665757 0.666949 0.667947 0.668812 0.669543 0.670142 0.670607 0.67094 0.67114 0.671206 0.67114 0.67094 0.670608 0.670142 0.669544 0.668812 0.667947 0.66695 0.665758 0.664309 0.662604 0.660642 0.658424 0.655949 0.653218 0.650231 0.646882 0.643067 0.638786 0.634039 0.628825 0.623146 0.617 0.610388 0.603211 0.595369 0.586863 0.577692 0.567856 0.557356 0.546192 0.534362 0.521856 0.50866 0.494774 0.480198 0.464933 0.448978 0.432334 0.415 0.397129 0.378874 0.360235 0.341211 0.321804 0.302012 0.281836 0.261276 0.240428 0.219389 0.198158 0.176736 0.155123 0.133318 0.111322 0.0891339 0.0682431 0.0501378 0.0348179 0.0222835 0.0125345 0.00557087 0.00139272 0 0 0.00158687 0.00634747 0.0142818 0.0253899 0.0396717 0.0571272 0.0777565 0.10156 0.126838 0.151892 0.176724 0.201332 0.225716 0.249877 0.273814 0.297529 0.32091 0.343849 0.366346 0.388401 0.410013 0.431183 0.451912 0.472197 0.491869 0.510752 0.528848 0.546157 0.562678 0.578411 0.593357 0.607516 0.620902 0.633534 0.64541 0.65653 0.666894 0.676503 0.685357 0.693455 0.700911 0.70784 0.714241 0.720114 0.72546 0.730277 0.734568 0.73833 0.741684 0.74475 0.747526 0.750014 0.752214 0.754124 0.755746 0.757079 0.758193 0.759159 0.759977 0.760645 0.761165 0.761537 0.76176 0.761834 0.76176 0.761537 0.761165 0.760646 0.759977 0.75916 0.758194 0.75708 0.755747 0.754125 0.752215 0.750016 0.747528 0.744751 0.741686 0.738332 0.73457 0.73028 0.725462 0.720117 0.714244 0.707843 0.700915 0.693459 0.685361 0.676508 0.6669 0.656535 0.645415 0.63354 0.620909 0.607523 0.593365 0.578419 0.562686 0.546166 0.528858 0.510762 0.491879 0.472209 0.451923 0.431195 0.410026 0.388413 0.366359 0.343863 0.320924 0.297543 0.273829 0.249891 0.22573 0.201345 0.176736 0.151904 0.126847 0.101567 0.0777626 0.0571317 0.0396748 0.0253919 0.0142829 0.00634796 0.00158699 0 0 0.00177949 0.00711795 0.0160154 0.0284718 0.0444872 0.0640616 0.0871949 0.113887 0.14223 0.170316 0.198144 0.225715 0.253028 0.280084 0.306883 0.333424 0.359585 0.385246 0.410404 0.435062 0.459218 0.482873 0.506026 0.528678 0.550637 0.57171 0.591898 0.611202 0.62962 0.647153 0.663801 0.679563 0.694461 0.708513 0.721721 0.734083 0.7456 0.756272 0.766099 0.775081 0.783346 0.791024 0.798115 0.804618 0.810533 0.815861 0.820602 0.824755 0.828455 0.831835 0.834896 0.837637 0.840059 0.842161 0.843944 0.845407 0.846629 0.847688 0.848584 0.849318 0.849888 0.850295 0.85054 0.850621 0.85054 0.850295 0.849888 0.849318 0.848585 0.847689 0.84663 0.845408 0.843945 0.842162 0.84006 0.837638 0.834897 0.831837 0.828457 0.824757 0.820604 0.815864 0.810536 0.804621 0.798118 0.791028 0.78335 0.775085 0.766104 0.756277 0.745606 0.734089 0.721727 0.70852 0.694468 0.679571 0.663809 0.647162 0.629629 0.611212 0.591909 0.571721 0.550648 0.52869 0.506039 0.482886 0.459232 0.435076 0.410419 0.385261 0.359601 0.33344 0.306899 0.2801 0.253044 0.22573 0.198158 0.170328 0.142241 0.113896 0.0872016 0.0640665 0.0444906 0.028474 0.0160166 0.0071185 0.00177962 0 0 0.00197047 0.00788188 0.0177342 0.0315275 0.0492618 0.0709369 0.096553 0.12611 0.157491 0.188579 0.219373 0.249875 0.280083 0.309998 0.33962 0.368949 0.39785 0.426189 0.453967 0.481184 0.507838 0.533931 0.559462 0.584431 0.608629 0.631843 0.654076 0.675326 0.695593 0.714877 0.73318 0.750499 0.766861 0.78229 0.796785 0.810347 0.822976 0.834671 0.845433 0.855262 0.864301 0.872695 0.880444 0.887547 0.894004 0.899816 0.904983 0.909504 0.913528 0.917204 0.92053 0.923508 0.926137 0.928418 0.93035 0.931933 0.933253 0.934398 0.935367 0.936159 0.936775 0.937216 0.93748 0.937568 0.93748 0.937216 0.936776 0.936159 0.935367 0.934399 0.933254 0.931934 0.930351 0.928419 0.926139 0.92351 0.920532 0.917206 0.91353 0.909507 0.904986 0.899819 0.894007 0.88755 0.880447 0.872699 0.864306 0.855267 0.845438 0.834677 0.822982 0.810353 0.796792 0.782297 0.766869 0.750508 0.733189 0.714887 0.695603 0.675336 0.654087 0.631856 0.608641 0.584445 0.559476 0.533945 0.507853 0.481199 0.453983 0.426206 0.397867 0.368966 0.339638 0.310016 0.2801 0.249891 0.219388 0.188592 0.157503 0.12612 0.0965603 0.0709423 0.0492655 0.0315299 0.0177356 0.00788247 0.00197062 0 0 0.00215981 0.00863925 0.0194383 0.034557 0.0539953 0.0777533 0.105831 0.138228 0.17262 0.206681 0.240411 0.273811 0.30688 0.339618 0.372026 0.404103 0.435704 0.466681 0.497035 0.526766 0.555873 0.584358 0.612219 0.639458 0.665845 0.691152 0.71538 0.738528 0.760596 0.781585 0.801494 0.820323 0.838103 0.854862 0.870602 0.885321 0.899021 0.9117 0.923359 0.933998 0.943777 0.952853 0.961228 0.968901 0.975873 0.982143 0.987711 0.992577 0.996905 1.00086 1.00443 1.00763 1.01045 1.0129 1.01496 1.01666 1.01807 1.01929 1.02032 1.02117 1.02183 1.0223 1.02258 1.02267 1.02258 1.0223 1.02183 1.02117 1.02032 1.01929 1.01807 1.01666 1.01497 1.0129 1.01045 1.00763 1.00443 1.00086 0.996907 0.99258 0.987714 0.982146 0.975876 0.968905 0.961232 0.952858 0.943781 0.934004 0.923365 0.911706 0.899027 0.885328 0.87061 0.854871 0.838112 0.820333 0.801504 0.781596 0.760607 0.73854 0.715392 0.691165 0.665859 0.639472 0.612234 0.584374 0.555889 0.526782 0.497052 0.466698 0.435722 0.404122 0.372045 0.339637 0.306898 0.273828 0.240427 0.206695 0.172632 0.138238 0.105839 0.077759 0.0539993 0.0345596 0.0194397 0.00863989 0.00215997 0 0 0.00234752 0.00939006 0.0211276 0.0375603 0.0586879 0.0845106 0.115028 0.150241 0.187616 0.224622 0.261257 0.297523 0.333419 0.368945 0.404101 0.438888 0.473146 0.506719 0.539606 0.571808 0.603324 0.634154 0.664299 0.693757 0.722285 0.749636 0.775811 0.800809 0.824631 0.847276 0.868744 0.889036 0.908186 0.926232 0.943172 0.959006 0.973735 0.987359 0.999877 1.01129 1.02177 1.0315 1.04047 1.04868 1.05614 1.06284 1.06879 1.07397 1.07858 1.08279 1.0866 1.09 1.093 1.09559 1.09779 1.09958 1.10107 1.10236 1.10345 1.10435 1.10504 1.10554 1.10584 1.10594 1.10584 1.10554 1.10505 1.10435 1.10346 1.10236 1.10107 1.09958 1.09779 1.09559 1.093 1.09 1.0866 1.08279 1.07859 1.07398 1.06879 1.06284 1.05614 1.04869 1.04047 1.0315 1.02178 1.0113 0.999883 0.987366 0.973742 0.959014 0.94318 0.926241 0.908196 0.889046 0.868755 0.847287 0.824643 0.800822 0.775824 0.74965 0.7223 0.693773 0.664315 0.634171 0.603341 0.571826 0.539625 0.506738 0.473166 0.438908 0.404121 0.368965 0.333439 0.297542 0.261275 0.224637 0.18763 0.150252 0.115037 0.0845167 0.0586921 0.037563 0.0211292 0.00939074 0.00234769 0 0 0.00253271 0.0101308 0.0227944 0.0405233 0.0633177 0.0911775 0.124103 0.162093 0.202411 0.242319 0.281816 0.320903 0.359579 0.397844 0.435699 0.473144 0.510009 0.546124 0.58149 0.616107 0.649975 0.683093 0.715462 0.747082 0.77769 0.807026 0.835088 0.861877 0.887394 0.911637 0.934607 0.956305 0.976771 0.996048 1.01414 1.03104 1.04675 1.06127 1.0746 1.08674 1.09789 1.10822 1.11775 1.12647 1.13438 1.14148 1.14777 1.15326 1.15812 1.16256 1.16658 1.17016 1.17332 1.17605 1.17836 1.18024 1.1818 1.18315 1.18429 1.18523 1.18596 1.18648 1.18679 1.1869 1.18679 1.18648 1.18596 1.18523 1.1843 1.18315 1.1818 1.18024 1.17836 1.17606 1.17332 1.17016 1.16658 1.16257 1.15813 1.15326 1.14777 1.14148 1.13438 1.12647 1.11775 1.10823 1.09789 1.08675 1.0746 1.06127 1.04675 1.03104 1.01414 0.996057 0.976781 0.956315 0.934619 0.911649 0.887406 0.861891 0.835102 0.80704 0.777705 0.747098 0.715479 0.68311 0.649993 0.616126 0.58151 0.546144 0.510029 0.473165 0.435721 0.397865 0.359599 0.320922 0.281834 0.242335 0.202425 0.162105 0.124111 0.0911839 0.0633221 0.0405262 0.022796 0.0101315 0.00253289 0 0 0.00271451 0.0108581 0.0244306 0.0434322 0.0678628 0.0977225 0.133011 0.173729 0.216935 0.259689 0.30199 0.34384 0.385237 0.426182 0.466674 0.506715 0.546122 0.584715 0.622494 0.65946 0.695611 0.730949 0.765472 0.799181 0.8318 0.863049 0.892929 0.921441 0.948583 0.974357 0.998762 1.0218 1.04352 1.06396 1.08314 1.10104 1.11768 1.13304 1.14713 1.15995 1.17171 1.18261 1.19265 1.20184 1.21016 1.21763 1.22424 1.22998 1.23508 1.23973 1.24392 1.24767 1.25097 1.25382 1.25622 1.25817 1.25979 1.26119 1.26238 1.26335 1.2641 1.26464 1.26497 1.26507 1.26497 1.26464 1.2641 1.26335 1.26238 1.26119 1.25979 1.25817 1.25622 1.25382 1.25097 1.24767 1.24393 1.23973 1.23508 1.22999 1.22424 1.21763 1.21017 1.20184 1.19266 1.18262 1.17172 1.15996 1.14714 1.13305 1.11768 1.10105 1.08315 1.06397 1.04353 1.02181 0.998774 0.97437 0.948597 0.921455 0.892944 0.863064 0.831816 0.799198 0.76549 0.730967 0.69563 0.65948 0.622515 0.584736 0.546143 0.506737 0.466697 0.426204 0.385258 0.34386 0.302009 0.259706 0.21695 0.173741 0.13302 0.0977292 0.0678675 0.0434352 0.0244323 0.0108588 0.0027147 0 0 0.00289293 0.0115717 0.0260364 0.0462869 0.0723234 0.104146 0.141754 0.185148 0.231187 0.276731 0.321781 0.366335 0.410393 0.453957 0.497026 0.539599 0.581486 0.622492 0.662619 0.701866 0.740233 0.777721 0.814329 0.850057 0.884614 0.917706 0.949335 0.979499 1.0082 1.03544 1.06121 1.08552 1.10842 1.12997 1.15017 1.16902 1.18653 1.20268 1.21748 1.23093 1.24325 1.25467 1.26519 1.27479 1.28349 1.29129 1.29818 1.30416 1.30946 1.31428 1.31864 1.32253 1.32594 1.32889 1.33137 1.33338 1.33504 1.33648 1.3377 1.3387 1.33948 1.34003 1.34037 1.34048 1.34037 1.34003 1.33948 1.3387 1.3377 1.33648 1.33504 1.33338 1.33137 1.32889 1.32594 1.32253 1.31864 1.31428 1.30946 1.30416 1.29818 1.29129 1.2835 1.2748 1.26519 1.25468 1.24326 1.23094 1.21749 1.20269 1.18653 1.16903 1.15018 1.12998 1.10843 1.08553 1.06122 1.03545 1.00821 0.979514 0.94935 0.917722 0.884631 0.850075 0.814347 0.77774 0.740253 0.701886 0.66264 0.622514 0.581508 0.539622 0.497049 0.45398 0.410416 0.366356 0.3218 0.276749 0.231203 0.18516 0.141763 0.104153 0.0723282 0.0462901 0.0260382 0.0115725 0.00289313 0 0 0.00306797 0.0122719 0.0276117 0.0490875 0.0766992 0.110447 0.150331 0.19635 0.245168 0.293447 0.341187 0.388387 0.435049 0.481171 0.526754 0.571799 0.6161 0.659455 0.701863 0.743325 0.783841 0.82341 0.862033 0.899709 0.936133 0.970998 1.0043 1.03605 1.06624 1.09487 1.12195 1.14746 1.17148 1.19408 1.21525 1.23499 1.2533 1.27018 1.28564 1.29967 1.31251 1.3244 1.33534 1.34533 1.35437 1.36246 1.36959 1.37578 1.38125 1.38623 1.39072 1.39472 1.39824 1.40127 1.40381 1.40586 1.40756 1.40903 1.41027 1.41129 1.41208 1.41265 1.41299 1.4131 1.41299 1.41265 1.41208 1.41129 1.41027 1.40903 1.40756 1.40586 1.40381 1.40127 1.39824 1.39472 1.39072 1.38623 1.38125 1.37578 1.3696 1.36246 1.35437 1.34534 1.33535 1.32441 1.31252 1.29968 1.28565 1.27019 1.25331 1.23499 1.21526 1.19409 1.1715 1.14747 1.12196 1.09489 1.06626 1.03607 1.00432 0.971015 0.93615 0.899727 0.862052 0.82343 0.783861 0.743347 0.701885 0.659477 0.616123 0.571822 0.526778 0.481195 0.435072 0.388409 0.341207 0.293465 0.245184 0.196363 0.15034 0.110454 0.0767043 0.0490907 0.0276135 0.0122727 0.00306817 0 0 0.00323962 0.0129585 0.0291566 0.0518339 0.0809905 0.116626 0.158741 0.207336 0.258878 0.309835 0.360208 0.409998 0.459203 0.507823 0.55586 0.603312 0.649965 0.695604 0.740228 0.783838 0.826434 0.868016 0.908583 0.948136 0.986356 1.02292 1.05784 1.0911 1.12271 1.15267 1.18098 1.20763 1.23271 1.25628 1.27835 1.29892 1.31799 1.33555 1.35161 1.36617 1.37948 1.3918 1.40312 1.41346 1.42279 1.43114 1.43849 1.44485 1.45046 1.45556 1.46017 1.46426 1.46786 1.47095 1.47354 1.47562 1.47734 1.47883 1.48008 1.48111 1.48192 1.48249 1.48283 1.48295 1.48283 1.48249 1.48192 1.48112 1.48009 1.47883 1.47734 1.47562 1.47354 1.47095 1.46786 1.46427 1.46017 1.45557 1.45046 1.44485 1.43849 1.43114 1.4228 1.41346 1.40313 1.39181 1.37949 1.36618 1.35162 1.33556 1.318 1.29893 1.27836 1.25629 1.23272 1.20764 1.18099 1.15269 1.12273 1.09112 1.05786 1.02294 0.986374 0.948155 0.908603 0.868036 0.826455 0.78386 0.740251 0.695627 0.649989 0.603336 0.555884 0.507848 0.459226 0.41002 0.360229 0.309854 0.258894 0.207349 0.158752 0.116634 0.0809957 0.0518372 0.0291584 0.0129593 0.00323983 0 0 0.00340789 0.0136315 0.030671 0.0545262 0.0851972 0.122684 0.166986 0.218105 0.272316 0.325896 0.378846 0.431166 0.482855 0.533914 0.584342 0.634139 0.68308 0.730938 0.777713 0.823404 0.868013 0.911538 0.953981 0.99534 1.03528 1.07348 1.10994 1.14465 1.17761 1.20883 1.2383 1.26603 1.29209 1.31658 1.3395 1.36084 1.3806 1.39879 1.4154 1.43044 1.44417 1.45687 1.46853 1.47916 1.48876 1.49733 1.50486 1.51136 1.51708 1.52229 1.52698 1.53115 1.5348 1.53794 1.54055 1.54265 1.54438 1.54587 1.54714 1.54817 1.54898 1.54956 1.5499 1.55002 1.5499 1.54956 1.54898 1.54818 1.54714 1.54588 1.54438 1.54265 1.54056 1.53794 1.5348 1.53115 1.52698 1.52229 1.51709 1.51136 1.50487 1.49733 1.48877 1.47917 1.46854 1.45687 1.44418 1.43044 1.41541 1.3988 1.38061 1.36085 1.33951 1.3166 1.29211 1.26604 1.23831 1.20884 1.17762 1.14466 1.10995 1.0735 1.0353 0.995359 0.954001 0.911559 0.868035 0.823427 0.777736 0.730962 0.683105 0.634164 0.584367 0.533938 0.482879 0.431189 0.378868 0.325915 0.272332 0.218118 0.166997 0.122691 0.0852024 0.0545295 0.0306729 0.0136324 0.0034081 0 0 0.00357277 0.0142911 0.0321549 0.0571643 0.0893192 0.12862 0.175066 0.228657 0.285482 0.34163 0.3971 0.451892 0.506006 0.559442 0.612201 0.664281 0.715446 0.765459 0.814318 0.862024 0.908577 0.953978 0.998225 1.04132 1.08292 1.12268 1.1606 1.19669 1.23093 1.26334 1.29391 1.32265 1.34964 1.37498 1.39868 1.42073 1.44113 1.45989 1.477 1.49246 1.50657 1.5196 1.53157 1.54246 1.55228 1.56103 1.56871 1.57532 1.58113 1.58641 1.59116 1.59538 1.59907 1.60223 1.60486 1.60696 1.60868 1.61018 1.61144 1.61247 1.61327 1.61385 1.61419 1.61431 1.61419 1.61385 1.61327 1.61247 1.61144 1.61018 1.60868 1.60696 1.60486 1.60223 1.59907 1.59538 1.59116 1.58641 1.58113 1.57532 1.56871 1.56103 1.55228 1.54246 1.53157 1.51961 1.50658 1.49247 1.47701 1.4599 1.44114 1.42074 1.39869 1.37499 1.34965 1.32266 1.29393 1.26336 1.23095 1.1967 1.16062 1.1227 1.08294 1.04134 0.998245 0.953999 0.908599 0.862047 0.814341 0.765483 0.715471 0.664306 0.612226 0.559467 0.50603 0.451915 0.397121 0.34165 0.285499 0.228671 0.175076 0.128627 0.0893245 0.0571677 0.0321568 0.0142919 0.00357298 0 0 0.00373426 0.014937 0.0336084 0.0597482 0.0933566 0.134433 0.182979 0.238993 0.298378 0.357037 0.414969 0.472175 0.528655 0.584409 0.639436 0.693737 0.747063 0.799165 0.850043 0.899697 0.948127 0.995333 1.04132 1.08607 1.12926 1.17051 1.20983 1.24722 1.28268 1.31622 1.34782 1.37749 1.40534 1.43148 1.4559 1.4786 1.49959 1.51886 1.53641 1.55225 1.56668 1.58001 1.59222 1.60334 1.61334 1.62224 1.63004 1.63673 1.64259 1.64792 1.6527 1.65695 1.66066 1.66383 1.66646 1.66854 1.67025 1.67173 1.67298 1.674 1.6748 1.67537 1.67571 1.67582 1.67571 1.67537 1.6748 1.674 1.67298 1.67173 1.67025 1.66855 1.66646 1.66383 1.66066 1.65695 1.65271 1.64792 1.64259 1.63673 1.63004 1.62225 1.61335 1.60334 1.59223 1.58001 1.56669 1.55226 1.53642 1.51887 1.4996 1.47861 1.45591 1.43149 1.40536 1.37751 1.34783 1.31623 1.2827 1.24724 1.20985 1.17053 1.12927 1.08609 1.04134 0.995355 0.94815 0.89972 0.850067 0.79919 0.747088 0.693763 0.639462 0.584434 0.52868 0.472199 0.414991 0.357056 0.298395 0.239007 0.182989 0.134441 0.093362 0.0597516 0.0336103 0.0149379 0.00373448 0 0 0.00389098 0.0155639 0.0350188 0.0622557 0.0972745 0.140075 0.190658 0.249023 0.310891 0.371984 0.432302 0.491844 0.550611 0.608603 0.66582 0.722262 0.777669 0.83178 0.884596 0.936118 0.986344 1.03528 1.08291 1.12925 1.17394 1.2166 1.25724 1.29587 1.33247 1.36705 1.39962 1.43016 1.4588 1.48566 1.51074 1.53404 1.55555 1.57529 1.59324 1.6094 1.62411 1.63768 1.65011 1.6614 1.67156 1.68057 1.68845 1.69519 1.70109 1.70644 1.71124 1.71549 1.7192 1.72236 1.72497 1.72703 1.72871 1.73017 1.7314 1.73241 1.73319 1.73375 1.73408 1.7342 1.73408 1.73375 1.73319 1.73241 1.7314 1.73017 1.72871 1.72704 1.72497 1.72236 1.7192 1.7155 1.71124 1.70644 1.70109 1.6952 1.68846 1.68058 1.67156 1.66141 1.65012 1.63769 1.62412 1.60941 1.59324 1.57529 1.55556 1.53405 1.51075 1.48568 1.45882 1.43017 1.39963 1.36707 1.33249 1.29588 1.25726 1.21662 1.17395 1.12927 1.08293 1.0353 0.986367 0.936141 0.88462 0.831805 0.777694 0.722288 0.665846 0.608629 0.550636 0.491868 0.432324 0.372004 0.310908 0.249037 0.190669 0.140083 0.09728 0.0622592 0.0350208 0.0155648 0.0038912 0 0 0.00404153 0.0161661 0.0363738 0.0646646 0.101038 0.145495 0.198035 0.258658 0.322911 0.38634 0.448944 0.510725 0.571682 0.631816 0.691125 0.74961 0.807001 0.863026 0.917686 0.97098 1.02291 1.07347 1.12267 1.1705 1.2166 1.26058 1.30246 1.34224 1.3799 1.41546 1.44891 1.48025 1.50961 1.53714 1.56281 1.58664 1.60862 1.62876 1.64706 1.66351 1.67845 1.69222 1.70483 1.71626 1.72653 1.73564 1.74357 1.75033 1.75624 1.76159 1.76638 1.77063 1.77432 1.77745 1.78003 1.78206 1.7837 1.78513 1.78633 1.78732 1.78808 1.78863 1.78896 1.78907 1.78896 1.78863 1.78808 1.78732 1.78633 1.78513 1.78371 1.78206 1.78004 1.77745 1.77432 1.77063 1.76639 1.76159 1.75624 1.75034 1.74357 1.73564 1.72654 1.71627 1.70483 1.69223 1.67845 1.66351 1.64707 1.62877 1.60863 1.58665 1.56282 1.53715 1.5