<?xml version="1.0"?> 
<VTKFile type="StructuredGrid" version="0.1"> 
<StructuredGrid WholeExtent="0 128 0 128 0 0"> 
<Piece Extent="0 128 0 128 0 0"> 
<PointData>
<DataArray type="Float32" Name="u" format="ascii" NumberOfComponents="1"> 
0 0 0 0 0 0 0 0 0 0 0 0 0 0 0 0 0 0 0 0 0 0 0 0 0 0 0 0 0 0 0 0 0 0 0 0 0 0 0 0 0 0 0 0 0 0 0 0 0 0 0 0 0 0 0 0 0 0 0 0 0 0 0 0 0 0 0 0 0 0 0 0 0 0 0 0 0 0 0 0 0 0 0 0 0 0 0 0 0 0 0 0 0 0 0 0 0 0 0 0 0 0 0 0 0 0 0 0 0 0 0 0 0 0 0 0 0 0 0 0 0 0 0 0 0 0 0 0 0 0 1.10757e-05 4.4303e-05 9.96816e-05 0.000177212 0.000276893 0.000398727 0.000542711 0.000708847 0.000885596 0.00106142 0.00123632 0.00141029 0.00158333 0.00175545 0.00192664 0.00209691 0.00226552 0.00243174 0.00259557 0.00275701 0.00291606 0.00307272 0.00322699 0.00337887 0.00352702 0.00367011 0.00380815 0.00394112 0.00406903 0.00419188 0.00430968 0.00442241 0.00452996 0.00463221 0.00472916 0.00482082 0.00490718 0.00498823 0.00506399 0.00513445 0.00520021 0.00526187 0.00531944 0.00537291 0.00542228 0.00546755 0.00550873 0.0055458 0.00557951 0.00561058 0.00563901 0.00566479 0.00568794 0.00570844 0.0057263 0.00574153 0.00575456 0.00576585 0.00577541 0.00578323 0.00578931 0.00579365 0.00579626 0.00579713 0.00579626 0.00579366 0.00578931 0.00578323 0.00577541 0.00576586 0.00575456 0.00574153 0.00572631 0.00570845 0.00568794 0.0056648 0.00563902 0.00561059 0.00557952 0.00554582 0.00550874 0.00546756 0.00542229 0.00537292 0.00531946 0.00526189 0.00520023 0.00513447 0.00506402 0.00498826 0.00490721 0.00482085 0.0047292 0.00463225 0.00453 0.00442245 0.00430972 0.00419194 0.00406909 0.00394118 0.00380821 0.00367018 0.00352709 0.00337894 0.00322706 0.0030728 0.00291614 0.00275709 0.00259566 0.00243183 0.00226561 0.00209701 0.00192674 0.00175555 0.00158343 0.00141038 0.0012364 0.00106149 0.000885661 0.0007089 0.000542751 0.000398756 0.000276914 0.000177225 9.9689e-05 4.43062e-05 1.10766e-05 0 0 4.4303e-05 0.000177212 0.000398727 0.000708847 0.00110757 0.00159491 0.00217084 0.00283539 0.00354238 0.00424568 0.00494526 0.00564115 0.00633333 0.0070218 0.00770658 0.00838765 0.00906208 0.00972696 0.0103823 0.011028 0.0116642 0.0122909 0.0129079 0.0135155 0.0141081 0.0146805 0.0152326 0.0157645 0.0162761 0.0167675 0.0172387 0.0176896 0.0181198 0.0185288 0.0189167 0.0192833 0.0196287 0.0199529 0.020256 0.0205378 0.0208008 0.0210475 0.0212778 0.0214916 0.0216891 0.0218702 0.0220349 0.0221832 0.0223181 0.0224423 0.022556 0.0226592 0.0227518 0.0228338 0.0229052 0.0229661 0.0230182 0.0230634 0.0231016 0.0231329 0.0231572 0.0231746 0.023185 0.0231885 0.023185 0.0231746 0.0231572 0.0231329 0.0231016 0.0230634 0.0230182 0.0229661 0.0229052 0.0228338 0.0227518 0.0226592 0.0225561 0.0224424 0.0223181 0.0221833 0.022035 0.0218703 0.0216892 0.0214917 0.0212778 0.0210476 0.0208009 0.0205379 0.0202561 0.019953 0.0196288 0.0192834 0.0189168 0.018529 0.01812 0.0176898 0.0172389 0.0167677 0.0162763 0.0157647 0.0152328 0.0146807 0.0141084 0.0135157 0.0129082 0.0122912 0.0116646 0.0110284 0.0103826 0.00972732 0.00906245 0.00838803 0.00770696 0.00702219 0.0063337 0.00564151 0.0049456 0.00424598 0.00354264 0.0028356 0.00217101 0.00159502 0.00110766 0.0007089 0.000398756 0.000177225 4.43062e-05 0 0 9.96816e-05 0.000398727 0.000897135 0.00159491 0.00249204 0.00358854 0.0048844 0.00637963 0.00797037 0.00955277 0.0111268 0.0126926 0.01425 0.0157991 0.0173398 0.0188722 0.0203897 0.0218857 0.0233601 0.0248131 0.0262445 0.0276545 0.0290429 0.0304098 0.0317432 0.033031 0.0342733 0.0354701 0.0366213 0.037727 0.0387871 0.0398017 0.0407696 0.0416899 0.0425625 0.0433874 0.0441646 0.0448941 0.0455759 0.04621 0.0468019 0.0473569 0.0478749 0.0483562 0.0488005 0.049208 0.0495785 0.0499122 0.0502156 0.0504952 0.0507511 0.0509831 0.0511914 0.051376 0.0515367 0.0516737 0.051791 0.0518927 0.0519787 0.0520491 0.0521038 0.0521429 0.0521664 0.0521742 0.0521664 0.0521429 0.0521038 0.0520491 0.0519787 0.0518927 0.0517911 0.0516738 0.0515368 0.051376 0.0511915 0.0509832 0.0507511 0.0504953 0.0502157 0.0499123 0.0495786 0.0492081 0.0488006 0.0483563 0.0478751 0.047357 0.0468021 0.0462103 0.0455761 0.0448943 0.0441649 0.0433877 0.0425628 0.0416903 0.04077 0.0398021 0.0387875 0.0377274 0.0366218 0.0354706 0.0342739 0.0330316 0.0317438 0.0304104 0.0290436 0.0276552 0.0262453 0.0248138 0.0233609 0.0218865 0.0203905 0.0188731 0.0173407 0.0157999 0.0142508 0.0126934 0.0111276 0.00955344 0.00797095 0.0063801 0.00488476 0.0035888 0.00249223 0.00159502 0.000897201 0.000398756 9.9689e-05 0 0 0.000177212 0.000708847 0.00159491 0.00283539 0.0044303 0.00637963 0.00868338 0.0113416 0.0141695 0.0169827 0.0197811 0.0225646 0.0253333 0.0280872 0.0308263 0.0335506 0.0362483 0.0389078 0.0415291 0.0441121 0.0466569 0.0491635 0.0516318 0.0540619 0.0564323 0.0587218 0.0609304 0.0630579 0.0651045 0.0670702 0.0689548 0.0707585 0.0724793 0.0741154 0.0756666 0.0771331 0.0785148 0.0798117 0.0810238 0.0821512 0.0832033 0.08419 0.085111 0.0859665 0.0867564 0.0874808 0.0881396 0.0887329 0.0892722 0.0897693 0.0902241 0.0906367 0.091007 0.0913351 0.0916209 0.0918644 0.0920729 0.0922536 0.0924066 0.0925317 0.092629 0.0926985 0.0927402 0.0927541 0.0927402 0.0926985 0.092629 0.0925317 0.0924066 0.0922537 0.092073 0.0918645 0.091621 0.0913352 0.0910071 0.0906368 0.0902243 0.0897694 0.0892724 0.0887331 0.0881398 0.087481 0.0867567 0.0859668 0.0851113 0.0841903 0.0832037 0.0821516 0.0810243 0.0798122 0.0785153 0.0771337 0.0756672 0.074116 0.07248 0.0707592 0.0689556 0.067071 0.0651054 0.0630588 0.0609313 0.0587229 0.0564334 0.054063 0.051633 0.0491647 0.0466582 0.0441135 0.0415305 0.0389093 0.0362498 0.0335521 0.0308279 0.0280888 0.0253348 0.022566 0.0197824 0.0169839 0.0141706 0.0113424 0.00868402 0.0063801 0.00443062 0.0028356 0.00159502 0.0007089 0.000177225 0 0 0.000276893 0.00110757 0.00249204 0.0044303 0.00692234 0.00996816 0.0135678 0.0177212 0.0221399 0.0265355 0.0309079 0.0352572 0.0395833 0.0438863 0.0481661 0.0524228 0.056638 0.0607935 0.0648892 0.0689252 0.0729015 0.0768179 0.0806747 0.0844717 0.0881755 0.0917529 0.0952037 0.098528 0.101726 0.104797 0.107742 0.11056 0.113249 0.115805 0.118229 0.12052 0.122679 0.124706 0.1266 0.128361 0.130005 0.131547 0.132986 0.134323 0.135557 0.136689 0.137718 0.138645 0.139488 0.140265 0.140975 0.14162 0.142198 0.142711 0.143158 0.143538 0.143864 0.144146 0.144385 0.144581 0.144733 0.144841 0.144907 0.144928 0.144907 0.144841 0.144733 0.144581 0.144385 0.144146 0.143864 0.143538 0.143158 0.142711 0.142199 0.14162 0.140975 0.140265 0.139488 0.138645 0.137718 0.136689 0.135557 0.134323 0.132986 0.131547 0.130006 0.128362 0.1266 0.124707 0.12268 0.120521 0.11823 0.115806 0.11325 0.110561 0.107743 0.104798 0.101727 0.0985294 0.0952052 0.0917545 0.0881772 0.0844734 0.0806765 0.0768199 0.0729035 0.0689273 0.0648914 0.0607957 0.0566403 0.0524252 0.0481685 0.0438887 0.0395856 0.0352594 0.03091 0.0265373 0.0221415 0.0177225 0.0135688 0.0099689 0.00692285 0.00443062 0.00249223 0.00110766 0.000276914 0 0 0.000398727 0.00159491 0.00358854 0.00637963 0.00996816 0.0143542 0.0195376 0.0255185 0.0318815 0.0382111 0.0445074 0.0507703 0.057 0.0631962 0.0693592 0.0754888 0.0815587 0.0875426 0.0934405 0.0992523 0.104978 0.110618 0.116172 0.121639 0.126973 0.132124 0.137093 0.14188 0.146485 0.150908 0.155148 0.159207 0.163079 0.16676 0.17025 0.173549 0.176658 0.179576 0.182304 0.18484 0.187208 0.189427 0.1915 0.193425 0.195202 0.196832 0.198314 0.199649 0.200862 0.201981 0.203004 0.203933 0.204766 0.205504 0.206147 0.206695 0.207164 0.207571 0.207915 0.208196 0.208415 0.208572 0.208665 0.208697 0.208665 0.208572 0.208415 0.208196 0.207915 0.207571 0.207164 0.206695 0.206147 0.205504 0.204766 0.203933 0.203005 0.201981 0.200863 0.199649 0.198315 0.196832 0.195203 0.193425 0.1915 0.189428 0.187208 0.184841 0.182305 0.179577 0.176659 0.173551 0.170251 0.166761 0.16308 0.159208 0.15515 0.15091 0.146487 0.141882 0.137096 0.132126 0.126975 0.121642 0.116174 0.110621 0.104981 0.0992553 0.0934436 0.0875459 0.0815621 0.0754922 0.0693627 0.0631997 0.0570033 0.0507735 0.0445104 0.0382138 0.0318838 0.0255204 0.019539 0.0143552 0.0099689 0.0063801 0.0035888 0.00159502 0.000398756 0 0 0.000542711 0.00217084 0.0048844 0.00868338 0.0135678 0.0195376 0.0265928 0.0347335 0.0433942 0.0520095 0.0605795 0.0691041 0.0775833 0.0860171 0.0944056 0.102749 0.111011 0.119155 0.127183 0.135093 0.142887 0.150563 0.158122 0.165564 0.172824 0.179836 0.186599 0.193115 0.199383 0.205402 0.211174 0.216698 0.221968 0.226978 0.231729 0.23622 0.240452 0.244423 0.248135 0.251588 0.25481 0.257832 0.260652 0.263272 0.265692 0.26791 0.269928 0.271744 0.273396 0.274918 0.276311 0.277575 0.278709 0.279714 0.280589 0.281335 0.281973 0.282527 0.282995 0.283378 0.283676 0.283889 0.284017 0.284059 0.284017 0.283889 0.283676 0.283378 0.282995 0.282527 0.281974 0.281335 0.280589 0.279714 0.278709 0.277575 0.276312 0.274919 0.273397 0.271745 0.269928 0.267911 0.265692 0.263273 0.260653 0.257833 0.254811 0.251589 0.248137 0.244425 0.240453 0.236222 0.231731 0.22698 0.22197 0.2167 0.211176 0.205405 0.199385 0.193118 0.186602 0.179839 0.172827 0.165568 0.158126 0.150567 0.142891 0.135098 0.127187 0.11916 0.111015 0.102753 0.0944103 0.0860218 0.0775879 0.0691084 0.0605835 0.0520132 0.0433974 0.0347361 0.0265948 0.019539 0.0135688 0.00868402 0.00488476 0.00217101 0.000542751 0 0 0.000708847 0.00283539 0.00637963 0.0113416 0.0177212 0.0255185 0.0347335 0.0453662 0.0566782 0.0679308 0.0791242 0.0902584 0.101333 0.112349 0.123305 0.134202 0.144993 0.155631 0.166116 0.176449 0.186628 0.196654 0.206527 0.216247 0.225729 0.234887 0.243721 0.252232 0.260418 0.268281 0.275819 0.283034 0.289917 0.296462 0.302667 0.308532 0.314059 0.319247 0.324095 0.328605 0.332813 0.33676 0.340444 0.343866 0.347026 0.349923 0.352558 0.354931 0.357089 0.359077 0.360897 0.362547 0.364028 0.36534 0.366484 0.367458 0.368292 0.369015 0.369626 0.370127 0.370516 0.370794 0.370961 0.371016 0.370961 0.370794 0.370516 0.370127 0.369626 0.369015 0.368292 0.367458 0.366484 0.365341 0.364028 0.362547 0.360897 0.359078 0.35709 0.354932 0.352559 0.349924 0.347027 0.343867 0.340445 0.336761 0.332815 0.328606 0.324097 0.319249 0.314061 0.308535 0.302669 0.296464 0.28992 0.283037 0.275822 0.268284 0.260422 0.252235 0.243725 0.234891 0.225734 0.216252 0.206532 0.196659 0.186633 0.176454 0.166122 0.155637 0.144999 0.134208 0.123311 0.112355 0.101339 0.0902641 0.0791295 0.0679356 0.0566823 0.0453696 0.0347361 0.0255204 0.0177225 0.0113424 0.0063801 0.0028356 0.0007089 0 0 0.000885554 0.00354222 0.00796998 0.0141689 0.0221388 0.0318799 0.0433921 0.0566754 0.0708068 0.0848633 0.0988448 0.112751 0.126583 0.14034 0.154021 0.167628 0.181102 0.194383 0.207473 0.220371 0.233077 0.245591 0.257914 0.270044 0.281876 0.293303 0.304326 0.314943 0.325155 0.334963 0.344365 0.353362 0.361946 0.370105 0.377842 0.385155 0.392044 0.39851 0.404552 0.410171 0.415415 0.420331 0.424921 0.429183 0.433118 0.436727 0.440008 0.442962 0.445647 0.448122 0.450387 0.45244 0.454284 0.455916 0.457339 0.45855 0.459588 0.460487 0.461247 0.46187 0.462354 0.4627 0.462907 0.462976 0.462907 0.4627 0.462354 0.46187 0.461248 0.460487 0.459588 0.458551 0.457339 0.455917 0.454284 0.452441 0.450387 0.448123 0.445648 0.442963 0.440009 0.436728 0.43312 0.429184 0.424922 0.420333 0.415416 0.410173 0.404554 0.398512 0.392046 0.385157 0.377845 0.370109 0.361949 0.353366 0.344369 0.334967 0.32516 0.314948 0.304331 0.293309 0.281882 0.27005 0.25792 0.245597 0.233083 0.220378 0.20748 0.19439 0.181109 0.167636 0.154029 0.140347 0.12659 0.112758 0.0988514 0.0848692 0.070812 0.0566796 0.0433953 0.0318823 0.0221405 0.0141699 0.00797057 0.00354248 0.000885619 0 0 0.00106125 0.004245 0.00955125 0.01698 0.0265313 0.038205 0.0520013 0.06792 0.0848538 0.101695 0.118444 0.135101 0.151666 0.168138 0.184518 0.200805 0.21693 0.232823 0.248485 0.263914 0.279111 0.294076 0.308809 0.323311 0.337453 0.351108 0.364278 0.376961 0.389158 0.400868 0.412093 0.422831 0.433072 0.442807 0.452034 0.460755 0.468968 0.476675 0.483874 0.490567 0.496811 0.502665 0.508128 0.513201 0.517883 0.522175 0.526077 0.529588 0.532778 0.535719 0.538408 0.540848 0.543036 0.544975 0.546662 0.5481 0.54933 0.550396 0.551298 0.552036 0.55261 0.55302 0.553266 0.553348 0.553266 0.55302 0.55261 0.552036 0.551298 0.550396 0.54933 0.5481 0.546663 0.544975 0.543037 0.540848 0.538409 0.53572 0.532779 0.529589 0.526078 0.522176 0.517885 0.513202 0.50813 0.502667 0.496813 0.49057 0.483877 0.476678 0.468971 0.460758 0.452038 0.44281 0.433076 0.422835 0.412097 0.400873 0.389163 0.376966 0.364284 0.351114 0.337459 0.323317 0.308816 0.294084 0.279119 0.263922 0.248493 0.232832 0.216939 0.200814 0.184527 0.168147 0.151675 0.13511 0.118452 0.101702 0.0848599 0.067925 0.052005 0.0382078 0.0265332 0.0169812 0.00955195 0.00424531 0.00106133 0 0 0.00123594 0.00494374 0.0111234 0.019775 0.0308984 0.0444937 0.0605609 0.0790999 0.0988191 0.118427 0.137923 0.157308 0.176581 0.195743 0.214793 0.233732 0.252479 0.270952 0.289151 0.307077 0.32473 0.342109 0.359215 0.376047 0.392458 0.408302 0.423578 0.438286 0.452426 0.465998 0.479002 0.491439 0.503297 0.514565 0.525243 0.535333 0.544832 0.553742 0.562063 0.569794 0.577003 0.583761 0.590067 0.59592 0.60132 0.606269 0.610765 0.614809 0.618482 0.621867 0.624962 0.627768 0.630286 0.632515 0.634455 0.636105 0.637518 0.638742 0.639777 0.640625 0.641284 0.641754 0.642037 0.642131 0.642037 0.641754 0.641284 0.640625 0.639777 0.638742 0.637518 0.636106 0.634455 0.632515 0.630287 0.627769 0.624963 0.621868 0.618483 0.61481 0.610766 0.60627 0.601322 0.595921 0.590069 0.583763 0.577006 0.569796 0.562066 0.553745 0.544836 0.535336 0.525247 0.514569 0.503301 0.491444 0.479008 0.466004 0.452432 0.438292 0.423584 0.408309 0.392466 0.376054 0.359223 0.342117 0.324739 0.307086 0.289161 0.270962 0.252489 0.233743 0.214804 0.195754 0.176591 0.157318 0.137932 0.118435 0.0988261 0.0791056 0.0605652 0.0444969 0.0309006 0.0197764 0.0111242 0.0049441 0.00123602 0 0 0.00140961 0.00563844 0.0126865 0.0225538 0.0352403 0.050746 0.0690709 0.0902151 0.112703 0.135058 0.157281 0.179372 0.20133 0.223156 0.244849 0.266411 0.287747 0.308768 0.329473 0.349861 0.369933 0.389689 0.409129 0.428253 0.446893 0.464884 0.482225 0.498917 0.514959 0.530351 0.545094 0.559187 0.572619 0.58538 0.59747 0.608889 0.619636 0.629712 0.639117 0.64785 0.655991 0.66362 0.670736 0.677339 0.68343 0.689008 0.694073 0.698625 0.702758 0.706566 0.710047 0.713203 0.716033 0.718537 0.720715 0.722568 0.724152 0.725524 0.726686 0.727636 0.728375 0.728903 0.72922 0.729326 0.72922 0.728903 0.728376 0.727636 0.726686 0.725525 0.724152 0.722568 0.720716 0.718538 0.716034 0.713204 0.710048 0.706567 0.70276 0.698627 0.694074 0.689009 0.683432 0.677341 0.670738 0.663623 0.655994 0.647853 0.63912 0.629715 0.61964 0.608893 0.597474 0.585385 0.572624 0.559192 0.5451 0.530357 0.514966 0.498924 0.482233 0.464892 0.446902 0.428261 0.409138 0.389699 0.369943 0.349871 0.329483 0.308779 0.287759 0.266422 0.244861 0.223167 0.201341 0.179382 0.157291 0.135067 0.112711 0.0902215 0.0690759 0.0507496 0.0352428 0.0225554 0.0126874 0.00563885 0.00140971 0 0 0.00158228 0.0063291 0.0142405 0.0253164 0.0395569 0.0569619 0.0775315 0.101266 0.126505 0.151589 0.176518 0.201292 0.225911 0.250375 0.274685 0.298839 0.322736 0.346273 0.369449 0.392266 0.414722 0.436817 0.458553 0.479928 0.500757 0.520855 0.540221 0.558855 0.576757 0.593928 0.610367 0.626074 0.64104 0.655253 0.668714 0.681423 0.693379 0.704584 0.715036 0.724736 0.733775 0.742241 0.750136 0.75746 0.764212 0.770392 0.776 0.781037 0.785607 0.789817 0.793665 0.797151 0.800277 0.803041 0.805444 0.807487 0.809232 0.810744 0.812024 0.813071 0.813885 0.814467 0.814816 0.814932 0.814816 0.814467 0.813885 0.813071 0.812024 0.810744 0.809232 0.807487 0.805445 0.803042 0.800278 0.797152 0.793666 0.789818 0.785609 0.781038 0.776002 0.770394 0.764214 0.757462 0.750139 0.742244 0.733778 0.72474 0.71504 0.704588 0.693383 0.681427 0.668719 0.655258 0.641045 0.62608 0.610374 0.593935 0.576765 0.558863 0.540229 0.520864 0.500767 0.479938 0.458563 0.436828 0.414733 0.392277 0.369461 0.346285 0.322749 0.298852 0.274698 0.250388 0.225924 0.201304 0.176529 0.151599 0.126513 0.101273 0.0775369 0.0569659 0.0395597 0.0253182 0.0142415 0.00632955 0.00158239 0 0 0.00175393 0.00701572 0.0157854 0.0280629 0.0438483 0.0631415 0.0859426 0.112252 0.140225 0.168019 0.195634 0.223069 0.250325 0.277403 0.3043 0.331019 0.357445 0.383466 0.409081 0.434291 0.459095 0.483493 0.507486 0.531073 0.554051 0.576215 0.597564 0.6181 0.637821 0.656729 0.674822 0.692102 0.708558 0.724182 0.738974 0.752934 0.766062 0.778358 0.789821 0.800453 0.810354 0.819625 0.828268 0.836281 0.843666 0.850421 0.856547 0.862044 0.867029 0.871619 0.875813 0.879613 0.883018 0.886028 0.888642 0.890862 0.892758 0.894401 0.895791 0.896928 0.897813 0.898445 0.898824 0.89895 0.898824 0.898445 0.897813 0.896928 0.895791 0.894401 0.892758 0.890862 0.888643 0.886028 0.883019 0.879614 0.875815 0.87162 0.86703 0.862046 0.856549 0.850423 0.843668 0.836284 0.828271 0.819628 0.810357 0.800457 0.789825 0.778362 0.766067 0.752939 0.73898 0.724188 0.708564 0.692108 0.674829 0.656736 0.637829 0.618108 0.597573 0.576224 0.554061 0.531084 0.507497 0.483505 0.459107 0.434303 0.409094 0.383479 0.357459 0.331033 0.304315 0.277417 0.250339 0.223082 0.195646 0.16803 0.140234 0.112259 0.0859485 0.0631458 0.0438513 0.0280648 0.0157865 0.0070162 0.00175405 0 0 0.00192457 0.0076983 0.0173212 0.0307932 0.0481144 0.0692847 0.0943041 0.123173 0.153863 0.184349 0.214629 0.244703 0.274573 0.304237 0.333696 0.362949 0.391874 0.420347 0.448368 0.475936 0.503052 0.529717 0.555929 0.581688 0.606774 0.630963 0.654255 0.676651 0.698151 0.718753 0.738459 0.757269 0.775175 0.792169 0.808252 0.823424 0.837685 0.851034 0.863473 0.874999 0.885728 0.895772 0.90513 0.913804 0.921792 0.929095 0.935713 0.941646 0.947023 0.951972 0.956494 0.960589 0.964256 0.967496 0.970309 0.972694 0.97473 0.976494 0.977987 0.979208 0.980159 0.980837 0.981244 0.98138 0.981244 0.980837 0.980159 0.979209 0.977987 0.976494 0.97473 0.972694 0.970309 0.967497 0.964257 0.96059 0.956495 0.951974 0.947024 0.941648 0.935715 0.929097 0.921794 0.913806 0.905133 0.895775 0.885732 0.875003 0.863477 0.851039 0.83769 0.82343 0.808258 0.792175 0.775181 0.757276 0.738467 0.718762 0.698159 0.676661 0.654265 0.630973 0.606785 0.5817 0.55594 0.529729 0.503065 0.475949 0.448381 0.420361 0.391889 0.362964 0.333711 0.304252 0.274588 0.244717 0.214642 0.18436 0.153874 0.123181 0.0943105 0.0692894 0.0481176 0.0307953 0.0173223 0.00769882 0.0019247 0 0 0.00209421 0.00837683 0.0188479 0.0335073 0.0523552 0.0753915 0.102616 0.134029 0.16742 0.200578 0.233503 0.266194 0.298653 0.330878 0.362871 0.39463 0.426023 0.456916 0.487309 0.517202 0.546595 0.575488 0.60388 0.631773 0.658926 0.6851 0.710294 0.73451 0.757745 0.780002 0.801279 0.821576 0.840889 0.859213 0.876547 0.892892 0.908247 0.922613 0.935989 0.948376 0.959898 0.970681 0.980724 0.990027 0.998591 1.00641 1.0135 1.01984 1.02559 1.03088 1.03571 1.04008 1.04399 1.04745 1.05044 1.05298 1.05515 1.05702 1.05861 1.05991 1.06092 1.06164 1.06208 1.06222 1.06208 1.06164 1.06092 1.05991 1.05861 1.05702 1.05515 1.05298 1.05044 1.04745 1.04399 1.04008 1.03571 1.03088 1.02559 1.01985 1.0135 1.00642 0.998593 0.99003 0.980727 0.970684 0.959902 0.94838 0.935994 0.922618 0.908253 0.892898 0.876554 0.85922 0.840897 0.821584 0.801287 0.78001 0.757755 0.734519 0.710305 0.685111 0.658938 0.631785 0.603893 0.575501 0.546609 0.517216 0.487324 0.456931 0.426039 0.394646 0.362887 0.330895 0.298669 0.266209 0.233517 0.200591 0.167431 0.134038 0.102623 0.0753965 0.0523587 0.0335095 0.0188491 0.00837739 0.00209435 0 0 0.00226207 0.00904829 0.0203587 0.0361932 0.0565518 0.0814346 0.110842 0.144773 0.180835 0.216634 0.252172 0.287447 0.32246 0.35721 0.391698 0.425924 0.459744 0.493015 0.525737 0.557909 0.589532 0.620606 0.651131 0.681107 0.710277 0.738384 0.76543 0.791413 0.816333 0.840192 0.862988 0.884722 0.905392 0.924995 0.943532 0.961002 0.977405 0.992742 1.00701 1.02022 1.03249 1.04397 1.05466 1.06456 1.07366 1.08198 1.0895 1.09622 1.10231 1.10791 1.11303 1.11765 1.12179 1.12545 1.12861 1.13129 1.13357 1.13555 1.13722 1.13859 1.13966 1.14042 1.14088 1.14103 1.14088 1.14042 1.13966 1.13859 1.13722 1.13555 1.13357 1.13129 1.12861 1.12545 1.12179 1.11765 1.11303 1.10791 1.10231 1.09623 1.0895 1.08198 1.07367 1.06456 1.05467 1.04398 1.03249 1.02022 1.00702 0.992747 0.977411 0.961008 0.943538 0.925002 0.9054 0.884731 0.862997 0.840201 0.816343 0.791423 0.765441 0.738396 0.710289 0.68112 0.651145 0.620621 0.589547 0.557924 0.525753 0.493031 0.459761 0.425941 0.391716 0.357227 0.322476 0.287463 0.252187 0.216648 0.180846 0.144782 0.110849 0.0814399 0.0565555 0.0361955 0.02036 0.00904888 0.00226222 0 0 0.00242741 0.00970964 0.0218467 0.0388386 0.0606853 0.0873868 0.118943 0.155354 0.194046 0.232446 0.270552 0.308366 0.345887 0.383115 0.42005 0.456693 0.492889 0.528485 0.563482 0.597879 0.631676 0.664873 0.697471 0.729468 0.760594 0.790574 0.819409 0.847099 0.873643 0.899043 0.923298 0.946407 0.968373 0.989196 1.00888 1.02742 1.04481 1.06107 1.07618 1.09015 1.10313 1.11527 1.12656 1.13701 1.14661 1.15538 1.1633 1.17037 1.17677 1.18266 1.18803 1.19289 1.19723 1.20106 1.20438 1.20718 1.20956 1.21163 1.21338 1.21481 1.21592 1.21672 1.2172 1.21736 1.2172 1.21672 1.21593 1.21481 1.21338 1.21163 1.20956 1.20718 1.20438 1.20106 1.19723 1.19289 1.18803 1.18266 1.17678 1.17038 1.1633 1.15538 1.14662 1.13701 1.12656 1.11527 1.10313 1.09016 1.07619 1.06107 1.04482 1.02742 1.00888 0.989204 0.968381 0.946416 0.923307 0.899053 0.873654 0.84711 0.81942 0.790586 0.760607 0.729482 0.697485 0.664888 0.631691 0.597895 0.563498 0.528502 0.492906 0.456711 0.420069 0.383133 0.345905 0.308383 0.270568 0.23246 0.194059 0.155364 0.118951 0.0873923 0.0606891 0.038841 0.0218481 0.00971026 0.00242756 0 0 0.00259022 0.0103609 0.023312 0.0414435 0.0647555 0.093248 0.126921 0.165774 0.207055 0.248012 0.288644 0.328952 0.368935 0.408593 0.447927 0.486936 0.525457 0.563327 0.600544 0.637111 0.673025 0.708288 0.742899 0.776858 0.809877 0.841669 0.872232 0.901568 0.929675 0.956555 0.982207 1.00663 1.02983 1.05182 1.07259 1.09214 1.11047 1.12759 1.1435 1.15819 1.17182 1.18456 1.19641 1.20737 1.21744 1.22662 1.2349 1.2423 1.24897 1.25512 1.26072 1.26578 1.27031 1.27429 1.27774 1.28065 1.28312 1.28527 1.28708 1.28856 1.28972 1.29054 1.29104 1.2912 1.29104 1.29054 1.28972 1.28856 1.28708 1.28527 1.28312 1.28065 1.27774 1.27429 1.27031 1.26578 1.26072 1.25512 1.24898 1.2423 1.2349 1.22662 1.21744 1.20737 1.19642 1.18456 1.17182 1.15819 1.1435 1.1276 1.11048 1.09214 1.07259 1.05182 1.02984 1.00664 0.982216 0.956565 0.929686 0.901579 0.872245 0.841682 0.809891 0.776872 0.742913 0.708303 0.673041 0.637127 0.600562 0.563344 0.525476 0.486955 0.447946 0.408612 0.368953 0.328969 0.288661 0.248027 0.207068 0.165784 0.126929 0.0932538 0.0647596 0.0414461 0.0233134 0.0103615 0.00259038 0 0 0.00275051 0.011002 0.0247545 0.0440081 0.0687626 0.0990182 0.134775 0.176032 0.219862 0.263333 0.306447 0.349204 0.391603 0.433644 0.475328 0.516654 0.557449 0.597539 0.636924 0.675605 0.71358 0.75085 0.787415 0.823275 0.858128 0.891669 0.9239 0.95482 0.984429 1.01273 1.03972 1.06539 1.08977 1.11286 1.13465 1.15516 1.17439 1.19232 1.20896 1.22431 1.23855 1.25186 1.26422 1.27565 1.28614 1.29569 1.30431 1.31199 1.31892 1.32528 1.33109 1.33633 1.34102 1.34514 1.3487 1.3517 1.35425 1.35645 1.35832 1.35985 1.36104 1.36189 1.3624 1.36257 1.3624 1.36189 1.36104 1.35985 1.35832 1.35646 1.35425 1.3517 1.3487 1.34514 1.34102 1.33633 1.33109 1.32528 1.31892 1.31199 1.30431 1.2957 1.28614 1.27565 1.26423 1.25186 1.23856 1.22432 1.20897 1.19232 1.17439 1.15517 1.13466 1.11286 1.08978 1.0654 1.03972 1.01274 0.984441 0.954832 0.923913 0.891683 0.858142 0.82329 0.787431 0.750866 0.713596 0.675622 0.636942 0.597558 0.557468 0.516674 0.475348 0.433664 0.391622 0.349222 0.306464 0.263349 0.219875 0.176043 0.134783 0.0990242 0.0687668 0.0440107 0.024756 0.0110027 0.00275067 0 0 0.00290826 0.011633 0.0261744 0.0465322 0.0727066 0.104697 0.142505 0.186129 0.232465 0.278409 0.323962 0.369123 0.413892 0.458269 0.502254 0.545847 0.588865 0.631123 0.672622 0.713361 0.75334 0.79256 0.83102 0.868721 0.905345 0.940576 0.974412 1.00686 1.03791 1.06756 1.09582 1.12269 1.14818 1.17231 1.19509 1.2165 1.23655 1.25524 1.27257 1.28854 1.30334 1.31716 1.32999 1.34185 1.35272 1.36261 1.37152 1.37945 1.38659 1.39316 1.39914 1.40454 1.40936 1.4136 1.41725 1.42033 1.42294 1.4252 1.42711 1.42868 1.42989 1.43076 1.43129 1.43146 1.43129 1.43076 1.42989 1.42868 1.42711 1.4252 1.42294 1.42033 1.41726 1.4136 1.40936 1.40454 1.39914 1.39316 1.3866 1.37945 1.37152 1.36261 1.35272 1.34185 1.33 1.31716 1.30334 1.28854 1.27257 1.25524 1.23655 1.2165 1.19509 1.17232 1.14819 1.1227 1.09583 1.06757 1.03792 1.00687 0.974425 0.940589 0.905359 0.868736 0.831036 0.792577 0.753357 0.713379 0.67264 0.631142 0.588885 0.545867 0.502274 0.458289 0.413911 0.369142 0.323979 0.278425 0.232479 0.18614 0.142513 0.104704 0.0727108 0.0465349 0.0261759 0.0116337 0.00290843 0 0 0.00306349 0.012254 0.0275714 0.0490159 0.0765873 0.110286 0.150111 0.196063 0.244866 0.293241 0.341188 0.388708 0.435801 0.482466 0.528705 0.574515 0.619705 0.664078 0.707636 0.750379 0.792306 0.833418 0.873714 0.913195 0.951529 0.988387 1.02377 1.05767 1.0901 1.12105 1.15053 1.17853 1.20508 1.23019 1.25388 1.27614 1.29696 1.31636 1.33432 1.35086 1.36617 1.38046 1.39372 1.40596 1.41718 1.42737 1.43654 1.44468 1.45201 1.45875 1.46488 1.47041 1.47534 1.47968 1.48341 1.48654 1.4892 1.4915 1.49344 1.49504 1.49628 1.49716 1.49769 1.49787 1.49769 1.49716 1.49628 1.49504 1.49344 1.4915 1.4892 1.48654 1.48341 1.47968 1.47534 1.47041 1.46488 1.45875 1.45202 1.44468 1.43654 1.42737 1.41718 1.40596 1.39372 1.38046 1.36618 1.35087 1.33433 1.31636 1.29697 1.27614 1.25389 1.2302 1.20509 1.17854 1.15054 1.12107 1.09011 1.05769 1.02378 0.988401 0.951544 0.91321 0.87373 0.833435 0.792324 0.750397 0.707655 0.664098 0.619725 0.574536 0.528725 0.482487 0.435821 0.388727 0.341206 0.293257 0.24488 0.196075 0.15012 0.110292 0.0765917 0.0490187 0.027573 0.0122547 0.00306367 0 0 0.0032162 0.0128648 0.0289458 0.0514591 0.0804049 0.115783 0.157594 0.205836 0.257064 0.307827 0.358125 0.40796 0.457331 0.506237 0.55468 0.602658 0.649968 0.696405 0.741969 0.78666 0.830478 0.873424 0.915496 0.956696 0.99668 1.0351 1.07197 1.10728 1.14102 1.17321 1.20384 1.23291 1.26045 1.28649 1.31103 1.33408 1.35563 1.37568 1.39423 1.41128 1.42705 1.44176 1.45541 1.46799 1.47951 1.48996 1.49935 1.50768 1.51517 1.52204 1.5283 1.53394 1.53896 1.54337 1.54716 1.55033 1.55302 1.55535 1.55732 1.55893 1.56018 1.56108 1.56162 1.5618 1.56162 1.56108 1.56018 1.55893 1.55732 1.55535 1.55302 1.55033 1.54716 1.54337 1.53896 1.53394 1.5283 1.52205 1.51517 1.50769 1.49936 1.48997 1.47951 1.46799 1.45541 1.44177 1.42706 1.41129 1.39423 1.37568 1.35563 1.33409 1.31104 1.2865 1.26046 1.23292 1.20385 1.17322 1.14103 1.10729 1.07198 1.03512 0.996695 0.956712 0.915513 0.873441 0.830496 0.786678 0.741988 0.696424 0.649988 0.602679 0.554701 0.506258 0.457351 0.40798 0.358143 0.307843 0.257078 0.205848 0.157602 0.115789 0.0804093 0.051462 0.0289474 0.0128655 0.00321637 0 0 0.00336637 0.0134655 0.0302973 0.0538619 0.0841593 0.121189 0.164952 0.215448 0.269059 0.322167 0.374774 0.426879 0.478481 0.529581 0.580179 0.630275 0.679654 0.728102 0.775618 0.822203 0.867856 0.912577 0.956367 0.999226 1.0408 1.08073 1.11901 1.15566 1.19066 1.22402 1.25574 1.28582 1.3143 1.34121 1.36655 1.39033 1.41254 1.43319 1.45228 1.46979 1.48598 1.50107 1.51505 1.52793 1.53972 1.5504 1.55998 1.56846 1.57607 1.58305 1.5894 1.59513 1.60022 1.60468 1.60851 1.61171 1.61441 1.61676 1.61874 1.62036 1.62162 1.62252 1.62307 1.62325 1.62307 1.62252 1.62162 1.62036 1.61874 1.61676 1.61441 1.61171 1.60851 1.60468 1.60022 1.59513 1.58941 1.58305 1.57607 1.56846 1.55998 1.5504 1.53972 1.52794 1.51505 1.50107 1.48599 1.4698 1.45228 1.4332 1.41255 1.39034 1.36656 1.34121 1.31431 1.28583 1.25576 1.22404 1.19068 1.15567 1.11903 1.08074 1.04081 0.999242 0.956384 0.912595 0.867874 0.822222 0.775638 0.728122 0.679675 0.630296 0.580201 0.529602 0.478502 0.426898 0.374792 0.322184 0.269073 0.215459 0.164961 0.121196 0.0841638 0.0538648 0.030299 0.0134662 0.00336655 0 0 0.00351267 0.0140507 0.0316141 0.0562028 0.0878168 0.126456 0.172121 0.224811 0.280743 0.336135 0.390986 0.445295 0.499064 0.552292 0.60498 0.657126 0.708507 0.758897 0.808295 0.856704 0.904121 0.950547 0.995983 1.04043 1.08351 1.12488 1.16452 1.20243 1.23862 1.27309 1.30584 1.33686 1.3662 1.39391 1.42 1.44445 1.46728 1.48847 1.50804 1.52597 1.54253 1.55794 1.57222 1.58537 1.59737 1.60824 1.61798 1.62658 1.63429 1.64135 1.64778 1.65356 1.6587 1.66319 1.66704 1.67026 1.67296 1.67531 1.6773 1.67892 1.68019 1.68109 1.68163 1.68181 1.68163 1.68109 1.68019 1.67892 1.6773 1.67531 1.67296 1.67026 1.66705 1.66319 1.6587 1.65356 1.64778 1.64135 1.63429 1.62658 1.61798 1.60825 1.59738 1.58537 1.57223 1.55795 1.54253 1.52598 1.50804 1.48848 1.46728 1.44446 1.42001 1.39392 1.36621 1.33687 1.30585 1.2731 1.23864 1.20245 1.16453 1.12489 1.08353 1.04044 0.996 0.950565 0.904139 0.856723 0.808315 0.758917 0.708528 0.657148 0.605002 0.552314 0.499085 0.445315 0.391004 0.336152 0.280758 0.224823 0.17213 0.126463 0.0878214 0.0562057 0.0316157 0.0140514 0.00351286 0 0 0.00365375 0.014615 0.0328838 0.05846 0.0913438 0.131535 0.179034 0.23384 0.29201 0.349601 0.406612 0.463043 0.518894 0.574165 0.628857 0.682969 0.736267 0.788514 0.839711 0.889858 0.938955 0.987002 1.034 1.07995 1.12446 1.16718 1.20809 1.2472 1.28451 1.32001 1.3537 1.38559 1.41574 1.44419 1.47095 1.49602 1.5194 1.54109 1.56108 1.57938 1.59626 1.61196 1.62649 1.63986 1.65205 1.66308 1.67294 1.68163 1.6894 1.69653 1.703 1.70882 1.71399 1.7185 1.72236 1.72557 1.72827 1.73061 1.7326 1.73422 1.73548 1.73638 1.73692 1.7371 1.73692 1.73638 1.73548 1.73422 1.7326 1.73062 1.72827 1.72557 1.72236 1.7185 1.71399