<?xml version="1.0"?> 
<VTKFile type="StructuredGrid" version="0.1"> 
<StructuredGrid WholeExtent="0 128 0 128 0 0"> 
<Piece Extent="0 128 0 128 0 0"> 
<PointData>
<DataArray type="Float32" Name="u" format="ascii" NumberOfComponents="1"> 
0 0 0 0 0 0 0 0 0 0 0 0 0 0 0 0 0 0 0 0 0 0 0 0 0 0 0 0 0 0 0 0 0 0 0 0 0 0 0 0 0 0 0 0 0 0 0 0 0 0 0 0 0 0 0 0 0 0 0 0 0 0 0 0 0 0 0 0 0 0 0 0 0 0 0 0 0 0 0 0 0 0 0 0 0 0 0 0 0 0 0 0 0 0 0 0 0 0 0 0 0 0 0 0 0 0 0 0 0 0 0 0 0 0 0 0 0 0 0 0 0 0 0 0 0 0 0 0 0 0 1.24995e-05 4.99982e-05 0.000112496 0.000199993 0.000312489 0.000449984 0.000612478 0.000799971 0.000999145 0.00119668 0.00139258 0.00158685 0.00177947 0.00197046 0.00215981 0.00234753 0.00253273 0.00271455 0.00289299 0.00306804 0.00323971 0.00340799 0.00357289 0.0037344 0.00389114 0.00404171 0.00418611 0.00432435 0.00445642 0.00458232 0.00470206 0.00481563 0.00492312 0.00502462 0.00512013 0.00520965 0.00529318 0.00537072 0.00544227 0.00550783 0.00556828 0.00562449 0.00567648 0.00572422 0.00576774 0.00580702 0.00584207 0.00587289 0.00590041 0.00592559 0.00594841 0.00596888 0.005987 0.00600277 0.00601618 0.00602725 0.00603652 0.00604456 0.00605136 0.00605692 0.00606125 0.00606434 0.00606619 0.00606681 0.00606619 0.00606434 0.00606125 0.00605692 0.00605136 0.00604456 0.00603653 0.00602725 0.00601619 0.00600277 0.00598701 0.00596889 0.00594842 0.0059256 0.00590043 0.00587291 0.00584209 0.00580704 0.00576776 0.00572425 0.0056765 0.00562452 0.00556831 0.00550786 0.0054423 0.00537076 0.00529322 0.00520969 0.00512017 0.00502467 0.00492317 0.00481568 0.00470212 0.00458239 0.00445649 0.00432442 0.00418619 0.00404179 0.00389122 0.00373449 0.00357298 0.00340809 0.00323981 0.00306815 0.0028931 0.00271467 0.00253285 0.00234765 0.00215993 0.00197058 0.00177959 0.00158696 0.00139269 0.00119678 0.000999225 0.000800036 0.000612528 0.00045002 0.000312514 0.000200009 0.000112505 5.00023e-05 1.25006e-05 0 0 4.99982e-05 0.000199993 0.000449984 0.000799971 0.00124995 0.00179993 0.00244991 0.00319988 0.00399658 0.00478673 0.00557033 0.00634739 0.00711789 0.00788185 0.00863926 0.00939012 0.0101309 0.0108582 0.011572 0.0122722 0.0129588 0.013632 0.0142916 0.0149376 0.0155646 0.0161668 0.0167444 0.0172974 0.0178257 0.0183293 0.0188082 0.0192625 0.0196925 0.0200985 0.0204805 0.0208386 0.0211727 0.0214829 0.0217691 0.0220313 0.0222731 0.022498 0.0227059 0.0228969 0.023071 0.0232281 0.0233683 0.0234916 0.0236017 0.0237023 0.0237936 0.0238755 0.023948 0.0240111 0.0240647 0.024109 0.0241461 0.0241782 0.0242054 0.0242277 0.024245 0.0242574 0.0242648 0.0242672 0.0242648 0.0242574 0.024245 0.0242277 0.0242054 0.0241782 0.0241461 0.024109 0.0240648 0.0240111 0.023948 0.0238756 0.0237937 0.0237024 0.0236017 0.0234916 0.0233684 0.0232282 0.023071 0.022897 0.022706 0.0224981 0.0222732 0.0220314 0.0217692 0.021483 0.0211729 0.0208388 0.0204807 0.0200987 0.0196927 0.0192627 0.0188085 0.0183296 0.017826 0.0172977 0.0167448 0.0161672 0.0155649 0.014938 0.0142919 0.0136324 0.0129592 0.0122726 0.0115724 0.0108587 0.0101314 0.00939059 0.00863974 0.00788233 0.00711836 0.00634783 0.00557074 0.0047871 0.0039969 0.00320014 0.00245011 0.00180008 0.00125006 0.000800036 0.00045002 0.000200009 5.00023e-05 0 0 0.000112496 0.000449984 0.00101246 0.00179993 0.0028124 0.00404985 0.0055123 0.00719974 0.00899231 0.0107701 0.0125332 0.0142816 0.0160153 0.0177342 0.0194383 0.0211278 0.0227946 0.024431 0.0260369 0.0276124 0.0291574 0.0306719 0.032156 0.0336096 0.0350202 0.0363754 0.037675 0.0389191 0.0401078 0.0412409 0.0423185 0.0433406 0.044308 0.0452215 0.0460811 0.0468868 0.0476386 0.0483365 0.0489804 0.0495705 0.0501145 0.0506204 0.0510883 0.051518 0.0519097 0.0522632 0.0525787 0.052856 0.0531037 0.0533303 0.0535357 0.0537199 0.053883 0.0540249 0.0541456 0.0542452 0.0543287 0.054401 0.0544622 0.0545123 0.0545512 0.054579 0.0545957 0.0546013 0.0545957 0.0545791 0.0545512 0.0545123 0.0544622 0.054401 0.0543287 0.0542453 0.0541457 0.054025 0.0538831 0.05372 0.0535358 0.0533304 0.0531038 0.0528561 0.0525788 0.0522634 0.0519099 0.0515182 0.0510885 0.0506207 0.0501148 0.0495708 0.0489807 0.0483368 0.047639 0.0468872 0.0460816 0.045222 0.0443085 0.0433412 0.0423191 0.0412415 0.0401084 0.0389198 0.0376757 0.0363761 0.035021 0.0336104 0.0321568 0.0306728 0.0291583 0.0276133 0.0260379 0.024432 0.0227956 0.0211288 0.0194394 0.0177352 0.0160163 0.0142826 0.0125342 0.010771 0.00899303 0.00720032 0.00551275 0.00405018 0.00281263 0.00180008 0.00101255 0.00045002 0.000112505 0 0 0.000199993 0.000799971 0.00179993 0.00319988 0.00499982 0.00719974 0.00979965 0.0127995 0.0159863 0.0191469 0.0222813 0.0253895 0.0284716 0.0315274 0.034557 0.0375605 0.0405237 0.0434329 0.0462878 0.0490887 0.0518353 0.0545278 0.0571662 0.0597504 0.0622582 0.0646673 0.0669778 0.0691896 0.0713027 0.0733171 0.0752329 0.07705 0.0787699 0.0803939 0.081922 0.0833543 0.0846908 0.0859315 0.0870763 0.0881253 0.0890924 0.0899919 0.0908236 0.0915876 0.0922838 0.0929124 0.0934732 0.0939662 0.0944066 0.0948094 0.0951745 0.095502 0.095792 0.0960442 0.0962589 0.096436 0.0965843 0.0967129 0.0968217 0.0969107 0.0969799 0.0970294 0.0970591 0.097069 0.0970591 0.0970294 0.09698 0.0969108 0.0968218 0.096713 0.0965844 0.0964361 0.096259 0.0960444 0.0957921 0.0955022 0.0951747 0.0948096 0.0944068 0.0939665 0.0934734 0.0929127 0.0922842 0.091588 0.090824 0.0899923 0.0890929 0.0881258 0.0870769 0.0859321 0.0846915 0.0833551 0.0819228 0.0803947 0.0787707 0.077051 0.0752339 0.0733182 0.0713038 0.0691908 0.066979 0.0646687 0.0622596 0.0597519 0.0571677 0.0545294 0.051837 0.0490904 0.0462896 0.0434347 0.0405256 0.0375624 0.034559 0.0315293 0.0284734 0.0253913 0.022283 0.0191484 0.0159876 0.0128006 0.00980044 0.00720032 0.00500023 0.00320014 0.00180008 0.000800036 0.000200009 0 0 0.000312489 0.00124995 0.0028124 0.00499982 0.00781222 0.0112496 0.0153119 0.0199993 0.0249786 0.0299171 0.0348146 0.0396712 0.0444868 0.0492615 0.0539954 0.0586882 0.0633184 0.0678639 0.0723248 0.076701 0.0809927 0.0851998 0.0893222 0.09336 0.0972785 0.101043 0.104653 0.108109 0.11141 0.114558 0.117551 0.120391 0.123078 0.125615 0.128003 0.130241 0.132329 0.134268 0.136057 0.137696 0.139207 0.140612 0.141912 0.143106 0.144194 0.145176 0.146052 0.146822 0.14751 0.14814 0.14871 0.149222 0.149675 0.150069 0.150405 0.150681 0.150913 0.151114 0.151284 0.151423 0.151531 0.151608 0.151655 0.15167 0.151655 0.151608 0.151531 0.151423 0.151284 0.151114 0.150913 0.150681 0.150405 0.150069 0.149675 0.149222 0.14871 0.14814 0.147511 0.146823 0.146052 0.145176 0.144194 0.143106 0.141913 0.140613 0.139208 0.137697 0.136058 0.134269 0.13233 0.130242 0.128004 0.125617 0.123079 0.120392 0.117553 0.11456 0.111412 0.108111 0.104655 0.101045 0.0972806 0.0933623 0.0893246 0.0852022 0.0809953 0.0767037 0.0723275 0.0678667 0.0633212 0.0586912 0.0539984 0.0492645 0.0444897 0.0396739 0.0348171 0.0299194 0.0249806 0.0200009 0.0153132 0.0112505 0.00781285 0.00500023 0.00281263 0.00125006 0.000312514 0 0 0.000449984 0.00179993 0.00404985 0.00719974 0.0112496 0.0161994 0.0220492 0.028799 0.0359692 0.0430806 0.050133 0.0571265 0.064061 0.0709366 0.0777533 0.0845111 0.0911784 0.097724 0.104148 0.110449 0.116629 0.122688 0.128624 0.134438 0.140081 0.145502 0.1507 0.155677 0.160431 0.164964 0.169274 0.173363 0.177232 0.180886 0.184325 0.187547 0.190554 0.193346 0.195922 0.198282 0.200458 0.202482 0.204353 0.206072 0.207639 0.209053 0.210315 0.211424 0.212415 0.213321 0.214143 0.21488 0.215532 0.2161 0.216583 0.216981 0.217315 0.217604 0.217849 0.218049 0.218205 0.218316 0.218383 0.218405 0.218383 0.218316 0.218205 0.218049 0.217849 0.217604 0.217315 0.216981 0.216583 0.2161 0.215532 0.21488 0.214143 0.213322 0.212415 0.211425 0.210315 0.209054 0.207639 0.206073 0.204354 0.202483 0.200459 0.198283 0.195923 0.193347 0.190556 0.187549 0.184326 0.180888 0.177234 0.173365 0.169276 0.164966 0.160434 0.155679 0.150703 0.145504 0.140084 0.134442 0.128627 0.122691 0.116633 0.110453 0.104152 0.097728 0.0911826 0.0845153 0.0777576 0.0709409 0.0640652 0.0571305 0.0501367 0.0430839 0.0359721 0.0288013 0.022051 0.0162007 0.0112505 0.00720032 0.00405018 0.00180008 0.00045002 0 0 0.000612478 0.00244991 0.0055123 0.00979965 0.0153119 0.0220492 0.0300114 0.0391986 0.0489581 0.0586375 0.0682366 0.0777555 0.0871942 0.0965526 0.105831 0.115029 0.124104 0.133013 0.141757 0.150334 0.158746 0.166992 0.175071 0.182986 0.190666 0.198044 0.20512 0.211893 0.218365 0.224534 0.230401 0.235966 0.241233 0.246206 0.250886 0.255273 0.259366 0.263165 0.266671 0.269884 0.272846 0.2756 0.278147 0.280487 0.282619 0.284544 0.286262 0.287772 0.28912 0.290354 0.291472 0.292475 0.293363 0.294136 0.294793 0.295335 0.29579 0.296183 0.296516 0.296789 0.297001 0.297153 0.297243 0.297274 0.297243 0.297153 0.297001 0.296789 0.296517 0.296183 0.29579 0.295335 0.294793 0.294136 0.293363 0.292476 0.291473 0.290354 0.289121 0.287772 0.286262 0.284545 0.28262 0.280488 0.278149 0.275602 0.272847 0.269885 0.266673 0.263167 0.259368 0.255275 0.250889 0.246209 0.241235 0.235969 0.230404 0.224537 0.218368 0.211897 0.205123 0.198048 0.19067 0.18299 0.175076 0.166996 0.158751 0.150339 0.141762 0.133019 0.12411 0.115035 0.105837 0.0965585 0.0871999 0.0777609 0.0682416 0.058642 0.048962 0.0392018 0.0300139 0.022051 0.0153132 0.00980044 0.00551275 0.00245011 0.000612528 0 0 0.000799971 0.00319988 0.00719974 0.0127995 0.0199993 0.028799 0.0391986 0.0511982 0.0639453 0.0765877 0.0891253 0.101558 0.113886 0.12611 0.138228 0.150242 0.162095 0.173731 0.185151 0.196355 0.207341 0.218111 0.228665 0.239002 0.249033 0.258669 0.267911 0.276758 0.285211 0.293269 0.300932 0.3082 0.315079 0.321575 0.327688 0.333417 0.338763 0.343726 0.348305 0.352501 0.35637 0.359968 0.363294 0.36635 0.369135 0.371649 0.373893 0.375865 0.377626 0.379237 0.380698 0.382008 0.383168 0.384177 0.385036 0.385744 0.386337 0.386852 0.387287 0.387643 0.38792 0.388118 0.388236 0.388276 0.388236 0.388118 0.38792 0.387643 0.387287 0.386852 0.386338 0.385744 0.385036 0.384178 0.383168 0.382009 0.380699 0.379238 0.377627 0.375866 0.373894 0.371651 0.369137 0.366352 0.363296 0.359969 0.356372 0.352503 0.348307 0.343728 0.338766 0.33342 0.327691 0.321579 0.315083 0.308204 0.300936 0.293273 0.285215 0.276763 0.267916 0.258675 0.249038 0.239007 0.228671 0.218118 0.207348 0.196361 0.185158 0.173739 0.162102 0.150249 0.138236 0.126117 0.113894 0.101565 0.0891319 0.0765936 0.0639504 0.0512023 0.0392018 0.0288013 0.0200009 0.0128006 0.00720032 0.00320014 0.000800036 0 0 0.000999144 0.00399658 0.0089923 0.0159863 0.0249786 0.0359692 0.0489581 0.0639452 0.0798656 0.0956542 0.111311 0.126836 0.142229 0.15749 0.17262 0.187617 0.202413 0.216938 0.231191 0.245173 0.258884 0.272324 0.285492 0.298389 0.310903 0.322924 0.334452 0.345487 0.356029 0.366077 0.375632 0.384694 0.39327 0.401368 0.408987 0.416127 0.422789 0.428973 0.434677 0.439904 0.444722 0.449203 0.453346 0.457151 0.460618 0.463747 0.466539 0.468993 0.471184 0.473189 0.475005 0.476635 0.478077 0.479331 0.480399 0.481279 0.482016 0.482655 0.483196 0.483638 0.483982 0.484228 0.484375 0.484425 0.484375 0.484228 0.483982 0.483638 0.483196 0.482655 0.482017 0.481279 0.480399 0.479332 0.478077 0.476636 0.475006 0.47319 0.471186 0.468994 0.466541 0.463749 0.46062 0.457153 0.453348 0.449205 0.444725 0.439907 0.43468 0.428976 0.422792 0.416131 0.40899 0.401372 0.393275 0.384699 0.375637 0.366082 0.356034 0.345493 0.334459 0.322931 0.31091 0.298396 0.285499 0.272332 0.258892 0.245182 0.2312 0.216947 0.202422 0.187627 0.172629 0.1575 0.142238 0.126845 0.111319 0.0956616 0.079872 0.0639504 0.048962 0.0359721 0.0249806 0.0159876 0.00899303 0.0039969 0.000999225 0 0 0.00119668 0.00478671 0.0107701 0.0191469 0.029917 0.0430804 0.0586372 0.0765874 0.095654 0.11456 0.133305 0.15189 0.170314 0.188577 0.20668 0.224622 0.242321 0.259692 0.276736 0.293453 0.309842 0.325905 0.34164 0.357049 0.371998 0.386355 0.400121 0.413295 0.425878 0.437869 0.449268 0.460076 0.470302 0.479956 0.489038 0.497547 0.505484 0.512849 0.519642 0.525862 0.531595 0.536925 0.541852 0.546377 0.550498 0.554217 0.557532 0.560445 0.563046 0.565423 0.567578 0.56951 0.571219 0.572706 0.57397 0.575012 0.575884 0.57664 0.577279 0.577803 0.578209 0.5785 0.578675 0.578733 0.578675 0.5785 0.57821 0.577803 0.57728 0.57664 0.575885 0.575013 0.573971 0.572707 0.57122 0.569511 0.567579 0.565424 0.563047 0.560447 0.557534 0.554219 0.5505 0.546379 0.541855 0.536928 0.531598 0.525866 0.519645 0.512853 0.505488 0.497552 0.489043 0.479961 0.470308 0.460082 0.449274 0.437875 0.425884 0.413302 0.400128 0.386363 0.372006 0.357057 0.341649 0.325914 0.309852 0.293463 0.276746 0.259702 0.242332 0.224634 0.206692 0.188589 0.170325 0.1519 0.133315 0.114569 0.0956615 0.0765936 0.0586419 0.0430839 0.0299194 0.0191484 0.010771 0.0047871 0.00119677 0 0 0.00139257 0.00557029 0.0125332 0.0222812 0.0348143 0.0501326 0.0682361 0.0891247 0.11131 0.133305 0.155108 0.17672 0.198141 0.219371 0.24041 0.261257 0.281817 0.301993 0.321785 0.341192 0.360216 0.378855 0.397111 0.414982 0.432316 0.448961 0.464916 0.480181 0.494757 0.508643 0.52184 0.534347 0.546177 0.557342 0.567842 0.577678 0.58685 0.595356 0.603199 0.610376 0.616988 0.623135 0.628814 0.634028 0.638776 0.643057 0.646873 0.650222 0.653209 0.655941 0.658416 0.660634 0.662596 0.664302 0.665751 0.666943 0.667941 0.668806 0.669537 0.670136 0.670602 0.670934 0.671134 0.6712 0.671134 0.670934 0.670602 0.670136 0.669538 0.668806 0.667941 0.666944 0.665751 0.664302 0.662597 0.660635 0.658417 0.655942 0.653211 0.650223 0.646874 0.643059 0.638778 0.634031 0.628817 0.623138 0.616992 0.61038 0.603203 0.595361 0.586854 0.577683 0.567848 0.557347 0.546183 0.534353 0.521847 0.508651 0.494765 0.48019 0.464925 0.44897 0.432326 0.414992 0.397121 0.378866 0.360227 0.341204 0.321797 0.302005 0.28183 0.26127 0.240423 0.219384 0.198154 0.176732 0.155119 0.133315 0.111319 0.0891317 0.0682415 0.0501366 0.0348171 0.0222829 0.0125342 0.00557073 0.00139268 0 0 0.00158683 0.00634732 0.0142815 0.0253893 0.0396707 0.0571259 0.0777546 0.101557 0.126835 0.151889 0.17672 0.201327 0.225711 0.249871 0.273808 0.297522 0.320903 0.343841 0.366338 0.388392 0.410005 0.431175 0.451902 0.472188 0.491859 0.510742 0.528838 0.546147 0.562668 0.578401 0.593347 0.607505 0.620892 0.633524 0.6454 0.65652 0.666885 0.676494 0.685347 0.693446 0.700902 0.707831 0.714232 0.720105 0.725451 0.730269 0.734559 0.738322 0.741676 0.744742 0.747519 0.750007 0.752206 0.754117 0.755739 0.757072 0.758187 0.759153 0.75997 0.760639 0.761159 0.76153 0.761753 0.761828 0.761753 0.76153 0.761159 0.760639 0.75997 0.759153 0.758187 0.757073 0.75574 0.754118 0.752208 0.750008 0.74752 0.744744 0.741678 0.738324 0.734562 0.730271 0.725454 0.720108 0.714235 0.707834 0.700906 0.69345 0.685352 0.676499 0.66689 0.656525 0.645406 0.63353 0.620899 0.607513 0.593355 0.578409 0.562676 0.546156 0.528848 0.510752 0.49187 0.472199 0.451914 0.431187 0.410017 0.388405 0.366351 0.343855 0.320917 0.297536 0.273823 0.249886 0.225725 0.20134 0.176732 0.1519 0.126844 0.101565 0.0777607 0.0571303 0.0396738 0.0253912 0.0142826 0.00634781 0.00158695 0 0 0.00177945 0.00711778 0.016015 0.0284711 0.0444862 0.0640601 0.0871929 0.113885 0.142227 0.170312 0.19814 0.22571 0.253023 0.280078 0.306876 0.333416 0.359577 0.385237 0.410396 0.435053 0.459209 0.482863 0.506016 0.528668 0.550626 0.571699 0.591888 0.611191 0.629609 0.647142 0.66379 0.679552 0.69445 0.708502 0.72171 0.734072 0.745589 0.756261 0.766088 0.77507 0.783336 0.791014 0.798105 0.804608 0.810524 0.815852 0.820593 0.824746 0.828446 0.831827 0.834887 0.837629 0.840051 0.842153 0.843936 0.845399 0.846622 0.847681 0.848577 0.84931 0.849881 0.850288 0.850533 0.850614 0.850533 0.850288 0.849881 0.849311 0.848578 0.847681 0.846622 0.8454 0.843937 0.842154 0.840052 0.83763 0.834889 0.831828 0.828448 0.824748 0.820595 0.815855 0.810527 0.804611 0.798108 0.791018 0.78334 0.775075 0.766093 0.756267 0.745595 0.734078 0.721716 0.708509 0.694457 0.67956 0.663798 0.647151 0.629618 0.611201 0.591898 0.57171 0.550638 0.52868 0.506029 0.482876 0.459222 0.435067 0.41041 0.385252 0.359593 0.333432 0.306892 0.280094 0.253038 0.225725 0.198153 0.170324 0.142238 0.113893 0.0871995 0.064065 0.0444896 0.0284733 0.0160162 0.00711833 0.00177958 0 0 0.00197042 0.0078817 0.0177338 0.0315268 0.0492606 0.0709353 0.0965508 0.126107 0.157487 0.188574 0.219368 0.249869 0.280077 0.309991 0.339612 0.368941 0.397841 0.42618 0.453958 0.481174 0.507828 0.53392 0.559451 0.58442 0.608617 0.631832 0.654064 0.675313 0.695581 0.714865 0.733167 0.750487 0.766849 0.782278 0.796773 0.810335 0.822964 0.834659 0.845422 0.85525 0.86429 0.872684 0.880433 0.887536 0.893994 0.899806 0.904973 0.909495 0.913519 0.917194 0.920521 0.923499 0.926129 0.92841 0.930341 0.931925 0.933245 0.93439 0.935359 0.936151 0.936768 0.937208 0.937472 0.93756 0.937472 0.937208 0.936768 0.936152 0.935359 0.934391 0.933246 0.931926 0.930342 0.928411 0.92613 0.923501 0.920523 0.917196 0.913521 0.909497 0.904976 0.899809 0.893997 0.88754 0.880437 0.872688 0.864295 0.855255 0.845427 0.834665 0.82297 0.810342 0.79678 0.782285 0.766857 0.750496 0.733177 0.714875 0.695591 0.675324 0.654075 0.631844 0.60863 0.584433 0.559465 0.533935 0.507843 0.481189 0.453974 0.426197 0.397858 0.368958 0.33963 0.310009 0.280094 0.249885 0.219383 0.188588 0.157499 0.126117 0.096558 0.0709406 0.0492643 0.0315292 0.0177351 0.00788229 0.00197057 0 0 0.00215976 0.00863905 0.0194379 0.0345562 0.0539941 0.0777514 0.105828 0.138225 0.172616 0.206676 0.240406 0.273805 0.306873 0.339611 0.372018 0.404095 0.435694 0.466671 0.497024 0.526755 0.555862 0.584346 0.612208 0.639446 0.665832 0.69114 0.715367 0.738515 0.760583 0.781572 0.801481 0.82031 0.83809 0.854849 0.870589 0.885308 0.899008 0.911687 0.923347 0.933986 0.943765 0.952841 0.961217 0.96889 0.975862 0.982132 0.9877 0.992567 0.996895 1.00085 1.00442 1.00762 1.01044 1.01289 1.01496 1.01665 1.01806 1.01928 1.02031 1.02116 1.02182 1.02229 1.02257 1.02267 1.02257 1.02229 1.02182 1.02116 1.02032 1.01928 1.01806 1.01665 1.01496 1.01289 1.01044 1.00762 1.00442 1.00085 0.996897 0.99257 0.987703 0.982135 0.975865 0.968894 0.961221 0.952846 0.94377 0.933991 0.923352 0.911694 0.899015 0.885316 0.870597 0.854858 0.838099 0.82032 0.801491 0.781582 0.760594 0.738527 0.715379 0.691153 0.665846 0.63946 0.612223 0.584362 0.555878 0.526771 0.497042 0.466689 0.435712 0.404113 0.372037 0.33963 0.306891 0.273822 0.240422 0.20669 0.172628 0.138235 0.105836 0.0777572 0.053998 0.0345587 0.0194393 0.00863969 0.00215992 0 0 0.00234746 0.00938985 0.0211272 0.0375594 0.0586865 0.0845086 0.115026 0.150238 0.187612 0.224617 0.261252 0.297517 0.333412 0.368937 0.404093 0.438878 0.473136 0.506709 0.539595 0.571796 0.603312 0.634142 0.664286 0.693744 0.722272 0.749623 0.775797 0.800795 0.824617 0.847262 0.86873 0.889022 0.908172 0.926218 0.943158 0.958993 0.973722 0.987346 0.999864 1.01128 1.02176 1.03149 1.04046 1.04867 1.05613 1.06283 1.06877 1.07396 1.07857 1.08278 1.08659 1.08999 1.09299 1.09558 1.09778 1.09957 1.10106 1.10235 1.10345 1.10434 1.10504 1.10553 1.10583 1.10593 1.10583 1.10553 1.10504 1.10434 1.10345 1.10235 1.10106 1.09957 1.09778 1.09558 1.09299 1.08999 1.08659 1.08278 1.07858 1.07397 1.06878 1.06283 1.05613 1.04867 1.04046 1.03149 1.02176 1.01128 0.99987 0.987352 0.973729 0.959 0.943166 0.926227 0.908182 0.889032 0.86874 0.847273 0.824629 0.800808 0.775811 0.749637 0.722287 0.69376 0.664302 0.634158 0.603329 0.571814 0.539614 0.506727 0.473156 0.438898 0.404113 0.368957 0.333431 0.297535 0.261269 0.224632 0.187625 0.150248 0.115034 0.0845147 0.0586908 0.0375621 0.0211287 0.00939053 0.00234763 0 0 0.00253265 0.0101306 0.0227938 0.0405224 0.0633162 0.0911754 0.1241 0.16209 0.202407 0.242313 0.28181 0.320895 0.359571 0.397836 0.43569 0.473134 0.509998 0.546113 0.581478 0.616095 0.649962 0.68308 0.715448 0.747068 0.777676 0.807011 0.835073 0.861863 0.887379 0.911622 0.934592 0.95629 0.976756 0.996033 1.01412 1.03102 1.04673 1.06125 1.07458 1.08673 1.09787 1.10821 1.11774 1.12645 1.13436 1.14147 1.14776 1.15324 1.15811 1.16255 1.16657 1.17015 1.17331 1.17604 1.17835 1.18023 1.18179 1.18314 1.18429 1.18522 1.18595 1.18647 1.18678 1.18689 1.18678 1.18647 1.18595 1.18522 1.18429 1.18314 1.18179 1.18023 1.17835 1.17604 1.17331 1.17015 1.16657 1.16255 1.15811 1.15325 1.14776 1.14147 1.13437 1.12646 1.11774 1.10821 1.09788 1.08673 1.07459 1.06126 1.04674 1.03103 1.01413 0.996042 0.976766 0.9563 0.934604 0.911634 0.887391 0.861876 0.835087 0.807026 0.777691 0.747084 0.715465 0.683097 0.64998 0.616114 0.581498 0.546133 0.510019 0.473155 0.435711 0.397857 0.359591 0.320915 0.281828 0.24233 0.202421 0.162101 0.124109 0.0911818 0.0633207 0.0405253 0.0227955 0.0101313 0.00253283 0 0 0.00271445 0.0108578 0.0244301 0.0434312 0.0678613 0.0977203 0.133008 0.173725 0.21693 0.259683 0.301984 0.343832 0.385228 0.426172 0.466664 0.506704 0.546111 0.584703 0.622482 0.659447 0.695598 0.730935 0.765458 0.799167 0.831785 0.863034 0.892914 0.921425 0.948568 0.974342 0.998747 1.02178 1.0435 1.06395 1.08312 1.10103 1.11766 1.13302 1.14712 1.15994 1.1717 1.1826 1.19264 1.20182 1.21015 1.21761 1.22422 1.22997 1.23507 1.23972 1.24391 1.24766 1.25096 1.25381 1.25621 1.25816 1.25978 1.26118 1.26237 1.26334 1.26409 1.26463 1.26496 1.26507 1.26496 1.26463 1.26409 1.26334 1.26237 1.26118 1.25978 1.25816 1.25621 1.25381 1.25096 1.24766 1.24391 1.23972 1.23507 1.22998 1.22423 1.21762 1.21015 1.20183 1.19265 1.1826 1.1717 1.15995 1.14712 1.13303 1.11767 1.10103 1.08313 1.06396 1.04351 1.02179 0.998758 0.974354 0.948581 0.921439 0.892928 0.863049 0.831801 0.799184 0.765475 0.730953 0.695617 0.659466 0.622502 0.584724 0.546132 0.506726 0.466687 0.426195 0.38525 0.343853 0.302003 0.2597 0.216945 0.173737 0.133017 0.097727 0.067866 0.0434342 0.0244318 0.0108586 0.00271464 0 0 0.00289287 0.0115715 0.0260358 0.0462859 0.0723217 0.104143 0.141751 0.185144 0.231182 0.276725 0.321774 0.366327 0.410385 0.453948 0.497015 0.539588 0.581474 0.622479 0.662606 0.701852 0.740219 0.777706 0.814314 0.850042 0.884598 0.91769 0.949319 0.979483 1.00818 1.03542 1.06119 1.0855 1.1084 1.12996 1.15016 1.16901 1.18651 1.20266 1.21746 1.23092 1.24324 1.25466 1.26517 1.27478 1.28348 1.29127 1.29816 1.30415 1.30944 1.31427 1.31863 1.32251 1.32593 1.32888 1.33136 1.33337 1.33503 1.33647 1.33769 1.33869 1.33947 1.34002 1.34036 1.34047 1.34036 1.34002 1.33947 1.33869 1.33769 1.33647 1.33503 1.33337 1.33136 1.32888 1.32593 1.32252 1.31863 1.31427 1.30945 1.30415 1.29817 1.29128 1.28348 1.27478 1.26518 1.25466 1.24325 1.23092 1.21747 1.20267 1.18652 1.16902 1.15017 1.12997 1.10841 1.08551 1.06121 1.03543 1.0082 0.979498 0.949334 0.917706 0.884615 0.850059 0.814332 0.777725 0.740239 0.701873 0.662627 0.622501 0.581496 0.539611 0.497039 0.453971 0.410407 0.366348 0.321793 0.276743 0.231197 0.185156 0.14176 0.10415 0.0723266 0.046289 0.0260376 0.0115723 0.00289306 0 0 0.0030679 0.0122716 0.0276111 0.0490864 0.0766976 0.110444 0.150327 0.196346 0.245163 0.29344 0.341179 0.388379 0.435039 0.481161 0.526743 0.571787 0.616087 0.659442 0.70185 0.743311 0.783826 0.823395 0.862017 0.899693 0.936116 0.970981 1.00429 1.03604 1.06623 1.09486 1.12193 1.14745 1.17147 1.19406 1.21523 1.23497 1.25328 1.27017 1.28562 1.29965 1.3125 1.32439 1.33533 1.34532 1.35436 1.36244 1.36958 1.37577 1.38123 1.38621 1.39071 1.39471 1.39823 1.40126 1.4038 1.40585 1.40755 1.40902 1.41026 1.41128 1.41207 1.41264 1.41298 1.41309 1.41298 1.41264 1.41207 1.41128 1.41026 1.40902 1.40755 1.40585 1.4038 1.40126 1.39823 1.39471 1.39071 1.38622 1.38124 1.37577 1.36958 1.36245 1.35436 1.34532 1.33533 1.32439 1.3125 1.29966 1.28563 1.27017 1.25329 1.23498 1.21524 1.19407 1.17148 1.14746 1.12194 1.09487 1.06624 1.03605 1.0043 0.970998 0.936134 0.899711 0.862036 0.823415 0.783847 0.743332 0.701871 0.659464 0.616111 0.57181 0.526767 0.481185 0.435063 0.388401 0.3412 0.293459 0.245178 0.196359 0.150337 0.110452 0.0767026 0.0490896 0.0276129 0.0122724 0.0030681 0 0 0.00323955 0.0129582 0.029156 0.0518328 0.0809888 0.116624 0.158738 0.207331 0.258872 0.309828 0.360201 0.409989 0.459193 0.507813 0.555848 0.6033 0.649952 0.69559 0.740214 0.783823 0.826419 0.868 0.908567 0.94812 0.986339 1.02291 1.05782 1.09108 1.1227 1.15265 1.18096 1.20761 1.23269 1.25627 1.27834 1.29891 1.31797 1.33554 1.3516 1.36616 1.37947 1.39179 1.40311 1.41344 1.42278 1.43112 1.43848 1.44483 1.45044 1.45555 1.46015 1.46425 1.46785 1.47094 1.47353 1.47561 1.47733 1.47881 1.48007 1.4811 1.48191 1.48248 1.48282 1.48294 1.48282 1.48248 1.48191 1.48111 1.48007 1.47882 1.47733 1.47561 1.47353 1.47094 1.46785 1.46425 1.46016 1.45555 1.45045 1.44484 1.43848 1.43113 1.42278 1.41345 1.40311 1.39179 1.37947 1.36616 1.35161 1.33554 1.31798 1.29892 1.27835 1.25628 1.2327 1.20763 1.18097 1.15267 1.12271 1.0911 1.05784 1.02292 0.986357 0.948138 0.908587 0.86802 0.82644 0.783845 0.740236 0.695613 0.649976 0.603324 0.555873 0.507837 0.459217 0.410011 0.360222 0.309847 0.258888 0.207344 0.158748 0.116631 0.0809939 0.0518361 0.0291578 0.012959 0.00323976 0 0 0.00340781 0.0136313 0.0306703 0.054525 0.0851953 0.122681 0.166983 0.2181 0.27231 0.325889 0.378838 0.431157 0.482845 0.533903 0.58433 0.634127 0.683067 0.730924 0.777698 0.823389 0.867997 0.911522 0.953964 0.995322 1.03527 1.07347 1.10992 1.14463 1.17759 1.20881 1.23828 1.26601 1.29208 1.31657 1.33948 1.36082 1.38058 1.39877 1.41538 1.43042 1.44415 1.45685 1.46852 1.47915 1.48875 1.49731 1.50485 1.51135 1.51707 1.52228 1.52697 1.53114 1.53479 1.53793 1.54054 1.54264 1.54437 1.54586 1.54713 1.54816 1.54897 1.54955 1.54989 1.55001 1.54989 1.54955 1.54897 1.54816 1.54713 1.54586 1.54437 1.54264 1.54054 1.53793 1.53479 1.53114 1.52697 1.52228 1.51707 1.51135 1.50485 1.49732 1.48875 1.47915 1.46852 1.45686 1.44416 1.43043 1.41539 1.39878 1.38059 1.36083 1.33949 1.31658 1.29209 1.26602 1.2383 1.20882 1.17761 1.14464 1.10994 1.07348 1.03529 0.995342 0.953984 0.911543 0.868019 0.823411 0.777721 0.730948 0.683091 0.634152 0.584355 0.533927 0.482869 0.43118 0.37886 0.325908 0.272326 0.218113 0.166993 0.122689 0.0852006 0.0545284 0.0306722 0.0136321 0.00340802 0 0 0.00357269 0.0142908 0.0321542 0.0571631 0.0893173 0.128617 0.175062 0.228652 0.285476 0.341623 0.397091 0.451882 0.505995 0.559431 0.612188 0.664268 0.715433 0.765444 0.814303 0.862008 0.908561 0.953961 0.998207 1.0413 1.0829 1.12266 1.16058 1.19667 1.23091 1.26332 1.2939 1.32263 1.34962 1.37496 1.39866 1.42071 1.44112 1.45987 1.47698 1.49245 1.50655 1.51959 1.53155 1.54244 1.55227 1.56102 1.5687 1.57531 1.58112 1.5864 1.59115 1.59537 1.59906 1.60222 1.60485 1.60695 1.60867 1.61016 1.61143 1.61246 1.61326 1.61384 1.61418 1.6143 1.61418 1.61384 1.61326 1.61246 1.61143 1.61017 1.60867 1.60695 1.60485 1.60222 1.59906 1.59537 1.59115 1.5864 1.58112 1.57531 1.5687 1.56102 1.55227 1.54245 1.53156 1.51959 1.50656 1.49246 1.47699 1.45988 1.44113 1.42072 1.39867 1.37498 1.34963 1.32264 1.29391 1.26334 1.23093 1.19668 1.1606 1.12268 1.08292 1.04132 0.998228 0.953982 0.908583 0.862031 0.814326 0.765468 0.715457 0.664293 0.612214 0.559456 0.50602 0.451906 0.397113 0.341642 0.285493 0.228666 0.175072 0.128625 0.0893226 0.0571665 0.0321561 0.0142916 0.0035729 0 0 0.00373418 0.0149367 0.0336077 0.059747 0.0933546 0.134431 0.182975 0.238988 0.298372 0.357029 0.414961 0.472166 0.528645 0.584397 0.639424 0.693724 0.747049 0.79915 0.850027 0.899681 0.94811 0.995316 1.0413 1.08606 1.12924 1.17049 1.20981 1.2472 1.28266 1.3162 1.3478 1.37747 1.40532 1.43146 1.45588 1.47858 1.49957 1.51884 1.5364 1.55224 1.56667 1.57999 1.59221 1.60332 1.61333 1.62223 1.63002 1.63671 1.64258 1.64791 1.65269 1.65694 1.66065 1.66382 1.66644 1.66853 1.67024 1.67172 1.67297 1.67399 1.67479 1.67536 1.6757 1.67581 1.6757 1.67536 1.67479 1.67399 1.67297 1.67172 1.67024 1.66853 1.66645 1.66382 1.66065 1.65694 1.65269 1.64791 1.64258 1.63672 1.63003 1.62223 1.61333 1.60333 1.59221 1.58 1.56667 1.55225 1.53641 1.51885 1.49958 1.47859 1.45589 1.43147 1.40534 1.37749 1.34781 1.31621 1.28268 1.24722 1.20983 1.17051 1.12926 1.08608 1.04132 0.995338 0.948133 0.899704 0.850051 0.799175 0.747074 0.693749 0.639449 0.584423 0.528669 0.472189 0.414983 0.357049 0.298389 0.239002 0.182986 0.134438 0.09336 0.0597504 0.0336096 0.0149376 0.0037344 0 0 0.0038909 0.0155636 0.0350181 0.0622544 0.0972725 0.140072 0.190654 0.249018 0.310885 0.371976 0.432293 0.491834 0.5506 0.608592 0.665808 0.722248 0.777654 0.831765 0.88458 0.936101 0.986327 1.03526 1.08289 1.12923 1.17392 1.21658 1.25722 1.29585 1.33245 1.36703 1.3996 1.43014 1.45878 1.48565 1.51072 1.53402 1.55554 1.57527 1.59322 1.60939 1.62409 1.63766 1.6501 1.66139 1.67154 1.68056 1.68844 1.69518 1.70108 1.70642 1.71123 1.71548 1.71919 1.72235 1.72496 1.72702 1.7287 1.73016 1.73139 1.73239 1.73318 1.73374 1.73407 1.73419 1.73407 1.73374 1.73318 1.7324 1.73139 1.73016 1.7287 1.72702 1.72496 1.72235 1.71919 1.71548 1.71123 1.70643 1.70108 1.69518 1.68844 1.68056 1.67155 1.66139 1.6501 1.63767 1.6241 1.60939 1.59323 1.57528 1.55554 1.53403 1.51073 1.48566 1.4588 1.43015 1.39961 1.36705 1.33247 1.29586 1.25724 1.2166 1.17394 1.12925 1.08291 1.03528 0.986349 0.936124 0.884604 0.831789 0.777679 0.722274 0.665834 0.608617 0.550626 0.491858 0.432315 0.371996 0.310902 0.249032 0.190665 0.14008 0.097278 0.0622579 0.0350201 0.0155645 0.00389112 0 0 0.00404145 0.0161658 0.0363731 0.0646632 0.101036 0.145492 0.198031 0.258653 0.322904 0.386332 0.448935 0.510715 0.571671 0.631803 0.691112 0.749596 0.806986 0.863011 0.91767 0.970963 1.02289 1.07345 1.12265 1.17048 1.21658 1.26056 1.30244 1.34222 1.37988 1.41544 1.44889 1.48023 1.5096 1.53712 1.56279 1.58662 1.60861 1.62875 1.64704 1.66349 1.67843 1.69221 1.70481 1.71625 1.72652 1.73562 1.74355 1.75032 1.75622 1.76157 1.76637 1.77061 1.7743 1.77744 1.78002 1.78205 1.78369 1.78512 1.78632 1.78731 1.78807 1.78862 1.78895 1.78906 1.78895 1.78862 1.78807 1.78731 1.78632 1.78512 1.7837 1.78205 1.78002 1.77744 1.77431 1.77062 1.76637 1.76158 1.75623 1.75032 1.74356 1.73562 1.72652 1.71625 1.70482 1.69221 1.67844 1.6635 1.64705 1.62875 1.60862 