<?xml version="1.0"?> 
<VTKFile type="StructuredGrid" version="0.1"> 
<StructuredGrid WholeExtent="0 128 0 128 0 0"> 
<Piece Extent="0 128 0 128 0 0"> 
<PointData>
<DataArray type="Float32" Name="u" format="ascii" NumberOfComponents="1"> 
0 0 0 0 0 0 0 0 0 0 0 0 0 0 0 0 0 0 0 0 0 0 0 0 0 0 0 0 0 0 0 0 0 0 0 0 0 0 0 0 0 0 0 0 0 0 0 0 0 0 0 0 0 0 0 0 0 0 0 0 0 0 0 0 0 0 0 0 0 0 0 0 0 0 0 0 0 0 0 0 0 0 0 0 0 0 0 0 0 0 0 0 0 0 0 0 0 0 0 0 0 0 0 0 0 0 0 0 0 0 0 0 0 0 0 0 0 0 0 0 0 0 0 0 0 0 0 0 0 0 1.23362e-05 4.93449e-05 0.000111026 0.000197379 0.000308405 0.000444104 0.000604475 0.000789518 0.000986121 0.00118117 0.00137467 0.00156662 0.00175702 0.00194586 0.00213315 0.00231889 0.00250223 0.00268229 0.00285909 0.00303262 0.00320288 0.00336988 0.0035336 0.00369407 0.00384987 0.00399964 0.00414337 0.00428106 0.00441272 0.00453833 0.0046579 0.00477144 0.004879 0.00498065 0.00507638 0.0051662 0.00525011 0.00532811 0.0054002 0.00546637 0.00552748 0.00558437 0.00563703 0.00568548 0.00572971 0.00576972 0.0058055 0.00583707 0.00586533 0.00589121 0.0059147 0.00593581 0.00595452 0.00597085 0.0059848 0.00599636 0.00600607 0.00601449 0.00602162 0.00602745 0.00603198 0.00603522 0.00603717 0.00603781 0.00603717 0.00603522 0.00603198 0.00602745 0.00602162 0.0060145 0.00600608 0.00599636 0.0059848 0.00597086 0.00595453 0.00593582 0.00591471 0.00589122 0.00586535 0.00583709 0.00580552 0.00576974 0.00572973 0.0056855 0.00563706 0.00558439 0.00552751 0.0054664 0.00540023 0.00532815 0.00525015 0.00516625 0.00507643 0.0049807 0.00487905 0.0047715 0.00465797 0.00453839 0.00441279 0.00428114 0.00414345 0.00399972 0.00384996 0.00369415 0.0035337 0.00336997 0.00320298 0.00303272 0.00285919 0.0026824 0.00250234 0.00231901 0.00213327 0.00194598 0.00175713 0.00156673 0.00137477 0.00118126 0.0009862 0.000789581 0.000604523 0.000444139 0.00030843 0.000197395 0.000111035 4.93488e-05 1.23372e-05 0 0 4.93449e-05 0.000197379 0.000444104 0.000789518 0.00123362 0.00177642 0.0024179 0.00315807 0.00394449 0.00472469 0.00549869 0.00626648 0.00702807 0.00778345 0.00853262 0.00927558 0.0100089 0.0107292 0.0114363 0.0121305 0.0128115 0.0134795 0.0141344 0.0147763 0.0153995 0.0159986 0.0165735 0.0171243 0.0176509 0.0181533 0.0186316 0.0190858 0.019516 0.0199226 0.0203055 0.0206648 0.0210005 0.0213124 0.0216008 0.0218655 0.0221099 0.0223375 0.0225481 0.0227419 0.0229188 0.0230789 0.023222 0.0233483 0.0234613 0.0235648 0.0236588 0.0237432 0.0238181 0.0238834 0.0239392 0.0239854 0.0240243 0.024058 0.0240865 0.0241098 0.0241279 0.0241409 0.0241487 0.0241513 0.0241487 0.0241409 0.0241279 0.0241098 0.0240865 0.024058 0.0240243 0.0239854 0.0239392 0.0238834 0.0238181 0.0237433 0.0236589 0.0235649 0.0234614 0.0233483 0.0232221 0.0230789 0.0229189 0.022742 0.0225482 0.0223376 0.02211 0.0218656 0.0216009 0.0213126 0.0210006 0.020665 0.0203057 0.0199228 0.0195162 0.019086 0.0186319 0.0181536 0.0176511 0.0171245 0.0165738 0.0159989 0.0153998 0.0147766 0.0141348 0.0134799 0.0128119 0.0121309 0.0114368 0.0107296 0.0100094 0.00927604 0.00853309 0.00778391 0.00702852 0.00626692 0.00549909 0.00472505 0.0039448 0.00315833 0.00241809 0.00177656 0.00123372 0.000789581 0.000444139 0.000197395 4.93488e-05 0 0 0.000111026 0.000444104 0.000999233 0.00177642 0.00277565 0.00399693 0.00544027 0.00710566 0.00887509 0.0106306 0.0123721 0.0140996 0.0158132 0.0175128 0.0191984 0.0208701 0.02252 0.0241406 0.0257318 0.0272936 0.0288259 0.0303289 0.0318024 0.0332466 0.0346489 0.0359968 0.0372904 0.0385296 0.0397145 0.040845 0.0419211 0.042943 0.043911 0.0448258 0.0456874 0.0464958 0.047251 0.047953 0.0486018 0.0491973 0.0497473 0.0502593 0.0507333 0.0511693 0.0515674 0.0519274 0.0522495 0.0525336 0.052788 0.0530209 0.0532323 0.0534223 0.0535907 0.0537377 0.0538632 0.0539672 0.0540546 0.0541304 0.0541946 0.054247 0.0542878 0.054317 0.0543345 0.0543403 0.0543345 0.054317 0.0542879 0.0542471 0.0541946 0.0541305 0.0540547 0.0539673 0.0538632 0.0537378 0.0535908 0.0534223 0.0532324 0.053021 0.0527881 0.0525338 0.0522497 0.0519276 0.0515676 0.0511695 0.0507335 0.0502596 0.0497476 0.0491976 0.0486021 0.0479533 0.0472514 0.0464962 0.0456878 0.0448263 0.0439115 0.0429435 0.0419217 0.0408456 0.0397151 0.0385302 0.037291 0.0359975 0.0346496 0.0332474 0.0318033 0.0303297 0.0288268 0.0272945 0.0257327 0.0241416 0.022521 0.0208711 0.0191994 0.0175138 0.0158142 0.0141006 0.012373 0.0106314 0.0088758 0.00710623 0.00544071 0.00399726 0.00277587 0.00177656 0.000999314 0.000444139 0.000111035 0 0 0.000197379 0.000789518 0.00177642 0.00315807 0.00493449 0.00710566 0.00967159 0.0126323 0.0157779 0.0188988 0.0219948 0.0250659 0.0281123 0.0311338 0.0341305 0.0371023 0.0400356 0.0429166 0.0457454 0.0485219 0.0512461 0.053918 0.0565377 0.0591051 0.061598 0.0639943 0.066294 0.068497 0.0706035 0.0726133 0.0745265 0.076343 0.078064 0.0796903 0.0812221 0.0826592 0.0840018 0.0852498 0.0864032 0.0874619 0.0884397 0.0893499 0.0901926 0.0909677 0.0916753 0.0923155 0.0928881 0.0933931 0.0938454 0.0942594 0.0946352 0.0949729 0.0952724 0.0955337 0.0957568 0.0959417 0.0960971 0.0962319 0.0963459 0.0964392 0.0965117 0.0965635 0.0965946 0.096605 0.0965947 0.0965636 0.0965118 0.0964392 0.0963459 0.096232 0.0960972 0.0959418 0.0957569 0.0955338 0.0952725 0.0949731 0.0946354 0.0942596 0.0938456 0.0933934 0.0928883 0.0923158 0.0916757 0.0909681 0.090193 0.0893503 0.0884401 0.0874625 0.0864037 0.0852504 0.0840025 0.0826599 0.0812228 0.0796911 0.0780648 0.0763439 0.0745274 0.0726143 0.0706046 0.0684982 0.0662952 0.0639956 0.0615993 0.0591065 0.0565391 0.0539195 0.0512477 0.0485235 0.0457471 0.0429184 0.0400374 0.0371042 0.0341323 0.0311357 0.0281141 0.0250677 0.0219964 0.0189002 0.0157792 0.0126333 0.00967237 0.00710623 0.00493488 0.00315833 0.00177656 0.000789581 0.000197395 0 0 0.000308405 0.00123362 0.00277565 0.00493449 0.00771014 0.0111026 0.0151119 0.0197379 0.024653 0.0295293 0.0343668 0.0391655 0.0439254 0.0486465 0.0533289 0.0579724 0.0625557 0.0670573 0.0714772 0.0758154 0.080072 0.0842469 0.0883401 0.0923516 0.0962469 0.0999911 0.103584 0.107027 0.110318 0.113458 0.116448 0.119286 0.121975 0.124516 0.12691 0.129155 0.131253 0.133203 0.135005 0.136659 0.138187 0.139609 0.140926 0.142137 0.143243 0.144243 0.145138 0.145927 0.146633 0.14728 0.147868 0.148395 0.148863 0.149271 0.14962 0.149909 0.150152 0.150362 0.15054 0.150686 0.1508 0.150881 0.150929 0.150945 0.150929 0.150881 0.1508 0.150686 0.150541 0.150362 0.150152 0.149909 0.14962 0.149272 0.148863 0.148395 0.147868 0.147281 0.146634 0.145927 0.145138 0.144243 0.143243 0.142138 0.140926 0.13961 0.138188 0.13666 0.135006 0.133204 0.131254 0.129156 0.126911 0.124517 0.121976 0.119287 0.116449 0.11346 0.11032 0.107028 0.103586 0.0999931 0.096249 0.0923538 0.0883424 0.0842493 0.0800745 0.075818 0.0714798 0.06706 0.0625585 0.0579753 0.0533318 0.0486495 0.0439283 0.0391682 0.0343693 0.0295316 0.024655 0.0197395 0.0151131 0.0111035 0.00771075 0.00493488 0.00277587 0.00123372 0.00030843 0 0 0.000444104 0.00177642 0.00399693 0.00710566 0.0111026 0.0159877 0.0217611 0.0284226 0.0355004 0.0425222 0.0494882 0.0563984 0.0632526 0.070051 0.0767935 0.0834802 0.0900801 0.0965624 0.102927 0.109174 0.115304 0.121316 0.12721 0.132986 0.138595 0.143987 0.149161 0.154118 0.158858 0.16338 0.167685 0.171772 0.175644 0.179303 0.18275 0.185983 0.189004 0.191812 0.194407 0.196789 0.198989 0.201037 0.202933 0.204677 0.20627 0.20771 0.208998 0.210135 0.211152 0.212084 0.212929 0.213689 0.214363 0.214951 0.215453 0.215869 0.216219 0.216522 0.216778 0.216988 0.217151 0.217268 0.217338 0.217361 0.217338 0.217268 0.217151 0.216988 0.216778 0.216522 0.216219 0.215869 0.215453 0.214951 0.214363 0.213689 0.21293 0.212084 0.211153 0.210135 0.208999 0.20771 0.20627 0.204678 0.202934 0.201038 0.19899 0.196791 0.194408 0.191813 0.189006 0.185985 0.182751 0.179305 0.175646 0.171774 0.167687 0.163382 0.15886 0.154121 0.149164 0.14399 0.138598 0.13299 0.127213 0.121319 0.115307 0.109178 0.102931 0.0965664 0.0900842 0.0834844 0.0767978 0.0700552 0.0632567 0.0564023 0.0494918 0.0425255 0.0355032 0.0284249 0.0217628 0.015989 0.0111035 0.00710623 0.00399726 0.00177656 0.000444139 0 0 0.000604475 0.0024179 0.00544027 0.00967159 0.0151119 0.0217611 0.0296193 0.0386864 0.0483199 0.0578775 0.067359 0.0767644 0.0860938 0.0953472 0.104525 0.113626 0.122609 0.131432 0.140095 0.148598 0.156941 0.165124 0.173147 0.181009 0.188644 0.195983 0.203025 0.209772 0.216223 0.222378 0.228237 0.233801 0.239071 0.244052 0.248743 0.253144 0.257256 0.261077 0.26461 0.267852 0.270846 0.273634 0.276215 0.278589 0.280756 0.282716 0.28447 0.286016 0.287401 0.288669 0.28982 0.290854 0.291772 0.292572 0.293255 0.293821 0.294298 0.29471 0.295059 0.295345 0.295567 0.295726 0.295821 0.295853 0.295821 0.295726 0.295567 0.295345 0.295059 0.29471 0.294298 0.293822 0.293255 0.292572 0.291772 0.290855 0.289821 0.28867 0.287402 0.286017 0.284471 0.282717 0.280757 0.27859 0.276216 0.273635 0.270848 0.267854 0.264611 0.261079 0.257258 0.253146 0.248745 0.244054 0.239074 0.233803 0.22824 0.222381 0.216226 0.209776 0.203029 0.195986 0.188648 0.181014 0.173151 0.165129 0.156946 0.148603 0.1401 0.131438 0.122615 0.113632 0.10453 0.0953529 0.0860994 0.0767697 0.0673639 0.0578819 0.0483238 0.0386895 0.0296216 0.0217628 0.0151131 0.00967237 0.00544071 0.00241809 0.000604523 0 0 0.000789518 0.00315807 0.00710566 0.0126323 0.0197379 0.0284226 0.0386864 0.0505291 0.0631118 0.0755951 0.0879791 0.100264 0.112449 0.124535 0.136522 0.148409 0.160142 0.171667 0.182982 0.194087 0.204984 0.215672 0.226151 0.23642 0.246392 0.255977 0.265176 0.273988 0.282414 0.290453 0.298106 0.305372 0.312256 0.318761 0.324888 0.330637 0.336007 0.340999 0.345613 0.349848 0.353759 0.357399 0.36077 0.363871 0.366701 0.369262 0.371552 0.373573 0.375381 0.377038 0.378541 0.379892 0.381089 0.382135 0.383027 0.383767 0.384389 0.384928 0.385384 0.385757 0.386047 0.386254 0.386379 0.38642 0.386379 0.386254 0.386047 0.385757 0.385384 0.384928 0.384389 0.383767 0.383028 0.382135 0.38109 0.379892 0.378542 0.377038 0.375382 0.373574 0.371553 0.369263 0.366703 0.363872 0.360772 0.357401 0.353761 0.34985 0.345615 0.341002 0.33601 0.33064 0.324891 0.318765 0.312259 0.305376 0.29811 0.290457 0.282418 0.273993 0.265181 0.255982 0.246397 0.236426 0.226157 0.215678 0.204991 0.194094 0.182988 0.171674 0.16015 0.148417 0.136529 0.124543 0.112456 0.100271 0.0879855 0.0756009 0.0631168 0.0505332 0.0386895 0.0284249 0.0197395 0.0126333 0.00710623 0.00315833 0.000789581 0 0 0.000986116 0.00394446 0.00887504 0.0157778 0.0246529 0.0355002 0.0483197 0.0631114 0.0788267 0.0944171 0.109882 0.125223 0.140438 0.155528 0.170493 0.185334 0.19998 0.214365 0.228488 0.242349 0.255948 0.269285 0.28236 0.295173 0.307614 0.319572 0.331046 0.342038 0.352547 0.362572 0.372114 0.381174 0.389756 0.397865 0.405502 0.412667 0.41936 0.42558 0.431328 0.436603 0.441474 0.446009 0.450206 0.454067 0.457591 0.460779 0.463629 0.466143 0.468393 0.470454 0.472324 0.474004 0.475494 0.476793 0.477903 0.478822 0.479595 0.480264 0.480831 0.481295 0.481655 0.481913 0.482067 0.482119 0.482067 0.481913 0.481655 0.481295 0.480831 0.480265 0.479595 0.478822 0.477903 0.476794 0.475494 0.474005 0.472325 0.470455 0.468395 0.466144 0.463631 0.46078 0.457593 0.454069 0.450208 0.446011 0.441477 0.436606 0.43133 0.425583 0.419363 0.412671 0.405506 0.397869 0.38976 0.381178 0.372119 0.362577 0.352552 0.342044 0.331052 0.319578 0.307621 0.29518 0.282368 0.269293 0.255956 0.242357 0.228497 0.214374 0.199989 0.185343 0.170503 0.155538 0.140447 0.125231 0.10989 0.0944243 0.078833 0.0631165 0.0483235 0.035503 0.0246549 0.0157791 0.00887575 0.00394478 0.000986195 0 0 0.00118115 0.0047246 0.0106304 0.0188984 0.0295288 0.0425214 0.0578764 0.0755936 0.0944158 0.113086 0.131603 0.149968 0.16818 0.18624 0.204147 0.221902 0.239423 0.256628 0.273517 0.29009 0.306347 0.322288 0.337914 0.353223 0.368085 0.382367 0.39607 0.409193 0.421737 0.433702 0.445087 0.455893 0.466127 0.475796 0.4849 0.493439 0.501413 0.508822 0.515666 0.521946 0.527742 0.533136 0.538129 0.54272 0.54691 0.550698 0.554084 0.557068 0.559739 0.562184 0.564402 0.566395 0.568161 0.569701 0.571016 0.572104 0.573018 0.573811 0.574481 0.57503 0.575456 0.575761 0.575944 0.576005 0.575944 0.575761 0.575457 0.57503 0.574482 0.573811 0.573019 0.572105 0.571016 0.569702 0.568162 0.566396 0.564403 0.562185 0.55974 0.55707 0.554085 0.550699 0.546912 0.542722 0.538131 0.533139 0.527745 0.521949 0.51567 0.508826 0.501417 0.493443 0.484904 0.475801 0.466132 0.455899 0.445093 0.433708 0.421744 0.4092 0.396077 0.382375 0.368093 0.353231 0.337922 0.322298 0.306357 0.2901 0.273527 0.256638 0.239434 0.221913 0.204158 0.186251 0.168191 0.149978 0.131612 0.113094 0.0944232 0.0755996 0.0578809 0.0425248 0.0295311 0.0188999 0.0106312 0.00472497 0.00118124 0 0 0.00137462 0.00549848 0.0123716 0.0219939 0.0343655 0.0494864 0.0673564 0.0879758 0.109879 0.1316 0.15314 0.174499 0.195675 0.21667 0.237484 0.258115 0.278471 0.298455 0.318068 0.337311 0.356182 0.374682 0.392811 0.410569 0.427804 0.444363 0.460246 0.475454 0.489987 0.503843 0.517025 0.52953 0.54137 0.552553 0.563081 0.572952 0.582167 0.590726 0.598629 0.605875 0.612561 0.618782 0.624539 0.62983 0.634657 0.639019 0.642916 0.646348 0.649418 0.652227 0.654776 0.657064 0.659092 0.660859 0.662366 0.663613 0.66466 0.665567 0.666334 0.666962 0.667451 0.6678 0.668009 0.668079 0.668009 0.6678 0.667451 0.666963 0.666335 0.665567 0.66466 0.663614 0.662367 0.66086 0.659093 0.657065 0.654777 0.652228 0.649419 0.64635 0.642918 0.639021 0.634659 0.629833 0.624542 0.618785 0.612564 0.605879 0.598632 0.59073 0.582171 0.572957 0.563086 0.552559 0.541376 0.529536 0.517031 0.50385 0.489994 0.475462 0.460255 0.444372 0.427813 0.410579 0.392821 0.374692 0.356193 0.337322 0.31808 0.298467 0.278483 0.258128 0.237496 0.216683 0.195687 0.17451 0.153151 0.13161 0.109887 0.0879826 0.0673617 0.0494902 0.0343682 0.0219957 0.0123726 0.00549892 0.00137473 0 0 0.00156653 0.00626612 0.0140988 0.0250645 0.0391632 0.056395 0.0767599 0.100258 0.125216 0.149962 0.174495 0.198815 0.222923 0.246819 0.270502 0.293972 0.317123 0.339846 0.362142 0.384011 0.405452 0.426466 0.447052 0.467211 0.486771 0.505559 0.523576 0.540821 0.557294 0.572996 0.587926 0.602085 0.615484 0.628138 0.640045 0.651207 0.661622 0.671291 0.680215 0.688392 0.695933 0.702947 0.709435 0.715397 0.720833 0.725743 0.730126 0.733983 0.73743 0.740584 0.743445 0.746012 0.748286 0.750267 0.751955 0.753349 0.754519 0.755533 0.756391 0.757092 0.757638 0.758028 0.758262 0.75834 0.758262 0.758028 0.757639 0.757093 0.756391 0.755533 0.754519 0.75335 0.751956 0.750268 0.748287 0.746013 0.743446 0.740585 0.737432 0.733985 0.730128 0.725745 0.720836 0.7154 0.709439 0.70295 0.695936 0.688396 0.680219 0.671296 0.661627 0.651212 0.640051 0.628144 0.615491 0.602092 0.587933 0.573004 0.557302 0.54083 0.523585 0.505569 0.486781 0.467222 0.447063 0.426477 0.405464 0.384023 0.362155 0.33986 0.317137 0.293987 0.270516 0.246833 0.222937 0.198829 0.174507 0.149973 0.125226 0.100266 0.0767658 0.0563994 0.0391662 0.0250664 0.0140998 0.0062666 0.00156665 0 0 0.00175687 0.00702749 0.0158119 0.02811 0.0439218 0.0632474 0.0860868 0.11244 0.140427 0.168169 0.195667 0.222918 0.249925 0.276686 0.303203 0.329474 0.35538 0.380801 0.405738 0.43019 0.454157 0.477639 0.500637 0.52315 0.544987 0.565956 0.586058 0.605293 0.62366 0.641159 0.657792 0.673556 0.68847 0.702549 0.715794 0.728203 0.739778 0.750519 0.760424 0.769495 0.777856 0.78563 0.792819 0.799422 0.805438 0.810869 0.815714 0.819972 0.823776 0.827255 0.830409 0.833239 0.835744 0.837924 0.839781 0.841312 0.842596 0.843708 0.84465 0.84542 0.846019 0.846447 0.846704 0.846789 0.846704 0.846447 0.846019 0.84542 0.84465 0.843709 0.842596 0.841313 0.839781 0.837925 0.835745 0.83324 0.83041 0.827256 0.823778 0.819974 0.815716 0.810871 0.805441 0.799425 0.792822 0.785634 0.77786 0.769499 0.760429 0.750524 0.739784 0.728209 0.7158 0.702556 0.688477 0.673564 0.6578 0.641168 0.623669 0.605302 0.586068 0.565967 0.544998 0.523162 0.50065 0.477652 0.454171 0.430204 0.405752 0.380816 0.355395 0.329489 0.303219 0.276702 0.24994 0.222933 0.19568 0.168182 0.140438 0.112448 0.0860933 0.0632522 0.0439252 0.0281121 0.0158131 0.00702803 0.00175701 0 0 0.00194565 0.00778262 0.0175109 0.0311305 0.0486414 0.0700436 0.0953371 0.124522 0.155513 0.186224 0.216655 0.246807 0.27668 0.306273 0.335586 0.364619 0.393242 0.421321 0.448856 0.475849 0.502298 0.528204 0.553566 0.578385 0.602451 0.625554 0.647694 0.66887 0.689084 0.708334 0.726622 0.743946 0.760328 0.775788 0.790325 0.803941 0.816635 0.828407 0.839257 0.849186 0.858331 0.866832 0.874689 0.881903 0.888472 0.894397 0.899679 0.904316 0.908455 0.912239 0.915668 0.918744 0.921465 0.923832 0.925844 0.927502 0.92889 0.930093 0.931112 0.931945 0.932593 0.933055 0.933333 0.933426 0.933333 0.933055 0.932593 0.931945 0.931112 0.930094 0.928891 0.927503 0.925845 0.923833 0.921466 0.918745 0.91567 0.912241 0.908457 0.904319 0.899681 0.8944 0.888475 0.881906 0.874693 0.866836 0.858335 0.84919 0.839263 0.828413 0.816641 0.803948 0.790332 0.775795 0.760336 0.743954 0.726631 0.708344 0.689094 0.668881 0.647705 0.625566 0.602463 0.578398 0.55358 0.528218 0.502312 0.475864 0.448872 0.421337 0.393258 0.364636 0.335603 0.30629 0.276696 0.246823 0.21667 0.186237 0.155524 0.124531 0.0953442 0.0700488 0.048645 0.0311328 0.0175122 0.0077832 0.0019458 0 0 0.00213287 0.00853149 0.0191959 0.034126 0.0533218 0.0767834 0.104511 0.136504 0.170472 0.204124 0.237461 0.270482 0.303187 0.335577 0.367651 0.399409 0.430708 0.461404 0.491497 0.520987 0.549874 0.578158 0.605839 0.632917 0.659164 0.684352 0.708482 0.731553 0.753566 0.77452 0.794416 0.813253 0.831057 0.847853 0.863641 0.878421 0.892193 0.904958 0.916714 0.927463 0.937358 0.946552 0.955047 0.962841 0.969935 0.976328 0.982022 0.987015 0.991467 0.995537 0.999223 1.00253 1.00545 1.00799 1.01014 1.01192 1.0134 1.01469 1.01578 1.01667 1.01736 1.01785 1.01815 1.01825 1.01815 1.01785 1.01736 1.01667 1.01578 1.01469 1.0134 1.01192 1.01015 1.00799 1.00545 1.00253 0.999225 0.995539 0.991469 0.987018 0.982025 0.976331 0.969938 0.962844 0.955051 0.946557 0.937362 0.927468 0.91672 0.904964 0.8922 0.878428 0.863648 0.847861 0.831065 0.813262 0.794426 0.774531 0.753577 0.731565 0.708494 0.684365 0.659177 0.632931 0.605853 0.578173 0.54989 0.521003 0.491514 0.461422 0.430726 0.399428 0.36767 0.335595 0.303205 0.270499 0.237477 0.204139 0.170484 0.136514 0.104518 0.076789 0.0533257 0.0341284 0.0191973 0.00853211 0.00213303 0 0 0.00231853 0.00927411 0.0208667 0.0370964 0.0579632 0.083467 0.113608 0.148386 0.185305 0.221871 0.258084 0.293943 0.329448 0.3646 0.399399 0.433843 0.46778 0.501052 0.53366 0.565605 0.596885 0.627502 0.657455 0.686744 0.715125 0.742351 0.768424 0.793342 0.817107 0.839718 0.861175 0.881478 0.900657 0.918745 0.93574 0.951642 0.966452 0.98017 0.992795 1.00433 1.01494 1.02479 1.03389 1.04224 1.04983 1.05666 1.06274 1.06807 1.07281 1.07715 1.08107 1.08459 1.0877 1.09039 1.09268 1.09456 1.09613 1.09749 1.09864 1.09959 1.10032 1.10084 1.10116 1.10126 1.10116 1.10084 1.10032 1.09959 1.09864 1.09749 1.09613 1.09456 1.09268 1.0904 1.0877 1.08459 1.08108 1.07715 1.07282 1.06807 1.06275 1.05666 1.04983 1.04224 1.03389 1.0248 1.01494 1.00433 0.992801 0.980176 0.966459 0.95165 0.935748 0.918753 0.900667 0.881487 0.861185 0.839729 0.817118 0.793354 0.768436 0.742365 0.715139 0.686759 0.657471 0.627518 0.596902 0.565622 0.533678 0.50107 0.467799 0.433863 0.399418 0.36462 0.329467 0.293961 0.258101 0.221887 0.185318 0.148396 0.113616 0.0834729 0.0579673 0.0370991 0.0208682 0.00927477 0.00231869 0 0 0.00250176 0.010007 0.0225158 0.0400281 0.062544 0.0900633 0.122586 0.160113 0.199944 0.239383 0.278429 0.317082 0.355343 0.39321 0.430685 0.467766 0.504289 0.540085 0.575156 0.609501 0.64312 0.676014 0.708181 0.739623 0.770077 0.799283 0.82724 0.853948 0.879407 0.903617 0.926579 0.948292 0.968792 0.988117 1.00627 1.02324 1.03904 1.05366 1.06711 1.07939 1.09067 1.10114 1.11081 1.11967 1.12772 1.13497 1.14141 1.14704 1.15205 1.15663 1.16077 1.16448 1.16776 1.1706 1.173 1.17497 1.17662 1.17805 1.17925 1.18024 1.18101 1.18156 1.18188 1.18199 1.18188 1.18156 1.18101 1.18024 1.17925 1.17805 1.17662 1.17498 1.173 1.1706 1.16776 1.16448 1.16077 1.15663 1.15205 1.14704 1.14141 1.13497 1.12773 1.11967 1.11081 1.10115 1.09067 1.07939 1.06712 1.05367 1.03905 1.02325 1.00628 0.988126 0.968802 0.948302 0.92659 0.903629 0.879419 0.853961 0.827253 0.799297 0.770092 0.739639 0.708198 0.676031 0.643138 0.60952 0.575175 0.540105 0.504309 0.467787 0.430705 0.393231 0.355363 0.317101 0.278447 0.239399 0.199958 0.160124 0.122595 0.0900696 0.0625483 0.0400309 0.0225174 0.0100077 0.00250193 0 0 0.00268171 0.0107268 0.0241354 0.0429073 0.0670427 0.0965414 0.131404 0.171629 0.21432 0.256577 0.298401 0.339792 0.38075 0.421274 0.461365 0.501022 0.540069 0.578327 0.615795 0.652475 0.688367 0.723469 0.757782 0.791307 0.823766 0.854881 0.884653 0.913082 0.940168 0.965911 0.990311 1.01337 1.03512 1.05562 1.07487 1.09286 1.10959 1.12506 1.13928 1.15224 1.16415 1.1752 1.18539 1.19473 1.2032 1.21083 1.21759 1.2235 1.22875 1.23354 1.23787 1.24175 1.24517 1.24814 1.25064 1.2527 1.2544 1.25588 1.25714 1.25816 1.25896 1.25953 1.25987 1.25998 1.25987 1.25953 1.25896 1.25816 1.25714 1.25588 1.2544 1.2527 1.25065 1.24814 1.24517 1.24175 1.23788 1.23354 1.22875 1.2235 1.21759 1.21083 1.20321 1.19473 1.1854 1.17521 1.16416 1.15225 1.13929 1.12507 1.1096 1.09286 1.07488 1.05563 1.03513 1.01338 0.990322 0.965923 0.940181 0.913096 0.884667 0.854896 0.823781 0.791323 0.7578 0.723487 0.688385 0.652495 0.615815 0.578347 0.54009 0.501044 0.461386 0.421295 0.380771 0.339812 0.29842 0.256594 0.214334 0.171641 0.131413 0.096548 0.0670472 0.0429102 0.024137 0.0107276 0.00268189 0 0 0.00285837 0.0114335 0.0257253 0.0457339 0.0714593 0.102901 0.14006 0.182936 0.228432 0.273454 0.318001 0.362073 0.40567 0.448792 0.491439 0.533612 0.57512 0.615776 0.655578 0.694528 0.732624 0.769868 0.806259 0.841796 0.876189 0.909145 0.940663 0.970745 0.99939 1.0266 1.05237 1.0767 1.09965 1.12126 1.14154 1.16049 1.17809 1.19437 1.2093 1.2229 1.23539 1.24696 1.25764 1.26741 1.27627 1.28423 1.29128 1.29743 1.30289 1.30787 1.31238 1.3164 1.31995 1.32302 1.32561 1.32772 1.32948 1.33101 1.3323 1.33335 1.33417 1.33476 1.33511 1.33523 1.33511 1.33476 1.33417 1.33335 1.3323 1.33101 1.32948 1.32773 1.32561 1.32302 1.31995 1.3164 1.31238 1.30788 1.30289 1.29744 1.29129 1.28423 1.27627 1.26741 1.25764 1.24697 1.23539 1.22291 1.20931 1.19437 1.1781 1.16049 1.14155 1.12127 1.09966 1.07671 1.05238 1.02661 0.999404 0.970759 0.940678 0.90916 0.876205 0.841813 0.806277 0.769887 0.732644 0.694548 0.655599 0.615797 0.575142 0.533634 0.491462 0.448814 0.405691 0.362093 0.31802 0.273471 0.228447 0.182948 0.14007 0.102908 0.071464 0.045737 0.0257271 0.0114342 0.00285856 0 0 0.00303175 0.012127 0.0272858 0.048508 0.0757938 0.109143 0.148556 0.194032 0.242281 0.290013 0.337227 0.383924 0.430103 0.475764 0.520908 0.565534 0.609442 0.652432 0.694504 0.735658 0.775893 0.815211 0.85361 0.891091 0.927347 0.962074 0.995271 1.02694 1.05707 1.08568 1.11276 1.1383 1.16238 1.18504 1.20629 1.22613 1.24456 1.26157 1.27717 1.29137 1.30438 1.31644 1.32755 1.33771 1.34692 1.35518 1.36249 1.36885 1.37449 1.37963 1.38428 1.38843 1.39208 1.39524 1.3979 1.40006 1.40186 1.40342 1.40473 1.40581 1.40665 1.40725 1.40761 1.40773 1.40761 1.40725 1.40665 1.40581 1.40473 1.40342 1.40186 1.40006 1.3979 1.39524 1.39208 1.38843 1.38428 1.37964 1.37449 1.36886 1.36249 1.35518 1.34692 1.33771 1.32755 1.31644 1.30438 1.29137 1.27718 1.26158 1.24456 1.22614 1.2063 1.18505 1.16239 1.13831 1.11277 1.08569 1.05709 1.02695 0.995286 0.96209 0.927364 0.891109 0.853628 0.81523 0.775914 0.735679 0.694526 0.652454 0.609465 0.565557 0.520931 0.475787 0.430125 0.383945 0.337247 0.290031 0.242297 0.194045 0.148566 0.10915 0.0757987 0.0485112 0.0272875 0.0121278 0.00303195 0 0 0.00320185 0.0128074 0.0288167 0.0512296 0.0800463 0.115267 0.156891 0.204918 0.255867 0.306255 0.356081 0.405345 0.454049 0.50219 0.549771 0.59679 0.643035 0.688297 0.732574 0.775866 0.818174 0.859497 0.899836 0.939191 0.977241 1.01367 1.04847 1.08166 1.11322 1.14315 1.17147 1.19816 1.2233 1.24695 1.26911 1.28979 1.30898 1.32668 1.3429 1.35763 1.37112 1.38361 1.39512 1.40563 1.41515 1.42368 1.43121 1.43776 1.44355 1.44882 1.45359 1.45784 1.46158 1.4648 1.46751 1.46971 1.47153 1.47311 1.47444 1.47554 1.47639 1.47699 1.47736 1.47748 1.47736 1.47699 1.47639 1.47554 1.47445 1.47311 1.47153 1.46971 1.46751 1.4648 1.46158 1.45784 1.45359 1.44883 1.44355 1.43776 1.43122 1.42368 1.41515 1.40563 1.39512 1.38362 1.37112 1.35763 1.3429 1.32669 1.30899 1.2898 1.26912 1.24696 1.22331 1.19817 1.17148 1.14317 1.11323 1.08167 1.04849 1.01369 0.977259 0.939209 0.899855 0.859517 0.818195 0.775887 0.732596 0.688319 0.643059 0.596813 0.549795 0.502214 0.454072 0.405368 0.356101 0.306273 0.255883 0.204931 0.156901 0.115274 0.0800513 0.0512328 0.0288185 0.0128082 0.00320205 0 0 0.00336867 0.0134747 0.030318 0.0538987 0.0842167 0.121272 0.165065 0.215595 0.26919 0.322179 0.374562 0.426338 0.477508 0.528071 0.578028 0.627378 0.6759 0.723369 0.769787 0.815152 0.859466 0.902728 0.944938 0.986096 1.02587 1.06393 1.10028 1.13491 1.16782 1.19902 1.22851 1.25628 1.28242 1.30699 1.33001 1.35146 1.37136 1.38969 1.40647 1.42169 1.43561 1.4485 1.46035 1.47118 1.48097 1.48972 1.49745 1.50414 1.51005 1.51544 1.52029 1.52462 1.52843 1.5317 1.53445 1.53667 1.5385 1.54009 1.54143 1.54253 1.54339 1.544 1.54437 1.54449 1.54437 1.544 1.54339 1.54253 1.54143 1.54009 1.5385 1.53667 1.53445 1.5317 1.52843 1.52463 1.5203 1.51544 1.51006 1.50414 1.49745 1.48973 1.48097 1.47118 1.46036 1.4485 1.43562 1.42169 1.40648 1.3897 1.37137 1.35147 1.33002 1.307 1.28243 1.25629 1.22852 1.19904 1.16784 1.13492 1.10029 1.06395 1.02589 0.986115 0.944957 0.902748 0.859487 0.815174 0.769809 0.723392 0.675923 0.627403 0.578052 0.528095 0.477531 0.42636 0.374583 0.322198 0.269206 0.215608 0.165075 0.121279 0.0842218 0.053902 0.0303199 0.0134755 0.00336887 0 0 0.0035322 0.0141288 0.0317898 0.0565152 0.088305 0.127159 0.173078 0.226061 0.28225 0.337786 0.39267 0.446901 0.50048 0.553406 0.605679 0.6573 0.708035 0.757649 0.806143 0.853516 0.899769 0.944902 0.988914 1.03181 1.07323 1.11286 1.15067 1.18668 1.22089 1.25329 1.28388 1.31266 1.33973 1.36517 1.38897 1.41115 1.4317 1.45061 1.4679 1.48355 1.49785 1.51109 1.52325 1.53434 1.54437 1.55332 1.5612 1.56801 1.57401 1.57948 1.5844 1.58879 1.59264 1.59594 1.59871 1.60093 1.60277 1.60435 1.6057 1.6068 1.60765 1.60827 1.60863 1.60876 1.60863 1.60827 1.60766 1.6068 1.6057 1.60436 1.60277 1.60093 1.59871 1.59594 1.59264 1.58879 1.58441 1.57948 1.57402 1.56801 1.5612 1.55332 1.54437 1.53435 1.52326 1.51109 1.49786 1.48356 1.4679 1.45062 1.4317 1.41116 1.38898 1.36518 1.33974 1.31268 1.28389 1.2533 1.2209 1.1867 1.15069 1.11287 1.07325 1.03183 0.988934 0.944923 0.899791 0.853538 0.806166 0.757673 0.708059 0.657325 0.605704 0.55343 0.500504 0.446924 0.392691 0.337805 0.282266 0.226074 0.173088 0.127167 0.0883102 0.0565185 0.0317917 0.0141296 0.00353241 0 0 0.00369245 0.0147698 0.033232 0.0590792 0.0923112 0.132928 0.18093 0.236317 0.295046 0.353075 0.410405 0.467035 0.522965 0.578195 0.632725 0.686555 0.739441 0.791137 0.841642 0.890958 0.939084 0.98602 1.03177 1.07632 1.11933 1.16045 1.19967 1.23699 1.27241 1.30594 1.33757 1.36731 1.39524 1.42148 1.44602 1.46885 1.48999 1.50943 1.52717 1.54321 1.55785 1.57138 1.58381 1.59513 1.60535 1.61446 1.62246 1.62936 1.63543 1.64095 1.64592 1.65034 1.6542 1.65752 1.66029 1.66251 1.66433 1.66591 1.66724 1.66833 1.66918 1.66979 1.67015 1.67028 1.67015 1.66979 1.66918 1.66833 1.66724 1.66591 1.66433 1.66251 1.66029 1.65752 1.65421 1.65034 1.64592 1.64095 1.63543 1.62936 1.62246 1.61446 1.60535 1.59514 1.58382 1.57139 1.55786 1.54322 1.52718 1.50944 1.49 1.46886 1.44603 1.42149 1.39525 1.36732 1.33759 1.30596 1.27243 1.23701 1.19969 1.16047 1.11935 1.07634 1.03179 0.986041 0.939106 0.890981 0.841666 0.79116 0.739465 0.68658 0.63275 0.57822 0.522989 0.467058 0.410426 0.353095 0.295063 0.23633 0.18094 0.132936 0.0923165 0.0590825 0.0332339 0.0147706 0.00369266 0 0 0.00384803 0.0153921 0.0346322 0.0615684 0.0962006 0.138529 0.188553 0.246274 0.307468 0.367915 0.427615 0.486567 0.544771 0.602228 0.658937 0.714899 0.769856 0.823555 0.875993 0.927172 0.977091 1.02575 1.07315 1.11929 1.16381 1.20634 1.24688 1.28544 1.32201 1.3566 1.38919 1.41981 1.44854 1.47551 1.50072 1.52416 1.54584 1.56575 1.58389 1.60027 1.6152 1.62898 1.64163 1.65315 1.66352 1.67275 1.68085 1.6878 1.69391 1.69946 1.70445 1.70888 1.71275 1.71607 1.71882 1.72102 1.72281 1.72437 1.72569 1.72677 1.72761 1.72821 1.72857 1.72869 1.72857 1.72821 1.72761 1.72677 1.72569 1.72437 1.72282 1.72102 1.71882 1.71607 1.71275 1.70888 1.70445 1.69946 1.69391 1.68781 1.68085 1.67275 1.66352 1.65315 1.64164 1.62899 1.6152 1.60028 1.5839 1.56575 1.54585 1.52417 1.50073 1.47553 1.44856 1.41982 1.38921 1.35661 1.32203 1.28545 1.2469 1.20635 1.16382 1.11931 1.07317 1.02577 0.977113 0.927195 0.876017 0.823579 0.769881 0.714924 0.658962 0.602253 0.544796 0.48659 0.427636 0.367935 0.307485 0.246287 0.188564 0.138537 0.096206 0.0615718 0.0346341 0.015393 0.00384824 0 0 0.00399755 0.0159902 0.0359779 0.0639607 0.0999387 0.143912 0.19588 0.255843 0.319406 0.382174 0.444147 0.505325 0.565707 0.625295 0.684087 0.742084 0.79902 0.854626 0.908903 0.961851 1.01347 1.06376 1.11272 1.16036 1.20629 1.25014 1.29193 1.33164 1.36928 1.40485 1.43834 1.46976 1.49923 1.52687 1.55268 1.57666 1.59882 1.61914 1.63764 1.65431 1.66948 1.68348 1.69632 1.70798 1.71848 1.7278 1.73596 1.74295 1.74907 1.75462 1.75962 1.76404 1.7679 1.7712 1.77393 1.77609 1.77786 1.77938 1.78068 1.78174 1.78256 1.78315 1.7835 1.78362 1.7835 1.78315 1.78256 1.78174 1.78068 1.77939 1.77786 1.77609 1.77393 1.7712 1.7679 1.76404 1.75962 1.75463 1.74907 1.74295 1.73596 1.72781 1.71848 1.70798 1.69632 1.68349 1.66949 1.65432 1.63765 1.61915 1.59883 1.57667 