<?xml version="1.0"?> 
<VTKFile type="StructuredGrid" version="0.1"> 
<StructuredGrid WholeExtent="0 64 0 64 0 0"> 
<Piece Extent="0 64 0 64 0 0"> 
<PointData>
<DataArray type="Float32" Name="u" format="ascii" NumberOfComponents="1"> 
0 0 0 0 0 0 0 0 0 0 0 0 0 0 0 0 0 0 0 0 0 0 0 0 0 0 0 0 0 0 0 0 0 0 -0 -0 -0 -0 -0 -0 -0 -0 -0 -0 -0 -0 -0 -0 -0 -0 -0 -0 -0 -0 -0 -0 -0 -0 -0 -0 -0 -0 -0 -0 -0 0 0.00938147 0.0187629 0.0277839 0.0368048 0.0451186 0.0534323 0.0607194 0.0680064 0.0739868 0.0799671 0.0844109 0.0888547 0.0915912 0.0943276 0.0952516 0.0961756 0.0952516 0.0943276 0.0915912 0.0888547 0.0844109 0.0799671 0.0739868 0.0680064 0.0607194 0.0534323 0.0451186 0.0368048 0.0277839 0.0187629 0.00938147 2.15558e-16 -0.00938147 -0.0187629 -0.0277839 -0.0368048 -0.0451186 -0.0534323 -0.0607194 -0.0680064 -0.0739868 -0.0799671 -0.0844109 -0.0888547 -0.0915912 -0.0943276 -0.0952516 -0.0961756 -0.0952516 -0.0943276 -0.0915912 -0.0888547 -0.0844109 -0.0799671 -0.0739868 -0.0680064 -0.0607194 -0.0534323 -0.0451186 -0.0368048 -0.0277839 -0.0187629 -0.00938147 -3.23339e-18 0 0.0187629 0.0375259 0.0555677 0.0736096 0.0902371 0.106865 0.121439 0.136013 0.147974 0.159934 0.168822 0.177709 0.183182 0.188655 0.190503 0.192351 0.190503 0.188655 0.183182 0.177709 0.168822 0.159934 0.147974 0.136013 0.121439 0.106865 0.0902371 0.0736096 0.0555677 0.0375259 0.0187629 4.31116e-16 -0.0187629 -0.0375259 -0.0555677 -0.0736096 -0.0902371 -0.106865 -0.121439 -0.136013 -0.147974 -0.159934 -0.168822 -0.177709 -0.183182 -0.188655 -0.190503 -0.192351 -0.190503 -0.188655 -0.183182 -0.177709 -0.168822 -0.159934 -0.147974 -0.136013 -0.121439 -0.106865 -0.0902371 -0.0736096 -0.0555677 -0.0375259 -0.0187629 -6.46677e-18 0 0.0277839 0.0555677 0.0822839 0.109 0.133622 0.158244 0.179825 0.201406 0.219117 0.236828 0.249989 0.263149 0.271254 0.279358 0.282094 0.284831 0.282094 0.279358 0.271254 0.263149 0.249989 0.236828 0.219117 0.201406 0.179825 0.158244 0.133622 0.109 0.0822839 0.0555677 0.0277839 6.23666e-16 -0.0277839 -0.0555677 -0.0822839 -0.109 -0.133622 -0.158244 -0.179825 -0.201406 -0.219117 -0.236828 -0.249989 -0.263149 -0.271254 -0.279358 -0.282094 -0.284831 -0.282094 -0.279358 -0.271254 -0.263149 -0.249989 -0.236828 -0.219117 -0.201406 -0.179825 -0.158244 -0.133622 -0.109 -0.0822839 -0.0555677 -0.0277839 -9.5759e-18 0 0.0368048 0.0736096 0.109 0.14439 0.177006 0.209622 0.238211 0.266799 0.290261 0.313722 0.331156 0.348589 0.359325 0.370061 0.373686 0.377311 0.373686 0.370061 0.359325 0.348589 0.331156 0.313722 0.290261 0.266799 0.238211 0.209622 0.177006 0.14439 0.109 0.0736096 0.0368048 8.16216e-16 -0.0368048 -0.0736096 -0.109 -0.14439 -0.177006 -0.209622 -0.238211 -0.266799 -0.290261 -0.313722 -0.331156 -0.348589 -0.359325 -0.370061 -0.373686 -0.377311 -0.373686 -0.370061 -0.359325 -0.348589 -0.331156 -0.313722 -0.290261 -0.266799 -0.238211 -0.209622 -0.177006 -0.14439 -0.109 -0.0736096 -0.0368048 -1.2685e-17 0 0.0451186 0.0902371 0.133622 0.177006 0.21699 0.256974 0.292019 0.327065 0.355827 0.384588 0.40596 0.427331 0.440492 0.453653 0.458096 0.46254 0.458096 0.453653 0.440492 0.427331 0.40596 0.384588 0.355827 0.327065 0.292019 0.256974 0.21699 0.177006 0.133622 0.0902371 0.0451186 1.01475e-15 -0.0451186 -0.0902371 -0.133622 -0.177006 -0.21699 -0.256974 -0.292019 -0.327065 -0.355827 -0.384588 -0.40596 -0.427331 -0.440492 -0.453653 -0.458096 -0.46254 -0.458096 -0.453653 -0.440492 -0.427331 -0.40596 -0.384588 -0.355827 -0.327065 -0.292019 -0.256974 -0.21699 -0.177006 -0.133622 -0.0902371 -0.0451186 -1.55504e-17 0 0.0534323 0.106865 0.158244 0.209622 0.256974 0.304325 0.345828 0.387332 0.421393 0.455454 0.480764 0.506073 0.521659 0.537245 0.542507 0.54777 0.542507 0.537245 0.521659 0.506073 0.480764 0.455454 0.421393 0.387332 0.345828 0.304325 0.256974 0.209622 0.158244 0.106865 0.0534323 1.21329e-15 -0.0534323 -0.106865 -0.158244 -0.209622 -0.256974 -0.304325 -0.345828 -0.387332 -0.421393 -0.455454 -0.480764 -0.506073 -0.521659 -0.537245 -0.542507 -0.54777 -0.542507 -0.537245 -0.521659 -0.506073 -0.480764 -0.455454 -0.421393 -0.387332 -0.345828 -0.304325 -0.256974 -0.209622 -0.158244 -0.106865 -0.0534323 -1.84158e-17 0 0.0607194 0.121439 0.179825 0.238211 0.292019 0.345828 0.392992 0.440156 0.478862 0.517569 0.54633 0.575091 0.592803 0.610514 0.616494 0.622474 0.616494 0.610514 0.592803 0.575091 0.54633 0.517569 0.478862 0.440156 0.392992 0.345828 0.292019 0.238211 0.179825 0.121439 0.0607194 1.43803e-15 -0.0607194 -0.121439 -0.179825 -0.238211 -0.292019 -0.345828 -0.392992 -0.440156 -0.478862 -0.517569 -0.54633 -0.575091 -0.592803 -0.610514 -0.616494 -0.622474 -0.616494 -0.610514 -0.592803 -0.575091 -0.54633 -0.517569 -0.478862 -0.440156 -0.392992 -0.345828 -0.292019 -0.238211 -0.179825 -0.121439 -0.0607194 -2.09273e-17 0 0.0680064 0.136013 0.201406 0.266799 0.327065 0.387332 0.440156 0.49298 0.536332 0.579683 0.611896 0.644109 0.663946 0.683783 0.690481 0.697179 0.690481 0.683783 0.663946 0.644109 0.611896 0.579683 0.536332 0.49298 0.440156 0.387332 0.327065 0.266799 0.201406 0.136013 0.0680064 1.66277e-15 -0.0680064 -0.136013 -0.201406 -0.266799 -0.327065 -0.387332 -0.440156 -0.49298 -0.536332 -0.579683 -0.611896 -0.644109 -0.663946 -0.683783 -0.690481 -0.697179 -0.690481 -0.683783 -0.663946 -0.644109 -0.611896 -0.579683 -0.536332 -0.49298 -0.440156 -0.387332 -0.327065 -0.266799 -0.201406 -0.136013 -0.0680064 -2.34389e-17 0 0.0739868 0.147974 0.219117 0.290261 0.355827 0.421393 0.478862 0.536332 0.583495 0.630659 0.665705 0.700751 0.722332 0.743913 0.7512 0.758487 0.7512 0.743913 0.722332 0.700751 0.665705 0.630659 0.583495 0.536332 0.478862 0.421393 0.355827 0.290261 0.219117 0.147974 0.0739868 1.81646e-15 -0.0739868 -0.147974 -0.219117 -0.290261 -0.355827 -0.421393 -0.478862 -0.536332 -0.583495 -0.630659 -0.665705 -0.700751 -0.722332 -0.743913 -0.7512 -0.758487 -0.7512 -0.743913 -0.722332 -0.700751 -0.665705 -0.630659 -0.583495 -0.536332 -0.478862 -0.421393 -0.355827 -0.290261 -0.219117 -0.147974 -0.0739868 -2.55e-17 0 0.0799671 0.159934 0.236828 0.313722 0.384588 0.455454 0.517569 0.579683 0.630659 0.681635 0.719514 0.757392 0.780718 0.804044 0.81192 0.819796 0.81192 0.804044 0.780718 0.757392 0.719514 0.681635 0.630659 0.579683 0.517569 0.455454 0.384588 0.313722 0.236828 0.159934 0.0799671 1.97016e-15 -0.0799671 -0.159934 -0.236828 -0.313722 -0.384588 -0.455454 -0.517569 -0.579683 -0.630659 -0.681635 -0.719514 -0.757392 -0.780718 -0.804044 -0.81192 -0.819796 -0.81192 -0.804044 -0.780718 -0.757392 -0.719514 -0.681635 -0.630659 -0.579683 -0.517569 -0.455454 -0.384588 -0.313722 -0.236828 -0.159934 -0.0799671 -2.75612e-17 0 0.0844109 0.168822 0.249989 0.331156 0.40596 0.480764 0.54633 0.611896 0.665705 0.719514 0.759497 0.799481 0.824103 0.848724 0.857038 0.865352 0.857038 0.848724 0.824103 0.799481 0.759497 0.719514 0.665705 0.611896 0.54633 0.480764 0.40596 0.331156 0.249989 0.168822 0.0844109 2.1374e-15 -0.0844109 -0.168822 -0.249989 -0.331156 -0.40596 -0.480764 -0.54633 -0.611896 -0.665705 -0.719514 -0.759497 -0.799481 -0.824103 -0.848724 -0.857038 -0.865352 -0.857038 -0.848724 -0.824103 -0.799481 -0.759497 -0.719514 -0.665705 -0.611896 -0.54633 -0.480764 -0.40596 -0.331156 -0.249989 -0.168822 -0.0844109 -2.90928e-17 0 0.0888547 0.177709 0.263149 0.348589 0.427331 0.506073 0.575091 0.644109 0.700751 0.757392 0.799481 0.841569 0.867487 0.893405 0.902157 0.910908 0.902157 0.893405 0.867487 0.841569 0.799481 0.757392 0.700751 0.644109 0.575091 0.506073 0.427331 0.348589 0.263149 0.177709 0.0888547 2.30464e-15 -0.0888547 -0.177709 -0.263149 -0.348589 -0.427331 -0.506073 -0.575091 -0.644109 -0.700751 -0.757392 -0.799481 -0.841569 -0.867487 -0.893405 -0.902157 -0.910908 -0.902157 -0.893405 -0.867487 -0.841569 -0.799481 -0.757392 -0.700751 -0.644109 -0.575091 -0.506073 -0.427331 -0.348589 -0.263149 -0.177709 -0.0888547 -3.06244e-17 0 0.0915912 0.183182 0.271254 0.359325 0.440492 0.521659 0.592803 0.663946 0.722332 0.780718 0.824103 0.867487 0.894204 0.92092 0.929941 0.938962 0.929941 0.92092 0.894204 0.867487 0.824103 0.780718 0.722332 0.663946 0.592803 0.521659 0.440492 0.359325 0.271254 0.183182 0.0915912 2.36002e-15 -0.0915912 -0.183182 -0.271254 -0.359325 -0.440492 -0.521659 -0.592803 -0.663946 -0.722332 -0.780718 -0.824103 -0.867487 -0.894204 -0.92092 -0.929941 -0.938962 -0.929941 -0.92092 -0.894204 -0.867487 -0.824103 -0.780718 -0.722332 -0.663946 -0.592803 -0.521659 -0.440492 -0.359325 -0.271254 -0.183182 -0.0915912 -3.15675e-17 0 0.0943276 0.188655 0.279358 0.370061 0.453653 0.537245 0.610514 0.683783 0.743913 0.804044 0.848724 0.893405 0.92092 0.948434 0.957724 0.967015 0.957724 0.948434 0.92092 0.893405 0.848724 0.804044 0.743913 0.683783 0.610514 0.537245 0.453653 0.370061 0.279358 0.188655 0.0943276 2.4154e-15 -0.0943276 -0.188655 -0.279358 -0.370061 -0.453653 -0.537245 -0.610514 -0.683783 -0.743913 -0.804044 -0.848724 -0.893405 -0.92092 -0.948434 -0.957724 -0.967015 -0.957724 -0.948434 -0.92092 -0.893405 -0.848724 -0.804044 -0.743913 -0.683783 -0.610514 -0.537245 -0.453653 -0.370061 -0.279358 -0.188655 -0.0943276 -3.25107e-17 0 0.0952516 0.190503 0.282094 0.373686 0.458096 0.542507 0.616494 0.690481 0.7512 0.81192 0.857038 0.902157 0.929941 0.957724 0.967106 0.976487 0.967106 0.957724 0.929941 0.902157 0.857038 0.81192 0.7512 0.690481 0.616494 0.542507 0.458096 0.373686 0.282094 0.190503 0.0952516 2.47489e-15 -0.0952516 -0.190503 -0.282094 -0.373686 -0.458096 -0.542507 -0.616494 -0.690481 -0.7512 -0.81192 -0.857038 -0.902157 -0.929941 -0.957724 -0.967106 -0.976487 -0.967106 -0.957724 -0.929941 -0.902157 -0.857038 -0.81192 -0.7512 -0.690481 -0.616494 -0.542507 -0.458096 -0.373686 -0.282094 -0.190503 -0.0952516 -3.28291e-17 0 0.0961756 0.192351 0.284831 0.377311 0.46254 0.54777 0.622474 0.697179 0.758487 0.819796 0.865352 0.910908 0.938962 0.967015 0.976487 0.98596 0.976487 0.967015 0.938962 0.910908 0.865352 0.819796 0.758487 0.697179 0.622474 0.54777 0.46254 0.377311 0.284831 0.192351 0.0961756 2.53439e-15 -0.0961756 -0.192351 -0.284831 -0.377311 -0.46254 -0.54777 -0.622474 -0.697179 -0.758487 -0.819796 -0.865352 -0.910908 -0.938962 -0.967015 -0.976487 -0.98596 -0.976487 -0.967015 -0.938962 -0.910908 -0.865352 -0.819796 -0.758487 -0.697179 -0.622474 -0.54777 -0.46254 -0.377311 -0.284831 -0.192351 -0.0961756 -3.31476e-17 0 0.0952516 0.190503 0.282094 0.373686 0.458096 0.542507 0.616494 0.690481 0.7512 0.81192 0.857038 0.902157 0.929941 0.957724 0.967106 0.976487 0.967106 0.957724 0.929941 0.902157 0.857038 0.81192 0.7512 0.690481 0.616494 0.542507 0.458096 0.373686 0.282094 0.190503 0.0952516 2.54761e-15 -0.0952516 -0.190503 -0.282094 -0.373686 -0.458096 -0.542507 -0.616494 -0.690481 -0.7512 -0.81192 -0.857038 -0.902157 -0.929941 -0.957724 -0.967106 -0.976487 -0.967106 -0.957724 -0.929941 -0.902157 -0.857038 -0.81192 -0.7512 -0.690481 -0.616494 -0.542507 -0.458096 -0.373686 -0.282094 -0.190503 -0.0952516 -3.28291e-17 0 0.0943276 0.188655 0.279358 0.370061 0.453653 0.537245 0.610514 0.683783 0.743913 0.804044 0.848724 0.893405 0.92092 0.948434 0.957724 0.967015 0.957724 0.948434 0.92092 0.893405 0.848724 0.804044 0.743913 0.683783 0.610514 0.537245 0.453653 0.370061 0.279358 0.188655 0.0943276 2.56084e-15 -0.0943276 -0.188655 -0.279358 -0.370061 -0.453653 -0.537245 -0.610514 -0.683783 -0.743913 -0.804044 -0.848724 -0.893405 -0.92092 -0.948434 -0.957724 -0.967015 -0.957724 -0.948434 -0.92092 -0.893405 -0.848724 -0.804044 -0.743913 -0.683783 -0.610514 -0.537245 -0.453653 -0.370061 -0.279358 -0.188655 -0.0943276 -3.25107e-17 0 0.0915912 0.183182 0.271254 0.359325 0.440492 0.521659 0.592803 0.663946 0.722332 0.780718 0.824103 0.867487 0.894204 0.92092 0.929941 0.938962 0.929941 0.92092 0.894204 0.867487 0.824103 0.780718 0.722332 0.663946 0.592803 0.521659 0.440492 0.359325 0.271254 0.183182 0.0915912 2.54128e-15 -0.0915912 -0.183182 -0.271254 -0.359325 -0.440492 -0.521659 -0.592803 -0.663946 -0.722332 -0.780718 -0.824103 -0.867487 -0.894204 -0.92092 -0.929941 -0.938962 -0.929941 -0.92092 -0.894204 -0.867487 -0.824103 -0.780718 -0.722332 -0.663946 -0.592803 -0.521659 -0.440492 -0.359325 -0.271254 -0.183182 -0.0915912 -3.15675e-17 0 0.0888547 0.177709 0.263149 0.348589 0.427331 0.506073 0.575091 0.644109 0.700751 0.757392 0.799481 0.841569 0.867487 0.893405 0.902157 0.910908 0.902157 0.893405 0.867487 0.841569 0.799481 0.757392 0.700751 0.644109 0.575091 0.506073 0.427331 0.348589 0.263149 0.177709 0.0888547 2.52173e-15 -0.0888547 -0.177709 -0.263149 -0.348589 -0.427331 -0.506073 -0.575091 -0.644109 -0.700751 -0.757392 -0.799481 -0.841569 -0.867487 -0.893405 -0.902157 -0.910908 -0.902157 -0.893405 -0.867487 -0.841569 -0.799481 -0.757392 -0.700751 -0.644109 -0.575091 -0.506073 -0.427331 -0.348589 -0.263149 -0.177709 -0.0888547 -3.06244e-17 0 0.0844109 0.168822 0.249989 0.331156 0.40596 0.480764 0.54633 0.611896 0.665705 0.719514 0.759497 0.799481 0.824103 0.848724 0.857038 0.865352 0.857038 0.848724 0.824103 0.799481 0.759497 0.719514 0.665705 0.611896 0.54633 0.480764 0.40596 0.331156 0.249989 0.168822 0.0844109 2.51076e-15 -0.0844109 -0.168822 -0.249989 -0.331156 -0.40596 -0.480764 -0.54633 -0.611896 -0.665705 -0.719514 -0.759497 -0.799481 -0.824103 -0.848724 -0.857038 -0.865352 -0.857038 -0.848724 -0.824103 -0.799481 -0.759497 -0.719514 -0.665705 -0.611896 -0.54633 -0.480764 -0.40596 -0.331156 -0.249989 -0.168822 -0.0844109 -2.90928e-17 0 0.0799671 0.159934 0.236828 0.313722 0.384588 0.455454 0.517569 0.579683 0.630659 0.681635 0.719514 0.757392 0.780718 0.804044 0.81192 0.819796 0.81192 0.804044 0.780718 0.757392 0.719514 0.681635 0.630659 0.579683 0.517569 0.455454 0.384588 0.313722 0.236828 0.159934 0.0799671 2.4998e-15 -0.0799671 -0.159934 -0.236828 -0.313722 -0.384588 -0.455454 -0.517569 -0.579683 -0.630659 -0.681635 -0.719514 -0.757392 -0.780718 -0.804044 -0.81192 -0.819796 -0.81192 -0.804044 -0.780718 -0.757392 -0.719514 -0.681635 -0.630659 -0.579683 -0.517569 -0.455454 -0.384588 -0.313722 -0.236828 -0.159934 -0.0799671 -2.75612e-17 0 0.0739868 0.147974 0.219117 0.290261 0.355827 0.421393 0.478862 0.536332 0.583495 0.630659 0.665705 0.700751 0.722332 0.743913 0.7512 0.758487 0.7512 0.743913 0.722332 0.700751 0.665705 0.630659 0.583495 0.536332 0.478862 0.421393 0.355827 0.290261 0.219117 0.147974 0.0739868 2.39222e-15 -0.0739868 -0.147974 -0.219117 -0.290261 -0.355827 -0.421393 -0.478862 -0.536332 -0.583495 -0.630659 -0.665705 -0.700751 -0.722332 -0.743913 -0.7512 -0.758487 -0.7512 -0.743913 -0.722332 -0.700751 -0.665705 -0.630659 -0.583495 -0.536332 -0.478862 -0.421393 -0.355827 -0.290261 -0.219117 -0.147974 -0.0739868 -2.55e-17 0 0.0680064 0.136013 0.201406 0.266799 0.327065 0.387332 0.440156 0.49298 0.536332 0.579683 0.611896 0.644109 0.663946 0.683783 0.690481 0.697179 0.690481 0.683783 0.663946 0.644109 0.611896 0.579683 0.536332 0.49298 0.440156 0.387332 0.327065 0.266799 0.201406 0.136013 0.0680064 2.28463e-15 -0.0680064 -0.136013 -0.201406 -0.266799 -0.327065 -0.387332 -0.440156 -0.49298 -0.536332 -0.579683 -0.611896 -0.644109 -0.663946 -0.683783 -0.690481 -0.697179 -0.690481 -0.683783 -0.663946 -0.644109 -0.611896 -0.579683 -0.536332 -0.49298 -0.440156 -0.387332 -0.327065 -0.266799 -0.201406 -0.136013 -0.0680064 -2.34389e-17 0 0.0607194 0.121439 0.179825 0.238211 0.292019 0.345828 0.392992 0.440156 0.478862 0.517569 0.54633 0.575091 0.592803 0.610514 0.616494 0.622474 0.616494 0.610514 0.592803 0.575091 0.54633 0.517569 0.478862 0.440156 0.392992 0.345828 0.292019 0.238211 0.179825 0.121439 0.0607194 2.12218e-15 -0.0607194 -0.121439 -0.179825 -0.238211 -0.292019 -0.345828 -0.392992 -0.440156 -0.478862 -0.517569 -0.54633 -0.575091 -0.592803 -0.610514 -0.616494 -0.622474 -0.616494 -0.610514 -0.592803 -0.575091 -0.54633 -0.517569 -0.478862 -0.440156 -0.392992 -0.345828 -0.292019 -0.238211 -0.179825 -0.121439 -0.0607194 -2.09273e-17 0 0.0534323 0.106865 0.158244 0.209622 0.256974 0.304325 0.345828 0.387332 0.421393 0.455454 0.480764 0.506073 0.521659 0.537245 0.542507 0.54777 0.542507 0.537245 0.521659 0.506073 0.480764 0.455454 0.421393 0.387332 0.345828 0.304325 0.256974 0.209622 0.158244 0.106865 0.0534323 1.95972e-15 -0.0534323 -0.106865 -0.158244 -0.209622 -0.256974 -0.304325 -0.345828 -0.387332 -0.421393 -0.455454 -0.480764 -0.506073 -0.521659 -0.537245 -0.542507 -0.54777 -0.542507 -0.537245 -0.521659 -0.506073 -0.480764 -0.455454 -0.421393 -0.387332 -0.345828 -0.304325 -0.256974 -0.209622 -0.158244 -0.106865 -0.0534323 -1.84158e-17 0 0.0451186 0.0902371 0.133622 0.177006 0.21699 0.256974 0.292019 0.327065 0.355827 0.384588 0.40596 0.427331 0.440492 0.453653 0.458096 0.46254 0.458096 0.453653 0.440492 0.427331 0.40596 0.384588 0.355827 0.327065 0.292019 0.256974 0.21699 0.177006 0.133622 0.0902371 0.0451186 1.76043e-15 -0.0451186 -0.0902371 -0.133622 -0.177006 -0.21699 -0.256974 -0.292019 -0.327065 -0.355827 -0.384588 -0.40596 -0.427331 -0.440492 -0.453653 -0.458096 -0.46254 -0.458096 -0.453653 -0.440492 -0.427331 -0.40596 -0.384588 -0.355827 -0.327065 -0.292019 -0.256974 -0.21699 -0.177006 -0.133622 -0.0902371 -0.0451186 -1.55504e-17 0 0.0368048 0.0736096 0.109 0.14439 0.177006 0.209622 0.238211 0.266799 0.290261 0.313722 0.331156 0.348589 0.359325 0.370061 0.373686 0.377311 0.373686 0.370061 0.359325 0.348589 0.331156 0.313722 0.290261 0.266799 0.238211 0.209622 0.177006 0.14439 0.109 0.0736096 0.0368048 1.56113e-15 -0.0368048 -0.0736096 -0.109 -0.14439 -0.177006 -0.209622 -0.238211 -0.266799 -0.290261 -0.313722 -0.331156 -0.348589 -0.359325 -0.370061 -0.373686 -0.377311 -0.373686 -0.370061 -0.359325 -0.348589 -0.331156 -0.313722 -0.290261 -0.266799 -0.238211 -0.209622 -0.177006 -0.14439 -0.109 -0.0736096 -0.0368048 -1.2685e-17 0 0.0277839 0.0555677 0.0822839 0.109 0.133622 0.158244 0.179825 0.201406 0.219117 0.236828 0.249989 0.263149 0.271254 0.279358 0.282094 0.284831 0.282094 0.279358 0.271254 0.263149 0.249989 0.236828 0.219117 0.201406 0.179825 0.158244 0.133622 0.109 0.0822839 0.0555677 0.0277839 1.36181e-15 -0.0277839 -0.0555677 -0.0822839 -0.109 -0.133622 -0.158244 -0.179825 -0.201406 -0.219117 -0.236828 -0.249989 -0.263149 -0.271254 -0.279358 -0.282094 -0.284831 -0.282094 -0.279358 -0.271254 -0.263149 -0.249989 -0.236828 -0.219117 -0.201406 -0.179825 -0.158244 -0.133622 -0.109 -0.0822839 -0.0555677 -0.0277839 -9.5759e-18 0 0.0187629 0.0375259 0.0555677 0.0736096 0.0902371 0.106865 0.121439 0.136013 0.147974 0.159934 0.168822 0.177709 0.183182 0.188655 0.190503 0.192351 0.190503 0.188655 0.183182 0.177709 0.168822 0.159934 0.147974 0.136013 0.121439 0.106865 0.0902371 0.0736096 0.0555677 0.0375259 0.0187629 1.16249e-15 -0.0187629 -0.0375259 -0.0555677 -0.0736096 -0.0902371 -0.106865 -0.121439 -0.136013 -0.147974 -0.159934 -0.168822 -0.177709 -0.183182 -0.188655 -0.190503 -0.192351 -0.190503 -0.188655 -0.183182 -0.177709 -0.168822 -0.159934 -0.147974 -0.136013 -0.121439 -0.106865 -0.0902371 -0.0736096 -0.0555677 -0.0375259 -0.0187629 -6.46677e-18 0 0.00938147 0.0187629 0.0277839 0.0368048 0.0451186 0.0534323 0.0607194 0.0680064 0.0739868 0.0799671 0.0844109 0.0888547 0.0915912 0.0943276 0.0952516 0.0961756 0.0952516 0.0943276 0.0915912 0.0888547 0.0844109 0.0799671 0.0739868 0.0680064 0.0607194 0.0534323 0.0451186 0.0368048 0.0277839 0.0187629 0.00938147 9.89744e-16 -0.00938147 -0.0187629 -0.0277839 -0.0368048 -0.0451186 -0.0534323 -0.0607194 -0.0680064 -0.0739868 -0.0799671 -0.0844109 -0.0888547 -0.0915912 -0.0943276 -0.0952516 -0.0961756 -0.0952516 -0.0943276 -0.0915912 -0.0888547 -0.0844109 -0.0799671 -0.0739868 -0.0680064 -0.0607194 -0.0534323 -0.0451186 -0.0368048 -0.0277839 -0.0187629 -0.00938147 -3.23339e-18 0 -9.11614e-17 -1.82323e-16 -2.55056e-16 -3.27789e-16 -4.02644e-16 -4.77498e-16 -5.13662e-16 -5.49826e-16 -5.41237e-16 -5.32648e-16 -5.27159e-16 -5.21669e-16 -4.78387e-16 -4.35104e-16 -3.91834e-16 -3.48563e-16 -2.11534e-16 -7.45043e-17 -4.8597e-18 6.47849e-17 1.83236e-16 3.01686e-16 4.50612e-16 5.99537e-16 6.71003e-16 7.4247e-16 7.96664e-16 8.50858e-16 8.41667e-16 8.32477e-16 8.24738e-16 8.17e-16 8.04652e-16 7.92305e-16 8.00414e-16 8.08524e-16 8.33879e-16 8.59234e-16 8.35101e-16 8.10969e-16 8.60897e-16 9.10825e-16 9.04347e-16 8.97869e-16 8.77925e-16 8.57981e-16 8.94944e-16 9.31906e-16 9.09663e-16 8.87419e-16 9.05097e-16 9.22775e-16 8.87054e-16 8.51333e-16 8.46064e-16 8.40795e-16 8.1196e-16 7.83126e-16 6.41396e-16 4.99666e-16 3.84509e-16 2.69352e-16 1.34676e-16 -4.05941e-33 0 -0.00938147 -0.0187629 -0.0277839 -0.0368048 -0.0451186 -0.0534323 -0.0607194 -0.0680064 -0.0739868 -0.0799671 -0.0844109 -0.0888547 -0.0915912 -0.0943276 -0.0952516 -0.0961756 -0.0952516 -0.0943276 -0.0915912 -0.0888547 -0.0844109 -0.0799671 -0.0739868 -0.0680064 -0.0607194 -0.0534323 -0.0451186 -0.0368048 -0.0277839 -0.0187629 -0.00938147 6.46732e-16 0.00938147 0.0187629 0.0277839 0.0368048 0.0451186 0.0534323 0.0607194 0.0680064 0.0739868 0.0799671 0.0844109 0.0888547 0.0915912 0.0943276 0.0952516 0.0961756 0.0952516 0.0943276 0.0915912 0.0888547 0.0844109 0.0799671 0.0739868 0.0680064 0.0607194 0.0534323 0.0451186 0.0368048 0.0277839 0.0187629 0.00938147 3.23339e-18 -0 -0.0187629 -0.0375259 -0.0555677 -0.0736096 -0.0902371 -0.106865 -0.121439 -0.136013 -0.147974 -0.159934 -0.168822 -0.177709 -0.183182 -0.188655 -0.190503 -0.192351 -0.190503 -0.188655 -0.183182 -0.177709 -0.168822 -0.159934 -0.147974 -0.136013 -0.121439 -0.106865 -0.0902371 -0.0736096 -0.0555677 -0.0375259 -0.0187629 4.76464e-16 0.0187629 0.0375259 0.0555677 0.0736096 0.0902371 0.106865 0.121439 0.136013 0.147974 0.159934 0.168822 0.177709 0.183182 0.188655 0.190503 0.192351 0.190503 0.188655 0.183182 0.177709 0.168822 0.159934 0.147974 0.136013 0.121439 0.106865 0.0902371 0.0736096 0.0555677 0.0375259 0.0187629 6.46677e-18 -0 -0.0277839 -0.0555677 -0.0822839 -0.109 -0.133622 -0.158244 -0.179825 -0.201406 -0.219117 -0.236828 -0.249989 -0.263149 -0.271254 -0.279358 -0.282094 -0.284831 -0.282094 -0.279358 -0.271254 -0.263149 -0.249989 -0.236828 -0.219117 -0.201406 -0.179825 -0.158244 -0.133622 -0.109 -0.0822839 -0.0555677 -0.0277839 3.22223e-16 0.0277839 0.0555677 0.0822839 0.109 0.133622 0.158244 0.179825 0.201406 0.219117 0.236828 0.249989 0.263149 0.271254 0.279358 0.282094 0.284831 0.282094 0.279358 0.271254 0.263149 0.249989 0.236828 0.219117 0.201406 0.179825 0.158244 0.133622 0.109 0.0822839 0.0555677 0.0277839 9.5759e-18 -0 -0.0368048 -0.0736096 -0.109 -0.14439 -0.177006 -0.209622 -0.238211 -0.266799 -0.290261 -0.313722 -0.331156 -0.348589 -0.359325 -0.370061 -0.373686 -0.377311 -0.373686 -0.370061 -0.359325 -0.348589 -0.331156 -0.313722 -0.290261 -0.266799 -0.238211 -0.209622 -0.177006 -0.14439 -0.109 -0.0736096 -0.0368048 1.67982e-16 0.0368048 0.0736096 0.109 0.14439 0.177006 0.209622 0.238211 0.266799 0.290261 0.313722 0.331156 0.348589 0.359325 0.370061 0.373686 0.377311 0.373686 0.370061 0.359325 0.348589 0.331156 0.313722 0.290261 0.266799 0.238211 0.209622 0.177006 0.14439 0.109 0.0736096 0.0368048 1.2685e-17 -0 -0.0451186 -0.0902371 -0.133622 -0.177006 -0.21699 -0.256974 -0.292019 -0.327065 -0.355827 -0.384588 -0.40596 -0.427331 -0.440492 -0.453653 -0.458096 -0.46254 -0.458096 -0.453653 -0.440492 -0.427331 -0.40596 -0.384588 -0.355827 -0.327065 -0.292019 -0.256974 -0.21699 -0.177006 -0.133622 -0.0902371 -0.0451186 3.5822e-17 0.0451186 0.0902371 0.133622 0.177006 0.21699 0.256974 0.292019 0.327065 0.355827 0.384588 0.40596 0.427331 0.440492 0.453653 0.458096 0.46254 0.458096 0.453653 0.440492 0.427331 0.40596 0.384588 0.355827 0.327065 0.292019 0.256974 0.21699 0.177006 0.133622 0.0902371 0.0451186 1.55504e-17 -0 -0.0534323 -0.106865 -0.158244 -0.209622 -0.256974 -0.304325 -0.345828 -0.387332 -0.421393 -0.455454 -0.480764 -0.506073 -0.521659 -0.537245 -0.542507 -0.54777 -0.542507 -0.537245 -0.521659 -0.506073 -0.480764 -0.455454 -0.421393 -0.387332 -0.345828 -0.304325 -0.256974 -0.209622 -0.158244 -0.106865 -0.0534323 -9.63382e-17 0.0534323 0.106865 0.158244 0.209622 0.256974 0.304325 0.345828 0.387332 0.421393 0.455454 0.480764 0.506073 0.521659 0.537245 0.542507 0.54777 0.542507 0.537245 0.521659 0.506073 0.480764 0.455454 0.421393 0.387332 0.345828 0.304325 0.256974 0.209622 0.158244 0.106865 0.0534323 1.84158e-17 -0 -0.0607194 -0.121439 -0.179825 -0.238211 -0.292019 -0.345828 -0.392992 -0.440156 -0.478862 -0.517569 -0.54633 -0.575091 -0.592803 -0.610514 -0.616494 -0.622474 -0.616494 -0.610514 -0.592803 -0.575091 -0.54633 -0.517569 -0.478862 -0.440156 -0.392992 -0.345828 -0.292019 -0.238211 -0.179825 -0.121439 -0.0607194 -1.96325e-16 0.0607194 0.121439 0.179825 0.238211 0.292019 0.345828 0.392992 0.440156 0.478862 0.517569 0.54633 0.575091 0.592803 0.610514 0.616494 0.622474 0.616494 0.610514 0.592803 0.575091 0.54633 0.517569 0.478862 0.440156 0.392992 0.345828 0.292019 0.238211 0.179825 0.121439 0.0607194 2.09273e-17 -0 -0.0680064 -0.136013 -0.201406 -0.266799 -0.327065 -0.387332 -0.440156 -0.49298 -0.536332 -0.579683 -0.611896 -0.644109 -0.663946 -0.683783 -0.690481 -0.697179 -0.690481 -0.683783 -0.663946 -0.644109 -0.611896 -0.579683 -0.536332 -0.49298 -0.440156 -0.387332 -0.327065 -0.266799 -0.201406 -0.136013 -0.0680064 -2.96311e-16 0.0680064 0.136013 0.201406 0.266799 0.327065 0.387332 0.440156 0.49298 0.536332 0.579683 0.611896 0.644109 0.663946 0.683783 0.690481 0.697179 0.690481 0.683783 0.663946 0.644109 0.611896 0.579683 0.536332 0.49298 0.440156 0.387332 0.327065 0.266799 0.201406 0.136013 0.0680064 2.34389e-17 -0 -0.0739868 -0.147974 -0.219117 -0.290261 -0.355827 -0.421393 -0.478862 -0.536332 -0.583495 -0.630659 -0.665705 -0.700751 -0.722332 -0.743913 -0.7512 -0.758487 -0.7512 -0.743913 -0.722332 -0.700751 -0.665705 -0.630659 -0.583495 -0.536332 -0.478862 -0.421393 -0.355827 -0.290261 -0.219117 -0.147974 -0.0739868 -3.55253e-16 0.0739868 0.147974 0.219117 0.290261 0.355827 0.421393 0.478862 0.536332 0.583495 0.630659 0.665705 0.700751 0.722332 0.743913 0.7512 0.758487 0.7512 0.743913 0.722332 0.700751 0.665705 0.630659 0.583495 0.536332 0.478862 0.421393 0.355827 0.290261 0.219117 0.147974 0.0739868 2.55e-17 -0 -0.0799671 -0.159934 -0.236828 -0.313722 -0.384588 -0.455454 -0.517569 -0.579683 -0.630659 -0.681635 -0.719514 -0.757392 -0.780718 -0.804044 -0.81192 -0.819796 -0.81192 -0.804044 -0.780718 -0.757392 -0.719514 -0.681635 -0.630659 -0.579683 -0.517569 -0.455454 -0.384588 -0.313722 -0.236828 -0.159934 -0.0799671 -4.14194e-16 0.0799671 0.159934 0.236828 0.313722 0.384588 0.455454 0.517569 0.579683 0.630659 0.681635 0.719514 0.757392 0.780718 0.804044 0.81192 0.819796 0.81192 0.804044 0.780718 0.757392 0.719514 0.681635 0.630659 0.579683 0.517569 0.455454 0.384588 0.313722 0.236828 0.159934 0.0799671 2.75612e-17 -0 -0.0844109 -0.168822 -0.249989 -0.331156 -0.40596 -0.480764 -0.54633 -0.611896 -0.665705 -0.719514 -0.759497 -0.799481 -0.824103 -0.848724 -0.857038 -0.865352 -0.857038 -0.848724 -0.824103 -0.799481 -0.759497 -0.719514 -0.665705 -0.611896 -0.54633 -0.480764 -0.40596 -0.331156 -0.249989 -0.168822 -0.0844109 -4.19045e-16 0.0844109 0.168822 0.249989 0.331156 0.40596 0.480764 0.54633 0.611896 0.665705 0.719514 0.759497 0.799481 0.824103 0.848724 0.857038 0.865352 0.857038 0.848724 0.824103 0.799481 0.759497 0.719514 0.665705 0.611896 0.54633 0.480764 0.40596 0.331156 0.249989 0.168822 0.0844109 2.90928e-17 -0 -0.0888547 -0.177709 -0.263149 -0.348589 -0.427331 -0.506073 -0.575091 -0.644109 -0.700751 -0.757392 -0.799481 -0.841569 -0.867487 -0.893405 -0.902157 -0.910908 -0.902157 -0.893405 -0.867487 -0.841569 -0.799481 -0.757392 -0.700751 -0.644109 -0.575091 -0.506073 -0.427331 -0.348589 -0.263149 -0.177709 -0.0888547 -4.23896e-16 0.0888547 0.177709 0.263149 0.348589 0.427331 0.506073 0.575091 0.644109 0.700751 0.757392 0.799481 0.841569 0.867487 0.893405 0.902157 0.910908 0.902157 0.893405 0.867487 0.841569 0.799481 0.757392 0.700751 0.644109 0.575091 0.506073 0.427331 0.348589 0.263149 0.177709 0.0888547 3.06244e-17 -0 -0.0915912 -0.183182 -0.271254 -0.359325 -0.440492 -0.521659 -0.592803 -0.663946 -0.722332 -0.780718 -0.824103 -0.867487 -0.894204 -0.92092 -0.929941 -0.938962 -0.929941 -0.92092 -0.894204 -0.867487 -0.824103 -0.780718 -0.722332 -0.663946 -0.592803 -0.521659 -0.440492 -0.359325 -0.271254 -0.183182 -0.0915912 -4.3444e-16 0.0915912 0.183182 0.271254 0.359325 0.440492 0.521659 0.592803 0.663946 0.722332 0.780718 0.824103 0.867487 0.894204 0.92092 0.929941 0.938962 0.929941 0.92092 0.894204 0.867487 0.824103 0.780718 0.722332 0.663946 0.592803 0.521659 0.440492 0.359325 0.271254 0.183182 0.0915912 3.15675e-17 -0 -0.0943276 -0.188655 -0.279358 -0.370061 -0.453653 -0.537245 -0.610514 -0.683783 -0.743913 -0.804044 -0.848724 -0.893405 -0.92092 -0.948434 -0.957724 -0.967015 -0.957724 -0.948434 -0.92092 -0.893405 -0.848724 -0.804044 -0.743913 -0.683783 -0.610514 -0.537245 -0.453653 -0.370061 -0.279358 -0.188655 -0.0943276 -4.44984e-16 0.0943276 0.188655 0.279358 0.370061 0.453653 0.537245 0.610514 0.683783 0.743913 0.804044 0.848724 0.893405 0.92092 0.948434 0.957724 0.967015 0.957724 0.948434 0.92092 0.893405 0.848724 0.804044 0.743913 0.683783 0.610514 0.537245 0.453653 0.370061 0.279358 0.188655 0.0943276 3.25107e-17 -0 -0.0952516 -0.190503 -0.282094 -0.373686 -0.458096 -0.542507 -0.616494 -0.690481 -0.7512 -0.81192 -0.857038 -0.902157 -0.929941 -0.957724 -0.967106 -0.976487 -0.967106 -0.957724 -0.929941 -0.902157 -0.857038 -0.81192 -0.7512 -0.690481 -0.616494 -0.542507 -0.458096 -0.373686 -0.282094 -0.190503 -0.0952516 -4.91649e-16 0.0952516 0.190503 0.282094 0.373686 0.458096 0.542507 0.616494 0.690481 0.7512 0.81192 0.857038 0.902157 0.929941 0.957724 0.967106 0.976487 0.967106 0.957724 0.929941 0.902157 0.857038 0.81192 0.7512 0.690481 0.616494 0.542507 0.458096 0.373686 0.282094 0.190503 0.0952516 3.28291e-17 -0 -0.0961756 -0.192351 -0.284831 -0.377311 -0.46254 -0.54777 -0.622474 -0.697179 -0.758487 -0.819796 -0.865352 -0.910908 -0.938962 -0.967015 -0.976487 -0.98596 -0.976487 -0.967015 -0.938962 -0.910908 -0.865352 -0.819796 -0.758487 -0.697179 -0.622474 -0.54777 -0.46254 -0.377311 -0.284831 -0.192351 -0.0