<?xml version="1.0"?> 
<VTKFile type="StructuredGrid" version="0.1"> 
<StructuredGrid WholeExtent="0 64 0 64 0 0"> 
<Piece Extent="0 64 0 64 0 0"> 
<PointData>
<DataArray type="Float32" Name="u" format="ascii" NumberOfComponents="1"> 
0 0 0 0 0 0 0 0 0 0 0 0 0 0 0 0 0 0 0 0 0 0 0 0 0 0 0 0 0 0 0 0 0 0 0 0 0 0 0 0 0 0 0 0 0 0 0 0 0 0 0 0 0 0 0 0 0 0 0 0 0 0 0 0 0 0 -0.00895994 -0.0179199 -0.0265355 -0.0351511 -0.0430913 -0.0510315 -0.0579911 -0.0649508 -0.0706624 -0.076374 -0.0806182 -0.0848623 -0.0874758 -0.0900893 -0.0909718 -0.0918543 -0.0909718 -0.0900893 -0.0874758 -0.0848623 -0.0806182 -0.076374 -0.0706624 -0.0649508 -0.0579911 -0.0510315 -0.0430913 -0.0351511 -0.0265355 -0.0179199 -0.00895994 -1.9884e-16 0.00895994 0.0179199 0.0265355 0.0351511 0.0430913 0.0510315 0.0579911 0.0649508 0.0706624 0.076374 0.0806182 0.0848623 0.0874758 0.0900893 0.0909718 0.0918543 0.0909718 0.0900893 0.0874758 0.0848623 0.0806182 0.076374 0.0706624 0.0649508 0.0579911 0.0510315 0.0430913 0.0351511 0.0265355 0.0179199 0.00895994 -3.23339e-18 0 -0.0179199 -0.0358398 -0.053071 -0.0703022 -0.0861826 -0.102063 -0.115982 -0.129902 -0.141325 -0.152748 -0.161236 -0.169725 -0.174952 -0.180179 -0.181944 -0.183709 -0.181944 -0.180179 -0.174952 -0.169725 -0.161236 -0.152748 -0.141325 -0.129902 -0.115982 -0.102063 -0.0861826 -0.0703022 -0.053071 -0.0358398 -0.0179199 -3.97679e-16 0.0179199 0.0358398 0.053071 0.0703022 0.0861826 0.102063 0.115982 0.129902 0.141325 0.152748 0.161236 0.169725 0.174952 0.180179 0.181944 0.183709 0.181944 0.180179 0.174952 0.169725 0.161236 0.152748 0.141325 0.129902 0.115982 0.102063 0.0861826 0.0703022 0.053071 0.0358398 0.0179199 -6.46677e-18 0 -0.0265355 -0.053071 -0.0785867 -0.104102 -0.127618 -0.151133 -0.171745 -0.192356 -0.209272 -0.226187 -0.238756 -0.251326 -0.259066 -0.266806 -0.269419 -0.272033 -0.269419 -0.266806 -0.259066 -0.251326 -0.238756 -0.226187 -0.209272 -0.192356 -0.171745 -0.151133 -0.127618 -0.104102 -0.0785867 -0.053071 -0.0265355 -5.922e-16 0.0265355 0.053071 0.0785867 0.104102 0.127618 0.151133 0.171745 0.192356 0.209272 0.226187 0.238756 0.251326 0.259066 0.266806 0.269419 0.272033 0.269419 0.266806 0.259066 0.251326 0.238756 0.226187 0.209272 0.192356 0.171745 0.151133 0.127618 0.104102 0.0785867 0.053071 0.0265355 -9.5759e-18 0 -0.0351511 -0.0703022 -0.104102 -0.137903 -0.169053 -0.200204 -0.227507 -0.254811 -0.277219 -0.299626 -0.316276 -0.332927 -0.34318 -0.353433 -0.356895 -0.360357 -0.356895 -0.353433 -0.34318 -0.332927 -0.316276 -0.299626 -0.277219 -0.254811 -0.227507 -0.200204 -0.169053 -0.137903 -0.104102 -0.0703022 -0.0351511 -7.86722e-16 0.0351511 0.0703022 0.104102 0.137903 0.169053 0.200204 0.227507 0.254811 0.277219 0.299626 0.316276 0.332927 0.34318 0.353433 0.356895 0.360357 0.356895 0.353433 0.34318 0.332927 0.316276 0.299626 0.277219 0.254811 0.227507 0.200204 0.169053 0.137903 0.104102 0.0703022 0.0351511 -1.2685e-17 0 -0.0430913 -0.0861826 -0.127618 -0.169053 -0.20724 -0.245427 -0.278899 -0.31237 -0.339839 -0.367308 -0.387719 -0.408131 -0.4207 -0.433269 -0.437513 -0.441758 -0.437513 -0.433269 -0.4207 -0.408131 -0.387719 -0.367308 -0.339839 -0.31237 -0.278899 -0.245427 -0.20724 -0.169053 -0.127618 -0.0861826 -0.0430913 -9.80504e-16 0.0430913 0.0861826 0.127618 0.169053 0.20724 0.245427 0.278899 0.31237 0.339839 0.367308 0.387719 0.408131 0.4207 0.433269 0.437513 0.441758 0.437513 0.433269 0.4207 0.408131 0.387719 0.367308 0.339839 0.31237 0.278899 0.245427 0.20724 0.169053 0.127618 0.0861826 0.0430913 -1.55504e-17 0 -0.0510315 -0.102063 -0.151133 -0.200204 -0.245427 -0.290651 -0.33029 -0.369928 -0.402459 -0.43499 -0.459162 -0.483335 -0.49822 -0.513105 -0.518132 -0.523158 -0.518132 -0.513105 -0.49822 -0.483335 -0.459162 -0.43499 -0.402459 -0.369928 -0.33029 -0.290651 -0.245427 -0.200204 -0.151133 -0.102063 -0.0510315 -1.17429e-15 0.0510315 0.102063 0.151133 0.200204 0.245427 0.290651 0.33029 0.369928 0.402459 0.43499 0.459162 0.483335 0.49822 0.513105 0.518132 0.523158 0.518132 0.513105 0.49822 0.483335 0.459162 0.43499 0.402459 0.369928 0.33029 0.290651 0.245427 0.200204 0.151133 0.102063 0.0510315 -1.84158e-17 0 -0.0579911 -0.115982 -0.171745 -0.227507 -0.278899 -0.33029 -0.375334 -0.420379 -0.457346 -0.494313 -0.521782 -0.549252 -0.566167 -0.583082 -0.588794 -0.594506 -0.588794 -0.583082 -0.566167 -0.549252 -0.521782 -0.494313 -0.457346 -0.420379 -0.375334 -0.33029 -0.278899 -0.227507 -0.171745 -0.115982 -0.0579911 -1.37784e-15 0.0579911 0.115982 0.171745 0.227507 0.278899 0.33029 0.375334 0.420379 0.457346 0.494313 0.521782 0.549252 0.566167 0.583082 0.588794 0.594506 0.588794 0.583082 0.566167 0.549252 0.521782 0.494313 0.457346 0.420379 0.375334 0.33029 0.278899 0.227507 0.171745 0.115982 0.0579911 -2.09273e-17 0 -0.0649508 -0.129902 -0.192356 -0.254811 -0.31237 -0.369928 -0.420379 -0.47083 -0.512233 -0.553637 -0.584403 -0.615168 -0.634114 -0.653059 -0.659456 -0.665853 -0.659456 -0.653059 -0.634114 -0.615168 -0.584403 -0.553637 -0.512233 -0.47083 -0.420379 -0.369928 -0.31237 -0.254811 -0.192356 -0.129902 -0.0649508 -1.58139e-15 0.0649508 0.129902 0.192356 0.254811 0.31237 0.369928 0.420379 0.47083 0.512233 0.553637 0.584403 0.615168 0.634114 0.653059 0.659456 0.665853 0.659456 0.653059 0.634114 0.615168 0.584403 0.553637 0.512233 0.47083 0.420379 0.369928 0.31237 0.254811 0.192356 0.129902 0.0649508 -2.34389e-17 0 -0.0706624 -0.141325 -0.209272 -0.277219 -0.339839 -0.402459 -0.457346 -0.512233 -0.557278 -0.602323 -0.635794 -0.669265 -0.689876 -0.710488 -0.717448 -0.724407 -0.717448 -0.710488 -0.689876 -0.669265 -0.635794 -0.602323 -0.557278 -0.512233 -0.457346 -0.402459 -0.339839 -0.277219 -0.209272 -0.141325 -0.0706624 -1.68663e-15 0.0706624 0.141325 0.209272 0.277219 0.339839 0.402459 0.457346 0.512233 0.557278 0.602323 0.635794 0.669265 0.689876 0.710488 0.717448 0.724407 0.717448 0.710488 0.689876 0.669265 0.635794 0.602323 0.557278 0.512233 0.457346 0.402459 0.339839 0.277219 0.209272 0.141325 0.0706624 -2.55e-17 0 -0.076374 -0.152748 -0.226187 -0.299626 -0.367308 -0.43499 -0.494313 -0.553637 -0.602323 -0.651008 -0.687185 -0.723362 -0.745639 -0.767916 -0.775439 -0.782961 -0.775439 -0.767916 -0.745639 -0.723362 -0.687185 -0.651008 -0.602323 -0.553637 -0.494313 -0.43499 -0.367308 -0.299626 -0.226187 -0.152748 -0.076374 -1.79187e-15 0.076374 0.152748 0.226187 0.299626 0.367308 0.43499 0.494313 0.553637 0.602323 0.651008 0.687185 0.723362 0.745639 0.767916 0.775439 0.782961 0.775439 0.767916 0.745639 0.723362 0.687185 0.651008 0.602323 0.553637 0.494313 0.43499 0.367308 0.299626 0.226187 0.152748 0.076374 -2.75612e-17 0 -0.0806182 -0.161236 -0.238756 -0.316276 -0.387719 -0.459162 -0.521782 -0.584403 -0.635794 -0.687185 -0.725372 -0.763559 -0.787074 -0.81059 -0.81853 -0.82647 -0.81853 -0.81059 -0.787074 -0.763559 -0.725372 -0.687185 -0.635794 -0.584403 -0.521782 -0.459162 -0.387719 -0.316276 -0.238756 -0.161236 -0.0806182 -1.90109e-15 0.0806182 0.161236 0.238756 0.316276 0.387719 0.459162 0.521782 0.584403 0.635794 0.687185 0.725372 0.763559 0.787074 0.81059 0.81853 0.82647 0.81853 0.81059 0.787074 0.763559 0.725372 0.687185 0.635794 0.584403 0.521782 0.459162 0.387719 0.316276 0.238756 0.161236 0.0806182 -2.90928e-17 0 -0.0848623 -0.169725 -0.251326 -0.332927 -0.408131 -0.483335 -0.549252 -0.615168 -0.669265 -0.723362 -0.763559 -0.803756 -0.82851 -0.853263 -0.861621 -0.86998 -0.861621 -0.853263 -0.82851 -0.803756 -0.763559 -0.723362 -0.669265 -0.615168 -0.549252 -0.483335 -0.408131 -0.332927 -0.251326 -0.169725 -0.0848623 -2.01031e-15 0.0848623 0.169725 0.251326 0.332927 0.408131 0.483335 0.549252 0.615168 0.669265 0.723362 0.763559 0.803756 0.82851 0.853263 0.861621 0.86998 0.861621 0.853263 0.82851 0.803756 0.763559 0.723362 0.669265 0.615168 0.549252 0.483335 0.408131 0.332927 0.251326 0.169725 0.0848623 -3.06244e-17 0 -0.0874758 -0.174952 -0.259066 -0.34318 -0.4207 -0.49822 -0.566167 -0.634114 -0.689876 -0.745639 -0.787074 -0.82851 -0.854025 -0.879541 -0.888157 -0.896772 -0.888157 -0.879541 -0.854025 -0.82851 -0.787074 -0.745639 -0.689876 -0.634114 -0.566167 -0.49822 -0.4207 -0.34318 -0.259066 -0.174952 -0.0874758 -1.94931e-15 0.0874758 0.174952 0.259066 0.34318 0.4207 0.49822 0.566167 0.634114 0.689876 0.745639 0.787074 0.82851 0.854025 0.879541 0.888157 0.896772 0.888157 0.879541 0.854025 0.82851 0.787074 0.745639 0.689876 0.634114 0.566167 0.49822 0.4207 0.34318 0.259066 0.174952 0.0874758 -3.15675e-17 0 -0.0900893 -0.180179 -0.266806 -0.353433 -0.433269 -0.513105 -0.583082 -0.653059 -0.710488 -0.767916 -0.81059 -0.853263 -0.879541 -0.905819 -0.914692 -0.923565 -0.914692 -0.905819 -0.879541 -0.853263 -0.81059 -0.767916 -0.710488 -0.653059 -0.583082 -0.513105 -0.433269 -0.353433 -0.266806 -0.180179 -0.0900893 -1.8883e-15 0.0900893 0.180179 0.266806 0.353433 0.433269 0.513105 0.583082 0.653059 0.710488 0.767916 0.81059 0.853263 0.879541 0.905819 0.914692 0.923565 0.914692 0.905819 0.879541 0.853263 0.81059 0.767916 0.710488 0.653059 0.583082 0.513105 0.433269 0.353433 0.266806 0.180179 0.0900893 -3.25107e-17 0 -0.0909718 -0.181944 -0.269419 -0.356895 -0.437513 -0.518132 -0.588794 -0.659456 -0.717448 -0.775439 -0.81853 -0.861621 -0.888157 -0.914692 -0.923652 -0.932612 -0.923652 -0.914692 -0.888157 -0.861621 -0.81853 -0.775439 -0.717448 -0.659456 -0.588794 -0.518132 -0.437513 -0.356895 -0.269419 -0.181944 -0.0909718 -1.81224e-15 0.0909718 0.181944 0.269419 0.356895 0.437513 0.518132 0.588794 0.659456 0.717448 0.775439 0.81853 0.861621 0.888157 0.914692 0.923652 0.932612 0.923652 0.914692 0.888157 0.861621 0.81853 0.775439 0.717448 0.659456 0.588794 0.518132 0.437513 0.356895 0.269419 0.181944 0.0909718 -3.28291e-17 0 -0.0918543 -0.183709 -0.272033 -0.360357 -0.441758 -0.523158 -0.594506 -0.665853 -0.724407 -0.782961 -0.82647 -0.86998 -0.896772 -0.923565 -0.932612 -0.941659 -0.932612 -0.923565 -0.896772 -0.86998 -0.82647 -0.782961 -0.724407 -0.665853 -0.594506 -0.523158 -0.441758 -0.360357 -0.272033 -0.183709 -0.0918543 -1.73617e-15 0.0918543 0.183709 0.272033 0.360357 0.441758 0.523158 0.594506 0.665853 0.724407 0.782961 0.82647 0.86998 0.896772 0.923565 0.932612 0.941659 0.932612 0.923565 0.896772 0.86998 0.82647 0.782961 0.724407 0.665853 0.594506 0.523158 0.441758 0.360357 0.272033 0.183709 0.0918543 -3.31476e-17 0 -0.0909718 -0.181944 -0.269419 -0.356895 -0.437513 -0.518132 -0.588794 -0.659456 -0.717448 -0.775439 -0.81853 -0.861621 -0.888157 -0.914692 -0.923652 -0.932612 -0.923652 -0.914692 -0.888157 -0.861621 -0.81853 -0.775439 -0.717448 -0.659456 -0.588794 -0.518132 -0.437513 -0.356895 -0.269419 -0.181944 -0.0909718 -1.53752e-15 0.0909718 0.181944 0.269419 0.356895 0.437513 0.518132 0.588794 0.659456 0.717448 0.775439 0.81853 0.861621 0.888157 0.914692 0.923652 0.932612 0.923652 0.914692 0.888157 0.861621 0.81853 0.775439 0.717448 0.659456 0.588794 0.518132 0.437513 0.356895 0.269419 0.181944 0.0909718 -3.28291e-17 0 -0.0900893 -0.180179 -0.266806 -0.353433 -0.433269 -0.513105 -0.583082 -0.653059 -0.710488 -0.767916 -0.81059 -0.853263 -0.879541 -0.905819 -0.914692 -0.923565 -0.914692 -0.905819 -0.879541 -0.853263 -0.81059 -0.767916 -0.710488 -0.653059 -0.583082 -0.513105 -0.433269 -0.353433 -0.266806 -0.180179 -0.0900893 -1.33886e-15 0.0900893 0.180179 0.266806 0.353433 0.433269 0.513105 0.583082 0.653059 0.710488 0.767916 0.81059 0.853263 0.879541 0.905819 0.914692 0.923565 0.914692 0.905819 0.879541 0.853263 0.81059 0.767916 0.710488 0.653059 0.583082 0.513105 0.433269 0.353433 0.266806 0.180179 0.0900893 -3.25107e-17 0 -0.0874758 -0.174952 -0.259066 -0.34318 -0.4207 -0.49822 -0.566167 -0.634114 -0.689876 -0.745639 -0.787074 -0.82851 -0.854025 -0.879541 -0.888157 -0.896772 -0.888157 -0.879541 -0.854025 -0.82851 -0.787074 -0.745639 -0.689876 -0.634114 -0.566167 -0.49822 -0.4207 -0.34318 -0.259066 -0.174952 -0.0874758 -1.18202e-15 0.0874758 0.174952 0.259066 0.34318 0.4207 0.49822 0.566167 0.634114 0.689876 0.745639 0.787074 0.82851 0.854025 0.879541 0.888157 0.896772 0.888157 0.879541 0.854025 0.82851 0.787074 0.745639 0.689876 0.634114 0.566167 0.49822 0.4207 0.34318 0.259066 0.174952 0.0874758 -3.15675e-17 0 -0.0848623 -0.169725 -0.251326 -0.332927 -0.408131 -0.483335 -0.549252 -0.615168 -0.669265 -0.723362 -0.763559 -0.803756 -0.82851 -0.853263 -0.861621 -0.86998 -0.861621 -0.853263 -0.82851 -0.803756 -0.763559 -0.723362 -0.669265 -0.615168 -0.549252 -0.483335 -0.408131 -0.332927 -0.251326 -0.169725 -0.0848623 -1.02519e-15 0.0848623 0.169725 0.251326 0.332927 0.408131 0.483335 0.549252 0.615168 0.669265 0.723362 0.763559 0.803756 0.82851 0.853263 0.861621 0.86998 0.861621 0.853263 0.82851 0.803756 0.763559 0.723362 0.669265 0.615168 0.549252 0.483335 0.408131 0.332927 0.251326 0.169725 0.0848623 -3.06244e-17 0 -0.0806182 -0.161236 -0.238756 -0.316276 -0.387719 -0.459162 -0.521782 -0.584403 -0.635794 -0.687185 -0.725372 -0.763559 -0.787074 -0.81059 -0.81853 -0.82647 -0.81853 -0.81059 -0.787074 -0.763559 -0.725372 -0.687185 -0.635794 -0.584403 -0.521782 -0.459162 -0.387719 -0.316276 -0.238756 -0.161236 -0.0806182 -9.20058e-16 0.0806182 0.161236 0.238756 0.316276 0.387719 0.459162 0.521782 0.584403 0.635794 0.687185 0.725372 0.763559 0.787074 0.81059 0.81853 0.82647 0.81853 0.81059 0.787074 0.763559 0.725372 0.687185 0.635794 0.584403 0.521782 0.459162 0.387719 0.316276 0.238756 0.161236 0.0806182 -2.90928e-17 0 -0.076374 -0.152748 -0.226187 -0.299626 -0.367308 -0.43499 -0.494313 -0.553637 -0.602323 -0.651008 -0.687185 -0.723362 -0.745639 -0.767916 -0.775439 -0.782961 -0.775439 -0.767916 -0.745639 -0.723362 -0.687185 -0.651008 -0.602323 -0.553637 -0.494313 -0.43499 -0.367308 -0.299626 -0.226187 -0.152748 -0.076374 -8.1493e-16 0.076374 0.152748 0.226187 0.299626 0.367308 0.43499 0.494313 0.553637 0.602323 0.651008 0.687185 0.723362 0.745639 0.767916 0.775439 0.782961 0.775439 0.767916 0.745639 0.723362 0.687185 0.651008 0.602323 0.553637 0.494313 0.43499 0.367308 0.299626 0.226187 0.152748 0.076374 -2.75612e-17 0 -0.0706624 -0.141325 -0.209272 -0.277219 -0.339839 -0.402459 -0.457346 -0.512233 -0.557278 -0.602323 -0.635794 -0.669265 -0.689876 -0.710488 -0.717448 -0.724407 -0.717448 -0.710488 -0.689876 -0.669265 -0.635794 -0.602323 -0.557278 -0.512233 -0.457346 -0.402459 -0.339839 -0.277219 -0.209272 -0.141325 -0.0706624 -6.92724e-16 0.0706624 0.141325 0.209272 0.277219 0.339839 0.402459 0.457346 0.512233 0.557278 0.602323 0.635794 0.669265 0.689876 0.710488 0.717448 0.724407 0.717448 0.710488 0.689876 0.669265 0.635794 0.602323 0.557278 0.512233 0.457346 0.402459 0.339839 0.277219 0.209272 0.141325 0.0706624 -2.55e-17 0 -0.0649508 -0.129902 -0.192356 -0.254811 -0.31237 -0.369928 -0.420379 -0.47083 -0.512233 -0.553637 -0.584403 -0.615168 -0.634114 -0.653059 -0.659456 -0.665853 -0.659456 -0.653059 -0.634114 -0.615168 -0.584403 -0.553637 -0.512233 -0.47083 -0.420379 -0.369928 -0.31237 -0.254811 -0.192356 -0.129902 -0.0649508 -5.70518e-16 0.0649508 0.129902 0.192356 0.254811 0.31237 0.369928 0.420379 0.47083 0.512233 0.553637 0.584403 0.615168 0.634114 0.653059 0.659456 0.665853 0.659456 0.653059 0.634114 0.615168 0.584403 0.553637 0.512233 0.47083 0.420379 0.369928 0.31237 0.254811 0.192356 0.129902 0.0649508 -2.34389e-17 0 -0.0579911 -0.115982 -0.171745 -0.227507 -0.278899 -0.33029 -0.375334 -0.420379 -0.457346 -0.494313 -0.521782 -0.549252 -0.566167 -0.583082 -0.588794 -0.594506 -0.588794 -0.583082 -0.566167 -0.549252 -0.521782 -0.494313 -0.457346 -0.420379 -0.375334 -0.33029 -0.278899 -0.227507 -0.171745 -0.115982 -0.0579911 -5.09085e-16 0.0579911 0.115982 0.171745 0.227507 0.278899 0.33029 0.375334 0.420379 0.457346 0.494313 0.521782 0.549252 0.566167 0.583082 0.588794 0.594506 0.588794 0.583082 0.566167 0.549252 0.521782 0.494313 0.457346 0.420379 0.375334 0.33029 0.278899 0.227507 0.171745 0.115982 0.0579911 -2.09273e-17 0 -0.0510315 -0.102063 -0.151133 -0.200204 -0.245427 -0.290651 -0.33029 -0.369928 -0.402459 -0.43499 -0.459162 -0.483335 -0.49822 -0.513105 -0.518132 -0.523158 -0.518132 -0.513105 -0.49822 -0.483335 -0.459162 -0.43499 -0.402459 -0.369928 -0.33029 -0.290651 -0.245427 -0.200204 -0.151133 -0.102063 -0.0510315 -4.47652e-16 0.0510315 0.102063 0.151133 0.200204 0.245427 0.290651 0.33029 0.369928 0.402459 0.43499 0.459162 0.483335 0.49822 0.513105 0.518132 0.523158 0.518132 0.513105 0.49822 0.483335 0.459162 0.43499 0.402459 0.369928 0.33029 0.290651 0.245427 0.200204 0.151133 0.102063 0.0510315 -1.84158e-17 0 -0.0430913 -0.0861826 -0.127618 -0.169053 -0.20724 -0.245427 -0.278899 -0.31237 -0.339839 -0.367308 -0.387719 -0.408131 -0.4207 -0.433269 -0.437513 -0.441758 -0.437513 -0.433269 -0.4207 -0.408131 -0.387719 -0.367308 -0.339839 -0.31237 -0.278899 -0.245427 -0.20724 -0.169053 -0.127618 -0.0861826 -0.0430913 -3.00546e-16 0.0430913 0.0861826 0.127618 0.169053 0.20724 0.245427 0.278899 0.31237 0.339839 0.367308 0.387719 0.408131 0.4207 0.433269 0.437513 0.441758 0.437513 0.433269 0.4207 0.408131 0.387719 0.367308 0.339839 0.31237 0.278899 0.245427 0.20724 0.169053 0.127618 0.0861826 0.0430913 -1.55504e-17 0 -0.0351511 -0.0703022 -0.104102 -0.137903 -0.169053 -0.200204 -0.227507 -0.254811 -0.277219 -0.299626 -0.316276 -0.332927 -0.34318 -0.353433 -0.356895 -0.360357 -0.356895 -0.353433 -0.34318 -0.332927 -0.316276 -0.299626 -0.277219 -0.254811 -0.227507 -0.200204 -0.169053 -0.137903 -0.104102 -0.0703022 -0.0351511 -1.5344e-16 0.0351511 0.0703022 0.104102 0.137903 0.169053 0.200204 0.227507 0.254811 0.277219 0.299626 0.316276 0.332927 0.34318 0.353433 0.356895 0.360357 0.356895 0.353433 0.34318 0.332927 0.316276 0.299626 0.277219 0.254811 0.227507 0.200204 0.169053 0.137903 0.104102 0.0703022 0.0351511 -1.2685e-17 0 -0.0265355 -0.053071 -0.0785867 -0.104102 -0.127618 -0.151133 -0.171745 -0.192356 -0.209272 -0.226187 -0.238756 -0.251326 -0.259066 -0.266806 -0.269419 -0.272033 -0.269419 -0.266806 -0.259066 -0.251326 -0.238756 -0.226187 -0.209272 -0.192356 -0.171745 -0.151133 -0.127618 -0.104102 -0.0785867 -0.053071 -0.0265355 -1.43699e-17 0.0265355 0.053071 0.0785867 0.104102 0.127618 0.151133 0.171745 0.192356 0.209272 0.226187 0.238756 0.251326 0.259066 0.266806 0.269419 0.272033 0.269419 0.266806 0.259066 0.251326 0.238756 0.226187 0.209272 0.192356 0.171745 0.151133 0.127618 0.104102 0.0785867 0.053071 0.0265355 -9.5759e-18 0 -0.0179199 -0.0358398 -0.053071 -0.0703022 -0.0861826 -0.102063 -0.115982 -0.129902 -0.141325 -0.152748 -0.161236 -0.169725 -0.174952 -0.180179 -0.181944 -0.183709 -0.181944 -0.180179 -0.174952 -0.169725 -0.161236 -0.152748 -0.141325 -0.129902 -0.115982 -0.102063 -0.0861826 -0.0703022 -0.053071 -0.0358398 -0.0179199 1.24701e-16 0.0179199 0.0358398 0.053071 0.0703022 0.0861826 0.102063 0.115982 0.129902 0.141325 0.152748 0.161236 0.169725 0.174952 0.180179 0.181944 0.183709 0.181944 0.180179 0.174952 0.169725 0.161236 0.152748 0.141325 0.129902 0.115982 0.102063 0.0861826 0.0703022 0.053071 0.0358398 0.0179199 -6.46677e-18 0 -0.00895994 -0.0179199 -0.0265355 -0.0351511 -0.0430913 -0.0510315 -0.0579911 -0.0649508 -0.0706624 -0.076374 -0.0806182 -0.0848623 -0.0874758 -0.0900893 -0.0909718 -0.0918543 -0.0909718 -0.0900893 -0.0874758 -0.0848623 -0.0806182 -0.076374 -0.0706624 -0.0649508 -0.0579911 -0.0510315 -0.0430913 -0.0351511 -0.0265355 -0.0179199 -0.00895994 2.56363e-16 0.00895994 0.0179199 0.0265355 0.0351511 0.0430913 0.0510315 0.0579911 0.0649508 0.0706624 0.076374 0.0806182 0.0848623 0.0874758 0.0900893 0.0909718 0.0918543 0.0909718 0.0900893 0.0874758 0.0848623 0.0806182 0.076374 0.0706624 0.0649508 0.0579911 0.0510315 0.0430913 0.0351511 0.0265355 0.0179199 0.00895994 -3.23339e-18 0 3.30142e-16 6.60284e-16 9.74405e-16 1.28852e-15 1.55951e-15 1.83049e-15 2.13938e-15 2.44828e-15 2.62831e-15 2.80834e-15 2.88033e-15 2.95233e-15 2.93397e-15 2.91561e-15 2.72127e-15 2.52692e-15 2.20653e-15 1.88614e-15 1.76355e-15 1.64095e-15 1.31331e-15 9.85673e-16 6.8755e-16 3.89428e-16 2.95961e-16 2.02494e-16 1.9923e-16 1.95966e-16 2.76969e-16 3.57972e-16 3.72998e-16 3.88025e-16 3.94642e-16 4.01259e-16 3.86651e-16 3.72044e-16 4.28419e-16 4.84794e-16 5.54028e-16 6.23263e-16 5.64648e-16 5.06032e-16 3.81857e-16 2.57682e-16 4.31887e-16 6.06093e-16 5.96351e-16 5.86609e-16 5.91396e-16 5.96183e-16 4.55681e-16 3.15179e-16 4.69087e-16 6.22995e-16 5.58031e-16 4.93066e-16 4.65571e-16 4.38076e-16 3.29207e-16 2.20337e-16 1.3305e-16 4.57633e-17 2.28817e-17 -4.05941e-33 0 0.00895994 0.0179199 0.0265355 0.0351511 0.0430913 0.0510315 0.0579911 0.0649508 0.0706624 0.076374 0.0806182 0.0848623 0.0874758 0.0900893 0.0909718 0.0918543 0.0909718 0.0900893 0.0874758 0.0848623 0.0806182 0.076374 0.0706624 0.0649508 0.0579911 0.0510315 0.0430913 0.0351511 0.0265355 0.0179199 0.00895994 5.18984e-16 -0.00895994 -0.0179199 -0.0265355 -0.0351511 -0.0430913 -0.0510315 -0.0579911 -0.0649508 -0.0706624 -0.076374 -0.0806182 -0.0848623 -0.0874758 -0.0900893 -0.0909718 -0.0918543 -0.0909718 -0.0900893 -0.0874758 -0.0848623 -0.0806182 -0.076374 -0.0706624 -0.0649508 -0.0579911 -0.0510315 -0.0430913 -0.0351511 -0.0265355 -0.0179199 -0.00895994 3.23339e-18 0 0.0179199 0.0358398 0.053071 0.0703022 0.0861826 0.102063 0.115982 0.129902 0.141325 0.152748 0.161236 0.169725 0.174952 0.180179 0.181944 0.183709 0.181944 0.180179 0.174952 0.169725 0.161236 0.152748 0.141325 0.129902 0.115982 0.102063 0.0861826 0.0703022 0.053071 0.0358398 0.0179199 6.49943e-16 -0.0179199 -0.0358398 -0.053071 -0.0703022 -0.0861826 -0.102063 -0.115982 -0.129902 -0.141325 -0.152748 -0.161236 -0.169725 -0.174952 -0.180179 -0.181944 -0.183709 -0.181944 -0.180179 -0.174952 -0.169725 -0.161236 -0.152748 -0.141325 -0.129902 -0.115982 -0.102063 -0.0861826 -0.0703022 -0.053071 -0.0358398 -0.0179199 6.46677e-18 0 0.0265355 0.053071 0.0785867 0.104102 0.127618 0.151133 0.171745 0.192356 0.209272 0.226187 0.238756 0.251326 0.259066 0.266806 0.269419 0.272033 0.269419 0.266806 0.259066 0.251326 0.238756 0.226187 0.209272 0.192356 0.171745 0.151133 0.127618 0.104102 0.0785867 0.053071 0.0265355 7.4234e-16 -0.0265355 -0.053071 -0.0785867 -0.104102 -0.127618 -0.151133 -0.171745 -0.192356 -0.209272 -0.226187 -0.238756 -0.251326 -0.259066 -0.266806 -0.269419 -0.272033 -0.269419 -0.266806 -0.259066 -0.251326 -0.238756 -0.226187 -0.209272 -0.192356 -0.171745 -0.151133 -0.127618 -0.104102 -0.0785867 -0.053071 -0.0265355 9.5759e-18 0 0.0351511 0.0703022 0.104102 0.137903 0.169053 0.200204 0.227507 0.254811 0.277219 0.299626 0.316276 0.332927 0.34318 0.353433 0.356895 0.360357 0.356895 0.353433 0.34318 0.332927 0.316276 0.299626 0.277219 0.254811 0.227507 0.200204 0.169053 0.137903 0.104102 0.0703022 0.0351511 8.34737e-16 -0.0351511 -0.0703022 -0.104102 -0.137903 -0.169053 -0.200204 -0.227507 -0.254811 -0.277219 -0.299626 -0.316276 -0.332927 -0.34318 -0.353433 -0.356895 -0.360357 -0.356895 -0.353433 -0.34318 -0.332927 -0.316276 -0.299626 -0.277219 -0.254811 -0.227507 -0.200204 -0.169053 -0.137903 -0.104102 -0.0703022 -0.0351511 1.2685e-17 0 0.0430913 0.0861826 0.127618 0.169053 0.20724 0.245427 0.278899 0.31237 0.339839 0.367308 0.387719 0.408131 0.4207 0.433269 0.437513 0.441758 0.437513 0.433269 0.4207 0.408131 0.387719 0.367308 0.339839 0.31237 0.278899 0.245427 0.20724 0.169053 0.127618 0.0861826 0.0430913 9.36719e-16 -0.0430913 -0.0861826 -0.127618 -0.169053 -0.20724 -0.245427 -0.278899 -0.31237 -0.339839 -0.367308 -0.387719 -0.408131 -0.4207 -0.433269 -0.437513 -0.441758 -0.437513 -0.433269 -0.4207 -0.408131 -0.387719 -0.367308 -0.339839 -0.31237 -0.278899 -0.245427 -0.20724 -0.169053 -0.127618 -0.0861826 -0.0430913 1.55504e-17 0 0.0510315 0.102063 0.151133 0.200204 0.245427 0.290651 0.33029 0.369928 0.402459 0.43499 0.459162 0.483335 0.49822 0.513105 0.518132 0.523158 0.518132 0.513105 0.49822 0.483335 0.459162 0.43499 0.402459 0.369928 0.33029 0.290651 0.245427 0.200204 0.151133 0.102063 0.0510315 1.0387e-15 -0.0510315 -0.102063 -0.151133 -0.200204 -0.245427 -0.290651 -0.33029 -0.369928 -0.402459 -0.43499 -0.459162 -0.483335 -0.49822 -0.513105 -0.518132 -0.523158 -0.518132 -0.513105 -0.49822 -0.483335 -0.459162 -0.43499 -0.402459 -0.369928 -0.33029 -0.290651 -0.245427 -0.200204 -0.151133 -0.102063 -0.0510315 1.84158e-17 0 0.0579911 0.115982 0.171745 0.227507 0.278899 0.33029 0.375334 0.420379 0.457346 0.494313 0.521782 0.549252 0.566167 0.583082 0.588794 0.594506 0.588794 0.583082 0.566167 0.549252 0.521782 0.494313 0.457346 0.420379 0.375334 0.33029 0.278899 0.227507 0.171745 0.115982 0.0579911 1.08542e-15 -0.0579911 -0.115982 -0.171745 -0.227507 -0.278899 -0.33029 -0.375334 -0.420379 -0.457346 -0.494313 -0.521782 -0.549252 -0.566167 -0.583082 -0.588794 -0.594506 -0.588794 -0.583082 -0.566167 -0.549252 -0.521782 -0.494313 -0.457346 -0.420379 -0.375334 -0.33029 -0.278899 -0.227507 -0.171745 -0.115982 -0.0579911 2.09273e-17 0 0.0649508 0.129902 0.192356 0.254811 0.31237 0.369928 0.420379 0.47083 0.512233 0.553637 0.584403 0.615168 0.634114 0.653059 0.659456 0.665853 0.659456 0.653059 0.634114 0.615168 0.584403 0.553637 0.512233 0.47083 0.420379 0.369928 0.31237 0.254811 0.192356 0.129902 0.0649508 1.13213e-15 -0.0649508 -0.129902 -0.192356 -0.254811 -0.31237 -0.369928 -0.420379 -0.47083 -0.512233 -0.553637 -0.584403 -0.615168 -0.634114 -0.653059 -0.659456 -0.665853 -0.659456 -0.653059 -0.634114 -0.615168 -0.584403 -0.553637 -0.512233 -0.47083 -0.420379 -0.369928 -0.31237 -0.254811 -0.192356 -0.129902 -0.0649508 2.34389e-17 0 0.0706624 0.141325 0.209272 0.277219 0.339839 0.402459 0.457346 0.512233 0.557278 0.602323 0.635794 0.669265 0.689876 0.710488 0.717448 0.724407 0.717448 0.710488 0.689876 0.669265 0.635794 0.602323 0.557278 0.512233 0.457346 0.402459 0.339839 0.277219 0.209272 0.141325 0.0706624 1.10708e-15 -0.0706624 -0.141325 -0.209272 -0.277219 -0.339839 -0.402459 -0.457346 -0.512233 -0.557278 -0.602323 -0.635794 -0.669265 -0.689876 -0.710488 -0.717448 -0.724407 -0.717448 -0.710488 -0.689876 -0.669265 -0.635794 -0.602323 -0.557278 -0.512233 -0.457346 -0.402459 -0.339839 -0.277219 -0.209272 -0.141325 -0.0706624 2.55e-17 0 0.076374 0.152748 0.226187 0.299626 0.367308 0.43499 0.494313 0.553637 0.602323 0.651008 0.687185 0.723362 0.745639 0.767916 0.775439 0.782961 0.775439 0.767916 0.745639 0.723362 0.687185 0.651008 0.602323 0.553637 0.494313 0.43499 0.367308 0.299626 0.226187 0.152748 0.076374 1.08202e-15 -0.076374 -0.152748 -0.226187 -0.299626 -0.367308 -0.43499 -0.494313 -0.553637 -0.602323 -0.651008 -0.687185 -0.723362 -0.745639 -0.767916 -0.775439 -0.782961 -0.775439 -0.767916 -0.745639 -0.723362 -0.687185 -0.651008 -0.602323 -0.553637 -0.494313 -0.43499 -0.367308 -0.299626 -0.226187 -0.152748 -0.076374 2.75612e-17 0 0.0806182 0.161236 0.238756 0.316276 0.387719 0.459162 0.521782 0.584403 0.635794 0.687185 0.725372 0.763559 0.787074 0.81059 0.81853 0.82647 0.81853 0.81059 0.787074 0.763559 0.725372 0.687185 0.635794 0.584403 0.521782 0.459162 0.387719 0.316276 0.238756 0.161236 0.0806182 9.4324e-16 -0.0806182 -0.161236 -0.238756 -0.316276 -0.387719 -0.459162 -0.521782 -0.584403 -0.635794 -0.687185 -0.725372 -0.763559 -0.787074 -0.81059 -0.81853 -0.82647 -0.81853 -0.81059 -0.787074 -0.763559 -0.725372 -0.687185 -0.635794 -0.584403 -0.521782 -0.459162 -0.387719 -0.316276 -0.238756 -0.161236 -0.0806182 2.90928e-17 0 0.0848623 0.169725 0.251326 0.332927 0.408131 0.483335 0.549252 0.615168 0.669265 0.723362 0.763559 0.803756 0.82851 0.853263 0.861621 0.86998 0.861621 0.853263 0.82851 0.803756 0.763559 0.723362 0.669265 0.615168 0.549252 0.483335 0.408131 0.332927 0.251326 0.169725 0.0848623 8.04459e-16 -0.0848623 -0.169725 -0.251326 -0.332927 -0.408131 -0.483335 -0.549252 -0.615168 -0.669265 -0.723362 -0.763559 -0.803756 -0.82851 -0.853263 -0.861621 -0.86998 -0.861621 -0.853263 -0.82851 -0.803756 -0.763559 -0.723362 -0.669265 -0.615168 -0.549252 -0.483335 -0.408131 -0.332927 -0.251326 -0.169725 -0.0848623 3.06244e-17 0 0.0874758 0.174952 0.259066 0.34318 0.4207 0.49822 0.566167 0.634114 0.689876 0.745639 0.787074 0.82851 0.854025 0.879541 0.888157 0.896772 0.888157 0.879541 0.854025 0.82851 0.787074 0.745639 0.689876 0.634114 0.566167 0.49822 0.4207 0.34318 0.259066 0.174952 0.0874758 6.95502e-16 -0.0874758 -0.174952 -0.259066 -0.34318 -0.4207 -0.49822 -0.566167 -0.634114 -0.689876 -0.745639 -0.787074 -0.82851 -0.854025 -0.879541 -0.888157 -0.896772 -0.888157 -0.879541 -0.854025 -0.82851 -0.787074 -0.745639 -0.689876 -0.634114 -0.566167 -0.49822 -0.4207 -0.34318 -0.259066 -0.174952 -0.0874758 3.15675e-17 0 0.0900893 0.180179 0.266806 0.353433 0.433269 0.513105 0.583082 0.653059 0.710488 0.767916 0.81059 0.853263 0.879541 0.905819 0.914692 0.923565 0.914692 0.905819 0.879541 0.853263 0.81059 0.767916 0.710488 0.653059 0.583082 0.513105 0.433269 0.353433 0.266806 0.180179 0.0900893 5.86545e-16 -0.0900893 -0.180179 -0.266806 -0.353433 -0.433269 -0.513105 -0.583082 -0.653059 -0.710488 -0.767916 -0.81059 -0.853263 -0.879541 -0.905819 -0.914692 -0.923565 -0.914692 -0.905819 -0.879541 -0.853263 -0.81059 -0.767916 -0.710488 -0.653059 -0.583082 -0.513105 -0.433269 -0.353433 -0.266806 -0.180179 -0.0900893 3.25107e-17 0 0.0909718 0.181944 0.269419 0.356895 0.437513 0.518132 0.588794 0.659456 0.717448 0.775439 0.81853 0.861621 0.888157 0.914692 0.923652 0.932612 0.923652 0.914692 0.888157 0.861621 0.81853 0.775439 0.717448 0.659456 0.588794 0.518132 0.437513 0.356895 0.269419 0.181944 0.0909718 4.42664e-16 -0.0909718 -0.181944 -0.269419 -0.356895 -0.437513 -0.518132 -0.588794 -0.659456 -0.717448 -0.775439 -0.81853 -0.861621 -0.888157 -0.914692 -0.923652 -0.932612 -0.923652 -0.914692 -0.888157 -0.861621 -0.81853 -0.775439 -0.717448 -0.659456 -0.588794 -0.518132 -0.437513 -0.356895 -0.269419 -0.181944 -0.0909718 3.28291e-17 0 0.0918543 0.183709 0.272033 0.360357 0.441758 0.523158 0.594506 0.665853 0.724407 0.782961 0.82647 0.86998 0.896772 0.923565 0.932612 0.941659 0.932612 0.923565 0.896772 0.86998 0.82647 0.782961 0.724407 0.665853 0.594506 0.523158 0.441758 0.360357 0.272033 0.183709 0.0918543 2.98783e-16 -0.0918543 -0.183709 -0.272033 -0.360357 -0.441758 -0.523158 -0.594506 -0.665853 -0.724407 -0.782961 -0.82647 -0.869