<?xml version="1.0"?> 
<VTKFile type="StructuredGrid" version="0.1"> 
<StructuredGrid WholeExtent="0 64 0 64 0 0"> 
<Piece Extent="0 64 0 64 0 0"> 
<PointData>
<DataArray type="Float32" Name="u" format="ascii" NumberOfComponents="1"> 
0 0 0 0 0 0 0 0 0 0 0 0 0 0 0 0 0 0 0 0 0 0 0 0 0 0 0 0 0 0 0 0 0 0 0 0 0 0 0 0 0 0 0 0 0 0 0 0 0 0 0 0 0 0 0 0 0 0 0 0 0 0 0 0 0 0 -0.00932932 -0.0186586 -0.0276294 -0.0366002 -0.0448678 -0.0531353 -0.0603818 -0.0676284 -0.0735755 -0.0795226 -0.0839417 -0.0883608 -0.091082 -0.0938033 -0.0947221 -0.095641 -0.0947221 -0.0938033 -0.091082 -0.0883608 -0.0839417 -0.0795226 -0.0735755 -0.0676284 -0.0603818 -0.0531353 -0.0448678 -0.0366002 -0.0276294 -0.0186586 -0.00932932 -1.29702e-16 0.00932932 0.0186586 0.0276294 0.0366002 0.0448678 0.0531353 0.0603818 0.0676284 0.0735755 0.0795226 0.0839417 0.0883608 0.091082 0.0938033 0.0947221 0.095641 0.0947221 0.0938033 0.091082 0.0883608 0.0839417 0.0795226 0.0735755 0.0676284 0.0603818 0.0531353 0.0448678 0.0366002 0.0276294 0.0186586 0.00932932 -3.23339e-18 0 -0.0186586 -0.0373173 -0.0552589 -0.0732004 -0.0897355 -0.106271 -0.120764 -0.135257 -0.147151 -0.159045 -0.167883 -0.176722 -0.182164 -0.187607 -0.189444 -0.191282 -0.189444 -0.187607 -0.182164 -0.176722 -0.167883 -0.159045 -0.147151 -0.135257 -0.120764 -0.106271 -0.0897355 -0.0732004 -0.0552589 -0.0373173 -0.0186586 -2.59403e-16 0.0186586 0.0373173 0.0552589 0.0732004 0.0897355 0.106271 0.120764 0.135257 0.147151 0.159045 0.167883 0.176722 0.182164 0.187607 0.189444 0.191282 0.189444 0.187607 0.182164 0.176722 0.167883 0.159045 0.147151 0.135257 0.120764 0.106271 0.0897355 0.0732004 0.0552589 0.0373173 0.0186586 -6.46677e-18 0 -0.0276294 -0.0552589 -0.0818265 -0.108394 -0.132879 -0.157364 -0.178825 -0.200286 -0.217899 -0.235512 -0.248599 -0.261687 -0.269746 -0.277805 -0.280526 -0.283248 -0.280526 -0.277805 -0.269746 -0.261687 -0.248599 -0.235512 -0.217899 -0.200286 -0.178825 -0.157364 -0.132879 -0.108394 -0.0818265 -0.0552589 -0.0276294 -3.76947e-16 0.0276294 0.0552589 0.0818265 0.108394 0.132879 0.157364 0.178825 0.200286 0.217899 0.235512 0.248599 0.261687 0.269746 0.277805 0.280526 0.283248 0.280526 0.277805 0.269746 0.261687 0.248599 0.235512 0.217899 0.200286 0.178825 0.157364 0.132879 0.108394 0.0818265 0.0552589 0.0276294 -9.5759e-18 0 -0.0366002 -0.0732004 -0.108394 -0.143588 -0.176023 -0.208457 -0.236886 -0.265316 -0.288647 -0.311978 -0.329315 -0.346652 -0.357328 -0.368004 -0.371608 -0.375213 -0.371608 -0.368004 -0.357328 -0.346652 -0.329315 -0.311978 -0.288647 -0.265316 -0.236886 -0.208457 -0.176023 -0.143588 -0.108394 -0.0732004 -0.0366002 -4.94491e-16 0.0366002 0.0732004 0.108394 0.143588 0.176023 0.208457 0.236886 0.265316 0.288647 0.311978 0.329315 0.346652 0.357328 0.368004 0.371608 0.375213 0.371608 0.368004 0.357328 0.346652 0.329315 0.311978 0.288647 0.265316 0.236886 0.208457 0.176023 0.143588 0.108394 0.0732004 0.0366002 -1.2685e-17 0 -0.0448678 -0.0897355 -0.132879 -0.176023 -0.215784 -0.255545 -0.290396 -0.325247 -0.353849 -0.38245 -0.403703 -0.424956 -0.438043 -0.451131 -0.45555 -0.459969 -0.45555 -0.451131 -0.438043 -0.424956 -0.403703 -0.38245 -0.353849 -0.325247 -0.290396 -0.255545 -0.215784 -0.176023 -0.132879 -0.0897355 -0.0448678 -6.21139e-16 0.0448678 0.0897355 0.132879 0.176023 0.215784 0.255545 0.290396 0.325247 0.353849 0.38245 0.403703 0.424956 0.438043 0.451131 0.45555 0.459969 0.45555 0.451131 0.438043 0.424956 0.403703 0.38245 0.353849 0.325247 0.290396 0.255545 0.215784 0.176023 0.132879 0.0897355 0.0448678 -1.55504e-17 0 -0.0531353 -0.106271 -0.157364 -0.208457 -0.255545 -0.302633 -0.343906 -0.385179 -0.419051 -0.452922 -0.478091 -0.50326 -0.518759 -0.534258 -0.539492 -0.544725 -0.539492 -0.534258 -0.518759 -0.50326 -0.478091 -0.452922 -0.419051 -0.385179 -0.343906 -0.302633 -0.255545 -0.208457 -0.157364 -0.106271 -0.0531353 -7.47787e-16 0.0531353 0.106271 0.157364 0.208457 0.255545 0.302633 0.343906 0.385179 0.419051 0.452922 0.478091 0.50326 0.518759 0.534258 0.539492 0.544725 0.539492 0.534258 0.518759 0.50326 0.478091 0.452922 0.419051 0.385179 0.343906 0.302633 0.255545 0.208457 0.157364 0.106271 0.0531353 -1.84158e-17 0 -0.0603818 -0.120764 -0.178825 -0.236886 -0.290396 -0.343906 -0.390808 -0.437709 -0.4762 -0.514692 -0.543293 -0.571895 -0.589507 -0.60712 -0.613067 -0.619014 -0.613067 -0.60712 -0.589507 -0.571895 -0.543293 -0.514692 -0.4762 -0.437709 -0.390808 -0.343906 -0.290396 -0.236886 -0.178825 -0.120764 -0.0603818 -9.03799e-16 0.0603818 0.120764 0.178825 0.236886 0.290396 0.343906 0.390808 0.437709 0.4762 0.514692 0.543293 0.571895 0.589507 0.60712 0.613067 0.619014 0.613067 0.60712 0.589507 0.571895 0.543293 0.514692 0.4762 0.437709 0.390808 0.343906 0.290396 0.236886 0.178825 0.120764 0.0603818 -2.09273e-17 0 -0.0676284 -0.135257 -0.200286 -0.265316 -0.325247 -0.385179 -0.437709 -0.49024 -0.53335 -0.576461 -0.608495 -0.640529 -0.660255 -0.679982 -0.686643 -0.693303 -0.686643 -0.679982 -0.660255 -0.640529 -0.608495 -0.576461 -0.53335 -0.49024 -0.437709 -0.385179 -0.325247 -0.265316 -0.200286 -0.135257 -0.0676284 -1.05981e-15 0.0676284 0.135257 0.200286 0.265316 0.325247 0.385179 0.437709 0.49024 0.53335 0.576461 0.608495 0.640529 0.660255 0.679982 0.686643 0.693303 0.686643 0.679982 0.660255 0.640529 0.608495 0.576461 0.53335 0.49024 0.437709 0.385179 0.325247 0.265316 0.200286 0.135257 0.0676284 -2.34389e-17 0 -0.0735755 -0.147151 -0.217899 -0.288647 -0.353849 -0.419051 -0.4762 -0.53335 -0.580252 -0.627153 -0.662005 -0.696856 -0.718317 -0.739778 -0.747024 -0.754271 -0.747024 -0.739778 -0.718317 -0.696856 -0.662005 -0.627153 -0.580252 -0.53335 -0.4762 -0.419051 -0.353849 -0.288647 -0.217899 -0.147151 -0.0735755 -1.17215e-15 0.0735755 0.147151 0.217899 0.288647 0.353849 0.419051 0.4762 0.53335 0.580252 0.627153 0.662005 0.696856 0.718317 0.739778 0.747024 0.754271 0.747024 0.739778 0.718317 0.696856 0.662005 0.627153 0.580252 0.53335 0.4762 0.419051 0.353849 0.288647 0.217899 0.147151 0.0735755 -2.55e-17 0 -0.0795226 -0.159045 -0.235512 -0.311978 -0.38245 -0.452922 -0.514692 -0.576461 -0.627153 -0.677846 -0.715514 -0.753182 -0.776378 -0.799574 -0.807406 -0.815239 -0.807406 -0.799574 -0.776378 -0.753182 -0.715514 -0.677846 -0.627153 -0.576461 -0.514692 -0.452922 -0.38245 -0.311978 -0.235512 -0.159045 -0.0795226 -1.28449e-15 0.0795226 0.159045 0.235512 0.311978 0.38245 0.452922 0.514692 0.576461 0.627153 0.677846 0.715514 0.753182 0.776378 0.799574 0.807406 0.815239 0.807406 0.799574 0.776378 0.753182 0.715514 0.677846 0.627153 0.576461 0.514692 0.452922 0.38245 0.311978 0.235512 0.159045 0.0795226 -2.75612e-17 0 -0.0839417 -0.167883 -0.248599 -0.329315 -0.403703 -0.478091 -0.543293 -0.608495 -0.662005 -0.715514 -0.755275 -0.795037 -0.819522 -0.844007 -0.852274 -0.860542 -0.852274 -0.844007 -0.819522 -0.795037 -0.755275 -0.715514 -0.662005 -0.608495 -0.543293 -0.478091 -0.403703 -0.329315 -0.248599 -0.167883 -0.0839417 -1.41462e-15 0.0839417 0.167883 0.248599 0.329315 0.403703 0.478091 0.543293 0.608495 0.662005 0.715514 0.755275 0.795037 0.819522 0.844007 0.852274 0.860542 0.852274 0.844007 0.819522 0.795037 0.755275 0.715514 0.662005 0.608495 0.543293 0.478091 0.403703 0.329315 0.248599 0.167883 0.0839417 -2.90928e-17 0 -0.0883608 -0.176722 -0.261687 -0.346652 -0.424956 -0.50326 -0.571895 -0.640529 -0.696856 -0.753182 -0.795037 -0.836891 -0.862665 -0.888439 -0.897142 -0.905845 -0.897142 -0.888439 -0.862665 -0.836891 -0.795037 -0.753182 -0.696856 -0.640529 -0.571895 -0.50326 -0.424956 -0.346652 -0.261687 -0.176722 -0.0883608 -1.54476e-15 0.0883608 0.176722 0.261687 0.346652 0.424956 0.50326 0.571895 0.640529 0.696856 0.753182 0.795037 0.836891 0.862665 0.888439 0.897142 0.905845 0.897142 0.888439 0.862665 0.836891 0.795037 0.753182 0.696856 0.640529 0.571895 0.50326 0.424956 0.346652 0.261687 0.176722 0.0883608 -3.06244e-17 0 -0.091082 -0.182164 -0.269746 -0.357328 -0.438043 -0.518759 -0.589507 -0.660255 -0.718317 -0.776378 -0.819522 -0.862665 -0.889233 -0.9158 -0.924771 -0.933742 -0.924771 -0.9158 -0.889233 -0.862665 -0.819522 -0.776378 -0.718317 -0.660255 -0.589507 -0.518759 -0.438043 -0.357328 -0.269746 -0.182164 -0.091082 -1.57697e-15 0.091082 0.182164 0.269746 0.357328 0.438043 0.518759 0.589507 0.660255 0.718317 0.776378 0.819522 0.862665 0.889233 0.9158 0.924771 0.933742 0.924771 0.9158 0.889233 0.862665 0.819522 0.776378 0.718317 0.660255 0.589507 0.518759 0.438043 0.357328 0.269746 0.182164 0.091082 -3.15675e-17 0 -0.0938033 -0.187607 -0.277805 -0.368004 -0.451131 -0.534258 -0.60712 -0.679982 -0.739778 -0.799574 -0.844007 -0.888439 -0.9158 -0.943162 -0.952401 -0.96164 -0.952401 -0.943162 -0.9158 -0.888439 -0.844007 -0.799574 -0.739778 -0.679982 -0.60712 -0.534258 -0.451131 -0.368004 -0.277805 -0.187607 -0.0938033 -1.60919e-15 0.0938033 0.187607 0.277805 0.368004 0.451131 0.534258 0.60712 0.679982 0.739778 0.799574 0.844007 0.888439 0.9158 0.943162 0.952401 0.96164 0.952401 0.943162 0.9158 0.888439 0.844007 0.799574 0.739778 0.679982 0.60712 0.534258 0.451131 0.368004 0.277805 0.187607 0.0938033 -3.25107e-17 0 -0.0947221 -0.189444 -0.280526 -0.371608 -0.45555 -0.539492 -0.613067 -0.686643 -0.747024 -0.807406 -0.852274 -0.897142 -0.924771 -0.952401 -0.96173 -0.971059 -0.96173 -0.952401 -0.924771 -0.897142 -0.852274 -0.807406 -0.747024 -0.686643 -0.613067 -0.539492 -0.45555 -0.371608 -0.280526 -0.189444 -0.0947221 -1.65841e-15 0.0947221 0.189444 0.280526 0.371608 0.45555 0.539492 0.613067 0.686643 0.747024 0.807406 0.852274 0.897142 0.924771 0.952401 0.96173 0.971059 0.96173 0.952401 0.924771 0.897142 0.852274 0.807406 0.747024 0.686643 0.613067 0.539492 0.45555 0.371608 0.280526 0.189444 0.0947221 -3.28291e-17 0 -0.095641 -0.191282 -0.283248 -0.375213 -0.459969 -0.544725 -0.619014 -0.693303 -0.754271 -0.815239 -0.860542 -0.905845 -0.933742 -0.96164 -0.971059 -0.980479 -0.971059 -0.96164 -0.933742 -0.905845 -0.860542 -0.815239 -0.754271 -0.693303 -0.619014 -0.544725 -0.459969 -0.375213 -0.283248 -0.191282 -0.095641 -1.70763e-15 0.095641 0.191282 0.283248 0.375213 0.459969 0.544725 0.619014 0.693303 0.754271 0.815239 0.860542 0.905845 0.933742 0.96164 0.971059 0.980479 0.971059 0.96164 0.933742 0.905845 0.860542 0.815239 0.754271 0.693303 0.619014 0.544725 0.459969 0.375213 0.283248 0.191282 0.095641 -3.31476e-17 0 -0.0947221 -0.189444 -0.280526 -0.371608 -0.45555 -0.539492 -0.613067 -0.686643 -0.747024 -0.807406 -0.852274 -0.897142 -0.924771 -0.952401 -0.96173 -0.971059 -0.96173 -0.952401 -0.924771 -0.897142 -0.852274 -0.807406 -0.747024 -0.686643 -0.613067 -0.539492 -0.45555 -0.371608 -0.280526 -0.189444 -0.0947221 -1.72313e-15 0.0947221 0.189444 0.280526 0.371608 0.45555 0.539492 0.613067 0.686643 0.747024 0.807406 0.852274 0.897142 0.924771 0.952401 0.96173 0.971059 0.96173 0.952401 0.924771 0.897142 0.852274 0.807406 0.747024 0.686643 0.613067 0.539492 0.45555 0.371608 0.280526 0.189444 0.0947221 -3.28291e-17 0 -0.0938033 -0.187607 -0.277805 -0.368004 -0.451131 -0.534258 -0.60712 -0.679982 -0.739778 -0.799574 -0.844007 -0.888439 -0.9158 -0.943162 -0.952401 -0.96164 -0.952401 -0.943162 -0.9158 -0.888439 -0.844007 -0.799574 -0.739778 -0.679982 -0.60712 -0.534258 -0.451131 -0.368004 -0.277805 -0.187607 -0.0938033 -1.73863e-15 0.0938033 0.187607 0.277805 0.368004 0.451131 0.534258 0.60712 0.679982 0.739778 0.799574 0.844007 0.888439 0.9158 0.943162 0.952401 0.96164 0.952401 0.943162 0.9158 0.888439 0.844007 0.799574 0.739778 0.679982 0.60712 0.534258 0.451131 0.368004 0.277805 0.187607 0.0938033 -3.25107e-17 0 -0.091082 -0.182164 -0.269746 -0.357328 -0.438043 -0.518759 -0.589507 -0.660255 -0.718317 -0.776378 -0.819522 -0.862665 -0.889233 -0.9158 -0.924771 -0.933742 -0.924771 -0.9158 -0.889233 -0.862665 -0.819522 -0.776378 -0.718317 -0.660255 -0.589507 -0.518759 -0.438043 -0.357328 -0.269746 -0.182164 -0.091082 -1.74302e-15 0.091082 0.182164 0.269746 0.357328 0.438043 0.518759 0.589507 0.660255 0.718317 0.776378 0.819522 0.862665 0.889233 0.9158 0.924771 0.933742 0.924771 0.9158 0.889233 0.862665 0.819522 0.776378 0.718317 0.660255 0.589507 0.518759 0.438043 0.357328 0.269746 0.182164 0.091082 -3.15675e-17 0 -0.0883608 -0.176722 -0.261687 -0.346652 -0.424956 -0.50326 -0.571895 -0.640529 -0.696856 -0.753182 -0.795037 -0.836891 -0.862665 -0.888439 -0.897142 -0.905845 -0.897142 -0.888439 -0.862665 -0.836891 -0.795037 -0.753182 -0.696856 -0.640529 -0.571895 -0.50326 -0.424956 -0.346652 -0.261687 -0.176722 -0.0883608 -1.7474e-15 0.0883608 0.176722 0.261687 0.346652 0.424956 0.50326 0.571895 0.640529 0.696856 0.753182 0.795037 0.836891 0.862665 0.888439 0.897142 0.905845 0.897142 0.888439 0.862665 0.836891 0.795037 0.753182 0.696856 0.640529 0.571895 0.50326 0.424956 0.346652 0.261687 0.176722 0.0883608 -3.06244e-17 0 -0.0839417 -0.167883 -0.248599 -0.329315 -0.403703 -0.478091 -0.543293 -0.608495 -0.662005 -0.715514 -0.755275 -0.795037 -0.819522 -0.844007 -0.852274 -0.860542 -0.852274 -0.844007 -0.819522 -0.795037 -0.755275 -0.715514 -0.662005 -0.608495 -0.543293 -0.478091 -0.403703 -0.329315 -0.248599 -0.167883 -0.0839417 -1.76812e-15 0.0839417 0.167883 0.248599 0.329315 0.403703 0.478091 0.543293 0.608495 0.662005 0.715514 0.755275 0.795037 0.819522 0.844007 0.852274 0.860542 0.852274 0.844007 0.819522 0.795037 0.755275 0.715514 0.662005 0.608495 0.543293 0.478091 0.403703 0.329315 0.248599 0.167883 0.0839417 -2.90928e-17 0 -0.0795226 -0.159045 -0.235512 -0.311978 -0.38245 -0.452922 -0.514692 -0.576461 -0.627153 -0.677846 -0.715514 -0.753182 -0.776378 -0.799574 -0.807406 -0.815239 -0.807406 -0.799574 -0.776378 -0.753182 -0.715514 -0.677846 -0.627153 -0.576461 -0.514692 -0.452922 -0.38245 -0.311978 -0.235512 -0.159045 -0.0795226 -1.78884e-15 0.0795226 0.159045 0.235512 0.311978 0.38245 0.452922 0.514692 0.576461 0.627153 0.677846 0.715514 0.753182 0.776378 0.799574 0.807406 0.815239 0.807406 0.799574 0.776378 0.753182 0.715514 0.677846 0.627153 0.576461 0.514692 0.452922 0.38245 0.311978 0.235512 0.159045 0.0795226 -2.75612e-17 0 -0.0735755 -0.147151 -0.217899 -0.288647 -0.353849 -0.419051 -0.4762 -0.53335 -0.580252 -0.627153 -0.662005 -0.696856 -0.718317 -0.739778 -0.747024 -0.754271 -0.747024 -0.739778 -0.718317 -0.696856 -0.662005 -0.627153 -0.580252 -0.53335 -0.4762 -0.419051 -0.353849 -0.288647 -0.217899 -0.147151 -0.0735755 -1.75028e-15 0.0735755 0.147151 0.217899 0.288647 0.353849 0.419051 0.4762 0.53335 0.580252 0.627153 0.662005 0.696856 0.718317 0.739778 0.747024 0.754271 0.747024 0.739778 0.718317 0.696856 0.662005 0.627153 0.580252 0.53335 0.4762 0.419051 0.353849 0.288647 0.217899 0.147151 0.0735755 -2.55e-17 0 -0.0676284 -0.135257 -0.200286 -0.265316 -0.325247 -0.385179 -0.437709 -0.49024 -0.53335 -0.576461 -0.608495 -0.640529 -0.660255 -0.679982 -0.686643 -0.693303 -0.686643 -0.679982 -0.660255 -0.640529 -0.608495 -0.576461 -0.53335 -0.49024 -0.437709 -0.385179 -0.325247 -0.265316 -0.200286 -0.135257 -0.0676284 -1.71172e-15 0.0676284 0.135257 0.200286 0.265316 0.325247 0.385179 0.437709 0.49024 0.53335 0.576461 0.608495 0.640529 0.660255 0.679982 0.686643 0.693303 0.686643 0.679982 0.660255 0.640529 0.608495 0.576461 0.53335 0.49024 0.437709 0.385179 0.325247 0.265316 0.200286 0.135257 0.0676284 -2.34389e-17 0 -0.0603818 -0.120764 -0.178825 -0.236886 -0.290396 -0.343906 -0.390808 -0.437709 -0.4762 -0.514692 -0.543293 -0.571895 -0.589507 -0.60712 -0.613067 -0.619014 -0.613067 -0.60712 -0.589507 -0.571895 -0.543293 -0.514692 -0.4762 -0.437709 -0.390808 -0.343906 -0.290396 -0.236886 -0.178825 -0.120764 -0.0603818 -1.65639e-15 0.0603818 0.120764 0.178825 0.236886 0.290396 0.343906 0.390808 0.437709 0.4762 0.514692 0.543293 0.571895 0.589507 0.60712 0.613067 0.619014 0.613067 0.60712 0.589507 0.571895 0.543293 0.514692 0.4762 0.437709 0.390808 0.343906 0.290396 0.236886 0.178825 0.120764 0.0603818 -2.09273e-17 0 -0.0531353 -0.106271 -0.157364 -0.208457 -0.255545 -0.302633 -0.343906 -0.385179 -0.419051 -0.452922 -0.478091 -0.50326 -0.518759 -0.534258 -0.539492 -0.544725 -0.539492 -0.534258 -0.518759 -0.50326 -0.478091 -0.452922 -0.419051 -0.385179 -0.343906 -0.302633 -0.255545 -0.208457 -0.157364 -0.106271 -0.0531353 -1.60105e-15 0.0531353 0.106271 0.157364 0.208457 0.255545 0.302633 0.343906 0.385179 0.419051 0.452922 0.478091 0.50326 0.518759 0.534258 0.539492 0.544725 0.539492 0.534258 0.518759 0.50326 0.478091 0.452922 0.419051 0.385179 0.343906 0.302633 0.255545 0.208457 0.157364 0.106271 0.0531353 -1.84158e-17 0 -0.0448678 -0.0897355 -0.132879 -0.176023 -0.215784 -0.255545 -0.290396 -0.325247 -0.353849 -0.38245 -0.403703 -0.424956 -0.438043 -0.451131 -0.45555 -0.459969 -0.45555 -0.451131 -0.438043 -0.424956 -0.403703 -0.38245 -0.353849 -0.325247 -0.290396 -0.255545 -0.215784 -0.176023 -0.132879 -0.0897355 -0.0448678 -1.48838e-15 0.0448678 0.0897355 0.132879 0.176023 0.215784 0.255545 0.290396 0.325247 0.353849 0.38245 0.403703 0.424956 0.438043 0.451131 0.45555 0.459969 0.45555 0.451131 0.438043 0.424956 0.403703 0.38245 0.353849 0.325247 0.290396 0.255545 0.215784 0.176023 0.132879 0.0897355 0.0448678 -1.55504e-17 0 -0.0366002 -0.0732004 -0.108394 -0.143588 -0.176023 -0.208457 -0.236886 -0.265316 -0.288647 -0.311978 -0.329315 -0.346652 -0.357328 -0.368004 -0.371608 -0.375213 -0.371608 -0.368004 -0.357328 -0.346652 -0.329315 -0.311978 -0.288647 -0.265316 -0.236886 -0.208457 -0.176023 -0.143588 -0.108394 -0.0732004 -0.0366002 -1.37571e-15 0.0366002 0.0732004 0.108394 0.143588 0.176023 0.208457 0.236886 0.265316 0.288647 0.311978 0.329315 0.346652 0.357328 0.368004 0.371608 0.375213 0.371608 0.368004 0.357328 0.346652 0.329315 0.311978 0.288647 0.265316 0.236886 0.208457 0.176023 0.143588 0.108394 0.0732004 0.0366002 -1.2685e-17 0 -0.0276294 -0.0552589 -0.0818265 -0.108394 -0.132879 -0.157364 -0.178825 -0.200286 -0.217899 -0.235512 -0.248599 -0.261687 -0.269746 -0.277805 -0.280526 -0.283248 -0.280526 -0.277805 -0.269746 -0.261687 -0.248599 -0.235512 -0.217899 -0.200286 -0.178825 -0.157364 -0.132879 -0.108394 -0.0818265 -0.0552589 -0.0276294 -1.2469e-15 0.0276294 0.0552589 0.0818265 0.108394 0.132879 0.157364 0.178825 0.200286 0.217899 0.235512 0.248599 0.261687 0.269746 0.277805 0.280526 0.283248 0.280526 0.277805 0.269746 0.261687 0.248599 0.235512 0.217899 0.200286 0.178825 0.157364 0.132879 0.108394 0.0818265 0.0552589 0.0276294 -9.5759e-18 0 -0.0186586 -0.0373173 -0.0552589 -0.0732004 -0.0897355 -0.106271 -0.120764 -0.135257 -0.147151 -0.159045 -0.167883 -0.176722 -0.182164 -0.187607 -0.189444 -0.191282 -0.189444 -0.187607 -0.182164 -0.176722 -0.167883 -0.159045 -0.147151 -0.135257 -0.120764 -0.106271 -0.0897355 -0.0732004 -0.0552589 -0.0373173 -0.0186586 -1.11809e-15 0.0186586 0.0373173 0.0552589 0.0732004 0.0897355 0.106271 0.120764 0.135257 0.147151 0.159045 0.167883 0.176722 0.182164 0.187607 0.189444 0.191282 0.189444 0.187607 0.182164 0.176722 0.167883 0.159045 0.147151 0.135257 0.120764 0.106271 0.0897355 0.0732004 0.0552589 0.0373173 0.0186586 -6.46677e-18 0 -0.00932932 -0.0186586 -0.0276294 -0.0366002 -0.0448678 -0.0531353 -0.0603818 -0.0676284 -0.0735755 -0.0795226 -0.0839417 -0.0883608 -0.091082 -0.0938033 -0.0947221 -0.095641 -0.0947221 -0.0938033 -0.091082 -0.0883608 -0.0839417 -0.0795226 -0.0735755 -0.0676284 -0.0603818 -0.0531353 -0.0448678 -0.0366002 -0.0276294 -0.0186586 -0.00932932 -9.90995e-16 0.00932932 0.0186586 0.0276294 0.0366002 0.0448678 0.0531353 0.0603818 0.0676284 0.0735755 0.0795226 0.0839417 0.0883608 0.091082 0.0938033 0.0947221 0.095641 0.0947221 0.0938033 0.091082 0.0883608 0.0839417 0.0795226 0.0735755 0.0676284 0.0603818 0.0531353 0.0448678 0.0366002 0.0276294 0.0186586 0.00932932 -3.23339e-18 0 6.38312e-17 1.27662e-16 1.75039e-16 2.22415e-16 2.67273e-16 3.12131e-16 3.52046e-16 3.91961e-16 4.07264e-16 4.22567e-16 4.21515e-16 4.20463e-16 3.41769e-16 2.63074e-16 1.48636e-16 3.41971e-17 -1.81087e-16 -3.96371e-16 -4.77265e-16 -5.5816e-16 -6.60778e-16 -7.63397e-16 -8.73473e-16 -9.83549e-16 -9.96361e-16 -1.00917e-15 -1.02256e-15 -1.03595e-15 -9.88849e-16 -9.41744e-16 -9.02823e-16 -8.63903e-16 -8.40013e-16 -8.16124e-16 -8.31941e-16 -8.47759e-16 -8.96082e-16 -9.44405e-16 -9.62639e-16 -9.80874e-16 -1.02799e-15 -1.0751e-15 -1.10272e-15 -1.13033e-15 -1.12047e-15 -1.1106e-15 -1.14836e-15 -1.18612e-15 -1.14401e-15 -1.1019e-15 -1.13437e-15 -1.16685e-15 -1.09119e-15 -1.01554e-15 -9.25203e-16 -8.34865e-16 -7.80873e-16 -7.26882e-16 -5.82181e-16 -4.37479e-16 -3.34352e-16 -2.31225e-16 -1.15613e-16 -4.05941e-33 0 0.00932932 0.0186586 0.0276294 0.0366002 0.0448678 0.0531353 0.0603818 0.0676284 0.0735755 0.0795226 0.0839417 0.0883608 0.091082 0.0938033 0.0947221 0.095641 0.0947221 0.0938033 0.091082 0.0883608 0.0839417 0.0795226 0.0735755 0.0676284 0.0603818 0.0531353 0.0448678 0.0366002 0.0276294 0.0186586 0.00932932 -7.19842e-16 -0.00932932 -0.0186586 -0.0276294 -0.0366002 -0.0448678 -0.0531353 -0.0603818 -0.0676284 -0.0735755 -0.0795226 -0.0839417 -0.0883608 -0.091082 -0.0938033 -0.0947221 -0.095641 -0.0947221 -0.0938033 -0.091082 -0.0883608 -0.0839417 -0.0795226 -0.0735755 -0.0676284 -0.0603818 -0.0531353 -0.0448678 -0.0366002 -0.0276294 -0.0186586 -0.00932932 3.23339e-18 0 0.0186586 0.0373173 0.0552589 0.0732004 0.0897355 0.106271 0.120764 0.135257 0.147151 0.159045 0.167883 0.176722 0.182164 0.187607 0.189444 0.191282 0.189444 0.187607 0.182164 0.176722 0.167883 0.159045 0.147151 0.135257 0.120764 0.106271 0.0897355 0.0732004 0.0552589 0.0373173 0.0186586 -5.75781e-16 -0.0186586 -0.0373173 -0.0552589 -0.0732004 -0.0897355 -0.106271 -0.120764 -0.135257 -0.147151 -0.159045 -0.167883 -0.176722 -0.182164 -0.187607 -0.189444 -0.191282 -0.189444 -0.187607 -0.182164 -0.176722 -0.167883 -0.159045 -0.147151 -0.135257 -0.120764 -0.106271 -0.0897355 -0.0732004 -0.0552589 -0.0373173 -0.0186586 6.46677e-18 0 0.0276294 0.0552589 0.0818265 0.108394 0.132879 0.157364 0.178825 0.200286 0.217899 0.235512 0.248599 0.261687 0.269746 0.277805 0.280526 0.283248 0.280526 0.277805 0.269746 0.261687 0.248599 0.235512 0.217899 0.200286 0.178825 0.157364 0.132879 0.108394 0.0818265 0.0552589 0.0276294 -4.51567e-16 -0.0276294 -0.0552589 -0.0818265 -0.108394 -0.132879 -0.157364 -0.178825 -0.200286 -0.217899 -0.235512 -0.248599 -0.261687 -0.269746 -0.277805 -0.280526 -0.283248 -0.280526 -0.277805 -0.269746 -0.261687 -0.248599 -0.235512 -0.217899 -0.200286 -0.178825 -0.157364 -0.132879 -0.108394 -0.0818265 -0.0552589 -0.0276294 9.5759e-18 0 0.0366002 0.0732004 0.108394 0.143588 0.176023 0.208457 0.236886 0.265316 0.288647 0.311978 0.329315 0.346652 0.357328 0.368004 0.371608 0.375213 0.371608 0.368004 0.357328 0.346652 0.329315 0.311978 0.288647 0.265316 0.236886 0.208457 0.176023 0.143588 0.108394 0.0732004 0.0366002 -3.27354e-16 -0.0366002 -0.0732004 -0.108394 -0.143588 -0.176023 -0.208457 -0.236886 -0.265316 -0.288647 -0.311978 -0.329315 -0.346652 -0.357328 -0.368004 -0.371608 -0.375213 -0.371608 -0.368004 -0.357328 -0.346652 -0.329315 -0.311978 -0.288647 -0.265316 -0.236886 -0.208457 -0.176023 -0.143588 -0.108394 -0.0732004 -0.0366002 1.2685e-17 0 0.0448678 0.0897355 0.132879 0.176023 0.215784 0.255545 0.290396 0.325247 0.353849 0.38245 0.403703 0.424956 0.438043 0.451131 0.45555 0.459969 0.45555 0.451131 0.438043 0.424956 0.403703 0.38245 0.353849 0.325247 0.290396 0.255545 0.215784 0.176023 0.132879 0.0897355 0.0448678 -2.17154e-16 -0.0448678 -0.0897355 -0.132879 -0.176023 -0.215784 -0.255545 -0.290396 -0.325247 -0.353849 -0.38245 -0.403703 -0.424956 -0.438043 -0.451131 -0.45555 -0.459969 -0.45555 -0.451131 -0.438043 -0.424956 -0.403703 -0.38245 -0.353849 -0.325247 -0.290396 -0.255545 -0.215784 -0.176023 -0.132879 -0.0897355 -0.0448678 1.55504e-17 0 0.0531353 0.106271 0.157364 0.208457 0.255545 0.302633 0.343906 0.385179 0.419051 0.452922 0.478091 0.50326 0.518759 0.534258 0.539492 0.544725 0.539492 0.534258 0.518759 0.50326 0.478091 0.452922 0.419051 0.385179 0.343906 0.302633 0.255545 0.208457 0.157364 0.106271 0.0531353 -1.06955e-16 -0.0531353 -0.106271 -0.157364 -0.208457 -0.255545 -0.302633 -0.343906 -0.385179 -0.419051 -0.452922 -0.478091 -0.50326 -0.518759 -0.534258 -0.539492 -0.544725 -0.539492 -0.534258 -0.518759 -0.50326 -0.478091 -0.452922 -0.419051 -0.385179 -0.343906 -0.302633 -0.255545 -0.208457 -0.157364 -0.106271 -0.0531353 1.84158e-17 0 0.0603818 0.120764 0.178825 0.236886 0.290396 0.343906 0.390808 0.437709 0.4762 0.514692 0.543293 0.571895 0.589507 0.60712 0.613067 0.619014 0.613067 0.60712 0.589507 0.571895 0.543293 0.514692 0.4762 0.437709 0.390808 0.343906 0.290396 0.236886 0.178825 0.120764 0.0603818 -3.33041e-17 -0.0603818 -0.120764 -0.178825 -0.236886 -0.290396 -0.343906 -0.390808 -0.437709 -0.4762 -0.514692 -0.543293 -0.571895 -0.589507 -0.60712 -0.613067 -0.619014 -0.613067 -0.60712 -0.589507 -0.571895 -0.543293 -0.514692 -0.4762 -0.437709 -0.390808 -0.343906 -0.290396 -0.236886 -0.178825 -0.120764 -0.0603818 2.09273e-17 0 0.0676284 0.135257 0.200286 0.265316 0.325247 0.385179 0.437709 0.49024 0.53335 0.576461 0.608495 0.640529 0.660255 0.679982 0.686643 0.693303 0.686643 0.679982 0.660255 0.640529 0.608495 0.576461 0.53335 0.49024 0.437709 0.385179 0.325247 0.265316 0.200286 0.135257 0.0676284 4.03466e-17 -0.0676284 -0.135257 -0.200286 -0.265316 -0.325247 -0.385179 -0.437709 -0.49024 -0.53335 -0.576461 -0.608495 -0.640529 -0.660255 -0.679982 -0.686643 -0.693303 -0.686643 -0.679982 -0.660255 -0.640529 -0.608495 -0.576461 -0.53335 -0.49024 -0.437709 -0.385179 -0.325247 -0.265316 -0.200286 -0.135257 -0.0676284 2.34389e-17 0 0.0735755 0.147151 0.217899 0.288647 0.353849 0.419051 0.4762 0.53335 0.580252 0.627153 0.662005 0.696856 0.718317 0.739778 0.747024 0.754271 0.747024 0.739778 0.718317 0.696856 0.662005 0.627153 0.580252 0.53335 0.4762 0.419051 0.353849 0.288647 0.217899 0.147151 0.0735755 7.24358e-17 -0.0735755 -0.147151 -0.217899 -0.288647 -0.353849 -0.419051 -0.4762 -0.53335 -0.580252 -0.627153 -0.662005 -0.696856 -0.718317 -0.739778 -0.747024 -0.754271 -0.747024 -0.739778 -0.718317 -0.696856 -0.662005 -0.627153 -0.580252 -0.53335 -0.4762 -0.419051 -0.353849 -0.288647 -0.217899 -0.147151 -0.0735755 2.55e-17 0 0.0795226 0.159045 0.235512 0.311978 0.38245 0.452922 0.514692 0.576461 0.627153 0.677846 0.715514 0.753182 0.776378 0.799574 0.807406 0.815239 0.807406 0.799574 0.776378 0.753182 0.715514 0.677846 0.627153 0.576461 0.514692 0.452922 0.38245 0.311978 0.235512 0.159045 0.0795226 1.04525e-16 -0.0795226 -0.159045 -0.235512 -0.311978 -0.38245 -0.452922 -0.514692 -0.576461 -0.627153 -0.677846 -0.715514 -0.753182 -0.776378 -0.799574 -0.807406 -0.815239 -0.807406 -0.799574 -0.776378 -0.753182 -0.715514 -0.677846 -0.627153 -0.576461 -0.514692 -0.452922 -0.38245 -0.311978 -0.235512 -0.159045 -0.0795226 2.75612e-17 0 0.0839417 0.167883 0.248599 0.329315 0.403703 0.478091 0.543293 0.608495 0.662005 0.715514 0.755275 0.795037 0.819522 0.844007 0.852274 0.860542 0.852274 0.844007 0.819522 0.795037 0.755275 0.715514 0.662005 0.608495 0.543293 0.478091 0.403703 0.329315 0.248599 0.167883 0.0839417 8.88693e-17 -0.0839417 -0.167883 -0.248599 -0.329315 -0.403703 -0.478091 -0.543293 -0.608495 -0.662005 -0.715514 -0.755275 -0.795037 -0.819522 -0.844007 -0.852274 -0.860542 -0.852274 -0.844007 -0.819522 -0.795037 -0.755275 -0.715514 -0.662005 -0.608495 -0.543293 -0.478091 -0.403703 -0.329315 -0.248599 -0.167883 -0.0839417 2.90928e-17 0 0.0883608 0.176722 0.261687 0.346652 0.424956 0.50326 0.571895 0.640529 0.696856 0.753182 0.795037 0.836891 0.862665 0.888439 0.897142 0.905845 0.897142 0.888439 0.862665 0.836891 0.795037 0.753182 0.696856 0.640529 0.571895 0.50326 0.424956 0.346652 0.261687 0.176722 0.0883608 7.32137e-17 -0.0883608 -0.176722 -0.261687 -0.346652 -0.424956 -0.50326 -0.571895 -0.640529 -0.696856 -0.753182 -0.795037 -0.836891 -0.862665 -0.888439 -0.897142 -0.905845 -0.897142 -0.888439 -0.862665 -0.836891 -0.795037 -0.753182 -0.696856 -0.640529 -0.571895 -0.50326 -0.424956 -0.346652 -0.261687 -0.176722 -0.0883608 3.06244e-17 0 0.091082 0.182164 0.269746 0.357328 0.438043 0.518759 0.589507 0.660255 0.718317 0.776378 0.819522 0.862665 0.889233 0.9158 0.924771 0.933742 0.924771 0.9158 0.889233 0.862665 0.819522 0.776378 0.718317 0.660255 0.589507 0.518759 0.438043 0.357328 0.269746 0.182164 0.091082 7.65218e-17 -0.091082 -0.182164 -0.269746 -0.357328 -0.438043 -0.518759 -0.589507 -0.660255 -0.718317 -0.776378 -0.819522 -0.862665 -0.889233 -0.9158 -0.924771 -0.933742 -0.924771 -0.9158 -0.889233 -0.862665 -0.819522 -0.776378 -0.718317 -0.660255 -0.589507 -0.518759 -0.438043 -0.357328 -0.269746 -0.182164 -0.091082 3.15675e-17 0 0.0938033 0.187607 0.277805 0.368004 0.451131 0.534258 0.60712 0.679982 0.739778 0.799574 0.844007 0.888439 0.9158 0.943162 0.952401 0.96164 0.952401 0.943162 0.9158 0.888439 0.844007 0.799574 0.739778 0.679982 0.60712 0.534258 0.451131 0.368004 0.277805 0.187607 0.0938033 7.98299e-17 -0.0938033 -0.187607 -0.277805 -0.368004 -0.451131 -0.534258 -0.60712 -0.679982 -0.739778 -0.799574 -0.844007 -0.888439 -0.9158 -0.943162 -0.952401 -0.96164 -0.952401 -0.943162 -0.9158 -0.888439 -0.844007 -0.799574 -0.739778 -0.679982 -0.60712 -0.534258 -0.451131 -0.368004 -0.277805 -0.187607 -0.0938033 3.25107e-17 0 0.0947221 0.189444 0.280526 0.371608 0.45555 0.539492 0.613067 0.686643 0.747024 0.807406 0.852274 0.897142 0.924771 0.952401 0.96173 0.971059 0.96173 0.952401 0.924771 0.897142 0.852274 0.807406 0.747024 0.686643 0.613067 0.539492 0.45555 0.371608 0.280526 0.189444 0.0947221 9.25542e-17 -0.0947221 -0.189444 -0.280526 -0.371608 -0.45555 -0.539492 -0.613067 -0.686643 -0.747024 -0.807406 -0.852274 -0.897142 -0.924771 -0.952401 -0.96173 -0.971059 -0.96173 -0.952401 -0.924771 -0.897142 -0.852274 -0.807406 -0.747024 -0.686643 -0.613067 -0.539492 -0.45555 -0.371608 -0.280526 -0.189444 -0.0947221 3.28291e-17 0 0.095641 0.191282 0.283248 0.375213 0.459969 0.544725 0.619014 0.693303 0.754271 0.815239 0.860542 0.905845 0.933742 0.96164 0.971059 0.980479 0.971059 0.96164 0.933742 0.905845 0.860542 0.815239 0.754271 0.693303 0.619014 0.544725 0.459969 0.375213 0.283248 0.191282 0.095641 1.05278e-16 -0.095