<?xml version="1.0"?> 
<VTKFile type="StructuredGrid" version="0.1"> 
<StructuredGrid WholeExtent="0 64 0 64 0 0"> 
<Piece Extent="0 64 0 64 0 0"> 
<PointData>
<DataArray type="Float32" Name="u" format="ascii" NumberOfComponents="1"> 
0 0 0 0 0 0 0 0 0 0 0 0 0 0 0 0 0 0 0 0 0 0 0 0 0 0 0 0 0 0 0 0 0 0 0 0 0 0 0 0 0 0 0 0 0 0 0 0 0 0 0 0 0 0 0 0 0 0 0 0 0 0 0 0 0 0 -0.00938602 -0.018772 -0.0277974 -0.0368227 -0.0451405 -0.0534583 -0.0607489 -0.0680395 -0.0740227 -0.0800059 -0.0844519 -0.0888978 -0.0916356 -0.0943734 -0.0952979 -0.0962223 -0.0952979 -0.0943734 -0.0916356 -0.0888978 -0.0844519 -0.0800059 -0.0740227 -0.0680395 -0.0607489 -0.0534583 -0.0451405 -0.0368227 -0.0277974 -0.018772 -0.00938602 -2.25133e-16 0.00938602 0.018772 0.0277974 0.0368227 0.0451405 0.0534583 0.0607489 0.0680395 0.0740227 0.0800059 0.0844519 0.0888978 0.0916356 0.0943734 0.0952979 0.0962223 0.0952979 0.0943734 0.0916356 0.0888978 0.0844519 0.0800059 0.0740227 0.0680395 0.0607489 0.0534583 0.0451405 0.0368227 0.0277974 0.018772 0.00938602 -3.23339e-18 0 -0.018772 -0.0375441 -0.0555947 -0.0736454 -0.0902809 -0.106917 -0.121498 -0.136079 -0.148045 -0.160012 -0.168904 -0.177796 -0.183271 -0.188747 -0.190596 -0.192445 -0.190596 -0.188747 -0.183271 -0.177796 -0.168904 -0.160012 -0.148045 -0.136079 -0.121498 -0.106917 -0.0902809 -0.0736454 -0.0555947 -0.0375441 -0.018772 -4.50266e-16 0.018772 0.0375441 0.0555947 0.0736454 0.0902809 0.106917 0.121498 0.136079 0.148045 0.160012 0.168904 0.177796 0.183271 0.188747 0.190596 0.192445 0.190596 0.188747 0.183271 0.177796 0.168904 0.160012 0.148045 0.136079 0.121498 0.106917 0.0902809 0.0736454 0.0555947 0.0375441 0.018772 -6.46677e-18 0 -0.0277974 -0.0555947 -0.0823239 -0.109053 -0.133687 -0.15832 -0.179912 -0.201504 -0.219223 -0.236943 -0.25011 -0.263277 -0.271385 -0.279494 -0.282231 -0.284969 -0.282231 -0.279494 -0.271385 -0.263277 -0.25011 -0.236943 -0.219223 -0.201504 -0.179912 -0.15832 -0.133687 -0.109053 -0.0823239 -0.0555947 -0.0277974 -6.52987e-16 0.0277974 0.0555947 0.0823239 0.109053 0.133687 0.15832 0.179912 0.201504 0.219223 0.236943 0.25011 0.263277 0.271385 0.279494 0.282231 0.284969 0.282231 0.279494 0.271385 0.263277 0.25011 0.236943 0.219223 0.201504 0.179912 0.15832 0.133687 0.109053 0.0823239 0.0555947 0.0277974 -9.5759e-18 0 -0.0368227 -0.0736454 -0.109053 -0.144461 -0.177092 -0.209724 -0.238326 -0.266928 -0.290401 -0.313875 -0.331317 -0.348759 -0.359499 -0.37024 -0.373867 -0.377494 -0.373867 -0.37024 -0.359499 -0.348759 -0.331317 -0.313875 -0.290401 -0.266928 -0.238326 -0.209724 -0.177092 -0.144461 -0.109053 -0.0736454 -0.0368227 -8.55708e-16 0.0368227 0.0736454 0.109053 0.144461 0.177092 0.209724 0.238326 0.266928 0.290401 0.313875 0.331317 0.348759 0.359499 0.37024 0.373867 0.377494 0.373867 0.37024 0.359499 0.348759 0.331317 0.313875 0.290401 0.266928 0.238326 0.209724 0.177092 0.144461 0.109053 0.0736454 0.0368227 -1.2685e-17 0 -0.0451405 -0.0902809 -0.133687 -0.177092 -0.217095 -0.257098 -0.292161 -0.327224 -0.356 -0.384775 -0.406157 -0.427539 -0.440706 -0.453873 -0.458319 -0.462765 -0.458319 -0.453873 -0.440706 -0.427539 -0.406157 -0.384775 -0.356 -0.327224 -0.292161 -0.257098 -0.217095 -0.177092 -0.133687 -0.0902809 -0.0451405 -1.05802e-15 0.0451405 0.0902809 0.133687 0.177092 0.217095 0.257098 0.292161 0.327224 0.356 0.384775 0.406157 0.427539 0.440706 0.453873 0.458319 0.462765 0.458319 0.453873 0.440706 0.427539 0.406157 0.384775 0.356 0.327224 0.292161 0.257098 0.217095 0.177092 0.133687 0.0902809 0.0451405 -1.55504e-17 0 -0.0534583 -0.106917 -0.15832 -0.209724 -0.257098 -0.304472 -0.345996 -0.38752 -0.421598 -0.455675 -0.480997 -0.506319 -0.521912 -0.537506 -0.542771 -0.548036 -0.542771 -0.537506 -0.521912 -0.506319 -0.480997 -0.455675 -0.421598 -0.38752 -0.345996 -0.304472 -0.257098 -0.209724 -0.15832 -0.106917 -0.0534583 -1.26033e-15 0.0534583 0.106917 0.15832 0.209724 0.257098 0.304472 0.345996 0.38752 0.421598 0.455675 0.480997 0.506319 0.521912 0.537506 0.542771 0.548036 0.542771 0.537506 0.521912 0.506319 0.480997 0.455675 0.421598 0.38752 0.345996 0.304472 0.257098 0.209724 0.15832 0.106917 0.0534583 -1.84158e-17 0 -0.0607489 -0.121498 -0.179912 -0.238326 -0.292161 -0.345996 -0.393183 -0.44037 -0.479095 -0.51782 -0.546595 -0.575371 -0.59309 -0.61081 -0.616793 -0.622777 -0.616793 -0.61081 -0.59309 -0.575371 -0.546595 -0.51782 -0.479095 -0.44037 -0.393183 -0.345996 -0.292161 -0.238326 -0.179912 -0.121498 -0.0607489 -1.48174e-15 0.0607489 0.121498 0.179912 0.238326 0.292161 0.345996 0.393183 0.44037 0.479095 0.51782 0.546595 0.575371 0.59309 0.61081 0.616793 0.622777 0.616793 0.61081 0.59309 0.575371 0.546595 0.51782 0.479095 0.44037 0.393183 0.345996 0.292161 0.238326 0.179912 0.121498 0.0607489 -2.09273e-17 0 -0.0680395 -0.136079 -0.201504 -0.266928 -0.327224 -0.38752 -0.44037 -0.493219 -0.536592 -0.579965 -0.612193 -0.644422 -0.664268 -0.684115 -0.690816 -0.697517 -0.690816 -0.684115 -0.664268 -0.644422 -0.612193 -0.579965 -0.536592 -0.493219 -0.44037 -0.38752 -0.327224 -0.266928 -0.201504 -0.136079 -0.0680395 -1.70315e-15 0.0680395 0.136079 0.201504 0.266928 0.327224 0.38752 0.44037 0.493219 0.536592 0.579965 0.612193 0.644422 0.664268 0.684115 0.690816 0.697517 0.690816 0.684115 0.664268 0.644422 0.612193 0.579965 0.536592 0.493219 0.44037 0.38752 0.327224 0.266928 0.201504 0.136079 0.0680395 -2.34389e-17 0 -0.0740227 -0.148045 -0.219223 -0.290401 -0.356 -0.421598 -0.479095 -0.536592 -0.583779 -0.630965 -0.666028 -0.701091 -0.722683 -0.744274 -0.751565 -0.758856 -0.751565 -0.744274 -0.722683 -0.701091 -0.666028 -0.630965 -0.583779 -0.536592 -0.479095 -0.421598 -0.356 -0.290401 -0.219223 -0.148045 -0.0740227 -1.84772e-15 0.0740227 0.148045 0.219223 0.290401 0.356 0.421598 0.479095 0.536592 0.583779 0.630965 0.666028 0.701091 0.722683 0.744274 0.751565 0.758856 0.751565 0.744274 0.722683 0.701091 0.666028 0.630965 0.583779 0.536592 0.479095 0.421598 0.356 0.290401 0.219223 0.148045 0.0740227 -2.55e-17 0 -0.0800059 -0.160012 -0.236943 -0.313875 -0.384775 -0.455675 -0.51782 -0.579965 -0.630965 -0.681966 -0.719863 -0.75776 -0.781097 -0.804434 -0.812314 -0.820194 -0.812314 -0.804434 -0.781097 -0.75776 -0.719863 -0.681966 -0.630965 -0.579965 -0.51782 -0.455675 -0.384775 -0.313875 -0.236943 -0.160012 -0.0800059 -1.99229e-15 0.0800059 0.160012 0.236943 0.313875 0.384775 0.455675 0.51782 0.579965 0.630965 0.681966 0.719863 0.75776 0.781097 0.804434 0.812314 0.820194 0.812314 0.804434 0.781097 0.75776 0.719863 0.681966 0.630965 0.579965 0.51782 0.455675 0.384775 0.313875 0.236943 0.160012 0.0800059 -2.75612e-17 0 -0.0844519 -0.168904 -0.25011 -0.331317 -0.406157 -0.480997 -0.546595 -0.612193 -0.666028 -0.719863 -0.759866 -0.799869 -0.824503 -0.849137 -0.857454 -0.865772 -0.857454 -0.849137 -0.824503 -0.799869 -0.759866 -0.719863 -0.666028 -0.612193 -0.546595 -0.480997 -0.406157 -0.331317 -0.25011 -0.168904 -0.0844519 -2.14987e-15 0.0844519 0.168904 0.25011 0.331317 0.406157 0.480997 0.546595 0.612193 0.666028 0.719863 0.759866 0.799869 0.824503 0.849137 0.857454 0.865772 0.857454 0.849137 0.824503 0.799869 0.759866 0.719863 0.666028 0.612193 0.546595 0.480997 0.406157 0.331317 0.25011 0.168904 0.0844519 -2.90928e-17 0 -0.0888978 -0.177796 -0.263277 -0.348759 -0.427539 -0.506319 -0.575371 -0.644422 -0.701091 -0.75776 -0.799869 -0.841978 -0.867909 -0.893839 -0.902595 -0.91135 -0.902595 -0.893839 -0.867909 -0.841978 -0.799869 -0.75776 -0.701091 -0.644422 -0.575371 -0.506319 -0.427539 -0.348759 -0.263277 -0.177796 -0.0888978 -2.30745e-15 0.0888978 0.177796 0.263277 0.348759 0.427539 0.506319 0.575371 0.644422 0.701091 0.75776 0.799869 0.841978 0.867909 0.893839 0.902595 0.91135 0.902595 0.893839 0.867909 0.841978 0.799869 0.75776 0.701091 0.644422 0.575371 0.506319 0.427539 0.348759 0.263277 0.177796 0.0888978 -3.06244e-17 0 -0.0916356 -0.183271 -0.271385 -0.359499 -0.440706 -0.521912 -0.59309 -0.664268 -0.722683 -0.781097 -0.824503 -0.867909 -0.894638 -0.921367 -0.930392 -0.939417 -0.930392 -0.921367 -0.894638 -0.867909 -0.824503 -0.781097 -0.722683 -0.664268 -0.59309 -0.521912 -0.440706 -0.359499 -0.271385 -0.183271 -0.0916356 -2.35822e-15 0.0916356 0.183271 0.271385 0.359499 0.440706 0.521912 0.59309 0.664268 0.722683 0.781097 0.824503 0.867909 0.894638 0.921367 0.930392 0.939417 0.930392 0.921367 0.894638 0.867909 0.824503 0.781097 0.722683 0.664268 0.59309 0.521912 0.440706 0.359499 0.271385 0.183271 0.0916356 -3.15675e-17 0 -0.0943734 -0.188747 -0.279494 -0.37024 -0.453873 -0.537506 -0.61081 -0.684115 -0.744274 -0.804434 -0.849137 -0.893839 -0.921367 -0.948895 -0.95819 -0.967484 -0.95819 -0.948895 -0.921367 -0.893839 -0.849137 -0.804434 -0.744274 -0.684115 -0.61081 -0.537506 -0.453873 -0.37024 -0.279494 -0.188747 -0.0943734 -2.40899e-15 0.0943734 0.188747 0.279494 0.37024 0.453873 0.537506 0.61081 0.684115 0.744274 0.804434 0.849137 0.893839 0.921367 0.948895 0.95819 0.967484 0.95819 0.948895 0.921367 0.893839 0.849137 0.804434 0.744274 0.684115 0.61081 0.537506 0.453873 0.37024 0.279494 0.188747 0.0943734 -3.25107e-17 0 -0.0952979 -0.190596 -0.282231 -0.373867 -0.458319 -0.542771 -0.616793 -0.690816 -0.751565 -0.812314 -0.857454 -0.902595 -0.930392 -0.95819 -0.967576 -0.976962 -0.967576 -0.95819 -0.930392 -0.902595 -0.857454 -0.812314 -0.751565 -0.690816 -0.616793 -0.542771 -0.458319 -0.373867 -0.282231 -0.190596 -0.0952979 -2.46887e-15 0.0952979 0.190596 0.282231 0.373867 0.458319 0.542771 0.616793 0.690816 0.751565 0.812314 0.857454 0.902595 0.930392 0.95819 0.967576 0.976962 0.967576 0.95819 0.930392 0.902595 0.857454 0.812314 0.751565 0.690816 0.616793 0.542771 0.458319 0.373867 0.282231 0.190596 0.0952979 -3.28291e-17 0 -0.0962223 -0.192445 -0.284969 -0.377494 -0.462765 -0.548036 -0.622777 -0.697517 -0.758856 -0.820194 -0.865772 -0.91135 -0.939417 -0.967484 -0.976962 -0.986439 -0.976962 -0.967484 -0.939417 -0.91135 -0.865772 -0.820194 -0.758856 -0.697517 -0.622777 -0.548036 -0.462765 -0.377494 -0.284969 -0.192445 -0.0962223 -2.52876e-15 0.0962223 0.192445 0.284969 0.377494 0.462765 0.548036 0.622777 0.697517 0.758856 0.820194 0.865772 0.91135 0.939417 0.967484 0.976962 0.986439 0.976962 0.967484 0.939417 0.91135 0.865772 0.820194 0.758856 0.697517 0.622777 0.548036 0.462765 0.377494 0.284969 0.192445 0.0962223 -3.31476e-17 0 -0.0952979 -0.190596 -0.282231 -0.373867 -0.458319 -0.542771 -0.616793 -0.690816 -0.751565 -0.812314 -0.857454 -0.902595 -0.930392 -0.95819 -0.967576 -0.976962 -0.967576 -0.95819 -0.930392 -0.902595 -0.857454 -0.812314 -0.751565 -0.690816 -0.616793 -0.542771 -0.458319 -0.373867 -0.282231 -0.190596 -0.0952979 -2.53935e-15 0.0952979 0.190596 0.282231 0.373867 0.458319 0.542771 0.616793 0.690816 0.751565 0.812314 0.857454 0.902595 0.930392 0.95819 0.967576 0.976962 0.967576 0.95819 0.930392 0.902595 0.857454 0.812314 0.751565 0.690816 0.616793 0.542771 0.458319 0.373867 0.282231 0.190596 0.0952979 -3.28291e-17 0 -0.0943734 -0.188747 -0.279494 -0.37024 -0.453873 -0.537506 -0.61081 -0.684115 -0.744274 -0.804434 -0.849137 -0.893839 -0.921367 -0.948895 -0.95819 -0.967484 -0.95819 -0.948895 -0.921367 -0.893839 -0.849137 -0.804434 -0.744274 -0.684115 -0.61081 -0.537506 -0.453873 -0.37024 -0.279494 -0.188747 -0.0943734 -2.54994e-15 0.0943734 0.188747 0.279494 0.37024 0.453873 0.537506 0.61081 0.684115 0.744274 0.804434 0.849137 0.893839 0.921367 0.948895 0.95819 0.967484 0.95819 0.948895 0.921367 0.893839 0.849137 0.804434 0.744274 0.684115 0.61081 0.537506 0.453873 0.37024 0.279494 0.188747 0.0943734 -3.25107e-17 0 -0.0916356 -0.183271 -0.271385 -0.359499 -0.440706 -0.521912 -0.59309 -0.664268 -0.722683 -0.781097 -0.824503 -0.867909 -0.894638 -0.921367 -0.930392 -0.939417 -0.930392 -0.921367 -0.894638 -0.867909 -0.824503 -0.781097 -0.722683 -0.664268 -0.59309 -0.521912 -0.440706 -0.359499 -0.271385 -0.183271 -0.0916356 -2.52709e-15 0.0916356 0.183271 0.271385 0.359499 0.440706 0.521912 0.59309 0.664268 0.722683 0.781097 0.824503 0.867909 0.894638 0.921367 0.930392 0.939417 0.930392 0.921367 0.894638 0.867909 0.824503 0.781097 0.722683 0.664268 0.59309 0.521912 0.440706 0.359499 0.271385 0.183271 0.0916356 -3.15675e-17 0 -0.0888978 -0.177796 -0.263277 -0.348759 -0.427539 -0.506319 -0.575371 -0.644422 -0.701091 -0.75776 -0.799869 -0.841978 -0.867909 -0.893839 -0.902595 -0.91135 -0.902595 -0.893839 -0.867909 -0.841978 -0.799869 -0.75776 -0.701091 -0.644422 -0.575371 -0.506319 -0.427539 -0.348759 -0.263277 -0.177796 -0.0888978 -2.50423e-15 0.0888978 0.177796 0.263277 0.348759 0.427539 0.506319 0.575371 0.644422 0.701091 0.75776 0.799869 0.841978 0.867909 0.893839 0.902595 0.91135 0.902595 0.893839 0.867909 0.841978 0.799869 0.75776 0.701091 0.644422 0.575371 0.506319 0.427539 0.348759 0.263277 0.177796 0.0888978 -3.06244e-17 0 -0.0844519 -0.168904 -0.25011 -0.331317 -0.406157 -0.480997 -0.546595 -0.612193 -0.666028 -0.719863 -0.759866 -0.799869 -0.824503 -0.849137 -0.857454 -0.865772 -0.857454 -0.849137 -0.824503 -0.799869 -0.759866 -0.719863 -0.666028 -0.612193 -0.546595 -0.480997 -0.406157 -0.331317 -0.25011 -0.168904 -0.0844519 -2.48634e-15 0.0844519 0.168904 0.25011 0.331317 0.406157 0.480997 0.546595 0.612193 0.666028 0.719863 0.759866 0.799869 0.824503 0.849137 0.857454 0.865772 0.857454 0.849137 0.824503 0.799869 0.759866 0.719863 0.666028 0.612193 0.546595 0.480997 0.406157 0.331317 0.25011 0.168904 0.0844519 -2.90928e-17 0 -0.0800059 -0.160012 -0.236943 -0.313875 -0.384775 -0.455675 -0.51782 -0.579965 -0.630965 -0.681966 -0.719863 -0.75776 -0.781097 -0.804434 -0.812314 -0.820194 -0.812314 -0.804434 -0.781097 -0.75776 -0.719863 -0.681966 -0.630965 -0.579965 -0.51782 -0.455675 -0.384775 -0.313875 -0.236943 -0.160012 -0.0800059 -2.46845e-15 0.0800059 0.160012 0.236943 0.313875 0.384775 0.455675 0.51782 0.579965 0.630965 0.681966 0.719863 0.75776 0.781097 0.804434 0.812314 0.820194 0.812314 0.804434 0.781097 0.75776 0.719863 0.681966 0.630965 0.579965 0.51782 0.455675 0.384775 0.313875 0.236943 0.160012 0.0800059 -2.75612e-17 0 -0.0740227 -0.148045 -0.219223 -0.290401 -0.356 -0.421598 -0.479095 -0.536592 -0.583779 -0.630965 -0.666028 -0.701091 -0.722683 -0.744274 -0.751565 -0.758856 -0.751565 -0.744274 -0.722683 -0.701091 -0.666028 -0.630965 -0.583779 -0.536592 -0.479095 -0.421598 -0.356 -0.290401 -0.219223 -0.148045 -0.0740227 -2.36404e-15 0.0740227 0.148045 0.219223 0.290401 0.356 0.421598 0.479095 0.536592 0.583779 0.630965 0.666028 0.701091 0.722683 0.744274 0.751565 0.758856 0.751565 0.744274 0.722683 0.701091 0.666028 0.630965 0.583779 0.536592 0.479095 0.421598 0.356 0.290401 0.219223 0.148045 0.0740227 -2.55e-17 0 -0.0680395 -0.136079 -0.201504 -0.266928 -0.327224 -0.38752 -0.44037 -0.493219 -0.536592 -0.579965 -0.612193 -0.644422 -0.664268 -0.684115 -0.690816 -0.697517 -0.690816 -0.684115 -0.664268 -0.644422 -0.612193 -0.579965 -0.536592 -0.493219 -0.44037 -0.38752 -0.327224 -0.266928 -0.201504 -0.136079 -0.0680395 -2.25962e-15 0.0680395 0.136079 0.201504 0.266928 0.327224 0.38752 0.44037 0.493219 0.536592 0.579965 0.612193 0.644422 0.664268 0.684115 0.690816 0.697517 0.690816 0.684115 0.664268 0.644422 0.612193 0.579965 0.536592 0.493219 0.44037 0.38752 0.327224 0.266928 0.201504 0.136079 0.0680395 -2.34389e-17 0 -0.0607489 -0.121498 -0.179912 -0.238326 -0.292161 -0.345996 -0.393183 -0.44037 -0.479095 -0.51782 -0.546595 -0.575371 -0.59309 -0.61081 -0.616793 -0.622777 -0.616793 -0.61081 -0.59309 -0.575371 -0.546595 -0.51782 -0.479095 -0.44037 -0.393183 -0.345996 -0.292161 -0.238326 -0.179912 -0.121498 -0.0607489 -2.10571e-15 0.0607489 0.121498 0.179912 0.238326 0.292161 0.345996 0.393183 0.44037 0.479095 0.51782 0.546595 0.575371 0.59309 0.61081 0.616793 0.622777 0.616793 0.61081 0.59309 0.575371 0.546595 0.51782 0.479095 0.44037 0.393183 0.345996 0.292161 0.238326 0.179912 0.121498 0.0607489 -2.09273e-17 0 -0.0534583 -0.106917 -0.15832 -0.209724 -0.257098 -0.304472 -0.345996 -0.38752 -0.421598 -0.455675 -0.480997 -0.506319 -0.521912 -0.537506 -0.542771 -0.548036 -0.542771 -0.537506 -0.521912 -0.506319 -0.480997 -0.455675 -0.421598 -0.38752 -0.345996 -0.304472 -0.257098 -0.209724 -0.15832 -0.106917 -0.0534583 -1.95181e-15 0.0534583 0.106917 0.15832 0.209724 0.257098 0.304472 0.345996 0.38752 0.421598 0.455675 0.480997 0.506319 0.521912 0.537506 0.542771 0.548036 0.542771 0.537506 0.521912 0.506319 0.480997 0.455675 0.421598 0.38752 0.345996 0.304472 0.257098 0.209724 0.15832 0.106917 0.0534583 -1.84158e-17 0 -0.0451405 -0.0902809 -0.133687 -0.177092 -0.217095 -0.257098 -0.292161 -0.327224 -0.356 -0.384775 -0.406157 -0.427539 -0.440706 -0.453873 -0.458319 -0.462765 -0.458319 -0.453873 -0.440706 -0.427539 -0.406157 -0.384775 -0.356 -0.327224 -0.292161 -0.257098 -0.217095 -0.177092 -0.133687 -0.0902809 -0.0451405 -1.76821e-15 0.0451405 0.0902809 0.133687 0.177092 0.217095 0.257098 0.292161 0.327224 0.356 0.384775 0.406157 0.427539 0.440706 0.453873 0.458319 0.462765 0.458319 0.453873 0.440706 0.427539 0.406157 0.384775 0.356 0.327224 0.292161 0.257098 0.217095 0.177092 0.133687 0.0902809 0.0451405 -1.55504e-17 0 -0.0368227 -0.0736454 -0.109053 -0.144461 -0.177092 -0.209724 -0.238326 -0.266928 -0.290401 -0.313875 -0.331317 -0.348759 -0.359499 -0.37024 -0.373867 -0.377494 -0.373867 -0.37024 -0.359499 -0.348759 -0.331317 -0.313875 -0.290401 -0.266928 -0.238326 -0.209724 -0.177092 -0.144461 -0.109053 -0.0736454 -0.0368227 -1.58461e-15 0.0368227 0.0736454 0.109053 0.144461 0.177092 0.209724 0.238326 0.266928 0.290401 0.313875 0.331317 0.348759 0.359499 0.37024 0.373867 0.377494 0.373867 0.37024 0.359499 0.348759 0.331317 0.313875 0.290401 0.266928 0.238326 0.209724 0.177092 0.144461 0.109053 0.0736454 0.0368227 -1.2685e-17 0 -0.0277974 -0.0555947 -0.0823239 -0.109053 -0.133687 -0.15832 -0.179912 -0.201504 -0.219223 -0.236943 -0.25011 -0.263277 -0.271385 -0.279494 -0.282231 -0.284969 -0.282231 -0.279494 -0.271385 -0.263277 -0.25011 -0.236943 -0.219223 -0.201504 -0.179912 -0.15832 -0.133687 -0.109053 -0.0823239 -0.0555947 -0.0277974 -1.40255e-15 0.0277974 0.0555947 0.0823239 0.109053 0.133687 0.15832 0.179912 0.201504 0.219223 0.236943 0.25011 0.263277 0.271385 0.279494 0.282231 0.284969 0.282231 0.279494 0.271385 0.263277 0.25011 0.236943 0.219223 0.201504 0.179912 0.15832 0.133687 0.109053 0.0823239 0.0555947 0.0277974 -9.5759e-18 0 -0.018772 -0.0375441 -0.0555947 -0.0736454 -0.0902809 -0.106917 -0.121498 -0.136079 -0.148045 -0.160012 -0.168904 -0.177796 -0.183271 -0.188747 -0.190596 -0.192445 -0.190596 -0.188747 -0.183271 -0.177796 -0.168904 -0.160012 -0.148045 -0.136079 -0.121498 -0.106917 -0.0902809 -0.0736454 -0.0555947 -0.0375441 -0.018772 -1.22049e-15 0.018772 0.0375441 0.0555947 0.0736454 0.0902809 0.106917 0.121498 0.136079 0.148045 0.160012 0.168904 0.177796 0.183271 0.188747 0.190596 0.192445 0.190596 0.188747 0.183271 0.177796 0.168904 0.160012 0.148045 0.136079 0.121498 0.106917 0.0902809 0.0736454 0.0555947 0.0375441 0.018772 -6.46677e-18 0 -0.00938602 -0.018772 -0.0277974 -0.0368227 -0.0451405 -0.0534583 -0.0607489 -0.0680395 -0.0740227 -0.0800059 -0.0844519 -0.0888978 -0.0916356 -0.0943734 -0.0952979 -0.0962223 -0.0952979 -0.0943734 -0.0916356 -0.0888978 -0.0844519 -0.0800059 -0.0740227 -0.0680395 -0.0607489 -0.0534583 -0.0451405 -0.0368227 -0.0277974 -0.018772 -0.00938602 -1.06373e-15 0.00938602 0.018772 0.0277974 0.0368227 0.0451405 0.0534583 0.0607489 0.0680395 0.0740227 0.0800059 0.0844519 0.0888978 0.0916356 0.0943734 0.0952979 0.0962223 0.0952979 0.0943734 0.0916356 0.0888978 0.0844519 0.0800059 0.0740227 0.0680395 0.0607489 0.0534583 0.0451405 0.0368227 0.0277974 0.018772 0.00938602 -3.23339e-18 0 7.62999e-17 1.526e-16 2.10755e-16 2.6891e-16 3.25969e-16 3.83028e-16 4.04817e-16 4.26606e-16 4.10568e-16 3.94531e-16 3.71351e-16 3.48172e-16 2.87611e-16 2.27051e-16 1.89883e-16 1.52716e-16 1.13276e-17 -1.30061e-16 -2.00363e-16 -2.70666e-16 -3.86592e-16 -5.02517e-16 -6.30832e-16 -7.59147e-16 -8.20141e-16 -8.81136e-16 -9.25046e-16 -9.68957e-16 -9.55982e-16 -9.43006e-16 -9.24984e-16 -9.06961e-16 -8.85613e-16 -8.64266e-16 -8.65816e-16 -8.67367e-16 -8.8383e-16 -9.00293e-16 -8.72634e-16 -8.44975e-16 -8.89803e-16 -9.34631e-16 -9.25934e-16 -9.17237e-16 -8.65956e-16 -8.14674e-16 -8.40139e-16 -8.65604e-16 -8.16705e-16 -7.67806e-16 -7.8102e-16 -7.94234e-16 -7.43569e-16 -6.92904e-16 -6.8661e-16 -6.80316e-16 -6.57647e-16 -6.34977e-16 -5.13577e-16 -3.92177e-16 -3.03397e-16 -2.14616e-16 -1.07308e-16 -4.05941e-33 0 0.00938602 0.018772 0.0277974 0.0368227 0.0451405 0.0534583 0.0607489 0.0680395 0.0740227 0.0800059 0.0844519 0.0888978 0.0916356 0.0943734 0.0952979 0.0962223 0.0952979 0.0943734 0.0916356 0.0888978 0.0844519 0.0800059 0.0740227 0.0680395 0.0607489 0.0534583 0.0451405 0.0368227 0.0277974 0.018772 0.00938602 -7.52808e-16 -0.00938602 -0.018772 -0.0277974 -0.0368227 -0.0451405 -0.0534583 -0.0607489 -0.0680395 -0.0740227 -0.0800059 -0.0844519 -0.0888978 -0.0916356 -0.0943734 -0.0952979 -0.0962223 -0.0952979 -0.0943734 -0.0916356 -0.0888978 -0.0844519 -0.0800059 -0.0740227 -0.0680395 -0.0607489 -0.0534583 -0.0451405 -0.0368227 -0.0277974 -0.018772 -0.00938602 3.23339e-18 0 0.018772 0.0375441 0.0555947 0.0736454 0.0902809 0.106917 0.121498 0.136079 0.148045 0.160012 0.168904 0.177796 0.183271 0.188747 0.190596 0.192445 0.190596 0.188747 0.183271 0.177796 0.168904 0.160012 0.148045 0.136079 0.121498 0.106917 0.0902809 0.0736454 0.0555947 0.0375441 0.018772 -5.98656e-16 -0.018772 -0.0375441 -0.0555947 -0.0736454 -0.0902809 -0.106917 -0.121498 -0.136079 -0.148045 -0.160012 -0.168904 -0.177796 -0.183271 -0.188747 -0.190596 -0.192445 -0.190596 -0.188747 -0.183271 -0.177796 -0.168904 -0.160012 -0.148045 -0.136079 -0.121498 -0.106917 -0.0902809 -0.0736454 -0.0555947 -0.0375441 -0.018772 6.46677e-18 0 0.0277974 0.0555947 0.0823239 0.109053 0.133687 0.15832 0.179912 0.201504 0.219223 0.236943 0.25011 0.263277 0.271385 0.279494 0.282231 0.284969 0.282231 0.279494 0.271385 0.263277 0.25011 0.236943 0.219223 0.201504 0.179912 0.15832 0.133687 0.109053 0.0823239 0.0555947 0.0277974 -4.56617e-16 -0.0277974 -0.0555947 -0.0823239 -0.109053 -0.133687 -0.15832 -0.179912 -0.201504 -0.219223 -0.236943 -0.25011 -0.263277 -0.271385 -0.279494 -0.282231 -0.284969 -0.282231 -0.279494 -0.271385 -0.263277 -0.25011 -0.236943 -0.219223 -0.201504 -0.179912 -0.15832 -0.133687 -0.109053 -0.0823239 -0.0555947 -0.0277974 9.5759e-18 0 0.0368227 0.0736454 0.109053 0.144461 0.177092 0.209724 0.238326 0.266928 0.290401 0.313875 0.331317 0.348759 0.359499 0.37024 0.373867 0.377494 0.373867 0.37024 0.359499 0.348759 0.331317 0.313875 0.290401 0.266928 0.238326 0.209724 0.177092 0.144461 0.109053 0.0736454 0.0368227 -3.14579e-16 -0.0368227 -0.0736454 -0.109053 -0.144461 -0.177092 -0.209724 -0.238326 -0.266928 -0.290401 -0.313875 -0.331317 -0.348759 -0.359499 -0.37024 -0.373867 -0.377494 -0.373867 -0.37024 -0.359499 -0.348759 -0.331317 -0.313875 -0.290401 -0.266928 -0.238326 -0.209724 -0.177092 -0.144461 -0.109053 -0.0736454 -0.0368227 1.2685e-17 0 0.0451405 0.0902809 0.133687 0.177092 0.217095 0.257098 0.292161 0.327224 0.356 0.384775 0.406157 0.427539 0.440706 0.453873 0.458319 0.462765 0.458319 0.453873 0.440706 0.427539 0.406157 0.384775 0.356 0.327224 0.292161 0.257098 0.217095 0.177092 0.133687 0.0902809 0.0451405 -1.9745e-16 -0.0451405 -0.0902809 -0.133687 -0.177092 -0.217095 -0.257098 -0.292161 -0.327224 -0.356 -0.384775 -0.406157 -0.427539 -0.440706 -0.453873 -0.458319 -0.462765 -0.458319 -0.453873 -0.440706 -0.427539 -0.406157 -0.384775 -0.356 -0.327224 -0.292161 -0.257098 -0.217095 -0.177092 -0.133687 -0.0902809 -0.0451405 1.55504e-17 0 0.0534583 0.106917 0.15832 0.209724 0.257098 0.304472 0.345996 0.38752 0.421598 0.455675 0.480997 0.506319 0.521912 0.537506 0.542771 0.548036 0.542771 0.537506 0.521912 0.506319 0.480997 0.455675 0.421598 0.38752 0.345996 0.304472 0.257098 0.209724 0.15832 0.106917 0.0534583 -8.03212e-17 -0.0534583 -0.106917 -0.15832 -0.209724 -0.257098 -0.304472 -0.345996 -0.38752 -0.421598 -0.455675 -0.480997 -0.506319 -0.521912 -0.537506 -0.542771 -0.548036 -0.542771 -0.537506 -0.521912 -0.506319 -0.480997 -0.455675 -0.421598 -0.38752 -0.345996 -0.304472 -0.257098 -0.209724 -0.15832 -0.106917 -0.0534583 1.84158e-17 0 0.0607489 0.121498 0.179912 0.238326 0.292161 0.345996 0.393183 0.44037 0.479095 0.51782 0.546595 0.575371 0.59309 0.61081 0.616793 0.622777 0.616793 0.61081 0.59309 0.575371 0.546595 0.51782 0.479095 0.44037 0.393183 0.345996 0.292161 0.238326 0.179912 0.121498 0.0607489 1.75582e-17 -0.0607489 -0.121498 -0.179912 -0.238326 -0.292161 -0.345996 -0.393183 -0.44037 -0.479095 -0.51782 -0.546595 -0.575371 -0.59309 -0.61081 -0.616793 -0.622777 -0.616793 -0.61081 -0.59309 -0.575371 -0.546595 -0.51782 -0.479095 -0.44037 -0.393183 -0.345996 -0.292161 -0.238326 -0.179912 -0.121498 -0.0607489 2.09273e-17 0 0.0680395 0.136079 0.201504 0.266928 0.327224 0.38752 0.44037 0.493219 0.536592 0.579965 0.612193 0.644422 0.664268 0.684115 0.690816 0.697517 0.690816 0.684115 0.664268 0.644422 0.612193 0.579965 0.536592 0.493219 0.44037 0.38752 0.327224 0.266928 0.201504 0.136079 0.0680395 1.15438e-16 -0.0680395 -0.136079 -0.201504 -0.266928 -0.327224 -0.38752 -0.44037 -0.493219 -0.536592 -0.579965 -0.612193 -0.644422 -0.664268 -0.684115 -0.690816 -0.697517 -0.690816 -0.684115 -0.664268 -0.644422 -0.612193 -0.579965 -0.536592 -0.493219 -0.44037 -0.38752 -0.327224 -0.266928 -0.201504 -0.136079 -0.0680395 2.34389e-17 0 0.0740227 0.148045 0.219223 0.290401 0.356 0.421598 0.479095 0.536592 0.583779 0.630965 0.666028 0.701091 0.722683 0.744274 0.751565 0.758856 0.751565 0.744274 0.722683 0.701091 0.666028 0.630965 0.583779 0.536592 0.479095 0.421598 0.356 0.290401 0.219223 0.148045 0.0740227 1.6516e-16 -0.0740227 -0.148045 -0.219223 -0.290401 -0.356 -0.421598 -0.479095 -0.536592 -0.583779 -0.630965 -0.666028 -0.701091 -0.722683 -0.744274 -0.751565 -0.758856 -0.751565 -0.744274 -0.722683 -0.701091 -0.666028 -0.630965 -0.583779 -0.536592 -0.479095 -0.421598 -0.356 -0.290401 -0.219223 -0.148045 -0.0740227 2.55e-17 0 0.0800059 0.160012 0.236943 0.313875 0.384775 0.455675 0.51782 0.579965 0.630965 0.681966 0.719863 0.75776 0.781097 0.804434 0.812314 0.820194 0.812314 0.804434 0.781097 0.75776 0.719863 0.681966 0.630965 0.579965 0.51782 0.455675 0.384775 0.313875 0.236943 0.160012 0.0800059 2.14882e-16 -0.0800059 -0.160012 -0.236943 -0.313875 -0.384775 -0.455675 -0.51782 -0.579965 -0.630965 -0.681966 -0.719863 -0.75776 -0.781097 -0.804434 -0.812314 -0.820194 -0.812314 -0.804434 -0.781097 -0.75776 -0.719863 -0.681966 -0.630965 -0.579965 -0.51782 -0.455675 -0.384775 -0.313875 -0.236943 -0.160012 -0.0800059 2.75612e-17 0 0.0844519 0.168904 0.25011 0.331317 0.406157 0.480997 0.546595 0.612193 0.666028 0.719863 0.759866 0.799869 0.824503 0.849137 0.857454 0.865772 0.857454 0.849137 0.824503 0.799869 0.759866 0.719863 0.666028 0.612193 0.546595 0.480997 0.406157 0.331317 0.25011 0.168904 0.0844519 2.21993e-16 -0.0844519 -0.168904 -0.25011 -0.331317 -0.406157 -0.480997 -0.546595 -0.612193 -0.666028 -0.719863 -0.759866 -0.799869 -0.824503 -0.849137 -0.857454 -0.865772 -0.857454 -0.849137 -0.824503 -0.799869 -0.759866 -0.719863 -0.666028 -0.612193 -0.546595 -0.480997 -0.406157 -0.331317 -0.25011 -0.168904 -0.0844519 2.90928e-17 0 0.0888978 0.177796 0.263277 0.348759 0.427539 0.506319 0.575371 0.644422 0.701091 0.75776 0.799869 0.841978 0.867909 0.893839 0.902595 0.91135 0.902595 0.893839 0.867909 0.841978 0.799869 0.75776 0.701091 0.644422 0.575371 0.506319 0.427539 0.348759 0.263277 0.177796 0.0888978 2.29105e-16 -0.0888978 -0.177796 -0.263277 -0.348759 -0.427539 -0.506319 -0.575371 -0.644422 -0.701091 -0.75776 -0.799869 -0.841978 -0.867909 -0.893839 -0.902595 -0.91135 -0.902595 -0.893839 -0.867909 -0.841978 -0.799869 -0.75776 -0.701091 -0.644422 -0.575371 -0.506319 -0.427539 -0.348759 -0.263277 -0.177796 -0.0888978 3.06244e-17 0 0.0916356 0.183271 0.271385 0.359499 0.440706 0.521912 0.59309 0.664268 0.722683 0.781097 0.824503 0.867909 0.894638 0.921367 0.930392 0.939417 0.930392 0.921367 0.894638 0.867909 0.824503 0.781097 0.722683 0.664268 0.59309 0.521912 0.440706 0.359499 0.271385 0.183271 0.0916356 2.55995e-16 -0.0916356 -0.183271 -0.271385 -0.359499 -0.440706 -0.521912 -0.59309 -0.664268 -0.722683 -0.781097 -0.824503 -0.867909 -0.894638 -0.921367 -0.930392 -0.939417 -0.930392 -0.921367 -0.894638 -0.867909 -0.824503 -0.781097 -0.722683 -0.664268 -0.59309 -0.521912 -0.440706 -0.359499 -0.271385 -0.183271 -0.0916356 3.15675e-17 0 0.0943734 0.188747 0.279494 0.37024 0.453873 0.537506 0.61081 0.684115 0.744274 0.804434 0.849137 0.893839 0.921367 0.948895 0.95819 0.967484 0.95819 0.948895 0.921367 0.893839 0.849137 0.804434 0.744274 0.684115 0.61081 0.537506 0.453873 0.37024 0.279494 0.188747 0.0943734 2.82885e-16 -0.0943734 -0.188747 -0.279494 -0.37024 -0.453873 -0.537506 -0.61081 -0.684115 -0.744274 -0.804434 -0.849137 -0.893839 -0.921367 -0.948895 -0.95819 -0.967484 -0.95819 -0.948895 -0.921367 -0.893839 -0.849137 -0.804434 -0.744274 -0.684115 -0.61081 -0.537506 -0.453873 -0.37024 -0.279494 -0.188747 -0.0943734 3.25107e-17 0 0.0952979 0.190596 0.282231 0.373867 0.458319 0.542771 0.616793 0.690816 0.751565 0.812314 0.857454 0.902595 0.930392 0.95819 0.967576 0.976962 0.967576 0.95819 0.930392 0.902595 0.857454 0.812314 0.751565 0.690816 0.616793 0.542771 0.458319 0.373867 0.282231 0.190596 0.0952979 3.49771e-16 -0.0952979 -0.190596 -0.282231 -0.373867 -0.458319 -0.542771 -0.616793 -0.690816 -0.751565 -0.812314 -0.857454 -0.902595 -0.930392 -0.95819 -0.967576 -0.976962 -0.967576 -0.95819 -0.930392 -0.902595 -0.857454 -0.812314 -0.751565 -0.690816 -0.616793 -0.542771 -0.458319 -0.373867 -0.282231 -0.190596 -0.0952979 3.28291e-17 0 0.0962223 0.192445 0.284969 0.377494 0.462765 0.548036 0.622777 0.697517 0.758856 0.820194 0.865772 0.91135 0.939417 0.967484 0.976962 0.986439 0.976962 0.967484 0.939417 0.91135 0.865772 0.820194 0.758856 0.697517 0.622777 0.548036 0.462765 0.377494 0.284969 0.192445 0.0962223 4.16658e-16 -0.0962223 -0.192445 -0.284969 -0.377494 -0.462765 -0.548036 -0.622777