<?xml version="1.0"?> 
<VTKFile type="StructuredGrid" version="0.1"> 
<StructuredGrid WholeExtent="0 64 0 64 0 0"> 
<Piece Extent="0 64 0 64 0 0"> 
<PointData>
<DataArray type="Float32" Name="u" format="ascii" NumberOfComponents="1"> 
0 0 0 0 0 0 0 0 0 0 0 0 0 0 0 0 0 0 0 0 0 0 0 0 0 0 0 0 0 0 0 0 0 0 0 0 0 0 0 0 0 0 0 0 0 0 0 0 0 0 0 0 0 0 0 0 0 0 0 0 0 0 0 0 0 0 -0.00914276 -0.0182855 -0.0270769 -0.0358684 -0.0439706 -0.0520728 -0.0591744 -0.0662761 -0.0721042 -0.0779324 -0.0822631 -0.0865939 -0.0892607 -0.0919276 -0.092828 -0.0937285 -0.092828 -0.0919276 -0.0892607 -0.0865939 -0.0822631 -0.0779324 -0.0721042 -0.0662761 -0.0591744 -0.0520728 -0.0439706 -0.0358684 -0.0270769 -0.0182855 -0.00914276 -2.95414e-16 0.00914276 0.0182855 0.0270769 0.0358684 0.0439706 0.0520728 0.0591744 0.0662761 0.0721042 0.0779324 0.0822631 0.0865939 0.0892607 0.0919276 0.092828 0.0937285 0.092828 0.0919276 0.0892607 0.0865939 0.0822631 0.0779324 0.0721042 0.0662761 0.0591744 0.0520728 0.0439706 0.0358684 0.0270769 0.0182855 0.00914276 -3.23339e-18 0 -0.0182855 -0.0365711 -0.0541539 -0.0717367 -0.0879411 -0.104146 -0.118349 -0.132552 -0.144208 -0.155865 -0.164526 -0.173188 -0.178521 -0.183855 -0.185656 -0.187457 -0.185656 -0.183855 -0.178521 -0.173188 -0.164526 -0.155865 -0.144208 -0.132552 -0.118349 -0.104146 -0.0879411 -0.0717367 -0.0541539 -0.0365711 -0.0182855 -5.90827e-16 0.0182855 0.0365711 0.0541539 0.0717367 0.0879411 0.104146 0.118349 0.132552 0.144208 0.155865 0.164526 0.173188 0.178521 0.183855 0.185656 0.187457 0.185656 0.183855 0.178521 0.173188 0.164526 0.155865 0.144208 0.132552 0.118349 0.104146 0.0879411 0.0717367 0.0541539 0.0365711 0.0182855 -6.46677e-18 0 -0.0270769 -0.0541539 -0.0801903 -0.106227 -0.130222 -0.154217 -0.175249 -0.196281 -0.213542 -0.230802 -0.243628 -0.256454 -0.264352 -0.27225 -0.274917 -0.277584 -0.274917 -0.27225 -0.264352 -0.256454 -0.243628 -0.230802 -0.213542 -0.196281 -0.175249 -0.154217 -0.130222 -0.106227 -0.0801903 -0.0541539 -0.0270769 -8.57869e-16 0.0270769 0.0541539 0.0801903 0.106227 0.130222 0.154217 0.175249 0.196281 0.213542 0.230802 0.243628 0.256454 0.264352 0.27225 0.274917 0.277584 0.274917 0.27225 0.264352 0.256454 0.243628 0.230802 0.213542 0.196281 0.175249 0.154217 0.130222 0.106227 0.0801903 0.0541539 0.0270769 -9.5759e-18 0 -0.0358684 -0.0717367 -0.106227 -0.140717 -0.172503 -0.204289 -0.23215 -0.26001 -0.282875 -0.30574 -0.32273 -0.33972 -0.350182 -0.360645 -0.364177 -0.36771 -0.364177 -0.360645 -0.350182 -0.33972 -0.32273 -0.30574 -0.282875 -0.26001 -0.23215 -0.204289 -0.172503 -0.140717 -0.106227 -0.0717367 -0.0358684 -1.12491e-15 0.0358684 0.0717367 0.106227 0.140717 0.172503 0.204289 0.23215 0.26001 0.282875 0.30574 0.32273 0.33972 0.350182 0.360645 0.364177 0.36771 0.364177 0.360645 0.350182 0.33972 0.32273 0.30574 0.282875 0.26001 0.23215 0.204289 0.172503 0.140717 0.106227 0.0717367 0.0358684 -1.2685e-17 0 -0.0439706 -0.0879411 -0.130222 -0.172503 -0.211469 -0.250435 -0.284589 -0.318743 -0.346773 -0.374803 -0.395631 -0.416458 -0.429284 -0.44211 -0.446441 -0.450771 -0.446441 -0.44211 -0.429284 -0.416458 -0.395631 -0.374803 -0.346773 -0.318743 -0.284589 -0.250435 -0.211469 -0.172503 -0.130222 -0.0879411 -0.0439706 -1.39061e-15 0.0439706 0.0879411 0.130222 0.172503 0.211469 0.250435 0.284589 0.318743 0.346773 0.374803 0.395631 0.416458 0.429284 0.44211 0.446441 0.450771 0.446441 0.44211 0.429284 0.416458 0.395631 0.374803 0.346773 0.318743 0.284589 0.250435 0.211469 0.172503 0.130222 0.0879411 0.0439706 -1.55504e-17 0 -0.0520728 -0.104146 -0.154217 -0.204289 -0.250435 -0.296581 -0.337029 -0.377477 -0.410671 -0.443865 -0.468531 -0.493197 -0.508386 -0.523575 -0.528704 -0.533832 -0.528704 -0.523575 -0.508386 -0.493197 -0.468531 -0.443865 -0.410671 -0.377477 -0.337029 -0.296581 -0.250435 -0.204289 -0.154217 -0.104146 -0.0520728 -1.65631e-15 0.0520728 0.104146 0.154217 0.204289 0.250435 0.296581 0.337029 0.377477 0.410671 0.443865 0.468531 0.493197 0.508386 0.523575 0.528704 0.533832 0.528704 0.523575 0.508386 0.493197 0.468531 0.443865 0.410671 0.377477 0.337029 0.296581 0.250435 0.204289 0.154217 0.104146 0.0520728 -1.84158e-17 0 -0.0591744 -0.118349 -0.175249 -0.23215 -0.284589 -0.337029 -0.382993 -0.428957 -0.466678 -0.5044 -0.532429 -0.560459 -0.577719 -0.59498 -0.600808 -0.606636 -0.600808 -0.59498 -0.577719 -0.560459 -0.532429 -0.5044 -0.466678 -0.428957 -0.382993 -0.337029 -0.284589 -0.23215 -0.175249 -0.118349 -0.0591744 -1.94242e-15 0.0591744 0.118349 0.175249 0.23215 0.284589 0.337029 0.382993 0.428957 0.466678 0.5044 0.532429 0.560459 0.577719 0.59498 0.600808 0.606636 0.600808 0.59498 0.577719 0.560459 0.532429 0.5044 0.466678 0.428957 0.382993 0.337029 0.284589 0.23215 0.175249 0.118349 0.0591744 -2.09273e-17 0 -0.0662761 -0.132552 -0.196281 -0.26001 -0.318743 -0.377477 -0.428957 -0.480437 -0.522685 -0.564934 -0.596327 -0.627721 -0.647053 -0.666385 -0.672912 -0.67944 -0.672912 -0.666385 -0.647053 -0.627721 -0.596327 -0.564934 -0.522685 -0.480437 -0.428957 -0.377477 -0.318743 -0.26001 -0.196281 -0.132552 -0.0662761 -2.22853e-15 0.0662761 0.132552 0.196281 0.26001 0.318743 0.377477 0.428957 0.480437 0.522685 0.564934 0.596327 0.627721 0.647053 0.666385 0.672912 0.67944 0.672912 0.666385 0.647053 0.627721 0.596327 0.564934 0.522685 0.480437 0.428957 0.377477 0.318743 0.26001 0.196281 0.132552 0.0662761 -2.34389e-17 0 -0.0721042 -0.144208 -0.213542 -0.282875 -0.346773 -0.410671 -0.466678 -0.522685 -0.568649 -0.614613 -0.648767 -0.682921 -0.703953 -0.724985 -0.732087 -0.739188 -0.732087 -0.724985 -0.703953 -0.682921 -0.648767 -0.614613 -0.568649 -0.522685 -0.466678 -0.410671 -0.346773 -0.282875 -0.213542 -0.144208 -0.0721042 -2.42195e-15 0.0721042 0.144208 0.213542 0.282875 0.346773 0.410671 0.466678 0.522685 0.568649 0.614613 0.648767 0.682921 0.703953 0.724985 0.732087 0.739188 0.732087 0.724985 0.703953 0.682921 0.648767 0.614613 0.568649 0.522685 0.466678 0.410671 0.346773 0.282875 0.213542 0.144208 0.0721042 -2.55e-17 0 -0.0779324 -0.155865 -0.230802 -0.30574 -0.374803 -0.443865 -0.5044 -0.564934 -0.614613 -0.664292 -0.701206 -0.738121 -0.760853 -0.783585 -0.791261 -0.798937 -0.791261 -0.783585 -0.760853 -0.738121 -0.701206 -0.664292 -0.614613 -0.564934 -0.5044 -0.443865 -0.374803 -0.30574 -0.230802 -0.155865 -0.0779324 -2.61537e-15 0.0779324 0.155865 0.230802 0.30574 0.374803 0.443865 0.5044 0.564934 0.614613 0.664292 0.701206 0.738121 0.760853 0.783585 0.791261 0.798937 0.791261 0.783585 0.760853 0.738121 0.701206 0.664292 0.614613 0.564934 0.5044 0.443865 0.374803 0.30574 0.230802 0.155865 0.0779324 -2.75612e-17 0 -0.0822631 -0.164526 -0.243628 -0.32273 -0.395631 -0.468531 -0.532429 -0.596327 -0.648767 -0.701206 -0.740173 -0.779139 -0.803134 -0.827129 -0.835232 -0.843334 -0.835232 -0.827129 -0.803134 -0.779139 -0.740173 -0.701206 -0.648767 -0.596327 -0.532429 -0.468531 -0.395631 -0.32273 -0.243628 -0.164526 -0.0822631 -2.82249e-15 0.0822631 0.164526 0.243628 0.32273 0.395631 0.468531 0.532429 0.596327 0.648767 0.701206 0.740173 0.779139 0.803134 0.827129 0.835232 0.843334 0.835232 0.827129 0.803134 0.779139 0.740173 0.701206 0.648767 0.596327 0.532429 0.468531 0.395631 0.32273 0.243628 0.164526 0.0822631 -2.90928e-17 0 -0.0865939 -0.173188 -0.256454 -0.33972 -0.416458 -0.493197 -0.560459 -0.627721 -0.682921 -0.738121 -0.779139 -0.820156 -0.845415 -0.870673 -0.879202 -0.887731 -0.879202 -0.870673 -0.845415 -0.820156 -0.779139 -0.738121 -0.682921 -0.627721 -0.560459 -0.493197 -0.416458 -0.33972 -0.256454 -0.173188 -0.0865939 -3.02962e-15 0.0865939 0.173188 0.256454 0.33972 0.416458 0.493197 0.560459 0.627721 0.682921 0.738121 0.779139 0.820156 0.845415 0.870673 0.879202 0.887731 0.879202 0.870673 0.845415 0.820156 0.779139 0.738121 0.682921 0.627721 0.560459 0.493197 0.416458 0.33972 0.256454 0.173188 0.0865939 -3.06244e-17 0 -0.0892607 -0.178521 -0.264352 -0.350182 -0.429284 -0.508386 -0.577719 -0.647053 -0.703953 -0.760853 -0.803134 -0.845415 -0.871451 -0.897488 -0.906279 -0.915071 -0.906279 -0.897488 -0.871451 -0.845415 -0.803134 -0.760853 -0.703953 -0.647053 -0.577719 -0.508386 -0.429284 -0.350182 -0.264352 -0.178521 -0.0892607 -3.07041e-15 0.0892607 0.178521 0.264352 0.350182 0.429284 0.508386 0.577719 0.647053 0.703953 0.760853 0.803134 0.845415 0.871451 0.897488 0.906279 0.915071 0.906279 0.897488 0.871451 0.845415 0.803134 0.760853 0.703953 0.647053 0.577719 0.508386 0.429284 0.350182 0.264352 0.178521 0.0892607 -3.15675e-17 0 -0.0919276 -0.183855 -0.27225 -0.360645 -0.44211 -0.523575 -0.59498 -0.666385 -0.724985 -0.783585 -0.827129 -0.870673 -0.897488 -0.924302 -0.933356 -0.94241 -0.933356 -0.924302 -0.897488 -0.870673 -0.827129 -0.783585 -0.724985 -0.666385 -0.59498 -0.523575 -0.44211 -0.360645 -0.27225 -0.183855 -0.0919276 -3.11119e-15 0.0919276 0.183855 0.27225 0.360645 0.44211 0.523575 0.59498 0.666385 0.724985 0.783585 0.827129 0.870673 0.897488 0.924302 0.933356 0.94241 0.933356 0.924302 0.897488 0.870673 0.827129 0.783585 0.724985 0.666385 0.59498 0.523575 0.44211 0.360645 0.27225 0.183855 0.0919276 -3.25107e-17 0 -0.092828 -0.185656 -0.274917 -0.364177 -0.446441 -0.528704 -0.600808 -0.672912 -0.732087 -0.791261 -0.835232 -0.879202 -0.906279 -0.933356 -0.942499 -0.951642 -0.942499 -0.933356 -0.906279 -0.879202 -0.835232 -0.791261 -0.732087 -0.672912 -0.600808 -0.528704 -0.446441 -0.364177 -0.274917 -0.185656 -0.092828 -3.10089e-15 0.092828 0.185656 0.274917 0.364177 0.446441 0.528704 0.600808 0.672912 0.732087 0.791261 0.835232 0.879202 0.906279 0.933356 0.942499 0.951642 0.942499 0.933356 0.906279 0.879202 0.835232 0.791261 0.732087 0.672912 0.600808 0.528704 0.446441 0.364177 0.274917 0.185656 0.092828 -3.28291e-17 0 -0.0937285 -0.187457 -0.277584 -0.36771 -0.450771 -0.533832 -0.606636 -0.67944 -0.739188 -0.798937 -0.843334 -0.887731 -0.915071 -0.94241 -0.951642 -0.960873 -0.951642 -0.94241 -0.915071 -0.887731 -0.843334 -0.798937 -0.739188 -0.67944 -0.606636 -0.533832 -0.450771 -0.36771 -0.277584 -0.187457 -0.0937285 -3.09058e-15 0.0937285 0.187457 0.277584 0.36771 0.450771 0.533832 0.606636 0.67944 0.739188 0.798937 0.843334 0.887731 0.915071 0.94241 0.951642 0.960873 0.951642 0.94241 0.915071 0.887731 0.843334 0.798937 0.739188 0.67944 0.606636 0.533832 0.450771 0.36771 0.277584 0.187457 0.0937285 -3.31476e-17 0 -0.092828 -0.185656 -0.274917 -0.364177 -0.446441 -0.528704 -0.600808 -0.672912 -0.732087 -0.791261 -0.835232 -0.879202 -0.906279 -0.933356 -0.942499 -0.951642 -0.942499 -0.933356 -0.906279 -0.879202 -0.835232 -0.791261 -0.732087 -0.672912 -0.600808 -0.528704 -0.446441 -0.364177 -0.274917 -0.185656 -0.092828 -2.96641e-15 0.092828 0.185656 0.274917 0.364177 0.446441 0.528704 0.600808 0.672912 0.732087 0.791261 0.835232 0.879202 0.906279 0.933356 0.942499 0.951642 0.942499 0.933356 0.906279 0.879202 0.835232 0.791261 0.732087 0.672912 0.600808 0.528704 0.446441 0.364177 0.274917 0.185656 0.092828 -3.28291e-17 0 -0.0919276 -0.183855 -0.27225 -0.360645 -0.44211 -0.523575 -0.59498 -0.666385 -0.724985 -0.783585 -0.827129 -0.870673 -0.897488 -0.924302 -0.933356 -0.94241 -0.933356 -0.924302 -0.897488 -0.870673 -0.827129 -0.783585 -0.724985 -0.666385 -0.59498 -0.523575 -0.44211 -0.360645 -0.27225 -0.183855 -0.0919276 -2.84224e-15 0.0919276 0.183855 0.27225 0.360645 0.44211 0.523575 0.59498 0.666385 0.724985 0.783585 0.827129 0.870673 0.897488 0.924302 0.933356 0.94241 0.933356 0.924302 0.897488 0.870673 0.827129 0.783585 0.724985 0.666385 0.59498 0.523575 0.44211 0.360645 0.27225 0.183855 0.0919276 -3.25107e-17 0 -0.0892607 -0.178521 -0.264352 -0.350182 -0.429284 -0.508386 -0.577719 -0.647053 -0.703953 -0.760853 -0.803134 -0.845415 -0.871451 -0.897488 -0.906279 -0.915071 -0.906279 -0.897488 -0.871451 -0.845415 -0.803134 -0.760853 -0.703953 -0.647053 -0.577719 -0.508386 -0.429284 -0.350182 -0.264352 -0.178521 -0.0892607 -2.71906e-15 0.0892607 0.178521 0.264352 0.350182 0.429284 0.508386 0.577719 0.647053 0.703953 0.760853 0.803134 0.845415 0.871451 0.897488 0.906279 0.915071 0.906279 0.897488 0.871451 0.845415 0.803134 0.760853 0.703953 0.647053 0.577719 0.508386 0.429284 0.350182 0.264352 0.178521 0.0892607 -3.15675e-17 0 -0.0865939 -0.173188 -0.256454 -0.33972 -0.416458 -0.493197 -0.560459 -0.627721 -0.682921 -0.738121 -0.779139 -0.820156 -0.845415 -0.870673 -0.879202 -0.887731 -0.879202 -0.870673 -0.845415 -0.820156 -0.779139 -0.738121 -0.682921 -0.627721 -0.560459 -0.493197 -0.416458 -0.33972 -0.256454 -0.173188 -0.0865939 -2.59588e-15 0.0865939 0.173188 0.256454 0.33972 0.416458 0.493197 0.560459 0.627721 0.682921 0.738121 0.779139 0.820156 0.845415 0.870673 0.879202 0.887731 0.879202 0.870673 0.845415 0.820156 0.779139 0.738121 0.682921 0.627721 0.560459 0.493197 0.416458 0.33972 0.256454 0.173188 0.0865939 -3.06244e-17 0 -0.0822631 -0.164526 -0.243628 -0.32273 -0.395631 -0.468531 -0.532429 -0.596327 -0.648767 -0.701206 -0.740173 -0.779139 -0.803134 -0.827129 -0.835232 -0.843334 -0.835232 -0.827129 -0.803134 -0.779139 -0.740173 -0.701206 -0.648767 -0.596327 -0.532429 -0.468531 -0.395631 -0.32273 -0.243628 -0.164526 -0.0822631 -2.50494e-15 0.0822631 0.164526 0.243628 0.32273 0.395631 0.468531 0.532429 0.596327 0.648767 0.701206 0.740173 0.779139 0.803134 0.827129 0.835232 0.843334 0.835232 0.827129 0.803134 0.779139 0.740173 0.701206 0.648767 0.596327 0.532429 0.468531 0.395631 0.32273 0.243628 0.164526 0.0822631 -2.90928e-17 0 -0.0779324 -0.155865 -0.230802 -0.30574 -0.374803 -0.443865 -0.5044 -0.564934 -0.614613 -0.664292 -0.701206 -0.738121 -0.760853 -0.783585 -0.791261 -0.798937 -0.791261 -0.783585 -0.760853 -0.738121 -0.701206 -0.664292 -0.614613 -0.564934 -0.5044 -0.443865 -0.374803 -0.30574 -0.230802 -0.155865 -0.0779324 -2.41399e-15 0.0779324 0.155865 0.230802 0.30574 0.374803 0.443865 0.5044 0.564934 0.614613 0.664292 0.701206 0.738121 0.760853 0.783585 0.791261 0.798937 0.791261 0.783585 0.760853 0.738121 0.701206 0.664292 0.614613 0.564934 0.5044 0.443865 0.374803 0.30574 0.230802 0.155865 0.0779324 -2.75612e-17 0 -0.0721042 -0.144208 -0.213542 -0.282875 -0.346773 -0.410671 -0.466678 -0.522685 -0.568649 -0.614613 -0.648767 -0.682921 -0.703953 -0.724985 -0.732087 -0.739188 -0.732087 -0.724985 -0.703953 -0.682921 -0.648767 -0.614613 -0.568649 -0.522685 -0.466678 -0.410671 -0.346773 -0.282875 -0.213542 -0.144208 -0.0721042 -2.27298e-15 0.0721042 0.144208 0.213542 0.282875 0.346773 0.410671 0.466678 0.522685 0.568649 0.614613 0.648767 0.682921 0.703953 0.724985 0.732087 0.739188 0.732087 0.724985 0.703953 0.682921 0.648767 0.614613 0.568649 0.522685 0.466678 0.410671 0.346773 0.282875 0.213542 0.144208 0.0721042 -2.55e-17 0 -0.0662761 -0.132552 -0.196281 -0.26001 -0.318743 -0.377477 -0.428957 -0.480437 -0.522685 -0.564934 -0.596327 -0.627721 -0.647053 -0.666385 -0.672912 -0.67944 -0.672912 -0.666385 -0.647053 -0.627721 -0.596327 -0.564934 -0.522685 -0.480437 -0.428957 -0.377477 -0.318743 -0.26001 -0.196281 -0.132552 -0.0662761 -2.13198e-15 0.0662761 0.132552 0.196281 0.26001 0.318743 0.377477 0.428957 0.480437 0.522685 0.564934 0.596327 0.627721 0.647053 0.666385 0.672912 0.67944 0.672912 0.666385 0.647053 0.627721 0.596327 0.564934 0.522685 0.480437 0.428957 0.377477 0.318743 0.26001 0.196281 0.132552 0.0662761 -2.34389e-17 0 -0.0591744 -0.118349 -0.175249 -0.23215 -0.284589 -0.337029 -0.382993 -0.428957 -0.466678 -0.5044 -0.532429 -0.560459 -0.577719 -0.59498 -0.600808 -0.606636 -0.600808 -0.59498 -0.577719 -0.560459 -0.532429 -0.5044 -0.466678 -0.428957 -0.382993 -0.337029 -0.284589 -0.23215 -0.175249 -0.118349 -0.0591744 -1.99583e-15 0.0591744 0.118349 0.175249 0.23215 0.284589 0.337029 0.382993 0.428957 0.466678 0.5044 0.532429 0.560459 0.577719 0.59498 0.600808 0.606636 0.600808 0.59498 0.577719 0.560459 0.532429 0.5044 0.466678 0.428957 0.382993 0.337029 0.284589 0.23215 0.175249 0.118349 0.0591744 -2.09273e-17 0 -0.0520728 -0.104146 -0.154217 -0.204289 -0.250435 -0.296581 -0.337029 -0.377477 -0.410671 -0.443865 -0.468531 -0.493197 -0.508386 -0.523575 -0.528704 -0.533832 -0.528704 -0.523575 -0.508386 -0.493197 -0.468531 -0.443865 -0.410671 -0.377477 -0.337029 -0.296581 -0.250435 -0.204289 -0.154217 -0.104146 -0.0520728 -1.85968e-15 0.0520728 0.104146 0.154217 0.204289 0.250435 0.296581 0.337029 0.377477 0.410671 0.443865 0.468531 0.493197 0.508386 0.523575 0.528704 0.533832 0.528704 0.523575 0.508386 0.493197 0.468531 0.443865 0.410671 0.377477 0.337029 0.296581 0.250435 0.204289 0.154217 0.104146 0.0520728 -1.84158e-17 0 -0.0439706 -0.0879411 -0.130222 -0.172503 -0.211469 -0.250435 -0.284589 -0.318743 -0.346773 -0.374803 -0.395631 -0.416458 -0.429284 -0.44211 -0.446441 -0.450771 -0.446441 -0.44211 -0.429284 -0.416458 -0.395631 -0.374803 -0.346773 -0.318743 -0.284589 -0.250435 -0.211469 -0.172503 -0.130222 -0.0879411 -0.0439706 -1.64715e-15 0.0439706 0.0879411 0.130222 0.172503 0.211469 0.250435 0.284589 0.318743 0.346773 0.374803 0.395631 0.416458 0.429284 0.44211 0.446441 0.450771 0.446441 0.44211 0.429284 0.416458 0.395631 0.374803 0.346773 0.318743 0.284589 0.250435 0.211469 0.172503 0.130222 0.0879411 0.0439706 -1.55504e-17 0 -0.0358684 -0.0717367 -0.106227 -0.140717 -0.172503 -0.204289 -0.23215 -0.26001 -0.282875 -0.30574 -0.32273 -0.33972 -0.350182 -0.360645 -0.364177 -0.36771 -0.364177 -0.360645 -0.350182 -0.33972 -0.32273 -0.30574 -0.282875 -0.26001 -0.23215 -0.204289 -0.172503 -0.140717 -0.106227 -0.0717367 -0.0358684 -1.43462e-15 0.0358684 0.0717367 0.106227 0.140717 0.172503 0.204289 0.23215 0.26001 0.282875 0.30574 0.32273 0.33972 0.350182 0.360645 0.364177 0.36771 0.364177 0.360645 0.350182 0.33972 0.32273 0.30574 0.282875 0.26001 0.23215 0.204289 0.172503 0.140717 0.106227 0.0717367 0.0358684 -1.2685e-17 0 -0.0270769 -0.0541539 -0.0801903 -0.106227 -0.130222 -0.154217 -0.175249 -0.196281 -0.213542 -0.230802 -0.243628 -0.256454 -0.264352 -0.27225 -0.274917 -0.277584 -0.274917 -0.27225 -0.264352 -0.256454 -0.243628 -0.230802 -0.213542 -0.196281 -0.175249 -0.154217 -0.130222 -0.106227 -0.0801903 -0.0541539 -0.0270769 -1.18225e-15 0.0270769 0.0541539 0.0801903 0.106227 0.130222 0.154217 0.175249 0.196281 0.213542 0.230802 0.243628 0.256454 0.264352 0.27225 0.274917 0.277584 0.274917 0.27225 0.264352 0.256454 0.243628 0.230802 0.213542 0.196281 0.175249 0.154217 0.130222 0.106227 0.0801903 0.0541539 0.0270769 -9.5759e-18 0 -0.0182855 -0.0365711 -0.0541539 -0.0717367 -0.0879411 -0.104146 -0.118349 -0.132552 -0.144208 -0.155865 -0.164526 -0.173188 -0.178521 -0.183855 -0.185656 -0.187457 -0.185656 -0.183855 -0.178521 -0.173188 -0.164526 -0.155865 -0.144208 -0.132552 -0.118349 -0.104146 -0.0879411 -0.0717367 -0.0541539 -0.0365711 -0.0182855 -9.29873e-16 0.0182855 0.0365711 0.0541539 0.0717367 0.0879411 0.104146 0.118349 0.132552 0.144208 0.155865 0.164526 0.173188 0.178521 0.183855 0.185656 0.187457 0.185656 0.183855 0.178521 0.173188 0.164526 0.155865 0.144208 0.132552 0.118349 0.104146 0.0879411 0.0717367 0.0541539 0.0365711 0.0182855 -6.46677e-18 0 -0.00914276 -0.0182855 -0.0270769 -0.0358684 -0.0439706 -0.0520728 -0.0591744 -0.0662761 -0.0721042 -0.0779324 -0.0822631 -0.0865939 -0.0892607 -0.0919276 -0.092828 -0.0937285 -0.092828 -0.0919276 -0.0892607 -0.0865939 -0.0822631 -0.0779324 -0.0721042 -0.0662761 -0.0591744 -0.0520728 -0.0439706 -0.0358684 -0.0270769 -0.0182855 -0.00914276 -6.71527e-16 0.00914276 0.0182855 0.0270769 0.0358684 0.0439706 0.0520728 0.0591744 0.0662761 0.0721042 0.0779324 0.0822631 0.0865939 0.0892607 0.0919276 0.092828 0.0937285 0.092828 0.0919276 0.0892607 0.0865939 0.0822631 0.0779324 0.0721042 0.0662761 0.0591744 0.0520728 0.0439706 0.0358684 0.0270769 0.0182855 0.00914276 -3.23339e-18 0 4.99415e-17 9.9883e-17 1.83594e-16 2.67305e-16 3.34734e-16 4.02164e-16 5.02114e-16 6.02064e-16 6.54117e-16 7.06169e-16 6.91262e-16 6.76355e-16 6.07492e-16 5.38629e-16 4.21111e-16 3.03594e-16 9.09305e-17 -1.21733e-16 -2.69429e-16 -4.17125e-16 -5.65725e-16 -7.14325e-16 -8.72042e-16 -1.02976e-15 -1.02079e-15 -1.01182e-15 -9.62478e-16 -9.13139e-16 -7.64243e-16 -6.15347e-16 -5.14264e-16 -4.13181e-16 -3.3733e-16 -2.61479e-16 -2.38783e-16 -2.16087e-16 -1.84018e-16 -1.5195e-16 -6.85538e-17 1.48427e-17 -4.38134e-17 -1.02469e-16 -2.12953e-16 -3.23437e-16 -2.50379e-16 -1.77322e-16 -2.13002e-16 -2.48682e-16 -1.74177e-16 -9.96734e-17 -2.51615e-16 -4.03557e-16 -2.95556e-16 -1.87556e-16 -1.95719e-16 -2.03882e-16 -1.58301e-16 -1.12719e-16 -9.18936e-17 -7.10681e-17 -7.52169e-17 -7.93657e-17 -3.96828e-17 -4.05941e-33 0 0.00914276 0.0182855 0.0270769 0.0358684 0.0439706 0.0520728 0.0591744 0.0662761 0.0721042 0.0779324 0.0822631 0.0865939 0.0892607 0.0919276 0.092828 0.0937285 0.092828 0.0919276 0.0892607 0.0865939 0.0822631 0.0779324 0.0721042 0.0662761 0.0591744 0.0520728 0.0439706 0.0358684 0.0270769 0.0182855 0.00914276 -1.29624e-16 -0.00914276 -0.0182855 -0.0270769 -0.0358684 -0.0439706 -0.0520728 -0.0591744 -0.0662761 -0.0721042 -0.0779324 -0.0822631 -0.0865939 -0.0892607 -0.0919276 -0.092828 -0.0937285 -0.092828 -0.0919276 -0.0892607 -0.0865939 -0.0822631 -0.0779324 -0.0721042 -0.0662761 -0.0591744 -0.0520728 -0.0439706 -0.0358684 -0.0270769 -0.0182855 -0.00914276 3.23339e-18 0 0.0182855 0.0365711 0.0541539 0.0717367 0.0879411 0.104146 0.118349 0.132552 0.144208 0.155865 0.164526 0.173188 0.178521 0.183855 0.185656 0.187457 0.185656 0.183855 0.178521 0.173188 0.164526 0.155865 0.144208 0.132552 0.118349 0.104146 0.0879411 0.0717367 0.0541539 0.0365711 0.0182855 1.53933e-16 -0.0182855 -0.0365711 -0.0541539 -0.0717367 -0.0879411 -0.104146 -0.118349 -0.132552 -0.144208 -0.155865 -0.164526 -0.173188 -0.178521 -0.183855 -0.185656 -0.187457 -0.185656 -0.183855 -0.178521 -0.173188 -0.164526 -0.155865 -0.144208 -0.132552 -0.118349 -0.104146 -0.0879411 -0.0717367 -0.0541539 -0.0365711 -0.0182855 6.46677e-18 0 0.0270769 0.0541539 0.0801903 0.106227 0.130222 0.154217 0.175249 0.196281 0.213542 0.230802 0.243628 0.256454 0.264352 0.27225 0.274917 0.277584 0.274917 0.27225 0.264352 0.256454 0.243628 0.230802 0.213542 0.196281 0.175249 0.154217 0.130222 0.106227 0.0801903 0.0541539 0.0270769 3.91053e-16 -0.0270769 -0.0541539 -0.0801903 -0.106227 -0.130222 -0.154217 -0.175249 -0.196281 -0.213542 -0.230802 -0.243628 -0.256454 -0.264352 -0.27225 -0.274917 -0.277584 -0.274917 -0.27225 -0.264352 -0.256454 -0.243628 -0.230802 -0.213542 -0.196281 -0.175249 -0.154217 -0.130222 -0.106227 -0.0801903 -0.0541539 -0.0270769 9.5759e-18 0 0.0358684 0.0717367 0.106227 0.140717 0.172503 0.204289 0.23215 0.26001 0.282875 0.30574 0.32273 0.33972 0.350182 0.360645 0.364177 0.36771 0.364177 0.360645 0.350182 0.33972 0.32273 0.30574 0.282875 0.26001 0.23215 0.204289 0.172503 0.140717 0.106227 0.0717367 0.0358684 6.28172e-16 -0.0358684 -0.0717367 -0.106227 -0.140717 -0.172503 -0.204289 -0.23215 -0.26001 -0.282875 -0.30574 -0.32273 -0.33972 -0.350182 -0.360645 -0.364177 -0.36771 -0.364177 -0.360645 -0.350182 -0.33972 -0.32273 -0.30574 -0.282875 -0.26001 -0.23215 -0.204289 -0.172503 -0.140717 -0.106227 -0.0717367 -0.0358684 1.2685e-17 0 0.0439706 0.0879411 0.130222 0.172503 0.211469 0.250435 0.284589 0.318743 0.346773 0.374803 0.395631 0.416458 0.429284 0.44211 0.446441 0.450771 0.446441 0.44211 0.429284 0.416458 0.395631 0.374803 0.346773 0.318743 0.284589 0.250435 0.211469 0.172503 0.130222 0.0879411 0.0439706 8.59333e-16 -0.0439706 -0.0879411 -0.130222 -0.172503 -0.211469 -0.250435 -0.284589 -0.318743 -0.346773 -0.374803 -0.395631 -0.416458 -0.429284 -0.44211 -0.446441 -0.450771 -0.446441 -0.44211 -0.429284 -0.416458 -0.395631 -0.374803 -0.346773 -0.318743 -0.284589 -0.250435 -0.211469 -0.172503 -0.130222 -0.0879411 -0.0439706 1.55504e-17 0 0.0520728 0.104146 0.154217 0.204289 0.250435 0.296581 0.337029 0.377477 0.410671 0.443865 0.468531 0.493197 0.508386 0.523575 0.528704 0.533832 0.528704 0.523575 0.508386 0.493197 0.468531 0.443865 0.410671 0.377477 0.337029 0.296581 0.250435 0.204289 0.154217 0.104146 0.0520728 1.09049e-15 -0.0520728 -0.104146 -0.154217 -0.204289 -0.250435 -0.296581 -0.337029 -0.377477 -0.410671 -0.443865 -0.468531 -0.493197 -0.508386 -0.523575 -0.528704 -0.533832 -0.528704 -0.523575 -0.508386 -0.493197 -0.468531 -0.443865 -0.410671 -0.377477 -0.337029 -0.296581 -0.250435 -0.204289 -0.154217 -0.104146 -0.0520728 1.84158e-17 0 0.0591744 0.118349 0.175249 0.23215 0.284589 0.337029 0.382993 0.428957 0.466678 0.5044 0.532429 0.560459 0.577719 0.59498 0.600808 0.606636 0.600808 0.59498 0.577719 0.560459 0.532429 0.5044 0.466678 0.428957 0.382993 0.337029 0.284589 0.23215 0.175249 0.118349 0.0591744 1.23706e-15 -0.0591744 -0.118349 -0.175249 -0.23215 -0.284589 -0.337029 -0.382993 -0.428957 -0.466678 -0.5044 -0.532429 -0.560459 -0.577719 -0.59498 -0.600808 -0.606636 -0.600808 -0.59498 -0.577719 -0.560459 -0.532429 -0.5044 -0.466678 -0.428957 -0.382993 -0.337029 -0.284589 -0.23215 -0.175249 -0.118349 -0.0591744 2.09273e-17 0 0.0662761 0.132552 0.196281 0.26001 0.318743 0.377477 0.428957 0.480437 0.522685 0.564934 0.596327 0.627721 0.647053 0.666385 0.672912 0.67944 0.672912 0.666385 0.647053 0.627721 0.596327 0.564934 0.522685 0.480437 0.428957 0.377477 0.318743 0.26001 0.196281 0.132552 0.0662761 1.38363e-15 -0.0662761 -0.132552 -0.196281 -0.26001 -0.318743 -0.377477 -0.428957 -0.480437 -0.522685 -0.564934 -0.596327 -0.627721 -0.647053 -0.666385 -0.672912 -0.67944 -0.672912 -0.666385 -0.647053 -0.627721 -0.596327 -0.564934 -0.522685 -0.480437 -0.428957 -0.377477 -0.318743 -0.26001 -0.196281 -0.132552 -0.0662761 2.34389e-17 0 0.0721042 0.144208 0.213542 0.282875 0.346773 0.410671 0.466678 0.522685 0.568649 0.614613 0.648767 0.682921 0.703953 0.724985 0.732087 0.739188 0.732087 0.724985 0.703953 0.682921 0.648767 0.614613 0.568649 0.522685 0.466678 0.410671 0.346773 0.282875 0.213542 0.144208 0.0721042 1.47945e-15 -0.0721042 -0.144208 -0.213542 -0.282875 -0.346773 -0.410671 -0.466678 -0.522685 -0.568649 -0.614613 -0.648767 -0.682921 -0.703953 -0.724985 -0.732087 -0.739188 -0.732087 -0.724985 -0.703953 -0.682921 -0.648767 -0.614613 -0.568649 -0.522685 -0.466678 -0.410671 -0.346773 -0.282875 -0.213542 -0.144208 -0.0721042 2.55e-17 0 0.0779324 0.155865 0.230802 0.30574 0.374803 0.443865 0.5044 0.564934 0.614613 0.664292 0.701206 0.738121 0.760853 0.783585 0.791261 0.798937 0.791261 0.783585 0.760853 0.738121 0.701206 0.664292 0.614613 0.564934 0.5044 0.443865 0.374803 0.30574 0.230802 0.155865 0.0779324 1.57528e-15 -0.0779324 -0.155865 -0.230802 -0.30574 -0.374803 -0.443865 -0.5044 -0.564934 -0.614613 -0.664292 -0.701206 -0.738121 -0.760853 -0.783585 -0.791261 -0.798937 -0.791261 -0.783585 -0.760853 -0.738121 -0.701206 -0.664292 -0.614613 -0.564934 -0.5044 -0.443865 -0.374803 -0.30574 -0.230802 -0.155865 -0.0779324 2.75612e-17 0 0.0822631 0.164526 0.243628 0.32273 0.395631 0.468531 0.532429 0.596327 0.648767 0.701206 0.740173 0.779139 0.803134 0.827129 0.835232 0.843334 0.835232 0.827129 0.803134 0.779139 0.740173 0.701206 0.648767 0.596327 0.532429 0.468531 0.395631 0.32273 0.243628 0.164526 0.0822631 1.49859e-15 -0.0822631 -0.164526 -0.243628 -0.32273 -0.395631 -0.468531 -0.532429 -0.596327 -0.648767 -0.701206 -0.740173 -0.779139 -0.803134 -0.827129 -0.835232 -0.843334 -0.835232 -0.827129 -0.803134 -0.779139 -0.740173 -0.701206 -0.648767 -0.596327 -0.532429 -0.468531 -0.395631 -0.32273 -0.243628 -0.164526 -0.0822631 2.90928e-17 0 0.0865939 0.173188 0.256454 0.33972 0.416458 0.493197 0.560459 0.627721 0.682921 0.738121 0.779139 0.820156 0.845415 0.870673 0.879202 0.887731 0.879202 0.870673 0.845415 0.820156 0.779139 0.738121 0.682921 0.627721 0.560459 0.493197 0.416458 0.33972 0.256454 0.173188 0.0865939 1.42191e-15 -0.0865939 -0.173188 -0.256454 -0.33972 -0.416458 -0.493197 -0.560459 -0.627721 -0.682921 -0.738121 -0.779139 -0.820156 -0.845415 -0.870673 -0.879202 -0.887731 -0.879202 -0.870673 -0.845415 -0.820156 -0.779139 -0.738121 -0.682921 -0.627721 -0.560459 -0.493197 -0.416458 -0.33972 -0.256454 -0.173188 -0.0865939 3.06244e-17 0 0.0892607 0.178521 0.264352 0.350182 0.429284 0.508386 0.577719 0.647053 0.703953 0.760853 0.803134 0.845415 0.871451 0.897488 0.906279 0.915071 0.906279 0.897488 0.871451 0.845415 0.803134 0.760853 0.703953 0.647053 0.577719 0.508386 0.429284 0.350182 0.264352 0.178521 0.0892607 1.3677e-15 -0.0892607 -0.178521 -0.264352 -0.350182 -0.429284 -0.508386 -0.577719 -0.647053 -0.703953 -0.760853 -0.803134 -0.845415 -0.871451 -0.897488 -0.906279 -0.915071 -0.906279 -0.897488 -0.871451 -0.845415 -0.803134 -0.760853 -0.703953 -0.647053 -0.577719 -0.508386 -0.429284 -0.350182 -0.264352 -0.178521 -0.0892607 3.15675e-17 0 0.0919276 0.183855 0.27225 0.360645 0.44211 0.523575 0.59498 0.666385 0.724985 0.783585 0.827129 0.870673 0.897488 0.924302 0.933356 0.94241 0.933356 0.924302 0.897488 0.870673 0.827129 0.783585 0.724985 0.666385 0.59498 0.523575 0.44211 0.360645 0.27225 0.183855 0.0919276 1.3135e-15 -0.0919276 -0.183855 -0.27225 -0.360645 -0.44211 -0.523575 -0.59498 -0.666385 -0.724985 -0.783585 -0.827129 -0.870673 -0.897488 -0.924302 -0.933356 -0.94241 -0.933356 -0.924302 -0.897488 -0.870673 -0.827129 -0.783585 -0.724985 -0.666385 -0.59498 -0.523575 -0.44211 -0.360645 -0.27225 -0.183855 -0.0919276 3.25107e-17 0 0.092828 0.185656 0.274917 0.364177 0.446441 0.528704 0.600808 0.672912 0.732087 0.791261 0.835232 0.879202 0.906279 0.933356 0.942499 0.951642 0.942499 0.933356 0.906279 0.879202 0.835232 0.791261 0.732087 0.672912 0.600808 0.528704 0.446441 0.364177 0.274917 0.185656 0.092828 1.23237e-15 -0.092828 -0.185656 -0.274917 -0.364177 -0.446441 -0.528704 -0.600808 -0.672912 -0.732087 -0.791261 -0.835232 -0.879202 -0.906279 -0.933356 -0.942499 -0.951642 -0.942499 -0.933356 -0.906279 -0.879202 -0.835232 -0.791261 -0.732087 -0.672912 -0.600808 -0.528704 -0.446441 -0.364177 -0.274917 -0.185656 -0.092828 3.28291e-17 0 0.0937285 0.187457 0.277584 0.36771 0.450771 0.533832 0.606636 0.67944 0.739188 0.798937 0.843334 0.887731 0.915071 0.94241 0.951642 0.960873 0.951642 0.94241 0.915071 0.887731 0.843334 0.798937 0.739188 0.67944 0.606636 0.533832 0.450771 0.36771 0.277584 0.187457 0.0937285 1.15124e-15 -0.0937285 -0.187457 -0.2