<?xml version="1.0"?> 
<VTKFile type="StructuredGrid" version="0.1"> 
<StructuredGrid WholeExtent="0 64 0 64 0 0"> 
<Piece Extent="0 64 0 64 0 0"> 
<PointData>
<DataArray type="Float32" Name="u" format="ascii" NumberOfComponents="1"> 
0 0 0 0 0 0 0 0 0 0 0 0 0 0 0 0 0 0 0 0 0 0 0 0 0 0 0 0 0 0 0 0 0 0 -0 -0 -0 -0 -0 -0 -0 -0 -0 -0 -0 -0 -0 -0 -0 -0 -0 -0 -0 -0 -0 -0 -0 -0 -0 -0 -0 -0 -0 -0 -0 0 0.00902824 0.0180565 0.0267378 0.035419 0.0434198 0.0514205 0.0584332 0.0654459 0.071201 0.0769562 0.0812327 0.0855091 0.0881426 0.090776 0.0916652 0.0925544 0.0916652 0.090776 0.0881426 0.0855091 0.0812327 0.0769562 0.071201 0.0654459 0.0584332 0.0514205 0.0434198 0.035419 0.0267378 0.0180565 0.00902824 4.02703e-16 -0.00902824 -0.0180565 -0.0267378 -0.035419 -0.0434198 -0.0514205 -0.0584332 -0.0654459 -0.071201 -0.0769562 -0.0812327 -0.0855091 -0.0881426 -0.090776 -0.0916652 -0.0925544 -0.0916652 -0.090776 -0.0881426 -0.0855091 -0.0812327 -0.0769562 -0.071201 -0.0654459 -0.0584332 -0.0514205 -0.0434198 -0.035419 -0.0267378 -0.0180565 -0.00902824 -3.23339e-18 0 0.0180565 0.0361129 0.0534755 0.0708381 0.0868395 0.102841 0.116866 0.130892 0.142402 0.153912 0.162465 0.171018 0.176285 0.181552 0.18333 0.185109 0.18333 0.181552 0.176285 0.171018 0.162465 0.153912 0.142402 0.130892 0.116866 0.102841 0.0868395 0.0708381 0.0534755 0.0361129 0.0180565 8.05406e-16 -0.0180565 -0.0361129 -0.0534755 -0.0708381 -0.0868395 -0.102841 -0.116866 -0.130892 -0.142402 -0.153912 -0.162465 -0.171018 -0.176285 -0.181552 -0.18333 -0.185109 -0.18333 -0.181552 -0.176285 -0.171018 -0.162465 -0.153912 -0.142402 -0.130892 -0.116866 -0.102841 -0.0868395 -0.0708381 -0.0534755 -0.0361129 -0.0180565 -6.46677e-18 0 0.0267378 0.0534755 0.0791858 0.104896 0.128591 0.152285 0.173054 0.193823 0.210867 0.227911 0.240576 0.253241 0.26104 0.26884 0.271473 0.274106 0.271473 0.26884 0.26104 0.253241 0.240576 0.227911 0.210867 0.193823 0.173054 0.152285 0.128591 0.104896 0.0791858 0.0534755 0.0267378 1.18451e-15 -0.0267378 -0.0534755 -0.0791858 -0.104896 -0.128591 -0.152285 -0.173054 -0.193823 -0.210867 -0.227911 -0.240576 -0.253241 -0.26104 -0.26884 -0.271473 -0.274106 -0.271473 -0.26884 -0.26104 -0.253241 -0.240576 -0.227911 -0.210867 -0.193823 -0.173054 -0.152285 -0.128591 -0.104896 -0.0791858 -0.0534755 -0.0267378 -9.5759e-18 0 0.035419 0.0708381 0.104896 0.138954 0.170342 0.20173 0.229242 0.256753 0.279332 0.30191 0.318687 0.335464 0.345796 0.356127 0.359616 0.363104 0.359616 0.356127 0.345796 0.335464 0.318687 0.30191 0.279332 0.256753 0.229242 0.20173 0.170342 0.138954 0.104896 0.0708381 0.035419 1.56361e-15 -0.035419 -0.0708381 -0.104896 -0.138954 -0.170342 -0.20173 -0.229242 -0.256753 -0.279332 -0.30191 -0.318687 -0.335464 -0.345796 -0.356127 -0.359616 -0.363104 -0.359616 -0.356127 -0.345796 -0.335464 -0.318687 -0.30191 -0.279332 -0.256753 -0.229242 -0.20173 -0.170342 -0.138954 -0.104896 -0.0708381 -0.035419 -1.2685e-17 0 0.0434198 0.0868395 0.128591 0.170342 0.20882 0.247298 0.281024 0.314751 0.342429 0.370108 0.390675 0.411242 0.423907 0.436572 0.440848 0.445125 0.440848 0.436572 0.423907 0.411242 0.390675 0.370108 0.342429 0.314751 0.281024 0.247298 0.20882 0.170342 0.128591 0.0868395 0.0434198 1.93301e-15 -0.0434198 -0.0868395 -0.128591 -0.170342 -0.20882 -0.247298 -0.281024 -0.314751 -0.342429 -0.370108 -0.390675 -0.411242 -0.423907 -0.436572 -0.440848 -0.445125 -0.440848 -0.436572 -0.423907 -0.411242 -0.390675 -0.370108 -0.342429 -0.314751 -0.281024 -0.247298 -0.20882 -0.170342 -0.128591 -0.0868395 -0.0434198 -1.55504e-17 0 0.0514205 0.102841 0.152285 0.20173 0.247298 0.292866 0.332807 0.372748 0.405527 0.438305 0.462662 0.487019 0.502018 0.517016 0.522081 0.527145 0.522081 0.517016 0.502018 0.487019 0.462662 0.438305 0.405527 0.372748 0.332807 0.292866 0.247298 0.20173 0.152285 0.102841 0.0514205 2.30241e-15 -0.0514205 -0.102841 -0.152285 -0.20173 -0.247298 -0.292866 -0.332807 -0.372748 -0.405527 -0.438305 -0.462662 -0.487019 -0.502018 -0.517016 -0.522081 -0.527145 -0.522081 -0.517016 -0.502018 -0.487019 -0.462662 -0.438305 -0.405527 -0.372748 -0.332807 -0.292866 -0.247298 -0.20173 -0.152285 -0.102841 -0.0514205 -1.84158e-17 0 0.0584332 0.116866 0.173054 0.229242 0.281024 0.332807 0.378195 0.423583 0.460832 0.498081 0.52576 0.553438 0.570482 0.587527 0.593282 0.599037 0.593282 0.587527 0.570482 0.553438 0.52576 0.498081 0.460832 0.423583 0.378195 0.332807 0.281024 0.229242 0.173054 0.116866 0.0584332 2.66753e-15 -0.0584332 -0.116866 -0.173054 -0.229242 -0.281024 -0.332807 -0.378195 -0.423583 -0.460832 -0.498081 -0.52576 -0.553438 -0.570482 -0.587527 -0.593282 -0.599037 -0.593282 -0.587527 -0.570482 -0.553438 -0.52576 -0.498081 -0.460832 -0.423583 -0.378195 -0.332807 -0.281024 -0.229242 -0.173054 -0.116866 -0.0584332 -2.09273e-17 0 0.0654459 0.130892 0.193823 0.256753 0.314751 0.372748 0.423583 0.474418 0.516138 0.557857 0.588857 0.619857 0.638947 0.658037 0.664483 0.670929 0.664483 0.658037 0.638947 0.619857 0.588857 0.557857 0.516138 0.474418 0.423583 0.372748 0.314751 0.256753 0.193823 0.130892 0.0654459 3.03266e-15 -0.0654459 -0.130892 -0.193823 -0.256753 -0.314751 -0.372748 -0.423583 -0.474418 -0.516138 -0.557857 -0.588857 -0.619857 -0.638947 -0.658037 -0.664483 -0.670929 -0.664483 -0.658037 -0.638947 -0.619857 -0.588857 -0.557857 -0.516138 -0.474418 -0.423583 -0.372748 -0.314751 -0.256753 -0.193823 -0.130892 -0.0654459 -2.34389e-17 0 0.071201 0.142402 0.210867 0.279332 0.342429 0.405527 0.460832 0.516138 0.561526 0.606914 0.64064 0.674366 0.695135 0.715903 0.722916 0.729929 0.722916 0.715903 0.695135 0.674366 0.64064 0.606914 0.561526 0.516138 0.460832 0.405527 0.342429 0.279332 0.210867 0.142402 0.071201 3.27194e-15 -0.071201 -0.142402 -0.210867 -0.279332 -0.342429 -0.405527 -0.460832 -0.516138 -0.561526 -0.606914 -0.64064 -0.674366 -0.695135 -0.715903 -0.722916 -0.729929 -0.722916 -0.715903 -0.695135 -0.674366 -0.64064 -0.606914 -0.561526 -0.516138 -0.460832 -0.405527 -0.342429 -0.279332 -0.210867 -0.142402 -0.071201 -2.55e-17 0 0.0769562 0.153912 0.227911 0.30191 0.370108 0.438305 0.498081 0.557857 0.606914 0.65597 0.692423 0.728875 0.751323 0.77377 0.781349 0.788929 0.781349 0.77377 0.751323 0.728875 0.692423 0.65597 0.606914 0.557857 0.498081 0.438305 0.370108 0.30191 0.227911 0.153912 0.0769562 3.51121e-15 -0.0769562 -0.153912 -0.227911 -0.30191 -0.370108 -0.438305 -0.498081 -0.557857 -0.606914 -0.65597 -0.692423 -0.728875 -0.751323 -0.77377 -0.781349 -0.788929 -0.781349 -0.77377 -0.751323 -0.728875 -0.692423 -0.65597 -0.606914 -0.557857 -0.498081 -0.438305 -0.370108 -0.30191 -0.227911 -0.153912 -0.0769562 -2.75612e-17 0 0.0812327 0.162465 0.240576 0.318687 0.390675 0.462662 0.52576 0.588857 0.64064 0.692423 0.730901 0.769379 0.793074 0.816768 0.824769 0.83277 0.824769 0.816768 0.793074 0.769379 0.730901 0.692423 0.64064 0.588857 0.52576 0.462662 0.390675 0.318687 0.240576 0.162465 0.0812327 3.73317e-15 -0.0812327 -0.162465 -0.240576 -0.318687 -0.390675 -0.462662 -0.52576 -0.588857 -0.64064 -0.692423 -0.730901 -0.769379 -0.793074 -0.816768 -0.824769 -0.83277 -0.824769 -0.816768 -0.793074 -0.769379 -0.730901 -0.692423 -0.64064 -0.588857 -0.52576 -0.462662 -0.390675 -0.318687 -0.240576 -0.162465 -0.0812327 -2.90928e-17 0 0.0855091 0.171018 0.253241 0.335464 0.411242 0.487019 0.553438 0.619857 0.674366 0.728875 0.769379 0.809883 0.834825 0.859767 0.868189 0.876611 0.868189 0.859767 0.834825 0.809883 0.769379 0.728875 0.674366 0.619857 0.553438 0.487019 0.411242 0.335464 0.253241 0.171018 0.0855091 3.95513e-15 -0.0855091 -0.171018 -0.253241 -0.335464 -0.411242 -0.487019 -0.553438 -0.619857 -0.674366 -0.728875 -0.769379 -0.809883 -0.834825 -0.859767 -0.868189 -0.876611 -0.868189 -0.859767 -0.834825 -0.809883 -0.769379 -0.728875 -0.674366 -0.619857 -0.553438 -0.487019 -0.411242 -0.335464 -0.253241 -0.171018 -0.0855091 -3.06244e-17 0 0.0881426 0.176285 0.26104 0.345796 0.423907 0.502018 0.570482 0.638947 0.695135 0.751323 0.793074 0.834825 0.860535 0.886245 0.894927 0.903608 0.894927 0.886245 0.860535 0.834825 0.793074 0.751323 0.695135 0.638947 0.570482 0.502018 0.423907 0.345796 0.26104 0.176285 0.0881426 3.96237e-15 -0.0881426 -0.176285 -0.26104 -0.345796 -0.423907 -0.502018 -0.570482 -0.638947 -0.695135 -0.751323 -0.793074 -0.834825 -0.860535 -0.886245 -0.894927 -0.903608 -0.894927 -0.886245 -0.860535 -0.834825 -0.793074 -0.751323 -0.695135 -0.638947 -0.570482 -0.502018 -0.423907 -0.345796 -0.26104 -0.176285 -0.0881426 -3.15675e-17 0 0.090776 0.181552 0.26884 0.356127 0.436572 0.517016 0.587527 0.658037 0.715903 0.77377 0.816768 0.859767 0.886245 0.912724 0.921664 0.930605 0.921664 0.912724 0.886245 0.859767 0.816768 0.77377 0.715903 0.658037 0.587527 0.517016 0.436572 0.356127 0.26884 0.181552 0.090776 3.96961e-15 -0.090776 -0.181552 -0.26884 -0.356127 -0.436572 -0.517016 -0.587527 -0.658037 -0.715903 -0.77377 -0.816768 -0.859767 -0.886245 -0.912724 -0.921664 -0.930605 -0.921664 -0.912724 -0.886245 -0.859767 -0.816768 -0.77377 -0.715903 -0.658037 -0.587527 -0.517016 -0.436572 -0.356127 -0.26884 -0.181552 -0.090776 -3.25107e-17 0 0.0916652 0.18333 0.271473 0.359616 0.440848 0.522081 0.593282 0.664483 0.722916 0.781349 0.824769 0.868189 0.894927 0.921664 0.930693 0.939721 0.930693 0.921664 0.894927 0.868189 0.824769 0.781349 0.722916 0.664483 0.593282 0.522081 0.440848 0.359616 0.271473 0.18333 0.0916652 3.95282e-15 -0.0916652 -0.18333 -0.271473 -0.359616 -0.440848 -0.522081 -0.593282 -0.664483 -0.722916 -0.781349 -0.824769 -0.868189 -0.894927 -0.921664 -0.930693 -0.939721 -0.930693 -0.921664 -0.894927 -0.868189 -0.824769 -0.781349 -0.722916 -0.664483 -0.593282 -0.522081 -0.440848 -0.359616 -0.271473 -0.18333 -0.0916652 -3.28291e-17 0 0.0925544 0.185109 0.274106 0.363104 0.445125 0.527145 0.599037 0.670929 0.729929 0.788929 0.83277 0.876611 0.903608 0.930605 0.939721 0.948837 0.939721 0.930605 0.903608 0.876611 0.83277 0.788929 0.729929 0.670929 0.599037 0.527145 0.445125 0.363104 0.274106 0.185109 0.0925544 3.93603e-15 -0.0925544 -0.185109 -0.274106 -0.363104 -0.445125 -0.527145 -0.599037 -0.670929 -0.729929 -0.788929 -0.83277 -0.876611 -0.903608 -0.930605 -0.939721 -0.948837 -0.939721 -0.930605 -0.903608 -0.876611 -0.83277 -0.788929 -0.729929 -0.670929 -0.599037 -0.527145 -0.445125 -0.363104 -0.274106 -0.185109 -0.0925544 -3.31476e-17 0 0.0916652 0.18333 0.271473 0.359616 0.440848 0.522081 0.593282 0.664483 0.722916 0.781349 0.824769 0.868189 0.894927 0.921664 0.930693 0.939721 0.930693 0.921664 0.894927 0.868189 0.824769 0.781349 0.722916 0.664483 0.593282 0.522081 0.440848 0.359616 0.271473 0.18333 0.0916652 3.78444e-15 -0.0916652 -0.18333 -0.271473 -0.359616 -0.440848 -0.522081 -0.593282 -0.664483 -0.722916 -0.781349 -0.824769 -0.868189 -0.894927 -0.921664 -0.930693 -0.939721 -0.930693 -0.921664 -0.894927 -0.868189 -0.824769 -0.781349 -0.722916 -0.664483 -0.593282 -0.522081 -0.440848 -0.359616 -0.271473 -0.18333 -0.0916652 -3.28291e-17 0 0.090776 0.181552 0.26884 0.356127 0.436572 0.517016 0.587527 0.658037 0.715903 0.77377 0.816768 0.859767 0.886245 0.912724 0.921664 0.930605 0.921664 0.912724 0.886245 0.859767 0.816768 0.77377 0.715903 0.658037 0.587527 0.517016 0.436572 0.356127 0.26884 0.181552 0.090776 3.63284e-15 -0.090776 -0.181552 -0.26884 -0.356127 -0.436572 -0.517016 -0.587527 -0.658037 -0.715903 -0.77377 -0.816768 -0.859767 -0.886245 -0.912724 -0.921664 -0.930605 -0.921664 -0.912724 -0.886245 -0.859767 -0.816768 -0.77377 -0.715903 -0.658037 -0.587527 -0.517016 -0.436572 -0.356127 -0.26884 -0.181552 -0.090776 -3.25107e-17 0 0.0881426 0.176285 0.26104 0.345796 0.423907 0.502018 0.570482 0.638947 0.695135 0.751323 0.793074 0.834825 0.860535 0.886245 0.894927 0.903608 0.894927 0.886245 0.860535 0.834825 0.793074 0.751323 0.695135 0.638947 0.570482 0.502018 0.423907 0.345796 0.26104 0.176285 0.0881426 3.46809e-15 -0.0881426 -0.176285 -0.26104 -0.345796 -0.423907 -0.502018 -0.570482 -0.638947 -0.695135 -0.751323 -0.793074 -0.834825 -0.860535 -0.886245 -0.894927 -0.903608 -0.894927 -0.886245 -0.860535 -0.834825 -0.793074 -0.751323 -0.695135 -0.638947 -0.570482 -0.502018 -0.423907 -0.345796 -0.26104 -0.176285 -0.0881426 -3.15675e-17 0 0.0855091 0.171018 0.253241 0.335464 0.411242 0.487019 0.553438 0.619857 0.674366 0.728875 0.769379 0.809883 0.834825 0.859767 0.868189 0.876611 0.868189 0.859767 0.834825 0.809883 0.769379 0.728875 0.674366 0.619857 0.553438 0.487019 0.411242 0.335464 0.253241 0.171018 0.0855091 3.30334e-15 -0.0855091 -0.171018 -0.253241 -0.335464 -0.411242 -0.487019 -0.553438 -0.619857 -0.674366 -0.728875 -0.769379 -0.809883 -0.834825 -0.859767 -0.868189 -0.876611 -0.868189 -0.859767 -0.834825 -0.809883 -0.769379 -0.728875 -0.674366 -0.619857 -0.553438 -0.487019 -0.411242 -0.335464 -0.253241 -0.171018 -0.0855091 -3.06244e-17 0 0.0812327 0.162465 0.240576 0.318687 0.390675 0.462662 0.52576 0.588857 0.64064 0.692423 0.730901 0.769379 0.793074 0.816768 0.824769 0.83277 0.824769 0.816768 0.793074 0.769379 0.730901 0.692423 0.64064 0.588857 0.52576 0.462662 0.390675 0.318687 0.240576 0.162465 0.0812327 3.18816e-15 -0.0812327 -0.162465 -0.240576 -0.318687 -0.390675 -0.462662 -0.52576 -0.588857 -0.64064 -0.692423 -0.730901 -0.769379 -0.793074 -0.816768 -0.824769 -0.83277 -0.824769 -0.816768 -0.793074 -0.769379 -0.730901 -0.692423 -0.64064 -0.588857 -0.52576 -0.462662 -0.390675 -0.318687 -0.240576 -0.162465 -0.0812327 -2.90928e-17 0 0.0769562 0.153912 0.227911 0.30191 0.370108 0.438305 0.498081 0.557857 0.606914 0.65597 0.692423 0.728875 0.751323 0.77377 0.781349 0.788929 0.781349 0.77377 0.751323 0.728875 0.692423 0.65597 0.606914 0.557857 0.498081 0.438305 0.370108 0.30191 0.227911 0.153912 0.0769562 3.07299e-15 -0.0769562 -0.153912 -0.227911 -0.30191 -0.370108 -0.438305 -0.498081 -0.557857 -0.606914 -0.65597 -0.692423 -0.728875 -0.751323 -0.77377 -0.781349 -0.788929 -0.781349 -0.77377 -0.751323 -0.728875 -0.692423 -0.65597 -0.606914 -0.557857 -0.498081 -0.438305 -0.370108 -0.30191 -0.227911 -0.153912 -0.0769562 -2.75612e-17 0 0.071201 0.142402 0.210867 0.279332 0.342429 0.405527 0.460832 0.516138 0.561526 0.606914 0.64064 0.674366 0.695135 0.715903 0.722916 0.729929 0.722916 0.715903 0.695135 0.674366 0.64064 0.606914 0.561526 0.516138 0.460832 0.405527 0.342429 0.279332 0.210867 0.142402 0.071201 2.87157e-15 -0.071201 -0.142402 -0.210867 -0.279332 -0.342429 -0.405527 -0.460832 -0.516138 -0.561526 -0.606914 -0.64064 -0.674366 -0.695135 -0.715903 -0.722916 -0.729929 -0.722916 -0.715903 -0.695135 -0.674366 -0.64064 -0.606914 -0.561526 -0.516138 -0.460832 -0.405527 -0.342429 -0.279332 -0.210867 -0.142402 -0.071201 -2.55e-17 0 0.0654459 0.130892 0.193823 0.256753 0.314751 0.372748 0.423583 0.474418 0.516138 0.557857 0.588857 0.619857 0.638947 0.658037 0.664483 0.670929 0.664483 0.658037 0.638947 0.619857 0.588857 0.557857 0.516138 0.474418 0.423583 0.372748 0.314751 0.256753 0.193823 0.130892 0.0654459 2.67015e-15 -0.0654459 -0.130892 -0.193823 -0.256753 -0.314751 -0.372748 -0.423583 -0.474418 -0.516138 -0.557857 -0.588857 -0.619857 -0.638947 -0.658037 -0.664483 -0.670929 -0.664483 -0.658037 -0.638947 -0.619857 -0.588857 -0.557857 -0.516138 -0.474418 -0.423583 -0.372748 -0.314751 -0.256753 -0.193823 -0.130892 -0.0654459 -2.34389e-17 0 0.0584332 0.116866 0.173054 0.229242 0.281024 0.332807 0.378195 0.423583 0.460832 0.498081 0.52576 0.553438 0.570482 0.587527 0.593282 0.599037 0.593282 0.587527 0.570482 0.553438 0.52576 0.498081 0.460832 0.423583 0.378195 0.332807 0.281024 0.229242 0.173054 0.116866 0.0584332 2.5282e-15 -0.0584332 -0.116866 -0.173054 -0.229242 -0.281024 -0.332807 -0.378195 -0.423583 -0.460832 -0.498081 -0.52576 -0.553438 -0.570482 -0.587527 -0.593282 -0.599037 -0.593282 -0.587527 -0.570482 -0.553438 -0.52576 -0.498081 -0.460832 -0.423583 -0.378195 -0.332807 -0.281024 -0.229242 -0.173054 -0.116866 -0.0584332 -2.09273e-17 0 0.0514205 0.102841 0.152285 0.20173 0.247298 0.292866 0.332807 0.372748 0.405527 0.438305 0.462662 0.487019 0.502018 0.517016 0.522081 0.527145 0.522081 0.517016 0.502018 0.487019 0.462662 0.438305 0.405527 0.372748 0.332807 0.292866 0.247298 0.20173 0.152285 0.102841 0.0514205 2.38625e-15 -0.0514205 -0.102841 -0.152285 -0.20173 -0.247298 -0.292866 -0.332807 -0.372748 -0.405527 -0.438305 -0.462662 -0.487019 -0.502018 -0.517016 -0.522081 -0.527145 -0.522081 -0.517016 -0.502018 -0.487019 -0.462662 -0.438305 -0.405527 -0.372748 -0.332807 -0.292866 -0.247298 -0.20173 -0.152285 -0.102841 -0.0514205 -1.84158e-17 0 0.0434198 0.0868395 0.128591 0.170342 0.20882 0.247298 0.281024 0.314751 0.342429 0.370108 0.390675 0.411242 0.423907 0.436572 0.440848 0.445125 0.440848 0.436572 0.423907 0.411242 0.390675 0.370108 0.342429 0.314751 0.281024 0.247298 0.20882 0.170342 0.128591 0.0868395 0.0434198 2.15279e-15 -0.0434198 -0.0868395 -0.128591 -0.170342 -0.20882 -0.247298 -0.281024 -0.314751 -0.342429 -0.370108 -0.390675 -0.411242 -0.423907 -0.436572 -0.440848 -0.445125 -0.440848 -0.436572 -0.423907 -0.411242 -0.390675 -0.370108 -0.342429 -0.314751 -0.281024 -0.247298 -0.20882 -0.170342 -0.128591 -0.0868395 -0.0434198 -1.55504e-17 0 0.035419 0.0708381 0.104896 0.138954 0.170342 0.20173 0.229242 0.256753 0.279332 0.30191 0.318687 0.335464 0.345796 0.356127 0.359616 0.363104 0.359616 0.356127 0.345796 0.335464 0.318687 0.30191 0.279332 0.256753 0.229242 0.20173 0.170342 0.138954 0.104896 0.0708381 0.035419 1.91933e-15 -0.035419 -0.0708381 -0.104896 -0.138954 -0.170342 -0.20173 -0.229242 -0.256753 -0.279332 -0.30191 -0.318687 -0.335464 -0.345796 -0.356127 -0.359616 -0.363104 -0.359616 -0.356127 -0.345796 -0.335464 -0.318687 -0.30191 -0.279332 -0.256753 -0.229242 -0.20173 -0.170342 -0.138954 -0.104896 -0.0708381 -0.035419 -1.2685e-17 0 0.0267378 0.0534755 0.0791858 0.104896 0.128591 0.152285 0.173054 0.193823 0.210867 0.227911 0.240576 0.253241 0.26104 0.26884 0.271473 0.274106 0.271473 0.26884 0.26104 0.253241 0.240576 0.227911 0.210867 0.193823 0.173054 0.152285 0.128591 0.104896 0.0791858 0.0534755 0.0267378 1.69094e-15 -0.0267378 -0.0534755 -0.0791858 -0.104896 -0.128591 -0.152285 -0.173054 -0.193823 -0.210867 -0.227911 -0.240576 -0.253241 -0.26104 -0.26884 -0.271473 -0.274106 -0.271473 -0.26884 -0.26104 -0.253241 -0.240576 -0.227911 -0.210867 -0.193823 -0.173054 -0.152285 -0.128591 -0.104896 -0.0791858 -0.0534755 -0.0267378 -9.5759e-18 0 0.0180565 0.0361129 0.0534755 0.0708381 0.0868395 0.102841 0.116866 0.130892 0.142402 0.153912 0.162465 0.171018 0.176285 0.181552 0.18333 0.185109 0.18333 0.181552 0.176285 0.171018 0.162465 0.153912 0.142402 0.130892 0.116866 0.102841 0.0868395 0.0708381 0.0534755 0.0361129 0.0180565 1.46255e-15 -0.0180565 -0.0361129 -0.0534755 -0.0708381 -0.0868395 -0.102841 -0.116866 -0.130892 -0.142402 -0.153912 -0.162465 -0.171018 -0.176285 -0.181552 -0.18333 -0.185109 -0.18333 -0.181552 -0.176285 -0.171018 -0.162465 -0.153912 -0.142402 -0.130892 -0.116866 -0.102841 -0.0868395 -0.0708381 -0.0534755 -0.0361129 -0.0180565 -6.46677e-18 0 0.00902824 0.0180565 0.0267378 0.035419 0.0434198 0.0514205 0.0584332 0.0654459 0.071201 0.0769562 0.0812327 0.0855091 0.0881426 0.090776 0.0916652 0.0925544 0.0916652 0.090776 0.0881426 0.0855091 0.0812327 0.0769562 0.071201 0.0654459 0.0584332 0.0514205 0.0434198 0.035419 0.0267378 0.0180565 0.00902824 1.23578e-15 -0.00902824 -0.0180565 -0.0267378 -0.035419 -0.0434198 -0.0514205 -0.0584332 -0.0654459 -0.071201 -0.0769562 -0.0812327 -0.0855091 -0.0881426 -0.090776 -0.0916652 -0.0925544 -0.0916652 -0.090776 -0.0881426 -0.0855091 -0.0812327 -0.0769562 -0.071201 -0.0654459 -0.0584332 -0.0514205 -0.0434198 -0.035419 -0.0267378 -0.0180565 -0.00902824 -3.23339e-18 0 -2.52222e-16 -5.04444e-16 -7.53192e-16 -1.00194e-15 -1.20482e-15 -1.4077e-15 -1.66089e-15 -1.91409e-15 -2.04337e-15 -2.17266e-15 -2.17747e-15 -2.18229e-15 -2.12988e-15 -2.07747e-15 -1.94121e-15 -1.80495e-15 -1.45604e-15 -1.10713e-15 -8.91874e-16 -6.7662e-16 -3.64378e-16 -5.21352e-17 2.75848e-16 6.03831e-16 7.59721e-16 9.1561e-16 9.59445e-16 1.00328e-15 9.73806e-16 9.44333e-16 9.76672e-16 1.00901e-15 1.056e-15 1.10298e-15 1.17524e-15 1.24751e-15 1.25125e-15 1.25499e-15 1.24617e-15 1.23734e-15 1.31406e-15 1.39078e-15 1.53577e-15 1.68075e-15 1.5608e-15 1.44085e-15 1.43203e-15 1.42321e-15 1.30417e-15 1.18512e-15 1.27699e-15 1.36885e-15 1.11505e-15 8.61244e-16 8.08588e-16 7.55932e-16 6.46538e-16 5.37145e-16 4.75103e-16 4.1306e-16 3.4006e-16 2.6706e-16 1.3353e-16 -4.05941e-33 0 -0.00902824 -0.0180565 -0.0267378 -0.035419 -0.0434198 -0.0514205 -0.0584332 -0.0654459 -0.071201 -0.0769562 -0.0812327 -0.0855091 -0.0881426 -0.090776 -0.0916652 -0.0925544 -0.0916652 -0.090776 -0.0881426 -0.0855091 -0.0812327 -0.0769562 -0.071201 -0.0654459 -0.0584332 -0.0514205 -0.0434198 -0.035419 -0.0267378 -0.0180565 -0.00902824 7.69939e-16 0.00902824 0.0180565 0.0267378 0.035419 0.0434198 0.0514205 0.0584332 0.0654459 0.071201 0.0769562 0.0812327 0.0855091 0.0881426 0.090776 0.0916652 0.0925544 0.0916652 0.090776 0.0881426 0.0855091 0.0812327 0.0769562 0.071201 0.0654459 0.0584332 0.0514205 0.0434198 0.035419 0.0267378 0.0180565 0.00902824 3.23339e-18 -0 -0.0180565 -0.0361129 -0.0534755 -0.0708381 -0.0868395 -0.102841 -0.116866 -0.130892 -0.142402 -0.153912 -0.162465 -0.171018 -0.176285 -0.181552 -0.18333 -0.185109 -0.18333 -0.181552 -0.176285 -0.171018 -0.162465 -0.153912 -0.142402 -0.130892 -0.116866 -0.102841 -0.0868395 -0.0708381 -0.0534755 -0.0361129 -0.0180565 5.30867e-16 0.0180565 0.0361129 0.0534755 0.0708381 0.0868395 0.102841 0.116866 0.130892 0.142402 0.153912 0.162465 0.171018 0.176285 0.181552 0.18333 0.185109 0.18333 0.181552 0.176285 0.171018 0.162465 0.153912 0.142402 0.130892 0.116866 0.102841 0.0868395 0.0708381 0.0534755 0.0361129 0.0180565 6.46677e-18 -0 -0.0267378 -0.0534755 -0.0791858 -0.104896 -0.128591 -0.152285 -0.173054 -0.193823 -0.210867 -0.227911 -0.240576 -0.253241 -0.26104 -0.26884 -0.271473 -0.274106 -0.271473 -0.26884 -0.26104 -0.253241 -0.240576 -0.227911 -0.210867 -0.193823 -0.173054 -0.152285 -0.128591 -0.104896 -0.0791858 -0.0534755 -0.0267378 3.28452e-16 0.0267378 0.0534755 0.0791858 0.104896 0.128591 0.152285 0.173054 0.193823 0.210867 0.227911 0.240576 0.253241 0.26104 0.26884 0.271473 0.274106 0.271473 0.26884 0.26104 0.253241 0.240576 0.227911 0.210867 0.193823 0.173054 0.152285 0.128591 0.104896 0.0791858 0.0534755 0.0267378 9.5759e-18 -0 -0.035419 -0.0708381 -0.104896 -0.138954 -0.170342 -0.20173 -0.229242 -0.256753 -0.279332 -0.30191 -0.318687 -0.335464 -0.345796 -0.356127 -0.359616 -0.363104 -0.359616 -0.356127 -0.345796 -0.335464 -0.318687 -0.30191 -0.279332 -0.256753 -0.229242 -0.20173 -0.170342 -0.138954 -0.104896 -0.0708381 -0.035419 1.26037e-16 0.035419 0.0708381 0.104896 0.138954 0.170342 0.20173 0.229242 0.256753 0.279332 0.30191 0.318687 0.335464 0.345796 0.356127 0.359616 0.363104 0.359616 0.356127 0.345796 0.335464 0.318687 0.30191 0.279332 0.256753 0.229242 0.20173 0.170342 0.138954 0.104896 0.0708381 0.035419 1.2685e-17 -0 -0.0434198 -0.0868395 -0.128591 -0.170342 -0.20882 -0.247298 -0.281024 -0.314751 -0.342429 -0.370108 -0.390675 -0.411242 -0.423907 -0.436572 -0.440848 -0.445125 -0.440848 -0.436572 -0.423907 -0.411242 -0.390675 -0.370108 -0.342429 -0.314751 -0.281024 -0.247298 -0.20882 -0.170342 -0.128591 -0.0868395 -0.0434198 -9.47554e-17 0.0434198 0.0868395 0.128591 0.170342 0.20882 0.247298 0.281024 0.314751 0.342429 0.370108 0.390675 0.411242 0.423907 0.436572 0.440848 0.445125 0.440848 0.436572 0.423907 0.411242 0.390675 0.370108 0.342429 0.314751 0.281024 0.247298 0.20882 0.170342 0.128591 0.0868395 0.0434198 1.55504e-17 -0 -0.0514205 -0.102841 -0.152285 -0.20173 -0.247298 -0.292866 -0.332807 -0.372748 -0.405527 -0.438305 -0.462662 -0.487019 -0.502018 -0.517016 -0.522081 -0.527145 -0.522081 -0.517016 -0.502018 -0.487019 -0.462662 -0.438305 -0.405527 -0.372748 -0.332807 -0.292866 -0.247298 -0.20173 -0.152285 -0.102841 -0.0514205 -3.15548e-16 0.0514205 0.102841 0.152285 0.20173 0.247298 0.292866 0.332807 0.372748 0.405527 0.438305 0.462662 0.487019 0.502018 0.517016 0.522081 0.527145 0.522081 0.517016 0.502018 0.487019 0.462662 0.438305 0.405527 0.372748 0.332807 0.292866 0.247298 0.20173 0.152285 0.102841 0.0514205 1.84158e-17 -0 -0.0584332 -0.116866 -0.173054 -0.229242 -0.281024 -0.332807 -0.378195 -0.423583 -0.460832 -0.498081 -0.52576 -0.553438 -0.570482 -0.587527 -0.593282 -0.599037 -0.593282 -0.587527 -0.570482 -0.553438 -0.52576 -0.498081 -0.460832 -0.423583 -0.378195 -0.332807 -0.281024 -0.229242 -0.173054 -0.116866 -0.0584332 -4.83526e-16 0.0584332 0.116866 0.173054 0.229242 0.281024 0.332807 0.378195 0.423583 0.460832 0.498081 0.52576 0.553438 0.570482 0.587527 0.593282 0.599037 0.593282 0.587527 0.570482 0.553438 0.52576 0.498081 0.460832 0.423583 0.378195 0.332807 0.281024 0.229242 0.173054 0.116866 0.0584332 2.09273e-17 -0 -0.0654459 -0.130892 -0.193823 -0.256753 -0.314751 -0.372748 -0.423583 -0.474418 -0.516138 -0.557857 -0.588857 -0.619857 -0.638947 -0.658037 -0.664483 -0.670929 -0.664483 -0.658037 -0.638947 -0.619857 -0.588857 -0.557857 -0.516138 -0.474418 -0.423583 -0.372748 -0.314751 -0.256753 -0.193823 -0.130892 -0.0654459 -6.51504e-16 0.0654459 0.130892 0.193823 0.256753 0.314751 0.372748 0.423583 0.474418 0.516138 0.557857 0.588857 0.619857 0.638947 0.658037 0.664483 0.670929 0.664483 0.658037 0.638947 0.619857 0.588857 0.557857 0.516138 0.474418 0.423583 0.372748 0.314751 0.256753 0.193823 0.130892 0.0654459 2.34389e-17 -0 -0.071201 -0.142402 -0.210867 -0.279332 -0.342429 -0.405527 -0.460832 -0.516138 -0.561526 -0.606914 -0.64064 -0.674366 -0.695135 -0.715903 -0.722916 -0.729929 -0.722916 -0.715903 -0.695135 -0.674366 -0.64064 -0.606914 -0.561526 -0.516138 -0.460832 -0.405527 -0.342429 -0.279332 -0.210867 -0.142402 -0.071201 -7.71523e-16 0.071201 0.142402 0.210867 0.279332 0.342429 0.405527 0.460832 0.516138 0.561526 0.606914 0.64064 0.674366 0.695135 0.715903 0.722916 0.729929 0.722916 0.715903 0.695135 0.674366 0.64064 0.606914 0.561526 0.516138 0.460832 0.405527 0.342429 0.279332 0.210867 0.142402 0.071201 2.55e-17 -0 -0.0769562 -0.153912 -0.227911 -0.30191 -0.370108 -0.438305 -0.498081 -0.557857 -0.606914 -0.65597 -0.692423 -0.728875 -0.751323 -0.77377 -0.781349 -0.788929 -0.781349 -0.77377 -0.751323 -0.728875 -0.692423 -0.65597 -0.606914 -0.557857 -0.498081 -0.438305 -0.370108 -0.30191 -0.227911 -0.153912 -0.0769562 -8.91541e-16 0.0769562 0.153912 0.227911 0.30191 0.370108 0.438305 0.498081 0.557857 0.606914 0.65597 0.692423 0.728875 0.751323 0.77377 0.781349 0.788929 0.781349 0.77377 0.751323 0.728875 0.692423 0.65597 0.606914 0.557857 0.498081 0.438305 0.370108 0.30191 0.227911 0.153912 0.0769562 2.75612e-17 -0 -0.0812327 -0.162465 -0.240576 -0.318687 -0.390675 -0.462662 -0.52576 -0.588857 -0.64064 -0.692423 -0.730901 -0.769379 -0.793074 -0.816768 -0.824769 -0.83277 -0.824769 -0.816768 -0.793074 -0.769379 -0.730901 -0.692423 -0.64064 -0.588857 -0.52576 -0.462662 -0.390675 -0.318687 -0.240576 -0.162465 -0.0812327 -8.90461e-16 0.0812327 0.162465 0.240576 0.318687 0.390675 0.462662 0.52576 0.588857 0.64064 0.692423 0.730901 0.769379 0.793074 0.816768 0.824769 0.83277 0.824769 0.816768 0.793074 0.769379 0.730901 0.692423 0.64064 0.588857 0.52576 0.462662 0.390675 0.318687 0.240576 0.162465 0.0812327 2.90928e-17 -0 -0.0855091 -0.171018 -0.253241 -0.335464 -0.411242 -0.487019 -0.553438 -0.619857 -0.674366 -0.728875 -0.769379 -0.809883 -0.834825 -0.859767 -0.868189 -0.876611 -0.868189 -0.859767 -0.834825 -0.809883 -0.769379 -0.728875 -0.674366 -0.619857 -0.553438 -0.487019 -0.411242 -0.335464 -0.253241 -0.171018 -0.0855091 -8.89381e-16 0.0855091 0.171018 0.253241 0.335464 0.411242 0.487019 0.553438 0.619857 0.674366 0.728875 0.769379 0.809883 0.834825 0.859767 0.868189 0.876611 0.868189 0.859767 0.834825 0.809883 0.769379 0.728875 0.674366 0.619857 0.553438 0.487019 0.411242 0.335464 0.253241 0.171018 0.0855091 3.06244e-17 -0 -0.0881426 -0.176285 -0.26104 -0.345796 -0.423907 -0.502018 -0.570482 -0.638947 -0.695135 -0.751323 -0.793074 -0.834825 -0.860535 -0.886245 -0.894927 -0.903608 -0.894927 -0.886245 -0.860535 -0.834825 -0.793074 -0.751323 -0.695135 -0.638947 -0.570482 -0.502018 -0.423907 -0.345796 -0.26104 -0.176285 -0.0881426 -9.08177e-16 0.0881426 0.176285 0.26104 0.345796 0.423907 0.502018 0.570482 0.638947 0.695135 0.751323 0.793074 0.834825 0.860535 0.886245 0.894927 0.903608 0.894927 0.886245 0.860535 0.834825 0.793074 0.751323 0.695135 0.638947 0.570482 0.502018 0.423907 0.345796 0.26104 0.176285 0.0881426 3.15675e-17 -0 -0.090776 -0.181552 -0.26884 -0.356127 -0.436572 -0.517016 -0.587527 -0.658037 -0.715903 -0.77377 -0.816768 -0.859767 -0.886245 -0.912724 -0.921664 -0.930605 -0.921664 -0.912724 -0.886245 -0.859767 -0.816768 -0.77377 -0.715903 -0.658037 -0.587527 -0.517016 -0.436572 -0.356127 -0.26884 -0.181552 -0.090776 -9.26972e-16 0.090776 0.181552 0.26884 0.356127 0.436572 0.517016 0.587527 0.658037 0.715903 0.77377 0.816768 0.859767 0.886245 0.912724 0.921664 0.930605 0.921664 0.912724 0.886245 0.859767 0.816768 0.77377 0.715903 0.658037 0.587527 0.517016 0.436572 0.356127 0.26884 0.181552 0.090776 3.25107e-17 -0 -0.0916652 -0.18333 -0.271473 -0.359616 -0.440848 -0.522081 -0.593282 -0.664483 -0.722916 -0.781349 -0.824769 -0.868189 -0.894927 -0.921664 -0.930693 -0.939721 -0.930693 -0.921664 -0.894927 -0.868189 -0.824769 -0.781349 -0.722916 -0.664483 -0.593282 -0.522081 -0.440848 -0.359616 -0.271473 -0.18333 -0.0916652 -8.94011e-16 0.0916652 0.18333 0.271473 0.359616 0.440848 0.522081 0.593282 0.664483 0.722916 0.781349 0.824769 0.868189 0.894927 0.921664 0.930693 0.939721 0.930693 0.921664 0.894927 0.868189 0.824769 0.781349 0.722916 0.664483 0.593282 0.522081 0.440848 0.359616 0.271473 0.18333 0.0916652 3.28291e-17 -0 -0.0925544 -0.185109 -0.274106 -0.363104 -0.445125 -0.527145 -0.599037 -0.670929 -0.729929 -0.788929 -0.83277 -0.876611 -0.903608 -0.930605 -0.939721 -0.948837 -0.939721 -0.930605 -0.903608 -0.876611 -0.83277 -0.788929 -0.729929 -0.670929 -0.599037 -0.527145 -0.445125 -0.363104 -0.274106 -0.185109 -0.0925544 -8.6105e-1