<?xml version="1.0"?> 
<VTKFile type="StructuredGrid" version="0.1"> 
<StructuredGrid WholeExtent="0 64 0 64 0 0"> 
<Piece Extent="0 64 0 64 0 0"> 
<PointData>
<DataArray type="Float32" Name="u" format="ascii" NumberOfComponents="1"> 
0 0 0 0 0 0 0 0 0 0 0 0 0 0 0 0 0 0 0 0 0 0 0 0 0 0 0 0 0 0 0 0 0 0 -0 -0 -0 -0 -0 -0 -0 -0 -0 -0 -0 -0 -0 -0 -0 -0 -0 -0 -0 -0 -0 -0 -0 -0 -0 -0 -0 -0 -0 -0 -0 0 0.00916605 0.0183321 0.0271459 0.0359597 0.0440826 0.0522054 0.0593252 0.0664449 0.0722879 0.0781309 0.0824727 0.0868144 0.0894881 0.0921617 0.0930645 0.0939673 0.0930645 0.0921617 0.0894881 0.0868144 0.0824727 0.0781309 0.0722879 0.0664449 0.0593252 0.0522054 0.0440826 0.0359597 0.0271459 0.0183321 0.00916605 1.70552e-16 -0.00916605 -0.0183321 -0.0271459 -0.0359597 -0.0440826 -0.0522054 -0.0593252 -0.0664449 -0.0722879 -0.0781309 -0.0824727 -0.0868144 -0.0894881 -0.0921617 -0.0930645 -0.0939673 -0.0930645 -0.0921617 -0.0894881 -0.0868144 -0.0824727 -0.0781309 -0.0722879 -0.0664449 -0.0593252 -0.0522054 -0.0440826 -0.0359597 -0.0271459 -0.0183321 -0.00916605 -3.23339e-18 0 0.0183321 0.0366642 0.0542918 0.0719194 0.0881651 0.104411 0.11865 0.13289 0.144576 0.156262 0.164945 0.173629 0.178976 0.184323 0.186129 0.187935 0.186129 0.184323 0.178976 0.173629 0.164945 0.156262 0.144576 0.13289 0.11865 0.104411 0.0881651 0.0719194 0.0542918 0.0366642 0.0183321 3.41104e-16 -0.0183321 -0.0366642 -0.0542918 -0.0719194 -0.0881651 -0.104411 -0.11865 -0.13289 -0.144576 -0.156262 -0.164945 -0.173629 -0.178976 -0.184323 -0.186129 -0.187935 -0.186129 -0.184323 -0.178976 -0.173629 -0.164945 -0.156262 -0.144576 -0.13289 -0.11865 -0.104411 -0.0881651 -0.0719194 -0.0542918 -0.0366642 -0.0183321 -6.46677e-18 0 0.0271459 0.0542918 0.0803945 0.106497 0.130554 0.15461 0.175696 0.196781 0.214086 0.23139 0.244249 0.257107 0.265025 0.272943 0.275617 0.278291 0.275617 0.272943 0.265025 0.257107 0.244249 0.23139 0.214086 0.196781 0.175696 0.15461 0.130554 0.106497 0.0803945 0.0542918 0.0271459 4.81466e-16 -0.0271459 -0.0542918 -0.0803945 -0.106497 -0.130554 -0.15461 -0.175696 -0.196781 -0.214086 -0.23139 -0.244249 -0.257107 -0.265025 -0.272943 -0.275617 -0.278291 -0.275617 -0.272943 -0.265025 -0.257107 -0.244249 -0.23139 -0.214086 -0.196781 -0.175696 -0.15461 -0.130554 -0.106497 -0.0803945 -0.0542918 -0.0271459 -9.5759e-18 0 0.0359597 0.0719194 0.106497 0.141075 0.172942 0.204809 0.232741 0.260673 0.283596 0.306519 0.323552 0.340585 0.351074 0.361563 0.365105 0.368647 0.365105 0.361563 0.351074 0.340585 0.323552 0.306519 0.283596 0.260673 0.232741 0.204809 0.172942 0.141075 0.106497 0.0719194 0.0359597 6.21828e-16 -0.0359597 -0.0719194 -0.106497 -0.141075 -0.172942 -0.204809 -0.232741 -0.260673 -0.283596 -0.306519 -0.323552 -0.340585 -0.351074 -0.361563 -0.365105 -0.368647 -0.365105 -0.361563 -0.351074 -0.340585 -0.323552 -0.306519 -0.283596 -0.260673 -0.232741 -0.204809 -0.172942 -0.141075 -0.106497 -0.0719194 -0.0359597 -1.2685e-17 0 0.0440826 0.0881651 0.130554 0.172942 0.212008 0.251073 0.285314 0.319555 0.347656 0.375757 0.396638 0.417519 0.430378 0.443236 0.447578 0.45192 0.447578 0.443236 0.430378 0.417519 0.396638 0.375757 0.347656 0.319555 0.285314 0.251073 0.212008 0.172942 0.130554 0.0881651 0.0440826 7.52129e-16 -0.0440826 -0.0881651 -0.130554 -0.172942 -0.212008 -0.251073 -0.285314 -0.319555 -0.347656 -0.375757 -0.396638 -0.417519 -0.430378 -0.443236 -0.447578 -0.45192 -0.447578 -0.443236 -0.430378 -0.417519 -0.396638 -0.375757 -0.347656 -0.319555 -0.285314 -0.251073 -0.212008 -0.172942 -0.130554 -0.0881651 -0.0440826 -1.55504e-17 0 0.0522054 0.104411 0.15461 0.204809 0.251073 0.297337 0.337887 0.378438 0.411717 0.444996 0.469725 0.494453 0.509681 0.524909 0.53005 0.535192 0.53005 0.524909 0.509681 0.494453 0.469725 0.444996 0.411717 0.378438 0.337887 0.297337 0.251073 0.204809 0.15461 0.104411 0.0522054 8.8243e-16 -0.0522054 -0.104411 -0.15461 -0.204809 -0.251073 -0.297337 -0.337887 -0.378438 -0.411717 -0.444996 -0.469725 -0.494453 -0.509681 -0.524909 -0.53005 -0.535192 -0.53005 -0.524909 -0.509681 -0.494453 -0.469725 -0.444996 -0.411717 -0.378438 -0.337887 -0.297337 -0.251073 -0.204809 -0.15461 -0.104411 -0.0522054 -1.84158e-17 0 0.0593252 0.11865 0.175696 0.232741 0.285314 0.337887 0.383968 0.430049 0.467867 0.505684 0.533785 0.561886 0.579191 0.596495 0.602338 0.608181 0.602338 0.596495 0.579191 0.561886 0.533785 0.505684 0.467867 0.430049 0.383968 0.337887 0.285314 0.232741 0.175696 0.11865 0.0593252 1.04079e-15 -0.0593252 -0.11865 -0.175696 -0.232741 -0.285314 -0.337887 -0.383968 -0.430049 -0.467867 -0.505684 -0.533785 -0.561886 -0.579191 -0.596495 -0.602338 -0.608181 -0.602338 -0.596495 -0.579191 -0.561886 -0.533785 -0.505684 -0.467867 -0.430049 -0.383968 -0.337887 -0.285314 -0.232741 -0.175696 -0.11865 -0.0593252 -2.09273e-17 0 0.0664449 0.13289 0.196781 0.260673 0.319555 0.378438 0.430049 0.48166 0.524016 0.566373 0.597846 0.62932 0.648701 0.668082 0.674626 0.681171 0.674626 0.668082 0.648701 0.62932 0.597846 0.566373 0.524016 0.48166 0.430049 0.378438 0.319555 0.260673 0.196781 0.13289 0.0664449 1.19916e-15 -0.0664449 -0.13289 -0.196781 -0.260673 -0.319555 -0.378438 -0.430049 -0.48166 -0.524016 -0.566373 -0.597846 -0.62932 -0.648701 -0.668082 -0.674626 -0.681171 -0.674626 -0.668082 -0.648701 -0.62932 -0.597846 -0.566373 -0.524016 -0.48166 -0.430049 -0.378438 -0.319555 -0.260673 -0.196781 -0.13289 -0.0664449 -2.34389e-17 0 0.0722879 0.144576 0.214086 0.283596 0.347656 0.411717 0.467867 0.524016 0.570097 0.616178 0.650419 0.68466 0.705746 0.726832 0.733951 0.741071 0.733951 0.726832 0.705746 0.68466 0.650419 0.616178 0.570097 0.524016 0.467867 0.411717 0.347656 0.283596 0.214086 0.144576 0.0722879 1.26191e-15 -0.0722879 -0.144576 -0.214086 -0.283596 -0.347656 -0.411717 -0.467867 -0.524016 -0.570097 -0.616178 -0.650419 -0.68466 -0.705746 -0.726832 -0.733951 -0.741071 -0.733951 -0.726832 -0.705746 -0.68466 -0.650419 -0.616178 -0.570097 -0.524016 -0.467867 -0.411717 -0.347656 -0.283596 -0.214086 -0.144576 -0.0722879 -2.55e-17 0 0.0781309 0.156262 0.23139 0.306519 0.375757 0.444996 0.505684 0.566373 0.616178 0.665984 0.702993 0.740001 0.762791 0.785581 0.793277 0.800972 0.793277 0.785581 0.762791 0.740001 0.702993 0.665984 0.616178 0.566373 0.505684 0.444996 0.375757 0.306519 0.23139 0.156262 0.0781309 1.32466e-15 -0.0781309 -0.156262 -0.23139 -0.306519 -0.375757 -0.444996 -0.505684 -0.566373 -0.616178 -0.665984 -0.702993 -0.740001 -0.762791 -0.785581 -0.793277 -0.800972 -0.793277 -0.785581 -0.762791 -0.740001 -0.702993 -0.665984 -0.616178 -0.566373 -0.505684 -0.444996 -0.375757 -0.306519 -0.23139 -0.156262 -0.0781309 -2.75612e-17 0 0.0824727 0.164945 0.244249 0.323552 0.396638 0.469725 0.533785 0.597846 0.650419 0.702993 0.742058 0.781124 0.80518 0.829236 0.837359 0.845482 0.837359 0.829236 0.80518 0.781124 0.742058 0.702993 0.650419 0.597846 0.533785 0.469725 0.396638 0.323552 0.244249 0.164945 0.0824727 1.43834e-15 -0.0824727 -0.164945 -0.244249 -0.323552 -0.396638 -0.469725 -0.533785 -0.597846 -0.650419 -0.702993 -0.742058 -0.781124 -0.80518 -0.829236 -0.837359 -0.845482 -0.837359 -0.829236 -0.80518 -0.781124 -0.742058 -0.702993 -0.650419 -0.597846 -0.533785 -0.469725 -0.396638 -0.323552 -0.244249 -0.164945 -0.0824727 -2.90928e-17 0 0.0868144 0.173629 0.257107 0.340585 0.417519 0.494453 0.561886 0.62932 0.68466 0.740001 0.781124 0.822246 0.847568 0.872891 0.881442 0.889992 0.881442 0.872891 0.847568 0.822246 0.781124 0.740001 0.68466 0.62932 0.561886 0.494453 0.417519 0.340585 0.257107 0.173629 0.0868144 1.55202e-15 -0.0868144 -0.173629 -0.257107 -0.340585 -0.417519 -0.494453 -0.561886 -0.62932 -0.68466 -0.740001 -0.781124 -0.822246 -0.847568 -0.872891 -0.881442 -0.889992 -0.881442 -0.872891 -0.847568 -0.822246 -0.781124 -0.740001 -0.68466 -0.62932 -0.561886 -0.494453 -0.417519 -0.340585 -0.257107 -0.173629 -0.0868144 -3.06244e-17 0 0.0894881 0.178976 0.265025 0.351074 0.430378 0.509681 0.579191 0.648701 0.705746 0.762791 0.80518 0.847568 0.873671 0.899774 0.908588 0.917401 0.908588 0.899774 0.873671 0.847568 0.80518 0.762791 0.705746 0.648701 0.579191 0.509681 0.430378 0.351074 0.265025 0.178976 0.0894881 1.51106e-15 -0.0894881 -0.178976 -0.265025 -0.351074 -0.430378 -0.509681 -0.579191 -0.648701 -0.705746 -0.762791 -0.80518 -0.847568 -0.873671 -0.899774 -0.908588 -0.917401 -0.908588 -0.899774 -0.873671 -0.847568 -0.80518 -0.762791 -0.705746 -0.648701 -0.579191 -0.509681 -0.430378 -0.351074 -0.265025 -0.178976 -0.0894881 -3.15675e-17 0 0.0921617 0.184323 0.272943 0.361563 0.443236 0.524909 0.596495 0.668082 0.726832 0.785581 0.829236 0.872891 0.899774 0.926656 0.935734 0.944811 0.935734 0.926656 0.899774 0.872891 0.829236 0.785581 0.726832 0.668082 0.596495 0.524909 0.443236 0.361563 0.272943 0.184323 0.0921617 1.47009e-15 -0.0921617 -0.184323 -0.272943 -0.361563 -0.443236 -0.524909 -0.596495 -0.668082 -0.726832 -0.785581 -0.829236 -0.872891 -0.899774 -0.926656 -0.935734 -0.944811 -0.935734 -0.926656 -0.899774 -0.872891 -0.829236 -0.785581 -0.726832 -0.668082 -0.596495 -0.524909 -0.443236 -0.361563 -0.272943 -0.184323 -0.0921617 -3.25107e-17 0 0.0930645 0.186129 0.275617 0.365105 0.447578 0.53005 0.602338 0.674626 0.733951 0.793277 0.837359 0.881442 0.908588 0.935734 0.9449 0.954066 0.9449 0.935734 0.908588 0.881442 0.837359 0.793277 0.733951 0.674626 0.602338 0.53005 0.447578 0.365105 0.275617 0.186129 0.0930645 1.41927e-15 -0.0930645 -0.186129 -0.275617 -0.365105 -0.447578 -0.53005 -0.602338 -0.674626 -0.733951 -0.793277 -0.837359 -0.881442 -0.908588 -0.935734 -0.9449 -0.954066 -0.9449 -0.935734 -0.908588 -0.881442 -0.837359 -0.793277 -0.733951 -0.674626 -0.602338 -0.53005 -0.447578 -0.365105 -0.275617 -0.186129 -0.0930645 -3.28291e-17 0 0.0939673 0.187935 0.278291 0.368647 0.45192 0.535192 0.608181 0.681171 0.741071 0.800972 0.845482 0.889992 0.917401 0.944811 0.954066 0.963321 0.954066 0.944811 0.917401 0.889992 0.845482 0.800972 0.741071 0.681171 0.608181 0.535192 0.45192 0.368647 0.278291 0.187935 0.0939673 1.36845e-15 -0.0939673 -0.187935 -0.278291 -0.368647 -0.45192 -0.535192 -0.608181 -0.681171 -0.741071 -0.800972 -0.845482 -0.889992 -0.917401 -0.944811 -0.954066 -0.963321 -0.954066 -0.944811 -0.917401 -0.889992 -0.845482 -0.800972 -0.741071 -0.681171 -0.608181 -0.535192 -0.45192 -0.368647 -0.278291 -0.187935 -0.0939673 -3.31476e-17 0 0.0930645 0.186129 0.275617 0.365105 0.447578 0.53005 0.602338 0.674626 0.733951 0.793277 0.837359 0.881442 0.908588 0.935734 0.9449 0.954066 0.9449 0.935734 0.908588 0.881442 0.837359 0.793277 0.733951 0.674626 0.602338 0.53005 0.447578 0.365105 0.275617 0.186129 0.0930645 1.23076e-15 -0.0930645 -0.186129 -0.275617 -0.365105 -0.447578 -0.53005 -0.602338 -0.674626 -0.733951 -0.793277 -0.837359 -0.881442 -0.908588 -0.935734 -0.9449 -0.954066 -0.9449 -0.935734 -0.908588 -0.881442 -0.837359 -0.793277 -0.733951 -0.674626 -0.602338 -0.53005 -0.447578 -0.365105 -0.275617 -0.186129 -0.0930645 -3.28291e-17 0 0.0921617 0.184323 0.272943 0.361563 0.443236 0.524909 0.596495 0.668082 0.726832 0.785581 0.829236 0.872891 0.899774 0.926656 0.935734 0.944811 0.935734 0.926656 0.899774 0.872891 0.829236 0.785581 0.726832 0.668082 0.596495 0.524909 0.443236 0.361563 0.272943 0.184323 0.0921617 1.09308e-15 -0.0921617 -0.184323 -0.272943 -0.361563 -0.443236 -0.524909 -0.596495 -0.668082 -0.726832 -0.785581 -0.829236 -0.872891 -0.899774 -0.926656 -0.935734 -0.944811 -0.935734 -0.926656 -0.899774 -0.872891 -0.829236 -0.785581 -0.726832 -0.668082 -0.596495 -0.524909 -0.443236 -0.361563 -0.272943 -0.184323 -0.0921617 -3.25107e-17 0 0.0894881 0.178976 0.265025 0.351074 0.430378 0.509681 0.579191 0.648701 0.705746 0.762791 0.80518 0.847568 0.873671 0.899774 0.908588 0.917401 0.908588 0.899774 0.873671 0.847568 0.80518 0.762791 0.705746 0.648701 0.579191 0.509681 0.430378 0.351074 0.265025 0.178976 0.0894881 9.97201e-16 -0.0894881 -0.178976 -0.265025 -0.351074 -0.430378 -0.509681 -0.579191 -0.648701 -0.705746 -0.762791 -0.80518 -0.847568 -0.873671 -0.899774 -0.908588 -0.917401 -0.908588 -0.899774 -0.873671 -0.847568 -0.80518 -0.762791 -0.705746 -0.648701 -0.579191 -0.509681 -0.430378 -0.351074 -0.265025 -0.178976 -0.0894881 -3.15675e-17 0 0.0868144 0.173629 0.257107 0.340585 0.417519 0.494453 0.561886 0.62932 0.68466 0.740001 0.781124 0.822246 0.847568 0.872891 0.881442 0.889992 0.881442 0.872891 0.847568 0.822246 0.781124 0.740001 0.68466 0.62932 0.561886 0.494453 0.417519 0.340585 0.257107 0.173629 0.0868144 9.01326e-16 -0.0868144 -0.173629 -0.257107 -0.340585 -0.417519 -0.494453 -0.561886 -0.62932 -0.68466 -0.740001 -0.781124 -0.822246 -0.847568 -0.872891 -0.881442 -0.889992 -0.881442 -0.872891 -0.847568 -0.822246 -0.781124 -0.740001 -0.68466 -0.62932 -0.561886 -0.494453 -0.417519 -0.340585 -0.257107 -0.173629 -0.0868144 -3.06244e-17 0 0.0824727 0.164945 0.244249 0.323552 0.396638 0.469725 0.533785 0.597846 0.650419 0.702993 0.742058 0.781124 0.80518 0.829236 0.837359 0.845482 0.837359 0.829236 0.80518 0.781124 0.742058 0.702993 0.650419 0.597846 0.533785 0.469725 0.396638 0.323552 0.244249 0.164945 0.0824727 8.62302e-16 -0.0824727 -0.164945 -0.244249 -0.323552 -0.396638 -0.469725 -0.533785 -0.597846 -0.650419 -0.702993 -0.742058 -0.781124 -0.80518 -0.829236 -0.837359 -0.845482 -0.837359 -0.829236 -0.80518 -0.781124 -0.742058 -0.702993 -0.650419 -0.597846 -0.533785 -0.469725 -0.396638 -0.323552 -0.244249 -0.164945 -0.0824727 -2.90928e-17 0 0.0781309 0.156262 0.23139 0.306519 0.375757 0.444996 0.505684 0.566373 0.616178 0.665984 0.702993 0.740001 0.762791 0.785581 0.793277 0.800972 0.793277 0.785581 0.762791 0.740001 0.702993 0.665984 0.616178 0.566373 0.505684 0.444996 0.375757 0.306519 0.23139 0.156262 0.0781309 8.23278e-16 -0.0781309 -0.156262 -0.23139 -0.306519 -0.375757 -0.444996 -0.505684 -0.566373 -0.616178 -0.665984 -0.702993 -0.740001 -0.762791 -0.785581 -0.793277 -0.800972 -0.793277 -0.785581 -0.762791 -0.740001 -0.702993 -0.665984 -0.616178 -0.566373 -0.505684 -0.444996 -0.375757 -0.306519 -0.23139 -0.156262 -0.0781309 -2.75612e-17 0 0.0722879 0.144576 0.214086 0.283596 0.347656 0.411717 0.467867 0.524016 0.570097 0.616178 0.650419 0.68466 0.705746 0.726832 0.733951 0.741071 0.733951 0.726832 0.705746 0.68466 0.650419 0.616178 0.570097 0.524016 0.467867 0.411717 0.347656 0.283596 0.214086 0.144576 0.0722879 7.42851e-16 -0.0722879 -0.144576 -0.214086 -0.283596 -0.347656 -0.411717 -0.467867 -0.524016 -0.570097 -0.616178 -0.650419 -0.68466 -0.705746 -0.726832 -0.733951 -0.741071 -0.733951 -0.726832 -0.705746 -0.68466 -0.650419 -0.616178 -0.570097 -0.524016 -0.467867 -0.411717 -0.347656 -0.283596 -0.214086 -0.144576 -0.0722879 -2.55e-17 0 0.0664449 0.13289 0.196781 0.260673 0.319555 0.378438 0.430049 0.48166 0.524016 0.566373 0.597846 0.62932 0.648701 0.668082 0.674626 0.681171 0.674626 0.668082 0.648701 0.62932 0.597846 0.566373 0.524016 0.48166 0.430049 0.378438 0.319555 0.260673 0.196781 0.13289 0.0664449 6.62425e-16 -0.0664449 -0.13289 -0.196781 -0.260673 -0.319555 -0.378438 -0.430049 -0.48166 -0.524016 -0.566373 -0.597846 -0.62932 -0.648701 -0.668082 -0.674626 -0.681171 -0.674626 -0.668082 -0.648701 -0.62932 -0.597846 -0.566373 -0.524016 -0.48166 -0.430049 -0.378438 -0.319555 -0.260673 -0.196781 -0.13289 -0.0664449 -2.34389e-17 0 0.0593252 0.11865 0.175696 0.232741 0.285314 0.337887 0.383968 0.430049 0.467867 0.505684 0.533785 0.561886 0.579191 0.596495 0.602338 0.608181 0.602338 0.596495 0.579191 0.561886 0.533785 0.505684 0.467867 0.430049 0.383968 0.337887 0.285314 0.232741 0.175696 0.11865 0.0593252 5.94152e-16 -0.0593252 -0.11865 -0.175696 -0.232741 -0.285314 -0.337887 -0.383968 -0.430049 -0.467867 -0.505684 -0.533785 -0.561886 -0.579191 -0.596495 -0.602338 -0.608181 -0.602338 -0.596495 -0.579191 -0.561886 -0.533785 -0.505684 -0.467867 -0.430049 -0.383968 -0.337887 -0.285314 -0.232741 -0.175696 -0.11865 -0.0593252 -2.09273e-17 0 0.0522054 0.104411 0.15461 0.204809 0.251073 0.297337 0.337887 0.378438 0.411717 0.444996 0.469725 0.494453 0.509681 0.524909 0.53005 0.535192 0.53005 0.524909 0.509681 0.494453 0.469725 0.444996 0.411717 0.378438 0.337887 0.297337 0.251073 0.204809 0.15461 0.104411 0.0522054 5.25879e-16 -0.0522054 -0.104411 -0.15461 -0.204809 -0.251073 -0.297337 -0.337887 -0.378438 -0.411717 -0.444996 -0.469725 -0.494453 -0.509681 -0.524909 -0.53005 -0.535192 -0.53005 -0.524909 -0.509681 -0.494453 -0.469725 -0.444996 -0.411717 -0.378438 -0.337887 -0.297337 -0.251073 -0.204809 -0.15461 -0.104411 -0.0522054 -1.84158e-17 0 0.0440826 0.0881651 0.130554 0.172942 0.212008 0.251073 0.285314 0.319555 0.347656 0.375757 0.396638 0.417519 0.430378 0.443236 0.447578 0.45192 0.447578 0.443236 0.430378 0.417519 0.396638 0.375757 0.347656 0.319555 0.285314 0.251073 0.212008 0.172942 0.130554 0.0881651 0.0440826 3.76678e-16 -0.0440826 -0.0881651 -0.130554 -0.172942 -0.212008 -0.251073 -0.285314 -0.319555 -0.347656 -0.375757 -0.396638 -0.417519 -0.430378 -0.443236 -0.447578 -0.45192 -0.447578 -0.443236 -0.430378 -0.417519 -0.396638 -0.375757 -0.347656 -0.319555 -0.285314 -0.251073 -0.212008 -0.172942 -0.130554 -0.0881651 -0.0440826 -1.55504e-17 0 0.0359597 0.0719194 0.106497 0.141075 0.172942 0.204809 0.232741 0.260673 0.283596 0.306519 0.323552 0.340585 0.351074 0.361563 0.365105 0.368647 0.365105 0.361563 0.351074 0.340585 0.323552 0.306519 0.283596 0.260673 0.232741 0.204809 0.172942 0.141075 0.106497 0.0719194 0.0359597 2.27477e-16 -0.0359597 -0.0719194 -0.106497 -0.141075 -0.172942 -0.204809 -0.232741 -0.260673 -0.283596 -0.306519 -0.323552 -0.340585 -0.351074 -0.361563 -0.365105 -0.368647 -0.365105 -0.361563 -0.351074 -0.340585 -0.323552 -0.306519 -0.283596 -0.260673 -0.232741 -0.204809 -0.172942 -0.141075 -0.106497 -0.0719194 -0.0359597 -1.2685e-17 0 0.0271459 0.0542918 0.0803945 0.106497 0.130554 0.15461 0.175696 0.196781 0.214086 0.23139 0.244249 0.257107 0.265025 0.272943 0.275617 0.278291 0.275617 0.272943 0.265025 0.257107 0.244249 0.23139 0.214086 0.196781 0.175696 0.15461 0.130554 0.106497 0.0803945 0.0542918 0.0271459 4.06496e-17 -0.0271459 -0.0542918 -0.0803945 -0.106497 -0.130554 -0.15461 -0.175696 -0.196781 -0.214086 -0.23139 -0.244249 -0.257107 -0.265025 -0.272943 -0.275617 -0.278291 -0.275617 -0.272943 -0.265025 -0.257107 -0.244249 -0.23139 -0.214086 -0.196781 -0.175696 -0.15461 -0.130554 -0.106497 -0.0803945 -0.0542918 -0.0271459 -9.5759e-18 0 0.0183321 0.0366642 0.0542918 0.0719194 0.0881651 0.104411 0.11865 0.13289 0.144576 0.156262 0.164945 0.173629 0.178976 0.184323 0.186129 0.187935 0.186129 0.184323 0.178976 0.173629 0.164945 0.156262 0.144576 0.13289 0.11865 0.104411 0.0881651 0.0719194 0.0542918 0.0366642 0.0183321 -1.46178e-16 -0.0183321 -0.0366642 -0.0542918 -0.0719194 -0.0881651 -0.104411 -0.11865 -0.13289 -0.144576 -0.156262 -0.164945 -0.173629 -0.178976 -0.184323 -0.186129 -0.187935 -0.186129 -0.184323 -0.178976 -0.173629 -0.164945 -0.156262 -0.144576 -0.13289 -0.11865 -0.104411 -0.0881651 -0.0719194 -0.0542918 -0.0366642 -0.0183321 -6.46677e-18 0 0.00916605 0.0183321 0.0271459 0.0359597 0.0440826 0.0522054 0.0593252 0.0664449 0.0722879 0.0781309 0.0824727 0.0868144 0.0894881 0.0921617 0.0930645 0.0939673 0.0930645 0.0921617 0.0894881 0.0868144 0.0824727 0.0781309 0.0722879 0.0664449 0.0593252 0.0522054 0.0440826 0.0359597 0.0271459 0.0183321 0.00916605 -3.44375e-16 -0.00916605 -0.0183321 -0.0271459 -0.0359597 -0.0440826 -0.0522054 -0.0593252 -0.0664449 -0.0722879 -0.0781309 -0.0824727 -0.0868144 -0.0894881 -0.0921617 -0.0930645 -0.0939673 -0.0930645 -0.0921617 -0.0894881 -0.0868144 -0.0824727 -0.0781309 -0.0722879 -0.0664449 -0.0593252 -0.0522054 -0.0440826 -0.0359597 -0.0271459 -0.0183321 -0.00916605 -3.23339e-18 0 -7.95927e-17 -1.59185e-16 -2.69667e-16 -3.80149e-16 -4.83444e-16 -5.8674e-16 -6.99361e-16 -8.11982e-16 -8.91357e-16 -9.70732e-16 -9.90115e-16 -1.0095e-15 -9.95444e-16 -9.81389e-16 -9.17359e-16 -8.5333e-16 -6.92971e-16 -5.32612e-16 -4.89348e-16 -4.46085e-16 -3.21579e-16 -1.97073e-16 -8.79435e-17 2.11856e-17 -1.80205e-18 -2.47897e-17 -6.56483e-17 -1.06507e-16 -2.40334e-16 -3.74161e-16 -4.58367e-16 -5.42573e-16 -6.00335e-16 -6.58098e-16 -6.4892e-16 -6.39742e-16 -6.44387e-16 -6.49032e-16 -6.93029e-16 -7.37026e-16 -6.82319e-16 -6.27611e-16 -4.7389e-16 -3.20169e-16 -3.83791e-16 -4.47414e-16 -3.59336e-16 -2.71257e-16 -3.0013e-16 -3.29002e-16 -1.48808e-16 3.13869e-17 -2.05235e-17 -7.24338e-17 -3.19116e-17 8.61052e-18 5.58492e-18 2.55933e-18 5.45193e-18 8.34453e-18 2.6901e-17 4.54574e-17 2.27287e-17 -4.05941e-33 0 -0.00916605 -0.0183321 -0.0271459 -0.0359597 -0.0440826 -0.0522054 -0.0593252 -0.0664449 -0.0722879 -0.0781309 -0.0824727 -0.0868144 -0.0894881 -0.0921617 -0.0930645 -0.0939673 -0.0930645 -0.0921617 -0.0894881 -0.0868144 -0.0824727 -0.0781309 -0.0722879 -0.0664449 -0.0593252 -0.0522054 -0.0440826 -0.0359597 -0.0271459 -0.0183321 -0.00916605 -7.73945e-16 0.00916605 0.0183321 0.0271459 0.0359597 0.0440826 0.0522054 0.0593252 0.0664449 0.0722879 0.0781309 0.0824727 0.0868144 0.0894881 0.0921617 0.0930645 0.0939673 0.0930645 0.0921617 0.0894881 0.0868144 0.0824727 0.0781309 0.0722879 0.0664449 0.0593252 0.0522054 0.0440826 0.0359597 0.0271459 0.0183321 0.00916605 3.23339e-18 -0 -0.0183321 -0.0366642 -0.0542918 -0.0719194 -0.0881651 -0.104411 -0.11865 -0.13289 -0.144576 -0.156262 -0.164945 -0.173629 -0.178976 -0.184323 -0.186129 -0.187935 -0.186129 -0.184323 -0.178976 -0.173629 -0.164945 -0.156262 -0.144576 -0.13289 -0.11865 -0.104411 -0.0881651 -0.0719194 -0.0542918 -0.0366642 -0.0183321 -1.00532e-15 0.0183321 0.0366642 0.0542918 0.0719194 0.0881651 0.104411 0.11865 0.13289 0.144576 0.156262 0.164945 0.173629 0.178976 0.184323 0.186129 0.187935 0.186129 0.184323 0.178976 0.173629 0.164945 0.156262 0.144576 0.13289 0.11865 0.104411 0.0881651 0.0719194 0.0542918 0.0366642 0.0183321 6.46677e-18 -0 -0.0271459 -0.0542918 -0.0803945 -0.106497 -0.130554 -0.15461 -0.175696 -0.196781 -0.214086 -0.23139 -0.244249 -0.257107 -0.265025 -0.272943 -0.275617 -0.278291 -0.275617 -0.272943 -0.265025 -0.257107 -0.244249 -0.23139 -0.214086 -0.196781 -0.175696 -0.15461 -0.130554 -0.106497 -0.0803945 -0.0542918 -0.0271459 -1.1978e-15 0.0271459 0.0542918 0.0803945 0.106497 0.130554 0.15461 0.175696 0.196781 0.214086 0.23139 0.244249 0.257107 0.265025 0.272943 0.275617 0.278291 0.275617 0.272943 0.265025 0.257107 0.244249 0.23139 0.214086 0.196781 0.175696 0.15461 0.130554 0.106497 0.0803945 0.0542918 0.0271459 9.5759e-18 -0 -0.0359597 -0.0719194 -0.106497 -0.141075 -0.172942 -0.204809 -0.232741 -0.260673 -0.283596 -0.306519 -0.323552 -0.340585 -0.351074 -0.361563 -0.365105 -0.368647 -0.365105 -0.361563 -0.351074 -0.340585 -0.323552 -0.306519 -0.283596 -0.260673 -0.232741 -0.204809 -0.172942 -0.141075 -0.106497 -0.0719194 -0.0359597 -1.39029e-15 0.0359597 0.0719194 0.106497 0.141075 0.172942 0.204809 0.232741 0.260673 0.283596 0.306519 0.323552 0.340585 0.351074 0.361563 0.365105 0.368647 0.365105 0.361563 0.351074 0.340585 0.323552 0.306519 0.283596 0.260673 0.232741 0.204809 0.172942 0.141075 0.106497 0.0719194 0.0359597 1.2685e-17 -0 -0.0440826 -0.0881651 -0.130554 -0.172942 -0.212008 -0.251073 -0.285314 -0.319555 -0.347656 -0.375757 -0.396638 -0.417519 -0.430378 -0.443236 -0.447578 -0.45192 -0.447578 -0.443236 -0.430378 -0.417519 -0.396638 -0.375757 -0.347656 -0.319555 -0.285314 -0.251073 -0.212008 -0.172942 -0.130554 -0.0881651 -0.0440826 -1.58195e-15 0.0440826 0.0881651 0.130554 0.172942 0.212008 0.251073 0.285314 0.319555 0.347656 0.375757 0.396638 0.417519 0.430378 0.443236 0.447578 0.45192 0.447578 0.443236 0.430378 0.417519 0.396638 0.375757 0.347656 0.319555 0.285314 0.251073 0.212008 0.172942 0.130554 0.0881651 0.0440826 1.55504e-17 -0 -0.0522054 -0.104411 -0.15461 -0.204809 -0.251073 -0.297337 -0.337887 -0.378438 -0.411717 -0.444996 -0.469725 -0.494453 -0.509681 -0.524909 -0.53005 -0.535192 -0.53005 -0.524909 -0.509681 -0.494453 -0.469725 -0.444996 -0.411717 -0.378438 -0.337887 -0.297337 -0.251073 -0.204809 -0.15461 -0.104411 -0.0522054 -1.77361e-15 0.0522054 0.104411 0.15461 0.204809 0.251073 0.297337 0.337887 0.378438 0.411717 0.444996 0.469725 0.494453 0.509681 0.524909 0.53005 0.535192 0.53005 0.524909 0.509681 0.494453 0.469725 0.444996 0.411717 0.378438 0.337887 0.297337 0.251073 0.204809 0.15461 0.104411 0.0522054 1.84158e-17 -0 -0.0593252 -0.11865 -0.175696 -0.232741 -0.285314 -0.337887 -0.383968 -0.430049 -0.467867 -0.505684 -0.533785 -0.561886 -0.579191 -0.596495 -0.602338 -0.608181 -0.602338 -0.596495 -0.579191 -0.561886 -0.533785 -0.505684 -0.467867 -0.430049 -0.383968 -0.337887 -0.285314 -0.232741 -0.175696 -0.11865 -0.0593252 -1.88882e-15 0.0593252 0.11865 0.175696 0.232741 0.285314 0.337887 0.383968 0.430049 0.467867 0.505684 0.533785 0.561886 0.579191 0.596495 0.602338 0.608181 0.602338 0.596495 0.579191 0.561886 0.533785 0.505684 0.467867 0.430049 0.383968 0.337887 0.285314 0.232741 0.175696 0.11865 0.0593252 2.09273e-17 -0 -0.0664449 -0.13289 -0.196781 -0.260673 -0.319555 -0.378438 -0.430049 -0.48166 -0.524016 -0.566373 -0.597846 -0.62932 -0.648701 -0.668082 -0.674626 -0.681171 -0.674626 -0.668082 -0.648701 -0.62932 -0.597846 -0.566373 -0.524016 -0.48166 -0.430049 -0.378438 -0.319555 -0.260673 -0.196781 -0.13289 -0.0664449 -2.00403e-15 0.0664449 0.13289 0.196781 0.260673 0.319555 0.378438 0.430049 0.48166 0.524016 0.566373 0.597846 0.62932 0.648701 0.668082 0.674626 0.681171 0.674626 0.668082 0.648701 0.62932 0.597846 0.566373 0.524016 0.48166 0.430049 0.378438 0.319555 0.260673 0.196781 0.13289 0.0664449 2.34389e-17 -0 -0.0722879 -0.144576 -0.214086 -0.283596 -0.347656 -0.411717 -0.467867 -0.524016 -0.570097 -0.616178 -0.650419 -0.68466 -0.705746 -0.726832 -0.733951 -0.741071 -0.733951 -0.726832 -0.705746 -0.68466 -0.650419 -0.616178 -0.570097 -0.524016 -0.467867 -0.411717 -0.347656 -0.283596 -0.214086 -0.144576 -0.0722879 -2.07744e-15 0.0722879 0.144576 0.214086 0.283596 0.347656 0.411717 0.467867 0.524016 0.570097 0.616178 0.650419 0.68466 0.705746 0.726832 0.733951 0.741071 0.733951 0.726832 0.705746 0.68466 0.650419 0.616178 0.570097 0.524016 0.467867 0.411717 0.347656 0.283596 0.214086 0.144576 0.0722879 2.55e-17 -0 -0.0781309 -0.156262 -0.23139 -0.306519 -0.375757 -0.444996 -0.505684 -0.566373 -0.616178 -0.665984 -0.702993 -0.740001 -0.762791 -0.785581 -0.793277 -0.800972 -0.793277 -0.785581 -0.762791 -0.740001 -0.702993 -0.665984 -0.616178 -0.566373 -0.505684 -0.444996 -0.375757 -0.306519 -0.23139 -0.156262 -0.0781309 -2.15085e-15 0.0781309 0.156262 0.23139 0.306519 0.375757 0.444996 0.505684 0.566373 0.616178 0.665984 0.702993 0.740001 0.762791 0.785581 0.793277 0.800972 0.793277 0.785581 0.762791 0.740001 0.702993 0.665984 0.616178 0.566373 0.505684 0.444996 0.375757 0.306519 0.23139 0.156262 0.0781309 2.75612e-17 -0 -0.0824727 -0.164945 -0.244249 -0.323552 -0.396638 -0.469725 -0.533785 -0.597846 -0.650419 -0.702993 -0.742058 -0.781124 -0.80518 -0.829236 -0.837359 -0.845482 -0.837359 -0.829236 -0.80518 -0.781124 -0.742058 -0.702993 -0.650419 -0.597846 -0.533785 -0.469725 -0.396638 -0.323552 -0.244249 -0.164945 -0.0824727 -2.06129e-15 0.0824727 0.164945 0.244249 0.323552 0.396638 0.469725 0.533785 0.597846 0.650419 0.702993 0.742058 0.781124 0.80518 0.829236 0.837359 0.845482 0.837359 0.829236 0.80518 0.781124 0.742058 0.702993 0.650419 0.597846 0.533785 0.469725 0.396638 0.323552 0.244249 0.164945 0.0824727 2.90928e-17 -0 -0.0868144 -0.173629 -0.257107 -0.340585 -0.417519 -0.494453 -0.561886 -0.62932 -0.68466 -0.740001 -0.781124 -0.822246 -0.847568 -0.872891 -0.881442 -0.889992 -0.881442 -0.872891 -0.847568 -0.822246 -0.781124 -0.740001 -0.68466 -0.62932 -0.561886 -0.494453 -0.417519 -0.340585 -0.257107 -0.173629 -0.0868144 -1.97173e-15 0.0868144 0.173629 0.257107 0.340585 0.417519 0.494453 0.561886 0.62932 0.68466 0.740001 0.781124 0.822246 0.847568 0.872891 0.881442 0.889992 0.881442 0.872891 0.847568 0.822246 0.781124 0.740001 0.68466 0.62932 0.561886 0.494453 0.417519 0.340585 0.257107 0.173629 0.0868144 3.06244e-17 -0 -0.0894881 -0.178976 -0.265025 -0.351074 -0.430378 -0.509681 -0.579191 -0.648701 -0.705746 -0.762791 -0.80518 -0.847568 -0.873671 -0.899774 -0.908588 -0.917401 -0.908588 -0.899774 -0.873671 -0.847568 -0.80518 -0.762791 -0.705746 -0.648701 -0.579191 -0.509681 -0.430378 -0.351074 -0.265025 -0.178976 -0.0894881 -1.91338e-15 0.0894881 0.178976 0.265025 0.351074 0.430378 0.509681 0.579191 0.648701 0.705746 0.762791 0.80518 0.847568 0.873671 0.899774 0.908588 0.917401 0.908588 0.899774 0.873671 0.847568 0.80518 0.762791 0.705746 0.648701 0.579191 0.509681 0.430378 0.351074 0.265025 0.178976 0.0894881 3.15675e-17 -0 -0.0921617 -0.184323 -0.272943 -0.361563 -0.443236 -0.524909 -0.596495 -0.668082 -0.726832 -0.785581 -0.829236 -0.872891 -0.899774 -0.926656 -0.935734 -0.944811 -0.935734 -0.926656 -0.899774 -0.872891 -0.829236 -0.785581 -0.726832 -0.668082 -0.596495 -0.524909 -0.443236 -0.361563 -0.272943 -0.184323 -0.0921617 -1.85503e-15 0.0921617 0.184323 0.272943 0.361563 0.443236 0.524909 0.596495 0.668082 0.726832 0.785581 0.829236 0.872891 0.899774 0.926656 0.935734 0.944811 0.935734 0.926656 0.899774 0.872891 0.829236 0.785581 0.726832 0.668082 0.596495 0.524909 0.443236 0.361563 0.272943 0.184323 0.0921617 3.25107e-17 -0 -0.0930645 -0.186129 -0.275617 -0.365105 -0.447578 -0.53005 -0.602338 -0.674626 -0.733951 -0.793277 -0.837359 -0.881442 -0.908588 -0.935734 -0.9449 -0.954066 -0.9449 -0.935734 -0.908588 -0.881442 -0.837359 -0.793277 -0.733951 -0.674626 -0.602338 -0.53005 -0.447578 -0.365105 -0.275617 -0.186129 -0.0930645 -1.77534e-15 0.0930645 0.186129 0.275617 0.365105 0.447578 0.53005 0.602338 0.674626 0.733951 0.793277 0.837359 0.881442 0.908588 0.935734 0.9449 0.954066 0.9449 0.935734 0.908588 0.881442 0.837359 0.793277 0.733951 0.674626 0.602338 0.53005 0.447578 0.365105 0.275617 0.186129 0.0930645 3.28291e-17 -0 -0.0939673 -0.187935 -0.278291 -0.368647 -0.45192 -0.535192 -0.608181 -0.681171 -0.741071 -0.800972 -0.845482 -0.889992 -0.917401 -0.944811 -0.954066 -0.963321 -0.954066 -0.944811 -0.917401 -0.889992 -0.845482 -0.800972 -