<?xml version="1.0"?> 
<VTKFile type="StructuredGrid" version="0.1"> 
<StructuredGrid WholeExtent="0 128 0 128 0 0"> 
<Piece Extent="0 128 0 128 0 0"> 
<PointData>
<DataArray type="Float32" Name="u" format="ascii" NumberOfComponents="1"> 
0 0 0 0 0 0 0 0 0 0 0 0 0 0 0 0 0 0 0 0 0 0 0 0 0 0 0 0 0 0 0 0 0 0 0 0 0 0 0 0 0 0 0 0 0 0 0 0 0 0 0 0 0 0 0 0 0 0 0 0 0 0 0 0 0 0 0 0 0 0 0 0 0 0 0 0 0 0 0 0 0 0 0 0 0 0 0 0 0 0 0 0 0 0 0 0 0 0 0 0 0 0 0 0 0 0 0 0 0 0 0 0 0 0 0 0 0 0 0 0 0 0 0 0 0 0 0 0 0 0 -3.44968e-09 -1.37987e-08 -3.10472e-08 -5.5195e-08 -8.62421e-08 -1.24189e-07 -1.69035e-07 -2.2078e-07 -2.98717e-07 -4.22139e-07 -5.91045e-07 -8.05436e-07 -1.06531e-06 -1.37067e-06 -1.72152e-06 -2.11785e-06 -2.56381e-06 -3.06355e-06 -3.61708e-06 -4.22438e-06 -4.88547e-06 -5.60034e-06 -6.36899e-06 -7.19142e-06 -8.05879e-06 -8.96228e-06 -9.90187e-06 -1.08776e-05 -1.18894e-05 -1.29373e-05 -1.40213e-05 -1.51415e-05 -1.62795e-05 -1.74171e-05 -1.85543e-05 -1.96911e-05 -2.08276e-05 -2.19636e-05 -2.30992e-05 -2.42345e-05 -2.5353e-05 -2.64384e-05 -2.74907e-05 -2.85099e-05 -2.94959e-05 -3.04489e-05 -3.13688e-05 -3.22556e-05 -3.31031e-05 -3.39051e-05 -3.46615e-05 -3.53725e-05 -3.60379e-05 -3.66578e-05 -3.72321e-05 -3.7761e-05 -3.82481e-05 -3.86974e-05 -3.91087e-05 -3.94822e-05 -3.98177e-05 -4.01154e-05 -4.03751e-05 -4.0597e-05 -4.07876e-05 -4.09534e-05 -4.10945e-05 -4.12108e-05 -4.13024e-05 -4.13693e-05 -4.14114e-05 -4.14288e-05 -4.14231e-05 -4.1396e-05 -4.13476e-05 -4.12777e-05 -4.11865e-05 -4.10739e-05 -4.09399e-05 -4.07845e-05 -4.06029e-05 -4.039e-05 -4.01459e-05 -3.98706e-05 -3.95642e-05 -3.92265e-05 -3.88576e-05 -3.84575e-05 -3.80198e-05 -3.75382e-05 -3.70127e-05 -3.64432e-05 -3.58298e-05 -3.51725e-05 -3.44712e-05 -3.3726e-05 -3.29367e-05 -3.21029e-05 -3.12247e-05 -3.0302e-05 -2.9335e-05 -2.83235e-05 -2.72676e-05 -2.61673e-05 -2.50333e-05 -2.38761e-05 -2.2696e-05 -2.14927e-05 -2.02664e-05 -1.90171e-05 -1.77446e-05 -1.64492e-05 -1.51362e-05 -1.38112e-05 -1.24743e-05 -1.11255e-05 -9.76468e-06 -8.39192e-06 -7.00721e-06 -5.61055e-06 -4.29558e-06 -3.15594e-06 -2.19162e-06 -1.40264e-06 -7.88984e-07 -3.5066e-07 -8.76649e-08 0 0 -1.37987e-08 -5.5195e-08 -1.24189e-07 -2.2078e-07 -3.44968e-07 -4.96755e-07 -6.76138e-07 -8.83119e-07 -1.19487e-06 -1.68856e-06 -2.36418e-06 -3.22175e-06 -4.26125e-06 -5.48269e-06 -6.88607e-06 -8.47139e-06 -1.02552e-05 -1.22542e-05 -1.44683e-05 -1.68975e-05 -1.95419e-05 -2.24014e-05 -2.54759e-05 -2.87657e-05 -3.22352e-05 -3.58491e-05 -3.96075e-05 -4.35103e-05 -4.75576e-05 -5.17493e-05 -5.60854e-05 -6.0566e-05 -6.5118e-05 -6.96684e-05 -7.42172e-05 -7.87645e-05 -8.33102e-05 -8.78543e-05 -9.23969e-05 -9.69379e-05 -0.000101412 -0.000105753 -0.000109963 -0.000114039 -0.000117984 -0.000121796 -0.000125475 -0.000129023 -0.000132413 -0.00013562 -0.000138646 -0.00014149 -0.000144152 -0.000146631 -0.000148929 -0.000151044 -0.000152992 -0.000154789 -0.000156435 -0.000157929 -0.000159271 -0.000160462 -0.000161501 -0.000162388 -0.00016315 -0.000163814 -0.000164378 -0.000164843 -0.00016521 -0.000165477 -0.000165646 -0.000165715 -0.000165692 -0.000165584 -0.00016539 -0.000165111 -0.000164746 -0.000164296 -0.00016376 -0.000163138 -0.000162412 -0.00016156 -0.000160584 -0.000159483 -0.000158257 -0.000156906 -0.00015543 -0.00015383 -0.000152079 -0.000150153 -0.000148051 -0.000145773 -0.000143319 -0.00014069 -0.000137885 -0.000134904 -0.000131747 -0.000128412 -0.000124899 -0.000121208 -0.00011734 -0.000113294 -0.000109071 -0.000104669 -0.000100133 -9.55046e-05 -9.07839e-05 -8.59709e-05 -8.10657e-05 -7.60683e-05 -7.09786e-05 -6.57966e-05 -6.05447e-05 -5.52449e-05 -4.98973e-05 -4.45019e-05 -3.90587e-05 -3.35677e-05 -2.80289e-05 -2.24422e-05 -1.71823e-05 -1.26237e-05 -8.76649e-06 -5.61055e-06 -3.15594e-06 -1.40264e-06 -3.5066e-07 0 0 -3.10472e-08 -1.24189e-07 -2.79424e-07 -4.96755e-07 -7.76179e-07 -1.1177e-06 -1.52131e-06 -1.98702e-06 -2.68845e-06 -3.79925e-06 -5.31941e-06 -7.24893e-06 -9.58781e-06 -1.23361e-05 -1.54937e-05 -1.90606e-05 -2.30743e-05 -2.7572e-05 -3.25537e-05 -3.80194e-05 -4.39692e-05 -5.0403e-05 -5.73209e-05 -6.47228e-05 -7.25291e-05 -8.06605e-05 -8.91169e-05 -9.78982e-05 -0.000107005 -0.000116436 -0.000126192 -0.000136273 -0.000146515 -0.000156754 -0.000166989 -0.00017722 -0.000187448 -0.000197672 -0.000207893 -0.00021811 -0.000228177 -0.000237945 -0.000247416 -0.000256589 -0.000265464 -0.000274041 -0.00028232 -0.000290301 -0.000297928 -0.000305146 -0.000311954 -0.000318352 -0.000324341 -0.00032992 -0.000335089 -0.000339849 -0.000344233 -0.000348276 -0.000351978 -0.000355339 -0.000358359 -0.000361038 -0.000363376 -0.000365373 -0.000367088 -0.000368581 -0.00036985 -0.000370897 -0.000371722 -0.000372323 -0.000372703 -0.000372859 -0.000372808 -0.000372564 -0.000372128 -0.0003715 -0.000370679 -0.000369665 -0.000368459 -0.000367061 -0.000365426 -0.00036351 -0.000361313 -0.000358836 -0.000356077 -0.000353038 -0.000349718 -0.000346117 -0.000342178 -0.000337844 -0.000333114 -0.000327989 -0.000322468 -0.000316552 -0.000310241 -0.000303534 -0.00029643 -0.000288926 -0.000281022 -0.000272718 -0.000264015 -0.000254912 -0.000245409 -0.000235506 -0.000225299 -0.000214885 -0.000204264 -0.000193435 -0.000182398 -0.000171154 -0.000159702 -0.000148042 -0.000136226 -0.000124301 -0.000112269 -0.000100129 -8.78821e-05 -7.55273e-05 -6.30649e-05 -5.0495e-05 -3.86602e-05 -2.84034e-05 -1.97246e-05 -1.26237e-05 -7.10086e-06 -3.15594e-06 -7.88984e-07 0 0 -5.5195e-08 -2.2078e-07 -4.96755e-07 -8.83119e-07 -1.37987e-06 -1.98702e-06 -2.70455e-06 -3.53248e-06 -4.77947e-06 -6.75422e-06 -9.45673e-06 -1.2887e-05 -1.7045e-05 -2.19308e-05 -2.75443e-05 -3.38855e-05 -4.10209e-05 -4.90168e-05 -5.78732e-05 -6.75901e-05 -7.81675e-05 -8.96054e-05 -0.000101904 -0.000115063 -0.000128941 -0.000143396 -0.00015843 -0.000174041 -0.00019023 -0.000206997 -0.000224342 -0.000242264 -0.000260472 -0.000278674 -0.000296869 -0.000315058 -0.000333241 -0.000351417 -0.000369588 -0.000387751 -0.000405647 -0.000423014 -0.00043985 -0.000456158 -0.000471935 -0.000487183 -0.000501902 -0.00051609 -0.00052965 -0.000542482 -0.000554585 -0.00056596 -0.000576606 -0.000586524 -0.000595714 -0.000604176 -0.00061197 -0.000619158 -0.000625739 -0.000631715 -0.000637083 -0.000641846 -0.000646002 -0.000649552 -0.000652601 -0.000655254 -0.000657512 -0.000659373 -0.000660839 -0.000661908 -0.000662582 -0.00066286 -0.000662769 -0.000662336 -0.000661561 -0.000660444 -0.000658984 -0.000657183 -0.000655039 -0.000652553 -0.000649646 -0.00064624 -0.000642335 -0.00063793 -0.000633026 -0.000627623 -0.000621721 -0.000615319 -0.000608317 -0.000600611 -0.000592202 -0.000583091 -0.000573277 -0.00056276 -0.000551539 -0.000539616 -0.000526987 -0.000513646 -0.000499595 -0.000484833 -0.00046936 -0.000453176 -0.000436282 -0.000418677 -0.000400532 -0.000382018 -0.000363135 -0.000343884 -0.000324263 -0.000304273 -0.000283914 -0.000263187 -0.000242179 -0.00022098 -0.000199589 -0.000178008 -0.000156235 -0.000134271 -0.000112115 -8.97688e-05 -6.87293e-05 -5.0495e-05 -3.5066e-05 -2.24422e-05 -1.26237e-05 -5.61055e-06 -1.40264e-06 0 0 -8.62421e-08 -3.44968e-07 -7.76179e-07 -1.37987e-06 -2.15605e-06 -3.10472e-06 -4.22586e-06 -5.5195e-06 -7.46793e-06 -1.05535e-05 -1.47761e-05 -2.01359e-05 -2.66328e-05 -3.42668e-05 -4.30379e-05 -5.29462e-05 -6.40952e-05 -7.65888e-05 -9.04269e-05 -0.00010561 -0.000122137 -0.000140008 -0.000159225 -0.000179785 -0.00020147 -0.000224057 -0.000247547 -0.000271939 -0.000297235 -0.000323433 -0.000350534 -0.000378537 -0.000406987 -0.000435427 -0.000463858 -0.000492278 -0.000520689 -0.00054909 -0.000577481 -0.000605862 -0.000633824 -0.000660959 -0.000687266 -0.000712746 -0.000737399 -0.000761224 -0.000784221 -0.000806391 -0.000827578 -0.000847628 -0.000866539 -0.000884312 -0.000900947 -0.000916444 -0.000930803 -0.000944024 -0.000956203 -0.000967434 -0.000977718 -0.000987054 -0.000995443 -0.00100288 -0.00100938 -0.00101493 -0.00101969 -0.00102384 -0.00102736 -0.00103027 -0.00103256 -0.00103423 -0.00103528 -0.00103572 -0.00103558 -0.0010349 -0.00103369 -0.00103194 -0.00102966 -0.00102685 -0.0010235 -0.00101961 -0.00101507 -0.00100975 -0.00100365 -0.000996766 -0.000989104 -0.000980661 -0.000971439 -0.000961436 -0.000950495 -0.000938455 -0.000925316 -0.00091108 -0.000895745 -0.000879312 -0.00086178 -0.000843151 -0.000823417 -0.000802572 -0.000780617 -0.000757551 -0.000733375 -0.000708088 -0.000681691 -0.000654183 -0.000625832 -0.000596904 -0.000567399 -0.000537318 -0.000506661 -0.000475427 -0.000443616 -0.000411229 -0.000378404 -0.000345281 -0.000311858 -0.000278137 -0.000244117 -0.000209798 -0.00017518 -0.000140264 -0.000107389 -7.88984e-05 -5.47906e-05 -3.5066e-05 -1.97246e-05 -8.76649e-06 -2.19162e-06 0 0 -1.24189e-07 -4.96755e-07 -1.1177e-06 -1.98702e-06 -3.10472e-06 -4.47079e-06 -6.08524e-06 -7.94807e-06 -1.07538e-05 -1.5197e-05 -2.12776e-05 -2.89957e-05 -3.83512e-05 -4.93442e-05 -6.19746e-05 -7.62425e-05 -9.22971e-05 -0.000110288 -0.000130215 -0.000152078 -0.000175877 -0.000201612 -0.000229284 -0.000258891 -0.000290117 -0.000322642 -0.000356467 -0.000391593 -0.000428018 -0.000465743 -0.000504769 -0.000545094 -0.000586062 -0.000627016 -0.000667955 -0.000708881 -0.000749792 -0.000790689 -0.000831572 -0.000872441 -0.000912707 -0.000951781 -0.000989664 -0.00102635 -0.00106185 -0.00109616 -0.00112928 -0.0011612 -0.00119171 -0.00122058 -0.00124782 -0.00127341 -0.00129736 -0.00131968 -0.00134036 -0.0013594 -0.00137693 -0.0013931 -0.00140791 -0.00142136 -0.00143344 -0.00144415 -0.00145351 -0.00146149 -0.00146835 -0.00147432 -0.0014794 -0.00148359 -0.00148689 -0.00148929 -0.00149081 -0.00149144 -0.00149123 -0.00149026 -0.00148851 -0.001486 -0.00148271 -0.00147866 -0.00147384 -0.00146824 -0.0014617 -0.00145404 -0.00144525 -0.00143534 -0.00142431 -0.00141215 -0.00139887 -0.00138447 -0.00136871 -0.00135137 -0.00133246 -0.00131195 -0.00128987 -0.00126621 -0.00124096 -0.00121414 -0.00118572 -0.0011557 -0.00112409 -0.00109087 -0.00105606 -0.00101965 -0.000981635 -0.000942023 -0.000901197 -0.000859541 -0.000817055 -0.000773738 -0.000729591 -0.000684614 -0.000638807 -0.00059217 -0.000544902 -0.000497204 -0.000449076 -0.000400517 -0.000351528 -0.000302109 -0.00025226 -0.00020198 -0.000154641 -0.000113614 -7.88984e-05 -5.0495e-05 -2.84034e-05 -1.26237e-05 -3.15594e-06 0 0 -1.69035e-07 -6.76138e-07 -1.52131e-06 -2.70455e-06 -4.22586e-06 -6.08524e-06 -8.28269e-06 -1.08182e-05 -1.46371e-05 -2.06848e-05 -2.89612e-05 -3.94664e-05 -5.22003e-05 -6.71629e-05 -8.43543e-05 -0.000103774 -0.000125627 -0.000150114 -0.000177237 -0.000206995 -0.000239388 -0.000274417 -0.00031208 -0.000352379 -0.000394881 -0.000439152 -0.000485192 -0.000533001 -0.00058258 -0.000633928 -0.000687046 -0.000741933 -0.000797695 -0.000853438 -0.000909161 -0.000964865 -0.00102055 -0.00107622 -0.00113186 -0.00118749 -0.0012423 -0.00129548 -0.00134704 -0.00139698 -0.0014453 -0.001492 -0.00153707 -0.00158053 -0.00162205 -0.00166135 -0.00169842 -0.00173325 -0.00176586 -0.00179623 -0.00182437 -0.00185029 -0.00187416 -0.00189617 -0.00191633 -0.00193463 -0.00195107 -0.00196565 -0.00197838 -0.00198925 -0.00199859 -0.00200672 -0.00201363 -0.00201933 -0.00202382 -0.00202709 -0.00202916 -0.00203001 -0.00202973 -0.00202841 -0.00202603 -0.00202261 -0.00201814 -0.00201262 -0.00200606 -0.00199844 -0.00198954 -0.00197911 -0.00196715 -0.00195366 -0.00193864 -0.0019221 -0.00190402 -0.00188442 -0.00186297 -0.00183937 -0.00181362 -0.00178572 -0.00175566 -0.00172345 -0.00168909 -0.00165258 -0.0016139 -0.00157304 -0.00153001 -0.0014848 -0.00143741 -0.00138785 -0.00133611 -0.0012822 -0.00122663 -0.00116993 -0.0011121 -0.00105314 -0.000993055 -0.000931836 -0.000869487 -0.000806009 -0.000741672 -0.00067675 -0.000611242 -0.000545149 -0.000478469 -0.000411204 -0.000343353 -0.000274917 -0.000210483 -0.000154641 -0.000107389 -6.87293e-05 -3.86602e-05 -1.71823e-05 -4.29558e-06 0 0 -2.2078e-07 -8.83119e-07 -1.98702e-06 -3.53248e-06 -5.5195e-06 -7.94807e-06 -1.08182e-05 -1.41299e-05 -1.91179e-05 -2.70169e-05 -3.78269e-05 -5.15479e-05 -6.818e-05 -8.7723e-05 -0.000110177 -0.000135542 -0.000164084 -0.000196067 -0.000231493 -0.00027036 -0.00031267 -0.000358422 -0.000407615 -0.000460251 -0.000515763 -0.000573586 -0.00063372 -0.000696165 -0.000760921 -0.000827988 -0.000897366 -0.000969055 -0.00104189 -0.00111469 -0.00118748 -0.00126023 -0.00133296 -0.00140567 -0.00147835 -0.00155101 -0.00162259 -0.00169205 -0.0017594 -0.00182463 -0.00188774 -0.00194873 -0.00200761 -0.00206436 -0.0021186 -0.00216993 -0.00221834 -0.00226384 -0.00230642 -0.0023461 -0.00238286 -0.0024167 -0.00244788 -0.00247663 -0.00250296 -0.00252686 -0.00254833 -0.00256738 -0.00258401 -0.00259821 -0.00261041 -0.00262102 -0.00263005 -0.00263749 -0.00264335 -0.00264763 -0.00265033 -0.00265144 -0.00265108 -0.00264935 -0.00264624 -0.00264178 -0.00263594 -0.00262873 -0.00262015 -0.00261021 -0.00259858 -0.00258496 -0.00256934 -0.00255172 -0.00253211 -0.00251049 -0.00248688 -0.00246128 -0.00243327 -0.00240244 -0.00236881 -0.00233236 -0.00229311 -0.00225104 -0.00220616 -0.00215847 -0.00210795 -0.00205458 -0.00199838 -0.00193933 -0.00187744 -0.00181271 -0.00174513 -0.00167471 -0.00160213 -0.00152807 -0.00145254 -0.00137553 -0.00129705 -0.00121709 -0.00113566 -0.00105275 -0.000968715 -0.000883918 -0.000798357 -0.000712031 -0.000624939 -0.000537083 -0.000448462 -0.000359075 -0.000274917 -0.00020198 -0.000140264 -8.97688e-05 -5.0495e-05 -2.24422e-05 -5.61055e-06 0 0 -2.95979e-07 -1.18391e-06 -2.66381e-06 -4.73566e-06 -7.39947e-06 -1.06552e-05 -1.4503e-05 -1.89426e-05 -2.54866e-05 -3.56474e-05 -4.94248e-05 -6.6819e-05 -8.78298e-05 -0.000112457 -0.000140702 -0.000172563 -0.000208365 -0.000248433 -0.000292767 -0.000341367 -0.000394233 -0.000451365 -0.000512763 -0.000578427 -0.000647642 -0.000719695 -0.000794584 -0.00087231 -0.000952874 -0.00103627 -0.00112251 -0.00121159 -0.00130204 -0.00139241 -0.0014827 -0.0015729 -0.00166303 -0.00175307 -0.00184303 -0.00193291 -0.00202141 -0.00210724 -0.00219038 -0.00227086 -0.00234865 -0.00242377 -0.00249622 -0.00256599 -0.0026326 -0.00269559 -0.00275495 -0.00281067 -0.00286277 -0.00291124 -0.00295608 -0.00299728 -0.00303519 -0.00307012 -0.00310207 -0.00313105 -0.00315705 -0.00318007 -0.00320011 -0.00321718 -0.00323182 -0.00324456 -0.0032554 -0.00326434 -0.00327139 -0.00327654 -0.0032798 -0.00328116 -0.00328075 -0.00327872 -0.00327506 -0.00326977 -0.00326284 -0.00325429 -0.00324411 -0.0032323 -0.00321845 -0.00320216 -0.00318342 -0.00316223 -0.0031386 -0.00311252 -0.003084 -0.00305303 -0.00301908 -0.00298162 -0.00294066 -0.00289618 -0.00284819 -0.0027967 -0.00274169 -0.00268317 -0.00262111 -0.00255545 -0.00248621 -0.00241338 -0.00233696 -0.00225696 -0.00217336 -0.00208618 -0.00199625 -0.00190443 -0.00181071 -0.0017151 -0.00161759 -0.00151818 -0.00141688 -0.00131369 -0.00120904 -0.0011034 -0.000996758 -0.000889116 -0.000780475 -0.000670835 -0.000560195 -0.000448556 -0.000343425 -0.000252312 -0.000175217 -0.000112139 -6.30781e-05 -2.80347e-05 -7.00868e-06 0 0 -4.11185e-07 -1.64474e-06 -3.70067e-06 -6.57897e-06 -1.02796e-05 -1.48027e-05 -2.01481e-05 -2.63159e-05 -3.5034e-05 -4.80304e-05 -6.53051e-05 -8.68581e-05 -0.000112689 -0.000142799 -0.000177187 -0.000215853 -0.000259167 -0.000307497 -0.000360844 -0.000419208 -0.000482588 -0.000550986 -0.0006244 -0.00070283 -0.000785399 -0.000871228 -0.000960316 -0.00105266 -0.00114827 -0.00124714 -0.00134927 -0.00145465 -0.00156155 -0.00166821 -0.00177462 -0.0018808 -0.00198674 -0.00209244 -0.0021979 -0.00230313 -0.00240658 -0.00250675 -0.00260363 -0.00269722 -0.00278752 -0.00287453 -0.00295825 -0.00303868 -0.00311531 -0.00318762 -0.0032556 -0.00331926 -0.0033786 -0.00343361 -0.00348431 -0.00353068 -0.00357318 -0.00361226 -0.00364793 -0.00368018 -0.00370901 -0.00373443 -0.00375643 -0.00377501 -0.00379086 -0.00380466 -0.00381643 -0.00382615 -0.00383382 -0.00383945 -0.00384304 -0.00384458 -0.00384424 -0.00384217 -0.00383838 -0.00383285 -0.0038256 -0.00381661 -0.00380591 -0.00379347 -0.00377877 -0.00376128 -0.00374099 -0.00371791 -0.00369203 -0.00366336 -0.0036319 -0.00359764 -0.00355989 -0.00351794 -0.00347179 -0.00342144 -0.00336689 -0.00330815 -0.0032452 -0.00317806 -0.00310662 -0.00303077 -0.00295052 -0.00286587 -0.00277681 -0.00268335 -0.00258549 -0.00248323 -0.00237755 -0.00226946 -0.00215895 -0.00204602 -0.00193067 -0.00181291 -0.00169273 -0.00157014 -0.00144567 -0.00131989 -0.00119278 -0.00106436 -0.000934612 -0.000803547 -0.000671163 -0.000537458 -0.000411491 -0.00030232 -0.000209945 -0.000134365 -7.55801e-05 -3.35911e-05 -8.39779e-06 0 0 -5.664e-07 -2.2656e-06 -5.0976e-06 -9.0624e-06 -1.416e-05 -2.03904e-05 -2.77536e-05 -3.62496e-05 -4.77599e-05 -6.41659e-05 -8.54677e-05 -0.000111665 -0.000142759 -0.000178748 -0.000219632 -0.000265413 -0.000316489 -0.000373259 -0.000435723 -0.000503882 -0.000577735 -0.000657283 -0.000742525 -0.000833461 -0.000929034 -0.00102819 -0.00113092 -0.00123723 -0.00134711 -0.00146058 -0.00157763 -0.00169825 -0.00182042 -0.00194209 -0.00206326 -0.00218393 -0.00230411 -0.00242378 -0.00254296 -0.00266165 -0.0027781 -0.0028906 -0.00299914 -0.00310372 -0.00320434 -0.003301 -0.00339371 -0.00348245 -0.00356673 -0.00364601 -0.0037203 -0.0037896 -0.0038539 -0.00391322 -0.00396755 -0.00401688 -0.00406185 -0.00410307 -0.00414054 -0.00417426 -0.00420423 -0.00423046 -0.00425294 -0.00427167 -0.00428752 -0.00430134 -0.00431313 -0.0043229 -0.00433065 -0.00433636 -0.00434006 -0.00434172 -0.00434155 -0.0043397 -0.0043362 -0.00433103 -0.00432419 -0.0043157 -0.00430554 -0.00429371 -0.00427953 -0.00426231 -0.00424205 -0.00421875 -0.0041924 -0.00416302 -0.00413059 -0.00409512 -0.0040557 -0.00401139 -0.00396221 -0.00390815 -0.00384921 -0.0037854 -0.0037167 -0.00364313 -0.00356448 -0.00348054 -0.00339131 -0.0032968 -0.00319699 -0.0030919 -0.00298152 -0.00286586 -0.00274603 -0.00262316 -0.00249725 -0.0023683 -0.00223631 -0.00210128 -0.0019632 -0.00182209 -0.0016786 -0.00153338 -0.00138643 -0.00123775 -0.00108735 -0.000935222 -0.000781366 -0.000625784 -0.000479116 -0.000352003 -0.000244447 -0.000156446 -8.80008e-05 -3.91115e-05 -9.77787e-06 0 0 -7.61622e-07 -3.04649e-06 -6.8546e-06 -1.2186e-05 -1.90406e-05 -2.74184e-05 -3.73195e-05 -4.87438e-05 -6.36643e-05 -8.40539e-05 -0.000109913 -0.00014124 -0.000178037 -0.000220303 -0.000268039 -0.000321243 -0.000380331 -0.000445718 -0.000517405 -0.00059539 -0.000679674 -0.000770257 -0.000867138 -0.000970319 -0.00107855 -0.00119057 -0.00130639 -0.001426 -0.0015494 -0.0016766 -0.0018076 -0.00194239 -0.00207865 -0.00221405 -0.00234859 -0.00248228 -0.00261512 -0.00274709 -0.00287821 -0.00300848 -0.00313597 -0.00325878 -0.00337691 -0.00349035 -0.00359911 -0.00370319 -0.00380259 -0.00389729 -0.00398685 -0.00407076 -0.00414904 -0.00422168 -0.00428869 -0.00435006 -0.0044058 -0.0044559 -0.0045012 -0.00454253 -0.00457989 -0.00461328 -0.00464271 -0.00466817 -0.00468966 -0.00470719 -0.0047218 -0.00473458 -0.00474552 -0.00475461 -0.00476186 -0.00476727 -0.00477084 -0.00477257 -0.00477266 -0.00477131 -0.00476852 -0.0047643 -0.00475864 -0.00475154 -0.004743 -0.00473303 -0.00472074 -0.00470526 -0.0046866 -0.00466475 -0.00463971 -0.00461149 -0.00458007 -0.00454547 -0.0045065 -0.00446198 -0.00441192 -0.0043563 -0.00429514 -0.00422844 -0.00415619 -0.00407838 -0.00399469 -0.00390475 -0.00380858 -0.00370616 -0.0035975 -0.0034826 -0.00336145 -0.00323407 -0.00310168 -0.00296553 -0.00282562 -0.00268193 -0.00253449 -0.00238328 -0.0022283 -0.00206956 -0.00190782 -0.00174387 -0.0015777 -0.0014093 -0.00123869 -0.00106586 -0.000890805 -0.000713532 -0.000546298 -0.000401362 -0.000278723 -0.000178383 -0.00010034 -4.45957e-05 -1.11489e-05 0 0 -9.96852e-07 -3.98741e-06 -8.97167e-06 -1.59496e-05 -2.49213e-05 -3.58867e-05 -4.88458e-05 -6.37985e-05 -8.27473e-05 -0.000107694 -0.00013864 -0.000175584 -0.000218526 -0.000267467 -0.000322405 -0.000383343 -0.000450694 -0.000524876 -0.000605888 -0.000693731 -0.000788404 -0.000889907 -0.00099824 -0.0011134 -0.00123394 -0.00135838 -0.00148672 -0.00161898 -0.00175514 -0.0018952 -0.00203918 -0.00218706 -0.00233623 -0.00248409 -0.00263064 -0.00277587 -0.00291978 -0.00306237 -0.00320365 -0.00334362 -0.00348019 -0.0036113 -0.00373695 -0.00385713 -0.00397184 -0.0040811 -0.00418488 -0.00428321 -0.00437567 -0.00446188 -0.00454183 -0.00461552 -0.00468296 -0.00474414 -0.00479906 -0.00484772 -0.00489122 -0.00493065 -0.00496599 -0.00499726 -0.00502444 -0.00504756 -0.00506659 -0.00508154 -0.00509371 -0.00510439 -0.00511358 -0.00512127 -0.00512748 -0.00513219 -0.00513541 -0.00513713 -0.00513759 -0.005137 -0.00513536 -0.00513267 -0.00512893 -0.00512414 -0.00511831 -0.00511142 -0.0051024 -0.00509014 -0.00507464 -0.00505592 -0.00503396 -0.00500876 -0.00498034 -0.00494868 -0.00491229 -0.00486971 -0.00482091 -0.00476591 -0.00470469 -0.00463728 -0.00456365 -0.00448382 -0.00439725 -0.00430342 -0.00420232 -0.00409396 -0.00397833 -0.00385544 -0.00372528 -0.00358787 -0.00344452 -0.00329658 -0.00314405 -0.00298693 -0.00282522 -0.00265891 -0.00248802 -0.00231253 -0.00213335 -0.00195137 -0.00176659 -0.00157901 -0.00138863 -0.00119546 -0.000999478 -0.000800702 -0.000613038 -0.000450395 -0.000312774 -0.000200176 -0.000112599 -5.00439e-05 -1.2511e-05 0 0 -1.27209e-06 -5.08836e-06 -1.14488e-05 -2.03534e-05 -3.18023e-05 -4.57952e-05 -6.23324e-05 -8.14138e-05 -0.000105009 -0.000135088 -0.00017165 -0.000214695 -0.000264224 -0.000320237 -0.000382733 -0.000451712 -0.000527578 -0.000610732 -0.000701174 -0.000798906 -0.000903925 -0.00101623 -0.00113583 -0.00126272 -0.0013952 -0.00153161 -0.00167193 -0.00181616 -0.00196431 -0.00211638 -0.00227236 -0.00243226 -0.00259318 -0.00275222 -0.00290939 -0.00306468 -0.00321809 -0.00336962 -0.00351928 -0.00366707 -0.00381076 -0.00394815 -0.00407925 -0.00420404 -0.00432253 -0.00443472 -0.0045406 -0.00464019 -0.0047332 -0.00481936 -0.00489866 -0.00497111 -0.0050367 -0.00509544 -0.00514733 -0.00519236 -0.00523193 -0.00526742 -0.00529884 -0.00532617 -0.00534943 -0.00536862 -0.00538372 -0.00539475 -0.00540325 -0.00541077 -0.00541732 -0.00542289 -0.00542748 -0.0054311 -0.00543374 -0.0054354 -0.00543633 -0.00543676 -0.00543669 -0.00543613 -0.00543506 -0.0054335 -0.00543144 -0.00542889 -0.0054245 -0.00541693 -0.00540618 -0.00539225 -0.00537514 -0.00535485 -0.00533139 -0.00530475 -0.00527309 -0.00523457 -0.00518919 -0.00513695 -0.00507786 -0.00501191 -0.0049391 -0.00485943 -0.00477216 -0.00467653 -0.00457254 -0.00446019 -0.00433949 -0.00421043 -0.00407302 -0.00392724 -0.00377453 -0.0036163 -0.00345255 -0.00328328 -0.00310849 -0.00292819 -0.00274236 -0.00255101 -0.00235518 -0.00215587 -0.00195311 -0.00174687 -0.00153718 -0.00132401 -0.00110739 -0.000887296 -0.000679336 -0.000499104 -0.0003466 -0.000221824 -0.000124776 -5.5456e-05 -1.3864e-05 0 0 -1.58734e-06 -6.34934e-06 -1.4286e-05 -2.53974e-05 -3.96834e-05 -5.71441e-05 -7.77795e-05 -0.000101589 -0.000130449 -0.000166233 -0.000208942 -0.000258575 -0.000315132 -0.000378614 -0.000449021 -0.000526351 -0.000610981 -0.000703285 -0.000803263 -0.000910914 -0.00102624 -0.00114924 -0.00127991 -0.00141826 -0.00156235 -0.00171026 -0.001862 -0.00201756 -0.00217694 -0.00234014 -0.00250716 -0.002678 -0.00284948 -0.00301843 -0.00318484 -0.00334871 -0.00351005 -0.00366884 -0.0038251 -0.00397882 -0.00412768 -0.00426934 -0.00440381 -0.00453108 -0.00465116 -0.00476405 -0.00486975 -0.00496825 -0.00505944 -0.0051432 -0.00521954 -0.00528845 -0.00534993 -0.00540398 -0.00545061 -0.00548981 -0.00552332 -0.00555286 -0.00557843 -0.00560004 -0.00561768 -0.00563135 -0.00564106 -0.0056468 -0.00565041 -0.00565372 -0.00565674 -0.00565946 -0.00566189 -0.00566402 -0.00566585 -0.00566739 -0.00566889 -0.0056706 -0.00567253 -0.00567468 -0.00567704 -0.00567962 -0.00568242 -0.00568543 -0.00568705 -0.00568563 -0.0056812 -0.00567374 -0.00566326 -0.00564976 -0.00563323 -0.00561368 -0.00558887 -0.00555657 -0.00551676 -0.00546945 -0.00541464 -0.00535234 -0.00528253 -0.00520523 -0.00511942 -0.00502409 -0.00491924 -0.00480487 -0.00468098 -0.00454757 -0.00440465 -0.0042522 -0.00409172 -0.00392469 -0.00375112 -0.00357099 -0.00338432 -0.0031911 -0.00299132 -0.002785 -0.0025733 -0.00235738 -0.00213724 -0.00191289 -0.00168432 -0.00145153 -0.00121453 -0.000973311 -0.000745192 -0.000547488 -0.0003802 -0.000243328 -0.000136872 -6.0832e-05 -1.5208e-05 0 0 -1.94259e-06 -7.77036e-06 -1.74833e-05 -3.10814e-05 -4.85647e-05 -6.99332e-05 -9.51869e-05 -0.000124326 -0.000159068 -0.000201131 -0.000250516 -0.000307222 -0.00037125 -0.000442599 -0.000521269 -0.000607261 -0.000700906 -0.000802537 -0.000912153 -0.00102976 -0.00115534 -0.00128892 -0.00143048 -0.00158002 -0.00173537 -0.00189435 -0.00205694 -0.00222316 -0.00239301 -0.00256647 -0.00274356 -0.00292427 -0.00310515 -0.00328272 -0.003457 -0.00362798 -0.00379565 -0.00396003 -0.00412111 -0.00427889 -0.00443094 -0.00457486 -0.00471063 -0.00483827 -0.00495776 -0.0050691 -0.00517231 -0.00526737 -0.00535438 -0.00543341 -0.00550446 -0.00556753 -0.00562263 -0.00566976 -0.00570891 -0.00574008 -0.00576539 -0.00578695 -0.00580477 -0.00581885 -0.00582918 -0.00583576 -0.0058386 -0.00583769 -0.00583519 -0.00583324 -0.00583184 -0.00583098 -0.00583068 -0.00583093 -0.00583173 -0.00583308 -0.00583525 -0.00583852 -0.00584288 -0.00584833 -0.00585487 -0.0058625 -0.00587123 -0.00588106 -0.00589004 -0.00589626 -0.00589971 -0.0059004 -0.00589832 -0.00589347 -0.00588586 -0.00587548 -0.00585966 -0.0058357 -0.00580361 -0.00576339 -0.00571504 -0.00565856 -0.00559395 -0.00552121 -0.00543903 -0.00534609 -0.00524241 -0.00512798 -0.00500279 -0.00486686 -0.00472017 -0.00456274 -0.00439609 -0.00422176 -0.00403975 -0.00385006 -0.00365269 -0.00344764 -0.00323491 -0.0030145 -0.00278772 -0.00255589 -0.002319 -0.00207706 -0.00183007 -0.00157802 -0.00132091 -0.00105875 -0.000810605 -0.000595547 -0.000413574 -0.000264687 -0.000148887 -6.61719e-05 -1.6543e-05 0 0 -2.34065e-06 -9.36259e-06 -2.10658e-05 -3.74503e-05 -5.85162e-05 -8.42633e-05 -0.000114692 -0.000149801 -0.000191083 -0.000240026 -0.000296632 -0.000360899 -0.000432829 -0.000512421 -0.000599675 -0.000694591 -0.000797439 -0.000908488 -0.00102774 -0.00115519 -0.00129084 -0.0014347 -0.00158675 -0.00174701 -0.00191301 -0.0020823 -0.00225489 -0.00243076 -0.00260992 -0.00279237 -0.00297811 -0.00316714 -0.00335571 -0.0035401 -0.00372029 -0.00389628 -0.00406809 -0.0042357 -0.00439912 -0.00455834 -0.00471088 -0.00485427 -0.00498848 -0.00511354 -0.00522943 -0.00533616 -0.00543373 -0.00552213 -0.00560171 -0.0056728 -0.00573539 -0.0057895 -0.00583511 -0.00587223 -0.00590086 -0.00592099 -0.0059352 -0.00594603 -0.00595349 -0.00595757 -0.00595828 -0.00595562 -0.00594959 -0.00594018 -0.00592989 -0.00592123 -0.00591419 -0.00590877 -0.00590498 -0.0059028 -0.00590225 -0.00590332 -0.0059063 -0.00591147 -0.00591883 -0.00592838 -0.00594013 -0.00595406 -0.00597018 -0.0059885 -0.00600673 -0.00602258 -0.00603607 -0.00604719 -0.00605593 -0.00606231 -0.00606632 -0.00606796 -0.00606404 -0.00605137 -0.00602997 -0.00599981 -0.00596092 -0.00591327 -0.00585689 -0.00579176 -0.00571622 -0.00562861 -0.00552894 -0.00541719 -0.00529338 -0.0051575 -0.00500955 -0.00484953 -0.00467901 -0.00449954 -0.00431113 -0.00411378 -0.00390749 -0.00369225 -0.00346807 -0.00323495 -0.00299436 -0.00274778 -0.00249519 -0.00223661 -0.00197202 -0.00170145 -0.00142487 -0.00114229 -0.000874569 -0.000642541 -0.000446209 -0.000285574 -0.000160635 -7.13934e-05 -1.78483e-05 0 0 -2.7843e-06 -1.11372e-05 -2.50587e-05 -4.45488e-05 -6.96076e-05 -0.000100235 -0.000136431 -0.000178195 -0.000226712 -0.000283162 -0.000347548 -0.000419868 -0.000500122 -0.000588312 -0.000684435 -0.000788494 -0.000900668 -0.00102114 -0.00114991 -0.00128697 -0.00143234 -0.001586 -0.00174795 -0.00191821 -0.002094 -0.00227259 -0.00245396 -0.00263812 -0.00282507 -0.00301481 -0.00320733 -0.00340264 -0.00359672 -0.00378555 -0.00396913 -0.00414746 -0.00432053 -0.00448836 -0.00465093 -0.00480825 -0.00495782 -0.0050971 -0.00522612 -0.00534486 -0.00545333 -0.00555152 -0.00563944 -0.00571709 -0.00578513 -0.0058442 -0.0058943 -0.00593545 -0.00596763 -0.00599085 -0.00600511 -0.00601041 -0.00600982 -0.00600642 -0.00600021 -0.00599119 -0.00597936 -0.00596471 -0.00594726 -0.00592699 -0.00590681 -0.0058896 -0.00587538 -0.00586414 -0.00585587 -0.00585059 -0.00584828 -0.00584895 -0.0058529 -0.00586042 -0.00587151 -0.00588617 -0.0059044 -0.0059262 -0.00595158 -0.00598052 -0.00601035 -0.00603838 -0.00606462 -0.00608907 -0.00611172 -0.00613258 -0.00615164 -0.00616891 -0.00618061 -0.00618299 -0.00617603 -0.00615974 -0.00613411 -0.00609916 -0.00605487 -0.00600126 -0.00593623 -0.0058577 -0.00576569 -0.00566018 -0.00554118 -0.00540869 -0.00526271 -0.00510323 -0.00493183 -0.00475006 -0.00455793 -0.00435543 -0.00414257 -0.00391935 -0.00368576 -0.0034418 -0.00318913 -0.0029294 -0.0026626 -0.00238874 -0.00210781 -0.00181981 -0.00152475 -0.00122263 -0.000936074 -0.000687728 -0.000477589 -0.000305657 -0.000171932 -7.64142e-05 -1.91036e-05 0 0 -3.27356e-06 -1.30942e-05 -2.9462e-05 -5.23769e-05 -8.1839e-05 -0.000117848 -0.000160404 -0.000209508 -0.000265954 -0.00033054 -0.000403264 -0.000484127 -0.000573129 -0.00067027 -0.00077555 -0.000888969 -0.00101059 -0.00114049 -0.00127866 -0.00142511 -0.00157983 -0.00174282 -0.00191408 -0.00209362 -0.00227835 -0.0024652 -0.00265417 -0.00284526 -0.00303846 -0.00323379 -0.00343123 -0.00363079 -0.00382817 -0.00401909 -0.00420353 -0.00438149 -0.00455299 -0.00471801 -0.00487656 -0.00502864 -0.00517174 -0.00530337 -0.00542353 -0.00553222 -0.00562944 -0.00571518 -0.00578945 -0.00585225 -0.00590462 -0.0059476 -0.00598119 -0.00600539 -0.00602021 -0.00602564 -0.00602168 -0.00600833 -0.00598926 -0.00596813 -0.00594494 -0.00591969 -0.00589239 -0.00586303 -0.00583161 -0.00579813 -0.00576593 -0.00573836 -0.00571541 -0.00569708 -0.00568337 -0.00567428 -0.00566981 -0.00566997 -0.00567505 -0.00568537 -0.00570091 -0.00572169 -0.0057477 -0.00577894 -0.00581541 -0.00585711 -0.0059009 -0.00594366 -0.00598537 -0.00602605 -0.00606568 -0.00610428 -0.00614183 -0.00617834 -0.00620939 -0.00623054 -0.0062418 -0.00624317 -0.00623464 -0.00621622 -0.00618791 -0.00614971 -0.00609905 -0.00