<?xml version="1.0"?> 
<VTKFile type="StructuredGrid" version="0.1"> 
<StructuredGrid WholeExtent="0 128 0 128 0 0"> 
<Piece Extent="0 128 0 128 0 0"> 
<PointData>
<DataArray type="Float32" Name="u" format="ascii" NumberOfComponents="1"> 
0 0 0 0 0 0 0 0 0 0 0 0 0 0 0 0 0 0 0 0 0 0 0 0 0 0 0 0 0 0 0 0 0 0 0 0 0 0 0 0 0 0 0 0 0 0 0 0 0 0 0 0 0 0 0 0 0 0 0 0 0 0 0 0 0 0 0 0 0 0 0 0 0 0 0 0 0 0 0 0 0 0 0 0 0 0 0 0 0 0 0 0 0 0 0 0 0 0 0 0 0 0 0 0 0 0 0 0 0 0 0 0 0 0 0 0 0 0 0 0 0 0 0 0 0 0 0 0 0 0 7.14656e-07 2.85862e-06 6.43191e-06 1.14345e-05 1.78664e-05 2.57276e-05 3.50182e-05 4.5738e-05 5.73721e-05 6.94056e-05 8.18384e-05 9.46704e-05 0.000107902 0.000121532 0.000135562 0.000149992 0.000164858 0.0001802 0.000196016 0.000212308 0.000229074 0.000246316 0.000264032 0.000282224 0.000300803 0.000319679 0.000338854 0.000358328 0.0003781 0.00039817 0.000418539 0.000439206 0.000460041 0.000480914 0.000501825 0.000522775 0.000543763 0.000564789 0.000585853 0.000606955 0.000627936 0.000648636 0.000669057 0.000689197 0.000709056 0.000728636 0.000747935 0.000766954 0.000785526 0.000803484 0.00082083 0.000837563 0.000853682 0.000869188 0.000884082 0.000898362 0.000911885 0.000924507 0.000936228 0.000947049 0.000956969 0.000965988 0.000974106 0.000981323 0.000987549 0.000992693 0.000996754 0.000999734 0.00100163 0.00100245 0.00100218 0.00100083 0.000998381 0.000994824 0.000990155 0.000984375 0.000977484 0.000969482 0.000960369 0.000950145 0.000938881 0.000926649 0.000913449 0.000899282 0.000884147 0.000868043 0.000850972 0.000832933 0.000814077 0.000794557 0.000774371 0.000753519 0.000732003 0.000709822 0.000686975 0.000663463 0.000639496 0.000615286 0.000590831 0.000566132 0.00054119 0.000516003 0.000490572 0.000464897 0.000439216 0.000413766 0.000388547 0.00036356 0.000338803 0.000314279 0.000289985 0.000265923 0.000242144 0.0002187 0.000195591 0.000172817 0.000150377 0.000128273 0.000106503 8.50686e-05 6.51307e-05 4.78511e-05 3.32299e-05 2.12672e-05 1.19628e-05 5.31679e-06 1.3292e-06 0 0 2.85862e-06 1.14345e-05 2.57276e-05 4.5738e-05 7.14656e-05 0.00010291 0.000140073 0.000182952 0.000229489 0.000277622 0.000327353 0.000378682 0.000431607 0.00048613 0.00054225 0.000599967 0.000659432 0.000720798 0.000784064 0.000849231 0.000916297 0.000985263 0.00105613 0.0011289 0.00120321 0.00127872 0.00135542 0.00143331 0.0015124 0.00159268 0.00167415 0.00175682 0.00184016 0.00192366 0.0020073 0.0020911 0.00217505 0.00225915 0.00234341 0.00242782 0.00251174 0.00259454 0.00267623 0.00275679 0.00283623 0.00291454 0.00299174 0.00306781 0.0031421 0.00321394 0.00328332 0.00335025 0.00341473 0.00347675 0.00353633 0.00359345 0.00364754 0.00369803 0.00374491 0.0037882 0.00382787 0.00386395 0.00389642 0.00392529 0.0039502 0.00397077 0.00398702 0.00399893 0.00400652 0.00400978 0.00400871 0.00400331 0.00399353 0.0039793 0.00396062 0.0039375 0.00390994 0.00387793 0.00384148 0.00380058 0.00375552 0.0037066 0.0036538 0.00359713 0.00353659 0.00347217 0.00340389 0.00333173 0.00325631 0.00317823 0.00309748 0.00301408 0.00292801 0.00283929 0.0027479 0.00265385 0.00255799 0.00246114 0.00236332 0.00226453 0.00216476 0.00206401 0.00196229 0.00185959 0.00175686 0.00165506 0.00155419 0.00145424 0.00135521 0.00125711 0.00115994 0.00106369 0.000968577 0.0008748 0.000782363 0.000691266 0.000601509 0.000513091 0.000426013 0.000340275 0.000260523 0.000191404 0.00013292 8.50686e-05 4.78511e-05 2.12672e-05 5.31679e-06 0 0 6.43191e-06 2.57276e-05 5.78871e-05 0.00010291 0.000160798 0.000231549 0.000315163 0.000411642 0.000516349 0.00062465 0.000736545 0.000852034 0.000971116 0.00109379 0.00122006 0.00134993 0.00148372 0.0016218 0.00176414 0.00191077 0.00206167 0.00221684 0.00237629 0.00254002 0.00270722 0.00287711 0.00304969 0.00322495 0.0034029 0.00358353 0.00376685 0.00395285 0.00414037 0.00432823 0.00451643 0.00470498 0.00489386 0.0050831 0.00527267 0.00546259 0.00565142 0.00583773 0.00602151 0.00620277 0.00638151 0.00655772 0.00673141 0.00690258 0.00706973 0.00723136 0.00738747 0.00753806 0.00768314 0.0078227 0.00795673 0.00808525 0.00820696 0.00832056 0.00842605 0.00852344 0.00861272 0.00869389 0.00876695 0.00883191 0.00888794 0.00893424 0.00897079 0.0089976 0.00901468 0.00902201 0.0090196 0.00900745 0.00898543 0.00895341 0.0089114 0.00885938 0.00879736 0.00872534 0.00864332 0.0085513 0.00844993 0.00833984 0.00822104 0.00809354 0.00795732 0.00781239 0.00765875 0.0074964 0.0073267 0.00715101 0.00696934 0.00678168 0.00658803 0.00638839 0.00618277 0.00597117 0.00575547 0.00553757 0.00531748 0.00509519 0.00487071 0.00464402 0.00441515 0.00418407 0.00395294 0.00372389 0.00349692 0.00327204 0.00304923 0.00282851 0.00260987 0.00239331 0.0021793 0.0019683 0.00176032 0.00155535 0.00135339 0.00115445 0.000958529 0.000765618 0.000586176 0.00043066 0.000299069 0.000191404 0.000107665 4.78511e-05 1.19628e-05 0 0 1.14345e-05 4.5738e-05 0.00010291 0.000182952 0.000285862 0.000411642 0.00056029 0.000731808 0.000917954 0.00111049 0.00130941 0.00151473 0.00172643 0.00194452 0.002169 0.00239987 0.00263773 0.00288319 0.00313626 0.00339692 0.00366519 0.00394105 0.00422452 0.00451559 0.00481284 0.00511487 0.00542167 0.00573325 0.0060496 0.00637072 0.00669662 0.00702729 0.00736065 0.00769462 0.00802921 0.0083644 0.0087002 0.00903662 0.00937364 0.00971127 0.010047 0.0103782 0.0107049 0.0110271 0.0113449 0.0116582 0.011967 0.0122713 0.0125684 0.0128558 0.0131333 0.013401 0.0136589 0.013907 0.0141453 0.0143738 0.0145902 0.0147921 0.0149797 0.0151528 0.0153115 0.0154558 0.0155857 0.0157012 0.0158008 0.0158831 0.0159481 0.0159957 0.0160261 0.0160391 0.0160348 0.0160132 0.0159741 0.0159172 0.0158425 0.01575 0.0156397 0.0155117 0.0153659 0.0152023 0.0150221 0.0148264 0.0146152 0.0143885 0.0141463 0.0138887 0.0136156 0.0133269 0.0130252 0.0127129 0.0123899 0.0120563 0.011712 0.0113571 0.0109916 0.0106154 0.0102319 0.00984457 0.0094533 0.00905812 0.00865903 0.00825604 0.00784915 0.00743835 0.00702745 0.00662025 0.00621675 0.00581695 0.00542086 0.00502846 0.00463976 0.00425477 0.00387431 0.0034992 0.00312945 0.00276507 0.00240604 0.00205236 0.00170405 0.0013611 0.00104209 0.000765618 0.000531679 0.000340275 0.000191404 8.50686e-05 2.12672e-05 0 0 1.78664e-05 7.14656e-05 0.000160798 0.000285862 0.00044666 0.000643191 0.000875454 0.00114345 0.0014343 0.00173514 0.00204596 0.00236676 0.00269754 0.00303831 0.00338906 0.00374979 0.00412145 0.00450499 0.0049004 0.00530769 0.00572686 0.0061579 0.00660081 0.0070556 0.00752006 0.00799198 0.00847136 0.0089582 0.00945249 0.00995425 0.0104635 0.0109801 0.011501 0.0120229 0.0125456 0.0130694 0.0135941 0.0141197 0.0146463 0.0151739 0.0156984 0.0162159 0.0167264 0.0172299 0.0177264 0.0182159 0.0186984 0.0191738 0.0196381 0.0200871 0.0205208 0.0209391 0.0213421 0.0217297 0.022102 0.022459 0.0227971 0.0231127 0.0234057 0.0236762 0.0239242 0.0241497 0.0243526 0.0245331 0.0246887 0.0248173 0.0249189 0.0249933 0.0250408 0.0250611 0.0250544 0.0250207 0.0249595 0.0248706 0.0247539 0.0246094 0.0244371 0.0242371 0.0240092 0.0237536 0.023472 0.0231662 0.0228362 0.022482 0.0221037 0.0217011 0.0212743 0.0208233 0.0203519 0.0198639 0.0193593 0.018838 0.0183001 0.0177455 0.0171744 0.0165866 0.0159874 0.0153821 0.0147708 0.0141533 0.0135297 0.0129001 0.0122643 0.0116224 0.0109804 0.0103441 0.00971367 0.00908899 0.00847009 0.00785697 0.00724963 0.00664808 0.0060536 0.0054675 0.00488977 0.00432041 0.00375943 0.00320682 0.00266258 0.00212672 0.00162827 0.00119628 0.000830748 0.000531679 0.000299069 0.00013292 3.32299e-05 0 0 2.57276e-05 0.00010291 0.000231549 0.000411642 0.000643191 0.000926194 0.00126065 0.00164657 0.0020654 0.0024986 0.00294618 0.00340813 0.00388446 0.00437517 0.00488025 0.0053997 0.00593489 0.00648718 0.00705658 0.00764307 0.00824667 0.00886737 0.00950517 0.0101601 0.0108289 0.0115085 0.0121988 0.0128998 0.0136116 0.0143341 0.0150674 0.0158114 0.0165615 0.0173129 0.0180657 0.0188199 0.0195755 0.0203324 0.0210907 0.0218504 0.0226057 0.0233509 0.024086 0.0248111 0.025526 0.0262309 0.0269257 0.0276103 0.0282789 0.0289254 0.0295499 0.0301523 0.0307326 0.0312908 0.0318269 0.032341 0.0328278 0.0332822 0.0337042 0.0340938 0.0344509 0.0347756 0.0350678 0.0353276 0.0355518 0.035737 0.0358832 0.0359904 0.0360587 0.036088 0.0360784 0.0360298 0.0359417 0.0358137 0.0356456 0.0354375 0.0351894 0.0349014 0.0345733 0.0342052 0.0337997 0.0333594 0.0328842 0.0323741 0.0318293 0.0312496 0.030635 0.0299856 0.0293068 0.028604 0.0278773 0.0271267 0.0263521 0.0255536 0.0247311 0.0238847 0.0230219 0.0221503 0.0212699 0.0203808 0.0194828 0.0185761 0.0176606 0.0167363 0.0158118 0.0148956 0.0139877 0.0130881 0.0121969 0.011314 0.0104395 0.00957323 0.00871719 0.0078732 0.00704127 0.0062214 0.00541358 0.00461782 0.00383412 0.00306247 0.0023447 0.00172264 0.00119628 0.000765618 0.00043066 0.000191404 4.78511e-05 0 0 3.50182e-05 0.000140073 0.000315163 0.00056029 0.000875454 0.00126065 0.00171589 0.00224116 0.00281124 0.00340087 0.00401008 0.00463885 0.00528719 0.00595509 0.00664256 0.00734959 0.00807805 0.00882978 0.00960479 0.0104031 0.0112246 0.0120695 0.0129376 0.013829 0.0147393 0.0156643 0.0166039 0.0175581 0.0185269 0.0195103 0.0205084 0.0215211 0.022542 0.0235648 0.0245894 0.025616 0.0266444 0.0276746 0.0287068 0.0297408 0.0307688 0.0317832 0.0327838 0.0337706 0.0347438 0.0357031 0.0366488 0.0375807 0.0384908 0.0393707 0.0402207 0.0410406 0.0418304 0.0425902 0.04332 0.0440197 0.0446823 0.0453008 0.0458752 0.0464054 0.0468915 0.0473334 0.0477312 0.0480848 0.0483899 0.048642 0.048841 0.048987 0.0490799 0.0491198 0.0491067 0.0490406 0.0489207 0.0487464 0.0485176 0.0482344 0.0478967 0.0475046 0.0470581 0.0465571 0.0460052 0.0454058 0.044759 0.0440648 0.0433232 0.0425341 0.0416976 0.0408137 0.0398898 0.0389333 0.0379442 0.0369225 0.0358682 0.0347813 0.0336618 0.0325097 0.0313353 0.030149 0.0289507 0.0277405 0.0265183 0.0252841 0.024038 0.0227799 0.0215216 0.0202745 0.0190388 0.0178144 0.0166014 0.0153997 0.0142093 0.0130302 0.0118651 0.0107163 0.00958395 0.00846801 0.00736848 0.00628537 0.00521866 0.00416836 0.0031914 0.0023447 0.00162827 0.00104209 0.000586176 0.000260523 6.51307e-05 0 0 4.5738e-05 0.000182952 0.000411642 0.000731808 0.00114345 0.00164657 0.00224116 0.00292723 0.00367182 0.00444196 0.00523765 0.00605891 0.00690571 0.00777808 0.00867599 0.00959947 0.0105509 0.0115328 0.012545 0.0135877 0.0146607 0.0157642 0.0168981 0.0180623 0.0192514 0.0204595 0.0216867 0.022933 0.0241984 0.0254829 0.0267865 0.0281092 0.0294426 0.0307785 0.0321168 0.0334576 0.0348008 0.0361465 0.0374946 0.0388451 0.0401879 0.0415127 0.0428196 0.0441086 0.0453796 0.0466327 0.0478678 0.049085 0.0502736 0.051423 0.0525331 0.053604 0.0546357 0.0556281 0.0565812 0.0574951 0.0583606 0.0591684 0.0599186 0.0606111 0.061246 0.0618232 0.0623428 0.0628047 0.0632032 0.0635324 0.0637923 0.063983 0.0641044 0.0641565 0.0641394 0.064053 0.0638964 0.0636687 0.0633699 0.063 0.062559 0.0620469 0.0614636 0.0608093 0.0600884 0.0593055 0.0584608 0.057554 0.0565854 0.0555548 0.0544622 0.0533077 0.052101 0.0508516 0.0495597 0.0482252 0.0468482 0.0454286 0.0439664 0.0424616 0.0409278 0.0393783 0.0378132 0.0362325 0.0346361 0.0330242 0.0313966 0.0297534 0.0281098 0.026481 0.024867 0.0232678 0.0216834 0.0201138 0.0185591 0.0170191 0.0154972 0.0139968 0.0125178 0.0110603 0.00962414 0.00820946 0.00681621 0.00544439 0.00416836 0.00306247 0.00212672 0.0013611 0.000765618 0.000340275 8.50686e-05 0 0 5.73507e-05 0.000229403 0.000516156 0.00091761 0.00143377 0.00206462 0.00281018 0.00367044 0.00460401 0.00556951 0.00656693 0.00759627 0.00865754 0.00975073 0.0108758 0.0120329 0.0132249 0.0144549 0.015723 0.0170291 0.0183732 0.0197553 0.0211755 0.0226337 0.0241228 0.0256358 0.0271726 0.0287334 0.030318 0.0319264 0.0335588 0.035215 0.0368846 0.0385572 0.0402329 0.0419116 0.0435933 0.0452781 0.0469658 0.0486566 0.0503376 0.0519962 0.0536322 0.0552458 0.0568369 0.0584054 0.0599515 0.0614752 0.062963 0.0644016 0.0657911 0.0671315 0.0684227 0.0696648 0.0708577 0.0720015 0.0730846 0.0740956 0.0750344 0.075901 0.0766954 0.0774177 0.0780678 0.0786457 0.0791442 0.0795559 0.079881 0.0801194 0.0802711 0.080336 0.0803143 0.0802059 0.0800096 0.0797244 0.0793501 0.0788868 0.0783345 0.0776932 0.0769628 0.0761435 0.0752409 0.0742608 0.0732031 0.0720679 0.0708552 0.0695649 0.0681971 0.0667517 0.065241 0.0636769 0.0620596 0.0603889 0.058665 0.0568877 0.0550572 0.0531733 0.0512531 0.0493132 0.0473538 0.0453748 0.0433763 0.0413581 0.0393204 0.0372632 0.0352053 0.033166 0.0311452 0.0291429 0.027159 0.0251937 0.0232468 0.0213185 0.0194127 0.0175337 0.0156815 0.0138559 0.0120571 0.010285 0.00853965 0.00682103 0.00522235 0.00383683 0.00266446 0.00170526 0.000959207 0.000426314 0.000106579 0 0 6.93196e-05 0.000277279 0.000623877 0.00110911 0.00173299 0.00249551 0.00339666 0.00443646 0.0055647 0.00673119 0.00793593 0.00917892 0.0104602 0.0117797 0.0131374 0.0145334 0.0159714 0.017455 0.0189843 0.0205594 0.0221801 0.0238465 0.0255586 0.0273164 0.0291114 0.030935 0.0327872 0.034668 0.0365775 0.0385156 0.0404824 0.0424778 0.0444892 0.0465042 0.0485228 0.0505449 0.0525705 0.0545996 0.0566323 0.0586685 0.0606929 0.0626901 0.0646602 0.0666031 0.0685188 0.0704074 0.0722688 0.074103 0.0758941 0.0776259 0.0792985 0.0809119 0.082466 0.0839609 0.0853966 0.086773 0.0880764 0.0892928 0.0904224 0.091465 0.0924207 0.0932895 0.0940713 0.0947663 0.0953655 0.0958605 0.096251 0.0965372 0.096719 0.0967964 0.0967695 0.0966382 0.0964011 0.0960569 0.0956055 0.095047 0.0943814 0.0936086 0.0927287 0.0917417 0.0906544 0.0894738 0.0881998 0.0868325 0.0853719 0.0838179 0.0821706 0.08043 0.0786106 0.076727 0.0747792 0.0727673 0.0706911 0.0685508 0.0663463 0.0640777 0.0617651 0.0594289 0.0570691 0.0546857 0.0522786 0.0498479 0.0473936 0.0449157 0.0424371 0.0399806 0.0375463 0.0351341 0.0327441 0.0303763 0.0280306 0.0257071 0.0234107 0.0211461 0.0189135 0.0167127 0.0145439 0.0124069 0.0103019 0.00822875 0.00630013 0.00462867 0.00321435 0.00205719 0.00115717 0.000514297 0.000128574 0 0 8.1645e-05 0.00032658 0.000734805 0.00130632 0.00204112 0.00293922 0.0040006 0.00522528 0.00655387 0.00792699 0.00934465 0.0108068 0.0123136 0.0138648 0.0154606 0.017101 0.0187903 0.020533 0.0223291 0.0241786 0.0260815 0.0280378 0.0300475 0.0321106 0.0342171 0.036357 0.0385303 0.040737 0.042977 0.0452505 0.0475574 0.0498976 0.0522566 0.0546195 0.0569864 0.0593573 0.0617322 0.0641111 0.066494 0.0688808 0.0712537 0.0735946 0.0759035 0.0781805 0.0804255 0.0826385 0.0848196 0.0869687 0.089067 0.0910959 0.0930553 0.0949451 0.0967655 0.0985164 0.100198 0.10181 0.103336 0.10476 0.106083 0.107303 0.108422 0.109439 0.110353 0.111166 0.111867 0.112446 0.112902 0.113236 0.113448 0.113538 0.113505 0.11335 0.113071 0.112666 0.112136 0.111481 0.1107 0.109793 0.108761 0.107604 0.106329 0.104945 0.103451 0.101848 0.100136 0.0983138 0.0963828 0.0943424 0.0922097 0.0900018 0.0877187 0.0853603 0.0829267 0.0804179 0.0778339 0.0751746 0.0724639 0.0697253 0.0669591 0.064165 0.0613432 0.0584936 0.0556162 0.0527111 0.049805 0.0469247 0.0440702 0.0412416 0.0384387 0.0356617 0.0329105 0.0301851 0.027491 0.024834 0.0222139 0.0196307 0.0170845 0.0145752 0.0121029 0.00966754 0.00740171 0.00543799 0.00377638 0.00241689 0.0013595 0.000604221 0.000151055 0 0 9.43266e-05 0.000377306 0.00084894 0.00150923 0.00235817 0.00339576 0.004622 0.0060369 0.00757152 0.00915692 0.0107931 0.0124801 0.0142178 0.0160063 0.0178456 0.0197357 0.0216817 0.0236889 0.0257573 0.0278868 0.0300774 0.0323292 0.0346422 0.0370163 0.03944 0.0419019 0.044402 0.0469402 0.0495165 0.052131 0.0547837 0.0574745 0.0601865 0.062903 0.0656238 0.068349 0.0710786 0.0738125 0.0765509 0.0792936 0.08202 0.0847096 0.0873622 0.089978 0.0925568 0.0950988 0.0976039 0.100072 0.102482 0.104812 0.107061 0.109231 0.111321 0.113331 0.115261 0.117111 0.118863 0.120498 0.122015 0.123415 0.124699 0.125865 0.126914 0.127846 0.12865 0.129312 0.129835 0.130217 0.130459 0.13056 0.13052 0.130341 0.130019 0.129553 0.128942 0.128188 0.12729 0.126247 0.12506 0.12373 0.122264 0.120673 0.118956 0.117114 0.115146 0.113053 0.110834 0.108489 0.106038 0.103501 0.100878 0.098168 0.0953717 0.092489 0.0895198 0.0864642 0.0833494 0.0802025 0.0770237 0.0738128 0.0705699 0.0672951 0.0639882 0.0606493 0.0573091 0.0539984 0.0507171 0.0474652 0.0442428 0.0410499 0.0378863 0.0347523 0.0316538 0.0285973 0.0255826 0.0226098 0.0196789 0.0167899 0.0139427 0.0111374 0.00852708 0.0062648 0.00435055 0.00278435 0.0015662 0.000696089 0.000174022 0 0 0.000107365 0.000429458 0.000966281 0.00171783 0.00268411 0.00386513 0.00526087 0.00687133 0.00861766 0.010421 0.0122813 0.0141985 0.0161728 0.018204 0.0202923 0.0224375 0.0246456 0.0269228 0.0292688 0.0316838 0.0341678 0.0367207 0.0393426 0.0420334 0.0447801 0.0475697 0.0504022 0.0532777 0.056196 0.0591572 0.0621613 0.0652084 0.0682792 0.0713547 0.074435 0.0775199 0.0806096 0.0837039 0.086803 0.0899068 0.0929919 0.0960351 0.0990363 0.101996 0.104913 0.107788 0.110622 0.113413 0.116138 0.118773 0.121317 0.12377 0.126133 0.128406 0.130587 0.132678 0.134658 0.136505 0.13822 0.139802 0.141251 0.142569 0.143753 0.144806 0.145712 0.14646 0.147049 0.147479 0.14775 0.147863 0.147816 0.147611 0.147245 0.146716 0.146024 0.145169 0.144151 0.14297 0.141626 0.14012 0.13846 0.136659 0.134716 0.132631 0.130404 0.128034 0.125523 0.12287 0.120097 0.117226 0.114257 0.11119 0.108026 0.104764 0.101404 0.0979464 0.0944216 0.0908604 0.0872629 0.0836291 0.0799589 0.0762524 0.0725095 0.0687303 0.0649494 0.0612016 0.0574868 0.0538051 0.0501564 0.0465408 0.0429582 0.0394087 0.035899 0.0324361 0.0290198 0.0256501 0.0223272 0.0190509 0.0158213 0.0126384 0.00967625 0.00710908 0.00493686 0.00315959 0.00177727 0.000789898 0.000197475 0 0 0.000120759 0.000483036 0.00108683 0.00193214 0.00301897 0.00434732 0.00591719 0.00772857 0.00969228 0.0117191 0.0138092 0.0159623 0.0181786 0.020458 0.0228006 0.0252064 0.0276821 0.0302345 0.0328638 0.0355699 0.0383527 0.0412123 0.0441487 0.0471619 0.0502373 0.0533604 0.0565311 0.0597494 0.0630154 0.0663291 0.0696904 0.0730993 0.0765345 0.0799747 0.0834199 0.0868701 0.0903252 0.0937853 0.0972503 0.10072 0.104169 0.107571 0.110926 0.114233 0.117494 0.120707 0.123873 0.126992 0.130037 0.13298 0.135822 0.138562 0.141202 0.143739 0.146176 0.14851 0.150721 0.152783 0.154697 0.156462 0.15808 0.15955 0.160871 0.162045 0.163055 0.163888 0.164544 0.165022 0.165323 0.165446 0.165392 0.165161 0.164749 0.164156 0.163381 0.162423 0.161284 0.159962 0.158459 0.156773 0.154918 0.152903 0.15073 0.148398 0.145908 0.143259 0.140451 0.137485 0.134385 0.131175 0.127856 0.124428 0.12089 0.117243 0.113487 0.109621 0.105681 0.101699 0.0976769 0.0936139 0.0895101 0.0853655 0.0811802 0.0769541 0.0727259 0.0685343 0.0643794 0.0602611 0.0561795 0.0521345 0.0481261 0.0441544 0.0402267 0.0363503 0.0325253 0.0287516 0.0250293 0.0213583 0.0177387 0.0141704 0.0108492 0.00797085 0.00553531 0.0035426 0.00199271 0.00088565 0.000221413 0 0 0.00013451 0.000538038 0.00121059 0.00215215 0.00336274 0.00484234 0.00659097 0.00860861 0.0107954 0.0130514 0.0153768 0.0177713 0.0202352 0.0227683 0.0253707 0.0280423 0.0307909 0.0336242 0.0365422 0.0395448 0.0426321 0.045804 0.0490606 0.0524019 0.0558117 0.0592739 0.0627885 0.0663555 0.0699748 0.0736466 0.0773707 0.0811472 0.0849525 0.088763 0.0925786 0.0963994 0.100225 0.104057 0.107893 0.111734 0.115552 0.119318 0.123031 0.126691 0.130299 0.133855 0.137358 0.140809 0.144177 0.147433 0.150576 0.153607 0.156526 0.159332 0.162026 0.164608 0.167051 0.16933 0.171446 0.173397 0.175185 0.176808 0.178268 0.179563 0.180679 0.181598 0.18232 0.182847 0.183177 0.183311 0.183248 0.18299 0.182532 0.181873 0.181013 0.179951 0.178688 0.177224 0.175558 0.173691 0.171636 0.169405 0.166998 0.164417 0.161659 0.158726 0.155618 0.152334 0.148902 0.145349 0.141675 0.137879 0.133963 0.129926 0.125768 0.121489 0.117126 0.112718 0.108265 0.103767 0.0992235 0.0946345 0.0900003 0.0853207 0.0806385 0.0759966 0.0713949 0.0668334 0.0623121 0.057831 0.0533901 0.0489894 0.0446367 0.04034 0.0360992 0.0319142 0.0277852 0.0237121 0.0196948 0.0157335 0.012046 0.0088501 0.0061459 0.00393338 0.00221253 0.000983345 0.000245836 0 0 0.000148617 0.000594466 0.00133755 0.00237786 0.00371541 0.00535019 0.00728221 0.00951146 0.011927 0.0144179 0.0169841 0.0196257 0.0223426 0.0251348 0.0280025 0.0309454 0.0339723 0.0370918 0.0403039 0.0436086 0.0470059 0.0504958 0.0540783 0.0577534 0.0615033 0.0653103 0.0691745 0.0730958 0.0770742 0.0811098 0.0852024 0.0893522 0.0935332 0.0977195 0.101911 0.106108 0.11031 0.114518 0.118731 0.122949 0.127141 0.131275 0.135351 0.139369 0.143329 0.147232 0.151076 0.154863 0.158559 0.162131 0.16558 0.168905 0.172107 0.175185 0.178139 0.18097 0.183649 0.186148 0.188467 0.190606 0.192565 0.194344 0.195943 0.197361 0.198582 0.199588 0.200378 0.200953 0.201312 0.201456 0.201385 0.201098 0.200593 0.199867 0.19892 0.197752 0.196364 0.194754 0.192924 0.190873 0.188615 0.186164 0.183521 0.180686 0.177657 0.174437 0.171023 0.167417 0.163649 0.159747 0.155713 0.151546 0.147246 0.142813 0.138247 0.133549 0.128759 0.123919 0.119029 0.114089 0.109099 0.104059 0.0989697 0.0938301 0.0886874 0.0835885 0.0785333 0.0735218 0.0685541 0.0636302 0.05875 0.0539136 0.0491292 0.0444052 0.0397414 0.035138 0.030595 0.0261122 0.0216898 0.0173277 0.0132665 0.00974683 0.00676864 0.00433193 0.00243671 0.00108298 0.000270745 0 0 0.000163096 0.000652383 0.00146786 0.00260953 0.0040774 0.00587145 0.0079917 0.0104381 0.0130884 0.01582 0.0186331 0.0215277 0.0245036 0.027561 0.0306997 0.0339199 0.0372311 0.0406429 0.0441553 0.0477683 0.0514818 0.0552959 0.0592106 0.0632259 0.0673224 0.0714807 0.0757009 0.079983 0.0843269 0.0887326 0.0932002 0.0977296 0.102293 0.106861 0.111435 0.116014 0.120599 0.125189 0.129784 0.134385 0.138956 0.143464 0.147909 0.15229 0.156608 0.160862 0.165053 0.169181 0.173209 0.177102 0.18086 0.184483 0.187971 0.191325 0.194543 0.197626 0.200544 0.203265 0.20579 0.208118 0.21025 0.212186 0.213926 0.215469 0.216796 0.217889 0.218747 0.21937 0.219759 0.219913 0.219831 0.219515 0.218962 0.218167 0.217132 0.215856 0.21434 0.212583 0.210585 0.208346 0.205883 0.203209 0.200325 0.197232 0.193929 0.190416 0.186693 0.18276 0.17865 0.174395 0.169995 0.16545 0.16076 0.155925 0.150946 0.145821 0.140597 0.135318 0.129984 0.124596 0.119152 0.113655 0.108102 0.102495 0.0968844 0.0913209 0.0858047 0.0803358 0.0749142 0.0695399 0.0642128 0.0589331 0.0537093 0.0485503 0.0434559 0.0384262 0.0334612 0.0285609 0.0237253 0.0189544 0.0145119 0.0106618 0.00740404 0.00473859 0.00266546 0.00118465 0.000296162 0 0 0.000177964 0.000711855 0.00160167 0.00284742 0.00444909 0.00640669 0.00872022 0.0113897 0.0142809 0.0172596 0.0203259 0.0234797 0.026721 0.0300499 0.0334663 0.0369703 0.0405724 0.0442831 0.0481025 0.0520305 0.0560672 0.0602125 0.0644664 0.0688291 0.0732793 0.0777961 0.0823795 0.0870295 0.091746 0.0965291 0.101379 0.106295 0.111247 0.116205 0.121168 0.126136 0.13111 0.136089 0.141073 0.146063 0.151021 0.155909 0.160729 0.165479 0.170159 0.174771 0.179313 0.183787 0.188152 0.192371 0.196443 0.200368 0.204147 0.207779 0.211265 0.214604 0.217763 0.220709 0.223443 0.225963 0.228271 0.230365 0.232247 0.233916 0.235351 0.236531 0.237458 0.238129 0.238547 0.238709 0.238618 0.238272 0.237668 0.236804 0.235678 0.234292 0.232646 0.230738 0.22857 0.226141 0.223467 0.220567 0.217439 0.214083 0.2105 0.20669 0.202652 0.198387 0.193929 0.189314 0.184542 0.179613 0.174527 0.169284 0.163883 0.158325 0.152659 0.146933 0.141148 0.135304 0.129399 0.123435 0.117412 0.111329 0.105242 0.0992051 0.0932194 0.0872846 0.0814006 0.0755675 0.0697852 0.0640538 0.0583823 0.0527798 0.0472464 0.041782 0.0363866 0.0310603 0.0258031 0.0206148 0.0157832 0.0115958 0.00805267 0.00515371 0.00289896 0.00128843 0.000322107 0 0 0.00019322 0.00077288 0.00173898 0.00309152 0.0048305 0.00695592 0.00946778 0.0123661 0.0155045 0.0187365 0.0220623 0.0254817 0.0289949 0.0326017 0.0363023 0.0400965 0.043996 0.0480123 0.0521454 0.0563953 0.060762 0.0652455 0.0698458 0.0745629 0.0793741 0.0842566 0.0892103 0.0942354 0.0993317 0.104499 0.109738 0.115049 0.120397 0.125751 0.13111 0.136474 0.141844 0.147218 0.152598 0.157983 0.163334 0.168609 0.173809 0.178934 0.183983 0.188958 0.193857 0.198681 0.203389 0.207937 0.212328 0.21656 0.220633 0.224548 0.228305 0.231903 0.235307 0.238481 0.241426 0.244141 0.246626 0.248881 0.250906 0.252702 0.254245 0.255514 0.256509 0.257229 0.257675 0.257847 0.257744 0.257367 0.256712 0.255776 0.254559 0.25306 0.251281 0.24922 0.246878 0.244255 0.241369 0.238237 0.23486 0.231238 0.227371 0.223258 0.2189 0.214297 0.209486 0.204506 0.199356 0.194036 0.188547 0.182888 0.17706 0.171061 0.164946 0.158766 0.152522 0.146213 0.139839 0.133401 0.126898 0.120331 0.113759 0.107241 0.100777 0.0943683 0.0880135 0.0817132 0.0754672 0.0692757 0.063148 0.0570938 0.0511129 0.0452054 0.0393712 0.0336105 0.0279231 0.0223092 0.0170805 0.0125489 0.00871452 0.00557729 0.00313723 0.00139432 0.000348581 0 0 0.000208865 0.00083546 0.00187978 0.00334184 0.00522162 0.00751914 0.0102344 0.0133674 0.0167591 0.0202508 0.0238424 0.0275338 0.0313252 0.0352164 0.0392076 0.0432986 0.0475021 0.0518306 0.0562842 0.0608628 0.0655664 0.070395 0.0753487 0.0804275 0.0856067 0.090862 0.0961933 0.101601 0.107084 0.112643 0.118279 0.12399 0.129742 0.135499 0.141261 0.147028 0.1528 0.158577 0.164359 0.170146 0.175896 0.181563 0.18715 0.192655 0.198079 0.203422 0.208684 0.213864 0.218919 0.223803 0.228516 0.233059 0.237431 0.241633 0.245664 0.249525 0.253176 0.256581 0.25974 0.262651 0.265315 0.267733 0.269903 0.271827 0.27348 0.274838 0.275902 0.276671 0.277145 0.277325 0.27721 0.276801 0.276094 0.275084 0.273773 0.27216 0.270245 0.268029 0.26551 0.26269 0.259587 0.256221 0.252591 0.248698 0.244541 0.240122 0.235438 0.230492 0.225322 0.21997 0.214436 0.208719 0.202821 0.196739 0.190476 0.18403 0.177458 0.170816 0.164105 0.157323 0.150473 0.143552 0.136562 0.129502 0.122436 0.115428 0.108479 0.101587 0.0947528 0.0879769 0.0812589 0.0745989 0.0680067 0.0614922 0.0550554 0.0486964 0.042415 0.0362114 0.0300855 0.0240373 0.0184036 0.013521 0.00938958 0.00600933 0.00338025 0.00150233 0.000375583 0 0 0.000224898 0.000899593 0.00202408 0.00359837 0.00562245 0.00809633 0.01102 0.0143935 0.0180449 0.0218025 0.0256662 0.029636 0.0337119 0.037894 0.0421822 0.0465765 0.0510905 0.0557379 0.0605187 0.0654328 0.0704803 0.0756611 0.0809752 0.0864227 0.0919773 0.0976125 0.103329 0.109125 0.115003 0.120961 0.127 0.13312 0.139282 0.145449 0.151621 0.157798 0.163979 0.170165 0.176356 0.182552 0.188706 0.194773 0.200752 0.206644 0.212448 0.218165 0.223794 0.229336 0.234742 0.239966 0.245007 0.249865 0.25454 0.259032 0.263341 0.267468 0.271371 0.275009 0.278384 0.281494 0.284339 0.286921 0.289238 0.291291 0.293054 0.294502 0.295635 0.296453 0.296956 0.297144 0.297016 0.296574 0.295813 0.294728 0.293322 0.291592 0.289539 0.287164 0.284466 0.281445 0.278122 0.274517 0.27063 0.266462 0.262012 0.25728 0.252266 0.24697 0.241436 0.235707 0.229782 0.223662 0.217347 0.210837 0.204131 0.19723 0.190194 0.183082 0.175896 0.168635 0.161299 0.153888 0.146402 0.138841 0.131274 0.123768 0.116323 0.10894 0.101619 0.0943586 0.0871602 0.0800232 0.0729581 0.065975 0.059074 0.0522549 0.045518 0.038863 0.0322902 0.0257993 0.0197526 0.0145121 0.0100779 0.00644983 0.00362803 0.00161246 0.000403114 0 0 0.00024132 0.00096528 0.00217188 0.00386112 0.006033 0.00868752 0.0118247 0.0154445 0.0193618 0.0233915 0.0275336 0.0317882 0.0361551 0.0406344 0.0452261 0.0499302 0.0547614 0.0597343 0.064849 0.0701055 0.0755036 0.0810435 0.0867252 0.0925486 0.0984856 0.104508 0.110616 0.116809 0.123088 0.129452 0.135902 0.142437 0.149017 0.155601 0.16219 0.168783 0.175381 0.181983 0.188589 0.1952 0.201765 0.208237 0.214615 0.220899 0.227089 0.233186 0.239188 0.245096 0.250859 0.256428 0.2618 0.266978 0.27196 0.276746 0.281337 0.285733 0.28989 0.293765 0.297358 0.300669 0.303698 0.306446 0.308911 0.311094 0.312969 0.314508 0.31571 0.316577 0.317108 0.317303 0.317163 0.316686 0.315869 0.314709 0.313204 0.311355 0.309163 0.306626 0.303745 0.300521 0.296974 0.293126 0.288979 0.28453 0.279782 0.274732 0.269383 0.263733 0.257829 0.251716 0.245394 0.238865 0.232127 0.22518 0.218025 0.210662 0.203154 0.195566 0.187897 0.180149 0.172319 0.16441 0.15642 0.148349 0.140271 0.132259 0.124311 0.116428 0.108611 0.100858 0.093171 0.0855488 0.0780024 0.0705423 0.0631685 0.0558811 0.0486801 0.0415654 0.0345371 0.0275951 0.0211275 0.0155223 0.0107794 0.00689879 0.00388057 0.0017247 0.000431174 0 0 0.00025813 0.00103252 0.00232317 0.00413008 0.00645326 0.00929269 0.0126484 0.0165203 0.0207098 0.0250179 0.0294448 0.0339904 0.0386547 0.0434377 0.0483394 0.0533598 0.0585147 0.0638198 0.0692751 0.0748807 0.0806365 0.0865425 0.0925987 0.0988052 0.105132 0.111549 0.118056 0.124653 0.13134 0.138117 0.144985 0.151942 0.158947 0.165956 0.172968 0.179985 0.187005 0.194029 0.201058 0.20809 0.215073 0.221957 0.228739 0.235421 0.242003 0.248484 0.254865 0.261145 0.26727 0.273187 0.278897 0.284398 0.28969 0.294775 0.299651 0.30432 0.308734 0.312848 0.316663 0.320177 0.323392 0.326307 0.328922 0.331237 0.333224 0.334854 0.336127 0.337043 0.337602 0.337804 0.337649 0.337137 0.336264 0.335025 0.333421 0.331451 0.329116 0.326415 0.323349 0.319917 0.316142 0.312049 0.307635 0.302903 0.297851 0.29248 0.28679 0.28078 0.274499 0.267997 0.261273 0.254327 0.247159 0.23977 0.232159 0.224326 0.216339 0.208266 0.200108 0.191863 0.183533 0.175116 0.166614 0.158026 0.149429 0.140901 0.132442 0.124051 0.115729 0.107476 0.0992915 0.0911757 0.0831395 0.075194 0.0673391 0.0595749 0.0519014 0.0443185 0.0368263 0.0294248 0.0225284 0.0165515 0.0114941 0.0073562 0.00413786 0.00183905 0.000459763 0 0 0.000275329 0.00110132 0.00247796 0.00440526 0.00688323 0.00991184 0.0134911 0.0176211 0.0220889 0.0266817 0.0313996 0.0362426 0.0412107 0.0463038 0.051522 0.0568652 0.0623504 0.0679943 0.0737971 0.0797586 0.0858789 0.092158 0.0985958 0.105192 0.111916 0.118734 0.125647 0.132655 0.139758 0.146956 0.154248 0.161636 0.