<?xml version="1.0"?> 
<VTKFile type="StructuredGrid" version="0.1"> 
<StructuredGrid WholeExtent="0 128 0 128 0 0"> 
<Piece Extent="0 128 0 128 0 0"> 
<PointData>
<DataArray type="Float32" Name="u" format="ascii" NumberOfComponents="1"> 
0 0 0 0 0 0 0 0 0 0 0 0 0 0 0 0 0 0 0 0 0 0 0 0 0 0 0 0 0 0 0 0 0 0 0 0 0 0 0 0 0 0 0 0 0 0 0 0 0 0 0 0 0 0 0 0 0 0 0 0 0 0 0 0 0 0 0 0 0 0 0 0 0 0 0 0 0 0 0 0 0 0 0 0 0 0 0 0 0 0 0 0 0 0 0 0 0 0 0 0 0 0 0 0 0 0 0 0 0 0 0 0 0 0 0 0 0 0 0 0 0 0 0 0 0 0 0 0 0 0 4.0642e-07 1.62568e-06 3.65778e-06 6.50272e-06 1.01605e-05 1.46311e-05 1.99146e-05 2.60109e-05 3.26331e-05 3.94946e-05 4.65951e-05 5.39348e-05 6.15137e-05 6.93316e-05 7.73887e-05 8.5685e-05 9.4246e-05 0.000103098 0.00011224 0.000121672 0.000131395 0.000141409 0.000151713 0.000162307 0.000173145 0.000184181 0.000195414 0.000206845 0.000218473 0.000230299 0.000242321 0.000254542 0.000266886 0.000279283 0.000291731 0.000304231 0.000316783 0.000329387 0.000342042 0.000354749 0.000367415 0.000379945 0.000392341 0.000404602 0.000416728 0.000428718 0.000440575 0.000452296 0.00046378 0.000474925 0.000485732 0.000496199 0.000506328 0.000516118 0.000525569 0.000534681 0.000543361 0.000551517 0.000559149 0.000566257 0.00057284 0.0005789 0.000584435 0.000589446 0.000593869 0.000597641 0.000600762 0.000603232 0.000605051 0.000606219 0.000606736 0.000606602 0.0006058 0.00060431 0.000602133 0.00059927 0.00059572 0.000591483 0.00058656 0.00058095 0.000574688 0.000567811 0.000560318 0.00055221 0.000543487 0.000534147 0.000524193 0.000513622 0.000502523 0.000490983 0.000479001 0.000466578 0.000453713 0.000440406 0.000426659 0.000412469 0.000397966 0.000383276 0.000368401 0.000353339 0.000338091 0.000322657 0.000307036 0.00029123 0.000275388 0.00025966 0.000244046 0.000228548 0.000213163 0.000197893 0.000182738 0.000167697 0.000152808 0.000138108 0.000123597 0.000109275 9.51429e-05 8.11997e-05 6.74457e-05 5.38809e-05 4.12525e-05 3.0308e-05 2.10472e-05 1.34702e-05 7.577e-06 3.36755e-06 8.41888e-07 0 0 1.62568e-06 6.50272e-06 1.46311e-05 2.60109e-05 4.0642e-05 5.85244e-05 7.96583e-05 0.000104043 0.000130533 0.000157978 0.00018638 0.000215739 0.000246055 0.000277326 0.000309555 0.00034274 0.000376984 0.00041239 0.000448958 0.000486688 0.00052558 0.000565634 0.00060685 0.000649228 0.000692582 0.000736725 0.000781658 0.00082738 0.000873892 0.000921194 0.000969285 0.00101817 0.00106755 0.00111713 0.00116693 0.00121693 0.00126713 0.00131755 0.00136817 0.001419 0.00146966 0.00151978 0.00156936 0.00161841 0.00166691 0.00171487 0.0017623 0.00180918 0.00185512 0.0018997 0.00194293 0.0019848 0.00202531 0.00206447 0.00210227 0.00213872 0.00217344 0.00220607 0.0022366 0.00226503 0.00229136 0.0023156 0.00233774 0.00235778 0.00237548 0.00239056 0.00240305 0.00241293 0.00242021 0.00242488 0.00242695 0.00242641 0.0024232 0.00241724 0.00240853 0.00239708 0.00238288 0.00236593 0.00234624 0.0023238 0.00229875 0.00227124 0.00224127 0.00220884 0.00217395 0.00213659 0.00209677 0.00205449 0.00201009 0.00196393 0.00191601 0.00186631 0.00181485 0.00176163 0.00170663 0.00164988 0.00159186 0.0015331 0.0014736 0.00141336 0.00135236 0.00129063 0.00122815 0.00116492 0.00110155 0.00103864 0.000976186 0.00091419 0.000852653 0.000791573 0.000730951 0.000670787 0.00061123 0.00055243 0.000494387 0.000437101 0.000380571 0.000324799 0.000269783 0.000215523 0.00016501 0.000121232 8.41888e-05 5.38809e-05 3.0308e-05 1.34702e-05 3.36755e-06 0 0 3.65778e-06 1.46311e-05 3.292e-05 5.85244e-05 9.14444e-05 0.00013168 0.000179231 0.000234098 0.000293698 0.000355451 0.000419356 0.000485413 0.000553623 0.000623985 0.000696499 0.000771165 0.000848214 0.000927878 0.00101016 0.00109505 0.00118256 0.00127268 0.00136541 0.00146076 0.00155831 0.00165763 0.00175873 0.00186161 0.00196626 0.00207269 0.00218089 0.00229087 0.00240198 0.00251355 0.00262558 0.00273808 0.00285105 0.00296448 0.00307838 0.00319274 0.00330673 0.00341951 0.00353107 0.00364141 0.00375055 0.00385847 0.00396517 0.00407066 0.00417402 0.00427433 0.00437159 0.00446579 0.00455695 0.00464506 0.00473012 0.00481213 0.00489025 0.00496366 0.00503234 0.00509631 0.00515556 0.0052101 0.00525991 0.00530501 0.00534482 0.00537877 0.00540686 0.00542909 0.00544546 0.00545597 0.00546063 0.00545942 0.0054522 0.00543879 0.0054192 0.00539343 0.00536148 0.00532335 0.00527904 0.00522855 0.00517219 0.0051103 0.00504287 0.00496989 0.00489138 0.00480733 0.00471773 0.0046226 0.00452271 0.00441885 0.00431101 0.0041992 0.00408342 0.00396366 0.00383993 0.00371222 0.00358169 0.00344949 0.00331561 0.00318005 0.00304282 0.00290391 0.00276333 0.00262107 0.00247849 0.00233694 0.00219642 0.00205693 0.00191847 0.00178104 0.00164464 0.00150927 0.00137527 0.00124297 0.00111237 0.000983477 0.000856286 0.000730797 0.000607011 0.000484928 0.000371273 0.000272772 0.000189425 0.000121232 6.8193e-05 3.0308e-05 7.577e-06 0 0 6.50272e-06 2.60109e-05 5.85244e-05 0.000104043 0.000162568 0.000234098 0.000318633 0.000416174 0.00052213 0.000631913 0.000745522 0.000862957 0.000984218 0.00110931 0.00123822 0.00137096 0.00150794 0.00164956 0.00179583 0.00194675 0.00210232 0.00226254 0.0024274 0.00259691 0.00277033 0.0029469 0.00312663 0.00330952 0.00349557 0.00368478 0.00387714 0.00407267 0.00427018 0.00446853 0.0046677 0.0048677 0.00506853 0.00527019 0.00547267 0.00567599 0.00587863 0.00607912 0.00627745 0.00647363 0.00666764 0.0068595 0.00704919 0.00723673 0.00742048 0.0075988 0.00777171 0.00793919 0.00810125 0.00825788 0.0084091 0.00855489 0.00869378 0.00882428 0.00894639 0.00906011 0.00916545 0.0092624 0.00935096 0.00943113 0.0095019 0.00956226 0.00961219 0.00965172 0.00968082 0.00969951 0.00970778 0.00970564 0.00969279 0.00966896 0.00963413 0.00958832 0.00953152 0.00946373 0.00938496 0.00929519 0.00919501 0.00908498 0.00896509 0.00883536 0.00869579 0.00854636 0.00838708 0.00821796 0.00804038 0.00785573 0.00766402 0.00746525 0.00725941 0.0070465 0.00682654 0.0065995 0.00636745 0.00613242 0.00589441 0.00565342 0.00540945 0.00516251 0.00491258 0.00465968 0.0044062 0.00415456 0.00390474 0.00365676 0.00341061 0.00316629 0.0029238 0.00268315 0.00244492 0.00220972 0.00197755 0.0017484 0.00152229 0.00129919 0.00107913 0.000862094 0.00066004 0.000484928 0.000336755 0.000215523 0.000121232 5.38809e-05 1.34702e-05 0 0 1.01605e-05 4.0642e-05 9.14444e-05 0.000162568 0.000254012 0.000365778 0.000497864 0.000650272 0.000815829 0.000987364 0.00116488 0.00134837 0.00153784 0.00173329 0.00193472 0.00214212 0.00235615 0.00257744 0.00280599 0.0030418 0.00328488 0.00353521 0.00379281 0.00405768 0.00432864 0.00460453 0.00488536 0.00517113 0.00546183 0.00575746 0.00605803 0.00636354 0.00667216 0.00698207 0.00729328 0.00760578 0.00791958 0.00823467 0.00855105 0.00886873 0.00918537 0.00949863 0.00980852 0.010115 0.0104182 0.010718 0.0110144 0.0113074 0.0115945 0.0118731 0.0121433 0.012405 0.0126582 0.0129029 0.0131392 0.013367 0.013584 0.0137879 0.0139787 0.0141564 0.014321 0.0144725 0.0146109 0.0147361 0.0148467 0.014941 0.0150191 0.0150808 0.0151263 0.0151555 0.0151684 0.0151651 0.015145 0.0151077 0.0150533 0.0149818 0.014893 0.0147871 0.014664 0.0145237 0.0143672 0.0141953 0.014008 0.0138053 0.0135872 0.0133537 0.0131048 0.0128406 0.0125631 0.0122746 0.011975 0.0116644 0.0113428 0.0110102 0.0106665 0.0103117 0.00994914 0.00958191 0.00921001 0.00883347 0.00845227 0.00806642 0.00767591 0.00728075 0.00688469 0.00649149 0.00610116 0.00571369 0.00532908 0.00494733 0.00456844 0.00419242 0.00382019 0.00345269 0.00308992 0.00273188 0.00237857 0.00202999 0.00168614 0.00134702 0.00103131 0.0007577 0.00052618 0.000336755 0.000189425 8.41888e-05 2.10472e-05 0 0 1.46311e-05 5.85244e-05 0.00013168 0.000234098 0.000365778 0.00052672 0.000716924 0.000936391 0.00117479 0.0014218 0.00167742 0.00194165 0.00221449 0.00249594 0.00278599 0.00308466 0.00339286 0.00371151 0.00404063 0.0043802 0.00473022 0.00509071 0.00546165 0.00584305 0.00623323 0.00663052 0.00703492 0.00744642 0.00786503 0.00829075 0.00872357 0.0091635 0.00960791 0.0100542 0.0105023 0.0109523 0.0114042 0.0118579 0.0123135 0.012771 0.0132269 0.013678 0.0141243 0.0145657 0.0150022 0.0154339 0.0158607 0.0162826 0.0166961 0.0170973 0.0174863 0.0178632 0.0182278 0.0185802 0.0189205 0.0192485 0.019561 0.0198546 0.0201294 0.0203853 0.0206223 0.0208404 0.0210397 0.02122 0.0213793 0.0215151 0.0216274 0.0217164 0.0217818 0.0218239 0.0218425 0.0218377 0.0218088 0.0217552 0.0216768 0.0215737 0.0214459 0.0212934 0.0211162 0.0209142 0.0206888 0.0204412 0.0201715 0.0198796 0.0195655 0.0192293 0.0188709 0.0184904 0.0180908 0.0176754 0.017244 0.0167968 0.0163337 0.0158546 0.0153597 0.0148489 0.0143268 0.0137979 0.0132624 0.0127202 0.0121713 0.0116156 0.0110533 0.0104843 0.00991395 0.00934775 0.00878567 0.00822771 0.00767387 0.00712416 0.00657856 0.00603708 0.00550107 0.00497187 0.00444949 0.00393391 0.00342514 0.00292319 0.00242804 0.00193971 0.00148509 0.00109109 0.0007577 0.000484928 0.000272772 0.000121232 3.0308e-05 0 0 1.99146e-05 7.96583e-05 0.000179231 0.000318633 0.000497864 0.000716924 0.000975814 0.00127453 0.00159902 0.00193523 0.00228316 0.00264281 0.00301417 0.00339725 0.00379205 0.00419856 0.00461806 0.00505178 0.00549974 0.00596193 0.00643836 0.00692902 0.00743392 0.00795304 0.00848413 0.00902488 0.00957531 0.0101354 0.0107052 0.0112846 0.0118737 0.0124725 0.0130774 0.0136849 0.0142948 0.0149073 0.0155224 0.01614 0.0167601 0.0173827 0.0180033 0.0186173 0.0192247 0.0198255 0.0204196 0.0210072 0.0215882 0.0221625 0.0227252 0.0232713 0.0238009 0.0243138 0.0248101 0.0252898 0.0257529 0.0261994 0.0266247 0.0270243 0.0273983 0.0277466 0.0280692 0.0283661 0.0286373 0.0288828 0.0290996 0.0292844 0.0294373 0.0295584 0.0296475 0.0297047 0.0297301 0.0297235 0.0296842 0.0296112 0.0295045 0.0293642 0.0291903 0.0289827 0.0287414 0.0284665 0.0281597 0.0278227 0.0274556 0.0270583 0.0266308 0.0261732 0.0256854 0.0251675 0.0246237 0.0240582 0.0234711 0.0228623 0.0222319 0.0215799 0.0209063 0.020211 0.0195003 0.0187805 0.0180516 0.0173136 0.0165664 0.0158102 0.0150448 0.0142703 0.013494 0.0127233 0.0119583 0.0111988 0.010445 0.00969677 0.00895415 0.00821714 0.00748757 0.00676727 0.00605624 0.00535449 0.004662 0.00397878 0.00330484 0.00264016 0.00202137 0.00148509 0.00103131 0.00066004 0.000371273 0.00016501 4.12525e-05 0 0 2.60109e-05 0.000104043 0.000234098 0.000416174 0.000650272 0.000936391 0.00127453 0.0016647 0.00208852 0.00252765 0.00298209 0.00345183 0.00393687 0.00443722 0.00495288 0.00548384 0.00603175 0.00659824 0.00718333 0.00778702 0.00840929 0.00905015 0.0097096 0.0103876 0.0110813 0.0117876 0.0125065 0.0132381 0.0139823 0.0147391 0.0155086 0.0162907 0.0170807 0.0178741 0.0186708 0.0194708 0.0202741 0.0210808 0.0218907 0.0227039 0.0235145 0.0243165 0.0251098 0.0258945 0.0266706 0.027438 0.0281968 0.0289469 0.0296819 0.0303952 0.0310868 0.0317568 0.032405 0.0330315 0.0336364 0.0342196 0.0347751 0.0352971 0.0357856 0.0362404 0.0366618 0.0370496 0.0374038 0.0377245 0.0380076 0.038249 0.0384488 0.0386069 0.0387233 0.038798 0.0388311 0.0388226 0.0387712 0.0386758 0.0385365 0.0383533 0.0381261 0.0378549 0.0375398 0.0371808 0.03678 0.0363399 0.0358604 0.0353415 0.0347831 0.0341854 0.0335483 0.0328718 0.0321615 0.0314229 0.0306561 0.029861 0.0290376 0.028186 0.0273061 0.026398 0.0254698 0.0245297 0.0235776 0.0226137 0.0216378 0.02065 0.0196503 0.0186387 0.0176248 0.0166182 0.015619 0.014627 0.0136424 0.0126652 0.0116952 0.0107326 0.00977969 0.00883889 0.0079102 0.00699362 0.00608914 0.00519678 0.00431652 0.00344837 0.00264016 0.00193971 0.00134702 0.000862094 0.000484928 0.000215523 5.38809e-05 0 0 3.26183e-05 0.000130473 0.000293565 0.000521893 0.000815457 0.00117426 0.0015983 0.00208757 0.00261902 0.0031696 0.00373929 0.0043281 0.00493602 0.00556307 0.00620924 0.00687453 0.007561 0.00827073 0.0090037 0.00975993 0.0105394 0.0113421 0.0121681 0.0130174 0.0138861 0.0147707 0.015671 0.0165872 0.0175191 0.0184669 0.0194304 0.0204097 0.021399 0.0223924 0.0233899 0.0243916 0.0253974 0.0264073 0.0274213 0.0284395 0.0294543 0.0304583 0.0314514 0.0324337 0.0334053 0.0343659 0.0353158 0.0362548 0.0371749 0.0380677 0.0389335 0.039772 0.0405834 0.0413676 0.0421246 0.0428545 0.0435498 0.0442031 0.0448144 0.0453837 0.045911 0.0463962 0.0468395 0.0472407 0.0475949 0.0478969 0.0481468 0.0483444 0.04849 0.0485833 0.0486246 0.0486136 0.0485491 0.0484295 0.0482549 0.0480253 0.0477407 0.0474011 0.0470064 0.0465568 0.0460549 0.0455038 0.0449033 0.0442536 0.0435545 0.0428061 0.0420084 0.0411614 0.0402721 0.0393474 0.0383873 0.0373918 0.036361 0.0352948 0.0341933 0.0330563 0.0318943 0.0307173 0.0295253 0.0283185 0.0270967 0.0258601 0.0246085 0.0233419 0.0220725 0.0208123 0.0195612 0.0183192 0.0170864 0.0158628 0.0146483 0.013443 0.0122498 0.0110716 0.00990862 0.0087607 0.00762787 0.00651014 0.0054075 0.00431996 0.00330747 0.00242998 0.00168749 0.00107999 0.000607495 0.000269998 6.74994e-05 0 0 3.94352e-05 0.000157741 0.000354917 0.000630963 0.000985879 0.00141967 0.00193232 0.00252385 0.00316627 0.0038316 0.00451984 0.00523098 0.00596504 0.00672201 0.00750189 0.00830468 0.00913289 0.00998904 0.0108731 0.0117852 0.0127252 0.0136931 0.0146889 0.0157127 0.01676 0.0178262 0.0189113 0.0200155 0.0211385 0.0222806 0.0234415 0.0246215 0.0258134 0.0270101 0.0282118 0.0294184 0.03063 0.0318464 0.0330678 0.034294 0.0355162 0.0367253 0.0379213 0.0391042 0.0402741 0.0414308 0.0425745 0.0437051 0.0448128 0.0458877 0.0469299 0.0479393 0.048916 0.04986 0.0507712 0.0516496 0.0524864 0.0532726 0.0540082 0.0546932 0.0553276 0.0559114 0.0564445 0.0569271 0.057353 0.0577161 0.0580163 0.0582538 0.0584284 0.0585403 0.0585893 0.0585755 0.0584972 0.0583527 0.0581419 0.0578649 0.0575216 0.0571121 0.0566364 0.0560944 0.0554896 0.0548255 0.054102 0.0533192 0.052477 0.0515755 0.0506146 0.0495943 0.0485231 0.0474093 0.0462529 0.0450539 0.0438124 0.0425282 0.0412015 0.0398322 0.0384327 0.0370151 0.0355796 0.0341261 0.0326546 0.0311652 0.0296577 0.0281323 0.0266033 0.0250854 0.0235784 0.0220823 0.0205972 0.0191231 0.01766 0.0162078 0.0147701 0.0133505 0.0119488 0.0105651 0.00919947 0.00785182 0.00652218 0.00521054 0.00398932 0.00293093 0.00203537 0.00130263 0.000732732 0.000325659 8.14147e-05 0 0 4.64615e-05 0.000185846 0.000418154 0.000743384 0.00116154 0.00167261 0.00227661 0.00297354 0.00373026 0.00451366 0.00532374 0.00616049 0.00702392 0.00791403 0.00883082 0.00977428 0.0107474 0.0117532 0.0127916 0.0138627 0.0149665 0.0161029 0.017272 0.0184737 0.0197028 0.0209541 0.0222274 0.0235229 0.0248405 0.0261802 0.027542 0.028926 0.0303239 0.0317274 0.0331366 0.0345515 0.035972 0.0373982 0.0388301 0.0402676 0.0417003 0.0431176 0.0445195 0.0459059 0.047277 0.0486326 0.0499729 0.0512977 0.0525956 0.0538551 0.0550761 0.0562588 0.0574029 0.0585087 0.059576 0.0606049 0.0615849 0.0625056 0.063367 0.064169 0.0649116 0.065595 0.066219 0.0667837 0.0672819 0.0677065 0.0680575 0.0683349 0.0685386 0.0686688 0.0687253 0.0687082 0.0686155 0.0684452 0.0681973 0.0678718 0.0674687 0.066988 0.0664296 0.0657937 0.0650841 0.0643051 0.0634565 0.0625383 0.0615507 0.0604935 0.0593667 0.0581704 0.0569145 0.0556086 0.0542528 0.0528472 0.0513917 0.0498863 0.048331 0.0467258 0.0450851 0.0434234 0.0417405 0.0400365 0.0383115 0.0365653 0.0347981 0.0330097 0.0312172 0.0294375 0.0276705 0.0259163 0.0241748 0.0224462 0.0207303 0.0190272 0.0173408 0.0156754 0.0140307 0.0124069 0.010804 0.00922183 0.00766055 0.0061201 0.0046857 0.00344256 0.00239067 0.00153003 0.00086064 0.000382506 9.56266e-05 0 0 5.36973e-05 0.000214789 0.000483275 0.000859156 0.00134243 0.0019331 0.00263117 0.00343663 0.00431099 0.00521578 0.00615099 0.00711662 0.00811267 0.00913914 0.010196 0.0112834 0.0124046 0.0135632 0.0147592 0.0159926 0.0172635 0.0185717 0.0199173 0.0213003 0.0227147 0.0241543 0.0256193 0.0271095 0.028625 0.0301658 0.0317319 0.0333233 0.0349305 0.0365441 0.0381641 0.0397906 0.0414234 0.0430626 0.0447083 0.0463603 0.0480066 0.0496352 0.0512459 0.0528388 0.054414 0.0559713 0.0575109 0.0590326 0.0605234 0.0619699 0.0633722 0.0647303 0.0660441 0.0673138 0.0685392 0.0697203 0.0708453 0.0719021 0.0728906 0.073811 0.0746632 0.0754471 0.0761629 0.0768104 0.0773816 0.0778682 0.0782702 0.0785877 0.0788206 0.0789689 0.0790326 0.0790118 0.0789041 0.0787073 0.0784213 0.0780462 0.077582 0.0770287 0.0763862 0.0756546 0.0748384 0.0739425 0.0729667 0.071911 0.0707755 0.0695601 0.0682649 0.0668899 0.0654463 0.0639453 0.0623872 0.0607717 0.0590989 0.0573689 0.0555815 0.0537369 0.0518515 0.0499419 0.0480079 0.0460497 0.0440673 0.0420605 0.0400295 0.0379742 0.0359141 0.0338686 0.0318375 0.0298211 0.0278192 0.0258319 0.0238592 0.021901 0.0199618 0.0180463 0.0161544 0.0142861 0.0124413 0.0106202 0.00882262 0.00704866 0.00539663 0.00396487 0.00275338 0.00176216 0.000991217 0.000440541 0.000110135 0 0 6.11425e-05 0.00024457 0.000550282 0.00097828 0.00152856 0.00220113 0.00299598 0.00391312 0.00490847 0.00593796 0.00700159 0.00809937 0.00923128 0.0103973 0.0115975 0.0128319 0.0141044 0.015419 0.0167759 0.0181749 0.019616 0.0210994 0.0226249 0.0241926 0.0257956 0.027427 0.0290869 0.0307753 0.0324921 0.0342374 0.0360111 0.0378133 0.0396333 0.0414603 0.0432945 0.0451358 0.0469842 0.0488397 0.0507023 0.052572 0.0544351 0.056278 0.0581006 0.059903 0.0616851 0.063447 0.0651886 0.0669099 0.0685961 0.0702322 0.0718181 0.0733539 0.0748396 0.0762752 0.0776606 0.0789959 0.0802676 0.081462 0.0825793 0.0836193 0.0845821 0.0854677 0.0862761 0.0870073 0.0876521 0.0882011 0.0886545 0.0890122 0.0892742 0.0894406 0.0895112 0.0894862 0.0893629 0.0891388 0.0888139 0.0883881 0.0878616 0.0872342 0.0865061 0.0856771 0.0847525 0.0837377 0.0826326 0.0814372 0.0801515 0.0787755 0.0773092 0.0757526 0.0741185 0.0724196 0.0706559 0.0688274 0.0669341 0.0649761 0.0629533 0.0608657 0.0587319 0.0565707 0.054382 0.0521657 0.049922 0.0476508 0.0453521 0.0430259 0.0406941 0.0383787 0.0360796 0.0337968 0.0315304 0.0292803 0.0270466 0.0248292 0.0226332 0.0204634 0.0183198 0.0162026 0.0141116 0.0120468 0.0100084 0.0079962 0.00612209 0.00449786 0.00312351 0.00199905 0.00112447 0.000499762 0.000124941 0 0 6.87971e-05 0.000275189 0.000619174 0.00110075 0.00171993 0.0024767 0.00337106 0.00440302 0.00552269 0.0066802 0.00787555 0.00910874 0.0103798 0.0116886 0.0130353 0.0144199 0.0158468 0.0173207 0.0188416 0.0204094 0.0220242 0.023686 0.0253947 0.0271504 0.0289454 0.0307721 0.0326303 0.0345202 0.0364417 0.0383949 0.0403797 0.0423961 0.0444322 0.0464761 0.0485277 0.0505872 0.0526544 0.0547294 0.0568122 0.0589028 0.0609858 0.0630461 0.0650836 0.0670984 0.0690903 0.0710595 0.073006 0.0749296 0.0768138 0.0786419 0.0804138 0.0821296 0.0837893 0.0853929 0.0869403 0.0884316 0.0898517 0.0911855 0.0924328 0.0935939 0.0946685 0.0956568 0.0965588 0.0973744 0.0980934 0.0987054 0.0992104 0.0996085 0.0998997 0.100084 0.100161 0.100131 0.0999919 0.0997397 0.0993749 0.0988975 0.0983074 0.0976046 0.0967892 0.0958612 0.0948264 0.0936908 0.0924542 0.0911168 0.0896786 0.0881394 0.0864994 0.0847586 0.0829311 0.0810312 0.0790589 0.0770143 0.0748973 0.0727079 0.0704462 0.068112 0.0657263 0.0633099 0.0608626 0.0583845 0.0558757 0.0533361 0.0507658 0.0481646 0.0455572 0.0429678 0.0403965 0.0378434 0.0353084 0.0327915 0.0302927 0.027812 0.0253548 0.0229265 0.020527 0.0181564 0.0158147 0.0135018 0.0112178 0.00896273 0.00686209 0.00504153 0.00350107 0.00224068 0.00126038 0.00056017 0.000140043 0 0 7.66612e-05 0.000306645 0.000689951 0.00122658 0.00191653 0.0027598 0.0037564 0.00490632 0.00615365 0.0074425 0.00877286 0.0101447 0.0115581 0.013013 0.0145094 0.0160473 0.0176319 0.0192682 0.0209564 0.0226963 0.024488 0.0263315 0.0282268 0.0301739 0.0321643 0.0341895 0.0362495 0.0383443 0.0404739 0.0426383 0.0448375 0.0470716 0.0493272 0.0515912 0.0538637 0.0561446 0.058434 0.0607317 0.0630379 0.0653526 0.0676587 0.0699395 0.0721949 0.074425 0.0766297 0.078809 0.080963 0.0830916 0.0851764 0.087199 0.0891593 0.0910574 0.0928933 0.0946669 0.0963784 0.0980275 0.0995978 0.101072 0.102451 0.103735 0.104922 0.106014 0.107011 0.107912 0.108705 0.109381 0.109938 0.110377 0.110697 0.110899 0.110982 0.110947 0.110791 0.11051 0.110105 0.109574 0.108919 0.10814 0.107236 0.106207 0.10506 0.103802 0.102432 0.10095 0.0993568 0.0976521 0.0958357 0.0939078 0.0918841 0.0897803 0.0875964 0.0853325 0.0829884 0.0805644 0.0780602 0.075476 0.0728347 0.0701593 0.0674498 0.0647062 0.0619284 0.0591165 0.0562706 0.0533905 0.0505033 0.0476359 0.0447885 0.0419609 0.0391531 0.0363653 0.0335973 0.0308492 0.0281267 0.0254356 0.0227759 0.0201476 0.0175507 0.0149851 0.012451 0.00994824 0.00761662 0.00559589 0.00388603 0.00248706 0.00139897 0.000621765 0.000155441 0 0 8.47348e-05 0.000338939 0.000762613 0.00135576 0.00211837 0.00305045 0.004152 0.00542303 0.00680136 0.00822486 0.00969352 0.0112073 0.0127663 0.0143705 0.0160198 0.0177142 0.0194596 0.0212616 0.0231202 0.0250355 0.0270074 0.029036 0.0311212 0.0332631 0.0354522 0.0376794 0.0399445 0.0422476 0.0445887 0.0469677 0.0493848 0.0518398 0.0543183 0.0568059 0.0593026 0.0618082 0.064323 0.0668467 0.0693796 0.0719214 0.0744538 0.0769582 0.0794345 0.0818828 0.0843031 0.0866954 0.0890597 0.091396 0.093684 0.0959035 0.0980547 0.100137 0.102152 0.104097 0.105975 0.107784 0.109506 0.111123 0.112635 0.114042 0.115344 0.116541 0.117632 0.118619 0.119488 0.120228 0.120837 0.121316 0.121666 0.121885 0.121975 0.121934 0.121761 0.12145 0.121003 0.120419 0.119698 0.11884 0.117846 0.116714 0.115454 0.11407 0.112565 0.110937 0.109186 0.107313 0.105318 0.1032 0.100978 0.0986668 0.0962682 0.0937818 0.0912075 0.0885454 0.0857954 0.0829576 0.0800571 0.0771191 0.0741436 0.0711306 0.06808 0.064992 0.0618665 0.0587034 0.0555324 0.0523831 0.0492553 0.0461492 0.0430647 0.0400018 0.0369605 0.0339409 0.030949 0.0279909 0.0250666 0.0221762 0.0193196 0.0164968 0.0137079 0.0109528 0.0083857 0.00616092 0.00427842 0.00273819 0.00154023 0.000684547 0.000171137 0 0 9.30283e-05 0.000372113 0.000837255 0.00148845 0.00232571 0.00334902 0.00455839 0.00595381 0.00746667 0.00902834 0.0106388 0.0122981 0.0140062 0.0157631 0.0175688 0.0194234 0.0213331 0.0233043 0.0253371 0.0274314 0.0295872 0.0318046 0.0340835 0.0364239 0.0388157 0.0412486 0.0437228 0.046238 0.0487945 0.0513921 0.0540308 0.0567108 0.0594161 0.062131 0.0648556 0.0675899 0.0703338 0.0730873 0.0758504 0.0786232 0.0813854 0.0841169 0.0868176 0.0894876 0.0921269 0.0947353 0.0973131 0.0998601 0.102354 0.104774 0.107118 0.109388 0.111583 0.113704 0.115749 0.11772 0.119596 0.121357 0.123004 0.124536 0.125954 0.127257 0.128445 0.129519 0.130464 0.131268 0.13193 0.13245 0.132829 0.133065 0.133161 0.133114 0.132922 0.132581 0.132091 0.131452 0.130664 0.129726 0.12864 0.127404 0.126027 0.124517 0.122873 0.121096 0.119186 0.117142 0.114965 0.112654 0.110229 0.107708 0.105091 0.102378 0.09957 0.096666 0.0936661 0.0905706 0.0874066 0.0842018 0.0809559 0.0776691 0.0743413 0.0709726 0.067563 0.0641123 0.0606529 0.0572168 0.0538041 0.0504148 0.0470488 0.0437062 0.040387 0.0370911 0.0338251 0.0305952 0.0274016 0.0242443 0.0211232 0.0180383 0.0149896 0.0119772 0.00917005 0.00673718 0.0046786 0.0029943 0.00168429 0.000748575 0.000187144 0 0 0.000101552 0.00040621 0.000913972 0.00162484 0.00253881 0.00365589 0.00497607 0.00649936 0.00815044 0.00985401 0.0116101 0.0134186 0.0152796 0.0171931 0.0191591 0.0211776 0.0232555 0.0253999 0.0276109 0.0298882 0.0322321 0.0346424 0.0371193 0.0396626 0.0422613 0.0449044 0.0475918 0.0503236 0.0530997 0.0559202 0.0587851 0.0616943 0.0646308 0.0675775 0.0705344 0.0735015 0.0764788 0.0794662 0.0824639 0.0854718 0.0884679 0.0914305 0.0943596 0.0972551 0.100117 0.102945 0.10574 0.108501 0.111205 0.113828 0.116369 0.118829 0.121208 0.123506 0.125722 0.127857 0.129889 0.131797 0.13358 0.135239 0.136774 0.138184 0.13947 0.140632 0.141654 0.142523 0.143238 0.1438 0.144207 0.144462 0.144562 0.144509 0.144298 0.143925 0.143391 0.142696 0.141838 0.14082 0.139639 0.138297 0.136802 0.135162 0.133378 0.131449 0.129375 0.127157 0.124794 0.122287 0.119655 0.11692 0.114081 0.111138 0.108091 0.104941 0.101687 0.0983287 0.0948965 0.0914199 0.0878988 0.0843332 0.0807231 0.0770686 0.0733695 0.069626 0.0658728 0.0621447 0.0584418 0.054764 0.0511113 0.0474838 0.0438813 0.040304 0.0367586 0.0332519 0.0297837 0.0263542 0.0229633 0.0196111 0.0162975 0.0130226 0.0099704 0.00732519 0.00508694 0.00325564 0.0018313 0.00081391 0.000203478 0 0 0.000110307 0.000441229 0.000992765 0.00176492 0.00275768 0.00397106 0.00540505 0.00705966 0.00885267 0.0107019 0.0126072 0.0145688 0.0165865 0.0186604 0.0207905 0.0229768 0.0252269 0.0275485 0.0299416 0.0324061 0.0349421 0.0375496 0.0402286 0.042979 0.045789 0.0486465 0.0515516 0.0545043 0.0575045 0.0605523 0.0636477 0.0667906 0.0699626 0.0731454 0.0763389 0.0795431 0.082758 0.0859837 0.08922 0.0924671 0.0957013 0.0988991 0.10206 0.105185 0.108274 0.111325 0.114341 0.11732 0.120237 0.123066 0.125807 0.12846 0.131025 0.133503 0.135893 0.138194 0.140385 0.142441 0.144363 0.146151 0.147805 0.149324 0.150708 0.151959 0.153059 0.153994 0.154762 0.155365 0.155802 0.156073 0.156179 0.156118 0.155888 0.155483 0.154904 0.15415 0.153222 0.15212 0.150844 0.149393 0.147777 0.146005 0.144077 0.141993 0.139754 0.137358 0.134806 0.132099 0.129257 0.126304 0.123238 0.120061 0.116772 0.11337 0.109857 0.106232 0.102527 0.0987735 0.0949722 0.0911228 0.0872253 0.0832798 0.0792862 0.0752445 0.0711922 0.0671668 0.0631684 0.0591968 0.0552522 0.0513344 0.0474436 0.0435796 0.0397496 0.0359607 0.0322128 0.0285059 0.0248401 0.0212153 0.0176316 0.0140888 0.0107868 0.00792496 0.00550345 0.00352221 0.00198124 0.000880552 0.000220138 0 0 0.000119293 0.00047717 0.00107363 0.00190868 0.00298231 0.00429453 0.00584534 0.00763472 0.00957336 0.0115719 0.0136303 0.0157487 0.0179269 0.0201651 0.0224631 0.0248211 0.0272473 0.02975 0.0323292 0.034985 0.0377173 0.0405261 0.0434114 0.0463733 0.0493988 0.0524752 0.0556023 0.0587801 0.0620088 0.0652882 0.0686184 0.0719994 0.0754114 0.0788346 0.082269 0.0857146 0.0891715 0.0926395 0.0961188 0.0996092 0.103086 0.106522 0.10992 0.113278 0.116597 0.119876 0.123115 0.126316 0.129449 0.132487 0.135431 0.138281 0.141036 0.143696 0.146261 0.148732 0.151084 0.153291 0.155353 0.157271 0.159045 0.160674 0.162159 0.1635 0.164679 0.16568 0.166502 0.167147 0.167613 0.167901 0.168011 0.167943 0.167692 0.167254 0.166628 0.165815 0.164815 0.163628 0.162254 0.160692 0.158953 0.157046 0.154972 0.15273 0.150321 0.147745 0.145001 0.14209 0.139034 0.135859 0.132563 0.129147 0.125611 0.121954 0.118177 0.11428 0.110297 0.106263 0.102176 0.0980379 0.093848 0.0896063 0.0853129 0.0809678 0.0766111 0.0722831 0.0679838 0.0637133 0.0594714 0.0552582 0.0510737 0.0469178 0.0427981 0.0387218 0.0346889 0.0306995 0.0267534 0.0228509 0.0189917 0.015176 0.0116191 0.0085365 0.00592812 0.003794 0.00213412 0.0009485 0.000237125 0 0 0.000128508 0.000514034 0.00115658 0.00205614 0.00321271 0.00462631 0.00629692 0.00822454 0.0103125 0.0124641 0.0146794 0.0169583 0.0193008 0.021707 0.0241769 0.0267104 0.0293166 0.0320043 0.0347738 0.0376248 0.0405575 0.0435718 0.0466678 0.0498454 0.0530908 0.0563902 0.0597437 0.0631511 0.0666126 0.070128 0.0736975 0.0773209 0.0809772 0.0846452 0.0883249 0.0920162 0.0957192 0.0994338 0.10316 0.106898 0.110621 0.114301 0.117938 0.121533 0.125086 0.128596 0.132063 0.135488 0.138841 0.142093 0.145243 0.148292 0.151239 0.154084 0.156828 0.159471 0.161985 0.164345 0.16655 0.1686 0.170496 0.172237 0.173823 0.175254 0.176513 0.177581 0.178458 0.179144 0.17964 0.179945 0.180059 0.179982 0.17971 0.179237 0.178564 0.177691 0.176617 0.175343 0.173869 0.172194 0.170329 0.168285 0.166062 0.16366 0.161079 0.158318 0.155378 0.15226 0.148987 0.145585 0.142055 0.138396 0.134609 0.130692 0.126647 0.122474 0.118208 0.113887 0.109511 0.105079 0.100591 0.0960482 0.0914497 0.0867958 0.0821295 0.0774936 0.0728882 0.0683133 0.0637689 0.059255 0.0547716 0.0503187 0.045904 0.0415351 0.037212 0.0329348 0.0287034 0.0245178 0.020378 0.0162841 0.0124675 0.00915979 0.00636096 0.00407102 0.00228995 0.00101775 0.000254439 0 0 0.000137955 0.00055182 0.00124159 0.00220728 0.00344887 0.00496638 0.00675979 0.00882912 0.0110701 0.0133785 0.0157543 0.0181976 0.0207083 0.0232863 0.0259319 0.0286448 0.0314348 0.0343116 0.0372753 0.0403257 0.0434629 0.0466869 0.0499977 0.0533953 0.0568649 0.0603918 0.0639759 0.0676172 0.0713158 0.0750717 0.0788848 0.0827551 0.0866601 0.0905772 0.0945064 0.0984477 0.102401 0.106367 0.110344 0.114334 0.118307 0.122234 0.126116 0.129951 0.133742 0.137486 0.141185 0.144839 0.148415 0.151882 0.155242 0.158492 0.161634 0.164668 0.167593 0.17041 0.17309 0.175604 0.177954 0.180138 0.182157 0.184011 0.185699 0.187223 0.188562 0.189697 0.19063 0.191358 0.191883 0.192204 0.192322 0.192237 0.191942 0.191434 0.190713 0.189777 0.188628 0.187266 0.185689 0.183899 0.181906 0.179723 0.177348 0.174782 0.172026 0.169078 0.165939 0.162609 0.159114 0.155483 0.151714 0.147808 0.143765 0.139585 0.135267 0.130813 0.12626 0.121647 0.116976 0.112245 0.107455 0.102605 0.0976966 0.0927287 0.0877473 0.0827982 0.0778814 0.072997 0.0681448 0.063325 0.0585375 0.0537823 0.0490673 0.0444006 0.0397821 0.0352119 0.0306898 0.026216 0.0217904 0.017413 0.0133319 0.00979484 0.00680197 0.00435326 0.00244871 0.00108832 0.000272079 0 0 0.000147632 0.000590528 0.00132869 0.00236211 0.0036908 0.00531475 0.00723397 0.00944845 0.0118462 0.0143151 0.0168553 0.0194666 0.0221492 0.024903 0.027728 0.0306242 0.033602 0.0366719 0.0398337 0.0430875 0.0464334 0.0498713 0.0534011 0.057023 0.0607211 0.0644798 0.0682989 0.0721785 0.0761186 0.0801192 0.0841803 0.0883019 0.09246 0.0966305 0.100814 0.105009 0.109217 0.113438 0.117671 0.121916 0.126144 0.130322 0.134452 0.138532 0.142564 0.146547 0.150481 0.154366 0.158169 0.161856 0.165427 0.168883 0.172223 0.175448 0.178556 0.18155 0.184397 0.187069 0.189564 0.191884 0.194028 0.195996 0.197789 0.199405 0.200826 0.202029 0.203017 0.203788 0.204342 0.20468 0.204801 0.204706 0.204389 0.203845 0.203073 0.202074 0.200849 0.199395 0.197715 0.195807 0.193684 0.191358 0.188829 0.186097 0.183162 0.180023 0.176681 0.173137 0.169417 0