<?xml version="1.0"?> 
<VTKFile type="StructuredGrid" version="0.1"> 
<StructuredGrid WholeExtent="0 128 0 128 0 0"> 
<Piece Extent="0 128 0 128 0 0"> 
<PointData>
<DataArray type="Float32" Name="u" format="ascii" NumberOfComponents="1"> 
0 0 0 0 0 0 0 0 0 0 0 0 0 0 0 0 0 0 0 0 0 0 0 0 0 0 0 0 0 0 0 0 0 0 0 0 0 0 0 0 0 0 0 0 0 0 0 0 0 0 0 0 0 0 0 0 0 0 0 0 0 0 0 0 0 0 0 0 0 0 0 0 0 0 0 0 0 0 0 0 0 0 0 0 0 0 0 0 0 0 0 0 0 0 0 0 0 0 0 0 0 0 0 0 0 0 0 0 0 0 0 0 0 0 0 0 0 0 0 0 0 0 0 0 0 0 0 0 0 0 8.40129e-06 3.36051e-05 7.56116e-05 0.000134421 0.000210032 0.000302446 0.000411663 0.000537682 0.000672183 0.000806842 0.000941661 0.00107664 0.00121178 0.00134707 0.00148253 0.00161814 0.00175345 0.00188797 0.00202172 0.00215469 0.00228688 0.00241829 0.00254893 0.00267878 0.00280672 0.0029316 0.00305342 0.00317219 0.0032879 0.00340056 0.00351016 0.0036167 0.0037198 0.00381908 0.00391454 0.00400618 0.00409399 0.00417799 0.00425816 0.00433452 0.00440722 0.00447644 0.00454218 0.00460444 0.00466321 0.00471851 0.00477033 0.00481867 0.00486389 0.00490638 0.00494612 0.00498312 0.00501738 0.00504889 0.00507767 0.0051037 0.00512725 0.00514858 0.00516769 0.00518458 0.00519924 0.00521168 0.0052219 0.0052299 0.00523565 0.00523912 0.00524032 0.00523924 0.00523589 0.00523026 0.00522236 0.00521218 0.00519938 0.00518363 0.00516492 0.00514326 0.00511864 0.00509106 0.00506052 0.00502703 0.00499006 0.00494912 0.0049042 0.00485529 0.0048024 0.00474554 0.00468469 0.00461986 0.00455071 0.00447688 0.00439838 0.00431521 0.00422737 0.00413486 0.00403768 0.00393583 0.00382959 0.00371924 0.00360479 0.00348624 0.00336357 0.00323681 0.00310593 0.00297096 0.00283312 0.00269368 0.00255262 0.00240996 0.00226569 0.00211981 0.00197232 0.00182322 0.00167312 0.00152265 0.00137179 0.00122056 0.00106894 0.000916941 0.000764562 0.000611802 0.000468411 0.000344139 0.000238985 0.00015295 8.60346e-05 3.82376e-05 9.5594e-06 0 0 3.36051e-05 0.000134421 0.000302446 0.000537682 0.000840129 0.00120979 0.00164665 0.00215073 0.00268873 0.00322737 0.00376664 0.00430655 0.0048471 0.00538829 0.00593011 0.00647257 0.00701379 0.0075519 0.00808689 0.00861877 0.00914753 0.00967318 0.0101957 0.0107151 0.0112269 0.0117264 0.0122137 0.0126888 0.0131516 0.0136022 0.0140406 0.0144668 0.0148792 0.0152763 0.0156582 0.0160247 0.016376 0.016712 0.0170327 0.0173381 0.0176289 0.0179057 0.0181687 0.0184177 0.0186529 0.0188741 0.0190813 0.0192747 0.0194556 0.0196255 0.0197845 0.0199325 0.0200695 0.0201956 0.0203107 0.0204148 0.020509 0.0205943 0.0206708 0.0207383 0.020797 0.0208467 0.0208876 0.0209196 0.0209426 0.0209565 0.0209613 0.020957 0.0209436 0.020921 0.0208894 0.0208487 0.0207975 0.0207345 0.0206597 0.020573 0.0204745 0.0203642 0.0202421 0.0201081 0.0199603 0.0197965 0.0196168 0.0194212 0.0192096 0.0189821 0.0187388 0.0184794 0.0182028 0.0179075 0.0175935 0.0172609 0.0169095 0.0165395 0.0161507 0.0157433 0.0153184 0.014877 0.0144192 0.0139449 0.0134543 0.0129472 0.0124237 0.0118838 0.0113325 0.0107747 0.0102105 0.00963984 0.00906275 0.00847923 0.00788927 0.00729287 0.0066925 0.0060906 0.00548717 0.00488223 0.00427576 0.00366776 0.00305825 0.00244721 0.00187364 0.00137655 0.00095594 0.000611802 0.000344139 0.00015295 3.82376e-05 0 0 7.56116e-05 0.000302446 0.000680504 0.00120979 0.00189029 0.00272202 0.00370497 0.00483914 0.00604964 0.00726158 0.00847495 0.00968975 0.010906 0.0121237 0.0133428 0.0145633 0.015781 0.0169918 0.0181955 0.0193922 0.0205819 0.0217647 0.0229404 0.024109 0.0252605 0.0263844 0.0274808 0.0285497 0.0295911 0.030605 0.0315914 0.0325503 0.0334782 0.0343717 0.0352309 0.0360556 0.0368459 0.0376019 0.0383235 0.0390106 0.0396649 0.0402879 0.0408796 0.0414399 0.0419689 0.0424666 0.042933 0.043368 0.043775 0.0441574 0.0445151 0.0448481 0.0451564 0.04544 0.045699 0.0459333 0.0461453 0.0463373 0.0465092 0.0466612 0.0467932 0.0469051 0.0469971 0.0470691 0.0471208 0.0471521 0.0471629 0.0471532 0.047123 0.0470723 0.0470012 0.0469096 0.0467945 0.0466527 0.0464843 0.0462893 0.0460677 0.0458195 0.0455447 0.0452432 0.0449106 0.0445421 0.0441378 0.0436976 0.0432216 0.0427098 0.0421622 0.0415787 0.0409563 0.0402919 0.0395854 0.0388369 0.0380464 0.0372138 0.0363391 0.0354225 0.0344663 0.0334732 0.0324431 0.0313761 0.0302722 0.0291313 0.0279534 0.0267386 0.0254981 0.0242431 0.0229736 0.0216896 0.0203912 0.0190783 0.0177509 0.016409 0.0150581 0.0137038 0.0123461 0.010985 0.00962045 0.00825247 0.00688106 0.00550622 0.0042157 0.00309725 0.00215087 0.00137655 0.000774312 0.000344139 8.60346e-05 0 0 0.000134421 0.000537682 0.00120979 0.00215073 0.00336051 0.00483914 0.00658661 0.00860292 0.0107549 0.0129095 0.0150666 0.0172262 0.0193884 0.0215532 0.0237204 0.0258903 0.0280552 0.0302076 0.0323476 0.0344751 0.0365901 0.0386927 0.0407829 0.0428605 0.0449075 0.0469056 0.0488548 0.0507551 0.0526065 0.0544089 0.0561625 0.0578671 0.0595168 0.0611053 0.0626326 0.0640988 0.0655039 0.0668478 0.0681306 0.0693522 0.0705155 0.071623 0.0726748 0.073671 0.0746114 0.0754962 0.0763253 0.0770987 0.0778223 0.078502 0.0791379 0.0797299 0.080278 0.0807823 0.0812427 0.0816592 0.0820361 0.0823773 0.0826831 0.0829532 0.0831878 0.0833869 0.0835504 0.0836784 0.0837703 0.0838259 0.0838451 0.0838278 0.0837742 0.0836842 0.0835577 0.0833949 0.0831901 0.0829381 0.0826388 0.0822921 0.0818982 0.0814569 0.0809683 0.0804324 0.079841 0.0791859 0.0784671 0.0776846 0.0768385 0.0759286 0.074955 0.0739178 0.0728113 0.0716301 0.0703741 0.0690434 0.067638 0.0661578 0.0646029 0.0629733 0.0612734 0.0595079 0.0576767 0.0557798 0.0538172 0.0517889 0.0496949 0.0475353 0.0453299 0.0430988 0.040842 0.0385594 0.036251 0.0339169 0.0315571 0.0291715 0.02677 0.0243624 0.0219487 0.0195289 0.017103 0.0146711 0.012233 0.00978883 0.00749457 0.00550622 0.00382376 0.00244721 0.00137655 0.000611802 0.00015295 0 0 0.000210032 0.000840129 0.00189029 0.00336051 0.0052508 0.00756116 0.0102916 0.0134421 0.0168046 0.020171 0.0235415 0.026916 0.0302944 0.0336768 0.0370632 0.0404536 0.0438362 0.0471994 0.0505431 0.0538673 0.0571721 0.0604574 0.0637232 0.0669696 0.070168 0.07329 0.0763356 0.0793048 0.0821976 0.0850139 0.0877539 0.0904174 0.092995 0.095477 0.0978635 0.100154 0.10235 0.10445 0.106454 0.108363 0.11018 0.111911 0.113554 0.115111 0.11658 0.117963 0.119258 0.120467 0.121597 0.122659 0.123653 0.124578 0.125434 0.126222 0.126942 0.127593 0.128181 0.128715 0.129192 0.129614 0.129981 0.130292 0.130548 0.130747 0.130891 0.130978 0.131008 0.130981 0.130897 0.130757 0.130559 0.130304 0.129985 0.129591 0.129123 0.128581 0.127966 0.127276 0.126513 0.125676 0.124752 0.123728 0.122605 0.121382 0.12006 0.118638 0.117117 0.115497 0.113768 0.111922 0.10996 0.10788 0.105684 0.103372 0.100942 0.0983958 0.0957397 0.0929811 0.0901198 0.0871559 0.0840893 0.0809201 0.0776483 0.0742739 0.070828 0.0673419 0.0638156 0.060249 0.0566422 0.0529952 0.0493079 0.0455805 0.0418281 0.0380662 0.0342948 0.0305139 0.0267235 0.0229235 0.019114 0.015295 0.0117103 0.00860346 0.00597463 0.00382376 0.00215087 0.00095594 0.000238985 0 0 0.000302446 0.00120979 0.00272202 0.00483914 0.00756116 0.0108881 0.0148199 0.0193566 0.0241986 0.0290463 0.0338998 0.038759 0.0436239 0.0484946 0.053371 0.0582532 0.0631241 0.0679671 0.072782 0.0775689 0.0823278 0.0870586 0.0917614 0.0964362 0.101042 0.105538 0.109923 0.114199 0.118365 0.12242 0.126366 0.130201 0.133913 0.137487 0.140923 0.144222 0.147384 0.150408 0.153294 0.156043 0.15866 0.161152 0.163518 0.16576 0.167876 0.169866 0.171732 0.173472 0.1751 0.17663 0.17806 0.179392 0.180626 0.18176 0.182796 0.183733 0.184581 0.185349 0.186037 0.186645 0.187173 0.187621 0.187988 0.188276 0.188483 0.188608 0.188651 0.188613 0.188492 0.188289 0.188005 0.187638 0.187178 0.186611 0.185937 0.185157 0.184271 0.183278 0.182179 0.180973 0.179642 0.178168 0.176551 0.17479 0.172887 0.170839 0.168649 0.166315 0.163825 0.161168 0.158342 0.155348 0.152185 0.148855 0.145357 0.14169 0.137865 0.133893 0.129773 0.125504 0.121089 0.116525 0.111814 0.106954 0.101992 0.0969723 0.0918944 0.0867586 0.0815648 0.0763131 0.0710034 0.0656359 0.0602325 0.0548154 0.0493846 0.04394 0.0384818 0.0330099 0.0275242 0.0220249 0.0168628 0.012389 0.00860346 0.00550622 0.00309725 0.00137655 0.000344139 0 0 0.000411663 0.00164665 0.00370497 0.00658661 0.0102916 0.0148199 0.0201715 0.0263464 0.0329369 0.0395353 0.0461414 0.0527553 0.059377 0.0660065 0.0726439 0.079289 0.085919 0.0925108 0.0990644 0.10558 0.112057 0.118496 0.124897 0.13126 0.137529 0.143648 0.149618 0.155437 0.161107 0.166627 0.171998 0.177218 0.18227 0.187135 0.191812 0.196303 0.200606 0.204721 0.20865 0.212391 0.215954 0.219345 0.222567 0.225617 0.228498 0.231207 0.233746 0.236115 0.238331 0.240412 0.24236 0.244173 0.245851 0.247396 0.248806 0.250081 0.251235 0.252281 0.253217 0.254044 0.254763 0.255372 0.255873 0.256265 0.256547 0.256717 0.256776 0.256723 0.256559 0.256283 0.255895 0.255397 0.25477 0.253998 0.253081 0.25202 0.250813 0.249462 0.247965 0.246324 0.244513 0.242507 0.240306 0.237909 0.235318 0.232531 0.22955 0.226373 0.222985 0.219367 0.215521 0.211445 0.207141 0.202608 0.197846 0.192856 0.18765 0.182243 0.176635 0.170826 0.164815 0.158603 0.152191 0.145577 0.138823 0.13199 0.125079 0.118088 0.111019 0.103871 0.0966436 0.0893377 0.0819831 0.0746098 0.0672179 0.0598073 0.052378 0.0449301 0.0374635 0.0299783 0.0229521 0.0168628 0.0117103 0.00749457 0.0042157 0.00187364 0.000468411 0 0 0.000537682 0.00215073 0.00483914 0.00860292 0.0134421 0.0193566 0.0263464 0.0344117 0.0430197 0.0516379 0.0602663 0.0689049 0.0775537 0.0862126 0.0948818 0.103561 0.112221 0.12083 0.12939 0.1379 0.146361 0.154771 0.163131 0.171442 0.17963 0.187622 0.195419 0.20302 0.210426 0.217636 0.22465 0.231469 0.238067 0.244421 0.250531 0.256395 0.262016 0.267391 0.272522 0.277409 0.282062 0.286492 0.290699 0.294684 0.298446 0.301985 0.305301 0.308395 0.311289 0.314008 0.316552 0.31892 0.321112 0.323129 0.324971 0.326637 0.328144 0.329509 0.330732 0.331813 0.332751 0.333548 0.334202 0.334713 0.335081 0.335304 0.33538 0.335311 0.335097 0.334737 0.334231 0.333579 0.332761 0.331752 0.330555 0.329169 0.327593 0.325828 0.323873 0.32173 0.319364 0.316744 0.313869 0.310739 0.307354 0.303714 0.29982 0.295671 0.291245 0.28652 0.281496 0.276174 0.270552 0.264631 0.258412 0.251893 0.245094 0.238032 0.230707 0.223119 0.215269 0.207156 0.19878 0.190141 0.18132 0.172395 0.163368 0.154237 0.145004 0.135668 0.126228 0.116686 0.10708 0.0974496 0.0877948 0.0781156 0.0684121 0.0586842 0.048932 0.0391553 0.0299783 0.0220249 0.015295 0.00978883 0.00550622 0.00244721 0.000611802 0 0 0.000672159 0.00268863 0.00604943 0.0107545 0.016804 0.0241977 0.0329358 0.0430181 0.0537786 0.0645511 0.0753354 0.0861317 0.0969399 0.10776 0.118592 0.129436 0.140254 0.15101 0.161702 0.172331 0.182898 0.193401 0.203841 0.214218 0.224442 0.23442 0.244153 0.253641 0.262884 0.271882 0.280636 0.289144 0.297376 0.305303 0.312924 0.32024 0.327249 0.333953 0.340351 0.346444 0.352244 0.357767 0.363011 0.367977 0.372665 0.377075 0.381207 0.385061 0.388666 0.392053 0.395221 0.39817 0.400901 0.403413 0.405706 0.40778 0.409656 0.411356 0.412878 0.414223 0.415392 0.416383 0.417197 0.417834 0.418292 0.418569 0.418664 0.418579 0.418312 0.417863 0.417234 0.416423 0.415404 0.414149 0.412658 0.410931 0.408968 0.40677 0.404336 0.401666 0.398719 0.395455 0.391872 0.387972 0.383754 0.379218 0.374364 0.369192 0.363675 0.357784 0.35152 0.344882 0.337871 0.330486 0.322728 0.314597 0.306114 0.297302 0.288162 0.278693 0.268896 0.258769 0.248314 0.237531 0.226518 0.215376 0.204104 0.192703 0.181172 0.169513 0.157723 0.145805 0.133805 0.121775 0.109713 0.0976204 0.0854961 0.0733405 0.0611536 0.0489354 0.0374662 0.0275262 0.0191154 0.0122339 0.00688154 0.00305846 0.000764616 0 0 0.000806746 0.00322698 0.00726071 0.0129079 0.0201686 0.0290429 0.0395306 0.0516317 0.0645457 0.0774717 0.0904096 0.10336 0.116322 0.129296 0.142282 0.15528 0.168245 0.181133 0.193943 0.206675 0.219329 0.231906 0.244405 0.256827 0.269061 0.281001 0.292645 0.303994 0.315047 0.325805 0.336267 0.346434 0.35627 0.365739 0.374841 0.383575 0.391943 0.399944 0.407577 0.414844 0.42176 0.428344 0.434596 0.440514 0.4461 0.451354 0.456274 0.460862 0.465153 0.469184 0.472954 0.476462 0.479711 0.482698 0.485425 0.487891 0.490121 0.492141 0.49395 0.495549 0.496937 0.498115 0.499083 0.49984 0.500384 0.500713 0.500827 0.500725 0.500408 0.499875 0.499127 0.498164 0.496953 0.495461 0.493688 0.491634 0.489299 0.486684 0.483788 0.480611 0.477104 0.473217 0.46895 0.464304 0.459278 0.453872 0.448086 0.441921 0.435342 0.428316 0.420842 0.412921 0.404552 0.395735 0.386472 0.37676 0.366627 0.356099 0.345176 0.333857 0.322143 0.310033 0.297529 0.284629 0.271452 0.258119 0.244628 0.23098 0.217175 0.203213 0.189094 0.174817 0.160442 0.146027 0.131572 0.117077 0.102542 0.0879673 0.0733527 0.0586981 0.0449407 0.0330177 0.0229289 0.0146745 0.00825442 0.00366863 0.000917158 0 0 0.000941445 0.00376578 0.008473 0.0150631 0.0235361 0.033892 0.0461308 0.0602525 0.0753208 0.0903997 0.105489 0.120589 0.135699 0.15082 0.165951 0.181093 0.196193 0.211199 0.226112 0.24093 0.255655 0.270286 0.284823 0.299266 0.313489 0.327366 0.340895 0.354078 0.366914 0.379403 0.391545 0.403341 0.414748 0.425728 0.436279 0.446402 0.456096 0.465362 0.4742 0.482609 0.49061 0.498225 0.505454 0.512296 0.518751 0.52482 0.530503 0.535799 0.54075 0.545401 0.549749 0.553796 0.557542 0.560986 0.564128 0.566969 0.569537 0.571864 0.573948 0.575789 0.577388 0.578745 0.579859 0.580731 0.581357 0.581736 0.581867 0.58175 0.581385 0.580772 0.579911 0.578803 0.577408 0.575689 0.573645 0.571278 0.568586 0.565569 0.562229 0.558564 0.554517 0.550029 0.545101 0.539733 0.533925 0.527676 0.520987 0.513857 0.506247 0.498116 0.489463 0.480289 0.470595 0.460379 0.449642 0.438384 0.426634 0.414422 0.401747 0.388609 0.375009 0.360947 0.346422 0.331435 0.316123 0.300625 0.284941 0.26907 0.253013 0.23677 0.22034 0.203724 0.186989 0.170205 0.15337 0.136485 0.11955 0.102565 0.0855291 0.0684434 0.0524019 0.0384994 0.0267357 0.0171108 0.00962485 0.00427771 0.00106943 0 0 0.00107625 0.00430502 0.00968629 0.0172201 0.0269064 0.0387452 0.0527365 0.0688803 0.086104 0.103335 0.120573 0.137819 0.155072 0.172332 0.1896 0.206875 0.224098 0.241209 0.258209 0.275098 0.291875 0.308541 0.325095 0.341538 0.357725 0.373514 0.388903 0.403893 0.418484 0.432676 0.446469 0.459862 0.472812 0.485271 0.49724 0.508719 0.519709 0.530209 0.540219 0.549739 0.558794 0.567409 0.575585 0.583322 0.590618 0.597475 0.603892 0.60987 0.615457 0.620703 0.625608 0.630172 0.634394 0.638275 0.641815 0.645014 0.647906 0.650525 0.652871 0.654944 0.656744 0.658271 0.659525 0.660507 0.661212 0.661638 0.661786 0.661654 0.661244 0.660554 0.659586 0.658338 0.656769 0.654833 0.65253 0.649862 0.646827 0.643426 0.639659 0.635525 0.630959 0.625892 0.620326 0.614261 0.607695 0.60063 0.593065 0.585001 0.576389 0.567183 0.557383 0.546988 0.536 0.524417 0.512239 0.499468 0.486134 0.47227 0.457876 0.442951 0.427496 0.411511 0.394996 0.37795 0.360531 0.342895 0.325042 0.306972 0.288686 0.270182 0.251462 0.232525 0.213448 0.194309 0.175108 0.155845 0.13652 0.117132 0.0976829 0.0781712 0.0598498 0.0439713 0.0305356 0.0195428 0.0109928 0.0048857 0.00122142 0 0 0.00121118 0.0048447 0.0109006 0.0193788 0.0302794 0.0436023 0.0593476 0.0775153 0.0968953 0.116278 0.135663 0.155051 0.174441 0.193833 0.213228 0.232626 0.25196 0.271163 0.290235 0.309178 0.327989 0.34667 0.365221 0.383641 0.40177 0.419446 0.436669 0.453441 0.469759 0.485625 0.501039 0.516 0.530459 0.544367 0.557723 0.570528 0.582782 0.594484 0.605635 0.616234 0.626311 0.635897 0.64499 0.653592 0.661701 0.669318 0.676443 0.683077 0.689274 0.695092 0.70053 0.705589 0.710268 0.714567 0.718487 0.722028 0.725227 0.728125 0.73072 0.733014 0.735005 0.736695 0.738082 0.739167 0.739947 0.740419 0.740582 0.740437 0.739983 0.739221 0.738151 0.736772 0.735035 0.732892 0.730343 0.727386 0.724023 0.720254 0.716077 0.711495 0.706429 0.700806 0.694625 0.687886 0.680589 0.672735 0.664322 0.655351 0.645768 0.635518 0.624601 0.613017 0.600766 0.587848 0.574264 0.560012 0.545127 0.529644 0.513562 0.496882 0.479602 0.461725 0.443248 0.424173 0.404675 0.384927 0.364931 0.344686 0.324193 0.30345 0.282459 0.261219 0.239818 0.21834 0.196786 0.175157 0.153452 0.131671 0.109814 0.0878816 0.0672843 0.0494334 0.0343287 0.0219704 0.0123583 0.0054926 0.00137315 0 0 0.00134621 0.00538483 0.0121159 0.0215393 0.0336552 0.0484635 0.0659642 0.0861573 0.107695 0.129228 0.150758 0.172283 0.193805 0.215323 0.236836 0.258346 0.279779 0.30106 0.32219 0.343169 0.363998 0.384675 0.405201 0.425576 0.445622 0.465161 0.484194 0.502719 0.520738 0.53825 0.555255 0.571753 0.587692 0.603017 0.617729 0.631828 0.645314 0.658187 0.670447 0.682094 0.693163 0.703687 0.713669 0.723106 0.732 0.74035 0.748156 0.755418 0.7622 0.768566 0.774515 0.780047 0.785162 0.789861 0.794143 0.798008 0.8015 0.804663 0.807495 0.809998 0.812171 0.814015 0.815529 0.816713 0.817564 0.818078 0.818257 0.818099 0.817604 0.816773 0.815606 0.814103 0.812208 0.809868 0.807083 0.803852 0.800175 0.796053 0.791485 0.786472 0.780929 0.774771 0.767998 0.76061 0.752607 0.743989 0.734757 0.724909 0.714385 0.703121 0.691118 0.678376 0.664895 0.650675 0.635715 0.620016 0.603614 0.586544 0.568807 0.550401 0.531329 0.511588 0.491181 0.470105 0.448555 0.426723 0.404608 0.382212 0.359534 0.336574 0.313332 0.289808 0.266098 0.242297 0.218404 0.19442 0.170345 0.14618 0.121923 0.0975745 0.0747055 0.0548857 0.038115 0.0243936 0.0137214 0.00609841 0.0015246 0 0 0.00148135 0.00592541 0.0133322 0.0237016 0.0370338 0.0533287 0.0725863 0.0948065 0.118502 0.142186 0.165857 0.189517 0.213165 0.2368 0.260424 0.284036 0.307555 0.330901 0.354074 0.377074 0.3999 0.422554 0.445035 0.467343 0.489283 0.510661 0.531476 0.55173 0.571421 0.59055 0.609117 0.627122 0.644509 0.66122 0.677257 0.692619 0.707306 0.721319 0.734656 0.747319 0.759348 0.770781 0.78162 0.791864 0.801514 0.810569 0.819029 0.826895 0.834237 0.841126 0.847563 0.853547 0.859078 0.864157 0.868783 0.872957 0.876726 0.880139 0.883196 0.885897 0.888243 0.890232 0.891866 0.893143 0.894061 0.894617 0.89481 0.894639 0.894106 0.893211 0.891952 0.890331 0.888287 0.88576 0.88275 0.879257 0.875282 0.870823 0.865882 0.860458 0.854457 0.847786 0.840444 0.832431 0.823748 0.814394 0.804369 0.793674 0.782239 0.769992 0.756934 0.743065 0.728386 0.712895 0.696593 0.679481 0.661594 0.64297 0.623609 0.60351 0.582675 0.561102 0.538792 0.515745 0.492171 0.468281 0.444074 0.419551 0.394711 0.369554 0.344081 0.318291 0.29229 0.26618 0.239962 0.213635 0.187201 0.160659 0.134008 0.10725 0.0821133 0.0603281 0.0418945 0.0268125 0.015082 0.00670313 0.00167578 0 0 0.00161661 0.00646643 0.0145495 0.0258657 0.0404152 0.0581979 0.0792137 0.103463 0.129318 0.155151 0.180962 0.206752 0.23252 0.258266 0.283991 0.309694 0.335288 0.360685 0.385886 0.41089 0.435697 0.460308 0.484723 0.508941 0.532751 0.555943 0.578517 0.600472 0.621808 0.642526 0.662626 0.682107 0.70091 0.718977 0.736307 0.752901 0.768758 0.783879 0.798263 0.81191 0.824866 0.837178 0.848845 0.859867 0.870244 0.879977 0.889064 0.897507 0.905383 0.912772 0.919674 0.926089 0.932016 0.937455 0.942408 0.946872 0.950903 0.954553 0.957823 0.960711 0.963219 0.965347 0.967093 0.968459 0.96944 0.970034 0.97024 0.970059 0.96949 0.968533 0.967189 0.965457 0.963272 0.960568 0.957345 0.953604 0.949344 0.944565 0.939268 0.933452 0.927014 0.919851 0.911963 0.90335 0.894012 0.883949 0.87316 0.861647 0.84933 0.83613 0.822049 0.807085 0.791238 0.77451 0.756898 0.738405 0.719067 0.698921 0.677969 0.656208 0.633641 0.610266 0.586084 0.561094 0.535525 0.509603 0.483328 0.456701 0.429722 0.40239 0.374705 0.346669 0.318392 0.289989 0.261459 0.232802 0.204019 0.175109 0.146072 0.116908 0.0895078 0.0657608 0.0456672 0.029227 0.0164402 0.00730676 0.00182669 0 0 0.00175149 0.00700596 0.0157634 0.0280239 0.0437873 0.0630537 0.0858231 0.112095 0.140103 0.168077 0.196019 0.223927 0.251803 0.279645 0.307455 0.335232 0.362881 0.390308 0.417514 0.444499 0.471261 0.497802 0.524121 0.550219 0.575868 0.600841 0.625138 0.648759 0.671704 0.693973 0.715567 0.736484 0.756665 0.776047 0.794631 0.812416 0.829403 0.845592 0.860982 0.875574 0.88942 0.902572 0.91503 0.926793 0.937863 0.948239 0.95792 0.966908 0.975288 0.983148 0.990487 0.997306 1.0036 1.00938 1.01464 1.01938 1.02365 1.02752 1.03099 1.03405 1.03671 1.03896 1.04082 1.04226 1.0433 1.04393 1.04415 1.04396 1.04336 1.04235 1.04092 1.03909 1.03677 1.03391 1.03048 1.02651 1.02198 1.01691 1.01127 1.00509 0.998241 0.990613 0.982208 0.973024 0.963063 0.952323 0.940806 0.92851 0.915349 0.901235 0.886168 0.870148 0.853176 0.83525 0.816371 0.796539 0.775792 0.754167 0.731663 0.708282 0.684022 0.658884 0.632868 0.605974 0.578446 0.550528 0.522221 0.493523 0.464435 0.434958 0.40509 0.374833 0.344307 0.313634 0.282814 0.251848 0.220734 0.189474 0.158066 0.126512 0.0968604 0.0711628 0.0494186 0.0316279 0.0177907 0.00790697 0.00197674 0 0 0.00188552 0.00754209 0.0169697 0.0301683 0.047138 0.0678788 0.0923905 0.120673 0.150819 0.180919 0.210973 0.240981 0.270944 0.300861 0.330733 0.360559 0.390237 0.419667 0.448849 0.477781 0.506465 0.5349 0.563087 0.591025 0.618471 0.645183 0.671161 0.696404 0.720913 0.744687 0.767727 0.790032 0.811541 0.832189 0.851978 0.870906 0.888975 0.906184 0.922533 0.938022 0.95271 0.966656 0.97986 0.992323 1.00404 1.01502 1.02526 1.03475 1.0436 1.0519 1.05964 1.06683 1.07347 1.07956 1.0851 1.09008 1.09458 1.09865 1.1023 1.10552 1.10832 1.11069 1.11264 1.11416 1.11526 1.11592 1.11615 1.11595 1.11532 1.11426 1.11276 1.11084 1.10841 1.10539 1.10178 1.0976 1.09283 1.08747 1.08153 1.07501 1.06778 1.05972 1.05083 1.04111 1.03056 1.01919 1.00698 0.993947 0.979987 0.965005 0.948999 0.931971 0.913921 0.894847 0.874751 0.853632 0.831527 0.808473 0.784469 0.759516 0.733614 0.706762 0.67896 0.650209 0.620769 0.5909 0.560602 0.529875 0.498719 0.467134 0.43512 0.402677 0.369935 0.337025 0.303946 0.270698 0.237282 0.203698 0.169945 0.136023 0.104143 0.0765131 0.0531341 0.0340058 0.0191283 0.00850145 0.00212536 0 0 0.0020187 0.00807479 0.0181683 0.0322992 0.0504675 0.0726731 0.0989162 0.129197 0.161466 0.193675 0.225825 0.257915 0.289945 0.321915 0.353825 0.385675 0.417357 0.448761 0.479888 0.510737 0.541309 0.571603 0.60162 0.631359 0.660562 0.688971 0.716586 0.743407 0.769434 0.794667 0.819106 0.842751 0.865538 0.887403 0.908348 0.928371 0.947473 0.965654 0.982914 0.999252 1.01474 1.02943 1.04334 1.05645 1.06878 1.08033 1.09108 1.10104 1.11032 1.11902 1.12714 1.13467 1.14163 1.148 1.15379 1.159 1.1637 1.16795 1.17176 1.17513 1.17805 1.18053 1.18256 1.18416 1.1853 1.18599 1.18624 1.18603 1.18538 1.18427 1.18271 1.18071 1.17817 1.17501 1.17125 1.16687 1.16187 1.15626 1.15004 1.1432 1.13562 1.12716 1.11782 1.10761 1.09651 1.08454 1.07169 1.05796 1.04324 1.02744 1.01054 0.992553 0.973473 0.953302 0.932039 0.909684 0.886273 0.861841 0.836387 0.809912 0.782416 0.753898 0.724359 0.693799 0.662493 0.630718 0.598472 0.565757 0.532573 0.498919 0.464794 0.430201 0.395276 0.36016 0.324853 0.289354 0.253664 0.217782 0.181708 0.145443 0.111355 0.0818118 0.0568137 0.0363608 0.0204529 0.0090902 0.00227255 0 0 0.00215102 0.00860409 0.0193592 0.0344163 0.0537755 0.0774368 0.1054 0.137665 0.172044 0.206347 0.240575 0.274727 0.308804 0.342805 0.376731 0.410582 0.44424 0.477591 0.510633 0.543367 0.575792 0.60791 0.639719 0.67122 0.702139 0.732204 0.761414 0.789768 0.817268 0.843913 0.869704 0.894639 0.918656 0.94169 0.963742 0.984811 1.0049 1.024 1.04213 1.05926 1.0755 1.09089 1.10546 1.11919 1.13209 1.14415 1.15538 1.16578 1.17545 1.18452 1.19297 1.20082 1.20806 1.21469 1.22071 1.22612 1.231 1.23542 1.23937 1.24287 1.2459 1.24848 1.25059 1.25224 1.25343 1.25415 1.25441 1.2542 1.25352 1.25238 1.25077 1.24869 1.24606 1.24278 1.23887 1.23431 1.22912 1.22328 1.2168 1.20968 1.20178 1.19295 1.18319 1.17251 1.16091 1.14838 1.13492 1.12054 1.10512 1.08854 1.0708 1.05189 1.03183 1.01061 0.988234 0.964695 0.940029 0.914269 0.887416 0.859469 0.830428 0.800294 0.769065 0.736743 0.703618 0.669981 0.635832 0.60117 0.565997 0.530312 0.494114 0.457405 0.420331 0.383042 0.345536 0.307815 0.269878 0.231725 0.193356 0.154771 0.118497 0.0870588 0.0604575 0.0386928 0.0217647 0.0096732 0.0024183 0 0 0.00228249 0.00912997 0.0205424 0.0365199 0.0570623 0.0821697 0.111842 0.146079 0.182553 0.218934 0.255223 0.291419 0.327522 0.363533 0.399452 0.435278 0.470887 0.506155 0.541083 0.57567 0.609916 0.643821 0.677386 0.710609 0.743204 0.774882 0.805644 0.835488 0.864416 0.892427 0.919521 0.945698 0.970895 0.995049 1.01816 1.04023 1.06125 1.08123 1.10017 1.11806 1.13499 1.15105 1.16623 1.18053 1.19395 1.2065 1.21816 1.22895 1.23899 1.24838 1.25715 1.26528 1.27277 1.27963 1.28586 1.29145 1.29649 1.30105 1.30513 1.30874 1.31187 1.31453 1.31672 1.31842 1.31965 1.3204 1.32067 1.32045 1.31976 1.31858 1.31693 1.31479 1.31207 1.3087 1.30465 1.29994 1.29456 1.28852 1.28181 1.27443 1.26624 1.25708 1.24694 1.23583 1.22376 1.21071 1.19669 1.1817 1.16562 1.1483 1.12976 1.10999 1.089 1.06678 1.04334 1.01866 0.992795 0.965759 0.937557 0.908187 0.877651 0.845948 0.813078 0.779042 0.744144 0.70869 0.67268 0.636113 0.598991 0.561313 0.523079 0.484288 0.445099 0.405668 0.365996 0.326082 0.285926 0.245528 0.204889 0.164008 0.125568 0.0922542 0.0640654 0.0410019 0.0230636 0.0102505 0.00256262 0 0 0.00241311 0.00965243 0.021718 0.0386097 0.0603277 0.0868719 0.118242 0.154439 0.192993 0.231436 0.269768 0.307989 0.346099 0.384098 0.421986 0.459763 0.497297 0.534455 0.571238 0.607646 0.643679 0.679337 0.714619 0.749526 0.783756 0.817006 0.849276 0.880566 0.910876 0.940206 0.968557 0.995927 1.02226 1.04748 1.0716 1.09462 1.11653 1.13734 1.15704 1.17564 1.19323 1.20989 1.22564 1.24047 1.25437 1.26736 1.27943 1.29057 1.30093 1.31063 1.31967 1.32805 1.33577 1.34283 1.34924 1.35498 1.36016 1.36484 1.36904 1.37275 1.37597 1.3787 1.38094 1.3827 1.38396 1.38473 1.38501 1.3848 1.38409 1.38289 1.38119 1.379 1.37622 1.37275 1.3686 1.36375 1.35821 1.35199 1.34507 1.33747 1.32901 1.31955 1.30906 1.29756 1.28505 1.27153 1.25699 1.24144 1.22473 1.20673 1.18744 1.16685 1.14498 1.12181 1.09735 1.07159 1.04457 1.01631 0.986809 0.956067 0.924085 0.890862 0.856399 0.820695 0.784071 0.746844 0.709016 0.670587 0.631556 0.591923 0.551688 0.510852 0.469581 0.42804 0.386231 0.344153 0.301806 0.25919 0.216306 0.173152 0.13257 0.097398 0.0676375 0.043288 0.0243495 0.010822 0.0027055 0 0 0.00254287 0.0101715 0.0228858 0.0406859 0.0635718 0.0915434 0.124601 0.162744 0.203364 0.243854 0.284212 0.324439 0.364535 0.404501 0.444335 0.484038 0.52347 0.56249 0.601099 0.639296 0.677082 0.714457 0.75142 0.787971 0.823795 0.858575 0.89231 0.925002 0.956649 0.987252 1.01681 1.04533 1.07274 1.09898 1.12406 1.14798 1.17073 1.19232 1.21274 1.232 1.2502 1.26743 1.2837 1.29901 1.31336 1.32675 1.33917 1.35064 1.36128 1.37124 1.38053 1.38913 1.39705 1.40429 1.41085 1.41673 1.42202 1.42681 1.4311 1.43489 1.43818 1.44098 1.44327 1.44507 1.44636 1.44716 1.44744 1.44723 1.44651 1.44529 1.44356 1.44134 1.4385 1.43496 1.4307 1.42574 1.42006 1.41368 1.40659 1.39878 1.3901 1.38036 1.36956 1.35771 1.3448 1.33084 1.31582 1.29974 1.28246 1.26382 1.24383 1.22247 1.19976 1.17569 1.15026 1.12348 1.09536 1.06592 1.03517 1.00311 0.969729 0.935035 0.899026 0.861703 0.823399 0.784445 0.744842 0.704591 0.66369 0.622141 0.579943 0.537096 0.493775 0.450158 0.406243 0.36203 0.31752 0.272712 0.227607 0.182205 0.139501 0.10249 0.0711737 0.0455512 0.0256225 0.0113878 0.00284695 0 0 0.00267178 0.0106871 0.024046 0.0427485 0.0667945 0.0961841 0.130917 0.170994 0.213666 0.256186 0.298553 0.340768 0.38283 0.42474 0.466497 0.508102 0.549406 0.59026 0.630665 0.67062 0.710125 0.749181 0.787787 0.825944 0.863321 0.899589 0.934747 0.968796 1.00174 1.03356 1.06429 1.0939 1.12234 1.14956 1.17555 1.20032 1.22387 1.24618 1.26728 1.28715 1.3059 1.32366 1.34041 1.35616 1.37091 1.38466 1.3974 1.40915 1.42004 1.43023 1.43972 1.44852 1.45661 1.464 1.47068 1.47667 1.48206 1.48693 1.4913 1.49516 1.49852 1.50136 1.5037 1.50553 1.50685 1.50766 1.50796 1.50775 1.50702 1.50579 1.50404 1.50178 1.49891 1.4953 1.49097 1.48591 1.48012 1.4736 1.46635 1.45838 1.44949 1.43951 1.42843 1.41626 1.40299 1.38863 1.37318 1.35662 1.33881 1.31958 1.29893 1.27685 1.25335 1.22843 1.20209 1.17432 1.14516 1.1146 1.08265 1.04931 1.01458 0.978467 0.940961 0.902066 0.862128 0.821491 0.780157 0.738125 0.695395 0.651968 0.607842 0.563019 0.517684 0.47202 0.42603 0.379712 0.333066 0.286094 0.238793 0.191166 0.146361 0.107531 0.0746741 0.0477914 0.0268827 0.0119479 0.00298696 0 0 0.0027987 0.0111948 0.0251883 0.0447791 0.0699674 0.100753 0.137136 0.179117 0.223808 0.268325 0.312666 0.356832 0.400823 0.444639 0.48828 0.531745 0.574879 0.617523 0.659678 0.701344 0.74252 0.783208 0.823406 0.863115 0.901992 0.939693 0.976219 1.01157 1.04575 1.07875 1.11057 1.14122 1.17064 1.19878 1.22563 1.2512 1.27548 1.29848 1.32019 1.34062 1.35988 1.37811 1.3953 1.41144 1.42655 1.44062 1.45364 1.46563 1.47674 1.48713 1.4968 1.50575 1.51398 1.52149 1.52829 1.53436 1.53982 1.54476 1.54919 1.55311 1.55651 1.5594 1.56177 1.56363 1.56497 1.56579 1.5661 1.56589 1.56517 1.56392 1.56216 1.55989 1.55698 1.55333 1.54893 1.54379 1.53791 1.53128 1.5239 1.51578 1.50673 1.49654 1.48522 1.47276 1.45917 1.44446 1.4286 1.41162 1.39333 1.37355 1.35229 1.32954 1.30531 1.27959 1.25239 1.2237 1.19355 1.16192 1.12883 1.09428 1.05827 1.02079 0.981845 0.941438 0.899925 0.857664 0.814656 0.770899 0.726395 0.681144 0.635144 0.588396 0.541096 0.493437 0.445419 0.397043 0.348309 0.299216 0.249765 0.199956 0.153091 0.112475 0.0781076 0.0499889 0.0281187 0.0124972 0.0031243 0 0 0.00292248 0.0116899 0.0263023 0.0467596 0.0730619 0.105209 0.143201 0.187039 0.233699 0.28016 0.326423 0.372487 0.418352 0.464019 0.509486 0.554755 0.59966 0.644035 0.68788 0.731194 0.773979 0.816234 0.857959 0.899154 0.939464 0.978533 1.01636 1.05295 1.08829 1.1224 1.15527 1.18689 1.21722 1.24621 1.27386 1.30016 1.32512 1.34874 1.37102 1.39195 1.41168 1.43033 1.4479 1.4644 1.47982 1.49416 1.50