<?xml version="1.0"?> 
<VTKFile type="StructuredGrid" version="0.1"> 
<StructuredGrid WholeExtent="0 128 0 128 0 0"> 
<Piece Extent="0 128 0 128 0 0"> 
<PointData>
<DataArray type="Float32" Name="u" format="ascii" NumberOfComponents="1"> 
0 0 0 0 0 0 0 0 0 0 0 0 0 0 0 0 0 0 0 0 0 0 0 0 0 0 0 0 0 0 0 0 0 0 0 0 0 0 0 0 0 0 0 0 0 0 0 0 0 0 0 0 0 0 0 0 0 0 0 0 0 0 0 0 0 0 0 0 0 0 0 0 0 0 0 0 0 0 0 0 0 0 0 0 0 0 0 0 0 0 0 0 0 0 0 0 0 0 0 0 0 0 0 0 0 0 0 0 0 0 0 0 0 0 0 0 0 0 0 0 0 0 0 0 0 0 0 0 0 0 7.44912e-06 2.97965e-05 6.70421e-05 0.000119186 0.000186228 0.000268168 0.000365007 0.000476744 0.000596171 0.00071608 0.00083647 0.000957343 0.0010787 0.00120053 0.00132285 0.00144565 0.00156856 0.0016912 0.00181357 0.00193567 0.00205751 0.00217907 0.00230037 0.0024214 0.00254111 0.00265845 0.00277341 0.002886 0.00299622 0.00310407 0.00320954 0.00331265 0.00341292 0.0035099 0.0036036 0.00369402 0.00378115 0.00386499 0.00394555 0.00402282 0.00409683 0.0041676 0.00423514 0.00429943 0.00436049 0.00441831 0.00447289 0.00452423 0.00457256 0.00461813 0.00466093 0.00470096 0.00473822 0.00477272 0.00480444 0.0048334 0.00485977 0.00488373 0.00490529 0.00492445 0.0049412 0.00495555 0.00496749 0.00497702 0.00498411 0.00498873 0.00499086 0.00499051 0.00498769 0.00498238 0.00497459 0.00496432 0.00495129 0.0049352 0.00491605 0.00489385 0.00486859 0.00484027 0.0048089 0.00477448 0.00473659 0.00469483 0.00464921 0.00459971 0.00454635 0.00448912 0.00442803 0.00436306 0.00429401 0.00422064 0.00414297 0.00406099 0.00397469 0.00388409 0.00378918 0.00368996 0.00358679 0.00348002 0.00336966 0.00325571 0.00313816 0.00301701 0.00289227 0.00276394 0.00263321 0.00250127 0.00236812 0.00223377 0.00209822 0.00196146 0.00182349 0.00168432 0.00154449 0.00140455 0.0012645 0.00112435 0.000984078 0.000843699 0.000703211 0.000562613 0.00043075 0.00031647 0.000219771 0.000140653 7.91174e-05 3.51633e-05 8.79083e-06 0 0 2.97965e-05 0.000119186 0.000268168 0.000476744 0.000744912 0.00107267 0.00146003 0.00190698 0.00238468 0.00286432 0.00334588 0.00382937 0.00431479 0.00480213 0.00529141 0.00578261 0.00627424 0.00676479 0.00725427 0.00774268 0.00823002 0.00871629 0.00920148 0.0096856 0.0101644 0.0106338 0.0110937 0.011544 0.0119849 0.0124163 0.0128382 0.0132506 0.0136517 0.0140396 0.0144144 0.0147761 0.0151246 0.01546 0.0157822 0.0160913 0.0163873 0.0166704 0.0169405 0.0171977 0.017442 0.0176732 0.0178915 0.0180969 0.0182903 0.0184725 0.0186437 0.0188038 0.0189529 0.0190909 0.0192178 0.0193336 0.0194391 0.0195349 0.0196212 0.0196978 0.0197648 0.0198222 0.0198699 0.0199081 0.0199365 0.0199549 0.0199634 0.0199621 0.0199507 0.0199295 0.0198984 0.0198573 0.0198052 0.0197408 0.0196642 0.0195754 0.0194744 0.0193611 0.0192356 0.0190979 0.0189464 0.0187793 0.0185968 0.0183989 0.0181854 0.0179565 0.0177121 0.0174522 0.017176 0.0168826 0.0165719 0.0162439 0.0158988 0.0155364 0.0151567 0.0147598 0.0143472 0.0139201 0.0134786 0.0130228 0.0125526 0.012068 0.0115691 0.0110558 0.0105328 0.0100051 0.00947249 0.00893509 0.00839287 0.00784583 0.00729397 0.00673728 0.00617797 0.00561821 0.00505802 0.00449739 0.00393631 0.0033748 0.00281284 0.00225045 0.001723 0.00126588 0.000879083 0.000562613 0.00031647 0.000140653 3.51633e-05 0 0 6.70421e-05 0.000268168 0.000603379 0.00107267 0.00167605 0.00241352 0.00328506 0.00429069 0.00536554 0.00644472 0.00752823 0.00861609 0.00970828 0.0108048 0.0119057 0.0130109 0.014117 0.0152208 0.0163221 0.017421 0.0185176 0.0196117 0.0207033 0.0217926 0.02287 0.023926 0.0249607 0.025974 0.026966 0.0279366 0.0288859 0.0298138 0.0307163 0.0315891 0.0324324 0.0332462 0.0340303 0.0347849 0.0355099 0.0362054 0.0368715 0.0375084 0.0381162 0.0386949 0.0392444 0.0397648 0.040256 0.040718 0.0411531 0.0415632 0.0419484 0.0423087 0.042644 0.0429545 0.04324 0.0435006 0.0437379 0.0439536 0.0441476 0.04432 0.0444708 0.0445999 0.0447074 0.0447932 0.044857 0.0448985 0.0449177 0.0449146 0.0448892 0.0448414 0.0447713 0.0446789 0.0445616 0.0444168 0.0442445 0.0440446 0.0438173 0.0435625 0.0432801 0.0429703 0.0426293 0.0422535 0.0418429 0.0413974 0.0409172 0.0404021 0.0398522 0.0392675 0.0386461 0.0379858 0.0372867 0.0365489 0.0357723 0.0349568 0.0341026 0.0332097 0.0322811 0.0313202 0.030327 0.0293013 0.0282434 0.0271531 0.0260304 0.0248754 0.0236988 0.0225114 0.0213131 0.020104 0.018884 0.0176531 0.0164114 0.0151589 0.0139004 0.012641 0.0113805 0.0101191 0.0088567 0.0075933 0.0063289 0.00506352 0.00387675 0.00284823 0.00197794 0.00126588 0.000712057 0.00031647 7.91174e-05 0 0 0.000119186 0.000476744 0.00107267 0.00190698 0.00297965 0.00429069 0.00584011 0.0076279 0.00953873 0.0114573 0.0133835 0.0153175 0.0172592 0.0192085 0.0211656 0.0231304 0.0250969 0.0270592 0.0290171 0.0309707 0.0329201 0.0348652 0.0368059 0.0387424 0.0406578 0.0425352 0.0443746 0.0461761 0.0479396 0.0496651 0.0513527 0.0530023 0.0546067 0.0561585 0.0576577 0.0591043 0.0604984 0.0618399 0.0631288 0.0643652 0.0655493 0.0666817 0.0677622 0.0687909 0.0697678 0.0706929 0.0715662 0.0723876 0.073161 0.0738901 0.0745749 0.0752154 0.0758116 0.0763635 0.0768711 0.0773344 0.0777563 0.0781398 0.0784847 0.0787912 0.0790592 0.0792887 0.0794798 0.0796323 0.0797458 0.0798196 0.0798538 0.0798482 0.079803 0.0797181 0.0795935 0.0794292 0.0792206 0.0789632 0.0786568 0.0783016 0.0778974 0.0774444 0.0769425 0.0763916 0.0757854 0.0751173 0.0743873 0.0735954 0.0727416 0.071826 0.0708484 0.069809 0.0687041 0.0675303 0.0662875 0.0649758 0.0635951 0.0621455 0.0606269 0.0590394 0.0573886 0.0556804 0.0539146 0.0520913 0.0502105 0.0482722 0.0462763 0.044223 0.0421313 0.0400203 0.03789 0.0357404 0.0335715 0.0313833 0.0291759 0.0269491 0.0247119 0.0224729 0.0202321 0.0179895 0.0157452 0.0134992 0.0112514 0.00900181 0.00689201 0.00506352 0.00351633 0.00225045 0.00126588 0.000562613 0.000140653 0 0 0.000186228 0.000744912 0.00167605 0.00297965 0.0046557 0.00670421 0.00912518 0.0119186 0.0149043 0.017902 0.0209118 0.0239336 0.0269674 0.0300133 0.0330713 0.0361413 0.039214 0.0422799 0.0453392 0.0483918 0.0514376 0.0544768 0.0575093 0.060535 0.0635278 0.0664612 0.0693353 0.0721501 0.0749056 0.0776018 0.0802386 0.0828161 0.0853229 0.0877476 0.0900901 0.0923505 0.0945287 0.0966248 0.0986387 0.100571 0.102421 0.10419 0.105878 0.107486 0.109012 0.110458 0.111822 0.113106 0.114314 0.115453 0.116523 0.117524 0.118456 0.119318 0.120111 0.120835 0.121494 0.122093 0.122632 0.123111 0.12353 0.123889 0.124187 0.124426 0.124603 0.124718 0.124772 0.124763 0.124692 0.124559 0.124365 0.124108 0.123782 0.12338 0.122901 0.122346 0.121715 0.121007 0.120223 0.119362 0.118415 0.117371 0.11623 0.114993 0.113659 0.112228 0.110701 0.109077 0.10735 0.105516 0.103574 0.101525 0.0993674 0.0971023 0.0947296 0.092249 0.0896697 0.0870006 0.0842415 0.0813926 0.0784539 0.0754253 0.0723068 0.0690985 0.0658301 0.0625317 0.0592031 0.0558443 0.0524555 0.0490364 0.0455873 0.042108 0.0386123 0.0351138 0.0316126 0.0281087 0.0246019 0.0210925 0.0175803 0.0140653 0.0107688 0.00791174 0.00549427 0.00351633 0.00197794 0.000879083 0.000219771 0 0 0.000268168 0.00107267 0.00241352 0.00429069 0.00670421 0.00965406 0.0131403 0.0171628 0.0214621 0.0257789 0.0301129 0.0344643 0.0388331 0.0432192 0.0476227 0.0520435 0.0564681 0.0608831 0.0652885 0.0696842 0.0740702 0.0784466 0.0828133 0.0871704 0.09148 0.0957041 0.0998429 0.103896 0.107864 0.111747 0.115544 0.119255 0.122865 0.126357 0.12973 0.132985 0.136121 0.13914 0.14204 0.144822 0.147486 0.150034 0.152465 0.15478 0.156978 0.159059 0.161024 0.162872 0.164612 0.166253 0.167794 0.169235 0.170576 0.171818 0.17296 0.174002 0.174952 0.175814 0.176591 0.17728 0.177883 0.1784 0.178829 0.179173 0.179428 0.179594 0.179671 0.179658 0.179557 0.179366 0.179085 0.178716 0.178246 0.177667 0.176978 0.176179 0.175269 0.17425 0.173121 0.171881 0.170517 0.169014 0.167371 0.16559 0.163669 0.161608 0.159409 0.15707 0.154584 0.151943 0.149147 0.146196 0.143089 0.139827 0.136411 0.132839 0.129124 0.125281 0.121308 0.117205 0.112974 0.108612 0.104122 0.0995018 0.0947954 0.0900456 0.0852524 0.0804158 0.0755358 0.0706125 0.0656457 0.0606356 0.0556017 0.0505639 0.0455222 0.0404765 0.0354268 0.0303732 0.0253156 0.0202541 0.015507 0.0113929 0.00791174 0.00506352 0.00284823 0.00126588 0.00031647 0 0 0.000365007 0.00146003 0.00328506 0.00584011 0.00912518 0.0131403 0.0178853 0.0233605 0.0292124 0.0350879 0.040987 0.0469098 0.0528562 0.0588261 0.0648197 0.0708369 0.0768594 0.0828687 0.0888649 0.0948479 0.100818 0.106775 0.112718 0.118649 0.124514 0.130264 0.135897 0.141414 0.146815 0.152099 0.157268 0.16232 0.167233 0.171985 0.176577 0.181007 0.185276 0.189385 0.193332 0.197118 0.200745 0.204213 0.207522 0.210672 0.213664 0.216497 0.219171 0.221687 0.224056 0.226288 0.228386 0.230347 0.232173 0.233863 0.235418 0.236837 0.238129 0.239303 0.240359 0.241298 0.242119 0.242822 0.243407 0.243874 0.244222 0.244448 0.244552 0.244535 0.244397 0.244137 0.243755 0.243252 0.242613 0.241825 0.240886 0.239799 0.238561 0.237173 0.235636 0.233949 0.232093 0.230047 0.227811 0.225386 0.222771 0.219967 0.216973 0.21379 0.210406 0.206812 0.203006 0.198988 0.19476 0.190321 0.18567 0.180808 0.175753 0.170521 0.165113 0.15953 0.15377 0.147834 0.141721 0.135433 0.129027 0.122562 0.116038 0.109455 0.102813 0.0961114 0.0893511 0.0825317 0.0756801 0.0688231 0.0619607 0.055093 0.0482198 0.0413413 0.0344573 0.027568 0.0211068 0.015507 0.0107688 0.00689201 0.00387675 0.001723 0.00043075 0 0 0.000476744 0.00190698 0.00429069 0.0076279 0.0119186 0.0171628 0.0233605 0.0305116 0.0381549 0.0458291 0.0535341 0.0612699 0.0690366 0.0768341 0.0846625 0.0925217 0.100388 0.108237 0.116068 0.123883 0.13168 0.139461 0.147224 0.15497 0.162631 0.170141 0.177498 0.184704 0.191758 0.198661 0.205411 0.212009 0.218427 0.224634 0.230631 0.236417 0.241993 0.247359 0.252515 0.257461 0.262197 0.266727 0.271049 0.275164 0.279071 0.282772 0.286265 0.28955 0.292644 0.29556 0.2983 0.300862 0.303246 0.305454 0.307484 0.309338 0.311025 0.312559 0.313939 0.315165 0.316237 0.317155 0.317919 0.318529 0.318983 0.319279 0.319415 0.319393 0.319212 0.318872 0.318374 0.317717 0.316882 0.315853 0.314627 0.313206 0.31159 0.309778 0.30777 0.305567 0.303142 0.300469 0.297549 0.294382 0.290967 0.287304 0.283394 0.279236 0.274816 0.270121 0.26515 0.259903 0.25438 0.248582 0.242508 0.236158 0.229555 0.222721 0.215658 0.208365 0.200842 0.193089 0.185105 0.176892 0.168525 0.160081 0.15156 0.142961 0.134286 0.125533 0.116703 0.107797 0.0988475 0.0898914 0.0809283 0.0719582 0.062981 0.0539968 0.0450055 0.0360072 0.027568 0.0202541 0.0140653 0.00900181 0.00506352 0.00225045 0.000562613 0 0 0.000596141 0.00238456 0.00536526 0.00953825 0.0149035 0.0214611 0.0292109 0.038153 0.0477101 0.0573051 0.0669378 0.0766083 0.0863166 0.0960626 0.105847 0.115668 0.125498 0.135305 0.14509 0.154853 0.164594 0.174312 0.184009 0.193683 0.203251 0.212629 0.221816 0.230813 0.23962 0.248236 0.256662 0.264897 0.272906 0.280651 0.288134 0.295353 0.30231 0.309003 0.315434 0.321601 0.327508 0.333155 0.338544 0.343674 0.348545 0.353158 0.357511 0.361606 0.36546 0.369094 0.372507 0.375699 0.37867 0.38142 0.383949 0.386257 0.388358 0.390268 0.391987 0.393513 0.394848 0.395992 0.396943 0.397703 0.398268 0.398636 0.398806 0.398778 0.398553 0.39813 0.397509 0.396691 0.395652 0.394369 0.392843 0.391073 0.389059 0.386801 0.3843 0.381555 0.378533 0.375203 0.371564 0.367616 0.363358 0.358792 0.353917 0.348734 0.343223 0.337368 0.331168 0.324623 0.317734 0.3105 0.302921 0.294998 0.286759 0.278232 0.269416 0.260313 0.250922 0.241243 0.231276 0.221021 0.210574 0.200029 0.189388 0.178649 0.167813 0.15688 0.14585 0.134723 0.123542 0.112352 0.101153 0.0899433 0.0787244 0.0674958 0.0562577 0.04501 0.0344608 0.0253181 0.017582 0.0112525 0.00632954 0.00281313 0.000703282 0 0 0.000715959 0.00286383 0.00644363 0.0114553 0.017899 0.0257745 0.035082 0.0458213 0.0572983 0.0688184 0.0803818 0.0919883 0.103638 0.115331 0.127067 0.138847 0.150633 0.162391 0.174121 0.185822 0.197494 0.209138 0.220753 0.232339 0.243796 0.255023 0.266021 0.276788 0.287324 0.297631 0.307708 0.317555 0.327129 0.336386 0.345328 0.353953 0.362262 0.370255 0.377932 0.385293 0.39234 0.399078 0.405506 0.411624 0.417432 0.42293 0.428118 0.432996 0.437587 0.441915 0.445979 0.44978 0.453317 0.45659 0.459599 0.462345 0.464845 0.467117 0.469161 0.470977 0.472565 0.473925 0.475056 0.47596 0.476632 0.477069 0.477271 0.477238 0.47697 0.476467 0.475729 0.474756 0.47352 0.471994 0.470177 0.46807 0.465672 0.462984 0.460006 0.456737 0.453138 0.44917 0.444833 0.440126 0.435051 0.429606 0.423792 0.417608 0.411034 0.404046 0.396645 0.388831 0.380603 0.371963 0.362909 0.353442 0.343595 0.333401 0.322861 0.311974 0.300741 0.289161 0.277235 0.264962 0.252457 0.239833 0.227091 0.21423 0.201251 0.188154 0.174938 0.161604 0.148203 0.134789 0.121361 0.107919 0.094464 0.0809947 0.0675116 0.0540148 0.0413551 0.0303833 0.0210995 0.0135037 0.00759583 0.00337593 0.000843982 0 0 0.000836198 0.00334479 0.00752578 0.0133792 0.0209049 0.0301031 0.0409737 0.0535167 0.0669194 0.0803692 0.0938661 0.10741 0.121001 0.134639 0.148325 0.162057 0.175795 0.189496 0.203161 0.216789 0.230381 0.243936 0.257455 0.270938 0.284266 0.297324 0.310111 0.322627 0.334873 0.346847 0.358551 0.369984 0.381096 0.391839 0.402212 0.412216 0.42185 0.431115 0.44001 0.448535 0.456695 0.464495 0.471934 0.479013 0.485731 0.492088 0.498085 0.503722 0.509025 0.514023 0.518716 0.523104 0.527187 0.530964 0.534436 0.537603 0.540486 0.543106 0.545462 0.547556 0.549386 0.550954 0.552258 0.5533 0.554074 0.554578 0.554811 0.554772 0.554463 0.553883 0.553032 0.551911 0.550486 0.548725 0.546629 0.544197 0.541429 0.538326 0.534887 0.531112 0.526955 0.52237 0.517356 0.511914 0.506043 0.499744 0.493017 0.485861 0.47825 0.470157 0.461583 0.452527 0.442989 0.43297 0.42247 0.411488 0.400062 0.38823 0.375992 0.363349 0.350299 0.336844 0.322983 0.308715 0.294175 0.279493 0.26467 0.249706 0.234601 0.219355 0.203967 0.188439 0.17283 0.157202 0.141554 0.125887 0.1102 0.0944933 0.0787672 0.0630216 0.0482509 0.0354497 0.0246178 0.0157554 0.00886241 0.00393885 0.000984713 0 0 0.000956859 0.00382744 0.00861173 0.0153097 0.0239215 0.0344469 0.0468861 0.061239 0.0765734 0.0919574 0.107391 0.122874 0.138406 0.153988 0.169619 0.1853 0.200982 0.216619 0.23221 0.247755 0.263254 0.278708 0.294116 0.309478 0.324661 0.339531 0.354088 0.368333 0.382264 0.395883 0.409189 0.422183 0.434808 0.44701 0.458788 0.470143 0.481074 0.491582 0.501667 0.511328 0.520572 0.529406 0.537829 0.545841 0.553442 0.560633 0.567413 0.573782 0.579773 0.585419 0.590719 0.595672 0.600281 0.604543 0.60846 0.612031 0.61528 0.618233 0.62089 0.62325 0.625313 0.627079 0.628549 0.629723 0.630595 0.631162 0.631424 0.631381 0.631033 0.630379 0.62942 0.628156 0.62655 0.624564 0.622199 0.619454 0.61633 0.612826 0.608943 0.604681 0.599985 0.594803 0.589134 0.582979 0.576337 0.569208 0.561592 0.55349 0.54487 0.5357 0.52598 0.515711 0.504892 0.493523 0.481605 0.469137 0.456161 0.442719 0.428811 0.414437 0.399597 0.384291 0.368519 0.352281 0.335727 0.319008 0.302125 0.285076 0.267862 0.250482 0.232938 0.215229 0.197423 0.179591 0.161731 0.143845 0.125932 0.107992 0.0900245 0.0720304 0.0551483 0.0405171 0.0281369 0.0180076 0.0101293 0.0045019 0.00112547 0 0 0.00107794 0.00431176 0.00970147 0.0172471 0.0269485 0.0388059 0.0528191 0.0689882 0.0862604 0.103583 0.120956 0.138379 0.155852 0.173376 0.19095 0.208574 0.226195 0.24376 0.261268 0.27872 0.296115 0.313453 0.330736 0.347961 0.364981 0.381644 0.397952 0.413904 0.4295 0.44474 0.459624 0.474152 0.488264 0.501898 0.515054 0.527733 0.539934 0.551658 0.562904 0.573672 0.583972 0.593811 0.603189 0.612108 0.620566 0.628564 0.636101 0.643178 0.649833 0.656102 0.661986 0.667484 0.672598 0.677326 0.681669 0.685627 0.689228 0.6925 0.695444 0.698058 0.700344 0.702301 0.703929 0.705228 0.706194 0.706822 0.707112 0.707064 0.706678 0.705954 0.704892 0.703492 0.701712 0.69951 0.696886 0.693841 0.690374 0.686486 0.682175 0.677443 0.672228 0.666469 0.660167 0.65332 0.64593 0.637996 0.629519 0.620497 0.610895 0.600675 0.589838 0.578383 0.566311 0.553621 0.540313 0.526388 0.511891 0.496867 0.481316 0.465238 0.448633 0.431502 0.413843 0.395658 0.377114 0.35838 0.339455 0.320339 0.301033 0.281537 0.26185 0.241973 0.221982 0.201956 0.181893 0.161795 0.14166 0.12149 0.101283 0.0810412 0.0620471 0.0455857 0.0316567 0.0202603 0.0113964 0.00506507 0.00126627 0 0 0.00119944 0.00479778 0.010795 0.0191911 0.0299861 0.04318 0.0587728 0.0767644 0.0959804 0.115246 0.134561 0.153926 0.17334 0.192804 0.212317 0.231881 0.251434 0.270919 0.290335 0.309683 0.328962 0.348172 0.367314 0.386387 0.405225 0.423664 0.441702 0.45934 0.476578 0.493417 0.509855 0.525892 0.541464 0.556504 0.571012 0.584987 0.59843 0.611341 0.62372 0.635567 0.646893 0.65771 0.668017 0.677814 0.687102 0.695881 0.70415 0.711909 0.719202 0.726072 0.732518 0.73854 0.744139 0.749314 0.754065 0.758393 0.76233 0.765907 0.769124 0.771982 0.77448 0.776619 0.778398 0.779817 0.780872 0.781558 0.781874 0.781822 0.7814 0.780608 0.779448 0.777918 0.775972 0.773563 0.770692 0.767359 0.763563 0.759304 0.754583 0.749399 0.743683 0.737368 0.730454 0.722939 0.714824 0.70611 0.696795 0.686881 0.676324 0.665082 0.653155 0.640543 0.627246 0.613263 0.598595 0.583242 0.567252 0.550674 0.533508 0.515752 0.497409 0.478477 0.458956 0.438847 0.418336 0.397607 0.376661 0.355497 0.334117 0.312519 0.290704 0.268671 0.246507 0.224297 0.202039 0.179735 0.157385 0.134988 0.112544 0.0900539 0.0689475 0.0506553 0.0351773 0.0225135 0.0126638 0.00562837 0.00140709 0 0 0.00132137 0.00528548 0.0118923 0.0211419 0.0330342 0.0475693 0.0647471 0.0845676 0.105733 0.126946 0.148207 0.169514 0.190869 0.212272 0.233722 0.255219 0.276699 0.298097 0.319412 0.340645 0.361796 0.382864 0.40385 0.424754 0.445394 0.465589 0.485338 0.504642 0.523501 0.541914 0.559881 0.577403 0.594409 0.610828 0.62666 0.641904 0.656562 0.670633 0.684116 0.697013 0.709337 0.721103 0.73231 0.74296 0.753051 0.762584 0.771559 0.779976 0.787883 0.795329 0.802314 0.808839 0.814903 0.820506 0.825648 0.830329 0.834585 0.838453 0.841931 0.845021 0.847721 0.850033 0.851955 0.853489 0.854629 0.855369 0.855711 0.855653 0.855197 0.854342 0.853087 0.851434 0.84933 0.846724 0.843616 0.840007 0.835895 0.831281 0.826165 0.820548 0.814352 0.807501 0.799995 0.791834 0.783019 0.773548 0.763423 0.752643 0.741159 0.728922 0.715933 0.702191 0.687697 0.67245 0.656451 0.639699 0.622246 0.604141 0.585386 0.56598 0.545924 0.525216 0.503858 0.481849 0.459392 0.43669 0.413742 0.390549 0.367111 0.343427 0.319499 0.295324 0.270998 0.246613 0.22217 0.197667 0.173106 0.148485 0.123806 0.0990687 0.0758495 0.0557261 0.0386987 0.0247672 0.0139315 0.00619179 0.00154795 0 0 0.00144372 0.00577486 0.0129934 0.0230995 0.0360929 0.0519738 0.0707421 0.0923978 0.115519 0.138684 0.161893 0.185145 0.20844 0.23178 0.255163 0.27859 0.30199 0.325292 0.348497 0.371605 0.394616 0.41753 0.440346 0.463064 0.485489 0.507421 0.528861 0.54981 0.570266 0.590231 0.609704 0.628684 0.647098 0.664869 0.681999 0.698485 0.71433 0.729532 0.744092 0.75801 0.771303 0.78399 0.79607 0.807545 0.818412 0.828674 0.838328 0.847377 0.855874 0.863874 0.871376 0.878382 0.88489 0.890902 0.896417 0.901434 0.905995 0.910138 0.913865 0.917174 0.920067 0.922543 0.924602 0.926244 0.927464 0.928256 0.928622 0.92856 0.928071 0.927155 0.925811 0.924041 0.921786 0.918992 0.915658 0.911784 0.907371 0.902417 0.896924 0.89089 0.884233 0.876866 0.868791 0.860006 0.850513 0.840312 0.829401 0.817781 0.805397 0.792194 0.778171 0.763328 0.747665 0.731183 0.713881 0.695759 0.67687 0.657268 0.636951 0.615921 0.594177 0.57172 0.548548 0.524663 0.500283 0.475628 0.450699 0.425495 0.400016 0.374263 0.348235 0.321932 0.295455 0.268906 0.242284 0.21559 0.188823 0.161983 0.135071 0.108085 0.0827529 0.0607981 0.0422209 0.0270214 0.0151995 0.00675534 0.00168884 0 0 0.00156609 0.00626436 0.0140948 0.0250574 0.0391523 0.0563793 0.0767384 0.10023 0.125306 0.150422 0.175575 0.200767 0.225997 0.251266 0.276573 0.301919 0.327226 0.35242 0.3775 0.402466 0.427318 0.452056 0.47668 0.501189 0.525373 0.549016 0.57212 0.594684 0.616708 0.638193 0.659138 0.679543 0.69933 0.718419 0.73681 0.754503 0.771498 0.787796 0.803396 0.818298 0.832524 0.846096 0.859014 0.871279 0.882889 0.893846 0.904149 0.913798 0.922854 0.931378 0.939371 0.946831 0.95376 0.960157 0.966022 0.971355 0.976201 0.980603 0.984563 0.988079 0.991152 0.993781 0.995968 0.997711 0.999006 0.999848 1.00024 1.00017 0.999651 0.998678 0.997252 0.995372 0.992977 0.990006 0.98646 0.982337 0.977639 0.972364 0.966514 0.960087 0.952992 0.945135 0.936517 0.927138 0.916997 0.906095 0.894431 0.882006 0.868757 0.854622 0.8396 0.823692 0.806897 0.789216 0.770649 0.751195 0.730909 0.709845 0.688004 0.665385 0.641988 0.617813 0.592861 0.567132 0.54086 0.514283 0.4874 0.460212 0.432717 0.404917 0.376812 0.348401 0.319792 0.291096 0.262312 0.23344 0.20448 0.175432 0.146296 0.117072 0.0896332 0.065853 0.0457312 0.029268 0.0164632 0.007317 0.00182925 0 0 0.0016881 0.0067524 0.0151929 0.0270096 0.0422025 0.0607716 0.0827169 0.108038 0.135064 0.162121 0.18921 0.216331 0.243484 0.270668 0.297884 0.325132 0.35233 0.379395 0.406327 0.433127 0.459795 0.48633 0.512732 0.539002 0.564911 0.590231 0.614963 0.639105 0.662659 0.685624 0.708 0.729788 0.750904 0.771266 0.790875 0.809731 0.827833 0.845181 0.861776 0.877617 0.892732 0.907146 0.92086 0.933873 0.946186 0.957799 0.968711 0.978923 0.988502 0.997517 1.00597 1.01385 1.02117 1.02792 1.03411 1.03974 1.04485 1.04949 1.05366 1.05737 1.06061 1.06338 1.06568 1.06752 1.06889 1.06977 1.07018 1.07011 1.06957 1.06854 1.06704 1.06506 1.06254 1.05941 1.05566 1.05131 1.04635 1.04077 1.03459 1.0278 1.0203 1.01198 1.00285 0.992911 0.982158 0.970593 0.958216 0.945026 0.930954 0.91593 0.899953 0.883024 0.865142 0.846307 0.82652 0.805781 0.784144 0.761665 0.738343 0.714179 0.689173 0.663324 0.636633 0.6091 0.580976 0.552514 0.523714 0.494575 0.465098 0.435283 0.405129 0.374637 0.343923 0.313105 0.282182 0.251154 0.220022 0.188784 0.157443 0.125996 0.0964656 0.0708727 0.0492172 0.031499 0.0177182 0.00787475 0.00196869 0 0 0.00180975 0.00723899 0.0162877 0.028956 0.0452437 0.0651509 0.0886776 0.115824 0.144792 0.173783 0.202798 0.231837 0.2609 0.289987 0.319097 0.348231 0.3773 0.406216 0.43498 0.46359 0.492048 0.520352 0.548503 0.576502 0.604104 0.631067 0.657391 0.683075 0.708119 0.732525 0.75629 0.779417 0.801819 0.823411 0.844195 0.864168 0.883333 0.901687 0.919233 0.935969 0.951927 0.96714 0.981606 0.995327 1.0083 1.02053 1.03201 1.04275 1.05282 1.06229 1.07116 1.07944 1.08712 1.09421 1.10069 1.10659 1.11194 1.1168 1.12117 1.12505 1.12844 1.13134 1.13375 1.13567 1.1371 1.13803 1.13846 1.13839 1.13782 1.13675 1.13518 1.13311 1.13047 1.12719 1.12327 1.1187 1.11349 1.10765 1.10116 1.09403 1.08614 1.0774 1.06779 1.05732 1.046 1.03381 1.02075 1.00684 0.991989 0.976119 0.95923 0.941323 0.922399 0.902456 0.881496 0.859517 0.836576 0.812726 0.787969 0.762304 0.735732 0.708251 0.679863 0.650567 0.62063 0.590321 0.55964 0.528585 0.497158 0.465358 0.433186 0.400641 0.367848 0.334932 0.301893 0.268732 0.235448 0.20204 0.16851 0.134857 0.10325 0.0758573 0.0526787 0.0337143 0.0189643 0.00842859 0.00210715 0 0 0.00193103 0.00772411 0.0173793 0.0308965 0.0482757 0.069517 0.0946204 0.123586 0.154489 0.185407 0.216339 0.247286 0.278246 0.309221 0.340211 0.371214 0.402137 0.432885 0.463457 0.493854 0.524076 0.554122 0.583993 0.613689 0.642952 0.671523 0.699403 0.726591 0.753088 0.778894 0.804008 0.828431 0.852076 0.874855 0.896768 0.917816 0.937998 0.957315 0.975766 0.993352 1.01011 1.02608 1.04125 1.05564 1.06924 1.08204 1.09406 1.10528 1.1158 1.12569 1.13496 1.1436 1.15161 1.159 1.16576 1.1719 1.17746 1.18252 1.18707 1.19111 1.19464 1.19766 1.20017 1.20217 1.20366 1.20462 1.20507 1.205 1.20441 1.2033 1.20167 1.19952 1.19677 1.19336 1.18927 1.18451 1.17908 1.17298 1.16621 1.15877 1.15053 1.14139 1.13134 1.12038 1.10851 1.09573 1.08205 1.06745 1.05186 1.03519 1.01743 0.998591 0.978668 0.957663 0.935575 0.912404 0.888204 0.863031 0.836883 0.809761 0.781665 0.752595 0.722551 0.691533 0.659823 0.627705 0.595178 0.562242 0.528898 0.495145 0.460983 0.426412 0.391566 0.356578 0.321447 0.286173 0.250758 0.2152 0.179499 0.143656 0.109987 0.0808067 0.0561157 0.0359141 0.0202017 0.00897852 0.00224463 0 0 0.00205195 0.00820778 0.0184675 0.0328311 0.0512987 0.0738701 0.100545 0.131325 0.164157 0.196994 0.229833 0.262676 0.295523 0.328372 0.361225 0.394082 0.42684 0.459399 0.491759 0.523919 0.55588 0.587641 0.619202 0.650564 0.681454 0.7116 0.741 0.769656 0.797567 0.824733 0.851154 0.876831 0.901674 0.925596 0.948595 0.970673 0.991829 1.01206 1.03138 1.04977 1.06728 1.08396 1.0998 1.11482 1.12899 1.14234 1.15485 1.16652 1.17745 1.18773 1.19736 1.20633 1.21464 1.22231 1.22931 1.23567 1.24143 1.24667 1.25138 1.25556 1.25921 1.26234 1.26494 1.26701 1.26855 1.26955 1.27001 1.26994 1.26933 1.26819 1.2665 1.26428 1.26145 1.25791 1.25368 1.24874 1.24311 1.23678 1.22975 1.22202 1.21347 1.20396 1.1935 1.18208 1.1697 1.15638 1.14209 1.12686 1.11057 1.09314 1.07455 1.05483 1.03395 1.01193 0.988757 0.96444 0.939029 0.912577 0.885083 0.856549 0.826973 0.796356 0.764698 0.731998 0.698555 0.664665 0.630329 0.595546 0.560317 0.524642 0.48852 0.451952 0.415078 0.378042 0.340842 0.303479 0.265952 0.228262 0.190409 0.152393 0.116676 0.0857209 0.0595284 0.0380982 0.0214302 0.00952455 0.00238114 0 0 0.0021725 0.00869 0.0195525 0.03476 0.0543125 0.07821 0.106452 0.13904 0.173795 0.208542 0.24328 0.278009 0.312728 0.347439 0.382142 0.416835 0.451411 0.485761 0.519886 0.553785 0.587459 0.620907 0.65413 0.687127 0.719611 0.751296 0.782182 0.812268 0.841554 0.870041 0.897728 0.924616 0.950614 0.975635 0.999677 1.02274 1.04483 1.06593 1.08606 1.10521 1.12344 1.14078 1.15725 1.17285 1.18757 1.20141 1.21437 1.22646 1.23777 1.2484 1.25835 1.26762 1.27621 1.28412 1.29135 1.2979 1.30384 1.30924 1.31409 1.3184 1.32216 1.32538 1.32806 1.33019 1.33177 1.33281 1.33329 1.33322 1.33259 1.33142 1.32969 1.32741 1.32449 1.32085 1.31648 1.31139 1.30558 1.29904 1.29178 1.28379 1.27495 1.2651 1.25426 1.24241 1.22957 1.21573 1.2009 1.18506 1.16812 1.14997 1.1306 1.11003 1.08824 1.06525 1.04104 1.01563 0.989051 0.961366 0.932571 0.902668 0.871655 0.839533 0.806302 0.771962 0.736825 0.701202 0.665092 0.628497 0.591417 0.55385 0.515797 0.477259 0.438385 0.399325 0.360079 0.320648 0.281031 0.241229 0.20124 0.161067 0.123317 0.0906 0.0629166 0.0402667 0.02265 0.0100667 0.00251667 0 0 0.00229269 0.00917075 0.0206342 0.036683 0.0573172 0.0825368 0.112342 0.146732 0.183404 0.220053 0.256679 0.293283 0.329864 0.366423 0.402959 0.439472 0.475847 0.511969 0.547837 0.583452 0.618814 0.653921 0.688776 0.723377 0.757423 0.790613 0.822948 0.854427 0.88505 0.914818 0.943729 0.971785 0.998896 1.02497 1.05001 1.07402 1.09699 1.11892 1.13983 1.15969 1.17858 1.19655 1.21361 1.22974 1.24496 1.25926 1.27264 1.28511 1.29676 1.30771 1.31795 1.32749 1.33633 1.34446 1.35188 1.3586 1.36469 1.37023 1.3752 1.37962 1.38348 1.38678 1.38953 1.39171 1.39334 1.3944 1.3949 1.39483 1.39419 1.39299 1.39122 1.38889 1.38591 1.38217 1.37769 1.37246 1.36649 1.35977 1.3523 1.34408 1.33497 1.32482 1.31363 1.30139 1.28812 1.27381 1.25845 1.24205 1.2245 1.20567 1.18557 1.1642 1.14155 1.11763 1.09243 1.06596 1.03827 1.0094 0.979346 0.948117 0.915711 0.882127 0.847365 0.811425 0.774633 0.737314 0.699468 0.661095 0.622195 0.582768 0.542814 0.502333 0.461484 0.420426 0.379158 0.337681 0.295994 0.254098 0.211993 0.169678 0.12991 0.0954439 0.0662805 0.0424195 0.023861 0.0106049 0.00265122 0 0 0.00241251 0.00965005 0.0217126 0.0386002 0.0603128 0.0868504 0.118213 0.154401 0.192982 0.231526 0.270031 0.3085 0.34693 0.385322 0.423677 0.461994 0.500151 0.538024 0.575614 0.612921 0.649944 0.686684 0.723141 0.759314 0.794889 0.829551 0.863299 0.896134 0.928056 0.959064 0.989159 1.01834 1.04652 1.07361 1.0996 1.12451 1.14832 1.17104 1.19267 1.2132 1.23271 1.25127 1.26886 1.2855 1.30117 1.31589 1.32965 1.34246 1.35442 1.36565 1.37615 1.38593 1.39498 1.4033 1.4109 1.41777 1.42398 1.42964 1.43472 1.43923 1.44317 1.44654 1.44935 1.45158 1.45324 1.45433 1.45484 1.45477 1.45412 1.4529 1.45111 1.44874 1.44569 1.44188 1.4373 1.43195 1.42584 1.41895 1.4113 1.40288 1.39354 1.38311 1.3716 1.35901 1.34534 1.33059 1.31476 1.29785 1.27972 1.26026 1.23947 1.21734 1.19387 1.16907 1.14293 1.11545 1.08668 1.05667 1.02541 0.992898 0.959142 0.924138 0.887886 0.850388 0.81198 0.773003 0.733457 0.69334 0.652654 0.611397 0.569572 0.527176 0.484378 0.441346 0.398079 0.354578 0.310842 0.266871 0.222666 0.178227 0.136455 0.100253 0.0696199 0.0445567 0.0250632 0.0111392 0.00278479 0 0 0.00253092 0.0101237 0.0227783 0.0404947 0.0632729 0.091113 0.124015 0.161979 0.202446 0.24286 0.283219 0.323524 0.363775 0.403972 0.444115 0.484204 0.524108 0.563697 0.602972 0.641932 0.680577 0.718908 0.756923 0.794624 0.831682 0.867767 0.902881 0.937024 0.970194 1.00239 1.03362 1.06387 1.09307 1.12112 1.14802 1.17377 1.19837 1.22182 1.24413 1.26528 1.28537 1.30446 1.32255 1.33964 1.35573 1.37083 1.38493 1.39803 1.41026 1.42174 1.43247 1.44245 1.45169 1.46018 1.46792 1.47491 1.48123 1.48698 1.49215 1.49674 1.50075 1.50418 1.50703 1.50931 1.511 1.5121 1.51262 1.51256 1.51191 1.51068 1.50886 1.50646 1.50337 1.49949 1.49483 1.48938 1.48314 1.47612 1.46831 1.45972 1.45017 1.4395 1.42771 1.4148 1.40077 1.38562 1.36935 1.35197 1.33332 1.31327 1.29183 1.26899 1.24476 1.21912 1.19209 1.16367 1.13388 1.10278 1.07036 1.03662 1.00157 0.965201 0.927514 0.88851 0.848541 0.807958 0.766761 0.72495 0.682525 0.639487 0.595834 0.551568 0.506864 0.4619 0.416675 0.371189 0.325442 0.279435 0.233166 0.186638 0.142894 0.104984 0.0729053 0.0466594 0.0262459 0.0116648 0.00291621 0 0 0.00264685 0.0105874 0.0238216 0.0423495 0.0661712 0.0952865 0.129695 0.169398 0.211712 0.253954 0.296125 0.338223 0.380251 0.422206 0.46409 0.505903 0.547505 0.58876 0.629668 0.670228 0.71044 0.750305 0.789822 0.828992 0.867472 0.904922 0.941342 0.976731 1.01109 1.04442 1.07672 1.10798 1.13813 1.