<?xml version="1.0"?> 
<VTKFile type="StructuredGrid" version="0.1"> 
<StructuredGrid WholeExtent="0 128 0 128 0 0"> 
<Piece Extent="0 128 0 128 0 0"> 
<PointData>
<DataArray type="Float32" Name="u" format="ascii" NumberOfComponents="1"> 
0 0 0 0 0 0 0 0 0 0 0 0 0 0 0 0 0 0 0 0 0 0 0 0 0 0 0 0 0 0 0 0 0 0 0 0 0 0 0 0 0 0 0 0 0 0 0 0 0 0 0 0 0 0 0 0 0 0 0 0 0 0 0 0 0 0 0 0 0 0 0 0 0 0 0 0 0 0 0 0 0 0 0 0 0 0 0 0 0 0 0 0 0 0 0 0 0 0 0 0 0 0 0 0 0 0 0 0 0 0 0 0 0 0 0 0 0 0 0 0 0 0 0 0 0 0 0 0 0 0 1.15397e-06 4.61589e-06 1.03857e-05 1.84635e-05 2.88493e-05 4.1543e-05 5.65446e-05 7.38542e-05 9.26335e-05 0.000112044 0.000132087 0.000152761 0.000174067 0.000196004 0.000218573 0.000241773 0.000265658 0.000290279 0.000315636 0.00034173 0.000368561 0.000396128 0.000424432 0.000453472 0.000483094 0.000513143 0.000543619 0.000574522 0.000605852 0.00063761 0.000669794 0.000702406 0.000735226 0.000768038 0.00080084 0.000833633 0.000866416 0.00089919 0.000931955 0.000964711 0.000997204 0.00102918 0.00106065 0.00109159 0.00112203 0.00115194 0.00118135 0.00121023 0.00123835 0.00126546 0.00129156 0.00131664 0.00134071 0.00136376 0.00138581 0.00140683 0.00142665 0.00144504 0.00146201 0.00147757 0.0014917 0.00150442 0.00151571 0.00152559 0.00153393 0.00154061 0.00154564 0.00154901 0.00155072 0.00155077 0.00154917 0.00154591 0.00154098 0.00153439 0.00152612 0.00151617 0.00150456 0.00149127 0.0014763 0.00145967 0.00144147 0.00142184 0.00140077 0.00137825 0.00135429 0.00132889 0.00130205 0.00127377 0.00124428 0.00121382 0.00118238 0.00114996 0.00111658 0.00108221 0.00104687 0.00101056 0.000973592 0.000936293 0.000898662 0.0008607 0.000822406 0.00078378 0.000744823 0.000705533 0.000666272 0.000627397 0.000588908 0.000550807 0.000513092 0.000475763 0.000438822 0.000402267 0.000366172 0.000330609 0.000295578 0.00026108 0.000227114 0.000193681 0.00016078 0.000128411 9.83144e-05 7.2231e-05 5.01604e-05 3.21027e-05 1.80578e-05 8.02567e-06 2.00642e-06 0 0 4.61589e-06 1.84635e-05 4.1543e-05 7.38542e-05 0.000115397 0.000166172 0.000226178 0.000295417 0.000370534 0.000448178 0.000528348 0.000611044 0.000696267 0.000784016 0.000874292 0.000967093 0.00106263 0.00116112 0.00126255 0.00136692 0.00147424 0.00158451 0.00169773 0.00181389 0.00193237 0.00205257 0.00217447 0.00229809 0.00242341 0.00255044 0.00267918 0.00280962 0.00294091 0.00307215 0.00320336 0.00333453 0.00346566 0.00359676 0.00372782 0.00385884 0.00398882 0.00411673 0.00424258 0.00436637 0.0044881 0.00460777 0.00472538 0.00484093 0.00495342 0.00506186 0.00516624 0.00526656 0.00536284 0.00545506 0.00554322 0.00562733 0.00570658 0.00578015 0.00584804 0.00591026 0.0059668 0.00601766 0.00606285 0.00610236 0.00613572 0.00616245 0.00618255 0.00619602 0.00620287 0.00620309 0.00619668 0.00618364 0.00616394 0.00613755 0.00610446 0.00606469 0.00601822 0.00596506 0.00590521 0.00583867 0.0057659 0.00568736 0.00560306 0.005513 0.00541717 0.00531557 0.00520821 0.00509509 0.00497713 0.00485527 0.00472951 0.00459986 0.0044663 0.00432885 0.00418749 0.00404224 0.00389437 0.00374517 0.00359465 0.0034428 0.00328962 0.00313512 0.00297929 0.00282213 0.00266509 0.00250959 0.00235563 0.00220323 0.00205237 0.00190305 0.00175529 0.00160907 0.00146469 0.00132244 0.00118231 0.00104432 0.000908457 0.000774723 0.000643118 0.000513643 0.000393258 0.000288924 0.000200642 0.000128411 7.2231e-05 3.21027e-05 8.02567e-06 0 0 1.03857e-05 4.1543e-05 9.34717e-05 0.000166172 0.000259644 0.000373887 0.000508902 0.000664688 0.000833702 0.0010084 0.00118878 0.00137485 0.0015666 0.00176404 0.00196716 0.00217596 0.00239092 0.00261251 0.00284073 0.00307557 0.00331705 0.00356515 0.00381988 0.00408124 0.00434784 0.00461828 0.00489257 0.0051707 0.00545267 0.00573849 0.00602815 0.00632165 0.00661704 0.00691234 0.00720756 0.00750269 0.00779774 0.00809271 0.0083876 0.0086824 0.00897484 0.00926264 0.00954581 0.00982434 0.0100982 0.0103675 0.0106321 0.0108921 0.0111452 0.0113892 0.011624 0.0118498 0.0120664 0.0122739 0.0124723 0.0126615 0.0128398 0.0130053 0.0131581 0.0132981 0.0134253 0.0135397 0.0136414 0.0137303 0.0138054 0.0138655 0.0139107 0.0139411 0.0139565 0.0139569 0.0139425 0.0139132 0.0138689 0.0138095 0.013735 0.0136455 0.013541 0.0134214 0.0132867 0.013137 0.0129733 0.0127966 0.0126069 0.0124042 0.0121886 0.01196 0.0117185 0.0114639 0.0111985 0.0109244 0.0106414 0.0103497 0.0100492 0.0097399 0.00942185 0.00909503 0.00876233 0.00842664 0.00808796 0.0077463 0.00740165 0.00705402 0.0067034 0.0063498 0.00599644 0.00564657 0.00530017 0.00495726 0.00461782 0.00428187 0.0039494 0.0036204 0.00329555 0.00297548 0.00266021 0.00234972 0.00204403 0.00174313 0.00144702 0.0011557 0.00088483 0.000650079 0.000451444 0.000288924 0.00016252 7.2231e-05 1.80578e-05 0 0 1.84635e-05 7.38542e-05 0.000166172 0.000295417 0.000461589 0.000664688 0.000904714 0.00118167 0.00148214 0.00179271 0.00211339 0.00244418 0.00278507 0.00313606 0.00349717 0.00386837 0.00425053 0.00464446 0.00505018 0.00546769 0.00589697 0.00633805 0.0067909 0.00725555 0.0077295 0.00821028 0.0086979 0.00919235 0.00969364 0.0102018 0.0107167 0.0112385 0.0117636 0.0122886 0.0128134 0.0133381 0.0138627 0.014387 0.0149113 0.0154354 0.0159553 0.0164669 0.0169703 0.0174655 0.0179524 0.0184311 0.0189015 0.0193637 0.0198137 0.0202474 0.0206649 0.0210663 0.0214514 0.0218202 0.0221729 0.0225093 0.0228263 0.0231206 0.0233922 0.023641 0.0238672 0.0240707 0.0242514 0.0244094 0.0245429 0.0246498 0.0247302 0.0247841 0.0248115 0.0248123 0.0247867 0.0247345 0.0246557 0.0245502 0.0244178 0.0242587 0.0240729 0.0238602 0.0236208 0.0233547 0.0230636 0.0227494 0.0224122 0.022052 0.0216687 0.0212623 0.0208328 0.0203803 0.0199085 0.0194211 0.0189181 0.0183994 0.0178652 0.0173154 0.01675 0.0161689 0.0155775 0.0149807 0.0143786 0.0137712 0.0131585 0.0125405 0.0119172 0.0112885 0.0106603 0.0100383 0.00942253 0.0088129 0.00820947 0.00761221 0.00702115 0.00643627 0.00585875 0.00528974 0.00472925 0.00417728 0.00363383 0.00309889 0.00257247 0.00205457 0.00157303 0.0011557 0.000802567 0.000513643 0.000288924 0.000128411 3.21027e-05 0 0 2.88493e-05 0.000115397 0.000259644 0.000461589 0.000721232 0.00103857 0.00141362 0.00184635 0.00231584 0.00280111 0.00330217 0.00381903 0.00435167 0.0049001 0.00546432 0.00604433 0.00664145 0.00725697 0.00789091 0.00854326 0.00921402 0.0099032 0.0106108 0.0113368 0.0120773 0.0128286 0.0135905 0.014363 0.0151463 0.0159402 0.0167449 0.0175601 0.0183807 0.0192009 0.020021 0.0208408 0.0216604 0.0224798 0.0232989 0.0241178 0.0249301 0.0257296 0.0265161 0.0272898 0.0280507 0.0287986 0.0295336 0.0302558 0.0309589 0.0316366 0.032289 0.032916 0.0335177 0.0340941 0.0346451 0.0351708 0.0356661 0.0361259 0.0365503 0.0369391 0.0372925 0.0376104 0.0378928 0.0381398 0.0383482 0.0385153 0.0386409 0.0387252 0.0387679 0.0387693 0.0387292 0.0386477 0.0385246 0.0383597 0.0381529 0.0379043 0.0376139 0.0372816 0.0369076 0.0364917 0.0360369 0.035546 0.0350191 0.0344562 0.0338573 0.0332223 0.0325513 0.0318443 0.0311071 0.0303454 0.0295595 0.0287491 0.0279144 0.0270553 0.0261718 0.025264 0.0243398 0.0234073 0.0224666 0.0215175 0.0205601 0.0195945 0.0186206 0.0176383 0.0166568 0.0156849 0.0147227 0.0137702 0.0128273 0.0118941 0.0109705 0.0100567 0.0091543 0.00826522 0.00738946 0.006527 0.00567786 0.00484202 0.00401949 0.00321027 0.00245786 0.00180578 0.00125401 0.000802567 0.000451444 0.000200642 5.01604e-05 0 0 4.1543e-05 0.000166172 0.000373887 0.000664688 0.00103857 0.00149555 0.00203561 0.00265875 0.00333481 0.0040336 0.00475513 0.0054994 0.0062664 0.00705615 0.00786862 0.00870384 0.00956368 0.01045 0.0113629 0.0123023 0.0132682 0.0142606 0.0152795 0.016325 0.0173914 0.0184731 0.0195703 0.0206828 0.0218107 0.0229539 0.0241126 0.0252866 0.0264682 0.0276494 0.0288302 0.0300108 0.031191 0.0323709 0.0335504 0.0347296 0.0358994 0.0370506 0.0381832 0.0392974 0.0403929 0.04147 0.0425284 0.0435684 0.0445808 0.0455567 0.0464961 0.0473991 0.0482655 0.0490955 0.049889 0.050646 0.0513592 0.0520214 0.0526324 0.0531923 0.0537012 0.054159 0.0545657 0.0549213 0.0552215 0.055462 0.055643 0.0557642 0.0558258 0.0558278 0.0557701 0.0556527 0.0554754 0.0552379 0.0549402 0.0545822 0.054164 0.0536856 0.0531469 0.052548 0.0518931 0.0511863 0.0504276 0.049617 0.0487545 0.0478401 0.0468739 0.0458558 0.0447942 0.0436974 0.0425656 0.0413987 0.0401967 0.0389596 0.0376874 0.0363801 0.0350493 0.0337065 0.0323518 0.0309852 0.0296066 0.0282161 0.0268136 0.0253992 0.0239858 0.0225863 0.0212007 0.019829 0.0184713 0.0171275 0.0157976 0.0144816 0.0131822 0.0119019 0.0106408 0.00939889 0.00817611 0.00697251 0.00578806 0.00462279 0.00353932 0.00260032 0.00180578 0.0011557 0.000650079 0.000288924 7.2231e-05 0 0 5.65446e-05 0.000226178 0.000508902 0.000904714 0.00141362 0.00203561 0.00277069 0.00361886 0.00453904 0.00549018 0.00647226 0.00748529 0.00852927 0.0096042 0.0107101 0.0118469 0.0130172 0.0142237 0.0154662 0.0167448 0.0180595 0.0194103 0.0207971 0.0222201 0.0236716 0.025144 0.0266373 0.0281516 0.0296868 0.0312429 0.0328199 0.0344179 0.0360261 0.0376338 0.0392411 0.040848 0.0424544 0.0440603 0.0456658 0.0472708 0.048863 0.05043 0.0519716 0.0534881 0.0549793 0.0564452 0.0578859 0.0593014 0.0606794 0.0620077 0.0632864 0.0645154 0.0656948 0.0668245 0.0679045 0.0689349 0.0699056 0.0708068 0.0716385 0.0724007 0.0730933 0.0737164 0.0742699 0.0747539 0.0751626 0.07549 0.0757362 0.0759013 0.0759852 0.0759878 0.0759093 0.0757495 0.0755082 0.0751849 0.0747797 0.0742924 0.0737232 0.073072 0.0723388 0.0715237 0.0706322 0.0696702 0.0686375 0.0675342 0.0663603 0.0651157 0.0638006 0.0624148 0.0609698 0.0594771 0.0579366 0.0563483 0.0547122 0.0530284 0.0512968 0.0495174 0.047706 0.0458784 0.0440345 0.0421743 0.0402979 0.0384052 0.0364963 0.0345711 0.0326473 0.0307424 0.0288565 0.0269895 0.0251415 0.0233124 0.0215023 0.0197111 0.0179424 0.0161998 0.0144833 0.0127929 0.0111286 0.00949036 0.0078782 0.00629212 0.00481741 0.00353932 0.00245786 0.00157303 0.00088483 0.000393258 9.83144e-05 0 0 7.38542e-05 0.000295417 0.000664688 0.00118167 0.00184635 0.00265875 0.00361886 0.00472667 0.00592855 0.00717085 0.00845357 0.00977671 0.0111403 0.0125443 0.0139887 0.0154735 0.0170021 0.0185778 0.0202007 0.0218707 0.0235879 0.0253522 0.0271636 0.0290222 0.030918 0.0328411 0.0347916 0.0367694 0.0387745 0.040807 0.0428668 0.044954 0.0470545 0.0491544 0.0512537 0.0533525 0.0554506 0.0575482 0.0596451 0.0617415 0.0638211 0.0658677 0.0678813 0.069862 0.0718097 0.0737244 0.0756061 0.0774549 0.0792547 0.0809897 0.0826598 0.084265 0.0858054 0.0872809 0.0886916 0.0900374 0.0913053 0.0924824 0.0935687 0.0945642 0.0954688 0.0962826 0.0970056 0.0976378 0.0981715 0.0985992 0.0989208 0.0991364 0.0992459 0.0992494 0.0991468 0.0989382 0.098623 0.0982007 0.0976714 0.097035 0.0962915 0.095441 0.0944834 0.0934187 0.0922544 0.0909978 0.089649 0.0882079 0.0866747 0.0850491 0.0833314 0.0815214 0.0796341 0.0776843 0.0756722 0.0735977 0.0714608 0.0692615 0.0669999 0.0646758 0.0623099 0.0599227 0.0575144 0.0550848 0.052634 0.0501619 0.0476686 0.0451541 0.0426414 0.0401534 0.0376901 0.0352516 0.0328379 0.0304489 0.0280846 0.0257451 0.023435 0.021159 0.018917 0.0167091 0.0145353 0.0123956 0.0102899 0.00821829 0.00629212 0.00462279 0.00321027 0.00205457 0.0011557 0.000513643 0.000128411 0 0 9.26035e-05 0.000370414 0.000833431 0.00148166 0.00231509 0.00333372 0.00453757 0.00592662 0.00743352 0.0089909 0.0105988 0.0122571 0.0139659 0.0157252 0.017535 0.0193953 0.0213103 0.0232842 0.025317 0.0274088 0.0295595 0.0317691 0.0340377 0.0363652 0.0387392 0.0411474 0.0435897 0.0460661 0.0485767 0.0511214 0.0537002 0.0563131 0.0589427 0.0615715 0.0641994 0.0668265 0.0694528 0.0720783 0.0747029 0.0773267 0.0799294 0.0824908 0.0850108 0.0874895 0.0899269 0.0923229 0.0946776 0.096991 0.0992431 0.101414 0.103504 0.105512 0.107439 0.109285 0.11105 0.112734 0.11432 0.115792 0.117151 0.118396 0.119528 0.120546 0.12145 0.122241 0.122908 0.123443 0.123845 0.124114 0.124251 0.124255 0.124126 0.123865 0.12347 0.122942 0.122279 0.121482 0.120552 0.119487 0.118289 0.116956 0.115499 0.113927 0.112239 0.110435 0.108516 0.106482 0.104332 0.102067 0.0997052 0.0972651 0.0947469 0.0921506 0.0894761 0.0867235 0.0838928 0.080984 0.0780227 0.0750349 0.0720204 0.0689792 0.0659114 0.062817 0.0596959 0.0565482 0.0534026 0.0502879 0.0472041 0.0441512 0.0411291 0.038138 0.0351778 0.0322484 0.0293557 0.0265056 0.0236978 0.0209326 0.0182098 0.0155295 0.0128917 0.0102964 0.00788318 0.00579172 0.00402203 0.0025741 0.00144793 0.000643525 0.000160881 0 0 0.000111924 0.000447697 0.00100732 0.00179079 0.0027981 0.00402927 0.00548428 0.00716315 0.00898416 0.0108656 0.0128075 0.0148099 0.0168727 0.018996 0.0211797 0.0234239 0.0257337 0.0281142 0.0305655 0.0330875 0.0356803 0.0383438 0.0410781 0.0438832 0.046744 0.0496457 0.0525882 0.0555716 0.0585958 0.0616608 0.0647668 0.0679135 0.0710801 0.0742454 0.0774095 0.0805723 0.083734 0.0868944 0.0900535 0.0932115 0.0963438 0.0994262 0.102459 0.105441 0.108374 0.111256 0.114089 0.116872 0.119581 0.122192 0.124705 0.127121 0.129438 0.131658 0.13378 0.135804 0.137711 0.139481 0.141115 0.142611 0.143971 0.145194 0.146281 0.147231 0.148032 0.148674 0.149157 0.14948 0.149643 0.149647 0.149491 0.149176 0.1487 0.148064 0.147266 0.146307 0.145187 0.143906 0.142463 0.14086 0.139107 0.137214 0.135183 0.133013 0.130704 0.128256 0.125669 0.122944 0.120102 0.117165 0.114135 0.11101 0.107792 0.104479 0.101072 0.0975707 0.0940064 0.0904099 0.0867811 0.08312 0.0794267 0.0757011 0.0719433 0.0681532 0.0643655 0.0606147 0.0569008 0.0532239 0.049584 0.045981 0.0424149 0.0388858 0.0354005 0.0319658 0.0285818 0.0252484 0.0219657 0.0187337 0.0155523 0.0124216 0.00951028 0.00698715 0.00485218 0.0031054 0.00174679 0.00077635 0.000194087 0 0 0.000131816 0.000527265 0.00118635 0.00210906 0.00329541 0.00474539 0.006459 0.00843624 0.0105805 0.012795 0.0150799 0.0174351 0.0198607 0.0223566 0.0249228 0.0275594 0.0302724 0.033068 0.0359462 0.038907 0.0419504 0.0450763 0.0482849 0.0515761 0.0549323 0.0583359 0.0617871 0.0652857 0.0688319 0.0724255 0.0760666 0.0797552 0.0834666 0.0871762 0.090884 0.09459 0.0982942 0.101997 0.105697 0.109396 0.113064 0.116674 0.120225 0.123717 0.12715 0.130525 0.133841 0.137098 0.140268 0.143323 0.146264 0.149091 0.151802 0.154399 0.156881 0.159248 0.161479 0.163549 0.165459 0.167208 0.168798 0.170228 0.171498 0.172607 0.173544 0.174293 0.174856 0.175233 0.175422 0.175425 0.175241 0.174871 0.174313 0.173567 0.172632 0.171508 0.170196 0.168696 0.167007 0.16513 0.163077 0.160861 0.158483 0.155942 0.153238 0.150372 0.147343 0.144151 0.140823 0.137385 0.133836 0.130177 0.126407 0.122527 0.118537 0.114436 0.110261 0.106048 0.101797 0.0975072 0.0931799 0.0888144 0.0844109 0.0799693 0.0755301 0.0711338 0.0667805 0.06247 0.0582024 0.0539778 0.0497961 0.0456572 0.0415692 0.0375397 0.0335689 0.0296566 0.025803 0.022008 0.0182716 0.0145939 0.0111734 0.00820905 0.00570073 0.00364847 0.00205226 0.000912117 0.000228029 0 0 0.00015228 0.000609119 0.00137052 0.00243648 0.003807 0.00548207 0.00746171 0.00974591 0.0122224 0.0147791 0.0174159 0.0201328 0.0229298 0.025807 0.0287643 0.0318017 0.0349263 0.0381455 0.0414591 0.0448671 0.0483696 0.0519666 0.055658 0.0594439 0.063304 0.0672182 0.0711864 0.0752087 0.079285 0.0834153 0.0875997 0.0918381 0.0961023 0.100364 0.104623 0.108879 0.113133 0.117385 0.121634 0.12588 0.130091 0.134234 0.138309 0.142317 0.146256 0.150128 0.153932 0.157668 0.161304 0.164809 0.168181 0.171422 0.174531 0.177508 0.180353 0.183067 0.185623 0.187995 0.190183 0.192188 0.194009 0.195647 0.197101 0.198371 0.199443 0.2003 0.200944 0.201373 0.201588 0.20159 0.201377 0.200951 0.200309 0.199451 0.198377 0.197087 0.195581 0.193858 0.19192 0.189765 0.187409 0.184866 0.182137 0.179221 0.176118 0.172828 0.169352 0.16569 0.16187 0.157924 0.15385 0.14965 0.145323 0.140869 0.136288 0.13158 0.126786 0.121948 0.117067 0.112141 0.107171 0.102157 0.0970987 0.0919964 0.0868965 0.0818453 0.0768429 0.0718893 0.0669845 0.0621285 0.0573212 0.0525627 0.0478618 0.0432273 0.0386591 0.0341572 0.0297217 0.0253525 0.0210497 0.0168132 0.0128726 0.00945744 0.00656767 0.00420331 0.00236436 0.00105083 0.000262707 0 0 0.000173315 0.000693259 0.00155983 0.00277304 0.00433287 0.00623933 0.00849243 0.0110921 0.0139101 0.0168179 0.0198155 0.0229029 0.0260801 0.0293472 0.0327041 0.0361508 0.0396956 0.0433467 0.0471042 0.050968 0.0549382 0.0590147 0.0631975 0.0674867 0.0718593 0.0762924 0.0807861 0.0853403 0.089955 0.0946303 0.099366 0.104162 0.108987 0.113808 0.118626 0.123441 0.128252 0.133059 0.137863 0.142663 0.147424 0.152107 0.156712 0.161241 0.165692 0.170067 0.174364 0.178583 0.18269 0.186648 0.190456 0.194115 0.197625 0.200986 0.204197 0.207259 0.210143 0.21282 0.215289 0.21755 0.219604 0.221451 0.22309 0.224522 0.225729 0.226695 0.227419 0.227901 0.228142 0.228141 0.227899 0.227414 0.226688 0.225717 0.224502 0.223043 0.22134 0.219393 0.217202 0.214767 0.212104 0.20923 0.206146 0.20285 0.199344 0.195626 0.191698 0.187559 0.183242 0.178782 0.174178 0.16943 0.164538 0.159503 0.154324 0.149002 0.143582 0.138112 0.132592 0.127021 0.1214 0.115728 0.110007 0.104235 0.0984645 0.0927491 0.0870882 0.0814819 0.0759301 0.070433 0.0649904 0.0596023 0.0542785 0.0490285 0.0438524 0.0387502 0.0337218 0.0287672 0.0238865 0.0190797 0.0146079 0.0107323 0.007453 0.00476992 0.00268308 0.00119248 0.00029812 0 0 0.000194921 0.000779685 0.00175429 0.00311874 0.00487303 0.00701716 0.00955114 0.012475 0.0156434 0.0189113 0.0222786 0.0257454 0.0293116 0.0329772 0.0367423 0.0406067 0.0445801 0.0486717 0.0528815 0.0572096 0.0616559 0.0662205 0.0709033 0.0757044 0.0805981 0.0855587 0.0905862 0.0956807 0.100842 0.10607 0.111366 0.116728 0.122121 0.12751 0.132894 0.138274 0.143649 0.149019 0.154385 0.159747 0.165062 0.170291 0.175434 0.180489 0.185458 0.19034 0.195135 0.199844 0.204425 0.20884 0.213088 0.217169 0.221084 0.224831 0.228412 0.231826 0.23504 0.238023 0.240775 0.243295 0.245583 0.24764 0.249466 0.25106 0.252403 0.253477 0.254281 0.254816 0.255082 0.255078 0.254805 0.254263 0.253449 0.252364 0.251006 0.249376 0.247474 0.245299 0.242853 0.240134 0.237161 0.233953 0.23051 0.226831 0.222916 0.218766 0.21438 0.209759 0.20494 0.199959 0.194819 0.189517 0.184054 0.178431 0.172647 0.166702 0.160649 0.154538 0.148371 0.142147 0.135867 0.129529 0.123135 0.116684 0.110234 0.103845 0.0975163 0.0912477 0.0850394 0.0788913 0.0728035 0.066776 0.0608191 0.0549435 0.0491489 0.0434355 0.0378032 0.0322521 0.0267821 0.0213932 0.0163792 0.0120337 0.00835672 0.0053483 0.00300842 0.00133707 0.000334269 0 0 0.000217099 0.000868396 0.00195389 0.00347358 0.00542748 0.00781557 0.0106379 0.0138943 0.0174224 0.0210594 0.0248054 0.0286603 0.0326242 0.036697 0.0408788 0.0451695 0.0495798 0.0541203 0.058791 0.0635919 0.0685229 0.0735841 0.0787755 0.0840971 0.0895204 0.0950169 0.100587 0.10623 0.111946 0.117736 0.123598 0.129535 0.135504 0.141468 0.147426 0.153379 0.159325 0.165266 0.171201 0.177129 0.183007 0.188788 0.194473 0.200061 0.205553 0.210948 0.216246 0.221449 0.22651 0.231387 0.236078 0.240585 0.244908 0.249045 0.252998 0.256766 0.260314 0.263606 0.266642 0.269422 0.271946 0.274215 0.276227 0.277984 0.279464 0.280647 0.281532 0.282119 0.28241 0.282402 0.282097 0.281495 0.280594 0.279392 0.277889 0.276086 0.273982 0.271578 0.268873 0.265867 0.262581 0.259035 0.255228 0.251161 0.246834 0.242246 0.237398 0.23229 0.226962 0.221456 0.215772 0.209911 0.20387 0.197652 0.191256 0.184682 0.177986 0.171228 0.164406 0.15752 0.150571 0.143559 0.136483 0.129344 0.122206 0.115134 0.108127 0.101187 0.0943122 0.0875035 0.0807607 0.0740837 0.0674838 0.060972 0.0545485 0.0482132 0.041966 0.0358071 0.0297363 0.0237538 0.0181865 0.0133615 0.00927883 0.00593845 0.00334038 0.00148461 0.000371153 0 0 0.000239848 0.000959393 0.00215863 0.00383757 0.00599621 0.00863454 0.0117526 0.0153503 0.0192471 0.0232622 0.0273957 0.0316477 0.036018 0.0405066 0.0451137 0.0498392 0.0546949 0.0596927 0.0648327 0.0701148 0.0755391 0.0811055 0.086814 0.0926647 0.0986262 0.104667 0.110788 0.116988 0.123267 0.129626 0.136065 0.142583 0.149137 0.155684 0.162223 0.168755 0.17528 0.181798 0.188309 0.194812 0.201258 0.207598 0.213831 0.219958 0.225978 0.231891 0.237698 0.243398 0.248944 0.254286 0.259426 0.264363 0.269097 0.273628 0.277956 0.282081 0.285964 0.289567 0.29289 0.295932 0.298693 0.301175 0.303375 0.305296 0.306913 0.308204 0.30917 0.30981 0.310124 0.310112 0.309775 0.309112 0.308121 0.306801 0.305152 0.303173 0.300866 0.298229 0.295262 0.291967 0.288364 0.284476 0.280302 0.275843 0.271098 0.266068 0.260753 0.255152 0.24931 0.243273 0.23704 0.230611 0.223987 0.217167 0.210151 0.202939 0.195595 0.18818 0.180695 0.17314 0.165514 0.157818 0.150052 0.142215 0.134379 0.126614 0.118921 0.111299 0.103749 0.0962695 0.0888618 0.0815255 0.0742724 0.0671143 0.0600512 0.0530832 0.0462102 0.0394323 0.0327494 0.0261615 0.0200299 0.0147158 0.0102193 0.00654037 0.00367896 0.00163509 0.000408773 0 0 0.000263192 0.00105277 0.00236873 0.00421107 0.0065798 0.00947491 0.0128964 0.0168443 0.0211192 0.025522 0.0300525 0.0347108 0.0394969 0.0444107 0.0494523 0.0546218 0.0599321 0.0653966 0.0710152 0.0767879 0.0827148 0.0887958 0.0950309 0.10142 0.107929 0.114524 0.121204 0.12797 0.134822 0.141759 0.148782 0.155891 0.163038 0.170176 0.177305 0.184425 0.191536 0.198639 0.205732 0.212816 0.219838 0.226743 0.23353 0.240201 0.246755 0.253192 0.259513 0.265716 0.27175 0.277563 0.283154 0.288524 0.293673 0.2986 0.303306 0.307791 0.312012 0.315928 0.319539 0.322844 0.325845 0.32854 0.33093 0.333014 0.334769 0.336169 0.337216 0.337907 0.338245 0.338228 0.337857 0.337132 0.336051 0.334611 0.332813 0.330657 0.328143 0.325271 0.322041 0.318452 0.314529 0.310296 0.305751 0.300895 0.295729 0.290252 0.284464 0.278365 0.272004 0.265429 0.258641 0.251639 0.244423 0.236994 0.229351 0.221494 0.213492 0.205413 0.197256 0.189022 0.18071 0.172321 0.163855 0.155311 0.146767 0.138299 0.129909 0.121595 0.113358 0.105198 0.0971145 0.089108 0.0811907 0.0733751 0.0656613 0.0580491 0.0505387 0.04313 0.035823 0.0286177 0.0219104 0.0160975 0.0111788 0.00715443 0.00402437 0.00178861 0.000447152 0 0 0.000287152 0.00114861 0.00258437 0.00459444 0.00717881 0.0103375 0.0140705 0.0183778 0.0230408 0.027841 0.0327784 0.0378531 0.0430649 0.0484139 0.0539001 0.0595235 0.0652985 0.0712397 0.0773471 0.0836206 0.0900603 0.0966661 0.103438 0.110376 0.117443 0.124602 0.131852 0.139194 0.146628 0.154153 0.16177 0.169478 0.177227 0.184965 0.192693 0.200409 0.208114 0.215809 0.223493 0.231166 0.23877 0.246246 0.253594 0.260816 0.267909 0.274875 0.281714 0.288425 0.294952 0.301239 0.307286 0.313093 0.318659 0.323986 0.329072 0.333918 0.33848 0.34271 0.346611 0.350181 0.353421 0.356331 0.35891 0.361159 0.363052 0.364561 0.365688 0.366431 0.366792 0.366769 0.366364 0.365575 0.364402 0.362841 0.360893 0.358558 0.355835 0.352725 0.349228 0.345344 0.341098 0.336515 0.331596 0.32634 0.320747 0.314818 0.308553 0.30195 0.295064 0.287946 0.280595 0.273013 0.265199 0.257153 0.248876 0.240366 0.231698 0.222945 0.214107 0.205185 0.196177 0.187085 0.177908 0.168645 0.159382 0.150201 0.141102 0.132085 0.12315 0.114297 0.105526 0.0968378 0.0882445 0.0797595 0.0713828 0.0631144 0.0549543 0.0469026 0.0389591 0.031124 0.0238293 0.0175072 0.0121578 0.00778099 0.00437681 0.00194525 0.000486312 0 0 0.00031173 0.00124692 0.00280557 0.00498768 0.00779325 0.0112223 0.0152748 0.0199507 0.0250117 0.0302193 0.0355736 0.0410745 0.046722 0.0525161 0.0584569 0.0645442 0.070794 0.0772221 0.0838283 0.0906128 0.0975755 0.104716 0.112036 0.119533 0.127168 0.134901 0.142731 0.150659 0.158684 0.166807 0.175027 0.183345 0.191705 0.200052 0.208386 0.216707 0.225015 0.23331 0.241591 0.24986 0.258053 0.266107 0.274023 0.2818 0.289439 0.29694 0.304301 0.311525 0.318549 0.325314 0.33182 0.338067 0.344055 0.349784 0.355253 0.360463 0.365366 0.369913 0.374105 0.377941 0.381422 0.384547 0.387317 0.389731 0.391761 0.39338 0.394586 0.395381 0.395764 0.395735 0.395294 0.394441 0.393174 0.391491 0.389391 0.386874 0.383941 0.380591 0.376825 0.372642 0.368069 0.363134 0.357836 0.352176 0.346153 0.339767 0.333019 0.325908 0.318491 0.310823 0.302905 0.294735 0.286316 0.277646 0.268725 0.259554 0.250211 0.240776 0.231248 0.221627 0.211914 0.202108 0.19221 0.182219 0.172225 0.162319 0.1525 0.142768 0.133124 0.123567 0.114097 0.104715 0.0954337 0.0862673 0.0772158 0.068279 0.0594571 0.05075 0.0421577 0.0336802 0.0257864 0.0189451 0.0131563 0.00842006 0.00473628 0.00210501 0.000526253 0 0 0.000336925 0.0013477 0.00303232 0.0053908 0.00842312 0.0121293 0.0165093 0.0215632 0.027032 0.032657 0.0384379 0.044375 0.0504682 0.0567174 0.0631227 0.0696841 0.0764187 0.0833437 0.0904589 0.0977646 0.105261 0.112947 0.120823 0.12889 0.137104 0.145421 0.153841 0.162365 0.170992 0.179721 0.188555 0.197491 0.206471 0.215436 0.224385 0.233319 0.242237 0.25114 0.260027 0.268899 0.277688 0.286327 0.294816 0.303156 0.311346 0.319385 0.327276 0.335016 0.342542 0.349789 0.356758 0.363449 0.369861 0.375994 0.381849 0.387425 0.392672 0.397538 0.402022 0.406126 0.409848 0.41319 0.41615 0.418729 0.420898 0.422625 0.423912 0.424757 0.425162 0.425126 0.424649 0.42373 0.422369 0.420561 0.418307 0.415607 0.412461 0.408869 0.40483 0.400346 0.395444 0.390152 0.384472 0.378404 0.371946 0.365099 0.357863 0.350238 0.342284 0.334061 0.325568 0.316805 0.307773 0.298471 0.288899 0.279058 0.269032 0.258905 0.248678 0.23835 0.227921 0.217391 0.206761 0.19603 0.185295 0.174653 0.164103 0.153645 0.14328 0.133008 0.122827 0.112739 0.102758 0.0928987 0.0831602 0.073543 0.064047 0.0546722 0.0454187 0.0362865 0.0277818 0.0204111 0.0141744 0.00907162 0.00510279 0.00226791 0.000566976 0 0 0.000362737 0.00145095 0.00326463 0.00580379 0.00906842 0.0130585 0.0177741 0.0232152 0.0291017 0.0351538 0.0413715 0.0477547 0.0543035 0.0610178 0.0678977 0.0749431 0.0821726 0.0896045 0.0972389 0.105076 0.113115 0.121357 0.129802 0.138448 0.147251 0.156162 0.165183 0.174312 0.18355 0.192896 0.202352 0.211916 0.221526 0.231117 0.240691 0.250245 0.259782 0.269301 0.278801 0.288283 0.297675 0.306905 0.315974 0.324882 0.333628 0.342213 0.350636 0.358898 0.36693 0.374664 0.382099 0.389237 0.396076 0.402617 0.40886 0.414805 0.420397 0.425583 0.430362 0.434734 0.438699 0.442258 0.445409 0.448154 0.450461 0.452298 0.453664 0.45456 0.454986 0.454942 0.454427 0.453442 0.451985 0.450051 0.447642 0.444756 0.441395 0.437558 0.433245 0.428456 0.423221 0.417571 0.411505 0.405023 0.398126 0.390813 0.383085 0.374941 0.366444 0.357659 0.348585 0.339222 0.329569 0.319628 0.309398 0.298879 0.288161 0.277334 0.266397 0.255352 0.244198 0.232934 0.221562 0.210081 0.198593 0.187204 0.175911 0.164716 0.153619 0.142619 0.131716 0.120911 0.110219 0.0996536 0.0892161 0.0789063 0.068724 0.0586693 0.0487422 0.0389428 0.0298156 0.0219053 0.015212 0.00973569 0.00547633 0.00243392 0.000608481 0 0 0.000389166 0.00155666 0.00350249 0.00622665 0.00972914 0.01401 0.0190691 0.0249066 0.0312208 0.03771 0.0443743 0.0512136 0.0582279 0.0654173 0.0727817 0.0803212 0.0880555 0.0960046 0.104168 0.112547 0.12114 0.129948 0.13897 0.148207 0.157609 0.167125 0.176755 0.1865 0.196358 0.206332 0.216419 0.226621 0.236869 0.247096 0.257301 0.267486 0.277649 0.287791 0.297912 0.308011 0.318013 0.327842 0.337497 0.346979 0.356287 0.365422 0.374383 0.383171 0.391714 0.399938 0.407844 0.415432 0.422701 0.429653 0.436286 0.442602 0.448542 0.454049 0.459124 0.463765 0.467975 0.471751 0.475095 0.478006 0.480451 0.482397 0.483842 0.484789 0.485235 0.485182 0.48463 0.483577 0.482022 0.479961 0.477395 0.474322 0.470743 0.466659 0.462068 0.456972 0.451401 0.445388 0.438933 0.432034 0.424693 0.41691 0.408684 0.400015 0.390971 0.381618 0.371956 0.361986 0.351706 0.341118 0.330222 0.319016 0.307597 0.296061 0.284407 0.272635 0.260745 0.248738 0.236612 0.22437 0.212119 0.199971 0.187925 0.175981 0.16414 0.152401 0.140765 0.12923 0.117814 0.106532 0.0953835 0.0843689 0.0734882 0.0627413 0.0521282 0.041649 0.0318876 0.0234276 0.0162692 0.0104123 0.0058569 0.00260307 0.000650766 0 0 0.000416212 0.00166485 0.00374591 0.00665939 0.0104053 0.0149836 0.0203944 0.0266376 0.0333892 0.0403254 0.0474462 0.0547515 0.0622414 0.0699158 0.0777748 0.0858184 0.0940677 0.102544 0.111247 0.120177 0.129334 0.138718 0.148329 0.158167 0.168178 0.178308 0.188559 0.198929 0.209418 0.220027 0.230756 0.241604 0.2525 0.263372 0.274218 0.285041 0.295838 0.306611 0.31736 0.328084 0.338703 0.349136 0.359384 0.369446 0.379322 0.389012 0.398517 0.407836 0.416893 0.425611 0.433991 0.442033 0.449736 0.457101 0.464128 0.470816 0.477105 0.482936 0.488308 0.493221 0.497675 0.501671 0.505207 0.508285 0.510868 0.512923 0.514448 0.515444 0.51591 0.515848 0.515256 0.514135 0.512482 0.510292 0.507566 0.504304 0.500506 0.496171 0.491301 0.485894 0.479985 0.473606 0.466756 0.459437 0.451648 0.443389 0.434661 0.425462 0.415864 0.405937 0.395682 0.385097 0.374183 0.362941 0.35137 0.33947 0.327342 0.315087 0.302705 0.290197 0.277562 0.264801 0.251912 0.238897 0.225872 0.212954 0.200144 0.18744 0.174844 0.162354 0.149972 0.137697 0.125545 0.113534 0.101662 0.0899309 0.0783395 0.0668881 0.0555767 0.0444053 0.0339978 0.024978 0.0173458 0.0111013 0.0062445 0.00277533 0.000693833 0 0 0.000443875 0.0017755 0.00399487 0.007102 0.0110969 0.0159795 0.0217499 0.028408 0.035607 0.0430002 0.0505874 0.0583687 0.066344 0.0745135 0.082877 0.0914347 0.100209 0.109222 0.118475 0.127967 0.137698 0.147668 0.157878 0.168327 0.178958 0.189713 0.200594 0.211599 0.222729 0.233983 0.245363 0.256867 0.26842 0.279944 0.291441 0.302909 0.31435 0.325762 0.337146 0.348502 0.359745 0.37079 0.381636 0.392284 0.402733 0.412984 0.423037 0.432891 0.442467 0.451684 0.460542 0.469041 0.477181 0.484962 0.492384 0.499447 0.506088 0.512244 0.517915 0.5231 0.527801 0.532016 0.535745 0.53899 0.541712 0.543876 0.54548 0.546525 0.547011 0.546939 0.546307 0.545116 0.543362 0.541042 0.538155 0.534702 0.530682 0.526096 0.520943 0.515223 0.508971 0.502222 0.494976 0.487232 0.47899 0.470251 0.461015 0.451281 0.441124 0.430617 0.419761 0.408556 0.397