<?xml version="1.0"?> 
<VTKFile type="StructuredGrid" version="0.1"> 
<StructuredGrid WholeExtent="0 128 0 128 0 0"> 
<Piece Extent="0 128 0 128 0 0"> 
<PointData>
<DataArray type="Float32" Name="u" format="ascii" NumberOfComponents="1"> 
0 0 0 0 0 0 0 0 0 0 0 0 0 0 0 0 0 0 0 0 0 0 0 0 0 0 0 0 0 0 0 0 0 0 0 0 0 0 0 0 0 0 0 0 0 0 0 0 0 0 0 0 0 0 0 0 0 0 0 0 0 0 0 0 0 0 0 0 0 0 0 0 0 0 0 0 0 0 0 0 0 0 0 0 0 0 0 0 0 0 0 0 0 0 0 0 0 0 0 0 0 0 0 0 0 0 0 0 0 0 0 0 0 0 0 0 0 0 0 0 0 0 0 0 0 0 0 0 0 0 1.25001e-05 5.00003e-05 0.000112501 0.000200001 0.000312502 0.000450003 0.000612504 0.000800006 0.000999188 0.00119673 0.00139264 0.00158691 0.00177955 0.00197054 0.0021599 0.00234762 0.00253283 0.00271466 0.0028931 0.00306816 0.00323983 0.00340811 0.00357302 0.00373453 0.00389127 0.00404185 0.00418625 0.00432449 0.00445656 0.00458246 0.0047022 0.00481577 0.00492326 0.00502476 0.00512027 0.00520979 0.00529331 0.00537085 0.0054424 0.00550796 0.00556841 0.00562462 0.0056766 0.00572435 0.00576786 0.00580714 0.00584219 0.005873 0.00590052 0.00592569 0.00594851 0.00596898 0.0059871 0.00600287 0.00601628 0.00602735 0.00603662 0.00604465 0.00605145 0.00605702 0.00606134 0.00606443 0.00606629 0.00606691 0.00606629 0.00606444 0.00606135 0.00605702 0.00605146 0.00604467 0.00603663 0.00602737 0.0060163 0.00600289 0.00598713 0.00596901 0.00594855 0.00592573 0.00590056 0.00587304 0.00584223 0.00580719 0.00576791 0.0057244 0.00567666 0.00562468 0.00556847 0.00550803 0.00544247 0.00537093 0.00529339 0.00520987 0.00512035 0.00502485 0.00492335 0.00481586 0.0047023 0.00458257 0.00445667 0.0043246 0.00418637 0.00404196 0.00389139 0.00373466 0.00357314 0.00340825 0.00323996 0.00306829 0.00289324 0.0027148 0.00253298 0.00234777 0.00216005 0.00197068 0.00177968 0.00158704 0.00139276 0.00119684 0.00099928 0.00080008 0.000612561 0.000450045 0.000312531 0.00020002 0.000112511 5.0005e-05 1.25012e-05 0 0 5.00003e-05 0.000200001 0.000450003 0.000800006 0.00125001 0.00180001 0.00245002 0.00320002 0.00399675 0.00478694 0.00557057 0.00634765 0.00711819 0.00788217 0.00863961 0.0093905 0.0101313 0.0108586 0.0115724 0.0122726 0.0129593 0.0136325 0.0142921 0.0149381 0.0155651 0.0161674 0.016745 0.017298 0.0178262 0.0183299 0.0188088 0.0192631 0.019693 0.020099 0.0204811 0.0208391 0.0211733 0.0214834 0.0217696 0.0220318 0.0222736 0.0224985 0.0227064 0.0228974 0.0230714 0.0232286 0.0233688 0.023492 0.0236021 0.0237028 0.0237941 0.0238759 0.0239484 0.0240115 0.0240651 0.0241094 0.0241465 0.0241786 0.0242058 0.0242281 0.0242454 0.0242577 0.0242652 0.0242676 0.0242652 0.0242578 0.0242454 0.0242281 0.0242059 0.0241787 0.0241465 0.0241095 0.0240652 0.0240116 0.0239485 0.023876 0.0237942 0.0237029 0.0236022 0.0234922 0.0233689 0.0232287 0.0230716 0.0228976 0.0227066 0.0224987 0.0222739 0.0220321 0.0217699 0.0214837 0.0211736 0.0208395 0.0204814 0.0200994 0.0196934 0.0192635 0.0188092 0.0183303 0.0178267 0.0172984 0.0167455 0.0161679 0.0155656 0.0149386 0.0142926 0.013633 0.0129599 0.0122732 0.011573 0.0108592 0.0101319 0.00939107 0.00864018 0.00788274 0.00711873 0.00634817 0.00557104 0.00478736 0.00399712 0.00320032 0.00245024 0.00180018 0.00125012 0.00080008 0.000450045 0.00020002 5.0005e-05 0 0 0.000112501 0.000450003 0.00101251 0.00180001 0.00281252 0.00405003 0.00551254 0.00720005 0.0089927 0.0107706 0.0125338 0.0142822 0.0160159 0.0177349 0.0194391 0.0211286 0.0227955 0.0244319 0.0260379 0.0276134 0.0291585 0.030673 0.0321571 0.0336108 0.0350215 0.0363766 0.0376763 0.0389204 0.040109 0.0412422 0.0423198 0.0433419 0.0443093 0.0452228 0.0460824 0.0468881 0.0476398 0.0483377 0.0489816 0.0495716 0.0501157 0.0506216 0.0510894 0.0515191 0.0519107 0.0522643 0.0525797 0.052857 0.0531047 0.0533313 0.0535366 0.0537208 0.0538839 0.0540258 0.0541465 0.0542461 0.0543296 0.0544019 0.0544631 0.0545131 0.0545521 0.0545799 0.0545966 0.0546022 0.0545966 0.0545799 0.0545521 0.0545132 0.0544632 0.054402 0.0543297 0.0542463 0.0541467 0.054026 0.0538841 0.0537211 0.0535369 0.0533316 0.053105 0.0528574 0.0525801 0.0522647 0.0519112 0.0515196 0.0510899 0.0506221 0.0501162 0.0495722 0.0489822 0.0483383 0.0476405 0.0468888 0.0460832 0.0452236 0.0443102 0.0433428 0.0423207 0.0412431 0.04011 0.0389214 0.0376773 0.0363777 0.0350226 0.0336119 0.0321583 0.0306742 0.0291597 0.0276146 0.0260392 0.0244332 0.0227968 0.0211299 0.0194404 0.0177362 0.0160171 0.0142834 0.0125348 0.0107716 0.00899352 0.00720072 0.00551305 0.0040504 0.00281278 0.00180018 0.0010126 0.000450045 0.000112511 0 0 0.000200001 0.000800006 0.00180001 0.00320002 0.00500003 0.00720005 0.00980007 0.0128001 0.015987 0.0191477 0.0222823 0.0253906 0.0284727 0.0315287 0.0345584 0.037562 0.0405254 0.0434346 0.0462896 0.0490905 0.0518373 0.0545298 0.0571683 0.0597525 0.0622604 0.0646695 0.06698 0.0691918 0.071305 0.0733194 0.0752352 0.0770523 0.0787721 0.0803961 0.0819243 0.0833566 0.084693 0.0859337 0.0870784 0.0881274 0.0890945 0.0899939 0.0908256 0.0915896 0.0922858 0.0929143 0.093475 0.093968 0.0944084 0.0948111 0.0951762 0.0955037 0.0957936 0.0960459 0.0962605 0.0964376 0.0965859 0.0967145 0.0968232 0.0969123 0.0969815 0.0970309 0.0970606 0.0970705 0.0970607 0.097031 0.0969816 0.0969124 0.0968234 0.0967147 0.0965861 0.0964378 0.0962609 0.0960462 0.095794 0.0955042 0.0951767 0.0948117 0.094409 0.0939687 0.0934757 0.092915 0.0922866 0.0915904 0.0908265 0.0899949 0.0890955 0.0881284 0.0870795 0.0859348 0.0846943 0.0833579 0.0819256 0.0803975 0.0787736 0.0770538 0.0752368 0.0733211 0.0713067 0.0691936 0.0669819 0.0646714 0.0622623 0.0597545 0.0571703 0.0545319 0.0518394 0.0490927 0.0462918 0.0434368 0.0405276 0.0375643 0.0345607 0.0315309 0.0284749 0.0253927 0.0222842 0.0191494 0.0159885 0.0128013 0.00980098 0.00720072 0.0050005 0.00320032 0.00180018 0.00080008 0.00020002 0 0 0.000312502 0.00125001 0.00281252 0.00500003 0.00781255 0.0112501 0.0153126 0.0200001 0.0249797 0.0299183 0.0348161 0.0396728 0.0444887 0.0492636 0.0539976 0.0586906 0.0633209 0.0678665 0.0723275 0.0767039 0.0809957 0.0852029 0.0893254 0.0933633 0.0972818 0.101046 0.104656 0.108112 0.111414 0.114562 0.117555 0.120394 0.123081 0.125619 0.128007 0.130245 0.132333 0.134271 0.13606 0.137699 0.13921 0.140616 0.141915 0.143109 0.144197 0.145179 0.146055 0.146825 0.147513 0.148142 0.148713 0.149225 0.149678 0.150072 0.150407 0.150684 0.150915 0.151116 0.151286 0.151425 0.151534 0.151611 0.151657 0.151673 0.151657 0.151611 0.151534 0.151426 0.151287 0.151117 0.150916 0.150684 0.150408 0.150072 0.149678 0.149225 0.148714 0.148143 0.147514 0.146826 0.146056 0.14518 0.144198 0.14311 0.141916 0.140617 0.139212 0.137701 0.136062 0.134273 0.132335 0.130247 0.128009 0.125621 0.123084 0.120397 0.117557 0.114564 0.111417 0.108115 0.104659 0.101049 0.0972849 0.0933664 0.0893286 0.0852062 0.0809991 0.0767073 0.072331 0.06787 0.0633244 0.0586942 0.0540011 0.0492671 0.0444921 0.039676 0.034819 0.029921 0.024982 0.020002 0.015314 0.0112511 0.00781328 0.0050005 0.00281278 0.00125012 0.000312531 0 0 0.000450003 0.00180001 0.00405003 0.00720005 0.0112501 0.0162001 0.0220502 0.0288002 0.0359708 0.0430824 0.0501351 0.0571289 0.0640637 0.0709395 0.0777565 0.0845145 0.091182 0.0977278 0.104152 0.110454 0.116634 0.122692 0.128629 0.134443 0.140086 0.145506 0.150705 0.155682 0.160436 0.164969 0.169279 0.173368 0.177237 0.180891 0.18433 0.187552 0.190559 0.193351 0.195926 0.198287 0.200463 0.202486 0.204358 0.206076 0.207643 0.209057 0.210319 0.211428 0.212419 0.213325 0.214147 0.214883 0.215536 0.216103 0.216586 0.216985 0.217318 0.217608 0.217852 0.218053 0.218208 0.21832 0.218386 0.218409 0.218386 0.21832 0.218209 0.218053 0.217853 0.217608 0.217319 0.216985 0.216587 0.216104 0.215537 0.214884 0.214148 0.213326 0.21242 0.211429 0.21032 0.209059 0.207645 0.206078 0.20436 0.202488 0.200465 0.198289 0.195929 0.193353 0.190562 0.187555 0.184333 0.180894 0.177241 0.173371 0.169283 0.164972 0.16044 0.155686 0.150709 0.145511 0.14009 0.134448 0.128633 0.122697 0.116639 0.110459 0.104157 0.0977328 0.0911872 0.0845196 0.0777616 0.0709446 0.0640686 0.0571335 0.0501394 0.0430862 0.0359741 0.0288029 0.0220522 0.0162016 0.0112511 0.00720072 0.0040504 0.00180018 0.000450045 0 0 0.000612504 0.00245002 0.00551254 0.00980007 0.0153126 0.0220502 0.0300127 0.0392003 0.0489602 0.05864 0.0682395 0.0777587 0.0871978 0.0965566 0.105835 0.115034 0.124109 0.133018 0.141762 0.15034 0.158752 0.166998 0.175078 0.182992 0.190672 0.19805 0.205126 0.2119 0.218371 0.224541 0.230408 0.235973 0.24124 0.246213 0.250893 0.25528 0.259372 0.263172 0.266678 0.26989 0.272852 0.275606 0.278153 0.280493 0.282625 0.28455 0.286267 0.287777 0.289126 0.290359 0.291477 0.29248 0.293368 0.29414 0.294798 0.29534 0.295794 0.296188 0.296521 0.296794 0.297006 0.297157 0.297248 0.297278 0.297248 0.297157 0.297006 0.296794 0.296522 0.296189 0.295795 0.295341 0.294799 0.294142 0.293369 0.292482 0.291479 0.290361 0.289127 0.287779 0.286269 0.284552 0.282628 0.280496 0.278156 0.275609 0.272855 0.269893 0.266681 0.263175 0.259376 0.255283 0.250897 0.246217 0.241244 0.235977 0.230413 0.224546 0.218377 0.211905 0.205132 0.198056 0.190678 0.182998 0.175084 0.167004 0.158758 0.150346 0.141769 0.133025 0.124116 0.115041 0.105842 0.0965635 0.0872045 0.077765 0.0682453 0.0586452 0.0489647 0.0392039 0.0300155 0.0220522 0.015314 0.00980098 0.00551305 0.00245024 0.000612561 0 0 0.000800006 0.00320002 0.00720005 0.0128001 0.0200001 0.0288002 0.0392003 0.0512004 0.0639481 0.076591 0.0891291 0.101562 0.113891 0.126115 0.138234 0.150248 0.162101 0.173738 0.185158 0.196362 0.207349 0.218119 0.228673 0.23901 0.249041 0.258678 0.26792 0.276767 0.28522 0.293278 0.300941 0.308209 0.315089 0.321584 0.327697 0.333426 0.338772 0.343735 0.348314 0.352509 0.356378 0.359976 0.363302 0.366358 0.369143 0.371657 0.3739 0.375872 0.377634 0.379244 0.380705 0.382015 0.383174 0.384184 0.385042 0.38575 0.386344 0.386858 0.387293 0.387649 0.387926 0.388124 0.388242 0.388282 0.388243 0.388124 0.387926 0.38765 0.387294 0.386859 0.386345 0.385751 0.385043 0.384185 0.383176 0.382017 0.380707 0.379247 0.377636 0.375875 0.373903 0.37166 0.369146 0.366362 0.363306 0.359979 0.356382 0.352514 0.348318 0.343739 0.338777 0.333431 0.327702 0.32159 0.315094 0.308215 0.300947 0.293284 0.285227 0.276774 0.267927 0.258686 0.249049 0.239018 0.228681 0.218128 0.207358 0.196371 0.185167 0.173747 0.162111 0.150257 0.138243 0.126124 0.1139 0.101571 0.0891367 0.0765978 0.0639539 0.0512051 0.0392039 0.0288029 0.020002 0.0128013 0.00720072 0.00320032 0.00080008 0 0 0.000999187 0.00399675 0.00899269 0.015987 0.0249797 0.0359707 0.0489602 0.063948 0.0798691 0.0956583 0.111316 0.126841 0.142235 0.157497 0.172627 0.187625 0.202421 0.216946 0.2312 0.245183 0.258894 0.272334 0.285502 0.298399 0.310914 0.322935 0.334464 0.345498 0.35604 0.366089 0.375644 0.384705 0.393281 0.401379 0.408998 0.416138 0.4228 0.428983 0.434688 0.439915 0.444733 0.449213 0.453356 0.457161 0.460628 0.463757 0.466548 0.469002 0.471193 0.473197 0.475014 0.476643 0.478085 0.47934 0.480407 0.481287 0.482024 0.482663 0.483203 0.483646 0.48399 0.484236 0.484383 0.484432 0.484383 0.484236 0.48399 0.483646 0.483204 0.482664 0.482025 0.481288 0.480408 0.479341 0.478087 0.476645 0.475016 0.4732 0.471196 0.469005 0.466552 0.463761 0.460631 0.457165 0.45336 0.449218 0.444738 0.43992 0.434694 0.428989 0.422806 0.416145 0.409004 0.401386 0.393289 0.384713 0.375652 0.366097 0.356049 0.345507 0.334473 0.322945 0.310924 0.298409 0.285512 0.272344 0.258905 0.245194 0.231211 0.216958 0.202433 0.187636 0.172638 0.157508 0.142246 0.126851 0.111325 0.0956667 0.0798763 0.0639539 0.0489647 0.0359741 0.024982 0.0159885 0.00899352 0.00399712 0.00099928 0 0 0.00119673 0.00478692 0.0107706 0.0191477 0.0299182 0.0430823 0.0586398 0.0765907 0.0956581 0.114565 0.133311 0.151896 0.170321 0.188585 0.206689 0.224631 0.24233 0.259702 0.276746 0.293464 0.309854 0.325917 0.341653 0.357061 0.37201 0.386368 0.400134 0.413308 0.425891 0.437882 0.449282 0.46009 0.470316 0.47997 0.489051 0.497561 0.505498 0.512862 0.519655 0.525875 0.531608 0.536937 0.541864 0.546388 0.55051 0.554228 0.557543 0.560456 0.563056 0.565433 0.567588 0.56952 0.571229 0.572716 0.57398 0.575021 0.575893 0.576649 0.577288 0.577812 0.578219 0.578509 0.578684 0.578742 0.578684 0.57851 0.578219 0.577812 0.577289 0.57665 0.575895 0.575023 0.573982 0.572718 0.571232 0.569522 0.567591 0.565436 0.563059 0.56046 0.557547 0.554232 0.550514 0.546393 0.541869 0.536943 0.531613 0.525881 0.519661 0.512869 0.505505 0.497568 0.489059 0.479978 0.470325 0.460099 0.449291 0.437892 0.425901 0.413319 0.400145 0.386379 0.372022 0.357073 0.341665 0.325929 0.309867 0.293477 0.27676 0.259715 0.242344 0.224645 0.206702 0.188598 0.170334 0.151908 0.133322 0.114575 0.0956667 0.0765977 0.0586451 0.0430862 0.029921 0.0191494 0.0107716 0.00478736 0.00119684 0 0 0.00139263 0.00557053 0.0125337 0.0222821 0.0348158 0.0501348 0.068239 0.0891285 0.111315 0.13331 0.155115 0.176728 0.198149 0.21938 0.240419 0.261268 0.281828 0.302005 0.321797 0.341205 0.360229 0.378869 0.397125 0.414996 0.432331 0.448976 0.464931 0.480197 0.494773 0.508659 0.521856 0.534362 0.546192 0.557357 0.567858 0.577693 0.586865 0.595371 0.603213 0.610391 0.617003 0.623148 0.628828 0.634042 0.638789 0.64307 0.646885 0.650234 0.653221 0.655953 0.658427 0.660645 0.662607 0.664312 0.665761 0.666954 0.667951 0.668816 0.669548 0.670146 0.670612 0.670945 0.671144 0.671211 0.671144 0.670945 0.670613 0.670147 0.669549 0.668817 0.667953 0.666956 0.665764 0.664315 0.66261 0.660648 0.658431 0.655956 0.653225 0.650238 0.64689 0.643075 0.638794 0.634047 0.628834 0.623155 0.617009 0.610398 0.603221 0.595379 0.586873 0.577702 0.567867 0.557367 0.546202 0.534373 0.521866 0.50867 0.494784 0.480209 0.464944 0.448989 0.432344 0.41501 0.397139 0.378883 0.360244 0.34122 0.321812 0.30202 0.281844 0.261283 0.240435 0.219395 0.198164 0.176742 0.155127 0.133322 0.111325 0.0891366 0.0682452 0.0501393 0.034819 0.0222841 0.0125348 0.00557103 0.00139276 0 0 0.0015869 0.00634759 0.0142821 0.0253903 0.0396724 0.0571283 0.0777579 0.101561 0.12684 0.151895 0.176727 0.201335 0.22572 0.249881 0.273819 0.297534 0.320915 0.343855 0.366352 0.388407 0.41002 0.43119 0.451918 0.472204 0.491876 0.510759 0.528855 0.546164 0.562685 0.578419 0.593365 0.607523 0.62091 0.633541 0.645417 0.656537 0.666901 0.67651 0.685364 0.693462 0.700918 0.707846 0.714247 0.72012 0.725466 0.730283 0.734573 0.738336 0.74169 0.744755 0.747532 0.75002 0.752219 0.754129 0.755751 0.757084 0.758198 0.759164 0.759981 0.76065 0.76117 0.761542 0.761765 0.761839 0.761765 0.761542 0.761171 0.760651 0.759983 0.759166 0.7582 0.757086 0.755754 0.754132 0.752222 0.750023 0.747536 0.744759 0.741694 0.73834 0.734579 0.730289 0.725472 0.720127 0.714254 0.707854 0.700925 0.69347 0.685372 0.676519 0.666911 0.656547 0.645427 0.633552 0.620921 0.607535 0.593377 0.578431 0.562698 0.546178 0.52887 0.510774 0.491891 0.47222 0.451934 0.431206 0.410036 0.388423 0.366369 0.343872 0.320933 0.297551 0.273837 0.249899 0.225737 0.201351 0.176741 0.151908 0.126851 0.10157 0.0777649 0.0571334 0.0396759 0.0253926 0.0142833 0.00634815 0.00158704 0 0 0.00177952 0.00711808 0.0160157 0.0284723 0.044488 0.0640627 0.0871965 0.113889 0.142233 0.170319 0.198148 0.225719 0.253033 0.280089 0.306888 0.333429 0.359591 0.385252 0.410411 0.435069 0.459225 0.48288 0.506034 0.528686 0.550644 0.571718 0.591907 0.61121 0.629628 0.647161 0.663809 0.679572 0.694469 0.708522 0.721729 0.734091 0.745608 0.75628 0.766107 0.775088 0.783353 0.791031 0.798122 0.804624 0.81054 0.815868 0.820608 0.824761 0.828461 0.831841 0.834902 0.837643 0.840064 0.842167 0.843949 0.845412 0.846634 0.847694 0.84859 0.849323 0.849893 0.850301 0.850545 0.850627 0.850546 0.850301 0.849894 0.849324 0.848591 0.847695 0.846637 0.845415 0.843952 0.84217 0.840068 0.837647 0.834906 0.831846 0.828466 0.824767 0.820614 0.815874 0.810546 0.804631 0.798129 0.791039 0.783362 0.775097 0.766116 0.75629 0.745618 0.734102 0.72174 0.708533 0.694482 0.679585 0.663822 0.647175 0.629643 0.611225 0.591922 0.571734 0.550661 0.528703 0.506051 0.482898 0.459243 0.435087 0.41043 0.385271 0.359611 0.333449 0.306907 0.280108 0.253051 0.225736 0.198164 0.170333 0.142245 0.113899 0.0872042 0.0640684 0.0444919 0.0284748 0.0160171 0.00711871 0.00177968 0 0 0.00197051 0.00788202 0.0177346 0.0315281 0.0492626 0.0709382 0.0965548 0.126112 0.157494 0.188582 0.219377 0.249879 0.280088 0.310003 0.339626 0.368955 0.397856 0.426196 0.453975 0.481191 0.507846 0.533939 0.55947 0.58444 0.608637 0.631852 0.654085 0.675334 0.695602 0.714886 0.733189 0.750508 0.76687 0.782299 0.796794 0.810355 0.822984 0.834679 0.845441 0.85527 0.864309 0.872703 0.880451 0.887554 0.894012 0.899823 0.90499 0.909511 0.913535 0.91721 0.920537 0.923514 0.926144 0.928424 0.930356 0.931939 0.933259 0.934404 0.935372 0.936165 0.936781 0.937222 0.937486 0.937574 0.937486 0.937222 0.936782 0.936166 0.935374 0.934406 0.933262 0.931941 0.930359 0.928427 0.926147 0.923519 0.920541 0.917215 0.91354 0.909517 0.904996 0.89983 0.894019 0.887562 0.880459 0.872712 0.864318 0.85528 0.845451 0.83469 0.822995 0.810367 0.796806 0.782312 0.766884 0.750523 0.733203 0.714902 0.695618 0.675351 0.654102 0.63187 0.608655 0.584458 0.559489 0.533958 0.507866 0.481211 0.453995 0.426217 0.397877 0.368976 0.339647 0.310024 0.280108 0.249898 0.219395 0.188598 0.157507 0.126123 0.0965631 0.0709443 0.0492669 0.0315308 0.0177361 0.0078827 0.00197068 0 0 0.00215985 0.00863941 0.0194387 0.0345576 0.0539963 0.0777547 0.105833 0.13823 0.172623 0.206684 0.240415 0.273816 0.306885 0.339624 0.372032 0.40411 0.435711 0.466688 0.497043 0.526774 0.555882 0.584367 0.612228 0.639467 0.665854 0.691162 0.71539 0.738538 0.760606 0.781595 0.801504 0.820333 0.838113 0.854872 0.870611 0.885331 0.89903 0.911709 0.923368 0.934007 0.943785 0.952861 0.961236 0.968909 0.975881 0.98215 0.987718 0.992585 0.996912 1.00086 1.00444 1.00764 1.01046 1.0129 1.01497 1.01666 1.01807 1.0193 1.02033 1.02118 1.02183 1.0223 1.02259 1.02268 1.02259 1.0223 1.02183 1.02118 1.02033 1.0193 1.01808 1.01667 1.01497 1.01291 1.01046 1.00764 1.00444 1.00087 0.996917 0.992591 0.987725 0.982157 0.975888 0.968917 0.961245 0.952871 0.943795 0.934017 0.923379 0.91172 0.899042 0.885343 0.870625 0.854886 0.838127 0.820348 0.80152 0.781611 0.760623 0.738555 0.715408 0.691181 0.665874 0.639487 0.612249 0.584388 0.555903 0.526795 0.497065 0.46671 0.435733 0.404133 0.372055 0.339646 0.306907 0.273836 0.240434 0.206701 0.172637 0.138242 0.105842 0.0777612 0.0540009 0.0345605 0.0194403 0.00864014 0.00216003 0 0 0.00234756 0.00939023 0.021128 0.0375609 0.0586889 0.0845121 0.11503 0.150244 0.18762 0.224626 0.261262 0.297528 0.333425 0.368951 0.404108 0.438895 0.473154 0.506727 0.539615 0.571817 0.603333 0.634163 0.664308 0.693767 0.722295 0.749647 0.775821 0.80082 0.824641 0.847286 0.868754 0.889046 0.908197 0.926242 0.943182 0.959016 0.973745 0.987369 0.999887 1.0113 1.02178 1.03151 1.04048 1.04869 1.05615 1.06285 1.06879 1.07398 1.07859 1.0828 1.0866 1.09 1.093 1.0956 1.09779 1.09959 1.10108 1.10237 1.10346 1.10436 1.10505 1.10555 1.10585 1.10595 1.10585 1.10555 1.10505 1.10436 1.10346 1.10237 1.10108 1.09959 1.0978 1.0956 1.09301 1.09001 1.08661 1.0828 1.0786 1.07399 1.0688 1.06286 1.05616 1.0487 1.04049 1.03152 1.02179 1.01131 0.999898 0.987381 0.973758 0.95903 0.943196 0.926257 0.908212 0.889062 0.868771 0.847304 0.824659 0.800838 0.775841 0.749667 0.722316 0.693789 0.66433 0.634186 0.603356 0.57184 0.539638 0.506751 0.473178 0.438919 0.404132 0.368975 0.333448 0.29755 0.261282 0.224644 0.187635 0.150256 0.11504 0.0845191 0.0586938 0.037564 0.0211298 0.00939101 0.00234775 0 0 0.00253275 0.010131 0.0227948 0.040524 0.0633188 0.0911791 0.124105 0.162096 0.202415 0.242323 0.281821 0.320908 0.359585 0.397851 0.435707 0.473152 0.510017 0.546133 0.581499 0.616117 0.649984 0.683103 0.715472 0.747092 0.777701 0.807036 0.835099 0.861888 0.887405 0.911648 0.934618 0.956316 0.976782 0.996059 1.01415 1.03105 1.04676 1.06128 1.07461 1.08675 1.09789 1.10823 1.11776 1.12648 1.13439 1.14149 1.14778 1.15326 1.15813 1.16257 1.16658 1.17017 1.17333 1.17606 1.17837 1.18024 1.1818 1.18316 1.1843 1.18524 1.18597 1.18649 1.1868 1.1869 1.1868 1.18649 1.18597 1.18524 1.1843 1.18316 1.18181 1.18025 1.17837 1.17606 1.17333 1.17017 1.16659 1.16258 1.15814 1.15327 1.14779 1.1415 1.13439 1.12648 1.11777 1.10824 1.09791 1.08676 1.07462 1.06129 1.04677 1.03106 1.01416 0.996075 0.976798 0.956333 0.934636 0.911667 0.887424 0.861908 0.83512 0.807058 0.777723 0.747115 0.715495 0.683127 0.650009 0.616141 0.581524 0.546158 0.510042 0.473177 0.435732 0.397876 0.359609 0.320931 0.281842 0.242342 0.202431 0.162109 0.124115 0.0911865 0.0633239 0.0405273 0.0227966 0.0101318 0.00253296 0 0 0.00271456 0.0108582 0.024431 0.043433 0.067864 0.0977242 0.133013 0.173732 0.216939 0.259693 0.301996 0.343846 0.385243 0.426189 0.466682 0.506723 0.546131 0.584724 0.622504 0.65947 0.695621 0.730959 0.765483 0.799193 0.831811 0.86306 0.892941 0.921452 0.948595 0.974369 0.998774 1.02181 1.04353 1.06397 1.08315 1.10105 1.11769 1.13305 1.14714 1.15996 1.17172 1.18262 1.19266 1.20185 1.21017 1.21764 1.22424 1.22999 1.23509 1.23973 1.24393 1.24768 1.25098 1.25383 1.25623 1.25818 1.2598 1.2612 1.26238 1.26336 1.26411 1.26465 1.26497 1.26508 1.26497 1.26465 1.26411 1.26336 1.26239 1.2612 1.2598 1.25818 1.25623 1.25383 1.25098 1.24768 1.24394 1.23974 1.2351 1.23 1.22425 1.21764 1.21018 1.20186 1.19267 1.18263 1.17173 1.15998 1.14716 1.13306 1.1177 1.10107 1.08316 1.06399 1.04354 1.02183 0.998793 0.974389 0.948616 0.921473 0.892963 0.863083 0.831834 0.799216 0.765507 0.730984 0.695647 0.659496 0.62253 0.584751 0.546157 0.50675 0.466709 0.426215 0.385269 0.34387 0.302018 0.259713 0.216956 0.173746 0.133024 0.097732 0.0678694 0.0434364 0.024433 0.0108591 0.00271478 0 0 0.00289298 0.0115719 0.0260369 0.0462877 0.0723246 0.104147 0.141756 0.185151 0.231191 0.276736 0.321786 0.366341 0.4104 0.453965 0.497034 0.539608 0.581495 0.622502 0.662629 0.701876 0.740244 0.777732 0.81434 0.850069 0.884626 0.917718 0.949347 0.979512 1.00821 1.03545 1.06122 1.08553 1.10843 1.12998 1.15018 1.16904 1.18654 1.20269 1.21749 1.23094 1.24327 1.25468 1.26519 1.2748 1.2835 1.2913 1.29819 1.30417 1.30946 1.31429 1.31865 1.32253 1.32595 1.3289 1.33138 1.33339 1.33505 1.33649 1.33771 1.33871 1.33949 1.34004 1.34037 1.34048 1.34037 1.34004 1.33949 1.33871 1.33771 1.33649 1.33505 1.33339 1.33138 1.3289 1.32596 1.32254 1.31865 1.3143 1.30947 1.30418 1.29819 1.2913 1.28351 1.27481 1.26521 1.25469 1.24328 1.23095 1.2175 1.2027 1.18655 1.16905 1.1502 1.13 1.10845 1.08555 1.06124 1.03547 1.00823 0.979534 0.94937 0.917742 0.88465 0.850094 0.814366 0.777758 0.740271 0.701903 0.662656 0.622529 0.581523 0.539636 0.497062 0.453992 0.410427 0.366366 0.321809 0.276757 0.231209 0.185165 0.141767 0.104156 0.0723302 0.0462913 0.0260389 0.0115728 0.00289321 0 0 0.00306802 0.0122721 0.0276122 0.0490884 0.0767006 0.110449 0.150333 0.196353 0.245172 0.293452 0.341192 0.388394 0.435056 0.481179 0.526763 0.571808 0.616109 0.659465 0.701874 0.743336 0.783852 0.823422 0.862045 0.899721 0.936145 0.971011 1.00432 1.03607 1.06626 1.09489 1.12196 1.14748 1.1715 1.19409 1.21526 1.235 1.25331 1.27019 1.28565 1.29968 1.31252 1.32441 1.33535 1.34534 1.35438 1.36247 1.3696 1.37579 1.38126 1.38624 1.39073 1.39473 1.39825 1.40128 1.40382 1.40587 1.40757 1.40904 1.41028 1.4113 1.41209 1.41266 1.41299 1.41311 1.413 1.41266 1.41209 1.4113 1.41028 1.40904 1.40757 1.40587 1.40382 1.40128 1.39825 1.39474 1.39073 1.38624 1.38126 1.3758 1.36961 1.36248 1.35439 1.34535 1.33536 1.32442 1.31253 1.29969 1.28567 1.27021 1.25332 1.23501 1.21527 1.19411 1.17152 1.14749 1.12198 1.09491 1.06628 1.03609 1.00434 0.971035 0.93617 0.899747 0.862071 0.823449 0.78388 0.743364 0.701902 0.659494 0.616138 0.571837 0.526792 0.481207 0.435083 0.38842 0.341216 0.293473 0.245191 0.196368 0.150345 0.110457 0.0767064 0.0490921 0.0276143 0.012273 0.00306826 0 0 0.00323968 0.0129587 0.0291571 0.0518348 0.0809919 0.116628 0.158744 0.207339 0.258882 0.30984 0.360215 0.410004 0.45921 0.507831 0.555868 0.603321 0.649975 0.695614 0.740239 0.78385 0.826446 0.868028 0.908596 0.948149 0.986369 1.02294 1.05785 1.09112 1.12273 1.15269 1.18099 1.20765 1.23272 1.2563 1.27837 1.29894 1.318 1.33556 1.35163 1.36618 1.37949 1.39181 1.40313 1.41347 1.4228 1.43115 1.4385 1.44486 1.45047 1.45557 1.46017 1.46427 1.46787 1.47096 1.47354 1.47563 1.47734 1.47883 1.48009 1.48112 1.48192 1.4825 1.48284 1.48295 1.48284 1.4825 1.48193 1.48112 1.48009 1.47884 1.47735 1.47563 1.47355 1.47096 1.46787 1.46428 1.46018 1.45558 1.45047 1.44486 1.43851 1.43116 1.42281 1.41348 1.40315 1.39182 1.37951 1.3662 1.35164 1.33558 1.31802 1.29895 1.27838 1.25631 1.23274 1.20767 1.18101 1.15271 1.12275 1.09114 1.05788 1.02296 0.986395 0.948176 0.908623 0.868056 0.826474 0.783878 0.740268 0.695644 0.650005 0.603351 0.555898 0.507861 0.459238 0.410031 0.360239 0.309862 0.258901 0.207355 0.158756 0.116637 0.0809979 0.0518386 0.0291592 0.0129597 0.00323992 0 0 0.00340794 0.0136318 0.0306715 0.0545271 0.0851986 0.122686 0.166989 0.218108 0.27232 0.325902 0.378852 0.431173 0.482863 0.533922 0.584351 0.634149 0.683091 0.730949 0.777724 0.823416 0.868025 0.911551 0.953993 0.995353 1.0353 1.0735 1.10995 1.14466 1.17762 1.20884 1.23831 1.26604 1.29211 1.3166 1.33951 1.36085 1.38061 1.3988 1.41541 1.43045 1.44418 1.45688 1.46854 1.47917 1.48877 1.49734 1.50487 1.51137 1.51709 1.5223 1.52699 1.53116 1.53481 1.53794 1.54056 1.54266 1.54439 1.54588 1.54715 1.54818 1.54899 1.54956 1.54991 1.55002 1.54991 1.54956 1.54899 1.54818 1.54715 1.54588 1.54439 1.54266 1.54057 1.53795 1.53482 1.53116 1.52699 1.52231 1.5171 1.51138 1.50488 1.49735 1.48878 1.47919 1.46855 1.45689 1.44419 1.43046 1.41543 1.39882 1.38063 1.36087 1.33953 1.31662 1.29213 1.26606 1.23834 1.20886 1.17765 1.14468 1.10998 1.07352 1.03532 0.99538 0.954021 0.911579 0.868054 0.823446 0.777754 0.730979 0.683121 0.63418 0.584381 0.533952 0.482892 0.4312 0.378878 0.325924 0.27234 0.218124 0.167001 0.122695 0.0852047 0.054531 0.0306737 0.0136328 0.00340819 0 0 0.00357283 0.0142913 0.0321554 0.0571652 0.0893207 0.128622 0.175069 0.228661 0.285487 0.341636 0.397106 0.451899 0.506014 0.559451 0.61221 0.664291 0.715457 0.76547 0.81433 0.862036 0.90859 0.953991 0.998238 1.04133 1.08293 1.12269 1.16062 1.1967 1.23095 1.26336 1.29393 1.32266 1.34965 1.375 1.39869 1.42074 1.44115 1.4599 1.47701 1.49248 1.50658 1.51961 1.53158 1.54247 1.55229 1.56104 1.56872 1.57533 1.58114 1.58642 1.59117 1.59539 1.59908 1.60224 1.60487 1.60697 1.60869 1.61018 1.61145 1.61248 1.61328 1.61386 1.6142 1.61431 1.6142 1.61386 1.61328 1.61248 1.61145 1.61019 1.60869 1.60697 1.60487 1.60224 1.59908 1.59539 1.59117 1.58642 1.58115 1.57534 1.56873 1.56105 1.5523 1.54248 1.53159 1.51963 1.50659 1.49249 1.47703 1.45992 1.44116 1.42076 1.39871 1.37502 1.34967 1.32268 1.29395 1.26338 1.23097 1.19673 1.16064 1.12272 1.08296 1.04136 0.998267 0.95402 0.90862 0.862067 0.81436 0.765501 0.715488 0.664323 0.612241 0.559481 0.506043 0.451927 0.397132 0.341659 0.285507 0.228677 0.175081 0.128631 0.0893269 0.0571692 0.0321577 0.0142923 0.00357308 0 0 0.00373432 0.0149373 0.0336089 0.0597492 0.0933581 0.134436 0.182982 0.238997 0.298383 0.357042 0.414976 0.472183 0.528664 0.584418 0.639446 0.693748 0.747074 0.799177 0.850055 0.89971 0.94814 0.995347 1.04133 1.08609 1.12927 1.17052 1.20984 1.24724 1.2827 1.31623 1.34783 1.37751 1.40536 1.43149 1.45591 1.47861 1.4996 1.51887 1.53643 1.55227 1.5667 1.58002 1.59224 1.60335 1.61335 1.62225 1.63005 1.63674 1.6426 1.64793 1.65271 1.65696 1.66067 1.66384 1.66646 1.66855 1.67026 1.67174 1.67299 1.67401 1.67481 1.67537 1.67571 1.67583 1.67572 1.67537 1.67481 1.67401 1.67299 1.67174 1.67026 1.66856 1.66647 1.66384 1.66067 1.65697 1.65272 1.64793 1.64261 1.63674 1.63006 1.62226 1.61336 1.60336 1.59225 1.58003 1.56671 1.55228 1.53644 1.51889 1.49962 1.47863 1.45593 1.43151 1.40538 1.37753 1.34786 1.31625 1.28272 1.24726 1.20987 1.17055 1.1293 1.08612 1.04136 0.995377 0.948171 0.899741 0.850086 0.799208 0.747106 0.69378 0.639478 0.584449 0.528693 0.472211 0.415002 0.357066 0.298403 0.239013 0.182994 0.134445 0.0933644 0.0597532 0.0336112 0.0149383 0.00373458 0 0 0.00389105 0.0155642 0.0350194 0.0622567 0.0972761 0.140078 0.190661 0.249027 0.310896 0.37199 0.432309 0.491852 0.55062 0.608613 0.665831 0.722273 0.77768 0.831792 0.884609 0.936131 0.986357 1.03529 1.08293 1.12927 1.17395 1.21661 1.25726 1.29588 1.33248 1.36707 1.39963 1.43018 1.45882 1.48568 1.51076 1.53405 1.55557 1.5753 1.59325 1.60942 1.62412 1.63769 1.65012 1.66142 1.67157 1.68058 1.68846 1.6952 1.7011 1.70645 1.71125 1.7155 1.71921 1.72237 1.72498 1.72704 1.72872 1.73017 1.73141 1.73241 1.7332 1.73376 1.73409 1.7342 1.73409 1.73376 1.7332 1.73241 1.73141 1.73018 1.72872 1.72705 1.72498 1.72237 1.71921 1.71551 1.71125 1.70645 1.70111 1.69521 1.68847 1.68059 1.67158 1.66143 1.65013 1.6377 1.62414 1.60943 1.59326 1.57531 1.55558 1.53407 1.51078 1.4857 1.45884 1.4302 1.39965 1.36709 1.33251 1.29591 1.25728 1.21664 1.17398 1.1293 1.08295 1.03532 0.986388 0.936162 0.884641 0.831824 0.777712 0.722305 0.665863 0.608644 0.55065 0.49188 0.432335 0.372013 0.310916 0.249043 0.190674 0.140087 0.0972825 0.0622608 0.0350217 0.0155652 0.0038913 0 0 0.0040416 0.0161664 0.0363744 0.0646656 0.10104 0.145498 0.198038 0.258662 0.322916 0.386346 0.448952 0.510733 0.571691 0.631825 0.691135 0.749622 0.807013 0.863039 0.917699 0.970993 1.02292 1.07349 1.12268 1.17052 1.21661 1.2606 1.30248 1.34225 1.37992 1.41547 1.44892 1.48026 1.50963 1.53715 1.56282 1.58665 1.60864 1.62878 1.64707 1.66352 1.67846 1.69223 1.70484 1.71628 1.72654 1.73565 1.74358 1.75034 1.75625 1.7616 1.76639 1.77064 1.77432 1.77746 1.78004 1.78207 1.78371 1.78514 1.78634 1.78732 1.78809 1.78864 1.78897 1.78908 1.78897 1.78864 1.78809 1.78733 1.78634 1.78514 1.78372 1.78207 1.78005 1.77746 1.77433 1.77064 1.7664 1.7616 1.75625 1.75035 1.74359 1.73566 1.72656 1.71629 1.70485 1.69225 1.67847 1.66353 1.64709 1.62879 1.60866 1.58