<?xml version="1.0"?> 
<VTKFile type="StructuredGrid" version="0.1"> 
<StructuredGrid WholeExtent="0 128 0 128 0 0"> 
<Piece Extent="0 128 0 128 0 0"> 
<PointData>
<DataArray type="Float32" Name="u" format="ascii" NumberOfComponents="1"> 
0 0 0 0 0 0 0 0 0 0 0 0 0 0 0 0 0 0 0 0 0 0 0 0 0 0 0 0 0 0 0 0 0 0 0 0 0 0 0 0 0 0 0 0 0 0 0 0 0 0 0 0 0 0 0 0 0 0 0 0 0 0 0 0 0 0 0 0 0 0 0 0 0 0 0 0 0 0 0 0 0 0 0 0 0 0 0 0 0 0 0 0 0 0 0 0 0 0 0 0 0 0 0 0 0 0 0 0 0 0 0 0 0 0 0 0 0 0 0 0 0 0 0 0 0 0 0 0 0 0 1.08602e-05 4.34409e-05 9.77421e-05 0.000173764 0.000271506 0.000390968 0.000532151 0.000695055 0.000868395 0.00104089 0.00121253 0.00138332 0.00155327 0.00172237 0.00189062 0.00205802 0.00222386 0.00238742 0.00254871 0.00270773 0.00286446 0.00301893 0.00317111 0.00332103 0.00346735 0.00360877 0.0037453 0.00387692 0.00400364 0.00412546 0.00424238 0.0043544 0.00446139 0.00456323 0.00465992 0.00475146 0.00483785 0.00491908 0.00499517 0.0050661 0.00513247 0.00519485 0.00525326 0.00530768 0.00535812 0.00540458 0.00544706 0.00548555 0.00552078 0.00555346 0.0055836 0.00561118 0.00563621 0.00565869 0.00567863 0.00569601 0.00571129 0.00572491 0.00573688 0.00574719 0.00575583 0.00576283 0.00576816 0.00577183 0.00577384 0.00577418 0.00577284 0.00576983 0.00576515 0.0057588 0.00575077 0.00574107 0.00572922 0.00571476 0.00569767 0.00567797 0.00565564 0.0056307 0.00560313 0.00557295 0.00553937 0.00550162 0.0054597 0.00541361 0.00536336 0.00530893 0.00525033 0.00518757 0.00511997 0.00504686 0.00496825 0.00488414 0.00479453 0.00469941 0.00459879 0.00449267 0.00438111 0.00426419 0.0041419 0.00401424 0.00388121 0.00374281 0.00359905 0.00344992 0.00329677 0.00314094 0.00298245 0.00282129 0.00265746 0.00249096 0.00232178 0.00214994 0.0019762 0.00180134 0.00162535 0.00144825 0.00127002 0.00109067 0.000910204 0.000728612 0.000557843 0.000409844 0.000284614 0.000182153 0.000102461 4.55382e-05 1.13846e-05 0 0 4.34409e-05 0.000173764 0.000390968 0.000695055 0.00108602 0.00156387 0.00212861 0.00278022 0.00347358 0.00416354 0.00485012 0.00553329 0.00621308 0.00688947 0.00756247 0.00823208 0.00889544 0.00954969 0.0101948 0.0108309 0.0114579 0.0120757 0.0126845 0.0132841 0.0138694 0.0144351 0.0149812 0.0155077 0.0160146 0.0165018 0.0169695 0.0174176 0.0178456 0.0182529 0.0186397 0.0190058 0.0193514 0.0196763 0.0199807 0.0202644 0.0205299 0.0207794 0.021013 0.0212307 0.0214325 0.0216183 0.0217882 0.0219422 0.0220831 0.0222139 0.0223344 0.0224447 0.0225448 0.0226348 0.0227145 0.022784 0.0228452 0.0228997 0.0229475 0.0229887 0.0230233 0.0230513 0.0230726 0.0230873 0.0230954 0.0230967 0.0230914 0.0230793 0.0230606 0.0230352 0.0230031 0.0229643 0.0229169 0.022859 0.0227907 0.0227119 0.0226226 0.0225228 0.0224125 0.0222918 0.0221575 0.0220065 0.0218388 0.0216545 0.0214534 0.0212357 0.0210013 0.0207503 0.0204799 0.0201874 0.019873 0.0195366 0.0191781 0.0187977 0.0183952 0.0179707 0.0175245 0.0170568 0.0165676 0.0160569 0.0155248 0.0149712 0.0143962 0.0137997 0.0131871 0.0125638 0.0119298 0.0112852 0.0106298 0.00996383 0.00928713 0.00859976 0.0079048 0.00720535 0.00650142 0.005793 0.00508009 0.0043627 0.00364081 0.00291445 0.00223137 0.00163938 0.00113846 0.000728612 0.000409844 0.000182153 4.55382e-05 0 0 9.77421e-05 0.000390968 0.000879679 0.00156387 0.00244355 0.00351872 0.00478936 0.00625549 0.00781555 0.00936797 0.0109128 0.0124499 0.0139794 0.0155013 0.0170156 0.0185222 0.0200147 0.0214868 0.0229384 0.0243695 0.0257802 0.0271703 0.02854 0.0298892 0.0312062 0.032479 0.0337077 0.0348923 0.0360328 0.0371291 0.0381814 0.0391896 0.0401525 0.0410691 0.0419393 0.0427631 0.0435406 0.0442718 0.0449565 0.0455949 0.0461922 0.0467537 0.0472793 0.0477691 0.0482231 0.0486412 0.0490235 0.04937 0.0496871 0.0499812 0.0502524 0.0505006 0.0507259 0.0509282 0.0511076 0.0512641 0.0514016 0.0515242 0.0516319 0.0517247 0.0518025 0.0518654 0.0519134 0.0519465 0.0519646 0.0519676 0.0519556 0.0519285 0.0518864 0.0518292 0.0517569 0.0516696 0.051563 0.0514328 0.0512791 0.0511017 0.0509008 0.0506763 0.0504282 0.0501565 0.0498543 0.0495146 0.0491373 0.0487225 0.0482702 0.0477804 0.047253 0.0466881 0.0460797 0.0454218 0.0447143 0.0439573 0.0431508 0.0422947 0.0413892 0.0404341 0.03943 0.0383777 0.0372771 0.0361281 0.0349309 0.0336853 0.0323914 0.0310492 0.0296709 0.0282685 0.0268421 0.0253916 0.0239171 0.0224186 0.020896 0.0193495 0.0177858 0.016212 0.0146282 0.0130342 0.0114302 0.00981606 0.00819183 0.0065575 0.00502059 0.0036886 0.00256152 0.00163938 0.000922149 0.000409844 0.000102461 0 0 0.000173764 0.000695055 0.00156387 0.00278022 0.00434409 0.00625549 0.00851442 0.0111209 0.0138943 0.0166542 0.0194005 0.0221332 0.0248523 0.0275579 0.0302499 0.0329283 0.0355817 0.0381988 0.0407794 0.0433236 0.0458314 0.0483028 0.0507378 0.0531364 0.0554776 0.0577404 0.0599247 0.0620307 0.0640582 0.0660073 0.0678781 0.0696704 0.0713822 0.0730117 0.0745587 0.0760234 0.0774056 0.0787053 0.0799227 0.0810576 0.0821195 0.0831177 0.0840521 0.0849229 0.0857299 0.0864733 0.0871529 0.0877689 0.0883325 0.0888554 0.0893375 0.0897789 0.0901794 0.0905391 0.090858 0.0911362 0.0913807 0.0915986 0.0917901 0.091955 0.0920934 0.0922052 0.0922905 0.0923493 0.0923815 0.0923869 0.0923655 0.0923173 0.0922424 0.0921408 0.0920123 0.0918571 0.0916676 0.0914361 0.0911628 0.0908475 0.0904903 0.0900912 0.0896501 0.0891672 0.0886299 0.0880259 0.0873552 0.0866178 0.0858137 0.0849429 0.0840053 0.0830011 0.0819195 0.0807498 0.0794921 0.0781463 0.0767125 0.0751906 0.0735807 0.0718828 0.0700978 0.068227 0.0662703 0.0642278 0.0620993 0.059885 0.0575848 0.0551987 0.0527483 0.0502551 0.0477193 0.0451407 0.0425193 0.0398553 0.0371485 0.034399 0.0316192 0.0288214 0.0260057 0.023172 0.0203204 0.0174508 0.0145633 0.0116578 0.00892549 0.0065575 0.00455382 0.00291445 0.00163938 0.000728612 0.000182153 0 0 0.000271506 0.00108602 0.00244355 0.00434409 0.00678765 0.00977421 0.0133038 0.0173764 0.0217099 0.0260221 0.0303132 0.0345831 0.0388317 0.0430592 0.0472654 0.0514505 0.0555965 0.0596856 0.0637178 0.0676931 0.0716116 0.0754732 0.0792779 0.0830257 0.0866838 0.0902193 0.0936324 0.096923 0.100091 0.103136 0.106059 0.10886 0.111535 0.114081 0.116498 0.118787 0.120946 0.122977 0.124879 0.126653 0.128312 0.129871 0.131331 0.132692 0.133953 0.135115 0.136176 0.137139 0.13802 0.138837 0.13959 0.140279 0.140905 0.141467 0.141966 0.1424 0.142782 0.143123 0.143422 0.14368 0.143896 0.144071 0.144204 0.144296 0.144346 0.144354 0.144321 0.144246 0.144129 0.14397 0.143769 0.143527 0.143231 0.142869 0.142442 0.141949 0.141391 0.140767 0.140078 0.139324 0.138484 0.13754 0.136493 0.13534 0.134084 0.132723 0.131258 0.129689 0.127999 0.126172 0.124206 0.122104 0.119863 0.117485 0.11497 0.112317 0.109528 0.106605 0.103547 0.100356 0.0970302 0.0935703 0.0899762 0.0862479 0.0824191 0.0785236 0.0745613 0.0705323 0.0664365 0.0622739 0.0580446 0.0537485 0.049405 0.0450334 0.0406339 0.0362062 0.0317506 0.0272668 0.0227551 0.0182153 0.0139461 0.0102461 0.00711535 0.00455382 0.00256152 0.00113846 0.000284614 0 0 0.000390968 0.00156387 0.00351872 0.00625549 0.00977421 0.0140749 0.0191575 0.025022 0.0312622 0.0374719 0.043651 0.0497996 0.0559177 0.0620052 0.0680622 0.0740887 0.0800589 0.0859472 0.0917536 0.0974781 0.103121 0.108681 0.11416 0.119557 0.124825 0.129916 0.134831 0.139569 0.144131 0.148517 0.152726 0.156758 0.16061 0.164276 0.167757 0.171053 0.174163 0.177087 0.179826 0.18238 0.184769 0.187015 0.189117 0.191076 0.192892 0.194565 0.196094 0.19748 0.198748 0.199925 0.201009 0.202002 0.202904 0.203713 0.204431 0.205056 0.205607 0.206097 0.206528 0.206899 0.20721 0.207462 0.207654 0.207786 0.207858 0.20787 0.207822 0.207714 0.207545 0.207317 0.207028 0.206679 0.206252 0.205731 0.205116 0.204407 0.203603 0.202705 0.201713 0.200626 0.199417 0.198058 0.196549 0.19489 0.193081 0.191121 0.189012 0.186752 0.184319 0.181687 0.178857 0.175829 0.172603 0.169179 0.165557 0.161736 0.15772 0.153511 0.149108 0.144512 0.139723 0.134741 0.129566 0.124197 0.118684 0.113074 0.107368 0.101566 0.0956685 0.0896744 0.0835842 0.0773978 0.0711432 0.0648482 0.0585128 0.052137 0.0457208 0.0392643 0.0327673 0.02623 0.0200824 0.0147544 0.0102461 0.0065575 0.0036886 0.00163938 0.000409844 0 0 0.000532151 0.00212861 0.00478936 0.00851442 0.0133038 0.0191575 0.0260754 0.0340577 0.0425513 0.0510034 0.0594139 0.0677829 0.0761102 0.084396 0.0926403 0.100843 0.108969 0.116984 0.124887 0.132679 0.140359 0.147927 0.155385 0.16273 0.1699 0.17683 0.18352 0.189969 0.196178 0.202148 0.207877 0.213365 0.218608 0.223598 0.228336 0.232822 0.237055 0.241035 0.244763 0.248239 0.251491 0.254548 0.25741 0.260076 0.262548 0.264824 0.266906 0.268792 0.270518 0.27212 0.273596 0.274948 0.276174 0.277276 0.278253 0.279105 0.279853 0.280521 0.281107 0.281612 0.282036 0.282378 0.28264 0.28282 0.282918 0.282935 0.282869 0.282722 0.282492 0.282181 0.281788 0.281312 0.280732 0.280023 0.279186 0.27822 0.277126 0.275904 0.274553 0.273074 0.271429 0.269579 0.267525 0.265267 0.262804 0.260138 0.257266 0.254191 0.250878 0.247296 0.243444 0.239323 0.234932 0.230271 0.225341 0.220141 0.214675 0.208945 0.202953 0.196698 0.190179 0.183398 0.176353 0.169046 0.161542 0.153906 0.14614 0.138243 0.130215 0.122057 0.113767 0.105347 0.0968338 0.0882655 0.0796424 0.0709642 0.0622311 0.053443 0.0446 0.035702 0.0273343 0.0200824 0.0139461 0.00892549 0.00502059 0.00223137 0.000557843 0 0 0.000695055 0.00278022 0.00625549 0.0111209 0.0173764 0.025022 0.0340577 0.0444835 0.0555773 0.0666167 0.0776018 0.0885327 0.0994093 0.110232 0.121 0.131713 0.142327 0.152795 0.163118 0.173294 0.183326 0.193211 0.202951 0.212546 0.22191 0.230962 0.239699 0.248123 0.256233 0.264029 0.271512 0.278681 0.285529 0.292047 0.298235 0.304093 0.309622 0.314821 0.319691 0.324231 0.328478 0.332471 0.336209 0.339692 0.34292 0.345893 0.348612 0.351075 0.35333 0.355422 0.35735 0.359115 0.360717 0.362156 0.363432 0.364545 0.365523 0.366395 0.36716 0.36782 0.368373 0.368821 0.369162 0.369397 0.369526 0.369547 0.369462 0.369269 0.36897 0.368563 0.368049 0.367429 0.36667 0.365745 0.364651 0.36339 0.361961 0.360365 0.3586 0.356669 0.35452 0.352104 0.349421 0.346471 0.343255 0.339772 0.336021 0.332004 0.327678 0.322999 0.317968 0.312585 0.30685 0.300762 0.294323 0.287531 0.280391 0.272908 0.265081 0.256911 0.248397 0.23954 0.230339 0.220795 0.210993 0.20102 0.190877 0.180563 0.170077 0.159421 0.148594 0.137596 0.126477 0.115286 0.104023 0.092688 0.0812814 0.0698031 0.058253 0.0466311 0.035702 0.02623 0.0182153 0.0116578 0.0065575 0.00291445 0.000728612 0 0 0.000868386 0.00347354 0.00781547 0.0138942 0.0217096 0.0312619 0.0425509 0.0555767 0.0694365 0.0832276 0.0969499 0.110603 0.124188 0.137704 0.151152 0.16453 0.177783 0.190853 0.203741 0.216446 0.228968 0.241307 0.253464 0.265438 0.277124 0.288418 0.29932 0.30983 0.319948 0.329673 0.339006 0.347947 0.356485 0.364612 0.372328 0.379631 0.386523 0.393003 0.399072 0.404729 0.41002 0.414994 0.419651 0.423989 0.42801 0.431712 0.435097 0.438164 0.440971 0.443574 0.445974 0.448171 0.450164 0.451954 0.453541 0.454925 0.456142 0.457226 0.458178 0.458999 0.459687 0.460244 0.460668 0.460961 0.461121 0.461148 0.461041 0.460802 0.46043 0.459924 0.459285 0.458513 0.457571 0.456419 0.455059 0.453489 0.451712 0.449725 0.447529 0.445125 0.44245 0.439442 0.436101 0.432428 0.428422 0.424083 0.419411 0.414407 0.409016 0.403185 0.396915 0.390205 0.383056 0.375466 0.367437 0.358968 0.350065 0.340732 0.33097 0.320778 0.310157 0.299106 0.287625 0.275716 0.263484 0.251038 0.238378 0.225503 0.212415 0.199112 0.185595 0.171863 0.157979 0.144004 0.129939 0.115783 0.101537 0.0872001 0.0727724 0.0582542 0.0446009 0.032768 0.0227555 0.0145635 0.008192 0.00364089 0.000910222 0 0 0.00104085 0.00416341 0.00936766 0.0166536 0.0260213 0.0374707 0.0510017 0.0666145 0.0832256 0.0997518 0.116193 0.132549 0.148821 0.165007 0.181108 0.197125 0.212988 0.228631 0.244052 0.259252 0.274231 0.288988 0.303525 0.31784 0.33181 0.345308 0.358335 0.37089 0.382975 0.394588 0.40573 0.416401 0.42659 0.436286 0.445489 0.454198 0.462415 0.470139 0.47737 0.484107 0.490409 0.49633 0.501873 0.507036 0.511819 0.516223 0.520247 0.523892 0.527227 0.530319 0.533169 0.535778 0.538145 0.54027 0.542153 0.543795 0.545237 0.546523 0.547652 0.548625 0.549441 0.550101 0.550605 0.550952 0.551142 0.551174 0.551049 0.550765 0.550324 0.549725 0.548968 0.548054 0.546936 0.54557 0.543956 0.542093 0.539982 0.537623 0.535015 0.532159 0.528981 0.525405 0.521432 0.517062 0.512295 0.50713 0.501569 0.495611 0.48919 0.482244 0.474772 0.466773 0.458248 0.449196 0.439619 0.429515 0.41889 0.40775 0.396094 0.383923 0.371236 0.358033 0.344315 0.330081 0.31546 0.300581 0.285442 0.270045 0.254388 0.238473 0.222299 0.205866 0.189247 0.172518 0.155678 0.138726 0.121663 0.104489 0.0872041 0.0698078 0.0534466 0.0392669 0.0272687 0.0174519 0.00981672 0.00436298 0.00109075 0 0 0.00121245 0.00484981 0.0109121 0.0193992 0.0303113 0.0436483 0.0594101 0.0775969 0.0969447 0.116189 0.135331 0.15437 0.173306 0.19214 0.21087 0.229497 0.247942 0.266127 0.28405 0.301713 0.319115 0.336255 0.353135 0.369754 0.385967 0.40163 0.416742 0.431304 0.445315 0.458776 0.471686 0.484046 0.495843 0.507067 0.517718 0.527795 0.537298 0.546228 0.554584 0.562367 0.569643 0.576479 0.582875 0.588832 0.594349 0.599426 0.604063 0.60826 0.612098 0.615657 0.618937 0.621938 0.624661 0.627104 0.629268 0.631153 0.632809 0.634285 0.635582 0.636699 0.637636 0.638394 0.638973 0.639371 0.63959 0.639627 0.639484 0.639159 0.638653 0.637966 0.637099 0.63605 0.634767 0.633198 0.631343 0.629201 0.626773 0.624059 0.621059 0.617772 0.614112 0.609992 0.605413 0.600373 0.594874 0.588915 0.582496 0.575617 0.568202 0.560176 0.551537 0.542288 0.532426 0.521953 0.510867 0.499171 0.486867 0.473961 0.460454 0.446345 0.431635 0.416322 0.400408 0.383892 0.366922 0.349648 0.332069 0.314186 0.295997 0.277504 0.258706 0.239604 0.220282 0.200827 0.181238 0.161516 0.14166 0.121671 0.101548 0.0812919 0.0622391 0.0457267 0.0317546 0.020323 0.0114317 0.00508074 0.00127019 0 0 0.00138319 0.00553274 0.0124487 0.022131 0.0345796 0.0497947 0.0677761 0.0885239 0.110594 0.132541 0.154365 0.176067 0.197646 0.219102 0.240436 0.261647 0.282645 0.303342 0.323737 0.343829 0.36362 0.383108 0.402294 0.421179 0.439597 0.457385 0.474543 0.49107 0.506968 0.522235 0.536872 0.550879 0.564245 0.576957 0.589015 0.60042 0.611172 0.62127 0.630715 0.639507 0.647722 0.655439 0.662657 0.669377 0.675598 0.68132 0.686543 0.691268 0.695586 0.699589 0.703277 0.706651 0.70971 0.712455 0.714885 0.717 0.718857 0.720513 0.721967 0.72322 0.724272 0.725122 0.725771 0.726219 0.726464 0.726507 0.726347 0.725983 0.725417 0.724648 0.723676 0.722501 0.721063 0.719302 0.717219 0.714813 0.712085 0.709033 0.705659 0.701962 0.697844 0.693204 0.688043 0.682362 0.676159 0.669435 0.662191 0.654425 0.64605 0.63698 0.627213 0.61675 0.605591 0.593735 0.581183 0.567935 0.553995 0.539367 0.524051 0.508046 0.491353 0.473973 0.455904 0.437147 0.41787 0.398241 0.37826 0.357927 0.337243 0.316206 0.294818 0.273078 0.251083 0.22893 0.20662 0.184153 0.161527 0.138745 0.115804 0.0927065 0.0709784 0.0521474 0.0362135 0.0231766 0.0130368 0.00579415 0.00144854 0 0 0.00155305 0.00621222 0.0139775 0.0248489 0.0388264 0.05591 0.0760997 0.0993955 0.124172 0.148805 0.173293 0.197638 0.221838 0.245894 0.269806 0.293574 0.317097 0.340276 0.363111 0.3856 0.407746 0.429546 0.451002 0.472114 0.492698 0.512572 0.531736 0.55019 0.567933 0.584967 0.60129 0.616903 0.631794 0.645954 0.65938 0.672075 0.684037 0.695266 0.705763 0.715528 0.724648 0.733212 0.74122 0.748671 0.755567 0.761906 0.767688 0.772915 0.777689 0.782113 0.786189 0.789917 0.793295 0.796324 0.799004 0.801336 0.803382 0.805206 0.806808 0.808189 0.809348 0.810285 0.811001 0.811494 0.811766 0.811813 0.811637 0.811238 0.810616 0.80977 0.8087 0.807408 0.805824 0.803884 0.801585 0.79893 0.795916 0.792545 0.788817 0.784731 0.780176 0.775041 0.769325 0.763028 0.756151 0.748693 0.740654 0.732035 0.722736 0.712657 0.701798 0.69016 0.677742 0.664544 0.650566 0.635809 0.620275 0.603966 0.586883 0.569025 0.550392 0.530985 0.510803 0.489847 0.468303 0.446358 0.424014 0.401269 0.378124 0.354579 0.330633 0.306287 0.28165 0.256829 0.231824 0.206636 0.181265 0.155711 0.129973 0.104052 0.0796645 0.058529 0.0406452 0.0260129 0.0146323 0.00650323 0.00162581 0 0 0.00172206 0.00688823 0.0154985 0.0275529 0.0430515 0.0619941 0.0843809 0.110212 0.137681 0.164983 0.192117 0.219084 0.245884 0.272516 0.298981 0.325279 0.351298 0.376929 0.402172 0.427027 0.451493 0.47557 0.49926 0.52256 0.545272 0.567193 0.588323 0.608663 0.628212 0.64697 0.664938 0.682116 0.698493 0.714059 0.728814 0.742759 0.755892 0.768216 0.779728 0.79043 0.80042 0.809797 0.818562 0.826715 0.834255 0.841183 0.847498 0.853201 0.858407 0.863231 0.867674 0.871734 0.875413 0.878711 0.881626 0.88416 0.886383 0.888364 0.890105 0.891605 0.892865 0.893883 0.894661 0.895198 0.895493 0.895546 0.895356 0.894924 0.894249 0.893332 0.892172 0.89077 0.889051 0.886941 0.884441 0.88155 0.878268 0.874596 0.870532 0.866078 0.861109 0.855502 0.849256 0.842371 0.834848 0.826686 0.817886 0.808447 0.798258 0.787206 0.775293 0.762517 0.748879 0.734379 0.719017 0.702792 0.685706 0.667759 0.648951 0.629281 0.608751 0.587359 0.565105 0.541991 0.518221 0.494001 0.469331 0.444211 0.418642 0.392622 0.366152 0.339233 0.311983 0.284522 0.25685 0.228967 0.200874 0.172569 0.144054 0.115327 0.0882975 0.0648716 0.0450497 0.0288318 0.0162179 0.00720796 0.00180199 0 0 0.0018902 0.00756078 0.0170118 0.0302431 0.0472549 0.0680471 0.0926196 0.120973 0.151119 0.181074 0.210836 0.240406 0.269783 0.298968 0.327961 0.356761 0.385248 0.413302 0.440922 0.468108 0.494861 0.52118 0.547066 0.572518 0.597317 0.621246 0.644303 0.666488 0.687803 0.708246 0.727818 0.746518 0.764339 0.781271 0.797316 0.812472 0.826739 0.840118 0.852609 0.864212 0.875037 0.885194 0.894685 0.903508 0.911664 0.919152 0.925974 0.932128 0.937741 0.942942 0.94773 0.952105 0.956067 0.959615 0.962751 0.965473 0.96786 0.969988 0.971858 0.973469 0.974822 0.975917 0.976752 0.97733 0.977647 0.977705 0.977503 0.97704 0.976317 0.975334 0.974091 0.972588 0.970743 0.968476 0.965786 0.962675 0.95914 0.955184 0.950805 0.946003 0.940643 0.934588 0.927838 0.920392 0.912252 0.903417 0.893887 0.883661 0.872617 0.860628 0.847697 0.833821 0.819003 0.80324 0.786534 0.768885 0.750289 0.730746 0.710255 0.688816 0.666429 0.643094 0.618811 0.59358 0.567625 0.541169 0.514212 0.486754 0.458795 0.430336 0.401375 0.371914 0.342082 0.31201 0.281698 0.251145 0.220353 0.18932 0.158047 0.126533 0.0968772 0.0711751 0.0494271 0.0316334 0.0177938 0.00790834 0.00197709 0 0 0.00205747 0.00822987 0.0185172 0.0329195 0.0514367 0.0740689 0.100816 0.131678 0.164488 0.197079 0.22945 0.261603 0.293536 0.32525 0.356745 0.388021 0.418947 0.449393 0.479359 0.508844 0.53785 0.566375 0.594421 0.621986 0.648835 0.674731 0.699675 0.723667 0.746707 0.768794 0.789928 0.81011 0.829334 0.847592 0.864885 0.881214 0.896577 0.910975 0.924407 0.936875 0.9485 0.959404 0.969587 0.97905 0.987792 0.995813 1.00311 1.00969 1.01569 1.02125 1.02636 1.03103 1.03525 1.03904 1.04238 1.04528 1.04781 1.05008 1.05207 1.05378 1.05522 1.05638 1.05727 1.05789 1.05823 1.05829 1.05808 1.05759 1.05682 1.05578 1.05446 1.05286 1.0509 1.04849 1.04562 1.0423 1.03853 1.03431 1.02963 1.02451 1.01878 1.0123 1.00507 0.997091 0.988362 0.978884 0.968655 0.957677 0.945812 0.932923 0.91901 0.904074 0.888113 0.871128 0.853119 0.834086 0.814024 0.792927 0.770795 0.747629 0.723427 0.698191 0.67192 0.644614 0.616514 0.587861 0.558655 0.528896 0.498585 0.46772 0.436302 0.404331 0.371947 0.339293 0.306367 0.27317 0.239702 0.205963 0.171952 0.13767 0.105404 0.0774395 0.0537774 0.0344176 0.0193599 0.00860439 0.0021511 0 0 0.00222316 0.00889263 0.0200084 0.0355705 0.055579 0.0800337 0.108935 0.142282 0.177729 0.212928 0.24788 0.282584 0.317041 0.351251 0.385212 0.418927 0.452253 0.485052 0.517322 0.549065 0.580279 0.610965 0.641123 0.670753 0.699602 0.727417 0.754199 0.779946 0.80466 0.828341 0.850987 0.8726 0.893176 0.91271 0.931204 0.948657 0.965069 0.98044 0.99477 1.00806 1.02044 1.03205 1.04289 1.05295 1.06225 1.07077 1.07852 1.08549 1.09184 1.09773 1.10314 1.10808 1.11255 1.11655 1.12007 1.12313 1.12581 1.12819 1.13029 1.1321 1.13362 1.13484 1.13578 1.13643 1.13679 1.13686 1.13663 1.13612 1.13531 1.13422 1.13283 1.13115 1.12909 1.12654 1.12351 1.12001 1.11602 1.11155 1.1066 1.10117 1.0951 1.08823 1.08055 1.07207 1.06279 1.0527 1.04182 1.03013 1.01748 1.00374 0.988887 0.972934 0.955879 0.93772 0.918458 0.898093 0.876616 0.854018 0.830297 0.805455 0.779491 0.752406 0.724198 0.69487 0.664677 0.633877 0.602471 0.570459 0.53784 0.504614 0.470782 0.436344 0.40145 0.366253 0.330752 0.294947 0.258838 0.222425 0.185709 0.148689 0.11384 0.0836373 0.0580815 0.0371722 0.0209093 0.00929304 0.00232326 0 0 0.00238655 0.00954619 0.0214789 0.0381848 0.0596637 0.0859157 0.116941 0.152739 0.190785 0.228554 0.266046 0.303261 0.340198 0.376859 0.413242 0.449348 0.485027 0.520128 0.554652 0.588598 0.621967 0.654758 0.686971 0.718607 0.749396 0.77907 0.807629 0.835073 0.861402 0.886615 0.910713 0.933695 0.955563 0.976315 0.995951 1.01447 1.03188 1.04817 1.06334 1.0774 1.0905 1.10276 1.11421 1.12484 1.13464 1.14362 1.15178 1.15911 1.16579 1.17197 1.17765 1.18284 1.18752 1.19171 1.19541 1.1986 1.2014 1.2039 1.20609 1.20798 1.20957 1.21085 1.21183 1.21251 1.21289 1.21296 1.21273 1.2122 1.21136 1.21022 1.20877 1.20702 1.20486 1.2022 1.19903 1.19536 1.19118 1.18649 1.18129 1.17559 1.16921 1.16197 1.15388 1.14494 1.13514 1.1245 1.11299 1.10064 1.08726 1.07271 1.05698 1.04006 1.02197 1.00269 0.982239 0.960603 0.937773 0.913734 0.888487 0.862031 0.834367 0.805495 0.775414 0.744124 0.7119 0.679015 0.645468 0.61126 0.576391 0.54086 0.504668 0.467815 0.430462 0.392772 0.354744 0.316379 0.277675 0.238634 0.199256 0.15954 0.122148 0.0897411 0.0623202 0.0398849 0.0224353 0.00997124 0.00249281 0 0 0.00254764 0.0101905 0.0229287 0.0407622 0.0636909 0.0917149 0.124834 0.163049 0.203657 0.243957 0.283949 0.323632 0.363008 0.402075 0.440834 0.479285 0.517268 0.554622 0.591347 0.627444 0.662913 0.697753 0.731965 0.765548 0.798218 0.829691 0.859968 0.889047 0.91693 0.943616 0.969104 0.993396 1.0165 1.03841 1.05913 1.07866 1.09701 1.11416 1.13013 1.14491 1.15866 1.17154 1.18355 1.19469 1.20496 1.21437 1.2229 1.23056 1.23752 1.24397 1.24989 1.2553 1.26018 1.26454 1.26838 1.2717 1.2746 1.27719 1.27946 1.28142 1.28307 1.2844 1.28542 1.28613 1.28652 1.2866 1.28637 1.28582 1.28495 1.28377 1.28227 1.28046 1.27823 1.27547 1.27218 1.26835 1.264 1.25911 1.2537 1.24775 1.24109 1.23353 1.22506 1.2157 1.20543 1.19426 1.18219 1.16921 1.15516 1.13985 1.12329 1.10546 1.08639 1.06605 1.04446 1.02162 0.997493 0.972076 0.945364 0.917357 0.888055 0.857458 0.825566 0.792378 0.758185 0.723274 0.687646 0.651301 0.614238 0.576457 0.537959 0.498744 0.458983 0.41885 0.378344 0.337466 0.296214 0.25459 0.212593 0.170224 0.130328 0.0957509 0.0664937 0.042556 0.0239377 0.010639 0.00265975 0 0 0.00270643 0.0108257 0.0243578 0.0433028 0.0676607 0.0974314 0.132615 0.173211 0.216344 0.259136 0.301587 0.343698 0.385469 0.426899 0.467988 0.508737 0.548975 0.588532 0.627409 0.665604 0.703118 0.739952 0.776104 0.811576 0.846067 0.87928 0.911214 0.941869 0.971246 0.999344 1.02616 1.0517 1.07597 1.09898 1.12073 1.14122 1.16045 1.17842 1.19513 1.21058 1.22494 1.23838 1.25091 1.26253 1.27323 1.28301 1.29188 1.29983 1.30705 1.31373 1.31987 1.32546 1.33051 1.33502 1.33899 1.34241 1.3454 1.34806 1.35041 1.35243 1.35413 1.3555 1.35656 1.35729 1.35769 1.35778 1.35754 1.35698 1.35609 1.35488 1.35335 1.35149 1.34919 1.34635 1.34295 1.339 1.33449 1.32944 1.32383 1.31767 1.31076 1.3029 1.29409 1.28434 1.27364 1.26199 1.24939 1.23585 1.22117 1.20515 1.18781 1.16913 1.14913 1.12779 1.10513 1.08113 1.05578 1.02904 1.00093 0.971432 0.940554 0.908295 0.874654 0.839632 0.803531 0.766656 0.729005 0.69058 0.65138 0.611405 0.570655 0.52913 0.487014 0.444488 0.401553 0.358208 0.314455 0.270293 0.225721 0.180741 0.13838 0.101667 0.0706018 0.0451852 0.0254166 0.0112963 0.00282407 0 0 0.00286292 0.0114517 0.0257662 0.0458067 0.0715729 0.103065 0.140283 0.183227 0.228846 0.274091 0.318963 0.363459 0.407582 0.45133 0.494705 0.537704 0.58015 0.62186 0.662836 0.703076 0.742582 0.781353 0.819389 0.85669 0.892944 0.927836 0.961368 0.993539 1.02435 1.0538 1.08189 1.10861 1.134 1.15805 1.18077 1.20216 1.22222 1.24094 1.25834 1.27441 1.28933 1.30329 1.31629 1.32834 1.33942 1.34955 1.35871 1.36692 1.37437 1.38125 1.38757 1.39333 1.39853 1.40316 1.40723 1.41074 1.4138 1.41653 1.41893 1.421 1.42274 1.42415 1.42523 1.42598 1.4264 1.42649 1.42625 1.42568 1.42478 1.42355 1.42198 1.42009 1.41775 1.41483 1.41134 1.40728 1.40265 1.39745 1.39168 1.38533 1.3782 1.37008 1.36097 1.35087 1.33978 1.32769 1.31462 1.30055 1.28528 1.26862 1.25055 1.23107 1.2102 1.18792 1.16423 1.13915 1.11263 1.08464 1.05518 1.02426 0.991866 0.958006 0.922679 0.885884 0.847938 0.809159 0.769546 0.729099 0.687818 0.645704 0.602756 0.558975 0.514553 0.469684 0.424369 0.378606 0.332398 0.285742 0.238639 0.19109 0.146303 0.107488 0.0746446 0.0477726 0.0268721 0.0119431 0.00298578 0 0 0.0030171 0.0120684 0.0271539 0.0482737 0.0754276 0.108616 0.147838 0.193095 0.241164 0.288824 0.336074 0.382915 0.429347 0.47537 0.520983 0.566187 0.610791 0.654605 0.697629 0.739862 0.781305 0.821958 0.86182 0.900892 0.938847 0.97536 1.01043 1.04406 1.07624 1.10698 1.13628 1.16413 1.19057 1.2156 1.23923 1.26146 1.2823 1.30173 1.31976 1.3364 1.35183 1.36626 1.37969 1.39212 1.40355 1.41398 1.42341 1.43184 1.43948 1.44654 1.45301 1.45891 1.46422 1.46896 1.47311 1.47668 1.4798 1.48258 1.48502 1.48713 1.4889 1.49034 1.49144 1.49221 1.49264 1.49274 1.4925 1.49193 1.49102 1.48977 1.48819 1.48627 1.48389 1.48092 1.47736 1.47322 1.46848 1.46316 1.45724 1.45074 1.44343 1.43508 1.4257 1.41529 1.40384 1.39137 1.37786 1.36331 1.34751 1.33024 1.3115 1.29128 1.26959 1.24642 1.22178 1.19567 1.16804 1.13886 1.10812 1.07583 1.04199 1.00659 0.96964 0.931135 0.891406 0.850784 0.809267 0.766857 0.723552 0.679354 0.634262 0.588276 0.541601 0.49444 0.446793 0.39866 0.350042 0.300938 0.251348 0.201273 0.154099 0.113216 0.0786221 0.0503182 0.028304 0.0125795 0.00314489 0 0 0.00316899 0.012676 0.0285209 0.0507039 0.0792248 0.114084 0.155281 0.202816 0.253297 0.303332 0.352922 0.402066 0.450764 0.499017 0.546824 0.594185 0.6409 0.686767 0.731788 0.775961 0.819287 0.861765 0.903396 0.944181 0.983778 1.02185 1.0584 1.09342 1.12692 1.15889 1.18933 1.21826 1.24568 1.27164 1.29612 1.31914 1.3407 1.36078 1.3794 1.39655 1.41244 1.42729 1.44111 1.45388 1.46562 1.47631 1.48597 1.49458 1.50238 1.50958 1.51618 1.52219 1.5276 1.53241 1.53663 1.54025 1.5434 1.54621 1.54869 1.55082 1.55262 1.55408 1.5552 1.55598 1.55642 1.55653 1.55629 1.55572 1.5548 1.55355 1.55196 1.55003 1.54763 1.54462 1.54101 1.5368 1.53198 1.52656 1.52053 1.5139 1.50643 1.49789 1.48828 1.4776 1.46584 1.45301 1.43911 1.42414 1.40786 1.39003 1.37067 1.34976 1.32731 1.30331 1.27777 1.25069 1.22202 1.1917 1.15975 1.12616 1.09092 1.05405 1.01554 0.975386 0.933936 0.89153 0.84817 0.803854 0.758582 0.712355 0.665173 0.617036 0.568158 0.518754 0.468824 0.418369 0.367387 0.31588 0.263847 0.211288 0.161767 0.118849 0.0825343 0.052822 0.0297124 0.0132055 0.00330137 0 0 0.00331858 0.0132743 0.0298672 0.0530973 0.0829646 0.119469 0.162611 0.212389 0.265245 0.317617 0.369506 0.420911 0.471833 0.522272 0.572227 0.621698 0.670475 0.718347 0.765312 0.811372 0.856527 0.900776 0.944119 0.986556 1.02774 1.06731 1.10527 1.14163 1.17638 1.20952 1.24106 1.27098 1.29934 1.32616 1.35145 1.3752 1.39741 1.4181 1.43724 1.45486 1.47116 1.48639 1.50055 1.51362 1.52562 1.53654 1.54638 1.55515 1.56307 1.57038 1.57708 1.58317 1.58865 1.59352 1.59778 1.60143 1.60461 1.60744 1.60993 1.61208 1.6139 1.61537 1.6165 1.61729 1.61774 1.61785 1.61762 1.61705 1.61614 1.61489 1.6133 1.61137 1.60896 1.60593 1.60228 1.59802 1.59315 1.58765 1.58154 1.57481 1.56722 1.55852 1.54871 1.53779 1.52576 1.51263 1.49838 1.48303 1.46631 1.44799 1.42805 1.40651 1.38335 1.35858 1.3322 1.30421 1.27456 1.24317 1.21007 1.17523 1.13867 1.10038 1.06037 1.01864 0.975526 0.931399 0.886253 0.840089 0.792908 0.744708 0.695489 0.645253 0.594224 0.542628 0.490464 0.437733 0.384435 0.330569 0.276136 0.221136 0.169307 0.124389 0.0863812 0.055284 0.0310972 0.013821 0.00345525 0 0 0.00346456 0.0138582 0.031181 0.0554329 0.086614 0.124724 0.169763 0.221732 0.276904 0.331554 0.385681 0.439287 0.492371 0.544933 0.596973 0.648491 0.699265 0.749074 0.797919 0.845798 0.892713 0.938663 0.983648 1.02767 1.07036 1.11136 1.15068 1.1883 1.22424 1.25848 1.29104 1.3219 1.35112 1.37875 1.40477 1.42919 1.45202 1.47324 1.49287 1.5109 1.52757 1.54313 1.55757 1.57091 1.58313 1.59424 1.60423 1.61311 1.62113 1.62852 1.6353 1.64145 1.64697 1.65188 1.65616 1.65982 1.663 1.66584 1.66834 1.6705 1.67232 1.6738 1.67493 1.67573 1.67619 1.67631 1.67608 1.67552 1.67462 1.67338 1.6718 1.66987 1.66747 1.66443 1.66077 1.65648 1.65157 1.64602 1.63985 1.63305 1.62536 1.61653 1.60656 1.59545 1.58319 1.56978 1.55524 1.53955 1.52245 1.50367 1.48322 1.4611 1.43729 1.41181 1.38466 1.35583 1.32525 1.29287 1.25867 1.22266 1.18485 1.14522 1.10378 1.06053 1.01584 0.970059 0.923201 0.875262 0.82624 0.776138 0.724953 0.672688 0.619576 0.565856 0.511525 0.456585 0.401036 0.344877 0.288109 0.230731 0.176653 0.129786 0.0901292 0.0576827 0.0324465 0.0144207 0.00360517 0 0 0.00360561 0.0144224 0.0324505 0.0576897 0.0901402 0.129802 0.176675 0.230759 0.288168 0.345016 0.401304 0.45703 0.512196 0.5668 0.620843 0.674326 0.727016 0.778681 0.829323 0.87894 0.927532 0.975101 1.02164 1.06716 1.11129 1.15364 1.19422 1.23304 1.27008 1.30536 1.33886 1.3706 1.40061 1.42897 1.45567 1.4807 1.50408 1.52579 1.54584 1.56423 1.58122 1.59706 1.61175 1.6253 1.63771 1.64897 1.65909 1.66806 1.67614 1.68359 1.6904 1.69659 1.70214 1.70707 1.71136 1.71501 1.71819 1.72102 1.72351 1.72567 1.72749 1.72897 1.73011 1.73091 1.73137 1.73149 1.73128 1.73073 1.72984 1.72861 1.72705 1.72515 1.72276 1.71973 1.7