<?xml version="1.0"?> 
<VTKFile type="StructuredGrid" version="0.1"> 
<StructuredGrid WholeExtent="0 128 0 128 0 0"> 
<Piece Extent="0 128 0 128 0 0"> 
<PointData>
<DataArray type="Float32" Name="u" format="ascii" NumberOfComponents="1"> 
0 0 0 0 0 0 0 0 0 0 0 0 0 0 0 0 0 0 0 0 0 0 0 0 0 0 0 0 0 0 0 0 0 0 0 0 0 0 0 0 0 0 0 0 0 0 0 0 0 0 0 0 0 0 0 0 0 0 0 0 0 0 0 0 0 0 0 0 0 0 0 0 0 0 0 0 0 0 0 0 0 0 0 0 0 0 0 0 0 0 0 0 0 0 0 0 0 0 0 0 0 0 0 0 0 0 0 0 0 0 0 0 0 0 0 0 0 0 0 0 0 0 0 0 0 0 0 0 0 0 8.06621e-06 3.22648e-05 7.25959e-05 0.000129059 0.000201655 0.000290384 0.000395244 0.000516237 0.000645436 0.000774912 0.000904665 0.0010347 0.00116501 0.00129559 0.00142646 0.0015576 0.00168859 0.00181898 0.00194877 0.00207798 0.00220659 0.0023346 0.00246203 0.00258885 0.00271398 0.00283629 0.00295579 0.00307248 0.00318635 0.00329741 0.00340565 0.00351108 0.00361329 0.00371187 0.00380681 0.00389811 0.00398578 0.00406982 0.00415022 0.00422699 0.00430024 0.0043701 0.00443655 0.0044996 0.00455926 0.00461552 0.00466837 0.00471783 0.00476421 0.00480784 0.00484871 0.00488683 0.00492219 0.00495479 0.00498464 0.00501174 0.00503632 0.0050586 0.0050786 0.0050963 0.00511172 0.00512485 0.00513568 0.00514423 0.00515046 0.00515434 0.00515587 0.00515505 0.00515188 0.00514636 0.00513849 0.00512828 0.00511539 0.0050995 0.00508062 0.00505875 0.00503388 0.00500602 0.00497516 0.00494131 0.00490399 0.00486272 0.00481751 0.00476836 0.00471526 0.00465822 0.00459723 0.0045323 0.00446312 0.0043894 0.00431113 0.00422832 0.00414095 0.00404904 0.00395259 0.00385158 0.00374634 0.00363718 0.00352408 0.00340706 0.00328611 0.00316124 0.00303244 0.00289971 0.00276428 0.00262739 0.00248904 0.00234921 0.00220792 0.00206517 0.00192094 0.00177525 0.00162869 0.00148184 0.00133471 0.00118729 0.00103959 0.000891606 0.000743337 0.000594783 0.000455381 0.000334565 0.000232337 0.000148696 8.36414e-05 3.71739e-05 9.29349e-06 0 0 3.22648e-05 0.000129059 0.000290384 0.000516237 0.000806621 0.00116153 0.00158098 0.00206495 0.00258174 0.00309965 0.00361866 0.00413879 0.00466002 0.00518237 0.00570583 0.0062304 0.00675434 0.00727591 0.0077951 0.00831191 0.00882635 0.00933841 0.0098481 0.0103554 0.0108559 0.0113452 0.0118232 0.0122899 0.0127454 0.0131896 0.0136226 0.0140443 0.0144532 0.0148475 0.0152272 0.0155924 0.0159431 0.0162793 0.0166009 0.016908 0.017201 0.0174804 0.0177462 0.0179984 0.018237 0.0184621 0.0186735 0.0188713 0.0190568 0.0192314 0.0193948 0.0195473 0.0196887 0.0198192 0.0199386 0.020047 0.0201453 0.0202344 0.0203144 0.0203852 0.0204469 0.0204994 0.0205427 0.0205769 0.0206019 0.0206174 0.0206235 0.0206202 0.0206075 0.0205855 0.020554 0.0205131 0.0204615 0.020398 0.0203225 0.020235 0.0201355 0.0200241 0.0199006 0.0197652 0.0196159 0.0194509 0.01927 0.0190734 0.018861 0.0186329 0.0183889 0.0181292 0.0178525 0.0175576 0.0172445 0.0169133 0.0165638 0.0161962 0.0158103 0.0154063 0.0149854 0.0145487 0.0140963 0.0136282 0.0131445 0.012645 0.0121297 0.0115988 0.0110571 0.0105096 0.00995614 0.00939685 0.00883169 0.00826066 0.00768377 0.00710102 0.00651476 0.00592737 0.00533884 0.00474917 0.00415837 0.00356642 0.00297335 0.00237913 0.00182152 0.00133826 0.000929349 0.000594783 0.000334565 0.000148696 3.71739e-05 0 0 7.25959e-05 0.000290384 0.000653363 0.00116153 0.0018149 0.00261345 0.0035572 0.00464614 0.00580892 0.0069742 0.00814199 0.00931227 0.0104851 0.0116603 0.0128381 0.0140184 0.0151973 0.0163708 0.017539 0.0187018 0.0198593 0.0210114 0.0221582 0.0232997 0.0244258 0.0255266 0.0266021 0.0276523 0.0286771 0.0296767 0.0306509 0.0315998 0.0325196 0.0334068 0.0342613 0.035083 0.035872 0.0366284 0.037352 0.0380429 0.0387022 0.0393309 0.0399289 0.0404964 0.0410333 0.0415396 0.0420154 0.0424605 0.0428779 0.0432705 0.0436384 0.0439814 0.0442997 0.0445931 0.0448618 0.0451057 0.0453268 0.0455274 0.0457074 0.0458667 0.0460055 0.0461236 0.0462212 0.0462981 0.0463542 0.0463891 0.0464029 0.0463955 0.0463669 0.0463173 0.0462465 0.0461545 0.0460385 0.0458955 0.0457256 0.0455287 0.0453049 0.0450541 0.0447764 0.0444718 0.0441359 0.0437645 0.0433576 0.0429152 0.0424373 0.041924 0.0413751 0.0407907 0.0401681 0.0395046 0.0388002 0.0380548 0.0372686 0.0364414 0.0355733 0.0346642 0.0337171 0.0327346 0.0317167 0.0306635 0.029575 0.0284511 0.0272919 0.0260974 0.0248786 0.0236465 0.0224013 0.0211429 0.0198713 0.0185865 0.0172885 0.0159773 0.0146582 0.0133366 0.0120124 0.0106856 0.00935632 0.00802446 0.00669003 0.00535305 0.00409843 0.00301109 0.00209103 0.00133826 0.000752772 0.000334565 8.36414e-05 0 0 0.000129059 0.000516237 0.00116153 0.00206495 0.00322648 0.00464614 0.00632391 0.0082598 0.010327 0.0123986 0.0144746 0.0165552 0.0186401 0.0207295 0.0228233 0.0249216 0.0270174 0.0291036 0.0311804 0.0332476 0.0353054 0.0373537 0.0393924 0.0414217 0.0434237 0.0453807 0.0472927 0.0491596 0.0509816 0.0527585 0.0544904 0.0561773 0.0578127 0.0593899 0.0609089 0.0623698 0.0637725 0.0651171 0.0664036 0.0676319 0.0688039 0.0699215 0.0709848 0.0719937 0.0729481 0.0738482 0.074694 0.0754853 0.0762274 0.0769254 0.0775794 0.0781892 0.078755 0.0792767 0.0797543 0.0801879 0.080581 0.0809376 0.0812575 0.0815408 0.0817875 0.0819975 0.0821709 0.0823077 0.0824074 0.0824695 0.082494 0.0824808 0.0824301 0.0823418 0.0822159 0.0820524 0.0818462 0.081592 0.0812899 0.0809399 0.080542 0.0800962 0.0796025 0.0790609 0.0784638 0.0778035 0.0770802 0.0762937 0.0754442 0.0745315 0.0735557 0.0725168 0.07141 0.0702304 0.0689781 0.067653 0.0662552 0.0647847 0.0632414 0.0616253 0.0599415 0.0581948 0.0563853 0.054513 0.0525778 0.0505798 0.048519 0.0463953 0.0442285 0.0420383 0.0398246 0.0375874 0.0353267 0.0330426 0.0307351 0.0284041 0.026059 0.0237095 0.0213553 0.0189967 0.0166335 0.0142657 0.0118934 0.00951653 0.00728609 0.00535305 0.00371739 0.00237913 0.00133826 0.000594783 0.000148696 0 0 0.000201655 0.000806621 0.0018149 0.00322648 0.00504138 0.00725959 0.00988111 0.0129059 0.0161359 0.0193728 0.0226166 0.0258674 0.0291252 0.0323898 0.0356615 0.03894 0.0422146 0.0454744 0.0487193 0.0519494 0.0551647 0.0583651 0.0615507 0.0647214 0.0678495 0.0709073 0.0738948 0.0768119 0.0796587 0.0824352 0.0851413 0.0877771 0.0903323 0.0927967 0.0951701 0.0974528 0.0996446 0.101745 0.103756 0.105675 0.107506 0.109252 0.110914 0.11249 0.113981 0.115388 0.116709 0.117946 0.119105 0.120196 0.121218 0.122171 0.123055 0.12387 0.124616 0.125294 0.125908 0.126465 0.126965 0.127408 0.127793 0.128121 0.128392 0.128606 0.128762 0.128859 0.128897 0.128876 0.128797 0.128659 0.128462 0.128207 0.127885 0.127487 0.127016 0.126469 0.125847 0.12515 0.124379 0.123533 0.1226 0.121568 0.120438 0.119209 0.117882 0.116455 0.114931 0.113308 0.111578 0.109735 0.107778 0.105708 0.103524 0.101226 0.0988146 0.0962896 0.0936586 0.0909294 0.088102 0.0851765 0.0821528 0.079031 0.0758109 0.0724927 0.0691071 0.0656848 0.0622259 0.0587303 0.055198 0.0516291 0.0480236 0.0443813 0.0407172 0.037046 0.0333677 0.0296823 0.0259898 0.0222902 0.0185834 0.0148696 0.0113845 0.00836414 0.00580843 0.00371739 0.00209103 0.000929349 0.000232337 0 0 0.000290384 0.00116153 0.00261345 0.00464614 0.00725959 0.0104538 0.0142288 0.0185845 0.0232357 0.0278968 0.032568 0.0372491 0.0419402 0.0466414 0.0513525 0.0560736 0.0607891 0.0654832 0.0701559 0.0748072 0.0794371 0.0840457 0.0886329 0.0931988 0.0977033 0.102107 0.106408 0.110609 0.114709 0.118707 0.122603 0.126399 0.130079 0.133627 0.137045 0.140332 0.143488 0.146514 0.149408 0.152172 0.154809 0.157323 0.159716 0.161986 0.164133 0.166159 0.168061 0.169842 0.171512 0.173082 0.174554 0.175926 0.177199 0.178373 0.179447 0.180423 0.181307 0.18211 0.182829 0.183467 0.184022 0.184494 0.184885 0.185192 0.185417 0.185556 0.185611 0.185582 0.185468 0.185269 0.184986 0.184618 0.184154 0.183582 0.182902 0.182115 0.18122 0.180217 0.179106 0.177887 0.176544 0.175058 0.17343 0.171661 0.169749 0.167696 0.1655 0.163163 0.160672 0.158018 0.155201 0.152219 0.149074 0.145766 0.142293 0.138657 0.134868 0.130938 0.126867 0.122654 0.1183 0.113805 0.109168 0.10439 0.0995142 0.0945861 0.0896053 0.0845716 0.0794852 0.0743459 0.0691539 0.0639091 0.0586328 0.0533463 0.0480495 0.0427425 0.0374253 0.0320978 0.0267601 0.0214122 0.0163937 0.0120444 0.00836414 0.00535305 0.00301109 0.00133826 0.000334565 0 0 0.000395244 0.00158098 0.0035572 0.00632391 0.00988111 0.0142288 0.019367 0.0252956 0.0316263 0.0379707 0.0443286 0.0507001 0.0570853 0.0634841 0.0698965 0.0763224 0.0827407 0.0891298 0.0954899 0.101821 0.108123 0.114396 0.120639 0.126854 0.132985 0.138978 0.144834 0.150551 0.156131 0.161573 0.166877 0.172043 0.177051 0.181881 0.186533 0.191007 0.195303 0.199421 0.203361 0.207123 0.210712 0.214135 0.217391 0.220481 0.223404 0.22616 0.22875 0.231174 0.233446 0.235584 0.237587 0.239454 0.241187 0.242785 0.244248 0.245575 0.246779 0.247871 0.248851 0.249719 0.250474 0.251117 0.251649 0.252067 0.252373 0.252563 0.252638 0.252598 0.252442 0.252172 0.251786 0.251286 0.250654 0.249875 0.24895 0.247879 0.24666 0.245295 0.243783 0.242124 0.240295 0.238273 0.236058 0.23365 0.231048 0.228253 0.225264 0.222083 0.218693 0.215081 0.211245 0.207187 0.202907 0.198403 0.193677 0.188728 0.183571 0.178222 0.17268 0.166946 0.16102 0.154901 0.148589 0.142086 0.13545 0.128742 0.121963 0.115111 0.108188 0.101193 0.0941262 0.0869874 0.0798058 0.0726102 0.0654007 0.0581773 0.05094 0.0436887 0.0364235 0.0291444 0.0223137 0.0163937 0.0113845 0.00728609 0.00409843 0.00182152 0.000455381 0 0 0.000516237 0.00206495 0.00464614 0.0082598 0.0129059 0.0185845 0.0252956 0.0330392 0.0413079 0.0495943 0.0578986 0.0662206 0.0745604 0.082918 0.0912933 0.0996865 0.108069 0.116414 0.124722 0.132991 0.141222 0.149415 0.15757 0.165687 0.173695 0.181523 0.189171 0.196638 0.203926 0.211034 0.217962 0.224709 0.231251 0.237559 0.243636 0.249479 0.25509 0.260468 0.265614 0.270527 0.275216 0.279686 0.283939 0.287975 0.291793 0.295393 0.298776 0.301941 0.30491 0.307702 0.310317 0.312757 0.31502 0.317107 0.319017 0.320751 0.322324 0.32375 0.32503 0.326163 0.32715 0.32799 0.328684 0.329231 0.32963 0.329878 0.329976 0.329923 0.329721 0.329367 0.328864 0.32821 0.327385 0.326368 0.32516 0.32376 0.322168 0.320385 0.31841 0.316244 0.313855 0.311214 0.308321 0.305175 0.301777 0.298126 0.294223 0.290067 0.28564 0.280922 0.275912 0.270612 0.265021 0.259139 0.252965 0.246501 0.239766 0.232779 0.225541 0.218052 0.210311 0.202319 0.194076 0.185581 0.176914 0.168153 0.159298 0.15035 0.141307 0.132171 0.12294 0.113616 0.104236 0.0948379 0.0854214 0.0759867 0.0665338 0.0570628 0.0475736 0.0380661 0.0291444 0.0214122 0.0148696 0.00951653 0.00535305 0.00237913 0.000594783 0 0 0.000645409 0.00258164 0.00580868 0.0103265 0.0161352 0.0232347 0.0316251 0.0413062 0.0516435 0.0620021 0.0723822 0.0827838 0.0932067 0.103651 0.114117 0.124604 0.135078 0.145503 0.155881 0.16621 0.176491 0.186724 0.196908 0.207044 0.217043 0.226817 0.236365 0.245688 0.254785 0.263656 0.272302 0.280722 0.288884 0.296755 0.304335 0.311625 0.318624 0.325331 0.331748 0.337874 0.343719 0.349293 0.354594 0.359624 0.364383 0.36887 0.373085 0.377029 0.380727 0.384205 0.387463 0.390502 0.393321 0.39592 0.398299 0.400458 0.402416 0.404192 0.405785 0.407196 0.408424 0.40947 0.410334 0.411015 0.411511 0.411821 0.411942 0.411877 0.411625 0.411185 0.410558 0.409744 0.408717 0.407451 0.405946 0.404203 0.40222 0.399999 0.397539 0.394841 0.391865 0.388574 0.384969 0.381048 0.376813 0.372263 0.367397 0.362217 0.356698 0.350814 0.344568 0.337958 0.330984 0.323647 0.315946 0.307881 0.299478 0.29076 0.281728 0.272381 0.26272 0.252744 0.242454 0.231849 0.221028 0.210089 0.199032 0.187857 0.176565 0.165154 0.153625 0.141978 0.13026 0.118519 0.106755 0.0949662 0.0831544 0.0713189 0.0594599 0.0475774 0.0364264 0.0267623 0.0185849 0.0118943 0.00669057 0.00297359 0.000743397 0 0 0.000774807 0.00309923 0.00697326 0.0123969 0.0193702 0.027893 0.0379655 0.0495876 0.0619963 0.0744284 0.0868839 0.099363 0.111865 0.124391 0.136941 0.149514 0.162068 0.174563 0.186998 0.199373 0.211688 0.223943 0.236138 0.248273 0.260242 0.271939 0.283364 0.294517 0.305397 0.316006 0.326342 0.336406 0.346159 0.355563 0.364617 0.373323 0.381679 0.389686 0.397344 0.404652 0.411623 0.418269 0.424591 0.430587 0.436258 0.441604 0.446625 0.451321 0.455724 0.459864 0.463742 0.467358 0.470712 0.473804 0.476634 0.479202 0.48153 0.483641 0.485535 0.487212 0.488673 0.489916 0.490943 0.491752 0.492342 0.49271 0.492854 0.492777 0.492477 0.491954 0.491209 0.490242 0.489021 0.487515 0.485725 0.483651 0.481292 0.478649 0.475721 0.472509 0.468967 0.465048 0.460753 0.456082 0.451034 0.44561 0.43981 0.433633 0.42705 0.420032 0.412578 0.404688 0.396362 0.387601 0.378404 0.368771 0.358732 0.348314 0.337517 0.326343 0.31479 0.302859 0.290549 0.277862 0.264913 0.251821 0.238585 0.225206 0.211684 0.198018 0.184208 0.170255 0.156215 0.142145 0.128043 0.113911 0.099749 0.085556 0.0713323 0.0570781 0.0437004 0.0321064 0.0222961 0.0142695 0.00802661 0.00356738 0.000891845 0 0 0.000904429 0.00361772 0.00813986 0.0144709 0.0226107 0.0325595 0.044317 0.0578835 0.0723663 0.086873 0.101404 0.115958 0.130537 0.145139 0.159765 0.174415 0.189041 0.203593 0.218073 0.232479 0.246812 0.261073 0.27526 0.289374 0.303291 0.316889 0.330167 0.343125 0.355764 0.368082 0.380081 0.39176 0.403075 0.413982 0.424481 0.434573 0.444256 0.453532 0.4624 0.47086 0.478927 0.486616 0.493928 0.500861 0.507417 0.513595 0.519396 0.524818 0.5299 0.534679 0.539154 0.543327 0.547195 0.550761 0.554023 0.556982 0.559665 0.562097 0.56428 0.566212 0.567895 0.569327 0.57051 0.571442 0.572122 0.572545 0.572712 0.572623 0.572277 0.571675 0.570817 0.569703 0.568296 0.566561 0.564497 0.562105 0.559384 0.556335 0.552957 0.54925 0.545161 0.540635 0.535673 0.530274 0.524439 0.518168 0.51146 0.504315 0.496698 0.488574 0.479943 0.470803 0.461157 0.451002 0.440341 0.429171 0.417527 0.40544 0.39291 0.379937 0.366522 0.352663 0.338363 0.323619 0.308569 0.293348 0.277957 0.262396 0.246665 0.230763 0.21469 0.198448 0.1821 0.165714 0.149288 0.132822 0.116318 0.0997739 0.0831907 0.0665683 0.0509664 0.0374447 0.0260032 0.0166421 0.00936117 0.00416052 0.00104013 0 0 0.00103428 0.00413711 0.0093085 0.0165484 0.0258569 0.037234 0.0506796 0.0661937 0.0827536 0.0993361 0.115941 0.132569 0.14922 0.165894 0.18259 0.199309 0.215996 0.232594 0.249106 0.265529 0.281865 0.298113 0.314273 0.330346 0.34619 0.361667 0.376774 0.391513 0.405884 0.419886 0.43352 0.446785 0.459632 0.472013 0.483928 0.495375 0.506356 0.51687 0.526917 0.536498 0.545631 0.554333 0.562606 0.570449 0.577861 0.584844 0.591397 0.59752 0.603257 0.60865 0.6137 0.618406 0.62277 0.62679 0.630467 0.633801 0.636822 0.639561 0.642019 0.644196 0.646091 0.647704 0.649035 0.650085 0.65085 0.651327 0.651515 0.651414 0.651025 0.650348 0.649382 0.648128 0.646544 0.644589 0.642262 0.639565 0.636496 0.633056 0.629245 0.625063 0.620447 0.615336 0.609729 0.603627 0.597029 0.589936 0.582347 0.574263 0.565642 0.556441 0.546662 0.536303 0.525366 0.51385 0.501755 0.489081 0.475863 0.462138 0.447905 0.433164 0.417915 0.402158 0.385894 0.369121 0.351995 0.334671 0.317148 0.299427 0.281507 0.263389 0.245071 0.226556 0.207916 0.189227 0.170488 0.151699 0.132861 0.113973 0.0950352 0.076048 0.0582242 0.042777 0.0297062 0.019012 0.0106942 0.004753 0.00118825 0 0 0.00116435 0.0046574 0.0104792 0.0186296 0.0291088 0.0419166 0.0570532 0.0745184 0.093158 0.111818 0.130497 0.149197 0.167916 0.186656 0.205415 0.224195 0.242932 0.261566 0.280096 0.298522 0.316845 0.335064 0.353178 0.37119 0.38894 0.406272 0.423185 0.439681 0.455758 0.471417 0.486658 0.501481 0.515831 0.529656 0.542956 0.555729 0.567977 0.579699 0.590896 0.601567 0.611734 0.62142 0.630625 0.639348 0.64759 0.65535 0.662629 0.669427 0.675792 0.681776 0.687378 0.692598 0.697435 0.701891 0.705964 0.709656 0.713 0.716033 0.718754 0.721163 0.72326 0.725046 0.726519 0.727681 0.728528 0.729055 0.729263 0.729152 0.728722 0.727972 0.726904 0.725517 0.723763 0.721598 0.71902 0.71603 0.712628 0.708813 0.704586 0.699947 0.694825 0.68915 0.682921 0.676139 0.668804 0.660915 0.652473 0.643477 0.63388 0.623633 0.612736 0.601189 0.588991 0.576144 0.562647 0.5485 0.533741 0.518409 0.502503 0.486023 0.46897 0.451343 0.433142 0.414368 0.395193 0.37579 0.356158 0.336299 0.316211 0.295895 0.275351 0.254579 0.233662 0.212683 0.191643 0.170541 0.149378 0.128152 0.106866 0.0855171 0.065474 0.0481034 0.0334051 0.0213793 0.0120258 0.00534482 0.0013362 0 0 0.00129465 0.0051786 0.0116518 0.0207144 0.0323662 0.0466074 0.0634378 0.0828575 0.10358 0.124318 0.145071 0.16584 0.186625 0.207425 0.228241 0.249072 0.269851 0.290509 0.311045 0.331459 0.351753 0.371925 0.391975 0.411905 0.431539 0.450704 0.469401 0.487628 0.505386 0.522676 0.539496 0.555847 0.571672 0.586911 0.601566 0.615636 0.629121 0.642021 0.654336 0.666066 0.677238 0.687878 0.697985 0.70756 0.716603 0.725113 0.733092 0.740538 0.747508 0.754058 0.760189 0.7659 0.771192 0.776064 0.780516 0.784548 0.788201 0.791512 0.794484 0.797114 0.799404 0.801353 0.802962 0.80423 0.805154 0.805729 0.805956 0.805835 0.805366 0.804548 0.803383 0.801869 0.799955 0.797589 0.794771 0.791501 0.787779 0.783606 0.778981 0.773903 0.768295 0.762077 0.755249 0.747811 0.739762 0.731104 0.721836 0.711957 0.701414 0.690149 0.678164 0.665459 0.652032 0.637885 0.623018 0.607429 0.591161 0.574252 0.556703 0.538515 0.519686 0.500217 0.480109 0.45936 0.438161 0.416704 0.394987 0.373012 0.350777 0.328283 0.30553 0.282518 0.259339 0.236084 0.212754 0.189349 0.165869 0.142313 0.118682 0.0949757 0.0727158 0.0534238 0.0370999 0.0237439 0.013356 0.00593598 0.001484 0 0 0.00142517 0.00570069 0.0128266 0.0228028 0.0356293 0.0513062 0.0698335 0.0912111 0.114019 0.136836 0.159663 0.182499 0.205346 0.228201 0.251067 0.273942 0.296752 0.319422 0.341951 0.36434 0.386588 0.408696 0.430664 0.452492 0.473989 0.494965 0.51542 0.535355 0.554768 0.573661 0.592033 0.609884 0.627153 0.643778 0.659758 0.675094 0.689786 0.703833 0.717237 0.729996 0.742142 0.753705 0.764686 0.775084 0.7849 0.794134 0.802785 0.810854 0.818403 0.825497 0.832134 0.838315 0.84404 0.849309 0.854121 0.858478 0.862423 0.865999 0.869208 0.872049 0.874521 0.876626 0.878363 0.879732 0.880729 0.88135 0.881595 0.881465 0.880958 0.880076 0.878818 0.877184 0.875118 0.872561 0.869514 0.865978 0.861951 0.857435 0.852428 0.846932 0.840858 0.834118 0.826713 0.818642 0.809906 0.800504 0.790436 0.779704 0.768242 0.75599 0.742947 0.729113 0.714488 0.699073 0.682866 0.665868 0.648121 0.629668 0.610507 0.590639 0.570064 0.548782 0.526793 0.504096 0.480901 0.457414 0.433635 0.409566 0.385204 0.360552 0.335608 0.310372 0.284946 0.259429 0.233821 0.208123 0.182334 0.156455 0.130484 0.104424 0.0799495 0.0587384 0.0407905 0.0261059 0.0146846 0.00652649 0.00163162 0 0 0.00155592 0.00622369 0.0140033 0.0248948 0.0388981 0.0560132 0.0762402 0.099579 0.124475 0.149373 0.174273 0.199175 0.224079 0.248985 0.273894 0.298804 0.323635 0.348305 0.372815 0.397163 0.421351 0.445378 0.469245 0.49295 0.516288 0.539053 0.561244 0.582861 0.603904 0.624374 0.64427 0.663592 0.682276 0.700256 0.717532 0.734104 0.749973 0.765138 0.779599 0.793356 0.806445 0.818903 0.830728 0.841921 0.852482 0.862412 0.871709 0.880374 0.888478 0.89609 0.903211 0.909841 0.915979 0.921626 0.926781 0.931445 0.935666 0.939494 0.942927 0.945967 0.948613 0.950865 0.952723 0.954187 0.955253 0.955917 0.95618 0.95604 0.955499 0.954556 0.953211 0.951464 0.949252 0.946515 0.943251 0.93946 0.935143 0.930299 0.924929 0.919032 0.912512 0.905272 0.897312 0.888633 0.879233 0.869114 0.858275 0.846716 0.834366 0.821156 0.807085 0.792153 0.77636 0.759707 0.742192 0.723817 0.704624 0.684656 0.663913 0.642396 0.620103 0.597036 0.573194 0.548578 0.523411 0.497919 0.472102 0.445961 0.419494 0.392701 0.365584 0.338142 0.310483 0.282717 0.254843 0.226862 0.198773 0.170577 0.142273 0.113861 0.0871751 0.064047 0.0444771 0.0284653 0.0160118 0.00711633 0.00177908 0 0 0.00168645 0.00674578 0.015178 0.0269831 0.0421612 0.0607121 0.0826359 0.107933 0.134912 0.161885 0.18885 0.215809 0.242761 0.269705 0.296643 0.323574 0.350409 0.377062 0.403532 0.429819 0.455923 0.481844 0.507582 0.533137 0.558286 0.582808 0.606703 0.629969 0.652608 0.67462 0.696003 0.716759 0.736819 0.756116 0.77465 0.79242 0.809426 0.82567 0.84115 0.855866 0.869861 0.883174 0.895808 0.90776 0.919032 0.929624 0.939534 0.948764 0.957392 0.965494 0.973071 0.980122 0.986649 0.99265 0.998127 1.00308 1.00756 1.01162 1.01526 1.01849 1.02129 1.02368 1.02565 1.02721 1.02834 1.02904 1.02932 1.02917 1.0286 1.0276 1.02618 1.02432 1.02198 1.01907 1.0156 1.01158 1.00699 1.00183 0.996122 0.989848 0.982907 0.975194 0.966708 0.957449 0.947417 0.936613 0.925036 0.912686 0.899485 0.885354 0.870292 0.854301 0.837379 0.819527 0.800745 0.781033 0.760434 0.738992 0.716707 0.693579 0.669607 0.644793 0.619135 0.592634 0.565531 0.538068 0.510245 0.482061 0.453518 0.424614 0.395349 0.365725 0.335857 0.305863 0.275743 0.245497 0.215125 0.184627 0.154003 0.123253 0.0943655 0.0693297 0.0481457 0.0308132 0.0173324 0.0077033 0.00192583 0 0 0.00181629 0.00726518 0.0163466 0.0290607 0.0454073 0.0653866 0.0889984 0.116243 0.145295 0.174329 0.203346 0.232345 0.261327 0.290291 0.319238 0.348167 0.376984 0.405594 0.433997 0.462193 0.490182 0.517964 0.54554 0.572908 0.599831 0.626072 0.651629 0.676503 0.700695 0.724204 0.747029 0.769172 0.790561 0.811128 0.830872 0.849793 0.86789 0.885165 0.901617 0.917246 0.9321 0.946225 0.959622 0.972292 0.984233 0.995446 1.00593 1.01569 1.0248 1.03336 1.04136 1.0488 1.05569 1.06202 1.06779 1.07301 1.07772 1.082 1.08583 1.08923 1.09218 1.0947 1.09677 1.09841 1.0996 1.10034 1.10063 1.10048 1.09988 1.09883 1.09733 1.09538 1.09292 1.08986 1.0862 1.08195 1.07711 1.07168 1.06565 1.05902 1.05169 1.04354 1.03456 1.02476 1.01413 1.00268 0.990404 0.977307 0.963298 0.948291 0.932284 0.91528 0.897276 0.878274 0.858274 0.837274 0.81532 0.792453 0.768674 0.743982 0.718379 0.691863 0.664435 0.636095 0.6071 0.577709 0.54792 0.517734 0.48715 0.45617 0.424793 0.393018 0.360972 0.32878 0.296442 0.263958 0.231328 0.198552 0.165631 0.132563 0.101494 0.0745667 0.0517824 0.0331407 0.0186417 0.00828518 0.0020713 0 0 0.00194547 0.00778186 0.0175092 0.0311275 0.0486366 0.0700368 0.0953278 0.12451 0.155623 0.186706 0.217759 0.248783 0.279778 0.310743 0.341679 0.372585 0.40336 0.433902 0.464211 0.494287 0.524131 0.553741 0.583119 0.612264 0.640923 0.668842 0.696022 0.722463 0.748164 0.773126 0.797348 0.820831 0.843502 0.865292 0.886199 0.906223 0.925365 0.943625 0.961002 0.977496 0.993162 1.00805 1.02217 1.03552 1.04808 1.05988 1.0709 1.08115 1.09071 1.09969 1.10808 1.11588 1.1231 1.12973 1.13577 1.14123 1.14616 1.15063 1.15464 1.15819 1.16128 1.16391 1.16608 1.16779 1.16903 1.16981 1.17012 1.16996 1.16933 1.16824 1.16667 1.16464 1.16207 1.15887 1.15504 1.15059 1.14552 1.13983 1.1335 1.12656 1.11887 1.1103 1.10086 1.09055 1.07937 1.06731 1.05438 1.04058 1.02581 1.00997 0.993061 0.97509 0.956052 0.935948 0.914777 0.892541 0.86928 0.845037 0.819812 0.793606 0.766418 0.738247 0.709095 0.678961 0.648119 0.61684 0.585126 0.552977 0.520392 0.487371 0.453914 0.420022 0.385829 0.351468 0.31694 0.282245 0.247383 0.212353 0.177156 0.141792 0.108559 0.0797577 0.0553873 0.0354479 0.0199394 0.00886197 0.00221549 0 0 0.00207396 0.00829585 0.0186657 0.0331834 0.051849 0.0746626 0.101624 0.132734 0.165895 0.199014 0.23209 0.265123 0.298113 0.331061 0.363965 0.396826 0.429535 0.461984 0.494173 0.5261 0.557767 0.589174 0.62032 0.651205 0.681562 0.711121 0.739883 0.767848 0.795016 0.821386 0.84696 0.871736 0.895642 0.918607 0.94063 0.961711 0.98185 1.00105 1.0193 1.03662 1.05305 1.06866 1.08346 1.09743 1.11059 1.12292 1.13444 1.14514 1.15512 1.16448 1.17323 1.18137 1.18888 1.19579 1.20207 1.20774 1.21287 1.21751 1.22168 1.22537 1.22858 1.23131 1.23357 1.23534 1.23664 1.23745 1.23777 1.23761 1.23696 1.23583 1.23421 1.2321 1.22943 1.2261 1.22213 1.2175 1.21221 1.20628 1.19969 1.19246 1.18443 1.17549 1.16562 1.15484 1.14313 1.13051 1.11696 1.1025 1.08701 1.07038 1.05262 1.03373 1.01371 0.992548 0.970257 0.946832 0.922315 0.896746 0.870124 0.84245 0.813724 0.783946 0.753115 0.721233 0.688586 0.655463 0.621865 0.587791 0.553241 0.518216 0.482714 0.446737 0.410427 0.373927 0.337237 0.300358 0.263288 0.226028 0.188578 0.150939 0.115562 0.084903 0.0589604 0.0377347 0.0212257 0.00943366 0.00235842 0 0 0.00220178 0.00880713 0.019816 0.0352285 0.0550445 0.0792641 0.107887 0.140914 0.176114 0.211255 0.246339 0.281365 0.316334 0.351244 0.386096 0.420891 0.455512 0.489842 0.523883 0.557633 0.591093 0.624262 0.657142 0.689731 0.721747 0.752907 0.783211 0.812658 0.84125 0.868985 0.895864 0.921887 0.946981 0.971074 0.994166 1.01626 1.03735 1.05743 1.07652 1.09461 1.11176 1.12805 1.14348 1.15804 1.17174 1.18458 1.19655 1.20766 1.21802 1.22774 1.23681 1.24525 1.25304 1.26018 1.26669 1.27255 1.27785 1.28265 1.28696 1.29077 1.29409 1.29691 1.29925 1.30108 1.30242 1.30326 1.30359 1.30343 1.30276 1.3016 1.29993 1.29776 1.295 1.29157 1.28745 1.28266 1.27719 1.27104 1.26422 1.25671 1.24839 1.2391 1.22884 1.21762 1.20543 1.19227 1.17815 1.16307 1.1469 1.12953 1.11097 1.0912 1.07024 1.04807 1.02471 1.00015 0.974425 0.947578 0.919608 0.890515 0.860298 0.828958 0.796495 0.762909 0.728502 0.693578 0.658136 0.622177 0.5857 0.548705 0.511193 0.473163 0.434767 0.396158 0.357334 0.318296 0.279044 0.239578 0.199898 0.160004 0.122503 0.0900024 0.0625017 0.0400011 0.0225006 0.0100003 0.00250007 0 0 0.00232893 0.0093157 0.0209603 0.0372628 0.0582231 0.0838413 0.114117 0.149051 0.186277 0.223428 0.260506 0.297509 0.334438 0.371293 0.408074 0.44478 0.481289 0.517476 0.553341 0.588884 0.624106 0.659006 0.693585 0.727842 0.761479 0.794201 0.826006 0.856894 0.886866 0.915922 0.944062 0.971285 0.997519 1.02269 1.04681 1.06986 1.09185 1.11278 1.13265 1.15147 1.16929 1.18621 1.20223 1.21734 1.23154 1.24484 1.25724 1.26872 1.27942 1.28946 1.29883 1.30753 1.31556 1.32293 1.32963 1.33566 1.34111 1.34604 1.35047 1.35439 1.35781 1.36071 1.36311 1.365 1.36637 1.36724 1.36759 1.36742 1.36674 1.36555 1.36384 1.36162 1.35879 1.35526 1.35102 1.34609 1.34045 1.33411 1.32707 1.31933 1.31073 1.30112 1.29051 1.27888 1.26625 1.25261 1.23795 1.22229 1.20549 1.18743 1.1681 1.14751 1.12565 1.10253 1.07814 1.05249 1.02561 0.997535 0.968265 0.937799 0.906139 0.873285 0.839235 0.80399 0.767868 0.731184 0.693939 0.656133 0.617766 0.578838 0.539349 0.499299 0.458849 0.418159 0.377229 0.33606 0.294652 0.253004 0.211116 0.168988 0.129382 0.095056 0.0660111 0.0422471 0.023764 0.0105618 0.00264044 0 0 0.00245539 0.00982157 0.0220985 0.0392863 0.0613848 0.0883942 0.120314 0.157145 0.196385 0.235534 0.27459 0.313555 0.352427 0.391208 0.429896 0.468493 0.506866 0.544884 0.582547 0.619855 0.656808 0.693406 0.729649 0.765537 0.800758 0.835002 0.868268 0.900555 0.931865 0.962198 0.991552 1.01993 1.04726 1.07346 1.09855 1.12252 1.14537 1.1671 1.18771 1.20719 1.22565 1.24316 1.25972 1.27533 1.29 1.30372 1.31649 1.32832 1.33932 1.34964 1.35927 1.36821 1.37645 1.38401 1.39088 1.39706 1.40263 1.40769 1.41222 1.41624 1.41973 1.4227 1.42516 1.42709 1.4285 1.42939 1.42975 1.42959 1.4289 1.42768 1.42594 1.42368 1.42079 1.41717 1.41284 1.40778 1.40199 1.39549 1.38826 1.38031 1.37147 1.36158 1.35063 1.33864 1.3256 1.3115 1.29636 1.28016 1.26277 1.24406 1.22401 1.20264 1.17994 1.15591 1.13055 1.10386 1.07587 1.04662 1.01609 0.984305 0.951248 0.916925 0.881334 0.844476 0.806682 0.768281 0.729274 0.689661 0.649442 0.608616 0.567184 0.525146 0.482672 0.439931 0.396924 0.353651 0.31011 0.266304 0.222231 0.177891 0.136198 0.100064 0.0694887 0.0444728 0.0250159 0.0111182 0.00277955 0 0 0.00258118 0.0103247 0.0232307 0.041299 0.0645296 0.0929227 0.126478 0.165196 0.206439 0.247571 0.288592 0.329502 0.370301 0.410988 0.451565 0.49203 0.532244 0.572068 0.611502 0.650546 0.689199 0.727462 0.765335 0.802817 0.839584 0.875311 0.909997 0.943642 0.976247 1.00781 1.03833 1.06782 1.09619 1.12339 1.1494 1.17424 1.1979 1.22037 1.24167 1.26179 1.28083 1.29888 1.31594 1.33202 1.34711 1.36121 1.37432 1.38644 1.39772 1.40829 1.41814 1.42729 1.43572 1.44344 1.45045 1.45675 1.46243 1.46759 1.47221 1.4763 1.47986 1.48289 1.48539 1.48737 1.48881 1.48971 1.49009 1.48992 1.48923 1.488 1.48623 1.48393 1.48099 1.47731 1.47289 1.46773 1.46182 1.45517 1.44778 1.43964 1.43059 1.42045 1.40921 1.39689 1.38347 1.36897 1.35337 1.33668 1.31875 1.29943 1.27871 1.25661 1.23311 1.20821 1.18193 1.15425 1.1252 1.09482 1.0631 1.03003 0.995625 0.959879 0.922794 0.884368 0.844945 0.80487 0.764141 0.72276 0.680726 0.638038 0.594698 0.550704 0.506237 0.461475 0.416418 0.371066 0.32542 0.279479 0.233243 0.186712 0.142952 0.105026 0.0729345 0.0466781 0.0262564 0.0116695 0.00291738 0 0 0.00270519 0.0108208 0.0243467 0.043283 0.0676297 0.0973868 0.132554 0.173132 0.216349 0.259435 0.302389 0.345211 0.387902 0.430461 0.472888 0.515184 0.5572 0.59879 0.639952 0.680687 0.720995 0.760876 0.80033 0.839357 0.877619 0.914777 0.950831 0.985781 1.01963 1.05237 1.08401 1.11454 1.14391 1.17203 1.19892 1.22457 1.24899 1.27216 1.2941 1.3148 1.33437 1.35292 1.37044 1.38693 1.40239 1.41683 1.43025 1.44263 1.45414 1.46492 1.47497 1.48429 1.49288 1.50074 1.50787 1.51427 1.52004 1.52527 1.52996 1.53411 1.53773 1.54081 1.54335 1.54535 1.54682 1.54774 1.54812 1.54796 1.54726 1.54602 1.54424 1.54192 1.53895 1.53521 1.53072 1.52547 1.51946 1.51269 1.50516 1.49687 1.48763 1.47727 1.46578 1.45316 1.43941 1.42453 1.40853 1.39139 1.37296 1.35308 1.33175 1.30896 1.28471 1.25901 1.23185 1.20324 1.1732 1.14174 1.10887 1.07459 1.03889 1.00178 0.963256 0.923321 0.882328 0.840634 0.798239 0.755143 0.711346 0.666848 0.621649 0.575749 0.529337 0.4826 0.43554 0.388155 0.340446 0.292413 0.244055 0.195374 0.149583 0.109898 0.076318 0.0488435 0.0274745 0.0122109 0.00305272 0 0 0.00282629 0.0113052 0.0254366 0.0452207 0.0706573 0.101747 0.138488 0.180883 0.226027 0.271018 0.315856 0.360541 0.405072 0.449451 0.493676 0.537749 0.581512 0.62481 0.667643 0.710011 0.751914 0.793352 0.834325 0.874833 0.914525 0.953049 0.990407 1.0266 1.06162 1.09548 1.12817 1.15969 1.18998 1.21898 1.24668 1.27309 1.29