<?xml version="1.0"?> 
<VTKFile type="StructuredGrid" version="0.1"> 
<StructuredGrid WholeExtent="0 128 0 128 0 0"> 
<Piece Extent="0 128 0 128 0 0"> 
<PointData>
<DataArray type="Float32" Name="u" format="ascii" NumberOfComponents="1"> 
0 0 0 0 0 0 0 0 0 0 0 0 0 0 0 0 0 0 0 0 0 0 0 0 0 0 0 0 0 0 0 0 0 0 0 0 0 0 0 0 0 0 0 0 0 0 0 0 0 0 0 0 0 0 0 0 0 0 0 0 0 0 0 0 0 0 0 0 0 0 0 0 0 0 0 0 0 0 0 0 0 0 0 0 0 0 0 0 0 0 0 0 0 0 0 0 0 0 0 0 0 0 0 0 0 0 0 0 0 0 0 0 0 0 0 0 0 0 0 0 0 0 0 0 0 0 0 0 0 0 9.31436e-06 3.72575e-05 8.38293e-05 0.00014903 0.000232859 0.000335317 0.000456404 0.000596119 0.000745055 0.000893804 0.00104236 0.00119074 0.00133892 0.00148692 0.00163473 0.00178235 0.00192922 0.00207479 0.00221905 0.002362 0.00250365 0.00264398 0.00278301 0.00292073 0.00305594 0.00318741 0.00331515 0.00343916 0.00355944 0.00367599 0.00378881 0.0038979 0.00400296 0.00410369 0.0042001 0.00429219 0.00437995 0.00446338 0.00454249 0.00461728 0.00468806 0.00475515 0.00481856 0.00487828 0.00493432 0.00498667 0.00503534 0.00508032 0.00512211 0.00516121 0.00519763 0.00523136 0.0052624 0.00529075 0.00531641 0.00533939 0.00536001 0.0053786 0.00539517 0.00540971 0.00542223 0.00543272 0.00544119 0.00544763 0.00545203 0.00545437 0.00545464 0.00545286 0.00544901 0.0054431 0.00543513 0.0054251 0.00541262 0.00539729 0.00537912 0.00535811 0.00533425 0.00530755 0.00527801 0.00524562 0.00520978 0.00516987 0.0051259 0.00507786 0.00502575 0.00496958 0.00490934 0.00484503 0.00477619 0.00470236 0.00462353 0.0045397 0.00445088 0.00435706 0.00425825 0.00415444 0.00404584 0.00393266 0.00381489 0.00369254 0.0035656 0.00343408 0.00329798 0.0031573 0.00301332 0.00286734 0.00271936 0.00256938 0.00241739 0.00226341 0.00210742 0.00194944 0.00179013 0.00163016 0.00146955 0.00130829 0.00114638 0.000983818 0.000820607 0.000656745 0.000502821 0.000369419 0.000256541 0.000164186 9.23548e-05 4.10466e-05 1.02616e-05 0 0 3.72575e-05 0.00014903 0.000335317 0.000596119 0.000931436 0.00134127 0.00182562 0.00238448 0.00298022 0.00357521 0.00416946 0.00476295 0.00535569 0.00594768 0.00653892 0.0071294 0.0077169 0.00829917 0.0088762 0.00944801 0.0100146 0.0105759 0.0111321 0.0116829 0.0122238 0.0127496 0.0132606 0.0137566 0.0142378 0.014704 0.0151552 0.0155916 0.0160118 0.0164148 0.0168004 0.0171687 0.0175198 0.0178535 0.01817 0.0184691 0.0187522 0.0190206 0.0192742 0.0195131 0.0197373 0.0199467 0.0201414 0.0203213 0.0204884 0.0206449 0.0207905 0.0209254 0.0210496 0.021163 0.0212656 0.0213575 0.02144 0.0215144 0.0215807 0.0216388 0.0216889 0.0217309 0.0217647 0.0217905 0.0218081 0.0218175 0.0218186 0.0218114 0.021796 0.0217724 0.0217405 0.0217004 0.0216505 0.0215892 0.0215165 0.0214324 0.021337 0.0212302 0.021112 0.0209825 0.0208391 0.0206795 0.0205036 0.0203114 0.020103 0.0198783 0.0196373 0.0193801 0.0191048 0.0188094 0.0184941 0.0181588 0.0178035 0.0174283 0.017033 0.0166178 0.0161834 0.0157306 0.0152596 0.0147701 0.0142624 0.0137363 0.0131919 0.0126292 0.0120533 0.0114694 0.0108774 0.0102775 0.00966957 0.00905363 0.00842969 0.00779775 0.0071605 0.00652066 0.00587821 0.00523316 0.00458552 0.00393527 0.00328243 0.00262698 0.00201128 0.00147768 0.00102616 0.000656745 0.000369419 0.000164186 4.10466e-05 0 0 8.38293e-05 0.000335317 0.000754464 0.00134127 0.00209573 0.00301785 0.00410763 0.00536507 0.0067055 0.00804423 0.00938128 0.0107166 0.0120503 0.0133823 0.0147126 0.0160412 0.017363 0.0186731 0.0199715 0.021258 0.0225328 0.0237959 0.0250471 0.0262866 0.0275034 0.0286867 0.0298364 0.0309524 0.032035 0.0330839 0.0340993 0.0350811 0.0360266 0.0369332 0.0378009 0.0386297 0.0394195 0.0401704 0.0408824 0.0415555 0.0421925 0.0427964 0.0433671 0.0439046 0.0444089 0.0448801 0.045318 0.0457229 0.046099 0.0464509 0.0467787 0.0470822 0.0473616 0.0476167 0.0478477 0.0480545 0.04824 0.0484074 0.0485565 0.0486874 0.0488 0.0488945 0.0489707 0.0490287 0.0490683 0.0490893 0.0490918 0.0490757 0.0490411 0.0489879 0.0489162 0.0488259 0.0487136 0.0485756 0.0484121 0.048223 0.0480083 0.047768 0.0475021 0.0472106 0.046888 0.0465288 0.0461331 0.0457007 0.0452317 0.0447262 0.044184 0.0436053 0.0429857 0.0423212 0.0416118 0.0408573 0.0400579 0.0392136 0.0383242 0.0373899 0.0364125 0.0353939 0.034334 0.0332328 0.0320904 0.0309068 0.0296818 0.0284157 0.0271199 0.025806 0.0244742 0.0231244 0.0217565 0.0203707 0.0189668 0.0175449 0.0161111 0.0146715 0.013226 0.0117746 0.0103174 0.00885436 0.00738546 0.00591071 0.00452539 0.00332477 0.00230887 0.00147768 0.000831193 0.000369419 9.23548e-05 0 0 0.00014903 0.000596119 0.00134127 0.00238448 0.00372575 0.00536507 0.00730246 0.00953791 0.0119209 0.0143009 0.0166778 0.0190518 0.0214228 0.0237907 0.0261557 0.0285176 0.0308676 0.0331967 0.0355048 0.037792 0.0400584 0.0423037 0.0445282 0.0467318 0.048895 0.0509986 0.0530424 0.0550266 0.0569511 0.0588158 0.0606209 0.0623663 0.0640473 0.065659 0.0672016 0.068675 0.0700791 0.0714141 0.0726799 0.0738764 0.0750089 0.0760825 0.077097 0.0780526 0.0789491 0.0797868 0.0805654 0.0812851 0.0819538 0.0825794 0.0831621 0.0837017 0.0841983 0.084652 0.0850626 0.0854302 0.0857601 0.0860576 0.0863227 0.0865554 0.0867556 0.0869235 0.087059 0.0871621 0.0872325 0.0872699 0.0872743 0.0872457 0.0871842 0.0870896 0.0869621 0.0868016 0.0866019 0.0863567 0.086066 0.0857297 0.085348 0.0849208 0.0844481 0.0839299 0.0833565 0.0827179 0.0820143 0.0812457 0.080412 0.0795132 0.0785494 0.0775205 0.0764191 0.0752377 0.0739765 0.0726352 0.0712141 0.069713 0.068132 0.066471 0.0647334 0.0629225 0.0610382 0.0590806 0.0570496 0.0549453 0.0527677 0.0505167 0.0482131 0.0458774 0.0435097 0.04111 0.0386783 0.0362145 0.0337188 0.031191 0.028642 0.0260826 0.0235128 0.0209327 0.0183421 0.0157411 0.0131297 0.0105079 0.00804513 0.00591071 0.00410466 0.00262698 0.00147768 0.000656745 0.000164186 0 0 0.000232859 0.000931436 0.00209573 0.00372575 0.00582148 0.00838293 0.0114101 0.014903 0.0186264 0.0223451 0.0260591 0.0297684 0.033473 0.037173 0.0408682 0.0445588 0.0482306 0.0518698 0.0554763 0.0590501 0.0625912 0.0660996 0.0695753 0.0730184 0.0763984 0.0796852 0.0828788 0.085979 0.088986 0.0918997 0.0947202 0.0974474 0.100074 0.102592 0.105003 0.107305 0.109499 0.111585 0.113562 0.115432 0.117201 0.118879 0.120464 0.121957 0.123358 0.124667 0.125883 0.127008 0.128053 0.12903 0.129941 0.130784 0.13156 0.132269 0.13291 0.133485 0.134 0.134465 0.134879 0.135243 0.135556 0.135818 0.13603 0.136191 0.136301 0.136359 0.136366 0.136321 0.136225 0.136078 0.135878 0.135628 0.135315 0.134932 0.134478 0.133953 0.133356 0.132689 0.13195 0.131141 0.130244 0.129247 0.128147 0.126946 0.125644 0.124239 0.122733 0.121126 0.119405 0.117559 0.115588 0.113493 0.111272 0.108927 0.106456 0.103861 0.101146 0.0983164 0.0953722 0.0923134 0.08914 0.0858521 0.0824495 0.0789324 0.0753329 0.0716834 0.0679839 0.0642344 0.0604348 0.0565852 0.0526856 0.0487359 0.0447531 0.0407541 0.0367388 0.0327073 0.0286595 0.0245954 0.0205152 0.0164186 0.0125705 0.00923548 0.00641353 0.00410466 0.00230887 0.00102616 0.000256541 0 0 0.000335317 0.00134127 0.00301785 0.00536507 0.00838293 0.0120714 0.0164305 0.0214603 0.026822 0.0321769 0.0375251 0.0428665 0.0482012 0.0535291 0.0588502 0.0641646 0.0694521 0.0746925 0.0798858 0.0850321 0.0901313 0.0951834 0.100188 0.105146 0.110014 0.114747 0.119345 0.12381 0.12814 0.132336 0.136397 0.140324 0.144106 0.147733 0.151204 0.154519 0.157678 0.160682 0.16353 0.166222 0.16877 0.171186 0.173468 0.175618 0.177636 0.17952 0.181272 0.182891 0.184396 0.185804 0.187115 0.188329 0.189446 0.190467 0.191391 0.192218 0.19296 0.19363 0.194226 0.19475 0.1952 0.195578 0.195883 0.196115 0.196273 0.196357 0.196367 0.196303 0.196164 0.195952 0.195665 0.195304 0.194854 0.194303 0.193648 0.192892 0.192033 0.191072 0.190008 0.188842 0.187552 0.186115 0.184532 0.182803 0.180927 0.178905 0.176736 0.174421 0.171943 0.169285 0.166447 0.163429 0.160232 0.156854 0.153297 0.14956 0.14565 0.141576 0.137336 0.132931 0.128362 0.123627 0.118727 0.113663 0.108479 0.103224 0.0978969 0.0924975 0.0870261 0.0814827 0.0758672 0.0701797 0.0644445 0.0586859 0.0529039 0.0470985 0.0412697 0.0354174 0.0295418 0.0236428 0.0181015 0.0132991 0.00923548 0.00591071 0.00332477 0.00147768 0.000369419 0 0 0.000456404 0.00182562 0.00410763 0.00730246 0.0114101 0.0164305 0.0223638 0.0292098 0.0365077 0.0437964 0.0510758 0.0583461 0.0656072 0.072859 0.0801017 0.0873352 0.094532 0.101665 0.108733 0.115738 0.122679 0.129555 0.136368 0.143116 0.149741 0.156183 0.162442 0.168519 0.174413 0.180123 0.185652 0.190997 0.196145 0.201081 0.205805 0.210317 0.214617 0.218706 0.222582 0.226247 0.229715 0.233003 0.23611 0.239036 0.241782 0.244347 0.246732 0.248936 0.250983 0.252899 0.254684 0.256336 0.257857 0.259247 0.260504 0.26163 0.26264 0.263551 0.264363 0.265076 0.265689 0.266203 0.266618 0.266934 0.267149 0.267264 0.267277 0.26719 0.267002 0.266712 0.266322 0.26583 0.265218 0.264467 0.263577 0.262547 0.261378 0.26007 0.258622 0.257035 0.255279 0.253324 0.251169 0.248815 0.246262 0.243509 0.240557 0.237406 0.234033 0.230416 0.226553 0.222445 0.218093 0.213496 0.208654 0.203568 0.198246 0.1927 0.18693 0.180934 0.174714 0.16827 0.161601 0.154707 0.147653 0.1405 0.133248 0.125899 0.118452 0.110907 0.103264 0.0955224 0.0877162 0.079878 0.0720081 0.0641063 0.0561726 0.0482071 0.0402097 0.0321805 0.0246382 0.0181015 0.0125705 0.00804513 0.00452539 0.00201128 0.000502821 0 0 0.000596119 0.00238448 0.00536507 0.00953791 0.014903 0.0214603 0.0292098 0.0381516 0.0476835 0.0572034 0.0667113 0.0762072 0.085691 0.0951628 0.104623 0.11407 0.12347 0.132787 0.142019 0.151168 0.160233 0.169215 0.178113 0.186927 0.19558 0.203994 0.21217 0.220106 0.227804 0.235263 0.242484 0.249465 0.256189 0.262636 0.268806 0.2747 0.280317 0.285656 0.290719 0.295506 0.300036 0.30433 0.308388 0.31221 0.315797 0.319147 0.322262 0.32514 0.327815 0.330318 0.332648 0.334807 0.336793 0.338608 0.34025 0.341721 0.34304 0.34423 0.345291 0.346221 0.347023 0.347694 0.348236 0.348648 0.34893 0.349079 0.349097 0.348983 0.348737 0.348359 0.347849 0.347207 0.346408 0.345427 0.344264 0.342919 0.341392 0.339683 0.337793 0.33572 0.333426 0.330872 0.328057 0.324983 0.321648 0.318053 0.314197 0.310082 0.305676 0.300951 0.295906 0.290541 0.284856 0.278852 0.272528 0.265884 0.258934 0.25169 0.244153 0.236322 0.228199 0.219781 0.211071 0.202067 0.192852 0.18351 0.174039 0.16444 0.154713 0.144858 0.134875 0.124764 0.114568 0.10433 0.0940514 0.0837306 0.0733683 0.0629643 0.0525188 0.0420317 0.0321805 0.0236428 0.0164186 0.0105079 0.00591071 0.00262698 0.000656745 0 0 0.000745037 0.00298015 0.00670534 0.0119206 0.0186259 0.0268213 0.0365068 0.0476824 0.0595951 0.0714918 0.0833728 0.0952378 0.107087 0.11892 0.130738 0.142539 0.15428 0.165916 0.177446 0.188871 0.200191 0.211405 0.222514 0.233518 0.244319 0.254822 0.265026 0.274931 0.284537 0.293844 0.302853 0.311562 0.31995 0.327991 0.335686 0.343036 0.35004 0.356697 0.363009 0.368975 0.374621 0.379973 0.38503 0.389792 0.394261 0.398435 0.402314 0.405899 0.40923 0.412347 0.415248 0.417936 0.420409 0.422668 0.424713 0.426543 0.428185 0.429666 0.430985 0.432144 0.433141 0.433976 0.434651 0.435164 0.435514 0.435701 0.435723 0.435581 0.435274 0.434804 0.434169 0.433371 0.432376 0.431156 0.429708 0.428034 0.426133 0.424005 0.421651 0.41907 0.416214 0.413032 0.409527 0.405696 0.401541 0.397061 0.392257 0.387128 0.381637 0.375747 0.369457 0.362768 0.35568 0.348192 0.340305 0.332019 0.323349 0.314313 0.304909 0.295139 0.285002 0.274498 0.263627 0.252389 0.240887 0.229224 0.217401 0.205417 0.193272 0.180966 0.1685 0.155873 0.143139 0.130352 0.117512 0.10462 0.0916745 0.0786763 0.0656253 0.0525214 0.0402117 0.0295433 0.0205162 0.0131303 0.00738582 0.00328259 0.000820646 0 0 0.000893732 0.00357493 0.00804358 0.0142997 0.0223433 0.0321743 0.0437928 0.0571988 0.0714878 0.0857554 0.100002 0.114226 0.128429 0.142611 0.156772 0.170911 0.184975 0.19891 0.212718 0.226396 0.239947 0.253368 0.266662 0.279827 0.292748 0.305309 0.31751 0.329352 0.340834 0.351956 0.362719 0.373121 0.383137 0.392737 0.401923 0.410694 0.419051 0.426992 0.434519 0.441631 0.44836 0.454736 0.460761 0.466434 0.471755 0.476724 0.481341 0.485606 0.489568 0.493274 0.496725 0.49992 0.50286 0.505545 0.507974 0.510148 0.512098 0.513857 0.515424 0.5168 0.517984 0.518976 0.519777 0.520387 0.520803 0.521024 0.52105 0.520882 0.520519 0.51996 0.519207 0.518259 0.517079 0.515629 0.513909 0.511919 0.50966 0.50713 0.504331 0.501262 0.497864 0.494079 0.489906 0.485345 0.480397 0.475061 0.469337 0.463226 0.456682 0.449659 0.442159 0.43418 0.425722 0.416787 0.407373 0.39748 0.387129 0.376336 0.365102 0.353428 0.341312 0.328756 0.315758 0.30232 0.288564 0.274613 0.260467 0.246127 0.231592 0.216862 0.201937 0.186817 0.171567 0.156251 0.14087 0.125422 0.109909 0.0943301 0.0786852 0.0629745 0.0482149 0.0354232 0.0245994 0.0157436 0.00885579 0.00393591 0.000983977 0 0 0.0010422 0.00416881 0.00937982 0.0166752 0.0260551 0.0375193 0.0510679 0.0667009 0.0833618 0.099994 0.116598 0.133172 0.149718 0.166236 0.182725 0.199185 0.215554 0.23177 0.247833 0.263743 0.279501 0.295105 0.310556 0.325854 0.340865 0.355454 0.369623 0.383369 0.396694 0.409598 0.422081 0.434142 0.44575 0.456875 0.467517 0.477675 0.48735 0.496541 0.505249 0.513473 0.521251 0.528621 0.535582 0.542135 0.548279 0.554015 0.559342 0.564261 0.568829 0.573101 0.577078 0.58076 0.584147 0.587238 0.590035 0.592536 0.59478 0.596804 0.598607 0.600189 0.601552 0.602694 0.603615 0.604316 0.604795 0.60505 0.605081 0.604887 0.60447 0.603828 0.602963 0.601873 0.600516 0.598847 0.596867 0.594575 0.591972 0.589058 0.585832 0.582295 0.578377 0.57401 0.569194 0.563929 0.558215 0.552051 0.545438 0.538375 0.53081 0.522688 0.51401 0.504775 0.494983 0.484635 0.473731 0.462269 0.450272 0.437759 0.424731 0.411188 0.397129 0.382555 0.367466 0.351861 0.335884 0.319676 0.303238 0.28657 0.269672 0.252544 0.235186 0.217597 0.199853 0.182029 0.164124 0.146138 0.128072 0.109926 0.0916987 0.0733912 0.0561901 0.0412825 0.0286684 0.0183478 0.0103206 0.00458695 0.00114674 0 0 0.00119045 0.0047618 0.010714 0.0190472 0.0297612 0.0428562 0.058332 0.0761887 0.0952171 0.114208 0.133161 0.152076 0.170954 0.189794 0.208596 0.227361 0.246018 0.264495 0.282793 0.300913 0.318853 0.336614 0.354196 0.371599 0.388671 0.405259 0.421363 0.436983 0.452119 0.466771 0.480939 0.494624 0.50779 0.520405 0.532468 0.543978 0.554937 0.565343 0.575198 0.584501 0.593295 0.601626 0.609492 0.616895 0.623833 0.630308 0.636318 0.641864 0.647012 0.651826 0.656307 0.660454 0.664268 0.667748 0.670895 0.673708 0.676231 0.678506 0.680533 0.682313 0.683844 0.685128 0.686165 0.686953 0.687491 0.687778 0.687813 0.687596 0.687128 0.686408 0.685435 0.684212 0.682686 0.680809 0.678581 0.676001 0.67307 0.669788 0.666154 0.662169 0.657753 0.652828 0.647393 0.641449 0.634995 0.628032 0.620559 0.612577 0.604022 0.594834 0.585011 0.574555 0.563464 0.551738 0.539379 0.526385 0.512779 0.498583 0.483797 0.468421 0.452454 0.435897 0.41875 0.401012 0.382846 0.364414 0.345714 0.326747 0.307514 0.288014 0.268246 0.248212 0.227997 0.207684 0.187274 0.166767 0.146164 0.125463 0.104666 0.0837713 0.0641374 0.0471214 0.0327232 0.0209428 0.0117803 0.00523571 0.00130893 0 0 0.00133847 0.00535389 0.0120462 0.0214156 0.0334618 0.048185 0.0655851 0.0856622 0.107054 0.128397 0.149691 0.170938 0.192136 0.213286 0.234387 0.25544 0.276366 0.297085 0.317598 0.337904 0.358003 0.377896 0.397583 0.417063 0.436166 0.454722 0.472731 0.490193 0.507107 0.523474 0.539295 0.554568 0.569257 0.583326 0.596775 0.609603 0.621812 0.6334 0.644367 0.654714 0.664492 0.673752 0.682492 0.690714 0.698417 0.705602 0.712268 0.718415 0.724118 0.729451 0.734412 0.739004 0.743224 0.747075 0.750555 0.753664 0.756451 0.758964 0.761204 0.76317 0.764862 0.766281 0.767426 0.768297 0.768892 0.769209 0.769248 0.769009 0.768493 0.767698 0.766625 0.765275 0.76359 0.761516 0.759052 0.756198 0.752954 0.74932 0.745297 0.740884 0.735991 0.73053 0.724501 0.717904 0.710738 0.703003 0.6947 0.685829 0.676318 0.666096 0.655163 0.643518 0.631162 0.618096 0.604318 0.589828 0.574651 0.558808 0.542299 0.525125 0.507285 0.48878 0.46961 0.449773 0.429452 0.408825 0.387894 0.366658 0.345116 0.32327 0.301119 0.278663 0.255998 0.233217 0.210321 0.18731 0.164183 0.140942 0.117586 0.0941149 0.0720568 0.0529397 0.0367636 0.0235287 0.0132349 0.00588218 0.00147055 0 0 0.00148627 0.00594509 0.0133764 0.0237803 0.0371568 0.0535058 0.0728273 0.0951214 0.118871 0.142561 0.166189 0.189757 0.213264 0.236711 0.260097 0.283422 0.306599 0.32954 0.352246 0.374717 0.396952 0.418952 0.440716 0.462245 0.48335 0.503844 0.523727 0.542999 0.561659 0.579708 0.597146 0.613973 0.63015 0.645639 0.660439 0.674551 0.687975 0.70071 0.712756 0.724115 0.734843 0.744998 0.754582 0.763593 0.772032 0.779898 0.787192 0.793914 0.800147 0.805974 0.811394 0.816408 0.821016 0.825218 0.829013 0.832403 0.83544 0.838178 0.840619 0.842761 0.844605 0.846151 0.847398 0.848347 0.848996 0.849342 0.849386 0.849126 0.848564 0.8477 0.846533 0.845063 0.843228 0.840967 0.838279 0.835165 0.831623 0.827656 0.823261 0.81844 0.813092 0.807119 0.800519 0.793294 0.785443 0.776966 0.767862 0.758133 0.747698 0.736475 0.724464 0.711666 0.69808 0.683707 0.668547 0.652599 0.635886 0.618433 0.600238 0.581302 0.561624 0.541205 0.520045 0.498144 0.4757 0.452911 0.429779 0.406301 0.38248 0.358314 0.333804 0.30895 0.283856 0.258627 0.233264 0.207765 0.182132 0.156363 0.13046 0.104422 0.0799481 0.0587374 0.0407899 0.0261055 0.0146844 0.00652638 0.00163159 0 0 0.00163385 0.00653539 0.0147046 0.0261416 0.0408462 0.0588185 0.0800585 0.104566 0.13067 0.1567 0.182654 0.208534 0.234339 0.26007 0.285725 0.311306 0.336716 0.361861 0.386739 0.411352 0.435699 0.45978 0.483595 0.507144 0.530223 0.552625 0.574351 0.595401 0.615775 0.635473 0.654495 0.67284 0.69047 0.707343 0.72346 0.738821 0.753425 0.767274 0.780365 0.792701 0.804346 0.815366 0.825761 0.835531 0.844676 0.853196 0.861091 0.868361 0.875099 0.881396 0.887252 0.892668 0.897643 0.902177 0.906271 0.909925 0.913197 0.916148 0.918777 0.921086 0.923073 0.924738 0.926082 0.927105 0.927804 0.928178 0.928225 0.927947 0.927343 0.926413 0.925157 0.923576 0.9216 0.919163 0.916263 0.912902 0.909079 0.904793 0.900046 0.894837 0.889056 0.882593 0.875447 0.86762 0.85911 0.849919 0.840045 0.829489 0.818161 0.80597 0.792915 0.778997 0.764217 0.748573 0.732066 0.714696 0.696486 0.677458 0.657613 0.63695 0.61547 0.593172 0.570057 0.546124 0.521591 0.496672 0.471368 0.445679 0.419605 0.393145 0.366301 0.339072 0.311572 0.283916 0.256103 0.228134 0.200008 0.171726 0.143288 0.114693 0.0878116 0.0645146 0.0448018 0.0286732 0.0161287 0.00716829 0.00179207 0 0 0.0017812 0.0071248 0.0160308 0.0284992 0.04453 0.0641232 0.0872788 0.113997 0.142451 0.170814 0.199087 0.227269 0.255361 0.283362 0.311272 0.339093 0.366718 0.394047 0.421077 0.447809 0.474244 0.500381 0.526221 0.551762 0.576784 0.601064 0.624603 0.647399 0.669454 0.690768 0.711339 0.731169 0.750216 0.768439 0.785838 0.802413 0.818164 0.833091 0.847194 0.860473 0.873002 0.884854 0.896029 0.906528 0.91635 0.925495 0.933964 0.941756 0.948973 0.955717 0.961986 0.967782 0.973105 0.977954 0.982329 0.98623 0.989723 0.992873 0.99568 0.998144 1.00027 1.00204 1.00348 1.00457 1.00532 1.00572 1.00577 1.00547 1.00483 1.00384 1.0025 1.00081 0.998706 0.996103 0.993004 0.98941 0.98532 0.980734 0.975653 0.970076 0.963882 0.956952 0.949285 0.940881 0.93174 0.921863 0.911248 0.899897 0.887708 0.874581 0.860516 0.845513 0.829572 0.812693 0.794876 0.776121 0.756449 0.735884 0.714424 0.692071 0.668823 0.644681 0.619645 0.593715 0.567124 0.540106 0.512661 0.484789 0.45649 0.427764 0.39861 0.36903 0.339146 0.309082 0.278839 0.248416 0.217813 0.187031 0.156069 0.124927 0.0956471 0.0702713 0.0487995 0.0312317 0.0175678 0.00780792 0.00195198 0 0 0.00192776 0.00771103 0.0173498 0.0308441 0.048194 0.0693993 0.0944602 0.123377 0.154167 0.184849 0.215423 0.24589 0.276248 0.306499 0.336642 0.366676 0.396492 0.425976 0.455128 0.48395 0.51244 0.540599 0.568427 0.595924 0.62285 0.648969 0.67428 0.698782 0.722476 0.745362 0.76744 0.78871 0.80913 0.828659 0.847296 0.865042 0.881897 0.89786 0.912932 0.927113 0.940484 0.953129 0.965046 0.976237 0.9867 0.996436 1.00545 1.01373 1.02139 1.02856 1.03521 1.04136 1.04701 1.05215 1.05678 1.06092 1.06461 1.06795 1.07092 1.07352 1.07577 1.07765 1.07917 1.08033 1.08112 1.08154 1.0816 1.08128 1.08061 1.07956 1.07815 1.07636 1.07414 1.07138 1.0681 1.06429 1.05995 1.05508 1.04969 1.04377 1.03719 1.02982 1.02166 1.01271 1.00297 0.992445 0.981126 0.969017 0.956008 0.941986 0.926952 0.910906 0.893848 0.875777 0.856695 0.836601 0.815514 0.793457 0.770429 0.746429 0.721459 0.695517 0.668604 0.64072 0.612115 0.58304 0.553493 0.523477 0.492989 0.462031 0.430603 0.398703 0.366467 0.334025 0.30138 0.268529 0.235474 0.202215 0.168751 0.135083 0.103423 0.075984 0.0527667 0.0337707 0.018996 0.00844267 0.00211067 0 0 0.00207295 0.00829182 0.0186566 0.0331673 0.0518239 0.0746264 0.101575 0.132669 0.165773 0.19875 0.231601 0.264324 0.296922 0.329392 0.361735 0.393952 0.425923 0.457527 0.488764 0.519635 0.550139 0.580277 0.610048 0.639453 0.668237 0.696146 0.723179 0.749336 0.774618 0.799025 0.822557 0.845212 0.866952 0.887733 0.907556 0.926421 0.944328 0.961277 0.977268 0.992301 1.00647 1.01986 1.03247 1.04431 1.05537 1.06566 1.07517 1.08391 1.09199 1.09953 1.10654 1.11302 1.11896 1.12437 1.12924 1.13358 1.13746 1.14096 1.14408 1.14681 1.14917 1.15115 1.15274 1.15396 1.15479 1.15523 1.15529 1.15497 1.15426 1.15316 1.15168 1.14982 1.14748 1.14459 1.14114 1.13713 1.13257 1.12745 1.12177 1.11553 1.1086 1.10082 1.09221 1.08275 1.07245 1.06131 1.04933 1.03651 1.02273 1.00786 0.991907 0.974868 0.956744 0.937536 0.917242 0.895864 0.873418 0.849925 0.825382 0.799792 0.773153 0.745465 0.716729 0.686945 0.656378 0.625296 0.593698 0.561585 0.528955 0.495811 0.46215 0.427974 0.393424 0.358644 0.323633 0.288392 0.25292 0.217217 0.181283 0.145119 0.111106 0.0816293 0.056687 0.0362797 0.0204073 0.00906992 0.00226748 0 0 0.00221679 0.00886715 0.0199511 0.0354686 0.0554197 0.0798044 0.108623 0.141874 0.17727 0.212518 0.247619 0.282573 0.31738 0.352041 0.386554 0.42092 0.455012 0.488699 0.521983 0.554864 0.587341 0.619415 0.651085 0.682351 0.712944 0.742594 0.7713 0.799062 0.825881 0.851757 0.876689 0.900677 0.923682 0.945662 0.966618 0.986551 1.00546 1.02334 1.0402 1.05604 1.07095 1.08504 1.0983 1.11075 1.12237 1.13316 1.14314 1.15229 1.16075 1.16864 1.17598 1.18275 1.18896 1.19461 1.19969 1.20422 1.20826 1.21191 1.21516 1.21801 1.22047 1.22253 1.22419 1.22546 1.22633 1.22679 1.22686 1.22652 1.22579 1.22465 1.22312 1.22118 1.21875 1.21573 1.21213 1.20795 1.20318 1.19783 1.19189 1.18537 1.17811 1.16996 1.16092 1.15099 1.14018 1.12847 1.11587 1.10238 1.08787 1.0722 1.05538 1.0374 1.01826 0.997968 0.976517 0.95391 0.930161 0.905286 0.879285 0.852158 0.823905 0.794526 0.764021 0.732389 0.699914 0.666876 0.633276 0.599113 0.564388 0.529101 0.493252 0.45684 0.420019 0.382939 0.3456 0.308004 0.270149 0.232036 0.193664 0.155035 0.118699 0.0872071 0.0605605 0.0387587 0.0218018 0.00968967 0.00242242 0 0 0.00235926 0.00943704 0.0212333 0.0377482 0.0589815 0.0849334 0.115604 0.150993 0.188656 0.226152 0.263478 0.300636 0.337625 0.374446 0.411097 0.44758 0.483758 0.519493 0.554786 0.589637 0.624046 0.658012 0.691536 0.724618 0.756972 0.788314 0.818643 0.84796 0.876265 0.903557 0.929836 0.955104 0.97932 1.00245 1.02448 1.04543 1.06529 1.08406 1.10173 1.11832 1.13393 1.14867 1.16255 1.17555 1.18768 1.19895 1.20935 1.21888 1.22768 1.23589 1.24352 1.25055 1.257 1.26287 1.26814 1.27283 1.27702 1.2808 1.28416 1.28712 1.28967 1.2918 1.29352 1.29484 1.29574 1.29622 1.2963 1.29595 1.2952 1.29403 1.29244 1.29044 1.28793 1.28481 1.28107 1.27673 1.27178 1.26622 1.26005 1.25327 1.24572 1.23723 1.22781 1.21744 1.20615 1.19391 1.18074 1.16663 1.15144 1.13502 1.11737 1.0985 1.0784 1.05707 1.03452 1.01074 0.985743 0.959542 0.932138 0.903529 0.873716 0.842699 0.810479 0.777054 0.742721 0.707779 0.672226 0.636062 0.599288 0.561904 0.523909 0.485304 0.44625 0.406909 0.36728 0.327365 0.287162 0.246672 0.205895 0.164831 0.126199 0.0927174 0.0643871 0.0412078 0.0231794 0.0103019 0.00257548 0 0 0.00250037 0.0100015 0.0225033 0.0400059 0.0625092 0.0900133 0.122518 0.160024 0.199934 0.239652 0.279178 0.318513 0.357655 0.396606 0.435365 0.473932 0.512162 0.549909 0.587174 0.623955 0.660254 0.696069 0.731402 0.766252 0.80032 0.833305 0.865208 0.896029 0.925768 0.954425 0.982 1.00849 1.03387 1.05809 1.08115 1.10306 1.12382 1.14342 1.16187 1.17916 1.19542 1.21076 1.2252 1.23872 1.25132 1.26302 1.2738 1.28367 1.29278 1.30128 1.30916 1.31644 1.3231 1.32915 1.33459 1.33942 1.34373 1.34762 1.35109 1.35414 1.35676 1.35896 1.36074 1.36209 1.36302 1.36352 1.3636 1.36325 1.36248 1.36128 1.35966 1.3576 1.35502 1.35181 1.34796 1.34349 1.33838 1.33263 1.32626 1.31925 1.31143 1.30264 1.29286 1.2821 1.27036 1.25764 1.24393 1.22925 1.21342 1.1963 1.17788 1.15817 1.13716 1.11485 1.09125 1.06635 1.04016 1.01269 0.983939 0.953904 0.922586 0.889985 0.856103 0.820937 0.784801 0.748005 0.710548 0.672431 0.633655 0.594218 0.554121 0.513363 0.472118 0.430554 0.388673 0.346475 0.303959 0.261126 0.217975 0.174507 0.133607 0.0981604 0.0681669 0.0436268 0.0245401 0.0109067 0.00272668 0 0 0.00264012 0.0105605 0.023761 0.0422418 0.0660029 0.0950442 0.129366 0.168967 0.211101 0.253018 0.294719 0.336203 0.377471 0.418523 0.459358 0.499977 0.540224 0.579947 0.619145 0.657817 0.695964 0.733587 0.770683 0.807255 0.842988 0.877568 0.910996 0.943271 0.974393 1.00436 1.03318 1.06084 1.08732 1.11258 1.13662 1.15944 1.18104 1.20143 1.22059 1.23854 1.2554 1.2713 1.28625 1.30025 1.31329 1.32537 1.3365 1.34667 1.35605 1.3648 1.37291 1.38039 1.38724 1.39346 1.39904 1.40399 1.40841 1.41239 1.41594 1.41906 1.42175 1.42401 1.42583 1.42722 1.42817 1.42869 1.42878 1.42843 1.42764 1.42642 1.42476 1.42267 1.42004 1.41675 1.4128 1.40821 1.40296 1.39706 1.3905 1.3833 1.37525 1.36618 1.35608 1.34496 1.33282 1.31965 1.30546 1.29024 1.27383 1.25606 1.23692 1.21641 1.19454 1.17131 1.14671 1.12075 1.09342 1.06474 1.03469 1.00328 0.970514 0.936384 0.900893 0.864041 0.826153 0.787554 0.748243 0.708221 0.667488 0.626043 0.583887 0.54102 0.497622 0.453875 0.40978 0.365335 0.320541 0.275397 0.229905 0.184064 0.140924 0.103536 0.0718999 0.0460159 0.025884 0.011504 0.002876 0 0 0.0027785 0.011114 0.0250065 0.044456 0.0694625 0.100026 0.136146 0.177824 0.222159 0.266251 0.310101 0.353708 0.397073 0.440195 0.483075 0.525713 0.567944 0.609607 0.6507 0.691224 0.731178 0.770564 0.80938 0.847627 0.884977 0.921103 0.956005 0.989683 1.02214 1.05337 1.08337 1.11216 1.13968 1.16593 1.19089 1.21457 1.23697 1.25809 1.27792 1.29647 1.31388 1.3303 1.34572 1.36014 1.37357 1.386 1.39744 1.40788 1.41749 1.42646 1.43477 1.44242 1.44943 1.45578 1.46148 1.46653 1.47104 1.4751 1.47872 1.4819 1.48464 1.48694 1.4888 1.49022 1.49119 1.49173 1.49182 1.49147 1.49068 1.48944 1.48776 1.48564 1.48296 1.47962 1.47559 1.4709 1.46554 1.4595 1.45279 1.44541 1.43716 1.42785 1.41747 1.40603 1.39352 1.37995 1.36531 1.34961 1.33266 1.31428 1.29446 1.27322 1.25054 1.22644 1.2009 1.17393 1.14552 1.11568 1.08439 1.05167 1.0175 0.981895 0.944849 0.906364 0.866777 0.826426 0.785311 0.743432 0.700788 0.65738 0.613209 0.568273 0.522763 0.476872 0.430599 0.383943 0.336906 0.289486 0.241684 0.1935 0.148149 0.108844 0.075586 0.0483751 0.027211 0.0120938 0.00302344 0 0 0.00291552 0.0116621 0.0262397 0.0466483 0.072888 0.104959 0.142861 0.186593 0.233107 0.27935 0.325323 0.371027 0.41646 0.461624 0.506517 0.551141 0.595322 0.638888 0.681839 0.724174 0.765895 0.807001 0.847491 0.887367 0.926286 0.96391 1.00024 1.03527 1.069 1.10144 1.13258 1.16243 1.19095 1.21813 1.24397 1.26846 1.2916 1.31339 1.33385 1.35295 1.37087 1.38775 1.40359 1.4184 1.43218 1.44491 1.45662 1.46729 1.4771 1.48625 1.49473 1.50253 1.50967 1.51613 1.52193 1.52705 1.53162 1.53574 1.53942 1.54264 1.54543 1.54776 1.54965 1.55109 1.55209 1.55264 1.55274 1.55239 1.55159 1.55035 1.54866 1.54652 1.54381 1.54041 1.53633 1.53156 1.5261 1.51995 1.51312 1.5056 1.49718 1.48766 1.47703 1.4653 1.45247 1.43854 1.4235 1.40735 1.38991 1.37097 1.35053 1.3286 1.30517 1.28024 1.25381 1.22589 1.19646 1.16551 1.13304 1.09905 1.06354 1.02652 0.987972 0.947907 0.906674 0.864622 0.821751 0.778062 0.733555 0.688229 0.642085 0.595122 0.547542 0.499545 0.451131 0.402302 0.353055 0.303392 0.253313 0.202817 0.155282 0.114085 0.0792254 0.0507042 0.0285211 0.0126761 0.00316901 0 0 0.00304997 0.0121999 0.0274497 0.0487995 0.0762492 0.109799 0.149448 0.195198 0.243848 0.2922 0.340253 0.388007 0.435463 0.48262 0.529479 0.576039 0.622119 0.667536 0.712291 0.756385 0.799815 0.842584 0.88469 0.926134 0.966563 1.00562 1.04332 1.07964 1.11459 1.14818 1.1804 1.21125 1.24071 1.26876 1.29541 1.32065 1.34448 1.3669 1.38792 1.40753 1.4259 1.44319 1.45942 1.47457 1.48865 1.50165 1.51359 1.52445 1.53443 1.54373 1.55234 1.56026 1.5675 1.57406 1.57992 1.5851 1.58972 1.59388 1.59759 1.60086 1.60367 1.60603 1.60794 1.6094 1.61041 1.61097 1.61108 1.61074 1.60994 1.6087 1.607 1.60485 1.60213 1.5987 1.59457 1.58974 1.58421 1.57798 1.57104 1.5634 1.55485 1.54515 1.53431 1.52233 1.50921 1.49496 1.47956 1.46302 1.44514 1.42569 1.40468 1.38211 1.35798 1.33228 1.30503 1.27621 1.24582 1.21383 1.18024 1.14505 1.10826 1.06988 1.0299 0.98832 0.945505 0.901816 0.857254 0.811817 0.765507 0.718324 0.670266 0.621335 0.571741 0.521695 0.471198 0.420248 0.368847 0.316994 0.264688 0.211931 0.16226 0.119211 0.0827857 0.0529829 0.0298029 0.0132457 0.00331143 0 0 0.00318063 0.0127225 0.0286256 0.05089 0.0795156 0.114503 0.155851 0.20356 0.254286 0.304684 0.354754 0.404496 0.45391 0.502997 0.551755 0.600185 0.648096 0.695297 0.741788 0.787569 0.83264 0.877 0.92065 0.96359 1.00546 1.04588 1.08487 1.12241 1.15852 1.19318 1.22641 1.25819 1.28852 1.31739 1.34478 1.37071 1.39517 1.41817 1.43969 1.45975 1.47852 1.49619 1.51274 1.52819 1.54253 1.55576 1.56789 1.57891 1.58902 1.59844 1.60715 1.61517 1.62249 1.6291 1.63502 1.64024 1.64488 1.64907 1.65281 1.65609 1.658