<?xml version="1.0"?> 
<VTKFile type="StructuredGrid" version="0.1"> 
<StructuredGrid WholeExtent="0 128 0 128 0 0"> 
<Piece Extent="0 128 0 128 0 0"> 
<PointData>
<DataArray type="Float32" Name="u" format="ascii" NumberOfComponents="1"> 
0 0 0 0 0 0 0 0 0 0 0 0 0 0 0 0 0 0 0 0 0 0 0 0 0 0 0 0 0 0 0 0 0 0 0 0 0 0 0 0 0 0 0 0 0 0 0 0 0 0 0 0 0 0 0 0 0 0 0 0 0 0 0 0 0 0 0 0 0 0 0 0 0 0 0 0 0 0 0 0 0 0 0 0 0 0 0 0 0 0 0 0 0 0 0 0 0 0 0 0 0 0 0 0 0 0 0 0 0 0 0 0 0 0 0 0 0 0 0 0 0 0 0 0 0 0 0 0 0 0 1.24405e-05 4.97619e-05 0.000111964 0.000199047 0.000311012 0.000447857 0.000609583 0.00079619 0.000994434 0.00119107 0.0013861 0.00157952 0.00177134 0.00196155 0.00215015 0.00233714 0.00252166 0.00270283 0.00288067 0.00305515 0.0032263 0.0033941 0.00355856 0.00371968 0.00387606 0.00402632 0.00417046 0.00430848 0.00444038 0.00456616 0.00468582 0.00479936 0.00490685 0.00500839 0.00510396 0.00519358 0.00527723 0.00535492 0.00542666 0.00549243 0.00555311 0.00560956 0.00566179 0.0057098 0.00575358 0.00579313 0.00582846 0.00585956 0.00588737 0.00591283 0.00593592 0.00595666 0.00597503 0.00599105 0.00600471 0.006016 0.0060255 0.00603374 0.00604073 0.00604646 0.00605095 0.00605418 0.00605616 0.00605689 0.00605637 0.0060546 0.00605157 0.00604729 0.00604176 0.00603498 0.00602694 0.00601765 0.00600656 0.0059931 0.00597728 0.0059591 0.00593856 0.00591566 0.0058904 0.00586278 0.00583186 0.0057967 0.00575732 0.00571371 0.00566586 0.00561378 0.00555747 0.00549693 0.00543129 0.00535968 0.00528209 0.00519853 0.00510899 0.00501348 0.004912 0.00480455 0.00469104 0.00457139 0.00444561 0.00431368 0.00417562 0.00403141 0.00388107 0.0037246 0.00356337 0.00339878 0.00323084 0.00305953 0.00288487 0.00270685 0.00252547 0.00234073 0.0021535 0.00196465 0.00177418 0.00158209 0.00138838 0.00119305 0.000996098 0.000797527 0.000610606 0.000448609 0.000311534 0.000199382 0.000112152 4.98454e-05 1.24614e-05 0 0 4.97619e-05 0.000199047 0.000447857 0.00079619 0.00124405 0.00179143 0.00243833 0.00318476 0.00397773 0.00476428 0.0055444 0.00631809 0.00708535 0.00784618 0.00860059 0.00934856 0.0100866 0.0108113 0.0115227 0.0122206 0.0129052 0.0135764 0.0142342 0.0148787 0.0155042 0.0161053 0.0166819 0.0172339 0.0177615 0.0182646 0.0187433 0.0191974 0.0196274 0.0200335 0.0204158 0.0207743 0.0211089 0.0214197 0.0217066 0.0219697 0.0222124 0.0224382 0.0226472 0.0228392 0.0230143 0.0231725 0.0233138 0.0234383 0.0235495 0.0236513 0.0237437 0.0238266 0.0239001 0.0239642 0.0240188 0.024064 0.024102 0.024135 0.0241629 0.0241859 0.0242038 0.0242167 0.0242247 0.0242276 0.0242255 0.0242184 0.0242063 0.0241892 0.024167 0.0241399 0.0241078 0.0240706 0.0240262 0.0239724 0.0239091 0.0238364 0.0237543 0.0236626 0.0235616 0.0234511 0.0233274 0.0231868 0.0230293 0.0228548 0.0226634 0.0224551 0.0222299 0.0219877 0.0217252 0.0214387 0.0211283 0.0207941 0.020436 0.0200539 0.019648 0.0192182 0.0187642 0.0182856 0.0177824 0.0172547 0.0167025 0.0161257 0.0155243 0.0148984 0.0142535 0.0135951 0.0129233 0.0122381 0.0115395 0.0108274 0.0101019 0.00936291 0.008614 0.0078586 0.00709672 0.00632836 0.00555352 0.0047722 0.00398439 0.00319011 0.00244243 0.00179444 0.00124614 0.000797527 0.000448609 0.000199382 4.98454e-05 0 0 0.000111964 0.000447857 0.00100768 0.00179143 0.0027991 0.00403071 0.00548625 0.00716571 0.0089499 0.0107196 0.0124749 0.0142157 0.015942 0.0176539 0.0193513 0.0210343 0.0226949 0.0243255 0.025926 0.0274964 0.0290367 0.0305469 0.0320271 0.0334771 0.0348845 0.0362369 0.0375342 0.0387764 0.0399635 0.0410955 0.0421724 0.0431942 0.0441617 0.0450755 0.0459357 0.0467422 0.0474951 0.0481943 0.0488399 0.0494319 0.049978 0.0504861 0.0509561 0.0513882 0.0517822 0.0521382 0.0524561 0.0527361 0.0529864 0.0532154 0.0534233 0.0536099 0.0537753 0.0539194 0.0540423 0.054144 0.0542295 0.0543036 0.0543665 0.0544182 0.0544585 0.0544876 0.0545055 0.054512 0.0545073 0.0544914 0.0544641 0.0544256 0.0543758 0.0543148 0.0542425 0.0541589 0.054059 0.0539379 0.0537955 0.0536319 0.0534471 0.053241 0.0530136 0.052765 0.0524867 0.0521703 0.0518159 0.0514234 0.0509927 0.0505241 0.0500173 0.0494724 0.0488816 0.0482371 0.0475388 0.0467867 0.0459809 0.0451214 0.044208 0.0432409 0.0422194 0.0411425 0.0400104 0.0388231 0.0375805 0.0362827 0.0349297 0.0335214 0.0320703 0.030589 0.0290775 0.0275358 0.0259638 0.0243616 0.0227292 0.0210665 0.0193815 0.0176818 0.0159676 0.0142388 0.0124954 0.0107374 0.00896488 0.00717774 0.00549546 0.00403748 0.0028038 0.00179444 0.00100937 0.000448609 0.000112152 0 0 0.000199047 0.00079619 0.00179143 0.00318476 0.00497619 0.00716571 0.00975333 0.012739 0.0159109 0.0190571 0.0221776 0.0252724 0.0283414 0.0313847 0.0344023 0.0373942 0.0403465 0.0432453 0.0460907 0.0488825 0.0516208 0.0543056 0.056937 0.0595148 0.062017 0.0644212 0.0667274 0.0689358 0.0710461 0.0730586 0.0749731 0.0767897 0.0785096 0.0801342 0.0816634 0.0830972 0.0844357 0.0856788 0.0868265 0.0878788 0.0888497 0.089753 0.0905887 0.0913567 0.0920572 0.0926901 0.0932553 0.093753 0.094198 0.0946052 0.0949747 0.0953065 0.0956005 0.0958568 0.0960753 0.0962561 0.0964079 0.0965398 0.0966516 0.0967434 0.0968152 0.0968669 0.0968986 0.0969103 0.096902 0.0968736 0.0968251 0.0967567 0.0966682 0.0965596 0.096431 0.0962824 0.0961049 0.0958896 0.0956365 0.0953457 0.095017 0.0946506 0.0942464 0.0938044 0.0933097 0.0927473 0.0921171 0.0914193 0.0906538 0.0898205 0.0889196 0.0879509 0.0869007 0.0857548 0.0845134 0.0831764 0.0817439 0.0802157 0.078592 0.0768728 0.0750566 0.0731423 0.0711297 0.0690189 0.0668099 0.0645026 0.0620972 0.0595935 0.0570139 0.0543805 0.0516934 0.0489525 0.0461579 0.0433096 0.0404075 0.0374516 0.034456 0.0314344 0.0283869 0.0253134 0.0222141 0.0190888 0.0159376 0.0127604 0.0097697 0.00717774 0.00498454 0.00319011 0.00179444 0.000797527 0.000199382 0 0 0.000311012 0.00124405 0.0027991 0.00497619 0.00777529 0.0111964 0.0152396 0.0199047 0.0248608 0.0297768 0.0346525 0.0394881 0.0442834 0.0490386 0.0537537 0.0584285 0.0630415 0.0675709 0.0720167 0.0763789 0.0806575 0.0848526 0.088964 0.0929919 0.0969015 0.100658 0.104262 0.107712 0.11101 0.114154 0.117145 0.119984 0.122671 0.12521 0.127599 0.129839 0.131931 0.133873 0.135666 0.137311 0.138828 0.140239 0.141545 0.142745 0.143839 0.144828 0.145711 0.146489 0.147184 0.147821 0.148398 0.148916 0.149376 0.149776 0.150118 0.1504 0.150637 0.150843 0.151018 0.151162 0.151274 0.151355 0.151404 0.151422 0.151409 0.151365 0.151289 0.151182 0.151044 0.150874 0.150673 0.150441 0.150164 0.149828 0.149432 0.148978 0.148464 0.147892 0.14726 0.146569 0.145796 0.144918 0.143933 0.142843 0.141647 0.140345 0.138937 0.137423 0.135782 0.133992 0.132052 0.129963 0.127725 0.125337 0.1228 0.120114 0.117276 0.114285 0.11114 0.107842 0.10439 0.100785 0.0970269 0.0931149 0.0890842 0.0849695 0.0807709 0.0764883 0.0721217 0.0676712 0.0631367 0.0585182 0.0538375 0.0491162 0.0443545 0.0395523 0.0347095 0.0298262 0.0249025 0.0199382 0.0152652 0.0112152 0.00778835 0.00498454 0.0028038 0.00124614 0.000311534 0 0 0.000447857 0.00179143 0.00403071 0.00716571 0.0111964 0.0161228 0.021945 0.0286628 0.0357996 0.0428785 0.0498996 0.0568628 0.0637682 0.0706156 0.0774053 0.0841371 0.0907797 0.097302 0.103704 0.109986 0.116147 0.122188 0.128108 0.133908 0.139538 0.144948 0.150137 0.155105 0.159854 0.164382 0.16869 0.172777 0.176647 0.180302 0.183743 0.186969 0.18998 0.192777 0.19536 0.197727 0.199912 0.201944 0.203825 0.205553 0.207129 0.208553 0.209825 0.210944 0.211945 0.212862 0.213693 0.21444 0.215101 0.215678 0.216169 0.216576 0.216918 0.217215 0.217466 0.217673 0.217834 0.217951 0.218022 0.218048 0.218029 0.217966 0.217857 0.217702 0.217503 0.217259 0.21697 0.216635 0.216236 0.215752 0.215182 0.214528 0.213788 0.212964 0.212054 0.21106 0.209947 0.208681 0.207264 0.205693 0.203971 0.202096 0.200069 0.19789 0.195527 0.192948 0.190155 0.187147 0.183924 0.180485 0.176832 0.172964 0.168877 0.16457 0.160042 0.155292 0.150322 0.145131 0.139719 0.134085 0.128281 0.122356 0.11631 0.110143 0.103855 0.0974465 0.0909168 0.0842662 0.077526 0.0707274 0.0638705 0.0569552 0.0499817 0.0429498 0.0358595 0.028711 0.0219818 0.0161499 0.0112152 0.00717774 0.00403748 0.00179444 0.000448609 0 0 0.000609583 0.00243833 0.00548625 0.00975333 0.0152396 0.021945 0.0298696 0.0390133 0.0487273 0.0583625 0.0679189 0.0773966 0.0867955 0.0961157 0.105357 0.11452 0.123561 0.132439 0.141153 0.149703 0.158089 0.166311 0.17437 0.182264 0.189927 0.19729 0.204353 0.211116 0.217579 0.223742 0.229605 0.235168 0.240436 0.245411 0.250094 0.254485 0.258584 0.262391 0.265906 0.269129 0.272102 0.274869 0.277428 0.27978 0.281925 0.283863 0.285594 0.287119 0.288481 0.289729 0.29086 0.291876 0.292777 0.293561 0.294231 0.294784 0.295249 0.295653 0.295996 0.296277 0.296497 0.296655 0.296752 0.296788 0.296762 0.296675 0.296527 0.296317 0.296046 0.295714 0.29532 0.294865 0.294321 0.293662 0.292887 0.291996 0.29099 0.289867 0.28863 0.287276 0.285761 0.284039 0.282109 0.279972 0.277627 0.275075 0.272316 0.26935 0.266133 0.262624 0.258822 0.254728 0.250341 0.245661 0.240688 0.235423 0.229861 0.223998 0.217835 0.21137 0.204605 0.197539 0.190173 0.182505 0.174605 0.16654 0.158311 0.149917 0.141359 0.132636 0.123748 0.114696 0.105521 0.0962678 0.0869348 0.0775224 0.0680306 0.0584594 0.0488088 0.0390788 0.0299197 0.0219818 0.0152652 0.0097697 0.00549546 0.00244243 0.000610606 0 0 0.00079619 0.00318476 0.00716571 0.012739 0.0199047 0.0286628 0.0390133 0.0509562 0.0636438 0.0762285 0.0887104 0.101089 0.113366 0.125539 0.137609 0.149577 0.161386 0.172981 0.184363 0.19553 0.206483 0.217223 0.227748 0.238059 0.248068 0.257685 0.26691 0.275743 0.284185 0.292234 0.299892 0.307159 0.314038 0.320537 0.326654 0.332389 0.337743 0.342715 0.347306 0.351515 0.355399 0.359012 0.362355 0.365427 0.368229 0.37076 0.373021 0.375012 0.376792 0.378421 0.379899 0.381226 0.382402 0.383427 0.384301 0.385024 0.385632 0.386159 0.386607 0.386974 0.387261 0.387468 0.387595 0.387641 0.387608 0.387494 0.387301 0.387027 0.386673 0.386238 0.385724 0.38513 0.38442 0.383558 0.382546 0.381383 0.380068 0.378602 0.376986 0.375218 0.373239 0.370989 0.368469 0.365677 0.362615 0.359282 0.355678 0.351804 0.347603 0.343019 0.338054 0.332706 0.326975 0.320863 0.314368 0.307491 0.300227 0.292569 0.284519 0.276076 0.267239 0.258011 0.248389 0.238374 0.228056 0.217522 0.206773 0.19581 0.184632 0.173238 0.16163 0.149807 0.137824 0.125738 0.113548 0.101254 0.0888563 0.0763552 0.0637503 0.0510417 0.0390788 0.028711 0.0199382 0.0127604 0.00717774 0.00319011 0.000797527 0 0 0.000994433 0.00397773 0.00894989 0.0159109 0.0248608 0.0357996 0.0487272 0.0636437 0.0794899 0.0952066 0.110794 0.126252 0.14158 0.156779 0.171849 0.186789 0.20153 0.216004 0.230209 0.244146 0.257816 0.271217 0.28435 0.297215 0.309702 0.321698 0.333206 0.344223 0.354751 0.36479 0.374339 0.383398 0.391975 0.400075 0.407699 0.414847 0.421519 0.427715 0.433434 0.438678 0.443515 0.448014 0.452177 0.456002 0.459491 0.462642 0.465456 0.467933 0.470147 0.472173 0.474012 0.475662 0.477125 0.478399 0.479486 0.480384 0.481139 0.481795 0.48235 0.482807 0.483163 0.48342 0.483578 0.483636 0.483594 0.483453 0.483213 0.482872 0.482433 0.481893 0.481254 0.480516 0.479633 0.478563 0.477304 0.475857 0.474222 0.472399 0.470388 0.468188 0.465726 0.462926 0.459789 0.456314 0.452501 0.448351 0.443862 0.439037 0.433804 0.428093 0.421906 0.415242 0.4081 0.400481 0.392385 0.383812 0.374755 0.365207 0.355167 0.344637 0.333616 0.322104 0.310101 0.297607 0.284733 0.27159 0.258177 0.244495 0.230544 0.216324 0.201834 0.187075 0.172116 0.157027 0.141807 0.126457 0.110976 0.0953645 0.0796226 0.0637503 0.0488088 0.0358595 0.0249025 0.0159376 0.00896489 0.00398439 0.000996099 0 0 0.00119107 0.00476426 0.0107196 0.019057 0.0297766 0.0428784 0.0583622 0.0762282 0.0952064 0.114027 0.132689 0.151194 0.169541 0.187731 0.205762 0.223636 0.24127 0.25858 0.275567 0.29223 0.308571 0.324588 0.340282 0.355653 0.370569 0.384897 0.398638 0.411792 0.424359 0.436339 0.447731 0.458537 0.468764 0.478421 0.487509 0.496028 0.503977 0.511357 0.518167 0.524407 0.530162 0.535515 0.540466 0.545015 0.549161 0.552906 0.556248 0.559188 0.561816 0.56422 0.566401 0.568358 0.570092 0.571602 0.572889 0.573953 0.574846 0.575621 0.576278 0.576818 0.57724 0.577544 0.577731 0.577799 0.57775 0.577583 0.577299 0.576896 0.576376 0.575738 0.574982 0.574108 0.573064 0.571796 0.570304 0.568589 0.56665 0.564488 0.562102 0.559492 0.556569 0.553244 0.549515 0.545384 0.540851 0.535915 0.530575 0.524834 0.518605 0.511806 0.504437 0.496496 0.487985 0.478904 0.469252 0.459029 0.448226 0.436834 0.424854 0.412285 0.399127 0.38538 0.371044 0.356119 0.340738 0.325032 0.309001 0.292646 0.275966 0.258961 0.241631 0.223977 0.206081 0.188026 0.169811 0.151438 0.132906 0.114215 0.0953645 0.0763552 0.0584595 0.0429498 0.0298263 0.0190888 0.0107375 0.0047722 0.00119305 0 0 0.00138609 0.00554436 0.0124748 0.0221774 0.0346522 0.0498992 0.0679184 0.0887097 0.110793 0.132689 0.154397 0.175917 0.197249 0.218393 0.23935 0.260119 0.280604 0.300709 0.320436 0.339782 0.358749 0.377336 0.395544 0.413373 0.430669 0.447281 0.463208 0.47845 0.493008 0.506882 0.52007 0.532575 0.544406 0.555575 0.566084 0.575931 0.585116 0.59364 0.601503 0.608704 0.615342 0.621515 0.627222 0.632464 0.637241 0.641553 0.645399 0.64878 0.651799 0.654561 0.657066 0.659313 0.661303 0.663036 0.664511 0.665729 0.666751 0.667638 0.668391 0.669008 0.669491 0.669839 0.670053 0.670131 0.670075 0.669884 0.669559 0.669098 0.668503 0.667773 0.666908 0.665908 0.664712 0.663259 0.661548 0.659579 0.657353 0.654869 0.652127 0.649129 0.645768 0.641941 0.637648 0.63289 0.627665 0.621974 0.615817 0.609195 0.602008 0.594158 0.585645 0.57647 0.566632 0.556131 0.544968 0.533141 0.52064 0.507453 0.493579 0.479018 0.463771 0.447838 0.431218 0.413911 0.396071 0.377849 0.359246 0.340262 0.320896 0.301149 0.281021 0.260512 0.239718 0.218734 0.197561 0.176199 0.154647 0.132906 0.110976 0.0888565 0.0680308 0.0499818 0.0347096 0.0222141 0.0124954 0.00555353 0.00138838 0 0 0.0015795 0.00631801 0.0142155 0.025272 0.0394876 0.0568621 0.0773956 0.101088 0.12625 0.151193 0.175916 0.200419 0.224703 0.248767 0.272612 0.296237 0.319533 0.342393 0.364816 0.386801 0.40835 0.429462 0.450137 0.470375 0.490003 0.50885 0.526914 0.544198 0.560699 0.576418 0.591356 0.605512 0.618901 0.631538 0.643423 0.654556 0.664937 0.674566 0.683443 0.691568 0.699054 0.706013 0.712446 0.718351 0.72373 0.728582 0.732907 0.736706 0.740096 0.743196 0.746007 0.748528 0.750759 0.752701 0.754352 0.755714 0.756856 0.757847 0.758687 0.759378 0.759917 0.760306 0.760544 0.760632 0.76057 0.760356 0.759993 0.759478 0.758813 0.757997 0.757031 0.755915 0.754577 0.75295 0.751033 0.748826 0.746329 0.743542 0.740465 0.737098 0.733322 0.729018 0.724187 0.718829 0.712943 0.706529 0.699588 0.69212 0.684011 0.675148 0.665532 0.655163 0.64404 0.632163 0.619533 0.60615 0.591998 0.577062 0.561342 0.544837 0.527549 0.509477 0.490622 0.470982 0.45073 0.43004 0.408911 0.387343 0.365336 0.34289 0.320005 0.296681 0.273027 0.249152 0.225056 0.200738 0.176199 0.151439 0.126457 0.101254 0.0775227 0.0569554 0.0395524 0.0253135 0.0142389 0.00632838 0.0015821 0 0 0.00177131 0.00708523 0.0159418 0.0283409 0.0442827 0.0637671 0.0867941 0.113364 0.141578 0.169539 0.197247 0.224702 0.251904 0.278852 0.305548 0.33199 0.358058 0.383631 0.408707 0.433289 0.457374 0.480965 0.504059 0.526658 0.54857 0.569603 0.589758 0.609033 0.62743 0.644948 0.661588 0.677348 0.692248 0.706308 0.719526 0.731903 0.743439 0.754134 0.763987 0.773 0.781298 0.78901 0.796136 0.802675 0.808628 0.813994 0.818774 0.822967 0.826707 0.830126 0.833225 0.836002 0.83846 0.840596 0.842412 0.843907 0.845159 0.846246 0.847168 0.847925 0.848517 0.848944 0.849205 0.849302 0.849233 0.848999 0.8486 0.848036 0.847307 0.846412 0.845353 0.844128 0.84266 0.840871 0.838762 0.836331 0.83358 0.830507 0.827114 0.8234 0.819231 0.814476 0.809133 0.803203 0.796685 0.78958 0.781888 0.773609 0.764615 0.754777 0.744097 0.732574 0.720209 0.707 0.692949 0.678054 0.662298 0.645661 0.628142 0.609742 0.590461 0.570299 0.549256 0.527332 0.504718 0.481606 0.457996 0.433889 0.409285 0.384182 0.358582 0.332484 0.306009 0.27928 0.252295 0.225056 0.197562 0.169812 0.141808 0.113548 0.0869352 0.0638708 0.0443547 0.028387 0.0159677 0.00709675 0.00177419 0 0 0.0019615 0.00784601 0.0176535 0.031384 0.0490375 0.0706141 0.0961136 0.125536 0.156776 0.187727 0.21839 0.248765 0.278851 0.308649 0.338158 0.367379 0.396178 0.424422 0.45211 0.479244 0.505822 0.531844 0.557312 0.582224 0.606371 0.629542 0.651738 0.672958 0.693203 0.712472 0.730766 0.748084 0.764449 0.779886 0.794394 0.807973 0.820622 0.832343 0.843135 0.852998 0.862074 0.870506 0.878293 0.885436 0.891935 0.897789 0.902999 0.907564 0.911632 0.91535 0.918718 0.921736 0.924404 0.926722 0.92869 0.930308 0.931662 0.932837 0.933834 0.934652 0.935292 0.935753 0.936036 0.93614 0.936066 0.935813 0.935382 0.934772 0.933984 0.933017 0.931872 0.930548 0.92896 0.927022 0.924733 0.922094 0.919104 0.915765 0.912075 0.908034 0.903496 0.898313 0.892485 0.886011 0.878891 0.871127 0.862717 0.853662 0.843819 0.833045 0.82134 0.808705 0.795139 0.780642 0.765214 0.748855 0.731542 0.71325 0.693981 0.673733 0.652507 0.630303 0.607121 0.582961 0.558032 0.532546 0.506503 0.479901 0.452742 0.425026 0.396751 0.36792 0.338664 0.309117 0.27928 0.249153 0.218735 0.188027 0.157028 0.125738 0.0962684 0.0707278 0.0491165 0.0314346 0.017682 0.00785865 0.00196466 0 0 0.00215009 0.00860035 0.0193508 0.0344014 0.0537522 0.0774031 0.105354 0.137606 0.171844 0.205757 0.239345 0.272608 0.305545 0.338156 0.370442 0.402403 0.433893 0.464767 0.495024 0.524666 0.553692 0.582101 0.609895 0.637072 0.663405 0.688666 0.712855 0.735972 0.758017 0.77899 0.79889 0.817718 0.835503 0.852272 0.868026 0.882764 0.896487 0.909195 0.920887 0.931564 0.941382 0.9505 0.958918 0.966635 0.973651 0.979967 0.985582 0.990496 0.994871 0.998869 1.00249 1.00573 1.00859 1.01108 1.01319 1.01492 1.01636 1.01762 1.01868 1.01956 1.02024 1.02073 1.02104 1.02115 1.02107 1.0208 1.02034 1.01969 1.01884 1.01781 1.01659 1.01518 1.01348 1.0114 1.00895 1.00611 1.0029 0.999314 0.995347 0.991002 0.986117 0.980531 0.974242 0.967253 0.959562 0.951169 0.942075 0.932279 0.921624 0.909952 0.897262 0.883554 0.86883 0.853088 0.836328 0.818551 0.799729 0.779831 0.758858 0.73681 0.713687 0.689489 0.664217 0.637869 0.610674 0.582861 0.554429 0.525379 0.495709 0.465421 0.434514 0.402989 0.37099 0.338664 0.30601 0.273028 0.239719 0.206082 0.172117 0.137825 0.105522 0.0775265 0.0538379 0.0344562 0.0193816 0.00861406 0.00215351 0 0 0.00233706 0.00934825 0.0210336 0.037393 0.0584266 0.0841342 0.114516 0.149572 0.186783 0.22363 0.260112 0.296231 0.331985 0.367375 0.402401 0.437062 0.471203 0.504665 0.53745 0.569556 0.600985 0.631735 0.661807 0.691202 0.719673 0.746975 0.773109 0.798075 0.821872 0.844501 0.865961 0.886253 0.90541 0.923467 0.940423 0.956279 0.971034 0.984689 0.997243 1.0087 1.01922 1.02899 1.03801 1.04627 1.05378 1.06053 1.06652 1.07176 1.07642 1.08068 1.08453 1.08798 1.09103 1.09367 1.0959 1.09773 1.09926 1.10059 1.10172 1.10264 1.10336 1.10389 1.10421 1.10432 1.10424 1.10395 1.10347 1.10278 1.10189 1.1008 1.0995 1.09801 1.09621 1.09401 1.0914 1.08839 1.08498 1.08116 1.07693 1.0723 1.06709 1.06113 1.05441 1.04693 1.0387 1.02971 1.01996 1.00946 0.99803 0.985497 0.971861 0.957123 0.941282 0.924339 0.906292 0.887144 0.866858 0.845401 0.822772 0.798972 0.774001 0.747857 0.720543 0.692056 0.662644 0.63255 0.601776 0.570321 0.538185 0.505368 0.471871 0.437692 0.40299 0.367921 0.332485 0.296683 0.260514 0.223979 0.187077 0.149808 0.114697 0.0842669 0.0585187 0.037452 0.0210667 0.00936299 0.00234075 0 0 0.00252156 0.0100862 0.022694 0.040345 0.063039 0.0907762 0.123556 0.16138 0.201523 0.241261 0.280595 0.319525 0.35805 0.396171 0.433888 0.4712 0.50794 0.543938 0.579196 0.613712 0.647487 0.680521 0.712814 0.744366 0.774915 0.8042 0.83222 0.858976 0.884468 0.908695 0.931658 0.953356 0.97383 0.99312 1.01123 1.02815 1.04389 1.05844 1.07181 1.084 1.09519 1.10558 1.11515 1.12392 1.13189 1.13904 1.14539 1.15093 1.15585 1.16034 1.16441 1.16804 1.17125 1.17403 1.17638 1.1783 1.1799 1.18129 1.18247 1.18344 1.1842 1.18474 1.18508 1.1852 1.18511 1.18481 1.1843 1.18358 1.18265 1.18151 1.18015 1.17859 1.1767 1.17439 1.17165 1.16848 1.16487 1.16084 1.15639 1.1515 1.14599 1.13968 1.13255 1.12462 1.11588 1.10633 1.09598 1.08481 1.07265 1.0593 1.04476 1.02904 1.01214 0.994045 0.974766 0.954302 0.93261 0.909651 0.885424 0.85993 0.833167 0.805138 0.77584 0.745275 0.713704 0.681389 0.64833 0.614526 0.579979 0.544687 0.508651 0.471871 0.434516 0.396753 0.358584 0.320007 0.281024 0.241633 0.201836 0.161632 0.123749 0.0909178 0.0631373 0.0404079 0.0227294 0.010102 0.00252549 0 0 0.00270272 0.0108109 0.0243244 0.0432434 0.0675679 0.0972978 0.132433 0.172974 0.215994 0.258569 0.300699 0.342382 0.38362 0.424413 0.464759 0.50466 0.543936 0.582406 0.620071 0.656931 0.692985 0.728235 0.762679 0.796318 0.828874 0.860071 0.889908 0.918386 0.945503 0.971261 0.99566 1.0187 1.04042 1.06089 1.08008 1.09801 1.11468 1.13008 1.14421 1.15708 1.16889 1.17984 1.18994 1.19918 1.20756 1.21508 1.22174 1.22755 1.23271 1.23741 1.24166 1.24546 1.24881 1.25171 1.25416 1.25615 1.25781 1.25926 1.26048 1.26148 1.26227 1.26283 1.26318 1.26331 1.26322 1.26291 1.26238 1.26163 1.26067 1.25948 1.25808 1.25646 1.2545 1.25209 1.24923 1.24591 1.24215 1.23793 1.23327 1.22815 1.22238 1.21574 1.20826 1.19991 1.1907 1.18064 1.16971 1.15793 1.14509 1.13098 1.1156 1.09895 1.08104 1.06186 1.04141 1.01969 0.996663 0.972269 0.946512 0.919391 0.890908 0.861061 0.829851 0.797278 0.763619 0.729152 0.693876 0.657792 0.620899 0.583198 0.544688 0.50537 0.465423 0.425028 0.384185 0.342893 0.301152 0.258964 0.216326 0.17324 0.132637 0.0974477 0.067672 0.0433101 0.0243619 0.0108275 0.00270688 0 0 0.00288053 0.0115221 0.0259247 0.0460884 0.0720131 0.103699 0.141146 0.184354 0.230198 0.275554 0.320422 0.364802 0.408694 0.452098 0.495014 0.537442 0.57919 0.620068 0.660075 0.699213 0.737479 0.774876 0.811402 0.847057 0.88155 0.914589 0.946173 0.976303 1.00498 1.0322 1.05797 1.08228 1.10519 1.12676 1.14699 1.16587 1.1834 1.19959 1.21444 1.22794 1.24032 1.25179 1.26236 1.27203 1.28079 1.28864 1.29559 1.30164 1.30699 1.31188 1.31629 1.32023 1.32371 1.32671 1.32923 1.33129 1.333 1.33448 1.33574 1.33677 1.33758 1.33816 1.33852 1.33865 1.33856 1.33824 1.3377 1.33693 1.33594 1.33472 1.33328 1.33161 1.32959 1.3271 1.32414 1.32071 1.3168 1.31243 1.30758 1.30226 1.29625 1.28933 1.28151 1.27279 1.26316 1.25262 1.24118 1.22883 1.21535 1.20053 1.18436 1.16685 1.14799 1.12778 1.10622 1.08332 1.05902 1.03326 1.00604 0.977357 0.947221 0.915626 0.882574 0.848064 0.812388 0.775838 0.738414 0.700117 0.660945 0.6209 0.579981 0.538188 0.495712 0.452746 0.409288 0.36534 0.3209 0.275969 0.230547 0.184634 0.141361 0.103857 0.0721227 0.0461585 0.0259642 0.0115396 0.00288491 0 0 0.00305499 0.01222 0.0274949 0.0488799 0.0763748 0.10998 0.149695 0.195519 0.244133 0.292216 0.339767 0.386786 0.433273 0.479229 0.524653 0.569545 0.613703 0.656924 0.699209 0.740557 0.780969 0.820444 0.858982 0.896583 0.932942 0.967753 1.00102 1.03273 1.06289 1.09151 1.11858 1.1441 1.16814 1.19075 1.21194 1.23171 1.25006 1.26699 1.28249 1.29658 1.30948 1.32143 1.33243 1.34248 1.35158 1.35973 1.36693 1.37318 1.37871 1.38375 1.3883 1.39237 1.39594 1.39902 1.40161 1.40372 1.40546 1.40697 1.40826 1.40931 1.41014 1.41073 1.41109 1.41123 1.41114 1.41081 1.41026 1.40947 1.40846 1.40722 1.40574 1.40404 1.40198 1.39943 1.39639 1.39285 1.38883 1.38432 1.37932 1.37382 1.36761 1.36045 1.35233 1.34327 1.33325 1.32228 1.31037 1.2975 1.28344 1.26796 1.25106 1.23273 1.21298 1.19181 1.16921 1.14518 1.11967 1.09261 1.06399 1.03383 1.00211 0.968835 0.934011 0.897634 0.860012 0.821449 0.781945 0.741502 0.700118 0.657794 0.61453 0.570325 0.525383 0.479906 0.433894 0.387348 0.340266 0.29265 0.244499 0.195813 0.149919 0.110145 0.0764895 0.0489533 0.0275362 0.0122383 0.00305958 0 0 0.00322611 0.0129045 0.029035 0.0516178 0.0806528 0.11614 0.15808 0.206471 0.257801 0.308554 0.358731 0.408332 0.457356 0.505803 0.553675 0.60097 0.647475 0.692976 0.737472 0.780965 0.823454 0.864939 0.90542 0.944897 0.983051 1.01956 1.05443 1.08766 1.11925 1.14919 1.1775 1.20416 1.22925 1.25285 1.27495 1.29555 1.31465 1.33226 1.34838 1.36299 1.37636 1.38874 1.40013 1.41052 1.41993 1.42834 1.43575 1.44218 1.44786 1.45303 1.45769 1.46185 1.46551 1.46865 1.47129 1.47343 1.47519 1.47673 1.47803 1.4791 1.47993 1.48053 1.4809 1.48104 1.48094 1.48062 1.48006 1.47926 1.47824 1.47698 1.47549 1.47376 1.47167 1.46907 1.46597 1.46235 1.45824 1.45361 1.44848 1.44284 1.43646 1.42908 1.4207 1.41134 1.40098 1.38963 1.37728 1.36394 1.34936 1.33327 1.31569 1.2966 1.27602 1.25394 1.23036 1.20528 1.17863 1.15033 1.12039 1.0888 1.05557 1.02069 0.98416 0.945988 0.906489 0.865983 0.824469 0.781947 0.738417 0.69388 0.648335 0.601782 0.554435 0.506509 0.458002 0.408917 0.359251 0.309006 0.258181 0.206777 0.158314 0.116312 0.0807723 0.0516943 0.029078 0.0129236 0.00323089 0 0 0.00339389 0.0135756 0.030545 0.0543023 0.0848473 0.12218 0.166301 0.217209 0.2712 0.324569 0.377316 0.42944 0.480943 0.531823 0.582081 0.631717 0.680505 0.728221 0.774865 0.820436 0.864935 0.908362 0.950716 0.991998 1.03188 1.07002 1.10643 1.1411 1.17404 1.20525 1.23472 1.26246 1.28854 1.31306 1.336 1.35738 1.37718 1.39542 1.41208 1.42718 1.44098 1.45374 1.46547 1.47617 1.48584 1.49447 1.50207 1.50864 1.51444 1.51971 1.52446 1.5287 1.53241 1.5356 1.53828 1.54043 1.5422 1.54375 1.54505 1.54613 1.54697 1.54757 1.54795 1.54808 1.54799 1.54766 1.5471 1.5463 1.54527 1.544 1.5425 1.54077 1.53866 1.53603 1.53288 1.52921 1.52502 1.52031 1.51507 1.50932 1.50279 1.49523 1.48663 1.47701 1.46634 1.45465 1.44192 1.42816 1.41309 1.39645 1.37825 1.35846 1.33711 1.31418 1.28969 1.26361 1.23589 1.20642 1.17522 1.14228 1.1076 1.07118 1.03302 0.993126 0.951822 0.909442 0.865985 0.821452 0.775843 0.729157 0.681396 0.632557 0.582868 0.532554 0.481613 0.430047 0.377855 0.325038 0.271595 0.217526 0.166543 0.122358 0.0849711 0.0543815 0.0305896 0.0135954 0.00339885 0 0 0.00355832 0.0142333 0.0320249 0.0569332 0.0889581 0.1281 0.174358 0.227733 0.284331 0.340261 0.395521 0.450112 0.504034 0.557287 0.609871 0.661785 0.712794 0.762661 0.811387 0.85897 0.905412 0.950712 0.99487 1.03789 1.07942 1.11912 1.157 1.19305 1.22728 1.25968 1.29025 1.319 1.34601 1.37138 1.39511 1.4172 1.43765 1.45645 1.47362 1.48915 1.50332 1.51642 1.52845 1.53942 1.54931 1.55813 1.56588 1.57256 1.57845 1.5838 1.58861 1.5929 1.59665 1.59987 1.60256 1.60471 1.60649 1.60803 1.60933 1.61041 1.61124 1.61185 1.61222 1.61236 1.61227 1.61194 1.61137 1.61058 1.60955 1.60829 1.60679 1.60506 1.60295 1.60031 1.59713 1.59342 1.58918 1.5844 1.5791 1.57326 1.56662 1.5589 1.55012 1.54027 1.52934 1.51735 1.50428 1.49015 1.47465 1.45751 1.43873 1.41831 1.39624 1.37253 1.34718 1.32018 1.29145 1.26088 1.22849 1.19426 1.1582 1.12032 1.0806 1.03905 0.996008 0.951824 0.906494 0.860017 0.812395 0.763627 0.713713 0.662653 0.610683 0.558041 0.504726 0.450738 0.396078 0.340745 0.284739 0.22806 0.174609 0.128284 0.089086 0.0570151 0.032071 0.0142538 0.00356344 0 0 0.00371941 0.0148777 0.0334747 0.0595106 0.0929853 0.133899 0.182251 0.238042 0.297194 0.355629 0.413347 0.470347 0.52663 0.582196 0.637044 0.691175 0.744342 0.796296 0.847038 0.896567 0.944885 0.99199 1.03788 1.08256 1.12568 1.16687 1.20615 1.24351 1.27896 1.31248 1.34408 1.37377 1.40165 1.42781 1.45226 1.47501 1.49604 1.51537 1.53299 1.54889 1.56339 1.57679 1.58907 1.60026 1.61034 1.61931 1.62718 1.63395 1.63989 1.64528 1.65014 1.65445 1.65823 1.66146 1.66414 1.66629 1.66805 1.66957 1.67087 1.67193 1.67276 1.67336 1.67373 1.67387 1.67378 1.67345 1.67289 1.67211 1.67109 1.66984 1.66835 1.66664 1.66454 1.6619 1.65871 1.65498 1.65071 1.6459 1.64055 1.63465 1.62793 1.6201 1.61117 1.60113 1.58998 1.57773 1.56437 1.54991 1.53403 1.51645 1.49715 1.47614 1.45342 1.42899 1.40284 1.37498 1.34531 1.31371 1.28019 1.24475 1.20738 1.1681 1.12688 1.08375 1.03905 0.99313 0.945995 0.897642 0.848073 0.797288 0.745286 0.692067 0.637879 0.582971 0.527342 0.470991 0.41392 0.356127 0.297614 0.238379 0.182509 0.134088 0.093117 0.0595949 0.0335221 0.0148987 0.00372468 0 0 0.00387577 0.0155031 0.0348819 0.0620123 0.0968942 0.139528 0.189913 0.248049 0.309679 0.370542 0.43064 0.489972 0.548538 0.606339 0.663373 0.719642 0.774887 0.828848 0.881526 0.932922 0.983034 1.03186 1.07941 1.12567 1.17029 1.2129 1.2535 1.29209 1.32868 1.36326 1.39582 1.42638 1.45505 1.48194 1.50706 1.5304 1.55197 1.57176 1.58977 1.60601 1.62079 1.63443 1.64694 1.6583 1.66853 1.67763 1.68558 1.6924 1.69837 1.7038 1.70867 1.71299 1.71676 1.71998 1.72266 1.72478 1.72651 1.72801 1.72929 1.73034 1.73116 1.73175 1.73211 1.73225 1.73216 1.73184 1.73129 1.73052 1.72951 1.72828 1.72682 1.72513 1.72306 1.72043 1.71725 1.71353 1.70925 1.70442 1.69904 1.69311 1.68634 1.67842 1.66937 1.65918 1.64785 1.63539 1.62178 1.60704 1.59083 1.57285 1.55309 1.53156 1.50824 1.48314 1.45627 1.42762 1.39707 1.36451 1.32994 1.29335 1.25476 1.21415 1.17152 1.12689 1.0806 1.03303 0.984169 0.934021 0.882586 0.829863 0.775853 0.720555 0.664229 0.607133 0.549268 0.490632 0.431228 0.371053 0.310109 0.248395 0.190177 0.139722 0.0970293 0.0620987 0.0349305 0.0155247 0.00388117 0 0 0.004026 0.016104 0.036234 0.0644161 0.10065 0.144936 0.197274 0.257664 0.321673 0.384868 0.447249 0.508816 0.569568 0.629506 0.68863 0.746941 0.804167 0.86004 0.91456 0.967728 1.01954 1.07 1.11911 1.16686 1.21289 1.25683 1.29867 1.33841 1.37606 1.41161 1.44507 1.47643 1.50582 1.53338 1.55909 1.58297 1.60501 1.62521 1.64357 1.66009 1.67511 1.68896 1.70164 1.71315 1.7235 1.73268 1.74069 1.74754 1.75352 1.75895 1.76382 1.76813 1.77188 1.77508 1.77773 1.77981 1.78151 1.78298 1.78424 1.78526 1.78607 1.78665 1.787 1.78714 1.78705 1.78674 1.7862 1.78544 1.78446 1.78325 1.78182 1.78017 1.77813 1.77553 1.77238 1.76867 1.7644 1.75957 1.75419 1.74825 1.74145 1.73348 1.72435 1.71404 1.70256 1.68992 1.67611 1.66113 1.64464 1.62632 1.