<?xml version="1.0"?> 
<VTKFile type="StructuredGrid" version="0.1"> 
<StructuredGrid WholeExtent="0 128 0 128 0 0"> 
<Piece Extent="0 128 0 128 0 0"> 
<PointData>
<DataArray type="Float32" Name="u" format="ascii" NumberOfComponents="1"> 
0 0 0 0 0 0 0 0 0 0 0 0 0 0 0 0 0 0 0 0 0 0 0 0 0 0 0 0 0 0 0 0 0 0 0 0 0 0 0 0 0 0 0 0 0 0 0 0 0 0 0 0 0 0 0 0 0 0 0 0 0 0 0 0 0 0 0 0 0 0 0 0 0 0 0 0 0 0 0 0 0 0 0 0 0 0 0 0 0 0 0 0 0 0 0 0 0 0 0 0 0 0 0 0 0 0 0 0 0 0 0 0 0 0 0 0 0 0 0 0 0 0 0 0 0 0 0 0 0 0 6.50224e-07 2.6009e-06 5.85202e-06 1.04036e-05 1.62556e-05 2.34081e-05 3.1861e-05 4.16143e-05 5.22003e-05 6.31509e-05 7.44662e-05 8.61463e-05 9.8191e-05 0.0001106 0.000123375 0.000136513 0.000150052 0.000164026 0.000178436 0.00019328 0.00020856 0.000224275 0.000240425 0.00025701 0.000273952 0.00029117 0.000308664 0.000326435 0.000344483 0.000362808 0.000381409 0.000400286 0.000419323 0.000438401 0.000457521 0.000476682 0.000495885 0.000515129 0.000534414 0.000553741 0.000572965 0.000591939 0.000610666 0.000629144 0.000647373 0.000665354 0.000683087 0.000700571 0.000717654 0.000734182 0.000750157 0.000765577 0.000780444 0.000794756 0.000808514 0.000821718 0.000834235 0.000845931 0.000856806 0.00086686 0.000876093 0.000884506 0.000892098 0.000898869 0.000904734 0.000909608 0.00091349 0.00091638 0.000918279 0.000919186 0.000919102 0.000918027 0.000915944 0.000912839 0.000908711 0.000903561 0.000897388 0.000890193 0.000881975 0.000872736 0.000862537 0.000851444 0.000839456 0.000826573 0.000812796 0.000798125 0.000782558 0.000766097 0.000748879 0.000731042 0.000712586 0.000693511 0.000673817 0.000653503 0.000632571 0.000611019 0.000589041 0.000566831 0.000544387 0.000521711 0.000498802 0.00047566 0.000452286 0.000428678 0.000405057 0.000381642 0.000358433 0.000335429 0.000312632 0.000290041 0.000267656 0.000245476 0.000223552 0.000201931 0.000180614 0.000159601 0.000138891 0.000118486 9.83837e-05 7.85854e-05 6.0167e-05 4.42043e-05 3.06974e-05 1.96464e-05 1.10511e-05 4.91159e-06 1.2279e-06 0 0 2.6009e-06 1.04036e-05 2.34081e-05 4.16143e-05 6.50224e-05 9.36323e-05 0.000127444 0.000166457 0.000208801 0.000252604 0.000297865 0.000344585 0.000392764 0.000442402 0.000493498 0.000546054 0.000600209 0.000656105 0.000713742 0.00077312 0.000834239 0.000897099 0.000961699 0.00102804 0.00109581 0.00116468 0.00123466 0.00130574 0.00137793 0.00145123 0.00152563 0.00160115 0.00167729 0.00175361 0.00183008 0.00190673 0.00198354 0.00206052 0.00213766 0.00221496 0.00229186 0.00236776 0.00244266 0.00251658 0.00258949 0.00266142 0.00273235 0.00280228 0.00287061 0.00293673 0.00300063 0.00306231 0.00312177 0.00317902 0.00323406 0.00328687 0.00333694 0.00338372 0.00342722 0.00346744 0.00350437 0.00353802 0.00356839 0.00359548 0.00361894 0.00363843 0.00365396 0.00366552 0.00367312 0.00367675 0.00367641 0.00367211 0.00366377 0.00365135 0.00363484 0.00361424 0.00358955 0.00356077 0.0035279 0.00349094 0.00345015 0.00340578 0.00335782 0.00330629 0.00325119 0.0031925 0.00313023 0.00306439 0.00299552 0.00292417 0.00285034 0.00277404 0.00269527 0.00261401 0.00253028 0.00244408 0.00235617 0.00226732 0.00217755 0.00208685 0.00199521 0.00190264 0.00180914 0.00171471 0.00162023 0.00152657 0.00143373 0.00134172 0.00125053 0.00116016 0.00107062 0.000981905 0.000894207 0.000807724 0.000722456 0.000638403 0.000555565 0.000473943 0.000393535 0.000314342 0.000240668 0.000176817 0.00012279 7.85854e-05 4.42043e-05 1.96464e-05 4.91159e-06 0 0 5.85202e-06 2.34081e-05 5.26682e-05 9.36323e-05 0.0001463 0.000210673 0.000286749 0.000374529 0.000469803 0.000568358 0.000670196 0.000775317 0.000883719 0.000995404 0.00111037 0.00122862 0.00135047 0.00147624 0.00160592 0.00173952 0.00187704 0.00201847 0.00216382 0.00231309 0.00246556 0.00262053 0.00277798 0.00293792 0.00310035 0.00326527 0.00343268 0.00360258 0.00377391 0.00394561 0.00411769 0.00429014 0.00446296 0.00463616 0.00480973 0.00498367 0.00515668 0.00532746 0.00549599 0.00566229 0.00582636 0.00598819 0.00614778 0.00630514 0.00645888 0.00660764 0.00675141 0.0068902 0.00702399 0.0071528 0.00727663 0.00739546 0.00750811 0.00761338 0.00771125 0.00780174 0.00788484 0.00796056 0.00802888 0.00808982 0.00814261 0.00818647 0.00822141 0.00824742 0.00826451 0.00827268 0.00827192 0.00826224 0.00824349 0.00821555 0.0081784 0.00813205 0.00807649 0.00801174 0.00793778 0.00785462 0.00776283 0.00766299 0.0075551 0.00743916 0.00731517 0.00718312 0.00704302 0.00689487 0.00673991 0.00657938 0.00641328 0.0062416 0.00606435 0.00588153 0.00569314 0.00549917 0.00530137 0.00510148 0.00489949 0.0046954 0.00448922 0.00428094 0.00407057 0.0038581 0.00364551 0.00343478 0.00322589 0.00301886 0.00281369 0.00261037 0.0024089 0.00220929 0.00201197 0.00181738 0.00162553 0.00143641 0.00125002 0.00106637 0.000885453 0.000707269 0.000541503 0.000397839 0.000276277 0.000176817 9.94597e-05 4.42043e-05 1.10511e-05 0 0 1.04036e-05 4.16143e-05 9.36323e-05 0.000166457 0.00026009 0.000374529 0.000509776 0.000665829 0.000835204 0.00101041 0.00119146 0.00137834 0.00157106 0.00176961 0.00197399 0.00218421 0.00240084 0.00262442 0.00285497 0.00309248 0.00333696 0.00358839 0.0038468 0.00411216 0.00438322 0.00465871 0.00493863 0.00522296 0.00551173 0.00580492 0.00610254 0.00640458 0.00670917 0.00701442 0.00732034 0.00762692 0.00793416 0.00824206 0.00855063 0.00885986 0.00916743 0.00947103 0.00977065 0.0100663 0.010358 0.0106457 0.0109294 0.0112091 0.0114825 0.0117469 0.0120025 0.0122492 0.0124871 0.0127161 0.0129362 0.0131475 0.0133478 0.0135349 0.0137089 0.0138698 0.0140175 0.0141521 0.0142736 0.0143819 0.0144758 0.0145537 0.0146158 0.0146621 0.0146925 0.014707 0.0147056 0.0146884 0.0146551 0.0146054 0.0145394 0.014457 0.0143582 0.0142431 0.0141116 0.0139638 0.0138006 0.0136231 0.0134313 0.0132252 0.0130047 0.01277 0.0125209 0.0122576 0.0119821 0.0116967 0.0114014 0.0110962 0.0107811 0.0104561 0.0101211 0.0097763 0.00942466 0.00906929 0.0087102 0.00834738 0.00798084 0.00761057 0.00723657 0.00685885 0.00648091 0.00610627 0.00573492 0.00536687 0.00500211 0.00464065 0.00428249 0.00392762 0.00357683 0.0032309 0.00288983 0.00255361 0.00222226 0.00189577 0.00157414 0.00125737 0.000962671 0.000707269 0.000491159 0.000314342 0.000176817 7.85854e-05 1.96464e-05 0 0 1.62556e-05 6.50224e-05 0.0001463 0.00026009 0.00040639 0.000585202 0.000796525 0.00104036 0.00130501 0.00157877 0.00186166 0.00215366 0.00245478 0.00276501 0.00308436 0.00341284 0.00375131 0.00410066 0.00446089 0.004832 0.00521399 0.00560687 0.00601062 0.00642526 0.00684879 0.00727924 0.0077166 0.00816088 0.00861208 0.00907019 0.00953522 0.0100072 0.0104831 0.01096 0.011438 0.0119171 0.0123971 0.0128782 0.0133604 0.0138435 0.0143241 0.0147985 0.0152666 0.0157286 0.0161843 0.0166339 0.0170772 0.0175143 0.0179413 0.0183546 0.0187539 0.0191394 0.0195111 0.0198689 0.0202129 0.020543 0.0208559 0.0211483 0.0214201 0.0216715 0.0219023 0.0221127 0.0223025 0.0224717 0.0226184 0.0227402 0.0228372 0.0229095 0.022957 0.0229797 0.0229776 0.0229507 0.0228986 0.022821 0.0227178 0.022589 0.0224347 0.0222548 0.0220494 0.0218184 0.0215634 0.0212861 0.0209864 0.0206643 0.0203199 0.0199531 0.019564 0.0191524 0.018722 0.0182761 0.0178147 0.0173378 0.0168454 0.0163376 0.0158143 0.0152755 0.014726 0.0141708 0.0136097 0.0130428 0.0124701 0.0118915 0.0113071 0.0107169 0.0101264 0.00954104 0.00896081 0.00838574 0.0078158 0.00725102 0.00669139 0.00613691 0.00558879 0.00504828 0.00451535 0.00399002 0.00347228 0.00296214 0.00245959 0.00196464 0.00150417 0.00110511 0.000767436 0.000491159 0.000276277 0.00012279 3.06974e-05 0 0 2.34081e-05 9.36323e-05 0.000210673 0.000374529 0.000585202 0.00084269 0.001147 0.00149812 0.00187921 0.00227343 0.00268078 0.00310127 0.00353488 0.00398162 0.00444149 0.00491448 0.00540188 0.00590495 0.00642368 0.00695808 0.00750815 0.00807389 0.00865529 0.00925237 0.00986226 0.0104821 0.0111119 0.0117517 0.0124014 0.0130611 0.0137307 0.0144103 0.0150956 0.0157825 0.0164708 0.0171606 0.0178519 0.0185446 0.0192389 0.0199347 0.0206267 0.0213098 0.021984 0.0226492 0.0233054 0.0239528 0.0245911 0.0252206 0.0258355 0.0264306 0.0270056 0.0275608 0.028096 0.0286112 0.0291065 0.0295819 0.0300325 0.0304535 0.030845 0.031207 0.0315394 0.0318422 0.0321155 0.0323593 0.0325704 0.0327459 0.0328856 0.0329897 0.033058 0.0330907 0.0330877 0.033049 0.032974 0.0328622 0.0327136 0.0325282 0.032306 0.0320469 0.0317511 0.0314185 0.0310513 0.030652 0.0302204 0.0297566 0.0292607 0.0287325 0.0281721 0.0275795 0.0269597 0.0263175 0.0256531 0.0249664 0.0242574 0.0235261 0.0227725 0.0219967 0.0212055 0.0204059 0.0195979 0.0187816 0.0179569 0.0171238 0.0162823 0.0154324 0.014582 0.0137391 0.0129036 0.0120755 0.0112548 0.0104415 0.0096356 0.00883715 0.00804786 0.00726952 0.00650211 0.00574563 0.00500009 0.00426548 0.00354181 0.00282908 0.00216601 0.00159135 0.00110511 0.000707269 0.000397839 0.000176817 4.42043e-05 0 0 3.1861e-05 0.000127444 0.000286749 0.000509776 0.000796525 0.001147 0.00156119 0.0020391 0.00255781 0.00309439 0.00364885 0.00422117 0.00481136 0.00541942 0.00604536 0.00668916 0.00735256 0.00803729 0.00874334 0.00947072 0.0102194 0.0109895 0.0117808 0.0125935 0.0134236 0.0142673 0.0151245 0.0159953 0.0168797 0.0177776 0.018689 0.019614 0.0205468 0.0214817 0.0224185 0.0233574 0.0242984 0.0252413 0.0261863 0.0271333 0.0280753 0.029005 0.0299226 0.030828 0.0317213 0.0326024 0.0334713 0.034328 0.035165 0.0359749 0.0367577 0.0375133 0.0382417 0.038943 0.0396172 0.0402642 0.0408775 0.0414506 0.0419835 0.0424761 0.0429286 0.0433408 0.0437128 0.0440446 0.044332 0.0445708 0.044761 0.0449026 0.0449957 0.0450401 0.045036 0.0449833 0.0448812 0.0447291 0.0445268 0.0442745 0.043972 0.0436195 0.0432168 0.042764 0.0422643 0.0417207 0.0411333 0.0405021 0.039827 0.0391081 0.0383454 0.0375388 0.0366951 0.0358211 0.0349167 0.033982 0.033017 0.0320217 0.030996 0.0299399 0.028863 0.0277747 0.026675 0.0255639 0.0244413 0.0233074 0.022162 0.0210052 0.0198478 0.0187004 0.0175632 0.016436 0.015319 0.014212 0.0131151 0.0120283 0.010954 0.00989462 0.00885009 0.00782044 0.00680568 0.0058058 0.0048208 0.00385069 0.00294818 0.00216601 0.00150417 0.000962671 0.000541503 0.000240668 6.0167e-05 0 0 4.16143e-05 0.000166457 0.000374529 0.000665829 0.00104036 0.00149812 0.0020391 0.00266332 0.00334082 0.00404166 0.00476584 0.00551336 0.00628423 0.00707843 0.00789597 0.00873686 0.00960334 0.0104977 0.0114199 0.0123699 0.0133478 0.0143536 0.0153872 0.0164487 0.0175329 0.0186348 0.0197545 0.0208919 0.0220469 0.0232197 0.0244102 0.0256183 0.0268367 0.0280577 0.0292813 0.0305077 0.0317366 0.0329682 0.0342025 0.0354394 0.0366697 0.0378841 0.0390826 0.0402652 0.0414319 0.0425827 0.0437176 0.0448365 0.0459298 0.0469877 0.04801 0.0489969 0.0499484 0.0508644 0.0517449 0.05259 0.053391 0.0541396 0.0548356 0.055479 0.05607 0.0566084 0.0570943 0.0575276 0.057903 0.0582149 0.0584634 0.0586483 0.0587699 0.0588279 0.0588225 0.0587537 0.0586204 0.0584217 0.0581575 0.0578279 0.0574328 0.0569724 0.0564464 0.0558551 0.0552024 0.0544924 0.0537252 0.0529007 0.052019 0.05108 0.0500837 0.0490302 0.0479283 0.0467867 0.0456055 0.0443847 0.0431243 0.0418242 0.0404845 0.0391052 0.0376986 0.0362772 0.0348408 0.0333895 0.0319233 0.0304423 0.0289463 0.0274354 0.0259236 0.0244251 0.0229397 0.0214675 0.0200085 0.0185626 0.01713 0.0157105 0.0143073 0.0129236 0.0115593 0.0102145 0.00888905 0.00758308 0.00629655 0.00502947 0.00385069 0.00282908 0.00196464 0.00125737 0.000707269 0.000314342 7.85854e-05 0 0 5.21802e-05 0.000208721 0.000469621 0.000834882 0.0013045 0.00187849 0.00255683 0.00333953 0.00418899 0.00506761 0.00597539 0.00691232 0.00787841 0.00887366 0.00989807 0.0109516 0.0120372 0.0131576 0.0143128 0.0155029 0.0167278 0.0179876 0.0192822 0.0206116 0.0219695 0.0233496 0.0247518 0.0261761 0.0276225 0.0290911 0.0305818 0.0320946 0.0336201 0.035149 0.0366811 0.0382165 0.0397552 0.0412971 0.0428424 0.044391 0.0459312 0.0474515 0.0489519 0.0504323 0.0518928 0.0533334 0.054754 0.0561547 0.0575232 0.0588474 0.0601271 0.0613624 0.0625532 0.0636997 0.0648017 0.0658594 0.0668619 0.0677987 0.0686698 0.069475 0.0702145 0.0708882 0.0714962 0.0720384 0.072508 0.0728982 0.0732089 0.0734402 0.073592 0.0736644 0.0736574 0.073571 0.0734038 0.0731548 0.0728239 0.072411 0.0719163 0.0713396 0.070681 0.0699405 0.0691233 0.0682343 0.0672737 0.0662414 0.0651375 0.0639619 0.0627146 0.0613957 0.0600161 0.0585869 0.0571081 0.0555797 0.0540017 0.0523741 0.0506969 0.0489701 0.0472092 0.0454296 0.0436313 0.0418143 0.0399787 0.0381244 0.0362515 0.0343598 0.0324671 0.0305908 0.028731 0.0268877 0.0250608 0.0232504 0.0214565 0.0196791 0.017922 0.0161891 0.0144805 0.0127961 0.011136 0.00950013 0.00788849 0.00630109 0.00482428 0.00354437 0.00246137 0.00157527 0.000886091 0.000393818 9.84546e-05 0 0 6.30704e-05 0.000252282 0.000567634 0.00100913 0.00157676 0.00227053 0.00309045 0.00403651 0.0050631 0.00612463 0.0072211 0.00835251 0.00951886 0.0107201 0.0119564 0.0132275 0.0145371 0.0158885 0.0172818 0.0187169 0.0201939 0.0217128 0.0232736 0.0248762 0.026513 0.0281764 0.0298663 0.0315828 0.0333258 0.0350954 0.0368915 0.0387142 0.0405521 0.0423939 0.0442396 0.0460891 0.0479425 0.0497998 0.0516609 0.0535259 0.0553808 0.0572117 0.0590184 0.0608011 0.0625597 0.0642942 0.0660047 0.067691 0.0693386 0.0709326 0.0724731 0.0739601 0.0753935 0.0767735 0.0780999 0.0793727 0.0805792 0.0817065 0.0827546 0.0837234 0.0846131 0.0854236 0.0861548 0.0868069 0.0873715 0.0878405 0.0882138 0.0884915 0.0886736 0.08876 0.0887508 0.0886459 0.088444 0.0881434 0.0877442 0.0872465 0.0866501 0.0859551 0.0851616 0.0842694 0.0832848 0.0822139 0.0810568 0.0798133 0.0784836 0.0770676 0.0755654 0.0739768 0.0723153 0.070594 0.0688131 0.0669723 0.0650719 0.0631117 0.0610918 0.0590122 0.0568914 0.0547482 0.0525824 0.050394 0.0481832 0.0459498 0.0436939 0.0414155 0.0391356 0.0368756 0.0346352 0.0324146 0.0302138 0.0280326 0.0258712 0.0237296 0.0216123 0.0195239 0.0174645 0.015434 0.0134324 0.0114597 0.00951602 0.00760124 0.0058197 0.0042757 0.00296924 0.00190031 0.00106892 0.000475078 0.000118769 0 0 7.42851e-05 0.00029714 0.000668566 0.00118856 0.00185713 0.00267426 0.00363997 0.00475425 0.00596315 0.00721273 0.00850299 0.00983394 0.0112056 0.0126179 0.0140708 0.0155645 0.017103 0.0186904 0.0203267 0.022012 0.0237462 0.0255293 0.0273613 0.0292423 0.0311633 0.0331152 0.0350981 0.0371119 0.0391568 0.0412326 0.0433394 0.0454772 0.0476327 0.0497925 0.0519568 0.0541255 0.0562986 0.058476 0.0606579 0.0628442 0.0650186 0.0671646 0.0692822 0.0713715 0.0734325 0.0754652 0.0774695 0.0794455 0.0813759 0.0832434 0.0850482 0.0867902 0.0884693 0.0900857 0.0916392 0.0931299 0.0945428 0.0958628 0.09709 0.0982243 0.0992658 0.100214 0.10107 0.101833 0.102493 0.103042 0.103478 0.103802 0.104015 0.104115 0.104103 0.103979 0.103741 0.103387 0.102919 0.102334 0.101634 0.100819 0.0998881 0.0988417 0.097687 0.0964312 0.0950743 0.0936164 0.0920573 0.0903972 0.0886361 0.0867738 0.084826 0.0828082 0.0807204 0.0785626 0.0763348 0.074037 0.0716692 0.0692315 0.0667454 0.064233 0.061694 0.0591286 0.0565367 0.0539184 0.0512736 0.0486023 0.0459293 0.0432793 0.0406523 0.0380482 0.0354672 0.0329092 0.0303741 0.0278621 0.0253783 0.022928 0.0205112 0.0181279 0.0157781 0.0134619 0.0111791 0.00892991 0.00683697 0.00502308 0.00348825 0.00223248 0.00125577 0.00055812 0.00013953 0 0 8.58243e-05 0.000343297 0.000772418 0.00137319 0.00214561 0.00308967 0.00420539 0.00549275 0.00688913 0.0083319 0.00982106 0.0113566 0.0129385 0.0145668 0.0162415 0.0179626 0.0197349 0.0215632 0.0234476 0.025388 0.0273845 0.029437 0.0315455 0.0337101 0.0359204 0.0381661 0.0404471 0.0427636 0.0451155 0.0475028 0.0499254 0.0523835 0.0548617 0.0573448 0.0598328 0.0623257 0.0648234 0.067326 0.0698335 0.0723459 0.0748444 0.0773102 0.0797433 0.0821436 0.0845113 0.0868462 0.0891485 0.091418 0.093635 0.0957798 0.0978524 0.0998526 0.101781 0.103636 0.10542 0.107131 0.108753 0.110268 0.111676 0.112978 0.114172 0.115261 0.116242 0.117117 0.117874 0.118502 0.119002 0.119373 0.119615 0.119728 0.119713 0.119569 0.119294 0.118887 0.118347 0.117674 0.116869 0.115931 0.114861 0.113657 0.11233 0.110886 0.109326 0.107651 0.105859 0.103951 0.101927 0.0997865 0.0975481 0.0952294 0.0928302 0.0903505 0.0877905 0.0851501 0.0824292 0.0796279 0.0767712 0.073884 0.0709662 0.068018 0.0650393 0.0620302 0.0589905 0.0559203 0.052848 0.049802 0.0467822 0.0437886 0.0408212 0.03788 0.0349651 0.0320765 0.0292199 0.0264013 0.0236207 0.020878 0.0181733 0.0155066 0.0128779 0.0102871 0.00787606 0.0057865 0.0040184 0.00257178 0.00144662 0.000642944 0.000160736 0 0 9.76879e-05 0.000390752 0.000879191 0.00156301 0.0024422 0.00351676 0.00478671 0.00625202 0.00784106 0.00948215 0.0111753 0.0129205 0.0147177 0.0165671 0.0184684 0.0204218 0.0224329 0.0245071 0.0266445 0.0288451 0.0311089 0.0334359 0.0358261 0.0382794 0.0407843 0.043329 0.0459135 0.0485378 0.0512019 0.0539059 0.0566496 0.0594332 0.0622394 0.0650508 0.0678676 0.0706896 0.073517 0.0763497 0.0791877 0.082031 0.0848584 0.0876486 0.0904016 0.0931174 0.095796 0.0984374 0.101042 0.103609 0.106116 0.108542 0.110886 0.113147 0.115327 0.117425 0.119442 0.121376 0.123209 0.124921 0.126513 0.127983 0.129333 0.130562 0.131671 0.132658 0.133513 0.134222 0.134785 0.135202 0.135475 0.135601 0.135582 0.135417 0.135105 0.134642 0.134029 0.133267 0.132354 0.131292 0.130079 0.128716 0.127213 0.125579 0.123813 0.121916 0.119888 0.117728 0.115437 0.113015 0.110482 0.107857 0.105142 0.102336 0.0994389 0.0964508 0.0933717 0.0902015 0.0869686 0.0837012 0.0803991 0.0770624 0.0736911 0.0702852 0.0668447 0.0633696 0.0598919 0.0564437 0.0530249 0.0496356 0.0462757 0.0429453 0.0396443 0.0363728 0.0331372 0.0299439 0.0267929 0.0236842 0.0206179 0.0175939 0.0146122 0.0116728 0.008937 0.00656596 0.00455969 0.0029182 0.00164149 0.000729551 0.000182388 0 0 0.000109876 0.000439504 0.000988883 0.00175801 0.0027469 0.00395553 0.00538392 0.00703206 0.00881892 0.0106635 0.0125657 0.0145256 0.0165432 0.0186185 0.0207515 0.0229422 0.0251969 0.0275219 0.0299174 0.0323832 0.0349195 0.037526 0.040203 0.0429504 0.045755 0.0486039 0.051497 0.0544344 0.057416 0.0604419 0.0635119 0.0666262 0.0697655 0.0729105 0.0760611 0.0792174 0.0823794 0.0855471 0.0887205 0.0918995 0.0950605 0.0981797 0.101257 0.104293 0.107287 0.110239 0.113149 0.116017 0.118819 0.121529 0.124148 0.126674 0.12911 0.131453 0.133705 0.135865 0.137912 0.139823 0.1416 0.143242 0.144748 0.14612 0.147356 0.148458 0.14941 0.1502 0.150827 0.151292 0.151594 0.151733 0.151709 0.151523 0.151171 0.150652 0.149966 0.149112 0.14809 0.1469 0.145543 0.144019 0.142337 0.140509 0.138534 0.136412 0.134144 0.131729 0.129167 0.126459 0.123627 0.120693 0.117657 0.114519 0.11128 0.107939 0.104497 0.100952 0.0973379 0.0936845 0.0899924 0.0862615 0.0824918 0.0786833 0.0748361 0.07095 0.0670608 0.0632043 0.0593805 0.0555893 0.0518307 0.0481049 0.0444116 0.0407511 0.0371301 0.0335557 0.0300279 0.0265466 0.0231119 0.0197237 0.0163821 0.0130871 0.0100198 0.00736147 0.00511213 0.00327176 0.00184037 0.000817941 0.000204485 0 0 0.000122388 0.000489554 0.0011015 0.00195821 0.00305971 0.00440598 0.00599703 0.00783286 0.00982272 0.0118759 0.0139923 0.016172 0.018415 0.0207212 0.0230908 0.0255236 0.0280269 0.0306078 0.0332663 0.0360024 0.0388161 0.0417074 0.0446764 0.0477229 0.0508326 0.0539909 0.0571979 0.0604535 0.0637578 0.0671108 0.0705124 0.0739627 0.0774402 0.0809238 0.0844134 0.087909 0.0914106 0.0949182 0.0984318 0.101951 0.105451 0.108904 0.11231 0.11567 0.118983 0.12225 0.12547 0.128644 0.131744 0.134742 0.137639 0.140434 0.143127 0.145719 0.148209 0.150598 0.152861 0.154974 0.156938 0.158752 0.160417 0.161932 0.163298 0.164515 0.165566 0.166438 0.167129 0.167641 0.167972 0.168124 0.168095 0.167886 0.167495 0.166918 0.166156 0.165209 0.164076 0.162757 0.161254 0.159565 0.157702 0.155677 0.153489 0.15114 0.148628 0.145954 0.143118 0.140119 0.136983 0.133735 0.130374 0.1269 0.123314 0.119615 0.115804 0.11188 0.107879 0.103834 0.0997464 0.0956156 0.0914417 0.0872247 0.0829647 0.0786616 0.0743549 0.070084 0.0658489 0.0616497 0.0574863 0.0533588 0.0492671 0.0452113 0.0411987 0.0372368 0.0333256 0.0294651 0.0256552 0.0218961 0.0181876 0.0145298 0.0111244 0.00817302 0.00567571 0.00363245 0.00204325 0.000908113 0.000227028 0 0 0.000135225 0.000540902 0.00121703 0.00216361 0.00338063 0.00486811 0.00662604 0.00865442 0.0108525 0.0131193 0.015455 0.0178596 0.020333 0.0228752 0.0254863 0.0281662 0.0309229 0.0337646 0.0366911 0.0397025 0.0427988 0.04598 0.0492461 0.052597 0.056017 0.05949 0.063016 0.0665952 0.0702274 0.0739126 0.077651 0.0814424 0.0852635 0.0890908 0.0929245 0.0967644 0.100611 0.104463 0.108322 0.112187 0.116029 0.11982 0.12356 0.127248 0.130886 0.134472 0.138006 0.141489 0.144891 0.148181 0.151359 0.154426 0.15738 0.160223 0.162955 0.165574 0.168056 0.170373 0.172526 0.174515 0.17634 0.178001 0.179497 0.180829 0.181981 0.182934 0.18369 0.184249 0.18461 0.184773 0.184739 0.184507 0.184075 0.18344 0.182601 0.181558 0.180312 0.178863 0.17721 0.175354 0.173307 0.171082 0.16868 0.166099 0.16334 0.160403 0.157288 0.153995 0.150551 0.146984 0.143293 0.139479 0.135541 0.131479 0.127294 0.122986 0.118591 0.11415 0.109661 0.105125 0.100541 0.0959094 0.0912306 0.0865044 0.081774 0.0770826 0.0724302 0.0678168 0.0632424 0.0587071 0.0542108 0.0497534 0.045343 0.0409872 0.0366861 0.0324397 0.028248 0.024111 0.0200287 0.0160011 0.0122508 0.00900061 0.00625042 0.00400027 0.00225015 0.00100007 0.000250017 0 0 0.000148402 0.000593606 0.00133561 0.00237443 0.00371004 0.00534246 0.00727168 0.0094977 0.0119093 0.0143954 0.0169558 0.0195906 0.0222998 0.0250834 0.0279414 0.0308739 0.0338896 0.0369975 0.0401977 0.04349 0.0468746 0.0503514 0.0539204 0.0575817 0.0613177 0.0651113 0.0689624 0.0728709 0.0768369 0.0808604 0.0849414 0.0890799 0.0932504 0.0974274 0.101611 0.105801 0.109997 0.1142 0.118409 0.122625 0.126816 0.13095 0.135029 0.139051 0.143017 0.146926 0.15078 0.154577 0.158284 0.16187 0.165334 0.168676 0.171895 0.174993 0.177969 0.180822 0.183525 0.186049 0.188393 0.190559 0.192546 0.194353 0.195981 0.19743 0.198682 0.199719 0.20054 0.201146 0.201536 0.201711 0.201671 0.201415 0.200941 0.200245 0.199327 0.198188 0.196827 0.195244 0.19344 0.191414 0.18918 0.186752 0.18413 0.181314 0.178304 0.1751 0.171702 0.16811 0.164354 0.160463 0.156437 0.152276 0.147981 0.143551 0.138986 0.134287 0.129494 0.124649 0.119752 0.114804 0.109803 0.104751 0.0996468 0.0944906 0.0893295 0.0842106 0.0791339 0.0740994 0.0691071 0.0641569 0.0592489 0.0543832 0.0495678 0.044811 0.040113 0.0354735 0.0308927 0.0263706 0.021907 0.0175022 0.0134001 0.00984498 0.00683679 0.00437555 0.00246124 0.00109389 0.000273472 0 0 0.000161932 0.000647728 0.00145739 0.00259091 0.0040483 0.00582955 0.00793466 0.0103636 0.0129946 0.0157055 0.0184963 0.0213672 0.0243181 0.027349 0.0304599 0.0336507 0.0369314 0.0403117 0.0437916 0.0473712 0.0510504 0.0548292 0.0587076 0.0626857 0.0667445 0.0708652 0.0750478 0.0792924 0.0835989 0.0879672 0.0923975 0.0968897 0.101416 0.105949 0.110489 0.115035 0.119588 0.124147 0.128713 0.133286 0.137831 0.142315 0.146738 0.151099 0.155399 0.159637 0.163815 0.16793 0.171949 0.175835 0.179589 0.18321 0.186698 0.190054 0.193278 0.196368 0.199296 0.202029 0.204567 0.206912 0.209062 0.211018 0.21278 0.214347 0.215701 0.216821 0.217707 0.218361 0.21878 0.218967 0.218919 0.218639 0.218121 0.217363 0.216365 0.215127 0.213649 0.21193 0.209971 0.207772 0.205348 0.202713 0.199868 0.196813 0.193548 0.190072 0.186386 0.182489 0.178415 0.174194 0.169828 0.165315 0.160656 0.155851 0.1509 0.145802 0.140604 0.135349 0.130037 0.124669 0.119245 0.113764 0.108226 0.102632 0.0970327 0.0914786 0.0859697 0.0805063 0.0750882 0.0697154 0.0643881 0.0591061 0.0538781 0.0487126 0.0436098 0.0385695 0.0335919 0.0286768 0.0238243 0.0190344 0.0145732 0.0107069 0.00743531 0.0047586 0.00267671 0.00118965 0.000297413 0 0 0.000175816 0.000703265 0.00158235 0.00281306 0.00439541 0.00632939 0.008615 0.0112522 0.0141081 0.0170496 0.0200767 0.0231895 0.0263879 0.0296719 0.0330415 0.0364968 0.0400484 0.0437071 0.047473 0.051346 0.0553261 0.0594133 0.0636076 0.067909 0.0722972 0.0767517 0.0812725 0.0858597 0.0905131 0.095233 0.100019 0.104872 0.109761 0.114656 0.119559 0.124468 0.129383 0.134305 0.139234 0.14417 0.149076 0.153915 0.158687 0.163393 0.168032 0.172605 0.177111 0.18155 0.185885 0.190076 0.194124 0.198028 0.201789 0.205407 0.208882 0.212213 0.215368 0.218313 0.221048 0.223574 0.22589 0.227996 0.229892 0.231579 0.233035 0.23424 0.235192 0.235893 0.236342 0.236539 0.236484 0.236178 0.235616 0.234795 0.233715 0.232375 0.230777 0.22892 0.226804 0.224428 0.22181 0.218965 0.215893 0.212595 0.209069 0.205317 0.201338 0.197132 0.192734 0.188178 0.183465 0.178594 0.173565 0.168379 0.163035 0.157533 0.151922 0.146249 0.140516 0.134721 0.128865 0.122948 0.116969 0.11093 0.104884 0.0988864 0.0929376 0.0870374 0.0811858 0.0753827 0.0696282 0.0639222 0.0582738 0.0526919 0.0471766 0.0417277 0.0363454 0.0310297 0.0257804 0.0205977 0.0157701 0.0115862 0.00804599 0.00514944 0.00289656 0.00128736 0.00032184 0 0 0.000190055 0.000760219 0.00171049 0.00304088 0.00475137 0.00684197 0.00931269 0.0121635 0.01525 0.0184279 0.021697 0.0250574 0.0285091 0.0320521 0.0356864 0.039412 0.0432406 0.0471838 0.0512418 0.0554144 0.0597017 0.0641037 0.0686204 0.0732518 0.0779759 0.0827707 0.0876363 0.0925727 0.0975798 0.102658 0.107806 0.113026 0.118284 0.123549 0.12882 0.134098 0.139383 0.144674 0.149972 0.155277 0.160549 0.165749 0.170877 0.175933 0.180917 0.185829 0.190669 0.195437 0.200092 0.204592 0.208938 0.213131 0.217168 0.221052 0.224781 0.228356 0.231741 0.234901 0.237835 0.240544 0.243028 0.245286 0.247319 0.249127 0.250687 0.251976 0.252995 0.253743 0.254221 0.254429 0.254366 0.254032 0.253425 0.252539 0.251375 0.249933 0.248212 0.246214 0.243937 0.241383 0.238567 0.235508 0.232205 0.228659 0.224869 0.220836 0.216559 0.212038 0.207312 0.202415 0.197349 0.192114 0.186709 0.181135 0.175391 0.169478 0.163447 0.15735 0.151187 0.144958 0.138663 0.132302 0.125875 0.119382 0.112882 0.106434 0.100038 0.0936928 0.0873999 0.0811587 0.0749692 0.0688316 0.062755 0.0567489 0.0508133 0.0449481 0.0391535 0.0334292 0.0277755 0.0221922 0.0169909 0.0124831 0.00866883 0.00554805 0.00312078 0.00138701 0.000346753 0 0 0.000204647 0.00081859 0.00184183 0.00327436 0.00511618 0.00736731 0.0100277 0.0130974 0.0164203 0.0198402 0.023357 0.0269709 0.0306818 0.0344896 0.0383945 0.0423964 0.0465079 0.0507418 0.055098 0.0595765 0.0641774 0.0689006 0.0737461 0.0787139 0.0837805 0.0889223 0.0941393 0.0994314 0.104799 0.110241 0.115759 0.121352 0.126986 0.132626 0.138273 0.143927 0.149587 0.155253 0.160927 0.166607 0.172251 0.177818 0.183307 0.188719 0.194053 0.199309 0.204488 0.20959 0.21457 0.219384 0.224033 0.228517 0.232835 0.236988 0.240975 0.244797 0.248416 0.251793 0.254929 0.257824 0.260477 0.26289 0.26506 0.26699 0.268654 0.270029 0.271115 0.271911 0.272418 0.272635 0.272564 0.272202 0.271548 0.270596 0.269346 0.267799 0.265954 0.263812 0.261372 0.258635 0.255619 0.252342 0.248804 0.245006 0.240948 0.236629 0.232049 0.227208 0.222147 0.216904 0.21148 0.205875 0.200087 0.194119 0.187969 0.181637 0.17518 0.168651 0.162052 0.155382 0.14864 0.141828 0.134945 0.127991 0.121029 0.114122 0.10727 0.100473 0.0937304 0.0870433 0.0804112 0.0738341 0.0673217 0.0608836 0.05452 0.0482308 0.0420159 0.0358755 0.0298094 0.0238178 0.0182355 0.0133975 0.00930382 0.00595445 0.00334938 0.00148861 0.000372153 0 0 0.000219594 0.000878376 0.00197635 0.0035135 0.00548985 0.00790539 0.0107601 0.014054 0.0176189 0.0212865 0.0250569 0.02893 0.0329059 0.0369845 0.0411658 0.0454499 0.0498504 0.054381 0.0590416 0.0638323 0.068753 0.0738037 0.0789845 0.0842954 0.0897111 0.0952064 0.100781 0.106436 0.11217 0.117984 0.123877 0.12985 0.135867 0.141889 0.147918 0.153953 0.159995 0.166043 0.172098 0.178159 0.184182 0.190121 0.195977 0.20175 0.20744 0.213046 0.218569 0.224009 0.229319 0.234452 0.239408 0.244188 0.24879 0.253216 0.257465 0.261537 0.265392 0.26899 0.27233 0.275413 0.278238 0.280806 0.283116 0.285169 0.286938 0.2884 0.289552 0.290396 0.290932 0.291159 0.291078 0.290688 0.289985 0.288966 0.287629 0.285974 0.284003 0.281714 0.279108 0.276185 0.272965 0.269467 0.265691 0.261636 0.257305 0.252695 0.247807 0.242642 0.237241 0.231646 0.225858 0.219876 0.2137 0.207331 0.200768 0.194012 0.18712 0.180153 0.17311 0.165991 0.158796 0.151525 0.144178 0.136755 0.129323 0.121949 0.114634 0.107376 0.100177 0.0930367 0.0859542 0.0789299 0.0719738 0.0650961 0.0582967 0.0515756 0.0449328 0.0383684 0.0318823 0.0254745 0.0195039 0.0143294 0.00995097 0.00636862 0.00358235 0.00159216 0.000398039 0 0 0.000234895 0.000939579 0.00211405 0.00375832 0.00587237 0.00845621 0.0115098 0.0150333 0.0188458 0.022767 0.0267966 0.0309348 0.0351814 0.0395367 0.0440004 0.0485727 0.0532681 0.0581015 0.0630726 0.0681816 0.0734285 0.0788133 0.0843359 0.0899963 0.0957677 0.101623 0.107563 0.113586 0.119694 0.125886 0.132161 0.138521 0.144926 0.151337 0.157755 0.164178 0.170608 0.177044 0.183486 0.189934 0.196341 0.202659 0.208888 0.215027 0.221078 0.227039 0.232912 0.238695 0.244339 0.249795 0.255063 0.260142 0.265033 0.269736 0.27425 0.278576 0.28267 0.286491 0.290038 0.29331 0.296309 0.299034 0.301485 0.303663 0.305539 0.307087 0.308307 0.3092 0.309764 0.310001 0.309909 0.309489 0.308737 0.307648 0.306222 0.304459 0.302358 0.299921 0.297146 0.294034 0.290606 0.286883 0.282864 0.27855 0.27394 0.269035 0.263835 0.258339 0.252593 0.246641 0.240482 0.234118 0.227548 0.220771 0.213789 0.206601 0.199269 0.191856 0.184362 0.176786 0.16913 0.161392 0.153574 0.145674 0.137765 0.129916 0.12213 0.114405 0.106741 0.0991388 0.0915981 0.0841188 0.0767114 0.0693862 0.0621433 0.0549826 0.0479042 0.040908 0.033994 0.0271623 0.0207961 0.0152788 0.0106103 0.00679058 0.0038197 0.00169764 0.000424411 0 0 0.00025055 0.0010022 0.00225495 0.00400879 0.00626374 0.00901979 0.0122769 0.0160352 0.0201011 0.0242815 0.0285761 0.0329851 0.0375085 0.0421462 0.0468982 0.0517646 0.056761 0.0619032 0.0671911 0.0726247 0.0