<?xml version="1.0"?> 
<VTKFile type="StructuredGrid" version="0.1"> 
<StructuredGrid WholeExtent="0 128 0 128 0 0"> 
<Piece Extent="0 128 0 128 0 0"> 
<PointData>
<DataArray type="Float32" Name="u" format="ascii" NumberOfComponents="1"> 
0 0 0 0 0 0 0 0 0 0 0 0 0 0 0 0 0 0 0 0 0 0 0 0 0 0 0 0 0 0 0 0 0 0 0 0 0 0 0 0 0 0 0 0 0 0 0 0 0 0 0 0 0 0 0 0 0 0 0 0 0 0 0 0 0 0 0 0 0 0 0 0 0 0 0 0 0 0 0 0 0 0 0 0 0 0 0 0 0 0 0 0 0 0 0 0 0 0 0 0 0 0 0 0 0 0 0 0 0 0 0 0 0 0 0 0 0 0 0 0 0 0 0 0 0 0 0 0 0 0 1.21996e-05 4.87986e-05 0.000109797 0.000195194 0.000304991 0.000439187 0.000597783 0.000780778 0.000975229 0.00116819 0.00135967 0.00154966 0.00173817 0.00192519 0.00211072 0.00229476 0.00247648 0.00265502 0.00283038 0.00300256 0.00317157 0.00333741 0.00350006 0.00365955 0.00381447 0.00396347 0.00410652 0.00424365 0.00437484 0.0045001 0.00461942 0.00473281 0.00484031 0.00494197 0.0050378 0.00512778 0.00521192 0.00529023 0.0053627 0.00542932 0.00549093 0.00554835 0.00560158 0.00565061 0.00569546 0.00573611 0.00577257 0.00580484 0.00583382 0.00586041 0.00588461 0.00590642 0.00592583 0.00594286 0.00595749 0.00596973 0.00598012 0.0059892 0.00599696 0.0060034 0.00600853 0.00601234 0.00601484 0.00601602 0.00601589 0.00601444 0.00601167 0.00600758 0.00600218 0.00599545 0.00598741 0.00597805 0.00596684 0.00595322 0.00593719 0.00591877 0.00589794 0.00587471 0.00584908 0.00582105 0.0057897 0.00575413 0.00571433 0.00567031 0.00562206 0.00556959 0.0055129 0.00545198 0.005386 0.00531411 0.00523632 0.00515263 0.00506303 0.00496753 0.00486612 0.00475881 0.00464554 0.00452624 0.00440093 0.00426959 0.00413222 0.00398884 0.00383943 0.003684 0.00352393 0.00336061 0.00319404 0.00302421 0.00285113 0.0026748 0.00249521 0.00231237 0.00212713 0.00194035 0.00175202 0.00156216 0.00137074 0.00117779 0.000983292 0.000787251 0.000602739 0.000442829 0.00030752 0.000196813 0.000110707 4.92032e-05 1.23008e-05 0 0 4.87986e-05 0.000195194 0.000439187 0.000780778 0.00121996 0.00175675 0.00239113 0.00312311 0.00390091 0.00467277 0.00543868 0.00619865 0.00695267 0.00770074 0.00844287 0.00917905 0.00990591 0.0106201 0.0113215 0.0120103 0.0126863 0.0133496 0.0140003 0.0146382 0.0152579 0.0158539 0.0164261 0.0169746 0.0174994 0.0180004 0.0184777 0.0189312 0.0193612 0.0197679 0.0201512 0.0205111 0.0208477 0.0211609 0.0214508 0.0217173 0.0219637 0.0221934 0.0224063 0.0226025 0.0227818 0.0229444 0.0230903 0.0232194 0.0233353 0.0234416 0.0235384 0.0236257 0.0237033 0.0237714 0.02383 0.0238789 0.0239205 0.0239568 0.0239878 0.0240136 0.0240341 0.0240494 0.0240594 0.0240641 0.0240636 0.0240577 0.0240467 0.0240303 0.0240087 0.0239818 0.0239496 0.0239122 0.0238673 0.0238129 0.0237488 0.0236751 0.0235918 0.0234988 0.0233963 0.0232842 0.0231588 0.0230165 0.0228573 0.0226812 0.0224883 0.0222784 0.0220516 0.0218079 0.021544 0.0212564 0.0209453 0.0206105 0.0202521 0.0198701 0.0194645 0.0190352 0.0185822 0.018105 0.0176037 0.0170783 0.0165289 0.0159554 0.0153577 0.014736 0.0140957 0.0134425 0.0127762 0.0120968 0.0114045 0.0106992 0.00998084 0.00924948 0.00850853 0.0077614 0.0070081 0.00624862 0.00548298 0.00471116 0.00393317 0.003149 0.00241096 0.00177131 0.00123008 0.000787251 0.000442829 0.000196813 4.92032e-05 0 0 0.000109797 0.000439187 0.000988172 0.00175675 0.00274492 0.00395269 0.00538005 0.007027 0.00877706 0.0105137 0.012237 0.013947 0.0156435 0.0173267 0.0189965 0.0206529 0.0222883 0.0238951 0.0254734 0.0270231 0.0285442 0.0300367 0.0315006 0.0329359 0.0343303 0.0356712 0.0369587 0.0381928 0.0393736 0.0405009 0.0415748 0.0425953 0.0435628 0.0444778 0.0453402 0.04615 0.0469073 0.0476121 0.0482643 0.0488639 0.0494184 0.0499352 0.0504142 0.0508555 0.0512591 0.051625 0.0519532 0.0522436 0.0525044 0.0527437 0.0529615 0.0531577 0.0533325 0.0534857 0.0536174 0.0537276 0.0538211 0.0539028 0.0539726 0.0540306 0.0540768 0.0541111 0.0541336 0.0541442 0.054143 0.0541299 0.054105 0.0540682 0.0540196 0.0539591 0.0538867 0.0538025 0.0537015 0.0535789 0.0534347 0.0532689 0.0530815 0.0528724 0.0526417 0.0523894 0.0521073 0.0517871 0.051429 0.0510328 0.0505986 0.0501263 0.0496161 0.0490678 0.048474 0.047827 0.0471269 0.0463736 0.0455673 0.0447077 0.0437951 0.0428293 0.0418099 0.0407362 0.0396083 0.0384263 0.03719 0.0358996 0.0345549 0.033156 0.0317154 0.0302455 0.0287464 0.0272179 0.0256602 0.0240732 0.0224569 0.0208113 0.0191442 0.0174631 0.0157682 0.0140594 0.0123367 0.0106001 0.00884963 0.00708526 0.00542465 0.00398546 0.00276768 0.00177131 0.000996364 0.000442829 0.000110707 0 0 0.000195194 0.000780778 0.00175675 0.00312311 0.00487986 0.007027 0.00956452 0.0124924 0.0156037 0.0186911 0.0217547 0.0247946 0.0278107 0.030803 0.0337715 0.0367162 0.0396236 0.0424802 0.045286 0.048041 0.0507452 0.0533985 0.056001 0.0585527 0.0610316 0.0634154 0.0657044 0.0678984 0.0699974 0.0720015 0.0739107 0.0757249 0.077445 0.0790716 0.0806047 0.0820445 0.0833908 0.0846437 0.0858031 0.0868691 0.0878549 0.0887736 0.0896252 0.0904098 0.0911273 0.0917778 0.0923612 0.0928775 0.0933412 0.0937666 0.0941537 0.0945026 0.0948133 0.0950857 0.0953198 0.0955157 0.095682 0.0958272 0.0959513 0.0960544 0.0961365 0.0961975 0.0962375 0.0962564 0.0962542 0.096231 0.0961867 0.0961213 0.0960348 0.0959272 0.0957986 0.0956489 0.0954694 0.0952515 0.0949951 0.0947003 0.0943671 0.0939954 0.0935853 0.0931367 0.0926352 0.092066 0.0914293 0.0907249 0.089953 0.0891135 0.0882064 0.0872317 0.086176 0.0850258 0.0837811 0.082442 0.0810085 0.0794804 0.0778579 0.076141 0.0743286 0.0724199 0.0704148 0.0683134 0.0661156 0.0638214 0.0614309 0.058944 0.056383 0.0537698 0.0511046 0.0483874 0.0456181 0.0427968 0.0399234 0.0369979 0.0340341 0.0310456 0.0280324 0.0249945 0.0219319 0.0188446 0.0157327 0.012596 0.00964382 0.00708526 0.00492032 0.003149 0.00177131 0.000787251 0.000196813 0 0 0.000304991 0.00121996 0.00274492 0.00487986 0.00762478 0.0109797 0.0149446 0.0195194 0.0243807 0.0292048 0.0339918 0.0387416 0.0434542 0.0481296 0.0527679 0.0573691 0.0619119 0.0663754 0.0707594 0.0750641 0.0792893 0.0834352 0.0875016 0.0914887 0.0953618 0.0990866 0.102663 0.106091 0.109371 0.112502 0.115485 0.11832 0.121008 0.123549 0.125945 0.128195 0.130298 0.132256 0.134067 0.135733 0.137273 0.138709 0.140039 0.141265 0.142386 0.143403 0.144314 0.145121 0.145846 0.14651 0.147115 0.14766 0.148146 0.148571 0.148937 0.149243 0.149503 0.14973 0.149924 0.150085 0.150213 0.150309 0.150371 0.150401 0.150397 0.150361 0.150292 0.15019 0.150054 0.149886 0.149685 0.149451 0.149171 0.14883 0.14843 0.147969 0.147449 0.146868 0.146227 0.145526 0.144742 0.143853 0.142858 0.141758 0.140552 0.13924 0.137822 0.1363 0.13465 0.132853 0.130908 0.128816 0.126576 0.124188 0.121653 0.11897 0.116138 0.113156 0.110023 0.10674 0.103306 0.099721 0.0959858 0.0921001 0.0880984 0.0840153 0.079851 0.0756053 0.0712783 0.0668699 0.0623803 0.0578093 0.0531783 0.0485087 0.0438006 0.0390539 0.0342686 0.0294447 0.0245823 0.0196813 0.0150685 0.0110707 0.00768799 0.00492032 0.00276768 0.00123008 0.00030752 0 0 0.000439187 0.00175675 0.00395269 0.007027 0.0109797 0.0158107 0.0215202 0.028108 0.0351082 0.042055 0.0489482 0.0557879 0.062574 0.0693067 0.0759858 0.0826115 0.0891532 0.0955805 0.101894 0.108092 0.114177 0.120147 0.126002 0.131744 0.137321 0.142685 0.147835 0.152771 0.157494 0.162003 0.166299 0.170381 0.174251 0.177911 0.181361 0.1846 0.187629 0.190448 0.193057 0.195456 0.197674 0.199741 0.201657 0.203422 0.205037 0.2065 0.207813 0.208974 0.210018 0.210975 0.211846 0.212631 0.21333 0.213943 0.21447 0.21491 0.215284 0.215611 0.215891 0.216122 0.216307 0.216444 0.216534 0.216577 0.216572 0.21652 0.21642 0.216273 0.216078 0.215836 0.215547 0.21521 0.214806 0.214316 0.213739 0.213076 0.212326 0.21149 0.210567 0.209558 0.208429 0.207149 0.205716 0.204131 0.202394 0.200505 0.198464 0.196271 0.193896 0.191308 0.188508 0.185495 0.182269 0.178831 0.17518 0.171317 0.167239 0.162945 0.158433 0.153705 0.14876 0.143598 0.13822 0.132624 0.126862 0.120982 0.114985 0.108872 0.102641 0.0962927 0.0898276 0.0832453 0.0765767 0.0698526 0.0630729 0.0562376 0.0493468 0.0424004 0.0353985 0.028341 0.0216986 0.0159418 0.0110707 0.00708526 0.00398546 0.00177131 0.000442829 0 0 0.000597783 0.00239113 0.00538005 0.00956452 0.0149446 0.0215202 0.0292914 0.0382581 0.0477862 0.0572415 0.0666239 0.0759335 0.0851702 0.0943341 0.103425 0.112443 0.121347 0.130096 0.138688 0.147126 0.155407 0.163533 0.171503 0.179318 0.186909 0.19421 0.20122 0.207939 0.214367 0.220505 0.226352 0.231908 0.237175 0.242157 0.246852 0.251261 0.255384 0.259221 0.262772 0.266037 0.269056 0.271869 0.274477 0.27688 0.279077 0.281069 0.282856 0.284437 0.285857 0.28716 0.288346 0.289414 0.290366 0.2912 0.291917 0.292517 0.293026 0.293471 0.293851 0.294167 0.294418 0.294605 0.294727 0.294785 0.294779 0.294707 0.294572 0.294371 0.294107 0.293777 0.293383 0.292925 0.292375 0.291708 0.290922 0.29002 0.288999 0.287861 0.286605 0.285231 0.283695 0.281952 0.280002 0.277845 0.275481 0.27291 0.270132 0.267147 0.263914 0.260391 0.25658 0.252479 0.248088 0.243409 0.23844 0.233182 0.227631 0.221786 0.215645 0.20921 0.202479 0.195453 0.188132 0.180516 0.172673 0.16467 0.156508 0.148186 0.139705 0.131065 0.122265 0.113306 0.104229 0.0950771 0.0858492 0.0765456 0.0671665 0.0577117 0.0481813 0.0385753 0.0295342 0.0216986 0.0150685 0.00964382 0.00542465 0.00241096 0.000602739 0 0 0.000780778 0.00312311 0.007027 0.0124924 0.0195194 0.028108 0.0382581 0.0499698 0.0624146 0.0747644 0.087019 0.0991784 0.111243 0.123212 0.135086 0.146865 0.158495 0.169921 0.181144 0.192164 0.202981 0.213594 0.224004 0.234211 0.244126 0.253662 0.262818 0.271594 0.27999 0.288006 0.295643 0.3029 0.30978 0.316286 0.322419 0.328178 0.333563 0.338575 0.343212 0.347477 0.35142 0.355094 0.358501 0.361639 0.364509 0.367111 0.369445 0.37151 0.373365 0.375066 0.376615 0.378011 0.379253 0.380343 0.381279 0.382063 0.382728 0.383309 0.383805 0.384218 0.384546 0.38479 0.38495 0.385026 0.385017 0.384924 0.384747 0.384485 0.384139 0.383709 0.383194 0.382595 0.381878 0.381006 0.37998 0.378801 0.377468 0.375982 0.374341 0.372547 0.370541 0.368264 0.365717 0.3629 0.359812 0.356454 0.352826 0.348927 0.344704 0.340103 0.335125 0.329768 0.324034 0.317922 0.311432 0.304564 0.297315 0.28968 0.281659 0.273254 0.264462 0.255286 0.245724 0.235776 0.225532 0.215079 0.204419 0.19355 0.182472 0.171187 0.159693 0.147992 0.136136 0.124182 0.11213 0.099978 0.0877276 0.0753785 0.0629307 0.050384 0.0385753 0.028341 0.0196813 0.012596 0.00708526 0.003149 0.000787251 0 0 0.000975227 0.00390091 0.00877704 0.0156036 0.0243807 0.0351082 0.0477861 0.0624145 0.0779582 0.0933822 0.108686 0.123871 0.138935 0.15388 0.168705 0.18341 0.197928 0.212191 0.2262 0.239954 0.253453 0.266697 0.279687 0.292423 0.304793 0.316689 0.32811 0.339057 0.349529 0.359526 0.369049 0.378097 0.386674 0.394785 0.402429 0.409607 0.416318 0.422563 0.428341 0.433653 0.438564 0.443141 0.447384 0.451291 0.454865 0.458104 0.461008 0.463578 0.465885 0.468002 0.469929 0.471665 0.47321 0.474565 0.47573 0.476704 0.47753 0.478252 0.478869 0.479381 0.479789 0.480093 0.480291 0.480385 0.480375 0.480259 0.480039 0.479714 0.479284 0.47875 0.47811 0.477366 0.476474 0.47539 0.474115 0.472648 0.47099 0.469141 0.4671 0.464868 0.462372 0.459538 0.456367 0.45286 0.449015 0.444833 0.440314 0.435458 0.430198 0.424466 0.418262 0.411587 0.40444 0.396821 0.388731 0.380169 0.37113 0.36161 0.351608 0.341124 0.330159 0.318712 0.306783 0.294372 0.28159 0.268548 0.255244 0.24168 0.227855 0.213769 0.199422 0.184814 0.170014 0.155089 0.14004 0.124867 0.10957 0.0941476 0.0786014 0.0629308 0.0481814 0.0353986 0.0245824 0.0157327 0.00884965 0.00393318 0.000983294 0 0 0.00116818 0.00467274 0.0105137 0.018691 0.0292046 0.0420547 0.0572411 0.0747638 0.0933817 0.111853 0.130179 0.148358 0.166391 0.184278 0.202019 0.219613 0.236981 0.254041 0.270795 0.287241 0.303379 0.319211 0.334735 0.349952 0.364731 0.37894 0.39258 0.405651 0.418152 0.430083 0.441445 0.452238 0.462467 0.472138 0.481251 0.489806 0.497803 0.505241 0.512122 0.518445 0.524289 0.529734 0.534781 0.539428 0.543676 0.547525 0.550976 0.554027 0.556765 0.559278 0.561563 0.563622 0.565455 0.567061 0.568441 0.569594 0.570572 0.571426 0.572157 0.572763 0.573246 0.573605 0.57384 0.573952 0.573939 0.573803 0.573542 0.573158 0.572649 0.572017 0.57126 0.57038 0.569323 0.56804 0.566528 0.564789 0.562823 0.560629 0.558207 0.555558 0.552594 0.549228 0.54546 0.54129 0.536718 0.531744 0.526367 0.520589 0.514327 0.507502 0.500112 0.492158 0.48364 0.474558 0.464912 0.454702 0.443921 0.432561 0.420625 0.40811 0.395017 0.381347 0.367099 0.352273 0.337 0.321414 0.305512 0.289296 0.272765 0.25592 0.23876 0.221286 0.203578 0.185719 0.167708 0.149545 0.131231 0.112766 0.0941482 0.0753792 0.0577122 0.0424008 0.029445 0.0188448 0.0106002 0.0047112 0.0011778 0 0 0.00135965 0.00543861 0.0122369 0.0217544 0.0339913 0.0489475 0.066623 0.0870178 0.108685 0.130178 0.151496 0.172641 0.193611 0.214406 0.235027 0.255474 0.275653 0.295471 0.314929 0.334025 0.35276 0.371134 0.389147 0.4068 0.42394 0.440415 0.456227 0.471374 0.485858 0.499677 0.512832 0.525324 0.537159 0.548345 0.558884 0.568774 0.578016 0.586609 0.594555 0.601852 0.608594 0.614874 0.620692 0.626049 0.630943 0.635376 0.639347 0.642857 0.646005 0.648892 0.651518 0.653883 0.655987 0.65783 0.659413 0.660734 0.661854 0.662832 0.663669 0.664364 0.664917 0.665328 0.665597 0.665725 0.665711 0.665555 0.665257 0.664817 0.664235 0.663511 0.662645 0.661637 0.660427 0.658954 0.65722 0.655224 0.652965 0.650445 0.647662 0.644617 0.641208 0.637334 0.632995 0.62819 0.62292 0.617185 0.610985 0.604319 0.597093 0.589211 0.580675 0.571483 0.561636 0.551133 0.539975 0.528163 0.515685 0.502534 0.488709 0.47421 0.459038 0.443191 0.426671 0.409477 0.391762 0.373677 0.355222 0.336398 0.317205 0.297641 0.277709 0.257406 0.236829 0.216071 0.195132 0.174013 0.152713 0.131232 0.109571 0.0877292 0.0671677 0.0493477 0.0342692 0.0219323 0.0123369 0.00548307 0.00137077 0 0 0.00154963 0.00619852 0.0139467 0.0247941 0.0387407 0.0557867 0.0759318 0.0991763 0.123868 0.148356 0.172639 0.196719 0.220594 0.244264 0.267731 0.290993 0.313945 0.336481 0.358602 0.380306 0.401595 0.422468 0.442924 0.462965 0.482419 0.501114 0.51905 0.536228 0.552647 0.568308 0.58321 0.597353 0.610749 0.623407 0.635328 0.646511 0.656958 0.666667 0.675639 0.683873 0.691478 0.69856 0.705118 0.711154 0.716667 0.721657 0.726124 0.730068 0.733603 0.736845 0.739793 0.742447 0.744807 0.746873 0.748645 0.750124 0.751376 0.75247 0.753405 0.754182 0.754801 0.75526 0.755562 0.755705 0.755689 0.755515 0.755182 0.75469 0.75404 0.753231 0.752263 0.751137 0.749783 0.748135 0.746191 0.743952 0.741418 0.738589 0.735464 0.732044 0.728214 0.723856 0.718972 0.713561 0.707623 0.701158 0.694167 0.686648 0.678494 0.669594 0.65995 0.64956 0.638426 0.626546 0.613921 0.600551 0.586424 0.571527 0.555861 0.539425 0.52222 0.504245 0.4855 0.465986 0.445875 0.425337 0.404375 0.382986 0.361172 0.338932 0.316267 0.293176 0.269767 0.246146 0.222314 0.19827 0.174015 0.149548 0.12487 0.0999807 0.0765477 0.0562392 0.039055 0.0249952 0.0140598 0.0062488 0.0015622 0 0 0.00173812 0.00695246 0.015643 0.0278098 0.0434529 0.0625721 0.0851676 0.111239 0.138931 0.166387 0.193607 0.220592 0.24734 0.273852 0.300129 0.32617 0.351857 0.377071 0.401814 0.426085 0.449884 0.473211 0.496066 0.518449 0.540169 0.561036 0.581051 0.600212 0.61852 0.635976 0.652578 0.668327 0.683237 0.697323 0.710583 0.723018 0.734629 0.745414 0.755375 0.76451 0.772942 0.780792 0.788059 0.794744 0.800846 0.806366 0.811304 0.815659 0.819561 0.823137 0.826388 0.829314 0.831914 0.834189 0.836139 0.837763 0.839138 0.840339 0.841366 0.842219 0.842898 0.843403 0.843734 0.843892 0.843875 0.843684 0.843319 0.842779 0.842066 0.841178 0.840116 0.83888 0.837394 0.835581 0.833441 0.830974 0.828181 0.825061 0.821614 0.817841 0.813611 0.808794 0.803391 0.797401 0.790825 0.783662 0.775913 0.767577 0.758531 0.748651 0.737938 0.726391 0.71401 0.700796 0.686749 0.671868 0.656137 0.639542 0.622081 0.603755 0.584564 0.564507 0.543586 0.521799 0.499339 0.476395 0.452969 0.42906 0.404668 0.379793 0.354436 0.328595 0.302391 0.275943 0.249252 0.222316 0.195136 0.167713 0.140045 0.112134 0.0858525 0.0630753 0.0438023 0.0280335 0.0157688 0.00700837 0.00175209 0 0 0.00192511 0.00770044 0.017326 0.0308018 0.0481278 0.069304 0.0943304 0.123207 0.153874 0.184272 0.214401 0.24426 0.27385 0.303171 0.332222 0.361005 0.389387 0.417241 0.444566 0.471361 0.497627 0.523364 0.548571 0.57325 0.59719 0.620183 0.642228 0.663326 0.683477 0.70268 0.720937 0.738245 0.754625 0.770093 0.78465 0.798295 0.811029 0.822851 0.833762 0.843762 0.852986 0.86157 0.869514 0.876818 0.883481 0.889505 0.894889 0.899632 0.903878 0.907768 0.911304 0.914484 0.917309 0.919779 0.921893 0.923653 0.92514 0.92644 0.927551 0.928474 0.929209 0.929756 0.930115 0.930285 0.930267 0.930061 0.929666 0.929083 0.928312 0.927352 0.926204 0.924867 0.923258 0.921292 0.918969 0.91629 0.913254 0.909861 0.906112 0.902006 0.8974 0.892148 0.886253 0.879712 0.872527 0.864698 0.856224 0.847105 0.837203 0.826381 0.814638 0.801974 0.78839 0.773885 0.758459 0.742112 0.724825 0.706577 0.687369 0.667199 0.64607 0.623979 0.600928 0.576917 0.552154 0.52685 0.501006 0.474619 0.447692 0.420224 0.392214 0.363663 0.334702 0.305464 0.275947 0.246151 0.216078 0.185726 0.155097 0.124189 0.0950819 0.0698561 0.0485112 0.0310471 0.017464 0.00776179 0.00194045 0 0 0.00211062 0.00844246 0.0189955 0.0337698 0.0527654 0.0759821 0.10342 0.135079 0.168697 0.20201 0.235019 0.267724 0.300124 0.332219 0.36401 0.395497 0.426538 0.456991 0.486856 0.516134 0.544824 0.572927 0.600442 0.627369 0.653482 0.678553 0.702582 0.72557 0.747517 0.768422 0.788286 0.807108 0.824911 0.841717 0.857527 0.872341 0.886158 0.898978 0.910802 0.921629 0.93161 0.940895 0.949484 0.957376 0.964573 0.971073 0.976877 0.981986 0.986554 0.990739 0.99454 0.997958 1.00099 1.00364 1.00591 1.00779 1.00938 1.01077 1.01196 1.01295 1.01373 1.01432 1.0147 1.01489 1.01487 1.01465 1.01423 1.0136 1.01278 1.01175 1.01053 1.0091 1.00737 1.00527 1.00278 0.999899 0.996637 0.99299 0.988958 0.98454 0.97958 0.973919 0.967556 0.960493 0.952729 0.944265 0.935099 0.925232 0.914512 0.902785 0.890051 0.876311 0.861564 0.845811 0.829051 0.811285 0.792487 0.772633 0.751724 0.729759 0.706737 0.68266 0.657527 0.631338 0.604321 0.576703 0.548484 0.519665 0.490245 0.460224 0.429602 0.39838 0.3667 0.334707 0.302398 0.269776 0.23684 0.203589 0.170024 0.136145 0.104236 0.0765815 0.0531816 0.0340362 0.0191454 0.00850905 0.00212726 0 0 0.00229463 0.00917852 0.0206517 0.0367141 0.0573657 0.0826066 0.112437 0.146856 0.1834 0.219602 0.255463 0.290982 0.326161 0.360998 0.395493 0.429648 0.463308 0.496321 0.528686 0.560405 0.591476 0.6219 0.651677 0.680806 0.709044 0.736146 0.762113 0.786945 0.81064 0.833201 0.854625 0.874914 0.894095 0.912196 0.929216 0.945156 0.960015 0.973794 0.986493 0.998111 1.00881 1.01877 1.02797 1.03642 1.04412 1.05107 1.05727 1.06272 1.06759 1.07205 1.0761 1.07973 1.08296 1.08578 1.08818 1.09018 1.09186 1.09334 1.09459 1.09564 1.09647 1.09709 1.0975 1.09769 1.09767 1.09744 1.09699 1.09634 1.09546 1.09438 1.09308 1.09157 1.08975 1.08751 1.08486 1.0818 1.07833 1.07445 1.07015 1.06544 1.06015 1.0541 1.0473 1.03974 1.03143 1.02236 1.01254 1.00196 0.990456 0.977862 0.964177 0.9494 0.933533 0.916575 0.898525 0.879385 0.859123 0.837711 0.815147 0.791433 0.766567 0.74055 0.713383 0.685064 0.655839 0.625953 0.595405 0.564196 0.532326 0.499794 0.466601 0.432746 0.398385 0.363672 0.328607 0.29319 0.257421 0.2213 0.184827 0.148003 0.113315 0.0832515 0.0578136 0.0370007 0.0208129 0.00925017 0.00231254 0 0 0.00247631 0.00990523 0.0222868 0.0396209 0.0619077 0.0891471 0.121339 0.158484 0.197915 0.236966 0.275638 0.31393 0.351843 0.389376 0.426529 0.463303 0.499533 0.535055 0.569869 0.603975 0.637373 0.670063 0.702045 0.733319 0.763624 0.7927 0.820547 0.847164 0.872552 0.896711 0.91964 0.941341 0.961845 0.981186 0.999365 1.01638 1.03223 1.04692 1.06045 1.07282 1.0842 1.09478 1.10456 1.11353 1.1217 1.12907 1.13564 1.1414 1.14655 1.15126 1.15553 1.15937 1.16277 1.16574 1.16827 1.17036 1.17213 1.17367 1.17499 1.17609 1.17696 1.17761 1.17804 1.17824 1.17822 1.17798 1.17751 1.17682 1.17591 1.17477 1.17341 1.17183 1.16991 1.16756 1.16478 1.16155 1.15789 1.15379 1.14925 1.14428 1.13868 1.13228 1.12507 1.11705 1.10822 1.09859 1.08814 1.07689 1.06465 1.05123 1.03664 1.02088 1.00394 0.985832 0.966546 0.946087 0.924417 0.901502 0.877341 0.851935 0.825282 0.797384 0.76824 0.73785 0.706476 0.674378 0.641558 0.608014 0.573747 0.538757 0.503044 0.466607 0.429614 0.392229 0.354453 0.316286 0.277728 0.238779 0.199439 0.159708 0.122276 0.0898355 0.0623858 0.0399269 0.0224589 0.00998172 0.00249543 0 0 0.00265481 0.0106192 0.0238933 0.0424769 0.0663702 0.095573 0.130086 0.169908 0.212175 0.254023 0.295452 0.336462 0.377053 0.417225 0.456977 0.496311 0.53505 0.573019 0.610218 0.646647 0.682307 0.717196 0.751316 0.784665 0.816969 0.84795 0.877608 0.905944 0.932957 0.958648 0.983016 1.00606 1.02782 1.04834 1.06762 1.08565 1.10245 1.11799 1.1323 1.14536 1.15737 1.16853 1.17884 1.1883 1.1969 1.20465 1.21155 1.2176 1.22299 1.22792 1.23239 1.23641 1.23996 1.24306 1.2457 1.24788 1.24971 1.25132 1.25269 1.25383 1.25474 1.25541 1.25586 1.25607 1.25605 1.2558 1.25531 1.2546 1.25365 1.25247 1.25106 1.24941 1.24742 1.24498 1.24207 1.2387 1.23487 1.23058 1.22583 1.22062 1.21475 1.20802 1.20044 1.19199 1.18269 1.17253 1.16152 1.14964 1.13671 1.12253 1.10709 1.09039 1.07244 1.05324 1.03278 1.01106 0.988051 0.9637 0.938008 0.910977 0.882606 0.852895 0.821843 0.789452 0.755998 0.721757 0.686731 0.650919 0.61432 0.576936 0.538765 0.499808 0.460243 0.420246 0.379818 0.338958 0.297667 0.255944 0.21379 0.171205 0.131079 0.0963026 0.0668768 0.0428012 0.0240757 0.0107003 0.00267507 0 0 0.00283013 0.0113205 0.0254711 0.045282 0.0707531 0.101885 0.138676 0.181128 0.22618 0.270772 0.314905 0.358578 0.40179 0.444544 0.486837 0.52867 0.569857 0.610212 0.649733 0.688421 0.726277 0.763299 0.799489 0.834846 0.869078 0.901896 0.933298 0.963284 0.991856 1.01901 1.04475 1.06908 1.09204 1.11367 1.13399 1.15298 1.17065 1.187 1.20203 1.21574 1.22833 1.24003 1.25083 1.26072 1.26972 1.27781 1.28501 1.29131 1.29691 1.30204 1.30669 1.31085 1.31454 1.31775 1.32048 1.32273 1.32462 1.32627 1.32769 1.32886 1.3298 1.33049 1.33095 1.33117 1.33115 1.33089 1.3304 1.32966 1.32869 1.32747 1.32602 1.32433 1.32228 1.31974 1.31673 1.31324 1.30926 1.30481 1.29987 1.29445 1.28834 1.28132 1.2734 1.26457 1.25484 1.2442 1.23266 1.22021 1.20664 1.19174 1.1755 1.15793 1.13903 1.11879 1.09722 1.07431 1.05003 1.0243 0.997149 0.968561 0.938538 0.907082 0.874193 0.83987 0.804405 0.76809 0.730925 0.69291 0.654045 0.61433 0.573765 0.53235 0.490273 0.447723 0.404701 0.361205 0.317237 0.272795 0.227881 0.182494 0.139722 0.102653 0.0712868 0.0456235 0.0256632 0.0114059 0.00285147 0 0 0.00300226 0.0120091 0.0270204 0.0480362 0.0750566 0.108082 0.147111 0.192145 0.23993 0.287214 0.333996 0.380277 0.426055 0.471333 0.516108 0.560382 0.603956 0.646634 0.688414 0.729297 0.769284 0.808373 0.846565 0.88386 0.919952 0.954537 0.987615 1.01918 1.04925 1.0778 1.10485 1.13039 1.15448 1.17717 1.19846 1.21835 1.23685 1.25394 1.26964 1.28395 1.29708 1.30926 1.3205 1.3308 1.34015 1.34855 1.35601 1.36253 1.36832 1.37362 1.37841 1.38271 1.38651 1.38981 1.39261 1.39492 1.39685 1.39854 1.39999 1.40119 1.40214 1.40286 1.40333 1.40355 1.40353 1.40327 1.40277 1.40201 1.40102 1.39978 1.3983 1.39657 1.39447 1.39187 1.38877 1.38518 1.38108 1.37648 1.37138 1.36579 1.35946 1.35219 1.34397 1.33479 1.32467 1.31359 1.30157 1.28859 1.27443 1.25886 1.24189 1.2235 1.2037 1.18249 1.15987 1.13584 1.11034 1.08332 1.05476 1.02468 0.99308 0.959948 0.925289 0.889104 0.851698 0.813377 0.77414 0.733989 0.692922 0.65094 0.608043 0.564231 0.519703 0.47466 0.429102 0.383028 0.336438 0.289333 0.241712 0.193576 0.148207 0.108886 0.0756156 0.048394 0.0272216 0.0120985 0.00302462 0 0 0.00317122 0.0126849 0.028541 0.0507396 0.0792806 0.114164 0.15539 0.202958 0.253426 0.303348 0.352726 0.401559 0.449848 0.497592 0.544791 0.591445 0.637347 0.682285 0.726261 0.769275 0.811327 0.852416 0.892543 0.931707 0.969591 1.00588 1.04056 1.07365 1.10513 1.13502 1.16331 1.19 1.21515 1.23883 1.26104 1.28177 1.30104 1.31883 1.33515 1.34999 1.36361 1.37624 1.38788 1.39853 1.4082 1.41687 1.42456 1.43127 1.43722 1.44265 1.44757 1.45197 1.45586 1.45924 1.4621 1.46444 1.4664 1.46812 1.46959 1.47081 1.47178 1.4725 1.47298 1.47321 1.47319 1.47293 1.47242 1.47166 1.47065 1.46939 1.46789 1.46614 1.46401 1.46136 1.45819 1.45451 1.45031 1.4456 1.44037 1.43462 1.42812 1.42062 1.41213 1.40265 1.39217 1.3807 1.36824 1.35479 1.34009 1.32391 1.30624 1.28709 1.26646 1.24434 1.22073 1.19564 1.169 1.14073 1.11085 1.07935 1.04623 1.01149 0.975132 0.937154 0.897876 0.857617 0.816376 0.774154 0.730951 0.686766 0.6416 0.595453 0.548535 0.501058 0.453021 0.404426 0.355271 0.305557 0.255283 0.20445 0.156532 0.115003 0.0798633 0.0511125 0.0287508 0.0127781 0.00319453 0 0 0.003337 0.013348 0.030033 0.053392 0.0834251 0.120132 0.163513 0.213568 0.266666 0.319175 0.371094 0.422425 0.473168 0.523321 0.572885 0.621861 0.670028 0.717166 0.763275 0.808355 0.852407 0.89543 0.937423 0.978389 1.01799 1.05591 1.09213 1.12667 1.15951 1.19066 1.22012 1.2479 1.27405 1.29866 1.32172 1.34324 1.36322 1.38165 1.39853 1.41387 1.42793 1.44095 1.45295 1.46392 1.47386 1.48277 1.49066 1.49752 1.50359 1.50914 1.51416 1.51865 1.5226 1.52603 1.52893 1.5313 1.53328 1.53501 1.53649 1.53772 1.5387 1.53943 1.53992 1.54015 1.54013 1.53987 1.53935 1.53859 1.53757 1.53631 1.5348 1.53304 1.53088 1.5282 1.52499 1.52124 1.51697 1.51216 1.50682 1.50095 1.4943 1.48662 1.4779 1.46814 1.45736 1.44554 1.43269 1.4188 1.40362 1.38687 1.36858 1.34872 1.3273 1.30433 1.2798 1.25371 1.22599 1.19656 1.16541 1.13256 1.09799 1.06171 1.02372 0.98402 0.94294 0.900811 0.857633 0.813407 0.768132 0.721808 0.674436 0.626015 0.576767 0.526915 0.476459 0.425399 0.373735 0.321466 0.268594 0.215117 0.164699 0.121003 0.0840299 0.0537791 0.0302508 0.0134448 0.0033612 0 0 0.0034996 0.0139984 0.0314964 0.0559936 0.08749 0.125986 0.17148 0.223975 0.279651 0.334693 0.389101 0.442875 0.496015 0.54852 0.600392 0.651629 0.702 0.751276 0.799455 0.846537 0.892523 0.937413 0.981207 1.0239 1.06516 1.10464 1.14233 1.17825 1.21238 1.24473 1.2753 1.30409 1.33118 1.35666 1.38052 1.40276 1.42339 1.44241 1.45981 1.47559 1.49003 1.50341 1.51572 1.52696 1.53714 1.54625 1.5543 1.56128 1.56745 1.57309 1.57818 1.58273 1.58673 1.59019 1.59311 1.59549 1.59748 1.59921 1.60069 1.60192 1.60291 1.60364 1.60413 1.60436 1.60435 1.60408 1.60357 1.60281 1.6018 1.60053 1.59902 1.59726 1.5951 1.5924 1.58916 1.58537 1.58104 1.57616 1.57075 1.56478 1.55801 1.55017 1.54126 1.53128 1.52022 1.5081 1.4949 1.48063 1.46501 1.44776 1.42888 1.40837 1.38624 1.36248 1.33708 1.31006 1.28133 1.25079 1.21845 1.1843 1.14836 1.11061 1.07106 1.0297 0.986889 0.942958 0.897911 0.851746 0.804464 0.756065 0.70655 0.655917 0.6044 0.552233 0.499416 0.445948 0.391831 0.337062 0.281644 0.225575 0.172706 0.126886 0.0881154 0.0563938 0.0317215 0.0140985 0.00352461 0 0 0.00365902 0.0146361 0.0329312 0.0585443 0.0914755 0.131725 0.179292 0.234177 0.292381 0.349905 0.406747 0.462909 0.51839 0.57319 0.62731 0.680748 0.733264 0.784615 0.834801 0.883821 0.931677 0.978367 1.02389 1.06825 1.11109 1.15206 1.19116 1.22839 1.26375 1.29723 1.32884 1.35858 1.38655 1.41283 1.43742 1.46033 1.48156 1.5011 1.51896 1.53514 1.54992 1.5636 1.57618 1.58766 1.59804 1.60731 1.61548 1.62256 1.6288 1.63449 1.63963 1.64421 1.64824 1.65172 1.65465 1.65702 1.65899 1.66072 1.66219 1.66342 1.6644 1.66513 1.66562 1.66585 1.66584 1.66558 1.66507 1.66432 1.66331 1.66206 1.66056 1.65881 1.65667 1.65396 1.65071 1.6469 1.64253 1.63761 1.63214 1.62611 1.61926 1.6113 1.60223 1.59205 1.58076 1.56837 1.55488 1.54027 1.52426 1.50656 1.48716 1.46606 1.44326 1.41877 1.39258 1.36469 1.335 1.30342 1.26995 1.23459 1.19733 1.15818 1.11714 1.0742 1.02972 0.984059 0.937209 0.889172 0.839949 0.789539 0.737942 0.685159 0.631434 0.577011 0.521891 0.466073 0.409557 0.352345 0.294434 0.235826 0.180555 0.132652 0.0921197 0.0589566 0.0331631 0.0147392 0.00368479 0 0 0.00381388 0.0152555 0.0343249 0.0610221 0.0953471 0.1373 0.18688 0.244088 0.304747 0.364677 0.42388 0.482355 0.540102 0.597121 0.653412 0.708976 0.763559 0.816907 0.869022 0.919902 0.969548 1.01796 1.06514 1.11108 1.15543 1.19781 1.23824 1.27671 1.31321 1.34776 1.38034 1.41096 1.43973 1.46675 1.49202 1.51554 1.53731 1.55733 1.5756 1.59211 1.60719 1.62113 1.63394 1.64561 1.65615 1.66555 1.67382 1.68095 1.68724 1.69296 1.69812 1.70272 1.70676 1.71024 1.71316 1.71551 1.71746 1.71917 1.72063 1.72184 1.72281 1.72354 1.72402 1.72425 1.72424 1.72399 1.72349 1.72275 1.72176 1.72052 1.71904 1.71732 1.71519 1.7125 1.70925 1.70543 1.70106 1.69612 1.69062 1.68455 1.67764 1.66958 1.66039 1.65006 1.63858 1.62597 1.61221 1.59732 1.58098 1.56287 1.543 1.52136 1.49796 1.4728 1.44587 1.41718 1.38662 1.35407 1.31954 1.28303 1.24454 1.20406 1.1616 1.11716 1.0711 1.02378 0.97521 0.92538 0.874293 0.821951 0.768352 0.713497 0.657641 0.601039 0.543693 0.485601 0.426764 0.367182 0.306854 0.245781 0.188176 0.138252 0.0960084 0.0614453 0.034563 0.0153613 0.00384033 0 0 0.00396281 0.0158512 0.0356652 0.0634049 0.0990701 0.142661 0.194177 0.25362 0.316637 0.37888 0.440348 0.501041 0.56096 0.620104 0.678473 0.736067 0.792623 0.847876 0.901826 0.954474 1.00582 1.05586 1.1046 1.15204 1.1978 1.24152 1.28319 1.32281 1.36038 1.39591 1.42939 1.46083 1.49033 1.51803 1.54391 1.56797 1.59022 1.61066 1.62929 1.6461 1.66143 1.67559 1.68858 1.70041 1.71108 1.72057 1.72891 1.73608 1.74238 1.74811 1.75328 1.75788 1.7619 1.76537 1.76826 1.77058 1.7725 1.77418 1.77562 1.77681 1.77777 1.77848 1.77896 1.77919 1.77919 1.77894 1.77845 1.77772 1.77675 1.77554 1.77409 1.7724 1.7703 1.76764 1.76441 1.7606 1.75623 1.75129 1.74578 1.73971 1.73276 1.72464 1.71535 1.7049 1.69327 1.68047 1.66651 1.65137 1.63473 1.61627 1.59598 1.57387 1.54993 1.52416 1.49