<?xml version="1.0"?> 
<VTKFile type="StructuredGrid" version="0.1"> 
<StructuredGrid WholeExtent="0 128 0 128 0 0"> 
<Piece Extent="0 128 0 128 0 0"> 
<PointData>
<DataArray type="Float32" Name="u" format="ascii" NumberOfComponents="1"> 
0 0 0 0 0 0 0 0 0 0 0 0 0 0 0 0 0 0 0 0 0 0 0 0 0 0 0 0 0 0 0 0 0 0 0 0 0 0 0 0 0 0 0 0 0 0 0 0 0 0 0 0 0 0 0 0 0 0 0 0 0 0 0 0 0 0 0 0 0 0 0 0 0 0 0 0 0 0 0 0 0 0 0 0 0 0 0 0 0 0 0 0 0 0 0 0 0 0 0 0 0 0 0 0 0 0 0 0 0 0 0 0 0 0 0 0 0 0 0 0 0 0 0 0 0 0 0 0 0 0 9.96002e-06 3.98401e-05 8.96402e-05 0.00015936 0.000249 0.000358561 0.000488041 0.000637441 0.000796575 0.000955256 0.00111348 0.00127126 0.00142858 0.00158545 0.00174186 0.00189783 0.00205271 0.0022059 0.00235738 0.00250716 0.00265524 0.00280162 0.0029463 0.00308927 0.00322929 0.00336509 0.00349668 0.00362405 0.0037472 0.00386614 0.00398086 0.00409137 0.00419743 0.00429882 0.00439553 0.00448757 0.00457494 0.00465763 0.00473564 0.00480899 0.00487809 0.00494337 0.00500483 0.00506248 0.00511631 0.00516632 0.00521251 0.00525489 0.00529404 0.00533056 0.00536444 0.00539568 0.00542428 0.00545025 0.00547358 0.00549428 0.00551271 0.00552928 0.00554396 0.00555677 0.0055677 0.00557676 0.00558394 0.00558924 0.00559266 0.00559417 0.00559378 0.00559149 0.00558729 0.00558119 0.00557319 0.00556329 0.00555106 0.00553608 0.00551834 0.00549784 0.0054746 0.00544859 0.00541984 0.00538833 0.00535338 0.00531432 0.00527115 0.00522386 0.00517245 0.00511693 0.0050573 0.00499354 0.00492513 0.0048515 0.00477265 0.0046886 0.00459932 0.00450484 0.00440514 0.00430022 0.00419024 0.00407535 0.00395554 0.00383081 0.00370117 0.00356662 0.00342715 0.00328276 0.00313478 0.00298452 0.00283198 0.00267715 0.00252005 0.00236067 0.00219901 0.00203506 0.00186956 0.00170321 0.00153601 0.00136797 0.00119909 0.00102936 0.000858785 0.000687366 0.000526264 0.000386643 0.000268502 0.000171841 9.66608e-05 4.29604e-05 1.07401e-05 0 0 3.98401e-05 0.00015936 0.000358561 0.000637441 0.000996002 0.00143424 0.00195216 0.00254976 0.0031863 0.00382102 0.00445393 0.00508503 0.00571432 0.0063418 0.00696746 0.00759131 0.00821085 0.00882359 0.00942952 0.0100286 0.010621 0.0112065 0.0117852 0.0123571 0.0129172 0.0134604 0.0139867 0.0144962 0.0149888 0.0154646 0.0159234 0.0163655 0.0167897 0.0171953 0.0175821 0.0179503 0.0182997 0.0186305 0.0189426 0.019236 0.0195123 0.0197735 0.0200193 0.0202499 0.0204652 0.0206653 0.0208501 0.0210196 0.0211762 0.0213222 0.0214578 0.0215827 0.0216971 0.021801 0.0218943 0.0219771 0.0220509 0.0221171 0.0221758 0.0222271 0.0222708 0.022307 0.0223358 0.022357 0.0223706 0.0223767 0.0223751 0.0223659 0.0223492 0.0223248 0.0222928 0.0222532 0.0222042 0.0221443 0.0220733 0.0219914 0.0218984 0.0217944 0.0216794 0.0215533 0.0214135 0.0212573 0.0210846 0.0208954 0.0206898 0.0204677 0.0202292 0.0199742 0.0197005 0.019406 0.0190906 0.0187544 0.0183973 0.0180193 0.0176205 0.0172009 0.016761 0.0163014 0.0158222 0.0153233 0.0148047 0.0142665 0.0137086 0.0131311 0.0125391 0.0119381 0.0113279 0.0107086 0.0100802 0.00944268 0.00879603 0.00814025 0.00747823 0.00681283 0.00614405 0.00547189 0.00479635 0.00411744 0.00343514 0.00274946 0.00210506 0.00154657 0.00107401 0.000687366 0.000386643 0.000171841 4.29604e-05 0 0 8.96402e-05 0.000358561 0.000806761 0.00143424 0.002241 0.00322705 0.00439237 0.00573697 0.00716917 0.0085973 0.0100214 0.0114413 0.0128572 0.014269 0.0156768 0.0170804 0.0184744 0.0198531 0.0212164 0.0225645 0.0238972 0.0252146 0.0265167 0.0278035 0.0290636 0.0302858 0.0314701 0.0326164 0.0337248 0.0347953 0.0358278 0.0368223 0.0377769 0.0386894 0.0395598 0.0403881 0.0411744 0.0419187 0.0426208 0.0432809 0.0439028 0.0444903 0.0450435 0.0455623 0.0460467 0.0464969 0.0469126 0.047294 0.0476464 0.047975 0.0482799 0.0485611 0.0488186 0.0490523 0.0492622 0.0494485 0.0496144 0.0497635 0.0498956 0.0500109 0.0501093 0.0501908 0.0502554 0.0503032 0.0503339 0.0503475 0.050344 0.0503234 0.0502856 0.0502307 0.0501587 0.0500696 0.0499595 0.0498247 0.049665 0.0494806 0.0492714 0.0490374 0.0487785 0.048495 0.0481805 0.0478289 0.0474403 0.0470147 0.0465521 0.0460524 0.0455157 0.0449419 0.0443262 0.0436635 0.0429539 0.0421974 0.0413939 0.0405435 0.0396462 0.038702 0.0377122 0.0366781 0.0355998 0.0344773 0.0333106 0.0320996 0.0308443 0.0295449 0.028213 0.0268607 0.0254878 0.0240944 0.0226805 0.021246 0.0197911 0.0183156 0.016826 0.0153289 0.0138241 0.0123118 0.0107918 0.00926423 0.00772906 0.00618629 0.00473638 0.00347979 0.00241652 0.00154657 0.000869947 0.000386643 9.66608e-05 0 0 0.00015936 0.000637441 0.00143424 0.00254976 0.00398401 0.00573697 0.00780865 0.0101991 0.0127452 0.0152841 0.0178157 0.0203401 0.0228573 0.0253672 0.0278698 0.0303652 0.0328434 0.0352944 0.0377181 0.0401146 0.0424839 0.0448259 0.0471408 0.0494284 0.0516686 0.0538415 0.0559468 0.0579847 0.0599552 0.0618582 0.0636938 0.0654619 0.0671589 0.0687811 0.0703285 0.0718011 0.073199 0.074522 0.0757703 0.0769438 0.0780494 0.0790939 0.0800773 0.0809996 0.0818609 0.0826611 0.0834002 0.0840783 0.0847047 0.085289 0.085831 0.0863309 0.0867885 0.087204 0.0875773 0.0879084 0.0882034 0.0884684 0.0887034 0.0889083 0.0890832 0.0892281 0.089343 0.0894279 0.0894825 0.0895067 0.0895005 0.0894638 0.0893967 0.0892991 0.0891711 0.0890127 0.088817 0.0885772 0.0882934 0.0879655 0.0875935 0.0871775 0.0867174 0.0862133 0.0856541 0.0850292 0.0843384 0.0835817 0.0827592 0.0818709 0.0809167 0.0798967 0.0788021 0.077624 0.0763625 0.0750175 0.0735892 0.0720774 0.0704822 0.0688035 0.0670439 0.0652056 0.0632886 0.061293 0.0592188 0.0570659 0.0548344 0.0525242 0.0501565 0.0477523 0.0453116 0.0428345 0.0403208 0.0377707 0.0351841 0.032561 0.0299129 0.0272513 0.0245762 0.0218876 0.0191854 0.0164697 0.0137406 0.0109979 0.00842023 0.00618629 0.00429604 0.00274946 0.00154657 0.000687366 0.000171841 0 0 0.000249 0.000996002 0.002241 0.00398401 0.00622501 0.00896402 0.012201 0.015936 0.0199144 0.0238814 0.0278371 0.0317815 0.0357145 0.0396362 0.0435466 0.0474457 0.0513178 0.0551474 0.0589345 0.062679 0.066381 0.0700405 0.0736574 0.0772318 0.0807322 0.0841273 0.0874169 0.0906012 0.09368 0.0966535 0.0995215 0.102284 0.104936 0.10747 0.109888 0.112189 0.114373 0.116441 0.118391 0.120225 0.121952 0.123584 0.125121 0.126562 0.127908 0.129158 0.130313 0.131372 0.132351 0.133264 0.134111 0.134892 0.135607 0.136256 0.13684 0.137357 0.137818 0.138232 0.138599 0.138919 0.139193 0.139419 0.139598 0.139731 0.139816 0.139854 0.139844 0.139787 0.139682 0.13953 0.13933 0.139082 0.138777 0.138402 0.137958 0.137446 0.136865 0.136215 0.135496 0.134708 0.133835 0.132858 0.131779 0.130596 0.129311 0.127923 0.126432 0.124839 0.123128 0.121287 0.119316 0.117215 0.114983 0.112621 0.110128 0.107506 0.104756 0.101884 0.0988885 0.0957703 0.0925294 0.0891655 0.0856787 0.0820691 0.0783696 0.074613 0.0707994 0.0669289 0.0630013 0.0590167 0.0549752 0.0508766 0.0467389 0.0425802 0.0384003 0.0341993 0.0299772 0.025734 0.0214696 0.0171841 0.0131566 0.00966608 0.00671256 0.00429604 0.00241652 0.00107401 0.000268502 0 0 0.000358561 0.00143424 0.00322705 0.00573697 0.00896402 0.0129082 0.0175695 0.0229479 0.0286767 0.0343892 0.0400854 0.0457653 0.0514289 0.0570762 0.0627071 0.0683218 0.0738977 0.0794123 0.0848657 0.0902578 0.0955887 0.100858 0.106067 0.111214 0.116254 0.121143 0.12588 0.130466 0.134899 0.139181 0.143311 0.147289 0.151107 0.154757 0.158239 0.161553 0.164698 0.167675 0.170483 0.173124 0.175611 0.177961 0.180174 0.182249 0.184187 0.185987 0.18765 0.189176 0.190586 0.1919 0.19312 0.194244 0.195274 0.196209 0.197049 0.197794 0.198458 0.199054 0.199583 0.200044 0.200437 0.200763 0.201022 0.201213 0.201336 0.20139 0.201376 0.201294 0.201143 0.200923 0.200635 0.200279 0.199838 0.199299 0.19866 0.197922 0.197085 0.196149 0.195114 0.19398 0.192722 0.191316 0.189761 0.188059 0.186208 0.18421 0.182063 0.179768 0.177305 0.174654 0.171816 0.168789 0.165576 0.162174 0.158585 0.154808 0.150849 0.146713 0.142399 0.137909 0.133242 0.128398 0.123377 0.11818 0.112852 0.107443 0.101951 0.0963776 0.0907219 0.0849841 0.0791642 0.0732623 0.0673041 0.0613155 0.0552965 0.049247 0.0431672 0.0370569 0.0309163 0.0247452 0.0189455 0.0139192 0.00966608 0.00618629 0.00347979 0.00154657 0.000386643 0 0 0.000488041 0.00195216 0.00439237 0.00780865 0.012201 0.0175695 0.023914 0.0312346 0.0390322 0.0468075 0.0545607 0.0622917 0.0700004 0.077687 0.0853514 0.0929935 0.100583 0.108089 0.115512 0.122851 0.130107 0.137279 0.144369 0.151374 0.158235 0.164889 0.171337 0.177578 0.183613 0.189441 0.195062 0.200477 0.205674 0.210642 0.215381 0.219891 0.224172 0.228224 0.232047 0.23564 0.239026 0.242225 0.245237 0.248061 0.250699 0.25315 0.255413 0.25749 0.259408 0.261197 0.262857 0.264388 0.26579 0.267062 0.268206 0.26922 0.270123 0.270934 0.271654 0.272282 0.272817 0.273261 0.273613 0.273873 0.27404 0.274114 0.274095 0.273983 0.273777 0.273479 0.273087 0.272601 0.272002 0.271268 0.270399 0.269394 0.268255 0.266981 0.265572 0.264028 0.262316 0.260402 0.258286 0.255969 0.25345 0.25073 0.247808 0.244684 0.241331 0.237723 0.23386 0.229741 0.225367 0.220737 0.215852 0.210711 0.205322 0.199692 0.193821 0.18771 0.181358 0.174764 0.16793 0.160855 0.153604 0.146241 0.138767 0.131181 0.123483 0.115673 0.107751 0.0997181 0.0916083 0.0834572 0.0752646 0.0670307 0.0587553 0.0504386 0.0420805 0.0336809 0.025787 0.0189455 0.0131566 0.00842023 0.00473638 0.00210506 0.000526264 0 0 0.000637441 0.00254976 0.00573697 0.0101991 0.015936 0.0229479 0.0312346 0.0407962 0.0509808 0.0611364 0.0712629 0.0813605 0.0914291 0.101469 0.111479 0.121461 0.131374 0.141177 0.150872 0.160458 0.169935 0.179304 0.188563 0.197713 0.206675 0.215366 0.223787 0.231939 0.239821 0.247433 0.254775 0.261848 0.268636 0.275124 0.281314 0.287205 0.292796 0.298088 0.303081 0.307775 0.312197 0.316375 0.320309 0.323998 0.327444 0.330644 0.333601 0.336313 0.338819 0.341156 0.343324 0.345323 0.347154 0.348816 0.350309 0.351634 0.352814 0.353874 0.354813 0.355633 0.356333 0.356913 0.357372 0.357712 0.35793 0.358027 0.358002 0.357855 0.357587 0.357196 0.356684 0.356051 0.355268 0.354309 0.353174 0.351862 0.350374 0.34871 0.34687 0.344853 0.342617 0.340117 0.337354 0.334327 0.331037 0.327484 0.323667 0.319587 0.315208 0.310496 0.30545 0.30007 0.294357 0.28831 0.281929 0.275214 0.268175 0.260822 0.253154 0.245172 0.236875 0.228264 0.219338 0.210097 0.200626 0.191009 0.181247 0.171338 0.161283 0.151083 0.140736 0.130244 0.119652 0.109005 0.0983048 0.0875503 0.0767417 0.065879 0.0549622 0.0439914 0.0336809 0.0247452 0.0171841 0.0109979 0.00618629 0.00274946 0.000687366 0 0 0.000796561 0.00318624 0.00716905 0.012745 0.019914 0.0286762 0.0390315 0.0509799 0.0637063 0.0763956 0.0890478 0.101663 0.114241 0.126782 0.139286 0.151752 0.164132 0.176375 0.188481 0.20045 0.212282 0.223978 0.235537 0.246959 0.258143 0.268991 0.2795 0.289672 0.299506 0.309003 0.318163 0.326984 0.33545 0.343543 0.351261 0.358606 0.365577 0.372175 0.378398 0.384248 0.389759 0.394965 0.399866 0.404463 0.408754 0.412741 0.416423 0.4198 0.42292 0.42583 0.428529 0.431018 0.433296 0.435365 0.437223 0.438871 0.440339 0.441658 0.442827 0.443847 0.444718 0.445439 0.446011 0.446433 0.446705 0.446826 0.446795 0.446612 0.446278 0.445793 0.445156 0.444368 0.443394 0.442201 0.440788 0.439155 0.437304 0.435232 0.432941 0.43043 0.427646 0.424533 0.421091 0.417321 0.413223 0.408796 0.40404 0.398956 0.3935 0.387626 0.381336 0.374629 0.367506 0.359966 0.352009 0.343635 0.334856 0.325684 0.316119 0.30616 0.295808 0.285063 0.273924 0.262391 0.250571 0.238567 0.226381 0.214011 0.201459 0.188723 0.175804 0.162702 0.149474 0.136178 0.122814 0.109381 0.0958792 0.0823093 0.068671 0.0549642 0.0420819 0.0309173 0.0214704 0.013741 0.00772934 0.00343526 0.000858815 0 0 0.0009552 0.0038208 0.0085968 0.0152832 0.02388 0.0343872 0.0468048 0.0611328 0.0763925 0.0916053 0.106771 0.12189 0.136962 0.151987 0.166965 0.181896 0.19672 0.211378 0.22587 0.240196 0.254356 0.268349 0.282177 0.295838 0.309213 0.322182 0.334745 0.346902 0.358653 0.369998 0.380937 0.391471 0.401577 0.411235 0.420446 0.429209 0.437523 0.44539 0.452809 0.459781 0.466346 0.472547 0.478383 0.483856 0.488965 0.493709 0.498089 0.502105 0.505814 0.509273 0.512481 0.515439 0.518146 0.520603 0.52281 0.524766 0.526509 0.528074 0.529462 0.530672 0.531706 0.532562 0.53324 0.533742 0.534065 0.534208 0.534172 0.533955 0.53356 0.532984 0.532229 0.531294 0.530139 0.528722 0.527044 0.525105 0.522905 0.520443 0.51772 0.514736 0.511426 0.507723 0.503628 0.499141 0.494261 0.48899 0.483326 0.477271 0.47077 0.463769 0.45627 0.448272 0.439775 0.43078 0.421285 0.411291 0.400812 0.38986 0.378435 0.366539 0.354169 0.341327 0.328013 0.314226 0.300093 0.285737 0.271161 0.256362 0.241342 0.226101 0.210638 0.194954 0.179117 0.163195 0.147188 0.131097 0.114921 0.0986609 0.0823161 0.0658867 0.0504445 0.0370613 0.025737 0.0164717 0.00926532 0.00411792 0.00102948 0 0 0.00111336 0.00445343 0.0100202 0.0178137 0.027834 0.0400809 0.0545546 0.0712549 0.0890394 0.106765 0.124433 0.142041 0.159592 0.177083 0.194517 0.211891 0.229138 0.246188 0.263041 0.279697 0.296156 0.312418 0.328483 0.34435 0.359882 0.374939 0.389521 0.403628 0.41726 0.430417 0.4431 0.455307 0.467015 0.478202 0.488868 0.499012 0.508634 0.517735 0.526314 0.534371 0.541957 0.54912 0.555861 0.562179 0.568075 0.573548 0.5786 0.583228 0.587502 0.591486 0.59518 0.598586 0.601703 0.604531 0.607069 0.609319 0.611322 0.613121 0.614717 0.616109 0.617297 0.618281 0.619061 0.619638 0.620009 0.620174 0.620133 0.619885 0.619431 0.61877 0.617903 0.616829 0.615501 0.613872 0.611942 0.60971 0.607177 0.604343 0.601207 0.59777 0.593956 0.589686 0.584963 0.579785 0.574153 0.568066 0.561526 0.554531 0.547018 0.538925 0.530252 0.520999 0.511165 0.500751 0.489757 0.478182 0.466041 0.453349 0.440104 0.426307 0.411959 0.397058 0.381606 0.365602 0.349191 0.332519 0.315586 0.298391 0.280935 0.263218 0.245239 0.227 0.208578 0.190054 0.171428 0.152699 0.133867 0.114934 0.0958976 0.0767591 0.0587687 0.043177 0.029984 0.0191898 0.0107942 0.00479744 0.00119936 0 0 0.00127104 0.00508414 0.0114393 0.0203366 0.0317759 0.0457573 0.0622808 0.0813463 0.101647 0.121876 0.142033 0.162118 0.182131 0.202072 0.221941 0.241739 0.261386 0.280804 0.299992 0.318952 0.337682 0.356183 0.374455 0.392497 0.410153 0.427264 0.44383 0.459852 0.475329 0.490261 0.504649 0.518492 0.531766 0.544444 0.556528 0.568016 0.57891 0.589208 0.598912 0.608021 0.616593 0.624685 0.632298 0.639431 0.646085 0.652259 0.657954 0.663169 0.667982 0.672468 0.676627 0.680461 0.683968 0.687148 0.690002 0.69253 0.69478 0.696801 0.698593 0.700156 0.701491 0.702596 0.703473 0.704121 0.704539 0.704724 0.704679 0.704401 0.703891 0.70315 0.702177 0.700973 0.699482 0.697652 0.695482 0.692972 0.690122 0.686932 0.683402 0.679533 0.675236 0.670424 0.665097 0.659254 0.652897 0.646025 0.638638 0.630736 0.622245 0.613094 0.603282 0.592809 0.581675 0.56988 0.557425 0.544308 0.530545 0.51615 0.501124 0.485466 0.469177 0.452255 0.434702 0.416518 0.397866 0.378912 0.359656 0.340098 0.320237 0.300073 0.279607 0.258839 0.237859 0.216757 0.195533 0.174186 0.152718 0.131128 0.109416 0.0875812 0.0670544 0.0492644 0.0342114 0.0218953 0.0123161 0.00547383 0.00136846 0 0 0.00142823 0.00571293 0.0128541 0.0228517 0.0357058 0.0514164 0.0699834 0.0914069 0.114215 0.136936 0.159571 0.182118 0.204579 0.226952 0.249239 0.271439 0.293464 0.315226 0.336725 0.357961 0.378934 0.399645 0.420093 0.440277 0.460023 0.479154 0.49767 0.515572 0.532858 0.549529 0.565586 0.581027 0.595828 0.60996 0.623424 0.636221 0.64835 0.659811 0.670604 0.68073 0.690253 0.699242 0.707695 0.715612 0.722994 0.729841 0.736152 0.741928 0.747255 0.75222 0.756822 0.761062 0.764939 0.768455 0.771607 0.774398 0.776881 0.779112 0.78109 0.782815 0.784288 0.785508 0.786476 0.787191 0.787653 0.787858 0.787809 0.787503 0.786942 0.786126 0.785053 0.783726 0.782082 0.780061 0.777664 0.774889 0.771738 0.76821 0.764305 0.760024 0.755266 0.749935 0.744029 0.737549 0.730495 0.722866 0.714663 0.705886 0.696451 0.686276 0.67536 0.663703 0.651305 0.638167 0.624288 0.609669 0.594323 0.578266 0.561496 0.544015 0.525823 0.506918 0.487302 0.466974 0.446118 0.424918 0.403372 0.381482 0.359247 0.336667 0.313742 0.290473 0.26696 0.243303 0.219503 0.19556 0.171473 0.147243 0.12287 0.0983532 0.0753017 0.0553237 0.0384192 0.0245883 0.0138309 0.00614707 0.00153677 0 0 0.00158495 0.00633979 0.0142645 0.0253592 0.0396237 0.0570581 0.0776625 0.101437 0.126744 0.151948 0.177047 0.202044 0.226936 0.251725 0.27641 0.300991 0.325371 0.349454 0.373238 0.396725 0.419913 0.442804 0.465397 0.487691 0.509494 0.530611 0.551043 0.570788 0.589848 0.608222 0.62591 0.642912 0.659201 0.67475 0.689559 0.703627 0.716955 0.729543 0.74139 0.752497 0.762939 0.77279 0.782052 0.790723 0.798804 0.806294 0.813195 0.819505 0.825321 0.830741 0.835764 0.84039 0.844619 0.848451 0.851886 0.854924 0.857627 0.860054 0.862207 0.864085 0.865688 0.867017 0.86807 0.868849 0.869352 0.869576 0.869523 0.869192 0.868583 0.867695 0.86653 0.865088 0.8633 0.8611 0.858487 0.855463 0.852026 0.848177 0.843916 0.839243 0.834047 0.82822 0.82176 0.814669 0.806945 0.798589 0.789601 0.779981 0.769636 0.75847 0.746485 0.73368 0.720056 0.705612 0.690348 0.674265 0.657375 0.639694 0.62122 0.601955 0.581897 0.561047 0.539405 0.516971 0.493947 0.470534 0.446733 0.422544 0.397965 0.372999 0.347644 0.321901 0.29588 0.269692 0.243339 0.216819 0.190132 0.16328 0.136261 0.109075 0.0835105 0.0613547 0.0426074 0.0272687 0.0153387 0.00681719 0.0017043 0 0 0.00174118 0.00696473 0.0156707 0.0278589 0.0435296 0.0626826 0.085318 0.111436 0.139234 0.166909 0.194462 0.221893 0.249202 0.276389 0.303453 0.330395 0.357108 0.383488 0.409532 0.435243 0.460618 0.48566 0.510367 0.534739 0.558566 0.581635 0.603947 0.625502 0.646299 0.666339 0.685621 0.704147 0.721887 0.738815 0.754931 0.770234 0.784725 0.798403 0.81127 0.823323 0.834649 0.845331 0.855369 0.864763 0.873513 0.881619 0.889081 0.895899 0.902181 0.908032 0.913453 0.918444 0.923005 0.927136 0.930837 0.934108 0.937016 0.939629 0.941945 0.943966 0.945692 0.947122 0.948256 0.949094 0.949635 0.949878 0.949822 0.949467 0.948813 0.94786 0.946609 0.945058 0.943136 0.940767 0.937953 0.934692 0.930986 0.926833 0.922235 0.91719 0.911579 0.905279 0.89829 0.890613 0.882248 0.873195 0.863453 0.853022 0.841799 0.829677 0.816658 0.802741 0.787927 0.772214 0.755604 0.738095 0.719702 0.700436 0.680296 0.659285 0.6374 0.614642 0.591012 0.566509 0.541353 0.515763 0.48974 0.463283 0.436393 0.40907 0.381312 0.353122 0.324619 0.295925 0.26704 0.237964 0.208696 0.179237 0.149588 0.119747 0.0916809 0.0673574 0.046776 0.0299366 0.0168394 0.00748416 0.00187104 0 0 0.00189694 0.00758775 0.0170724 0.030351 0.0474234 0.0682898 0.0929499 0.121404 0.151684 0.181821 0.211816 0.241668 0.271377 0.300944 0.330369 0.359651 0.388676 0.417328 0.445608 0.473515 0.50105 0.528213 0.555003 0.581421 0.607238 0.632225 0.656383 0.679712 0.702211 0.72388 0.74472 0.764731 0.783884 0.802154 0.81954 0.836042 0.851659 0.866393 0.880243 0.893208 0.905384 0.916863 0.927645 0.937732 0.947121 0.955815 0.963811 0.971112 0.977833 0.984092 0.98989 0.995226 1.0001 1.00451 1.00846 1.01195 1.01505 1.01783 1.0203 1.02246 1.0243 1.02582 1.02703 1.02793 1.0285 1.02876 1.0287 1.02833 1.02763 1.02662 1.02529 1.02364 1.02159 1.01906 1.01606 1.01258 1.00862 1.00418 0.999261 0.993866 0.98786 0.981111 0.973619 0.965383 0.956404 0.946682 0.936217 0.925008 0.91294 0.899897 0.885879 0.870886 0.854917 0.837974 0.820055 0.801161 0.781303 0.76049 0.738724 0.716004 0.692331 0.667703 0.642122 0.615587 0.588335 0.560603 0.532392 0.503701 0.474529 0.444879 0.414748 0.384137 0.353178 0.322001 0.290607 0.258994 0.227164 0.195116 0.162851 0.130368 0.0998129 0.0733319 0.050925 0.032592 0.018333 0.00814799 0.002037 0 0 0.00205158 0.00820632 0.0184642 0.0328253 0.0512895 0.0738569 0.100527 0.131301 0.164044 0.196623 0.229037 0.261287 0.293373 0.325294 0.357051 0.388643 0.419948 0.45084 0.481321 0.511389 0.541046 0.570291 0.599124 0.627546 0.65531 0.682172 0.708131 0.733189 0.757344 0.780597 0.802948 0.824396 0.844916 0.864481 0.883091 0.900746 0.917446 0.933191 0.947981 0.961816 0.974799 0.987035 0.998524 1.00927 1.01926 1.0285 1.037 1.04475 1.05189 1.05853 1.06467 1.07033 1.07549 1.08016 1.08434 1.08803 1.09131 1.09425 1.09686 1.09914 1.10108 1.10269 1.10397 1.10492 1.10553 1.1058 1.10574 1.10535 1.10461 1.10355 1.10214 1.1004 1.09824 1.09557 1.09239 1.08871 1.08451 1.07981 1.07459 1.06887 1.0625 1.05533 1.04736 1.0386 1.02904 1.01869 1.00753 0.995587 0.982716 0.968793 0.953819 0.937793 0.920716 0.902587 0.883407 0.863176 0.841901 0.819592 0.796247 0.771868 0.746453 0.720003 0.692518 0.663998 0.634697 0.604869 0.574512 0.543629 0.512217 0.480279 0.447812 0.414819 0.381438 0.347812 0.31394 0.279823 0.245459 0.21085 0.175995 0.140894 0.107872 0.0792531 0.0550368 0.0352236 0.0198133 0.00880589 0.00220147 0 0 0.00220448 0.00881792 0.0198403 0.0352717 0.055112 0.0793612 0.108019 0.141087 0.176264 0.211255 0.246057 0.280672 0.315099 0.349339 0.383391 0.417255 0.450799 0.48389 0.516528 0.548713 0.580445 0.611724 0.64255 0.672923 0.702581 0.731264 0.758972 0.785703 0.81146 0.836241 0.860046 0.882875 0.904705 0.925509 0.945288 0.964042 0.981771 0.998475 1.01415 1.02881 1.04255 1.0555 1.06765 1.079 1.08955 1.09931 1.10828 1.11644 1.12395 1.13093 1.1374 1.14335 1.14878 1.15368 1.15807 1.16194 1.16537 1.16845 1.17119 1.17357 1.17561 1.1773 1.17864 1.17964 1.18028 1.18057 1.18051 1.18009 1.17933 1.17822 1.17675 1.17493 1.17267 1.16987 1.16653 1.16266 1.15825 1.15331 1.14783 1.14181 1.1351 1.12754 1.11914 1.10989 1.09979 1.08884 1.07705 1.06441 1.05078 1.03603 1.02015 1.00314 0.985009 0.96575 0.945366 0.923855 0.901222 0.877473 0.852608 0.826627 0.799529 0.771314 0.741983 0.711536 0.680242 0.648372 0.615925 0.582901 0.5493 0.515123 0.480369 0.445038 0.409282 0.37325 0.336943 0.300361 0.263504 0.226371 0.188964 0.151281 0.115825 0.0850956 0.0590942 0.0378203 0.0212739 0.00945506 0.00236377 0 0 0.00235563 0.00942254 0.0212007 0.0376902 0.0588909 0.0848029 0.115426 0.150761 0.188345 0.225716 0.262876 0.299823 0.336557 0.37308 0.40939 0.445487 0.481231 0.516479 0.551231 0.585487 0.619247 0.652511 0.68528 0.717552 0.749052 0.779503 0.808904 0.837256 0.864558 0.890811 0.916014 0.940168 0.96325 0.985238 1.00613 1.02593 1.04464 1.06225 1.07876 1.09419 1.10864 1.12225 1.13501 1.14693 1.15801 1.16824 1.17763 1.18617 1.19402 1.20132 1.20807 1.21428 1.21995 1.22507 1.22964 1.23366 1.23723 1.24044 1.24329 1.24577 1.24789 1.24965 1.25105 1.25208 1.25275 1.25306 1.253 1.25257 1.25178 1.25063 1.24911 1.24722 1.24487 1.24196 1.23849 1.23445 1.22985 1.22469 1.21896 1.21268 1.20566 1.19775 1.18894 1.17924 1.16864 1.15715 1.14475 1.13147 1.11713 1.1016 1.08486 1.06693 1.0478 1.02746 1.00593 0.983197 0.959265 0.934135 0.907807 0.880282 0.851558 0.821637 0.790518 0.7582 0.72497 0.691113 0.656629 0.621517 0.585778 0.549411 0.512417 0.474796 0.436708 0.398314 0.359615 0.320609 0.281298 0.24168 0.201757 0.161528 0.12367 0.0908595 0.0630969 0.040382 0.0227149 0.0100955 0.00252388 0 0 0.00250505 0.0100202 0.0225454 0.0400808 0.0626262 0.0901817 0.122747 0.160323 0.200285 0.240008 0.279492 0.318739 0.357746 0.396516 0.435047 0.473339 0.511242 0.548605 0.585427 0.621709 0.657451 0.692653 0.727313 0.761434 0.794723 0.826887 0.857928 0.887845 0.916638 0.944307 0.970853 0.996274 1.02055 1.04367 1.06562 1.08641 1.10604 1.12451 1.14181 1.15795 1.17306 1.18729 1.20062 1.21307 1.22462 1.23528 1.24506 1.25394 1.2621 1.26968 1.27669 1.28314 1.28901 1.29431 1.29905 1.30321 1.3069 1.31022 1.31316 1.31573 1.31792 1.31974 1.32119 1.32226 1.32295 1.32327 1.32321 1.32278 1.32197 1.32078 1.31921 1.31727 1.31485 1.31184 1.30825 1.30406 1.2993 1.29394 1.288 1.28148 1.27419 1.26595 1.25678 1.24666 1.2356 1.2236 1.21066 1.19677 1.18177 1.16551 1.14797 1.12916 1.10908 1.08773 1.0651 1.0412 1.01603 0.989577 0.961844 0.932833 0.902542 0.870971 0.838121 0.803991 0.768882 0.733093 0.696625 0.659477 0.62165 0.583143 0.543957 0.504092 0.463717 0.423005 0.381955 0.340567 0.298841 0.256777 0.214375 0.171635 0.131408 0.0965449 0.067045 0.0429088 0.0241362 0.0107272 0.0026818 0 0 0.00265272 0.0106109 0.0238745 0.0424435 0.0663179 0.0954978 0.129983 0.169774 0.212084 0.254129 0.295907 0.33742 0.378667 0.419647 0.460362 0.500811 0.540833 0.580269 0.619119 0.657382 0.695058 0.732148 0.768652 0.804568 0.839593 0.873418 0.906044 0.937472 0.967701 0.996731 1.02456 1.05119 1.07661 1.1008 1.12376 1.14549 1.16598 1.18525 1.20329 1.2201 1.23582 1.25062 1.26447 1.2774 1.28939 1.30045 1.31057 1.31976 1.32818 1.33602 1.34326 1.34991 1.35596 1.36143 1.3663 1.37058 1.37438 1.37778 1.38081 1.38345 1.3857 1.38757 1.38906 1.39016 1.39088 1.39121 1.39116 1.39072 1.38989 1.38867 1.38707 1.38509 1.3826 1.37951 1.37581 1.37151 1.36659 1.36107 1.35494 1.34821 1.34067 1.33215 1.32265 1.31215 1.30067 1.28821 1.27475 1.26031 1.2447 1.22776 1.20947 1.18983 1.16886 1.14654 1.12288 1.09787 1.07152 1.0438 1.01472 0.98428 0.952479 0.919316 0.884793 0.848908 0.811976 0.77431 0.735912 0.696781 0.656917 0.616319 0.574989 0.532926 0.49031 0.447323 0.403965 0.360235 0.316134 0.271662 0.226818 0.181603 0.13904 0.102152 0.0709386 0.0454007 0.0255379 0.0113502 0.00283755 0 0 0.00279864 0.0111946 0.0251878 0.0447783 0.0699661 0.100751 0.137134 0.179113 0.223744 0.26808 0.312121 0.355867 0.399318 0.442475 0.485336 0.527903 0.570004 0.611472 0.652305 0.692504 0.732068 0.770998 0.809294 0.846955 0.883662 0.919095 0.953253 0.986137 1.01775 1.04808 1.07714 1.10493 1.13143 1.15663 1.18054 1.20315 1.22447 1.24448 1.26321 1.28063 1.29692 1.31223 1.32657 1.33993 1.35232 1.36372 1.37416 1.38361 1.39228 1.40033 1.40777 1.41459 1.42081 1.42641 1.4314 1.43578 1.43965 1.44313 1.44623 1.44892 1.45123 1.45314 1.45467 1.4558 1.45653 1.45688 1.45683 1.45638 1.45554 1.45431 1.45268 1.45066 1.44813 1.44498 1.44119 1.43678 1.43174 1.42608 1.41979 1.41287 1.40513 1.39635 1.38655 1.37571 1.36385 1.35096 1.33704 1.32209 1.30592 1.28834 1.26935 1.24894 1.22713 1.2039 1.17926 1.1532 1.12572 1.0968 1.06643 1.03462 1.00137 0.966673 0.930534 0.892951 0.854253 0.814766 0.774492 0.733429 0.691578 0.648939 0.605513 0.561298 0.516486 0.471267 0.425643 0.379613 0.333176 0.286334 0.239085 0.191431 0.146564 0.10768 0.0747776 0.0478577 0.02692 0.0119644 0.00299111 0 0 0.00294283 0.0117713 0.0264854 0.0470852 0.0735707 0.105942 0.144199 0.188341 0.235264 0.281861 0.328133 0.37408 0.419701 0.464997 0.509968 0.554614 0.598755 0.642212 0.684986 0.727075 0.768481 0.809202 0.84924 0.888594 0.926931 0.963917 0.999553 1.03384 1.06677 1.09836 1.12859 1.15747 1.185 1.21117 1.23597 1.25941 1.28149 1.3022 1.32156 1.33955 1.35635 1.37214 1.38691 1.40066 1.4134 1.42512 1.43583 1.44552 1.45438 1.46262 1.47022 1.4772 1.48354 1.48925 1.49434 1.49879 1.50273 1.50627 1.50942 1.51216 1.51451 1.51646 1.51801 1.51916 1.51991 1.52027 1.52022 1.51977 1.51893 1.51769 1.51604 1.514 1.51144 1.50823 1.50438 1.49988 1.49474 1.48896 1.48254 1.47546 1.46754 1.45854 1.44848 1.43734 1.42514 1.41187 1.39753 1.38212 1.36543 1.34727 1.32762 1.3065 1.28389 1.25981 1.23424 1.2072 1.17865 1.14858 1.11698 1.08386 1.04921 1.01304 0.975344 0.936121 0.895713 0.85446 0.812363 0.769421 0.725635 0.681004 0.635528 0.589208 0.542244 0.494839 0.446991 0.398701 0.349968 0.300794 0.251178 0.201119 0.153982 0.113129 0.0785621 0.0502797 0.0282823 0.0125699 0.00314248 0 0 0.00308527 0.0123411 0.0277674 0.0493643 0.0771317 0.11107 0.151178 0.197457 0.246643 0.295471 0.343943 0.392058 0.439815 0.487216 0.534259 0.580945 0.627086 0.672491 0.717161 0.761096 0.804296 0.846761 0.888491 0.929486 0.9694 1.00789 1.04495 1.08058 1.11478 1.14756 1.17891 1.20883 1.23733 1.2644 1.29004 1.31426 1.33705 1.35841 1.37835 1.39685 1.41412 1.43034 1.44549 1.4596 1.47264 1.48464 1.49558 1.50546 1.51449 1.52288 1.53062 1.53772 1.54416 1.54997 1.55512 1.55963 1.56362 1.5672 1.57038 1.57316 1.57553 1.57751 1.57908 1.58025 1.58102 1.58138 1.58134 1.5809 1.58005 1.57881 1.57716 1.5751 1.57252 1.56928 1.56538 1.56082 1.5556 1.54972 1.54318 1.53599 1.52791 1.51873 1.50844 1.49704 1.48454 1.47092 1.45621 1.44038 1.42323 1.40453 1.38428 1.36249 1.33915 1.31427 1.28784 1.25986 1.23031 1.19914 1.16637 1.132 1.09601 1.05842 1.01922 0.978417 0.936356 0.893392 0.849526 0.804757 0.759086 0.712512 0.665035 0.616656 0.567586 0.518036 0.468007 0.417498 0.36651 0.315042 0.263094 0.210667 0.161292 0.1185 0.0822919 0.0526668 0.0296251 0.0131667 0.00329168 0 0 0.00322471 0.0128988 0.0290224 0.0515953 0.0806176 0.116089 0.158011 0.206381 0.257782 0.308792 0.359413 0.409643 0.459484 0.508935 0.557997 0.606668 0.654751 0.702046 0.748554 0.794275 0.839208 0.883354 0.926713 0.969284 1.01071 1.05063 1.08905 1.12597 1.16138 1.19529 1.22769 1.25859 1.28799 1.31591 1.34233 1.36726 1.39071 1.41266 1.43313 1.4521 1.46978 1.48637 1.50187 1.51628 1.5296 1.54183 1.55296 1.563 1.57217 1.58068 1.58853 1.59571 1.60224 1.60811 1.61331 1.61786 1.62187 1.62548 1.62869 1.63149 1.63388 1.63587 1.63746 1.63864 1.63942 1.63979 1.63976 1.63933 1.63849 1.63724 1.63559 1.63354 1.63095 1.62768 1.62375 1.61914 1.61387 1.60792 1.6013 1.59401 1.58581 1.57647 1.56599 1.55437 1.5416 1.52769 1.51264 1.49644 1.47887 1.45969 1.4389 1.41649 1.39248 1.36685 1.33961 1.31076 1.28026 1.24808 1.2142 1.17863 1.14138 1.10244 1.06181 1.01949 0.975841 0.931235 0.885667 0.839137 0.791647 0.743195 0.693781 0.643406 0.592292 0.54066 0.48851 0.435842 0.382656 0.328953 0.274731 0.219992 0.168432 0.123746 0.0859344 0.054998 0.0309364 0.0137495 0.00343738 0 0 0.00335989 0.0134395 0.030239 0.0537582 0.0839971 0.120956 0.164634 0.215033 0.268579 0.321702 0.374402 0.426679 0.478533 0.529963 0.58097 0.631553 0.681505 0.730617 0.778888 0.82632 0.872911 0.918662 0.963573 1.00764 1.0505 1.09179 1.13149 1.16961 1.20616 1.24113 1.27451 1.30632 1.33656 1.36526 1.3924 1.41799 1.44203 1.46452 1.48545 1.50484 1.52289 1.53981 1.5556 1.57028 1.58382 1.59624 1.60754 1.61771 1.62698 1.63558 1.6435 1.65076 1.65734 1.66325 1.66848 1.67305 1.67707 1.6807 1.68391 1.68672 1.68913 1.69113 1.69273 1.69392 1.694