<?xml version="1.0"?> 
<VTKFile type="StructuredGrid" version="0.1"> 
<StructuredGrid WholeExtent="0 128 0 128 0 0"> 
<Piece Extent="0 128 0 128 0 0"> 
<PointData>
<DataArray type="Float32" Name="u" format="ascii" NumberOfComponents="1"> 
0 0 0 0 0 0 0 0 0 0 0 0 0 0 0 0 0 0 0 0 0 0 0 0 0 0 0 0 0 0 0 0 0 0 0 0 0 0 0 0 0 0 0 0 0 0 0 0 0 0 0 0 0 0 0 0 0 0 0 0 0 0 0 0 0 0 0 0 0 0 0 0 0 0 0 0 0 0 0 0 0 0 0 0 0 0 0 0 0 0 0 0 0 0 0 0 0 0 0 0 0 0 0 0 0 0 0 0 0 0 0 0 0 0 0 0 0 0 0 0 0 0 0 0 0 0 0 0 0 0 1.2319e-05 4.92762e-05 0.000110871 0.000197105 0.000307976 0.000443486 0.000603633 0.000788419 0.000984751 0.00117954 0.00137278 0.00156447 0.00175462 0.00194322 0.00213027 0.00231578 0.00249889 0.00267873 0.00285532 0.00302865 0.00319872 0.00336554 0.00352909 0.00368939 0.00384504 0.00399466 0.00413826 0.00427583 0.00440738 0.0045329 0.00465239 0.00476586 0.00487336 0.00497496 0.00507066 0.00516047 0.00524437 0.00532238 0.00539448 0.00546069 0.00552184 0.00557878 0.00563152 0.00568004 0.00572436 0.00576447 0.00580037 0.00583207 0.00586047 0.0058865 0.00591015 0.00593142 0.00595032 0.00596685 0.005981 0.00599278 0.00600272 0.00601138 0.00601876 0.00602485 0.00602966 0.00603319 0.00603543 0.00603639 0.00603606 0.00603445 0.00603155 0.00602737 0.0060219 0.00601515 0.00600711 0.00599778 0.00598663 0.00597309 0.00595716 0.00593886 0.00591817 0.0058951 0.00586965 0.00584182 0.00581069 0.00577532 0.00573573 0.00569191 0.00564386 0.00559158 0.00553507 0.00547434 0.00540852 0.00533677 0.00525908 0.00517545 0.00508588 0.00499037 0.00488892 0.00478154 0.00466815 0.00454868 0.00442312 0.00429149 0.00415378 0.00400998 0.00386011 0.00370416 0.00354351 0.00337956 0.00321231 0.00304175 0.00286788 0.00269071 0.00251023 0.00232644 0.00214022 0.00195241 0.00176302 0.00157205 0.0013795 0.00118536 0.000989646 0.000792349 0.000606642 0.000445696 0.000309511 0.000198087 0.000111424 4.95218e-05 1.23805e-05 0 0 4.92762e-05 0.000197105 0.000443486 0.000788419 0.0012319 0.00177394 0.00241453 0.00315368 0.003939 0.00471814 0.0054911 0.00625788 0.00701846 0.00777287 0.00852109 0.00926312 0.00999555 0.0107149 0.0114213 0.0121146 0.0127949 0.0134621 0.0141164 0.0147575 0.0153802 0.0159787 0.016553 0.0171033 0.0176295 0.0181316 0.0186096 0.0190634 0.0194934 0.0198998 0.0202827 0.0206419 0.0209775 0.0212895 0.0215779 0.0218427 0.0220874 0.0223151 0.0225261 0.0227202 0.0228974 0.0230579 0.0232015 0.0233283 0.0234419 0.023546 0.0236406 0.0237257 0.0238013 0.0238674 0.023924 0.0239711 0.0240109 0.0240455 0.024075 0.0240994 0.0241187 0.0241328 0.0241417 0.0241456 0.0241442 0.0241378 0.0241262 0.0241095 0.0240876 0.0240606 0.0240284 0.0239911 0.0239465 0.0238923 0.0238287 0.0237554 0.0236727 0.0235804 0.0234786 0.0233673 0.0232427 0.0231013 0.0229429 0.0227676 0.0225754 0.0223663 0.0221403 0.0218974 0.0216341 0.0213471 0.0210363 0.0207018 0.0203435 0.0199615 0.0195557 0.0191262 0.0186726 0.0181947 0.0176925 0.017166 0.0166151 0.0160399 0.0154404 0.0148166 0.0141741 0.0135183 0.0128492 0.012167 0.0114715 0.0107628 0.0100409 0.00930578 0.00856087 0.00780963 0.00705208 0.00628819 0.00551798 0.00474144 0.00395858 0.0031694 0.00242657 0.00178279 0.00123805 0.000792349 0.000445696 0.000198087 4.95218e-05 0 0 0.000110871 0.000443486 0.000997843 0.00177394 0.00277179 0.00399137 0.0054327 0.00709577 0.00886276 0.0106158 0.012355 0.0140802 0.0157915 0.017489 0.0191724 0.020842 0.02249 0.0241086 0.0256979 0.0272579 0.0287885 0.0302898 0.0317618 0.0332045 0.0346053 0.035952 0.0372444 0.0384825 0.0396664 0.0407961 0.0418715 0.0428927 0.0438602 0.0447746 0.045636 0.0464442 0.0471993 0.0479014 0.0485503 0.0491462 0.0496965 0.050209 0.0506837 0.0511204 0.0515193 0.0518802 0.0522034 0.0524886 0.0527442 0.0529785 0.0531913 0.0533828 0.0535529 0.0537016 0.053829 0.053935 0.0540245 0.0541024 0.0541688 0.0542237 0.054267 0.0542987 0.0543189 0.0543275 0.0543246 0.05431 0.054284 0.0542463 0.0541971 0.0541363 0.054064 0.05398 0.0538796 0.0537578 0.0536145 0.0534497 0.0532636 0.0530559 0.0528269 0.0525764 0.0522962 0.0519779 0.0516215 0.0512271 0.0507947 0.0503242 0.0498157 0.0492691 0.0486767 0.0480309 0.0473317 0.046579 0.0457729 0.0449133 0.0440003 0.0430339 0.0420133 0.0409381 0.0398081 0.0386234 0.037384 0.0360899 0.034741 0.0333374 0.0318916 0.0304161 0.0289108 0.0273757 0.0258109 0.0242164 0.0225921 0.020938 0.019262 0.0175717 0.0158672 0.0141484 0.0124155 0.0106683 0.00890681 0.00713114 0.00545978 0.00401127 0.0027856 0.00178279 0.00100282 0.000445696 0.000111424 0 0 0.000197105 0.000788419 0.00177394 0.00315368 0.00492762 0.00709577 0.00965813 0.0126147 0.015756 0.0188726 0.0219644 0.0250315 0.0280739 0.0310915 0.0340843 0.0370525 0.0399822 0.0428597 0.0456852 0.0484584 0.0511796 0.0538486 0.0564654 0.0590302 0.0615206 0.0639146 0.0662122 0.0684133 0.0705181 0.0725264 0.0744382 0.0762537 0.0779737 0.0795994 0.0811306 0.0825675 0.08391 0.085158 0.0863117 0.087371 0.0883494 0.0892605 0.0901043 0.0908807 0.0915898 0.0922316 0.092806 0.0933131 0.0937675 0.0941839 0.0945623 0.0949028 0.0952052 0.0954696 0.095696 0.0958844 0.0960435 0.0961821 0.0963002 0.0963977 0.0964746 0.096531 0.0965669 0.0965822 0.096577 0.0965512 0.0965048 0.0964379 0.0963504 0.0962423 0.0961137 0.0959645 0.095786 0.0955694 0.0953146 0.0950217 0.0946908 0.0943217 0.0939145 0.0934692 0.092971 0.0924051 0.0917716 0.0910705 0.0903017 0.0894653 0.0885612 0.0875895 0.0865364 0.0853883 0.0841452 0.0828071 0.081374 0.0798459 0.0782228 0.0765047 0.0746904 0.0727788 0.07077 0.0686638 0.0664604 0.0641598 0.0617618 0.0592666 0.0566962 0.054073 0.0513969 0.0486679 0.0458861 0.0430513 0.0401636 0.0372231 0.0342435 0.0312385 0.0282083 0.0251528 0.0220719 0.0189658 0.0158343 0.0126776 0.00970628 0.00713114 0.00495218 0.0031694 0.00178279 0.000792349 0.000198087 0 0 0.000307976 0.0012319 0.00277179 0.00492762 0.0076994 0.0110871 0.0150908 0.0197105 0.0246188 0.0294884 0.0343194 0.0391117 0.0438654 0.0485804 0.0532568 0.0578945 0.0624722 0.0669684 0.0713831 0.0757163 0.0799681 0.0841384 0.0882273 0.0922346 0.0961259 0.0998666 0.103457 0.106896 0.110184 0.113322 0.11631 0.119146 0.121834 0.124374 0.126767 0.129012 0.131109 0.133059 0.134862 0.136517 0.138046 0.13947 0.140788 0.142001 0.143109 0.144112 0.145009 0.145802 0.146512 0.147162 0.147754 0.148286 0.148758 0.149171 0.149525 0.149819 0.150068 0.150285 0.150469 0.150621 0.150742 0.15083 0.150886 0.15091 0.150902 0.150861 0.150789 0.150684 0.150548 0.150379 0.150178 0.149945 0.149666 0.149327 0.148929 0.148471 0.147954 0.147378 0.146741 0.146046 0.145267 0.144383 0.143393 0.142298 0.141096 0.139789 0.138377 0.136859 0.135213 0.133419 0.131477 0.129386 0.127147 0.124759 0.122223 0.119539 0.116704 0.113717 0.110578 0.107287 0.103844 0.10025 0.0965028 0.092604 0.0885879 0.0844891 0.0803077 0.0760436 0.071697 0.0672677 0.0627557 0.0581611 0.0535054 0.0488102 0.0440755 0.0393012 0.0344874 0.029634 0.0247411 0.0198087 0.0151661 0.0111424 0.00773779 0.00495218 0.0027856 0.00123805 0.000309511 0 0 0.000443486 0.00177394 0.00399137 0.00709577 0.0110871 0.0159655 0.0217308 0.0283831 0.035451 0.0424633 0.0494199 0.0563209 0.0631662 0.0699558 0.0766898 0.0833681 0.0899599 0.0964344 0.102792 0.109032 0.115154 0.121159 0.127047 0.132818 0.138421 0.143808 0.148977 0.15393 0.158666 0.163184 0.167486 0.171571 0.175441 0.179099 0.182544 0.185777 0.188797 0.191606 0.194201 0.196585 0.198786 0.200836 0.202735 0.204482 0.206077 0.207521 0.208813 0.209954 0.210977 0.211914 0.212765 0.213531 0.214212 0.214807 0.215316 0.21574 0.216098 0.21641 0.216675 0.216895 0.217068 0.217195 0.217276 0.21731 0.217298 0.21724 0.217136 0.216985 0.216788 0.216545 0.216256 0.21592 0.215519 0.215031 0.214458 0.213799 0.213054 0.212224 0.211308 0.210306 0.209185 0.207912 0.206486 0.204909 0.203179 0.201297 0.199263 0.197076 0.194707 0.192124 0.189327 0.186316 0.183092 0.179653 0.176001 0.172135 0.168053 0.163752 0.159232 0.154494 0.149536 0.144359 0.138964 0.13335 0.127567 0.121664 0.115643 0.109503 0.103244 0.0968654 0.0903682 0.083752 0.0770478 0.0702867 0.0634687 0.0565937 0.0496618 0.042673 0.0356273 0.0285246 0.0218391 0.0160451 0.0111424 0.00713114 0.00401127 0.00178279 0.000445696 0 0 0.000603633 0.00241453 0.0054327 0.00965813 0.0150908 0.0217308 0.029578 0.0386325 0.0482528 0.0577973 0.067266 0.076659 0.0859762 0.0952176 0.104383 0.113473 0.122445 0.131258 0.139911 0.148404 0.156737 0.164911 0.172925 0.18078 0.188407 0.195738 0.202775 0.209516 0.215962 0.222112 0.227967 0.233527 0.238795 0.243773 0.248463 0.252863 0.256974 0.260796 0.26433 0.267574 0.27057 0.27336 0.275944 0.278322 0.280494 0.282459 0.284218 0.285771 0.287163 0.288438 0.289597 0.29064 0.291566 0.292376 0.293069 0.293646 0.294133 0.294558 0.294919 0.295218 0.295454 0.295626 0.295736 0.295783 0.295767 0.295688 0.295546 0.295341 0.295073 0.294742 0.294348 0.293891 0.293345 0.292681 0.291901 0.291004 0.28999 0.28886 0.287613 0.286249 0.284724 0.282991 0.281051 0.278903 0.276549 0.273987 0.271219 0.268243 0.265018 0.261502 0.257695 0.253597 0.249208 0.244528 0.239557 0.234295 0.228739 0.222885 0.216733 0.210283 0.203535 0.196489 0.189145 0.181504 0.173632 0.165599 0.157403 0.149046 0.140526 0.131845 0.123001 0.113996 0.104871 0.095668 0.0863879 0.0770303 0.0675953 0.0580827 0.0484926 0.0388251 0.0297255 0.0218391 0.0151661 0.00970628 0.00545978 0.00242657 0.000606642 0 0 0.000788419 0.00315368 0.00709577 0.0126147 0.0197105 0.0283831 0.0386325 0.0504588 0.063024 0.0754903 0.0878576 0.100126 0.112295 0.124366 0.136337 0.14821 0.159929 0.171439 0.182741 0.193834 0.204718 0.215394 0.225862 0.236121 0.246082 0.255658 0.264849 0.273653 0.282072 0.290105 0.297753 0.305015 0.311895 0.318397 0.324523 0.33027 0.33564 0.340632 0.345247 0.349484 0.353398 0.357042 0.360417 0.363523 0.366359 0.368926 0.371224 0.373252 0.37507 0.376736 0.378249 0.379611 0.380821 0.381878 0.382784 0.383538 0.384174 0.384728 0.385201 0.385591 0.385898 0.386124 0.386268 0.386329 0.386308 0.386205 0.386019 0.385752 0.385402 0.384969 0.384455 0.383858 0.383144 0.382277 0.381258 0.380087 0.378763 0.377287 0.375658 0.373877 0.371884 0.36962 0.367087 0.364282 0.361207 0.357861 0.354245 0.350358 0.346146 0.341553 0.336581 0.331229 0.325496 0.319384 0.312891 0.306019 0.298761 0.291115 0.28308 0.274655 0.265842 0.256639 0.247047 0.237066 0.226785 0.216292 0.205588 0.194672 0.183544 0.172205 0.160655 0.148892 0.136974 0.124954 0.112833 0.100611 0.0882877 0.0758631 0.0633373 0.0507104 0.0388251 0.0285246 0.0198087 0.0126776 0.00713114 0.0031694 0.000792349 0 0 0.000984749 0.003939 0.00886274 0.015756 0.0246187 0.035451 0.0482527 0.0630239 0.0787176 0.0942868 0.109731 0.125051 0.140247 0.155318 0.170264 0.185086 0.199715 0.214082 0.228189 0.242034 0.255617 0.26894 0.282001 0.294801 0.307229 0.319175 0.33064 0.341622 0.352122 0.36214 0.371676 0.380729 0.389307 0.397413 0.405047 0.41221 0.418902 0.425123 0.430873 0.436151 0.441025 0.445564 0.449767 0.453634 0.457165 0.460361 0.463221 0.465744 0.468006 0.470078 0.471961 0.473655 0.475159 0.476474 0.4776 0.478537 0.479328 0.480016 0.480603 0.481088 0.48147 0.481751 0.481929 0.482005 0.481979 0.481851 0.48162 0.481288 0.480853 0.480316 0.479677 0.478935 0.478048 0.47697 0.475703 0.474247 0.4726 0.470764 0.468737 0.466521 0.464042 0.461225 0.45807 0.454579 0.45075 0.446583 0.442079 0.437238 0.431991 0.42627 0.420074 0.413404 0.406259 0.39864 0.390547 0.381979 0.372931 0.363397 0.353376 0.342869 0.331876 0.320397 0.308431 0.295979 0.283151 0.270058 0.2567 0.243078 0.22919 0.215037 0.200619 0.185936 0.171057 0.156051 0.140917 0.125656 0.110267 0.0947514 0.0791081 0.0633374 0.0484927 0.0356273 0.0247412 0.0158344 0.00890683 0.00395859 0.000989647 0 0 0.00117953 0.00471812 0.0106158 0.0188725 0.0294882 0.0424631 0.0577969 0.0754899 0.0942864 0.112931 0.131424 0.149764 0.167953 0.18599 0.203875 0.221608 0.239108 0.256293 0.273162 0.289716 0.305955 0.321879 0.337488 0.352781 0.367628 0.381897 0.395587 0.4087 0.421234 0.433189 0.444567 0.455366 0.465594 0.475259 0.48436 0.492897 0.500871 0.50828 0.515126 0.521409 0.527209 0.532608 0.537608 0.542206 0.546404 0.550202 0.553599 0.556595 0.559279 0.561737 0.563971 0.56598 0.567763 0.569322 0.570656 0.571765 0.572701 0.573516 0.57421 0.574783 0.575236 0.575568 0.575779 0.575869 0.575838 0.575687 0.575414 0.575021 0.574506 0.573871 0.573115 0.572237 0.571187 0.569911 0.568409 0.566682 0.564729 0.562551 0.560146 0.557517 0.554573 0.551227 0.547478 0.543328 0.538774 0.533819 0.528461 0.5227 0.516455 0.509642 0.502262 0.494315 0.4858 0.476718 0.467069 0.456852 0.44606 0.434685 0.422726 0.410184 0.397059 0.38335 0.369058 0.354183 0.338856 0.32321 0.307244 0.290959 0.274354 0.257429 0.240185 0.222621 0.20482 0.186864 0.168752 0.150485 0.132062 0.113485 0.0947517 0.0758635 0.058083 0.0426732 0.0296342 0.0189659 0.0106683 0.00474147 0.00118537 0 0 0.00137276 0.00549104 0.0123548 0.0219642 0.034319 0.0494194 0.0672653 0.0878567 0.10973 0.131423 0.152935 0.174265 0.195415 0.216384 0.237171 0.257778 0.278109 0.29807 0.317661 0.336881 0.355732 0.374212 0.392322 0.410062 0.42728 0.443823 0.459692 0.474887 0.489408 0.503254 0.516427 0.528925 0.540758 0.551937 0.562461 0.57233 0.581544 0.590103 0.598008 0.605258 0.611949 0.618176 0.623939 0.629239 0.634076 0.638449 0.642358 0.645804 0.648888 0.651713 0.654279 0.656586 0.658634 0.660422 0.661952 0.663222 0.664293 0.665226 0.666021 0.666678 0.667196 0.667576 0.667817 0.667921 0.667886 0.667712 0.6674 0.66695 0.666362 0.665634 0.664769 0.663765 0.662562 0.661099 0.659376 0.657393 0.65515 0.652648 0.649886 0.646863 0.643478 0.639627 0.635311 0.630529 0.625281 0.619568 0.613389 0.606744 0.599537 0.591671 0.583146 0.573962 0.564119 0.553618 0.542457 0.530637 0.518147 0.504978 0.491128 0.476599 0.461389 0.445499 0.428929 0.411679 0.393901 0.375748 0.35722 0.338316 0.319037 0.299383 0.279353 0.258948 0.238263 0.217393 0.196338 0.175098 0.153673 0.132063 0.110268 0.0882885 0.0675959 0.0496623 0.0344877 0.0220721 0.0124156 0.00551803 0.00137951 0 0 0.00156444 0.00625777 0.01408 0.0250311 0.0391111 0.0563199 0.0766577 0.100124 0.125049 0.149763 0.174264 0.198554 0.222632 0.246498 0.270152 0.293594 0.316717 0.339414 0.361685 0.383529 0.404947 0.425938 0.446504 0.466643 0.486183 0.504954 0.522954 0.540185 0.556645 0.572335 0.587255 0.601405 0.614798 0.627446 0.639349 0.650508 0.660923 0.670593 0.679518 0.687699 0.695245 0.702266 0.708762 0.714733 0.72018 0.725102 0.729499 0.733371 0.736834 0.740006 0.742886 0.745474 0.74777 0.749775 0.751487 0.752908 0.754105 0.755148 0.756037 0.756771 0.75735 0.757775 0.758045 0.75816 0.758121 0.757928 0.757579 0.757076 0.756419 0.755606 0.754639 0.753517 0.752172 0.750534 0.748603 0.74638 0.743864 0.741056 0.737954 0.734561 0.730757 0.726426 0.721568 0.716183 0.71027 0.703831 0.696864 0.68937 0.681238 0.672356 0.662726 0.652346 0.641217 0.629338 0.616711 0.603334 0.589194 0.574277 0.558584 0.542114 0.524867 0.506844 0.488044 0.468467 0.448286 0.427672 0.406627 0.385149 0.363239 0.340897 0.318122 0.294916 0.271385 0.247638 0.223674 0.199495 0.175099 0.150486 0.125658 0.100613 0.0770315 0.0565946 0.0393018 0.0251531 0.0141486 0.00628829 0.00157207 0 0 0.00175457 0.0070183 0.0157912 0.0280732 0.0438644 0.0631647 0.0859742 0.112293 0.140244 0.16795 0.195413 0.22263 0.249604 0.276332 0.302817 0.329057 0.354933 0.380325 0.405234 0.429659 0.453601 0.477059 0.500033 0.522523 0.544339 0.565289 0.585373 0.604592 0.622945 0.640431 0.657052 0.672808 0.687714 0.701787 0.715026 0.727433 0.739007 0.749748 0.759656 0.768731 0.777097 0.784878 0.792076 0.798688 0.804717 0.810161 0.815021 0.819296 0.823117 0.826616 0.829791 0.832644 0.835173 0.83738 0.839263 0.840823 0.842137 0.843282 0.844257 0.845062 0.845698 0.846164 0.846461 0.846588 0.846545 0.846333 0.845951 0.845399 0.844678 0.843787 0.842726 0.841495 0.840018 0.838217 0.836092 0.833643 0.83087 0.827773 0.824353 0.820609 0.816409 0.811623 0.806249 0.800289 0.793741 0.786607 0.778886 0.770578 0.761557 0.751698 0.741001 0.729465 0.717092 0.70388 0.689831 0.674943 0.659199 0.642582 0.625092 0.60673 0.587493 0.567384 0.546402 0.524547 0.50201 0.478983 0.455465 0.431458 0.40696 0.381972 0.356494 0.330525 0.304187 0.277599 0.250762 0.223676 0.19634 0.168755 0.14092 0.112836 0.0863898 0.06347 0.0440764 0.0282089 0.0158675 0.00705223 0.00176306 0 0 0.00194316 0.00777263 0.0174884 0.0310905 0.0485789 0.0699537 0.0952147 0.124362 0.155313 0.185986 0.216379 0.246494 0.276331 0.305888 0.335167 0.364167 0.392756 0.420804 0.448309 0.475272 0.501694 0.527573 0.55291 0.577704 0.601747 0.624829 0.64695 0.668109 0.688307 0.707543 0.725818 0.743132 0.759505 0.774958 0.789491 0.803104 0.815797 0.827569 0.838422 0.848354 0.857505 0.866014 0.87388 0.881105 0.887687 0.893626 0.898924 0.903579 0.907737 0.911542 0.914995 0.918095 0.920842 0.923237 0.925278 0.926968 0.928389 0.929627 0.930681 0.931553 0.93224 0.932745 0.933066 0.933203 0.933157 0.932928 0.932515 0.931919 0.931139 0.930175 0.929029 0.927698 0.926099 0.924147 0.921841 0.919181 0.916168 0.912802 0.909082 0.905008 0.900435 0.895218 0.889355 0.882847 0.875695 0.867897 0.859454 0.850367 0.840494 0.829695 0.817971 0.805321 0.791745 0.777244 0.761817 0.745464 0.728163 0.709893 0.690654 0.670446 0.649268 0.627121 0.604004 0.579918 0.555073 0.529679 0.503735 0.477242 0.450199 0.422608 0.394466 0.365776 0.336669 0.307277 0.277601 0.247641 0.217397 0.186868 0.156055 0.124958 0.0956707 0.0702887 0.0488116 0.0312394 0.0175722 0.00780985 0.00195246 0 0 0.00213019 0.00852077 0.0191717 0.0340831 0.0532548 0.0766869 0.104379 0.136332 0.170258 0.203869 0.237165 0.270146 0.302813 0.335164 0.367201 0.398923 0.430187 0.460849 0.49091 0.520368 0.549225 0.57748 0.605134 0.632185 0.658408 0.683574 0.707683 0.730736 0.752731 0.77367 0.793553 0.812379 0.830173 0.846962 0.862744 0.877521 0.891292 0.904057 0.915816 0.926568 0.936469 0.945672 0.954176 0.961982 0.969089 0.975498 0.981209 0.986221 0.990694 0.994786 0.998497 1.00183 1.00478 1.00735 1.00953 1.01134 1.01286 1.01418 1.01531 1.01624 1.01698 1.01752 1.01786 1.01801 1.01796 1.01771 1.01727 1.01663 1.0158 1.01477 1.01355 1.01213 1.01042 1.00832 1.00585 1.003 0.999759 0.99614 0.99214 0.987758 0.982835 0.977211 0.970885 0.963858 0.95613 0.9477 0.93857 0.928738 0.91805 0.906349 0.893637 0.879913 0.865177 0.849429 0.832669 0.814897 0.796086 0.77621 0.755269 0.733262 0.71019 0.686053 0.66085 0.634582 0.607476 0.579761 0.551436 0.522502 0.492958 0.462804 0.432041 0.400668 0.36883 0.336671 0.304191 0.27139 0.238269 0.204826 0.171063 0.136979 0.104874 0.0770505 0.0535073 0.0342447 0.0192626 0.00856116 0.00214029 0 0 0.00231568 0.0092627 0.0208411 0.0370508 0.0578919 0.0833643 0.113468 0.148203 0.185078 0.2216 0.257769 0.293586 0.32905 0.364161 0.39892 0.433326 0.467225 0.500462 0.533035 0.564947 0.596195 0.626782 0.656705 0.685967 0.714321 0.741523 0.767573 0.792472 0.816219 0.838813 0.860256 0.880547 0.899717 0.917796 0.934785 0.950684 0.965492 0.97921 0.991837 1.00337 1.01399 1.02385 1.03296 1.04132 1.04892 1.05578 1.06187 1.06722 1.07199 1.07635 1.0803 1.08384 1.08698 1.08971 1.09203 1.09394 1.09555 1.09695 1.09814 1.09913 1.09991 1.10048 1.10084 1.101 1.10095 1.10069 1.10022 1.09955 1.09867 1.09758 1.09628 1.09478 1.09297 1.09075 1.08812 1.08509 1.08164 1.07779 1.07353 1.06886 1.06361 1.0576 1.05084 1.04332 1.03505 1.02602 1.01623 1.00569 0.994224 0.981659 0.967998 0.953241 0.937386 0.920435 0.902387 0.883242 0.862968 0.841533 0.818936 0.795179 0.77026 0.74418 0.716939 0.688537 0.659219 0.629229 0.598569 0.567238 0.535235 0.502562 0.469217 0.435201 0.400671 0.365781 0.330532 0.294924 0.258956 0.222629 0.185944 0.148899 0.114 0.0837555 0.0581635 0.0372246 0.0209389 0.00930616 0.00232654 0 0 0.00249875 0.00999502 0.0224888 0.0399801 0.0624689 0.0899552 0.122439 0.15992 0.199704 0.239097 0.278097 0.316706 0.354923 0.392747 0.43018 0.467222 0.503705 0.539463 0.574498 0.608808 0.642393 0.675254 0.707391 0.738803 0.76923 0.79841 0.826344 0.853031 0.87847 0.902664 0.92561 0.94731 0.9678 0.987117 1.00526 1.02223 1.03803 1.05265 1.0661 1.07838 1.08967 1.10015 1.10983 1.1187 1.12677 1.13403 1.14049 1.14614 1.15118 1.15578 1.15995 1.16369 1.16699 1.16987 1.17231 1.17432 1.176 1.17747 1.17872 1.17975 1.18057 1.18116 1.18155 1.18171 1.18166 1.18139 1.1809 1.18019 1.17927 1.17813 1.17677 1.1752 1.1733 1.17097 1.1682 1.165 1.16137 1.1573 1.15281 1.14787 1.14232 1.13596 1.12879 1.12082 1.11203 1.10244 1.09204 1.08083 1.06863 1.05525 1.04068 1.02494 1.00802 0.989915 0.970633 0.95017 0.928489 0.905552 0.881358 0.855907 0.8292 0.801236 0.772015 0.741538 0.710066 0.67786 0.644921 0.611248 0.576841 0.541701 0.505828 0.469221 0.432047 0.394475 0.356503 0.318133 0.279364 0.240196 0.200629 0.160662 0.123007 0.0903726 0.0627588 0.0401656 0.0225932 0.0100414 0.00251035 0 0 0.00267857 0.0107143 0.0241071 0.0428572 0.0669643 0.0964286 0.13125 0.171429 0.21407 0.256278 0.298055 0.339399 0.380311 0.420791 0.460839 0.500454 0.539459 0.577677 0.615108 0.651751 0.687607 0.722676 0.756957 0.790451 0.822881 0.853969 0.883717 0.912124 0.939189 0.964914 0.989298 1.01234 1.03409 1.05458 1.07381 1.0918 1.10853 1.124 1.13822 1.15119 1.1631 1.17416 1.18436 1.19371 1.2022 1.20984 1.21662 1.22255 1.22783 1.23264 1.23701 1.24092 1.24437 1.24737 1.24991 1.252 1.25375 1.25527 1.25657 1.25764 1.25849 1.25911 1.25951 1.25968 1.25962 1.25934 1.25884 1.25811 1.25715 1.25597 1.25456 1.25292 1.25095 1.24852 1.24563 1.24229 1.23849 1.23424 1.22953 1.22437 1.21855 1.21187 1.20433 1.19593 1.18668 1.17657 1.1656 1.15377 1.14088 1.12673 1.11132 1.09465 1.07672 1.05752 1.03707 1.01535 0.992332 0.967959 0.942234 0.915158 0.886731 0.856952 0.825821 0.793339 0.759783 0.72543 0.690279 0.654332 0.617587 0.580045 0.541706 0.502569 0.462815 0.42262 0.381985 0.340911 0.299397 0.257443 0.215049 0.172215 0.131852 0.0968709 0.0672715 0.0430537 0.0242177 0.0107634 0.00269086 0 0 0.00285513 0.0114205 0.0256962 0.0456821 0.0713782 0.102785 0.139901 0.182728 0.228173 0.273145 0.317642 0.361666 0.405216 0.448292 0.490895 0.533023 0.574489 0.615104 0.654867 0.693778 0.731838 0.769047 0.805404 0.840909 0.875272 0.908199 0.939693 0.969751 0.998375 1.02556 1.05132 1.07564 1.09857 1.12018 1.14045 1.15938 1.17699 1.19326 1.2082 1.22181 1.2343 1.24588 1.25657 1.26635 1.27523 1.2832 1.29028 1.29645 1.30193 1.30694 1.31147 1.31553 1.31911 1.32221 1.32484 1.327 1.3288 1.33036 1.3317 1.33281 1.33368 1.33432 1.33473 1.3349 1.33485 1.33456 1.33404 1.33329 1.3323 1.33109 1.32964 1.32796 1.32592 1.32341 1.32042 1.31696 1.31302 1.3086 1.30371 1.29834 1.29228 1.28531 1.27744 1.26866 1.25898 1.24839 1.2369 1.2245 1.21098 1.19611 1.17991 1.16237 1.14348 1.12326 1.1017 1.07879 1.0545 1.02875 1.00157 0.972932 0.942852 0.911327 0.878357 0.84394 0.80837 0.771938 0.734645 0.696489 0.657472 0.617592 0.576851 0.535248 0.492973 0.450217 0.406978 0.363257 0.319055 0.274371 0.229204 0.183556 0.140535 0.10325 0.0717017 0.0458891 0.0258126 0.0114723 0.00286807 0 0 0.00302842 0.0121137 0.0272558 0.0484548 0.0757106 0.109023 0.148393 0.193819 0.242016 0.289696 0.336859 0.383506 0.429637 0.475251 0.520348 0.564929 0.608794 0.651742 0.693773 0.734887 0.775085 0.814366 0.85273 0.890178 0.926404 0.961101 0.994271 1.02591 1.05603 1.08461 1.11167 1.1372 1.16126 1.18392 1.20516 1.22499 1.24342 1.26043 1.27603 1.29023 1.30325 1.31531 1.32644 1.33661 1.34584 1.35412 1.36145 1.36783 1.37349 1.37866 1.38334 1.38752 1.39121 1.3944 1.3971 1.3993 1.40114 1.40274 1.40411 1.40524 1.40613 1.40678 1.4072 1.40738 1.40732 1.40703 1.4065 1.40573 1.40473 1.40349 1.40201 1.4003 1.39821 1.39564 1.39257 1.389 1.38494 1.38039 1.37533 1.36979 1.36352 1.3563 1.34813 1.33901 1.32894 1.31792 1.30595 1.29302 1.27892 1.26339 1.24645 1.22809 1.20832 1.18712 1.16451 1.14049 1.11498 1.08794 1.05935 1.02923 0.997565 0.964363 0.929622 0.893342 0.855828 0.817386 0.778017 0.73772 0.696496 0.654344 0.611264 0.567257 0.522523 0.477265 0.431481 0.385172 0.338338 0.290979 0.243095 0.194686 0.149057 0.109511 0.0760494 0.0486716 0.0273778 0.0121679 0.00304197 0 0 0.00319846 0.0127938 0.0287861 0.0511753 0.0799615 0.115145 0.156724 0.204701 0.255597 0.305931 0.355706 0.40492 0.453574 0.501667 0.5492 0.596173 0.642374 0.687592 0.731827 0.775079 0.817348 0.858634 0.898938 0.938258 0.976276 1.01267 1.04745 1.08061 1.11215 1.14206 1.17036 1.19703 1.22216 1.2458 1.26795 1.28862 1.30781 1.32551 1.34173 1.35646 1.36995 1.38246 1.39397 1.4045 1.41404 1.42258 1.43014 1.4367 1.44251 1.44782 1.45261 1.4569 1.46067 1.46393 1.46668 1.46892 1.47079 1.47241 1.47379 1.47494 1.47584 1.47651 1.47693 1.47712 1.47706 1.47676 1.47623 1.47545 1.47443 1.47318 1.47168 1.46994 1.46783 1.4652 1.46207 1.45842 1.45426 1.44959 1.44441 1.43872 1.43227 1.42483 1.4164 1.40698 1.39656 1.38515 1.37274 1.35934 1.3447 1.32857 1.31094 1.29182 1.27121 1.24911 1.22552 1.20043 1.17379 1.1455 1.11559 1.08405 1.05087 1.01606 0.979617 0.941543 0.902155 0.861773 0.820396 0.778025 0.734659 0.690299 0.644944 0.598595 0.551464 0.503764 0.455494 0.406655 0.357247 0.307269 0.256722 0.205605 0.157416 0.115653 0.0803145 0.0514013 0.0289132 0.0128503 0.00321258 0 0 0.00336523 0.0134609 0.0302871 0.0538437 0.0841308 0.121148 0.164896 0.215375 0.268916 0.321852 0.374182 0.425907 0.477027 0.527541 0.57745 0.626753 0.675229 0.722654 0.769029 0.814354 0.858628 0.901852 0.944025 0.985148 1.02489 1.06292 1.09924 1.13384 1.16673 1.19791 1.22738 1.25513 1.28125 1.30582 1.32882 1.35027 1.37016 1.3885 1.40527 1.42049 1.43442 1.44732 1.45918 1.47002 1.47982 1.4886 1.49634 1.50306 1.50899 1.5144 1.51929 1.52365 1.52749 1.5308 1.53359 1.53585 1.53773 1.53936 1.54076 1.54191 1.54282 1.54349 1.54392 1.54411 1.54405 1.54375 1.54321 1.54243 1.54141 1.54015 1.53864 1.53689 1.53476 1.5321 1.52892 1.52521 1.52098 1.51622 1.51093 1.50512 1.49853 1.49091 1.48225 1.47256 1.46183 1.45007 1.43728 1.42346 1.40833 1.39164 1.37339 1.35357 1.33218 1.30923 1.28472 1.25864 1.23091 1.20146 1.17029 1.13739 1.10276 1.06642 1.02834 0.988544 0.947352 0.905098 0.861782 0.817403 0.771961 0.725458 0.677892 0.629263 0.579797 0.529715 0.479018 0.427707 0.37578 0.323239 0.270083 0.216313 0.165614 0.121676 0.0844971 0.0540782 0.030419 0.0135195 0.00337989 0 0 0.00352874 0.014115 0.0317587 0.0564599 0.0882186 0.127035 0.172908 0.22584 0.281974 0.337456 0.392288 0.446467 0.499995 0.552872 0.605097 0.656671 0.707359 0.756929 0.805379 0.852711 0.898924 0.944018 0.987993 1.03085 1.07224 1.11184 1.14962 1.18561 1.21979 1.25216 1.28273 1.3115 1.33855 1.36398 1.38777 1.40994 1.43048 1.44939 1.46668 1.48234 1.49664 1.50988 1.52206 1.53316 1.5432 1.55217 1.56007 1.5669 1.57293 1.57842 1.58338 1.58779 1.59167 1.59502 1.59782 1.60009 1.60197 1.6036 1.605 1.60615 1.60707 1.60774 1.60816 1.60835 1.6083 1.608 1.60746 1.60668 1.60566 1.6044 1.6029 1.60115 1.59902 1.59634 1.59313 1.58938 1.5851 1.58027 1.57491 1.56901 1.5623 1.55452 1.54567 1.53575 1.52476 1.5127 1.49957 1.48536 1.46981 1.45261 1.43378 1.41332 1.39122 1.36748 1.3421 1.31509 1.28636 1.25581 1.22344 1.18925 1.15325 1.11543 1.0758 1.03435 0.991419 0.947362 0.902174 0.855854 0.808403 0.759821 0.710107 0.659262 0.60752 0.555117 0.502052 0.448327 0.393939 0.338891 0.28318 0.226809 0.173651 0.12758 0.0885972 0.0567022 0.031895 0.0141756 0.00354389 0 0 0.003689 0.014756 0.033201 0.0590239 0.0922249 0.132804 0.180761 0.236096 0.29477 0.352746 0.410023 0.466601 0.52248 0.577661 0.632142 0.685925 0.738765 0.790415 0.840878 0.890151 0.938237 0.985133 1.03084 1.07536 1.11834 1.15942 1.19861 1.23591 1.2713 1.30481 1.33642 1.36613 1.39405 1.42028 1.4448 1.46763 1.48876 1.5082 1.52594 1.54198 1.55663 1.57016 1.5826 1.59393 1.60416 1.61329 1.62131 1.62823 1.63432 1.63987 1.64487 1.64932 1.65322 1.65657 1.65938 1.66164 1.66351 1.66513 1.66652 1.66767 1.66857 1.66924 1.66967 1.66985 1.6698 1.66951 1.66898 1.6682 1.66719 1.66594 1.66445 1.66272 1.66059 1.65792 1.6547 1.65093 1.64661 1.64174 1.63633 1.63037 1.62358 1.61568 1.60668 1.59657 1.58535 1.57303 1.5596 1.54507 1.52913 1.51148 1.49213 1.47108 1.44832 1.42385 1.39768 1.36981 1.34013 1.30854 1.27504 1.23964 1.20233 1.16311 1.12198 1.07895 1.03436 0.988566 0.941573 0.893379 0.843984 0.793387 0.741589 0.688589 0.634634 0.57997 0.524597 0.468515 0.411723 0.354223 0.296013 0.237094 0.181525 0.133365 0.0926148 0.0592735 0.0333413 0.0148184 0.00370459 0 0 0.0038446 0.0153784 0.0346014 0.0615136 0.096115 0.138406 0.188385 0.246055 0.307195 0.367589 0.427236 0.486136 0.54429 0.601697 0.658358 0.714272 0.769184 0.822837 0.875232 0.926369 0.976247 1.02487 1.07223 1.11833 1.16281 1.20531 1.24582 1.28435 1.3209 1.35546 1.38804 1.41863 1.44735 1.47431 1.4995 1.52293 1.5446 1.56451 1.58265 1.59903 1.61396 1.62775 1.64041 1.65193 1.66232 1.67156 1.67968 1.68665 1.69278 1.69836 1.70338 1.70784 1.71175 1.7151 1.71789 1.72013 1.72197 1.72358 1.72495 1.72608 1.72698 1.72763 1.72806 1.72824 1.72819 1.72791 1.72738 1.72662 1.72563 1.72439 1.72292 1.72122 1.71911 1.71646 1.71324 1.70947 1.70514 1.70026 1.69481 1.68882 1.68197 1.67399 1.66486 1.6546 1.6432 1.63066 1.61698 1.60216 1.58588 1.56784 1.54802 1.52643 1.50307 1.47794 1.45104 1.42237 1.39182 1.35926 1.32471 1.28816 1.24962 1.20907 1.16653 1.12199 1.07582 1.02838 0.979661 0.929673 0.878413 0.825881 0.772077 0.717002 0.660913 0.604065 0.546461 0.488099 0.42898 0.369104 0.30847 0.247079 0.18917 0.138982 0.0965152 0.0617697 0.0347455 0.0154424 0.00386061 0 0 0.00399418 0.0159767 0.0359476 0.0639069 0.0998545 0.14379 0.195715 0.255627 0.319137 0.381853 0.443774 0.504901 0.565234 0.624772 0.683517 0.741467 0.798356 0.853918 0.908151 0.961058 1.01264 1.06289 1.11181 1.15941 1.2053 1.24913 1.29088 1.33056 1.36818 1.40372 1.43719 1.46859 1.49804 1.52566 1.55146 1.57543 1.59758 1.6179 1.6364 1.65306 1.66824 1.68224 1.69508 1.70676 1.71726 1.7266 1.73478 1.74179 1.74793 1.75351 1.75853 1.76299 1.76688 1.77021 1.77298 1.77519 1.77699 1.77857 1.77992 1.78103 1.78191 1.78256 1.78297 1.78316 1.78311 1.78283 1.78232 1.78157 1.7806 1.77939 1.77795 1.77628 1.77421 1.77158 1.76838 1.76462 1.7603 1.75542 1.74997 1.74397 1.73709 1.72905 1.71983 1.70945 1.6979 1.68518 1.67129 1.65623 1.63967 1