<?xml version="1.0"?> 
<VTKFile type="StructuredGrid" version="0.1"> 
<StructuredGrid WholeExtent="0 128 0 128 0 0"> 
<Piece Extent="0 128 0 128 0 0"> 
<PointData>
<DataArray type="Float32" Name="u" format="ascii" NumberOfComponents="1"> 
0 0 0 0 0 0 0 0 0 0 0 0 0 0 0 0 0 0 0 0 0 0 0 0 0 0 0 0 0 0 0 0 0 0 0 0 0 0 0 0 0 0 0 0 0 0 0 0 0 0 0 0 0 0 0 0 0 0 0 0 0 0 0 0 0 0 0 0 0 0 0 0 0 0 0 0 0 0 0 0 0 0 0 0 0 0 0 0 0 0 0 0 0 0 0 0 0 0 0 0 0 0 0 0 0 0 0 0 0 0 0 0 0 0 0 0 0 0 0 0 0 0 0 0 0 0 0 0 0 0 1.24963e-05 4.99853e-05 0.000112467 0.000199941 0.000312408 0.000449867 0.000612319 0.000799764 0.000998888 0.00119638 0.00139223 0.00158645 0.00177903 0.00196997 0.00215928 0.00234696 0.00253213 0.00271391 0.00289231 0.00306733 0.00323897 0.00340723 0.0035721 0.00373359 0.00389031 0.00404086 0.00418525 0.00432348 0.00445554 0.00458143 0.00470116 0.00481473 0.00492222 0.00502372 0.00511924 0.00520876 0.0052923 0.00536985 0.00544141 0.00550698 0.00556744 0.00562367 0.00567566 0.00572343 0.00576696 0.00580626 0.00584132 0.00587215 0.00589969 0.00592488 0.00594772 0.0059682 0.00598634 0.00600212 0.00601555 0.00602663 0.00603591 0.00604396 0.00605077 0.00605635 0.00606068 0.00606378 0.00606565 0.00606627 0.00606566 0.00606381 0.00606073 0.00605641 0.00605085 0.00604405 0.00603602 0.00602675 0.00601568 0.00600227 0.0059865 0.00596838 0.00594791 0.00592509 0.00589991 0.00587239 0.00584157 0.00580652 0.00576723 0.00572372 0.00567597 0.00562398 0.00556777 0.00550732 0.00544176 0.00537021 0.00529267 0.00520914 0.00511963 0.00502412 0.00492263 0.00481514 0.00470158 0.00458185 0.00445596 0.0043239 0.00418568 0.00404129 0.00389074 0.00373401 0.00357252 0.00340764 0.00323938 0.00306773 0.0028927 0.00271429 0.0025325 0.00234732 0.00215963 0.0019703 0.00177933 0.00158672 0.00139248 0.0011966 0.000999076 0.000799917 0.000612436 0.000449953 0.000312467 0.000199979 0.000112488 4.99948e-05 1.24987e-05 0 0 4.99853e-05 0.000199941 0.000449867 0.000799764 0.00124963 0.00179947 0.00244928 0.00319906 0.00399555 0.0047855 0.00556891 0.00634578 0.00711611 0.0078799 0.00863714 0.00938784 0.0101285 0.0108556 0.0115693 0.0122693 0.0129559 0.0136289 0.0142884 0.0149344 0.0155612 0.0161635 0.016741 0.0172939 0.0178221 0.0183257 0.0188047 0.0192589 0.0196889 0.0200949 0.0204769 0.020835 0.0211692 0.0214794 0.0217656 0.0220279 0.0222698 0.0224947 0.0227027 0.0228937 0.0230678 0.023225 0.0233653 0.0234886 0.0235988 0.0236995 0.0237909 0.0238728 0.0239453 0.0240085 0.0240622 0.0241065 0.0241437 0.0241758 0.0242031 0.0242254 0.0242427 0.0242551 0.0242626 0.0242651 0.0242626 0.0242553 0.0242429 0.0242256 0.0242034 0.0241762 0.0241441 0.024107 0.0240627 0.0240091 0.023946 0.0238735 0.0237916 0.0237004 0.0235997 0.0234896 0.0233663 0.0232261 0.0230689 0.0228949 0.0227039 0.0224959 0.0222711 0.0220293 0.021767 0.0214808 0.0211707 0.0208366 0.0204785 0.0200965 0.0196905 0.0192606 0.0188063 0.0183274 0.0178238 0.0172956 0.0167427 0.0161652 0.0155629 0.0149361 0.0142901 0.0136306 0.0129575 0.0122709 0.0115708 0.0108572 0.01013 0.00938927 0.00863851 0.00788119 0.00711732 0.0063469 0.00556992 0.00478639 0.00399631 0.00319967 0.00244974 0.00179981 0.00124987 0.000799917 0.000449953 0.000199979 4.99948e-05 0 0 0.000112467 0.000449867 0.0010122 0.00179947 0.00281167 0.00404881 0.00551088 0.00719788 0.00898999 0.0107674 0.0125301 0.014278 0.0160112 0.0177298 0.0194336 0.0211226 0.0227891 0.0244252 0.0260308 0.027606 0.0291508 0.0306651 0.0321489 0.0336023 0.0350128 0.0363678 0.0376673 0.0389113 0.0400998 0.0412329 0.0423105 0.0433326 0.0443 0.0452135 0.0460731 0.0468788 0.0476307 0.0483286 0.0489727 0.0495628 0.050107 0.050613 0.051081 0.0515108 0.0519026 0.0522563 0.0525719 0.0528494 0.0530972 0.0533239 0.0535295 0.0537138 0.053877 0.0540191 0.05414 0.0542397 0.0543232 0.0543957 0.054457 0.0545071 0.0545462 0.0545741 0.0545908 0.0545965 0.054591 0.0545743 0.0545466 0.0545077 0.0544576 0.0543965 0.0543242 0.0542407 0.0541412 0.0540204 0.0538785 0.0537154 0.0535312 0.0533258 0.0530992 0.0528515 0.0525741 0.0522587 0.0519051 0.0515135 0.0510837 0.0506159 0.0501099 0.0495659 0.0489758 0.0483319 0.047634 0.0468823 0.0460766 0.0452171 0.0443036 0.0433363 0.0423142 0.0412367 0.0401036 0.0389151 0.0376711 0.0363716 0.0350166 0.0336061 0.0321527 0.0306688 0.0291544 0.0276096 0.0260343 0.0244286 0.0227925 0.0211259 0.0194366 0.0177327 0.016014 0.0142805 0.0125323 0.0107694 0.00899169 0.00719925 0.00551192 0.00404958 0.00281221 0.00179981 0.00101239 0.000449953 0.000112488 0 0 0.000199941 0.000799764 0.00179947 0.00319906 0.00499853 0.00719788 0.00979711 0.0127962 0.0159822 0.019142 0.0222757 0.0253831 0.0284644 0.0315196 0.0345486 0.0375514 0.040514 0.0434226 0.046277 0.0490774 0.0518236 0.0545157 0.0571536 0.0597375 0.062245 0.0646538 0.066964 0.0691756 0.0712886 0.0733029 0.0752186 0.0770357 0.0787555 0.0803796 0.0819078 0.0833402 0.0846768 0.0859175 0.0870625 0.0881117 0.089079 0.0899787 0.0908106 0.0915748 0.0922713 0.0929001 0.0934611 0.0939544 0.0943951 0.0947981 0.0951635 0.0954913 0.0957814 0.0960339 0.0962488 0.0964261 0.0965746 0.0967034 0.0968124 0.0969016 0.096971 0.0970206 0.0970504 0.0970604 0.0970506 0.097021 0.0969717 0.0969025 0.0968136 0.0967048 0.0965763 0.096428 0.0962509 0.0960363 0.095784 0.0954941 0.0951666 0.0948014 0.0943986 0.0939582 0.0934651 0.0929043 0.0922758 0.0915795 0.0908155 0.0899837 0.0890843 0.0881171 0.0870681 0.0859233 0.0846827 0.0833463 0.081914 0.0803859 0.078762 0.0770423 0.0752253 0.0733097 0.0712954 0.0691824 0.0669709 0.0646606 0.0622518 0.0597442 0.0571603 0.0545223 0.0518301 0.0490837 0.0462833 0.0434287 0.0405199 0.0375571 0.034554 0.0315248 0.0284693 0.0253876 0.0222797 0.0191456 0.0159852 0.0127987 0.00979898 0.00719925 0.00499948 0.00319967 0.00179981 0.000799917 0.000199979 0 0 0.000312408 0.00124963 0.00281167 0.00499853 0.0078102 0.0112467 0.015308 0.0199941 0.0249722 0.0299094 0.0348057 0.0396611 0.0444757 0.0492493 0.0539821 0.058674 0.0633032 0.0678478 0.0723079 0.0766834 0.0809743 0.0851807 0.0893025 0.0933398 0.0972578 0.101022 0.104631 0.108087 0.111388 0.114536 0.117529 0.120368 0.123056 0.125593 0.127981 0.130219 0.132307 0.134246 0.136035 0.137674 0.139186 0.140592 0.141892 0.143086 0.144174 0.145156 0.146033 0.146804 0.147492 0.148122 0.148693 0.149205 0.149658 0.150053 0.150389 0.150666 0.150898 0.151099 0.151269 0.151409 0.151517 0.151595 0.151641 0.151657 0.151642 0.151595 0.151518 0.15141 0.151271 0.151101 0.1509 0.150669 0.150392 0.150057 0.149663 0.14921 0.148698 0.148127 0.147498 0.14681 0.146039 0.145163 0.144181 0.143093 0.141899 0.1406 0.139194 0.137683 0.136044 0.134255 0.132317 0.130229 0.127991 0.125603 0.123066 0.120379 0.11754 0.114546 0.111399 0.108098 0.104642 0.101032 0.0972684 0.0933504 0.089313 0.085191 0.0809845 0.0766933 0.0723176 0.0678573 0.0633124 0.0586829 0.0539907 0.0492575 0.0444833 0.0396681 0.034812 0.0299149 0.0249769 0.0199979 0.0153109 0.0112488 0.00781168 0.00499948 0.00281221 0.00124987 0.000312467 0 0 0.000449867 0.00179947 0.00404881 0.00719788 0.0112467 0.0161952 0.0220435 0.0287915 0.03596 0.0430695 0.0501202 0.057112 0.064045 0.0709191 0.0777343 0.0844906 0.0911566 0.0977008 0.104123 0.110424 0.116603 0.12266 0.128596 0.134409 0.140051 0.145471 0.150669 0.155645 0.160399 0.164932 0.169242 0.17333 0.1772 0.180854 0.184292 0.187515 0.190523 0.193314 0.195891 0.198251 0.200428 0.202452 0.204324 0.206043 0.20761 0.209025 0.210288 0.211397 0.212389 0.213296 0.214118 0.214855 0.215508 0.216076 0.21656 0.216959 0.217293 0.217583 0.217828 0.218029 0.218185 0.218296 0.218363 0.218386 0.218364 0.218297 0.218186 0.218031 0.217831 0.217586 0.217297 0.216963 0.216565 0.216082 0.215514 0.214862 0.214125 0.213303 0.212397 0.211406 0.210297 0.209035 0.20762 0.206054 0.204335 0.202463 0.20044 0.198263 0.195903 0.193328 0.190536 0.187529 0.184307 0.180868 0.177215 0.173345 0.169257 0.164947 0.160415 0.155661 0.150684 0.145486 0.140066 0.134425 0.128611 0.122675 0.116618 0.110438 0.104137 0.0977145 0.0911699 0.0845034 0.0777466 0.0709307 0.0640559 0.0571221 0.0501293 0.0430775 0.0359667 0.028797 0.0220477 0.0161983 0.0112488 0.00719925 0.00404958 0.00179981 0.000449953 0 0 0.000612319 0.00244928 0.00551088 0.00979711 0.015308 0.0220435 0.0300037 0.0391884 0.0489455 0.0586224 0.0682192 0.0777358 0.0871723 0.0965287 0.105805 0.115001 0.124074 0.132982 0.141723 0.150299 0.15871 0.166954 0.175033 0.182946 0.190625 0.198002 0.205077 0.21185 0.218321 0.22449 0.230357 0.235922 0.241189 0.246162 0.250843 0.255229 0.259323 0.263122 0.266629 0.269842 0.272805 0.27556 0.278108 0.280448 0.282581 0.284507 0.286225 0.287735 0.289085 0.290319 0.291438 0.292442 0.293331 0.294104 0.294762 0.295305 0.29576 0.296154 0.296488 0.296761 0.296974 0.297125 0.297217 0.297247 0.297217 0.297127 0.296976 0.296764 0.296492 0.296159 0.295765 0.295311 0.294769 0.294111 0.293339 0.292451 0.291448 0.290329 0.289096 0.287747 0.286237 0.284519 0.282595 0.280462 0.278122 0.275575 0.272821 0.269859 0.266646 0.26314 0.259341 0.255248 0.250862 0.246182 0.241209 0.235942 0.230377 0.224511 0.218342 0.211871 0.205098 0.198023 0.190646 0.182967 0.175053 0.166974 0.15873 0.150319 0.141743 0.133 0.124092 0.115019 0.105822 0.0965446 0.0871872 0.0777495 0.0682315 0.0586333 0.0489547 0.0391959 0.0300094 0.0220477 0.0153109 0.00979898 0.00551192 0.00244974 0.000612436 0 0 0.000799764 0.00319906 0.00719788 0.0127962 0.0199941 0.0287915 0.0391884 0.0511849 0.0639288 0.076568 0.0891026 0.101533 0.113858 0.126078 0.138194 0.150205 0.162056 0.17369 0.185108 0.196309 0.207294 0.218063 0.228615 0.23895 0.24898 0.258615 0.267856 0.276703 0.285154 0.293212 0.300874 0.308143 0.315022 0.321518 0.327631 0.333361 0.338707 0.34367 0.34825 0.352447 0.356316 0.359915 0.363242 0.366299 0.369085 0.3716 0.373844 0.375818 0.37758 0.379192 0.380654 0.381965 0.383126 0.384136 0.384995 0.385704 0.386299 0.386814 0.38725 0.387606 0.387884 0.388082 0.388201 0.388241 0.388202 0.388084 0.387887 0.38761 0.387254 0.386819 0.386305 0.385712 0.385004 0.384145 0.383136 0.381976 0.380666 0.379206 0.377594 0.375833 0.37386 0.371617 0.369103 0.366318 0.363262 0.359935 0.356337 0.352468 0.348273 0.343693 0.338731 0.333385 0.327656 0.321544 0.315048 0.308169 0.300901 0.293239 0.285182 0.27673 0.267883 0.258643 0.249007 0.238977 0.228641 0.218089 0.20732 0.196335 0.185133 0.173715 0.16208 0.150228 0.138216 0.126099 0.113877 0.10155 0.0891188 0.0765823 0.0639409 0.0511947 0.0391959 0.028797 0.0199979 0.0127987 0.00719925 0.00319967 0.000799917 0 0 0.000998887 0.00399555 0.00898998 0.0159822 0.0249722 0.0359599 0.0489454 0.0639287 0.0798451 0.0956297 0.111283 0.126804 0.142193 0.157451 0.172577 0.187572 0.202365 0.216887 0.231138 0.245117 0.258826 0.272263 0.285429 0.298324 0.310837 0.322857 0.334384 0.345418 0.355959 0.366006 0.375561 0.384623 0.393199 0.401296 0.408916 0.416057 0.422719 0.428903 0.434609 0.439836 0.444656 0.449137 0.453281 0.457087 0.460556 0.463686 0.466479 0.468934 0.471127 0.473132 0.47495 0.476581 0.478024 0.47928 0.480349 0.48123 0.481968 0.482608 0.483149 0.483593 0.483937 0.484184 0.484332 0.484382 0.484333 0.484186 0.483941 0.483597 0.483155 0.482615 0.481976 0.481239 0.480359 0.479292 0.478037 0.476595 0.474966 0.473149 0.471145 0.468953 0.466499 0.463707 0.460578 0.45711 0.453305 0.449162 0.444682 0.439863 0.434637 0.428932 0.422749 0.416087 0.408947 0.401328 0.393231 0.384656 0.375594 0.36604 0.355992 0.345452 0.334418 0.322891 0.310871 0.298358 0.285462 0.272296 0.258858 0.245149 0.231169 0.216917 0.202394 0.1876 0.172605 0.157477 0.142218 0.126826 0.111303 0.0956474 0.0798601 0.0639409 0.0489547 0.0359667 0.0249769 0.0159852 0.00899169 0.0039963 0.000999076 0 0 0.00119637 0.00478549 0.0107673 0.0191419 0.0299093 0.0430694 0.0586222 0.0765678 0.0956295 0.114531 0.133271 0.151852 0.170272 0.188531 0.20663 0.224568 0.242263 0.259631 0.276672 0.293386 0.309773 0.325833 0.341566 0.356972 0.371919 0.386275 0.400039 0.413212 0.425794 0.437785 0.449184 0.459992 0.470218 0.479872 0.488954 0.497464 0.505401 0.512767 0.519561 0.525782 0.531516 0.536847 0.541776 0.546301 0.550424 0.554144 0.557461 0.560376 0.562978 0.565357 0.567513 0.569446 0.571157 0.572645 0.573911 0.574954 0.575827 0.576584 0.577224 0.577749 0.578157 0.578448 0.578623 0.578682 0.578625 0.578451 0.578161 0.577754 0.577231 0.576592 0.575837 0.574965 0.573923 0.572659 0.571173 0.569463 0.567531 0.565376 0.562998 0.560398 0.557485 0.554169 0.55045 0.546329 0.541805 0.536877 0.531547 0.525814 0.519594 0.512801 0.505437 0.4975 0.488991 0.47991 0.470256 0.460031 0.449223 0.437825 0.425834 0.413253 0.40008 0.386315 0.371959 0.357012 0.341606 0.325872 0.309811 0.293424 0.276709 0.259667 0.242298 0.224602 0.206662 0.188562 0.1703 0.151878 0.133295 0.114552 0.0956474 0.0765822 0.0586333 0.0430775 0.0299149 0.0191456 0.0107694 0.00478639 0.0011966 0 0 0.00139222 0.00556888 0.01253 0.0222755 0.0348055 0.0501199 0.0682187 0.089102 0.111282 0.133271 0.155069 0.176676 0.198092 0.219318 0.240352 0.261195 0.281751 0.301923 0.321711 0.341115 0.360135 0.378772 0.397025 0.414894 0.432226 0.448869 0.464822 0.480086 0.494661 0.508547 0.521743 0.534249 0.546079 0.557245 0.567745 0.577582 0.586754 0.595262 0.603105 0.610284 0.616898 0.623045 0.628727 0.633942 0.638691 0.642974 0.646791 0.650142 0.653131 0.655865 0.658341 0.660561 0.662525 0.664232 0.665682 0.666876 0.667875 0.668741 0.669474 0.670074 0.670541 0.670875 0.671075 0.671142 0.671077 0.670878 0.670546 0.670081 0.669482 0.668751 0.667887 0.666889 0.665697 0.664248 0.662542 0.66058 0.658362 0.655887 0.653156 0.650168 0.646818 0.643003 0.638721 0.633973 0.62876 0.623079 0.616933 0.610321 0.603143 0.595301 0.586795 0.577624 0.567788 0.557288 0.546123 0.534294 0.521788 0.508593 0.494707 0.480133 0.464869 0.448915 0.432272 0.41494 0.39707 0.378817 0.36018 0.341159 0.321754 0.301964 0.281791 0.261234 0.240389 0.219353 0.198126 0.176707 0.155097 0.133295 0.111303 0.0891186 0.0682315 0.0501292 0.034812 0.0222797 0.0125323 0.00556992 0.00139248 0 0 0.00158643 0.00634571 0.0142779 0.0253829 0.0396607 0.0571114 0.077735 0.101531 0.126803 0.151851 0.176676 0.201277 0.225656 0.249811 0.273743 0.297452 0.320828 0.343762 0.366255 0.388305 0.409914 0.431081 0.451806 0.472089 0.491757 0.510639 0.528733 0.54604 0.562559 0.578292 0.593238 0.607396 0.620783 0.633414 0.645291 0.656412 0.666777 0.676388 0.685242 0.693342 0.7008 0.70773 0.714133 0.720008 0.725356 0.730176 0.734468 0.738233 0.741589 0.744657 0.747435 0.749925 0.752127 0.754039 0.755663 0.756997 0.758113 0.759081 0.7599 0.76057 0.761091 0.761464 0.761687 0.761763 0.761689 0.761467 0.761096 0.760577 0.759909 0.759092 0.758126 0.757012 0.755679 0.754057 0.752146 0.749947 0.747459 0.744682 0.741616 0.738261 0.734498 0.730208 0.72539 0.720044 0.71417 0.707769 0.70084 0.693384 0.685285 0.676432 0.666823 0.656458 0.645339 0.633463 0.620832 0.607446 0.593289 0.578344 0.562612 0.546092 0.528785 0.510691 0.49181 0.472141 0.451857 0.431132 0.409964 0.388354 0.366303 0.343809 0.320873 0.297496 0.273785 0.249851 0.225693 0.201312 0.176707 0.151878 0.126826 0.10155 0.0777494 0.057122 0.039668 0.0253875 0.0142805 0.00634689 0.00158672 0 0 0.001779 0.007116 0.016011 0.028464 0.044475 0.064044 0.0871711 0.113856 0.142192 0.17027 0.198091 0.225655 0.252961 0.280011 0.306803 0.333338 0.359494 0.385149 0.410303 0.434956 0.459108 0.482759 0.505909 0.528557 0.550513 0.571584 0.591771 0.611072 0.629489 0.647021 0.663668 0.679431 0.694329 0.708382 0.72159 0.733953 0.745471 0.756144 0.765973 0.774956 0.783223 0.790903 0.797996 0.804501 0.810419 0.815749 0.820492 0.824648 0.82835 0.831733 0.834796 0.837539 0.839963 0.842067 0.843852 0.845317 0.846541 0.847602 0.8485 0.849235 0.849806 0.850215 0.85046 0.850543 0.850462 0.850219 0.849812 0.849242 0.84851 0.847614 0.846555 0.845333 0.84387 0.842087 0.839985 0.837563 0.834821 0.83176 0.82838 0.82468 0.820526 0.815785 0.810456 0.80454 0.798037 0.790946 0.783268 0.775002 0.76602 0.756193 0.745521 0.734004 0.721642 0.708436 0.694384 0.679487 0.663725 0.647078 0.629547 0.61113 0.591829 0.571642 0.550571 0.528615 0.505966 0.482815 0.459164 0.435011 0.410357 0.385201 0.359545 0.333387 0.30685 0.280055 0.253003 0.225693 0.198125 0.1703 0.142217 0.113877 0.087187 0.0640557 0.0444831 0.0284692 0.0160139 0.0071173 0.00177933 0 0 0.00196994 0.00787974 0.0177294 0.031519 0.0492484 0.0709177 0.0965269 0.126076 0.157448 0.188528 0.219315 0.249809 0.28001 0.309918 0.339533 0.368855 0.39775 0.426084 0.453857 0.481068 0.507718 0.533806 0.559334 0.5843 0.608494 0.631706 0.653936 0.675184 0.69545 0.714734 0.733035 0.750355 0.766717 0.782146 0.796642 0.810205 0.822835 0.834532 0.845295 0.855126 0.864168 0.872564 0.880315 0.88742 0.89388 0.899695 0.904864 0.909388 0.913415 0.917093 0.920422 0.923402 0.926034 0.928316 0.93025 0.931836 0.933158 0.934305 0.935275 0.936069 0.936687 0.937129 0.937394 0.937483 0.937396 0.937133 0.936693 0.936078 0.935286 0.934318 0.933173 0.931853 0.93027 0.928338 0.926057 0.923428 0.92045 0.917123 0.913447 0.909422 0.904901 0.899733 0.893921 0.887463 0.880359 0.87261 0.864216 0.855176 0.845347 0.834585 0.82289 0.810261 0.7967 0.782205 0.766777 0.750416 0.733097 0.714796 0.695513 0.675248 0.654 0.63177 0.608557 0.584363 0.559396 0.533868 0.507779 0.481128 0.453915 0.426141 0.397805 0.368908 0.339584 0.309966 0.280055 0.24985 0.219352 0.188561 0.157477 0.126099 0.0965443 0.0709305 0.0492573 0.0315247 0.0177326 0.00788116 0.00197029 0 0 0.00215923 0.00863694 0.0194331 0.0345477 0.0539808 0.0777324 0.105802 0.138191 0.172574 0.206626 0.240348 0.273739 0.3068 0.339531 0.371932 0.404002 0.435596 0.466567 0.496915 0.52664 0.555743 0.584223 0.612081 0.639316 0.665699 0.691004 0.715229 0.738375 0.760442 0.78143 0.801339 0.820168 0.837948 0.854708 0.870448 0.885168 0.898869 0.91155 0.923211 0.933852 0.943633 0.952712 0.96109 0.968765 0.97574 0.982012 0.987583 0.992452 0.996783 1.00074 1.00431 1.00751 1.01034 1.01279 1.01486 1.01655 1.01796 1.01919 1.02023 1.02107 1.02173 1.0222 1.02249 1.02258 1.02249 1.02221 1.02174 1.02108 1.02024 1.0192 1.01798 1.01657 1.01488 1.01281 1.01036 1.00754 1.00434 1.00077 0.996818 0.99249 0.987622 0.982054 0.975783 0.968811 0.961138 0.952762 0.943685 0.933906 0.923267 0.911608 0.898928 0.885229 0.87051 0.854771 0.838012 0.820234 0.801405 0.781498 0.76051 0.738444 0.715298 0.691073 0.665768 0.639384 0.612148 0.58429 0.555809 0.526705 0.496978 0.466628 0.435655 0.40406 0.371987 0.339584 0.306849 0.273784 0.240388 0.206662 0.172604 0.138216 0.105821 0.0777462 0.0539904 0.0345539 0.0194366 0.00863847 0.00215962 0 0 0.00234689 0.00938758 0.021122 0.0375503 0.0586723 0.0844882 0.114998 0.150201 0.187567 0.224563 0.261189 0.297446 0.333334 0.368852 0.404 0.438779 0.47303 0.506597 0.539478 0.571674 0.603184 0.63401 0.66415 0.693605 0.722129 0.749478 0.77565 0.800646 0.824466 0.84711 0.868578 0.888869 0.908021 0.926067 0.943007 0.958843 0.973574 0.987199 0.99972 1.01113 1.02162 1.03135 1.04032 1.04854 1.056 1.0627 1.06865 1.07384 1.07845 1.08266 1.08647 1.08988 1.09288 1.09548 1.09767 1.09947 1.10096 1.10226 1.10335 1.10425 1.10494 1.10544 1.10574 1.10584 1.10575 1.10545 1.10495 1.10426 1.10336 1.10227 1.10098 1.09949 1.0977 1.0955 1.09291 1.08991 1.0865 1.0827 1.07849 1.07388 1.06869 1.06275 1.05604 1.04859 1.04037 1.0314 1.02167 1.01119 0.999779 0.987261 0.973637 0.958908 0.943074 0.926134 0.90809 0.88894 0.868649 0.847182 0.824539 0.800719 0.775723 0.749551 0.722203 0.693678 0.664222 0.634081 0.603255 0.571743 0.539545 0.506663 0.473094 0.438841 0.404059 0.368908 0.333386 0.297495 0.261233 0.224601 0.187599 0.150228 0.115018 0.084503 0.0586826 0.0375569 0.0211257 0.00938922 0.0023473 0 0 0.00253204 0.0101282 0.0227884 0.0405127 0.0633011 0.0911536 0.12407 0.162051 0.202358 0.242256 0.281743 0.320821 0.359488 0.397745 0.435592 0.473028 0.509886 0.545994 0.581354 0.615964 0.649827 0.68294 0.715304 0.74692 0.777525 0.806857 0.834917 0.861704 0.887219 0.911461 0.934431 0.956128 0.976595 0.995873 1.01396 1.03086 1.04657 1.0611 1.07443 1.08658 1.09772 1.10806 1.11759 1.12631 1.13423 1.14133 1.14763 1.15312 1.15799 1.16243 1.16645 1.17004 1.1732 1.17593 1.17824 1.18012 1.18168 1.18304 1.18419 1.18512 1.18585 1.18638 1.18669 1.1868 1.18669 1.18638 1.18586 1.18513 1.1842 1.18305 1.1817 1.18014 1.17826 1.17596 1.17323 1.17007 1.16648 1.16247 1.15803 1.15316 1.14767 1.14138 1.13428 1.12637 1.11765 1.10812 1.09778 1.08664 1.07449 1.06116 1.04664 1.03093 1.01403 0.995945 0.976669 0.956203 0.934507 0.911538 0.887296 0.861782 0.834995 0.806935 0.777602 0.746997 0.715381 0.683016 0.649901 0.616038 0.581425 0.546064 0.509953 0.473094 0.435654 0.397804 0.359543 0.320872 0.28179 0.242297 0.202393 0.162079 0.124092 0.0911693 0.063312 0.0405197 0.0227923 0.0101299 0.00253248 0 0 0.00271381 0.0108552 0.0244243 0.043421 0.0678453 0.0976972 0.132977 0.173684 0.216879 0.259622 0.301914 0.343753 0.385141 0.426076 0.46656 0.506592 0.545992 0.584578 0.62235 0.659309 0.695455 0.730787 0.765306 0.799011 0.831625 0.862871 0.892749 0.921259 0.9484 0.974173 0.998577 1.02161 1.04333 1.06378 1.08295 1.10086 1.1175 1.13286 1.14696 1.15978 1.17154 1.18245 1.19249 1.20168 1.21001 1.21747 1.22409 1.22984 1.23494 1.23959 1.24379 1.24754 1.25084 1.25369 1.2561 1.25805 1.25967 1.26108 1.26226 1.26324 1.26399 1.26454 1.26486 1.26497 1.26486 1.26454 1.264 1.26325 1.26228 1.26109 1.25969 1.25807 1.25612 1.25372 1.25087 1.24757 1.24382 1.23963 1.23498 1.22988 1.22413 1.21752 1.21006 1.20173 1.19255 1.18251 1.17161 1.15985 1.14702 1.13293 1.11757 1.10093 1.08303 1.06385 1.04341 1.02169 0.998657 0.974253 0.948481 0.92134 0.892831 0.862953 0.831707 0.799092 0.765387 0.730867 0.695534 0.659387 0.622426 0.584651 0.546063 0.506662 0.466627 0.426139 0.385199 0.343807 0.301962 0.259665 0.216916 0.173713 0.132999 0.0977138 0.0678568 0.0434283 0.0244284 0.0108571 0.00271427 0 0 0.0028922 0.0115688 0.0260298 0.0462751 0.0723049 0.104119 0.141718 0.185101 0.231128 0.276661 0.3217 0.366243 0.410292 0.453847 0.496906 0.539471 0.581349 0.622348 0.662467 0.701708 0.740069 0.777551 0.814155 0.849879 0.884431 0.91752 0.949146 0.979309 1.00801 1.03524 1.06102 1.08532 1.10823 1.12978 1.14998 1.16884 1.18634 1.20249 1.2173 1.23075 1.24308 1.2545 1.26502 1.27463 1.28333 1.29113 1.29802 1.30401 1.30931 1.31414 1.3185 1.32239 1.32581 1.32876 1.33124 1.33325 1.33492 1.33636 1.33759 1.33859 1.33936 1.33992 1.34026 1.34037 1.34026 1.33993 1.33937 1.3386 1.3376 1.33638 1.33494 1.33328 1.33127 1.32879 1.32584 1.32242 1.31853 1.31418 1.30935 1.30405 1.29807 1.29118 1.28338 1.27468 1.26508 1.25456 1.24314 1.23082 1.21737 1.20256 1.18641 1.16891 1.15006 1.12986 1.10831 1.08541 1.0611 1.03533 1.00809 0.979395 0.949232 0.917607 0.884517 0.849964 0.814239 0.777635 0.740152 0.701789 0.662547 0.622425 0.581424 0.539544 0.496976 0.453913 0.410354 0.3663 0.321751 0.276706 0.231167 0.185131 0.141741 0.104136 0.072317 0.0462829 0.0260341 0.0115707 0.00289268 0 0 0.0030672 0.0122688 0.0276048 0.0490752 0.07668 0.110419 0.150293 0.196301 0.245107 0.293374 0.341102 0.388292 0.434943 0.481056 0.526629 0.571664 0.615957 0.659304 0.701705 0.743161 0.78367 0.823233 0.861851 0.899523 0.935943 0.970805 1.00411 1.03586 1.06604 1.09467 1.12175 1.14726 1.17128 1.19388 1.21505 1.23479 1.2531 1.26999 1.28545 1.29949 1.31233 1.32422 1.33517 1.34516 1.3542 1.36229 1.36943 1.37562 1.3811 1.38608 1.39057 1.39458 1.3981 1.40113 1.40368 1.40573 1.40743 1.40891 1.41015 1.41117 1.41197 1.41253 1.41287 1.41299 1.41288 1.41254 1.41197 1.41118 1.41017 1.40892 1.40745 1.40576 1.4037 1.40116 1.39813 1.39462 1.39061 1.38612 1.38114 1.37567 1.36948 1.36235 1.35426 1.34522 1.33523 1.32429 1.3124 1.29955 1.28552 1.27007 1.25318 1.23487 1.21513 1.19396 1.17137 1.14735 1.12183 1.09476 1.06613 1.03594 1.0042 0.970894 0.936032 0.899612 0.861939 0.823321 0.783756 0.743245 0.701788 0.659385 0.616036 0.57174 0.526702 0.481124 0.435007 0.388351 0.341155 0.293421 0.245146 0.196333 0.150317 0.110437 0.0766925 0.0490832 0.0276093 0.0122708 0.0030677 0 0 0.00323882 0.0129553 0.0291494 0.0518211 0.0809705 0.116597 0.158702 0.207284 0.258814 0.309759 0.360121 0.409899 0.459093 0.507703 0.55573 0.603173 0.649817 0.695447 0.740064 0.783667 0.826257 0.867833 0.908395 0.947943 0.986159 1.02272 1.05764 1.0909 1.12251 1.15246 1.18077 1.20742 1.2325 1.25608 1.27815 1.29872 1.31779 1.33536 1.35142 1.36598 1.3793 1.39162 1.40294 1.41328 1.42262 1.43097 1.43833 1.44469 1.4503 1.45541 1.46002 1.46412 1.46772 1.47081 1.4734 1.47549 1.47721 1.4787 1.47996 1.48099 1.4818 1.48237 1.48272 1.48283 1.48272 1.48238 1.48181 1.48101 1.47998 1.47872 1.47723 1.47551 1.47343 1.47084 1.46775 1.46416 1.46006 1.45545 1.45035 1.44474 1.43838 1.43102 1.42268 1.41334 1.40301 1.39168 1.37936 1.36605 1.35149 1.33543 1.31787 1.2988 1.27823 1.25616 1.23259 1.20751 1.18086 1.15256 1.1226 1.09099 1.05773 1.02282 0.986252 0.948036 0.908487 0.867923 0.826346 0.783755 0.74015 0.695531 0.649898 0.603251 0.555805 0.507774 0.459159 0.40996 0.360176 0.309808 0.258855 0.207318 0.158728 0.116616 0.0809835 0.0518294 0.029154 0.0129574 0.00323934 0 0 0.00340706 0.0136282 0.0306635 0.0545129 0.0851764 0.122654 0.166946 0.218052 0.272249 0.325817 0.378755 0.431063 0.482741 0.533789 0.584207 0.633995 0.682927 0.730777 0.777544 0.823228 0.86783 0.911349 0.953786 0.995141 1.03508 1.07328 1.10973 1.14444 1.1774 1.20861 1.23809 1.26581 1.29188 1.31637 1.33929 1.36063 1.3804 1.39859 1.4152 1.43024 1.44398 1.45668 1.46835 1.47898 1.48859 1.49716 1.50469 1.5112 1.51693 1.52214 1.52683 1.531 1.53466 1.5378 1.54042 1.54252 1.54425 1.54575 1.54701 1.54805 1.54886 1.54944 1.54978 1.5499 1.54979 1.54944 1.54887 1.54806 1.54703 1.54577 1.54427 1.54254 1.54044 1.53783 1.53469 1.53104 1.52687 1.52218 1.51697 1.51125 1.50475 1.49721 1.48865 1.47905 1.46841 1.45675 1.44405 1.43032 1.41528 1.39867 1.38048 1.36071 1.33938 1.31646 1.29197 1.26591 1.23818 1.20871 1.17749 1.14453 1.10982 1.07337 1.03518 0.995236 0.953881 0.911443 0.867922 0.823318 0.777632 0.730863 0.683011 0.634076 0.584285 0.533863 0.48281 0.431126 0.378812 0.325867 0.272292 0.218086 0.166972 0.122673 0.0851898 0.0545215 0.0306683 0.0136304 0.00340759 0 0 0.00357191 0.0142876 0.0321472 0.0571506 0.0892977 0.128589 0.175024 0.228602 0.285414 0.341549 0.397006 0.451786 0.505889 0.559314 0.612062 0.664133 0.715289 0.765292 0.814144 0.861843 0.908389 0.953783 0.998025 1.04111 1.08271 1.12247 1.16039 1.19647 1.23072 1.26312 1.2937 1.32243 1.34942 1.37477 1.39847 1.42052 1.44093 1.45969 1.4768 1.49227 1.50637 1.51941 1.53138 1.54228 1.5521 1.56086 1.56854 1.57515 1.58097 1.58625 1.59101 1.59523 1.59892 1.60209 1.60472 1.60683 1.60855 1.61005 1.61131 1.61235 1.61315 1.61373 1.61407 1.61419 1.61408 1.61373 1.61316 1.61236 1.61133 1.61007 1.60857 1.60685 1.60475 1.60212 1.59896 1.59527 1.59105 1.5863 1.58102 1.57521 1.56859 1.56091 1.55216 1.54234 1.53145 1.51948 1.50645 1.49234 1.47688 1.45977 1.44101 1.4206 1.39855 1.37486 1.34951 1.32252 1.29379 1.26322 1.23081 1.19657 1.16049 1.12257 1.08281 1.04121 0.998122 0.953879 0.908484 0.861936 0.814235 0.765381 0.715375 0.664216 0.612142 0.559389 0.505959 0.451851 0.397064 0.3416 0.285458 0.228637 0.175051 0.128609 0.0893115 0.0571594 0.0321521 0.0142898 0.00357246 0 0 0.00373338 0.0149335 0.0336004 0.0597341 0.0933345 0.134402 0.182936 0.238936 0.298308 0.356953 0.414873 0.472067 0.528535 0.584277 0.639294 0.693585 0.746902 0.798995 0.849865 0.899511 0.947935 0.995135 1.04111 1.08587 1.12904 1.17029 1.20961 1.247 1.28246 1.31599 1.3476 1.37727 1.40512 1.43126 1.45568 1.47839 1.49938 1.51865 1.53621 1.55205 1.56649 1.57981 1.59204 1.60315 1.61316 1.62207 1.62987 1.63656 1.64243 1.64776 1.65255 1.6568 1.66051 1.66369 1.66632 1.66841 1.67012 1.6716 1.67285 1.67388 1.67468 1.67525 1.67559 1.6757 1.67559 1.67525 1.67469 1.67389 1.67287 1.67162 1.67014 1.66843 1.66635 1.66372 1.66055 1.65684 1.65259 1.6478 1.64248 1.63661 1.62992 1.62212 1.61322 1.60322 1.5921 1.57988 1.56656 1.55213 1.53629 1.51873 1.49946 1.47847 1.45577 1.43135 1.40522 1.37737 1.34769 1.31609 1.28256 1.2471 1.20971 1.17039 1.12914 1.08597 1.04121 0.995233 0.948032 0.899606 0.849958 0.799085 0.74699 0.69367 0.639376 0.584354 0.528607 0.472133 0.414933 0.357006 0.298352 0.238972 0.182963 0.134422 0.0933486 0.0597431 0.0336055 0.0149358 0.00373394 0 0 0.00389008 0.0155603 0.0350107 0.0622413 0.097252 0.140043 0.190614 0.248965 0.310819 0.371898 0.432203 0.491733 0.550488 0.608469 0.665675 0.722107 0.777504 0.831606 0.884414 0.935928 0.986147 1.03507 1.0827 1.12904 1.17372 1.21638 1.25702 1.29564 1.33224 1.36683 1.39939 1.42994 1.45858 1.48544 1.51052 1.53382 1.55534 1.57507 1.59303 1.6092 1.62391 1.63749 1.64992 1.66122 1.67138 1.6804 1.68828 1.69502 1.70093 1.70628 1.71108 1.71534 1.71905 1.72222 1.72483 1.7269 1.72858 1.73004 1.73127 1.73228 1.73307 1.73363 1.73397 1.73408 1.73397 1.73363 1.73308 1.73229 1.73129 1.73006 1.7286 1.72692 1.72486 1.72225 1.71909 1.71538 1.71113 1.70632 1.70097 1.69508 1.68834 1.68046 1.67144 1.66128 1.64999 1.63756 1.62399 1.60928 1.59311 1.57516 1.55542 1.53391 1.51061 1.48553 1.45867 1.43003 1.39949 1.36693 1.33234 1.29574 1.25712 1.21648 1.17382 1.12914 1.0828 1.03517 0.986246 0.936025 0.884509 0.831699 0.777593 0.722193 0.665758 0.608548 0.550562 0.491801 0.432264 0.371952 0.310865 0.249002 0.190642 0.140063 0.0972663 0.0622504 0.0350159 0.0155626 0.00389065 0 0 0.00404061 0.0161625 0.0363655 0.0646498 0.101015 0.145462 0.19799 0.258599 0.322837 0.386252 0.448844 0.510612 0.571557 0.631679 0.690977 0.749452 0.806833 0.862849 0.9175 0.970787 1.02271 1.07327 1.12246 1.17028 1.21638 1.26036 1.30224 1.34201 1.37967 1.41523 1.44868 1.48002 1.50939 1.53691 1.56259 1.58642 1.60841 1.62855 1.64685 1.6633 1.67825 1.69203 1.70464 1.71608 1.72635 1.73546 1.7434 1.75017 1.75607 1.76143 1.76623 1.77048 1.77417 1.77731 1.7799 1.78193 1.78357 1.785 1.78621 1.78719 1.78796 1.78851 1.78884 1.78895 1.78885 1.78852 1.78797 1.78721 1.78622 1.78502 1.7836 1.78195 1.77992 1.77734 1.77421 1.77052 1.76627 1.76147 1.75612 1.75022 1.74345 1.73552 1.72641 1.71614 1.70471 1.6921 1.67832 1.66338 1.646