<?xml version="1.0"?> 
<VTKFile type="StructuredGrid" version="0.1"> 
<StructuredGrid WholeExtent="0 128 0 128 0 0"> 
<Piece Extent="0 128 0 128 0 0"> 
<PointData>
<DataArray type="Float32" Name="u" format="ascii" NumberOfComponents="1"> 
0 0 0 0 0 0 0 0 0 0 0 0 0 0 0 0 0 0 0 0 0 0 0 0 0 0 0 0 0 0 0 0 0 0 0 0 0 0 0 0 0 0 0 0 0 0 0 0 0 0 0 0 0 0 0 0 0 0 0 0 0 0 0 0 0 0 0 0 0 0 0 0 0 0 0 0 0 0 0 0 0 0 0 0 0 0 0 0 0 0 0 0 0 0 0 0 0 0 0 0 0 0 0 0 0 0 0 0 0 0 0 0 0 0 0 0 0 0 0 0 0 0 0 0 0 0 0 0 0 0 1.22462e-05 4.89847e-05 0.000110216 0.000195939 0.000306155 0.000440862 0.000600063 0.000783756 0.00097894 0.00117261 0.00136478 0.00155543 0.00174458 0.00193221 0.00211834 0.00230296 0.00248521 0.00266426 0.0028401 0.00301273 0.00318216 0.00334837 0.00351138 0.00367118 0.00382639 0.00397563 0.0041189 0.0042562 0.00438753 0.00451289 0.00463228 0.0047457 0.0048532 0.00495484 0.00505062 0.00514054 0.00522459 0.00530278 0.0053751 0.00544156 0.005503 0.00556023 0.00561327 0.0056621 0.00570674 0.00574719 0.00578343 0.00581548 0.00584423 0.0058706 0.00589458 0.00591618 0.0059354 0.00595223 0.00596668 0.00597874 0.00598895 0.00599787 0.00600548 0.00601179 0.00601679 0.00602049 0.00602289 0.00602399 0.00602378 0.00602226 0.00601944 0.00601532 0.00600989 0.00600315 0.00599511 0.00598577 0.00597457 0.00596098 0.005945 0.00592662 0.00590585 0.00588268 0.00585712 0.00582916 0.0057979 0.00576241 0.00572269 0.00567875 0.00563058 0.00557818 0.00552156 0.00546071 0.0053948 0.00532296 0.00524521 0.00516154 0.00507195 0.00497645 0.00487502 0.00476769 0.00465436 0.004535 0.00440959 0.00427814 0.00414064 0.00399709 0.0038475 0.00369187 0.00353157 0.00336801 0.00320117 0.00303105 0.00285767 0.002681 0.00250107 0.00231786 0.00213224 0.00194505 0.00175631 0.00156601 0.00137416 0.00118074 0.00098577 0.000789239 0.000604261 0.000443947 0.000308297 0.00019731 0.000110987 4.93275e-05 1.23319e-05 0 0 4.89847e-05 0.000195939 0.000440862 0.000783756 0.00122462 0.00176345 0.00240025 0.00313502 0.00391576 0.00469046 0.00545911 0.00622173 0.00697831 0.00772886 0.00847336 0.00921182 0.00994085 0.010657 0.0113604 0.0120509 0.0127286 0.0133935 0.0140455 0.0146847 0.0153056 0.0159025 0.0164756 0.0170248 0.0175501 0.0180516 0.0185291 0.0189828 0.0194128 0.0198194 0.0202025 0.0205621 0.0208983 0.0212111 0.0215004 0.0217663 0.022012 0.0222409 0.0224531 0.0226484 0.022827 0.0229887 0.0231337 0.0232619 0.0233769 0.0234824 0.0235783 0.0236647 0.0237416 0.0238089 0.0238667 0.023915 0.0239558 0.0239915 0.0240219 0.0240471 0.0240672 0.024082 0.0240916 0.0240959 0.0240951 0.024089 0.0240778 0.0240613 0.0240395 0.0240126 0.0239804 0.0239431 0.0238983 0.0238439 0.02378 0.0237065 0.0236234 0.0235307 0.0234285 0.0233167 0.0231916 0.0230496 0.0228908 0.022715 0.0225223 0.0223127 0.0220862 0.0218429 0.0215792 0.0212918 0.0209808 0.0206462 0.0202878 0.0199058 0.0195001 0.0190707 0.0186175 0.01814 0.0176384 0.0171125 0.0165625 0.0159884 0.01539 0.0147675 0.0141263 0.013472 0.0128047 0.0121242 0.0114307 0.010724 0.0100043 0.00927144 0.00852894 0.00778021 0.00702525 0.00626406 0.00549663 0.00472297 0.00394308 0.00315696 0.00241705 0.00177579 0.00123319 0.000789239 0.000443947 0.00019731 4.93275e-05 0 0 0.000110216 0.000440862 0.000991941 0.00176345 0.00275539 0.00396776 0.00540057 0.0070538 0.00881046 0.0105535 0.012283 0.0139989 0.0157012 0.0173899 0.0190651 0.0207266 0.0223669 0.0239784 0.0255609 0.0271146 0.0286394 0.0301354 0.0316024 0.0330406 0.0344375 0.0357807 0.0370701 0.0383058 0.0394878 0.040616 0.0416905 0.0427113 0.0436788 0.0445936 0.0454556 0.0462648 0.0470213 0.047725 0.0483759 0.0489741 0.049527 0.0500421 0.0505194 0.0509589 0.0513607 0.0517247 0.0520509 0.0523393 0.0525981 0.0528354 0.0530513 0.0532457 0.0534186 0.0535701 0.0537001 0.0538086 0.0539006 0.0539808 0.0540493 0.0541061 0.0541511 0.0541844 0.054206 0.0542159 0.054214 0.0542003 0.054175 0.0541379 0.054089 0.0540284 0.053956 0.0538719 0.0537712 0.0536488 0.053505 0.0533396 0.0531526 0.0529441 0.0527141 0.0524625 0.0521811 0.0518617 0.0515042 0.0511087 0.0506752 0.0502036 0.049694 0.0491464 0.0485532 0.0479066 0.0472069 0.0464538 0.0456476 0.044788 0.0438752 0.0429092 0.0418893 0.040815 0.0396863 0.0385032 0.0372657 0.0359738 0.0346275 0.0332268 0.0317842 0.0303121 0.0288105 0.0272795 0.025719 0.024129 0.0225096 0.0208607 0.0191901 0.0175055 0.0158068 0.0140941 0.0123674 0.0106267 0.00887193 0.00710315 0.00543835 0.00399552 0.00277467 0.00177579 0.000998881 0.000443947 0.000110987 0 0 0.000195939 0.000783756 0.00176345 0.00313502 0.00489847 0.0070538 0.00960101 0.0125401 0.015663 0.0187618 0.0218365 0.0248869 0.0279133 0.0309154 0.0338934 0.0368473 0.0397634 0.0426282 0.0454416 0.0482038 0.0509145 0.053574 0.0561821 0.0587389 0.0612223 0.0636101 0.0659024 0.0680992 0.0702005 0.0722063 0.0741165 0.0759312 0.0776513 0.0792775 0.0808099 0.0822486 0.0835934 0.0848444 0.0860016 0.087065 0.0880479 0.0889637 0.0898123 0.0905937 0.0913079 0.091955 0.0925349 0.0930476 0.0935077 0.0939296 0.0943134 0.094659 0.0949664 0.0952357 0.0954668 0.0956598 0.0958233 0.0959659 0.0960877 0.0961886 0.0962687 0.0963279 0.0963662 0.0963838 0.0963804 0.0963562 0.0963111 0.0962451 0.0961582 0.0960504 0.0959218 0.0957723 0.0955932 0.0953757 0.09512 0.0948259 0.0944936 0.0941229 0.0937139 0.0932666 0.0927664 0.0921985 0.091563 0.0908599 0.0900892 0.0892509 0.088345 0.0873714 0.0863167 0.0851674 0.0839233 0.0825846 0.0811512 0.0796231 0.0780004 0.076283 0.0744698 0.07256 0.0705534 0.0684502 0.0662502 0.0639535 0.06156 0.0590699 0.0565052 0.0538881 0.0512187 0.0484969 0.0457226 0.0428961 0.0400171 0.0370858 0.0341158 0.0311209 0.028101 0.0250562 0.0219865 0.0188919 0.0157723 0.0126278 0.00966818 0.00710315 0.00493275 0.00315696 0.00177579 0.000789239 0.00019731 0 0 0.000306155 0.00122462 0.00275539 0.00489847 0.00765386 0.0110216 0.0150016 0.0195939 0.0244735 0.0293153 0.0341195 0.0388858 0.0436145 0.0483053 0.0529585 0.0575739 0.0621303 0.0666065 0.0710026 0.0753184 0.079554 0.0837094 0.0877845 0.0917795 0.0956598 0.0993908 0.102973 0.106405 0.109688 0.112822 0.115807 0.118643 0.12133 0.123871 0.126266 0.128513 0.130615 0.132569 0.134378 0.136039 0.137575 0.139006 0.140332 0.141553 0.142669 0.14368 0.144586 0.145387 0.146106 0.146765 0.147365 0.147905 0.148385 0.148806 0.149167 0.149468 0.149724 0.149947 0.150137 0.150295 0.15042 0.150512 0.150572 0.1506 0.150594 0.150557 0.150486 0.150383 0.150247 0.150079 0.149878 0.149644 0.149364 0.149025 0.148625 0.148166 0.147646 0.147067 0.146428 0.145729 0.144947 0.14406 0.143067 0.141969 0.140764 0.139455 0.138039 0.136518 0.13487 0.133074 0.13113 0.129038 0.126799 0.124411 0.121876 0.119192 0.116359 0.113375 0.11024 0.106953 0.103516 0.0999273 0.0961876 0.0922967 0.0882894 0.0842002 0.0800292 0.0757763 0.0714416 0.0670251 0.0625267 0.0579465 0.0533059 0.0486263 0.0439078 0.0391504 0.0343539 0.0295186 0.0246443 0.019731 0.0151065 0.0110987 0.00770741 0.00493275 0.00277467 0.00123319 0.000308297 0 0 0.000440862 0.00176345 0.00396776 0.0070538 0.0110216 0.015871 0.0216023 0.0282152 0.0352418 0.0422141 0.049132 0.0559956 0.0628048 0.0695597 0.0762602 0.0829064 0.0894677 0.0959134 0.102244 0.108458 0.114558 0.120541 0.12641 0.132163 0.13775 0.143123 0.14828 0.153223 0.157951 0.162464 0.166762 0.170845 0.174715 0.178374 0.181822 0.185059 0.188085 0.1909 0.193504 0.195896 0.198108 0.200168 0.202078 0.203836 0.205443 0.206899 0.208203 0.209357 0.210392 0.211342 0.212205 0.212983 0.213674 0.21428 0.2148 0.215235 0.215602 0.215923 0.216197 0.216424 0.216604 0.216738 0.216824 0.216863 0.216856 0.216801 0.2167 0.216551 0.216356 0.216113 0.215824 0.215488 0.215085 0.214595 0.21402 0.213358 0.212611 0.211777 0.210856 0.20985 0.208724 0.207447 0.206017 0.204435 0.202701 0.200815 0.198776 0.196586 0.194213 0.191627 0.188827 0.185815 0.18259 0.179152 0.175501 0.171637 0.167557 0.16326 0.158745 0.154013 0.149063 0.143895 0.13851 0.132907 0.127137 0.121248 0.115242 0.109118 0.102876 0.0965161 0.0900385 0.083443 0.0767605 0.0700219 0.0632273 0.0563765 0.0494697 0.0425067 0.0354877 0.0284126 0.0217534 0.0159821 0.0110987 0.00710315 0.00399552 0.00177579 0.000443947 0 0 0.000600063 0.00240025 0.00540057 0.00960101 0.0150016 0.0216023 0.0294031 0.038404 0.047968 0.0574581 0.0668741 0.0762162 0.0854843 0.0946785 0.103799 0.112845 0.121775 0.130549 0.139165 0.147624 0.155926 0.16407 0.172058 0.179888 0.187493 0.194806 0.201826 0.208554 0.214989 0.221132 0.226982 0.232539 0.237807 0.242787 0.24748 0.251886 0.256005 0.259836 0.26338 0.266637 0.269647 0.272451 0.27505 0.277443 0.27963 0.281612 0.283388 0.284958 0.286367 0.287659 0.288835 0.289893 0.290835 0.291659 0.292367 0.292958 0.293459 0.293896 0.294269 0.294578 0.294823 0.295004 0.295122 0.295175 0.295165 0.295091 0.294953 0.294751 0.294484 0.294154 0.29376 0.293303 0.292754 0.292088 0.291305 0.290404 0.289387 0.288251 0.286999 0.285629 0.284097 0.282358 0.280412 0.278259 0.275898 0.273331 0.270556 0.267575 0.264345 0.260825 0.257015 0.252915 0.248526 0.243846 0.238876 0.233617 0.228064 0.222215 0.21607 0.209629 0.202891 0.195857 0.188528 0.180902 0.173047 0.165032 0.156857 0.148522 0.140026 0.131369 0.122552 0.113575 0.10448 0.0953076 0.0860593 0.0767347 0.0673337 0.0578564 0.0483027 0.0386727 0.0296088 0.0217534 0.0151065 0.00966818 0.00543835 0.00241705 0.000604261 0 0 0.000783756 0.00313502 0.0070538 0.0125401 0.0195939 0.0282152 0.038404 0.0501604 0.0626521 0.0750473 0.0873458 0.0995477 0.111653 0.123662 0.135574 0.147389 0.159054 0.170513 0.181767 0.192815 0.203658 0.214296 0.224728 0.234956 0.244889 0.25444 0.26361 0.272397 0.280802 0.288825 0.296466 0.303725 0.310605 0.31711 0.32324 0.328994 0.334374 0.339378 0.344006 0.34826 0.352192 0.355855 0.359249 0.362375 0.365232 0.36782 0.37014 0.37219 0.374031 0.375718 0.377253 0.378636 0.379866 0.380943 0.381867 0.382639 0.383293 0.383864 0.384351 0.384754 0.385075 0.385312 0.385465 0.385535 0.385522 0.385425 0.385244 0.38498 0.384633 0.384202 0.383687 0.383089 0.382373 0.381503 0.38048 0.379304 0.377974 0.376492 0.374856 0.373067 0.371066 0.368794 0.366252 0.36344 0.360357 0.357004 0.35338 0.349486 0.345267 0.340669 0.335693 0.330338 0.324605 0.318493 0.312002 0.305132 0.297879 0.29024 0.282214 0.273801 0.265001 0.255814 0.24624 0.23628 0.226021 0.215553 0.204875 0.193987 0.182891 0.171584 0.160068 0.148343 0.136463 0.124483 0.112404 0.100225 0.0879461 0.0755675 0.0630893 0.0505113 0.0386727 0.0284126 0.019731 0.0126278 0.00710315 0.00315696 0.000789239 0 0 0.000978938 0.00391575 0.00881044 0.015663 0.0244734 0.0352418 0.0479679 0.062652 0.0782542 0.0937347 0.109094 0.124331 0.139446 0.15444 0.169313 0.184063 0.198624 0.212928 0.226975 0.240765 0.254297 0.267572 0.28059 0.29335 0.305743 0.317659 0.329097 0.340057 0.35054 0.360546 0.370073 0.379124 0.387701 0.39581 0.403451 0.410623 0.417327 0.423562 0.429329 0.434628 0.439525 0.444087 0.448314 0.452206 0.455763 0.458985 0.461872 0.464424 0.466714 0.468813 0.470723 0.472442 0.473972 0.475311 0.47646 0.47742 0.478232 0.478941 0.479547 0.480048 0.480446 0.480741 0.480931 0.481018 0.481002 0.480881 0.480657 0.480329 0.479897 0.479362 0.478723 0.477979 0.477089 0.476008 0.474736 0.473273 0.47162 0.469775 0.46774 0.465514 0.463024 0.460197 0.457033 0.453531 0.449693 0.445517 0.441004 0.436153 0.430898 0.42517 0.41897 0.412296 0.40515 0.397531 0.38944 0.380876 0.371833 0.362308 0.352298 0.341805 0.330829 0.319369 0.307426 0.294999 0.282199 0.269137 0.255812 0.242225 0.228376 0.214263 0.199889 0.185252 0.170421 0.155464 0.140382 0.125175 0.109842 0.0943831 0.078799 0.0630894 0.0483028 0.0354878 0.0246443 0.0157724 0.00887195 0.00394309 0.000985772 0 0 0.00117261 0.00469042 0.0105535 0.0187617 0.0293152 0.0422138 0.0574577 0.0750468 0.0937343 0.112273 0.130664 0.148906 0.167 0.184945 0.202742 0.220391 0.23781 0.254919 0.271717 0.288206 0.304384 0.320251 0.335808 0.351055 0.365861 0.380093 0.393753 0.40684 0.419354 0.431295 0.442663 0.453458 0.463687 0.473356 0.482464 0.491012 0.499 0.506427 0.513295 0.519602 0.525429 0.530856 0.535884 0.540513 0.544741 0.54857 0.552 0.55503 0.557747 0.560238 0.562504 0.564543 0.566357 0.567944 0.569306 0.570442 0.571404 0.572243 0.572959 0.573553 0.574024 0.574372 0.574598 0.574701 0.574682 0.574539 0.574274 0.573886 0.573375 0.572742 0.571985 0.571106 0.570052 0.568771 0.567263 0.565529 0.563568 0.56138 0.558965 0.556324 0.553367 0.550009 0.546249 0.542086 0.537521 0.532554 0.527185 0.521414 0.515158 0.508338 0.500952 0.493 0.484484 0.475402 0.465754 0.455541 0.444756 0.43339 0.421445 0.408919 0.395814 0.382129 0.367863 0.353018 0.337725 0.322115 0.306188 0.289945 0.273385 0.256509 0.239316 0.221807 0.204063 0.186165 0.168115 0.149912 0.131555 0.113046 0.0943836 0.0755681 0.0578568 0.0425071 0.0295188 0.018892 0.0106268 0.00472301 0.00118075 0 0 0.00136476 0.00545904 0.0122829 0.0218362 0.034119 0.0491314 0.0668733 0.0873447 0.109092 0.130663 0.152057 0.173274 0.194314 0.215177 0.235863 0.256372 0.276611 0.296484 0.315994 0.335138 0.353919 0.372334 0.390385 0.408072 0.425242 0.441744 0.457578 0.472744 0.487243 0.501073 0.514235 0.526728 0.538563 0.549747 0.560279 0.570161 0.579393 0.587973 0.595903 0.603181 0.609903 0.616163 0.62196 0.627294 0.632166 0.636576 0.640523 0.644008 0.647131 0.649994 0.652597 0.654939 0.657021 0.658843 0.660405 0.661706 0.662807 0.663768 0.664588 0.665268 0.665808 0.666207 0.666465 0.666583 0.666561 0.666398 0.666095 0.665651 0.665066 0.664341 0.663475 0.662469 0.661261 0.659793 0.658063 0.656072 0.653819 0.651306 0.648531 0.645495 0.642095 0.63823 0.6339 0.629104 0.623843 0.618116 0.611924 0.605266 0.598047 0.590172 0.58164 0.572451 0.562605 0.552103 0.540944 0.529128 0.516646 0.503488 0.489653 0.475142 0.459955 0.444092 0.427552 0.410337 0.392597 0.374485 0.356002 0.337147 0.31792 0.298321 0.27835 0.258008 0.237388 0.216587 0.195603 0.174436 0.153087 0.131556 0.109843 0.0879474 0.0673347 0.0494704 0.0343544 0.0219868 0.0123676 0.00549671 0.00137418 0 0 0.0015554 0.00622161 0.0139986 0.0248864 0.0388851 0.0559945 0.0762147 0.0995458 0.124329 0.148904 0.173273 0.197434 0.221388 0.245135 0.268675 0.292007 0.315026 0.337625 0.359804 0.381563 0.402902 0.423821 0.44432 0.464399 0.483887 0.502611 0.520573 0.537771 0.554207 0.569879 0.584788 0.598934 0.612329 0.624983 0.636897 0.648071 0.658505 0.668199 0.677153 0.685367 0.692948 0.700006 0.706541 0.712552 0.718039 0.723002 0.727442 0.731358 0.734865 0.73808 0.741001 0.74363 0.745965 0.748007 0.749756 0.751212 0.752443 0.753517 0.754434 0.755194 0.755797 0.756243 0.756533 0.756665 0.75664 0.756458 0.756119 0.755623 0.75497 0.75416 0.753192 0.752068 0.750717 0.749073 0.747134 0.744901 0.742374 0.739553 0.736437 0.733028 0.729208 0.72486 0.719986 0.714585 0.708657 0.702202 0.69522 0.687711 0.679566 0.670673 0.661034 0.650648 0.639515 0.627636 0.61501 0.601638 0.587505 0.572601 0.556924 0.540475 0.523253 0.505259 0.486493 0.466954 0.446816 0.426249 0.405253 0.38383 0.361978 0.339699 0.316991 0.293855 0.270398 0.246728 0.222845 0.198748 0.174438 0.149914 0.125177 0.100227 0.0767364 0.0563778 0.0391512 0.0250568 0.0140944 0.0062642 0.00156605 0 0 0.00174453 0.00697812 0.0157008 0.0279125 0.0436133 0.0628031 0.085482 0.11165 0.139443 0.166997 0.194311 0.221386 0.248222 0.274819 0.301177 0.327295 0.353056 0.37834 0.403148 0.427479 0.451333 0.474711 0.497613 0.520038 0.541795 0.562695 0.582737 0.60192 0.620246 0.637714 0.654324 0.670075 0.684984 0.699065 0.712317 0.724741 0.736338 0.747106 0.757046 0.766158 0.774564 0.782387 0.789627 0.796284 0.802358 0.807848 0.812755 0.81708 0.82095 0.824496 0.827718 0.830615 0.833188 0.835436 0.83736 0.838959 0.84031 0.841489 0.842496 0.84333 0.843993 0.844483 0.8448 0.844946 0.844919 0.84472 0.844348 0.843804 0.843087 0.842198 0.841137 0.839903 0.83842 0.836611 0.834477 0.832017 0.829232 0.826121 0.822685 0.818923 0.814705 0.8099 0.804508 0.79853 0.791965 0.784813 0.777074 0.768749 0.759713 0.749841 0.739134 0.727592 0.715214 0.702001 0.687952 0.673068 0.657333 0.640729 0.623256 0.604916 0.585707 0.56563 0.544685 0.522872 0.500381 0.477405 0.453943 0.429995 0.405562 0.380643 0.355238 0.329348 0.303092 0.276589 0.249841 0.222846 0.195606 0.168119 0.140386 0.112408 0.0860621 0.0632293 0.0439092 0.0281019 0.0158073 0.00702547 0.00175637 0 0 0.00193215 0.00772858 0.0173893 0.0309143 0.0483036 0.0695572 0.0946751 0.123657 0.154435 0.18494 0.215172 0.245131 0.274817 0.30423 0.33337 0.362237 0.390701 0.41863 0.446025 0.472886 0.499213 0.525005 0.550263 0.574987 0.598967 0.621995 0.64407 0.665192 0.685361 0.704577 0.722841 0.740152 0.756529 0.771991 0.786539 0.800172 0.81289 0.824693 0.835581 0.845555 0.85475 0.863305 0.871219 0.878492 0.885124 0.891115 0.896465 0.901174 0.905385 0.909243 0.912746 0.915895 0.91869 0.92113 0.923216 0.924948 0.92641 0.927686 0.928775 0.929678 0.930394 0.930924 0.931268 0.931426 0.931397 0.931182 0.93078 0.930192 0.929417 0.928456 0.927308 0.925974 0.924369 0.922408 0.920092 0.91742 0.914393 0.911011 0.907273 0.903179 0.898586 0.893348 0.887465 0.880937 0.873765 0.865948 0.857486 0.848379 0.838489 0.827676 0.81594 0.803281 0.7897 0.775196 0.75977 0.743421 0.726128 0.707872 0.688651 0.668466 0.647318 0.625205 0.602129 0.578088 0.553293 0.527954 0.502071 0.475643 0.44867 0.421154 0.393093 0.364487 0.33547 0.306171 0.276592 0.246733 0.216592 0.186172 0.15547 0.124489 0.0953115 0.0700248 0.0486283 0.0311221 0.0175062 0.00778053 0.00194513 0 0 0.00211825 0.00847298 0.0190642 0.0338919 0.0529561 0.0762569 0.103794 0.135568 0.169305 0.202735 0.235856 0.268668 0.301172 0.333367 0.365254 0.396833 0.427961 0.458495 0.488437 0.517785 0.54654 0.574703 0.602272 0.629247 0.655403 0.680511 0.704572 0.727585 0.749551 0.77047 0.790341 0.809164 0.826964 0.843764 0.859563 0.874363 0.888162 0.90096 0.912759 0.923557 0.933507 0.94276 0.951316 0.959175 0.966336 0.972801 0.978569 0.98364 0.988171 0.99232 0.996086 0.99947 1.00247 1.00509 1.00733 1.00918 1.01074 1.01211 1.01327 1.01424 1.015 1.01557 1.01594 1.01611 1.01608 1.01585 1.01542 1.01479 1.01396 1.01293 1.01171 1.01028 1.00856 1.00646 1.00398 1.00111 0.997857 0.994221 0.990202 0.985798 0.980852 0.975205 0.968857 0.961808 0.954058 0.945607 0.936455 0.926602 0.915894 0.904177 0.891452 0.877718 0.862975 0.847224 0.830464 0.812695 0.793892 0.77403 0.753108 0.731126 0.708085 0.683984 0.658824 0.632604 0.605552 0.577896 0.549636 0.520772 0.491303 0.461231 0.430554 0.399273 0.367531 0.335473 0.303098 0.270406 0.237397 0.204072 0.170429 0.13647 0.104485 0.0767644 0.0533086 0.0341175 0.0191911 0.00852938 0.00213234 0 0 0.00230283 0.00921133 0.0207255 0.0368453 0.0575708 0.082902 0.112839 0.147381 0.184054 0.220381 0.256362 0.291997 0.327287 0.362231 0.396829 0.431082 0.464835 0.497935 0.530382 0.562176 0.593316 0.623804 0.653638 0.682819 0.711102 0.738244 0.764243 0.789101 0.812817 0.83539 0.856822 0.877112 0.896289 0.914382 0.93139 0.947314 0.962153 0.975908 0.988579 1.00017 1.01083 1.02075 1.02992 1.03833 1.046 1.05291 1.05907 1.06448 1.06931 1.07373 1.07774 1.08134 1.08453 1.08731 1.08969 1.09165 1.09331 1.09475 1.09598 1.097 1.09782 1.09842 1.09881 1.09898 1.09895 1.09871 1.09826 1.09759 1.09672 1.09563 1.09433 1.09282 1.09101 1.08878 1.08614 1.08309 1.07962 1.07575 1.07147 1.06678 1.0615 1.05547 1.04868 1.04114 1.03284 1.02379 1.01398 1.00342 0.991928 0.979345 0.965669 0.9509 0.935038 0.918082 0.900033 0.880891 0.860624 0.839203 0.816626 0.792895 0.768009 0.741967 0.714771 0.686419 0.657158 0.627232 0.59664 0.565383 0.533461 0.500874 0.467622 0.433704 0.399277 0.364495 0.329358 0.293866 0.25802 0.221819 0.185263 0.148352 0.113582 0.0834481 0.0579501 0.037088 0.020862 0.00927201 0.002318 0 0 0.00248506 0.00994023 0.0223655 0.0397609 0.0621265 0.0894621 0.121768 0.159044 0.198612 0.237797 0.276597 0.315012 0.353044 0.39069 0.427953 0.464831 0.50116 0.536774 0.571674 0.60586 0.639331 0.672088 0.70413 0.735458 0.765811 0.794928 0.822808 0.849453 0.874861 0.899034 0.92197 0.94367 0.964169 0.983501 1.00167 1.01866 1.0345 1.04916 1.06266 1.07499 1.08633 1.09688 1.10662 1.11555 1.12368 1.13101 1.13753 1.14325 1.14836 1.15302 1.15726 1.16105 1.16442 1.16735 1.16985 1.17191 1.17364 1.17516 1.17645 1.17752 1.17837 1.179 1.17941 1.1796 1.17956 1.17931 1.17884 1.17814 1.17722 1.17609 1.17473 1.17315 1.17124 1.16889 1.16611 1.1629 1.15925 1.15516 1.15064 1.14569 1.14011 1.13372 1.12653 1.11852 1.10971 1.10009 1.08967 1.07843 1.0662 1.0528 1.03822 1.02247 1.00553 0.987426 0.968142 0.947681 0.926007 0.903083 0.878909 0.853485 0.826811 0.798887 0.769713 0.739289 0.707877 0.675737 0.64287 0.609276 0.574954 0.539906 0.50413 0.467627 0.430563 0.393105 0.355253 0.317007 0.278366 0.239332 0.199903 0.16008 0.122561 0.090045 0.0625313 0.04002 0.0225113 0.010005 0.00250125 0 0 0.00266407 0.0106563 0.0239766 0.0426251 0.0666018 0.0959066 0.130539 0.170501 0.212914 0.254902 0.296467 0.337607 0.378323 0.418615 0.458483 0.497926 0.536769 0.574835 0.612125 0.648638 0.684374 0.719333 0.753516 0.786922 0.819275 0.850298 0.879991 0.908355 0.935389 0.961093 0.985467 1.00851 1.03027 1.05078 1.07004 1.08805 1.10482 1.12034 1.13461 1.14764 1.15961 1.17073 1.181 1.19041 1.19897 1.20668 1.21353 1.21953 1.22488 1.22977 1.2342 1.23817 1.24168 1.24474 1.24735 1.24949 1.25129 1.25286 1.25421 1.25532 1.2562 1.25686 1.25728 1.25748 1.25745 1.25718 1.25669 1.25597 1.25502 1.25384 1.25243 1.25079 1.2488 1.24636 1.24346 1.2401 1.23628 1.23201 1.22728 1.22208 1.21623 1.20952 1.20196 1.19353 1.18425 1.17411 1.16311 1.15125 1.13834 1.12417 1.10874 1.09205 1.07411 1.05491 1.03445 1.01274 0.989723 0.965363 0.939658 0.912609 0.884216 0.854478 0.823396 0.790969 0.757475 0.723191 0.688116 0.65225 0.615595 0.578149 0.539912 0.500886 0.461246 0.421172 0.380663 0.33972 0.298342 0.256529 0.214281 0.171599 0.13138 0.0965243 0.0670308 0.0428997 0.0241311 0.0107249 0.00268123 0 0 0.00283987 0.0113595 0.0255589 0.045438 0.0709968 0.102235 0.139154 0.181752 0.226957 0.271697 0.315972 0.359782 0.403126 0.446005 0.488419 0.530368 0.571664 0.612119 0.651735 0.69051 0.728446 0.765541 0.801796 0.837211 0.871494 0.904355 0.935793 0.965807 0.994399 1.02157 1.04731 1.07164 1.09459 1.11621 1.13651 1.15548 1.17312 1.18944 1.20444 1.21811 1.23066 1.24231 1.25307 1.26292 1.27187 1.27992 1.28707 1.29332 1.29887 1.30395 1.30856 1.31268 1.31633 1.3195 1.32219 1.3244 1.32625 1.32787 1.32926 1.3304 1.33131 1.33199 1.33243 1.33263 1.3326 1.33233 1.33182 1.33108 1.3301 1.32889 1.32743 1.32575 1.3237 1.32118 1.31817 1.31469 1.31073 1.30629 1.30137 1.29597 1.28988 1.28288 1.27498 1.26617 1.25646 1.24584 1.23431 1.22188 1.20833 1.19345 1.17722 1.15966 1.14077 1.12053 1.09897 1.07606 1.05177 1.02604 0.998873 0.970267 0.940222 0.908739 0.875818 0.841459 0.805953 0.769592 0.732377 0.694307 0.655382 0.615603 0.574969 0.533481 0.491326 0.448696 0.405589 0.362006 0.317946 0.27341 0.228397 0.182909 0.140039 0.102886 0.0714486 0.0457271 0.0257215 0.0114318 0.00285795 0 0 0.00301246 0.0120499 0.0271122 0.0481994 0.0753116 0.108449 0.147611 0.192798 0.240743 0.288182 0.335112 0.381536 0.427452 0.47286 0.517762 0.562155 0.605843 0.648626 0.690504 0.731478 0.771546 0.81071 0.84897 0.886324 0.922469 0.957098 0.990212 1.02181 1.05189 1.08046 1.10751 1.13305 1.15713 1.1798 1.20107 1.22094 1.23941 1.25648 1.27214 1.2864 1.29949 1.31163 1.32282 1.33307 1.34237 1.35073 1.35814 1.3646 1.37034 1.37559 1.38034 1.38459 1.38835 1.3916 1.39437 1.39663 1.39853 1.40018 1.4016 1.40277 1.4037 1.40439 1.40484 1.40505 1.40502 1.40474 1.40423 1.40347 1.40247 1.40123 1.39975 1.39803 1.39593 1.39335 1.39026 1.38667 1.38259 1.37801 1.37293 1.36735 1.36105 1.3538 1.3456 1.33644 1.32634 1.31528 1.30328 1.29032 1.27618 1.26063 1.24367 1.22529 1.2055 1.1843 1.16168 1.13765 1.11215 1.08512 1.05655 1.02646 0.994831 0.961671 0.926981 0.890758 0.85331 0.814941 0.775653 0.735445 0.694317 0.652268 0.6093 0.565412 0.520804 0.475676 0.43003 0.383864 0.337179 0.289975 0.242252 0.194009 0.148538 0.10913 0.0757848 0.0485023 0.0272825 0.0121256 0.00303139 0 0 0.00318184 0.0127274 0.0286366 0.0509095 0.0795461 0.114546 0.15591 0.203638 0.254272 0.304355 0.353888 0.40287 0.451301 0.499181 0.54651 0.593289 0.639307 0.684355 0.728432 0.771539 0.813676 0.854842 0.895037 0.934263 0.972199 1.00853 1.04325 1.07636 1.10787 1.13777 1.16606 1.19274 1.21788 1.24155 1.26374 1.28445 1.30368 1.32144 1.33772 1.35252 1.36609 1.37867 1.39026 1.40086 1.41048 1.4191 1.42674 1.43339 1.43929 1.44467 1.44954 1.4539 1.45774 1.46107 1.46389 1.46619 1.46812 1.4698 1.47123 1.47242 1.47337 1.47407 1.47453 1.47474 1.47471 1.47443 1.47391 1.47314 1.47213 1.47087 1.46937 1.46763 1.4655 1.46286 1.45971 1.45604 1.45186 1.44716 1.44195 1.43622 1.42974 1.42227 1.4138 1.40434 1.39389 1.38244 1.37 1.35657 1.34189 1.32573 1.30808 1.28894 1.26832 1.2462 1.2226 1.19751 1.17087 1.1426 1.1127 1.08118 1.04804 1.01327 0.976883 0.938867 0.899546 0.859239 0.817945 0.775665 0.732398 0.688145 0.642905 0.596679 0.549678 0.502114 0.453986 0.405296 0.356042 0.306225 0.255844 0.204901 0.156877 0.115257 0.0800393 0.0512252 0.0288142 0.0128063 0.00320157 0 0 0.00334801 0.013392 0.0301321 0.0535682 0.0837002 0.120528 0.164052 0.214273 0.267543 0.320218 0.372298 0.423783 0.474672 0.524967 0.574665 0.623769 0.672056 0.719307 0.765519 0.810695 0.854834 0.897935 0.939999 0.981026 1.02068 1.05864 1.0949 1.12947 1.16233 1.19349 1.22296 1.25072 1.27686 1.30145 1.3245 1.34599 1.36593 1.38432 1.40117 1.41646 1.43046 1.44344 1.45538 1.4663 1.47619 1.48505 1.49288 1.49968 1.5057 1.5112 1.51616 1.5206 1.52451 1.5279 1.53075 1.53308 1.53502 1.53671 1.53816 1.53936 1.54031 1.54102 1.54148 1.5417 1.54167 1.54139 1.54086 1.54009 1.53907 1.53781 1.5363 1.53454 1.5324 1.52973 1.52653 1.5228 1.51854 1.51375 1.50843 1.50258 1.49595 1.48829 1.4796 1.46987 1.45911 1.44731 1.43448 1.42062 1.40546 1.38874 1.37046 1.35061 1.32921 1.30625 1.28172 1.25564 1.22791 1.19847 1.16732 1.13444 1.09985 1.06355 1.02552 0.985786 0.944662 0.902484 0.859252 0.814966 0.769626 0.723232 0.675784 0.627282 0.577949 0.528008 0.477458 0.4263 0.374533 0.322158 0.269175 0.215583 0.165056 0.121266 0.0842122 0.0538958 0.0303164 0.013474 0.00336849 0 0 0.00351097 0.0140439 0.0315987 0.0561755 0.0877741 0.126395 0.172037 0.224702 0.280557 0.335771 0.390344 0.444276 0.497567 0.550218 0.602227 0.653595 0.704091 0.753481 0.801766 0.848946 0.89502 0.93999 0.983854 1.02661 1.06793 1.10745 1.14518 1.18112 1.21527 1.24763 1.2782 1.30698 1.33406 1.35952 1.38335 1.40557 1.42616 1.44514 1.46249 1.47822 1.49261 1.50594 1.51819 1.52938 1.53951 1.54856 1.55655 1.56347 1.56959 1.57517 1.58021 1.58471 1.58866 1.59208 1.59495 1.59729 1.59923 1.60093 1.60238 1.60358 1.60453 1.60524 1.60571 1.60592 1.60589 1.60562 1.60509 1.60432 1.60331 1.60205 1.60054 1.59878 1.59663 1.59394 1.59071 1.58694 1.58263 1.57777 1.57237 1.56643 1.55969 1.55187 1.54299 1.53303 1.522 1.5099 1.49672 1.48248 1.46688 1.44965 1.4308 1.41031 1.38818 1.36443 1.33904 1.31203 1.28329 1.25275 1.2204 1.18623 1.15027 1.11249 1.07291 1.03151 0.988657 0.944677 0.899575 0.853349 0.806001 0.757531 0.707938 0.657222 0.605617 0.553358 0.500445 0.446876 0.392653 0.337776 0.282243 0.226057 0.173075 0.127157 0.0883034 0.0565142 0.0317892 0.0141285 0.00353214 0 0 0.00367071 0.0146828 0.0330364 0.0587314 0.0917678 0.132146 0.179865 0.234925 0.293313 0.351013 0.408025 0.464349 0.519985 0.574934 0.629195 0.682768 0.73541 0.786878 0.837171 0.886291 0.934236 0.981007 1.0266 1.07103 1.11392 1.15494 1.19407 1.23132 1.2667 1.30019 1.3318 1.36153 1.38948 1.41574 1.4403 1.46318 1.48437 1.50388 1.52169 1.53781 1.55254 1.56617 1.57869 1.59011 1.60043 1.60965 1.61776 1.62477 1.63096 1.63659 1.64168 1.64621 1.65019 1.65362 1.6565 1.65883 1.66076 1.66244 1.66389 1.66508 1.66603 1.66674 1.6672 1.66742 1.66739 1.66712 1.6666 1.66584 1.66483 1.66358 1.66208 1.66034 1.6582 1.65551 1.65227 1.64847 1.64413 1.63923 1.63378 1.62778 1.62095 1.61301 1.60397 1.59382 1.58256 1.57019 1.55672 1.54214 1.52616 1.50848 1.4891 1.46802 1.44524 1.42075 1.39457 1.36669 1.337 1.30542 1.27194 1.23656 1.19928 1.1601 1.11903 1.07605 1.03153 0.985818 0.938912 0.890814 0.841524 0.791041 0.739365 0.686498 0.632683 0.578166 0.522947 0.467026 0.410403 0.353077 0.29505 0.236321 0.180933 0.132931 0.0923129 0.0590802 0.0332326 0.0147701 0.00369252 0 0 0.00382586 0.0153034 0.0344328 0.0612138 0.0956466 0.137731 0.187467 0.244855 0.305701 0.365813 0.425189 0.483829 0.541735 0.598906 0.655341 0.711042 0.765753 0.81922 0.871444 0.922425 0.972161 1.02065 1.0679 1.11391 1.15831 1.20074 1.2412 1.27969 1.31621 1.35076 1.38335 1.41396 1.44271 1.4697 1.49494 1.51843 1.54016 1.56013 1.57835 1.59482 1.60983 1.62372 1.63647 1.64808 1.65856 1.6679 1.67611 1.68318 1.68941 1.69507 1.70018 1.70472 1.70871 1.71214 1.71501 1.71732 1.71923 1.72089 1.72232 1.7235 1.72444 1.72514 1.7256 1.72581 1.72579 1.72552 1.72501 1.72426 1.72327 1.72204 1.72056 1.71884 1.71673 1.71405 1.71081 1.70701 1.70265 1.69774 1.69226 1.68622 1.67933 1.67131 1.66214 1.65183 1.64039 1.6278 1.61408 1.59921 1.58289 1.56481 1.54496 1.52334 1.49996 1.47481 1.44789 1.41921 1.38865 1.3561 1.32156 1.28503 1.24652 1.20602 1.16353 1.11905 1.07294 1.02558 0.976947 0.927055 0.875901 0.823485 0.769806 0.714865 0.658917 0.60222 0.544773 0.486576 0.427629 0.367932 0.307485 0.246288 0.188564 0.138537 0.0962061 0.0615719 0.0346342 0.015393 0.00384824 0 0 0.00397504 0.0159002 0.0357754 0.0636007 0.099376 0.143102 0.194777 0.254403 0.317612 0.380039 0.441684 0.502547 0.562627 0.621925 0.68044 0.738174 0.79486 0.850233 0.904294 0.957043 1.00848 1.0586 1.10741 1.15491 1.20073 1.24449 1.28619 1.32583 1.36342 1.39896 1.43244 1.46386 1.49334 1.52101 1.54686 1.57089 1.5931 1.61349 1.63207 1.64882 1.66409 1.67819 1.69112 1.70289 1.71349 1.72293 1.7312 1.73831 1.74455 1.75022 1.75533 1.75987 1.76385 1.76726 1.7701 1.77238 1.77426 1.7759 1.7773 1.77846 1.77939 1.78008 1.78053 1.78074 1.78072 1.78046 1.77996 1.77923 1.77826 1.77705 1.7756 1.77392 1.77183 1.76918 1.76596 1.76218 1.75783 1.75291 1.74742 1.74137 1.73445 1.72636 1.71711 1.70668 1.69508 1.68231 1.66838 1.65327 1.63666 1.61823 1.59796 1.57586 1