<?xml version="1.0"?> 
<VTKFile type="StructuredGrid" version="0.1"> 
<StructuredGrid WholeExtent="0 128 0 128 0 0"> 
<Piece Extent="0 128 0 128 0 0"> 
<PointData>
<DataArray type="Float32" Name="u" format="ascii" NumberOfComponents="1"> 
0 0 0 0 0 0 0 0 0 0 0 0 0 0 0 0 0 0 0 0 0 0 0 0 0 0 0 0 0 0 0 0 0 0 0 0 0 0 0 0 0 0 0 0 0 0 0 0 0 0 0 0 0 0 0 0 0 0 0 0 0 0 0 0 0 0 0 0 0 0 0 0 0 0 0 0 0 0 0 0 0 0 0 0 0 0 0 0 0 0 0 0 0 0 0 0 0 0 0 0 0 0 0 0 0 0 0 0 0 0 0 0 0 0 0 0 0 0 0 0 0 0 0 0 0 0 0 0 0 0 1.07682e-06 4.30728e-06 9.69137e-06 1.72291e-05 2.69205e-05 3.87655e-05 5.27641e-05 6.89164e-05 8.64416e-05 0.000104559 0.000123269 0.00014257 0.000162464 0.00018295 0.000204028 0.000225699 0.000248012 0.000271018 0.000294717 0.000319109 0.000344195 0.000369973 0.000396445 0.000423609 0.000451324 0.000479448 0.000507979 0.000536919 0.000566267 0.000596024 0.000626188 0.000656761 0.000687539 0.00071832 0.000749104 0.00077989 0.00081068 0.000841472 0.000872268 0.000903066 0.00093363 0.000963721 0.000993341 0.00102249 0.00105116 0.00107937 0.0011071 0.00113436 0.00116091 0.00118652 0.00121118 0.0012349 0.00125767 0.0012795 0.00130038 0.00132032 0.00133912 0.00135658 0.00137272 0.00138752 0.00140098 0.00141311 0.00142391 0.00143337 0.00144139 0.00144784 0.00145273 0.00145606 0.00145782 0.00145801 0.00145665 0.00145372 0.00144921 0.00144313 0.00143546 0.00142622 0.00141539 0.00140298 0.00138899 0.00137342 0.00135637 0.00133797 0.0013182 0.00129707 0.00127458 0.00125072 0.0012255 0.00119893 0.00117121 0.00114257 0.001113 0.00108252 0.00105112 0.00101879 0.000985546 0.00095138 0.000916596 0.000881498 0.000846086 0.000810361 0.000774321 0.000737967 0.000701299 0.000664317 0.000627359 0.000590764 0.000554532 0.000518663 0.000483156 0.000448012 0.000413231 0.000378813 0.000344826 0.00031134 0.000278354 0.000245869 0.000213884 0.0001824 0.000151416 0.000120932 9.25888e-05 6.80244e-05 4.72392e-05 3.02331e-05 1.70061e-05 7.55827e-06 1.88957e-06 0 0 4.30728e-06 1.72291e-05 3.87655e-05 6.89164e-05 0.000107682 0.000155062 0.000211057 0.000275666 0.000345767 0.000418236 0.000493074 0.000570281 0.000649856 0.0007318 0.000816113 0.000902795 0.000992047 0.00108407 0.00117887 0.00127644 0.00137678 0.00147989 0.00158578 0.00169444 0.0018053 0.00191779 0.00203192 0.00214768 0.00226507 0.00238409 0.00250475 0.00262704 0.00275015 0.00287328 0.00299641 0.00311956 0.00324272 0.00336589 0.00348907 0.00361226 0.00373452 0.00385489 0.00397336 0.00408996 0.00420466 0.00431747 0.0044284 0.00453744 0.00464365 0.00474608 0.00484472 0.00493959 0.00503068 0.00511799 0.00520153 0.00528128 0.00535648 0.00542634 0.00549087 0.00555006 0.00560392 0.00565245 0.00569564 0.0057335 0.00576556 0.00579137 0.00581092 0.00582422 0.00583126 0.00583205 0.00582659 0.00581486 0.00579685 0.00577252 0.00574185 0.00570487 0.00566155 0.00561192 0.00555595 0.00549367 0.00542549 0.00535187 0.00527279 0.00518827 0.0050983 0.00500289 0.00490202 0.00479571 0.00468482 0.00457026 0.00445201 0.00433008 0.00420447 0.00407517 0.00394219 0.00380552 0.00366638 0.00352599 0.00338435 0.00324144 0.00309728 0.00295187 0.0028052 0.00265727 0.00250944 0.00236306 0.00221813 0.00207465 0.00193263 0.00179205 0.00165293 0.00151525 0.0013793 0.00124536 0.00111342 0.000983475 0.000855535 0.000729598 0.000605663 0.000483729 0.000370355 0.000272098 0.000188957 0.000120932 6.80244e-05 3.02331e-05 7.55827e-06 0 0 9.69137e-06 3.87655e-05 8.72224e-05 0.000155062 0.000242284 0.000348889 0.000474877 0.000620248 0.000777975 0.000941031 0.00110942 0.00128313 0.00146218 0.00164655 0.00183625 0.00203129 0.00223211 0.00243916 0.00265245 0.00287198 0.00309775 0.00332976 0.003568 0.00381248 0.00406192 0.00431503 0.00457182 0.00483227 0.00509641 0.00536421 0.00563569 0.00591085 0.00618785 0.00646488 0.00674193 0.00701901 0.00729612 0.00757325 0.00785041 0.00812759 0.00840267 0.00867349 0.00894007 0.0092024 0.00946048 0.00971432 0.0099639 0.0102092 0.0104482 0.0106787 0.0109006 0.0111141 0.011319 0.0115155 0.0117034 0.0118829 0.0120521 0.0122093 0.0123545 0.0124876 0.0126088 0.012718 0.0128152 0.0129004 0.0129725 0.0130306 0.0130746 0.0131045 0.0131203 0.0131221 0.0131098 0.0130834 0.0130429 0.0129882 0.0129192 0.012836 0.0127385 0.0126268 0.0125009 0.0123607 0.0122074 0.0120417 0.0118638 0.0116736 0.0114712 0.0112565 0.0110295 0.0107903 0.0105409 0.0102831 0.010017 0.00974268 0.00946005 0.00916913 0.00886992 0.00856242 0.00824936 0.00793348 0.00761478 0.00729324 0.00696889 0.0066417 0.00631169 0.00597885 0.00564623 0.00531688 0.00499079 0.00466797 0.00434841 0.00403211 0.00371908 0.00340932 0.00310343 0.00280206 0.00250519 0.00221282 0.00192495 0.0016416 0.00136274 0.00108839 0.000833299 0.00061222 0.000425153 0.000272098 0.000153055 6.80244e-05 1.70061e-05 0 0 1.72291e-05 6.89164e-05 0.000155062 0.000275666 0.000430728 0.000620248 0.000844226 0.00110266 0.00138307 0.00167294 0.0019723 0.00228112 0.00259943 0.0029272 0.00326445 0.00361118 0.00396819 0.00433628 0.00471547 0.00510575 0.00550711 0.00591957 0.00634311 0.00677775 0.00722119 0.00767117 0.00812767 0.00859071 0.00906028 0.00953638 0.010019 0.0105082 0.0110006 0.0114931 0.0119857 0.0124782 0.0129709 0.0134636 0.0139563 0.0144491 0.0149381 0.0154195 0.0158935 0.0163598 0.0168186 0.0172699 0.0177136 0.0181498 0.0185746 0.0189843 0.0193789 0.0197584 0.0201227 0.020472 0.0208061 0.0211251 0.0214259 0.0217054 0.0219635 0.0222002 0.0224157 0.0226098 0.0227826 0.022934 0.0230622 0.0231655 0.0232437 0.0232969 0.0233251 0.0233282 0.0233063 0.0232595 0.0231874 0.0230901 0.0229674 0.0228195 0.0226462 0.0224477 0.0222238 0.0219747 0.021702 0.0214075 0.0210912 0.0207531 0.0203932 0.0200115 0.0196081 0.0191828 0.0187393 0.018281 0.017808 0.0173203 0.0168179 0.0163007 0.0157687 0.0152221 0.0146655 0.014104 0.0135374 0.0129658 0.0123891 0.0118075 0.0112208 0.0106291 0.0100377 0.00945223 0.00887252 0.00829861 0.0077305 0.0071682 0.0066117 0.00606101 0.00551722 0.00498144 0.00445366 0.0039339 0.00342214 0.00291839 0.00242265 0.00193492 0.00148142 0.00108839 0.000755827 0.000483729 0.000272098 0.000120932 3.02331e-05 0 0 2.69205e-05 0.000107682 0.000242284 0.000430728 0.000673012 0.000969137 0.0013191 0.00172291 0.00216104 0.00261397 0.00308171 0.00356426 0.0040616 0.00457375 0.00510071 0.00564247 0.00620029 0.00677544 0.00736792 0.00797773 0.00860486 0.00924932 0.00991111 0.0105902 0.0112831 0.0119862 0.0126995 0.013423 0.0141567 0.0149006 0.0156547 0.016419 0.0171885 0.017958 0.0187276 0.0194973 0.020267 0.0210368 0.0218067 0.0225766 0.0233407 0.024093 0.0248335 0.0255622 0.0262791 0.0269842 0.0276775 0.028359 0.0290228 0.029663 0.0302795 0.0308725 0.0314418 0.0319875 0.0325095 0.033008 0.033478 0.0339146 0.0343179 0.0346879 0.0350245 0.0353278 0.0355977 0.0358344 0.0360348 0.0361961 0.0363183 0.0364014 0.0364454 0.0364503 0.0364162 0.0363429 0.0362303 0.0360782 0.0358866 0.0356554 0.0353847 0.0350745 0.0347247 0.0343354 0.0339093 0.0334492 0.032955 0.0324267 0.0318644 0.031268 0.0306376 0.0299732 0.0292802 0.0285641 0.0278251 0.027063 0.0262779 0.0254698 0.0246387 0.0237845 0.0229149 0.0220375 0.0211522 0.020259 0.019358 0.0184492 0.0175325 0.0166079 0.015684 0.0147691 0.0138633 0.0129666 0.0120789 0.0112003 0.0103308 0.00947032 0.00862065 0.00778349 0.00695885 0.00614672 0.0053471 0.00455999 0.00378539 0.00302331 0.00231472 0.00170061 0.00118098 0.000755827 0.000425153 0.000188957 4.72392e-05 0 0 3.87655e-05 0.000155062 0.000348889 0.000620248 0.000969137 0.00139556 0.00189951 0.00248099 0.0031119 0.00376412 0.00443767 0.00513253 0.00584871 0.0065862 0.00734502 0.00812515 0.00892842 0.00975664 0.0106098 0.0114879 0.012391 0.013319 0.014272 0.0152499 0.0162477 0.0172601 0.0182873 0.0193291 0.0203856 0.0214568 0.0225428 0.0236434 0.0247514 0.0258595 0.0269677 0.0280761 0.0291845 0.030293 0.0314016 0.0325104 0.0336107 0.034694 0.0357603 0.0368096 0.0378419 0.0388573 0.0398556 0.040837 0.0417928 0.0427147 0.0436025 0.0444563 0.0452762 0.046062 0.0468137 0.0475315 0.0482083 0.048837 0.0494178 0.0499506 0.0504353 0.050872 0.0512608 0.0516015 0.05189 0.0521223 0.0522983 0.052418 0.0524814 0.0524885 0.0524393 0.0523338 0.0521717 0.0519526 0.0516767 0.0513438 0.050954 0.0505073 0.0500036 0.049443 0.0488294 0.0481668 0.0474551 0.0466945 0.0458847 0.045026 0.0441182 0.0431613 0.0421634 0.0411323 0.0400681 0.0389707 0.0378402 0.0366765 0.0354797 0.0342497 0.0329975 0.0317339 0.0304591 0.029173 0.0278755 0.0265668 0.0252468 0.0239154 0.0225849 0.0212675 0.0199632 0.0186719 0.0173936 0.0161284 0.0148763 0.0136373 0.0124137 0.0112082 0.0100207 0.00885127 0.00769982 0.00656638 0.00545096 0.00435356 0.0033332 0.00244888 0.00170061 0.00108839 0.00061222 0.000272098 6.80244e-05 0 0 5.27641e-05 0.000211057 0.000474877 0.000844226 0.0013191 0.00189951 0.00258544 0.00337691 0.00423564 0.00512339 0.00604016 0.00698594 0.00796074 0.00896456 0.00999739 0.0110592 0.0121526 0.0132799 0.0144411 0.0156364 0.0168655 0.0181287 0.0194258 0.0207568 0.0221149 0.0234929 0.024891 0.026309 0.0277471 0.0292052 0.0306832 0.0321813 0.0336894 0.0351977 0.0367061 0.0382146 0.0397233 0.0412321 0.0427411 0.0442502 0.0457479 0.0472223 0.0486737 0.050102 0.0515071 0.0528891 0.0542479 0.0555837 0.0568847 0.0581394 0.0593479 0.06051 0.0616259 0.0626954 0.0637187 0.0646957 0.0656168 0.0664726 0.0672631 0.0679882 0.068648 0.0692425 0.0697716 0.0702353 0.0706281 0.0709443 0.0711838 0.0713467 0.071433 0.0714426 0.0713757 0.0712321 0.0710115 0.0707133 0.0703377 0.0698846 0.069354 0.068746 0.0680604 0.0672974 0.0664623 0.0655604 0.0645917 0.0635563 0.0624542 0.0612854 0.0600497 0.0587474 0.0573891 0.0559857 0.0545371 0.0530435 0.0515047 0.0499208 0.0482918 0.0466176 0.0449132 0.0431934 0.0414582 0.0397077 0.0379417 0.0361604 0.0343636 0.0325515 0.0307406 0.0289475 0.0271721 0.0254145 0.0236747 0.0219526 0.0202483 0.0185618 0.0168965 0.0152556 0.0136393 0.0120476 0.0104803 0.00893758 0.00741937 0.00592568 0.00453685 0.0033332 0.00231472 0.00148142 0.000833299 0.000370355 9.25888e-05 0 0 6.89164e-05 0.000275666 0.000620248 0.00110266 0.00172291 0.00248099 0.00337691 0.00441065 0.00553226 0.00669178 0.00788919 0.00912449 0.0103977 0.0117088 0.0130578 0.0144447 0.0158727 0.0173451 0.0188619 0.020423 0.0220285 0.0236783 0.0253724 0.027111 0.0288848 0.0306847 0.0325107 0.0343628 0.0362411 0.0381455 0.040076 0.0420327 0.0440025 0.0459725 0.0479426 0.049913 0.0518835 0.0538542 0.0558251 0.0577962 0.0597523 0.0616782 0.0635738 0.0654393 0.0672745 0.0690796 0.0708544 0.0725991 0.0742984 0.0759372 0.0775156 0.0790335 0.0804909 0.0818879 0.0832244 0.0845005 0.0857036 0.0868214 0.0878539 0.088801 0.0896627 0.0904392 0.0911302 0.091736 0.092249 0.0926619 0.0929748 0.0931875 0.0933002 0.0933128 0.0932254 0.0930378 0.0927497 0.0923603 0.0918697 0.0912779 0.0905849 0.0897907 0.0888953 0.0878986 0.0868078 0.0856299 0.0843647 0.0830124 0.0815729 0.0800462 0.0784323 0.0767313 0.0749572 0.0731242 0.0712322 0.0692813 0.0672715 0.0652027 0.063075 0.0608883 0.0586622 0.0564159 0.0541495 0.0518631 0.0495565 0.0472299 0.0448831 0.0425163 0.040151 0.0378089 0.0354901 0.0331944 0.030922 0.0286728 0.0264468 0.024244 0.0220689 0.0199257 0.0178147 0.0157356 0.0136886 0.0116736 0.0096906 0.00773967 0.00592568 0.00435356 0.00302331 0.00193492 0.00108839 0.000483729 0.000120932 0 0 8.6413e-05 0.000345652 0.000777717 0.00138261 0.00216032 0.00311087 0.00423423 0.00553043 0.0069367 0.00839031 0.00989125 0.0114395 0.0130351 0.0146781 0.0163684 0.018106 0.019895 0.0217395 0.0236394 0.0255948 0.0276057 0.029672 0.0317938 0.033971 0.0361923 0.0384462 0.0407328 0.043052 0.0454038 0.0477882 0.0502052 0.0526549 0.055121 0.0575872 0.0600536 0.0625201 0.0649868 0.0674536 0.0699206 0.0723878 0.0748361 0.0772465 0.0796191 0.0819538 0.0842506 0.0865096 0.0887307 0.090914 0.0930404 0.0950912 0.0970662 0.0989655 0.100789 0.102537 0.104209 0.105806 0.107311 0.10871 0.110001 0.111186 0.112264 0.113235 0.1141 0.114857 0.115499 0.116015 0.116406 0.116672 0.116813 0.116828 0.116718 0.116483 0.116122 0.115635 0.115021 0.11428 0.113412 0.112418 0.111298 0.11005 0.108685 0.107211 0.105627 0.103935 0.102133 0.100222 0.0982022 0.0960733 0.0938528 0.0915586 0.0891906 0.0867488 0.0842332 0.0816438 0.0789806 0.0762436 0.0734571 0.0706454 0.0678085 0.0649464 0.062059 0.0591465 0.0562087 0.0532458 0.0502847 0.0473526 0.0444494 0.0415753 0.0387301 0.035914 0.0331268 0.0303686 0.0276448 0.024961 0.0223171 0.0197132 0.0171492 0.0146251 0.012141 0.00969685 0.00742415 0.00545448 0.00378783 0.00242421 0.00136362 0.000606053 0.000151513 0 0 0.000104444 0.000417777 0.000939999 0.00167111 0.00261111 0.00375999 0.00511777 0.00668444 0.00838389 0.01014 0.0119529 0.0138224 0.0157486 0.0177315 0.0197711 0.0218674 0.0240253 0.0262499 0.028541 0.0308987 0.0333231 0.035814 0.0383715 0.0409956 0.0436726 0.0463886 0.0491437 0.0519379 0.0547711 0.0576434 0.0605548 0.0635052 0.0664752 0.0694451 0.0724151 0.075385 0.0783548 0.0813247 0.0842946 0.0872644 0.0902113 0.0931125 0.095968 0.0987777 0.101542 0.10426 0.106932 0.109559 0.112117 0.114584 0.11696 0.119245 0.121438 0.123541 0.125552 0.127472 0.129282 0.130963 0.132516 0.13394 0.135236 0.136404 0.137442 0.138353 0.139124 0.139744 0.140213 0.140532 0.1407 0.140718 0.140585 0.140301 0.139866 0.139279 0.138539 0.137647 0.136602 0.135406 0.134057 0.132555 0.130912 0.129138 0.127232 0.125195 0.123026 0.120727 0.118296 0.115734 0.113061 0.1103 0.10745 0.104511 0.101483 0.0983658 0.09516 0.0918653 0.0885109 0.0851261 0.0817107 0.0782648 0.0747883 0.0712814 0.067744 0.064176 0.0606102 0.057079 0.0535825 0.0501207 0.0466935 0.0433011 0.0399433 0.0366202 0.0333382 0.0301039 0.0269172 0.0237782 0.0206868 0.0176431 0.014647 0.0116985 0.0089567 0.00658043 0.00456975 0.00292464 0.00164511 0.000731159 0.00018279 0 0 0.00012301 0.000492042 0.00110709 0.00196817 0.00307526 0.00442838 0.00602751 0.00787267 0.00987382 0.0119409 0.014074 0.0162731 0.0185381 0.0208691 0.0232661 0.025729 0.0282638 0.0308764 0.0335667 0.0363348 0.0391806 0.0421043 0.0451057 0.0481848 0.0513256 0.0545118 0.0577435 0.0610206 0.0643432 0.0677112 0.0711247 0.0745837 0.0780651 0.0815463 0.0850271 0.0885076 0.0919877 0.0954675 0.0989469 0.102426 0.105878 0.109276 0.11262 0.115911 0.119148 0.12233 0.125459 0.128534 0.131529 0.134417 0.137198 0.139872 0.142439 0.144899 0.147252 0.149498 0.151615 0.153582 0.155398 0.157064 0.15858 0.159945 0.161159 0.162223 0.163123 0.163848 0.164395 0.164767 0.164963 0.164982 0.164825 0.164491 0.163981 0.163292 0.162424 0.161379 0.160155 0.158753 0.157173 0.155414 0.15349 0.151411 0.149179 0.146793 0.144254 0.14156 0.138713 0.135712 0.132582 0.129348 0.126009 0.122567 0.11902 0.115369 0.111613 0.107753 0.103824 0.0998578 0.095856 0.0918182 0.0877444 0.0836347 0.0794889 0.0753071 0.0711275 0.0669882 0.0628892 0.0588305 0.0548122 0.0508341 0.0468963 0.0429988 0.0391491 0.0353545 0.031615 0.0279307 0.0243015 0.0207274 0.0172085 0.0137448 0.0105233 0.00773144 0.00536905 0.00343619 0.00193286 0.000859048 0.000214762 0 0 0.000142111 0.000568446 0.001279 0.00227378 0.00355279 0.00511601 0.00696346 0.00909513 0.0114065 0.013793 0.0162547 0.0187916 0.0214036 0.0240908 0.0268532 0.0296908 0.0326104 0.0356189 0.0387165 0.041903 0.0451784 0.0485429 0.0519963 0.0555386 0.0591514 0.0628159 0.0665321 0.0703002 0.07412 0.0779917 0.081915 0.0858902 0.0898908 0.0938907 0.0978897 0.101888 0.105885 0.109882 0.113878 0.117873 0.121836 0.125737 0.129577 0.133354 0.137069 0.140721 0.144312 0.14784 0.151276 0.154589 0.157779 0.160846 0.16379 0.166611 0.169309 0.171884 0.174312 0.176567 0.178648 0.180558 0.182294 0.183858 0.185249 0.186467 0.187498 0.188327 0.188953 0.189378 0.1896 0.18962 0.189438 0.189054 0.188466 0.187674 0.186677 0.185476 0.18407 0.18246 0.180646 0.178627 0.176417 0.174031 0.171469 0.16873 0.165814 0.162722 0.159454 0.156009 0.152416 0.148703 0.14487 0.140917 0.136845 0.132652 0.12834 0.123908 0.119395 0.114841 0.110245 0.105607 0.100927 0.0962062 0.0914434 0.086639 0.0818367 0.0770803 0.0723697 0.0677049 0.063086 0.058513 0.0539859 0.0495046 0.0450774 0.0407127 0.0364104 0.0321705 0.0279931 0.0238782 0.0198256 0.0158355 0.0121241 0.00890748 0.00618575 0.00395888 0.00222687 0.00098972 0.00024743 0 0 0.000161747 0.000646989 0.00145573 0.00258796 0.00404368 0.0058229 0.00792562 0.0103518 0.0129819 0.0156963 0.018495 0.0213779 0.0243452 0.0273967 0.0305326 0.0337527 0.037065 0.0404776 0.0439903 0.0476033 0.0513164 0.0551297 0.0590433 0.063057 0.0671498 0.0713007 0.0755096 0.0797766 0.0841016 0.0884846 0.0929257 0.0974248 0.101952 0.106478 0.111003 0.115526 0.120048 0.124568 0.129087 0.133604 0.138086 0.142496 0.146836 0.151106 0.155304 0.159432 0.163489 0.167476 0.171358 0.1751 0.178703 0.182167 0.185492 0.188678 0.191724 0.194632 0.197372 0.199916 0.202266 0.204421 0.20638 0.208144 0.209713 0.211086 0.212248 0.213182 0.213887 0.214364 0.214612 0.214632 0.214424 0.213988 0.213322 0.212425 0.211297 0.209938 0.208348 0.206528 0.204476 0.202193 0.199695 0.196998 0.194101 0.191005 0.187709 0.184213 0.180518 0.176624 0.172562 0.168364 0.164031 0.159562 0.154957 0.150217 0.145341 0.140329 0.135226 0.130075 0.124876 0.11963 0.114337 0.108996 0.103608 0.0981717 0.0927377 0.0873551 0.0820238 0.0767438 0.0715152 0.0663379 0.0612119 0.0561373 0.0511232 0.0461785 0.0413034 0.0364978 0.0317618 0.0270952 0.0224983 0.0179708 0.0137589 0.0101086 0.00701984 0.0044927 0.00252714 0.00112317 0.000280794 0 0 0.000181918 0.000727672 0.00163726 0.00291069 0.00454795 0.00654904 0.00891398 0.0116427 0.0146001 0.0176508 0.0207948 0.0240321 0.0273628 0.0307868 0.0343041 0.0379148 0.0416278 0.0454523 0.0493883 0.0534357 0.0575946 0.0618649 0.0662467 0.0707399 0.075321 0.0799664 0.084676 0.0894498 0.0942879 0.0991902 0.104157 0.109188 0.114249 0.119309 0.124367 0.129422 0.134475 0.139526 0.144575 0.149621 0.154627 0.159553 0.1644 0.169167 0.173855 0.178464 0.182993 0.187442 0.191774 0.195951 0.199971 0.203836 0.207545 0.211099 0.214497 0.217739 0.220794 0.223632 0.226251 0.228653 0.230836 0.232802 0.23455 0.236079 0.237373 0.238412 0.239196 0.239725 0.239999 0.240019 0.239784 0.239295 0.238549 0.237545 0.236284 0.234765 0.232989 0.230955 0.228663 0.226113 0.223323 0.220311 0.217075 0.213617 0.209937 0.206033 0.201907 0.197558 0.193021 0.188333 0.183493 0.178501 0.173358 0.168062 0.162615 0.157016 0.151315 0.14556 0.139751 0.133889 0.127973 0.122004 0.115981 0.109905 0.103831 0.0978127 0.0918516 0.0859472 0.0800996 0.0743087 0.0685746 0.0628972 0.0572864 0.051752 0.0462941 0.0409125 0.0356074 0.0303787 0.0252264 0.0201506 0.0154278 0.0113347 0.00787132 0.00503764 0.00283368 0.00125941 0.000314853 0 0 0.000202623 0.000810493 0.00182361 0.00324197 0.00506558 0.00729444 0.00992854 0.0129679 0.016261 0.0196564 0.0231541 0.0267541 0.0304564 0.034261 0.0381679 0.042177 0.0462987 0.0505431 0.0549103 0.0594002 0.0640129 0.0687483 0.0736065 0.0785874 0.0836649 0.0888128 0.0940311 0.0993198 0.104679 0.110108 0.115608 0.121178 0.126782 0.132383 0.137981 0.143575 0.149167 0.154755 0.160341 0.165923 0.171459 0.176907 0.182267 0.187538 0.192721 0.197815 0.202821 0.207739 0.212526 0.21714 0.221583 0.225852 0.22995 0.233875 0.237627 0.241207 0.24458 0.247713 0.250604 0.253255 0.255664 0.257833 0.25976 0.261447 0.262873 0.264017 0.26488 0.265461 0.265762 0.26578 0.265518 0.264974 0.264147 0.263035 0.261639 0.259958 0.257992 0.255742 0.253206 0.250387 0.247302 0.24397 0.240392 0.236568 0.232498 0.228181 0.223618 0.218809 0.213793 0.208608 0.203256 0.197735 0.192046 0.186189 0.180164 0.17397 0.167663 0.161296 0.154869 0.148383 0.141837 0.135231 0.128565 0.12184 0.115115 0.108453 0.101853 0.0953151 0.0888392 0.0824254 0.0760737 0.0697841 0.0635671 0.0574332 0.0513823 0.0454146 0.03953 0.0337286 0.0280102 0.0223749 0.0171308 0.0125859 0.00874019 0.00559372 0.00314647 0.00139843 0.000349608 0 0 0.000223864 0.000895454 0.00201477 0.00358182 0.00559659 0.00805909 0.0109693 0.0143273 0.0179647 0.0217133 0.025573 0.0295439 0.0336261 0.0378193 0.0421238 0.0465394 0.0510777 0.05575 0.0605564 0.0654969 0.0705715 0.0757801 0.0811228 0.0865996 0.0921816 0.0978401 0.103575 0.109387 0.115275 0.121239 0.12728 0.133397 0.139551 0.1457 0.151846 0.157987 0.164124 0.170256 0.176385 0.182509 0.188583 0.194559 0.200437 0.206218 0.211901 0.217487 0.222975 0.228365 0.233612 0.238669 0.243537 0.248216 0.252705 0.257005 0.261115 0.265035 0.268729 0.272159 0.275324 0.278226 0.280863 0.283236 0.285345 0.287189 0.288748 0.289998 0.29094 0.291573 0.291899 0.291916 0.291624 0.291025 0.290115 0.288894 0.28736 0.285515 0.283358 0.280888 0.278107 0.275014 0.27163 0.267976 0.264052 0.259857 0.255393 0.250659 0.245654 0.240379 0.234877 0.22919 0.223319 0.217263 0.211022 0.204596 0.197986 0.191191 0.18427 0.177283 0.170231 0.163112 0.155927 0.148675 0.141358 0.133975 0.126592 0.119276 0.112028 0.104848 0.0977341 0.0906881 0.0837094 0.0767981 0.0699652 0.0632219 0.0565683 0.0500042 0.0435297 0.0371448 0.0308495 0.0246437 0.0188679 0.0138621 0.00962646 0.00616093 0.00346552 0.00154023 0.000385058 0 0 0.000245661 0.000982643 0.00221095 0.00393057 0.00614152 0.00884379 0.0120374 0.0157223 0.0197129 0.0238235 0.0280542 0.0324048 0.0368756 0.0414663 0.0461771 0.0510079 0.0559715 0.0610805 0.066335 0.0717348 0.0772802 0.0829709 0.0888072 0.0947888 0.100884 0.107063 0.113323 0.119666 0.126092 0.1326 0.13919 0.145863 0.152575 0.159281 0.165982 0.172677 0.179367 0.186052 0.192731 0.199405 0.206022 0.212532 0.218936 0.225232 0.231421 0.237504 0.243479 0.249347 0.255058 0.260563 0.265861 0.270952 0.275836 0.280514 0.284985 0.289249 0.293266 0.296995 0.300437 0.303591 0.306457 0.309036 0.311326 0.31333 0.315021 0.316378 0.317399 0.318084 0.318434 0.318449 0.318128 0.317471 0.316478 0.315145 0.313472 0.31146 0.309109 0.306418 0.303388 0.300019 0.296332 0.292352 0.288077 0.283508 0.278645 0.273488 0.268036 0.262291 0.256297 0.250102 0.243705 0.237107 0.230307 0.223305 0.216102 0.208697 0.201155 0.193541 0.185853 0.178093 0.17026 0.162354 0.154376 0.146325 0.138274 0.130295 0.122389 0.114555 0.106794 0.0991053 0.0914893 0.0839459 0.0764867 0.0691234 0.0618561 0.0546847 0.0476093 0.0406298 0.0337462 0.0269586 0.0206402 0.0151642 0.0105307 0.00673965 0.00379105 0.00168491 0.000421228 0 0 0.000268037 0.00107215 0.00241233 0.00428859 0.00670092 0.00964932 0.0131338 0.0171543 0.0215074 0.0259894 0.0306002 0.0353401 0.0402088 0.0452064 0.050333 0.0555885 0.0609868 0.0665421 0.0722542 0.0781232 0.084149 0.0903318 0.0966713 0.103168 0.109787 0.116494 0.12329 0.130174 0.137147 0.144208 0.151358 0.158595 0.165874 0.173146 0.180411 0.187668 0.194919 0.202164 0.209401 0.216631 0.2238 0.230852 0.237786 0.244605 0.251306 0.257891 0.264358 0.270709 0.27689 0.282846 0.288578 0.294085 0.299368 0.304427 0.309262 0.313872 0.318215 0.322246 0.325965 0.329373 0.33247 0.335256 0.337729 0.339892 0.341717 0.34318 0.34428 0.345017 0.345391 0.345402 0.345051 0.344337 0.343258 0.341812 0.339998 0.337818 0.33527 0.332355 0.329073 0.325424 0.321431 0.317121 0.312491 0.307544 0.302277 0.296692 0.290788 0.284566 0.278075 0.271365 0.264436 0.257289 0.249922 0.242337 0.234533 0.226511 0.218338 0.210087 0.201755 0.193344 0.184854 0.176284 0.167634 0.158904 0.150174 0.141521 0.132945 0.124448 0.116028 0.107686 0.0994212 0.0912343 0.0831373 0.0751426 0.0672501 0.0594599 0.0517718 0.044186 0.0367024 0.029321 0.0224489 0.0164931 0.0114535 0.00733026 0.00412327 0.00183256 0.000458141 0 0 0.000290992 0.00116397 0.00261892 0.00465586 0.00727479 0.0104757 0.0142586 0.0186235 0.0233482 0.0282109 0.0332113 0.0383496 0.0436257 0.0490396 0.0545914 0.060281 0.0661237 0.0721348 0.0783142 0.0846619 0.0911781 0.0978625 0.104715 0.111736 0.118889 0.126136 0.133476 0.140911 0.148441 0.156064 0.163782 0.171593 0.179448 0.187294 0.195131 0.20296 0.21078 0.218592 0.226395 0.23419 0.241916 0.249516 0.256989 0.264335 0.271555 0.278647 0.285613 0.292452 0.299106 0.305518 0.311688 0.317616 0.323302 0.328745 0.333946 0.338906 0.343576 0.347911 0.35191 0.355574 0.358903 0.361896 0.364554 0.366876 0.368835 0.370404 0.371583 0.372372 0.372769 0.372777 0.372394 0.371621 0.370455 0.368894 0.366938 0.364587 0.36184 0.358698 0.355161 0.351229 0.346928 0.342283 0.337295 0.331964 0.326289 0.320271 0.31391 0.307205 0.300211 0.29298 0.285513 0.277809 0.269869 0.261692 0.25328 0.24463 0.235819 0.226922 0.217937 0.208866 0.199708 0.190463 0.181131 0.171713 0.162292 0.152954 0.143699 0.134526 0.125436 0.116429 0.107505 0.0986633 0.0899172 0.0812795 0.0727503 0.0643296 0.0560173 0.0478134 0.039718 0.031731 0.0242941 0.0178487 0.0123949 0.00793275 0.00446217 0.00198319 0.000495797 0 0 0.000314525 0.0012581 0.00283073 0.0050324 0.00786313 0.0113229 0.0154117 0.0201296 0.0252354 0.030488 0.0358873 0.0414334 0.0471263 0.052966 0.0589524 0.0650856 0.0713821 0.0778586 0.0845149 0.0913511 0.0983672 0.105563 0.112939 0.120495 0.128191 0.135986 0.143882 0.151877 0.159972 0.168167 0.176462 0.184857 0.193297 0.201726 0.210145 0.218553 0.22695 0.235337 0.243714 0.25208 0.260372 0.268526 0.276544 0.284425 0.292168 0.299774 0.307243 0.314575 0.321708 0.32858 0.335193 0.341545 0.347636 0.353467 0.359038 0.364349 0.369349 0.37399 0.378271 0.382193 0.385755 0.388957 0.391799 0.394282 0.396376 0.398052 0.399309 0.400148 0.40057 0.400573 0.400157 0.399324 0.39807 0.396392 0.394291 0.391767 0.388819 0.385448 0.381653 0.377435 0.372821 0.367839 0.362488 0.356769 0.350681 0.344225 0.337401 0.330209 0.322705 0.314947 0.306934 0.298667 0.290146 0.28137 0.272341 0.263057 0.253598 0.244046 0.234399 0.224657 0.214822 0.204892 0.194868 0.18475 0.174629 0.164595 0.154649 0.14479 0.135019 0.125336 0.115741 0.106233 0.0968262 0.0875342 0.0783567 0.0692939 0.0603457 0.051512 0.042793 0.0341885 0.0261756 0.0192311 0.0133549 0.00854714 0.00480776 0.00213678 0.000534196 0 0 0.000338638 0.00135455 0.00304774 0.0054182 0.00846594 0.012191 0.0165932 0.0216728 0.0271689 0.0328207 0.0386283 0.0445916 0.0507106 0.0569854 0.0634159 0.0700022 0.0767621 0.0837134 0.0908563 0.0981907 0.105717 0.113434 0.121343 0.129443 0.137692 0.146046 0.154506 0.163071 0.171742 0.180518 0.1894 0.198387 0.207421 0.216442 0.22545 0.234446 0.243429 0.252399 0.261356 0.270301 0.279166 0.287882 0.296451 0.304872 0.313145 0.321271 0.329248 0.337078 0.344694 0.352032 0.359091 0.36587 0.372371 0.378594 0.384537 0.390202 0.395535 0.400484 0.405049 0.409229 0.413026 0.416438 0.419466 0.42211 0.424339 0.426121 0.427457 0.428348 0.428791 0.428789 0.428341 0.427446 0.426102 0.424306 0.422059 0.419359 0.416208 0.412604 0.408549 0.404042 0.399111 0.393788 0.38807 0.381959 0.375454 0.368555 0.361262 0.353576 0.345557 0.337265 0.3287 0.319863 0.310754 0.301372 0.291717 0.281789 0.271675 0.261458 0.25114 0.240719 0.230196 0.219572 0.208845 0.198017 0.187184 0.176443 0.165795 0.155239 0.144776 0.134406 0.124128 0.113943 0.103864 0.0939065 0.0840693 0.0743528 0.064757 0.0552818 0.0459274 0.0366936 0.0280936 0.0206402 0.0143334 0.00917341 0.00516004 0.00229335 0.000573338 0 0 0.000363329 0.00145332 0.00326996 0.00581327 0.00908323 0.0130798 0.0178031 0.0232531 0.0291487 0.0352091 0.0414342 0.047824 0.0543786 0.0610979 0.067982 0.0750308 0.0822635 0.0896994 0.0973385 0.105181 0.113226 0.121474 0.129926 0.138581 0.147393 0.156316 0.165349 0.174494 0.18375 0.193117 0.202595 0.212183 0.22182 0.231442 0.241048 0.25064 0.260216 0.269777 0.279323 0.288854 0.298299 0.307584 0.31671 0.325678 0.334487 0.343137 0.351629 0.359961 0.368066 0.375873 0.383382 0.390594 0.397508 0.404124 0.410443 0.416465 0.422133 0.427392 0.432242 0.436683 0.440716 0.444339 0.447554 0.45036 0.452724 0.454613 0.456028 0.456969 0.457435 0.457426 0.456944 0.455986 0.454552 0.452636 0.45024 0.447363 0.444005 0.440167 0.435848 0.431049 0.425799 0.42013 0.414041 0.407533 0.400606 0.393259 0.385493 0.377308 0.368767 0.359935 0.350812 0.341398 0.331692 0.321696 0.311408 0.300829 0.290049 0.27916 0.26816 0.257051 0.245831 0.234502 0.223062 0.211513 0.199957 0.188499 0.177138 0.165874 0.154708 0.143639 0.132668 0.121794 0.111032 0.100397 0.0898881 0.0795063 0.0692512 0.0591228 0.0491212 0.0392463 0.0300479 0.022076 0.0153306 0.00981157 0.00551901 0.00245289 0.000613223 0 0 0.000388599 0.0015544 0.00349739 0.00621759 0.00971498 0.0139896 0.0190414 0.0248704 0.0311748 0.0376531 0.044305 0.0511308 0.0581303 0.0653036 0.0726506 0.0801714 0.0878865 0.0958165 0.103961 0.112321 0.120896 0.129685 0.138689 0.147909 0.157293 0.166795 0.176412 0.186146 0.195996 0.205963 0.216046 0.226245 0.236494 0.246725 0.256938 0.267134 0.277312 0.287472 0.297615 0.307739 0.31777 0.327631 0.337322 0.346843 0.356193 0.365374 0.374385 0.383225 0.391823 0.400103 0.408067 0.415714 0.423045 0.430059 0.436757 0.443137 0.449143 0.454714 0.459852 0.464556 0.468825 0.472661 0.476063 0.479031 0.481531 0.483527 0.485021 0.486012 0.4865 0.486485 0.485967 0.484946 0.483419 0.481382 0.478835 0.475779 0.472212 0.468137 0.463551 0.458456 0.452883 0.446865 0.440402 0.433493 0.426139 0.418339 0.410094 0.401404 0.392335 0.382957 0.373269 0.36327 0.352961 0.342343 0.331414 0.320175 0.308721 0.29715 0.28546 0.273652 0.261726 0.249682 0.237519 0.225238 0.212949 0.200762 0.188677 0.176694 0.164814 0.153036 0.141359 0.129785 0.118328 0.107004 0.0958131 0.0847544 0.0738284 0.0630351 0.0523744 0.0418465 0.0320387 0.0235386 0.0163463 0.0104616 0.00588466 0.0026154 0.000653851 0 0 0.000414448 0.00165779 0.00373004 0.00663117 0.0103612 0.0149201 0.020308 0.0265247 0.0332473 0.0401527 0.0472409 0.0545119 0.0619657 0.0696023 0.0774218 0.0854241 0.093631 0.102065 0.110725 0.119612 0.128725 0.138066 0.147632 0.157426 0.167393 0.177483 0.187694 0.198026 0.208481 0.219056 0.229754 0.240573 0.251443 0.262292 0.273121 0.283929 0.294717 0.305484 0.31623 0.326956 0.33758 0.348024 0.358285 0.368365 0.378264 0.38798 0.397516 0.406869 0.415964 0.424723 0.433146 0.441233 0.448984 0.456398 0.463477 0.47022 0.476565 0.482451 0.487878 0.492846 0.497354 0.501404 0.504994 0.508125 0.51076 0.512864 0.514437 0.515477 0.515986 0.515964 0.51541 0.514324 0.512703 0.510543 0.507844 0.504606 0.500829 0.496513 0.491658 0.486264 0.480365 0.473994 0.467151 0.4