<?xml version="1.0"?> 
<VTKFile type="StructuredGrid" version="0.1"> 
<StructuredGrid WholeExtent="0 128 0 128 0 0"> 
<Piece Extent="0 128 0 128 0 0"> 
<PointData>
<DataArray type="Float32" Name="u" format="ascii" NumberOfComponents="1"> 
0 0 0 0 0 0 0 0 0 0 0 0 0 0 0 0 0 0 0 0 0 0 0 0 0 0 0 0 0 0 0 0 0 0 0 0 0 0 0 0 0 0 0 0 0 0 0 0 0 0 0 0 0 0 0 0 0 0 0 0 0 0 0 0 0 0 0 0 0 0 0 0 0 0 0 0 0 0 0 0 0 0 0 0 0 0 0 0 0 0 0 0 0 0 0 0 0 0 0 0 0 0 0 0 0 0 0 0 0 0 0 0 0 0 0 0 0 0 0 0 0 0 0 0 0 0 0 0 0 0 -1.95294e-08 -7.81175e-08 -1.75764e-07 -3.1247e-07 -4.88235e-07 -7.03058e-07 -9.5694e-07 -1.24988e-06 -1.66238e-06 -2.27492e-06 -3.08751e-06 -4.10016e-06 -5.31285e-06 -6.72559e-06 -8.33839e-06 -1.01512e-05 -1.21654e-05 -1.4382e-05 -1.68012e-05 -1.94229e-05 -2.22471e-05 -2.52739e-05 -2.85032e-05 -3.1935e-05 -3.55309e-05 -3.92524e-05 -4.30995e-05 -4.70722e-05 -5.11705e-05 -5.53944e-05 -5.97439e-05 -6.4219e-05 -6.87945e-05 -7.34451e-05 -7.81709e-05 -8.29718e-05 -8.78478e-05 -9.27989e-05 -9.78251e-05 -0.000102927 -0.000108061 -0.000113188 -0.000118306 -0.000123416 -0.000128518 -0.000133612 -0.000138697 -0.000143774 -0.000148742 -0.000153497 -0.000158042 -0.000162375 -0.000166497 -0.000170407 -0.000174106 -0.000177593 -0.000180764 -0.000183511 -0.000185836 -0.000187738 -0.000189218 -0.000190275 -0.000190909 -0.00019112 -0.000190909 -0.000190275 -0.000189218 -0.000187738 -0.000185836 -0.000183511 -0.000180764 -0.000177593 -0.000174106 -0.000170407 -0.000166497 -0.000162375 -0.000158042 -0.000153497 -0.000148742 -0.000143774 -0.000138697 -0.000133612 -0.000128518 -0.000123416 -0.000118306 -0.000113188 -0.000108061 -0.000102927 -9.78251e-05 -9.27989e-05 -8.78478e-05 -8.29717e-05 -7.81709e-05 -7.34451e-05 -6.87945e-05 -6.4219e-05 -5.97439e-05 -5.53944e-05 -5.11705e-05 -4.70722e-05 -4.30995e-05 -3.92524e-05 -3.55309e-05 -3.1935e-05 -2.85032e-05 -2.52739e-05 -2.22471e-05 -1.94229e-05 -1.68012e-05 -1.4382e-05 -1.21654e-05 -1.01512e-05 -8.33839e-06 -6.72559e-06 -5.31285e-06 -4.10016e-06 -3.08751e-06 -2.27492e-06 -1.66238e-06 -1.24988e-06 -9.5694e-07 -7.03058e-07 -4.88235e-07 -3.1247e-07 -1.75765e-07 -7.81176e-08 -1.95294e-08 0 0 -7.81175e-08 -3.1247e-07 -7.03058e-07 -1.24988e-06 -1.95294e-06 -2.81223e-06 -3.82776e-06 -4.99952e-06 -6.6495e-06 -9.09968e-06 -1.23501e-05 -1.64006e-05 -2.12514e-05 -2.69024e-05 -3.33535e-05 -4.06049e-05 -4.86614e-05 -5.75281e-05 -6.72048e-05 -7.76916e-05 -8.89886e-05 -0.000101096 -0.000114013 -0.00012774 -0.000142124 -0.00015701 -0.000172398 -0.000188289 -0.000204682 -0.000221578 -0.000238976 -0.000256876 -0.000275178 -0.000293781 -0.000312684 -0.000331887 -0.000351391 -0.000371196 -0.000391301 -0.000411706 -0.000432245 -0.000452752 -0.000473225 -0.000493665 -0.000514073 -0.000534447 -0.000554789 -0.000575097 -0.000594966 -0.000613989 -0.000632167 -0.0006495 -0.000665986 -0.000681627 -0.000696423 -0.000710373 -0.000723054 -0.000734045 -0.000743345 -0.000750954 -0.000756872 -0.000761099 -0.000763635 -0.000764481 -0.000763635 -0.000761099 -0.000756872 -0.000750954 -0.000743345 -0.000734045 -0.000723054 -0.000710373 -0.000696423 -0.000681627 -0.000665986 -0.0006495 -0.000632167 -0.00061399 -0.000594966 -0.000575097 -0.000554789 -0.000534447 -0.000514073 -0.000493665 -0.000473225 -0.000452752 -0.000432245 -0.000411706 -0.000391301 -0.000371196 -0.000351391 -0.000331887 -0.000312684 -0.000293781 -0.000275178 -0.000256876 -0.000238976 -0.000221578 -0.000204682 -0.000188289 -0.000172398 -0.00015701 -0.000142124 -0.00012774 -0.000114013 -0.000101096 -8.89886e-05 -7.76916e-05 -6.72048e-05 -5.75281e-05 -4.86614e-05 -4.06049e-05 -3.33535e-05 -2.69024e-05 -2.12514e-05 -1.64006e-05 -1.23501e-05 -9.09968e-06 -6.6495e-06 -4.99952e-06 -3.82776e-06 -2.81223e-06 -1.95294e-06 -1.24988e-06 -7.03058e-07 -3.1247e-07 -7.81176e-08 0 0 -1.75764e-07 -7.03058e-07 -1.58188e-06 -2.81223e-06 -4.39411e-06 -6.32752e-06 -8.61246e-06 -1.12489e-05 -1.49614e-05 -2.04743e-05 -2.77876e-05 -3.69014e-05 -4.78157e-05 -6.05303e-05 -7.50455e-05 -9.1361e-05 -0.000109488 -0.000129438 -0.000151211 -0.000174806 -0.000200224 -0.000227465 -0.000256529 -0.000287415 -0.000319778 -0.000353272 -0.000387895 -0.00042365 -0.000460534 -0.00049855 -0.000537695 -0.000577971 -0.000619151 -0.000661006 -0.000703538 -0.000746746 -0.00079063 -0.00083519 -0.000880426 -0.000926339 -0.000972552 -0.00101869 -0.00106476 -0.00111075 -0.00115666 -0.00120251 -0.00124827 -0.00129397 -0.00133867 -0.00138148 -0.00142238 -0.00146137 -0.00149847 -0.00153366 -0.00156695 -0.00159834 -0.00162687 -0.0016516 -0.00167253 -0.00168965 -0.00170296 -0.00171247 -0.00171818 -0.00172008 -0.00171818 -0.00171247 -0.00170296 -0.00168965 -0.00167253 -0.0016516 -0.00162687 -0.00159834 -0.00156695 -0.00153366 -0.00149847 -0.00146137 -0.00142238 -0.00138148 -0.00133867 -0.00129397 -0.00124827 -0.00120251 -0.00115666 -0.00111075 -0.00106476 -0.00101869 -0.000972552 -0.000926339 -0.000880426 -0.00083519 -0.00079063 -0.000746746 -0.000703538 -0.000661006 -0.000619151 -0.000577971 -0.000537695 -0.00049855 -0.000460534 -0.00042365 -0.000387895 -0.000353272 -0.000319778 -0.000287415 -0.000256529 -0.000227465 -0.000200224 -0.000174806 -0.000151211 -0.000129438 -0.000109488 -9.1361e-05 -7.50455e-05 -6.05303e-05 -4.78157e-05 -3.69014e-05 -2.77876e-05 -2.04743e-05 -1.49614e-05 -1.12489e-05 -8.61246e-06 -6.32752e-06 -4.39411e-06 -2.81223e-06 -1.58188e-06 -7.03058e-07 -1.75765e-07 0 0 -3.1247e-07 -1.24988e-06 -2.81223e-06 -4.99952e-06 -7.81175e-06 -1.12489e-05 -1.5311e-05 -1.99981e-05 -2.6598e-05 -3.63987e-05 -4.94002e-05 -6.56025e-05 -8.50056e-05 -0.000107609 -0.000133414 -0.00016242 -0.000194646 -0.000230112 -0.000268819 -0.000310767 -0.000355954 -0.000404383 -0.000456051 -0.00051096 -0.000568495 -0.000628038 -0.000689592 -0.000753155 -0.000818728 -0.000886311 -0.000955903 -0.0010275 -0.00110071 -0.00117512 -0.00125073 -0.00132755 -0.00140556 -0.00148478 -0.0015652 -0.00164682 -0.00172898 -0.00181101 -0.0018929 -0.00197466 -0.00205629 -0.00213779 -0.00221915 -0.00230039 -0.00237986 -0.00245596 -0.00252867 -0.002598 -0.00266395 -0.00272651 -0.00278569 -0.00284149 -0.00289222 -0.00293618 -0.00297338 -0.00300381 -0.00302749 -0.0030444 -0.00305454 -0.00305792 -0.00305454 -0.0030444 -0.00302749 -0.00300381 -0.00297338 -0.00293618 -0.00289222 -0.00284149 -0.00278569 -0.00272651 -0.00266395 -0.002598 -0.00252867 -0.00245596 -0.00237986 -0.00230039 -0.00221915 -0.00213779 -0.00205629 -0.00197466 -0.0018929 -0.00181101 -0.00172898 -0.00164682 -0.0015652 -0.00148478 -0.00140556 -0.00132755 -0.00125073 -0.00117512 -0.00110071 -0.0010275 -0.000955903 -0.00088631 -0.000818728 -0.000753155 -0.000689592 -0.000628038 -0.000568495 -0.00051096 -0.000456051 -0.000404383 -0.000355954 -0.000310767 -0.000268819 -0.000230112 -0.000194646 -0.00016242 -0.000133414 -0.000107609 -8.50056e-05 -6.56025e-05 -4.94002e-05 -3.63987e-05 -2.6598e-05 -1.99981e-05 -1.5311e-05 -1.12489e-05 -7.81176e-06 -4.99952e-06 -2.81223e-06 -1.24988e-06 -3.1247e-07 0 0 -4.88235e-07 -1.95294e-06 -4.39411e-06 -7.81175e-06 -1.22059e-05 -1.75764e-05 -2.39235e-05 -3.1247e-05 -4.15594e-05 -5.6873e-05 -7.71879e-05 -0.000102504 -0.000132821 -0.00016814 -0.00020846 -0.000253781 -0.000304134 -0.00035955 -0.00042003 -0.000485573 -0.000556179 -0.000631848 -0.00071258 -0.000798376 -0.000888273 -0.00098131 -0.00107749 -0.0011768 -0.00127926 -0.00138486 -0.0014936 -0.00160548 -0.00171986 -0.00183613 -0.00195427 -0.00207429 -0.00219619 -0.00231997 -0.00244563 -0.00257316 -0.00270153 -0.0028297 -0.00295766 -0.00308541 -0.00321296 -0.00334029 -0.00346743 -0.00359436 -0.00371854 -0.00383743 -0.00395105 -0.00405937 -0.00416241 -0.00426017 -0.00435264 -0.00443983 -0.00451909 -0.00458778 -0.0046459 -0.00469346 -0.00473045 -0.00475687 -0.00477272 -0.004778 -0.00477272 -0.00475687 -0.00473045 -0.00469346 -0.0046459 -0.00458778 -0.00451909 -0.00443983 -0.00435264 -0.00426017 -0.00416241 -0.00405937 -0.00395105 -0.00383743 -0.00371854 -0.00359436 -0.00346743 -0.00334029 -0.00321296 -0.00308541 -0.00295766 -0.0028297 -0.00270153 -0.00257316 -0.00244563 -0.00231997 -0.00219619 -0.00207429 -0.00195427 -0.00183613 -0.00171986 -0.00160548 -0.0014936 -0.00138486 -0.00127926 -0.0011768 -0.00107749 -0.00098131 -0.000888273 -0.000798376 -0.00071258 -0.000631848 -0.000556179 -0.000485573 -0.00042003 -0.00035955 -0.000304134 -0.000253781 -0.00020846 -0.00016814 -0.000132821 -0.000102504 -7.71879e-05 -5.6873e-05 -4.15594e-05 -3.1247e-05 -2.39235e-05 -1.75765e-05 -1.22059e-05 -7.81176e-06 -4.39411e-06 -1.95294e-06 -4.88235e-07 0 0 -7.03058e-07 -2.81223e-06 -6.32752e-06 -1.12489e-05 -1.75764e-05 -2.53101e-05 -3.44498e-05 -4.49957e-05 -5.98455e-05 -8.18971e-05 -0.000111151 -0.000147606 -0.000191263 -0.000242121 -0.000300182 -0.000365444 -0.000437953 -0.000517753 -0.000604843 -0.000699225 -0.000800897 -0.000909861 -0.00102612 -0.00114966 -0.00127911 -0.00141309 -0.00155158 -0.0016946 -0.00184214 -0.0019942 -0.00215078 -0.00231189 -0.0024766 -0.00264402 -0.00281415 -0.00298698 -0.00316252 -0.00334076 -0.00352171 -0.00370536 -0.00389021 -0.00407477 -0.00425903 -0.00444299 -0.00462666 -0.00481002 -0.0049931 -0.00517587 -0.00535469 -0.00552591 -0.00568951 -0.0058455 -0.00599388 -0.00613465 -0.0062678 -0.00639335 -0.00650749 -0.0066064 -0.0066901 -0.00675858 -0.00681184 -0.00684989 -0.00687272 -0.00688032 -0.00687272 -0.00684989 -0.00681184 -0.00675858 -0.0066901 -0.0066064 -0.00650749 -0.00639335 -0.0062678 -0.00613465 -0.00599388 -0.0058455 -0.00568951 -0.00552591 -0.00535469 -0.00517587 -0.0049931 -0.00481002 -0.00462666 -0.00444299 -0.00425903 -0.00407477 -0.00389021 -0.00370536 -0.00352171 -0.00334076 -0.00316252 -0.00298698 -0.00281415 -0.00264402 -0.0024766 -0.00231189 -0.00215078 -0.0019942 -0.00184214 -0.0016946 -0.00155158 -0.00141309 -0.00127911 -0.00114966 -0.00102612 -0.000909861 -0.000800897 -0.000699225 -0.000604843 -0.000517752 -0.000437953 -0.000365444 -0.000300182 -0.000242121 -0.000191263 -0.000147606 -0.000111151 -8.18971e-05 -5.98455e-05 -4.49957e-05 -3.44498e-05 -2.53101e-05 -1.75765e-05 -1.12489e-05 -6.32752e-06 -2.81223e-06 -7.03058e-07 0 0 -9.5694e-07 -3.82776e-06 -8.61246e-06 -1.5311e-05 -2.39235e-05 -3.44498e-05 -4.68901e-05 -6.12442e-05 -8.14564e-05 -0.000111471 -0.000151288 -0.000200908 -0.00026033 -0.000329554 -0.000408581 -0.00049741 -0.000596102 -0.000704719 -0.000823259 -0.000951723 -0.00109011 -0.00123842 -0.00139666 -0.00156482 -0.00174101 -0.00192337 -0.00211188 -0.00230654 -0.00250735 -0.00271433 -0.00292745 -0.00314673 -0.00337093 -0.00359881 -0.00383037 -0.00406562 -0.00430454 -0.00454715 -0.00479343 -0.0050434 -0.00529501 -0.00554621 -0.00579701 -0.0060474 -0.00629739 -0.00654698 -0.00679616 -0.00704494 -0.00728833 -0.00752137 -0.00774405 -0.00795637 -0.00815833 -0.00834993 -0.00853118 -0.00870206 -0.00885741 -0.00899205 -0.00910597 -0.00919918 -0.00927168 -0.00932346 -0.00935453 -0.00936489 -0.00935453 -0.00932346 -0.00927168 -0.00919918 -0.00910597 -0.00899205 -0.00885741 -0.00870206 -0.00853118 -0.00834993 -0.00815833 -0.00795637 -0.00774405 -0.00752137 -0.00728833 -0.00704494 -0.00679616 -0.00654698 -0.00629739 -0.0060474 -0.00579701 -0.00554621 -0.00529501 -0.0050434 -0.00479343 -0.00454715 -0.00430454 -0.00406562 -0.00383037 -0.00359881 -0.00337093 -0.00314673 -0.00292745 -0.00271433 -0.00250735 -0.00230654 -0.00211188 -0.00192337 -0.00174101 -0.00156482 -0.00139666 -0.00123842 -0.00109011 -0.000951723 -0.000823259 -0.000704719 -0.000596102 -0.00049741 -0.000408581 -0.000329554 -0.00026033 -0.000200908 -0.000151288 -0.000111471 -8.14564e-05 -6.12442e-05 -4.68901e-05 -3.44498e-05 -2.39235e-05 -1.5311e-05 -8.61246e-06 -3.82776e-06 -9.5694e-07 0 0 -1.24988e-06 -4.99952e-06 -1.12489e-05 -1.99981e-05 -3.1247e-05 -4.49957e-05 -6.12442e-05 -7.99924e-05 -0.000106392 -0.000145595 -0.000197601 -0.00026241 -0.000340022 -0.000430438 -0.000533657 -0.000649679 -0.000778583 -0.000920449 -0.00107528 -0.00124307 -0.00142382 -0.00161753 -0.00182421 -0.00204384 -0.00227398 -0.00251215 -0.00275837 -0.00301262 -0.00327491 -0.00354524 -0.00382361 -0.00411002 -0.00440285 -0.00470049 -0.00500294 -0.00531019 -0.00562226 -0.00593913 -0.00626081 -0.0065873 -0.00691593 -0.00724403 -0.0075716 -0.00789865 -0.00822516 -0.00855115 -0.00887662 -0.00920155 -0.00951946 -0.00982383 -0.0101147 -0.010392 -0.0106558 -0.010906 -0.0111428 -0.011366 -0.0115689 -0.0117447 -0.0118935 -0.0120153 -0.0121099 -0.0121776 -0.0122182 -0.0122317 -0.0122182 -0.0121776 -0.0121099 -0.0120153 -0.0118935 -0.0117447 -0.0115689 -0.011366 -0.0111428 -0.010906 -0.0106558 -0.010392 -0.0101147 -0.00982383 -0.00951946 -0.00920155 -0.00887662 -0.00855115 -0.00822516 -0.00789865 -0.0075716 -0.00724403 -0.00691593 -0.0065873 -0.00626081 -0.00593913 -0.00562226 -0.00531019 -0.00500294 -0.00470049 -0.00440285 -0.00411002 -0.00382361 -0.00354524 -0.00327491 -0.00301262 -0.00275837 -0.00251215 -0.00227398 -0.00204384 -0.00182421 -0.00161753 -0.00142382 -0.00124307 -0.00107528 -0.000920449 -0.000778583 -0.000649679 -0.000533657 -0.000430438 -0.000340022 -0.00026241 -0.000197601 -0.000145595 -0.000106392 -7.99924e-05 -6.12442e-05 -4.49957e-05 -3.1247e-05 -1.99981e-05 -1.12489e-05 -4.99952e-06 -1.24988e-06 0 0 -1.66238e-06 -6.6495e-06 -1.49614e-05 -2.6598e-05 -4.15594e-05 -5.98455e-05 -8.14564e-05 -0.000106392 -0.000141043 -0.000191801 -0.000258664 -0.000341634 -0.000440711 -0.000555893 -0.000687182 -0.000834577 -0.000997969 -0.00117725 -0.00137241 -0.00158347 -0.0018104 -0.00205323 -0.00231194 -0.00258654 -0.00287386 -0.00317072 -0.00347713 -0.00379309 -0.0041186 -0.00445365 -0.00479825 -0.00515239 -0.00551416 -0.00588163 -0.00625479 -0.00663365 -0.00701821 -0.00740847 -0.00780442 -0.00820608 -0.00861029 -0.00901394 -0.00941701 -0.00981951 -0.0102214 -0.0106228 -0.0110236 -0.0114238 -0.0118155 -0.0121906 -0.0125491 -0.0128911 -0.0132165 -0.0135253 -0.0138176 -0.0140933 -0.0143441 -0.0145614 -0.0147452 -0.0148957 -0.0150127 -0.0150963 -0.0151464 -0.0151631 -0.0151464 -0.0150963 -0.0150127 -0.0148957 -0.0147452 -0.0145614 -0.0143441 -0.0140933 -0.0138176 -0.0135253 -0.0132165 -0.0128911 -0.0125491 -0.0121906 -0.0118155 -0.0114238 -0.0110236 -0.0106228 -0.0102214 -0.00981951 -0.00941701 -0.00901394 -0.00861029 -0.00820608 -0.00780442 -0.00740847 -0.00701821 -0.00663365 -0.00625479 -0.00588163 -0.00551416 -0.00515239 -0.00479825 -0.00445365 -0.0041186 -0.00379309 -0.00347713 -0.00317072 -0.00287386 -0.00258654 -0.00231194 -0.00205323 -0.0018104 -0.00158347 -0.00137241 -0.00117725 -0.000997969 -0.000834577 -0.000687182 -0.000555893 -0.000440711 -0.000341634 -0.000258664 -0.000191801 -0.000141043 -0.000106392 -8.14564e-05 -5.98455e-05 -4.15594e-05 -2.6598e-05 -1.49614e-05 -6.6495e-06 -1.66238e-06 0 0 -2.27492e-06 -9.09968e-06 -2.04743e-05 -3.63987e-05 -5.6873e-05 -8.18971e-05 -0.000111471 -0.000145595 -0.000191801 -0.00025762 -0.000343054 -0.000448102 -0.000572764 -0.00071704 -0.00088093 -0.00106443 -0.00126684 -0.00148742 -0.00172618 -0.00198313 -0.00225826 -0.00255157 -0.00286306 -0.00319273 -0.00353652 -0.00389036 -0.00425425 -0.0046282 -0.0050122 -0.00540625 -0.00581035 -0.00622451 -0.00664668 -0.00707481 -0.00750889 -0.00794894 -0.00839495 -0.00884693 -0.00930486 -0.00976876 -0.0102354 -0.0107016 -0.0111674 -0.0116328 -0.0120977 -0.0125622 -0.0130263 -0.0134899 -0.0139438 -0.0143789 -0.0147951 -0.0151923 -0.0155707 -0.0159302 -0.0162708 -0.0165925 -0.0168853 -0.017139 -0.0173536 -0.0175293 -0.0176659 -0.0177635 -0.017822 -0.0178416 -0.017822 -0.0177635 -0.0176659 -0.0175293 -0.0173536 -0.017139 -0.0168853 -0.0165925 -0.0162708 -0.0159302 -0.0155707 -0.0151923 -0.0147951 -0.0143789 -0.0139438 -0.0134899 -0.0130263 -0.0125622 -0.0120977 -0.0116328 -0.0111674 -0.0107016 -0.0102354 -0.00976876 -0.00930486 -0.00884693 -0.00839495 -0.00794894 -0.00750889 -0.00707481 -0.00664668 -0.00622451 -0.00581035 -0.00540625 -0.0050122 -0.0046282 -0.00425425 -0.00389036 -0.00353652 -0.00319273 -0.00286306 -0.00255157 -0.00225826 -0.00198313 -0.00172618 -0.00148742 -0.00126684 -0.00106443 -0.00088093 -0.00071704 -0.000572764 -0.000448102 -0.000343054 -0.000257621 -0.000191801 -0.000145595 -0.000111471 -8.18971e-05 -5.6873e-05 -3.63987e-05 -2.04743e-05 -9.09968e-06 -2.27492e-06 0 0 -3.08751e-06 -1.23501e-05 -2.77876e-05 -4.94002e-05 -7.71878e-05 -0.00011115 -0.000151288 -0.000197601 -0.000258664 -0.000343054 -0.000450771 -0.000581814 -0.000736183 -0.000913879 -0.0011149 -0.00133925 -0.00158518 -0.00185096 -0.00213659 -0.00244206 -0.00276738 -0.00311254 -0.00347754 -0.00386239 -0.00426194 -0.00467105 -0.00508972 -0.00551794 -0.00595571 -0.00640304 -0.00685993 -0.00732637 -0.0078004 -0.00828002 -0.00876524 -0.00925606 -0.00975248 -0.0102545 -0.0107621 -0.0112753 -0.0117913 -0.0123071 -0.0128229 -0.0133385 -0.013854 -0.0143693 -0.0148846 -0.0153997 -0.0159045 -0.0163888 -0.0168525 -0.0172958 -0.0177185 -0.0181207 -0.0185023 -0.0188635 -0.0191924 -0.0194775 -0.0197187 -0.0199161 -0.0200696 -0.0201793 -0.0202451 -0.020267 -0.0202451 -0.0201793 -0.0200696 -0.0199161 -0.0197187 -0.0194775 -0.0191924 -0.0188635 -0.0185023 -0.0181207 -0.0177185 -0.0172958 -0.0168525 -0.0163888 -0.0159045 -0.0153997 -0.0148846 -0.0143693 -0.013854 -0.0133385 -0.0128229 -0.0123071 -0.0117913 -0.0112753 -0.0107621 -0.0102545 -0.00975248 -0.00925606 -0.00876524 -0.00828002 -0.0078004 -0.00732637 -0.00685993 -0.00640304 -0.00595571 -0.00551794 -0.00508972 -0.00467105 -0.00426194 -0.00386239 -0.00347754 -0.00311254 -0.00276738 -0.00244206 -0.00213659 -0.00185096 -0.00158518 -0.00133925 -0.0011149 -0.000913879 -0.000736183 -0.000581814 -0.000450771 -0.000343054 -0.000258664 -0.000197601 -0.000151288 -0.000111151 -7.71879e-05 -4.94002e-05 -2.77876e-05 -1.23501e-05 -3.08752e-06 0 0 -4.10016e-06 -1.64006e-05 -3.69014e-05 -6.56025e-05 -0.000102504 -0.000147606 -0.000200908 -0.00026241 -0.000341634 -0.000448102 -0.000581814 -0.000742768 -0.000930967 -0.00114641 -0.00138909 -0.00165902 -0.00195301 -0.00226788 -0.00260363 -0.00296025 -0.00333776 -0.00373614 -0.0041554 -0.00459554 -0.00505015 -0.00551281 -0.00598353 -0.00646231 -0.00694914 -0.00744403 -0.00794698 -0.00845798 -0.00897532 -0.00949727 -0.0100238 -0.010555 -0.0110908 -0.0116312 -0.0121762 -0.0127258 -0.013278 -0.0138305 -0.0143833 -0.0149366 -0.0154902 -0.0160442 -0.0165986 -0.0171533 -0.0176975 -0.0182203 -0.0187215 -0.0192014 -0.0196598 -0.0200967 -0.0205122 -0.0209062 -0.0212656 -0.021577 -0.0218405 -0.0220561 -0.0222238 -0.0223436 -0.0224155 -0.0224395 -0.0224155 -0.0223436 -0.0222238 -0.0220561 -0.0218405 -0.021577 -0.0212656 -0.0209062 -0.0205122 -0.0200967 -0.0196598 -0.0192014 -0.0187215 -0.0182203 -0.0176975 -0.0171533 -0.0165986 -0.0160442 -0.0154902 -0.0149366 -0.0143833 -0.0138305 -0.013278 -0.0127258 -0.0121762 -0.0116312 -0.0110908 -0.010555 -0.0100238 -0.00949727 -0.00897532 -0.00845798 -0.00794698 -0.00744403 -0.00694914 -0.00646231 -0.00598353 -0.00551281 -0.00505015 -0.00459554 -0.0041554 -0.00373614 -0.00333776 -0.00296025 -0.00260363 -0.00226788 -0.00195301 -0.00165902 -0.00138909 -0.00114641 -0.000930967 -0.000742769 -0.000581814 -0.000448102 -0.000341634 -0.00026241 -0.000200908 -0.000147606 -0.000102504 -6.56025e-05 -3.69014e-05 -1.64006e-05 -4.10016e-06 0 0 -5.31285e-06 -2.12514e-05 -4.78156e-05 -8.50056e-05 -0.000132821 -0.000191263 -0.00026033 -0.000340022 -0.000440711 -0.000572764 -0.000736183 -0.000930967 -0.00115712 -0.00141463 -0.00170351 -0.00202376 -0.00237032 -0.00273817 -0.0031273 -0.00353771 -0.00396941 -0.00442238 -0.00489664 -0.00539217 -0.00590113 -0.00641563 -0.0069357 -0.00746131 -0.00799248 -0.00852921 -0.00907149 -0.00961933 -0.0101714 -0.0107266 -0.0112847 -0.0118458 -0.0124099 -0.012977 -0.0135471 -0.0141202 -0.0146954 -0.0152716 -0.0158488 -0.0164271 -0.0170064 -0.0175868 -0.0181682 -0.0187507 -0.0193228 -0.0198733 -0.0204021 -0.0209092 -0.0213946 -0.0218583 -0.0223004 -0.0227208 -0.0231047 -0.0234375 -0.023719 -0.0239494 -0.0241286 -0.0242565 -0.0243333 -0.0243589 -0.0243333 -0.0242565 -0.0241286 -0.0239494 -0.023719 -0.0234375 -0.0231047 -0.0227208 -0.0223004 -0.0218583 -0.0213946 -0.0209092 -0.0204021 -0.0198733 -0.0193228 -0.0187507 -0.0181682 -0.0175868 -0.0170064 -0.0164271 -0.0158488 -0.0152716 -0.0146954 -0.0141202 -0.0135471 -0.012977 -0.0124099 -0.0118458 -0.0112847 -0.0107266 -0.0101714 -0.00961933 -0.00907149 -0.00852921 -0.00799248 -0.00746131 -0.0069357 -0.00641563 -0.00590112 -0.00539217 -0.00489664 -0.00442238 -0.00396941 -0.00353772 -0.0031273 -0.00273817 -0.00237032 -0.00202376 -0.00170351 -0.00141463 -0.00115712 -0.000930967 -0.000736183 -0.000572764 -0.000440711 -0.000340023 -0.00026033 -0.000191263 -0.000132821 -8.50056e-05 -4.78157e-05 -2.12514e-05 -5.31285e-06 0 0 -6.72559e-06 -2.69024e-05 -6.05303e-05 -0.000107609 -0.00016814 -0.000242121 -0.000329554 -0.000430438 -0.000555893 -0.00071704 -0.000913879 -0.00114641 -0.00141463 -0.00171854 -0.00205815 -0.00243345 -0.00283712 -0.00326184 -0.00370761 -0.00417444 -0.00466232 -0.00517126 -0.00570124 -0.00625228 -0.00681488 -0.00737952 -0.00794621 -0.00851495 -0.00908574 -0.00965858 -0.0102335 -0.0108104 -0.0113888 -0.0119679 -0.0125477 -0.0131284 -0.0137098 -0.0142919 -0.0148749 -0.0154585 -0.0160436 -0.0166305 -0.0172193 -0.01781 -0.0184026 -0.0189971 -0.0195935 -0.0201918 -0.0207805 -0.0213479 -0.0218941 -0.0224191 -0.022923 -0.0234056 -0.0238669 -0.0243071 -0.0247098 -0.0250589 -0.0253542 -0.0255958 -0.0257838 -0.025918 -0.0259985 -0.0260254 -0.0259985 -0.025918 -0.0257838 -0.0255958 -0.0253542 -0.0250589 -0.0247098 -0.0243071 -0.0238669 -0.0234056 -0.022923 -0.0224191 -0.0218941 -0.0213479 -0.0207805 -0.0201918 -0.0195935 -0.0189971 -0.0184026 -0.01781 -0.0172193 -0.0166305 -0.0160436 -0.0154585 -0.0148749 -0.0142919 -0.0137098 -0.0131284 -0.0125477 -0.0119679 -0.0113888 -0.0108104 -0.0102335 -0.00965858 -0.00908574 -0.00851495 -0.00794621 -0.00737952 -0.00681488 -0.00625228 -0.00570124 -0.00517126 -0.00466232 -0.00417444 -0.00370761 -0.00326184 -0.00283712 -0.00243345 -0.00205815 -0.00171854 -0.00141463 -0.00114641 -0.000913879 -0.00071704 -0.000555893 -0.000430438 -0.000329554 -0.000242121 -0.00016814 -0.00010761 -6.05304e-05 -2.69024e-05 -6.7256e-06 0 0 -8.33838e-06 -3.33535e-05 -7.50454e-05 -0.000133414 -0.00020846 -0.000300182 -0.000408581 -0.000533656 -0.000687182 -0.00088093 -0.0011149 -0.00138909 -0.00170351 -0.00205815 -0.00245301 -0.00288809 -0.00335339 -0.00383887 -0.00434456 -0.00487043 -0.0054165 -0.00598277 -0.00656923 -0.00717588 -0.0077914 -0.00840447 -0.00901507 -0.00962322 -0.0102289 -0.0108322 -0.0114329 -0.0120312 -0.0126273 -0.0132212 -0.0138131 -0.0144028 -0.0149904 -0.015576 -0.0161594 -0.0167407 -0.0173225 -0.0179072 -0.0184948 -0.0190853 -0.0196788 -0.0202752 -0.0208745 -0.0214767 -0.0220704 -0.0226441 -0.0231977 -0.0237313 -0.0242448 -0.0247383 -0.0252118 -0.0256652 -0.0260809 -0.0264412 -0.026746 -0.0269955 -0.0271895 -0.027328 -0.0274112 -0.0274389 -0.0274112 -0.027328 -0.0271895 -0.0269955 -0.026746 -0.0264412 -0.0260809 -0.0256652 -0.0252118 -0.0247383 -0.0242448 -0.0237313 -0.0231977 -0.0226441 -0.0220704 -0.0214767 -0.0208745 -0.0202752 -0.0196788 -0.0190853 -0.0184948 -0.0179072 -0.0173225 -0.0167407 -0.0161594 -0.015576 -0.0149904 -0.0144028 -0.0138131 -0.0132212 -0.0126273 -0.0120312 -0.0114329 -0.0108322 -0.0102289 -0.00962322 -0.00901507 -0.00840447 -0.0077914 -0.00717588 -0.00656923 -0.00598277 -0.0054165 -0.00487043 -0.00434456 -0.00383887 -0.00335339 -0.0028881 -0.00245301 -0.00205815 -0.00170351 -0.00138909 -0.0011149 -0.000880931 -0.000687182 -0.000533657 -0.000408581 -0.000300182 -0.00020846 -0.000133414 -7.50455e-05 -3.33536e-05 -8.33839e-06 0 0 -1.01512e-05 -4.06049e-05 -9.1361e-05 -0.00016242 -0.000253781 -0.000365444 -0.00049741 -0.000649678 -0.000834577 -0.00106443 -0.00133925 -0.00165902 -0.00202376 -0.00243345 -0.00288809 -0.0033877 -0.00391914 -0.00446928 -0.00503813 -0.00562569 -0.00623195 -0.00685691 -0.00750058 -0.00816296 -0.0088307 -0.00949048 -0.0101423 -0.0107861 -0.011422 -0.0120499 -0.0126699 -0.0132818 -0.013887 -0.0144866 -0.0150806 -0.0156691 -0.0162519 -0.0168291 -0.0174008 -0.0179669 -0.0185322 -0.0191017 -0.0196753 -0.020253 -0.0208349 -0.021421 -0.0220111 -0.0226054 -0.0231927 -0.0237618 -0.0243128 -0.0248456 -0.0253602 -0.0258567 -0.026335 -0.0267951 -0.027218 -0.0275845 -0.0278946 -0.0281483 -0.0283456 -0.0284866 -0.0285712 -0.0285994 -0.0285712 -0.0284866 -0.0283456 -0.0281483 -0.0278946 -0.0275845 -0.027218 -0.0267951 -0.026335 -0.0258567 -0.0253602 -0.0248456 -0.0243128 -0.0237618 -0.0231927 -0.0226054 -0.0220111 -0.021421 -0.0208349 -0.020253 -0.0196753 -0.0191017 -0.0185322 -0.0179669 -0.0174008 -0.0168291 -0.0162519 -0.0156691 -0.0150806 -0.0144866 -0.013887 -0.0132818 -0.0126699 -0.0120499 -0.011422 -0.0107861 -0.0101423 -0.00949048 -0.0088307 -0.00816296 -0.00750058 -0.00685691 -0.00623195 -0.00562569 -0.00503813 -0.00446928 -0.00391914 -0.0033877 -0.0028881 -0.00243345 -0.00202376 -0.00165902 -0.00133925 -0.00106443 -0.000834578 -0.000649679 -0.00049741 -0.000365444 -0.000253781 -0.00016242 -9.13611e-05 -4.06049e-05 -1.01512e-05 0 0 -1.21654e-05 -4.86614e-05 -0.000109488 -0.000194646 -0.000304134 -0.000437953 -0.000596102 -0.000778583 -0.000997969 -0.00126684 -0.00158518 -0.00195301 -0.00237032 -0.00283711 -0.00335339 -0.00391914 -0.00451743 -0.0051313 -0.00576075 -0.00640579 -0.00706642 -0.00774262 -0.00843442 -0.0091418 -0.00984913 -0.0105408 -0.0112168 -0.0118771 -0.0125218 -0.0131508 -0.0137641 -0.0143617 -0.0149463 -0.0155204 -0.016084 -0.0166372 -0.0171798 -0.017712 -0.0182338 -0.018745 -0.0192539 -0.0197686 -0.0202889 -0.020815 -0.0213469 -0.0218844 -0.0224278 -0.0229768 -0.0235216 -0.024052 -0.0245682 -0.02507 -0.0255575 -0.0260307 -0.0264895 -0.0269341 -0.0273441 -0.0276995 -0.0280002 -0.0282462 -0.0284375 -0.0285742 -0.0286562 -0.0286836 -0.0286562 -0.0285742 -0.0284375 -0.0282462 -0.0280002 -0.0276995 -0.0273441 -0.0269341 -0.0264895 -0.0260307 -0.0255575 -0.02507 -0.0245682 -0.024052 -0.0235216 -0.0229768 -0.0224278 -0.0218844 -0.0213469 -0.020815 -0.0202889 -0.0197686 -0.0192539 -0.018745 -0.0182338 -0.017712 -0.0171798 -0.0166372 -0.016084 -0.0155204 -0.0149463 -0.0143617 -0.0137641 -0.0131508 -0.0125218 -0.0118771 -0.0112168 -0.0105408 -0.00984913 -0.0091418 -0.00843442 -0.00774262 -0.00706642 -0.00640579 -0.00576075 -0.0051313 -0.00451743 -0.00391914 -0.00335339 -0.00283712 -0.00237032 -0.00195301 -0.00158519 -0.00126684 -0.000997969 -0.000778583 -0.000596103 -0.000437953 -0.000304134 -0.000194646 -0.000109488 -4.86614e-05 -1.21654e-05 0 0 -1.4382e-05 -5.7528e-05 -0.000129438 -0.000230112 -0.00035955 -0.000517752 -0.000704718 -0.000920449 -0.00117725 -0.00148742 -0.00185096 -0.00226788 -0.00273817 -0.00326184 -0.00383887 -0.00446928 -0.0051313 -0.00580314 -0.00648482 -0.00717633 -0.00787767 -0.00858884 -0.00930984 -0.0100407 -0.010763 -0.0114587 -0.0121275 -0.0127696 -0.013385 -0.0139736 -0.0145354 -0.0150705 -0.0155834 -0.0160789 -0.0165568 -0.0170171 -0.01746 -0.0178853 -0.0182931 -0.0186834 -0.0190689 -0.0194624 -0.0198637 -0.0202731 -0.0206903 -0.0211156 -0.0215487 -0.0219898 -0.0224313 -0.0228655 -0.0232925 -0.0237123 -0.0241249 -0.0245302 -0.0249283 -0.0253192 -0.0256822 -0.0259969 -0.0262631 -0.0264809 -0.0266504 -0.0267714 -0.026844 -0.0268682 -0.026844 -0.0267714 -0.0266504 -0.0264809 -0.0262631 -0.0259969 -0.0256822 -0.0253192 -0.0249283 -0.0245302 -0.0241249 -0.0237123 -0.0232925 -0.0228655 -0.0224313 -0.0219898 -0.0215487 -0.0211156 -0.0206903 -0.0202731 -0.0198637 -0.0194624 -0.0190689 -0.0186834 -0.0182931 -0.0178853 -0.01746 -0.0170171 -0.0165568 -0.0160789 -0.0155834 -0.0150705 -0.0145354 -0.0139736 -0.013385 -0.0127696 -0.0121275 -0.0114587 -0.0107631 -0.0100407 -0.00930984 -0.00858884 -0.00787767 -0.00717633 -0.00648482 -0.00580314 -0.0051313 -0.00446929 -0.00383888 -0.00326184 -0.00273817 -0.00226788 -0.00185096 -0.00148742 -0.00117725 -0.000920449 -0.000704719 -0.000517753 -0.000359551 -0.000230112 -0.000129438 -5.75281e-05 -1.4382e-05 0 0 -1.68012e-05 -6.72048e-05 -0.000151211 -0.000268819 -0.00042003 -0.000604843 -0.000823258 -0.00107528 -0.00137241 -0.00172618 -0.00213659 -0.00260363 -0.0031273 -0.00370761 -0.00434456 -0.00503813 -0.00576075 -0.00648482 -0.00721033 -0.00793729 -0.0086657 -0.00939555 -0.0101269 -0.0108596 -0.0115725 -0.0122441 -0.0128745 -0.0134637 -0.0140116 -0.0145184 -0.0149839 -0.0154082 -0.0157985 -0.0161621 -0.0164989 -0.016809 -0.0170924 -0.017349 -0.0175789 -0.017782 -0.0179772 -0.0181831 -0.0183998 -0.0186272 -0.0188654 -0.0191143 -0.019374 -0.0196445 -0.0199218 -0.0202023 -0.0204859 -0.0207726 -0.0210624 -0.0213553 -0.0216514 -0.0219505 -0.0222324 -0.0224767 -0.0226834 -0.0228526 -0.0229841 -0.0230781 -0.0231345 -0.0231533 -0.0231345 -0.0230781 -0.0229841 -0.0228526 -0.0226834 -0.0224767 -0.0222324 -0.0219505 -0.0216514 -0.0213553 -0.0210624 -0.0207726 -0.0204859 -0.0202023 -0.0199218 -0.0196445 -0.019374 -0.0191143 -0.0188654 -0.0186272 -0.0183998 -0.0181831 -0.0179772 -0.017782 -0.0175789 -0.017349 -0.0170924 -0.016809 -0.0164989 -0.0161621 -0.0157985 -0.0154082 -0.0149839 -0.0145184 -0.0140116 -0.0134637 -0.0128745 -0.0122441 -0.0115725 -0.0108596 -0.0101269 -0.00939555 -0.0086657 -0.00793729 -0.00721033 -0.00648482 -0.00576075 -0.00503813 -0.00434456 -0.00370761 -0.0031273 -0.00260363 -0.00213659 -0.00172618 -0.00137241 -0.00107528 -0.000823259 -0.000604843 -0.00042003 -0.000268819 -0.000151211 -6.72048e-05 -1.68012e-05 0 0 -1.94229e-05 -7.76916e-05 -0.000174806 -0.000310766 -0.000485573 -0.000699224 -0.000951722 -0.00124307 -0.00158346 -0.00198313 -0.00244206 -0.00296025 -0.00353771 -0.00417444 -0.00487043 -0.00562569 -0.00640579 -0.00717633 -0.00793729 -0.00868868 -0.00943051 -0.0101628 -0.0108854 -0.0115986 -0.0122774 -0.0128971 -0.0134577 -0.0139593 -0.0144018 -0.0147852 -0.0151095 -0.0153747 -0.0155914 -0.01577 -0.0159104 -0.0160127 -0.0160769 -0.016103 -0.016091 -0.0160408 -0.0159787 -0.0159308 -0.015897 -0.0158774 -0.015872 -0.0158807 -0.0159036 -0.0159407 -0.0159932 -0.0160624 -0.0161483 -0.0162508 -0.0163701 -0.0165061 -0.0166587 -0.016828 -0.0169946 -0.017139 -0.0172611