<?xml version="1.0"?> 
<VTKFile type="StructuredGrid" version="0.1"> 
<StructuredGrid WholeExtent="0 128 0 128 0 0"> 
<Piece Extent="0 128 0 128 0 0"> 
<PointData>
<DataArray type="Float32" Name="u" format="ascii" NumberOfComponents="1"> 
0 0 0 0 0 0 0 0 0 0 0 0 0 0 0 0 0 0 0 0 0 0 0 0 0 0 0 0 0 0 0 0 0 0 0 0 0 0 0 0 0 0 0 0 0 0 0 0 0 0 0 0 0 0 0 0 0 0 0 0 0 0 0 0 0 0 0 0 0 0 0 0 0 0 0 0 0 0 0 0 0 0 0 0 0 0 0 0 0 0 0 0 0 0 0 0 0 0 0 0 0 0 0 0 0 0 0 0 0 0 0 0 0 0 0 0 0 0 0 0 0 0 0 0 0 0 0 0 0 0 -6.3637e-08 -2.54548e-07 -5.72733e-07 -1.01819e-06 -1.59093e-06 -2.29093e-06 -3.11821e-06 -4.07277e-06 -5.17545e-06 -6.44711e-06 -7.88775e-06 -9.49738e-06 -1.1276e-05 -1.32236e-05 -1.53401e-05 -1.76257e-05 -1.99733e-05 -2.22761e-05 -2.4534e-05 -2.67471e-05 -2.89154e-05 -3.10389e-05 -3.31175e-05 -3.51513e-05 -3.70722e-05 -3.88123e-05 -4.03715e-05 -4.17498e-05 -4.29472e-05 -4.39638e-05 -4.47994e-05 -4.54542e-05 -4.59174e-05 -4.61783e-05 -4.62369e-05 -4.60932e-05 -4.57472e-05 -4.51988e-05 -4.44482e-05 -4.34953e-05 -4.23862e-05 -4.1167e-05 -3.98379e-05 -3.83988e-05 -3.68497e-05 -3.51905e-05 -3.34214e-05 -3.15422e-05 -2.96355e-05 -2.77838e-05 -2.59869e-05 -2.4245e-05 -2.25581e-05 -2.09261e-05 -1.9349e-05 -1.78269e-05 -1.64256e-05 -1.52112e-05 -1.41836e-05 -1.33429e-05 -1.2689e-05 -1.22219e-05 -1.19416e-05 -1.18482e-05 -1.19416e-05 -1.22219e-05 -1.2689e-05 -1.33429e-05 -1.41836e-05 -1.52112e-05 -1.64256e-05 -1.78269e-05 -1.9349e-05 -2.09261e-05 -2.25581e-05 -2.4245e-05 -2.59869e-05 -2.77838e-05 -2.96355e-05 -3.15422e-05 -3.34214e-05 -3.51905e-05 -3.68497e-05 -3.83988e-05 -3.98379e-05 -4.1167e-05 -4.23862e-05 -4.34953e-05 -4.44482e-05 -4.51988e-05 -4.57472e-05 -4.60932e-05 -4.62369e-05 -4.61783e-05 -4.59174e-05 -4.54542e-05 -4.47994e-05 -4.39638e-05 -4.29472e-05 -4.17498e-05 -4.03715e-05 -3.88123e-05 -3.70722e-05 -3.51513e-05 -3.31175e-05 -3.10389e-05 -2.89154e-05 -2.67471e-05 -2.4534e-05 -2.22761e-05 -1.99733e-05 -1.76257e-05 -1.53401e-05 -1.32236e-05 -1.1276e-05 -9.49738e-06 -7.88776e-06 -6.44712e-06 -5.17546e-06 -4.07277e-06 -3.11822e-06 -2.29093e-06 -1.59093e-06 -1.01819e-06 -5.72734e-07 -2.54548e-07 -6.36371e-08 0 0 -2.54548e-07 -1.01819e-06 -2.29093e-06 -4.07277e-06 -6.3637e-06 -9.16373e-06 -1.24729e-05 -1.62911e-05 -2.07018e-05 -2.57885e-05 -3.1551e-05 -3.79895e-05 -4.51039e-05 -5.28942e-05 -6.13605e-05 -7.05026e-05 -7.98931e-05 -8.91042e-05 -9.8136e-05 -0.000106989 -0.000115662 -0.000124156 -0.00013247 -0.000140605 -0.000148289 -0.000155249 -0.000161486 -0.000166999 -0.000171789 -0.000175855 -0.000179198 -0.000181817 -0.00018367 -0.000184713 -0.000184948 -0.000184373 -0.000182989 -0.000180795 -0.000177793 -0.000173981 -0.000169545 -0.000164668 -0.000159352 -0.000153595 -0.000147399 -0.000140762 -0.000133685 -0.000126169 -0.000118542 -0.000111135 -0.000103948 -9.69802e-05 -9.02324e-05 -8.37044e-05 -7.73961e-05 -7.13075e-05 -6.57025e-05 -6.08449e-05 -5.67345e-05 -5.33715e-05 -5.07558e-05 -4.88875e-05 -4.77665e-05 -4.73928e-05 -4.77665e-05 -4.88875e-05 -5.07558e-05 -5.33715e-05 -5.67345e-05 -6.08448e-05 -6.57025e-05 -7.13075e-05 -7.73961e-05 -8.37044e-05 -9.02324e-05 -9.69802e-05 -0.000103948 -0.000111135 -0.000118542 -0.000126169 -0.000133685 -0.000140762 -0.000147399 -0.000153595 -0.000159352 -0.000164668 -0.000169545 -0.000173981 -0.000177793 -0.000180795 -0.000182989 -0.000184373 -0.000184948 -0.000184713 -0.00018367 -0.000181817 -0.000179198 -0.000175855 -0.000171789 -0.000166999 -0.000161486 -0.000155249 -0.000148289 -0.000140605 -0.00013247 -0.000124156 -0.000115662 -0.000106989 -9.81361e-05 -8.91043e-05 -7.98931e-05 -7.05027e-05 -6.13605e-05 -5.28943e-05 -4.51039e-05 -3.79895e-05 -3.1551e-05 -2.57885e-05 -2.07018e-05 -1.62911e-05 -1.24729e-05 -9.16374e-06 -6.36371e-06 -4.07277e-06 -2.29093e-06 -1.01819e-06 -2.54548e-07 0 0 -5.72733e-07 -2.29093e-06 -5.1546e-06 -9.16373e-06 -1.43183e-05 -2.06184e-05 -2.80639e-05 -3.66549e-05 -4.65791e-05 -5.8024e-05 -7.09898e-05 -8.54764e-05 -0.000101484 -0.000119012 -0.000138061 -0.000158631 -0.000179759 -0.000200485 -0.000220806 -0.000240724 -0.000260239 -0.00027935 -0.000298058 -0.000316362 -0.00033365 -0.000349311 -0.000363343 -0.000375748 -0.000386525 -0.000395674 -0.000403195 -0.000409088 -0.000413257 -0.000415605 -0.000416132 -0.000414839 -0.000411724 -0.00040679 -0.000400034 -0.000391457 -0.000381475 -0.000370503 -0.000358541 -0.000345589 -0.000331647 -0.000316715 -0.000300792 -0.00028388 -0.00026672 -0.000250054 -0.000233882 -0.000218205 -0.000203023 -0.000188335 -0.000174141 -0.000160442 -0.000147831 -0.000136901 -0.000127653 -0.000120086 -0.000114201 -0.000109997 -0.000107475 -0.000106634 -0.000107475 -0.000109997 -0.000114201 -0.000120086 -0.000127653 -0.000136901 -0.000147831 -0.000160442 -0.000174141 -0.000188335 -0.000203023 -0.000218205 -0.000233882 -0.000250054 -0.00026672 -0.00028388 -0.000300792 -0.000316715 -0.000331647 -0.000345589 -0.000358541 -0.000370503 -0.000381475 -0.000391457 -0.000400034 -0.00040679 -0.000411724 -0.000414839 -0.000416132 -0.000415605 -0.000413257 -0.000409088 -0.000403195 -0.000395674 -0.000386525 -0.000375748 -0.000363343 -0.000349311 -0.00033365 -0.000316362 -0.000298058 -0.00027935 -0.000260239 -0.000240724 -0.000220806 -0.000200485 -0.00017976 -0.000158631 -0.000138061 -0.000119012 -0.000101484 -8.54764e-05 -7.09898e-05 -5.80241e-05 -4.65791e-05 -3.6655e-05 -2.80639e-05 -2.06184e-05 -1.43183e-05 -9.16374e-06 -5.1546e-06 -2.29093e-06 -5.72734e-07 0 0 -1.01819e-06 -4.07277e-06 -9.16373e-06 -1.62911e-05 -2.54548e-05 -3.66549e-05 -4.98914e-05 -6.51643e-05 -8.28072e-05 -0.000103154 -0.000126204 -0.000151958 -0.000180416 -0.000211577 -0.000245442 -0.000282011 -0.000319572 -0.000356417 -0.000392544 -0.000427954 -0.000462647 -0.000496622 -0.00052988 -0.000562421 -0.000593156 -0.000620997 -0.000645944 -0.000667997 -0.000687155 -0.00070342 -0.000716791 -0.000727268 -0.000734679 -0.000738853 -0.000739791 -0.000737491 -0.000731955 -0.000723181 -0.000711171 -0.000695924 -0.000678178 -0.000658673 -0.000637407 -0.000614381 -0.000589595 -0.000563048 -0.000534742 -0.000504675 -0.000474168 -0.00044454 -0.000415791 -0.000387921 -0.00036093 -0.000334817 -0.000309584 -0.00028523 -0.00026281 -0.000243379 -0.000226938 -0.000213486 -0.000203023 -0.00019555 -0.000191066 -0.000189571 -0.000191066 -0.00019555 -0.000203023 -0.000213486 -0.000226938 -0.000243379 -0.00026281 -0.00028523 -0.000309584 -0.000334817 -0.00036093 -0.000387921 -0.000415791 -0.00044454 -0.000474168 -0.000504675 -0.000534742 -0.000563048 -0.000589595 -0.000614381 -0.000637407 -0.000658673 -0.000678178 -0.000695924 -0.000711171 -0.000723181 -0.000731955 -0.000737491 -0.000739791 -0.000738853 -0.000734679 -0.000727268 -0.000716791 -0.00070342 -0.000687155 -0.000667997 -0.000645944 -0.000620997 -0.000593156 -0.000562421 -0.00052988 -0.000496622 -0.000462647 -0.000427954 -0.000392544 -0.000356417 -0.000319573 -0.000282011 -0.000245442 -0.000211577 -0.000180416 -0.000151958 -0.000126204 -0.000103154 -8.28073e-05 -6.51644e-05 -4.98915e-05 -3.6655e-05 -2.54548e-05 -1.62911e-05 -9.16374e-06 -4.07277e-06 -1.01819e-06 0 0 -1.59093e-06 -6.3637e-06 -1.43183e-05 -2.54548e-05 -3.97731e-05 -5.72733e-05 -7.79553e-05 -0.000101819 -0.000129386 -0.000161178 -0.000197194 -0.000237434 -0.000281899 -0.000330589 -0.000383503 -0.000440641 -0.000499332 -0.000556901 -0.00061335 -0.000668678 -0.000722885 -0.000775972 -0.000827938 -0.000878782 -0.000926806 -0.000970307 -0.00100929 -0.00104374 -0.00107368 -0.00109909 -0.00111999 -0.00113636 -0.00114794 -0.00115446 -0.00115592 -0.00115233 -0.00114368 -0.00112997 -0.0011112 -0.00108738 -0.00105965 -0.00102918 -0.000995948 -0.00095997 -0.000921242 -0.000879763 -0.000835534 -0.000788555 -0.000740888 -0.000694594 -0.000649673 -0.000606126 -0.000563953 -0.000523152 -0.000483725 -0.000445672 -0.000410641 -0.00038028 -0.000354591 -0.000333572 -0.000317224 -0.000305547 -0.000298541 -0.000296205 -0.000298541 -0.000305547 -0.000317224 -0.000333572 -0.000354591 -0.00038028 -0.000410641 -0.000445672 -0.000483725 -0.000523152 -0.000563952 -0.000606126 -0.000649673 -0.000694594 -0.000740888 -0.000788555 -0.000835534 -0.000879763 -0.000921242 -0.00095997 -0.000995948 -0.00102918 -0.00105965 -0.00108738 -0.0011112 -0.00112997 -0.00114368 -0.00115233 -0.00115592 -0.00115446 -0.00114794 -0.00113636 -0.00111999 -0.00109909 -0.00107368 -0.00104374 -0.00100929 -0.000970308 -0.000926806 -0.000878783 -0.000827938 -0.000775972 -0.000722886 -0.000668678 -0.00061335 -0.000556902 -0.000499332 -0.000440642 -0.000383503 -0.000330589 -0.0002819 -0.000237435 -0.000197194 -0.000161178 -0.000129386 -0.000101819 -7.79554e-05 -5.72734e-05 -3.97732e-05 -2.54548e-05 -1.43183e-05 -6.36371e-06 -1.59093e-06 0 0 -2.29093e-06 -9.16373e-06 -2.06184e-05 -3.66549e-05 -5.72733e-05 -8.24736e-05 -0.000112256 -0.00014662 -0.000186316 -0.000232096 -0.000283959 -0.000341906 -0.000405935 -0.000476048 -0.000552244 -0.000634524 -0.000719038 -0.000801938 -0.000883224 -0.000962897 -0.00104096 -0.0011174 -0.00119223 -0.00126545 -0.0013346 -0.00139724 -0.00145337 -0.00150299 -0.0015461 -0.0015827 -0.00161278 -0.00163635 -0.00165303 -0.00166242 -0.00166453 -0.00165935 -0.0016469 -0.00162716 -0.00160014 -0.00156583 -0.0015259 -0.00148201 -0.00143417 -0.00138236 -0.00132659 -0.00126686 -0.00120317 -0.00113552 -0.00106688 -0.00100022 -0.00093553 -0.000872822 -0.000812092 -0.000753339 -0.000696565 -0.000641768 -0.000591323 -0.000547604 -0.000510611 -0.000480344 -0.000456803 -0.000439988 -0.000429899 -0.000426536 -0.000429899 -0.000439988 -0.000456803 -0.000480344 -0.000510611 -0.000547604 -0.000591323 -0.000641768 -0.000696565 -0.000753339 -0.000812092 -0.000872822 -0.000935529 -0.00100022 -0.00106688 -0.00113552 -0.00120317 -0.00126686 -0.00132659 -0.00138236 -0.00143417 -0.00148201 -0.0015259 -0.00156583 -0.00160014 -0.00162716 -0.0016469 -0.00165935 -0.00166453 -0.00166242 -0.00165303 -0.00163635 -0.00161278 -0.0015827 -0.0015461 -0.00150299 -0.00145337 -0.00139724 -0.0013346 -0.00126545 -0.00119223 -0.0011174 -0.00104096 -0.000962897 -0.000883225 -0.000801938 -0.000719038 -0.000634524 -0.000552245 -0.000476048 -0.000405935 -0.000341906 -0.000283959 -0.000232096 -0.000186316 -0.00014662 -0.000112256 -8.24736e-05 -5.72734e-05 -3.6655e-05 -2.06184e-05 -9.16374e-06 -2.29093e-06 0 0 -3.11821e-06 -1.24729e-05 -2.80639e-05 -4.98914e-05 -7.79553e-05 -0.000112256 -0.000152792 -0.000199566 -0.000253597 -0.000315909 -0.0003865 -0.000465371 -0.000552523 -0.000647954 -0.000751666 -0.000863657 -0.00097869 -0.00109153 -0.00120217 -0.00131061 -0.00141686 -0.0015209 -0.00162276 -0.00172241 -0.00181654 -0.0019018 -0.0019782 -0.00204574 -0.00210441 -0.00215422 -0.00219517 -0.00222726 -0.00224995 -0.00226274 -0.00226561 -0.00225857 -0.00224161 -0.00221474 -0.00217796 -0.00213127 -0.00207692 -0.00201719 -0.00195206 -0.00188154 -0.00180563 -0.00172434 -0.00163765 -0.00154557 -0.00145214 -0.0013614 -0.00127336 -0.00118801 -0.00110535 -0.00102538 -0.000948102 -0.000873517 -0.000804856 -0.000745349 -0.000694998 -0.000653801 -0.000621759 -0.000598872 -0.00058514 -0.000580562 -0.00058514 -0.000598872 -0.000621759 -0.000653801 -0.000694998 -0.000745349 -0.000804856 -0.000873517 -0.000948102 -0.00102538 -0.00110535 -0.00118801 -0.00127336 -0.0013614 -0.00145214 -0.00154557 -0.00163765 -0.00172434 -0.00180563 -0.00188154 -0.00195206 -0.00201719 -0.00207692 -0.00213127 -0.00217796 -0.00221474 -0.00224161 -0.00225857 -0.00226561 -0.00226274 -0.00224995 -0.00222726 -0.00219517 -0.00215422 -0.00210441 -0.00204574 -0.0019782 -0.0019018 -0.00181654 -0.00172241 -0.00162276 -0.00152091 -0.00141686 -0.00131061 -0.00120217 -0.00109153 -0.000978691 -0.000863658 -0.000751666 -0.000647955 -0.000552523 -0.000465372 -0.0003865 -0.000315909 -0.000253597 -0.000199566 -0.000152793 -0.000112256 -7.79554e-05 -4.98915e-05 -2.80639e-05 -1.24729e-05 -3.11822e-06 0 0 -4.07277e-06 -1.62911e-05 -3.66549e-05 -6.51643e-05 -0.000101819 -0.00014662 -0.000199566 -0.000260657 -0.000331229 -0.000412615 -0.000504816 -0.000607832 -0.000721663 -0.000846308 -0.000981768 -0.00112804 -0.00127829 -0.00142567 -0.00157018 -0.00171182 -0.00185059 -0.00198649 -0.00211952 -0.00224968 -0.00237262 -0.00248399 -0.00258377 -0.00267199 -0.00274862 -0.00281368 -0.00286716 -0.00290907 -0.00293872 -0.00295541 -0.00295916 -0.00294996 -0.00292782 -0.00289273 -0.00284468 -0.0027837 -0.00271271 -0.00263469 -0.00254963 -0.00245752 -0.00235838 -0.00225219 -0.00213897 -0.0020187 -0.00189667 -0.00177816 -0.00166316 -0.00155168 -0.00144372 -0.00133927 -0.00123834 -0.00114092 -0.00105124 -0.000973518 -0.000907752 -0.000853944 -0.000812094 -0.0007822 -0.000764264 -0.000758286 -0.000764264 -0.0007822 -0.000812094 -0.000853944 -0.000907752 -0.000973518 -0.00105124 -0.00114092 -0.00123834 -0.00133927 -0.00144372 -0.00155168 -0.00166316 -0.00177816 -0.00189667 -0.0020187 -0.00213897 -0.00225219 -0.00235838 -0.00245752 -0.00254963 -0.00263469 -0.00271271 -0.0027837 -0.00284468 -0.00289273 -0.00292782 -0.00294996 -0.00295916 -0.00295541 -0.00293872 -0.00290907 -0.00286716 -0.00281368 -0.00274862 -0.00267199 -0.00258378 -0.00248399 -0.00237262 -0.00224968 -0.00211952 -0.00198649 -0.00185059 -0.00171182 -0.00157018 -0.00142567 -0.00127829 -0.00112804 -0.000981768 -0.000846308 -0.000721663 -0.000607833 -0.000504817 -0.000412616 -0.000331229 -0.000260657 -0.000199566 -0.00014662 -0.000101819 -6.51644e-05 -3.6655e-05 -1.62911e-05 -4.07277e-06 0 0 -5.17545e-06 -2.07018e-05 -4.65791e-05 -8.28072e-05 -0.000129386 -0.000186316 -0.000253597 -0.000331229 -0.000420808 -0.000523929 -0.000640594 -0.000770802 -0.000914553 -0.00107185 -0.00124268 -0.00142706 -0.00161625 -0.00180152 -0.00198287 -0.00216029 -0.00233379 -0.00250337 -0.00266903 -0.00283076 -0.00298303 -0.00312028 -0.00324252 -0.00334974 -0.00344195 -0.00351914 -0.00358132 -0.00362848 -0.0036598 -0.00367443 -0.00367238 -0.00365364 -0.00361822 -0.00356612 -0.00349733 -0.00341186 -0.00331358 -0.00320638 -0.00309025 -0.00296519 -0.00283121 -0.0026883 -0.00253646 -0.00237569 -0.00221288 -0.00205491 -0.00190177 -0.00175347 -0.00161 -0.00147137 -0.00133757 -0.00120862 -0.00108998 -0.000987169 -0.000900173 -0.000828994 -0.000773632 -0.000734088 -0.000710362 -0.000702453 -0.000710362 -0.000734088 -0.000773632 -0.000828994 -0.000900173 -0.000987169 -0.00108998 -0.00120862 -0.00133757 -0.00147137 -0.00161 -0.00175347 -0.00190177 -0.00205491 -0.00221288 -0.00237569 -0.00253646 -0.0026883 -0.00283121 -0.00296519 -0.00309025 -0.00320638 -0.00331358 -0.00341186 -0.00349733 -0.00356612 -0.00361822 -0.00365364 -0.00367238 -0.00367443 -0.0036598 -0.00362849 -0.00358132 -0.00351914 -0.00344195 -0.00334974 -0.00324252 -0.00312028 -0.00298303 -0.00283076 -0.00266903 -0.00250337 -0.00233379 -0.00216029 -0.00198287 -0.00180152 -0.00161626 -0.00142706 -0.00124268 -0.00107185 -0.000914554 -0.000770803 -0.000640595 -0.00052393 -0.000420808 -0.000331229 -0.000253597 -0.000186316 -0.000129386 -8.28073e-05 -4.65791e-05 -2.07018e-05 -5.17546e-06 0 0 -6.44711e-06 -2.57884e-05 -5.8024e-05 -0.000103154 -0.000161178 -0.000232096 -0.000315909 -0.000412615 -0.000523929 -0.000651564 -0.00079552 -0.000955796 -0.00113239 -0.00132531 -0.00153455 -0.00176011 -0.001991 -0.00221625 -0.00243586 -0.00264981 -0.00285812 -0.00306078 -0.00325779 -0.00344916 -0.00362793 -0.00378716 -0.00392685 -0.004047 -0.00414761 -0.00422868 -0.00429021 -0.00433219 -0.0043537 -0.00435378 -0.00433245 -0.0042897 -0.00422553 -0.00413994 -0.00403294 -0.00390451 -0.00375984 -0.00360411 -0.00343731 -0.00325944 -0.00307051 -0.00287051 -0.00265945 -0.00243732 -0.00221317 -0.00199607 -0.001786 -0.00158297 -0.00138698 -0.00119803 -0.00101612 -0.000841241 -0.000680594 -0.000541366 -0.000423558 -0.00032717 -0.000252201 -0.000198652 -0.000166523 -0.000155813 -0.000166523 -0.000198652 -0.000252201 -0.00032717 -0.000423558 -0.000541366 -0.000680594 -0.000841241 -0.00101612 -0.00119803 -0.00138698 -0.00158297 -0.001786 -0.00199607 -0.00221317 -0.00243732 -0.00265945 -0.00287051 -0.00307051 -0.00325944 -0.00343731 -0.00360411 -0.00375984 -0.00390451 -0.00403294 -0.00413994 -0.00422553 -0.0042897 -0.00433245 -0.00435378 -0.0043537 -0.00433219 -0.00429021 -0.00422868 -0.00414761 -0.00404701 -0.00392686 -0.00378716 -0.00362793 -0.00344916 -0.00325779 -0.00306078 -0.00285812 -0.00264981 -0.00243586 -0.00221625 -0.00199101 -0.00176011 -0.00153455 -0.00132531 -0.00113239 -0.000955797 -0.00079552 -0.000651565 -0.00052393 -0.000412616 -0.000315909 -0.000232096 -0.000161178 -0.000103154 -5.80241e-05 -2.57885e-05 -6.44712e-06 0 0 -7.88775e-06 -3.1551e-05 -7.09898e-05 -0.000126204 -0.000197194 -0.000283959 -0.0003865 -0.000504816 -0.000640594 -0.00079552 -0.000969593 -0.00116281 -0.00137518 -0.0016067 -0.00185736 -0.00212718 -0.00240254 -0.00266986 -0.00292914 -0.00318037 -0.00342356 -0.00365871 -0.00388581 -0.00410487 -0.00430734 -0.00448464 -0.00463679 -0.00476378 -0.00486562 -0.0049423 -0.00499382 -0.00502019 -0.00502041 -0.00499347 -0.00493938 -0.00485814 -0.00474974 -0.00461419 -0.00445149 -0.00426164 -0.00405148 -0.00382787 -0.00359079 -0.00334026 -0.00307628 -0.00279883 -0.00250793 -0.00220358 -0.00189755 -0.00160165 -0.00131587 -0.00104021 -0.000774671 -0.000519257 -0.000273966 -3.87965e-05 0.00017693 0.000363892 0.000522092 0.000651527 0.0007522 0.000824108 0.000867254 0.000881635 0.000867254 0.000824108 0.0007522 0.000651527 0.000522092 0.000363893 0.00017693 -3.87963e-05 -0.000273965 -0.000519257 -0.000774671 -0.00104021 -0.00131587 -0.00160165 -0.00189755 -0.00220357 -0.00250793 -0.00279883 -0.00307628 -0.00334026 -0.00359079 -0.00382787 -0.00405148 -0.00426164 -0.00445149 -0.00461419 -0.00474974 -0.00485814 -0.00493938 -0.00499347 -0.00502041 -0.00502019 -0.00499383 -0.0049423 -0.00486562 -0.00476378 -0.00463679 -0.00448464 -0.00430734 -0.00410488 -0.00388582 -0.00365871 -0.00342356 -0.00318037 -0.00292914 -0.00266986 -0.00240254 -0.00212718 -0.00185736 -0.0016067 -0.00137518 -0.00116282 -0.000969594 -0.000795521 -0.000640595 -0.000504817 -0.0003865 -0.000283959 -0.000197194 -0.000126204 -7.09899e-05 -3.1551e-05 -7.88776e-06 0 0 -9.49737e-06 -3.79895e-05 -8.54764e-05 -0.000151958 -0.000237434 -0.000341905 -0.000465371 -0.000607832 -0.000770802 -0.000955796 -0.00116281 -0.00139186 -0.00164292 -0.00191601 -0.00221113 -0.00252827 -0.00285086 -0.00316234 -0.00346272 -0.00375198 -0.00403013 -0.00429716 -0.00455309 -0.00479791 -0.00502124 -0.00521271 -0.00537232 -0.00550007 -0.00559597 -0.00566 -0.00569217 -0.00569249 -0.00565993 -0.00559349 -0.00549316 -0.00535895 -0.00519085 -0.00498887 -0.004753 -0.00448325 -0.00418851 -0.00387766 -0.00355071 -0.00320767 -0.00284852 -0.00247327 -0.00208192 -0.00167447 -0.00126601 -0.000871638 -0.000491357 -0.000125165 0.000226939 0.000564954 0.00088888 0.00119872 0.00148259 0.00172861 0.00193678 0.0021071 0.00223957 0.00233419 0.00239097 0.00240989 0.00239097 0.00233419 0.00223957 0.0021071 0.00193678 0.00172861 0.00148259 0.00119872 0.00088888 0.000564954 0.000226939 -0.000125164 -0.000491356 -0.000871637 -0.00126601 -0.00167446 -0.00208192 -0.00247327 -0.00284852 -0.00320767 -0.00355071 -0.00387766 -0.00418851 -0.00448325 -0.004753 -0.00498887 -0.00519085 -0.00535895 -0.00549316 -0.00559349 -0.00565993 -0.00569249 -0.00569217 -0.00566 -0.00559597 -0.00550007 -0.00537232 -0.00521271 -0.00502124 -0.00479791 -0.00455309 -0.00429717 -0.00403013 -0.00375198 -0.00346272 -0.00316235 -0.00285086 -0.00252827 -0.00221113 -0.00191601 -0.00164292 -0.00139186 -0.00116282 -0.000955797 -0.000770803 -0.000607833 -0.000465372 -0.000341906 -0.000237435 -0.000151958 -8.54765e-05 -3.79895e-05 -9.49738e-06 0 0 -1.1276e-05 -4.51039e-05 -0.000101484 -0.000180416 -0.000281899 -0.000405935 -0.000552523 -0.000721662 -0.000914553 -0.00113239 -0.00137518 -0.00164292 -0.00193561 -0.00225325 -0.00259584 -0.00296338 -0.00333597 -0.0036937 -0.00403659 -0.00436462 -0.00467781 -0.00497614 -0.00525963 -0.00552826 -0.00576964 -0.00597137 -0.00613345 -0.00625588 -0.00633865 -0.00638178 -0.00638525 -0.00634908 -0.00627227 -0.00615384 -0.0059938 -0.00579214 -0.00554887 -0.00526397 -0.00493747 -0.00456935 -0.00417092 -0.00375349 -0.00331707 -0.00286165 -0.00238723 -0.00189381 -0.0013814 -0.000849988 -0.000318547 0.000193957 0.000687523 0.00116215 0.00161785 0.0020546 0.00247242 0.0028713 0.00323638 0.00355278 0.0038205 0.00403954 0.00420991 0.0043316 0.00440462 0.00442895 0.00440462 0.0043316 0.00420991 0.00403954 0.0038205 0.00355278 0.00323638 0.0028713 0.00247242 0.0020546 0.00161785 0.00116215 0.000687524 0.000193957 -0.000318547 -0.000849988 -0.0013814 -0.00189381 -0.00238723 -0.00286165 -0.00331707 -0.00375349 -0.00417092 -0.00456935 -0.00493747 -0.00526398 -0.00554887 -0.00579214 -0.0059938 -0.00615384 -0.00627227 -0.00634908 -0.00638525 -0.00638178 -0.00633865 -0.00625588 -0.00613345 -0.00597137 -0.00576964 -0.00552826 -0.00525963 -0.00497614 -0.00467781 -0.00436463 -0.00403659 -0.0036937 -0.00333597 -0.00296338 -0.00259584 -0.00225325 -0.00193561 -0.00164292 -0.00137518 -0.00113239 -0.000914554 -0.000721663 -0.000552523 -0.000405936 -0.0002819 -0.000180416 -0.000101484 -4.51039e-05 -1.1276e-05 0 0 -1.32236e-05 -5.28942e-05 -0.000119012 -0.000211577 -0.000330589 -0.000476048 -0.000647954 -0.000846308 -0.00107185 -0.00132531 -0.0016067 -0.00191601 -0.00225325 -0.00261841 -0.0030115 -0.00343251 -0.00385786 -0.00426394 -0.00465076 -0.00501831 -0.00536661 -0.00569564 -0.00600542 -0.00629593 -0.00655254 -0.00676062 -0.00692017 -0.00703119 -0.00709368 -0.00710764 -0.00707306 -0.00698996 -0.00685741 -0.00667452 -0.00644129 -0.00615771 -0.00582378 -0.00543951 -0.00500489 -0.00451992 -0.00399871 -0.00345536 -0.00288985 -0.0023022 -0.00169241 -0.00106047 -0.000406378 0.000269856 0.00094483 0.00159514 0.00222077 0.00282175 0.00339805 0.00394969 0.00447665 0.00497896 0.0054383 0.0058364 0.00617325 0.00644886 0.00666322 0.00681633 0.0069082 0.00693883 0.0069082 0.00681633 0.00666322 0.00644886 0.00617325 0.0058364 0.0054383 0.00497896 0.00447666 0.00394969 0.00339805 0.00282175 0.00222078 0.00159514 0.00094483 0.000269856 -0.000406378 -0.00106047 -0.00169241 -0.0023022 -0.00288985 -0.00345536 -0.00399871 -0.00451992 -0.00500489 -0.00543951 -0.00582378 -0.00615771 -0.00644129 -0.00667452 -0.00685741 -0.00698996 -0.00707306 -0.00710764 -0.00709368 -0.00703119 -0.00692017 -0.00676062 -0.00655254 -0.00629593 -0.00600542 -0.00569565 -0.00536661 -0.00501832 -0.00465076 -0.00426394 -0.00385786 -0.00343251 -0.0030115 -0.00261842 -0.00225325 -0.00191601 -0.0016067 -0.00132531 -0.00107185 -0.000846308 -0.000647955 -0.000476048 -0.000330589 -0.000211577 -0.000119012 -5.28943e-05 -1.32236e-05 0 0 -1.53401e-05 -6.13605e-05 -0.000138061 -0.000245442 -0.000383503 -0.000552244 -0.000751666 -0.000981767 -0.00124268 -0.00153455 -0.00185736 -0.00221113 -0.00259584 -0.0030115 -0.00345811 -0.00393567 -0.00441653 -0.00487305 -0.00530522 -0.00571305 -0.00609653 -0.00645567 -0.00679046 -0.00710091 -0.00736994 -0.00758046 -0.00773249 -0.00782602 -0.00786105 -0.00783757 -0.0077556 -0.00761513 -0.00741537 -0.00715554 -0.00683563 -0.00645565 -0.0060156 -0.00551547 -0.00495526 -0.00433498 -0.00367189 -0.00298326 -0.00226907 -0.00152934 -0.000764059 2.67689e-05 0.000843144 0.00168507 0.00252412 0.0033319 0.0041084 0.00485361 0.00556755 0.00625021 0.00690158 0.00752168 0.00808836 0.00857948 0.00899504 0.00933505 0.0095995 0.00978839 0.00990173 0.00993951 0.00990173 0.00978839 0.0095995 0.00933505 0.00899504 0.00857948 0.00808836 0.00752168 0.00690158 0.00625021 0.00556755 0.00485361 0.0041084 0.0033319 0.00252412 0.00168507 0.000843145 2.67692e-05 -0.000764059 -0.00152934 -0.00226907 -0.00298326 -0.00367189 -0.00433498 -0.00495526 -0.00551547 -0.0060156 -0.00645565 -0.00683563 -0.00715554 -0.00741537 -0.00761513 -0.0077556 -0.00783758 -0.00786105 -0.00782602 -0.00773249 -0.00758047 -0.00736994 -0.00710091 -0.00679046 -0.00645567 -0.00609653 -0.00571305 -0.00530522 -0.00487305 -0.00441653 -0.00393567 -0.00345811 -0.0030115 -0.00259584 -0.00221113 -0.00185737 -0.00153455 -0.00124268 -0.000981768 -0.000751666 -0.000552245 -0.000383503 -0.000245442 -0.000138061 -6.13605e-05 -1.53401e-05 0 0 -1.76257e-05 -7.05026e-05 -0.000158631 -0.00028201 -0.000440641 -0.000634524 -0.000863657 -0.00112804 -0.00142706 -0.00176011 -0.00212718 -0.00252827 -0.00296338 -0.00343251 -0.00393567 -0.00447285 -0.00501199 -0.00552104 -0.00599998 -0.00644883 -0.00686757 -0.00725622 -0.00761477 -0.00794321 -0.00822183 -0.0084309 -0.00857041 -0.00864036 -0.00864075 -0.00857159 -0.00843287 -0.0082246 -0.00794615 -0.00759689 -0.00717683 -0.00668598 -0.00612432 -0.00549185 -0.00478859 -0.00401453 -0.00319046 -0.00233719 -0.00145472 -0.000543052 0.000397821 0.00136789 0.00236717 0.00339565 0.00441934 0.00540425 0.00635039 0.00725776 0.00812635 0.00895616 0.00974721 0.0104995 0.0111865 0.011782 0.0122859 0.0126981 0.0130187 0.0132478 0.0133852 0.013431 0.0133852 0.0132478 0.0130187 0.0126981 0.0122859 0.011782 0.0111865 0.0104995 0.00974721 0.00895617 0.00812635 0.00725776 0.00635039 0.00540425 0.00441934 0.00339565 0.00236717 0.00136789 0.000397821 -0.000543051 -0.00145472 -0.00233719 -0.00319046 -0.00401453 -0.00478859 -0.00549185 -0.00612432 -0.00668598 -0.00717683 -0.00759689 -0.00794615 -0.0082246 -0.00843287 -0.00857159 -0.00864075 -0.00864036 -0.00857041 -0.0084309 -0.00822184 -0.00794322 -0.00761477 -0.00725622 -0.00686757 -0.00644883 -0.00599998 -0.00552104 -0.005012 -0.00447285 -0.00393567 -0.00343251 -0.00296338 -0.00252827 -0.00212718 -0.00176011 -0.00142707 -0.00112804 -0.000863658 -0.000634524 -0.000440642 -0.000282011 -0.000158631 -7.05027e-05 -1.76257e-05 0 0 -1.99733e-05 -7.98931e-05 -0.000179759 -0.000319572 -0.000499332 -0.000719038 -0.00097869 -0.00127829 -0.00161625 -0.001991 -0.00240254 -0.00285086 -0.00333597 -0.00385786 -0.00441653 -0.00501199 -0.0056074 -0.00616591 -0.00668752 -0.00717223 -0.00762005 -0.00803098 -0.008405 -0.00874213 -0.00901978 -0.00921534 -0.00932884 -0.00936026 -0.0093096 -0.00917687 -0.00896207 -0.00866519 -0.0082859 -0.00782386 -0.00727906 -0.00665152 -0.00594123 -0.00514819 -0.00427239 -0.00331385 -0.00229745 -0.00124808 -0.000165747 0.000949552 0.00209782 0.00327905 0.00449324 0.00574041 0.00698019 0.00817225 0.0093166 0.0104132 0.0114621 0.0124633 0.0134168 0.0143225 0.0151493 0.0158658 0.0164721 0.0169682 0.017354 0.0176296 0.0177949 0.01785 0.0177949 0.0176296 0.017354 0.0169682 0.0164721 0.0158658 0.0151493 0.0143225 0.0134168 0.0124633 0.0114621 0.0104132 0.0093166 0.00817225 0.00698019 0.00574041 0.00449324 0.00327905 0.00209782 0.000949552 -0.000165747 -0.00124808 -0.00229745 -0.00331385 -0.00427239 -0.00514819 -0.00594123 -0.00665152 -0.00727907 -0.00782386 -0.0082859 -0.00866519 -0.00896207 -0.00917688 -0.00930961 -0.00936026 -0.00932884 -0.00921535 -0.00901978 -0.00874213 -0.008405 -0.00803098 -0.00762006 -0.00717224 -0.00668752 -0.00616591 -0.0056074 -0.005012 -0.00441653 -0.00385786 -0.00333597 -0.00285086 -0.00240254 -0.00199101 -0.00161626 -0.00127829 -0.000978691 -0.000719038 -0.000499332 -0.000319573 -0.00017976 -7.98932e-05 -1.99733e-05 0 0 -2.22761e-05 -8.91042e-05 -0.000200484 -0.000356417 -0.000556901 -0.000801938 -0.00109153 -0.00142567 -0.00180152 -0.00221625 -0.00266986 -0.00316234 -0.0036937 -0.00426394 -0.00487305 -0.00552104 -0.00616591 -0.00676567 -0.00732032 -0.00782987 -0.0082943 -0.00871363 -0.00908785 -0.00941696 -0.0096753 -0.00983722 -0.00990271 -0.00987177 -0.0097444 -0.00952061 -0.00920038 -0.00878374 -0.0082708 -0.00766172 -0.0069565 -0.00615514 -0.00525763 -0.00426398 -0.00317419 -0.00198825 -0.000735897 0.000553158 0.00187891 0.00324136 0.00464052 0.00607637 0.00754891 0.00905816 0.0105564 0.011996 0.0133769 0.0146991 0.0159626 0.0171674 0.0183135 0.019401 0.0203929 0.0212526 0.0219801 0.0225753 0.0230382 0.0233688 0.0235672 0.0236334 0.0235672 0.0233688 0.0230382 0.0225753 0.0219801 0.0212526 0.0203929 0.019401 0.0183135 0.0171674 0.0159626 0.0146991 0.0133769 0.011996 0.0105564 0.00905816 0.00754891 0.00607637 0.00464052 0.00324136 0.00187891 0.000553158 -0.000735897 -0.00198825 -0.00317419 -0.00426398 -0.00525763 -0.00615514 -0.0069565 -0.00766172 -0.0082708 -0.00878374 -0.00920039 -0.00952061 -0.0097444 -0.00987177 -0.00990271 -0.00983722 -0.00967531 -0.00941696 -0.00908785 -0.00871364 -0.00829431 -0.00782987 -0.00732033 -0.00676567 -0.00616591 -0.00552104 -0.00487305 -0.00426394 -0.0036937 -0.00316235 -0.00266986 -0.00221625 -0.00180152 -0.00142567 -0.00109153 -0.000801939 -0.000556902 -0.000356417 -0.000200485 -8.91043e-05 -2.22761e-05 0 0 -2.4534e-05 -9.8136e-05 -0.000220806 -0.000392544 -0.00061335 -0.000883224 -0.00120217 -0.00157018 -0.00198287 -0.00243586 -0.00292914 -0.00346272 -0.00403659 -0.00465076 -0.00530522 -0.00599998 -0.00668752 -0.00732032 -0.00789839 -0.00842172 -0.00889032 -0.00930418 -0.00966331 -0.0099677 -0.0101884 -0.0102965 -0.010292 -0.0101749 -0.00994514 -0.00960279 -0.00914782 -0.00858023 -0.00790085 -0.00711049 -0.00620915 -0.00519683 -0.00407353 -0.00283924 -0.00149398 -3.77393e-05 0.00149419 0.00306652 0.00467926 0.00633239 0.00802592 0.00975985 0.0115342 0.0133489 0.015148 0.0168754 0.0185312 0.0201152 0.0216276 0.0230684 0.0244374 0.0257348 0.0269175 0.0279425 0.0288098 0.0295195 0.0300714 0.0304656 0.0307022 0.030781 0.0307022 0.0304656 0.0300714 0.0295195 0.0288098 0.0279425 0.0269175 0.0257348 0.0244374 0.0230684 0.0216276 0.0201152 0.0185312 0.0168754 0.015148 0.0133489 0.0115342 0.00975985 0.00802592 0.00633239 0.00467926 0.00306652 0.00149419 -3.77396e-05 -0.00149398 -0.00283924 -0.00407353 -0.00519683 -0.00620915 -0.00711049 -0.00790085 -0.00858024 -0.00914782 -0.00960279 -0.00994515 -0.0101749 -0.010292 -0.0102965 -0.0101884 -0.00996771 -0.00966332 -0.00930419 -0.00889033 -0.00842173 -0.00789839 -0.00732033 -0.00668752 -0.00599998 -0.00530522 -0.00465076 -0.00403659 -0.00346272 -0.00292914 -0.00243586 -0.00198287 -0.00157018 -0.00120217 -0.000883225 -0.000613351 -0.000392544 -0.000220806 -9.81361e-05 -2.4534e-05 0 0 -2.67471e-05 -0.000106988 -0.000240724 -0.000427954 -0.000668678 -0.000962896 -0.00131061 -0.0017