<?xml version="1.0"?> 
<VTKFile type="StructuredGrid" version="0.1"> 
<StructuredGrid WholeExtent="0 128 0 128 0 0"> 
<Piece Extent="0 128 0 128 0 0"> 
<PointData>
<DataArray type="Float32" Name="u" format="ascii" NumberOfComponents="1"> 
0 0 0 0 0 0 0 0 0 0 0 0 0 0 0 0 0 0 0 0 0 0 0 0 0 0 0 0 0 0 0 0 0 0 0 0 0 0 0 0 0 0 0 0 0 0 0 0 0 0 0 0 0 0 0 0 0 0 0 0 0 0 0 0 0 0 0 0 0 0 0 0 0 0 0 0 0 0 0 0 0 0 0 0 0 0 0 0 0 0 0 0 0 0 0 0 0 0 0 0 0 0 0 0 0 0 0 0 0 0 0 0 0 0 0 0 0 0 0 0 0 0 0 0 0 0 0 0 0 0 -6.36357e-08 -2.54543e-07 -5.72721e-07 -1.01817e-06 -1.59089e-06 -2.29089e-06 -3.11815e-06 -4.07269e-06 -5.17853e-06 -6.45971e-06 -7.91622e-06 -9.54808e-06 -1.13553e-05 -1.33378e-05 -1.54957e-05 -1.78289e-05 -2.02337e-05 -2.26065e-05 -2.49472e-05 -2.72558e-05 -2.95324e-05 -3.17769e-05 -3.39893e-05 -3.61697e-05 -3.82531e-05 -4.01746e-05 -4.19344e-05 -4.35322e-05 -4.49682e-05 -4.62424e-05 -4.73547e-05 -4.83052e-05 -4.90839e-05 -4.96811e-05 -5.00968e-05 -5.03309e-05 -5.03835e-05 -5.02545e-05 -4.9944e-05 -4.94519e-05 -4.88177e-05 -4.80809e-05 -4.72413e-05 -4.62991e-05 -4.52541e-05 -4.41065e-05 -4.28563e-05 -4.15033e-05 -4.0116e-05 -3.87628e-05 -3.74436e-05 -3.61585e-05 -3.49075e-05 -3.36905e-05 -3.25075e-05 -3.13587e-05 -3.02975e-05 -2.93779e-05 -2.85998e-05 -2.79631e-05 -2.74679e-05 -2.71142e-05 -2.6902e-05 -2.68312e-05 -2.6902e-05 -2.71142e-05 -2.74679e-05 -2.79631e-05 -2.85998e-05 -2.93779e-05 -3.02975e-05 -3.13587e-05 -3.25075e-05 -3.36905e-05 -3.49075e-05 -3.61585e-05 -3.74436e-05 -3.87628e-05 -4.0116e-05 -4.15033e-05 -4.28563e-05 -4.41065e-05 -4.52541e-05 -4.62991e-05 -4.72413e-05 -4.80809e-05 -4.88177e-05 -4.94519e-05 -4.9944e-05 -5.02545e-05 -5.03835e-05 -5.03309e-05 -5.00968e-05 -4.96812e-05 -4.90839e-05 -4.83052e-05 -4.73547e-05 -4.62424e-05 -4.49682e-05 -4.35322e-05 -4.19344e-05 -4.01747e-05 -3.82531e-05 -3.61697e-05 -3.39893e-05 -3.17769e-05 -2.95324e-05 -2.72559e-05 -2.49472e-05 -2.26065e-05 -2.02337e-05 -1.78289e-05 -1.54957e-05 -1.33378e-05 -1.13553e-05 -9.54809e-06 -7.91623e-06 -6.45971e-06 -5.17853e-06 -4.07269e-06 -3.11815e-06 -2.29089e-06 -1.59089e-06 -1.01817e-06 -5.72722e-07 -2.54543e-07 -6.36358e-08 0 0 -2.54543e-07 -1.01817e-06 -2.29089e-06 -4.07269e-06 -6.36357e-06 -9.16354e-06 -1.24726e-05 -1.62907e-05 -2.07141e-05 -2.58388e-05 -3.16649e-05 -3.81923e-05 -4.54211e-05 -5.33512e-05 -6.19827e-05 -7.13156e-05 -8.09349e-05 -9.0426e-05 -9.97889e-05 -0.000109023 -0.00011813 -0.000127108 -0.000135957 -0.000144679 -0.000153012 -0.000160699 -0.000167737 -0.000174129 -0.000179873 -0.00018497 -0.000189419 -0.000193221 -0.000196336 -0.000198725 -0.000200387 -0.000201324 -0.000201534 -0.000201018 -0.000199776 -0.000197808 -0.000195271 -0.000192323 -0.000188965 -0.000185196 -0.000181017 -0.000176426 -0.000171425 -0.000166013 -0.000160464 -0.000155051 -0.000149775 -0.000144634 -0.00013963 -0.000134762 -0.00013003 -0.000125435 -0.00012119 -0.000117512 -0.000114399 -0.000111852 -0.000109872 -0.000108457 -0.000107608 -0.000107325 -0.000107608 -0.000108457 -0.000109872 -0.000111852 -0.000114399 -0.000117512 -0.00012119 -0.000125435 -0.00013003 -0.000134762 -0.00013963 -0.000144634 -0.000149775 -0.000155051 -0.000160464 -0.000166013 -0.000171425 -0.000176426 -0.000181017 -0.000185196 -0.000188965 -0.000192323 -0.000195271 -0.000197808 -0.000199776 -0.000201018 -0.000201534 -0.000201324 -0.000200387 -0.000198725 -0.000196336 -0.000193221 -0.000189419 -0.00018497 -0.000179873 -0.000174129 -0.000167737 -0.000160699 -0.000153012 -0.000144679 -0.000135957 -0.000127108 -0.00011813 -0.000109023 -9.97889e-05 -9.04261e-05 -8.0935e-05 -7.13156e-05 -6.19828e-05 -5.33513e-05 -4.54211e-05 -3.81923e-05 -3.16649e-05 -2.58388e-05 -2.07141e-05 -1.62908e-05 -1.24726e-05 -9.16355e-06 -6.36358e-06 -4.07269e-06 -2.29089e-06 -1.01817e-06 -2.54543e-07 0 0 -5.72721e-07 -2.29089e-06 -5.15449e-06 -9.16354e-06 -1.4318e-05 -2.0618e-05 -2.80634e-05 -3.66542e-05 -4.66067e-05 -5.81374e-05 -7.1246e-05 -8.59327e-05 -0.000102197 -0.00012004 -0.000139461 -0.00016046 -0.000182104 -0.000203459 -0.000224525 -0.000245303 -0.000265792 -0.000285992 -0.000305904 -0.000325527 -0.000344278 -0.000361572 -0.000377409 -0.00039179 -0.000404714 -0.000416181 -0.000426192 -0.000434746 -0.000441755 -0.00044713 -0.000450871 -0.000452978 -0.000453452 -0.000452291 -0.000449496 -0.000445067 -0.00043936 -0.000432728 -0.000425172 -0.000416692 -0.000407287 -0.000396959 -0.000385706 -0.00037353 -0.000361044 -0.000348865 -0.000336993 -0.000325427 -0.000314167 -0.000303214 -0.000292568 -0.000282228 -0.000272678 -0.000264401 -0.000257398 -0.000251668 -0.000247211 -0.000244028 -0.000242118 -0.000241481 -0.000242118 -0.000244028 -0.000247211 -0.000251668 -0.000257398 -0.000264401 -0.000272678 -0.000282228 -0.000292568 -0.000303214 -0.000314167 -0.000325427 -0.000336993 -0.000348865 -0.000361044 -0.00037353 -0.000385706 -0.000396959 -0.000407287 -0.000416692 -0.000425172 -0.000432728 -0.00043936 -0.000445067 -0.000449496 -0.000452291 -0.000453452 -0.000452978 -0.000450871 -0.00044713 -0.000441755 -0.000434746 -0.000426192 -0.000416181 -0.000404714 -0.00039179 -0.000377409 -0.000361572 -0.000344278 -0.000325527 -0.000305904 -0.000285992 -0.000265792 -0.000245303 -0.000224525 -0.000203459 -0.000182104 -0.00016046 -0.000139461 -0.00012004 -0.000102198 -8.59328e-05 -7.12461e-05 -5.81374e-05 -4.66068e-05 -3.66542e-05 -2.80634e-05 -2.0618e-05 -1.43181e-05 -9.16355e-06 -5.1545e-06 -2.29089e-06 -5.72722e-07 0 0 -1.01817e-06 -4.07269e-06 -9.16354e-06 -1.62907e-05 -2.54543e-05 -3.66542e-05 -4.98904e-05 -6.5163e-05 -8.28564e-05 -0.000103355 -0.00012666 -0.000152769 -0.000181684 -0.000213405 -0.000247931 -0.000285262 -0.00032374 -0.000361704 -0.000399155 -0.000436094 -0.000472519 -0.000508431 -0.000543829 -0.000578715 -0.00061205 -0.000642794 -0.00067095 -0.000696515 -0.000719491 -0.000739878 -0.000757675 -0.000772883 -0.000785343 -0.000794898 -0.000801549 -0.000805295 -0.000806136 -0.000804073 -0.000799104 -0.000791231 -0.000781084 -0.000769294 -0.000755861 -0.000740785 -0.000724066 -0.000705705 -0.0006857 -0.000664053 -0.000641856 -0.000620205 -0.000599098 -0.000578536 -0.00055852 -0.000539048 -0.000520121 -0.000501738 -0.000484761 -0.000470046 -0.000457596 -0.000447409 -0.000439486 -0.000433827 -0.000430431 -0.0004293 -0.000430431 -0.000433827 -0.000439486 -0.000447409 -0.000457596 -0.000470046 -0.000484761 -0.000501738 -0.000520121 -0.000539048 -0.00055852 -0.000578536 -0.000599098 -0.000620205 -0.000641856 -0.000664053 -0.0006857 -0.000705705 -0.000724066 -0.000740785 -0.000755861 -0.000769294 -0.000781084 -0.000791231 -0.000799104 -0.000804073 -0.000806136 -0.000805295 -0.000801549 -0.000794898 -0.000785343 -0.000772883 -0.000757675 -0.000739878 -0.000719492 -0.000696515 -0.00067095 -0.000642794 -0.00061205 -0.000578715 -0.00054383 -0.000508431 -0.000472519 -0.000436094 -0.000399156 -0.000361704 -0.00032374 -0.000285262 -0.000247931 -0.000213405 -0.000181685 -0.000152769 -0.00012666 -0.000103355 -8.28565e-05 -6.5163e-05 -4.98905e-05 -3.66542e-05 -2.54543e-05 -1.62908e-05 -9.16355e-06 -4.07269e-06 -1.01817e-06 0 0 -1.59089e-06 -6.36357e-06 -1.4318e-05 -2.54543e-05 -3.97723e-05 -5.72721e-05 -7.79538e-05 -0.000101817 -0.000129463 -0.000161493 -0.000197906 -0.000238702 -0.000283882 -0.000333445 -0.000387392 -0.000445722 -0.000505843 -0.000565163 -0.00062368 -0.000681396 -0.00073831 -0.000794423 -0.000849733 -0.000904242 -0.000956327 -0.00100437 -0.00104836 -0.00108831 -0.00112421 -0.00115606 -0.00118387 -0.00120763 -0.0012271 -0.00124203 -0.00125242 -0.00125827 -0.00125959 -0.00125636 -0.0012486 -0.0012363 -0.00122044 -0.00120202 -0.00118103 -0.00115748 -0.00113135 -0.00110266 -0.00107141 -0.00103758 -0.0010029 -0.00096907 -0.000936091 -0.000903963 -0.000872687 -0.000842262 -0.000812688 -0.000783966 -0.000757438 -0.000734448 -0.000714994 -0.000699077 -0.000686697 -0.000677855 -0.000672549 -0.000670781 -0.000672549 -0.000677855 -0.000686697 -0.000699077 -0.000714994 -0.000734448 -0.000757438 -0.000783966 -0.000812688 -0.000842262 -0.000872687 -0.000903963 -0.000936091 -0.00096907 -0.0010029 -0.00103758 -0.00107141 -0.00110266 -0.00113135 -0.00115748 -0.00118103 -0.00120202 -0.00122044 -0.0012363 -0.0012486 -0.00125636 -0.00125959 -0.00125827 -0.00125242 -0.00124203 -0.0012271 -0.00120763 -0.00118387 -0.00115606 -0.00112421 -0.00108831 -0.00104836 -0.00100437 -0.000956328 -0.000904243 -0.000849734 -0.000794423 -0.000738311 -0.000681396 -0.000623681 -0.000565163 -0.000505844 -0.000445722 -0.000387392 -0.000333445 -0.000283882 -0.000238702 -0.000197906 -0.000161493 -0.000129463 -0.000101817 -7.79538e-05 -5.72722e-05 -3.97724e-05 -2.54543e-05 -1.43181e-05 -6.36358e-06 -1.59089e-06 0 0 -2.29089e-06 -9.16354e-06 -2.0618e-05 -3.66542e-05 -5.72721e-05 -8.24719e-05 -0.000112253 -0.000146617 -0.000186427 -0.000232549 -0.000284984 -0.000343731 -0.00040879 -0.000480161 -0.000557844 -0.00064184 -0.000728414 -0.000813834 -0.0008981 -0.000981211 -0.00106317 -0.00114397 -0.00122362 -0.00130211 -0.00137711 -0.00144629 -0.00150964 -0.00156716 -0.00161886 -0.00166473 -0.00170477 -0.00173899 -0.00176702 -0.00178852 -0.00180349 -0.00181191 -0.00181381 -0.00180916 -0.00179798 -0.00178027 -0.00175744 -0.00173091 -0.00170069 -0.00166677 -0.00162915 -0.00158784 -0.00154283 -0.00149412 -0.00144418 -0.00139546 -0.00134797 -0.00130171 -0.00125667 -0.00121286 -0.00117027 -0.00112891 -0.00109071 -0.0010576 -0.00102959 -0.00100667 -0.000988844 -0.000976111 -0.000968471 -0.000965924 -0.000968471 -0.000976111 -0.000988844 -0.00100667 -0.00102959 -0.0010576 -0.00109071 -0.00112891 -0.00117027 -0.00121286 -0.00125667 -0.00130171 -0.00134797 -0.00139546 -0.00144418 -0.00149412 -0.00154283 -0.00158784 -0.00162915 -0.00166677 -0.00170069 -0.00173091 -0.00175744 -0.00178027 -0.00179798 -0.00180916 -0.00181381 -0.00181191 -0.00180349 -0.00178852 -0.00176702 -0.00173899 -0.00170477 -0.00166473 -0.00161886 -0.00156716 -0.00150964 -0.00144629 -0.00137711 -0.00130211 -0.00122362 -0.00114397 -0.00106317 -0.000981211 -0.0008981 -0.000813835 -0.000728415 -0.00064184 -0.000557845 -0.000480161 -0.00040879 -0.000343731 -0.000284984 -0.00023255 -0.000186427 -0.000146617 -0.000112254 -8.2472e-05 -5.72722e-05 -3.66542e-05 -2.0618e-05 -9.16355e-06 -2.29089e-06 0 0 -3.11815e-06 -1.24726e-05 -2.80634e-05 -4.98904e-05 -7.79538e-05 -0.000112253 -0.000152789 -0.000199562 -0.000253748 -0.000316526 -0.000387895 -0.000467856 -0.000556408 -0.000653553 -0.000759288 -0.000873616 -0.000991453 -0.00110772 -0.00122241 -0.00133554 -0.00144709 -0.00155707 -0.00166548 -0.00177232 -0.0018744 -0.00196856 -0.00205478 -0.00213308 -0.00220344 -0.00226588 -0.00232038 -0.00236695 -0.00240511 -0.00243438 -0.00245474 -0.00246622 -0.00246879 -0.00246247 -0.00244726 -0.00242314 -0.00239207 -0.00235596 -0.00231482 -0.00226865 -0.00221745 -0.00216122 -0.00209996 -0.00203366 -0.00196569 -0.00189938 -0.00183474 -0.00177177 -0.00171047 -0.00165083 -0.00159287 -0.00153657 -0.00148458 -0.00143952 -0.00140139 -0.00137019 -0.00134593 -0.0013286 -0.0013182 -0.00131473 -0.0013182 -0.0013286 -0.00134593 -0.00137019 -0.00140139 -0.00143952 -0.00148458 -0.00153657 -0.00159287 -0.00165083 -0.00171047 -0.00177177 -0.00183474 -0.00189938 -0.00196569 -0.00203366 -0.00209996 -0.00216122 -0.00221745 -0.00226865 -0.00231482 -0.00235596 -0.00239207 -0.00242314 -0.00244726 -0.00246247 -0.00246879 -0.00246622 -0.00245474 -0.00243438 -0.00240511 -0.00236695 -0.00232038 -0.00226588 -0.00220344 -0.00213308 -0.00205478 -0.00196856 -0.0018744 -0.00177232 -0.00166548 -0.00155707 -0.00144709 -0.00133554 -0.00122241 -0.00110772 -0.000991453 -0.000873616 -0.000759289 -0.000653553 -0.000556409 -0.000467856 -0.000387895 -0.000316526 -0.000253748 -0.000199562 -0.00015279 -0.000112254 -7.79538e-05 -4.98905e-05 -2.80634e-05 -1.24726e-05 -3.11815e-06 0 0 -4.07269e-06 -1.62907e-05 -3.66542e-05 -6.5163e-05 -0.000101817 -0.000146617 -0.000199562 -0.000260652 -0.000331426 -0.000413421 -0.000506638 -0.000611077 -0.000726738 -0.00085362 -0.000991723 -0.00114105 -0.00129496 -0.00144682 -0.00159662 -0.00174437 -0.00189007 -0.00203372 -0.00217532 -0.00231486 -0.0024482 -0.00257118 -0.0026838 -0.00278606 -0.00287797 -0.00295951 -0.0030307 -0.00309153 -0.00314137 -0.00317959 -0.0032062 -0.00322118 -0.00322454 -0.00321629 -0.00319642 -0.00316492 -0.00312433 -0.00307717 -0.00302344 -0.00296314 -0.00289627 -0.00282282 -0.0027428 -0.00265621 -0.00256743 -0.00248082 -0.00239639 -0.00231415 -0.00223408 -0.00215619 -0.00208048 -0.00200695 -0.00193904 -0.00188019 -0.00183038 -0.00178964 -0.00175795 -0.00173531 -0.00172173 -0.0017172 -0.00172173 -0.00173531 -0.00175795 -0.00178964 -0.00183038 -0.00188019 -0.00193904 -0.00200695 -0.00208048 -0.00215619 -0.00223408 -0.00231415 -0.00239639 -0.00248082 -0.00256743 -0.00265621 -0.0027428 -0.00282282 -0.00289627 -0.00296314 -0.00302344 -0.00307717 -0.00312433 -0.00316492 -0.00319642 -0.00321629 -0.00322454 -0.00322118 -0.0032062 -0.00317959 -0.00314137 -0.00309153 -0.0030307 -0.00295951 -0.00287797 -0.00278606 -0.0026838 -0.00257118 -0.0024482 -0.00231486 -0.00217532 -0.00203372 -0.00189008 -0.00174437 -0.00159662 -0.00144682 -0.00129496 -0.00114105 -0.000991724 -0.00085362 -0.000726738 -0.000611078 -0.000506639 -0.000413422 -0.000331426 -0.000260652 -0.000199562 -0.000146617 -0.000101817 -6.5163e-05 -3.66542e-05 -1.62908e-05 -4.07269e-06 0 0 -5.17853e-06 -2.07141e-05 -4.66067e-05 -8.28564e-05 -0.000129463 -0.000186427 -0.000253748 -0.000331426 -0.000421312 -0.000525256 -0.00064326 -0.000775323 -0.000921444 -0.00108162 -0.00125586 -0.00144416 -0.00163804 -0.00182901 -0.00201708 -0.00220225 -0.00238452 -0.00256389 -0.00274035 -0.00291391 -0.00307928 -0.00323115 -0.00336953 -0.00349442 -0.00360582 -0.00370373 -0.00378814 -0.00385907 -0.00391574 -0.00395739 -0.00398403 -0.00399565 -0.00399226 -0.00397385 -0.00394042 -0.00389198 -0.00383186 -0.00376342 -0.00368663 -0.00360152 -0.00350807 -0.00340629 -0.00329618 -0.00317774 -0.0030567 -0.00293883 -0.00282412 -0.00271256 -0.00260417 -0.00249893 -0.00239686 -0.00229794 -0.00220669 -0.0021276 -0.00206068 -0.00200593 -0.00196335 -0.00193293 -0.00191468 -0.0019086 -0.00191468 -0.00193293 -0.00196335 -0.00200593 -0.00206068 -0.0021276 -0.00220669 -0.00229794 -0.00239686 -0.00249893 -0.00260417 -0.00271256 -0.00282412 -0.00293883 -0.0030567 -0.00317774 -0.00329618 -0.00340629 -0.00350807 -0.00360152 -0.00368663 -0.00376342 -0.00383186 -0.00389198 -0.00394042 -0.00397385 -0.00399226 -0.00399565 -0.00398403 -0.00395739 -0.00391574 -0.00385907 -0.00378814 -0.00370373 -0.00360582 -0.00349442 -0.00336953 -0.00323115 -0.00307928 -0.00291392 -0.00274035 -0.00256389 -0.00238452 -0.00220226 -0.00201709 -0.00182901 -0.00163804 -0.00144416 -0.00125586 -0.00108162 -0.000921445 -0.000775323 -0.000643261 -0.000525257 -0.000421312 -0.000331426 -0.000253748 -0.000186427 -0.000129463 -8.28565e-05 -4.66068e-05 -2.07141e-05 -5.17853e-06 0 0 -6.45971e-06 -2.58388e-05 -5.81373e-05 -0.000103355 -0.000161493 -0.000232549 -0.000316526 -0.000413421 -0.000525256 -0.000654051 -0.000799806 -0.00096252 -0.00114219 -0.00133883 -0.00155242 -0.00178298 -0.0020198 -0.00225219 -0.00248016 -0.00270371 -0.00292283 -0.00313753 -0.0033478 -0.00355365 -0.00374842 -0.00392549 -0.00408484 -0.00422648 -0.00435041 -0.00445662 -0.00454512 -0.00461591 -0.00466814 -0.00470098 -0.00471442 -0.00470847 -0.00468312 -0.00463837 -0.00457423 -0.00449069 -0.00439228 -0.00428355 -0.00416449 -0.00403509 -0.00389537 -0.00374531 -0.00358492 -0.0034142 -0.00324082 -0.00307245 -0.00290909 -0.00275074 -0.0025974 -0.00244907 -0.00230574 -0.00216743 -0.00204011 -0.00192976 -0.00183639 -0.00176 -0.00170058 -0.00165814 -0.00163268 -0.00162419 -0.00163268 -0.00165814 -0.00170058 -0.00176 -0.00183639 -0.00192976 -0.00204011 -0.00216743 -0.00230574 -0.00244907 -0.0025974 -0.00275074 -0.00290909 -0.00307245 -0.00324082 -0.0034142 -0.00358492 -0.00374531 -0.00389537 -0.00403509 -0.00416449 -0.00428355 -0.00439228 -0.00449069 -0.00457423 -0.00463837 -0.00468312 -0.00470847 -0.00471442 -0.00470098 -0.00466814 -0.00461591 -0.00454512 -0.00445662 -0.00435041 -0.00422648 -0.00408484 -0.00392549 -0.00374842 -0.00355365 -0.0033478 -0.00313753 -0.00292283 -0.00270371 -0.00248016 -0.00225219 -0.0020198 -0.00178298 -0.00155242 -0.00133883 -0.0011422 -0.000962521 -0.000799807 -0.000654052 -0.000525257 -0.000413422 -0.000316526 -0.00023255 -0.000161493 -0.000103355 -5.81374e-05 -2.58388e-05 -6.45971e-06 0 0 -7.91622e-06 -3.16649e-05 -7.1246e-05 -0.00012666 -0.000197906 -0.000284984 -0.000387895 -0.000506638 -0.00064326 -0.000799806 -0.000976276 -0.00117267 -0.00138899 -0.00162523 -0.0018814 -0.00215749 -0.00244023 -0.00271636 -0.00298586 -0.00324874 -0.003505 -0.00375464 -0.00399766 -0.00423405 -0.00445563 -0.00465419 -0.00482972 -0.00498223 -0.00511172 -0.00521819 -0.00530163 -0.00536206 -0.00539859 -0.00541036 -0.00539738 -0.00535963 -0.00529712 -0.00520986 -0.00509783 -0.00496105 -0.0048056 -0.00463758 -0.004457 -0.00426385 -0.00405814 -0.00383987 -0.00360902 -0.00336561 -0.00311979 -0.00288169 -0.00265132 -0.00242868 -0.00221377 -0.00200659 -0.00180714 -0.00161541 -0.0014393 -0.00128666 -0.00115751 -0.00105184 -0.000969652 -0.000910946 -0.000875723 -0.000863981 -0.000875722 -0.000910946 -0.000969652 -0.00105184 -0.00115751 -0.00128666 -0.0014393 -0.00161541 -0.00180714 -0.00200659 -0.00221377 -0.00242868 -0.00265132 -0.00288169 -0.00311979 -0.00336561 -0.00360902 -0.00383987 -0.00405814 -0.00426385 -0.004457 -0.00463758 -0.0048056 -0.00496104 -0.00509783 -0.00520986 -0.00529712 -0.00535963 -0.00539738 -0.00541036 -0.00539859 -0.00536206 -0.00530163 -0.00521819 -0.00511172 -0.00498223 -0.00482972 -0.00465419 -0.00445563 -0.00423406 -0.00399766 -0.00375464 -0.003505 -0.00324874 -0.00298586 -0.00271636 -0.00244023 -0.00215749 -0.0018814 -0.00162523 -0.00138899 -0.00117267 -0.000976277 -0.000799807 -0.000643261 -0.000506639 -0.000387895 -0.000284984 -0.000197906 -0.00012666 -7.12461e-05 -3.16649e-05 -7.91623e-06 0 0 -9.54808e-06 -3.81923e-05 -8.59327e-05 -0.000152769 -0.000238702 -0.000343731 -0.000467856 -0.000611077 -0.000775322 -0.00096252 -0.00117267 -0.00140577 -0.00166183 -0.00194083 -0.00224279 -0.00256771 -0.00289935 -0.0032215 -0.00353417 -0.00383734 -0.00413102 -0.00441522 -0.00468993 -0.00495514 -0.0052009 -0.00541725 -0.00560417 -0.00576168 -0.00588976 -0.00598843 -0.00605768 -0.00609751 -0.00610708 -0.00608554 -0.0060329 -0.00594914 -0.00583428 -0.00568831 -0.00551124 -0.00530305 -0.0050718 -0.00482551 -0.00456418 -0.00428781 -0.0039964 -0.00368996 -0.00336848 -0.00303197 -0.00269359 -0.00236654 -0.0020508 -0.00174638 -0.00145328 -0.0011715 -0.000901042 -0.0006419 -0.00040426 -0.000198305 -2.40357e-05 0.000118548 0.000229447 0.000308661 0.000356189 0.000372031 0.000356189 0.000308661 0.000229447 0.000118548 -2.40356e-05 -0.000198305 -0.00040426 -0.0006419 -0.000901042 -0.0011715 -0.00145328 -0.00174638 -0.0020508 -0.00236654 -0.00269359 -0.00303197 -0.00336848 -0.00368996 -0.0039964 -0.00428781 -0.00456418 -0.00482551 -0.0050718 -0.00530305 -0.00551124 -0.00568831 -0.00583428 -0.00594914 -0.0060329 -0.00608554 -0.00610708 -0.00609751 -0.00605768 -0.00598843 -0.00588976 -0.00576168 -0.00560417 -0.00541725 -0.0052009 -0.00495514 -0.00468993 -0.00441522 -0.00413103 -0.00383734 -0.00353417 -0.0032215 -0.00289935 -0.00256771 -0.0022428 -0.00194084 -0.00166183 -0.00140577 -0.00117267 -0.000962521 -0.000775323 -0.000611078 -0.000467856 -0.000343731 -0.000238702 -0.000152769 -8.59328e-05 -3.81924e-05 -9.54809e-06 0 0 -1.13553e-05 -4.54211e-05 -0.000102197 -0.000181684 -0.000283882 -0.00040879 -0.000556408 -0.000726737 -0.000921444 -0.00114219 -0.00138899 -0.00166183 -0.00196071 -0.00228564 -0.00263661 -0.00301362 -0.00339714 -0.00376763 -0.00412509 -0.00446952 -0.00480091 -0.00511927 -0.0054246 -0.0057169 -0.00598424 -0.00621467 -0.00640819 -0.00656481 -0.00668453 -0.00676735 -0.00681327 -0.00682228 -0.00679362 -0.00672652 -0.00662098 -0.006477 -0.00629459 -0.00607374 -0.00581444 -0.00551671 -0.00519089 -0.00484732 -0.00448601 -0.00410695 -0.00371015 -0.0032956 -0.00286331 -0.00241327 -0.00196224 -0.001527 -0.00110753 -0.000703846 -0.000315937 5.61924e-05 0.000412543 0.000753116 0.00106501 0.00133531 0.00156403 0.00175116 0.00189671 0.00200068 0.00206305 0.00208385 0.00206305 0.00200068 0.00189671 0.00175116 0.00156403 0.00133531 0.00106501 0.000753116 0.000412544 5.61927e-05 -0.000315937 -0.000703845 -0.00110753 -0.001527 -0.00196224 -0.00241327 -0.00286331 -0.0032956 -0.00371015 -0.00410695 -0.00448601 -0.00484732 -0.00519089 -0.00551671 -0.00581444 -0.00607374 -0.00629459 -0.006477 -0.00662098 -0.00672652 -0.00679362 -0.00682228 -0.00681327 -0.00676735 -0.00668454 -0.00656482 -0.00640819 -0.00621467 -0.00598424 -0.00571691 -0.00542461 -0.00511928 -0.00480091 -0.00446952 -0.00412509 -0.00376763 -0.00339714 -0.00301362 -0.00263661 -0.00228564 -0.00196071 -0.00166183 -0.00138899 -0.0011422 -0.000921445 -0.000726738 -0.000556409 -0.00040879 -0.000283882 -0.000181685 -0.000102198 -4.54211e-05 -1.13553e-05 0 0 -1.33378e-05 -5.33512e-05 -0.00012004 -0.000213405 -0.000333445 -0.000480161 -0.000653552 -0.00085362 -0.00108162 -0.00133883 -0.00162523 -0.00194083 -0.00228564 -0.00265964 -0.00306284 -0.00349524 -0.00393362 -0.00435475 -0.00475863 -0.00514527 -0.00551466 -0.0058668 -0.0062017 -0.00651935 -0.00680563 -0.00704645 -0.00724179 -0.00739165 -0.00749604 -0.00755495 -0.00756838 -0.00753635 -0.00745819 -0.00733329 -0.00716163 -0.00694321 -0.00667805 -0.00636613 -0.00600745 -0.00560203 -0.00516288 -0.00470304 -0.00422251 -0.00372129 -0.00319938 -0.00265678 -0.00209349 -0.00150951 -0.000925735 -0.000363071 0.000178484 0.00069893 0.00119827 0.0016765 0.00213362 0.00256963 0.0029685 0.00331418 0.00360669 0.00384601 0.00403215 0.0041651 0.00424488 0.00427147 0.00424488 0.0041651 0.00403215 0.00384601 0.00360669 0.00331419 0.0029685 0.00256963 0.00213362 0.0016765 0.00119827 0.000698931 0.000178484 -0.000363071 -0.000925734 -0.00150951 -0.00209349 -0.00265678 -0.00319938 -0.00372129 -0.00422251 -0.00470304 -0.00516288 -0.00560203 -0.00600745 -0.00636613 -0.00667805 -0.00694321 -0.00716163 -0.00733329 -0.00745819 -0.00753635 -0.00756838 -0.00755495 -0.00749604 -0.00739165 -0.00724179 -0.00704645 -0.00680564 -0.00651935 -0.0062017 -0.0058668 -0.00551466 -0.00514527 -0.00475863 -0.00435475 -0.00393362 -0.00349524 -0.00306284 -0.00265964 -0.00228564 -0.00194084 -0.00162523 -0.00133883 -0.00108163 -0.00085362 -0.000653553 -0.000480161 -0.000333445 -0.000213405 -0.00012004 -5.33513e-05 -1.33378e-05 0 0 -1.54957e-05 -6.19827e-05 -0.000139461 -0.000247931 -0.000387392 -0.000557844 -0.000759288 -0.000991723 -0.00125586 -0.00155242 -0.0018814 -0.00224279 -0.00263661 -0.00306284 -0.00352149 -0.00401256 -0.00450877 -0.00498284 -0.00543479 -0.00586459 -0.00627226 -0.0066578 -0.0070212 -0.00736246 -0.00766509 -0.00791259 -0.00810495 -0.00824218 -0.00832426 -0.00835122 -0.00832304 -0.00823972 -0.00810081 -0.00790585 -0.00765484 -0.00734777 -0.00698465 -0.00656548 -0.00609026 -0.00555899 -0.00498775 -0.00439265 -0.00377367 -0.00313082 -0.00246409 -0.0017735 -0.00105903 -0.000320691 0.000415931 0.00112524 0.00180725 0.00246194 0.00308933 0.00368941 0.00426219 0.00480765 0.00530622 0.00573832 0.00610394 0.00640308 0.00663575 0.00680194 0.00690165 0.00693489 0.00690165 0.00680194 0.00663575 0.00640308 0.00610394 0.00573832 0.00530622 0.00480765 0.00426219 0.00368941 0.00308933 0.00246195 0.00180725 0.00112524 0.000415931 -0.00032069 -0.00105903 -0.0017735 -0.00246409 -0.00313081 -0.00377367 -0.00439265 -0.00498775 -0.00555899 -0.00609026 -0.00656548 -0.00698465 -0.00734777 -0.00765484 -0.00790585 -0.00810081 -0.00823972 -0.00832304 -0.00835122 -0.00832427 -0.00824218 -0.00810495 -0.00791259 -0.0076651 -0.00736247 -0.0070212 -0.0066578 -0.00627226 -0.00586459 -0.00543479 -0.00498285 -0.00450877 -0.00401256 -0.00352149 -0.00306284 -0.00263661 -0.0022428 -0.0018814 -0.00155242 -0.00125586 -0.000991724 -0.000759289 -0.000557845 -0.000387392 -0.000247931 -0.000139461 -6.19828e-05 -1.54957e-05 0 0 -1.78289e-05 -7.13155e-05 -0.00016046 -0.000285262 -0.000445722 -0.00064184 -0.000873615 -0.00114105 -0.00144416 -0.00178297 -0.00215749 -0.00256771 -0.00301362 -0.00349524 -0.00401256 -0.00456558 -0.0051226 -0.00565193 -0.00615356 -0.00662749 -0.00707373 -0.00749227 -0.00788311 -0.00824626 -0.00856262 -0.00881309 -0.00899769 -0.0091164 -0.00916922 -0.00915617 -0.00907723 -0.0089324 -0.00872147 -0.00844421 -0.00810061 -0.00769067 -0.00721441 -0.00667181 -0.00606287 -0.0053876 -0.00466552 -0.00391615 -0.00313949 -0.00233553 -0.00150429 -0.000645756 0.000240068 0.00115318 0.00206275 0.00293795 0.00377876 0.0045852 0.00535726 0.00609494 0.00679824 0.00746717 0.00807817 0.00860771 0.00905578 0.00942238 0.00970751 0.00991118 0.0100334 0.0100741 0.0100334 0.00991118 0.00970751 0.00942238 0.00905578 0.00860771 0.00807817 0.00746717 0.00679824 0.00609494 0.00535726 0.0045852 0.00377876 0.00293795 0.00206275 0.00115318 0.000240068 -0.000645756 -0.00150429 -0.00233553 -0.00313949 -0.00391615 -0.00466552 -0.0053876 -0.00606287 -0.00667181 -0.00721441 -0.00769067 -0.00810061 -0.00844421 -0.00872147 -0.0089324 -0.00907723 -0.00915617 -0.00916922 -0.0091164 -0.00899769 -0.0088131 -0.00856262 -0.00824626 -0.00788311 -0.00749227 -0.00707373 -0.00662749 -0.00615356 -0.00565193 -0.0051226 -0.00456558 -0.00401256 -0.00349524 -0.00301362 -0.00256771 -0.00215749 -0.00178298 -0.00144416 -0.00114105 -0.000873616 -0.00064184 -0.000445723 -0.000285262 -0.00016046 -7.13156e-05 -1.78289e-05 0 0 -2.02337e-05 -8.09349e-05 -0.000182104 -0.00032374 -0.000505843 -0.000728414 -0.000991453 -0.00129496 -0.00163804 -0.0020198 -0.00244023 -0.00289935 -0.00339714 -0.00393362 -0.00450877 -0.0051226 -0.0057386 -0.00632026 -0.00686758 -0.00738055 -0.00785919 -0.00830348 -0.00871344 -0.00908905 -0.00940842 -0.00964964 -0.00981271 -0.00989764 -0.00990441 -0.00983304 -0.00968352 -0.00945585 -0.00915018 -0.00876663 -0.00830522 -0.00776593 -0.00714878 -0.00645376 -0.00568087 -0.00483011 -0.00392501 -0.00298911 -0.0020224 -0.00102487 3.45329e-06 0.00106259 0.00215253 0.00327328 0.00438797 0.00545971 0.00648852 0.00747438 0.00841731 0.00931729 0.0101743 0.0109884 0.0117315 0.0123755 0.0129205 0.0133663 0.0137131 0.0139608 0.0141094 0.014159 0.0141094 0.0139608 0.0137131 0.0133663 0.0129205 0.0123755 0.0117315 0.0109884 0.0101743 0.00931729 0.00841731 0.00747438 0.00648852 0.00545971 0.00438797 0.00327328 0.00215253 0.00106259 3.45372e-06 -0.00102487 -0.0020224 -0.00298911 -0.00392501 -0.00483011 -0.00568087 -0.00645376 -0.00714878 -0.00776594 -0.00830522 -0.00876663 -0.00915018 -0.00945585 -0.00968352 -0.00983304 -0.00990441 -0.00989764 -0.00981271 -0.00964964 -0.00940842 -0.00908905 -0.00871344 -0.00830349 -0.00785919 -0.00738056 -0.00686758 -0.00632026 -0.0057386 -0.0051226 -0.00450877 -0.00393362 -0.00339715 -0.00289935 -0.00244023 -0.0020198 -0.00163804 -0.00129496 -0.000991454 -0.000728415 -0.000505844 -0.00032374 -0.000182104 -8.0935e-05 -2.02337e-05 0 0 -2.26065e-05 -9.0426e-05 -0.000203459 -0.000361704 -0.000565163 -0.000813834 -0.00110772 -0.00144682 -0.00182901 -0.00225219 -0.00271635 -0.0032215 -0.00376763 -0.00435475 -0.00498284 -0.00565193 -0.00632026 -0.00694611 -0.00752949 -0.00807038 -0.00856879 -0.00902473 -0.00943818 -0.00980916 -0.0101127 -0.0103239 -0.0104427 -0.0104692 -0.0104033 -0.0102451 -0.00999449 -0.00965153 -0.00921693 -0.0086914 -0.00807494 -0.00736756 -0.00656925 -0.00568002 -0.00469985 -0.00362877 -0.00249507 -0.00132709 -0.000124825 0.00111173 0.00238256 0.00368768 0.00502709 0.00640079 0.00776481 0.00907522 0.010332 0.0115352 0.0126847 0.0137807 0.014823 0.0158117 0.0167135 0.017495 0.0181563 0.0186974 0.0191182 0.0194188 0.0195992 0.0196593 0.0195992 0.0194188 0.0191182 0.0186974 0.0181563 0.017495 0.0167135 0.0158117 0.014823 0.0137807 0.0126847 0.0115352 0.010332 0.00907522 0.00776481 0.00640079 0.00502709 0.00368769 0.00238256 0.00111173 -0.000124825 -0.00132709 -0.00249507 -0.00362877 -0.00469985 -0.00568002 -0.00656925 -0.00736756 -0.00807494 -0.0086914 -0.00921693 -0.00965153 -0.00999449 -0.0102451 -0.0104033 -0.0104692 -0.0104427 -0.0103239 -0.0101127 -0.00980916 -0.00943818 -0.00902473 -0.0085688 -0.00807038 -0.00752949 -0.00694612 -0.00632026 -0.00565193 -0.00498285 -0.00435475 -0.00376763 -0.0032215 -0.00271636 -0.00225219 -0.00182901 -0.00144682 -0.00110772 -0.000813835 -0.000565163 -0.000361704 -0.000203459 -9.04261e-05 -2.26065e-05 0 0 -2.49472e-05 -9.97888e-05 -0.000224525 -0.000399155 -0.00062368 -0.000898099 -0.00122241 -0.00159662 -0.00201708 -0.00248016 -0.00298586 -0.00353417 -0.00412509 -0.00475863 -0.00543478 -0.00615356 -0.00686758 -0.00752949 -0.00813928 -0.00869697 -0.00920254 -0.00965599 -0.0100573 -0.0104066 -0.0106755 -0.0108359 -0.0108878 -0.0108311 -0.010666 -0.0103923 -0.0100101 -0.00951944 -0.00892172 -0.00821851 -0.00740978 -0.00649555 -0.00547581 -0.00435057 -0.00311982 -0.00178356 -0.000375691 0.0010699 0.00255322 0.00407427 0.00563304 0.00722953 0.00886375 0.0105357 0.0121933 0.0137845 0.0153093 0.0167676 0.0181596 0.0194851 0.0207443 0.021937 0.023024 0.0239661 0.0247633 0.0254155 0.0259228 0.0262852 0.0265026 0.0265751 0.0265026 0.0262852 0.0259228 0.0254155 0.0247633 0.0239661 0.023024 0.021937 0.0207443 0.0194851 0.0181596 0.0167676 0.0153093 0.0137845 0.0121933 0.0105357 0.00886375 0.00722953 0.00563304 0.00407427 0.00255322 0.0010699 -0.000375691 -0.00178356 -0.00311982 -0.00435057 -0.00547581 -0.00649555 -0.00740978 -0.00821851 -0.00892173 -0.00951944 -0.0100101 -0.0103923 -0.010666 -0.0108311 -0.0108878 -0.0108359 -0.0106755 -0.0104066 -0.0100573 -0.009656 -0.00920254 -0.00869697 -0.00813929 -0.00752949 -0.00686758 -0.00615356 -0.00543479 -0.00475863 -0.00412509 -0.00353417 -0.00298586 -0.00248016 -0.00201709 -0.00159662 -0.00122241 -0.0008981 -0.000623681 -0.000399156 -0.000224525 -9.97889e-05 -2.49472e-05 0 0 -2.72558e-05 -0.000109023 -0.000245303 -0.000436093 -0.000681396 -0.00098121 -0.00133554 -0.00174437 -0.00220225 -0.00270371 -0.00324874 -