<?xml version="1.0"?> 
<VTKFile type="StructuredGrid" version="0.1"> 
<StructuredGrid WholeExtent="0 64 0 64 0 0"> 
<Piece Extent="0 64 0 64 0 0"> 
<PointData>
<DataArray type="Float32" Name="u" format="ascii" NumberOfComponents="1"> 
0.886762 0.925059 0.963356 1.00165 1.03995 0.914269 0.788588 0.662907 0.537227 0.634334 0.731441 0.828549 0.925656 0.848059 0.770461 0.692863 0.615266 0.50194 0.388614 0.275289 0.161963 0.173758 0.185553 0.197348 0.209142 0.263322 0.317502 0.371682 0.425862 0.515269 0.604676 0.694082 0.783489 0.803601 0.823713 0.843825 0.863938 0.85462 0.845302 0.835985 0.826667 0.703327 0.579986 0.456646 0.333305 0.389714 0.446122 0.50253 0.558939 0.442678 0.326417 0.210155 0.0938945 0.0998641 0.105834 0.111803 0.117773 0.123167 0.128561 0.133955 0.13935 0.285113 0.430876 0.57664 0.722403 0.795639 0.804521 0.813403 0.822285 0.831167 0.756912 0.682657 0.608402 0.534146 0.584103 0.63406 0.684016 0.733973 0.669587 0.605202 0.540816 0.476431 0.443966 0.411501 0.379036 0.346571 0.336242 0.325913 0.315584 0.305254 0.370329 0.435403 0.500477 0.565552 0.617271 0.66899 0.720709 0.772428 0.779998 0.787568 0.795137 0.802707 0.811091 0.819475 0.82786 0.836244 0.747853 0.659463 0.571073 0.482682 0.5323 0.581917 0.631534 0.681152 0.528508 0.375865 0.223222 0.0705785 0.132302 0.194025 0.255748 0.317472 0.304587 0.291702 0.278817 0.265932 0.401117 0.536302 0.671488 0.806673 0.704517 0.683984 0.663451 0.642918 0.622385 0.599555 0.576726 0.553896 0.531066 0.533872 0.536678 0.539484 0.54229 0.491116 0.439943 0.388769 0.337596 0.385992 0.434387 0.482783 0.531179 0.498726 0.466273 0.43382 0.401366 0.477335 0.553303 0.629272 0.705241 0.719272 0.733304 0.747336 0.761367 0.756395 0.751422 0.74645 0.741477 0.767563 0.793648 0.819734 0.84582 0.79238 0.73894 0.685499 0.632059 0.674886 0.717712 0.760539 0.803365 0.614339 0.425314 0.236288 0.0472625 0.16474 0.282217 0.399694 0.517171 0.486007 0.454842 0.423678 0.392514 0.517121 0.641729 0.766336 0.890943 0.613394 0.563447 0.513499 0.463551 0.413603 0.442199 0.470795 0.49939 0.527986 0.483641 0.439296 0.394951 0.350606 0.312645 0.274684 0.236722 0.198761 0.328017 0.457274 0.586531 0.715787 0.66121 0.606633 0.552056 0.497478 0.584341 0.671204 0.758067 0.84493 0.821274 0.797618 0.773962 0.750307 0.732792 0.715277 0.697762 0.680247 0.724034 0.767821 0.811609 0.855396 0.836906 0.818416 0.799926 0.781436 0.817472 0.853507 0.889543 0.925578 0.70017 0.474762 0.249354 0.0239466 0.197177 0.370408 0.543639 0.71687 0.667426 0.617983 0.56854 0.519096 0.633126 0.747155 0.861184 0.975214 0.522272 0.442909 0.363546 0.284184 0.204821 0.284842 0.364863 0.444885 0.524906 0.43341 0.341915 0.250419 0.158923 0.134174 0.109424 0.084675 0.0599257 0.270043 0.480161 0.690278 0.900395 0.823694 0.746993 0.670292 0.59359 0.691347 0.789104 0.886862 0.984619 0.923276 0.861932 0.800589 0.739246 0.709188 0.679131 0.649074 0.619016 0.680505 0.741995 0.803484 0.864973 0.881433 0.897893 0.914353 0.930813 0.960058 0.989302 1.01855 1.04779 0.786001 0.524211 0.262421 0.000630586 0.229615 0.4586 0.687584 0.916569 0.848846 0.781124 0.713401 0.645678 0.74913 0.852581 0.956033 1.05948 0.529479 0.467273 0.405068 0.342862 0.280657 0.361838 0.44302 0.524202 0.605384 0.498862 0.392341 0.285819 0.179298 0.178609 0.17792 0.177231 0.176542 0.360783 0.545024 0.729265 0.913507 0.834411 0.755316 0.676221 0.597126 0.688319 0.779511 0.870704 0.961897 0.908828 0.85576 0.802691 0.749622 0.716983 0.684343 0.651703 0.619063 0.642753 0.666442 0.690131 0.71382 0.753936 0.794051 0.834166 0.874282 0.857668 0.841054 0.82444 0.807826 0.647356 0.486886 0.326415 0.165945 0.340055 0.514166 0.688276 0.862387 0.815918 0.76945 0.722982 0.676513 0.765556 0.854599 0.943641 1.03268 0.536685 0.491637 0.446589 0.401541 0.356493 0.438835 0.521177 0.60352 0.685862 0.564314 0.442767 0.32122 0.199672 0.223044 0.246415 0.269787 0.293158 0.451523 0.609888 0.768253 0.926618 0.845129 0.76364 0.682151 0.600662 0.68529 0.769918 0.854547 0.939175 0.894381 0.849587 0.804793 0.759999 0.724777 0.689555 0.654333 0.619111 0.605 0.590889 0.576779 0.562668 0.626439 0.690209 0.75398 0.81775 0.755278 0.692805 0.630333 0.56786 0.50871 0.44956 0.39041 0.33126 0.450496 0.569732 0.688968 0.808205 0.782991 0.757777 0.732562 0.707348 0.781982 0.856616 0.93125 1.00588 0.543892 0.516001 0.48811 0.460219 0.432328 0.515831 0.599334 0.682837 0.76634 0.629767 0.493193 0.35662 0.220047 0.267479 0.314911 0.362342 0.409774 0.542263 0.674752 0.80724 0.939729 0.855846 0.771963 0.688081 0.604198 0.682262 0.760325 0.838389 0.916453 0.879934 0.843414 0.806895 0.770375 0.732571 0.694766 0.656962 0.619158 0.567247 0.515337 0.463427 0.411516 0.498942 0.586367 0.673793 0.761218 0.652888 0.544557 0.436226 0.327895 0.370065 0.412234 0.454404 0.496574 0.560936 0.625298 0.689661 0.754023 0.750063 0.746103 0.742143 0.738183 0.798408 0.858633 0.918858 0.979083 0.551099 0.540365 0.529632 0.518898 0.508164 0.592828 0.677491 0.762154 0.846818 0.695219 0.54362 0.392021 0.240422 0.311914 0.383406 0.454898 0.52639 0.633003 0.739615 0.846228 0.95284 0.866563 0.780287 0.69401 0.607734 0.679233 0.750732 0.822232 0.893731 0.865486 0.837241 0.808996 0.780751 0.740365 0.699978 0.659591 0.619205 0.529495 0.439784 0.350074 0.260364 0.371445 0.482525 0.593606 0.704687 0.550497 0.396308 0.242119 0.0879295 0.231419 0.374909 0.518399 0.661888 0.671376 0.680865 0.690353 0.699841 0.717135 0.73443 0.751724 0.769018 0.814835 0.860651 0.906467 0.952283 0.670382 0.649111 0.62784 0.606568 0.585297 0.636151 0.687004 0.737858 0.788712 0.698014 0.607316 0.516618 0.42592 0.456495 0.487071 0.517646 0.548221 0.590949 0.633678 0.676406 0.719134 0.661293 0.603453 0.545613 0.487773 0.590448 0.693123 0.795798 0.898473 0.852275 0.806077 0.759879 0.713681 0.707231 0.70078 0.69433 0.687879 0.578583 0.469287 0.359991 0.250696 0.356669 0.462643 0.568617 0.674591 0.564082 0.453574 0.343065 0.232556 0.300637 0.368718 0.436798 0.504879 0.550525 0.596171 0.641817 0.687462 0.683742 0.680022 0.676302 0.672582 0.686304 0.700026 0.713748 0.72747 0.789666 0.757857 0.726047 0.694238 0.662429 0.679473 0.696518 0.713562 0.730606 0.700809 0.671012 0.641215 0.611417 0.601076 0.590735 0.580394 0.570052 0.548896 0.52774 0.506584 0.485427 0.456023 0.426619 0.397216 0.367812 0.501663 0.635514 0.769365 0.903216 0.839065 0.774914 0.710763 0.646612 0.674097 0.701583 0.729068 0.756554 0.627672 0.49879 0.369909 0.241027 0.341894 0.442761 0.543629 0.644496 0.577667 0.510839 0.444011 0.377182 0.369854 0.362526 0.355198 0.34787 0.429674 0.511477 0.593281 0.675084 0.65035 0.625615 0.60088 0.576146 0.557774 0.539401 0.521029 0.502657 0.908949 0.866602 0.824255 0.781908 0.739562 0.722796 0.706031 0.689266 0.6725 0.703604 0.734708 0.765812 0.796915 0.745657 0.694399 0.643141 0.591883 0.506843 0.421802 0.336761 0.251721 0.250753 0.249786 0.248818 0.247851 0.412878 0.577904 0.742931 0.907958 0.825854 0.74375 0.661646 0.579542 0.640963 0.702385 0.763807 0.825228 0.676761 0.528293 0.379826 0.231359 0.327119 0.422879 0.51864 0.6144 0.591252 0.568105 0.544957 0.521809 0.439072 0.356335 0.273598 0.190861 0.308822 0.426783 0.544745 0.662706 0.616957 0.571208 0.525459 0.47971 0.429243 0.378777 0.32831 0.277844 1.02823 0.975348 0.922463 0.869579 0.816694 0.766119 0.715544 0.66497 0.614395 0.706399 0.798404 0.890409 0.982413 0.890238 0.798064 0.705889 0.613714 0.464789 0.315864 0.166939 0.0180144 0.0454832 0.0729521 0.100421 0.12789 0.324092 0.520295 0.716497 0.9127 0.812643 0.712586 0.612529 0.512472 0.60783 0.703187 0.798545 0.893903 0.72585 0.557796 0.389743 0.22169 0.312344 0.402998 0.493651 0.584305 0.604837 0.62537 0.645903 0.666435 0.508289 0.350143 0.191998 0.0338517 0.187971 0.34209 0.496209 0.650328 0.583564 0.5168 0.450037 0.383273 0.300713 0.218152 0.135592 0.053031 0.899233 0.840373 0.781513 0.722653 0.663792 0.621154 0.578516 0.535877 0.493239 0.567721 0.642204 0.716686 0.791169 0.718131 0.645093 0.572055 0.499017 0.390141 0.281265 0.172389 0.0635125 0.0744328 0.0853531 0.0962734 0.107194 0.293521 0.479849 0.666176 0.852504 0.754099 0.655694 0.55729 0.458885 0.547377 0.635869 0.72436 0.812852 0.697164 0.581476 0.465788 0.3501 0.405129 0.460158 0.515188 0.570217 0.588045 0.605873 0.623701 0.641529 0.516915 0.392301 0.267687 0.143073 0.237479 0.331885 0.42629 0.520696 0.49464 0.468585 0.442529 0.416474 0.379307 0.34214 0.304973 0.267806 0.770234 0.705398 0.640562 0.575727 0.510891 0.476189 0.441487 0.406785 0.372083 0.429043 0.486004 0.542964 0.599924 0.546023 0.492122 0.438221 0.38432 0.315493 0.246665 0.177838 0.109011 0.103382 0.0977541 0.0921259 0.0864977 0.26295 0.439402 0.615855 0.792307 0.695555 0.598803 0.502051 0.405299 0.486925 0.56855 0.650176 0.731801 0.668478 0.605155 0.541832 0.478509 0.497914 0.517319 0.536724 0.556129 0.571252 0.586376 0.6015 0.616623 0.525541 0.434459 0.343377 0.252295 0.286987 0.321679 0.356372 0.391064 0.405717 0.420369 0.435022 0.449675 0.457901 0.466128 0.474355 0.482581 0.641235 0.570423 0.499612 0.428801 0.357989 0.331224 0.304458 0.277692 0.250927 0.290365 0.329803 0.369242 0.40868 0.373916 0.339152 0.304387 0.269623 0.240844 0.212066 0.183287 0.154509 0.132332 0.110155 0.0879784 0.0658017 0.232379 0.398956 0.565533 0.732111 0.637011 0.541912 0.446812 0.351713 0.426472 0.501231 0.575991 0.65075 0.639793 0.628835 0.617877 0.606919 0.590699 0.57448 0.55826 0.542041 0.55446 0.566879 0.579298 0.591717 0.534167 0.476617 0.419067 0.361516 0.336495 0.311474 0.286453 0.261432 0.316793 0.372154 0.427514 0.482875 0.536496 0.590116 0.643736 0.697356 0.512236 0.435449 0.358662 0.281875 0.205088 0.186258 0.167429 0.1486 0.129771 0.151687 0.173603 0.195519 0.217436 0.201808 0.186181 0.170553 0.154926 0.166196 0.177466 0.188737 0.200007 0.161281 0.122556 0.0838309 0.0451056 0.201808 0.35851 0.515212 0.671914 0.578467 0.48502 0.391573 0.298126 0.36602 0.433913 0.501806 0.5697 0.611107 0.652514 0.693921 0.735328 0.683484 0.63164 0.579796 0.527953 0.537667 0.547382 0.557096 0.566811 0.542793 0.518775 0.494756 0.470738 0.386004 0.301269 0.216535 0.1318 0.227869 0.323938 0.420007 0.516076 0.61509 0.714104 0.813118 0.912131 0.612814 0.516102 0.419391 0.322679 0.225968 0.207546 0.189124 0.170703 0.152281 0.192347 0.232412 0.272477 0.312543 0.305787 0.299032 0.292276 0.285521 0.279215 0.272909 0.266603 0.260297 0.217298 0.174299 0.1313 0.0883014 0.254883 0.421465 0.588046 0.754628 0.627296 0.499965 0.372634 0.245302 0.297785 0.350268 0.402751 0.455234 0.488691 0.522149 0.555607 0.589064 0.551795 0.514525 0.477255 0.439985 0.477324 0.514662 0.552001 0.58934 0.568189 0.547038 0.525888 0.504737 0.406746 0.308755 0.210764 0.112773 0.242771 0.372768 0.502765 0.632762 0.694296 0.75583 0.817363 0.878897 0.713392 0.596756 0.48012 0.363484 0.246847 0.228833 0.21082 0.192806 0.174792 0.233006 0.291221 0.349435 0.407649 0.409766 0.411883 0.413999 0.416116 0.392233 0.368351 0.344469 0.320586 0.273314 0.226042 0.178769 0.131497 0.307958 0.484419 0.66088 0.837341 0.676126 0.51491 0.353694 0.192478 0.22955 0.266623 0.303695 0.340768 0.366276 0.391784 0.417292 0.4428 0.420105 0.397409 0.374713 0.352017 0.41698 0.481943 0.546906 0.611869 0.593585 0.575302 0.557019 0.538736 0.427488 0.316241 0.204994 0.0937467 0.257672 0.421597 0.585522 0.749448 0.773502 0.797555 0.821609 0.845663 0.813971 0.67741 0.540849 0.404288 0.267727 0.250121 0.232515 0.214909 0.197303 0.273666 0.350029 0.426393 0.502756 0.513745 0.524733 0.535722 0.54671 0.505252 0.463793 0.422335 0.380876 0.32933 0.277785 0.226239 0.174693 0.361033 0.547374 0.733715 0.920055 0.724955 0.529855 0.334754 0.139654 0.161316 0.182978 0.20464 0.226302 0.24386 0.261419 0.278978 0.296536 0.288415 0.280293 0.272171 0.26405 0.356637 0.449224 0.541811 0.634398 0.618982 0.603566 0.58815 0.572734 0.448231 0.323727 0.199224 0.07472 0.272573 0.470427 0.66828 0.866134 0.852707 0.839281 0.825855 0.812429 0.914549 0.758064 0.601578 0.445093 0.288607 0.271409 0.25421 0.237012 0.219813 0.314326 0.408838 0.503351 0.597863 0.617724 0.637584 0.657445 0.677305 0.618271 0.559236 0.500201 0.441166 0.385347 0.329527 0.273708 0.217889 0.414109 0.610329 0.806549 1.00277 0.773784 0.544799 0.315815 0.0868299 0.0930814 0.0993329 0.105584 0.111836 0.121445 0.131054 0.140663 0.150272 0.156725 0.163177 0.16963 0.176082 0.296293 0.416504 0.536715 0.656926 0.644378 0.63183 0.619282 0.606733 0.468973 0.331213 0.193453 0.0556932 0.287475 0.519256 0.751038 0.98282 0.931913 0.881007 0.830101 0.779195 0.878941 0.717652 0.556363 0.395074 0.233785 0.273404 0.313023 0.352642 0.392261 0.468083 0.543905 0.619727 0.695549 0.713737 0.731925 0.750113 0.768302 0.715734 0.663167 0.610599 0.558032 0.511315 0.464598 0.417881 0.371164 0.500334 0.629504 0.758674 0.887844 0.693906 0.499967 0.306029 0.11209 0.131389 0.150689 0.169988 0.189287 0.178996 0.168705 0.158414 0.148123 0.14615 0.144176 0.142202 0.140228 0.290438 0.440647 0.590857 0.741066 0.689477 0.637887 0.586297 0.534707 0.431036 0.327365 0.223694 0.120023 0.296218 0.472413 0.648608 0.824803 0.795917 0.767031 0.738146 0.70926 0.843332 0.67724 0.511147 0.345055 0.178963 0.275399 0.371835 0.468272 0.564708 0.62184 0.678972 0.736104 0.793236 0.809751 0.826267 0.842782 0.859298 0.813198 0.767098 0.720998 0.674898 0.637284 0.599669 0.562055 0.52444 0.58656 0.64868 0.7108 0.772919 0.614027 0.455135 0.296243 0.137351 0.169698 0.202044 0.234391 0.266738 0.236547 0.206356 0.176165 0.145974 0.135574 0.125175 0.114775 0.104375 0.284583 0.464791 0.644999 0.825207 0.734575 0.643944 0.553313 0.462682 0.393099 0.323517 0.253935 0.184353 0.304961 0.42557 0.546178 0.666786 0.659921 0.653055 0.64619 0.639325 0.807723 0.636828 0.465932 0.295036 0.124141 0.277394 0.430648 0.583902 0.737156 0.775597 0.814039 0.852481 0.890922 0.905765 0.920608 0.935451 0.950294 0.910661 0.871029 0.831397 0.791764 0.763252 0.73474 0.706228 0.677716 0.672786 0.667855 0.662925 0.657995 0.534149 0.410303 0.286457 0.162611 0.208006 0.2534 0.298794 0.344189 0.294098 0.244007 0.193916 0.143825 0.124999 0.106173 0.0873472 0.0685211 0.278727 0.488934 0.69914 0.909347 0.779674 0.650001 0.520328 0.390656 0.355162 0.319669 0.284176 0.248683 0.313705 0.378726 0.443748 0.508769 0.523924 0.53908 0.554235 0.56939 0.772115 0.596415 0.420716 0.245017 0.0693185 0.27939 0.489461 0.699532 0.909603 0.929354 0.949106 0.968857 0.988609 1.00178 1.01495 1.02812 1.04129 1.00813 0.97496 0.941795 0.908631 0.889221 0.869811 0.850401 0.830992 0.759011 0.687031 0.615051 0.54307 0.454271 0.365471 0.276671 0.187872 0.246314 0.304756 0.363198 0.42164 0.351649 0.281658 0.211667 0.141676 0.114424 0.087172 0.0599197 0.0326674 0.272872 0.513077 0.753282 0.993487 0.824773 0.656058 0.487344 0.31863 0.317226 0.315821 0.314417 0.313013 0.322448 0.331883 0.341318 0.350753 0.387928 0.425104 0.46228 0.499455 0.748664 0.576287 0.40391 0.231532 0.0591551 0.270566 0.481978 0.693389 0.9048 0.900933 0.897067 0.893201 0.889334 0.918709 0.948084 0.977459 1.00683 0.948494 0.890155 0.831815 0.773476 0.765407 0.757337 0.749268 0.741199 0.661311 0.581423 0.501535 0.421647 0.363171 0.304694 0.246218 0.187742 0.263685 0.339629 0.415573 0.491516 0.417074 0.342633 0.268191 0.19375 0.21084 0.22793 0.24502 0.26211 0.390677 0.519244 0.647811 0.776377 0.707362 0.638346 0.56933 0.500314 0.469678 0.439042 0.408406 0.37777 0.395639 0.413508 0.431377 0.449246 0.497382 0.545519 0.593655 0.641792 0.725214 0.556159 0.387103 0.218047 0.0489918 0.261743 0.474494 0.687246 0.899997 0.872512 0.845028 0.817544 0.790059 0.835639 0.881218 0.926797 0.972377 0.888863 0.805349 0.721835 0.638321 0.641592 0.644864 0.648135 0.651407 0.563611 0.475815 0.38802 0.300224 0.272071 0.243918 0.215765 0.187612 0.281057 0.374502 0.467947 0.561392 0.4825 0.403608 0.324715 0.245823 0.307255 0.368688 0.430121 0.491553 0.508482 0.525411 0.542339 0.559268 0.589951 0.620633 0.651316 0.681998 0.62213 0.562262 0.502394 0.442527 0.46883 0.495133 0.521436 0.547739 0.606836 0.665933 0.725031 0.784128 0.701764 0.53603 0.370296 0.204562 0.0388285 0.25292 0.467011 0.681102 0.895194 0.844091 0.792989 0.741887 0.690785 0.752568 0.814352 0.876136 0.93792 0.829232 0.720543 0.611854 0.503166 0.517778 0.53239 0.547002 0.561615 0.465911 0.370208 0.274504 0.178801 0.180971 0.183142 0.185312 0.187482 0.298429 0.409375 0.520322 0.631268 0.547925 0.464582 0.381239 0.297896 0.403671 0.509446 0.615221 0.720996 0.626287 0.531577 0.436868 0.342159 0.47254 0.602921 0.733301 0.863682 0.774583 0.685483 0.596383 0.507283 0.54202 0.576757 0.611495 0.646232 0.71629 0.786348 0.856406 0.926464 0.678314 0.515902 0.353489 0.191077 0.0286651 0.244097 0.459528 0.674959 0.890391 0.81567 0.74095 0.66623 0.59151 0.669498 0.747487 0.825475 0.903464 0.7696 0.635737 0.501874 0.368011 0.393964 0.419916 0.445869 0.471822 0.368211 0.2646 0.160989 0.0573778 0.0898714 0.122365 0.154859 0.187352 0.3158 0.444248 0.572697 0.701145 0.613351 0.525557 0.437763 0.349969 0.500087 0.650204 0.800321 0.950439 0.744091 0.537744 0.331397 0.125049 0.355129 0.585208 0.815287 1.04537 0.927035 0.808703 0.690372 0.57204 0.615211 0.658382 0.701554 0.744725 0.825744 0.906763 0.987782 1.0688 0.584041 0.470866 0.357692 0.244517 0.131343 0.296174 0.461004 0.625835 0.790666 0.75442 0.718175 0.681929 0.645684 0.707757 0.76983 0.831903 0.893976 0.74611 0.598245 0.450379 0.302514 0.327128 0.351743 0.376357 0.400971 0.335264 0.269557 0.20385 0.138142 0.142484 0.146826 0.151168 0.15551 0.282602 0.409693 0.536785 0.663876 0.585731 0.507586 0.429441 0.351296 0.453293 0.55529 0.657286 0.759283 0.606727 0.454171 0.301615 0.149058 0.367632 0.586205 0.804778 1.02335 0.919472 0.815592 0.711712 0.607832 0.626307 0.644782 0.663257 0.681732 0.77266 0.863589 0.954518 1.04545 0.489768 0.425831 0.361894 0.297958 0.234021 0.348251 0.462481 0.576711 0.690941 0.69317 0.6954 0.697629 0.699858 0.746016 0.792173 0.83833 0.884488 0.72262 0.560752 0.398885 0.237017 0.260293 0.283569 0.306844 0.33012 0.302317 0.274514 0.24671 0.218907 0.195097 0.171288 0.147478 0.123668 0.249403 0.375138 0.500873 0.626607 0.558111 0.489616 0.42112 0.352624 0.4065 0.460375 0.514251 0.568127 0.469362 0.370597 0.271832 0.173068 0.380135 0.587202 0.794269 1.00134 0.911908 0.82248 0.733053 0.643625 0.637403 0.631182 0.62496 0.618739 0.719577 0.820415 0.921254 1.02209 0.395495 0.380796 0.366097 0.351398 0.336699 0.400328 0.463957 0.527586 0.591216 0.63192 0.672624 0.713329 0.754033 0.784275 0.814516 0.844758 0.875 0.69913 0.52326 0.34739 0.17152 0.193457 0.215395 0.237332 0.259269 0.26937 0.27947 0.289571 0.299672 0.24771 0.195749 0.143788 0.0918265 0.216205 0.340583 0.464961 0.589339 0.530492 0.471645 0.412798 0.353951 0.359706 0.365461 0.371216 0.376971 0.331998 0.287024 0.24205 0.197077 0.392638 0.588199 0.78376 0.979321 0.904345 0.829369 0.754393 0.679417 0.648499 0.617581 0.586663 0.555746 0.666494 0.777242 0.88799 0.998738 0.301222 0.33576 0.370299 0.404838 0.439376 0.452405 0.465434 0.478462 0.491491 0.57067 0.649849 0.729028 0.808207 0.822533 0.83686 0.851186 0.865512 0.67564 0.485767 0.295895 0.106023 0.126622 0.147221 0.167819 0.188418 0.236423 0.284427 0.332432 0.380436 0.300323 0.22021 0.140097 0.0599845 0.183006 0.306027 0.429049 0.55207 0.502872 0.453674 0.404476 0.355278 0.312913 0.270547 0.228181 0.185815 0.194633 0.203451 0.212268 0.221086 0.405141 0.589196 0.773251 0.957306 0.896782 0.836257 0.775733 0.715209 0.659595 0.603981 0.548367 0.492753 0.61341 0.734068 0.854726 0.975383 0.253127 0.32154 0.389953 0.458366 0.526778 0.535911 0.545044 0.554177 0.56331 0.61117 0.65903 0.706891 0.754751 0.740524 0.726297 0.712071 0.697844 0.582747 0.46765 0.352553 0.237456 0.233251 0.229045 0.22484 0.220635 0.245675 0.270716 0.295757 0.320797 0.265901 0.211005 0.156109 0.101213 0.238592 0.375971 0.51335 0.650729 0.559385 0.468042 0.376699 0.285355 0.264888 0.244422 0.223955 0.203489 0.197625 0.191761 0.185897 0.180033 0.343722 0.50741 0.671098 0.834786 0.76108 0.687373 0.613667 0.53996 0.556641 0.573322 0.590003 0.606684 0.651041 0.695398 0.739754 0.784111 0.205033 0.30732 0.409607 0.511894 0.61418 0.619418 0.624655 0.629892 0.635129 0.651671 0.668212 0.684753 0.701294 0.658515 0.615735 0.572956 0.530176 0.489855 0.449533 0.409211 0.368889 0.33988 0.31087 0.281861 0.252851 0.254928 0.257005 0.259082 0.261158 0.231479 0.2018 0.172121 0.142441 0.294178 0.445914 0.597651 0.749387 0.615899 0.48241 0.348921 0.215432 0.216864 0.218297 0.219729 0.221162 0.200616 0.180071 0.159526 0.13898 0.282302 0.425623 0.568945 0.712266 0.625378 0.538489 0.4516 0.364711 0.453687 0.542663 0.631639 0.720615 0.688671 0.656727 0.624783 0.592839 0.156938 0.293099 0.42926 0.565421 0.701583 0.702924 0.704266 0.705607 0.706949 0.692171 0.677393 0.662616 0.647838 0.576506 0.505173 0.433841 0.362509 0.396962 0.431415 0.465869 0.500322 0.446508 0.392695 0.338881 0.285068 0.26418 0.243293 0.222406 0.201519 0.197057 0.192595 0.188132 0.18367 0.349764 0.515858 0.681952 0.848046 0.672412 0.496777 0.321143 0.145509 0.16884 0.192172 0.215504 0.238835 0.203608 0.168381 0.133154 0.0979276 0.220882 0.343837 0.466792 0.589747 0.489676 0.389605 0.289534 0.189463 0.350734 0.512005 0.673276 0.834547 0.726302 0.618057 0.509812 0.401567 0.108844 0.278879 0.448914 0.618949 0.788985 0.78643 0.783876 0.781322 0.778768 0.732671 0.686575 0.640478 0.594382 0.494497 0.394611 0.294726 0.194841 0.304069 0.413298 0.522526 0.631755 0.553137 0.47452 0.395902 0.317284 0.273433 0.229582 0.185731 0.14188 0.162635 0.183389 0.204144 0.224898 0.40535 0.585801 0.766253 0.946705 0.728925 0.511145 0.293366 0.0755858 0.120816 0.166047 0.211278 0.256508 0.2066 0.156692 0.106783 0.0568747 0.159463 0.262051 0.364639 0.467227 0.353974 0.24072 0.127467 0.0142139 0.24778 0.481346 0.714912 0.948478 0.763932 0.579386 0.394841 0.210295 0.10606 0.247819 0.389578 0.531338 0.673097 0.680989 0.688881 0.696774 0.704666 0.646669 0.588673 0.530676 0.472679 0.456852 0.441025 0.425198 0.409371 0.447439 0.485507 0.523575 0.561642 0.500382 0.439121 0.377861 0.3166 0.268155 0.21971 0.171264 0.122819 0.154001 0.185183 0.216365 0.247548 0.366232 0.484917 0.603602 0.722286 0.589304 0.456321 0.323339 0.190356 0.241204 0.292051 0.342898 0.393745 0.347699 0.301654 0.255608 0.209563 0.250708 0.291853 0.332998 0.374144 0.288666 0.203188 0.11771 0.0322322 0.253227 0.474221 0.695216 0.91621 0.787082 0.657954 0.528825 0.399697 0.103276 0.21676 0.330243 0.443726 0.557209 0.575548 0.593887 0.612225 0.630564 0.560667 0.49077 0.420874 0.350977 0.419208 0.487439 0.55567 0.623901 0.590808 0.557715 0.524623 0.49153 0.447626 0.403723 0.35982 0.315916 0.262877 0.209837 0.156797 0.103758 0.145368 0.186977 0.228587 0.270197 0.327115 0.384032 0.44095 0.497868 0.449683 0.401498 0.353312 0.305127 0.361591 0.418054 0.474518 0.530981 0.488799 0.446616 0.404433 0.362251 0.341953 0.321655 0.301358 0.28106 0.223358 0.165655 0.107953 0.0502506 0.258674 0.467097 0.67552 0.883943 0.810232 0.736521 0.662809 0.589098 0.100493 0.1857 0.270907 0.356114 0.441321 0.470107 0.498892 0.527677 0.556462 0.474665 0.392868 0.311071 0.229274 0.381563 0.533852 0.686142 0.838431 0.734177 0.629924 0.525671 0.421417 0.394871 0.368325 0.341778 0.315232 0.257598 0.199964 0.142331 0.0846968 0.136734 0.188772 0.240809 0.292846 0.287997 0.283148 0.278299 0.27345 0.310062 0.346674 0.383286 0.419898 0.481978 0.544058 0.606138 0.668218 0.629898 0.591578 0.553258 0.514939 0.433198 0.351458 0.269717 0.187977 0.15805 0.128123 0.0981958 0.0682689 0.26412 0.459972 0.655824 0.851675 0.833381 0.815088 0.796794 0.7785 0.097709 0.15464 0.211571 0.268502 0.325434 0.364665 0.403897 0.443129 0.48236 0.388663 0.294966 0.201269 0.107571 0.343919 0.580266 0.816613 1.05296 0.877547 0.702133 0.526719 0.351305 0.342115 0.332926 0.323737 0.314548 0.25232 0.190092 0.127864 0.0656356 0.128101 0.190566 0.253031 0.315496 0.24888 0.182264 0.115647 0.0490313 0.170441 0.29185 0.413259 0.534669 0.602365 0.670061 0.737758 0.805454 0.770997 0.73654 0.702083 0.667627 0.524443 0.38126 0.238077 0.0948933 0.0927418 0.0905902 0.0884387 0.0862872 0.269567 0.452847 0.636128 0.819408 0.856531 0.893655 0.930778 0.967902 0.212924 0.228029 0.243134 0.25824 0.273345 0.350023 0.4267 0.503377 0.580054 0.47757 0.375087 0.272604 0.17012 0.344453 0.518787 0.69312 0.867454 0.765802 0.664151 0.5625 0.460849 0.405297 0.349745 0.294193 0.238641 0.19449 0.150339 0.106189 0.0620377 0.149843 0.237648 0.325453 0.413258 0.359035 0.304812 0.250589 0.196366 0.282308 0.368249 0.454191 0.540132 0.604366 0.668599 0.732832 0.797066 0.769741 0.742416 0.715091 0.687767 0.58527 0.482773 0.380276 0.27778 0.243582 0.209384 0.175186 0.140989 0.305059 0.46913 0.633201 0.797272 0.81664 0.836007 0.855375 0.874743 0.328138 0.301418 0.274698 0.247977 0.221257 0.33538 0.449502 0.563625 0.677747 0.566478 0.455208 0.343938 0.232669 0.344988 0.457308 0.569627 0.681947 0.654058 0.62617 0.598281 0.570393 0.468478 0.366563 0.264649 0.162734 0.136661 0.110587 0.0845133 0.0584397 0.171585 0.28473 0.397875 0.51102 0.46919 0.427361 0.385531 0.343701 0.394175 0.444649 0.495123 0.545596 0.606366 0.667137 0.727907 0.788677 0.768484 0.748292 0.728099 0.707907 0.646096 0.584286 0.522476 0.460666 0.394422 0.328178 0.261934 0.19569 0.340552 0.485413 0.630275 0.775136 0.776748 0.77836 0.779972 0.781584 0.443353 0.374807 0.306261 0.237715 0.169169 0.320737 0.472305 0.623873 0.775441 0.655385 0.535329 0.415273 0.295217 0.345523 0.395828 0.446134 0.49644 0.542314 0.588188 0.634062 0.679937 0.531659 0.383382 0.235104 0.0868271 0.0788307 0.0708344 0.0628381 0.0548417 0.193327 0.331812 0.470297 0.608782 0.579345 0.549909 0.520473 0.491036 0.506042 0.521048 0.536054 0.55106 0.608367 0.665674 0.722981 0.780289 0.767228 0.754168 0.741107 0.728047 0.706923 0.6858 0.664676 0.643552 0.545262 0.446972 0.348682 0.250391 0.376044 0.501696 0.627348 0.753001 0.736857 0.720713 0.704569 0.688425 0.558567 0.448196 0.337824 0.227453 0.117081 0.306094 0.495108 0.684121 0.873134 0.744292 0.61545 0.486608 0.357766 0.346058 0.334349 0.322641 0.310932 0.430569 0.550207 0.669844 0.789481 0.594841 0.4002 0.20556 0.01092 0.021001 0.0310819 0.0411629 0.0512438 0.215069 0.378894 0.542719 0.706544 0.689501 0.672458 0.655414 0.638371 0.617909 0.597448 0.576986 0.556524 0.610368 0.664212 0.718056 0.7719 0.765972 0.760043 0.754115 0.748187 0.76775 0.787313 0.806876 0.826439 0.696102 0.565766 0.435429 0.305093 0.411536 0.517979 0.624422 0.730865 0.696965 0.663066 0.629166 0.595266 0.522663 0.418101 0.313539 0.208977 0.104415 0.293586 0.482756 0.671927 0.861098 0.73523 0.609363 0.483495 0.357627 0.366711 0.375794 0.384878 0.393962 0.492509 0.591056 0.689604 0.788151 0.600093 0.412036 0.223978 0.0359199 0.045005 0.05409 0.0631751 0.0722602 0.223006 0.373752 0.524498 0.675243 0.658208 0.641173 0.624138 0.607103 0.618552 0.630001 0.64145 0.652899 0.687229 0.72156 0.755891 0.790221 0.781507 0.772792 0.764077 0.755362 0.724864 0.694366 0.663868 0.633369 0.537092 0.440815 0.344537 0.24826 0.328933 0.409606 0.490279 0.570952 0.593185 0.615417 0.63765 0.659883 0.48676 0.388007 0.289254 0.190502 0.0917489 0.281077 0.470405 0.659733 0.849061 0.726168 0.603275 0.480382 0.357489 0.387364 0.41724 0.447115 0.476991 0.554448 0.631906 0.709364 0.786822 0.605346 0.423871 0.242395 0.0609198 0.069009 0.0770982 0.0851874 0.0932765 0.230943 0.36861 0.506276 0.643943 0.626916 0.609888 0.592861 0.575834 0.619194 0.662554 0.705914 0.749274 0.764091 0.778908 0.793725 0.808542 0.797041 0.78554 0.774039 0.762538 0.681978 0.601419 0.520859 0.4403 0.378082 0.315864 0.253646 0.191427 0.24633 0.301233 0.356136 0.411039 0.489404 0.567769 0.646134 0.724499 0.450856 0.357913 0.264969 0.172026 0.0790828 0.268568 0.458054 0.647539 0.837025 0.717106 0.597188 0.477269 0.357351 0.408018 0.458685 0.509352 0.56002 0.616388 0.672756 0.729124 0.785493 0.610599 0.435706 0.260813 0.0859197 0.093013 0.100106 0.1072 0.114293 0.23888 0.363468 0.488055 0.612642 0.595623 0.578604 0.561584 0.544565 0.619836 0.695107 0.770378 0.845649 0.840953 0.836256 0.83156 0.826864 0.812576 0.798289 0.784001 0.769714 0.639093 0.508472 0.377851 0.24723 0.219071 0.190913 0.162754 0.134595 0.163727 0.19286 0.221993 0.251126 0.385623 0.52012 0.654618 0.789115 0.414952 0.327819 0.240685 0.153551 0.0664168 0.25606 0.445702 0.635345 0.824988 0.708044 0.5911 0.474156 0.357212 0.428671 0.500131 0.57159 0.643049 0.678327 0.713606 0.748885 0.784163 0.615852 0.447541 0.27923 0.11092 0.117017 0.123114 0.129212 0.135309 0.246817 0.358325 0.469834 0.581342 0.56433 0.547319 0.530308 0.513296 0.620478 0.72766 0.834842 0.942024 0.917814 0.893604 0.869395 0.845185 0.828111 0.811037 0.793963 0.776889 0.596207 0.415525 0.234843 0.0541609 0.0600612 0.0659615 0.0718617 0.077762 0.0811247 0.0844874 0.08785 0.0912127 0.281842 0.472472 0.663102 0.853731 0.557909 0.476256 0.394603 0.31295 0.231296 0.336839 0.442382 0.547925 0.653468 0.604871 0.556273 0.507675 0.459078 0.472162 0.485245 0.498329 0.511413 0.538352 0.565292 0.592232 0.619171 0.527526 0.435881 0.344236 0.25259 0.236547 0.220504 0.204461 0.188419 0.293538 0.398658 0.503778 0.608898 0.602445 0.595992 0.589539 0.583085 0.652492 0.721898 0.791304 0.86071 0.852926 0.845142 0.837358 0.829573 0.783366 0.73716 0.690953 0.644746 0.542296 0.439847 0.337398 0.234949 0.254967 0.274985 0.295004 0.315022 0.310664 0.306305 0.301946 0.297587 0.389024 0.480461 0.571897 0.663334 0.700866 0.624694 0.548521 0.472348 0.396176 0.417619 0.439062 0.460506 0.481949 0.501697 0.521446 0.541195 0.560943 0.515652 0.47036 0.425068 0.379777 0.398377 0.416978 0.435579 0.454179 0.4392 0.42422 0.409241 0.394261 0.356078 0.317894 0.279711 0.241528 0.340259 0.438991 0.537723 0.636455 0.64056 0.644665 0.64877 0.652875 0.684505 0.716135 0.747766 0.779396 0.788038 0.796679 0.805321 0.813962 0.738622 0.663282 0.587942 0.512602 0.488386 0.464169 0.439953 0.415736 0.449873 0.484009 0.518146 0.552282 0.540202 0.528122 0.516042 0.503962 0.496206 0.488449 0.480693 0.472936 0.843823 0.773131 0.702439 0.631747 0.561055 0.498399 0.435742 0.373086 0.310429 0.398524 0.486619 0.574714 0.662809 0.559142 0.455475 0.351808 0.24814 0.258402 0.268664 0.278926 0.289187 0.350874 0.41256 0.474246 0.535932 0.475608 0