<?xml version="1.0"?> 
<VTKFile type="StructuredGrid" version="0.1"> 
<StructuredGrid WholeExtent="0 128 0 128 0 0"> 
<Piece Extent="0 128 0 128 0 0"> 
<PointData>
<DataArray type="Float32" Name="u" format="ascii" NumberOfComponents="1"> 
0 0 0 0 0 0 0 0 0 0 0 0 0 0 0 0 0 0 0 0 0 0 0 0 0 0 0 0 0 0 0 0 0 0 0 0 0 0 0 0 0 0 0 0 0 0 0 0 0 0 0 0 0 0 0 0 0 0 0 0 0 0 0 0 0 0 0 0 0 0 0 0 0 0 0 0 0 0 0 0 0 0 0 0 0 0 0 0 0 0 0 0 0 0 0 0 0 0 0 0 0 0 0 0 0 0 0 0 0 0 0 0 0 0 0 0 0 0 0 0 0 0 0 0 0 0 0 0 0 0 -6.04245e-08 -2.41698e-07 -5.43821e-07 -9.66792e-07 -1.51061e-06 -2.17528e-06 -2.9608e-06 -3.86717e-06 -4.92884e-06 -6.18028e-06 -7.62148e-06 -9.25244e-06 -1.10732e-05 -1.30837e-05 -1.52839e-05 -1.76739e-05 -2.01663e-05 -2.26737e-05 -2.5196e-05 -2.77334e-05 -3.02857e-05 -3.2853e-05 -3.54352e-05 -3.80325e-05 -4.05935e-05 -4.30671e-05 -4.54532e-05 -4.77519e-05 -4.99631e-05 -5.20869e-05 -5.41233e-05 -5.60721e-05 -5.79275e-05 -5.96833e-05 -6.13394e-05 -6.2896e-05 -6.4353e-05 -6.57103e-05 -6.69681e-05 -6.81263e-05 -6.91994e-05 -7.0202e-05 -7.11341e-05 -7.19956e-05 -7.27867e-05 -7.35072e-05 -7.41573e-05 -7.47368e-05 -7.52607e-05 -7.57438e-05 -7.61862e-05 -7.65878e-05 -7.69486e-05 -7.72686e-05 -7.75479e-05 -7.77864e-05 -7.79909e-05 -7.81681e-05 -7.83181e-05 -7.84408e-05 -7.85362e-05 -7.86044e-05 -7.86453e-05 -7.86589e-05 -7.86453e-05 -7.86044e-05 -7.85362e-05 -7.84408e-05 -7.83181e-05 -7.81681e-05 -7.79909e-05 -7.77864e-05 -7.75479e-05 -7.72686e-05 -7.69486e-05 -7.65878e-05 -7.61862e-05 -7.57438e-05 -7.52607e-05 -7.47368e-05 -7.41573e-05 -7.35072e-05 -7.27867e-05 -7.19956e-05 -7.11341e-05 -7.0202e-05 -6.91994e-05 -6.81263e-05 -6.69681e-05 -6.57103e-05 -6.4353e-05 -6.2896e-05 -6.13394e-05 -5.96833e-05 -5.79275e-05 -5.60721e-05 -5.41233e-05 -5.20869e-05 -4.99631e-05 -4.77519e-05 -4.54532e-05 -4.30671e-05 -4.05935e-05 -3.80325e-05 -3.54352e-05 -3.2853e-05 -3.02857e-05 -2.77334e-05 -2.5196e-05 -2.26737e-05 -2.01663e-05 -1.76739e-05 -1.52839e-05 -1.30837e-05 -1.10732e-05 -9.25245e-06 -7.62149e-06 -6.18029e-06 -4.92885e-06 -3.86717e-06 -2.9608e-06 -2.17528e-06 -1.51061e-06 -9.66793e-07 -5.43821e-07 -2.41698e-07 -6.04246e-08 0 0 -2.41698e-07 -9.66792e-07 -2.17528e-06 -3.86717e-06 -6.04245e-06 -8.70113e-06 -1.18432e-05 -1.54687e-05 -1.97154e-05 -2.47211e-05 -3.04859e-05 -3.70098e-05 -4.42927e-05 -5.23346e-05 -6.11356e-05 -7.06957e-05 -8.06652e-05 -9.06947e-05 -0.000100784 -0.000110933 -0.000121143 -0.000131412 -0.000141741 -0.00015213 -0.000162374 -0.000172268 -0.000181813 -0.000191008 -0.000199853 -0.000208348 -0.000216493 -0.000224289 -0.00023171 -0.000238733 -0.000245358 -0.000251584 -0.000257412 -0.000262841 -0.000267872 -0.000272505 -0.000276797 -0.000280808 -0.000284536 -0.000287983 -0.000291147 -0.000294029 -0.000296629 -0.000298947 -0.000301043 -0.000302975 -0.000304745 -0.000306351 -0.000307794 -0.000309074 -0.000310192 -0.000311146 -0.000311964 -0.000312673 -0.000313272 -0.000313763 -0.000314145 -0.000314418 -0.000314581 -0.000314636 -0.000314581 -0.000314418 -0.000314145 -0.000313763 -0.000313272 -0.000312673 -0.000311964 -0.000311146 -0.000310192 -0.000309074 -0.000307794 -0.000306351 -0.000304745 -0.000302975 -0.000301043 -0.000298947 -0.000296629 -0.000294029 -0.000291147 -0.000287983 -0.000284536 -0.000280808 -0.000276797 -0.000272505 -0.000267872 -0.000262841 -0.000257412 -0.000251584 -0.000245358 -0.000238733 -0.00023171 -0.000224289 -0.000216493 -0.000208348 -0.000199853 -0.000191008 -0.000181813 -0.000172268 -0.000162374 -0.00015213 -0.000141741 -0.000131412 -0.000121143 -0.000110933 -0.000100784 -9.06947e-05 -8.06653e-05 -7.06957e-05 -6.11357e-05 -5.23347e-05 -4.42927e-05 -3.70098e-05 -3.04859e-05 -2.47211e-05 -1.97154e-05 -1.54687e-05 -1.18432e-05 -8.70114e-06 -6.04246e-06 -3.86717e-06 -2.17528e-06 -9.66793e-07 -2.41698e-07 0 0 -5.43821e-07 -2.17528e-06 -4.89439e-06 -8.70113e-06 -1.35955e-05 -1.95775e-05 -2.66472e-05 -3.48045e-05 -4.43596e-05 -5.56225e-05 -6.85933e-05 -8.3272e-05 -9.96585e-05 -0.000117753 -0.000137555 -0.000159065 -0.000181497 -0.000204063 -0.000226764 -0.0002496 -0.000272571 -0.000295677 -0.000318917 -0.000342292 -0.000365342 -0.000387604 -0.000409079 -0.000429767 -0.000449668 -0.000468782 -0.000487109 -0.000504649 -0.000521348 -0.000537149 -0.000552055 -0.000566064 -0.000579177 -0.000591393 -0.000602713 -0.000613136 -0.000622794 -0.000631818 -0.000640207 -0.000647961 -0.00065508 -0.000661565 -0.000667416 -0.000672631 -0.000677346 -0.000681694 -0.000685676 -0.00068929 -0.000692537 -0.000695418 -0.000697931 -0.000700078 -0.000701918 -0.000703513 -0.000704863 -0.000705967 -0.000706826 -0.00070744 -0.000707808 -0.000707931 -0.000707808 -0.00070744 -0.000706826 -0.000705967 -0.000704863 -0.000703513 -0.000701918 -0.000700078 -0.000697931 -0.000695418 -0.000692537 -0.00068929 -0.000685676 -0.000681694 -0.000677346 -0.000672631 -0.000667416 -0.000661565 -0.00065508 -0.000647961 -0.000640206 -0.000631818 -0.000622794 -0.000613136 -0.000602713 -0.000591393 -0.000579177 -0.000566064 -0.000552055 -0.000537149 -0.000521348 -0.000504649 -0.000487109 -0.000468782 -0.000449668 -0.000429767 -0.000409079 -0.000387604 -0.000365342 -0.000342292 -0.000318917 -0.000295677 -0.000272571 -0.0002496 -0.000226764 -0.000204063 -0.000181497 -0.000159065 -0.000137555 -0.000117753 -9.96586e-05 -8.3272e-05 -6.85934e-05 -5.56226e-05 -4.43596e-05 -3.48046e-05 -2.66472e-05 -1.95776e-05 -1.35955e-05 -8.70114e-06 -4.89439e-06 -2.17528e-06 -5.43821e-07 0 0 -9.66792e-07 -3.86717e-06 -8.70113e-06 -1.54687e-05 -2.41698e-05 -3.48045e-05 -4.73728e-05 -6.18747e-05 -7.88615e-05 -9.88845e-05 -0.000121944 -0.000148039 -0.000177171 -0.000209338 -0.000244543 -0.000282783 -0.000322661 -0.000362779 -0.000403136 -0.000443734 -0.000484571 -0.000525647 -0.000566964 -0.00060852 -0.000649496 -0.000689073 -0.000727252 -0.00076403 -0.00079941 -0.000833391 -0.000865972 -0.000897154 -0.00092684 -0.000954932 -0.000981431 -0.00100634 -0.00102965 -0.00105137 -0.00107149 -0.00109002 -0.00110719 -0.00112323 -0.00113814 -0.00115193 -0.00116459 -0.00117612 -0.00118652 -0.00119579 -0.00120417 -0.0012119 -0.00121898 -0.0012254 -0.00123118 -0.0012363 -0.00124077 -0.00124458 -0.00124785 -0.00125069 -0.00125309 -0.00125505 -0.00125658 -0.00125767 -0.00125832 -0.00125854 -0.00125832 -0.00125767 -0.00125658 -0.00125505 -0.00125309 -0.00125069 -0.00124785 -0.00124458 -0.00124077 -0.0012363 -0.00123118 -0.0012254 -0.00121898 -0.0012119 -0.00120417 -0.00119579 -0.00118652 -0.00117612 -0.00116459 -0.00115193 -0.00113814 -0.00112323 -0.00110719 -0.00109002 -0.00107149 -0.00105137 -0.00102965 -0.00100634 -0.000981431 -0.000954932 -0.00092684 -0.000897154 -0.000865972 -0.000833391 -0.00079941 -0.00076403 -0.000727252 -0.000689074 -0.000649496 -0.00060852 -0.000566964 -0.000525647 -0.000484571 -0.000443734 -0.000403137 -0.000362779 -0.000322661 -0.000282783 -0.000244543 -0.000209339 -0.000177171 -0.000148039 -0.000121944 -9.88846e-05 -7.88616e-05 -6.18748e-05 -4.73729e-05 -3.48046e-05 -2.41698e-05 -1.54687e-05 -8.70114e-06 -3.86717e-06 -9.66793e-07 0 0 -1.51061e-06 -6.04245e-06 -1.35955e-05 -2.41698e-05 -3.77653e-05 -5.43821e-05 -7.402e-05 -9.66792e-05 -0.000123221 -0.000154507 -0.000190537 -0.000231311 -0.000276829 -0.000327091 -0.000382098 -0.000441848 -0.000504158 -0.000566842 -0.000629901 -0.000693334 -0.000757142 -0.000821324 -0.000885881 -0.000950812 -0.00101484 -0.00107668 -0.00113633 -0.0011938 -0.00124908 -0.00130217 -0.00135308 -0.0014018 -0.00144819 -0.00149208 -0.00153349 -0.0015724 -0.00160882 -0.00164276 -0.0016742 -0.00170316 -0.00172998 -0.00175505 -0.00177835 -0.00179989 -0.00181967 -0.00183768 -0.00185393 -0.00186842 -0.00188152 -0.0018936 -0.00190465 -0.00191469 -0.00192371 -0.00193172 -0.0019387 -0.00194466 -0.00194977 -0.0019542 -0.00195795 -0.00196102 -0.00196341 -0.00196511 -0.00196613 -0.00196647 -0.00196613 -0.00196511 -0.00196341 -0.00196102 -0.00195795 -0.0019542 -0.00194977 -0.00194466 -0.0019387 -0.00193172 -0.00192371 -0.00191469 -0.00190465 -0.0018936 -0.00188152 -0.00186842 -0.00185393 -0.00183768 -0.00181967 -0.00179989 -0.00177835 -0.00175505 -0.00172998 -0.00170316 -0.0016742 -0.00164276 -0.00160882 -0.0015724 -0.00153349 -0.00149208 -0.00144819 -0.0014018 -0.00135308 -0.00130217 -0.00124908 -0.0011938 -0.00113633 -0.00107668 -0.00101484 -0.000950812 -0.000885881 -0.000821324 -0.000757142 -0.000693334 -0.000629901 -0.000566842 -0.000504158 -0.000441848 -0.000382098 -0.000327092 -0.000276829 -0.000231311 -0.000190537 -0.000154507 -0.000123221 -9.66793e-05 -7.40201e-05 -5.43821e-05 -3.77654e-05 -2.41698e-05 -1.35955e-05 -6.04246e-06 -1.51061e-06 0 0 -2.17528e-06 -8.70113e-06 -1.95775e-05 -3.48045e-05 -5.43821e-05 -7.83102e-05 -0.000106589 -0.000139218 -0.000177438 -0.00022249 -0.000274373 -0.000333088 -0.000398634 -0.000471012 -0.000550221 -0.000636261 -0.000725987 -0.000816252 -0.000907057 -0.000998401 -0.00109028 -0.00118271 -0.00127567 -0.00136917 -0.00146137 -0.00155042 -0.00163632 -0.00171907 -0.00179867 -0.00187513 -0.00194844 -0.0020186 -0.00208539 -0.0021486 -0.00220822 -0.00226426 -0.00231671 -0.00236557 -0.00241085 -0.00245255 -0.00249118 -0.00252727 -0.00256083 -0.00259184 -0.00262032 -0.00264626 -0.00266966 -0.00269053 -0.00270939 -0.00272678 -0.0027427 -0.00275716 -0.00277015 -0.00278167 -0.00279172 -0.00280031 -0.00280767 -0.00281405 -0.00281945 -0.00282387 -0.0028273 -0.00282976 -0.00283123 -0.00283172 -0.00283123 -0.00282976 -0.0028273 -0.00282387 -0.00281945 -0.00281405 -0.00280767 -0.00280031 -0.00279172 -0.00278167 -0.00277015 -0.00275716 -0.0027427 -0.00272678 -0.00270939 -0.00269053 -0.00266966 -0.00264626 -0.00262032 -0.00259184 -0.00256083 -0.00252727 -0.00249118 -0.00245255 -0.00241085 -0.00236557 -0.00231671 -0.00226426 -0.00220822 -0.0021486 -0.00208539 -0.0020186 -0.00194844 -0.00187513 -0.00179867 -0.00171907 -0.00163632 -0.00155042 -0.00146137 -0.00136917 -0.00127567 -0.00118271 -0.00109028 -0.000998401 -0.000907057 -0.000816253 -0.000725987 -0.000636261 -0.000550221 -0.000471012 -0.000398634 -0.000333088 -0.000274373 -0.00022249 -0.000177439 -0.000139218 -0.000106589 -7.83103e-05 -5.43821e-05 -3.48046e-05 -1.95776e-05 -8.70114e-06 -2.17528e-06 0 0 -2.9608e-06 -1.18432e-05 -2.66472e-05 -4.73728e-05 -7.402e-05 -0.000106589 -0.000145079 -0.000189491 -0.000241513 -0.000302834 -0.000373452 -0.00045337 -0.000542585 -0.000641099 -0.000748911 -0.000866022 -0.000988149 -0.00111101 -0.00123461 -0.00135893 -0.001484 -0.0016098 -0.00173633 -0.00186359 -0.00198908 -0.00211029 -0.00222721 -0.00233984 -0.00244819 -0.00255226 -0.00265204 -0.00274753 -0.00283845 -0.00292448 -0.00300563 -0.0030819 -0.0031533 -0.00321981 -0.00328144 -0.00333819 -0.00339077 -0.0034399 -0.00348557 -0.00352779 -0.00356655 -0.00360185 -0.00363371 -0.0036621 -0.00368777 -0.00371145 -0.00373312 -0.0037528 -0.00377048 -0.00378616 -0.00379985 -0.00381153 -0.00382155 -0.00383024 -0.00383759 -0.0038436 -0.00384828 -0.00385162 -0.00385362 -0.00385429 -0.00385362 -0.00385162 -0.00384828 -0.0038436 -0.00383759 -0.00383024 -0.00382155 -0.00381153 -0.00379985 -0.00378616 -0.00377048 -0.0037528 -0.00373312 -0.00371145 -0.00368777 -0.0036621 -0.00363371 -0.00360185 -0.00356655 -0.00352779 -0.00348557 -0.0034399 -0.00339077 -0.00333819 -0.00328144 -0.00321981 -0.0031533 -0.0030819 -0.00300563 -0.00292448 -0.00283845 -0.00274753 -0.00265204 -0.00255226 -0.00244819 -0.00233984 -0.00222721 -0.00211029 -0.00198908 -0.00186359 -0.00173633 -0.0016098 -0.001484 -0.00135893 -0.00123461 -0.00111101 -0.000988149 -0.000866023 -0.000748912 -0.000641099 -0.000542586 -0.00045337 -0.000373453 -0.000302834 -0.000241514 -0.000189491 -0.000145079 -0.000106589 -7.40201e-05 -4.73729e-05 -2.66472e-05 -1.18432e-05 -2.9608e-06 0 0 -3.86717e-06 -1.54687e-05 -3.48045e-05 -6.18747e-05 -9.66792e-05 -0.000139218 -0.000189491 -0.000247499 -0.000315446 -0.000395538 -0.000487775 -0.000592156 -0.000708683 -0.000837354 -0.00097817 -0.00113113 -0.00129064 -0.00145112 -0.00161255 -0.00177493 -0.00193828 -0.00210259 -0.00226786 -0.00243408 -0.00259798 -0.00275629 -0.00290901 -0.00305612 -0.00319764 -0.00333356 -0.00346389 -0.00358862 -0.00370736 -0.00381973 -0.00392572 -0.00402534 -0.00411859 -0.00420546 -0.00428596 -0.00436008 -0.00442876 -0.00449293 -0.00455258 -0.00460772 -0.00465835 -0.00470446 -0.00474607 -0.00478316 -0.00481668 -0.0048476 -0.00487591 -0.00490162 -0.00492471 -0.00494519 -0.00496307 -0.00497833 -0.00499142 -0.00500276 -0.00501236 -0.00502021 -0.00502632 -0.00503068 -0.0050333 -0.00503417 -0.0050333 -0.00503068 -0.00502632 -0.00502021 -0.00501236 -0.00500276 -0.00499142 -0.00497833 -0.00496307 -0.00494519 -0.00492471 -0.00490162 -0.00487591 -0.0048476 -0.00481668 -0.00478316 -0.00474607 -0.00470446 -0.00465835 -0.00460772 -0.00455258 -0.00449293 -0.00442876 -0.00436008 -0.00428596 -0.00420546 -0.00411859 -0.00402534 -0.00392572 -0.00381973 -0.00370736 -0.00358862 -0.00346389 -0.00333356 -0.00319764 -0.00305612 -0.00290901 -0.00275629 -0.00259799 -0.00243408 -0.00226786 -0.00210259 -0.00193828 -0.00177494 -0.00161255 -0.00145112 -0.00129064 -0.00113113 -0.000978171 -0.000837354 -0.000708683 -0.000592157 -0.000487775 -0.000395538 -0.000315446 -0.000247499 -0.000189491 -0.000139218 -9.66793e-05 -6.18748e-05 -3.48046e-05 -1.54687e-05 -3.86717e-06 0 0 -4.92884e-06 -1.97154e-05 -4.43596e-05 -7.88615e-05 -0.000123221 -0.000177438 -0.000241513 -0.000315446 -0.000401922 -0.000503628 -0.000620564 -0.00075273 -0.000900125 -0.00106275 -0.00124061 -0.00143369 -0.00163482 -0.00183681 -0.00203966 -0.00224336 -0.00244793 -0.00265336 -0.00285964 -0.00306679 -0.0032706 -0.00346688 -0.00365563 -0.00383685 -0.00401055 -0.00417672 -0.00433536 -0.00448647 -0.0046296 -0.00476433 -0.00489064 -0.00500854 -0.00511802 -0.00521909 -0.00531174 -0.00539598 -0.00547316 -0.00554462 -0.00561036 -0.00567039 -0.0057247 -0.0057733 -0.00581618 -0.00585335 -0.00588623 -0.00591626 -0.00594344 -0.00596777 -0.00598925 -0.00600787 -0.00602364 -0.00603656 -0.00604734 -0.00605668 -0.00606458 -0.00607105 -0.00607608 -0.00607967 -0.00608182 -0.00608254 -0.00608182 -0.00607967 -0.00607608 -0.00607105 -0.00606458 -0.00605668 -0.00604734 -0.00603656 -0.00602364 -0.00600787 -0.00598925 -0.00596777 -0.00594344 -0.00591626 -0.00588623 -0.00585335 -0.00581618 -0.0057733 -0.0057247 -0.00567039 -0.00561036 -0.00554462 -0.00547316 -0.00539598 -0.00531174 -0.00521909 -0.00511802 -0.00500854 -0.00489064 -0.00476433 -0.0046296 -0.00448647 -0.00433536 -0.00417672 -0.00401055 -0.00383686 -0.00365563 -0.00346688 -0.0032706 -0.00306679 -0.00285964 -0.00265336 -0.00244793 -0.00224336 -0.00203966 -0.00183681 -0.00163482 -0.00143369 -0.00124061 -0.00106275 -0.000900126 -0.000752731 -0.000620565 -0.000503629 -0.000401923 -0.000315446 -0.000241514 -0.000177439 -0.000123221 -7.88616e-05 -4.43596e-05 -1.97154e-05 -4.92885e-06 0 0 -6.18028e-06 -2.47211e-05 -5.56225e-05 -9.88845e-05 -0.000154507 -0.00022249 -0.000302834 -0.000395538 -0.000503628 -0.000630131 -0.000775046 -0.000938373 -0.00112011 -0.00132026 -0.00153883 -0.0017758 -0.00202203 -0.00226833 -0.00251472 -0.00276118 -0.00300773 -0.00325436 -0.00350107 -0.00374787 -0.00398944 -0.00422048 -0.004441 -0.00465099 -0.00485046 -0.0050394 -0.00521782 -0.0053857 -0.00554266 -0.00568826 -0.00582253 -0.00594544 -0.00605701 -0.00615723 -0.00624611 -0.00632364 -0.00639197 -0.00645323 -0.00650742 -0.00655454 -0.0065946 -0.00662758 -0.0066535 -0.00667236 -0.00668654 -0.00669844 -0.00670807 -0.00671543 -0.00672051 -0.00672331 -0.00672384 -0.0067221 -0.00671939 -0.00671705 -0.00671507 -0.00671345 -0.00671218 -0.00671128 -0.00671074 -0.00671056 -0.00671074 -0.00671128 -0.00671218 -0.00671345 -0.00671507 -0.00671705 -0.00671939 -0.0067221 -0.00672384 -0.00672331 -0.00672051 -0.00671543 -0.00670807 -0.00669844 -0.00668654 -0.00667235 -0.0066535 -0.00662758 -0.0065946 -0.00655454 -0.00650742 -0.00645323 -0.00639197 -0.00632364 -0.00624611 -0.00615723 -0.00605701 -0.00594544 -0.00582253 -0.00568826 -0.00554266 -0.0053857 -0.00521782 -0.0050394 -0.00485046 -0.00465099 -0.004441 -0.00422048 -0.00398944 -0.00374787 -0.00350107 -0.00325436 -0.00300773 -0.00276118 -0.00251472 -0.00226833 -0.00202203 -0.0017758 -0.00153883 -0.00132026 -0.00112011 -0.000938374 -0.000775047 -0.000630132 -0.000503629 -0.000395538 -0.000302834 -0.00022249 -0.000154507 -9.88846e-05 -5.56226e-05 -2.47211e-05 -6.18029e-06 0 0 -7.62148e-06 -3.04859e-05 -6.85933e-05 -0.000121944 -0.000190537 -0.000274373 -0.000373452 -0.000487775 -0.000620564 -0.000775046 -0.00095122 -0.00114909 -0.00136864 -0.00160989 -0.00187284 -0.00215747 -0.00245226 -0.00274568 -0.00303772 -0.00332839 -0.00361769 -0.00390561 -0.00419215 -0.00447732 -0.00475451 -0.00501711 -0.00526512 -0.00549854 -0.00571737 -0.00592161 -0.00611127 -0.00628633 -0.00644652 -0.00659153 -0.00672138 -0.00683606 -0.00693556 -0.0070199 -0.00708907 -0.00714307 -0.0071852 -0.00721876 -0.00724375 -0.00726017 -0.00726802 -0.00726731 -0.00725802 -0.00724017 -0.00721759 -0.00719414 -0.0071698 -0.00714458 -0.00711849 -0.00709152 -0.00706366 -0.00703493 -0.00700758 -0.00698388 -0.00696382 -0.00694741 -0.00693465 -0.00692553 -0.00692006 -0.00691824 -0.00692006 -0.00692553 -0.00693465 -0.00694741 -0.00696382 -0.00698388 -0.00700758 -0.00703493 -0.00706366 -0.00709152 -0.00711849 -0.00714458 -0.0071698 -0.00719414 -0.00721759 -0.00724017 -0.00725802 -0.00726731 -0.00726802 -0.00726017 -0.00724375 -0.00721876 -0.0071852 -0.00714307 -0.00708907 -0.0070199 -0.00693556 -0.00683606 -0.00672138 -0.00659153 -0.00644652 -0.00628633 -0.00611127 -0.00592161 -0.00571737 -0.00549854 -0.00526512 -0.00501711 -0.00475451 -0.00447732 -0.00419215 -0.00390561 -0.00361769 -0.00332839 -0.00303773 -0.00274568 -0.00245226 -0.00215747 -0.00187284 -0.00160989 -0.00136864 -0.00114909 -0.000951221 -0.000775047 -0.000620565 -0.000487775 -0.000373453 -0.000274374 -0.000190537 -0.000121944 -6.85934e-05 -3.04859e-05 -7.62149e-06 0 0 -9.25244e-06 -3.70098e-05 -8.3272e-05 -0.000148039 -0.000231311 -0.000333088 -0.00045337 -0.000592156 -0.00075273 -0.000938373 -0.00114909 -0.00138487 -0.00164572 -0.00193164 -0.00224263 -0.00257869 -0.00292553 -0.00326886 -0.00360868 -0.00394499 -0.0042778 -0.00460709 -0.00493287 -0.00525515 -0.00556581 -0.00585676 -0.00612798 -0.00637949 -0.00661128 -0.00682336 -0.00701571 -0.00718835 -0.00734119 -0.00747414 -0.00758721 -0.00768039 -0.00775368 -0.00780709 -0.00784061 -0.00785425 -0.00785284 -0.00784121 -0.00781935 -0.00778728 -0.00774499 -0.00769248 -0.00762975 -0.0075568 -0.00747941 -0.00740335 -0.00732863 -0.00725524 -0.00718319 -0.00711248 -0.0070431 -0.00697506 -0.0069119 -0.00685715 -0.00681084 -0.00677294 -0.00674346 -0.00672241 -0.00670977 -0.00670556 -0.00670977 -0.00672241 -0.00674346 -0.00677294 -0.00681083 -0.00685715 -0.0069119 -0.00697506 -0.0070431 -0.00711248 -0.00718319 -0.00725524 -0.00732863 -0.00740335 -0.00747941 -0.0075568 -0.00762975 -0.00769248 -0.00774499 -0.00778728 -0.00781935 -0.00784121 -0.00785284 -0.00785425 -0.00784061 -0.00780709 -0.00775368 -0.00768039 -0.0075872 -0.00747414 -0.00734119 -0.00718835 -0.00701571 -0.00682336 -0.00661128 -0.00637949 -0.00612798 -0.00585676 -0.00556581 -0.00525515 -0.00493288 -0.00460709 -0.0042778 -0.003945 -0.00360868 -0.00326886 -0.00292553 -0.00257869 -0.00224263 -0.00193164 -0.00164572 -0.00138487 -0.00114909 -0.000938374 -0.000752731 -0.000592157 -0.00045337 -0.000333088 -0.000231311 -0.000148039 -8.3272e-05 -3.70098e-05 -9.25245e-06 0 0 -1.10732e-05 -4.42927e-05 -9.96585e-05 -0.000177171 -0.000276829 -0.000398634 -0.000542585 -0.000708683 -0.000900125 -0.00112011 -0.00136864 -0.00164572 -0.00195134 -0.0022855 -0.00264821 -0.00303946 -0.00344183 -0.00383787 -0.00422759 -0.00461099 -0.00498806 -0.00535881 -0.00572324 -0.00608135 -0.00642334 -0.00673942 -0.00702959 -0.00729385 -0.00753219 -0.00774463 -0.00793115 -0.00809176 -0.00822666 -0.00833608 -0.00842 -0.00847843 -0.00851136 -0.0085188 -0.00850075 -0.0084572 -0.0083949 -0.00832057 -0.00823423 -0.00813587 -0.00802549 -0.00790309 -0.00776867 -0.00762223 -0.00747197 -0.00732608 -0.00718456 -0.0070474 -0.00691462 -0.00678621 -0.00666217 -0.00654249 -0.00643235 -0.00633689 -0.00625612 -0.00619003 -0.00613863 -0.00610191 -0.00607988 -0.00607254 -0.00607988 -0.00610191 -0.00613863 -0.00619003 -0.00625612 -0.00633689 -0.00643235 -0.00654249 -0.00666217 -0.00678621 -0.00691462 -0.0070474 -0.00718456 -0.00732608 -0.00747197 -0.00762223 -0.00776867 -0.00790309 -0.00802549 -0.00813587 -0.00823423 -0.00832057 -0.0083949 -0.0084572 -0.00850075 -0.0085188 -0.00851136 -0.00847843 -0.00842 -0.00833608 -0.00822666 -0.00809176 -0.00793115 -0.00774463 -0.00753219 -0.00729385 -0.00702959 -0.00673942 -0.00642334 -0.00608135 -0.00572324 -0.00535881 -0.00498806 -0.00461099 -0.00422759 -0.00383787 -0.00344183 -0.00303947 -0.00264821 -0.0022855 -0.00195134 -0.00164572 -0.00136864 -0.00112011 -0.000900126 -0.000708683 -0.000542586 -0.000398634 -0.000276829 -0.000177171 -9.96586e-05 -4.42927e-05 -1.10732e-05 0 0 -1.30837e-05 -5.23346e-05 -0.000117753 -0.000209338 -0.000327091 -0.000471011 -0.000641099 -0.000837354 -0.00106275 -0.00132026 -0.00160989 -0.00193164 -0.0022855 -0.00267148 -0.00308958 -0.00353979 -0.00400116 -0.00445271 -0.00489444 -0.00532637 -0.00574848 -0.00616077 -0.00656326 -0.00695593 -0.00732711 -0.00766511 -0.00796995 -0.00824161 -0.0084801 -0.00868542 -0.00885758 -0.00899655 -0.00910295 -0.00917735 -0.00921976 -0.00923018 -0.0092086 -0.00915503 -0.00906947 -0.00895191 -0.00881137 -0.00865686 -0.00848838 -0.00830594 -0.00810953 -0.00789915 -0.0076748 -0.00743648 -0.00719529 -0.00696233 -0.00673758 -0.00652107 -0.00631277 -0.0061127 -0.00592085 -0.00573722 -0.00556893 -0.00542308 -0.00529966 -0.00519868 -0.00512015 -0.00506405 -0.00503039 -0.00501917 -0.00503039 -0.00506405 -0.00512015 -0.00519868 -0.00529966 -0.00542308 -0.00556893 -0.00573722 -0.00592085 -0.0061127 -0.00631277 -0.00652107 -0.00673758 -0.00696233 -0.00719529 -0.00743648 -0.0076748 -0.00789915 -0.00810953 -0.00830594 -0.00848838 -0.00865686 -0.00881137 -0.00895191 -0.00906946 -0.00915503 -0.0092086 -0.00923018 -0.00921976 -0.00917735 -0.00910295 -0.00899655 -0.00885758 -0.00868543 -0.0084801 -0.00824161 -0.00796995 -0.00766511 -0.00732711 -0.00695593 -0.00656326 -0.00616078 -0.00574848 -0.00532637 -0.00489445 -0.00445271 -0.00400116 -0.00353979 -0.00308958 -0.00267148 -0.0022855 -0.00193164 -0.0016099 -0.00132027 -0.00106275 -0.000837355 -0.0006411 -0.000471012 -0.000327092 -0.000209339 -0.000117753 -5.23347e-05 -1.30837e-05 0 0 -1.52839e-05 -6.11356e-05 -0.000137555 -0.000244542 -0.000382098 -0.00055022 -0.000748911 -0.00097817 -0.00124061 -0.00153883 -0.00187284 -0.00224263 -0.00264821 -0.00308958 -0.00356673 -0.00407967 -0.00460351 -0.00511337 -0.00560925 -0.00609114 -0.00655905 -0.00701298 -0.00745292 -0.00787888 -0.0082771 -0.00863382 -0.00894905 -0.00922278 -0.00945501 -0.00964575 -0.00979499 -0.00990274 -0.00997004 -0.00999796 -0.0099865 -0.00993564 -0.00984541 -0.00971578 -0.00954677 -0.00933838 -0.00910225 -0.00885007 -0.00858181 -0.00829749 -0.0079971 -0.00768065 -0.00734813 -0.00699954 -0.00664937 -0.00631209 -0.00598771 -0.00567623 -0.00537764 -0.00509195 -0.00481915 -0.00455926 -0.00432165 -0.00411572 -0.00394147 -0.0037989 -0.00368802 -0.00360882 -0.00356129 -0.00354545 -0.00356129 -0.00360882 -0.00368802 -0.0037989 -0.00394147 -0.00411572 -0.00432165 -0.00455926 -0.00481915 -0.00509195 -0.00537764 -0.00567623 -0.00598771 -0.00631209 -0.00664937 -0.00699954 -0.00734813 -0.00768065 -0.0079971 -0.00829749 -0.00858181 -0.00885007 -0.00910225 -0.00933838 -0.00954677 -0.00971578 -0.00984541 -0.00993564 -0.0099865 -0.00999796 -0.00997004 -0.00990274 -0.009795 -0.00964575 -0.00945502 -0.00922278 -0.00894905 -0.00863382 -0.0082771 -0.00787888 -0.00745292 -0.00701298 -0.00655905 -0.00609114 -0.00560925 -0.00511337 -0.00460352 -0.00407967 -0.00356673 -0.00308958 -0.00264821 -0.00224263 -0.00187284 -0.00153883 -0.00124061 -0.000978171 -0.000748912 -0.000550221 -0.000382098 -0.000244543 -0.000137555 -6.11357e-05 -1.52839e-05 0 0 -1.76739e-05 -7.06957e-05 -0.000159065 -0.000282783 -0.000441848 -0.000636261 -0.000866022 -0.00113113 -0.00143369 -0.0017758 -0.00215747 -0.00257869 -0.00303946 -0.00353979 -0.00407967 -0.00465911 -0.0052489 -0.00581987 -0.006372 -0.0069053 -0.00741977 -0.00791542 -0.00839222 -0.0088502 -0.00927332 -0.00964555 -0.0099669 -0.0102374 -0.0104569 -0.0106256 -0.0107434 -0.0108103 -0.0108279 -0.0107979 -0.0107202 -0.0105948 -0.0104218 -0.0102011 -0.00993267 -0.00961661 -0.00926756 -0.00890019 -0.00851451 -0.00811052 -0.00768821 -0.00724759 -0.00678866 -0.00631141 -0.0058342 -0.00537537 -0.00493494 -0.00451289 -0.00410923 -0.00372396 -0.00335708 -0.00300859 -0.00269049 -0.00241481 -0.00218154 -0.00199069 -0.00184224 -0.00173621 -0.00167259 -0.00165139 -0.00167259 -0.00173621 -0.00184224 -0.00199069 -0.00218154 -0.00241481 -0.00269049 -0.00300859 -0.00335708 -0.00372396 -0.00410923 -0.00451289 -0.00493494 -0.00537537 -0.0058342 -0.00631141 -0.00678866 -0.00724759 -0.00768821 -0.00811052 -0.00851451 -0.00890019 -0.00926756 -0.00961661 -0.00993266 -0.0102011 -0.0104218 -0.0105948 -0.0107202 -0.0107979 -0.0108279 -0.0108103 -0.0107434 -0.0106256 -0.0104569 -0.0102374 -0.0099669 -0.00964555 -0.00927332 -0.0088502 -0.00839223 -0.00791542 -0.00741978 -0.00690531 -0.006372 -0.00581987 -0.00524891 -0.00465911 -0.00407967 -0.00353979 -0.00303947 -0.00257869 -0.00215747 -0.0017758 -0.00143369 -0.00113113 -0.000866023 -0.000636262 -0.000441848 -0.000282783 -0.000159065 -7.06957e-05 -1.76739e-05 0 0 -2.01663e-05 -8.06652e-05 -0.000181497 -0.000322661 -0.000504158 -0.000725987 -0.000988149 -0.00129064 -0.00163482 -0.00202203 -0.00245226 -0.00292553 -0.00344183 -0.00400116 -0.00460351 -0.0052489 -0.00590335 -0.0065329 -0.00713754 -0.00771727 -0.00827209 -0.00880201 -0.00930702 -0.00978712 -0.0102238 -0.0105985 -0.0109112 -0.0111619 -0.0113507 -0.0114775 -0.0115424 -0.0115452 -0.0114885 -0.0113744 -0.0112031 -0.0109745 -0.0106886 -0.0103455 -0.00994504 -0.00948733 -0.00899069 -0.00847347 -0.00793566 -0.00737727 -0.00679829 -0.00619873 -0.00557858 -0.00493785 -0.00429958 -0.00368681 -0.00309955 -0.00253779 -0.00200154 -0.00149079 -0.00100554 -0.000545805 -0.000126755 0.000236422 0.000543726 0.000795156 0.000990713 0.0011304 0.00121421 0.00124214 0.00121421 0.0011304 0.000990713 0.000795157 0.000543726 0.000236423 -0.000126755 -0.000545805 -0.00100554 -0.00149079 -0.00200154 -0.00253779 -0.00309955 -0.00368681 -0.00429958 -0.00493785 -0.00557858 -0.00619873 -0.00679829 -0.00737727 -0.00793566 -0.00847347 -0.00899069 -0.00948733 -0.00994504 -0.0103455 -0.0106886 -0.0109745 -0.0112031 -0.0113744 -0.0114885 -0.0115452 -0.0115424 -0.0114775 -0.0113507 -0.011162 -0.0109112 -0.0105985 -0.0102238 -0.00978713 -0.00930702 -0.00880201 -0.00827209 -0.00771727 -0.00713754 -0.0065329 -0.00590336 -0.00524891 -0.00460352 -0.00400116 -0.00344183 -0.00292553 -0.00245226 -0.00202203 -0.00163482 -0.00129064 -0.00098815 -0.000725988 -0.000504158 -0.000322661 -0.000181497 -8.06653e-05 -2.01663e-05 0 0 -2.26737e-05 -9.06947e-05 -0.000204063 -0.000362779 -0.000566842 -0.000816252 -0.00111101 -0.00145111 -0.00183681 -0.00226833 -0.00274568 -0.00326886 -0.00383787 -0.00445271 -0.00511337 -0.00581987 -0.0065329 -0.00721317 -0.00786068 -0.00847544 -0.00905743 -0.00960667 -0.0101231 -0.0106069 -0.0110365 -0.0113908 -0.0116697 -0.0118732 -0.0120013 -0.012054 -0.0120314 -0.0119334 -0.0117634 -0.0115247 -0.0112174 -0.0108414 -0.0103969 -0.00988363 -0.00930178 -0.00865128 -0.00795509 -0.00723614 -0.00649444 -0.00572998 -0.00494278 -0.00413282 -0.0033001 -0.00244463 -0.00159531 -0.000781043 -1.82452e-06 0.000742343 0.00145146 0.00212552 0.00276454 0.0033685 0.00391829 0.00439477 0.00479795 0.00512782 0.00538438 0.00556765 0.0056776 0.00571426 0.0056776 0.00556765 0.00538438 0.00512782 0.00479795 0.00439477 0.00391829 0.0033685 0.00276454 0.00212553 0.00145146 0.000742343 -1.82407e-06 -0.000781042 -0.00159531 -0.00244463 -0.0033001 -0.00413282 -0.00494278 -0.00572998 -0.00649444 -0.00723614 -0.00795508 -0.00865128 -0.00930177 -0.00988363 -0.0103969 -0.0108414 -0.0112174 -0.0115247 -0.0117634 -0.0119334 -0.0120314 -0.012054 -0.0120013 -0.0118732 -0.0116697 -0.0113908 -0.0110365 -0.0106069 -0.0101231 -0.00960667 -0.00905743 -0.00847544 -0.00786069 -0.00721317 -0.0065329 -0.00581987 -0.00511338 -0.00445271 -0.00383787 -0.00326886 -0.00274568 -0.00226833 -0.00183681 -0.00145112 -0.00111101 -0.000816253 -0.000566842 -0.000362779 -0.000204063 -9.06948e-05 -2.26737e-05 0 0 -2.5196e-05 -0.000100784 -0.000226764 -0.000403136 -0.0006299 -0.000907057 -0.0012346 -0.00161254 -0.00203966 -0.00251472 -0.00303772 -0.00360868 -0.00422759 -0.00489444 -0.00560925 -0.006372 -0.00713753 -0.00786068 -0.00854144 -0.00917981 -0.0097758 -0.0103294 -0.0108406 -0.0113094 -0.0117115 -0.0120225 -0.0122423 -0.012371 -0.0124087 -0.0123552 -0.0122105 -0.0119748 -0.0116527 -0.0112487 -0.0107631 -0.0101957 -0.00954648 -0.00881556 -0.00800288 -0.00710845 -0.00616073 -0.0051882 -0.00419084 -0.00316866 -0.00212166 -0.00104984 4.67935e-05 0.00116825 0.00227861 0.00334193 0.00435824 0.00532751 0.00624976 0.00712498 0.00795317 0.00873434 0.00944464 0.0100602 0.0105811 0.0110073 0.0113388 0.0115755 0.0117176 0.011765 0.0117176 0.0115755 0.0113388 0.0110073 0.0105811 0.0100602 0.00944464 0.00873434 0.00795317 0.00712498 0.00624976 0.00532751 0.00435824 0.00334194 0.00227861 0.00116825 4.67942e-05 -0.00104984 -0.00212166 -0.00316866 -0.00419084 -0.0051882 -0.00616073 -0.00710845 -0.00800288 -0.00881556 -0.00954648 -0.0101957 -0.0107631 -0.0112487 -0.0116527 -0.0119748 -0.0122105 -0.0123552 -0.0124087 -0.012371 -0.0122423 -0.0120225 -0.0117115 -0.0113094 -0.0108406 -0.0103294 -0.0097758 -0.00917982 -0.00854144 -0.00786069 -0.00713754 -0.006372 -0.00560925 -0.00489445 -0.00422759 -0.00360868 -0.00303773 -0.00251472 -0.00203966 -0.00161255 -0.00123461 -0.000907057 -0.000629901 -0.000403137 -0.000226764 -0.000100784 -2.5196e-05 0 0 -2.77333e-05 -0.000110933 -0.0002496 -0.000443734 -0.000693334 -0.0009984 -0.001358