<?xml version="1.0"?> 
<VTKFile type="StructuredGrid" version="0.1"> 
<StructuredGrid WholeExtent="0 128 0 128 0 0"> 
<Piece Extent="0 128 0 128 0 0"> 
<PointData>
<DataArray type="Float32" Name="u" format="ascii" NumberOfComponents="1"> 
0 0 0 0 0 0 0 0 0 0 0 0 0 0 0 0 0 0 0 0 0 0 0 0 0 0 0 0 0 0 0 0 0 0 0 0 0 0 0 0 0 0 0 0 0 0 0 0 0 0 0 0 0 0 0 0 0 0 0 0 0 0 0 0 0 0 0 0 0 0 0 0 0 0 0 0 0 0 0 0 0 0 0 0 0 0 0 0 0 0 0 0 0 0 0 0 0 0 0 0 0 0 0 0 0 0 0 0 0 0 0 0 0 0 0 0 0 0 0 0 0 0 0 0 0 0 0 0 0 0 5.04957e-08 2.01983e-07 4.54461e-07 8.07931e-07 1.26239e-06 1.81785e-06 2.47429e-06 3.23172e-06 3.98474e-06 4.62791e-06 5.16124e-06 5.58472e-06 5.89837e-06 6.10218e-06 6.19615e-06 6.18027e-06 5.92322e-06 5.29363e-06 4.29152e-06 2.91689e-06 1.16973e-06 -9.49962e-07 -3.44218e-06 -6.30692e-06 -9.51783e-06 -1.30486e-05 -1.68991e-05 -2.10695e-05 -2.55596e-05 -3.03696e-05 -3.54994e-05 -4.09491e-05 -4.66283e-05 -5.24469e-05 -5.84049e-05 -6.45023e-05 -7.07391e-05 -7.71152e-05 -8.36308e-05 -9.02857e-05 -9.69832e-05 -0.000103626 -0.000110216 -0.00011675 -0.000123231 -0.000129657 -0.000136029 -0.000142347 -0.000148494 -0.000154351 -0.00015992 -0.0001652 -0.000170191 -0.000174893 -0.000179306 -0.000183431 -0.000187162 -0.000190396 -0.000193132 -0.000195371 -0.000197112 -0.000198356 -0.000199103 -0.000199351 -0.000199103 -0.000198356 -0.000197112 -0.000195371 -0.000193132 -0.000190396 -0.000187162 -0.000183431 -0.000179306 -0.000174893 -0.000170191 -0.0001652 -0.00015992 -0.000154351 -0.000148494 -0.000142347 -0.000136029 -0.000129657 -0.000123231 -0.00011675 -0.000110216 -0.000103626 -9.69832e-05 -9.02857e-05 -8.36308e-05 -7.71152e-05 -7.07391e-05 -6.45023e-05 -5.84049e-05 -5.24469e-05 -4.66283e-05 -4.09491e-05 -3.54994e-05 -3.03696e-05 -2.55596e-05 -2.10695e-05 -1.68991e-05 -1.30486e-05 -9.51783e-06 -6.30692e-06 -3.44218e-06 -9.49962e-07 1.16973e-06 2.91689e-06 4.29152e-06 5.29363e-06 5.92322e-06 6.18027e-06 6.19615e-06 6.10218e-06 5.89837e-06 5.58472e-06 5.16124e-06 4.62791e-06 3.98474e-06 3.23172e-06 2.47429e-06 1.81785e-06 1.26239e-06 8.07931e-07 4.54461e-07 2.01983e-07 5.04957e-08 0 0 2.01983e-07 8.07931e-07 1.81785e-06 3.23172e-06 5.04957e-06 7.27138e-06 9.89716e-06 1.29269e-05 1.59389e-05 1.85116e-05 2.06449e-05 2.23389e-05 2.35935e-05 2.44087e-05 2.47846e-05 2.47211e-05 2.36929e-05 2.11745e-05 1.71661e-05 1.16676e-05 4.67891e-06 -3.79985e-06 -1.37687e-05 -2.52277e-05 -3.80713e-05 -5.21942e-05 -6.75964e-05 -8.42779e-05 -0.000102239 -0.000121479 -0.000141998 -0.000163796 -0.000186513 -0.000209788 -0.00023362 -0.000258009 -0.000282956 -0.000308461 -0.000334523 -0.000361143 -0.000387933 -0.000414506 -0.000440862 -0.000467001 -0.000492924 -0.000518629 -0.000544118 -0.00056939 -0.000593975 -0.000617405 -0.00063968 -0.0006608 -0.000680764 -0.000699572 -0.000717226 -0.000733724 -0.000748649 -0.000761584 -0.00077253 -0.000781485 -0.00078845 -0.000793425 -0.00079641 -0.000797405 -0.00079641 -0.000793425 -0.00078845 -0.000781485 -0.00077253 -0.000761584 -0.000748649 -0.000733724 -0.000717226 -0.000699572 -0.000680764 -0.0006608 -0.00063968 -0.000617405 -0.000593975 -0.00056939 -0.000544118 -0.000518629 -0.000492924 -0.000467001 -0.000440862 -0.000414506 -0.000387933 -0.000361143 -0.000334523 -0.000308461 -0.000282956 -0.000258009 -0.00023362 -0.000209788 -0.000186513 -0.000163796 -0.000141998 -0.000121479 -0.000102239 -8.42779e-05 -6.75964e-05 -5.21942e-05 -3.80713e-05 -2.52277e-05 -1.37687e-05 -3.79985e-06 4.67891e-06 1.16676e-05 1.71661e-05 2.11745e-05 2.36929e-05 2.47211e-05 2.47846e-05 2.44087e-05 2.35935e-05 2.23389e-05 2.06449e-05 1.85116e-05 1.59389e-05 1.29269e-05 9.89716e-06 7.27138e-06 5.04957e-06 3.23172e-06 1.81785e-06 8.07931e-07 2.01983e-07 0 0 4.54461e-07 1.81785e-06 4.09015e-06 7.27138e-06 1.13615e-05 1.63606e-05 2.22686e-05 2.90855e-05 3.58626e-05 4.16511e-05 4.64511e-05 5.02625e-05 5.30854e-05 5.49196e-05 5.57653e-05 5.56225e-05 5.3309e-05 4.76427e-05 3.86237e-05 2.6252e-05 1.05275e-05 -8.54965e-06 -3.09796e-05 -5.67623e-05 -8.56605e-05 -0.000117437 -0.000152092 -0.000189625 -0.000230037 -0.000273327 -0.000319495 -0.000368542 -0.000419655 -0.000472022 -0.000525644 -0.000580521 -0.000636652 -0.000694037 -0.000752677 -0.000812571 -0.000872849 -0.000932638 -0.00099194 -0.00105075 -0.00110908 -0.00116692 -0.00122427 -0.00128113 -0.00133644 -0.00138916 -0.00143928 -0.0014868 -0.00153172 -0.00157404 -0.00161376 -0.00165088 -0.00168446 -0.00171356 -0.00173819 -0.00175834 -0.00177401 -0.00178521 -0.00179192 -0.00179416 -0.00179192 -0.00178521 -0.00177401 -0.00175834 -0.00173819 -0.00171356 -0.00168446 -0.00165088 -0.00161376 -0.00157404 -0.00153172 -0.0014868 -0.00143928 -0.00138916 -0.00133644 -0.00128113 -0.00122427 -0.00116692 -0.00110908 -0.00105075 -0.00099194 -0.000932638 -0.000872849 -0.000812571 -0.000752677 -0.000694037 -0.000636652 -0.000580521 -0.000525644 -0.000472022 -0.000419655 -0.000368542 -0.000319495 -0.000273327 -0.000230037 -0.000189625 -0.000152092 -0.000117437 -8.56605e-05 -5.67623e-05 -3.09796e-05 -8.54965e-06 1.05275e-05 2.6252e-05 3.86237e-05 4.76427e-05 5.3309e-05 5.56225e-05 5.57653e-05 5.49196e-05 5.30854e-05 5.02625e-05 4.64511e-05 4.16512e-05 3.58626e-05 2.90855e-05 2.22686e-05 1.63606e-05 1.13615e-05 7.27138e-06 4.09015e-06 1.81785e-06 4.54461e-07 0 0 8.07931e-07 3.23172e-06 7.27138e-06 1.29269e-05 2.01983e-05 2.90855e-05 3.95886e-05 5.17076e-05 6.37558e-05 7.40465e-05 8.25798e-05 8.93556e-05 9.4374e-05 9.76349e-05 9.91384e-05 9.88844e-05 9.47715e-05 8.46981e-05 6.86644e-05 4.66702e-05 1.87156e-05 -1.51994e-05 -5.50748e-05 -0.000100911 -0.000152285 -0.000208777 -0.000270386 -0.000337111 -0.000408954 -0.000485914 -0.000567991 -0.000655185 -0.000746053 -0.000839151 -0.000934479 -0.00103204 -0.00113183 -0.00123384 -0.00133809 -0.00144457 -0.00155173 -0.00165802 -0.00176345 -0.00186801 -0.0019717 -0.00207452 -0.00217647 -0.00227756 -0.0023759 -0.00246962 -0.00255872 -0.0026432 -0.00272305 -0.00279829 -0.0028689 -0.0029349 -0.0029946 -0.00304634 -0.00309012 -0.00312594 -0.0031538 -0.0031737 -0.00318564 -0.00318962 -0.00318564 -0.0031737 -0.0031538 -0.00312594 -0.00309012 -0.00304634 -0.0029946 -0.0029349 -0.0028689 -0.00279829 -0.00272305 -0.0026432 -0.00255872 -0.00246962 -0.0023759 -0.00227756 -0.00217647 -0.00207452 -0.0019717 -0.00186801 -0.00176345 -0.00165802 -0.00155173 -0.00144457 -0.00133809 -0.00123384 -0.00113183 -0.00103204 -0.000934479 -0.000839151 -0.000746053 -0.000655185 -0.000567991 -0.000485914 -0.000408954 -0.000337111 -0.000270386 -0.000208777 -0.000152285 -0.000100911 -5.50748e-05 -1.51994e-05 1.87156e-05 4.66702e-05 6.86644e-05 8.46981e-05 9.47715e-05 9.88844e-05 9.91384e-05 9.76349e-05 9.4374e-05 8.93556e-05 8.25798e-05 7.40465e-05 6.37558e-05 5.17076e-05 3.95886e-05 2.90855e-05 2.01983e-05 1.29269e-05 7.27138e-06 3.23172e-06 8.07931e-07 0 0 1.26239e-06 5.04957e-06 1.13615e-05 2.01983e-05 3.15598e-05 4.54461e-05 6.18572e-05 8.07931e-05 9.96184e-05 0.000115698 0.000129031 0.000139618 0.000147459 0.000152555 0.000154904 0.000154507 0.00014808 0.000132341 0.000107288 7.29222e-05 2.92432e-05 -2.3749e-05 -8.60544e-05 -0.000157673 -0.000237946 -0.000326214 -0.000422478 -0.000526737 -0.000638991 -0.000759241 -0.000887486 -0.00102373 -0.00116571 -0.00131117 -0.00146012 -0.00161256 -0.00176848 -0.00192788 -0.00209077 -0.00225714 -0.00242458 -0.00259066 -0.00275539 -0.00291876 -0.00308077 -0.00324143 -0.00340074 -0.00355868 -0.00371234 -0.00385878 -0.003998 -0.00413 -0.00425477 -0.00437233 -0.00448266 -0.00458577 -0.00467906 -0.0047599 -0.00482831 -0.00488428 -0.00492781 -0.00495891 -0.00497756 -0.00498378 -0.00497756 -0.00495891 -0.00492781 -0.00488428 -0.00482831 -0.0047599 -0.00467906 -0.00458577 -0.00448266 -0.00437233 -0.00425477 -0.00413 -0.003998 -0.00385878 -0.00371234 -0.00355868 -0.00340074 -0.00324143 -0.00308077 -0.00291876 -0.00275539 -0.00259066 -0.00242458 -0.00225714 -0.00209077 -0.00192788 -0.00176848 -0.00161256 -0.00146012 -0.00131117 -0.00116571 -0.00102373 -0.000887486 -0.000759241 -0.000638991 -0.000526737 -0.000422478 -0.000326214 -0.000237946 -0.000157673 -8.60544e-05 -2.3749e-05 2.92432e-05 7.29222e-05 0.000107288 0.000132341 0.00014808 0.000154507 0.000154904 0.000152555 0.000147459 0.000139618 0.000129031 0.000115698 9.96184e-05 8.07931e-05 6.18572e-05 4.54461e-05 3.15598e-05 2.01983e-05 1.13615e-05 5.04957e-06 1.26239e-06 0 0 1.81785e-06 7.27138e-06 1.63606e-05 2.90855e-05 4.54461e-05 6.54424e-05 8.90744e-05 0.000116342 0.00014345 0.000166605 0.000185804 0.00020105 0.000212341 0.000219678 0.000223061 0.00022249 0.000213236 0.000190571 0.000154495 0.000105008 4.21102e-05 -3.41986e-05 -0.000123918 -0.000227049 -0.000342642 -0.000469748 -0.000608368 -0.000758501 -0.000920147 -0.00109331 -0.00127798 -0.00147417 -0.00167862 -0.00188809 -0.00210258 -0.00232208 -0.00254661 -0.00277615 -0.00301071 -0.00325029 -0.0034914 -0.00373055 -0.00396776 -0.00420301 -0.00443631 -0.00466766 -0.00489706 -0.00512451 -0.00534578 -0.00555665 -0.00575712 -0.0059472 -0.00612687 -0.00629615 -0.00645503 -0.00660351 -0.00673784 -0.00685426 -0.00695277 -0.00703336 -0.00709605 -0.00714082 -0.00716769 -0.00717665 -0.00716769 -0.00714082 -0.00709605 -0.00703336 -0.00695277 -0.00685426 -0.00673784 -0.00660351 -0.00645503 -0.00629615 -0.00612687 -0.0059472 -0.00575712 -0.00555665 -0.00534578 -0.00512451 -0.00489706 -0.00466766 -0.00443631 -0.00420301 -0.00396776 -0.00373055 -0.0034914 -0.00325029 -0.00301071 -0.00277615 -0.00254661 -0.00232208 -0.00210258 -0.00188809 -0.00167862 -0.00147417 -0.00127798 -0.00109331 -0.000920147 -0.000758501 -0.000608368 -0.000469748 -0.000342642 -0.000227049 -0.000123918 -3.41986e-05 4.21102e-05 0.000105008 0.000154495 0.000190571 0.000213236 0.00022249 0.000223061 0.000219678 0.000212341 0.00020105 0.000185804 0.000166605 0.00014345 0.000116342 8.90744e-05 6.54424e-05 4.54461e-05 2.90855e-05 1.63606e-05 7.27138e-06 1.81785e-06 0 0 2.47429e-06 9.89716e-06 2.22686e-05 3.95886e-05 6.18572e-05 8.90744e-05 0.00012124 0.000158355 0.000195252 0.000226767 0.000252901 0.000273651 0.00028902 0.000299007 0.000303611 0.000302833 0.000290238 0.000259388 0.000210285 0.000142928 5.73166e-05 -4.65481e-05 -0.000168667 -0.000309039 -0.000466374 -0.000639379 -0.000828056 -0.0010324 -0.00125242 -0.00148811 -0.00173947 -0.0020065 -0.00228479 -0.0025699 -0.00286184 -0.00316061 -0.00346621 -0.00377865 -0.00409791 -0.004424 -0.00475218 -0.0050777 -0.00540056 -0.00572077 -0.00603832 -0.00635321 -0.00666544 -0.00697502 -0.0072762 -0.00756321 -0.00783608 -0.00809479 -0.00833935 -0.00856976 -0.00878602 -0.00898812 -0.00917095 -0.00932941 -0.00946349 -0.00957319 -0.00965851 -0.00971946 -0.00975602 -0.00976821 -0.00975602 -0.00971946 -0.00965851 -0.00957319 -0.00946349 -0.00932941 -0.00917095 -0.00898812 -0.00878602 -0.00856976 -0.00833935 -0.00809479 -0.00783608 -0.00756321 -0.0072762 -0.00697502 -0.00666544 -0.00635321 -0.00603832 -0.00572077 -0.00540056 -0.0050777 -0.00475218 -0.004424 -0.00409791 -0.00377865 -0.00346621 -0.00316061 -0.00286184 -0.0025699 -0.00228479 -0.0020065 -0.00173947 -0.00148811 -0.00125242 -0.0010324 -0.000828056 -0.000639379 -0.000466374 -0.000309039 -0.000168667 -4.65481e-05 5.73166e-05 0.000142928 0.000210285 0.000259388 0.000290238 0.000302833 0.000303611 0.000299007 0.00028902 0.000273651 0.000252901 0.000226767 0.000195252 0.000158355 0.00012124 8.90744e-05 6.18572e-05 3.95886e-05 2.22686e-05 9.89716e-06 2.47429e-06 0 0 3.23172e-06 1.29269e-05 2.90855e-05 5.17076e-05 8.07931e-05 0.000116342 0.000158355 0.00020683 0.000255023 0.000296186 0.000330319 0.000357422 0.000377496 0.00039054 0.000396553 0.000395538 0.000379086 0.000338793 0.000274658 0.000186681 7.48625e-05 -6.07975e-05 -0.000220299 -0.000403643 -0.000609141 -0.000835108 -0.00108154 -0.00134845 -0.00163582 -0.00194366 -0.00227196 -0.00262074 -0.00298421 -0.0033566 -0.00373791 -0.00412815 -0.0045273 -0.00493537 -0.00535237 -0.00577828 -0.00620692 -0.00663209 -0.00705379 -0.00747202 -0.00788678 -0.00829807 -0.00870589 -0.00911023 -0.0095036 -0.00987848 -0.0102349 -0.0105728 -0.0108922 -0.0111932 -0.0114756 -0.0117396 -0.0119784 -0.0121853 -0.0123605 -0.0125038 -0.0126152 -0.0126948 -0.0127426 -0.0127585 -0.0127426 -0.0126948 -0.0126152 -0.0125038 -0.0123605 -0.0121853 -0.0119784 -0.0117396 -0.0114756 -0.0111932 -0.0108922 -0.0105728 -0.0102349 -0.00987848 -0.0095036 -0.00911023 -0.00870589 -0.00829807 -0.00788678 -0.00747202 -0.00705379 -0.00663209 -0.00620692 -0.00577828 -0.00535237 -0.00493537 -0.0045273 -0.00412815 -0.00373791 -0.0033566 -0.00298421 -0.00262074 -0.00227196 -0.00194366 -0.00163582 -0.00134845 -0.00108154 -0.000835108 -0.000609141 -0.000403643 -0.000220299 -6.07975e-05 7.48625e-05 0.000186681 0.000274658 0.000338793 0.000379086 0.000395538 0.000396553 0.00039054 0.000377496 0.000357422 0.000330319 0.000296186 0.000255023 0.00020683 0.000158355 0.000116342 8.07931e-05 5.17076e-05 2.90855e-05 1.29269e-05 3.23172e-06 0 0 3.98474e-06 1.59389e-05 3.58626e-05 6.37558e-05 9.96184e-05 0.00014345 0.000195252 0.000255023 0.000314253 0.000364433 0.000405562 0.000437641 0.000460669 0.000474646 0.000479572 0.000475448 0.000451906 0.000398579 0.000315468 0.000202572 5.9891e-05 -0.000112574 -0.000314825 -0.00054686 -0.000806382 -0.00109109 -0.001401 -0.00173609 -0.00209637 -0.00248185 -0.00289251 -0.00332836 -0.00378227 -0.00424709 -0.00472283 -0.00520948 -0.00570706 -0.00621554 -0.00673495 -0.00726527 -0.00779901 -0.00832868 -0.00885428 -0.00937581 -0.00989328 -0.0104067 -0.010916 -0.0114212 -0.011913 -0.0123819 -0.012828 -0.0132512 -0.0136515 -0.014029 -0.0143836 -0.0147153 -0.0150156 -0.0152759 -0.0154961 -0.0156762 -0.0158164 -0.0159165 -0.0159765 -0.0159965 -0.0159765 -0.0159165 -0.0158164 -0.0156762 -0.0154961 -0.0152759 -0.0150156 -0.0147153 -0.0143836 -0.014029 -0.0136515 -0.0132512 -0.012828 -0.0123819 -0.011913 -0.0114212 -0.010916 -0.0104067 -0.00989328 -0.00937581 -0.00885428 -0.00832868 -0.00779901 -0.00726527 -0.00673495 -0.00621554 -0.00570706 -0.00520948 -0.00472283 -0.00424709 -0.00378227 -0.00332836 -0.00289251 -0.00248185 -0.00209637 -0.00173609 -0.001401 -0.00109109 -0.000806382 -0.00054686 -0.000314825 -0.000112574 5.9891e-05 0.000202572 0.000315468 0.000398579 0.000451906 0.000475448 0.000479572 0.000474646 0.000460669 0.000437641 0.000405562 0.000364433 0.000314253 0.000255023 0.000195252 0.00014345 9.96184e-05 6.37558e-05 3.58626e-05 1.59389e-05 3.98474e-06 0 0 4.62791e-06 1.85116e-05 4.16511e-05 7.40465e-05 0.000115698 0.000166605 0.000226767 0.000296186 0.000364433 0.000421082 0.000466133 0.000499585 0.000521439 0.000531694 0.000530351 0.00051741 0.000480823 0.000408543 0.00030057 0.000156904 -2.24548e-05 -0.000237507 -0.000488251 -0.000774689 -0.00109353 -0.0014415 -0.00181859 -0.0022248 -0.00266013 -0.00312458 -0.00361816 -0.00414085 -0.00468433 -0.00524025 -0.00580862 -0.00638942 -0.00698267 -0.00758836 -0.00820649 -0.00883706 -0.00947179 -0.0101024 -0.0107288 -0.0113512 -0.0119694 -0.0125834 -0.0131934 -0.0137991 -0.0143895 -0.0149531 -0.0154899 -0.016 -0.0164833 -0.0169399 -0.0173697 -0.0177728 -0.0181381 -0.0184547 -0.0187226 -0.0189418 -0.0191123 -0.019234 -0.0193071 -0.0193315 -0.0193071 -0.019234 -0.0191123 -0.0189418 -0.0187226 -0.0184547 -0.0181381 -0.0177728 -0.0173697 -0.0169399 -0.0164833 -0.016 -0.0154899 -0.0149531 -0.0143895 -0.0137991 -0.0131934 -0.0125834 -0.0119694 -0.0113512 -0.0107288 -0.0101024 -0.00947179 -0.00883706 -0.00820649 -0.00758836 -0.00698267 -0.00638942 -0.00580862 -0.00524025 -0.00468433 -0.00414085 -0.00361816 -0.00312458 -0.00266013 -0.0022248 -0.00181859 -0.0014415 -0.00109353 -0.000774689 -0.000488251 -0.000237507 -2.24548e-05 0.000156904 0.00030057 0.000408543 0.000480823 0.00051741 0.000530351 0.000531694 0.000521439 0.000499585 0.000466133 0.000421082 0.000364433 0.000296186 0.000226767 0.000166605 0.000115698 7.40465e-05 4.16512e-05 1.85116e-05 4.62791e-06 0 0 5.16124e-06 2.06449e-05 4.64511e-05 8.25798e-05 0.000129031 0.000185804 0.000252901 0.000330319 0.000405562 0.000466133 0.00051203 0.000543255 0.000559806 0.000561685 0.000548891 0.000521423 0.000465837 0.000368683 0.000229964 4.96776e-05 -0.000172175 -0.000435594 -0.000740579 -0.00108713 -0.0014706 -0.00188633 -0.00233432 -0.00281457 -0.00332709 -0.00387187 -0.00444891 -0.00505822 -0.00569041 -0.00633609 -0.00699528 -0.00766796 -0.00835414 -0.00905382 -0.009767 -0.0104937 -0.0112253 -0.0119532 -0.0126775 -0.0133981 -0.0141151 -0.0148284 -0.015538 -0.016244 -0.016933 -0.0175919 -0.0182206 -0.0188192 -0.0193876 -0.0199259 -0.020434 -0.0209119 -0.0213458 -0.0217219 -0.0220401 -0.0223004 -0.0225029 -0.0226476 -0.0227343 -0.0227633 -0.0227343 -0.0226476 -0.0225029 -0.0223004 -0.0220401 -0.0217219 -0.0213458 -0.0209119 -0.020434 -0.0199259 -0.0193876 -0.0188192 -0.0182206 -0.0175919 -0.016933 -0.016244 -0.015538 -0.0148284 -0.0141151 -0.0133981 -0.0126775 -0.0119532 -0.0112253 -0.0104937 -0.009767 -0.00905382 -0.00835414 -0.00766796 -0.00699528 -0.00633609 -0.00569041 -0.00505822 -0.00444891 -0.00387187 -0.00332709 -0.00281457 -0.00233432 -0.00188633 -0.0014706 -0.00108713 -0.000740579 -0.000435594 -0.000172175 4.96776e-05 0.000229964 0.000368683 0.000465837 0.000521423 0.000548891 0.000561685 0.000559806 0.000543255 0.00051203 0.000466133 0.000405562 0.000330319 0.000252901 0.000185804 0.000129031 8.25798e-05 4.64511e-05 2.06449e-05 5.16124e-06 0 0 5.58472e-06 2.23389e-05 5.02625e-05 8.93556e-05 0.000139618 0.00020105 0.000273651 0.000357422 0.000437641 0.000499585 0.000543255 0.00056865 0.000575771 0.000564618 0.000535191 0.000487489 0.000406947 0.000279001 0.000103649 -0.000119107 -0.000389269 -0.000706836 -0.00107181 -0.00148419 -0.00193757 -0.00242557 -0.00294818 -0.00350541 -0.00409725 -0.00472371 -0.00538477 -0.00608046 -0.00680049 -0.0075346 -0.00828281 -0.0090451 -0.00982147 -0.0106119 -0.0114165 -0.0122351 -0.0130595 -0.0138812 -0.0147002 -0.0155166 -0.0163304 -0.0171414 -0.0179499 -0.0187557 -0.0195436 -0.0202984 -0.0210202 -0.0217088 -0.0223644 -0.0229869 -0.0235764 -0.0241327 -0.0246388 -0.0250774 -0.0254485 -0.0257521 -0.0259883 -0.026157 -0.0262582 -0.0262919 -0.0262582 -0.026157 -0.0259883 -0.0257521 -0.0254485 -0.0250774 -0.0246388 -0.0241327 -0.0235764 -0.0229869 -0.0223644 -0.0217088 -0.0210202 -0.0202984 -0.0195436 -0.0187557 -0.0179499 -0.0171414 -0.0163304 -0.0155166 -0.0147002 -0.0138812 -0.0130595 -0.0122351 -0.0114165 -0.0106119 -0.00982147 -0.0090451 -0.00828281 -0.0075346 -0.00680049 -0.00608046 -0.00538477 -0.00472371 -0.00409725 -0.00350541 -0.00294818 -0.00242557 -0.00193757 -0.00148418 -0.00107181 -0.000706836 -0.000389269 -0.000119107 0.000103649 0.000279001 0.000406947 0.000487489 0.000535191 0.000564618 0.000575771 0.00056865 0.000543255 0.000499585 0.000437641 0.000357422 0.000273651 0.00020105 0.000139618 8.93556e-05 5.02625e-05 2.23389e-05 5.58472e-06 0 0 5.89837e-06 2.35935e-05 5.30854e-05 9.4374e-05 0.000147459 0.000212341 0.00028902 0.000377496 0.000460669 0.000521439 0.000559806 0.000575771 0.000569334 0.000540494 0.000489251 0.000415606 0.000304155 0.000139495 -7.83735e-05 -0.000349451 -0.000673738 -0.00105123 -0.00148194 -0.00196585 -0.00249446 -0.00305924 -0.00366019 -0.00429732 -0.00497062 -0.00568009 -0.00642574 -0.00720756 -0.00801458 -0.00883579 -0.00967121 -0.0105208 -0.0113847 -0.0122627 -0.0131549 -0.0140614 -0.0149744 -0.0158862 -0.016797 -0.0177067 -0.0186152 -0.0195227 -0.020429 -0.0213343 -0.0222212 -0.0230726 -0.0238885 -0.0246688 -0.0254137 -0.0261231 -0.0267969 -0.0274352 -0.028017 -0.0285212 -0.0289479 -0.0292969 -0.0295684 -0.0297623 -0.0298787 -0.0299175 -0.0298787 -0.0297623 -0.0295684 -0.0292969 -0.0289479 -0.0285212 -0.028017 -0.0274352 -0.0267969 -0.0261231 -0.0254137 -0.0246688 -0.0238885 -0.0230726 -0.0222212 -0.0213343 -0.020429 -0.0195227 -0.0186152 -0.0177067 -0.016797 -0.0158862 -0.0149744 -0.0140614 -0.0131549 -0.0122627 -0.0113847 -0.0105208 -0.00967121 -0.00883579 -0.00801458 -0.00720756 -0.00642574 -0.00568009 -0.00497062 -0.00429732 -0.00366019 -0.00305924 -0.00249446 -0.00196585 -0.00148194 -0.00105123 -0.000673738 -0.000349451 -7.83734e-05 0.000139495 0.000304155 0.000415606 0.000489251 0.000540494 0.000569334 0.000575771 0.000559806 0.000521439 0.000460669 0.000377496 0.00028902 0.000212341 0.000147459 9.4374e-05 5.30854e-05 2.35935e-05 5.89837e-06 0 0 6.10218e-06 2.44087e-05 5.49196e-05 9.76349e-05 0.000152555 0.000219678 0.000299007 0.00039054 0.000474646 0.000531694 0.000561685 0.000564618 0.000540494 0.000489312 0.000411072 0.000305775 0.00015746 -4.98332e-05 -0.000316104 -0.000641354 -0.00102558 -0.00146879 -0.00197097 -0.00253213 -0.00314125 -0.00378732 -0.00447033 -0.00519028 -0.00594718 -0.00674103 -0.00757181 -0.00843954 -0.00933267 -0.0102397 -0.0111605 -0.0120952 -0.0130437 -0.0140061 -0.0149824 -0.0159725 -0.01697 -0.0179684 -0.0189679 -0.0199683 -0.0209697 -0.0219721 -0.0229754 -0.0239798 -0.0249658 -0.0259144 -0.0268256 -0.0276993 -0.0285355 -0.0293343 -0.0300956 -0.0308194 -0.0314805 -0.0320534 -0.0325382 -0.0329348 -0.0332433 -0.0334636 -0.0335958 -0.0336399 -0.0335958 -0.0334636 -0.0332433 -0.0329348 -0.0325382 -0.0320534 -0.0314805 -0.0308194 -0.0300956 -0.0293343 -0.0285355 -0.0276993 -0.0268256 -0.0259144 -0.0249658 -0.0239798 -0.0229754 -0.0219721 -0.0209697 -0.0199683 -0.0189679 -0.0179684 -0.01697 -0.0159725 -0.0149824 -0.0140061 -0.0130437 -0.0120952 -0.0111605 -0.0102397 -0.00933267 -0.00843954 -0.00757181 -0.00674103 -0.00594718 -0.00519028 -0.00447033 -0.00378732 -0.00314125 -0.00253213 -0.00197097 -0.00146879 -0.00102558 -0.000641354 -0.000316104 -4.98331e-05 0.00015746 0.000305775 0.000411072 0.000489312 0.000540494 0.000564618 0.000561685 0.000531694 0.000474646 0.00039054 0.000299007 0.000219678 0.000152555 9.76349e-05 5.49196e-05 2.44087e-05 6.10218e-06 0 0 6.19615e-06 2.47846e-05 5.57653e-05 9.91384e-05 0.000154904 0.000223061 0.000303611 0.000396553 0.000479572 0.000530351 0.000548891 0.000535191 0.000489251 0.000411072 0.000300654 0.000157996 -3.31384e-05 -0.000288985 -0.000609544 -0.000994815 -0.0014448 -0.00195949 -0.0025389 -0.00318302 -0.00387796 -0.00460982 -0.00537861 -0.00618432 -0.00702695 -0.00790651 -0.00882299 -0.00977639 -0.0107548 -0.0117462 -0.0127506 -0.0137681 -0.0147986 -0.0158422 -0.0168987 -0.0179684 -0.0190463 -0.0201278 -0.0212129 -0.0223015 -0.0233938 -0.0244897 -0.0255891 -0.0266922 -0.0277775 -0.028824 -0.0298315 -0.0308001 -0.0317298 -0.0326206 -0.0334724 -0.0342853 -0.0350292 -0.0356739 -0.0362194 -0.0366657 -0.0370129 -0.0372608 -0.0374096 -0.0374592 -0.0374096 -0.0372608 -0.0370129 -0.0366657 -0.0362194 -0.0356739 -0.0350292 -0.0342853 -0.0334724 -0.0326206 -0.0317298 -0.0308001 -0.0298315 -0.028824 -0.0277775 -0.0266922 -0.0255891 -0.0244897 -0.0233938 -0.0223015 -0.0212129 -0.0201278 -0.0190463 -0.0179684 -0.0168987 -0.0158422 -0.0147986 -0.0137681 -0.0127506 -0.0117462 -0.0107548 -0.00977639 -0.00882299 -0.00790651 -0.00702695 -0.00618432 -0.00537861 -0.00460982 -0.00387796 -0.00318302 -0.0025389 -0.00195949 -0.0014448 -0.000994815 -0.000609543 -0.000288985 -3.31383e-05 0.000157996 0.000300654 0.000411072 0.000489251 0.000535191 0.000548891 0.000530351 0.000479572 0.000396553 0.000303611 0.000223061 0.000154904 9.91384e-05 5.57653e-05 2.47846e-05 6.19615e-06 0 0 6.18027e-06 2.47211e-05 5.56225e-05 9.88844e-05 0.000154507 0.00022249 0.000302833 0.000395538 0.000475448 0.00051741 0.000521423 0.000487489 0.000415606 0.000305775 0.000157996 -2.77321e-05 -0.00026764 -0.000577959 -0.000958691 -0.00140983 -0.00193139 -0.00252336 -0.00318574 -0.00391853 -0.00470458 -0.00552675 -0.00638503 -0.00727942 -0.00820992 -0.00917654 -0.0101793 -0.0112181 -0.0122809 -0.0133554 -0.0144417 -0.0155397 -0.0166494 -0.0177709 -0.0189041 -0.0200491 -0.0212033 -0.0223642 -0.0235319 -0.0247063 -0.0258875 -0.0270754 -0.0282701 -0.0294715 -0.0306563 -0.0318012 -0.0329062 -0.0339713 -0.0349966 -0.0359819 -0.0369274 -0.0378329 -0.0386632 -0.0393827 -0.0399916 -0.0404897 -0.0408772 -0.041154 -0.04132 -0.0413754 -0.04132 -0.041154 -0.0408772 -0.0404897 -0.0399916 -0.0393827 -0.0386632 -0.0378329 -0.0369274 -0.0359819 -0.0349966 -0.0339713 -0.0329062 -0.0318012 -0.0306563 -0.0294715 -0.0282701 -0.0270754 -0.0258875 -0.0247063 -0.0235319 -0.0223642 -0.0212033 -0.0200491 -0.0189041 -0.0177709 -0.0166494 -0.0155397 -0.0144417 -0.0133554 -0.0122809 -0.0112181 -0.0101793 -0.00917654 -0.00820992 -0.00727942 -0.00638503 -0.00552675 -0.00470458 -0.00391853 -0.00318574 -0.00252336 -0.00193139 -0.00140983 -0.000958691 -0.000577959 -0.00026764 -2.7732e-05 0.000157996 0.000305775 0.000415606 0.000487489 0.000521424 0.00051741 0.000475448 0.000395538 0.000302833 0.00022249 0.000154507 9.88844e-05 5.56225e-05 2.47211e-05 6.18027e-06 0 0 5.92322e-06 2.36929e-05 5.3309e-05 9.47715e-05 0.00014808 0.000213236 0.000290238 0.000379086 0.000451906 0.000480823 0.000465837 0.000406947 0.000304155 0.00015746 -3.31384e-05 -0.00026764 -0.000561404 -0.000929793 -0.0013728 -0.00189044 -0.0024827 -0.00314958 -0.00389109 -0.00470722 -0.00557693 -0.00647917 -0.00741394 -0.00838126 -0.0093811 -0.0104135 -0.0114784 -0.0125758 -0.013694 -0.014821 -0.0159569 -0.0171017 -0.0182554 -0.0194179 -0.0205893 -0.0217696 -0.0229599 -0.0241613 -0.0253738 -0.0265975 -0.0278323 -0.0290782 -0.0303353 -0.0316035 -0.032858 -0.0340739 -0.0352514 -0.0363904 -0.0374909 -0.0385528 -0.0395763 -0.0405612 -0.0414665 -0.0422512 -0.0429151 -0.0434583 -0.0438807 -0.0441825 -0.0443636 -0.0444239 -0.0443636 -0.0441825 -0.0438807 -0.0434583 -0.0429151 -0.0422512 -0.0414665 -0.0405612 -0.0395763 -0.0385528 -0.0374909 -0.0363904 -0.0352514 -0.0340739 -0.032858 -0.0316035 -0.0303353 -0.0290782 -0.0278323 -0.0265975 -0.0253738 -0.0241613 -0.0229599 -0.0217696 -0.0205893 -0.0194179 -0.0182554 -0.0171017 -0.0159569 -0.014821 -0.013694 -0.0125758 -0.0114784 -0.0104135 -0.0093811 -0.00838126 -0.00741394 -0.00647917 -0.00557693 -0.00470722 -0.00389109 -0.00314958 -0.0024827 -0.00189044 -0.0013728 -0.000929793 -0.000561404 -0.00026764 -3.31383e-05 0.00015746 0.000304155 0.000406947 0.000465837 0.000480823 0.000451906 0.000379086 0.000290238 0.000213236 0.00014808 9.47715e-05 5.3309e-05 2.36929e-05 5.92322e-06 0 0 5.29363e-06 2.11745e-05 4.76427e-05 8.46981e-05 0.000132341 0.000190571 0.000259388 0.000338793 0.000398579 0.000408543 0.000368683 0.000279001 0.000139495 -4.98332e-05 -0.000288985 -0.000577959 -0.000929793 -0.00135752 -0.00186114 -0.00244066 -0.00309607 -0.00382737 -0.00463457 -0.00551767 -0.00645081 -0.00740817 -0.00838973 -0.0093955 -0.0104255 -0.0114797 -0.0125581 -0.0136607 -0.0147771 -0.0158968 -0.0170198 -0.0181462 -0.0192759 -0.0204089 -0.0215452 -0.0226849 -0.0238349 -0.0250024 -0.0261874 -0.0273898 -0.0286097 -0.029847 -0.0311018 -0.032374 -0.0336385 -0.0348701 -0.0360688 -0.0372347 -0.0383676 -0.0394677 -0.0405349 -0.0415691 -0.0425234 -0.0433504 -0.0440501 -0.0446227 -0.045068 -0.0453861 -0.0455769 -0.0456405 -0.0455769 -0.0453861 -0.045068 -0.0446227 -0.0440501 -0.0433504 -0.0425234 -0.0415691 -0.0405349 -0.0394677 -0.0383676 -0.0372347 -0.0360688 -0.0348701 -0.0336385 -0.032374 -0.0311018 -0.029847 -0.0286097 -0.0273898 -0.0261874 -0.0250024 -0.0238349 -0.0226849 -0.0215452 -0.0204089 -0.0192759 -0.0181462 -0.0170198 -0.0158968 -0.0147771 -0.0136607 -0.0125581 -0.0114797 -0.0104255 -0.0093955 -0.00838973 -0.00740817 -0.00645081 -0.00551767 -0.00463457 -0.00382737 -0.00309607 -0.00244066 -0.00186114 -0.00135752 -0.000929793 -0.000577959 -0.000288985 -4.98331e-05 0.000139495 0.000279001 0.000368683 0.000408543 0.000398579 0.000338793 0.000259388 0.000190571 0.000132341 8.46981e-05 4.76427e-05 2.11745e-05 5.29363e-06 0 0 4.29152e-06 1.71661e-05 3.86237e-05 6.86644e-05 0.000107288 0.000154495 0.000210285 0.000274658 0.000315468 0.00030057 0.000229964 0.000103649 -7.83734e-05 -0.000316104 -0.000609543 -0.000958691 -0.0013728 -0.00186114 -0.0024237 -0.00306049 -0.0037715 -0.00455673 -0.00541619 -0.00634988 -0.00732624 -0.00831374 -0.00931238 -0.0103222 -0.0113431 -0.0123751 -0.0134183 -0.0144727 -0.0155301 -0.0165827 -0.0176303 -0.018673 -0.0197109 -0.0207438 -0.0217718 -0.0227949 -0.0238285 -0.0248877 -0.0259726 -0.0270833 -0.0282197 -0.0293817 -0.0305695 -0.031783 -0.0329979 -0.0341897 -0.0353584 -0.0365042 -0.0376269 -0.0387265 -0.0398032 -0.0408568 -0.0418337 -0.0426804 -0.0433968 -0.043983 -0.0444389 -0.0447645 -0.0449599 -0.0450251 -0.0449599 -0.0447645 -0.0444389 -0.043983 -0.0433968 -0.0426804 -0.0418337 -0.0408568 -0.0398032 -0.0387265 -0.0376269 -0.0365042 -0.0353584 -0.0341897 -0.0329979 -0.031783 -0.0305695 -0.0293817 -0.0282197 -0.0270833 -0.0259726 -0.0248877 -0.0238285 -0.0227949 -0.0217718 -0.0207438 -0.0197109 -0.018673 -0.0176303 -0.0165827 -0.0155301 -0.0144727 -0.0134183 -0.0123751 -0.0113431 -0.0103222 -0.00931238 -0.00831374 -0.00732624 -0.00634988 -0.00541619 -0.00455673 -0.0037715 -0.00306049 -0.0024237 -0.00186114 -0.0013728 -0.000958691 -0.000609543 -0.000316104 -7.83734e-05 0.000103649 0.000229964 0.00030057 0.000315468 0.000274658 0.000210285 0.000154495 0.000107288 6.86644e-05 3.86237e-05 1.71661e-05 4.29152e-06 0 0 2.91689e-06 1.16676e-05 2.6252e-05 4.66702e-05 7.29222e-05 0.000105008 0.000142928 0.000186681 0.000202572 0.000156904 4.96776e-05 -0.000119107 -0.000349451 -0.000641354 -0.000994815 -0.00140983 -0.00189044 -0.00244066 -0.00306049 -0.00374993 -0.00450899 -0.00533766 -0.00623595 -0.00720384 -0.00820321 -0.00919589 -0.0101819 -0.0111612 -0.0121339 -0.0130999 -0.0140592 -0.0150118 -0.0159531 -0.0168787 -0.0177884 -0.0186823 -0.0195604 -0.0204227 -0.0212692 -0.0220998 -0.0229405 -0.0238171 -0.0247295 -0.0256779 -0.0266622 -0.0276825 -0.0287386 -0.0298306 -0.0309361 -0.0320327 -0.0331203 -0.0341989 -0.0352686 -0.0363294 -0.0373812 -0.038424 -0.0393975 -0.0402412 -0.0409551 -0.0415392 -0.0419935 -0.042318 -0.0425127 -0.0425776 -0.0425127 -0.042318 -0.0419935 -0.0415392 -0.0409551 -0.0402412 -0.0393975 -0.038424 -0.0373812 -0.0363294 -0.0352686 -0.0341989 -0.0331203 -0.0320327 -0.0309361 -0.0298306 -0.0287386 -0.0276825 -0.0266622 -0.0256779 -0.0247295 -0.0238171 -0.0229405 -0.0220998 -0.0212692 -0