<?xml version="1.0"?> 
<VTKFile type="StructuredGrid" version="0.1"> 
<StructuredGrid WholeExtent="0 128 0 128 0 0"> 
<Piece Extent="0 128 0 128 0 0"> 
<PointData>
<DataArray type="Float32" Name="u" format="ascii" NumberOfComponents="1"> 
0 0 0 0 0 0 0 0 0 0 0 0 0 0 0 0 0 0 0 0 0 0 0 0 0 0 0 0 0 0 0 0 0 0 0 0 0 0 0 0 0 0 0 0 0 0 0 0 0 0 0 0 0 0 0 0 0 0 0 0 0 0 0 0 0 0 0 0 0 0 0 0 0 0 0 0 0 0 0 0 0 0 0 0 0 0 0 0 0 0 0 0 0 0 0 0 0 0 0 0 0 0 0 0 0 0 0 0 0 0 0 0 0 0 0 0 0 0 0 0 0 0 0 0 0 0 0 0 0 0 9.62104e-09 3.84842e-08 8.65894e-08 1.53937e-07 2.40526e-07 3.46358e-07 4.71431e-07 6.15747e-07 8.25806e-07 1.14811e-06 1.58266e-06 2.12945e-06 2.78849e-06 3.55977e-06 4.4433e-06 5.43907e-06 6.47476e-06 7.47806e-06 8.44896e-06 9.38746e-06 1.02936e-05 1.11673e-05 1.20086e-05 1.28175e-05 1.34798e-05 1.38812e-05 1.40219e-05 1.39017e-05 1.35207e-05 1.28788e-05 1.19762e-05 1.08127e-05 9.44367e-06 7.92454e-06 6.25526e-06 4.43583e-06 2.46625e-06 3.46528e-07 -1.92334e-06 -4.34336e-06 -6.74904e-06 -8.97589e-06 -1.10239e-05 -1.28931e-05 -1.45834e-05 -1.6095e-05 -1.74276e-05 -1.85815e-05 -1.95461e-05 -2.03109e-05 -2.0876e-05 -2.12415e-05 -2.14071e-05 -2.13731e-05 -2.11393e-05 -2.07058e-05 -2.02058e-05 -1.97725e-05 -1.94058e-05 -1.91058e-05 -1.88725e-05 -1.87058e-05 -1.86058e-05 -1.85725e-05 -1.86058e-05 -1.87058e-05 -1.88725e-05 -1.91058e-05 -1.94058e-05 -1.97725e-05 -2.02058e-05 -2.07058e-05 -2.11393e-05 -2.13731e-05 -2.14071e-05 -2.12415e-05 -2.0876e-05 -2.03109e-05 -1.95461e-05 -1.85815e-05 -1.74276e-05 -1.6095e-05 -1.45834e-05 -1.28931e-05 -1.10239e-05 -8.97589e-06 -6.74904e-06 -4.34336e-06 -1.92334e-06 3.46528e-07 2.46625e-06 4.43583e-06 6.25526e-06 7.92454e-06 9.44367e-06 1.08127e-05 1.19762e-05 1.28788e-05 1.35207e-05 1.39017e-05 1.40219e-05 1.38812e-05 1.34798e-05 1.28175e-05 1.20086e-05 1.11673e-05 1.02936e-05 9.38746e-06 8.44896e-06 7.47806e-06 6.47476e-06 5.43907e-06 4.4433e-06 3.55977e-06 2.78849e-06 2.12945e-06 1.58266e-06 1.14811e-06 8.25806e-07 6.15747e-07 4.71431e-07 3.46358e-07 2.40526e-07 1.53937e-07 8.65894e-08 3.84842e-08 9.62104e-09 0 0 3.84842e-08 1.53937e-07 3.46358e-07 6.15747e-07 9.62104e-07 1.38543e-06 1.88572e-06 2.46299e-06 3.30322e-06 4.59244e-06 6.33063e-06 8.5178e-06 1.1154e-05 1.42391e-05 1.77732e-05 2.17563e-05 2.58991e-05 2.99122e-05 3.37958e-05 3.75498e-05 4.11742e-05 4.46691e-05 4.80343e-05 5.12699e-05 5.39191e-05 5.55249e-05 5.60875e-05 5.56067e-05 5.40827e-05 5.15153e-05 4.79046e-05 4.32506e-05 3.77747e-05 3.16982e-05 2.5021e-05 1.77433e-05 9.86501e-06 1.38611e-06 -7.69337e-06 -1.73735e-05 -2.69962e-05 -3.59035e-05 -4.40956e-05 -5.15723e-05 -5.83337e-05 -6.43798e-05 -6.97105e-05 -7.4326e-05 -7.81843e-05 -8.12437e-05 -8.35042e-05 -8.49658e-05 -8.56286e-05 -8.54924e-05 -8.45573e-05 -8.28234e-05 -8.08233e-05 -7.909e-05 -7.76232e-05 -7.64232e-05 -7.54899e-05 -7.48232e-05 -7.44232e-05 -7.42898e-05 -7.44232e-05 -7.48232e-05 -7.54899e-05 -7.64232e-05 -7.76232e-05 -7.909e-05 -8.08233e-05 -8.28234e-05 -8.45573e-05 -8.54924e-05 -8.56286e-05 -8.49658e-05 -8.35042e-05 -8.12437e-05 -7.81843e-05 -7.4326e-05 -6.97105e-05 -6.43798e-05 -5.83337e-05 -5.15723e-05 -4.40956e-05 -3.59035e-05 -2.69962e-05 -1.73735e-05 -7.69337e-06 1.38611e-06 9.86501e-06 1.77433e-05 2.5021e-05 3.16982e-05 3.77747e-05 4.32506e-05 4.79046e-05 5.15153e-05 5.40827e-05 5.56067e-05 5.60875e-05 5.55249e-05 5.39191e-05 5.12699e-05 4.80343e-05 4.46691e-05 4.11742e-05 3.75498e-05 3.37958e-05 2.99122e-05 2.58991e-05 2.17563e-05 1.77732e-05 1.42391e-05 1.1154e-05 8.5178e-06 6.33063e-06 4.59244e-06 3.30322e-06 2.46299e-06 1.88572e-06 1.38543e-06 9.62104e-07 6.15747e-07 3.46358e-07 1.53937e-07 3.84842e-08 0 0 8.65894e-08 3.46358e-07 7.79304e-07 1.38543e-06 2.16473e-06 3.11722e-06 4.24288e-06 5.54172e-06 7.43225e-06 1.0333e-05 1.42439e-05 1.91651e-05 2.50964e-05 3.20379e-05 3.99897e-05 4.89516e-05 5.82729e-05 6.73025e-05 7.60406e-05 8.44871e-05 9.2642e-05 0.000100505 0.000108077 0.000115357 0.000121318 0.000124931 0.000126197 0.000125115 0.000121686 0.000115909 0.000107785 9.73139e-05 8.4993e-05 7.13208e-05 5.62973e-05 3.99225e-05 2.21963e-05 3.11876e-06 -1.73101e-05 -3.90903e-05 -6.07414e-05 -8.0783e-05 -9.92151e-05 -0.000116038 -0.000131251 -0.000144855 -0.000156849 -0.000167233 -0.000175915 -0.000182798 -0.000187884 -0.000191173 -0.000192664 -0.000192358 -0.000190254 -0.000186353 -0.000181853 -0.000177952 -0.000174652 -0.000171952 -0.000169852 -0.000168352 -0.000167452 -0.000167152 -0.000167452 -0.000168352 -0.000169852 -0.000171952 -0.000174652 -0.000177952 -0.000181853 -0.000186353 -0.000190254 -0.000192358 -0.000192664 -0.000191173 -0.000187884 -0.000182798 -0.000175915 -0.000167233 -0.000156849 -0.000144855 -0.000131251 -0.000116038 -9.92151e-05 -8.0783e-05 -6.07414e-05 -3.90903e-05 -1.73101e-05 3.11876e-06 2.21963e-05 3.99225e-05 5.62973e-05 7.13208e-05 8.4993e-05 9.73139e-05 0.000107785 0.000115909 0.000121686 0.000125115 0.000126197 0.000124931 0.000121318 0.000115357 0.000108077 0.000100505 9.2642e-05 8.44871e-05 7.60406e-05 6.73025e-05 5.82729e-05 4.89516e-05 3.99897e-05 3.20379e-05 2.50964e-05 1.91651e-05 1.42439e-05 1.0333e-05 7.43225e-06 5.54172e-06 4.24288e-06 3.11722e-06 2.16473e-06 1.38543e-06 7.79304e-07 3.46358e-07 8.65894e-08 0 0 1.53937e-07 6.15747e-07 1.38543e-06 2.46299e-06 3.84842e-06 5.54172e-06 7.5429e-06 9.85195e-06 1.32129e-05 1.83698e-05 2.53225e-05 3.40712e-05 4.46158e-05 5.69563e-05 7.10928e-05 8.70251e-05 0.000103596 0.000119649 0.000135183 0.000150199 0.000164697 0.000178676 0.000192137 0.00020508 0.000215676 0.0002221 0.00022435 0.000222427 0.000216331 0.000206061 0.000191618 0.000173003 0.000151099 0.000126793 0.000100084 7.09733e-05 3.946e-05 5.54446e-06 -3.07735e-05 -6.94938e-05 -0.000107985 -0.000143614 -0.000176382 -0.000206289 -0.000233335 -0.000257519 -0.000278842 -0.000297304 -0.000312737 -0.000324975 -0.000334017 -0.000339863 -0.000342514 -0.00034197 -0.000338229 -0.000331294 -0.000323293 -0.00031636 -0.000310493 -0.000305693 -0.000301959 -0.000299293 -0.000297693 -0.000297159 -0.000297693 -0.000299293 -0.000301959 -0.000305693 -0.000310493 -0.00031636 -0.000323293 -0.000331294 -0.000338229 -0.00034197 -0.000342514 -0.000339863 -0.000334017 -0.000324975 -0.000312737 -0.000297304 -0.000278842 -0.000257519 -0.000233335 -0.000206289 -0.000176382 -0.000143614 -0.000107985 -6.94938e-05 -3.07735e-05 5.54446e-06 3.946e-05 7.09733e-05 0.000100084 0.000126793 0.000151099 0.000173003 0.000191618 0.000206061 0.000216331 0.000222427 0.00022435 0.0002221 0.000215676 0.00020508 0.000192137 0.000178676 0.000164697 0.000150199 0.000135183 0.000119649 0.000103596 8.70251e-05 7.10928e-05 5.69563e-05 4.46158e-05 3.40712e-05 2.53225e-05 1.83698e-05 1.32129e-05 9.85195e-06 7.5429e-06 5.54172e-06 3.84842e-06 2.46299e-06 1.38543e-06 6.15747e-07 1.53937e-07 0 0 2.40526e-07 9.62104e-07 2.16473e-06 3.84842e-06 6.01315e-06 8.65894e-06 1.17858e-05 1.53937e-05 2.06451e-05 2.87027e-05 3.95664e-05 5.32363e-05 6.97122e-05 8.89943e-05 0.000111082 0.000135977 0.000161869 0.000186952 0.000211224 0.000234686 0.000257339 0.000279182 0.000300214 0.000320437 0.000336994 0.000347031 0.000350547 0.000347542 0.000338017 0.000321971 0.000299404 0.000270316 0.000236092 0.000198113 0.000156381 0.000110896 6.16563e-05 8.66321e-06 -4.80836e-05 -0.000108584 -0.000168726 -0.000224397 -0.000275598 -0.000322327 -0.000364586 -0.000402374 -0.000435691 -0.000464537 -0.000488652 -0.000507773 -0.000521901 -0.000531036 -0.000535178 -0.000534327 -0.000528483 -0.000517646 -0.000505146 -0.000494312 -0.000485145 -0.000477645 -0.000471812 -0.000467645 -0.000465145 -0.000464311 -0.000465145 -0.000467645 -0.000471812 -0.000477645 -0.000485145 -0.000494312 -0.000505146 -0.000517646 -0.000528483 -0.000534327 -0.000535178 -0.000531036 -0.000521901 -0.000507773 -0.000488652 -0.000464537 -0.000435691 -0.000402374 -0.000364586 -0.000322327 -0.000275598 -0.000224397 -0.000168726 -0.000108584 -4.80836e-05 8.66321e-06 6.16563e-05 0.000110896 0.000156381 0.000198113 0.000236092 0.000270316 0.000299404 0.000321971 0.000338017 0.000347542 0.000350547 0.000347031 0.000336994 0.000320437 0.000300214 0.000279182 0.000257339 0.000234686 0.000211224 0.000186952 0.000161869 0.000135977 0.000111082 8.89943e-05 6.97122e-05 5.32363e-05 3.95664e-05 2.87027e-05 2.06451e-05 1.53937e-05 1.17858e-05 8.65894e-06 6.01315e-06 3.84842e-06 2.16473e-06 9.62104e-07 2.40526e-07 0 0 3.46358e-07 1.38543e-06 3.11722e-06 5.54172e-06 8.65894e-06 1.24689e-05 1.69715e-05 2.21669e-05 2.9729e-05 4.13319e-05 5.69757e-05 7.66602e-05 0.000100386 0.000128152 0.000159959 0.000195807 0.000233092 0.00026921 0.000304163 0.000337949 0.000370568 0.000402021 0.000432308 0.000461429 0.000485272 0.000499724 0.000504787 0.000500461 0.000486744 0.000463638 0.000431142 0.000389256 0.000339972 0.000285283 0.000225189 0.00015969 8.87851e-05 1.2475e-05 -6.92404e-05 -0.000156361 -0.000242965 -0.000323132 -0.00039686 -0.000464151 -0.000525004 -0.000579418 -0.000627395 -0.000668934 -0.000703658 -0.000731193 -0.000751538 -0.000764692 -0.000770657 -0.000769432 -0.000761016 -0.000745411 -0.00072741 -0.00071181 -0.000698609 -0.000687809 -0.000679409 -0.000673409 -0.000669808 -0.000668608 -0.000669808 -0.000673409 -0.000679409 -0.000687809 -0.000698609 -0.00071181 -0.00072741 -0.000745411 -0.000761016 -0.000769432 -0.000770657 -0.000764692 -0.000751538 -0.000731193 -0.000703658 -0.000668934 -0.000627395 -0.000579418 -0.000525004 -0.000464151 -0.00039686 -0.000323132 -0.000242965 -0.000156361 -6.92404e-05 1.2475e-05 8.87851e-05 0.00015969 0.000225189 0.000285283 0.000339972 0.000389256 0.000431142 0.000463638 0.000486744 0.000500461 0.000504787 0.000499724 0.000485272 0.000461429 0.000432308 0.000402021 0.000370568 0.000337949 0.000304163 0.00026921 0.000233092 0.000195807 0.000159959 0.000128152 0.000100386 7.66602e-05 5.69757e-05 4.13319e-05 2.9729e-05 2.21669e-05 1.69715e-05 1.24689e-05 8.65894e-06 5.54172e-06 3.11722e-06 1.38543e-06 3.46358e-07 0 0 4.71431e-07 1.88572e-06 4.24288e-06 7.5429e-06 1.17858e-05 1.69715e-05 2.31001e-05 3.01716e-05 4.04645e-05 5.62574e-05 7.75502e-05 0.000104343 0.000136636 0.000174429 0.000217722 0.000266514 0.000317263 0.000366425 0.000413999 0.000459985 0.000504384 0.000547196 0.00058842 0.000628056 0.000660509 0.00068018 0.000687072 0.000681182 0.000662513 0.000631062 0.000586832 0.00052982 0.00046274 0.000388302 0.000306508 0.000217356 0.000120846 1.69799e-05 -9.42438e-05 -0.000212825 -0.000330703 -0.000439818 -0.000540171 -0.000631761 -0.000714588 -0.000788653 -0.000853954 -0.000910493 -0.000957757 -0.000995235 -0.00102293 -0.00104083 -0.00104895 -0.00104728 -0.00103583 -0.00101459 -0.000990086 -0.000968852 -0.000950885 -0.000936184 -0.000924751 -0.000916584 -0.000911684 -0.00091005 -0.000911684 -0.000916584 -0.000924751 -0.000936184 -0.000950885 -0.000968852 -0.000990086 -0.00101459 -0.00103583 -0.00104728 -0.00104895 -0.00104083 -0.00102293 -0.000995235 -0.000957757 -0.000910493 -0.000853954 -0.000788653 -0.000714588 -0.000631761 -0.000540171 -0.000439818 -0.000330703 -0.000212825 -9.42438e-05 1.69799e-05 0.000120846 0.000217356 0.000306508 0.000388302 0.00046274 0.00052982 0.000586832 0.000631062 0.000662513 0.000681182 0.000687072 0.00068018 0.000660509 0.000628056 0.00058842 0.000547196 0.000504384 0.000459985 0.000413999 0.000366425 0.000317263 0.000266514 0.000217722 0.000174429 0.000136636 0.000104343 7.75502e-05 5.62574e-05 4.04645e-05 3.01716e-05 2.31001e-05 1.69715e-05 1.17858e-05 7.5429e-06 4.24288e-06 1.88572e-06 4.71431e-07 0 0 6.15747e-07 2.46299e-06 5.54172e-06 9.85195e-06 1.53937e-05 2.21669e-05 3.01716e-05 3.94078e-05 5.28516e-05 7.3479e-05 0.00010129 0.000136285 0.000178463 0.000227825 0.000284371 0.0003481 0.000414385 0.000478596 0.000540733 0.000600797 0.000658788 0.000714705 0.000768548 0.000820318 0.000862705 0.000888399 0.0008974 0.000889708 0.000865323 0.000824245 0.000766474 0.00069201 0.000604395 0.00050717 0.000400336 0.000283893 0.00015784 2.21778e-05 -0.000123094 -0.000277975 -0.000431939 -0.000574457 -0.00070553 -0.000825157 -0.00093334 -0.00103008 -0.00111537 -0.00118922 -0.00125095 -0.0012999 -0.00133607 -0.00135945 -0.00137006 -0.00136788 -0.00135292 -0.00132517 -0.00129317 -0.00126544 -0.00124197 -0.00122277 -0.00120784 -0.00119717 -0.00119077 -0.00118864 -0.00119077 -0.00119717 -0.00120784 -0.00122277 -0.00124197 -0.00126544 -0.00129317 -0.00132517 -0.00135292 -0.00136788 -0.00137006 -0.00135945 -0.00133607 -0.0012999 -0.00125095 -0.00118922 -0.00111537 -0.00103008 -0.00093334 -0.000825157 -0.00070553 -0.000574457 -0.000431939 -0.000277975 -0.000123094 2.21778e-05 0.00015784 0.000283893 0.000400336 0.00050717 0.000604395 0.00069201 0.000766474 0.000824245 0.000865323 0.000889708 0.0008974 0.000888399 0.000862705 0.000820318 0.000768548 0.000714705 0.000658788 0.000600797 0.000540733 0.000478596 0.000414385 0.0003481 0.000284371 0.000227825 0.000178463 0.000136285 0.00010129 7.3479e-05 5.28516e-05 3.94078e-05 3.01716e-05 2.21669e-05 1.53937e-05 9.85195e-06 5.54172e-06 2.46299e-06 6.15747e-07 0 0 8.25806e-07 3.30322e-06 7.43225e-06 1.32129e-05 2.06451e-05 2.9729e-05 4.04645e-05 5.28516e-05 7.04109e-05 9.66631e-05 0.000131608 0.000175246 0.000227577 0.000288601 0.000358317 0.000436726 0.000517867 0.000595776 0.000670454 0.0007419 0.000810116 0.0008751 0.000936854 0.000995376 0.00104168 0.00106679 0.00107069 0.0010534 0.0010149 0.000955205 0.000874308 0.00077221 0.000653491 0.000522729 0.000379926 0.000225079 5.81906e-05 -0.00012074 -0.000311714 -0.00051473 -0.000716633 -0.000904269 -0.00107764 -0.00123674 -0.00138157 -0.00151214 -0.00162844 -0.00173047 -0.00181723 -0.00188773 -0.00194196 -0.00197992 -0.00200161 -0.00200704 -0.0019962 -0.00196909 -0.00193605 -0.00190742 -0.00188319 -0.00186337 -0.00184795 -0.00183693 -0.00183033 -0.00182812 -0.00183033 -0.00183693 -0.00184795 -0.00186337 -0.00188319 -0.00190742 -0.00193605 -0.00196909 -0.0019962 -0.00200704 -0.00200161 -0.00197992 -0.00194196 -0.00188773 -0.00181723 -0.00173047 -0.00162844 -0.00151214 -0.00138157 -0.00123674 -0.00107764 -0.000904269 -0.000716633 -0.00051473 -0.000311714 -0.00012074 5.81906e-05 0.000225079 0.000379926 0.000522729 0.000653491 0.00077221 0.000874308 0.000955205 0.0010149 0.0010534 0.00107069 0.00106679 0.00104168 0.000995376 0.000936854 0.0008751 0.000810116 0.000741901 0.000670454 0.000595776 0.000517867 0.000436727 0.000358317 0.000288601 0.000227577 0.000175246 0.000131608 9.66631e-05 7.04109e-05 5.28516e-05 4.04645e-05 2.9729e-05 2.06451e-05 1.32129e-05 7.43225e-06 3.30322e-06 8.25806e-07 0 0 1.14811e-06 4.59244e-06 1.0333e-05 1.83698e-05 2.87027e-05 4.13319e-05 5.62574e-05 7.3479e-05 9.66631e-05 0.000129476 0.000171917 0.000223987 0.000285686 0.000357014 0.00043797 0.000528554 0.00062112 0.000708018 0.000789248 0.000864811 0.000934707 0.000998935 0.0010575 0.00111039 0.00114726 0.00115775 0.00114187 0.00109961 0.00103098 0.000935963 0.000814572 0.000666805 0.000498581 0.000315821 0.000118525 -9.33085e-05 -0.000319678 -0.000560584 -0.000816027 -0.00108601 -0.00135475 -0.00160648 -0.00184119 -0.0020589 -0.0022596 -0.00244328 -0.00260995 -0.00275961 -0.0028906 -0.00300126 -0.00309159 -0.00316158 -0.00321125 -0.00324058 -0.00324958 -0.00323825 -0.0032181 -0.00320063 -0.00318585 -0.00317376 -0.00316436 -0.00315764 -0.00315361 -0.00315227 -0.00315361 -0.00315764 -0.00316436 -0.00317376 -0.00318585 -0.00320063 -0.0032181 -0.00323825 -0.00324958 -0.00324058 -0.00321125 -0.00316158 -0.00309159 -0.00300126 -0.0028906 -0.00275961 -0.00260995 -0.00244328 -0.0022596 -0.0020589 -0.00184119 -0.00160648 -0.00135475 -0.00108601 -0.000816027 -0.000560584 -0.000319678 -9.33085e-05 0.000118525 0.000315821 0.000498581 0.000666805 0.000814572 0.000935963 0.00103098 0.00109961 0.00114187 0.00115775 0.00114726 0.00111039 0.0010575 0.000998935 0.000934707 0.000864811 0.000789248 0.000708018 0.00062112 0.000528554 0.00043797 0.000357014 0.000285686 0.000223987 0.000171917 0.000129476 9.66631e-05 7.3479e-05 5.62574e-05 4.13319e-05 2.87027e-05 1.83698e-05 1.0333e-05 4.59244e-06 1.14811e-06 0 0 1.58266e-06 6.33063e-06 1.42439e-05 2.53225e-05 3.95664e-05 5.69757e-05 7.75502e-05 0.00010129 0.000131608 0.000171917 0.000222217 0.000282509 0.000352791 0.000433064 0.000523329 0.000623584 0.000724144 0.000815322 0.000897117 0.00096953 0.00103256 0.00108621 0.00113047 0.00116536 0.00117944 0.0011613 0.00111094 0.00102835 0.000913546 0.000766518 0.000587268 0.000375796 0.000139667 -0.000113554 -0.000383866 -0.00067127 -0.000975766 -0.00129735 -0.00163603 -0.0019918 -0.00234628 -0.00268108 -0.0029962 -0.00329165 -0.00356742 -0.00382351 -0.00405992 -0.00427666 -0.00447107 -0.0046405 -0.00478497 -0.00490445 -0.00499897 -0.0050685 -0.00511307 -0.00513266 -0.00513932 -0.00514509 -0.00514997 -0.00515396 -0.00515707 -0.00515929 -0.00516062 -0.00516107 -0.00516062 -0.00515929 -0.00515707 -0.00515396 -0.00514997 -0.00514509 -0.00513932 -0.00513266 -0.00511307 -0.0050685 -0.00499897 -0.00490445 -0.00478497 -0.0046405 -0.00447107 -0.00427666 -0.00405992 -0.00382351 -0.00356742 -0.00329165 -0.0029962 -0.00268108 -0.00234628 -0.0019918 -0.00163603 -0.00129735 -0.000975766 -0.00067127 -0.000383866 -0.000113554 0.000139667 0.000375796 0.000587268 0.000766518 0.000913546 0.00102835 0.00111094 0.0011613 0.00117944 0.00116536 0.00113047 0.00108621 0.00103256 0.00096953 0.000897117 0.000815322 0.000724144 0.000623584 0.000523329 0.000433064 0.000352791 0.000282509 0.000222217 0.000171917 0.000131608 0.00010129 7.75502e-05 5.69757e-05 3.95664e-05 2.53225e-05 1.42439e-05 6.33063e-06 1.58266e-06 0 0 2.12945e-06 8.5178e-06 1.91651e-05 3.40712e-05 5.32363e-05 7.66602e-05 0.000104343 0.000136285 0.000175246 0.000223987 0.000282509 0.00035081 0.000428891 0.000516753 0.000614394 0.000721816 0.000826939 0.000917687 0.000994059 0.00105606 0.00110368 0.00113692 0.00115579 0.00116028 0.00113822 0.00107742 0.000977889 0.000839619 0.000662613 0.000446871 0.000192394 -0.000100819 -0.000423254 -0.000765397 -0.00112725 -0.00150881 -0.00191007 -0.00233105 -0.00277173 -0.00323212 -0.00369123 -0.00412808 -0.00454266 -0.00493498 -0.00530503 -0.00565282 -0.00597834 -0.0062816 -0.00655862 -0.00680545 -0.00702209 -0.00720852 -0.00736476 -0.00749081 -0.00758666 -0.00765231 -0.0076997 -0.00774078 -0.00777553 -0.00780397 -0.00782608 -0.00784188 -0.00785136 -0.00785452 -0.00785136 -0.00784188 -0.00782608 -0.00780397 -0.00777553 -0.00774078 -0.0076997 -0.00765231 -0.00758666 -0.00749081 -0.00736476 -0.00720852 -0.00702209 -0.00680545 -0.00655862 -0.0062816 -0.00597834 -0.00565282 -0.00530503 -0.00493498 -0.00454266 -0.00412808 -0.00369123 -0.00323212 -0.00277173 -0.00233105 -0.00191007 -0.00150881 -0.00112725 -0.000765397 -0.000423254 -0.000100819 0.000192394 0.000446871 0.000662613 0.000839619 0.000977889 0.00107742 0.00113822 0.00116028 0.00115579 0.00113692 0.00110368 0.00105606 0.000994059 0.000917687 0.000826939 0.000721816 0.000614394 0.000516753 0.000428891 0.00035081 0.000282509 0.000223987 0.000175246 0.000136285 0.000104343 7.66602e-05 5.32363e-05 3.40712e-05 1.91651e-05 8.5178e-06 2.12945e-06 0 0 2.78849e-06 1.1154e-05 2.50964e-05 4.46158e-05 6.97122e-05 0.000100386 0.000136636 0.000178463 0.000227577 0.000285686 0.000352791 0.000428891 0.000513987 0.000608079 0.000711166 0.000823249 0.000929506 0.00101512 0.00108008 0.00112439 0.00114805 0.00115107 0.00113344 0.00109516 0.0010236 0.000906124 0.000742726 0.00053341 0.000278175 -2.29776e-05 -0.000370049 -0.000763038 -0.00119018 -0.00163971 -0.00211162 -0.00260592 -0.0031226 -0.00366167 -0.00422312 -0.00480696 -0.0053896 -0.00594747 -0.00648057 -0.00698889 -0.00747244 -0.00793121 -0.00836521 -0.00877443 -0.00915327 -0.00949611 -0.00980295 -0.0100738 -0.0103086 -0.0105075 -0.0106703 -0.0107972 -0.0108993 -0.0109877 -0.0110625 -0.0111238 -0.0111714 -0.0112054 -0.0112258 -0.0112326 -0.0112258 -0.0112054 -0.0111714 -0.0111238 -0.0110625 -0.0109877 -0.0108993 -0.0107972 -0.0106703 -0.0105075 -0.0103086 -0.0100738 -0.00980295 -0.00949611 -0.00915327 -0.00877443 -0.00836521 -0.00793121 -0.00747244 -0.00698889 -0.00648057 -0.00594747 -0.0053896 -0.00480696 -0.00422312 -0.00366167 -0.0031226 -0.00260592 -0.00211162 -0.00163971 -0.00119018 -0.000763038 -0.000370049 -2.29776e-05 0.000278175 0.00053341 0.000742726 0.000906124 0.0010236 0.00109516 0.00113344 0.00115107 0.00114805 0.00112439 0.00108008 0.00101512 0.000929506 0.000823249 0.000711166 0.000608079 0.000513987 0.000428891 0.000352791 0.000285686 0.000227577 0.000178463 0.000136636 0.000100386 6.97122e-05 4.46158e-05 2.50964e-05 1.1154e-05 2.78849e-06 0 0 3.55977e-06 1.42391e-05 3.20379e-05 5.69563e-05 8.89943e-05 0.000128152 0.000174429 0.000227825 0.000288601 0.000357014 0.000433064 0.000516753 0.000608079 0.000707043 0.000813645 0.000927885 0.00103184 0.0011076 0.00115517 0.00117453 0.0011657 0.00112866 0.00106343 0.000970001 0.000835587 0.000647403 0.00040545 0.000109726 -0.000239766 -0.000643029 -0.00110006 -0.00161086 -0.00216111 -0.00273648 -0.00333698 -0.0039626 -0.00461334 -0.00528921 -0.0059902 -0.00671632 -0.0074414 -0.00813926 -0.00880993 -0.00945339 -0.0100696 -0.0106587 -0.0112205 -0.0117552 -0.012255 -0.0127125 -0.0131276 -0.0135003 -0.0138306 -0.0141186 -0.0143641 -0.0145673 -0.014738 -0.0148859 -0.015011 -0.0151134 -0.015193 -0.0152499 -0.015284 -0.0152954 -0.015284 -0.0152499 -0.015193 -0.0151134 -0.015011 -0.0148859 -0.014738 -0.0145673 -0.0143641 -0.0141186 -0.0138306 -0.0135003 -0.0131276 -0.0127125 -0.012255 -0.0117552 -0.0112205 -0.0106587 -0.0100696 -0.00945339 -0.00880993 -0.00813926 -0.0074414 -0.00671632 -0.0059902 -0.00528921 -0.00461334 -0.0039626 -0.00333698 -0.00273648 -0.00216111 -0.00161086 -0.00110006 -0.000643029 -0.000239766 0.000109726 0.00040545 0.000647403 0.000835587 0.000970001 0.00106343 0.00112866 0.0011657 0.00117453 0.00115517 0.0011076 0.00103184 0.000927885 0.000813645 0.000707043 0.000608079 0.000516753 0.000433064 0.000357014 0.000288601 0.000227825 0.000174429 0.000128152 8.89943e-05 5.69563e-05 3.20379e-05 1.42391e-05 3.55977e-06 0 0 4.4433e-06 1.77732e-05 3.99897e-05 7.10928e-05 0.000111082 0.000159959 0.000217722 0.000284371 0.000358317 0.00043797 0.000523329 0.000614394 0.000711166 0.000813645 0.00092183 0.00103572 0.00113395 0.00119516 0.00121933 0.00120648 0.0011566 0.00106969 0.000945757 0.000784794 0.000574172 0.000301261 -3.39406e-05 -0.000431431 -0.000891212 -0.00141328 -0.00199764 -0.00264429 -0.00333605 -0.00405573 -0.00480333 -0.00557886 -0.00638231 -0.00721368 -0.00807298 -0.0089602 -0.00984661 -0.0107035 -0.0115307 -0.0123285 -0.0130966 -0.0138352 -0.0145443 -0.0152238 -0.0158638 -0.0164545 -0.0169959 -0.0174879 -0.0179306 -0.018324 -0.018668 -0.0189627 -0.0192159 -0.0194353 -0.0196209 -0.0197728 -0.0198909 -0.0199753 -0.0200259 -0.0200428 -0.0200259 -0.0199753 -0.0198909 -0.0197728 -0.0196209 -0.0194353 -0.0192159 -0.0189627 -0.018668 -0.018324 -0.0179306 -0.0174879 -0.0169959 -0.0164545 -0.0158638 -0.0152238 -0.0145443 -0.0138352 -0.0130966 -0.0123285 -0.0115307 -0.0107035 -0.00984661 -0.0089602 -0.00807298 -0.00721368 -0.00638231 -0.00557886 -0.00480333 -0.00405573 -0.00333605 -0.00264429 -0.00199764 -0.00141328 -0.000891212 -0.000431431 -3.39406e-05 0.000301261 0.000574172 0.000784794 0.000945757 0.00106969 0.0011566 0.00120648 0.00121933 0.00119516 0.00113395 0.00103572 0.00092183 0.000813645 0.000711166 0.000614394 0.000523329 0.00043797 0.000358317 0.000284371 0.000217722 0.000159959 0.000111082 7.10928e-05 3.99897e-05 1.77732e-05 4.4433e-06 0 0 5.43907e-06 2.17563e-05 4.89516e-05 8.70251e-05 0.000135977 0.000195807 0.000266514 0.0003481 0.000436727 0.000528554 0.000623584 0.000721816 0.000823249 0.000927885 0.00103572 0.00114676 0.00123583 0.00127777 0.00127257 0.00122024 0.00112077 0.00097416 0.000780419 0.000539542 0.000239358 -0.000132304 -0.000575445 -0.00109006 -0.00167616 -0.00233374 -0.00306279 -0.00386333 -0.00471499 -0.00559744 -0.00651067 -0.00745469 -0.00842949 -0.00943508 -0.0104715 -0.0115386 -0.0126052 -0.01364 -0.014643 -0.0156141 -0.0165534 -0.0174609 -0.0183365 -0.0191803 -0.0199798 -0.0207223 -0.021408 -0.0220368 -0.0226088 -0.0231238 -0.023582 -0.0239834 -0.0243329 -0.0246359 -0.0248923 -0.025102 -0.0252651 -0.0253817 -0.0254516 -0.0254749 -0.0254516 -0.0253817 -0.0252651 -0.025102 -0.0248923 -0.0246359 -0.0243329 -0.0239834 -0.023582 -0.0231238 -0.0226088 -0.0220368 -0.021408 -0.0207223 -0.0199798 -0.0191803 -0.0183365 -0.0174609 -0.0165534 -0.0156141 -0.014643 -0.01364 -0.0126052 -0.0115386 -0.0104715 -0.00943508 -0.00842949 -0.00745469 -0.00651067 -0.00559744 -0.00471499 -0.00386333 -0.00306279 -0.00233374 -0.00167616 -0.00109006 -0.000575445 -0.000132304 0.000239358 0.000539542 0.000780419 0.00097416 0.00112077 0.00122024 0.00127257 0.00127777 0.00123583 0.00114676 0.00103572 0.000927885 0.000823249 0.000721816 0.000623584 0.000528554 0.000436726 0.0003481 0.000266514 0.000195806 0.000135977 8.70251e-05 4.89516e-05 2.17563e-05 5.43907e-06 0 0 6.47476e-06 2.58991e-05 5.82729e-05 0.000103596 0.000161869 0.000233092 0.000317263 0.000414385 0.000517867 0.00062112 0.000724144 0.000826939 0.000929506 0.00103184 0.00113395 0.00123583 0.00130885 0.00132436 0.00128236 0.00118286 0.00102586 0.000811349 0.000539336 0.000209818 -0.000187609 -0.000663354 -0.00121741 -0.00184979 -0.00256049 -0.0033495 -0.00421683 -0.00516247 -0.00616319 -0.00719573 -0.00826011 -0.00935631 -0.0104843 -0.0116442 -0.0128359 -0.0140594 -0.0152827 -0.0164739 -0.0176328 -0.0187596 -0.0198541 -0.0209165 -0.0219467 -0.0229447 -0.0238955 -0.0247841 -0.0256106 -0.026375 -0.0270771 -0.0277172 -0.028295 -0.0288107 -0.0292651 -0.0296588 -0.029992 -0.0302646 -0.0304766 -0.0306281 -0.0307189 -0.0307492 -0.0307189 -0.0306281 -0.0304766 -0.0302646 -0.029992 -0.0296588 -0.0292651 -0.0288107 -0.028295 -0.0277172 -0.0270771 -0.026375 -0.0256106 -0.0247841 -0.0238955 -0.0229447 -0.0219467 -0.0209165 -0.0198541 -0.0187596 -0.0176328 -0.0164739 -0.0152827 -0.0140594 -0.0128359 -0.0116442 -0.0104843 -0.00935631 -0.00826011 -0.00719573 -0.00616319 -0.00516247 -0.00421683 -0.0033495 -0.00256049 -0.00184979 -0.00121741 -0.000663354 -0.000187609 0.000209819 0.000539336 0.000811349 0.00102586 0.00118286 0.00128236 0.00132436 0.00130885 0.00123583 0.00113395 0.00103184 0.000929506 0.000826939 0.000724144 0.00062112 0.000517867 0.000414385 0.000317263 0.000233091 0.000161869 0.000103596 5.82729e-05 2.58991e-05 6.47476e-06 0 0 7.47806e-06 2.99122e-05 6.73026e-05 0.000119649 0.000186952 0.00026921 0.000366425 0.000478596 0.000595776 0.000708018 0.000815322 0.000917687 0.00101512 0.0011076 0.00119516 0.00127777 0.00132436 0.00130383 0.00121618 0.00106141 0.000839535 0.000550538 0.000194424 -0.000228806 -0.000725487 -0.00130195 -0.0019582 -0.00269424 -0.00351006 -0.00440566 -0.00538105 -0.00643623 -0.00754588 -0.00868472 -0.00985273 -0.0110499 -0.0122763 -0.0135318 -0.0148166 -0.0161305 -0.0174446 -0.0187299 -0.0199864 -0.0212141 -0.022413 -0.0235831 -0.0247244 -0.0258369 -0.0269038 -0.0279083 -0.0288506 -0.0297304 -0.0305479 -0.0313031 -0.0319959 -0.0326263 -0.0331881 -0.033675 -0.034087 -0.0344241 -0.0346863 -0.0348736 -0.0349859 -0.0350234 -0.0349859 -0.0348736 -0.0346863 -0.0344241 -0.034087 -0.033675 -0.0331881 -0.0326263 -0.0319959 -0.0313031 -0.0305479 -0.0297304 -0.0288506 -0.0279083 -0.0269038 -0.0258369 -0.0247244 -0.0235831 -0.022413 -0.0212141 -0.0199864 -0.0187299 -0.0174446 -0.0161305 -0.0148166 -0.0135318 -0.0122763 -0.0110499 -0.00985273 -0.00868472 -0.00754588 -0.00643623 -0.00538105 -0.00440566 -0.00351006 -0.00269424 -0.0019582 -0.00130195 -0.000725487 -0.000228806 0.000194424 0.000550538 0.000839535 0.00106141 0.00121618 0.00130383 0.00132436 0.00127777 0.00119516 0.0011076 0.00101511 0.000917687 0.000815321 0.000708018 0.000595776 0.000478596 0.000366425 0.00026921 0.000186952 0.000119649 6.73025e-05 2.99122e-05 7.47806e-06 0 0 8.44896e-06 3.37958e-05 7.60406e-05 0.000135183 0.000211224 0.000304163 0.000413999 0.000540733 0.000670454 0.000789248 0.000897117 0.000994059 0.00108008 0.00115517 0.00121933 0.00127257 0.00128236 0.00121618 0.00107402 0.000855897 0.000561799 0.000191728 -0.000254316 -0.000776331 -0.00137427 -0.0020481 -0.00279781 -0.0036234 -0.00452488 -0.00550223 -0.00655548 -0.0076846 -0.00886308 -0.0100644 -0.0112886 -0.0125355 -0.0138054 -0.015098 -0.0164135 -0.0177518 -0.0190907 -0.020408 -0.0217036 -0.0229776 -0.0242299 -0.0254605 -0.0266695 -0.0278568 -0.0290046 -0.0300949 -0.0311278 -0.0321032 -0.0330211 -0.0338816 -0.0346846 -0.0354301 -0.0361022 -0.0366846 -0.0371774 -0.0375806 -0.0378942 -0.0381182 -0.0382526 -0.0382974 -0.0382526 -0.0381182 -0.0378942 -0.0375806 -0.0371774 -0.0366846 -0.0361022 -0.0354301 -0.0346846 -0.0338816 -0.0330211 -0.0321032 -0.0311278 -0.0300949 -0.0290046 -0.0278568 -0.0266695 -0.0254605 -0.0242299 -0.0229776 -0.0217036 -0.020408 -0.0190907 -0.0177518 -0.0164135 -0.015098 -0.0138054 -0.0125355 -0.0112886 -0.0100644 -0.00886308 -0.0076846 -0.00655548 -0.00550223 -0.00452488 -0.0036234 -0.00279781 -0.0020481 -0.00137427 -0.000776331 -0.000254316 0.000191728 0.000561799 0.000855897 0.00107402 0.00121618 0.00128236 0.00127257 0.00121933 0.00115517 0.00108008 0.000994059 0.000897117 0.000789248 0.000670454 0.000540733 0.000413999 0.000304162 0.000211224 0.000135183 7.60406e-05 3.37958e-05 8.44896e-06 0 0 9.38746e-06 3.75498e-05 8.44871e-05 0.000150199 0.000234686 0.000337949 0.000459986 0.000600797 0.000741901 0.000864811 0.00096953 0.00105606 0.00112439 0.00117453 0.00120648 0.00122024 0.00118286 0.00106141 0.000855897 0.000566309 0.000192649 -0.000265082 -0.000806883 -0.00143276 -0.00213397 -0.0029018 -0.00373623 -0.00463728 -0.00560494 -0.00663921 -0.00774009 -0.00890759 -0.0101148 -0.0113348 -0.0125676 -0.0138131 -0.0150715 -0.0163427 -0.0176267 -0.0189234 -0.0202212 -0.0215083 -0.0227845 -0.0240501 -0.0253048 -0.0265488 -0.0277821 -0.0290046 -0.030198 -0.0313439 -0.0324423 -0.0334933 -0.0344967 -0.0354527 -0.0363612 -0.0372222 -0.0380071 -0.0386874 -0.039263 -0.039734 -0.0401003 -0.0403619 -0.0405189 -0.0405712 -0.0405189 -0.0403619 -0.0401003 -0.039734 -0.039263 -0.038687