<?xml version="1.0"?> 
<VTKFile type="StructuredGrid" version="0.1"> 
<StructuredGrid WholeExtent="0 128 0 128 0 0"> 
<Piece Extent="0 128 0 128 0 0"> 
<PointData>
<DataArray type="Float32" Name="u" format="ascii" NumberOfComponents="1"> 
0 0 0 0 0 0 0 0 0 0 0 0 0 0 0 0 0 0 0 0 0 0 0 0 0 0 0 0 0 0 0 0 0 0 0 0 0 0 0 0 0 0 0 0 0 0 0 0 0 0 0 0 0 0 0 0 0 0 0 0 0 0 0 0 0 0 0 0 0 0 0 0 0 0 0 0 0 0 0 0 0 0 0 0 0 0 0 0 0 0 0 0 0 0 0 0 0 0 0 0 0 0 0 0 0 0 0 0 0 0 0 0 0 0 0 0 0 0 0 0 0 0 0 0 0 0 0 0 0 0 -6.35562e-08 -2.54225e-07 -5.72006e-07 -1.0169e-06 -1.5889e-06 -2.28802e-06 -3.11425e-06 -4.06759e-06 -5.16805e-06 -6.4356e-06 -7.87027e-06 -9.47204e-06 -1.12409e-05 -1.31769e-05 -1.528e-05 -1.75502e-05 -1.98799e-05 -2.21616e-05 -2.43952e-05 -2.65808e-05 -2.87184e-05 -3.08079e-05 -3.28494e-05 -3.48428e-05 -3.67195e-05 -3.84109e-05 -3.99168e-05 -4.12374e-05 -4.23726e-05 -4.33224e-05 -4.40869e-05 -4.46659e-05 -4.50487e-05 -4.52245e-05 -4.51931e-05 -4.49547e-05 -4.45091e-05 -4.38565e-05 -4.29968e-05 -4.193e-05 -4.07039e-05 -3.93663e-05 -3.79171e-05 -3.63563e-05 -3.4684e-05 -3.29002e-05 -3.10049e-05 -2.8998e-05 -2.69653e-05 -2.49928e-05 -2.30803e-05 -2.1228e-05 -1.94357e-05 -1.77035e-05 -1.60313e-05 -1.44193e-05 -1.29362e-05 -1.16508e-05 -1.05632e-05 -9.67334e-06 -8.98122e-06 -8.48685e-06 -8.19023e-06 -8.09135e-06 -8.19023e-06 -8.48685e-06 -8.98122e-06 -9.67334e-06 -1.05632e-05 -1.16508e-05 -1.29362e-05 -1.44193e-05 -1.60313e-05 -1.77035e-05 -1.94357e-05 -2.1228e-05 -2.30803e-05 -2.49928e-05 -2.69653e-05 -2.8998e-05 -3.10049e-05 -3.29002e-05 -3.4684e-05 -3.63563e-05 -3.79171e-05 -3.93663e-05 -4.07039e-05 -4.193e-05 -4.29968e-05 -4.38565e-05 -4.45091e-05 -4.49547e-05 -4.51931e-05 -4.52245e-05 -4.50487e-05 -4.46659e-05 -4.40869e-05 -4.33224e-05 -4.23726e-05 -4.12374e-05 -3.99168e-05 -3.84109e-05 -3.67195e-05 -3.48428e-05 -3.28494e-05 -3.08079e-05 -2.87184e-05 -2.65808e-05 -2.43952e-05 -2.21616e-05 -1.98799e-05 -1.75502e-05 -1.528e-05 -1.31769e-05 -1.12409e-05 -9.47204e-06 -7.87027e-06 -6.43561e-06 -5.16805e-06 -4.0676e-06 -3.11426e-06 -2.28802e-06 -1.58891e-06 -1.0169e-06 -5.72006e-07 -2.54225e-07 -6.35562e-08 0 0 -2.54225e-07 -1.0169e-06 -2.28802e-06 -4.06759e-06 -6.35562e-06 -9.15209e-06 -1.2457e-05 -1.62704e-05 -2.06722e-05 -2.57424e-05 -3.14811e-05 -3.78881e-05 -4.49636e-05 -5.27076e-05 -6.11199e-05 -7.02007e-05 -7.95196e-05 -8.86463e-05 -9.75809e-05 -0.000106323 -0.000114874 -0.000123232 -0.000131397 -0.000139371 -0.000146878 -0.000153643 -0.000159667 -0.00016495 -0.00016949 -0.00017329 -0.000176347 -0.000178664 -0.000180195 -0.000180898 -0.000180772 -0.000179819 -0.000178037 -0.000175426 -0.000171987 -0.00016772 -0.000162816 -0.000157465 -0.000151668 -0.000145425 -0.000138736 -0.000131601 -0.000124019 -0.000115992 -0.000107861 -9.99712e-05 -9.23213e-05 -8.49118e-05 -7.77427e-05 -7.08139e-05 -6.41254e-05 -5.76773e-05 -5.17448e-05 -4.66033e-05 -4.22529e-05 -3.86934e-05 -3.59249e-05 -3.39474e-05 -3.27609e-05 -3.23654e-05 -3.27609e-05 -3.39474e-05 -3.59249e-05 -3.86934e-05 -4.22528e-05 -4.66033e-05 -5.17448e-05 -5.76772e-05 -6.41254e-05 -7.08139e-05 -7.77427e-05 -8.49118e-05 -9.23213e-05 -9.99712e-05 -0.000107861 -0.000115992 -0.000124019 -0.000131601 -0.000138736 -0.000145425 -0.000151668 -0.000157465 -0.000162816 -0.00016772 -0.000171987 -0.000175426 -0.000178037 -0.000179819 -0.000180772 -0.000180898 -0.000180195 -0.000178664 -0.000176347 -0.00017329 -0.00016949 -0.00016495 -0.000159667 -0.000153643 -0.000146878 -0.000139371 -0.000131398 -0.000123232 -0.000114874 -0.000106323 -9.75809e-05 -8.86464e-05 -7.95196e-05 -7.02007e-05 -6.112e-05 -5.27076e-05 -4.49637e-05 -3.78882e-05 -3.14811e-05 -2.57424e-05 -2.06722e-05 -1.62704e-05 -1.2457e-05 -9.1521e-06 -6.35562e-06 -4.0676e-06 -2.28802e-06 -1.0169e-06 -2.54225e-07 0 0 -5.72006e-07 -2.28802e-06 -5.14805e-06 -9.15209e-06 -1.43001e-05 -2.05922e-05 -2.80283e-05 -3.66084e-05 -4.65124e-05 -5.79204e-05 -7.08324e-05 -8.52483e-05 -0.000101168 -0.000118592 -0.00013752 -0.000157952 -0.000178919 -0.000199454 -0.000219557 -0.000239227 -0.000258465 -0.000277271 -0.000295644 -0.000313585 -0.000330476 -0.000345698 -0.000359251 -0.000371137 -0.000381353 -0.000389902 -0.000396782 -0.000401993 -0.000405439 -0.00040702 -0.000406738 -0.000404592 -0.000400582 -0.000394709 -0.000386971 -0.00037737 -0.000366335 -0.000354296 -0.000341254 -0.000327207 -0.000312156 -0.000296102 -0.000279044 -0.000260982 -0.000242688 -0.000224935 -0.000207723 -0.000191052 -0.000174921 -0.000159331 -0.000144282 -0.000129774 -0.000116426 -0.000104857 -9.50689e-05 -8.70601e-05 -8.0831e-05 -7.63817e-05 -7.37121e-05 -7.28222e-05 -7.37121e-05 -7.63817e-05 -8.0831e-05 -8.70601e-05 -9.50689e-05 -0.000104857 -0.000116426 -0.000129774 -0.000144282 -0.000159331 -0.000174921 -0.000191052 -0.000207723 -0.000224935 -0.000242688 -0.000260982 -0.000279044 -0.000296102 -0.000312156 -0.000327207 -0.000341254 -0.000354296 -0.000366335 -0.00037737 -0.000386971 -0.000394709 -0.000400582 -0.000404592 -0.000406738 -0.00040702 -0.000405439 -0.000401993 -0.000396782 -0.000389902 -0.000381353 -0.000371137 -0.000359251 -0.000345698 -0.000330476 -0.000313585 -0.000295644 -0.000277271 -0.000258466 -0.000239227 -0.000219557 -0.000199454 -0.000178919 -0.000157952 -0.00013752 -0.000118592 -0.000101168 -8.52484e-05 -7.08325e-05 -5.79205e-05 -4.65125e-05 -3.66084e-05 -2.80283e-05 -2.05922e-05 -1.43002e-05 -9.1521e-06 -5.14805e-06 -2.28802e-06 -5.72006e-07 0 0 -1.0169e-06 -4.06759e-06 -9.15209e-06 -1.62704e-05 -2.54225e-05 -3.66084e-05 -4.9828e-05 -6.50815e-05 -8.26887e-05 -0.00010297 -0.000125924 -0.000151553 -0.000179855 -0.00021083 -0.00024448 -0.000280803 -0.000318078 -0.000354585 -0.000390324 -0.000425293 -0.000459494 -0.000492926 -0.00052559 -0.000557485 -0.000587512 -0.000614574 -0.000638669 -0.000659798 -0.000677962 -0.000693159 -0.00070539 -0.000714655 -0.00072078 -0.000723592 -0.00072309 -0.000719275 -0.000712146 -0.000701704 -0.000687949 -0.00067088 -0.000651262 -0.00062986 -0.000606673 -0.000581701 -0.000554945 -0.000526404 -0.000496078 -0.000463967 -0.000431445 -0.000399885 -0.000369285 -0.000339647 -0.000310971 -0.000283255 -0.000256502 -0.000230709 -0.000206979 -0.000186413 -0.000169011 -0.000154774 -0.0001437 -0.00013579 -0.000131044 -0.000129462 -0.000131044 -0.00013579 -0.0001437 -0.000154773 -0.000169011 -0.000186413 -0.000206979 -0.000230709 -0.000256502 -0.000283255 -0.000310971 -0.000339647 -0.000369285 -0.000399885 -0.000431445 -0.000463967 -0.000496078 -0.000526404 -0.000554945 -0.000581701 -0.000606673 -0.00062986 -0.000651262 -0.00067088 -0.000687949 -0.000701704 -0.000712146 -0.000719275 -0.00072309 -0.000723592 -0.00072078 -0.000714655 -0.00070539 -0.000693159 -0.000677962 -0.000659799 -0.000638669 -0.000614574 -0.000587513 -0.000557485 -0.00052559 -0.000492926 -0.000459494 -0.000425293 -0.000390324 -0.000354585 -0.000318079 -0.000280803 -0.00024448 -0.00021083 -0.000179855 -0.000151553 -0.000125924 -0.00010297 -8.26888e-05 -6.50816e-05 -4.98281e-05 -3.66084e-05 -2.54225e-05 -1.62704e-05 -9.1521e-06 -4.0676e-06 -1.0169e-06 0 0 -1.5889e-06 -6.35562e-06 -1.43001e-05 -2.54225e-05 -3.97226e-05 -5.72006e-05 -7.78563e-05 -0.00010169 -0.000129201 -0.00016089 -0.000196757 -0.000236801 -0.000281023 -0.000329422 -0.000382 -0.000438754 -0.000496997 -0.00055404 -0.000609881 -0.000664521 -0.00071796 -0.000770197 -0.000821234 -0.00087107 -0.000917988 -0.000960272 -0.000997921 -0.00103094 -0.00105932 -0.00108306 -0.00110217 -0.00111665 -0.00112622 -0.00113061 -0.00112983 -0.00112387 -0.00111273 -0.00109641 -0.00107492 -0.00104825 -0.0010176 -0.000984156 -0.000947926 -0.000908908 -0.000867101 -0.000822506 -0.000775122 -0.000724949 -0.000674133 -0.00062482 -0.000577008 -0.000530699 -0.000485892 -0.000442587 -0.000400784 -0.000360483 -0.000323405 -0.000291271 -0.00026408 -0.000241834 -0.000224531 -0.000212171 -0.000204756 -0.000202284 -0.000204756 -0.000212171 -0.000224531 -0.000241834 -0.00026408 -0.000291271 -0.000323405 -0.000360483 -0.000400784 -0.000442587 -0.000485892 -0.000530699 -0.000577008 -0.00062482 -0.000674133 -0.000724949 -0.000775122 -0.000822506 -0.000867101 -0.000908908 -0.000947926 -0.000984156 -0.0010176 -0.00104825 -0.00107492 -0.00109641 -0.00111273 -0.00112387 -0.00112983 -0.00113061 -0.00112622 -0.00111665 -0.00110217 -0.00108306 -0.00105932 -0.00103094 -0.000997921 -0.000960272 -0.000917988 -0.00087107 -0.000821234 -0.000770198 -0.00071796 -0.000664521 -0.000609881 -0.00055404 -0.000496998 -0.000438755 -0.000382 -0.000329423 -0.000281023 -0.000236801 -0.000196757 -0.00016089 -0.000129201 -0.00010169 -7.78564e-05 -5.72006e-05 -3.97226e-05 -2.54225e-05 -1.43002e-05 -6.35562e-06 -1.58891e-06 0 0 -2.28802e-06 -9.15209e-06 -2.05922e-05 -3.66084e-05 -5.72006e-05 -8.23688e-05 -0.000112113 -0.000146433 -0.00018605 -0.000231682 -0.00028333 -0.000340993 -0.000404673 -0.000474368 -0.000550079 -0.000631806 -0.000715676 -0.000797817 -0.000878228 -0.00095691 -0.00103386 -0.00110908 -0.00118258 -0.00125434 -0.0013219 -0.00138279 -0.00143701 -0.00148455 -0.00152541 -0.00155961 -0.00158713 -0.00160797 -0.00162175 -0.00162808 -0.00162695 -0.00161837 -0.00160233 -0.00157883 -0.00154789 -0.00150948 -0.00146534 -0.00141719 -0.00136501 -0.00130883 -0.00124863 -0.00118441 -0.00111618 -0.00104393 -0.000970752 -0.00089974 -0.000830892 -0.000764206 -0.000699684 -0.000637325 -0.000577128 -0.000519095 -0.000465703 -0.00041943 -0.000380276 -0.00034824 -0.000323324 -0.000305527 -0.000294848 -0.000291289 -0.000294848 -0.000305527 -0.000323324 -0.00034824 -0.000380276 -0.00041943 -0.000465703 -0.000519095 -0.000577128 -0.000637325 -0.000699684 -0.000764206 -0.000830892 -0.00089974 -0.000970752 -0.00104393 -0.00111618 -0.00118441 -0.00124863 -0.00130883 -0.00136501 -0.00141719 -0.00146534 -0.00150948 -0.00154789 -0.00157883 -0.00160233 -0.00161837 -0.00162695 -0.00162808 -0.00162175 -0.00160797 -0.00158713 -0.00155961 -0.00152541 -0.00148455 -0.00143701 -0.00138279 -0.0013219 -0.00125434 -0.00118258 -0.00110908 -0.00103386 -0.00095691 -0.000878228 -0.000797817 -0.000715677 -0.000631807 -0.00055008 -0.000474368 -0.000404673 -0.000340994 -0.00028333 -0.000231682 -0.00018605 -0.000146434 -0.000112113 -8.23689e-05 -5.72006e-05 -3.66084e-05 -2.05922e-05 -9.1521e-06 -2.28802e-06 0 0 -3.11425e-06 -1.2457e-05 -2.80283e-05 -4.9828e-05 -7.78563e-05 -0.000112113 -0.000152598 -0.000199312 -0.000253234 -0.000315345 -0.000385643 -0.00046413 -0.000550805 -0.000645668 -0.000748719 -0.000859959 -0.000974115 -0.00108592 -0.00119537 -0.00130246 -0.0014072 -0.00150959 -0.00160962 -0.0017073 -0.00179926 -0.00188213 -0.00195592 -0.00202063 -0.00207626 -0.0021228 -0.00216026 -0.00218863 -0.00220739 -0.002216 -0.00221446 -0.00220278 -0.00218095 -0.00214897 -0.00210684 -0.00205457 -0.00199449 -0.00192895 -0.00185794 -0.00178146 -0.00169952 -0.00161211 -0.00151924 -0.0014209 -0.0013213 -0.00122465 -0.00113094 -0.00104017 -0.000952348 -0.00086747 -0.000785536 -0.000706546 -0.000633874 -0.000570891 -0.000517597 -0.000473994 -0.00044008 -0.000415856 -0.000401321 -0.000396476 -0.000401321 -0.000415856 -0.00044008 -0.000473994 -0.000517597 -0.000570891 -0.000633874 -0.000706546 -0.000785536 -0.00086747 -0.000952348 -0.00104017 -0.00113094 -0.00122465 -0.0013213 -0.0014209 -0.00151924 -0.00161211 -0.00169952 -0.00178146 -0.00185794 -0.00192895 -0.00199449 -0.00205457 -0.00210684 -0.00214897 -0.00218095 -0.00220278 -0.00221446 -0.002216 -0.00220739 -0.00218863 -0.00216026 -0.0021228 -0.00207626 -0.00202063 -0.00195592 -0.00188213 -0.00179926 -0.0017073 -0.00160962 -0.00150959 -0.0014072 -0.00130246 -0.00119537 -0.00108592 -0.000974115 -0.000859959 -0.000748719 -0.000645668 -0.000550805 -0.00046413 -0.000385643 -0.000315345 -0.000253235 -0.000199312 -0.000152599 -0.000112113 -7.78564e-05 -4.98281e-05 -2.80283e-05 -1.2457e-05 -3.11426e-06 0 0 -4.06759e-06 -1.62704e-05 -3.66084e-05 -6.50815e-05 -0.00010169 -0.000146433 -0.000199312 -0.000260326 -0.000330755 -0.000411879 -0.000503697 -0.00060621 -0.000719418 -0.000843321 -0.000977919 -0.00112321 -0.00127231 -0.00141834 -0.00156129 -0.00170117 -0.00183798 -0.00197171 -0.00210236 -0.00222994 -0.00235005 -0.0024583 -0.00255468 -0.00263919 -0.00271185 -0.00277263 -0.00282156 -0.00285862 -0.00288312 -0.00289437 -0.00289236 -0.0028771 -0.00284859 -0.00280682 -0.0027518 -0.00268352 -0.00260505 -0.00251944 -0.00242669 -0.0023268 -0.00221978 -0.00210561 -0.00198431 -0.00185587 -0.00172578 -0.00159954 -0.00147714 -0.00135859 -0.00124388 -0.00113302 -0.00102601 -0.000922836 -0.000827917 -0.000745653 -0.000676046 -0.000619094 -0.000574798 -0.000543158 -0.000524175 -0.000517847 -0.000524175 -0.000543158 -0.000574798 -0.000619094 -0.000676046 -0.000745653 -0.000827917 -0.000922836 -0.00102601 -0.00113302 -0.00124388 -0.00135859 -0.00147714 -0.00159954 -0.00172578 -0.00185587 -0.00198431 -0.00210561 -0.00221978 -0.0023268 -0.00242669 -0.00251944 -0.00260505 -0.00268352 -0.0027518 -0.00280682 -0.00284859 -0.0028771 -0.00289236 -0.00289437 -0.00288312 -0.00285862 -0.00282156 -0.00277264 -0.00271185 -0.00263919 -0.00255468 -0.0024583 -0.00235005 -0.00222994 -0.00210236 -0.00197171 -0.00183798 -0.00170117 -0.00156129 -0.00141834 -0.00127231 -0.00112321 -0.000977919 -0.000843322 -0.000719419 -0.000606211 -0.000503698 -0.000411879 -0.000330755 -0.000260326 -0.000199312 -0.000146434 -0.00010169 -6.50816e-05 -3.66084e-05 -1.62704e-05 -4.0676e-06 0 0 -5.16805e-06 -2.06722e-05 -4.65124e-05 -8.26887e-05 -0.000129201 -0.00018605 -0.000253234 -0.000330755 -0.000420139 -0.000522915 -0.000639081 -0.000768638 -0.000911587 -0.00106793 -0.00123766 -0.00142078 -0.00160851 -0.00179206 -0.00197143 -0.00214662 -0.00231763 -0.00248446 -0.00264712 -0.00280559 -0.00295429 -0.00308762 -0.00320557 -0.00330814 -0.00339534 -0.00346717 -0.00352362 -0.0035647 -0.00358956 -0.00359735 -0.00358807 -0.00356173 -0.00351832 -0.00345784 -0.00338029 -0.00328567 -0.003178 -0.00306127 -0.0029355 -0.00280067 -0.00265679 -0.00250386 -0.00234188 -0.00217085 -0.00199791 -0.00183023 -0.0016678 -0.00151061 -0.00135867 -0.00121199 -0.00107055 -0.000934361 -0.000809145 -0.000700624 -0.000608799 -0.000533669 -0.000475234 -0.000433496 -0.000408452 -0.000400105 -0.000408452 -0.000433496 -0.000475234 -0.000533669 -0.000608799 -0.000700624 -0.000809145 -0.000934361 -0.00107055 -0.00121199 -0.00135867 -0.00151061 -0.0016678 -0.00183023 -0.00199791 -0.00217085 -0.00234188 -0.00250386 -0.00265679 -0.00280067 -0.0029355 -0.00306127 -0.003178 -0.00328567 -0.00338029 -0.00345784 -0.00351832 -0.00356173 -0.00358807 -0.00359735 -0.00358956 -0.0035647 -0.00352362 -0.00346717 -0.00339534 -0.00330814 -0.00320557 -0.00308762 -0.00295429 -0.00280559 -0.00264712 -0.00248446 -0.00231763 -0.00214662 -0.00197143 -0.00179206 -0.00160851 -0.00142078 -0.00123766 -0.00106793 -0.000911588 -0.000768639 -0.000639082 -0.000522915 -0.00042014 -0.000330755 -0.000253235 -0.00018605 -0.000129201 -8.26888e-05 -4.65125e-05 -2.06722e-05 -5.16805e-06 0 0 -6.4356e-06 -2.57424e-05 -5.79204e-05 -0.00010297 -0.00016089 -0.000231682 -0.000315345 -0.000411879 -0.000522915 -0.000650083 -0.000793384 -0.000952818 -0.00112838 -0.00132008 -0.00152791 -0.00175188 -0.00198093 -0.00220403 -0.00242117 -0.00263236 -0.0028376 -0.00303688 -0.00323021 -0.00341758 -0.00359199 -0.00374643 -0.00388089 -0.00399539 -0.00408991 -0.00416446 -0.00421904 -0.00425365 -0.00426733 -0.00425913 -0.00422904 -0.00417707 -0.00410322 -0.00400749 -0.00388987 -0.00375037 -0.00359432 -0.00342705 -0.00324857 -0.00305886 -0.00285793 -0.00264579 -0.00242243 -0.00218785 -0.00195142 -0.00172254 -0.00150119 -0.00128738 -0.00108111 -0.000882375 -0.000691178 -0.000507518 -0.000338871 -0.000192709 -6.90346e-05 3.2154e-05 0.000110856 0.000167072 0.000200802 0.000212045 0.000200802 0.000167072 0.000110856 3.2154e-05 -6.90345e-05 -0.000192709 -0.000338871 -0.000507518 -0.000691178 -0.000882375 -0.00108111 -0.00128738 -0.00150119 -0.00172254 -0.00195142 -0.00218785 -0.00242243 -0.00264579 -0.00285793 -0.00305886 -0.00324857 -0.00342705 -0.00359432 -0.00375037 -0.00388987 -0.00400749 -0.00410322 -0.00417707 -0.00422904 -0.00425913 -0.00426733 -0.00425365 -0.00421904 -0.00416446 -0.00408991 -0.00399539 -0.0038809 -0.00374643 -0.00359199 -0.00341758 -0.00323021 -0.00303688 -0.0028376 -0.00263236 -0.00242117 -0.00220403 -0.00198093 -0.00175188 -0.00152791 -0.00132008 -0.00112838 -0.000952818 -0.000793385 -0.000650084 -0.000522915 -0.000411879 -0.000315345 -0.000231682 -0.00016089 -0.00010297 -5.79205e-05 -2.57424e-05 -6.43561e-06 0 0 -7.87027e-06 -3.14811e-05 -7.08324e-05 -0.000125924 -0.000196757 -0.00028333 -0.000385643 -0.000503697 -0.000639081 -0.000793384 -0.000966606 -0.00115875 -0.00136981 -0.00159979 -0.00184869 -0.00211651 -0.00238958 -0.00265426 -0.00291054 -0.00315841 -0.00339789 -0.00362896 -0.00385163 -0.0040659 -0.00426315 -0.00443473 -0.00458066 -0.00470094 -0.00479555 -0.00486451 -0.00490781 -0.00492545 -0.00491642 -0.00487969 -0.00481526 -0.00472312 -0.0046033 -0.00445577 -0.00428054 -0.00407761 -0.00385402 -0.00361678 -0.0033659 -0.00310138 -0.00282321 -0.00253141 -0.00222596 -0.00190687 -0.00158631 -0.00127646 -0.000977327 -0.000688902 -0.000411187 -0.000144183 0.00011211 0.000357692 0.000582905 0.00077809 0.000943246 0.00107837 0.00118347 0.00125854 0.00130359 0.0013186 0.00130359 0.00125854 0.00118347 0.00107837 0.000943246 0.00077809 0.000582906 0.000357693 0.00011211 -0.000144183 -0.000411187 -0.000688901 -0.000977326 -0.00127646 -0.00158631 -0.00190687 -0.00222596 -0.00253141 -0.00282321 -0.00310138 -0.0033659 -0.00361678 -0.00385402 -0.00407761 -0.00428054 -0.00445577 -0.0046033 -0.00472312 -0.00481526 -0.00487969 -0.00491642 -0.00492545 -0.00490781 -0.00486451 -0.00479555 -0.00470094 -0.00458066 -0.00443474 -0.00426315 -0.00406591 -0.00385163 -0.00362896 -0.00339789 -0.00315841 -0.00291054 -0.00265426 -0.00238958 -0.00211651 -0.00184869 -0.00159979 -0.00136981 -0.00115875 -0.000966607 -0.000793385 -0.000639082 -0.000503698 -0.000385643 -0.00028333 -0.000196757 -0.000125924 -7.08325e-05 -3.14811e-05 -7.87027e-06 0 0 -9.47204e-06 -3.78881e-05 -8.52483e-05 -0.000151553 -0.000236801 -0.000340993 -0.00046413 -0.00060621 -0.000768638 -0.000952818 -0.00115875 -0.00138643 -0.00163586 -0.00190704 -0.00219998 -0.00251466 -0.00283447 -0.00314275 -0.00343951 -0.00372476 -0.00399849 -0.0042607 -0.00451139 -0.00475056 -0.00496776 -0.00515253 -0.00530487 -0.00542478 -0.00551226 -0.00556731 -0.00558993 -0.00558012 -0.00553684 -0.00545904 -0.00534672 -0.00519989 -0.00501854 -0.00480268 -0.0045523 -0.0042674 -0.00395709 -0.00363045 -0.0032875 -0.00292822 -0.00255262 -0.00216071 -0.00175247 -0.00132791 -0.000902569 -0.000492001 -9.62016e-05 0.00028483 0.000651093 0.00100259 0.00133931 0.00166127 0.00195618 0.00221177 0.00242804 0.00260499 0.00274262 0.00284092 0.0028999 0.00291957 0.0028999 0.00284092 0.00274262 0.00260499 0.00242804 0.00221178 0.00195618 0.00166127 0.00133931 0.00100259 0.000651093 0.00028483 -9.62014e-05 -0.000492001 -0.000902569 -0.00132791 -0.00175247 -0.00216071 -0.00255262 -0.00292822 -0.0032875 -0.00363045 -0.00395709 -0.0042674 -0.0045523 -0.00480268 -0.00501854 -0.00519989 -0.00534672 -0.00545904 -0.00553684 -0.00558012 -0.00558993 -0.00556731 -0.00551226 -0.00542478 -0.00530487 -0.00515253 -0.00496777 -0.00475057 -0.00451139 -0.0042607 -0.00399849 -0.00372476 -0.00343952 -0.00314275 -0.00283447 -0.00251467 -0.00219998 -0.00190705 -0.00163586 -0.00138643 -0.00115875 -0.000952818 -0.000768639 -0.000606211 -0.00046413 -0.000340994 -0.000236801 -0.000151553 -8.52484e-05 -3.78882e-05 -9.47205e-06 0 0 -1.12409e-05 -4.49636e-05 -0.000101168 -0.000179855 -0.000281023 -0.000404673 -0.000550805 -0.000719418 -0.000911587 -0.00112838 -0.00136981 -0.00163586 -0.00192654 -0.00224185 -0.00258179 -0.00294635 -0.00331558 -0.0036695 -0.00400811 -0.00433141 -0.00463941 -0.0049321 -0.00520948 -0.00547156 -0.00570584 -0.00589982 -0.00605352 -0.00616693 -0.00624004 -0.00627287 -0.0062654 -0.00621765 -0.00612858 -0.00599717 -0.00582344 -0.00560737 -0.00534896 -0.00504822 -0.00470514 -0.00431974 -0.00390353 -0.00346807 -0.00301336 -0.00253939 -0.00204617 -0.00153369 -0.00100196 -0.000450967 9.9794e-05 0.000630844 0.00114218 0.00163381 0.00210573 0.00255794 0.00299043 0.00340322 0.00378096 0.00410834 0.00438536 0.00461201 0.00478829 0.0049142 0.00498975 0.00501494 0.00498975 0.0049142 0.00478829 0.00461201 0.00438536 0.00410835 0.00378096 0.00340322 0.00299043 0.00255794 0.00210573 0.00163381 0.00114218 0.000630844 9.97943e-05 -0.000450967 -0.00100196 -0.00153369 -0.00204617 -0.00253939 -0.00301336 -0.00346807 -0.00390353 -0.00431974 -0.00470515 -0.00504822 -0.00534896 -0.00560737 -0.00582344 -0.00599717 -0.00612858 -0.00621765 -0.0062654 -0.00627287 -0.00624004 -0.00616693 -0.00605352 -0.00589983 -0.00570584 -0.00547156 -0.00520949 -0.0049321 -0.00463941 -0.00433141 -0.00400811 -0.0036695 -0.00331558 -0.00294635 -0.00258179 -0.00224185 -0.00192654 -0.00163586 -0.00136981 -0.00112838 -0.000911588 -0.000719419 -0.000550805 -0.000404673 -0.000281023 -0.000179855 -0.000101168 -4.49637e-05 -1.12409e-05 0 0 -1.31769e-05 -5.27076e-05 -0.000118592 -0.00021083 -0.000329422 -0.000474368 -0.000645668 -0.000843321 -0.00106793 -0.00132008 -0.00159979 -0.00190704 -0.00224185 -0.00260421 -0.00299411 -0.00341157 -0.00383292 -0.0042345 -0.00461632 -0.00497837 -0.00532065 -0.00564316 -0.00594591 -0.00622889 -0.00647737 -0.00667661 -0.00682661 -0.00692737 -0.00697889 -0.00698118 -0.00693422 -0.00683803 -0.00669164 -0.0064941 -0.0062454 -0.00594555 -0.00559455 -0.00519239 -0.00473908 -0.00423461 -0.00369335 -0.00312964 -0.00254349 -0.00193489 -0.00130385 -0.000650358 2.55742e-05 0.000723951 0.00142078 0.00209207 0.00273783 0.00335805 0.00395272 0.00452186 0.00506547 0.00558353 0.00605725 0.0064678 0.00681519 0.00709942 0.00732049 0.00747839 0.00757313 0.00760472 0.00757313 0.00747839 0.00732049 0.00709942 0.00681519 0.0064678 0.00605725 0.00558353 0.00506547 0.00452186 0.00395272 0.00335805 0.00273783 0.00209207 0.00142078 0.000723951 2.55744e-05 -0.000650358 -0.00130385 -0.00193489 -0.00254349 -0.00312964 -0.00369335 -0.00423461 -0.00473908 -0.00519239 -0.00559455 -0.00594555 -0.0062454 -0.0064941 -0.00669164 -0.00683803 -0.00693423 -0.00698118 -0.0069789 -0.00692737 -0.00682661 -0.00667661 -0.00647737 -0.00622889 -0.00594591 -0.00564317 -0.00532065 -0.00497837 -0.00461632 -0.00423451 -0.00383292 -0.00341157 -0.00299412 -0.00260421 -0.00224185 -0.00190705 -0.00159979 -0.00132008 -0.00106793 -0.000843322 -0.000645668 -0.000474369 -0.000329423 -0.00021083 -0.000118592 -5.27076e-05 -1.31769e-05 0 0 -1.528e-05 -6.11199e-05 -0.00013752 -0.00024448 -0.000381999 -0.000550079 -0.000748719 -0.000977919 -0.00123766 -0.00152791 -0.00184869 -0.00219998 -0.00258179 -0.00299411 -0.00343696 -0.00391032 -0.00438649 -0.00483777 -0.00526414 -0.00566562 -0.0060422 -0.00639389 -0.00672067 -0.00702256 -0.00728236 -0.00748289 -0.00762414 -0.00770612 -0.00772882 -0.00769225 -0.0075964 -0.00744128 -0.00722603 -0.00694981 -0.00661262 -0.00621445 -0.00575531 -0.00523519 -0.0046541 -0.00401204 -0.00332654 -0.00261515 -0.00187788 -0.00111471 -0.000325657 0.000489289 0.00133012 0.00219685 0.00306039 0.00389169 0.00469073 0.00545753 0.00619208 0.00689437 0.00756442 0.00820221 0.00878503 0.00929014 0.00971754 0.0100672 0.0103392 0.0105335 0.01065 0.0106889 0.01065 0.0105335 0.0103392 0.0100672 0.00971754 0.00929014 0.00878503 0.00820221 0.00756442 0.00689437 0.00619208 0.00545753 0.00469073 0.00389169 0.00306039 0.00219685 0.00133012 0.000489289 -0.000325657 -0.00111471 -0.00187788 -0.00261515 -0.00332654 -0.00401204 -0.0046541 -0.00523519 -0.00575531 -0.00621445 -0.00661262 -0.00694981 -0.00722603 -0.00744128 -0.0075964 -0.00769225 -0.00772882 -0.00770612 -0.00762414 -0.00748289 -0.00728236 -0.00702256 -0.00672067 -0.00639389 -0.00604221 -0.00566563 -0.00526415 -0.00483777 -0.0043865 -0.00391032 -0.00343696 -0.00299412 -0.00258179 -0.00219998 -0.00184869 -0.00152791 -0.00123766 -0.000977919 -0.00074872 -0.00055008 -0.000382 -0.00024448 -0.00013752 -6.112e-05 -1.528e-05 0 0 -1.75502e-05 -7.02007e-05 -0.000157952 -0.000280803 -0.000438754 -0.000631806 -0.000859958 -0.00112321 -0.00142078 -0.00175188 -0.00211651 -0.00251466 -0.00294635 -0.00341157 -0.00391032 -0.0044426 -0.0049763 -0.00547929 -0.00595159 -0.00639318 -0.00680408 -0.00718427 -0.00753377 -0.00785256 -0.00812081 -0.00831866 -0.00844611 -0.00850316 -0.00848981 -0.00840607 -0.00825193 -0.00802739 -0.00773175 -0.00736432 -0.00692509 -0.00641406 -0.00583124 -0.00517663 -0.00445021 -0.00365201 -0.00280311 -0.00192461 -0.00101653 -7.88624e-05 0.000888399 0.00188525 0.00291169 0.00396773 0.00501863 0.00602969 0.0070009 0.00793226 0.00882378 0.00967546 0.0104873 0.0112593 0.0119643 0.0125754 0.0130924 0.0135154 0.0138445 0.0140795 0.0142205 0.0142675 0.0142205 0.0140795 0.0138445 0.0135154 0.0130924 0.0125754 0.0119643 0.0112593 0.0104873 0.00967546 0.00882378 0.00793227 0.0070009 0.00602969 0.00501863 0.00396773 0.00291169 0.00188525 0.000888399 -7.88623e-05 -0.00101653 -0.00192461 -0.00280311 -0.00365201 -0.00445021 -0.00517663 -0.00583124 -0.00641406 -0.00692509 -0.00736432 -0.00773175 -0.00802739 -0.00825193 -0.00840607 -0.00848981 -0.00850316 -0.00844611 -0.00831866 -0.00812081 -0.00785256 -0.00753377 -0.00718427 -0.00680408 -0.00639318 -0.00595159 -0.00547929 -0.0049763 -0.0044426 -0.00391032 -0.00341157 -0.00294635 -0.00251467 -0.00211651 -0.00175188 -0.00142078 -0.00112321 -0.000859959 -0.000631807 -0.000438755 -0.000280803 -0.000157952 -7.02007e-05 -1.75502e-05 0 0 -1.98799e-05 -7.95196e-05 -0.000178919 -0.000318078 -0.000496997 -0.000715676 -0.000974115 -0.00127231 -0.00160851 -0.00198093 -0.00238958 -0.00283447 -0.00331558 -0.00383292 -0.00438649 -0.0049763 -0.00556545 -0.00611706 -0.00663114 -0.00710769 -0.0075467 -0.00794817 -0.00831212 -0.00863852 -0.00890468 -0.00908786 -0.00918808 -0.00920533 -0.00913961 -0.00899093 -0.00875927 -0.00844465 -0.00804663 -0.00756478 -0.0069991 -0.00634959 -0.00561625 -0.00479908 -0.00389808 -0.00291325 -0.00186981 -0.000792958 0.000317294 0.00146095 0.00263801 0.00384847 0.00509233 0.0063696 0.00763913 0.00885978 0.0100315 0.0111544 0.0122284 0.0132535 0.0142298 0.0151571 0.0160036 0.0167372 0.017358 0.0178658 0.0182609 0.018543 0.0187123 0.0187687 0.0187123 0.018543 0.0182609 0.0178658 0.017358 0.0167372 0.0160036 0.0151571 0.0142298 0.0132535 0.0122284 0.0111544 0.0100315 0.00885978 0.00763913 0.0063696 0.00509233 0.00384847 0.00263801 0.00146095 0.000317294 -0.000792958 -0.00186981 -0.00291325 -0.00389808 -0.00479908 -0.00561625 -0.00634959 -0.0069991 -0.00756478 -0.00804663 -0.00844465 -0.00875928 -0.00899093 -0.00913962 -0.00920533 -0.00918808 -0.00908787 -0.00890468 -0.00863852 -0.00831212 -0.00794818 -0.0075467 -0.00710769 -0.00663114 -0.00611706 -0.00556545 -0.0049763 -0.0043865 -0.00383292 -0.00331558 -0.00283447 -0.00238958 -0.00198093 -0.00160851 -0.00127231 -0.000974116 -0.000715677 -0.000496998 -0.000318079 -0.000178919 -7.95196e-05 -1.98799e-05 0 0 -2.21616e-05 -8.86463e-05 -0.000199454 -0.000354585 -0.000554039 -0.000797817 -0.00108592 -0.00141834 -0.00179206 -0.00220403 -0.00265426 -0.00314275 -0.0036695 -0.0042345 -0.00483777 -0.00547929 -0.00611706 -0.00670907 -0.00725531 -0.00775579 -0.0082105 -0.00861945 -0.00898264 -0.00930006 -0.00954593 -0.00969445 -0.00974563 -0.00969947 -0.00955596 -0.00931511 -0.00897692 -0.00854138 -0.00800852 -0.00737838 -0.00665095 -0.00582624 -0.00490423 -0.00388494 -0.00276837 -0.0015545 -0.000273405 0.00104488 0.00240035 0.00379301 0.00522285 0.00668989 0.0081941 0.0097355 0.0112655 0.0127357 0.0141459 0.0154962 0.0167865 0.018017 0.0191876 0.0202982 0.0213113 0.0221894 0.0229323 0.0235402 0.024013 0.0243507 0.0245534 0.0246209 0.0245534 0.0243507 0.024013 0.0235402 0.0229323 0.0221894 0.0213113 0.0202982 0.0191876 0.018017 0.0167865 0.0154962 0.0141459 0.0127357 0.0112655 0.00973551 0.0081941 0.00668989 0.00522286 0.00379301 0.00240035 0.00104488 -0.000273405 -0.00155451 -0.00276837 -0.00388494 -0.00490423 -0.00582624 -0.00665095 -0.00737838 -0.00800852 -0.00854138 -0.00897692 -0.00931511 -0.00955596 -0.00969947 -0.00974564 -0.00969446 -0.00954593 -0.00930006 -0.00898264 -0.00861946 -0.00821051 -0.00775579 -0.00725531 -0.00670907 -0.00611706 -0.00547929 -0.00483777 -0.00423451 -0.0036695 -0.00314275 -0.00265426 -0.00220403 -0.00179206 -0.00141834 -0.00108592 -0.000797817 -0.00055404 -0.000354586 -0.000199454 -8.86464e-05 -2.21616e-05 0 0 -2.43952e-05 -9.75809e-05 -0.000219557 -0.000390323 -0.00060988 -0.000878228 -0.00119537 -0.00156129 -0.00197143 -0.00242117 -0.00291054 -0.00343951 -0.00400811 -0.00461632 -0.00526414 -0.00595159 -0.00663114 -0.00725531 -0.00782409 -0.00833748 -0.00879549 -0.00919811 -0.00954534 -0.00983718 -0.0100446 -0.0101384 -0.0101188 -0.00998557 -0.00973886 -0.00937862 -0.00890485 -0.00831756 -0.00761742 -0.00680512 -0.00588064 -0.004844 -0.0036952 -0.00243422 -0.00106108 0.000424234 0.0019861 0.0035889 0.00523264 0.00691732 0.00864294 0.0104095 0.012217 0.0140654 0.0158979 0.0176574 0.0193439 0.0209575 0.0224982 0.0239659 0.0253607 0.0266825 0.0278875 0.0289319 0.0298156 0.0305386 0.0311009 0.0315026 0.0317436 0.031824 0.0317436 0.0315026 0.0311009 0.0305386 0.0298156 0.0289319 0.0278875 0.0266825 0.0253607 0.0239659 0.0224982 0.0209575 0.0193439 0.0176574 0.0158979 0.0140654 0.012217 0.0104095 0.00864294 0.00691732 0.00523264 0.0035889 0.0019861 0.000424233 -0.00106108 -0.00243422 -0.0036952 -0.004844 -0.00588064 -0.00680512 -0.00761742 -0.00831756 -0.00890485 -0.00937862 -0.00973886 -0.00998557 -0.0101188 -0.0101384 -0.0100446 -0.00983718 -0.00954534 -0.00919811 -0.00879549 -0.00833749 -0.00782409 -0.00725531 -0.00663114 -0.00595159 -0.00526415 -0.00461632 -0.00400811 -0.00343952 -0.00291054 -0.00242117 -0.00197143 -0.0015613 -0.00119537 -0.000878229 -0.000609881 -0.000390324 -0.000219557 -9.75809e-05 -2.43952e-05 0 0 -2.65808e-05 -0.000106323 -0.000239227 -0.000425293 -0.00066452 -0.000956909 -0.00130246 -0.00170117 -0.00214662 -0.00263236 -0.00315841 -0.00372476