<?xml version="1.0"?> 
<VTKFile type="StructuredGrid" version="0.1"> 
<StructuredGrid WholeExtent="0 64 0 64 0 0"> 
<Piece Extent="0 64 0 64 0 0"> 
<PointData>
<DataArray type="Float32" Name="u" format="ascii" NumberOfComponents="1"> 
0.885088 0.92295 0.960812 0.998674 1.03654 0.911321 0.786106 0.66089 0.535675 0.632466 0.729257 0.826048 0.922839 0.845482 0.768125 0.690768 0.613411 0.500426 0.387442 0.274457 0.161472 0.173232 0.184991 0.196751 0.208511 0.262527 0.316543 0.370559 0.424575 0.513711 0.602848 0.691984 0.781121 0.801172 0.821223 0.841275 0.861326 0.852037 0.842747 0.833458 0.824168 0.701201 0.578234 0.455266 0.332299 0.388535 0.444772 0.501008 0.557245 0.44134 0.325436 0.209531 0.0936264 0.0995593 0.105492 0.111425 0.117358 0.122805 0.128253 0.1337 0.139148 0.284211 0.429274 0.574337 0.7194 0.793922 0.802528 0.811135 0.819741 0.828347 0.754378 0.680409 0.60644 0.532471 0.582269 0.632068 0.681867 0.731665 0.667488 0.60331 0.539132 0.474954 0.442554 0.410154 0.377753 0.345353 0.335068 0.324784 0.3145 0.304215 0.369073 0.43393 0.498787 0.563644 0.615214 0.666784 0.718353 0.769923 0.777474 0.785025 0.792577 0.800128 0.808476 0.816824 0.825172 0.83352 0.745401 0.657281 0.569161 0.481041 0.530499 0.579957 0.629415 0.678874 0.526749 0.374625 0.2225 0.0703756 0.131853 0.193331 0.254808 0.316285 0.303518 0.29075 0.277983 0.265215 0.399718 0.53422 0.668723 0.803225 0.702756 0.682106 0.661457 0.640808 0.620158 0.597435 0.574712 0.55199 0.529267 0.532073 0.534879 0.537686 0.540492 0.489493 0.438495 0.387496 0.336498 0.384682 0.432866 0.48105 0.529233 0.496905 0.464577 0.432248 0.39992 0.475618 0.551317 0.627015 0.702714 0.716717 0.730719 0.744722 0.758725 0.753776 0.748827 0.743879 0.73893 0.764916 0.790901 0.816887 0.842873 0.7896 0.736328 0.683055 0.629783 0.672463 0.715143 0.757823 0.800502 0.612158 0.423814 0.235469 0.0471248 0.164147 0.281169 0.398191 0.515213 0.48423 0.453248 0.422265 0.391283 0.515225 0.639167 0.763108 0.88705 0.61159 0.561684 0.511779 0.461874 0.411969 0.440492 0.469016 0.497539 0.526063 0.481876 0.43769 0.393504 0.349318 0.311499 0.27368 0.23586 0.198041 0.326809 0.455578 0.584346 0.713114 0.658742 0.604369 0.549997 0.495624 0.582164 0.668704 0.755244 0.841783 0.818219 0.794655 0.771091 0.747527 0.730078 0.712629 0.695181 0.677732 0.721355 0.764978 0.808602 0.852225 0.8338 0.815375 0.79695 0.778525 0.814427 0.850328 0.88623 0.922131 0.697567 0.473003 0.248438 0.023874 0.196441 0.369007 0.541574 0.71414 0.664943 0.615745 0.566548 0.51735 0.630732 0.744113 0.857494 0.970875 0.520423 0.441263 0.362102 0.282941 0.20378 0.28355 0.363319 0.443089 0.522858 0.43168 0.340502 0.249323 0.158145 0.133505 0.108865 0.0842245 0.0595844 0.268937 0.47829 0.687642 0.896995 0.820579 0.744162 0.667746 0.591329 0.68871 0.786091 0.883472 0.980853 0.919722 0.858591 0.79746 0.736329 0.70638 0.676431 0.646483 0.616534 0.677795 0.739055 0.800316 0.861577 0.877999 0.894422 0.910845 0.927267 0.95639 0.985514 1.01464 1.04376 0.782976 0.522192 0.261407 0.000623234 0.228734 0.456846 0.684957 0.913068 0.845655 0.778243 0.71083 0.643418 0.746239 0.849059 0.95188 1.0547 0.527694 0.465617 0.40354 0.341463 0.279386 0.360307 0.441228 0.522149 0.603071 0.496928 0.390785 0.284642 0.178499 0.177825 0.177151 0.176476 0.175802 0.359368 0.542934 0.726501 0.910067 0.831266 0.752466 0.673665 0.594865 0.685709 0.776553 0.867397 0.958242 0.90536 0.852478 0.799596 0.746714 0.714194 0.681674 0.649154 0.616634 0.640235 0.663837 0.687439 0.711041 0.751022 0.791004 0.830986 0.870968 0.854407 0.837847 0.821287 0.804726 0.644876 0.485026 0.325175 0.165325 0.338768 0.51221 0.685653 0.859095 0.812858 0.766622 0.720385 0.674148 0.76262 0.851093 0.939566 1.02804 0.534964 0.489971 0.444978 0.399985 0.354992 0.437065 0.519137 0.60121 0.683283 0.562175 0.441068 0.319961 0.198853 0.222145 0.245436 0.268728 0.29202 0.449799 0.607579 0.765359 0.923139 0.841954 0.760769 0.679585 0.5984 0.682708 0.767015 0.851323 0.935631 0.890998 0.846365 0.801733 0.7571 0.722008 0.686917 0.651825 0.616733 0.602676 0.588619 0.574562 0.560504 0.624045 0.687586 0.751127 0.814668 0.752424 0.69018 0.627937 0.565693 0.506776 0.44786 0.388943 0.330027 0.448801 0.567575 0.686349 0.805123 0.780061 0.755 0.729939 0.704878 0.779002 0.853127 0.927251 1.00138 0.542235 0.514326 0.486416 0.458507 0.430598 0.513822 0.597046 0.680271 0.763495 0.627423 0.491351 0.355279 0.219208 0.266465 0.313722 0.36098 0.408237 0.540231 0.672224 0.804217 0.936211 0.852642 0.769073 0.685504 0.601935 0.679707 0.757478 0.835249 0.91302 0.876636 0.840253 0.803869 0.767485 0.729822 0.692159 0.654496 0.616833 0.565117 0.513401 0.461684 0.409968 0.497068 0.584168 0.671268 0.758368 0.650441 0.542514 0.434586 0.326659 0.368677 0.410694 0.452711 0.494729 0.558834 0.622939 0.687045 0.75115 0.747264 0.743379 0.739493 0.735607 0.795384 0.855161 0.914937 0.974714 0.549505 0.53868 0.527854 0.517029 0.506203 0.590579 0.674955 0.759331 0.843707 0.692671 0.541635 0.390598 0.239562 0.310785 0.382008 0.453232 0.524455 0.630662 0.736869 0.843076 0.949283 0.86333 0.777377 0.691424 0.605471 0.676705 0.74794 0.819175 0.890409 0.862274 0.83414 0.806005 0.777871 0.737636 0.697402 0.657167 0.616933 0.527557 0.438182 0.348807 0.259432 0.370091 0.48075 0.591409 0.702068 0.548458 0.394847 0.241236 0.0876257 0.230577 0.373528 0.516479 0.65943 0.668867 0.678304 0.687741 0.697178 0.714468 0.731757 0.749047 0.766337 0.811766 0.857194 0.902623 0.948052 0.668405 0.647056 0.625707 0.604358 0.583009 0.633711 0.684413 0.735114 0.785816 0.695449 0.605082 0.514716 0.424349 0.45481 0.485272 0.515733 0.546194 0.588758 0.631321 0.673885 0.716448 0.658825 0.601202 0.543578 0.485955 0.588248 0.690541 0.792834 0.895127 0.849105 0.803083 0.757061 0.711039 0.704613 0.698187 0.691762 0.685336 0.576449 0.467561 0.358674 0.249786 0.35536 0.460933 0.566506 0.67208 0.561985 0.451891 0.341797 0.231703 0.299528 0.367353 0.435179 0.503004 0.548467 0.59393 0.639393 0.684856 0.681195 0.677535 0.673875 0.670214 0.68372 0.697225 0.710731 0.724236 0.787305 0.755433 0.72356 0.691688 0.659816 0.676843 0.69387 0.710897 0.727924 0.698227 0.66853 0.638833 0.609136 0.598836 0.588535 0.578235 0.567934 0.546854 0.525774 0.504693 0.483613 0.45432 0.425026 0.395733 0.36644 0.499791 0.633142 0.766493 0.899844 0.835935 0.772026 0.708116 0.644207 0.67159 0.698973 0.726356 0.753739 0.62534 0.49694 0.36854 0.240141 0.340628 0.441116 0.541604 0.642091 0.575513 0.508935 0.442358 0.37578 0.368479 0.361179 0.353878 0.346577 0.428067 0.509556 0.591045 0.672534 0.647923 0.623313 0.598702 0.574092 0.555674 0.537256 0.518839 0.500421 0.906205 0.863809 0.821413 0.779018 0.736622 0.719974 0.703327 0.68668 0.670033 0.701005 0.731978 0.762951 0.793923 0.742861 0.691799 0.640736 0.589674 0.50495 0.420226 0.335502 0.250778 0.249815 0.248851 0.247888 0.246924 0.411334 0.575743 0.740152 0.904562 0.822765 0.740968 0.659172 0.577375 0.638567 0.699759 0.760951 0.822143 0.674231 0.526319 0.378407 0.230495 0.325897 0.421299 0.516701 0.612103 0.589041 0.56598 0.542918 0.519857 0.43743 0.355004 0.272577 0.190151 0.307666 0.425182 0.542697 0.660212 0.614651 0.56909 0.52353 0.477969 0.427628 0.377287 0.326946 0.276606 1.0251 0.972186 0.919266 0.866347 0.813428 0.763106 0.712784 0.662463 0.612141 0.703783 0.795426 0.887068 0.978711 0.886886 0.795062 0.703238 0.611413 0.463046 0.314679 0.166311 0.0179438 0.04531 0.0726762 0.100042 0.127409 0.322876 0.518344 0.713811 0.909279 0.809595 0.709911 0.610227 0.510544 0.605544 0.700545 0.795546 0.890546 0.723122 0.555698 0.388273 0.220849 0.311165 0.401482 0.491798 0.582114 0.602569 0.623024 0.643479 0.663934 0.506381 0.348829 0.191277 0.0337244 0.187266 0.340807 0.494349 0.64789 0.581379 0.514868 0.448357 0.381846 0.299582 0.217318 0.135054 0.0527903 0.896502 0.837658 0.778814 0.719971 0.661127 0.618704 0.576281 0.533857 0.491434 0.565623 0.639811 0.713999 0.788188 0.715428 0.642668 0.569908 0.497148 0.388679 0.28021 0.171741 0.0632724 0.0741521 0.0850317 0.0959113 0.106791 0.292421 0.47805 0.66368 0.84931 0.751273 0.653235 0.555198 0.457161 0.545321 0.633482 0.721642 0.809802 0.694547 0.579292 0.464037 0.348782 0.403607 0.458431 0.513256 0.56808 0.585841 0.603601 0.621362 0.639123 0.514977 0.390832 0.266686 0.142541 0.236589 0.330637 0.424685 0.518733 0.492791 0.466849 0.440907 0.414965 0.377876 0.340787 0.303698 0.266609 0.767899 0.703131 0.638363 0.573595 0.508826 0.474302 0.439777 0.405252 0.370727 0.427462 0.484196 0.54093 0.597665 0.543969 0.490273 0.436578 0.382882 0.314312 0.245742 0.177171 0.108601 0.102994 0.0973872 0.0917802 0.0861732 0.261965 0.437757 0.613549 0.78934 0.69295 0.596559 0.500169 0.403779 0.485099 0.566419 0.647739 0.729059 0.665973 0.602887 0.539801 0.476715 0.496048 0.515381 0.534714 0.554047 0.569113 0.584179 0.599245 0.614311 0.523573 0.432834 0.342096 0.251357 0.285912 0.320466 0.355021 0.389575 0.404202 0.41883 0.433457 0.448084 0.45617 0.464256 0.472342 0.480427 0.639296 0.568603 0.497911 0.427218 0.356526 0.329899 0.303273 0.276647 0.25002 0.289301 0.328581 0.367861 0.407142 0.37251 0.337879 0.303248 0.268616 0.239945 0.211273 0.182601 0.15393 0.131836 0.109743 0.0876491 0.0655555 0.231509 0.397463 0.563417 0.729371 0.634627 0.539884 0.44514 0.350396 0.424876 0.499356 0.573835 0.648315 0.637398 0.626481 0.615564 0.604647 0.588489 0.57233 0.556172 0.540013 0.552385 0.564757 0.577128 0.5895 0.532168 0.474837 0.417505 0.360173 0.335234 0.310296 0.285357 0.260418 0.315614 0.37081 0.426006 0.481203 0.534463 0.587724 0.640985 0.694246 0.510692 0.434076 0.357459 0.280842 0.204225 0.185497 0.166769 0.148041 0.129314 0.15114 0.172966 0.194792 0.216619 0.201052 0.185484 0.169917 0.15435 0.165577 0.176804 0.188031 0.199258 0.160678 0.122098 0.083518 0.0449378 0.201054 0.35717 0.513286 0.669402 0.576305 0.483208 0.390111 0.297014 0.364653 0.432292 0.499932 0.567571 0.608823 0.650076 0.691328 0.73258 0.68093 0.62928 0.577629 0.525979 0.535657 0.545334 0.555012 0.564689 0.540764 0.516839 0.492914 0.46899 0.384557 0.300125 0.215693 0.13126 0.227026 0.322791 0.418556 0.514321 0.612757 0.711193 0.809629 0.908065 0.610965 0.514475 0.417986 0.321496 0.225006 0.206691 0.188375 0.17006 0.151745 0.19165 0.231556 0.271461 0.311367 0.304639 0.297912 0.291184 0.284456 0.278173 0.271889 0.265606 0.259322 0.216485 0.173647 0.130809 0.0879717 0.25393 0.419889 0.585847 0.751805 0.624951 0.498096 0.371241 0.244386 0.296673 0.348959 0.401246 0.453533 0.486865 0.520197 0.55353 0.586862 0.549732 0.512601 0.475471 0.43834 0.475539 0.512737 0.549935 0.587133 0.566065 0.544997 0.523929 0.502861 0.405222 0.307584 0.209945 0.112306 0.241871 0.371435 0.501 0.630564 0.691668 0.752771 0.813875 0.874978 0.711238 0.594875 0.478513 0.36215 0.245788 0.227885 0.209982 0.192079 0.174175 0.232161 0.290146 0.348131 0.406116 0.408227 0.410339 0.412451 0.414562 0.390768 0.366974 0.34318 0.319386 0.272291 0.225196 0.178101 0.131006 0.306806 0.482607 0.658408 0.834209 0.673597 0.512984 0.352371 0.191759 0.228693 0.265626 0.30256 0.339494 0.364907 0.390319 0.415732 0.441144 0.418534 0.395923 0.373312 0.350701 0.41542 0.480139 0.544858 0.609577 0.591366 0.573154 0.554943 0.536732 0.425887 0.315042 0.204197 0.0933524 0.256716 0.42008 0.583443 0.746807 0.770578 0.794349 0.818121 0.841892 0.811511 0.675275 0.53904 0.402804 0.266569 0.249078 0.231588 0.214097 0.196606 0.272671 0.348735 0.4248 0.500864 0.511815 0.522766 0.533717 0.544668 0.503364 0.462059 0.420755 0.37945 0.328098 0.276745 0.225392 0.174039 0.359683 0.545326 0.730969 0.916613 0.722242 0.527872 0.333502 0.139132 0.160713 0.182293 0.203874 0.225455 0.242948 0.260441 0.277934 0.295427 0.287336 0.279245 0.271154 0.263062 0.355302 0.447542 0.539781 0.632021 0.616666 0.601312 0.585957 0.570603 0.446552 0.322501 0.19845 0.0743985 0.271561 0.468724 0.665887 0.863049 0.849488 0.835927 0.822367 0.808806 0.911783 0.755675 0.599567 0.443458 0.28735 0.270272 0.253194 0.236116 0.219037 0.313181 0.407325 0.501469 0.595612 0.615403 0.635193 0.654984 0.674774 0.615959 0.557144 0.498329 0.439514 0.383904 0.328294 0.272684 0.217073 0.412559 0.608045 0.803531 0.999016 0.770888 0.54276 0.314632 0.0865043 0.0927323 0.0989604 0.105189 0.111417 0.12099 0.130563 0.140136 0.149709 0.156138 0.162566 0.168995 0.175424 0.295184 0.414944 0.534705 0.654465 0.641967 0.629469 0.616972 0.604474 0.467217 0.329959 0.192702 0.0554446 0.286406 0.517368 0.74833 0.979292 0.928399 0.877506 0.826612 0.775719 0.876283 0.715397 0.554511 0.393626 0.23274 0.272265 0.311789 0.351314 0.390838 0.466362 0.541886 0.61741 0.692934 0.711058 0.729182 0.747306 0.76543 0.713058 0.660686 0.608315 0.555943 0.509401 0.462859 0.416318 0.369776 0.498462 0.627149 0.755835 0.884522 0.691309 0.498096 0.304883 0.11167 0.130897 0.150124 0.169351 0.188578 0.178326 0.168073 0.157821 0.147568 0.145602 0.143636 0.14167 0.139704 0.289351 0.438997 0.588644 0.738291 0.686897 0.635504 0.58411 0.532716 0.429422 0.326127 0.222832 0.119537 0.295116 0.470695 0.646274 0.821853 0.792914 0.763975 0.735036 0.706096 0.840782 0.675119 0.509456 0.343793 0.17813 0.274257 0.370384 0.466511 0.562639 0.619543 0.676447 0.733352 0.790256 0.806713 0.823171 0.839628 0.856085 0.810157 0.764229 0.718301 0.672372 0.634899 0.597425 0.559952 0.522478 0.584365 0.646253 0.70814 0.770027 0.61173 0.453432 0.295134 0.136837 0.169062 0.201288 0.233514 0.26574 0.235662 0.205584 0.175506 0.145428 0.135067 0.124706 0.114345 0.103985 0.283518 0.463051 0.642584 0.822117 0.731827 0.641538 0.551249 0.460959 0.391627 0.322295 0.252963 0.18363 0.303826 0.424022 0.544218 0.664414 0.657429 0.650444 0.643459 0.636474 0.805282 0.634841 0.464401 0.293961 0.123521 0.27625 0.42898 0.581709 0.734439 0.772724 0.811008 0.849293 0.887578 0.902369 0.917159 0.93195 0.946741 0.907256 0.867771 0.828286 0.788801 0.760396 0.731991 0.703586 0.67518 0.670268 0.665357 0.660445 0.655533 0.53215 0.408768 0.285385 0.162003 0.207227 0.252452 0.297677 0.342901 0.292998 0.243094 0.193191 0.143287 0.124532 0.105776 0.0870207 0.0682652 0.277684 0.487104 0.696523 0.905942 0.776757 0.647572 0.518387 0.389202 0.353832 0.318462 0.283093 0.247723 0.312536 0.377349 0.442162 0.506975 0.521944 0.536913 0.551882 0.566851 0.769781 0.594563 0.419346 0.244128 0.0689106 0.278243 0.487575 0.696907 0.90624 0.925905 0.94557 0.965234 0.984899 0.998024 1.01115 1.02427 1.0374 1.00436 0.971314 0.938272 0.90523 0.885893 0.866556 0.84722 0.827883 0.756172 0.68446 0.612749 0.541038 0.452571 0.364104 0.275636 0.187169 0.245392 0.303616 0.361839 0.420063 0.350334 0.280605 0.210875 0.141146 0.113996 0.0868461 0.059696 0.0325458 0.271851 0.511157 0.750462 0.989768 0.821687 0.653606 0.485525 0.317445 0.316037 0.31463 0.313223 0.311816 0.321246 0.330676 0.340106 0.349536 0.386459 0.423382 0.460305 0.497228 0.746402 0.574499 0.402596 0.230693 0.0587898 0.269456 0.480122 0.690787 0.901453 0.897589 0.893725 0.889861 0.885996 0.915265 0.944533 0.973801 1.00307 0.944947 0.886825 0.828703 0.770581 0.762542 0.754504 0.746465 0.738426 0.658837 0.579248 0.499659 0.420069 0.361812 0.303555 0.245297 0.18704 0.262699 0.338358 0.414018 0.489677 0.415514 0.341351 0.267188 0.193025 0.210051 0.227077 0.244104 0.26113 0.389215 0.5173 0.645385 0.77347 0.704715 0.635961 0.567206 0.498451 0.467919 0.437387 0.406855 0.376323 0.394164 0.412006 0.429847 0.447688 0.495499 0.543309 0.591119 0.63893 0.723022 0.554434 0.385846 0.217257 0.0486689 0.260668 0.472668 0.684667 0.896667 0.869273 0.84188 0.814487 0.787093 0.832505 0.877917 0.923329 0.968741 0.885539 0.802336 0.719134 0.635932 0.639191 0.642451 0.64571 0.64897 0.561503 0.474035 0.386568 0.299101 0.271053 0.243005 0.214958 0.18691 0.280006 0.373101 0.466196 0.559292 0.480695 0.402097 0.3235 0.244903 0.306106 0.367309 0.428512 0.489715 0.506579 0.523444 0.540308 0.557173 0.587744 0.618315 0.648886 0.679457 0.619801 0.560144 0.500487 0.44083 0.467083 0.493335 0.519588 0.54584 0.604538 0.663236 0.721933 0.780631 0.699643 0.534369 0.369095 0.203822 0.0385481 0.251881 0.465214 0.678547 0.89188 0.840958 0.790035 0.739113 0.68819 0.749746 0.811302 0.872858 0.934413 0.826131 0.717848 0.609565 0.501282 0.51584 0.530398 0.544956 0.559513 0.464168 0.368823 0.273477 0.178132 0.180294 0.182456 0.184618 0.186781 0.297312 0.407844 0.518375 0.628907 0.545875 0.462844 0.379813 0.296781 0.402161 0.50754 0.61292 0.718299 0.623943 0.529587 0.435231 0.340875 0.470772 0.600669 0.730567 0.860464 0.771682 0.682901 0.594119 0.505338 0.540001 0.574665 0.609328 0.643992 0.713577 0.783162 0.852747 0.922333 0.676263 0.514304 0.352345 0.190386 0.0284272 0.243094 0.457761 0.672427 0.887094 0.812642 0.738191 0.663739 0.589287 0.666987 0.744686 0.822386 0.900086 0.766722 0.633359 0.499996 0.366633 0.392489 0.418345 0.444201 0.470057 0.366834 0.26361 0.160387 0.057163 0.0895351 0.121907 0.154279 0.186651 0.314619 0.442586 0.570554 0.698521 0.611056 0.52359 0.436125 0.348659 0.498215 0.647772 0.797328 0.946884 0.741307 0.53573 0.330154 0.124577 0.3538 0.583024 0.812247 1.04147 0.923564 0.805657 0.687751 0.569845 0.61292 0.655994 0.699069 0.742144 0.822616 0.903089 0.983562 1.06403 0.582275 0.469391 0.356507 0.243623 0.130739 0.294989 0.459238 0.623488 0.787737 0.751618 0.715499 0.679379 0.64326 0.705103 0.766946 0.82879 0.890633 0.74332 0.596007 0.448694 0.301381 0.325904 0.350426 0.374949 0.399471 0.33401 0.268548 0.203087 0.137625 0.141951 0.146277 0.150603 0.154928 0.281544 0.40816 0.534776 0.661392 0.583539 0.505687 0.427834 0.349982 0.451597 0.553212 0.654828 0.756443 0.604456 0.45247 0.300483 0.148497 0.366257 0.584017 0.801777 1.01954 0.916029 0.812521 0.709012 0.605504 0.623974 0.642443 0.660913 0.679382 0.769733 0.860083 0.950433 1.04078 0.488287 0.424478 0.360669 0.29686 0.233051 0.346883 0.460716 0.574548 0.688381 0.690594 0.692807 0.69502 0.697233 0.74322 0.789207 0.835193 0.88118 0.719918 0.558655 0.397392 0.23613 0.259318 0.282507 0.305696 0.328885 0.301186 0.273487 0.245787 0.218088 0.194367 0.170647 0.146926 0.123206 0.24847 0.373734 0.498999 0.624263 0.556023 0.487783 0.419544 0.351304 0.404979 0.458653 0.512328 0.566002 0.467606 0.369209 0.270813 0.172416 0.378713 0.58501 0.791307 0.997604 0.908494 0.819384 0.730274 0.641164 0.635028 0.628892 0.622756 0.61662 0.716849 0.817077 0.917305 1.01753 0.394299 0.379565 0.364831 0.350097 0.335363 0.398778 0.462193 0.525609 0.589024 0.62957 0.670115 0.710661 0.751206 0.781336 0.811467 0.841597 0.871727 0.696515 0.521303 0.34609 0.170878 0.192733 0.214588 0.236444 0.258299 0.268362 0.278425 0.288488 0.29855 0.246784 0.195017 0.14325 0.0914829 0.215396 0.339308 0.463221 0.587134 0.528507 0.46988 0.411253 0.352626 0.35836 0.364094 0.369828 0.375562 0.330755 0.285949 0.241142 0.196336 0.39117 0.586003 0.780837 0.975671 0.900959 0.826247 0.751535 0.676823 0.646082 0.615341 0.5846 0.553859 0.663965 0.774071 0.884177 0.994284 0.300311 0.334652 0.368993 0.403334 0.437674 0.450673 0.463671 0.476669 0.489667 0.568545 0.647423 0.726301 0.805179 0.819453 0.833727 0.848001 0.862275 0.673113 0.48395 0.294788 0.105626 0.126148 0.14667 0.167191 0.187713 0.235538 0.283363 0.331188 0.379013 0.2992 0.219387 0.139573 0.0597601 0.182321 0.304882 0.427444 0.550005 0.500991 0.451977 0.402963 0.353949 0.311742 0.269535 0.227328 0.185121 0.193905 0.202688 0.211472 0.220255 0.403626 0.586996 0.770367 0.953737 0.893424 0.83311 0.772796 0.712483 0.657136 0.60179 0.546443 0.491097 0.611081 0.731065 0.851049 0.971033 0.252362 0.320461 0.38856 0.45666 0.524759 0.533873 0.542987 0.552101 0.561216 0.608892 0.656569 0.704246 0.751923 0.737751 0.723579 0.709406 0.695234 0.580567 0.465901 0.351234 0.236567 0.232378 0.228188 0.223999 0.219809 0.244756 0.269703 0.29465 0.319597 0.264906 0.210216 0.155525 0.100834 0.237699 0.374564 0.511429 0.648294 0.557292 0.466291 0.375289 0.284287 0.263897 0.243508 0.223118 0.202728 0.196885 0.191042 0.1852 0.179357 0.342436 0.505515 0.668594 0.831673 0.75823 0.684787 0.611343 0.5379 0.554566 0.571232 0.587899 0.604565 0.648577 0.69259 0.736602 0.780614 0.204413 0.30627 0.408128 0.509985 0.611843 0.617073 0.622303 0.627533 0.632764 0.64924 0.665716 0.682192 0.698668 0.656049 0.613431 0.570812 0.528194 0.488022 0.447851 0.40768 0.367509 0.338608 0.309707 0.280806 0.251905 0.253974 0.256043 0.258112 0.260181 0.230613 0.201045 0.171477 0.141908 0.293077 0.444246 0.595415 0.746584 0.613594 0.480605 0.347615 0.214626 0.216053 0.21748 0.218908 0.220335 0.199866 0.179397 0.158927 0.138458 0.281246 0.424034 0.566822 0.70961 0.623036 0.536463 0.44989 0.363316 0.451996 0.540675 0.629354 0.718033 0.686074 0.654114 0.622155 0.590195 0.156464 0.29208 0.427696 0.563311 0.698927 0.700273 0.701619 0.702966 0.704312 0.689587 0.674862 0.660137 0.645412 0.574347 0.503283 0.432218 0.361153 0.395477 0.429801 0.464126 0.49845 0.444838 0.391225 0.337613 0.284001 0.263192 0.242383 0.221574 0.200765 0.19632 0.191874 0.187428 0.182983 0.348455 0.513928 0.6794 0.844873 0.669896 0.494919 0.319942 0.144964 0.168209 0.191453 0.214697 0.237942 0.202846 0.167751 0.132655 0.0975597 0.220056 0.342553 0.465049 0.587546 0.487843 0.388139 0.288436 0.188733 0.349425 0.510117 0.670809 0.831501 0.72357 0.615639 0.507707 0.399776 0.108515 0.277889 0.447263 0.616637 0.786012 0.783474 0.780936 0.778398 0.77586 0.729934 0.684008 0.638082 0.592157 0.492645 0.393134 0.293623 0.194112 0.302932 0.411752 0.520571 0.629391 0.551068 0.472744 0.394421 0.316097 0.27241 0.228723 0.185036 0.141349 0.162026 0.182703 0.20338 0.224057 0.403833 0.58361 0.763386 0.943163 0.726198 0.509233 0.292268 0.0753029 0.120364 0.165426 0.210487 0.255549 0.205827 0.156105 0.106383 0.0566612 0.158866 0.261071 0.363277 0.465482 0.352649 0.239816 0.126983 0.0141499 0.246855 0.47956 0.712265 0.94497 0.761067 0.577163 0.39326 0.209357 0.105739 0.246944 0.388149 0.529353 0.670558 0.678427 0.686296 0.694166 0.702035 0.644254 0.586472 0.528691 0.470909 0.455142 0.439374 0.423607 0.40784 0.445765 0.48369 0.521616 0.559541 0.49851 0.437478 0.376447 0.315415 0.267151 0.218888 0.170624 0.12236 0.153425 0.18449 0.215556 0.246621 0.364862 0.483103 0.601343 0.719584 0.587099 0.454614 0.322129 0.189644 0.240301 0.290958 0.341615 0.392272 0.346398 0.300525 0.254651 0.208777 0.24977 0.290763 0.331756 0.372749 0.287585 0.20242 0.117256 0.032091 0.252283 0.472475 0.692667 0.912859 0.784123 0.655387 0.52665 0.397914 0.102964 0.215999 0.329034 0.442069 0.555104 0.573381 0.591657 0.609934 0.62821 0.558573 0.488936 0.419299 0.349662 0.417638 0.485614 0.553591 0.621567 0.588598 0.555629 0.52266 0.489691 0.445951 0.402212 0.358473 0.314734 0.261893 0.209052 0.156211 0.10337 0.144824 0.186278 0.227732 0.269186 0.325891 0.382596 0.4393 0.496005 0.448 0.399995 0.35199 0.303985 0.360238 0.41649 0.472743 0.528995 0.48697 0.444944 0.402919 0.360893 0.340674 0.320455 0.300236 0.280017 0.22252 0.165024 0.107528 0.0500322 0.257711 0.465391 0.67307 0.880749 0.807179 0.73361 0.660041 0.586471 0.100189 0.185054 0.26992 0.354785 0.439651 0.468334 0.497018 0.525702 0.554385 0.472893 0.3914 0.309907 0.228415 0.380135 0.531854 0.683574 0.835294 0.731431 0.627567 0.523704 0.41984 0.393393 0.366946 0.340499 0.314053 0.256634 0.199216 0.141798 0.0843798 0.136222 0.188065 0.239908 0.291751 0.28692 0.282089 0.277258 0.272427 0.308902 0.345377 0.381852 0.418327 0.480174 0.542022 0.60387 0.665718 0.627541 0.589364 0.551186 0.513009 0.431578 0.350146 0.268715 0.187284 0.157456 0.127629 0.097801 0.0679733 0.26314 0.458306 0.653472 0.848638 0.830236 0.811833 0.793431 0.775028 0.0974136 0.154109 0.210805 0.267501 0.324197 0.363288 0.402379 0.44147 0.480561 0.387212 0.293864 0.200516 0.107168 0.342631 0.578094 0.813558 1.04902 0.874263 0.699506 0.524748 0.34999 0.340835 0.33168 0.322526 0.313371 0.251376 0.189381 0.127385 0.0653899 0.127621 0.189853 0.252084 0.314315 0.247948 0.181582 0.115215 0.0488479 0.169803 0.290758 0.411713 0.532668 0.600111 0.667554 0.734998 0.802441 0.768112 0.733783 0.699454 0.665125 0.522482 0.379838 0.237195 0.0945514 0.0923922 0.0902329 0.0880737 0.0859144 0.268568 0.451221 0.633875 0.816528 0.853292 0.890057 0.926821 0.963585 0.21228 0.22728 0.242281 0.257281 0.272282 0.348685 0.425088 0.501491 0.577895 0.475791 0.373688 0.271584 0.169481 0.343163 0.516845 0.690527 0.864209 0.762938 0.661666 0.560395 0.459124 0.40378 0.348436 0.293092 0.237748 0.193763 0.149777 0.105791 0.0618055 0.149282 0.236759 0.324235 0.411712 0.357692 0.303672 0.249652 0.195632 0.281252 0.366872 0.452491 0.538111 0.602105 0.666098 0.730091 0.794084 0.766861 0.739637 0.712414 0.68519 0.583081 0.480971 0.378862 0.276752 0.242668 0.208584 0.1745 0.140416 0.303926 0.467437 0.630947 0.794457 0.813553 0.83265 0.851746 0.870842 0.327146 0.300451 0.273756 0.247062 0.220367 0.334082 0.447798 0.561513 0.675229 0.56437 0.453511 0.342652 0.231794 0.343694 0.455595 0.567496 0.679397 0.651612 0.623827 0.596043 0.568258 0.466725 0.365192 0.263659 0.162126 0.13615 0.110173 0.0841973 0.0582212 0.170943 0.283665 0.396386 0.509108 0.467435 0.425762 0.384089 0.342415 0.3927 0.442985 0.49327 0.543555 0.604098 0.664641 0.725184 0.785727 0.765609 0.745491 0.725373 0.705255 0.64368 0.582104 0.520529 0.458953 0.392944 0.326935 0.260927 0.194918 0.339285 0.483652 0.628019 0.772387 0.773815 0.775243 0.776671 0.778099 0.442013 0.373622 0.305232 0.236842 0.168451 0.319479 0.470507 0.621535 0.772562 0.652949 0.533335 0.413721 0.294107 0.344226 0.394346 0.444465 0.494584 0.540286 0.585988 0.63169 0.677393 0.52967 0.381948 0.234225 0.0865029 0.0785364 0.0705698 0.0626033 0.0546368 0.192604 0.330571 0.468537 0.606504 0.577178 0.547852 0.518525 0.489199 0.504149 0.519099 0.534049 0.548999 0.606091 0.663184 0.720277 0.77737 0.764358 0.751345 0.738333 0.72532 0.704279 0.683237 0.662196 0.641154 0.543221 0.445287 0.347353 0.249419 0.374643 0.499868 0.625092 0.750316 0.734076 0.717836 0.701595 0.685355 0.556879 0.446793 0.336708 0.226622 0.116536 0.304876 0.493216 0.681556 0.869896 0.741527 0.613158 0.484789 0.35642 0.344758 0.333096 0.321434 0.309772 0.428961 0.548149 0.667338 0.786527 0.592615 0.398703 0.204792 0.0108801 0.0209232 0.0309663 0.0410094 0.0510524 0.214264 0.377477 0.540689 0.703901 0.686921 0.669942 0.652962 0.635983 0.615598 0.595212 0.574827 0.554442 0.608085 0.661728 0.71537 0.769013 0.763106 0.757199 0.751292 0.745386 0.764878 0.784371 0.803863 0.823355 0.693497 0.563638 0.433779 0.303921 0.410002 0.516083 0.622164 0.728245 0.694337 0.660429 0.62652 0.592612 0.521083 0.416793 0.312503 0.208213 0.103923 0.292418 0.480913 0.669408 0.857903 0.732498 0.607092 0.481687 0.356282 0.365334 0.374386 0.383437 0.392489 0.490667 0.588846 0.687024 0.785202 0.597848 0.410494 0.22314 0.0357855 0.0448366 0.0538876 0.0629386 0.0719897 0.222171 0.372353 0.522535 0.672717 0.655745 0.638774 0.621803 0.604831 0.616237 0.627643 0.63905 0.650456 0.684658 0.71886 0.753063 0.787265 0.778582 0.769899 0.761216 0.752534 0.722152 0.691771 0.66139 0.631008 0.535081 0.439153 0.343225 0.247297 0.327709 0.40812 0.488531 0.568943 0.590942 0.612941 0.63494 0.65694 0.485288 0.386794 0.288299 0.189805 0.0913105 0.27996 0.46861 0.65726 0.845909 0.723468 0.601027 0.478586 0.356144 0.38591 0.415675 0.445441 0.475207 0.552374 0.629542 0.706709 0.783877 0.60308 0.422284 0.241487 0.0606909 0.0687499 0.0768089 0.0848679 0.0929269 0.230078 0.36723 0.504382 0.641533 0.62457 0.607606 0.590643 0.573679 0.616877 0.660074 0.703272 0.746469 0.761231 0.775993 0.790755 0.805517 0.794058 0.782599 0.771141 0.759682 0.679427 0.599172 0.518917 0.438662 0.376665 0.314668 0.252671 0.190674 0.245415 0.300157 0.354898 0.40964 0.487547 0.565453 0.64336 0.721267 0.449493 0.356794 0.264095 0.171396 0.0786976 0.267502 0.456307 0.645111 0.833916 0.714438 0.594961 0.475484 0.356007 0.406486 0.456965 0.507445 0.557924 0.614081 0.670238 0.726395 0.782552 0.608313 0.434074 0.259835 0.0855962 0.0926632 0.0997302 0.106797 0.113864 0.237985 0.362107 0.486228 0.610349 0.593394 0.576438 0.559483 0.542527 0.617516 0.692505 0.767494 0.842483 0.837804 0.833126 0.828448 0.823769 0.809534 0.7953 0.781065 0.76683 0.636701 0.506572 0.376443 0.246315 0.218249 0.190182 0.162116 0.13405 0.163122 0.192194 0.221265 0.250337 0.384151 0.517966 0.65178 0.785595 0.413697 0.326794 0.239891 0.152988 0.0660847 0.255044 0.444003 0.632963 0.821922 0.705409 0.588895 0.472382 0.355869 0.427062 0.498255 0.569448 0.640641 0.675788 0.710934 0.74608 0.781227 0.613546 0.445864 0.278183 0.110502 0.116577 0.122652 0.128726 0.134801 0.245892 0.356983 0.468074 0.579165 0.562218 0.545271 0.528323 0.511376 0.618156 0.724936 0.831716 0.938496 0.914378 0.890259 0.86614 0.842022 0.825011 0.808 0.790989 0.773977 0.593975 0.413973 0.23397 0.0539676 0.0598324 0.0656973 0.0715621 0.0774269 0.0808287 0.0842305 0.0876322 0.091034 0.280756 0.470478 0.6602 0.849922 0.556223 0.474748 0.393274 0.311799 0.230324 0.335506 0.440688 0.54587 0.651052 0.602627 0.554202 0.505778 0.457353 0.47039 0.483427 0.496465 0.509502 0.53634 0.563178 0.590016 0.616854 0.525552 0.43425 0.342948 0.251646 0.235663 0.21968 0.203697 0.187714 0.29244 0.397167 0.501894 0.60662 0.600191 0.593762 0.587333 0.580904 0.65005 0.719197 0.788343 0.85749 0.849735 0.84198 0.834225 0.82647 0.780436 0.734401 0.688366 0.642331 0.540268 0.438205 0.336142 0.234079 0.254012 0.273944 0.293877 0.313809 0.309507 0.305206 0.300904 0.296602 0.387545 0.478489 0.569432 0.660376 0.698749 0.622702 0.546656 0.47061 0.394563 0.415968 0.437373 0.458778 0.480183 0.499846 0.51951 0.539173 0.558836 0.513718 0.468599 0.423481 0.378363 0.396892 0.415422 0.433952 0.452482 0.437559 0.422636 0.407713 0.39279 0.354749 0.316708 0.278667 0.240626 0.338988 0.43735 0.535713 0.634075 0.638164 0.642253 0.646343 0.650432 0.681945 0.713458 0.744971 0.776484 0.785092 0.793701 0.80231 0.810919 0.735861 0.660802 0.585743 0.510685 0.486561 0.462438 0.438314 0.414191 0.448191 0.482191 0.516191 0.550192 0.538186 0.526181 0.514175 0.50217 0.494335 0.486499 0.478664 0.470829 0.841274 0.770656 0.700038 0.629421 0.558803 0.49643 0.434058 0.371686 0.309313 0.397065 0.484817 0.572568 0.66032 0.557046 0.453772 0.350497 0.247223 0.257445 0.267666 0.277888 0.28811 0.349566 0.4