<?xml version="1.0"?> 
<VTKFile type="StructuredGrid" version="0.1"> 
<StructuredGrid WholeExtent="0 128 0 128 0 0"> 
<Piece Extent="0 128 0 128 0 0"> 
<PointData>
<DataArray type="Float32" Name="u" format="ascii" NumberOfComponents="1"> 
0 0 0 0 0 0 0 0 0 0 0 0 0 0 0 0 0 0 0 0 0 0 0 0 0 0 0 0 0 0 0 0 0 0 0 0 0 0 0 0 0 0 0 0 0 0 0 0 0 0 0 0 0 0 0 0 0 0 0 0 0 0 0 0 0 0 0 0 0 0 0 0 0 0 0 0 0 0 0 0 0 0 0 0 0 0 0 0 0 0 0 0 0 0 0 0 0 0 0 0 0 0 0 0 0 0 0 0 0 0 0 0 0 0 0 0 0 0 0 0 0 0 0 0 0 0 0 0 0 0 3.4535e-08 1.3814e-07 3.10815e-07 5.5256e-07 8.63376e-07 1.24326e-06 1.69222e-06 2.21024e-06 2.68404e-06 3.0003e-06 3.15904e-06 3.16024e-06 3.00391e-06 2.69006e-06 2.21867e-06 1.58975e-06 7.04578e-07 -5.35572e-07 -2.1307e-06 -4.08081e-06 -6.38589e-06 -9.04595e-06 -1.2061e-05 -1.5431e-05 -1.91133e-05 -2.30652e-05 -2.72866e-05 -3.17776e-05 -3.65382e-05 -4.15683e-05 -4.6868e-05 -5.24373e-05 -5.82052e-05 -6.41008e-05 -7.01241e-05 -7.62751e-05 -8.25537e-05 -8.89601e-05 -9.54941e-05 -0.000102156 -0.000108871 -0.000115565 -0.000122238 -0.000128891 -0.000135522 -0.000142132 -0.000148722 -0.00015529 -0.000161709 -0.00016785 -0.000173713 -0.000179298 -0.000184605 -0.000189634 -0.000194384 -0.000198857 -0.00020292 -0.000206441 -0.00020942 -0.000211858 -0.000213754 -0.000215108 -0.000215921 -0.000216192 -0.000215921 -0.000215108 -0.000213754 -0.000211858 -0.00020942 -0.000206441 -0.00020292 -0.000198857 -0.000194384 -0.000189634 -0.000184605 -0.000179298 -0.000173713 -0.00016785 -0.000161709 -0.00015529 -0.000148722 -0.000142132 -0.000135522 -0.000128891 -0.000122238 -0.000115565 -0.000108871 -0.000102156 -9.54941e-05 -8.89601e-05 -8.25537e-05 -7.62751e-05 -7.01241e-05 -6.41008e-05 -5.82052e-05 -5.24373e-05 -4.6868e-05 -4.15683e-05 -3.65382e-05 -3.17776e-05 -2.72866e-05 -2.30652e-05 -1.91133e-05 -1.5431e-05 -1.2061e-05 -9.04595e-06 -6.38589e-06 -4.0808e-06 -2.1307e-06 -5.35571e-07 7.04579e-07 1.58975e-06 2.21867e-06 2.69006e-06 3.00391e-06 3.16024e-06 3.15904e-06 3.0003e-06 2.68404e-06 2.21024e-06 1.69222e-06 1.24326e-06 8.63376e-07 5.52561e-07 3.10815e-07 1.3814e-07 3.4535e-08 0 0 1.3814e-07 5.5256e-07 1.24326e-06 2.21024e-06 3.4535e-06 4.97304e-06 6.76887e-06 8.84097e-06 1.07361e-05 1.20012e-05 1.26361e-05 1.2641e-05 1.20157e-05 1.07602e-05 8.87467e-06 6.359e-06 2.81831e-06 -2.14229e-06 -8.5228e-06 -1.63232e-05 -2.55436e-05 -3.61838e-05 -4.8244e-05 -6.1724e-05 -7.64532e-05 -9.22606e-05 -0.000109146 -0.00012711 -0.000146153 -0.000166273 -0.000187472 -0.000209749 -0.000232821 -0.000256403 -0.000280496 -0.0003051 -0.000330215 -0.00035584 -0.000381976 -0.000408623 -0.000435484 -0.00046226 -0.000488953 -0.000515562 -0.000542088 -0.000568529 -0.000594887 -0.000621161 -0.000646838 -0.000671402 -0.000694853 -0.000717193 -0.00073842 -0.000758535 -0.000777538 -0.000795429 -0.00081168 -0.000825764 -0.000837681 -0.000847432 -0.000855016 -0.000860433 -0.000863683 -0.000864767 -0.000863683 -0.000860433 -0.000855016 -0.000847432 -0.000837681 -0.000825764 -0.00081168 -0.000795429 -0.000777538 -0.000758535 -0.00073842 -0.000717193 -0.000694853 -0.000671402 -0.000646838 -0.000621161 -0.000594887 -0.000568529 -0.000542088 -0.000515562 -0.000488953 -0.00046226 -0.000435484 -0.000408623 -0.000381976 -0.00035584 -0.000330215 -0.0003051 -0.000280496 -0.000256403 -0.000232821 -0.000209749 -0.000187472 -0.000166273 -0.000146153 -0.00012711 -0.000109146 -9.22606e-05 -7.64532e-05 -6.1724e-05 -4.8244e-05 -3.61838e-05 -2.55436e-05 -1.63232e-05 -8.52279e-06 -2.14228e-06 2.81832e-06 6.35901e-06 8.87468e-06 1.07602e-05 1.20157e-05 1.2641e-05 1.26361e-05 1.20012e-05 1.07362e-05 8.84097e-06 6.76887e-06 4.97305e-06 3.4535e-06 2.21024e-06 1.24326e-06 5.52561e-07 1.3814e-07 0 0 3.10815e-07 1.24326e-06 2.79734e-06 4.97304e-06 7.77038e-06 1.11893e-05 1.52299e-05 1.98922e-05 2.41563e-05 2.70027e-05 2.84313e-05 2.84422e-05 2.70352e-05 2.42105e-05 1.9968e-05 1.43078e-05 6.3412e-06 -4.82015e-06 -1.91763e-05 -3.67272e-05 -5.7473e-05 -8.14136e-05 -0.000108549 -0.000138879 -0.00017202 -0.000207586 -0.000245579 -0.000285998 -0.000328844 -0.000374115 -0.000421812 -0.000471936 -0.000523847 -0.000576907 -0.000631117 -0.000686476 -0.000742984 -0.000800641 -0.000859447 -0.000919402 -0.000979838 -0.00104009 -0.00110014 -0.00116002 -0.0012197 -0.00127919 -0.0013385 -0.00139761 -0.00145538 -0.00151065 -0.00156342 -0.00161368 -0.00166145 -0.0017067 -0.00174946 -0.00178971 -0.00182628 -0.00185797 -0.00188478 -0.00190672 -0.00192379 -0.00193597 -0.00194329 -0.00194572 -0.00194329 -0.00193597 -0.00192379 -0.00190672 -0.00188478 -0.00185797 -0.00182628 -0.00178971 -0.00174946 -0.0017067 -0.00166145 -0.00161368 -0.00156342 -0.00151065 -0.00145538 -0.00139761 -0.0013385 -0.00127919 -0.0012197 -0.00116002 -0.00110014 -0.00104009 -0.000979838 -0.000919402 -0.000859447 -0.000800641 -0.000742984 -0.000686476 -0.000631117 -0.000576907 -0.000523847 -0.000471936 -0.000421812 -0.000374115 -0.000328844 -0.000285998 -0.000245579 -0.000207586 -0.00017202 -0.000138879 -0.000108549 -8.14135e-05 -5.7473e-05 -3.67272e-05 -1.91763e-05 -4.82014e-06 6.34121e-06 1.43078e-05 1.9968e-05 2.42105e-05 2.70352e-05 2.84422e-05 2.84313e-05 2.70027e-05 2.41563e-05 1.98922e-05 1.523e-05 1.11894e-05 7.77038e-06 4.97305e-06 2.79734e-06 1.24326e-06 3.10815e-07 0 0 5.5256e-07 2.21024e-06 4.97304e-06 8.84097e-06 1.3814e-05 1.98922e-05 2.70755e-05 3.53639e-05 4.29446e-05 4.80048e-05 5.05446e-05 5.05638e-05 4.80626e-05 4.30409e-05 3.54987e-05 2.5436e-05 1.12732e-05 -8.56915e-06 -3.40912e-05 -6.52929e-05 -0.000102174 -0.000144735 -0.000192976 -0.000246896 -0.000305813 -0.000369043 -0.000436585 -0.000508442 -0.000584611 -0.000665093 -0.000749888 -0.000838997 -0.000931284 -0.00102561 -0.00112199 -0.0012204 -0.00132086 -0.00142336 -0.00152791 -0.00163449 -0.00174193 -0.00184904 -0.00195581 -0.00206225 -0.00216835 -0.00227412 -0.00237955 -0.00248465 -0.00258735 -0.00268561 -0.00277941 -0.00286877 -0.00295368 -0.00303414 -0.00311015 -0.00318171 -0.00324672 -0.00330306 -0.00335073 -0.00338973 -0.00342006 -0.00344173 -0.00345473 -0.00345907 -0.00345473 -0.00344173 -0.00342006 -0.00338973 -0.00335073 -0.00330306 -0.00324672 -0.00318171 -0.00311015 -0.00303414 -0.00295368 -0.00286877 -0.00277941 -0.00268561 -0.00258735 -0.00248465 -0.00237955 -0.00227412 -0.00216835 -0.00206225 -0.00195581 -0.00184904 -0.00174193 -0.00163449 -0.00152791 -0.00142336 -0.00132086 -0.0012204 -0.00112199 -0.00102561 -0.000931284 -0.000838997 -0.000749888 -0.000665093 -0.000584611 -0.000508442 -0.000436585 -0.000369043 -0.000305813 -0.000246896 -0.000192976 -0.000144735 -0.000102174 -6.52929e-05 -3.40912e-05 -8.56913e-06 1.12733e-05 2.5436e-05 3.54987e-05 4.30409e-05 4.80626e-05 5.05639e-05 5.05446e-05 4.80048e-05 4.29446e-05 3.53639e-05 2.70755e-05 1.98922e-05 1.3814e-05 8.84097e-06 4.97305e-06 2.21024e-06 5.52561e-07 0 0 8.63376e-07 3.4535e-06 7.77038e-06 1.3814e-05 2.15844e-05 3.10815e-05 4.23054e-05 5.5256e-05 6.71009e-05 7.50075e-05 7.89759e-05 7.9006e-05 7.50978e-05 6.72514e-05 5.54667e-05 3.97438e-05 1.76145e-05 -1.33893e-05 -5.32675e-05 -0.00010202 -0.000159647 -0.000226149 -0.000301525 -0.000385775 -0.000477832 -0.000576629 -0.000682165 -0.00079444 -0.000913454 -0.00103921 -0.0011717 -0.00131093 -0.00145513 -0.00160252 -0.0017531 -0.00190688 -0.00206384 -0.002224 -0.00238735 -0.0025539 -0.00272177 -0.00288913 -0.00305596 -0.00322226 -0.00338805 -0.00355331 -0.00371805 -0.00388226 -0.00404273 -0.00419626 -0.00434283 -0.00448245 -0.00461513 -0.00474084 -0.00485961 -0.00497143 -0.005073 -0.00516102 -0.00523551 -0.00529645 -0.00534385 -0.00537771 -0.00539802 -0.00540479 -0.00539802 -0.00537771 -0.00534385 -0.00529645 -0.00523551 -0.00516102 -0.005073 -0.00497143 -0.00485961 -0.00474084 -0.00461513 -0.00448245 -0.00434283 -0.00419626 -0.00404273 -0.00388226 -0.00371805 -0.00355331 -0.00338805 -0.00322226 -0.00305596 -0.00288913 -0.00272177 -0.0025539 -0.00238735 -0.002224 -0.00206384 -0.00190688 -0.0017531 -0.00160252 -0.00145513 -0.00131093 -0.0011717 -0.00103921 -0.000913454 -0.00079444 -0.000682165 -0.000576629 -0.000477832 -0.000385775 -0.000301525 -0.000226149 -0.000159647 -0.00010202 -5.32675e-05 -1.33893e-05 1.76145e-05 3.97438e-05 5.54667e-05 6.72514e-05 7.50979e-05 7.9006e-05 7.89759e-05 7.50076e-05 6.71009e-05 5.52561e-05 4.23054e-05 3.10815e-05 2.15844e-05 1.3814e-05 7.77038e-06 3.4535e-06 8.63376e-07 0 0 1.24326e-06 4.97304e-06 1.11893e-05 1.98922e-05 3.10815e-05 4.47574e-05 6.09198e-05 7.95687e-05 9.66253e-05 0.000108011 0.000113725 0.000113769 0.000108141 9.6842e-05 7.98721e-05 5.7231e-05 2.53648e-05 -1.92806e-05 -7.67052e-05 -0.000146909 -0.000229892 -0.000325654 -0.000434196 -0.000555516 -0.000688079 -0.000830346 -0.000982317 -0.00114399 -0.00131537 -0.00149646 -0.00168725 -0.00188774 -0.00209539 -0.00230763 -0.00252447 -0.0027459 -0.00297193 -0.00320256 -0.00343779 -0.00367761 -0.00391935 -0.00416034 -0.00440058 -0.00464006 -0.00487879 -0.00511676 -0.00535399 -0.00559045 -0.00582154 -0.00604261 -0.00625368 -0.00645474 -0.00664578 -0.00682682 -0.00699784 -0.00715886 -0.00730512 -0.00743188 -0.00753913 -0.00762689 -0.00769514 -0.0077439 -0.00777315 -0.0077829 -0.00777315 -0.0077439 -0.00769514 -0.00762689 -0.00753913 -0.00743188 -0.00730512 -0.00715886 -0.00699784 -0.00682682 -0.00664578 -0.00645474 -0.00625368 -0.00604261 -0.00582154 -0.00559045 -0.00535399 -0.00511676 -0.00487879 -0.00464006 -0.00440058 -0.00416034 -0.00391935 -0.00367761 -0.00343779 -0.00320256 -0.00297193 -0.0027459 -0.00252447 -0.00230763 -0.00209539 -0.00188774 -0.00168725 -0.00149646 -0.00131537 -0.00114399 -0.000982317 -0.000830346 -0.000688079 -0.000555516 -0.000434196 -0.000325654 -0.000229892 -0.000146909 -7.67052e-05 -1.92805e-05 2.53649e-05 5.72311e-05 7.98721e-05 9.68421e-05 0.000108141 0.000113769 0.000113725 0.000108011 9.66254e-05 7.95687e-05 6.09198e-05 4.47574e-05 3.10815e-05 1.98922e-05 1.11894e-05 4.97305e-06 1.24326e-06 0 0 1.69222e-06 6.76887e-06 1.52299e-05 2.70755e-05 4.23054e-05 6.09198e-05 8.29186e-05 0.000108302 0.000131518 0.000147015 0.000154793 0.000154852 0.000147192 0.000131813 0.000108715 7.78978e-05 3.45243e-05 -2.6243e-05 -0.000104404 -0.000199959 -0.000312909 -0.000443252 -0.000590988 -0.000756119 -0.000936552 -0.00113019 -0.00133704 -0.0015571 -0.00179037 -0.00203685 -0.00229653 -0.00256943 -0.00285206 -0.00314094 -0.00343608 -0.00373748 -0.00404513 -0.00435904 -0.00467921 -0.00500564 -0.00533468 -0.00566269 -0.00598968 -0.00631564 -0.00664057 -0.00696448 -0.00728737 -0.00760923 -0.00792376 -0.00822467 -0.00851195 -0.00878561 -0.00904565 -0.00929206 -0.00952484 -0.009744 -0.00994308 -0.0101156 -0.0102616 -0.010381 -0.0104739 -0.0105403 -0.0105801 -0.0105934 -0.0105801 -0.0105403 -0.0104739 -0.010381 -0.0102616 -0.0101156 -0.00994308 -0.009744 -0.00952484 -0.00929206 -0.00904565 -0.00878561 -0.00851195 -0.00822467 -0.00792376 -0.00760923 -0.00728737 -0.00696448 -0.00664057 -0.00631564 -0.00598968 -0.00566269 -0.00533468 -0.00500564 -0.00467921 -0.00435904 -0.00404513 -0.00373748 -0.00343608 -0.00314094 -0.00285206 -0.00256943 -0.00229653 -0.00203685 -0.00179037 -0.0015571 -0.00133704 -0.00113019 -0.000936552 -0.000756119 -0.000590988 -0.000443252 -0.000312909 -0.000199959 -0.000104404 -2.6243e-05 3.45244e-05 7.78978e-05 0.000108715 0.000131813 0.000147192 0.000154852 0.000154793 0.000147015 0.000131518 0.000108302 8.29186e-05 6.09198e-05 4.23054e-05 2.70755e-05 1.523e-05 6.76887e-06 1.69222e-06 0 0 2.21024e-06 8.84097e-06 1.98922e-05 3.53639e-05 5.5256e-05 7.95687e-05 0.000108302 0.000141455 0.000171778 0.000192019 0.000202178 0.000202255 0.00019225 0.000172164 0.000141995 0.000101744 4.5093e-05 -3.42766e-05 -0.000136365 -0.000261172 -0.000408697 -0.000578941 -0.000771903 -0.000987584 -0.00122325 -0.00147617 -0.00174634 -0.00203377 -0.00233844 -0.00266037 -0.00299955 -0.00335599 -0.00372513 -0.00410245 -0.00448794 -0.00488161 -0.00528344 -0.00569345 -0.00611162 -0.00653797 -0.00696774 -0.00739616 -0.00782325 -0.008249 -0.0086734 -0.00909647 -0.0095182 -0.00993858 -0.0103494 -0.0107424 -0.0111177 -0.0114751 -0.0118147 -0.0121366 -0.0124406 -0.0127269 -0.0129869 -0.0132122 -0.0134029 -0.0135589 -0.0136803 -0.0137669 -0.0138189 -0.0138363 -0.0138189 -0.0137669 -0.0136803 -0.0135589 -0.0134029 -0.0132122 -0.0129869 -0.0127269 -0.0124406 -0.0121366 -0.0118147 -0.0114751 -0.0111177 -0.0107424 -0.0103494 -0.00993858 -0.0095182 -0.00909647 -0.0086734 -0.008249 -0.00782325 -0.00739616 -0.00696774 -0.00653797 -0.00611162 -0.00569345 -0.00528344 -0.00488161 -0.00448794 -0.00410245 -0.00372513 -0.00335599 -0.00299955 -0.00266037 -0.00233844 -0.00203377 -0.00174634 -0.00147617 -0.00122325 -0.000987584 -0.000771903 -0.000578941 -0.000408697 -0.000261171 -0.000136365 -3.42765e-05 4.50931e-05 0.000101744 0.000141995 0.000172164 0.000192251 0.000202255 0.000202178 0.000192019 0.000171778 0.000141456 0.000108302 7.95687e-05 5.52561e-05 3.53639e-05 1.98922e-05 8.84097e-06 2.21024e-06 0 0 2.68404e-06 1.07361e-05 2.41563e-05 4.29446e-05 6.71009e-05 9.66253e-05 0.000131518 0.000171778 0.00020832 0.000232056 0.000242985 0.000241109 0.000226427 0.000198939 0.000158645 0.000105545 3.19223e-05 -6.9939e-05 -0.000200039 -0.000358378 -0.000544956 -0.000759773 -0.00100283 -0.00127412 -0.00157009 -0.00188717 -0.00222536 -0.00258466 -0.00296507 -0.00336659 -0.00378922 -0.00423296 -0.00469224 -0.00516147 -0.00564067 -0.00612982 -0.00662894 -0.00713802 -0.00765705 -0.00818605 -0.00871929 -0.00925109 -0.00978144 -0.0103103 -0.0108378 -0.0113638 -0.0118883 -0.0124114 -0.0129228 -0.0134122 -0.0138797 -0.0143252 -0.0147488 -0.0151504 -0.0155301 -0.0158878 -0.0162129 -0.0164947 -0.016733 -0.0169281 -0.0170798 -0.0171882 -0.0172532 -0.0172749 -0.0172532 -0.0171882 -0.0170798 -0.0169281 -0.016733 -0.0164947 -0.0162129 -0.0158878 -0.0155301 -0.0151504 -0.0147488 -0.0143252 -0.0138797 -0.0134122 -0.0129228 -0.0124114 -0.0118883 -0.0113638 -0.0108378 -0.0103103 -0.00978144 -0.00925109 -0.00871929 -0.00818605 -0.00765705 -0.00713802 -0.00662894 -0.00612982 -0.00564067 -0.00516147 -0.00469224 -0.00423296 -0.00378922 -0.00336659 -0.00296507 -0.00258466 -0.00222536 -0.00188717 -0.00157009 -0.00127412 -0.00100283 -0.000759773 -0.000544956 -0.000358378 -0.000200039 -6.99389e-05 3.19224e-05 0.000105545 0.000158645 0.000198939 0.000226427 0.000241109 0.000242985 0.000232056 0.00020832 0.000171778 0.000131518 9.66254e-05 6.71009e-05 4.29446e-05 2.41563e-05 1.07362e-05 2.68404e-06 0 0 3.0003e-06 1.20012e-05 2.70027e-05 4.80048e-05 7.50075e-05 0.000108011 0.000147015 0.000192019 0.000232056 0.000256155 0.000264317 0.000256543 0.000232831 0.000193183 0.000137597 6.60748e-05 -3.01364e-05 -0.000159788 -0.00032288 -0.000519413 -0.000749386 -0.0010128 -0.00130965 -0.00163995 -0.00199899 -0.00238209 -0.00278925 -0.00322046 -0.00367573 -0.00415506 -0.00465845 -0.00518589 -0.00573098 -0.00628731 -0.00685487 -0.00743368 -0.00802372 -0.008625 -0.00923752 -0.00986127 -0.0104901 -0.0111178 -0.0117444 -0.0123698 -0.0129942 -0.0136174 -0.0142395 -0.0148605 -0.0154682 -0.0160503 -0.016607 -0.0171381 -0.0176437 -0.0181237 -0.0185783 -0.0190073 -0.0193976 -0.0197358 -0.020022 -0.0202562 -0.0204383 -0.0205684 -0.0206465 -0.0206725 -0.0206465 -0.0205684 -0.0204383 -0.0202562 -0.020022 -0.0197358 -0.0193976 -0.0190073 -0.0185783 -0.0181237 -0.0176437 -0.0171381 -0.016607 -0.0160503 -0.0154682 -0.0148605 -0.0142395 -0.0136174 -0.0129942 -0.0123698 -0.0117444 -0.0111178 -0.0104901 -0.00986127 -0.00923752 -0.008625 -0.00802372 -0.00743368 -0.00685487 -0.00628731 -0.00573098 -0.00518589 -0.00465845 -0.00415506 -0.00367573 -0.00322046 -0.00278925 -0.00238209 -0.00199899 -0.00163995 -0.00130965 -0.0010128 -0.000749386 -0.000519413 -0.00032288 -0.000159788 -3.01363e-05 6.60749e-05 0.000137597 0.000193183 0.000232831 0.000256543 0.000264318 0.000256155 0.000232056 0.000192019 0.000147015 0.000108011 7.50076e-05 4.80048e-05 2.70027e-05 1.20012e-05 3.0003e-06 0 0 3.15904e-06 1.26361e-05 2.84313e-05 5.05446e-05 7.89759e-05 0.000113725 0.000154793 0.000202178 0.000242985 0.000264317 0.000266174 0.000248556 0.000211463 0.000154895 7.88523e-05 -1.66657e-05 -0.000141083 -0.000303824 -0.000504888 -0.000744275 -0.00102199 -0.00133802 -0.00169238 -0.00208506 -0.00250995 -0.00296093 -0.003438 -0.00394117 -0.00447043 -0.00502578 -0.00560723 -0.00621477 -0.00684136 -0.00747995 -0.00813056 -0.00879317 -0.00946778 -0.0101544 -0.010853 -0.0115637 -0.0122801 -0.0129963 -0.013712 -0.0144275 -0.0151426 -0.0158574 -0.0165718 -0.0172859 -0.0179856 -0.0186568 -0.0192995 -0.0199137 -0.0204993 -0.0210565 -0.0215852 -0.0220854 -0.022541 -0.0229358 -0.0232699 -0.0235432 -0.0237558 -0.0239077 -0.0239988 -0.0240291 -0.0239988 -0.0239077 -0.0237558 -0.0235432 -0.0232699 -0.0229358 -0.022541 -0.0220854 -0.0215852 -0.0210565 -0.0204993 -0.0199137 -0.0192995 -0.0186568 -0.0179856 -0.0172859 -0.0165718 -0.0158574 -0.0151426 -0.0144275 -0.013712 -0.0129963 -0.0122801 -0.0115637 -0.010853 -0.0101544 -0.00946778 -0.00879317 -0.00813056 -0.00747995 -0.00684136 -0.00621477 -0.00560723 -0.00502578 -0.00447043 -0.00394117 -0.003438 -0.00296093 -0.00250995 -0.00208506 -0.00169238 -0.00133802 -0.00102199 -0.000744275 -0.000504887 -0.000303823 -0.000141083 -1.66656e-05 7.88525e-05 0.000154896 0.000211464 0.000248557 0.000266175 0.000264318 0.000242985 0.000202178 0.000154793 0.000113725 7.89759e-05 5.05446e-05 2.84313e-05 1.26361e-05 3.15904e-06 0 0 3.16024e-06 1.2641e-05 2.84422e-05 5.05638e-05 7.9006e-05 0.000113769 0.000154852 0.000202255 0.000241109 0.000256543 0.000248556 0.00021715 0.000162323 8.40767e-05 -1.759e-05 -0.000142677 -0.000300918 -0.000502046 -0.000746061 -0.00103296 -0.00136276 -0.00173543 -0.002151 -0.00260945 -0.00310296 -0.00362368 -0.00417162 -0.00474678 -0.00534916 -0.00597876 -0.00663557 -0.0073196 -0.00802338 -0.00873942 -0.00946772 -0.0102083 -0.0109611 -0.0117262 -0.0125036 -0.0132932 -0.0140894 -0.0148865 -0.0156845 -0.0164833 -0.0172831 -0.0180837 -0.0188853 -0.0196877 -0.0204751 -0.0212316 -0.0219572 -0.022652 -0.0233158 -0.0239487 -0.0245508 -0.025122 -0.025643 -0.0260945 -0.0264765 -0.0267891 -0.0270323 -0.0272059 -0.0273101 -0.0273448 -0.0273101 -0.0272059 -0.0270323 -0.0267891 -0.0264765 -0.0260945 -0.025643 -0.025122 -0.0245508 -0.0239487 -0.0233158 -0.022652 -0.0219572 -0.0212316 -0.0204751 -0.0196877 -0.0188853 -0.0180837 -0.0172831 -0.0164833 -0.0156845 -0.0148865 -0.0140894 -0.0132932 -0.0125036 -0.0117262 -0.0109611 -0.0102083 -0.00946772 -0.00873942 -0.00802338 -0.0073196 -0.00663557 -0.00597876 -0.00534916 -0.00474678 -0.00417162 -0.00362368 -0.00310296 -0.00260945 -0.002151 -0.00173543 -0.00136276 -0.00103296 -0.000746061 -0.000502046 -0.000300917 -0.000142677 -1.75899e-05 8.40768e-05 0.000162324 0.00021715 0.000248557 0.000256543 0.000241109 0.000202255 0.000154852 0.000113769 7.9006e-05 5.05639e-05 2.84422e-05 1.2641e-05 3.16024e-06 0 0 3.00391e-06 1.20157e-05 2.70352e-05 4.80626e-05 7.50978e-05 0.000108141 0.000147192 0.00019225 0.000226427 0.000232831 0.000211463 0.000162323 8.54112e-05 -1.92732e-05 -0.00015173 -0.000311959 -0.00050964 -0.000754454 -0.0010464 -0.00138548 -0.0017717 -0.00220504 -0.00268552 -0.00321313 -0.00377803 -0.00437036 -0.00499011 -0.00563731 -0.00631193 -0.00701399 -0.00774347 -0.00850039 -0.00927704 -0.0100657 -0.0108664 -0.011679 -0.0125037 -0.0133404 -0.0141892 -0.0150499 -0.0159179 -0.0167885 -0.0176616 -0.0185373 -0.0194156 -0.0202964 -0.0211798 -0.0220657 -0.0229366 -0.0237747 -0.0245802 -0.025353 -0.0260931 -0.0268004 -0.0274751 -0.0281171 -0.0287036 -0.0292119 -0.029642 -0.029994 -0.0302677 -0.0304632 -0.0305805 -0.0306196 -0.0305805 -0.0304632 -0.0302677 -0.029994 -0.029642 -0.0292119 -0.0287036 -0.0281171 -0.0274751 -0.0268004 -0.0260931 -0.025353 -0.0245802 -0.0237747 -0.0229366 -0.0220657 -0.0211798 -0.0202964 -0.0194156 -0.0185373 -0.0176616 -0.0167885 -0.0159179 -0.0150499 -0.0141892 -0.0133404 -0.0125037 -0.011679 -0.0108664 -0.0100657 -0.00927704 -0.00850039 -0.00774347 -0.00701399 -0.00631193 -0.00563731 -0.00499011 -0.00437036 -0.00377803 -0.00321313 -0.00268552 -0.00220504 -0.0017717 -0.00138548 -0.0010464 -0.000754454 -0.00050964 -0.000311959 -0.00015173 -1.92731e-05 8.54113e-05 0.000162323 0.000211464 0.000232831 0.000226427 0.000192251 0.000147192 0.000108141 7.50979e-05 4.80626e-05 2.70352e-05 1.20157e-05 3.00391e-06 0 0 2.69006e-06 1.07602e-05 2.42105e-05 4.30409e-05 6.72514e-05 9.6842e-05 0.000131813 0.000172164 0.000198939 0.000193183 0.000154895 8.40768e-05 -1.92732e-05 -0.000155155 -0.000323567 -0.000524511 -0.00076725 -0.00106105 -0.00140591 -0.00180183 -0.00224881 -0.00274684 -0.00329594 -0.0038961 -0.00453516 -0.00520095 -0.00589347 -0.00661273 -0.00735873 -0.00813146 -0.00893093 -0.00975713 -0.0106023 -0.0114588 -0.0123265 -0.0132054 -0.0140956 -0.0149971 -0.0159098 -0.0168338 -0.0177657 -0.0187023 -0.0196436 -0.0205895 -0.0215402 -0.0224955 -0.0234554 -0.0244201 -0.0253701 -0.0262862 -0.0271684 -0.0280167 -0.0288311 -0.0296116 -0.0303581 -0.0310707 -0.0317229 -0.0322881 -0.0327664 -0.0331577 -0.0334621 -0.0336795 -0.0338099 -0.0338534 -0.0338099 -0.0336795 -0.0334621 -0.0331577 -0.0327664 -0.0322881 -0.0317229 -0.0310707 -0.0303581 -0.0296116 -0.0288311 -0.0280167 -0.0271684 -0.0262862 -0.0253701 -0.0244201 -0.0234554 -0.0224955 -0.0215402 -0.0205895 -0.0196436 -0.0187023 -0.0177657 -0.0168338 -0.0159098 -0.0149971 -0.0140956 -0.0132054 -0.0123265 -0.0114588 -0.0106023 -0.00975713 -0.00893093 -0.00813146 -0.00735873 -0.00661273 -0.00589347 -0.00520095 -0.00453516 -0.0038961 -0.00329594 -0.00274684 -0.00224881 -0.00180183 -0.00140591 -0.00106105 -0.00076725 -0.000524511 -0.000323567 -0.000155154 -1.92731e-05 8.40768e-05 0.000154895 0.000193183 0.000198939 0.000172164 0.000131813 9.6842e-05 6.72514e-05 4.30409e-05 2.42105e-05 1.07602e-05 2.69006e-06 0 0 2.21867e-06 8.87467e-06 1.9968e-05 3.54987e-05 5.54667e-05 7.98721e-05 0.000108715 0.000141995 0.000158645 0.000137597 7.88524e-05 -1.759e-05 -0.00015173 -0.000323567 -0.000533102 -0.000780334 -0.00107375 -0.00142183 -0.00182458 -0.002282 -0.00279409 -0.00336084 -0.00398226 -0.00465835 -0.00537434 -0.00611545 -0.0068817 -0.00767307 -0.00848957 -0.00933119 -0.0101979 -0.0110898 -0.0119993 -0.0129187 -0.0138481 -0.0147875 -0.0157368 -0.0166962 -0.0176655 -0.0186448 -0.0196327 -0.0206278 -0.0216302 -0.0226399 -0.0236567 -0.0246808 -0.0257122 -0.0267508 -0.0277757 -0.0287661 -0.0297219 -0.0306432 -0.0315299 -0.0323821 -0.0331998 -0.0339829 -0.0347009 -0.0353231 -0.0358496 -0.0362804 -0.0366154 -0.0368547 -0.0369983 -0.0370462 -0.0369983 -0.0368547 -0.0366154 -0.0362804 -0.0358496 -0.0353231 -0.0347009 -0.0339829 -0.0331998 -0.0323821 -0.0315299 -0.0306432 -0.0297219 -0.0287661 -0.0277757 -0.0267508 -0.0257122 -0.0246808 -0.0236567 -0.0226399 -0.0216302 -0.0206278 -0.0196327 -0.0186448 -0.0176655 -0.0166962 -0.0157368 -0.0147875 -0.0138481 -0.0129187 -0.0119993 -0.0110898 -0.0101979 -0.00933119 -0.00848957 -0.00767307 -0.0068817 -0.00611545 -0.00537434 -0.00465835 -0.00398226 -0.00336084 -0.00279409 -0.002282 -0.00182458 -0.00142183 -0.00107375 -0.000780334 -0.000533102 -0.000323567 -0.00015173 -1.75899e-05 7.88524e-05 0.000137597 0.000158645 0.000141995 0.000108715 7.98721e-05 5.54667e-05 3.54987e-05 1.9968e-05 8.87468e-06 2.21867e-06 0 0 1.58975e-06 6.359e-06 1.43078e-05 2.5436e-05 3.97438e-05 5.7231e-05 7.78978e-05 0.000101744 0.000105545 6.60748e-05 -1.66657e-05 -0.000142677 -0.000311959 -0.000524511 -0.000780334 -0.00107943 -0.00142914 -0.0018368 -0.00230242 -0.002826 -0.00340754 -0.00404703 -0.00474448 -0.00549989 -0.00629558 -0.00711388 -0.00795479 -0.00881831 -0.00970444 -0.0106132 -0.0115445 -0.0124985 -0.0134678 -0.0144454 -0.0154312 -0.0164251 -0.0174273 -0.0184376 -0.0194562 -0.020483 -0.0215189 -0.0225652 -0.0236217 -0.0246884 -0.0257654 -0.0268526 -0.02795 -0.0290578 -0.0301533 -0.0312143 -0.0322406 -0.0332324 -0.0341896 -0.0351122 -0.0360002 -0.0368536 -0.0376375 -0.0383168 -0.0388916 -0.0393619 -0.0397277 -0.039989 -0.0401458 -0.0401981 -0.0401458 -0.039989 -0.0397277 -0.0393619 -0.0388916 -0.0383168 -0.0376375 -0.0368536 -0.0360002 -0.0351122 -0.0341896 -0.0332324 -0.0322406 -0.0312143 -0.0301533 -0.0290578 -0.02795 -0.0268526 -0.0257654 -0.0246884 -0.0236217 -0.0225652 -0.0215189 -0.020483 -0.0194562 -0.0184376 -0.0174273 -0.0164251 -0.0154312 -0.0144454 -0.0134678 -0.0124985 -0.0115445 -0.0106132 -0.00970444 -0.00881831 -0.00795479 -0.00711388 -0.00629558 -0.00549989 -0.00474448 -0.00404703 -0.00340754 -0.002826 -0.00230242 -0.0018368 -0.00142913 -0.00107943 -0.000780334 -0.000524511 -0.000311959 -0.000142677 -1.66657e-05 6.60749e-05 0.000105545 0.000101744 7.78978e-05 5.7231e-05 3.97438e-05 2.5436e-05 1.43078e-05 6.359e-06 1.58975e-06 0 0 7.04579e-07 2.81831e-06 6.34121e-06 1.12733e-05 1.76145e-05 2.53648e-05 3.45244e-05 4.5093e-05 3.19223e-05 -3.01363e-05 -0.000141083 -0.000300917 -0.00050964 -0.00076725 -0.00107375 -0.00142914 -0.00183875 -0.00230793 -0.00283669 -0.00342501 -0.0040729 -0.00478036 -0.0055474 -0.006374 -0.00723912 -0.00812172 -0.0090218 -0.00993935 -0.0108744 -0.0118269 -0.0127969 -0.0137843 -0.014783 -0.0157866 -0.0167951 -0.0178086 -0.0188269 -0.0198502 -0.0208785 -0.0219116 -0.0229543 -0.0240112 -0.0250823 -0.0261676 -0.0272671 -0.0283808 -0.0295086 -0.0306507 -0.0317836 -0.0328842 -0.0339524 -0.0349881 -0.0359916 -0.0369626 -0.0379012 -0.0388075 -0.0396419 -0.0403651 -0.040977 -0.0414777 -0.0418671 -0.0421452 -0.0423121 -0.0423677 -0.0423121 -0.0421452 -0.0418671 -0.0414777 -0.040977 -0.0403651 -0.0396419 -0.0388075 -0.0379012 -0.0369626 -0.0359916 -0.0349881 -0.0339524 -0.0328842 -0.0317836 -0.0306507 -0.0295086 -0.0283808 -0.0272671 -0.0261676 -0.0250823 -0.0240112 -0.0229543 -0.0219116 -0.0208785 -0.0198502 -0.0188269 -0.0178086 -0.0167951 -0.0157866 -0.014783 -0.0137843 -0.0127969 -0.0118269 -0.0108744 -0.00993935 -0.0090218 -0.00812172 -0.00723912 -0.006374 -0.0055474 -0.00478036 -0.0040729 -0.00342501 -0.00283669 -0.00230793 -0.00183875 -0.00142914 -0.00107375 -0.00076725 -0.00050964 -0.000300917 -0.000141083 -3.01364e-05 3.19223e-05 4.5093e-05 3.45243e-05 2.53648e-05 1.76145e-05 1.12733e-05 6.3412e-06 2.81831e-06 7.04578e-07 0 0 -5.35571e-07 -2.14228e-06 -4.82014e-06 -8.56914e-06 -1.33893e-05 -1.92806e-05 -2.6243e-05 -3.42765e-05 -6.9939e-05 -0.000159788 -0.000303824 -0.000502046 -0.000754454 -0.00106105 -0.00142183 -0.0018368 -0.00230793 -0.00283721 -0.00342464 -0.00407021 -0.00477393 -0.00553579 -0.0063558 -0.00723396 -0.0081452 -0.00906447 -0.00999177 -0.0109271 -0.0118705 -0.0128218 -0.0137813 -0.0147487 -0.0157197 -0.01669 -0.0176594 -0.018628 -0.0195957 -0.0205627 -0.0215288 -0.0224941 -0.0234688 -0.024463 -0.0254768 -0.0265102 -0.0275631 -0.0286355 -0.0297275 -0.0308391 -0.0319473 -0.0330292 -0.0340849 -0.0351143 -0.0361174 -0.0370942 -0.0380448 -0.0389692 -0.0398234 -0.0405637 -0.0411902 -0.0417027 -0.0421014 -0.0423861 -0.042557 -0.0426139 -0.042557 -0.0423861 -0.0421014 -0.0417027 -0.0411902 -0.0405637 -0.0398234 -0.0389692 -0.0380448 -0.0370942 -0.0361174 -0.0351143 -0.0340849 -0.0330292 -0.0319473 -0.0308391 -0.0297275 -0.0286355 -0.0275631 -0.0265102 -0.0254768 -0.024463 -0.0234688 -0.0224941 -0.0215288 -0.0205627 -0.0195957 -0.018628 -0.0176594 -0.01669 -0.0157197 -0.0147487 -0.0137813 -0.0128218 -0.0118705 -0.0109271 -0.00999177 -0.00906447 -0.0081452 -0.00723396 -0.0063558 -0.00553579 -0.00477393 -0.00407021 -0.00342464 -0.00283721 -0.00230793 -0.0018368 -0.00142183 -0.00106105 -0.000754454 -0.000502046 -0.000303824 -0.000159788 -6.99391e-05 -3.42766e-05 -2.6243e-05 -1.92806e-05 -1.33893e-05 -8.56916e-06 -4.82015e-06 -2.14229e-06 -5.35572e-07 0 0 -2.1307e-06 -8.52279e-06 -1.91763e-05 -3.40912e-05 -5.32675e-05 -7.67051e-05 -0.000104404 -0.000136365 -0.000200039 -0.00032288 -0.000504887 -0.000746061 -0.0010464 -0.00140591 -0.00182458 -0.00230242 -0.00283669 -0.00342464 -0.00406628 -0.00476161 -0.00551062 -0.00631332 -0.0071697 -0.00807977 -0.00901382 -0.00994213 -0.0108647 -0.0117815 -0.0126926 -0.013598 -0.0144976 -0.0153915 -0.016278 -0.0171555 -0.0180239 -0.0188833 -0.0197337 -0.020575 -0.0214073 -0.0222305 -0.0230624 -0.0239206 -0.0248051 -0.025716 -0.0266532 -0.0276168 -0.0286067 -0.029623 -0.0306443 -0.0316493 -0.0326381 -0.0336107 -0.0345671 -0.0355072 -0.036431 -0.0373386 -0.0381819 -0.0389128 -0.0395312 -0.0400371 -0.0404307 -0.0407118 -0.0408804 -0.0409366 -0.0408804 -0.0407118 -0.0404307 -0.0400371 -0.0395312 -0.0389128 -0.0381819 -0.0373386 -0.036431 -0.0355072 -0.0345671 -0.0336107 -0.0326381 -0.0316493 -0.0306443 -0.029623 -0.0286067 -0.0276168 -0.0266532 -0.025716 -0.0248051 -0.0239206 -0.0230624 -0.0222305 -0.0214073 -0.020575 -0.0197337 -0.0188833 -0.0180239 -0.0171555 -0.016278 -0.0153915 -0.0144976 -0.013598 -0.0126926 -0.0117815 -0.0108647 -0.00994213 -0.00901382 -0.00807977 -0.0071697 -0.00631332 -0.00551062 -0.00476161 -0.00406628 -0.00342464 -0.00283669 -0.00230242 -0.00182458 -0.00140591 -0.0010464 -0.000746062 -0.000504888 -0.00032288 -0.000200039 -0.000136365 -0.000104404 -7.67052e-05 -5.32675e-05 -3.40912e-05 -1.91763e-05 -8.5228e-06 -2.1307e-06 0 0 -4.0808e-06 -1.63232e-05 -3.67272e-05 -6.52929e-05 -0.00010202 -0.000146909 -0.000199959 -0.000261171 -0.000358378 -0.000519413 -0.000744275 -0.00103296 -0.00138548 -0.00180183 -0.002282 -0.002826 -0.00342501 -0.00407021 -0.00476161 -0.00549919 -0.00628297 -0.00711293 -0.00798909 -0.00891144 -0.00984498 -0.0107547 -0.0116406 -0.0125027 -0.013341 -0.0141554 -0.014946 -0.0157129 -0.0164579 -0.0171832 -0.0178888 -0.0185746 -0.0192407 -0.0198871 -0.0205138 -0.0211207 -0.021735 -0.0223838 -0.0230672 -0.0237852 -0.0245376 -0.0253247 -0.0261463 -0.0270024 -0.0278746 -0.0287446 -0.0296122 -0.0304776 -0.0313406 -0.0322013 -0.0330598 -0.0339159 -0.0347175 -0.0354122 -0.036 -0.0364809 -0.036855 -0.0371222 -0.0372825 -0.0373359 -0.0372825 -0.0371222 -0.036855 -0.0364809 -0.036 -0.0354122 -0.0347175 -0.0339159 -0.0330598 -0.0322013 -0.0313406 -0.0304776 -0.0296122 -0.0287446 -0.0278746 -0.0270024 -0.0261463 -0.0253247 -0.0245376 -0.0237852 -0.0230672 -0.0223838 -0.021735 -0.0211207 -0.0205138 -0.0198871 