<?xml version="1.0"?> 
<VTKFile type="StructuredGrid" version="0.1"> 
<StructuredGrid WholeExtent="0 128 0 128 0 0"> 
<Piece Extent="0 128 0 128 0 0"> 
<PointData>
<DataArray type="Float32" Name="u" format="ascii" NumberOfComponents="1"> 
0 0 0 0 0 0 0 0 0 0 0 0 0 0 0 0 0 0 0 0 0 0 0 0 0 0 0 0 0 0 0 0 0 0 0 0 0 0 0 0 0 0 0 0 0 0 0 0 0 0 0 0 0 0 0 0 0 0 0 0 0 0 0 0 0 0 0 0 0 0 0 0 0 0 0 0 0 0 0 0 0 0 0 0 0 0 0 0 0 0 0 0 0 0 0 0 0 0 0 0 0 0 0 0 0 0 0 0 0 0 0 0 0 0 0 0 0 0 0 0 0 0 0 0 0 0 0 0 0 0 4.13699e-08 1.6548e-07 3.72329e-07 6.61919e-07 1.03425e-06 1.48932e-06 2.02713e-06 2.64768e-06 3.23805e-06 3.68535e-06 3.98956e-06 4.15068e-06 4.16873e-06 4.04368e-06 3.77556e-06 3.36435e-06 2.6982e-06 1.66524e-06 2.65486e-07 -1.50108e-06 -3.63444e-06 -6.13461e-06 -9.00158e-06 -1.22354e-05 -1.57969e-05 -1.9647e-05 -2.37859e-05 -2.82134e-05 -3.29296e-05 -3.79344e-05 -4.3228e-05 -4.88101e-05 -5.46027e-05 -6.05273e-05 -6.65839e-05 -7.27726e-05 -7.90934e-05 -8.55462e-05 -9.2131e-05 -9.88479e-05 -0.000105616 -0.000112353 -0.000119059 -0.000125736 -0.000132381 -0.000138996 -0.000145581 -0.000152135 -0.000158532 -0.000164646 -0.000170477 -0.000176025 -0.00018129 -0.000186272 -0.000190971 -0.000195386 -0.000199393 -0.000202866 -0.000205804 -0.000208209 -0.000210078 -0.000211414 -0.000212216 -0.000212483 -0.000212216 -0.000211414 -0.000210078 -0.000208209 -0.000205804 -0.000202866 -0.000199393 -0.000195386 -0.000190971 -0.000186272 -0.00018129 -0.000176025 -0.000170477 -0.000164646 -0.000158532 -0.000152135 -0.000145581 -0.000138996 -0.000132381 -0.000125736 -0.000119059 -0.000112353 -0.000105616 -9.88479e-05 -9.2131e-05 -8.55462e-05 -7.90934e-05 -7.27726e-05 -6.65839e-05 -6.05273e-05 -5.46027e-05 -4.88101e-05 -4.3228e-05 -3.79344e-05 -3.29296e-05 -2.82134e-05 -2.37859e-05 -1.9647e-05 -1.57969e-05 -1.22354e-05 -9.00158e-06 -6.13461e-06 -3.63444e-06 -1.50107e-06 2.65487e-07 1.66525e-06 2.6982e-06 3.36435e-06 3.77556e-06 4.04369e-06 4.16873e-06 4.15068e-06 3.98956e-06 3.68535e-06 3.23805e-06 2.64768e-06 2.02713e-06 1.48932e-06 1.03425e-06 6.61919e-07 3.7233e-07 1.6548e-07 4.13699e-08 0 0 1.6548e-07 6.61919e-07 1.48932e-06 2.64768e-06 4.13699e-06 5.95727e-06 8.10851e-06 1.05907e-05 1.29522e-05 1.47414e-05 1.59582e-05 1.66027e-05 1.66749e-05 1.61747e-05 1.51022e-05 1.34574e-05 1.07928e-05 6.66098e-06 1.06194e-06 -6.0043e-06 -1.45378e-05 -2.45384e-05 -3.60063e-05 -4.89414e-05 -6.31874e-05 -7.85882e-05 -9.51435e-05 -0.000112854 -0.000131718 -0.000151738 -0.000172912 -0.000195241 -0.000218411 -0.000242109 -0.000266336 -0.000291091 -0.000316374 -0.000342185 -0.000368524 -0.000395392 -0.000422462 -0.000449411 -0.000476237 -0.000502942 -0.000529525 -0.000555985 -0.000582323 -0.00060854 -0.000634129 -0.000658586 -0.00068191 -0.000704102 -0.000725161 -0.000745089 -0.000763883 -0.000781546 -0.000797573 -0.000811464 -0.000823218 -0.000832834 -0.000840314 -0.000845656 -0.000848862 -0.000849931 -0.000848862 -0.000845656 -0.000840314 -0.000832834 -0.000823218 -0.000811464 -0.000797573 -0.000781546 -0.000763883 -0.000745089 -0.000725161 -0.000704102 -0.00068191 -0.000658586 -0.000634129 -0.00060854 -0.000582323 -0.000555985 -0.000529525 -0.000502942 -0.000476237 -0.000449411 -0.000422462 -0.000395392 -0.000368524 -0.000342185 -0.000316374 -0.000291091 -0.000266336 -0.000242109 -0.000218411 -0.000195241 -0.000172912 -0.000151738 -0.000131718 -0.000112854 -9.51435e-05 -7.85882e-05 -6.31874e-05 -4.89414e-05 -3.60063e-05 -2.45384e-05 -1.45378e-05 -6.0043e-06 1.06195e-06 6.66098e-06 1.07928e-05 1.34574e-05 1.51022e-05 1.61747e-05 1.66749e-05 1.66027e-05 1.59582e-05 1.47414e-05 1.29522e-05 1.05907e-05 8.10851e-06 5.95727e-06 4.13699e-06 2.64768e-06 1.48932e-06 6.61919e-07 1.6548e-07 0 0 3.72329e-07 1.48932e-06 3.35097e-06 5.95727e-06 9.30824e-06 1.34039e-05 1.82441e-05 2.38291e-05 2.91425e-05 3.31681e-05 3.5906e-05 3.73561e-05 3.75185e-05 3.63932e-05 3.398e-05 3.02792e-05 2.42838e-05 1.49872e-05 2.38938e-06 -1.35097e-05 -3.271e-05 -5.52115e-05 -8.10142e-05 -0.000110118 -0.000142172 -0.000176823 -0.000214073 -0.000253921 -0.000296366 -0.00034141 -0.000389052 -0.000439291 -0.000491424 -0.000544746 -0.000599255 -0.000654954 -0.00071184 -0.000769916 -0.000829179 -0.000889631 -0.00095054 -0.00101117 -0.00107153 -0.00113162 -0.00119143 -0.00125097 -0.00131023 -0.00136921 -0.00142679 -0.00148182 -0.0015343 -0.00158423 -0.00163161 -0.00167645 -0.00171874 -0.00175848 -0.00179454 -0.00182579 -0.00185224 -0.00187388 -0.00189071 -0.00190273 -0.00190994 -0.00191234 -0.00190994 -0.00190273 -0.00189071 -0.00187388 -0.00185224 -0.00182579 -0.00179454 -0.00175848 -0.00171874 -0.00167645 -0.00163161 -0.00158423 -0.0015343 -0.00148182 -0.00142679 -0.00136921 -0.00131023 -0.00125097 -0.00119143 -0.00113162 -0.00107153 -0.00101117 -0.00095054 -0.000889631 -0.000829179 -0.000769916 -0.00071184 -0.000654954 -0.000599255 -0.000544746 -0.000491424 -0.000439291 -0.000389052 -0.00034141 -0.000296366 -0.000253921 -0.000214073 -0.000176823 -0.000142172 -0.000110118 -8.10142e-05 -5.52115e-05 -3.27099e-05 -1.35097e-05 2.38938e-06 1.49872e-05 2.42838e-05 3.02792e-05 3.398e-05 3.63932e-05 3.75185e-05 3.73562e-05 3.5906e-05 3.31681e-05 2.91425e-05 2.38291e-05 1.82441e-05 1.34039e-05 9.30824e-06 5.95727e-06 3.35097e-06 1.48932e-06 3.7233e-07 0 0 6.61919e-07 2.64768e-06 5.95727e-06 1.05907e-05 1.6548e-05 2.38291e-05 3.2434e-05 4.23628e-05 5.18089e-05 5.89656e-05 6.38329e-05 6.64109e-05 6.66996e-05 6.4699e-05 6.0409e-05 5.38296e-05 4.31712e-05 2.66439e-05 4.24778e-06 -2.40172e-05 -5.8151e-05 -9.81537e-05 -0.000144025 -0.000195766 -0.00025275 -0.000314353 -0.000380574 -0.000451414 -0.000526873 -0.000606951 -0.000691647 -0.000780962 -0.000873643 -0.000968437 -0.00106534 -0.00116436 -0.00126549 -0.00136874 -0.0014741 -0.00158157 -0.00168985 -0.00179764 -0.00190495 -0.00201177 -0.0021181 -0.00222394 -0.00232929 -0.00243416 -0.00253652 -0.00263434 -0.00272764 -0.00281641 -0.00290065 -0.00298035 -0.00305553 -0.00312618 -0.00319029 -0.00324586 -0.00329287 -0.00333134 -0.00336126 -0.00338263 -0.00339545 -0.00339972 -0.00339545 -0.00338263 -0.00336126 -0.00333134 -0.00329287 -0.00324586 -0.00319029 -0.00312618 -0.00305553 -0.00298035 -0.00290065 -0.00281641 -0.00272764 -0.00263434 -0.00253652 -0.00243416 -0.00232929 -0.00222394 -0.0021181 -0.00201177 -0.00190495 -0.00179764 -0.00168985 -0.00158157 -0.0014741 -0.00136874 -0.00126549 -0.00116436 -0.00106534 -0.000968437 -0.000873643 -0.000780962 -0.000691647 -0.000606951 -0.000526873 -0.000451414 -0.000380574 -0.000314353 -0.00025275 -0.000195766 -0.000144025 -9.81537e-05 -5.8151e-05 -2.40172e-05 4.24779e-06 2.66439e-05 4.31712e-05 5.38296e-05 6.0409e-05 6.4699e-05 6.66996e-05 6.64109e-05 6.38329e-05 5.89656e-05 5.18089e-05 4.23628e-05 3.2434e-05 2.38291e-05 1.6548e-05 1.05907e-05 5.95727e-06 2.64768e-06 6.61919e-07 0 0 1.03425e-06 4.13699e-06 9.30824e-06 1.6548e-05 2.58562e-05 3.72329e-05 5.06782e-05 6.61919e-05 8.09513e-05 9.21337e-05 9.97389e-05 0.000103767 0.000104218 0.000101092 9.4389e-05 8.41088e-05 6.7455e-05 4.16311e-05 6.63716e-06 -3.75269e-05 -9.0861e-05 -0.000153365 -0.000225039 -0.000305884 -0.000394922 -0.000491176 -0.000594647 -0.000705335 -0.00082324 -0.000948361 -0.0010807 -0.00122025 -0.00136507 -0.00151318 -0.0016646 -0.00181932 -0.00197733 -0.00213865 -0.00230328 -0.0024712 -0.00264039 -0.00280882 -0.00297648 -0.00314339 -0.00330953 -0.00347491 -0.00363952 -0.00380337 -0.00396331 -0.00411616 -0.00426194 -0.00440064 -0.00453226 -0.0046568 -0.00477427 -0.00488466 -0.00498483 -0.00507165 -0.00514511 -0.00520521 -0.00525196 -0.00528535 -0.00530539 -0.00531207 -0.00530539 -0.00528535 -0.00525196 -0.00520521 -0.00514511 -0.00507165 -0.00498483 -0.00488466 -0.00477427 -0.0046568 -0.00453226 -0.00440064 -0.00426194 -0.00411616 -0.00396331 -0.00380337 -0.00363952 -0.00347491 -0.00330953 -0.00314339 -0.00297648 -0.00280882 -0.00264039 -0.0024712 -0.00230328 -0.00213865 -0.00197733 -0.00181932 -0.0016646 -0.00151318 -0.00136507 -0.00122025 -0.0010807 -0.000948361 -0.00082324 -0.000705335 -0.000594647 -0.000491176 -0.000394922 -0.000305884 -0.000225039 -0.000153365 -9.0861e-05 -3.75269e-05 6.63718e-06 4.16311e-05 6.7455e-05 8.41088e-05 9.4389e-05 0.000101092 0.000104218 0.000103767 9.97389e-05 9.21337e-05 8.09514e-05 6.61919e-05 5.06782e-05 3.7233e-05 2.58562e-05 1.6548e-05 9.30824e-06 4.13699e-06 1.03425e-06 0 0 1.48932e-06 5.95727e-06 1.34039e-05 2.38291e-05 3.72329e-05 5.36154e-05 7.29766e-05 9.53163e-05 0.00011657 0.000132672 0.000143624 0.000149425 0.000150074 0.000145573 0.00013592 0.000121117 9.71352e-05 5.99488e-05 9.5575e-06 -5.40387e-05 -0.00013084 -0.000220846 -0.000324057 -0.000440473 -0.000568687 -0.000707293 -0.000856292 -0.00101568 -0.00118547 -0.00136564 -0.00155621 -0.00175717 -0.0019657 -0.00217898 -0.00239702 -0.00261981 -0.00284736 -0.00307966 -0.00331672 -0.00355852 -0.00380216 -0.0040447 -0.00428614 -0.00452648 -0.00476572 -0.00500386 -0.00524091 -0.00547686 -0.00570716 -0.00592727 -0.00613719 -0.00633692 -0.00652645 -0.0067058 -0.00687495 -0.00703391 -0.00717816 -0.00730318 -0.00740896 -0.00749551 -0.00756283 -0.00761091 -0.00763976 -0.00764937 -0.00763976 -0.00761091 -0.00756283 -0.00749551 -0.00740896 -0.00730318 -0.00717816 -0.00703391 -0.00687495 -0.0067058 -0.00652645 -0.00633692 -0.00613719 -0.00592727 -0.00570716 -0.00547686 -0.00524091 -0.00500386 -0.00476572 -0.00452648 -0.00428614 -0.0040447 -0.00380216 -0.00355852 -0.00331672 -0.00307966 -0.00284736 -0.00261981 -0.00239702 -0.00217898 -0.0019657 -0.00175717 -0.00155621 -0.00136564 -0.00118547 -0.00101568 -0.000856292 -0.000707293 -0.000568687 -0.000440473 -0.000324057 -0.000220846 -0.00013084 -5.40387e-05 9.55754e-06 5.99488e-05 9.71352e-05 0.000121117 0.00013592 0.000145573 0.000150074 0.000149425 0.000143624 0.000132673 0.00011657 9.53164e-05 7.29766e-05 5.36155e-05 3.7233e-05 2.38291e-05 1.34039e-05 5.95727e-06 1.48932e-06 0 0 2.02713e-06 8.10851e-06 1.82441e-05 3.2434e-05 5.06782e-05 7.29766e-05 9.93292e-05 0.000129736 0.000158665 0.000180582 0.000195488 0.000203383 0.000204268 0.000198141 0.000185002 0.000164853 0.000132212 8.1597e-05 1.30088e-05 -7.35527e-05 -0.000178088 -0.000300596 -0.000441077 -0.000599532 -0.000774046 -0.000962705 -0.00116551 -0.00138246 -0.00161355 -0.00185879 -0.00211817 -0.0023917 -0.00267553 -0.00296584 -0.00326261 -0.00356586 -0.00387558 -0.00419176 -0.00451442 -0.00484355 -0.00517516 -0.00550528 -0.00583391 -0.00616104 -0.00648668 -0.00681082 -0.00713346 -0.00745461 -0.00776808 -0.00806767 -0.0083534 -0.00862525 -0.00888323 -0.00912734 -0.00935757 -0.00957394 -0.00977027 -0.00994044 -0.0100844 -0.0102022 -0.0102938 -0.0103593 -0.0103986 -0.0104116 -0.0103986 -0.0103593 -0.0102938 -0.0102022 -0.0100844 -0.00994044 -0.00977027 -0.00957394 -0.00935757 -0.00912734 -0.00888323 -0.00862525 -0.0083534 -0.00806767 -0.00776808 -0.00745461 -0.00713346 -0.00681082 -0.00648668 -0.00616104 -0.00583391 -0.00550528 -0.00517516 -0.00484355 -0.00451442 -0.00419176 -0.00387558 -0.00356586 -0.00326261 -0.00296584 -0.00267553 -0.0023917 -0.00211817 -0.00185879 -0.00161355 -0.00138246 -0.00116551 -0.000962705 -0.000774046 -0.000599532 -0.000441077 -0.000300596 -0.000178088 -7.35526e-05 1.30089e-05 8.1597e-05 0.000132212 0.000164853 0.000185002 0.000198141 0.000204268 0.000203384 0.000195488 0.000180582 0.000158665 0.000129736 9.93292e-05 7.29766e-05 5.06782e-05 3.2434e-05 1.82441e-05 8.10851e-06 2.02713e-06 0 0 2.64768e-06 1.05907e-05 2.38291e-05 4.23628e-05 6.61919e-05 9.53163e-05 0.000129736 0.000169451 0.000207235 0.000235862 0.000255332 0.000265644 0.000266798 0.000258796 0.000241636 0.000215318 0.000172685 0.000106576 1.69911e-05 -9.60688e-05 -0.000232604 -0.000392615 -0.000576101 -0.000783063 -0.001011 -0.00125741 -0.0015223 -0.00180566 -0.00210749 -0.0024278 -0.00276659 -0.00312385 -0.00349457 -0.00387375 -0.00426137 -0.00465745 -0.00506198 -0.00547496 -0.00589639 -0.00632627 -0.0067594 -0.00719057 -0.0076198 -0.00804707 -0.00847239 -0.00889576 -0.00931717 -0.00973664 -0.0101461 -0.0105374 -0.0109106 -0.0112656 -0.0116026 -0.0119214 -0.0122221 -0.0125047 -0.0127612 -0.0129834 -0.0131715 -0.0133253 -0.013445 -0.0135305 -0.0135818 -0.0135989 -0.0135818 -0.0135305 -0.013445 -0.0133253 -0.0131715 -0.0129834 -0.0127612 -0.0125047 -0.0122221 -0.0119214 -0.0116026 -0.0112656 -0.0109106 -0.0105374 -0.0101461 -0.00973664 -0.00931717 -0.00889576 -0.00847239 -0.00804707 -0.0076198 -0.00719057 -0.0067594 -0.00632627 -0.00589639 -0.00547496 -0.00506198 -0.00465745 -0.00426137 -0.00387375 -0.00349457 -0.00312385 -0.00276659 -0.0024278 -0.00210749 -0.00180566 -0.0015223 -0.00125741 -0.001011 -0.000783062 -0.000576101 -0.000392615 -0.000232604 -9.60688e-05 1.69912e-05 0.000106576 0.000172685 0.000215319 0.000241636 0.000258796 0.000266799 0.000265644 0.000255332 0.000235862 0.000207235 0.000169451 0.000129736 9.53164e-05 6.61919e-05 4.23628e-05 2.38291e-05 1.05907e-05 2.64768e-06 0 0 3.23805e-06 1.29522e-05 2.91425e-05 5.18089e-05 8.09513e-05 0.00011657 0.000158665 0.000207235 0.000253209 0.000287511 0.000310143 0.000321103 0.000320393 0.000308011 0.000283959 0.000248236 0.000192062 0.000106659 -7.97249e-06 -0.000151834 -0.000324924 -0.000527244 -0.000758793 -0.00101957 -0.00130629 -0.00161567 -0.0019477 -0.00230238 -0.00267972 -0.00307971 -0.00350236 -0.00394767 -0.00440945 -0.00488156 -0.00536398 -0.00585672 -0.00635977 -0.00687314 -0.00739682 -0.00793082 -0.00846888 -0.00900474 -0.00953839 -0.0100699 -0.0105991 -0.0111262 -0.011651 -0.0121737 -0.0126841 -0.0131721 -0.0136377 -0.014081 -0.0145019 -0.0149004 -0.0152765 -0.0156303 -0.0159515 -0.0162299 -0.0164654 -0.0166582 -0.016808 -0.0169151 -0.0169793 -0.0170008 -0.0169793 -0.0169151 -0.016808 -0.0166582 -0.0164654 -0.0162299 -0.0159515 -0.0156303 -0.0152765 -0.0149004 -0.0145019 -0.014081 -0.0136377 -0.0131721 -0.0126841 -0.0121737 -0.011651 -0.0111262 -0.0105991 -0.0100699 -0.00953839 -0.00900474 -0.00846888 -0.00793082 -0.00739682 -0.00687314 -0.00635977 -0.00585672 -0.00536398 -0.00488156 -0.00440945 -0.00394767 -0.00350236 -0.00307971 -0.00267972 -0.00230238 -0.0019477 -0.00161567 -0.00130629 -0.00101957 -0.000758793 -0.000527244 -0.000324924 -0.000151834 -7.97242e-06 0.00010666 0.000192062 0.000248236 0.000283959 0.000308011 0.000320393 0.000321103 0.000310143 0.000287511 0.000253209 0.000207235 0.000158665 0.00011657 8.09514e-05 5.18089e-05 2.91425e-05 1.29522e-05 3.23805e-06 0 0 3.68535e-06 1.47414e-05 3.31681e-05 5.89656e-05 9.21337e-05 0.000132672 0.000180582 0.000235862 0.000287511 0.000324527 0.00034691 0.00035466 0.000347776 0.00032626 0.00029011 0.000239328 0.000163852 5.3623e-05 -9.13589e-05 -0.000271094 -0.000485582 -0.000734823 -0.00101882 -0.00133756 -0.00168667 -0.00206173 -0.00246274 -0.00288972 -0.00334265 -0.00382154 -0.00432639 -0.00485719 -0.00540682 -0.00596812 -0.00654112 -0.0071258 -0.00772216 -0.00833021 -0.00894994 -0.00958135 -0.0102176 -0.0108519 -0.0114843 -0.0121147 -0.0127431 -0.0133695 -0.013994 -0.0146165 -0.015225 -0.0158075 -0.0163638 -0.0168942 -0.0173984 -0.0178766 -0.0183287 -0.0187548 -0.019142 -0.0194776 -0.0197616 -0.0199939 -0.0201746 -0.0203037 -0.0203811 -0.0204069 -0.0203811 -0.0203037 -0.0201746 -0.0199939 -0.0197616 -0.0194776 -0.019142 -0.0187548 -0.0183287 -0.0178766 -0.0173984 -0.0168942 -0.0163638 -0.0158075 -0.015225 -0.0146165 -0.013994 -0.0133695 -0.0127431 -0.0121147 -0.0114843 -0.0108519 -0.0102176 -0.00958135 -0.00894994 -0.00833021 -0.00772216 -0.0071258 -0.00654112 -0.00596812 -0.00540682 -0.00485719 -0.00432639 -0.00382154 -0.00334265 -0.00288972 -0.00246274 -0.00206173 -0.00168667 -0.00133756 -0.00101882 -0.000734823 -0.000485582 -0.000271094 -9.13588e-05 5.36231e-05 0.000163852 0.000239328 0.00029011 0.00032626 0.000347776 0.00035466 0.00034691 0.000324527 0.000287511 0.000235862 0.000180582 0.000132673 9.21337e-05 5.89656e-05 3.31681e-05 1.47414e-05 3.68535e-06 0 0 3.98956e-06 1.59582e-05 3.5906e-05 6.38329e-05 9.97389e-05 0.000143624 0.000195488 0.000255332 0.000310143 0.00034691 0.000365633 0.000366313 0.000348949 0.000313541 0.00026009 0.000188595 8.80539e-05 -5.25336e-05 -0.000233168 -0.000453849 -0.000714578 -0.00101535 -0.00135617 -0.00173704 -0.00215213 -0.00259559 -0.00306744 -0.00356767 -0.00409629 -0.00465328 -0.00523866 -0.00585242 -0.00648666 -0.00713344 -0.00779279 -0.00846469 -0.00914915 -0.00984616 -0.0105557 -0.0112779 -0.0120056 -0.0127322 -0.0134575 -0.0141815 -0.0149043 -0.0156258 -0.0163461 -0.0170651 -0.0177689 -0.0184436 -0.019089 -0.0197052 -0.0202922 -0.02085 -0.0213787 -0.0218781 -0.0223326 -0.0227265 -0.0230598 -0.0233326 -0.0235447 -0.0236962 -0.0237871 -0.0238174 -0.0237871 -0.0236962 -0.0235447 -0.0233326 -0.0230598 -0.0227265 -0.0223326 -0.0218781 -0.0213787 -0.02085 -0.0202922 -0.0197052 -0.019089 -0.0184436 -0.0177689 -0.0170651 -0.0163461 -0.0156258 -0.0149043 -0.0141815 -0.0134575 -0.0127322 -0.0120056 -0.0112779 -0.0105557 -0.00984616 -0.00914915 -0.00846469 -0.00779279 -0.00713344 -0.00648666 -0.00585242 -0.00523866 -0.00465328 -0.00409629 -0.00356767 -0.00306744 -0.00259559 -0.00215213 -0.00173704 -0.00135617 -0.00101535 -0.000714578 -0.000453849 -0.000233168 -5.25335e-05 8.8054e-05 0.000188595 0.00026009 0.000313541 0.000348949 0.000366313 0.000365634 0.00034691 0.000310143 0.000255332 0.000195488 0.000143624 9.97389e-05 6.38329e-05 3.5906e-05 1.59582e-05 3.98956e-06 0 0 4.15068e-06 1.66027e-05 3.73561e-05 6.64109e-05 0.000103767 0.000149425 0.000203383 0.000265644 0.000321103 0.00035466 0.000366313 0.000356064 0.000323911 0.000269856 0.000193898 9.60364e-05 -3.53317e-05 -0.000211811 -0.0004334 -0.0007001 -0.00101191 -0.00136883 -0.00177087 -0.00221801 -0.00270267 -0.00321727 -0.00376179 -0.00433624 -0.00494063 -0.00557494 -0.00623919 -0.00693337 -0.00764897 -0.00837751 -0.00911899 -0.00987339 -0.0106407 -0.011421 -0.0122142 -0.0130203 -0.0138329 -0.0146454 -0.0154579 -0.0162703 -0.0170827 -0.017895 -0.0187073 -0.0195195 -0.0203158 -0.0210804 -0.0218131 -0.0225141 -0.0231833 -0.0238207 -0.0244264 -0.0250002 -0.0255233 -0.0259767 -0.0263603 -0.0266742 -0.0269183 -0.0270926 -0.0271973 -0.0272321 -0.0271973 -0.0270926 -0.0269183 -0.0266742 -0.0263603 -0.0259767 -0.0255233 -0.0250002 -0.0244264 -0.0238207 -0.0231833 -0.0225141 -0.0218131 -0.0210804 -0.0203158 -0.0195195 -0.0187073 -0.017895 -0.0170827 -0.0162703 -0.0154579 -0.0146454 -0.0138329 -0.0130203 -0.0122142 -0.011421 -0.0106407 -0.00987339 -0.00911899 -0.00837751 -0.00764897 -0.00693337 -0.00623919 -0.00557494 -0.00494063 -0.00433624 -0.00376179 -0.00321727 -0.00270267 -0.00221801 -0.00177087 -0.00136883 -0.00101191 -0.0007001 -0.0004334 -0.00021181 -3.53316e-05 9.60365e-05 0.000193898 0.000269856 0.000323911 0.000356064 0.000366313 0.00035466 0.000321103 0.000265644 0.000203384 0.000149425 0.000103767 6.64109e-05 3.73562e-05 1.66027e-05 4.15068e-06 0 0 4.16873e-06 1.66749e-05 3.75185e-05 6.66996e-05 0.000104218 0.000150074 0.000204268 0.000266798 0.000320393 0.000347776 0.000348949 0.000323911 0.000272663 0.000195204 9.15338e-05 -3.83468e-05 -0.000206305 -0.000424208 -0.000692055 -0.00100985 -0.00137758 -0.00179526 -0.00226289 -0.00278046 -0.0033383 -0.00392674 -0.00454579 -0.00519543 -0.00587568 -0.00658652 -0.00732797 -0.00810002 -0.00889377 -0.00970034 -0.0105197 -0.0113519 -0.0121969 -0.0130547 -0.0139254 -0.0148088 -0.0156995 -0.0165918 -0.0174857 -0.0183812 -0.0192784 -0.0201772 -0.0210776 -0.0219797 -0.0228657 -0.0237179 -0.0245363 -0.0253208 -0.0260716 -0.0267886 -0.0274718 -0.0281212 -0.0287142 -0.0292281 -0.0296629 -0.0300187 -0.0302954 -0.0304931 -0.0306117 -0.0306512 -0.0306117 -0.0304931 -0.0302954 -0.0300187 -0.0296629 -0.0292281 -0.0287142 -0.0281212 -0.0274718 -0.0267886 -0.0260716 -0.0253208 -0.0245363 -0.0237179 -0.0228657 -0.0219797 -0.0210776 -0.0201772 -0.0192784 -0.0183812 -0.0174857 -0.0165918 -0.0156995 -0.0148088 -0.0139254 -0.0130547 -0.0121969 -0.0113519 -0.0105197 -0.00970034 -0.00889377 -0.00810002 -0.00732797 -0.00658652 -0.00587568 -0.00519543 -0.00454579 -0.00392674 -0.0033383 -0.00278046 -0.00226289 -0.00179526 -0.00137758 -0.00100985 -0.000692055 -0.000424207 -0.000206305 -3.83467e-05 9.15339e-05 0.000195204 0.000272663 0.000323911 0.000348949 0.000347776 0.000320393 0.000266798 0.000204268 0.000150074 0.000104218 6.66996e-05 3.75185e-05 1.66749e-05 4.16873e-06 0 0 4.04368e-06 1.61747e-05 3.63932e-05 6.4699e-05 0.000101092 0.000145573 0.000198141 0.000258796 0.000308011 0.00032626 0.000313541 0.000269856 0.000195204 8.95844e-05 -4.70018e-05 -0.000214555 -0.000424866 -0.000689725 -0.00100913 -0.00138309 -0.00181159 -0.00229464 -0.00283224 -0.00342439 -0.00405901 -0.00472403 -0.00541943 -0.00614523 -0.00690143 -0.00768802 -0.008505 -0.00935237 -0.010221 -0.0111019 -0.011995 -0.0129002 -0.0138177 -0.0147473 -0.0156892 -0.0166432 -0.0176053 -0.0185711 -0.0195407 -0.0205141 -0.0214913 -0.0224723 -0.0234571 -0.0244457 -0.0254185 -0.0263561 -0.0272584 -0.0281254 -0.0289572 -0.0297538 -0.030515 -0.031241 -0.0319051 -0.0324807 -0.0329677 -0.0333662 -0.0336761 -0.0338974 -0.0340303 -0.0340745 -0.0340303 -0.0338974 -0.0336761 -0.0333662 -0.0329677 -0.0324807 -0.0319051 -0.031241 -0.030515 -0.0297538 -0.0289572 -0.0281254 -0.0272584 -0.0263561 -0.0254185 -0.0244457 -0.0234571 -0.0224723 -0.0214913 -0.0205141 -0.0195407 -0.0185711 -0.0176053 -0.0166432 -0.0156892 -0.0147473 -0.0138177 -0.0129002 -0.011995 -0.0111019 -0.010221 -0.00935237 -0.008505 -0.00768802 -0.00690143 -0.00614523 -0.00541943 -0.00472403 -0.00405901 -0.00342439 -0.00283224 -0.00229464 -0.00181159 -0.00138309 -0.00100913 -0.000689725 -0.000424866 -0.000214555 -4.70017e-05 8.95845e-05 0.000195204 0.000269856 0.000313541 0.00032626 0.000308011 0.000258796 0.000198141 0.000145573 0.000101092 6.4699e-05 3.63932e-05 1.61747e-05 4.04369e-06 0 0 3.77556e-06 1.51022e-05 3.398e-05 6.0409e-05 9.4389e-05 0.00013592 0.000185002 0.000241636 0.000283959 0.00029011 0.00026009 0.000193898 9.15338e-05 -4.70018e-05 -0.000221709 -0.000432588 -0.000691014 -0.00100836 -0.00138463 -0.00181982 -0.00231394 -0.00286698 -0.00347893 -0.00414981 -0.00486481 -0.00560912 -0.00638273 -0.00718565 -0.00801789 -0.00887943 -0.00977028 -0.0106904 -0.0116308 -0.0125822 -0.0135448 -0.0145184 -0.0155031 -0.0164988 -0.0175057 -0.0185236 -0.0195503 -0.0205835 -0.021623 -0.0226691 -0.0237215 -0.0247804 -0.0258457 -0.0269174 -0.0279743 -0.028995 -0.0299795 -0.0309279 -0.0318401 -0.0327161 -0.033556 -0.0343597 -0.0350962 -0.0357345 -0.0362746 -0.0367166 -0.0370603 -0.0373058 -0.0374531 -0.0375022 -0.0374531 -0.0373058 -0.0370603 -0.0367166 -0.0362746 -0.0357345 -0.0350962 -0.0343597 -0.033556 -0.0327161 -0.0318401 -0.0309279 -0.0299795 -0.028995 -0.0279743 -0.0269174 -0.0258457 -0.0247804 -0.0237215 -0.0226691 -0.021623 -0.0205835 -0.0195503 -0.0185236 -0.0175057 -0.0164988 -0.0155031 -0.0145184 -0.0135448 -0.0125822 -0.0116308 -0.0106904 -0.00977028 -0.00887943 -0.00801789 -0.00718565 -0.00638273 -0.00560911 -0.00486481 -0.00414981 -0.00347893 -0.00286698 -0.00231394 -0.00181982 -0.00138463 -0.00100836 -0.000691014 -0.000432588 -0.000221709 -4.70017e-05 9.15339e-05 0.000193898 0.00026009 0.00029011 0.000283959 0.000241636 0.000185002 0.00013592 9.4389e-05 6.0409e-05 3.398e-05 1.51022e-05 3.77556e-06 0 0 3.36435e-06 1.34574e-05 3.02792e-05 5.38296e-05 8.41088e-05 0.000121117 0.000164853 0.000215318 0.000248236 0.000239328 0.000188595 9.60364e-05 -3.83468e-05 -0.000214555 -0.000432588 -0.000692447 -0.00100475 -0.00138012 -0.00181856 -0.00232006 -0.00288462 -0.00351226 -0.00420296 -0.00495672 -0.00575569 -0.00658201 -0.00743568 -0.00831669 -0.00922505 -0.0101608 -0.0111238 -0.0121142 -0.013123 -0.0141413 -0.0151691 -0.0162063 -0.017253 -0.0183092 -0.0193749 -0.02045 -0.0215347 -0.0226289 -0.0237327 -0.024846 -0.0259689 -0.0271014 -0.0282434 -0.0293949 -0.030533 -0.0316346 -0.0326997 -0.0337282 -0.0347202 -0.0356758 -0.0365948 -0.0374772 -0.0382874 -0.0389896 -0.0395838 -0.0400699 -0.040448 -0.040718 -0.0408801 -0.0409341 -0.0408801 -0.040718 -0.040448 -0.0400699 -0.0395838 -0.0389896 -0.0382874 -0.0374772 -0.0365948 -0.0356758 -0.0347202 -0.0337282 -0.0326997 -0.0316346 -0.030533 -0.0293949 -0.0282434 -0.0271014 -0.0259689 -0.024846 -0.0237327 -0.0226289 -0.0215347 -0.02045 -0.0193749 -0.0183092 -0.017253 -0.0162063 -0.0151691 -0.0141413 -0.013123 -0.0121142 -0.0111238 -0.0101608 -0.00922505 -0.00831669 -0.00743568 -0.00658201 -0.00575569 -0.00495672 -0.00420296 -0.00351226 -0.00288462 -0.00232006 -0.00181856 -0.00138012 -0.00100475 -0.000692447 -0.000432588 -0.000214555 -3.83467e-05 9.60365e-05 0.000188595 0.000239328 0.000248236 0.000215319 0.000164853 0.000121117 8.41088e-05 5.38296e-05 3.02792e-05 1.34574e-05 3.36435e-06 0 0 2.6982e-06 1.07928e-05 2.42838e-05 4.31712e-05 6.7455e-05 9.71352e-05 0.000132212 0.000172685 0.000192062 0.000163852 8.80539e-05 -3.53317e-05 -0.000206305 -0.000424866 -0.000691014 -0.00100475 -0.00137507 -0.00181097 -0.00231245 -0.00287951 -0.00351215 -0.00421037 -0.00497417 -0.00580356 -0.00667708 -0.00757332 -0.00849228 -0.00943394 -0.0103983 -0.0113854 -0.0123952 -0.0134277 -0.0144748 -0.0155282 -0.0165879 -0.017654 -0.0187264 -0.0198052 -0.0208903 -0.0219818 -0.0230833 -0.0241986 -0.0253275 -0.0264702 -0.0276266 -0.0287967 -0.0299806 -0.0311781 -0.0323653 -0.0335178 -0.0346358 -0.0357193 -0.0367681 -0.0377824 -0.038762 -0.0397072 -0.040577 -0.0413309 -0.0419687 -0.0424906 -0.0428966 -0.0431865 -0.0433605 -0.0434185 -0.0433605 -0.0431865 -0.0428966 -0.0424906 -0.0419687 -0.0413309 -0.040577 -0.0397072 -0.038762 -0.0377824 -0.0367681 -0.0357193 -0.0346358 -0.0335178 -0.0323653 -0.0311781 -0.0299806 -0.0287967 -0.0276266 -0.0264702 -0.0253275 -0.0241986 -0.0230833 -0.0219818 -0.0208903 -0.0198052 -0.0187264 -0.017654 -0.0165879 -0.0155282 -0.0144748 -0.0134277 -0.0123952 -0.0113854 -0.0103983 -0.00943394 -0.00849228 -0.00757332 -0.00667708 -0.00580356 -0.00497417 -0.00421037 -0.00351215 -0.00287951 -0.00231245 -0.00181097 -0.00137507 -0.00100475 -0.000691014 -0.000424866 -0.000206305 -3.53316e-05 8.8054e-05 0.000163852 0.000192062 0.000172685 0.000132212 9.71352e-05 6.7455e-05 4.31712e-05 2.42838e-05 1.07928e-05 2.6982e-06 0 0 1.66524e-06 6.66098e-06 1.49872e-05 2.66439e-05 4.16311e-05 5.99488e-05 8.1597e-05 0.000106576 0.000106659 5.36231e-05 -5.25336e-05 -0.00021181 -0.000424208 -0.000689725 -0.00100836 -0.00138012 -0.00181097 -0.00230689 -0.00286787 -0.00349392 -0.00418503 -0.00494121 -0.00576246 -0.00664877 -0.00757441 -0.00851367 -0.00946653 -0.010433 -0.0114131 -0.0124068 -0.0134141 -0.014435 -0.015463 -0.0164918 -0.0175212 -0.0185513 -0.019582 -0.0206135 -0.0216456 -0.0226784 -0.0237213 -0.0247837 -0.0258655 -0.0269668 -0.0280876 -0.0292279 -0.0303877 -0.0315669 -0.0327416 -0.0338876 -0.035005 -0.0360939 -0.0371541 -0.0381857 -0.0391887 -0.0401631 -0.0410631 -0.0418432 -0.0425033 -0.0430433 -0.0434633 -0.0437634 -0.0439434 -0.0440034 -0.0439434 -0.0437634 -0.0434633 -0.0430433 -0.0425033 -0.0418432 -0.0410631 -0.0401631 -0.0391887 -0.0381857 -0.0371541 -0.0360939 -0.035005 -0.0338876 -0.0327416 -0.0315669 -0.0303877 -0.0292279 -0.0280876 -0.0269668 -0.0258655 -0.0247837 -0.0237213 -0.0226784 -0.0216456 -0.0206135 -0.019582 -0.0185513 -0.0175212 -0.0164918 -0.015463 -0.014435 -0.0134141 -0.0124068 -0.0114131 -0.010433 -0.00946653 -0.00851367 -0.00757441 -0.00664877 -0.00576245 -0.00494121 -0.00418503 -0.00349392 -0.00286787 -0.00230689 -0.00181097 -0.00138012 -0.00100836 -0.000689725 -0.000424208 -0.00021181 -5.25336e-05 5.3623e-05 0.000106659 0.000106576 8.1597e-05 5.99488e-05 4.16311e-05 2.66439e-05 1.49872e-05 6.66098e-06 1.66524e-06 0 0 2.65487e-07 1.06195e-06 2.38939e-06 4.2478e-06 6.63718e-06 9.55754e-06 1.30089e-05 1.69912e-05 -7.97241e-06 -9.13588e-05 -0.000233168 -0.0004334 -0.000692055 -0.00100913 -0.00138463 -0.00181856 -0.00231245 -0.00286787 -0.00348481 -0.00416327 -0.00490326 -0.00570477 -0.0065678 -0.00749235 -0.00844768 -0.00940305 -0.0103585 -0.0113139 -0.0122694 -0.0132249 -0.0141804 -0.015136 -0.0160878 -0.0170321 -0.0179689 -0.0188982 -0.0198199 -0.0207341 -0.0216407 -0.0225399 -0.0234486 -0.0243843 -0.0253467 -0.0263359 -0.027352 -0.0283949 -0.0294647 -0.0305612 -0.0316619 -0.0327439 -0.0338073 -0.0348521 -0.0358782 -0.0368858 -0.0378747 -0.0388449 -0.0397459 -0.0405267 -0.0411873 -0.0417279 -0.0421483 -0.0424486 -0.0426288 -0.0426888 -0.0426288 -0.0424486 -0.0421483 -0.0417279 -0.0411873 -0.0405267 -0.0397459 -0.0388449 -0.0378747 -0.0368858 -0.0358782 -0.0348521 -0.0338073 -0.0327439 -0.0316619 -0.0305612 -0.0294647 -0.0283949 -0.027352 -0.0263359 -0.0253467 -0.0243843 -0.0234486 -0.0225399 -0.0216407 -0.0207341 -0.0198199 -0.0188982 -0.0179689 -0.0170321 -0.0160878 -0.015136 -0.0141804 -0.0132249 -0.0122694 -0.0113139 -0.0103585 -0.00940305 -0.00844768 -0.00749235 -0.0065678 -0.00570477 -0.00490326 -0.00416327 -0.00348481 -0.00286787 -0.00231245 -0.00181856 -0.00138463 -0.00100913 -0.000692055 -0.0004334 -0.000233168 -9.13589e-05 -7.97252e-06 1.69911e-05 1.30088e-05 9.55749e-06 6.63715e-06 4.24777e-06 2.38937e-06 1.06194e-06 2.65486e-07 0 0 -1.50107e-06 -6.00429e-06 -1.35097e-05 -2.40172e-05 -3.75268e-05 -5.40386e-05 -7.35526e-05 -9.60687e-05 -0.000151834 -0.000271094 -0.000453849 -0.0007001 -0.00100985 -0.00138309 -0.00181982 -0.00232006 -0.00287951 -0.00349392 -0.00416327 -0.00488758 -0.00566684 -0.00650104 -0.0073902 -0.00833431 -0.00929689 -0.0102415 -0.011168 -0.0120766 -0.0129671 -0.0138397 -0.0146942 -0.0155308 -0.0163491 -0.0171493 -0.0179311 -0.0186947 -0.0194399 -0.0201669 -0.0208757 -0.0215661 -0.0222653 -0.0230003 -0.023771 -0.0245775 -0.0254197 -0.0262978 -0.0272115 -0.0281611 -0.0291262 -0.0300867 -0.0310426 -0.0319938 -0.0329405 -0.0338825 -0.03482 -0.0357528 -0.0366252 -0.0373812 -0.0380209 -0.0385444 -0.0389515 -0.0392422 -0.0394167 -0.0394749 -0.0394167 -0.0392422 -0.0389515 -0.0385444 -0.0380209 -0.0373812 -0.0366252 -0.0357528 -0.03482 -0.0338825 -0.0329405 -0.0319938 -0.0310426 -0.0300867 -0.0291262 -0.0281611 -0.0272115 -0.0262978 -0.0254197 -0.0245775 -0.023771 -0.0230003 -0.0222653 -0.0215661 -0.0208757 -0.0201669 -0.0194399 -0