<?xml version="1.0"?> 
<VTKFile type="StructuredGrid" version="0.1"> 
<StructuredGrid WholeExtent="0 128 0 128 0 0"> 
<Piece Extent="0 128 0 128 0 0"> 
<PointData>
<DataArray type="Float32" Name="u" format="ascii" NumberOfComponents="1"> 
0 0 0 0 0 0 0 0 0 0 0 0 0 0 0 0 0 0 0 0 0 0 0 0 0 0 0 0 0 0 0 0 0 0 0 0 0 0 0 0 0 0 0 0 0 0 0 0 0 0 0 0 0 0 0 0 0 0 0 0 0 0 0 0 0 0 0 0 0 0 0 0 0 0 0 0 0 0 0 0 0 0 0 0 0 0 0 0 0 0 0 0 0 0 0 0 0 0 0 0 0 0 0 0 0 0 0 0 0 0 0 0 0 0 0 0 0 0 0 0 0 0 0 0 0 0 0 0 0 0 -6.3331e-08 -2.53324e-07 -5.69979e-07 -1.0133e-06 -1.58328e-06 -2.27992e-06 -3.10322e-06 -4.05319e-06 -5.14832e-06 -6.40714e-06 -7.82964e-06 -9.41582e-06 -1.11657e-05 -1.30792e-05 -1.51564e-05 -1.73973e-05 -1.96934e-05 -2.19361e-05 -2.41254e-05 -2.62614e-05 -2.83439e-05 -3.03731e-05 -3.2349e-05 -3.42714e-05 -3.6071e-05 -3.7678e-05 -3.90925e-05 -4.03145e-05 -4.13439e-05 -4.21809e-05 -4.28254e-05 -4.32773e-05 -4.35258e-05 -4.35597e-05 -4.33792e-05 -4.29841e-05 -4.23746e-05 -4.15506e-05 -4.0512e-05 -3.9259e-05 -3.78419e-05 -3.6311e-05 -3.46665e-05 -3.29082e-05 -3.10362e-05 -2.90505e-05 -2.69511e-05 -2.47379e-05 -2.25022e-05 -2.03349e-05 -1.82362e-05 -1.62059e-05 -1.42441e-05 -1.23508e-05 -1.0526e-05 -8.76969e-06 -7.15526e-06 -5.75608e-06 -4.57217e-06 -3.60351e-06 -2.8501e-06 -2.31196e-06 -1.98907e-06 -1.88145e-06 -1.98907e-06 -2.31196e-06 -2.8501e-06 -3.60351e-06 -4.57217e-06 -5.75608e-06 -7.15526e-06 -8.76969e-06 -1.0526e-05 -1.23508e-05 -1.42441e-05 -1.62059e-05 -1.82362e-05 -2.03349e-05 -2.25022e-05 -2.47379e-05 -2.69511e-05 -2.90505e-05 -3.10362e-05 -3.29082e-05 -3.46665e-05 -3.6311e-05 -3.78419e-05 -3.9259e-05 -4.0512e-05 -4.15506e-05 -4.23746e-05 -4.29841e-05 -4.33792e-05 -4.35597e-05 -4.35258e-05 -4.32773e-05 -4.28254e-05 -4.21809e-05 -4.1344e-05 -4.03145e-05 -3.90925e-05 -3.7678e-05 -3.6071e-05 -3.42715e-05 -3.2349e-05 -3.03732e-05 -2.83439e-05 -2.62614e-05 -2.41254e-05 -2.19361e-05 -1.96934e-05 -1.73974e-05 -1.51565e-05 -1.30792e-05 -1.11657e-05 -9.41583e-06 -7.82965e-06 -6.40715e-06 -5.14833e-06 -4.05319e-06 -3.10322e-06 -2.27992e-06 -1.58328e-06 -1.0133e-06 -5.6998e-07 -2.53324e-07 -6.33311e-08 0 0 -2.53324e-07 -1.0133e-06 -2.27992e-06 -4.05319e-06 -6.3331e-06 -9.11967e-06 -1.24129e-05 -1.62127e-05 -2.05933e-05 -2.56286e-05 -3.13186e-05 -3.76633e-05 -4.46627e-05 -5.23169e-05 -6.06258e-05 -6.95894e-05 -7.87736e-05 -8.77444e-05 -9.65017e-05 -0.000105045 -0.000113376 -0.000121493 -0.000129396 -0.000137086 -0.000144284 -0.000150712 -0.00015637 -0.000161258 -0.000165376 -0.000168724 -0.000171301 -0.000173109 -0.000174103 -0.000174239 -0.000173517 -0.000171936 -0.000169498 -0.000166202 -0.000162048 -0.000157036 -0.000151368 -0.000145244 -0.000138666 -0.000131633 -0.000124145 -0.000116202 -0.000107804 -9.89518e-05 -9.00088e-05 -8.13397e-05 -7.29446e-05 -6.48235e-05 -5.69764e-05 -4.94032e-05 -4.2104e-05 -3.50788e-05 -2.8621e-05 -2.30243e-05 -1.82887e-05 -1.4414e-05 -1.14004e-05 -9.24784e-06 -7.9563e-06 -7.52578e-06 -7.9563e-06 -9.24784e-06 -1.14004e-05 -1.4414e-05 -1.82887e-05 -2.30243e-05 -2.8621e-05 -3.50788e-05 -4.2104e-05 -4.94032e-05 -5.69764e-05 -6.48235e-05 -7.29446e-05 -8.13397e-05 -9.00087e-05 -9.89518e-05 -0.000107804 -0.000116202 -0.000124145 -0.000131633 -0.000138666 -0.000145244 -0.000151368 -0.000157036 -0.000162048 -0.000166202 -0.000169498 -0.000171936 -0.000173517 -0.000174239 -0.000174103 -0.000173109 -0.000171302 -0.000168724 -0.000165376 -0.000161258 -0.00015637 -0.000150712 -0.000144284 -0.000137086 -0.000129396 -0.000121493 -0.000113376 -0.000105045 -9.65017e-05 -8.77444e-05 -7.87737e-05 -6.95894e-05 -6.06258e-05 -5.23169e-05 -4.46628e-05 -3.76633e-05 -3.13186e-05 -2.56286e-05 -2.05933e-05 -1.62128e-05 -1.24129e-05 -9.11968e-06 -6.33311e-06 -4.05319e-06 -2.27992e-06 -1.0133e-06 -2.53324e-07 0 0 -5.69979e-07 -2.27992e-06 -5.12981e-06 -9.11967e-06 -1.42495e-05 -2.05193e-05 -2.7929e-05 -3.64787e-05 -4.63349e-05 -5.76643e-05 -7.04668e-05 -8.47424e-05 -0.000100491 -0.000117713 -0.000136408 -0.000156576 -0.000177241 -0.000197425 -0.000217129 -0.000236352 -0.000255095 -0.000273358 -0.000291141 -0.000308443 -0.000324639 -0.000339102 -0.000351832 -0.00036283 -0.000372096 -0.000379628 -0.000385428 -0.000389496 -0.000391732 -0.000392037 -0.000390412 -0.000386857 -0.000381371 -0.000373955 -0.000364608 -0.000353331 -0.000340577 -0.000326799 -0.000311998 -0.000296174 -0.000279326 -0.000261455 -0.00024256 -0.000222641 -0.00020252 -0.000183014 -0.000164125 -0.000145853 -0.000128197 -0.000111157 -9.4734e-05 -7.89272e-05 -6.43973e-05 -5.18048e-05 -4.11495e-05 -3.24316e-05 -2.56509e-05 -2.08076e-05 -1.79017e-05 -1.6933e-05 -1.79017e-05 -2.08076e-05 -2.56509e-05 -3.24316e-05 -4.11495e-05 -5.18047e-05 -6.43973e-05 -7.89272e-05 -9.4734e-05 -0.000111157 -0.000128197 -0.000145853 -0.000164125 -0.000183014 -0.00020252 -0.000222641 -0.00024256 -0.000261455 -0.000279326 -0.000296174 -0.000311998 -0.000326799 -0.000340577 -0.000353331 -0.000364608 -0.000373955 -0.000381371 -0.000386857 -0.000390412 -0.000392037 -0.000391732 -0.000389496 -0.000385428 -0.000379628 -0.000372096 -0.00036283 -0.000351832 -0.000339102 -0.000324639 -0.000308443 -0.000291141 -0.000273358 -0.000255096 -0.000236352 -0.000217129 -0.000197425 -0.000177241 -0.000156576 -0.000136408 -0.000117713 -0.000100491 -8.47424e-05 -7.04668e-05 -5.76643e-05 -4.63349e-05 -3.64787e-05 -2.7929e-05 -2.05193e-05 -1.42495e-05 -9.11968e-06 -5.12982e-06 -2.27992e-06 -5.6998e-07 0 0 -1.0133e-06 -4.05319e-06 -9.11967e-06 -1.62127e-05 -2.53324e-05 -3.64787e-05 -4.96515e-05 -6.4851e-05 -8.23732e-05 -0.000102514 -0.000125274 -0.000150653 -0.000178651 -0.000209268 -0.000242503 -0.000278358 -0.000315095 -0.000350978 -0.000386007 -0.000420182 -0.000453503 -0.00048597 -0.000517584 -0.000548343 -0.000577135 -0.000602848 -0.00062548 -0.000645032 -0.000661503 -0.000674895 -0.000685206 -0.000692437 -0.000696412 -0.000696955 -0.000694067 -0.000687746 -0.000677993 -0.000664809 -0.000648192 -0.000628144 -0.00060547 -0.000580977 -0.000554664 -0.000526531 -0.00049658 -0.000464808 -0.000431217 -0.000395807 -0.000360035 -0.000325359 -0.000291778 -0.000259294 -0.000227905 -0.000197613 -0.000168416 -0.000140315 -0.000114484 -9.20973e-05 -7.31547e-05 -5.76561e-05 -4.56017e-05 -3.69914e-05 -3.18252e-05 -3.01031e-05 -3.18252e-05 -3.69914e-05 -4.56017e-05 -5.76561e-05 -7.31547e-05 -9.20973e-05 -0.000114484 -0.000140315 -0.000168416 -0.000197613 -0.000227905 -0.000259294 -0.000291778 -0.000325359 -0.000360035 -0.000395807 -0.000431217 -0.000464808 -0.00049658 -0.000526531 -0.000554664 -0.000580977 -0.00060547 -0.000628144 -0.000648192 -0.000664809 -0.000677993 -0.000687746 -0.000694067 -0.000696955 -0.000696412 -0.000692437 -0.000685206 -0.000674895 -0.000661503 -0.000645032 -0.00062548 -0.000602848 -0.000577136 -0.000548343 -0.000517584 -0.00048597 -0.000453503 -0.000420182 -0.000386007 -0.000350978 -0.000315095 -0.000278358 -0.000242503 -0.000209268 -0.000178651 -0.000150653 -0.000125274 -0.000102514 -8.23732e-05 -6.4851e-05 -4.96516e-05 -3.64787e-05 -2.53324e-05 -1.62128e-05 -9.11968e-06 -4.05319e-06 -1.0133e-06 0 0 -1.58328e-06 -6.3331e-06 -1.42495e-05 -2.53324e-05 -3.95819e-05 -5.69979e-05 -7.75805e-05 -0.00010133 -0.000128708 -0.000160179 -0.000195741 -0.000235395 -0.000279142 -0.000326981 -0.000378911 -0.000434934 -0.000492335 -0.000548402 -0.000603135 -0.000656534 -0.000708598 -0.000759329 -0.000808725 -0.000856786 -0.000901774 -0.000941949 -0.000977312 -0.00100786 -0.0010336 -0.00105452 -0.00107063 -0.00108193 -0.00108814 -0.00108899 -0.00108448 -0.0010746 -0.00105936 -0.00103876 -0.0010128 -0.000981475 -0.000946047 -0.000907776 -0.000866662 -0.000822705 -0.000775906 -0.000726263 -0.000673777 -0.000618449 -0.000562555 -0.000508373 -0.000455904 -0.000405147 -0.000356102 -0.00030877 -0.00026315 -0.000219242 -0.000178881 -0.000143902 -0.000114304 -9.00877e-05 -7.12526e-05 -5.7799e-05 -4.97268e-05 -4.70361e-05 -4.97268e-05 -5.7799e-05 -7.12526e-05 -9.00877e-05 -0.000114304 -0.000143902 -0.000178881 -0.000219242 -0.00026315 -0.00030877 -0.000356102 -0.000405147 -0.000455904 -0.000508373 -0.000562555 -0.000618449 -0.000673777 -0.000726263 -0.000775906 -0.000822705 -0.000866662 -0.000907776 -0.000946047 -0.000981475 -0.0010128 -0.00103876 -0.00105936 -0.0010746 -0.00108448 -0.00108899 -0.00108814 -0.00108193 -0.00107063 -0.00105452 -0.0010336 -0.00100786 -0.000977312 -0.00094195 -0.000901774 -0.000856786 -0.000808725 -0.000759329 -0.000708599 -0.000656534 -0.000603136 -0.000548403 -0.000492335 -0.000434934 -0.000378911 -0.000326981 -0.000279142 -0.000235396 -0.000195741 -0.000160179 -0.000128708 -0.00010133 -7.75806e-05 -5.6998e-05 -3.95819e-05 -2.53324e-05 -1.42495e-05 -6.33311e-06 -1.58328e-06 0 0 -2.27992e-06 -9.11967e-06 -2.05193e-05 -3.64787e-05 -5.69979e-05 -8.2077e-05 -0.000111716 -0.000145915 -0.00018534 -0.000230657 -0.000281867 -0.000338969 -0.000401964 -0.000470852 -0.000545632 -0.000626305 -0.000708963 -0.0007897 -0.000868515 -0.000945409 -0.00102038 -0.00109343 -0.00116456 -0.00123377 -0.00129855 -0.00135641 -0.00140733 -0.00145132 -0.00148838 -0.00151851 -0.00154171 -0.00155798 -0.00156693 -0.00156815 -0.00156165 -0.00154743 -0.00152548 -0.00149582 -0.00145843 -0.00141332 -0.00136231 -0.0013072 -0.00124799 -0.0011847 -0.0011173 -0.00104582 -0.000970239 -0.000890566 -0.000810079 -0.000732057 -0.000656502 -0.000583412 -0.000512787 -0.000444629 -0.000378936 -0.000315709 -0.000257589 -0.000207219 -0.000164598 -0.000129726 -0.000102604 -8.32306e-05 -7.16067e-05 -6.7732e-05 -7.16067e-05 -8.32306e-05 -0.000102604 -0.000129726 -0.000164598 -0.000207219 -0.000257589 -0.000315709 -0.000378936 -0.000444629 -0.000512787 -0.000583412 -0.000656502 -0.000732057 -0.000810079 -0.000890566 -0.000970239 -0.00104582 -0.0011173 -0.0011847 -0.00124799 -0.0013072 -0.00136231 -0.00141332 -0.00145843 -0.00149582 -0.00152548 -0.00154743 -0.00156165 -0.00156815 -0.00156693 -0.00155798 -0.00154171 -0.00151851 -0.00148838 -0.00145132 -0.00140733 -0.00135641 -0.00129856 -0.00123377 -0.00116456 -0.00109343 -0.00102038 -0.000945409 -0.000868515 -0.0007897 -0.000708963 -0.000626305 -0.000545632 -0.000470852 -0.000401965 -0.00033897 -0.000281867 -0.000230657 -0.00018534 -0.000145915 -0.000111716 -8.20771e-05 -5.6998e-05 -3.64787e-05 -2.05193e-05 -9.11968e-06 -2.27992e-06 0 0 -3.10322e-06 -1.24129e-05 -2.7929e-05 -4.96515e-05 -7.75805e-05 -0.000111716 -0.000152058 -0.000198606 -0.000252268 -0.00031395 -0.000383652 -0.000461375 -0.000547118 -0.000640882 -0.000742666 -0.00085247 -0.000964977 -0.00107487 -0.00118215 -0.00128681 -0.00138885 -0.00148828 -0.0015851 -0.0016793 -0.00176748 -0.00184622 -0.00191553 -0.00197541 -0.00202585 -0.00206686 -0.00209844 -0.00212059 -0.00213276 -0.00213443 -0.00212558 -0.00210622 -0.00207635 -0.00203598 -0.00198509 -0.00192369 -0.00185425 -0.00177924 -0.00169866 -0.0016125 -0.00152077 -0.00142348 -0.0013206 -0.00121216 -0.00110261 -0.000996411 -0.000893572 -0.000794088 -0.000697961 -0.000605189 -0.000515774 -0.000429715 -0.000350608 -0.000282048 -0.000224036 -0.000176572 -0.000139655 -0.000113286 -9.74646e-05 -9.21908e-05 -9.74646e-05 -0.000113286 -0.000139655 -0.000176572 -0.000224036 -0.000282048 -0.000350608 -0.000429715 -0.000515774 -0.000605189 -0.00069796 -0.000794088 -0.000893572 -0.000996411 -0.00110261 -0.00121216 -0.0013206 -0.00142348 -0.00152077 -0.0016125 -0.00169866 -0.00177924 -0.00185425 -0.00192369 -0.00198509 -0.00203598 -0.00207635 -0.00210622 -0.00212558 -0.00213443 -0.00213276 -0.00212059 -0.00209844 -0.00206687 -0.00202585 -0.00197541 -0.00191553 -0.00184622 -0.00176748 -0.0016793 -0.0015851 -0.00148828 -0.00138885 -0.00128681 -0.00118215 -0.00107487 -0.000964978 -0.000852471 -0.000742666 -0.000640882 -0.000547119 -0.000461375 -0.000383653 -0.00031395 -0.000252268 -0.000198606 -0.000152058 -0.000111716 -7.75806e-05 -4.96516e-05 -2.7929e-05 -1.24129e-05 -3.10322e-06 0 0 -4.05319e-06 -1.62127e-05 -3.64787e-05 -6.4851e-05 -0.00010133 -0.000145915 -0.000198606 -0.000259404 -0.000329493 -0.000410057 -0.000501097 -0.000602612 -0.000714604 -0.00083707 -0.000970013 -0.00111343 -0.00126038 -0.00140391 -0.00154403 -0.00168073 -0.00181401 -0.00194388 -0.00207033 -0.00219337 -0.00230854 -0.00241139 -0.00250192 -0.00258013 -0.00264601 -0.00269958 -0.00274082 -0.00276975 -0.00278565 -0.00278782 -0.00277627 -0.00275098 -0.00271197 -0.00265924 -0.00259277 -0.00251258 -0.00242188 -0.00232391 -0.00221866 -0.00210613 -0.00198632 -0.00185923 -0.00172487 -0.00158323 -0.00144014 -0.00130144 -0.00116711 -0.00103718 -0.000911622 -0.000790451 -0.000673664 -0.00056126 -0.000457937 -0.000368389 -0.000292619 -0.000230624 -0.000182407 -0.000147965 -0.000127301 -0.000120412 -0.000127301 -0.000147965 -0.000182407 -0.000230624 -0.000292619 -0.000368389 -0.000457937 -0.00056126 -0.000673664 -0.000790451 -0.000911622 -0.00103718 -0.00116711 -0.00130144 -0.00144014 -0.00158323 -0.00172487 -0.00185923 -0.00198632 -0.00210613 -0.00221866 -0.00232391 -0.00242188 -0.00251258 -0.00259277 -0.00265924 -0.00271197 -0.00275098 -0.00277627 -0.00278782 -0.00278565 -0.00276975 -0.00274082 -0.00269958 -0.00264601 -0.00258013 -0.00250192 -0.00241139 -0.00230854 -0.00219337 -0.00207034 -0.00194388 -0.00181401 -0.00168073 -0.00154403 -0.00140391 -0.00126038 -0.00111343 -0.000970013 -0.000837071 -0.000714604 -0.000602613 -0.000501097 -0.000410057 -0.000329493 -0.000259404 -0.000198606 -0.000145915 -0.00010133 -6.4851e-05 -3.64787e-05 -1.62128e-05 -4.05319e-06 0 0 -5.14832e-06 -2.05933e-05 -4.63349e-05 -8.23732e-05 -0.000128708 -0.00018534 -0.000252268 -0.000329493 -0.000418422 -0.000520466 -0.000635622 -0.000763892 -0.000905275 -0.00105977 -0.00122738 -0.0014081 -0.00159308 -0.00177346 -0.00194922 -0.00212039 -0.00228695 -0.0024489 -0.00260625 -0.00275899 -0.00290146 -0.00302799 -0.00313857 -0.00323321 -0.00331191 -0.00337466 -0.00342147 -0.00345234 -0.0034664 -0.0034628 -0.00344154 -0.00340262 -0.00334604 -0.00327179 -0.00317989 -0.00307032 -0.00294731 -0.00281508 -0.00267361 -0.00252292 -0.002363 -0.00219386 -0.00201549 -0.00182789 -0.00163864 -0.00145531 -0.00127791 -0.00110643 -0.00094087 -0.000781237 -0.000627528 -0.000479742 -0.00034397 -0.000226301 -0.000126734 -4.52711e-05 1.80893e-05 6.33467e-05 9.05011e-05 9.95526e-05 9.05011e-05 6.33467e-05 1.80893e-05 -4.52711e-05 -0.000126734 -0.000226301 -0.00034397 -0.000479742 -0.000627528 -0.000781237 -0.000940869 -0.00110643 -0.00127791 -0.00145531 -0.00163864 -0.00182789 -0.00201549 -0.00219386 -0.002363 -0.00252292 -0.00267361 -0.00281508 -0.00294731 -0.00307032 -0.00317989 -0.00327179 -0.00334604 -0.00340262 -0.00344154 -0.0034628 -0.0034664 -0.00345234 -0.00342147 -0.00337466 -0.00331191 -0.00323321 -0.00313857 -0.00302799 -0.00290146 -0.00275899 -0.00260625 -0.0024489 -0.00228695 -0.00212039 -0.00194922 -0.00177346 -0.00159308 -0.00140811 -0.00122738 -0.00105977 -0.000905276 -0.000763893 -0.000635623 -0.000520466 -0.000418423 -0.000329493 -0.000252268 -0.00018534 -0.000128708 -8.23732e-05 -4.63349e-05 -2.05933e-05 -5.14833e-06 0 0 -6.40714e-06 -2.56286e-05 -5.76643e-05 -0.000102514 -0.000160179 -0.000230657 -0.00031395 -0.000410057 -0.000520466 -0.000646663 -0.000788649 -0.000946425 -0.00111999 -0.00130934 -0.00151448 -0.00173541 -0.00196101 -0.00218014 -0.0023928 -0.002599 -0.00279874 -0.00299201 -0.00317882 -0.00335917 -0.00352596 -0.0036721 -0.00379758 -0.00390241 -0.00398659 -0.00405012 -0.004093 -0.00411522 -0.00411582 -0.00409383 -0.00404923 -0.00398204 -0.00389224 -0.00377985 -0.00364486 -0.00348727 -0.00331267 -0.00312663 -0.00292915 -0.00272024 -0.0024999 -0.00226812 -0.0020249 -0.00177025 -0.00151405 -0.00126621 -0.00102672 -0.000795587 -0.000572801 -0.000358368 -0.000152287 4.5442e-05 0.000226898 0.00038416 0.000517227 0.000626101 0.000710781 0.000771266 0.000807557 0.000819654 0.000807557 0.000771266 0.000710781 0.000626101 0.000517228 0.00038416 0.000226898 4.54421e-05 -0.000152287 -0.000358368 -0.000572801 -0.000795587 -0.00102672 -0.00126621 -0.00151405 -0.00177025 -0.0020249 -0.00226812 -0.0024999 -0.00272024 -0.00292915 -0.00312663 -0.00331267 -0.00348727 -0.00364486 -0.00377985 -0.00389224 -0.00398204 -0.00404923 -0.00409383 -0.00411583 -0.00411523 -0.004093 -0.00405012 -0.00398659 -0.00390241 -0.00379758 -0.0036721 -0.00352596 -0.00335917 -0.00317882 -0.00299201 -0.00279874 -0.002599 -0.0023928 -0.00218014 -0.00196101 -0.00173541 -0.00151448 -0.00130934 -0.00111999 -0.000946425 -0.00078865 -0.000646664 -0.000520466 -0.000410057 -0.00031395 -0.000230657 -0.000160179 -0.000102514 -5.76643e-05 -2.56286e-05 -6.40715e-06 0 0 -7.82964e-06 -3.13186e-05 -7.04667e-05 -0.000125274 -0.000195741 -0.000281867 -0.000383652 -0.000501097 -0.000635622 -0.000788649 -0.000960179 -0.00115021 -0.00135874 -0.00158578 -0.00183132 -0.00209536 -0.00236415 -0.00262395 -0.00287476 -0.00311657 -0.00334939 -0.00357322 -0.00378806 -0.0039939 -0.00418203 -0.0043437 -0.00447894 -0.00458772 -0.00467006 -0.00472596 -0.00475541 -0.00475841 -0.00473393 -0.0046809 -0.00459934 -0.00448923 -0.00435059 -0.00418341 -0.00398769 -0.00376343 -0.00351795 -0.00325857 -0.00298528 -0.0026981 -0.002397 -0.00208201 -0.00175311 -0.00141031 -0.0010664 -0.000734148 -0.000413569 -0.000104659 0.000192582 0.000478155 0.000752058 0.00101429 0.00125467 0.00146299 0.00163927 0.00178349 0.00189567 0.00197579 0.00202387 0.00203989 0.00202387 0.00197579 0.00189567 0.00178349 0.00163927 0.00146299 0.00125467 0.00101429 0.000752058 0.000478155 0.000192583 -0.000104659 -0.000413569 -0.000734148 -0.0010664 -0.00141031 -0.00175311 -0.00208201 -0.002397 -0.0026981 -0.00298528 -0.00325857 -0.00351795 -0.00376343 -0.00398769 -0.00418341 -0.00435059 -0.00448923 -0.00459934 -0.0046809 -0.00473393 -0.00475842 -0.00475541 -0.00472596 -0.00467007 -0.00458772 -0.00447894 -0.00434371 -0.00418203 -0.0039939 -0.00378806 -0.00357322 -0.0033494 -0.00311657 -0.00287476 -0.00262395 -0.00236415 -0.00209536 -0.00183132 -0.00158578 -0.00135874 -0.00115021 -0.000960179 -0.00078865 -0.000635623 -0.000501097 -0.000383653 -0.000281867 -0.000195741 -0.000125274 -7.04668e-05 -3.13186e-05 -7.82965e-06 0 0 -9.41582e-06 -3.76633e-05 -8.47424e-05 -0.000150653 -0.000235395 -0.000338969 -0.000461375 -0.000602612 -0.000763892 -0.000946424 -0.00115021 -0.00137525 -0.00162154 -0.00188908 -0.00217788 -0.00248793 -0.00280251 -0.0031049 -0.0033951 -0.0036731 -0.00393891 -0.00419253 -0.00443396 -0.00466319 -0.00486967 -0.00504282 -0.00518264 -0.00528915 -0.00536232 -0.00540218 -0.0054087 -0.00538191 -0.00532071 -0.00522402 -0.00509186 -0.00492421 -0.00472108 -0.00448246 -0.00420837 -0.00389879 -0.00356316 -0.00321089 -0.002842 -0.00245647 -0.00205432 -0.00163554 -0.00120012 -0.00074808 -0.00029566 0.000140887 0.00056156 0.000966358 0.00135528 0.00172833 0.00208551 0.00242681 0.00273934 0.0030102 0.00323938 0.0034269 0.00357275 0.00367693 0.00373943 0.00376027 0.00373943 0.00367693 0.00357275 0.0034269 0.00323938 0.0030102 0.00273934 0.00242681 0.00208551 0.00172833 0.00135528 0.000966358 0.00056156 0.000140887 -0.000295659 -0.00074808 -0.00120012 -0.00163554 -0.00205432 -0.00245647 -0.002842 -0.00321089 -0.00356316 -0.00389879 -0.00420837 -0.00448247 -0.00472108 -0.00492421 -0.00509186 -0.00522402 -0.00532071 -0.00538191 -0.0054087 -0.00540218 -0.00536232 -0.00528915 -0.00518265 -0.00504282 -0.00486967 -0.00466319 -0.00443396 -0.00419253 -0.00393891 -0.0036731 -0.0033951 -0.0031049 -0.00280251 -0.00248793 -0.00217788 -0.00188909 -0.00162154 -0.00137525 -0.00115021 -0.000946425 -0.000763893 -0.000602613 -0.000461376 -0.00033897 -0.000235396 -0.000150653 -8.47424e-05 -3.76633e-05 -9.41583e-06 0 0 -1.11657e-05 -4.46627e-05 -0.000100491 -0.000178651 -0.000279142 -0.000401964 -0.000547118 -0.000714603 -0.000905275 -0.00111999 -0.00135874 -0.00162154 -0.00190838 -0.00221926 -0.00255418 -0.00291314 -0.00327609 -0.00362299 -0.00395381 -0.00426858 -0.00456729 -0.00484993 -0.00511651 -0.00536703 -0.00558888 -0.00576944 -0.0059087 -0.00600668 -0.00606337 -0.00607877 -0.00605288 -0.0059857 -0.00587616 -0.00572319 -0.00552679 -0.00528697 -0.00500371 -0.00467702 -0.0043069 -0.00389336 -0.00344829 -0.0029836 -0.0024993 -0.00199538 -0.00147185 -0.000928698 -0.000365932 0.000216449 0.000798155 0.00135889 0.00189866 0.00241746 0.0029153 0.00339216 0.00384806 0.00428299 0.00468091 0.00502577 0.00531758 0.00555633 0.00574203 0.00587467 0.00595425 0.00598078 0.00595425 0.00587467 0.00574203 0.00555633 0.00531758 0.00502577 0.00468091 0.00428299 0.00384806 0.00339216 0.0029153 0.00241746 0.00189866 0.00135889 0.000798155 0.000216449 -0.000365932 -0.000928698 -0.00147185 -0.00199538 -0.0024993 -0.0029836 -0.00344829 -0.00389336 -0.0043069 -0.00467702 -0.00500371 -0.00528697 -0.00552679 -0.00572319 -0.00587616 -0.0059857 -0.00605288 -0.00607877 -0.00606337 -0.00600668 -0.0059087 -0.00576944 -0.00558888 -0.00536704 -0.00511652 -0.00484993 -0.00456729 -0.00426858 -0.00395382 -0.00362299 -0.0032761 -0.00291314 -0.00255418 -0.00221926 -0.00190838 -0.00162154 -0.00135874 -0.00111999 -0.000905276 -0.000714604 -0.000547119 -0.000401965 -0.000279142 -0.000178651 -0.000100491 -4.46628e-05 -1.11657e-05 0 0 -1.30792e-05 -5.23169e-05 -0.000117713 -0.000209268 -0.000326981 -0.000470852 -0.000640882 -0.00083707 -0.00105977 -0.00130934 -0.00158578 -0.00188908 -0.00221926 -0.0025763 -0.00296021 -0.00337098 -0.0037849 -0.0041782 -0.00455091 -0.00490302 -0.00523453 -0.00554543 -0.00583573 -0.00610543 -0.00633967 -0.00652356 -0.00665711 -0.00674033 -0.0067732 -0.00675574 -0.00668793 -0.00656979 -0.00640029 -0.00617841 -0.00590415 -0.0055775 -0.00519848 -0.00476708 -0.00428329 -0.00374713 -0.00317334 -0.00257669 -0.00195719 -0.00131482 -0.000649585 3.85076e-05 0.000749461 0.00148328 0.00221505 0.00291987 0.00359774 0.00424866 0.00487263 0.00546965 0.00603972 0.00658284 0.00707938 0.00750972 0.00787385 0.00817178 0.0084035 0.00856901 0.00866832 0.00870142 0.00866832 0.00856901 0.0084035 0.00817178 0.00787385 0.00750972 0.00707938 0.00658284 0.00603972 0.00546965 0.00487263 0.00424866 0.00359774 0.00291987 0.00221505 0.00148328 0.000749461 3.85078e-05 -0.000649584 -0.00131482 -0.00195719 -0.00257669 -0.00317334 -0.00374713 -0.00428329 -0.00476708 -0.00519848 -0.0055775 -0.00590415 -0.00617841 -0.00640029 -0.00656979 -0.00668794 -0.00675574 -0.0067732 -0.00674033 -0.00665711 -0.00652356 -0.00633967 -0.00610544 -0.00583573 -0.00554543 -0.00523453 -0.00490302 -0.00455091 -0.00417821 -0.0037849 -0.00337099 -0.00296021 -0.0025763 -0.00221926 -0.00188909 -0.00158578 -0.00130934 -0.00105977 -0.000837071 -0.000640882 -0.000470852 -0.000326981 -0.000209268 -0.000117713 -5.23169e-05 -1.30792e-05 0 0 -1.51564e-05 -6.06258e-05 -0.000136408 -0.000242503 -0.000378911 -0.000545632 -0.000742666 -0.000970012 -0.00122738 -0.00151448 -0.00183132 -0.00217788 -0.00255418 -0.00296021 -0.00339597 -0.00386146 -0.00432892 -0.00477056 -0.00518639 -0.00557641 -0.00594062 -0.00627902 -0.00659161 -0.00687839 -0.00712202 -0.00730519 -0.00742787 -0.00749008 -0.00749182 -0.00743308 -0.00731387 -0.00713419 -0.0068931 -0.00658967 -0.00622391 -0.00579582 -0.00530539 -0.00475263 -0.00413753 -0.0034601 -0.00273832 -0.00199017 -0.00121566 -0.000414778 0.000412468 0.00126608 0.00214606 0.0030524 0.00395502 0.00482381 0.00565879 0.00645994 0.00722728 0.00796079 0.00866048 0.00932636 0.00993476 0.010462 0.0109082 0.0112732 0.0115572 0.01176 0.0118816 0.0119222 0.0118816 0.01176 0.0115572 0.0112732 0.0109082 0.010462 0.00993476 0.00932636 0.00866048 0.00796079 0.00722728 0.00645994 0.00565879 0.00482381 0.00395502 0.0030524 0.00214606 0.00126608 0.000412468 -0.000414778 -0.00121566 -0.00199017 -0.00273832 -0.0034601 -0.00413753 -0.00475263 -0.00530539 -0.00579582 -0.00622391 -0.00658967 -0.0068931 -0.00713419 -0.00731387 -0.00743309 -0.00749182 -0.00749009 -0.00742787 -0.00730519 -0.00712203 -0.00687839 -0.00659161 -0.00627903 -0.00594063 -0.00557642 -0.00518639 -0.00477056 -0.00432892 -0.00386146 -0.00339597 -0.00296021 -0.00255418 -0.00217788 -0.00183132 -0.00151448 -0.00122738 -0.000970013 -0.000742666 -0.000545632 -0.000378911 -0.000242503 -0.000136408 -6.06258e-05 -1.51565e-05 0 0 -1.73973e-05 -6.95894e-05 -0.000156576 -0.000278358 -0.000434934 -0.000626304 -0.00085247 -0.00111343 -0.0014081 -0.00173541 -0.00209536 -0.00248793 -0.00291314 -0.00337098 -0.00386146 -0.00438457 -0.00490816 -0.00540005 -0.00586025 -0.00628876 -0.00668558 -0.00705071 -0.00738415 -0.0076859 -0.00793596 -0.00811432 -0.00822098 -0.00825595 -0.00821923 -0.00811081 -0.00793069 -0.00767888 -0.00735458 -0.00695699 -0.0064861 -0.00594192 -0.00532445 -0.00463368 -0.00386963 -0.00303228 -0.00214322 -0.00122403 -0.000274716 0.000704732 0.00171431 0.00275402 0.00382385 0.00492382 0.00601806 0.00707073 0.00808181 0.00905131 0.00997924 0.0108656 0.0117104 0.0125135 0.013247 0.0138827 0.0144206 0.0148607 0.015203 0.0154475 0.0155942 0.0156431 0.0155942 0.0154475 0.015203 0.0148607 0.0144206 0.0138827 0.013247 0.0125135 0.0117104 0.0108656 0.00997924 0.00905131 0.00808181 0.00707073 0.00601806 0.00492382 0.00382385 0.00275402 0.00171431 0.000704732 -0.000274716 -0.00122403 -0.00214322 -0.00303228 -0.00386963 -0.00463368 -0.00532445 -0.00594192 -0.0064861 -0.00695699 -0.00735458 -0.00767889 -0.0079307 -0.00811081 -0.00821923 -0.00825596 -0.00822098 -0.00811432 -0.00793596 -0.0076859 -0.00738415 -0.00705071 -0.00668559 -0.00628876 -0.00586025 -0.00540005 -0.00490816 -0.00438458 -0.00386146 -0.00337099 -0.00291314 -0.00248793 -0.00209536 -0.00173541 -0.00140811 -0.00111343 -0.000852471 -0.000626305 -0.000434934 -0.000278358 -0.000156576 -6.95894e-05 -1.73974e-05 0 0 -1.96934e-05 -7.87736e-05 -0.000177241 -0.000315094 -0.000492335 -0.000708963 -0.000964977 -0.00126038 -0.00159308 -0.00196101 -0.00236415 -0.00280251 -0.00327609 -0.0037849 -0.00432892 -0.00490816 -0.00548571 -0.00602469 -0.00652507 -0.00698687 -0.00741009 -0.00779472 -0.00814076 -0.00844822 -0.00869422 -0.00885588 -0.0089332 -0.00892619 -0.00883483 -0.00865915 -0.00839912 -0.00805476 -0.00762551 -0.00711081 -0.00651066 -0.00582507 -0.00505404 -0.00419756 -0.00325564 -0.00222827 -0.00114117 -2.00645e-05 0.00113505 0.00232417 0.00354731 0.00480445 0.0060956 0.00742076 0.00873754 0.0100036 0.0112188 0.0123833 0.0134971 0.0145601 0.0155723 0.0165338 0.0174114 0.0181719 0.0188155 0.0193421 0.0197516 0.0200441 0.0202196 0.0202781 0.0202196 0.0200441 0.0197516 0.0193421 0.0188155 0.0181719 0.0174114 0.0165338 0.0155723 0.0145601 0.0134971 0.0123833 0.0112188 0.0100036 0.00873754 0.00742076 0.0060956 0.00480445 0.00354731 0.00232417 0.00113505 -2.00646e-05 -0.00114117 -0.00222827 -0.00325564 -0.00419756 -0.00505404 -0.00582508 -0.00651066 -0.00711081 -0.00762551 -0.00805476 -0.00839912 -0.00865915 -0.00883484 -0.00892619 -0.0089332 -0.00885588 -0.00869422 -0.00844822 -0.00814076 -0.00779472 -0.00741009 -0.00698688 -0.00652507 -0.00602469 -0.00548572 -0.00490816 -0.00432892 -0.0037849 -0.0032761 -0.00280251 -0.00236415 -0.00196101 -0.00159308 -0.00126038 -0.000964978 -0.000708963 -0.000492336 -0.000315095 -0.000177241 -7.87737e-05 -1.96934e-05 0 0 -2.19361e-05 -8.77444e-05 -0.000197425 -0.000350977 -0.000548402 -0.000789699 -0.00107487 -0.00140391 -0.00177345 -0.00218013 -0.00262395 -0.0031049 -0.00362298 -0.0041782 -0.00477056 -0.00540005 -0.00602469 -0.00660248 -0.00713344 -0.00761755 -0.00805482 -0.00844526 -0.00878885 -0.0090856 -0.00930956 -0.00943479 -0.00946128 -0.00938903 -0.00921805 -0.00894833 -0.00857988 -0.00811269 -0.00754664 -0.0068816 -0.00611758 -0.00525457 -0.00429257 -0.00323159 -0.00207162 -0.000812664 0.000514715 0.00187995 0.00328305 0.00472401 0.00620283 0.0077195 0.00927404 0.0108664 0.0124468 0.0139653 0.0154219 0.0168166 0.0181494 0.0194203 0.0206293 0.0217765 0.0228229 0.0237298 0.0244972 0.025125 0.0256134 0.0259622 0.0261714 0.0262412 0.0261714 0.0259622 0.0256134 0.025125 0.0244972 0.0237298 0.0228229 0.0217765 0.0206293 0.0194203 0.0181494 0.0168166 0.0154219 0.0139653 0.0124468 0.0108664 0.00927404 0.0077195 0.00620283 0.00472401 0.00328305 0.00187995 0.000514715 -0.000812664 -0.00207162 -0.00323159 -0.00429257 -0.00525457 -0.00611758 -0.0068816 -0.00754664 -0.00811269 -0.00857988 -0.00894833 -0.00921805 -0.00938903 -0.00946128 -0.00943479 -0.00930956 -0.0090856 -0.00878885 -0.00844526 -0.00805483 -0.00761755 -0.00713344 -0.00660248 -0.00602469 -0.00540005 -0.00477056 -0.00417821 -0.00362299 -0.0031049 -0.00262395 -0.00218014 -0.00177346 -0.00140391 -0.00107487 -0.0007897 -0.000548403 -0.000350978 -0.000197425 -8.77444e-05 -2.19361e-05 0 0 -2.41254e-05 -9.65016e-05 -0.000217129 -0.000386007 -0.000603135 -0.000868515 -0.00118215 -0.00154403 -0.00194922 -0.0023928 -0.00287476 -0.0033951 -0.00395381 -0.00455091 -0.00518639 -0.00586025 -0.00652507 -0.00713344 -0.00768534 -0.0081808 -0.00861979 -0.00900233 -0.00932841 -0.00959804 -0.00978199 -0.00985105 -0.00980521 -0.00964449 -0.00936887 -0.00897837 -0.00847297 -0.00785267 -0.00711798 -0.00626937 -0.00530684 -0.0042304 -0.00304004 -0.00173577 -0.000317575 0.00121453 0.00282443 0.00447602 0.00616929 0.00790424 0.00968087 0.0114992 0.0133592 0.0152609 0.0171459 0.0189559 0.020691 0.0223511 0.0239362 0.0254463 0.0268815 0.0282416 0.0294816 0.0305563 0.0314656 0.0322096 0.0327883 0.0332017 0.0334497 0.0335323 0.0334497 0.0332017 0.0327883 0.0322096 0.0314656 0.0305563 0.0294816 0.0282416 0.0268815 0.0254463 0.0239362 0.0223511 0.020691 0.0189559 0.0171459 0.0152609 0.0133592 0.0114992 0.00968087 0.00790424 0.00616929 0.00447602 0.00282443 0.00121453 -0.000317576 -0.00173577 -0.00304004 -0.0042304 -0.00530684 -0.00626937 -0.00711798 -0.00785268 -0.00847297 -0.00897837 -0.00936888 -0.00964449 -0.00980522 -0.00985105 -0.00978199 -0.00959804 -0.00932841 -0.00900233 -0.00861979 -0.0081808 -0.00768535 -0.00713344 -0.00652507 -0.00586025 -0.00518639 -0.00455091 -0.00395382 -0.0033951 -0.00287476 -0.0023928 -0.00194922 -0.00154403 -0.00118215 -0.000868515 -0.000603136 -0.000386007 -0.000217129 -9.65017e-05 -2.41254e-05 0 0 -2.62614e-05 -0.000105045 -0.000236352 -0.000420182 -0.000656534 -0.000945409 -0.00128681 -0.00168073 -0.00212039 -0.002599 -0.00311657 