<?xml version="1.0"?> 
<VTKFile type="StructuredGrid" version="0.1"> 
<StructuredGrid WholeExtent="0 128 0 128 0 0"> 
<Piece Extent="0 128 0 128 0 0"> 
<PointData>
<DataArray type="Float32" Name="u" format="ascii" NumberOfComponents="1"> 
0 0 0 0 0 0 0 0 0 0 0 0 0 0 0 0 0 0 0 0 0 0 0 0 0 0 0 0 0 0 0 0 0 0 0 0 0 0 0 0 0 0 0 0 0 0 0 0 0 0 0 0 0 0 0 0 0 0 0 0 0 0 0 0 0 0 0 0 0 0 0 0 0 0 0 0 0 0 0 0 0 0 0 0 0 0 0 0 0 0 0 0 0 0 0 0 0 0 0 0 0 0 0 0 0 0 0 0 0 0 0 0 0 0 0 0 0 0 0 0 0 0 0 0 0 0 0 0 0 0 -1.4945e-08 -5.97801e-08 -1.34505e-07 -2.3912e-07 -3.73625e-07 -5.38021e-07 -7.32306e-07 -9.56481e-07 -1.17132e-06 -1.3376e-06 -1.45532e-06 -1.52447e-06 -1.54507e-06 -1.51711e-06 -1.44058e-06 -1.31549e-06 -1.07376e-06 -6.47279e-07 -3.60598e-08 7.599e-07 1.7406e-06 2.90604e-06 4.25623e-06 5.79115e-06 7.4949e-06 9.35154e-06 1.13611e-05 1.35235e-05 1.58389e-05 1.83071e-05 2.09283e-05 2.37023e-05 2.657e-05 2.94719e-05 3.2408e-05 3.53784e-05 3.83831e-05 4.14221e-05 4.44953e-05 4.76027e-05 5.07112e-05 5.37875e-05 5.68315e-05 5.98432e-05 6.28228e-05 6.57701e-05 6.86851e-05 7.15679e-05 7.4374e-05 7.70587e-05 7.96222e-05 8.20643e-05 8.43852e-05 8.65847e-05 8.86629e-05 9.06199e-05 9.23977e-05 9.39384e-05 9.52421e-05 9.63088e-05 9.71384e-05 9.7731e-05 9.80865e-05 9.8205e-05 9.80865e-05 9.7731e-05 9.71384e-05 9.63088e-05 9.52421e-05 9.39384e-05 9.23977e-05 9.06199e-05 8.86629e-05 8.65847e-05 8.43852e-05 8.20643e-05 7.96222e-05 7.70587e-05 7.4374e-05 7.15679e-05 6.86851e-05 6.57701e-05 6.28228e-05 5.98432e-05 5.68315e-05 5.37875e-05 5.07112e-05 4.76027e-05 4.44953e-05 4.14221e-05 3.83831e-05 3.53784e-05 3.2408e-05 2.94719e-05 2.657e-05 2.37023e-05 2.09283e-05 1.83071e-05 1.58389e-05 1.35235e-05 1.13611e-05 9.35154e-06 7.4949e-06 5.79115e-06 4.25623e-06 2.90604e-06 1.7406e-06 7.599e-07 -3.60599e-08 -6.47279e-07 -1.07376e-06 -1.31549e-06 -1.44058e-06 -1.51711e-06 -1.54507e-06 -1.52448e-06 -1.45532e-06 -1.3376e-06 -1.17132e-06 -9.56481e-07 -7.32306e-07 -5.38021e-07 -3.73625e-07 -2.3912e-07 -1.34505e-07 -5.97801e-08 -1.4945e-08 0 0 -5.97801e-08 -2.3912e-07 -5.38021e-07 -9.56481e-07 -1.4945e-06 -2.15208e-06 -2.92922e-06 -3.82592e-06 -4.68528e-06 -5.3504e-06 -5.82127e-06 -6.0979e-06 -6.18028e-06 -6.06843e-06 -5.76232e-06 -5.26198e-06 -4.29503e-06 -2.58912e-06 -1.44239e-07 3.0396e-06 6.96241e-06 1.16242e-05 1.70249e-05 2.31646e-05 2.99796e-05 3.74062e-05 4.54444e-05 5.40942e-05 6.33556e-05 7.32286e-05 8.37132e-05 9.48094e-05 0.00010628 0.000117887 0.000129632 0.000141514 0.000153533 0.000165688 0.000177981 0.000190411 0.000202845 0.00021515 0.000227326 0.000239373 0.000251291 0.00026308 0.00027474 0.000286272 0.000297496 0.000308235 0.000318489 0.000328257 0.000337541 0.000346339 0.000354652 0.00036248 0.000369591 0.000375754 0.000380968 0.000385235 0.000388554 0.000390924 0.000392346 0.00039282 0.000392346 0.000390924 0.000388554 0.000385235 0.000380968 0.000375754 0.000369591 0.00036248 0.000354652 0.000346339 0.000337541 0.000328257 0.000318489 0.000308235 0.000297496 0.000286272 0.00027474 0.00026308 0.000251291 0.000239373 0.000227326 0.00021515 0.000202845 0.000190411 0.000177981 0.000165688 0.000153533 0.000141514 0.000129632 0.000117887 0.00010628 9.48094e-05 8.37132e-05 7.32286e-05 6.33556e-05 5.40942e-05 4.54444e-05 3.74062e-05 2.99796e-05 2.31646e-05 1.70249e-05 1.16242e-05 6.96241e-06 3.0396e-06 -1.4424e-07 -2.58912e-06 -4.29503e-06 -5.26198e-06 -5.76232e-06 -6.06843e-06 -6.18029e-06 -6.0979e-06 -5.82127e-06 -5.3504e-06 -4.68528e-06 -3.82592e-06 -2.92922e-06 -2.15208e-06 -1.4945e-06 -9.56481e-07 -5.38021e-07 -2.3912e-07 -5.97801e-08 0 0 -1.34505e-07 -5.38021e-07 -1.21055e-06 -2.15208e-06 -3.36263e-06 -4.84219e-06 -6.59075e-06 -8.60833e-06 -1.05419e-05 -1.20384e-05 -1.30979e-05 -1.37203e-05 -1.39056e-05 -1.3654e-05 -1.29652e-05 -1.18395e-05 -9.66382e-06 -5.82551e-06 -3.24538e-07 6.8391e-06 1.56654e-05 2.61544e-05 3.8306e-05 5.21204e-05 6.74541e-05 8.41639e-05 0.00010225 0.000121712 0.00014255 0.000164764 0.000188355 0.000213321 0.00023913 0.000265247 0.000291672 0.000318406 0.000345448 0.000372799 0.000400457 0.000428425 0.000456401 0.000484087 0.000511483 0.000538589 0.000565405 0.00059193 0.000618166 0.000644111 0.000669366 0.000693529 0.0007166 0.000738579 0.000759466 0.000779262 0.000797967 0.000815579 0.000831579 0.000845446 0.000857179 0.000866779 0.000874245 0.000879579 0.000882779 0.000883845 0.000882779 0.000879579 0.000874245 0.000866779 0.000857179 0.000845446 0.000831579 0.000815579 0.000797967 0.000779262 0.000759466 0.000738579 0.0007166 0.000693529 0.000669366 0.000644111 0.000618166 0.00059193 0.000565405 0.000538589 0.000511483 0.000484087 0.000456401 0.000428425 0.000400457 0.000372799 0.000345448 0.000318406 0.000291672 0.000265247 0.00023913 0.000213321 0.000188355 0.000164764 0.00014255 0.000121712 0.00010225 8.41639e-05 6.74541e-05 5.21204e-05 3.8306e-05 2.61544e-05 1.56654e-05 6.8391e-06 -3.24539e-07 -5.82551e-06 -9.66382e-06 -1.18395e-05 -1.29652e-05 -1.3654e-05 -1.39056e-05 -1.37203e-05 -1.30979e-05 -1.20384e-05 -1.05419e-05 -8.60833e-06 -6.59075e-06 -4.84219e-06 -3.36263e-06 -2.15208e-06 -1.21055e-06 -5.38021e-07 -1.34505e-07 0 0 -2.3912e-07 -9.56481e-07 -2.15208e-06 -3.82592e-06 -5.97801e-06 -8.60833e-06 -1.17169e-05 -1.53037e-05 -1.87411e-05 -2.14016e-05 -2.32851e-05 -2.43916e-05 -2.47211e-05 -2.42737e-05 -2.30493e-05 -2.10479e-05 -1.71801e-05 -1.03565e-05 -5.76957e-07 1.21584e-05 2.78496e-05 4.64967e-05 6.80996e-05 9.26584e-05 0.000119918 0.000149625 0.000181777 0.000216377 0.000253422 0.000292914 0.000334853 0.000379237 0.00042512 0.00047155 0.000518528 0.000566055 0.00061413 0.000662753 0.000711924 0.000761644 0.000811379 0.000860599 0.000909303 0.000957492 0.00100516 0.00105232 0.00109896 0.00114509 0.00118998 0.00123294 0.00127395 0.00131303 0.00135016 0.00138536 0.00141861 0.00144992 0.00147836 0.00150301 0.00152387 0.00154094 0.00155421 0.0015637 0.00156938 0.00157128 0.00156938 0.0015637 0.00155421 0.00154094 0.00152387 0.00150301 0.00147836 0.00144992 0.00141861 0.00138536 0.00135016 0.00131303 0.00127395 0.00123294 0.00118998 0.00114509 0.00109896 0.00105232 0.00100516 0.000957492 0.000909303 0.000860599 0.000811379 0.000761644 0.000711924 0.000662753 0.00061413 0.000566055 0.000518528 0.00047155 0.00042512 0.000379237 0.000334853 0.000292914 0.000253422 0.000216377 0.000181777 0.000149625 0.000119918 9.26584e-05 6.80996e-05 4.64967e-05 2.78496e-05 1.21584e-05 -5.76958e-07 -1.03565e-05 -1.71801e-05 -2.10479e-05 -2.30493e-05 -2.42737e-05 -2.47211e-05 -2.43916e-05 -2.32851e-05 -2.14016e-05 -1.87411e-05 -1.53037e-05 -1.17169e-05 -8.60833e-06 -5.97801e-06 -3.82592e-06 -2.15208e-06 -9.56481e-07 -2.3912e-07 0 0 -3.73625e-07 -1.4945e-06 -3.36263e-06 -5.97801e-06 -9.34063e-06 -1.34505e-05 -1.83076e-05 -2.3912e-05 -2.9283e-05 -3.344e-05 -3.63829e-05 -3.81119e-05 -3.86268e-05 -3.79277e-05 -3.60145e-05 -3.28874e-05 -2.68439e-05 -1.6182e-05 -9.01495e-07 1.89975e-05 4.3515e-05 7.26511e-05 0.000106406 0.000144779 0.000187372 0.000233789 0.000284027 0.000338088 0.000395972 0.000457678 0.000523207 0.000592559 0.000664249 0.000736797 0.000810201 0.000884461 0.000959578 0.00103555 0.00111238 0.00119007 0.00126778 0.00134469 0.00142079 0.00149608 0.00157057 0.00164425 0.00171713 0.0017892 0.00185935 0.00192647 0.00199055 0.00205161 0.00210963 0.00216462 0.00221657 0.0022655 0.00230994 0.00234846 0.00238105 0.00240772 0.00242846 0.00244327 0.00245216 0.00245513 0.00245216 0.00244327 0.00242846 0.00240772 0.00238105 0.00234846 0.00230994 0.0022655 0.00221657 0.00216462 0.00210963 0.00205161 0.00199055 0.00192647 0.00185935 0.0017892 0.00171713 0.00164425 0.00157057 0.00149608 0.00142079 0.00134469 0.00126778 0.00119007 0.00111238 0.00103555 0.000959578 0.000884461 0.000810201 0.000736797 0.000664249 0.000592559 0.000523207 0.000457678 0.000395972 0.000338088 0.000284027 0.000233789 0.000187372 0.000144779 0.000106406 7.26511e-05 4.3515e-05 1.89975e-05 -9.01497e-07 -1.6182e-05 -2.68439e-05 -3.28874e-05 -3.60145e-05 -3.79277e-05 -3.86268e-05 -3.81119e-05 -3.63829e-05 -3.344e-05 -2.9283e-05 -2.3912e-05 -1.83076e-05 -1.34505e-05 -9.34064e-06 -5.97801e-06 -3.36263e-06 -1.4945e-06 -3.73625e-07 0 0 -5.38021e-07 -2.15208e-06 -4.84219e-06 -8.60833e-06 -1.34505e-05 -1.93687e-05 -2.6363e-05 -3.44333e-05 -4.21675e-05 -4.81536e-05 -5.23914e-05 -5.48811e-05 -5.56226e-05 -5.46158e-05 -5.18609e-05 -4.73578e-05 -3.86553e-05 -2.3302e-05 -1.29815e-06 2.73564e-05 6.26617e-05 0.000104618 0.000153224 0.000208481 0.000269816 0.000336656 0.000408999 0.000486847 0.0005702 0.000659057 0.000753418 0.000853284 0.000956519 0.00106099 0.00116669 0.00127362 0.00138179 0.00149119 0.00160183 0.0017137 0.0018256 0.00193635 0.00204593 0.00215436 0.00226162 0.00236772 0.00247266 0.00257645 0.00267746 0.00277411 0.0028664 0.00295432 0.00303787 0.00311705 0.00319187 0.00326232 0.00332632 0.00338178 0.00342872 0.00346712 0.00349698 0.00351831 0.00353111 0.00353538 0.00353111 0.00351831 0.00349698 0.00346712 0.00342872 0.00338178 0.00332632 0.00326232 0.00319187 0.00311705 0.00303787 0.00295432 0.0028664 0.00277411 0.00267746 0.00257645 0.00247266 0.00236772 0.00226162 0.00215436 0.00204593 0.00193635 0.0018256 0.0017137 0.00160183 0.00149119 0.00138179 0.00127362 0.00116669 0.00106099 0.000956519 0.000853284 0.000753418 0.000659057 0.0005702 0.000486847 0.000408999 0.000336656 0.000269816 0.000208481 0.000153224 0.000104618 6.26617e-05 2.73564e-05 -1.29816e-06 -2.33021e-05 -3.86553e-05 -4.73578e-05 -5.18609e-05 -5.46158e-05 -5.56226e-05 -5.48811e-05 -5.23914e-05 -4.81536e-05 -4.21676e-05 -3.44333e-05 -2.6363e-05 -1.93687e-05 -1.34505e-05 -8.60833e-06 -4.84219e-06 -2.15208e-06 -5.38021e-07 0 0 -7.32306e-07 -2.92922e-06 -6.59075e-06 -1.17169e-05 -1.83076e-05 -2.6363e-05 -3.5883e-05 -4.68676e-05 -5.73947e-05 -6.55424e-05 -7.13106e-05 -7.46993e-05 -7.57085e-05 -7.43382e-05 -7.05885e-05 -6.44592e-05 -5.26141e-05 -3.17167e-05 -1.76693e-06 3.72351e-05 8.52895e-05 0.000142396 0.000208555 0.000283766 0.00036725 0.000458226 0.000556693 0.000662653 0.000776105 0.00089705 0.00102549 0.00116141 0.00130193 0.00144412 0.00158799 0.00173354 0.00188077 0.00202968 0.00218027 0.00233253 0.00248485 0.00263559 0.00278474 0.00293232 0.00307832 0.00322273 0.00336557 0.00350683 0.00364432 0.00377588 0.00390149 0.00402115 0.00413487 0.00424265 0.00434448 0.00444037 0.00452749 0.00460298 0.00466686 0.00471913 0.00475978 0.00478882 0.00480624 0.00481205 0.00480624 0.00478882 0.00475978 0.00471913 0.00466686 0.00460298 0.00452749 0.00444037 0.00434448 0.00424265 0.00413487 0.00402115 0.00390149 0.00377588 0.00364432 0.00350683 0.00336557 0.00322273 0.00307832 0.00293232 0.00278474 0.00263559 0.00248485 0.00233253 0.00218027 0.00202968 0.00188077 0.00173354 0.00158799 0.00144412 0.00130193 0.00116141 0.00102549 0.00089705 0.000776105 0.000662653 0.000556693 0.000458226 0.00036725 0.000283766 0.000208555 0.000142396 8.52895e-05 3.72351e-05 -1.76693e-06 -3.17167e-05 -5.26141e-05 -6.44592e-05 -7.05885e-05 -7.43382e-05 -7.57085e-05 -7.46993e-05 -7.13106e-05 -6.55424e-05 -5.73947e-05 -4.68676e-05 -3.5883e-05 -2.6363e-05 -1.83076e-05 -1.17169e-05 -6.59075e-06 -2.92922e-06 -7.32306e-07 0 0 -9.56481e-07 -3.82592e-06 -8.60833e-06 -1.53037e-05 -2.3912e-05 -3.44333e-05 -4.68676e-05 -6.12148e-05 -7.49645e-05 -8.56064e-05 -9.31403e-05 -9.75664e-05 -9.88846e-05 -9.70948e-05 -9.21972e-05 -8.41917e-05 -6.87205e-05 -4.14259e-05 -2.30783e-06 4.86336e-05 0.000111399 0.000185987 0.000272399 0.000370634 0.000479673 0.000598499 0.00072711 0.000865506 0.00101369 0.00117166 0.00133941 0.00151695 0.00170048 0.0018862 0.00207411 0.00226422 0.00245652 0.00265101 0.0028477 0.00304658 0.00324552 0.0034424 0.00363721 0.00382997 0.00402066 0.00420928 0.00439585 0.00458035 0.00475993 0.00493176 0.00509582 0.00525212 0.00540065 0.00554142 0.00567443 0.00579967 0.00591345 0.00601206 0.00609549 0.00616376 0.00621686 0.00625478 0.00627754 0.00628512 0.00627754 0.00625478 0.00621686 0.00616376 0.00609549 0.00601206 0.00591345 0.00579967 0.00567443 0.00554142 0.00540065 0.00525212 0.00509582 0.00493176 0.00475993 0.00458035 0.00439585 0.00420928 0.00402066 0.00382997 0.00363721 0.0034424 0.00324552 0.00304658 0.0028477 0.00265101 0.00245652 0.00226422 0.00207411 0.0018862 0.00170048 0.00151695 0.00133941 0.00117166 0.00101369 0.000865506 0.00072711 0.000598499 0.000479673 0.000370634 0.000272399 0.000185987 0.000111398 4.86336e-05 -2.30783e-06 -4.14259e-05 -6.87205e-05 -8.41917e-05 -9.21972e-05 -9.70948e-05 -9.88846e-05 -9.75664e-05 -9.31403e-05 -8.56064e-05 -7.49645e-05 -6.12148e-05 -4.68676e-05 -3.44333e-05 -2.3912e-05 -1.53037e-05 -8.60833e-06 -3.82592e-06 -9.56481e-07 0 0 -1.17132e-06 -4.68528e-06 -1.05419e-05 -1.87411e-05 -2.9283e-05 -4.21675e-05 -5.73947e-05 -7.49645e-05 -9.17083e-05 -0.000104457 -0.000113212 -0.000117971 -0.000118736 -0.000115506 -0.000108282 -9.70624e-05 -7.67425e-05 -4.22161e-05 6.51681e-06 6.94562e-05 0.000146602 0.000237955 0.000343514 0.000463279 0.000595653 0.000739039 0.000893436 0.00105885 0.00123526 0.0014227 0.00162114 0.00183059 0.00204661 0.00226473 0.00248497 0.00270732 0.00293178 0.00315834 0.00338702 0.00361781 0.0038487 0.00407765 0.00430468 0.00452978 0.00475296 0.00497421 0.00519353 0.00541092 0.00562306 0.00582661 0.00602158 0.00620795 0.00638574 0.00655494 0.00671555 0.00686758 0.00700608 0.00712611 0.00722768 0.00731078 0.00737541 0.00742158 0.00744928 0.00745851 0.00744928 0.00742158 0.00737541 0.00731078 0.00722768 0.00712611 0.00700608 0.00686758 0.00671555 0.00655494 0.00638574 0.00620795 0.00602158 0.00582661 0.00562306 0.00541092 0.00519353 0.00497421 0.00475296 0.00452978 0.00430468 0.00407765 0.0038487 0.00361781 0.00338702 0.00315834 0.00293178 0.00270732 0.00248497 0.00226473 0.00204661 0.00183059 0.00162114 0.0014227 0.00123526 0.00105885 0.000893436 0.000739039 0.000595653 0.000463279 0.000343514 0.000237955 0.000146602 6.94562e-05 6.5168e-06 -4.22161e-05 -7.67425e-05 -9.70625e-05 -0.000108282 -0.000115506 -0.000118736 -0.000117971 -0.000113212 -0.000104457 -9.17083e-05 -7.49645e-05 -5.73947e-05 -4.21676e-05 -2.9283e-05 -1.87411e-05 -1.05419e-05 -4.68528e-06 -1.17132e-06 0 0 -1.3376e-06 -5.3504e-06 -1.20384e-05 -2.14016e-05 -3.344e-05 -4.81536e-05 -6.55424e-05 -8.56064e-05 -0.000104457 -0.000118207 -0.000126856 -0.000130403 -0.000128849 -0.000122193 -0.000110437 -9.3579e-05 -6.64485e-05 -2.38739e-05 3.41446e-05 0.000107607 0.000196514 0.000300865 0.00042066 0.000555898 0.000703757 0.000861412 0.00102886 0.00120611 0.00139315 0.00158999 0.00179662 0.00201305 0.00223476 0.00245724 0.00268048 0.0029045 0.00312928 0.00335484 0.00358116 0.00380824 0.00403547 0.00426222 0.00448848 0.00471425 0.00493954 0.00516434 0.00538865 0.00561248 0.00583248 0.0060453 0.00625094 0.0064494 0.00664068 0.00682479 0.00700172 0.00717147 0.00732724 0.00746225 0.00757648 0.00766995 0.00774264 0.00779457 0.00782572 0.00783611 0.00782572 0.00779457 0.00774264 0.00766995 0.00757648 0.00746225 0.00732724 0.00717147 0.00700172 0.00682479 0.00664068 0.0064494 0.00625094 0.0060453 0.00583248 0.00561248 0.00538865 0.00516434 0.00493954 0.00471425 0.00448848 0.00426222 0.00403547 0.00380824 0.00358116 0.00335484 0.00312928 0.0029045 0.00268048 0.00245724 0.00223476 0.00201305 0.00179662 0.00158999 0.00139315 0.00120611 0.00102886 0.000861412 0.000703757 0.000555898 0.00042066 0.000300865 0.000196514 0.000107607 3.41446e-05 -2.3874e-05 -6.64485e-05 -9.3579e-05 -0.000110437 -0.000122193 -0.000128849 -0.000130403 -0.000126856 -0.000118207 -0.000104457 -8.56064e-05 -6.55424e-05 -4.81536e-05 -3.344e-05 -2.14016e-05 -1.20384e-05 -5.3504e-06 -1.3376e-06 0 0 -1.45532e-06 -5.82127e-06 -1.30979e-05 -2.32851e-05 -3.63829e-05 -5.23914e-05 -7.13106e-05 -9.31403e-05 -0.000113212 -0.000126856 -0.000134072 -0.000134861 -0.000129222 -0.000117156 -9.86623e-05 -7.37412e-05 -3.78383e-05 1.36006e-05 8.05757e-05 0.000163087 0.000261134 0.000374717 0.000503836 0.000648492 0.000803984 0.000965616 0.00113339 0.00130729 0.00148734 0.00167353 0.00186585 0.00206431 0.00226493 0.00246371 0.00266065 0.00285577 0.00304904 0.00324049 0.00343009 0.00361787 0.00380585 0.0039961 0.0041886 0.00438337 0.00458039 0.00477967 0.00498122 0.00518502 0.00538818 0.00558781 0.00578391 0.00597646 0.00616548 0.00635097 0.00653292 0.00671133 0.00687694 0.00702046 0.00714191 0.00724127 0.00731855 0.00737375 0.00740688 0.00741792 0.00740688 0.00737375 0.00731855 0.00724127 0.00714191 0.00702046 0.00687694 0.00671133 0.00653292 0.00635097 0.00616548 0.00597646 0.00578391 0.00558781 0.00538818 0.00518502 0.00498122 0.00477967 0.00458039 0.00438337 0.0041886 0.0039961 0.00380585 0.00361787 0.00343009 0.00324049 0.00304904 0.00285577 0.00266065 0.00246371 0.00226493 0.00206431 0.00186585 0.00167353 0.00148734 0.00130729 0.00113339 0.000965616 0.000803984 0.000648492 0.000503836 0.000374717 0.000261134 0.000163087 8.05757e-05 1.36006e-05 -3.78383e-05 -7.37412e-05 -9.86623e-05 -0.000117156 -0.000129222 -0.000134861 -0.000134072 -0.000126856 -0.000113212 -9.31403e-05 -7.13106e-05 -5.23914e-05 -3.63829e-05 -2.32851e-05 -1.30979e-05 -5.82127e-06 -1.45532e-06 0 0 -1.52447e-06 -6.0979e-06 -1.37203e-05 -2.43916e-05 -3.81119e-05 -5.48811e-05 -7.46993e-05 -9.75664e-05 -0.000117971 -0.000130403 -0.000134861 -0.000131345 -0.000119856 -0.000100394 -7.29584e-05 -3.75492e-05 9.08795e-06 7.02076e-05 0.00014581 0.000235895 0.000340462 0.000459512 0.000593044 0.000741059 0.000896335 0.00105165 0.00120701 0.0013624 0.00151784 0.00167332 0.00182883 0.00198439 0.00213712 0.00228415 0.00242548 0.00256112 0.00269105 0.00281529 0.00293383 0.00304668 0.00315983 0.00327929 0.00340506 0.00353713 0.00367552 0.00382022 0.00397122 0.00412854 0.00429018 0.00445416 0.00462048 0.00478914 0.00496014 0.00513348 0.00530916 0.00548718 0.00565517 0.00580076 0.00592395 0.00602475 0.00610314 0.00615914 0.00619274 0.00620394 0.00619274 0.00615914 0.00610314 0.00602475 0.00592395 0.00580076 0.00565517 0.00548718 0.00530916 0.00513348 0.00496014 0.00478914 0.00462048 0.00445416 0.00429018 0.00412854 0.00397122 0.00382022 0.00367552 0.00353713 0.00340506 0.00327929 0.00315983 0.00304668 0.00293383 0.00281529 0.00269105 0.00256112 0.00242548 0.00228415 0.00213712 0.00198439 0.00182883 0.00167332 0.00151784 0.0013624 0.00120701 0.00105165 0.000896335 0.000741059 0.000593044 0.000459512 0.000340462 0.000235895 0.00014581 7.02076e-05 9.08794e-06 -3.75492e-05 -7.29584e-05 -0.000100394 -0.000119856 -0.000131345 -0.000134861 -0.000130403 -0.000117971 -9.75664e-05 -7.46993e-05 -5.48811e-05 -3.81119e-05 -2.43916e-05 -1.37203e-05 -6.0979e-06 -1.52447e-06 0 0 -1.54507e-06 -6.18028e-06 -1.39056e-05 -2.47211e-05 -3.86268e-05 -5.56226e-05 -7.57085e-05 -9.88846e-05 -0.000118736 -0.000128849 -0.000129222 -0.000119856 -0.000100752 -7.19079e-05 -3.33249e-05 1.49971e-05 7.43303e-05 0.000145947 0.000229847 0.000326031 0.000434498 0.000555249 0.000688283 0.0008336 0.00098081 0.00111952 0.00124973 0.00137144 0.00148465 0.00158936 0.00168557 0.00177328 0.00185133 0.00191856 0.00197497 0.00202055 0.00205532 0.00207926 0.00209238 0.00209468 0.0020974 0.00211179 0.00213784 0.00217555 0.00222493 0.00228597 0.00235867 0.00244304 0.00253846 0.00264433 0.00276066 0.00288743 0.00302465 0.00317232 0.00333043 0.003499 0.00366193 0.00380314 0.00392262 0.00402038 0.00409641 0.00415072 0.00418331 0.00419417 0.00418331 0.00415072 0.00409641 0.00402038 0.00392262 0.00380314 0.00366193 0.003499 0.00333043 0.00317232 0.00302465 0.00288743 0.00276066 0.00264433 0.00253846 0.00244304 0.00235867 0.00228597 0.00222493 0.00217555 0.00213784 0.00211179 0.0020974 0.00209468 0.00209238 0.00207926 0.00205532 0.00202055 0.00197497 0.00191856 0.00185133 0.00177328 0.00168557 0.00158936 0.00148465 0.00137144 0.00124973 0.00111952 0.00098081 0.0008336 0.000688283 0.000555249 0.000434498 0.000326031 0.000229847 0.000145947 7.43303e-05 1.49971e-05 -3.33249e-05 -7.19079e-05 -0.000100752 -0.000119856 -0.000129222 -0.000128849 -0.000118736 -9.88846e-05 -7.57085e-05 -5.56226e-05 -3.86268e-05 -2.47211e-05 -1.39056e-05 -6.18028e-06 -1.54507e-06 0 0 -1.51711e-06 -6.06843e-06 -1.3654e-05 -2.42737e-05 -3.79277e-05 -5.46158e-05 -7.43382e-05 -9.70948e-05 -0.000115506 -0.000122193 -0.000117156 -0.000100394 -7.19079e-05 -3.16972e-05 2.0238e-05 8.38976e-05 0.000157889 0.000240819 0.000332688 0.000433496 0.000543242 0.000661928 0.000789552 0.000926116 0.00105741 0.00116922 0.00126155 0.0013344 0.00138776 0.00142165 0.00143606 0.00143098 0.00140756 0.00136694 0.00130911 0.00123407 0.00114183 0.00103238 0.000905733 0.000761877 0.000618578 0.000493602 0.000386949 0.000298618 0.000228609 0.000176923 0.000143559 0.000128518 0.000133033 0.00015834 0.000204439 0.000271329 0.000359011 0.000467484 0.000596749 0.000746805 0.000897229 0.0010276 0.00113791 0.00122816 0.00129836 0.0013485 0.00137859 0.00138861 0.00137859 0.0013485 0.00129836 0.00122816 0.00113791 0.0010276 0.000897229 0.000746805 0.000596749 0.000467484 0.000359011 0.000271329 0.000204439 0.00015834 0.000133033 0.000128518 0.000143559 0.000176923 0.000228609 0.000298618 0.000386949 0.000493602 0.000618578 0.000761877 0.000905733 0.00103238 0.00114183 0.00123407 0.00130911 0.00136694 0.00140756 0.00143098 0.00143606 0.00142165 0.00138776 0.0013344 0.00126155 0.00116922 0.00105741 0.000926116 0.000789552 0.000661928 0.000543242 0.000433496 0.000332688 0.000240819 0.000157889 8.38976e-05 2.0238e-05 -3.16971e-05 -7.19079e-05 -0.000100394 -0.000117156 -0.000122193 -0.000115506 -9.70948e-05 -7.43382e-05 -5.46158e-05 -3.79277e-05 -2.42737e-05 -1.3654e-05 -6.06843e-06 -1.51711e-06 0 0 -1.44058e-06 -5.76232e-06 -1.29652e-05 -2.30493e-05 -3.60145e-05 -5.18609e-05 -7.05885e-05 -9.21972e-05 -0.000108282 -0.000110437 -9.86623e-05 -7.29584e-05 -3.33249e-05 2.0238e-05 8.77304e-05 0.000169152 0.000259763 0.000354823 0.000454332 0.000558289 0.000666695 0.000779549 0.000896853 0.0010186 0.00112613 0.00120075 0.00124247 0.00125128 0.00122719 0.00117019 0.00108029 0.000957492 0.000805813 0.000629283 0.000427904 0.000201675 -4.94032e-05 -0.000325332 -0.00062611 -0.000951738 -0.00127665 -0.00157527 -0.00184761 -0.00209366 -0.00231343 -0.00250691 -0.00267411 -0.00281502 -0.00292611 -0.00300382 -0.00304817 -0.00305916 -0.00303677 -0.00298102 -0.0028919 -0.00276941 -0.00263894 -0.00252586 -0.00243018 -0.0023519 -0.00229101 -0.00224752 -0.00222143 -0.00221273 -0.00222143 -0.00224752 -0.00229101 -0.0023519 -0.00243018 -0.00252586 -0.00263894 -0.00276941 -0.0028919 -0.00298102 -0.00303677 -0.00305916 -0.00304817 -0.00300382 -0.00292611 -0.00281502 -0.00267411 -0.00250691 -0.00231343 -0.00209366 -0.00184761 -0.00157527 -0.00127665 -0.000951738 -0.00062611 -0.000325332 -4.94032e-05 0.000201675 0.000427904 0.000629283 0.000805813 0.000957492 0.00108029 0.00117019 0.00122719 0.00125128 0.00124247 0.00120075 0.00112613 0.0010186 0.000896853 0.000779549 0.000666695 0.000558289 0.000454332 0.000354823 0.000259763 0.000169152 8.77305e-05 2.0238e-05 -3.33249e-05 -7.29584e-05 -9.86623e-05 -0.000110437 -0.000108282 -9.21972e-05 -7.05885e-05 -5.18609e-05 -3.60145e-05 -2.30493e-05 -1.29652e-05 -5.76232e-06 -1.44058e-06 0 0 -1.31549e-06 -5.26198e-06 -1.18395e-05 -2.10479e-05 -3.28874e-05 -4.73578e-05 -6.44592e-05 -8.41917e-05 -9.70625e-05 -9.3579e-05 -7.37412e-05 -3.75492e-05 1.4997e-05 8.38976e-05 0.000169152 0.000270761 0.000379954 0.00048796 0.000594779 0.00070041 0.000804855 0.000908113 0.00101018 0.00111107 0.00118697 0.00121411 0.00119248 0.00112209 0.00100292 0.000834986 0.000618285 0.000352815 4.60843e-05 -0.000294401 -0.000668641 -0.00107664 -0.00151839 -0.00199389 -0.00250315 -0.00304616 -0.00358828 -0.00409484 -0.00456584 -0.0050013 -0.0054012 -0.00576555 -0.00609434 -0.00638758 -0.00663896 -0.00684216 -0.00699718 -0.00710403 -0.0071627 -0.00717319 -0.00713551 -0.00704965 -0.00694658 -0.00685724 -0.00678166 -0.00671981 -0.00667171 -0.00663735 -0.00661674 -0.00660986 -0.00661674 -0.00663735 -0.00667171 -0.00671981 -0.00678166 -0.00685724 -0.00694658 -0.00704965 -0.00713551 -0.00717319 -0.0071627 -0.00710403 -0.00699718 -0.00684216 -0.00663896 -0.00638758 -0.00609434 -0.00576555 -0.0054012 -0.0050013 -0.00456584 -0.00409484 -0.00358828 -0.00304616 -0.00250315 -0.00199389 -0.00151839 -0.00107664 -0.000668641 -0.000294401 4.60843e-05 0.000352815 0.000618285 0.000834986 0.00100292 0.00112209 0.00119248 0.00121411 0.00118697 0.00111107 0.00101018 0.000908113 0.000804855 0.00070041 0.000594779 0.00048796 0.000379954 0.000270761 0.000169152 8.38976e-05 1.49971e-05 -3.75492e-05 -7.37412e-05 -9.3579e-05 -9.70624e-05 -8.41917e-05 -6.44592e-05 -4.73578e-05 -3.28874e-05 -2.10479e-05 -1.18395e-05 -5.26198e-06 -1.31549e-06 0 0 -1.07376e-06 -4.29503e-06 -9.66382e-06 -1.71801e-05 -2.68439e-05 -3.86553e-05 -5.26141e-05 -6.87205e-05 -7.67425e-05 -6.64485e-05 -3.78383e-05 9.08794e-06 7.43303e-05 0.000157889 0.000259763 0.000379954 0.000505213 0.000622292 0.000731191 0.00083191 0.000924448 0.00100881 0.00108499 0.00115299 0.00118478 0.00115233 0.00105564 0.000894711 0.000669546 0.000380142 2.64989e-05 -0.000391383 -0.000862142 -0.00137442 -0.00192821 -0.00252352 -0.00316035 -0.0038387 -0.00455856 -0.00531994 -0.00608022 -0.00679678 -0.00746962 -0.00809874 -0.00868415 -0.00922584 -0.00972381 -0.0101781 -0.0105793 -0.0109183 -0.0111951 -0.0114095 -0.0115617 -0.0116517 -0.0116794 -0.0116448 -0.0115832 -0.0115298 -0.0114846 -0.0114477 -0.0114189 -0.0113984 -0.0113861 -0.011382 -0.0113861 -0.0113984 -0.0114189 -0.0114477 -0.0114846 -0.0115298 -0.0115832 -0.0116448 -0.0116794 -0.0116517 -0.0115617 -0.0114095 -0.0111951 -0.0109183 -0.0105793 -0.0101781 -0.00972381 -0.00922584 -0.00868415 -0.00809874 -0.00746962 -0.00679678 -0.00608022 -0.00531994 -0.00455856 -0.0038387 -0.00316035 -0.00252352 -0.00192821 -0.00137442 -0.000862142 -0.000391383 2.64989e-05 0.000380142 0.000669546 0.000894711 0.00105564 0.00115233 0.00118478 0.00115299 0.00108499 0.00100881 0.000924448 0.00083191 0.000731191 0.000622292 0.000505213 0.000379954 0.000259763 0.000157889 7.43303e-05 9.08796e-06 -3.78383e-05 -6.64485e-05 -7.67425e-05 -6.87205e-05 -5.26141e-05 -3.86553e-05 -2.68439e-05 -1.71801e-05 -9.66382e-06 -4.29503e-06 -1.07376e-06 0 0 -6.47279e-07 -2.58912e-06 -5.82551e-06 -1.03565e-05 -1.6182e-05 -2.33021e-05 -3.17167e-05 -4.14259e-05 -4.22161e-05 -2.3874e-05 1.36006e-05 7.02076e-05 0.000145947 0.000240819 0.000354823 0.00048796 0.000622292 0.000739882 0.000840729 0.000924835 0.000992199 0.00104282 0.0010767 0.00109384 0.00106436 0.000958408 0.000775971 0.000517053 0.000181653 -0.000230228 -0.000718591 -0.00128343 -0.00190939 -0.00258107 -0.00329849 -0.00406165 -0.00487054 -0.00572516 -0.00662552 -0.00757161 -0.00851638 -0.00941278 -0.0102608 -0.0110605 -0.0118118 -0.0125147 -0.0131692 -0.0137754 -0.014321 -0.014794 -0.0151943 -0.0155219 -0.0157769 -0.0159592 -0.0160688 -0.0161058 -0.0161064 -0.0161069 -0.0161073 -0.0161077 -0.0161079 -0.0161081 -0.0161082 -0.0161083 -0.0161082 -0.0161081 -0.0161079 -0.0161077 -0.0161073 -0.0161069 -0.0161064 -0.0161058 -0.0160688 -0.0159592 -0.0157769 -0.0155219 -0.0151943 -0.014794 -0.014321 -0.0137754 -0.0131692 -0.0125147 -0.0118118 -0.0110605 -0.0102608 -0.00941278 -0.00851638 -0.00757161 -0.00662552 -0.00572516 -0.00487054 -0.00406165 -0.00329849 -0.00258107 -0.00190939 -0.00128343 -0.000718591 -0.000230228 0.000181653 0.000517053 0.000775971 0.000958408 0.00106436 0.00109384 0.0010767 0.00104282 0.000992199 0.000924835 0.000840729 0.000739882 0.000622292 0.00048796 0.000354823 0.000240819 0.000145947 7.02077e-05 1.36006e-05 -2.38739e-05 -4.22161e-05 -4.14259e-05 -3.17167e-05 -2.3302e-05 -1.6182e-05 -1.03565e-05 -5.82551e-06 -2.58912e-06 -6.47279e-07 0 0 -3.60599e-08 -1.4424e-07 -3.24539e-07 -5.76958e-07 -9.01497e-07 -1.29816e-06 -1.76693e-06 -2.30783e-06 6.5168e-06 3.41446e-05 8.05757e-05 0.00014581 0.000229847 0.000332688 0.000454332 0.000594779 0.000731191 0.000840729 0.000923395 0.000979187 0.00100811 0.00101015 0.000985325 0.000933625 0.00082574 0.000632359 0.000353482 -1.08903e-05 -0.000460759 -0.000996124 -0.00161698 -0.00232334 -0.00309565 -0.00391436 -0.00477948 -0.00569101 -0.00664894 -0.00765328 -0.00870403 -0.00980118 -0.0108968 -0.0119429 -0.0129394 -0.0138865 -0.014784 -0.015632 -0.0164305 -0.0171795 -0.017864 -0.0184691 -0.0189949 -0.0194412 -0.0198081 -0.0200957 -0.0203038 -0.0204326 -0.0205161 -0.0205884 -0.0206496 -0.0206997 -0.0207387 -0.0207665 -0.0207832 -0.0207888 -0.0207832 -0.0207665 -0.0207387 -0.0206997 -0.0206496 -0.0205884 -0.0205161 -0.0204326 -0.0203038 -0.0200957 -0.0198081 -0.0194412 -0.0189949 -0.0184691 -0.017864 -0.0171795 -0.0164305 -0.015632 -0.014784 -0.0138865 -0.0129394 -0.0119429 -0.0108968 -0.00980118 -0.00870403 -0.00765328 -0.00664894 -0.00569101 -0.00477948 -0.00391436 -0.00309565 -0.00232334 -0.00161698 -0.000996124 -0.000460759 -1.08903e-05 0.000353482 0.000632359 0.00082574 0.000933625 0.000985325 0.00101015 0.00100811 0.000979187 0.000923395 0.000840729 0.000731191 0.000594779 0.000454332 0.000332688 0.000229847 0.00014581 8.05757e-05 3.41446e-05 6.51682e-06 -2.30782e-06 -1.76693e-06 -1.29815e-06 -9.01494e-07 -5.76956e-07 -3.24538e-07 -1.44239e-07 -3.60598e-08 0 0 7.599e-07 3.0396e-06 6.8391e-06 1.21584e-05 1.89975e-05 2.73564e-05 3.72351e-05 4.86336e-05 6.94562e-05 0.000107607 0.000163087 0.000235895 0.000326031 0.000433496 0.000558289 0.00070041 0.00083191 0.000924835 0.000979187 0.000994966 0.000972172 0.000910803 0.000810862 0.000672347 0.000468904 0.000174179 -0.000211828 -0.000689118 -0.00125769 -0.00191754 -0.00266868 -0.0035111 -0.00442093 -0.00537429 -0.00637118 -0.00741161 -0.00849557 -0.00962306 -0.0107941 -0.0120086 -0.0132214 -0.014387 -0.0155054 -0.0165767 -0.0176009 -0.0185779 -0.0195077 -0.0203904 -0.0212083 -0.0219438 -0.0225968 -0.0231674 -0.0236555 -0.0240612 -0.0243844 -0.0246252 -0.0248123 -0.0249744 -0.0251116 -0.0252239 -0.0253112 -0.0253736 -0.025411 -0.0254234 -0.025411 -0.0253736 -0.0253112 -0.0252239 -0.0251116 -0.0249744 -0.0248123 -0.0246252 -0.0243844 -0.0240612 -0.0236555 -0.0231674 -0.0225968 -0.0219438 -0.0212083 -0.0203904 -0.0195077 -0.0185779 -0.0176009 -0.0165767 -0.