<?xml version="1.0"?> 
<VTKFile type="StructuredGrid" version="0.1"> 
<StructuredGrid WholeExtent="0 128 0 128 0 0"> 
<Piece Extent="0 128 0 128 0 0"> 
<PointData>
<DataArray type="Float32" Name="u" format="ascii" NumberOfComponents="1"> 
0 0 0 0 0 0 0 0 0 0 0 0 0 0 0 0 0 0 0 0 0 0 0 0 0 0 0 0 0 0 0 0 0 0 0 0 0 0 0 0 0 0 0 0 0 0 0 0 0 0 0 0 0 0 0 0 0 0 0 0 0 0 0 0 0 0 0 0 0 0 0 0 0 0 0 0 0 0 0 0 0 0 0 0 0 0 0 0 0 0 0 0 0 0 0 0 0 0 0 0 0 0 0 0 0 0 0 0 0 0 0 0 0 0 0 0 0 0 0 0 0 0 0 0 0 0 0 0 0 0 5.38155e-08 2.15262e-07 4.84339e-07 8.61047e-07 1.34539e-06 1.93736e-06 2.63696e-06 3.44419e-06 4.27718e-06 5.05405e-06 5.77481e-06 6.43946e-06 7.04799e-06 7.60041e-06 8.09671e-06 8.53689e-06 8.77684e-06 8.67243e-06 8.22365e-06 7.43051e-06 6.29301e-06 4.81115e-06 2.98492e-06 8.14331e-07 -1.70279e-06 -4.56862e-06 -7.78314e-06 -1.13464e-05 -1.52583e-05 -1.9519e-05 -2.41283e-05 -2.90863e-05 -3.42932e-05 -3.96488e-05 -4.51532e-05 -5.08065e-05 -5.66086e-05 -6.25595e-05 -6.86592e-05 -7.49078e-05 -8.11837e-05 -8.73657e-05 -9.34537e-05 -9.94477e-05 -0.000105348 -0.000111154 -0.000116866 -0.000122484 -0.000127911 -0.000133048 -0.000137896 -0.000142455 -0.000146724 -0.000150705 -0.000154396 -0.000157797 -0.000160851 -0.000163498 -0.000165737 -0.000167569 -0.000168994 -0.000170012 -0.000170623 -0.000170826 -0.000170623 -0.000170012 -0.000168994 -0.000167569 -0.000165737 -0.000163498 -0.000160851 -0.000157797 -0.000154396 -0.000150705 -0.000146724 -0.000142455 -0.000137896 -0.000133048 -0.000127911 -0.000122484 -0.000116866 -0.000111154 -0.000105348 -9.94477e-05 -9.34537e-05 -8.73657e-05 -8.11837e-05 -7.49078e-05 -6.86592e-05 -6.25595e-05 -5.66086e-05 -5.08065e-05 -4.51532e-05 -3.96488e-05 -3.42932e-05 -2.90863e-05 -2.41283e-05 -1.9519e-05 -1.52583e-05 -1.13464e-05 -7.78314e-06 -4.56862e-06 -1.70279e-06 8.14331e-07 2.98492e-06 4.81115e-06 6.29301e-06 7.43051e-06 8.22365e-06 8.67243e-06 8.77684e-06 8.53689e-06 8.09671e-06 7.60041e-06 7.04799e-06 6.43946e-06 5.77481e-06 5.05405e-06 4.27718e-06 3.44419e-06 2.63696e-06 1.93736e-06 1.34539e-06 8.61047e-07 4.84339e-07 2.15262e-07 5.38155e-08 0 0 2.15262e-07 8.61047e-07 1.93736e-06 3.44419e-06 5.38155e-06 7.74943e-06 1.05478e-05 1.37768e-05 1.71087e-05 2.02162e-05 2.30993e-05 2.57578e-05 2.8192e-05 3.04016e-05 3.23868e-05 3.41476e-05 3.51074e-05 3.46897e-05 3.28946e-05 2.9722e-05 2.5172e-05 1.92446e-05 1.19397e-05 3.25733e-06 -6.81116e-06 -1.82745e-05 -3.11326e-05 -4.53855e-05 -6.10333e-05 -7.80758e-05 -9.65132e-05 -0.000116345 -0.000137173 -0.000158595 -0.000180613 -0.000203226 -0.000226434 -0.000250238 -0.000274637 -0.000299631 -0.000324735 -0.000349463 -0.000373815 -0.000397791 -0.000421391 -0.000444616 -0.000467464 -0.000489936 -0.000511643 -0.000532192 -0.000551584 -0.000569819 -0.000586897 -0.000602818 -0.000617583 -0.00063119 -0.000643404 -0.00065399 -0.000662948 -0.000670276 -0.000675976 -0.000680048 -0.000682491 -0.000683305 -0.000682491 -0.000680048 -0.000675976 -0.000670276 -0.000662948 -0.00065399 -0.000643404 -0.00063119 -0.000617583 -0.000602818 -0.000586897 -0.000569819 -0.000551584 -0.000532192 -0.000511643 -0.000489936 -0.000467464 -0.000444616 -0.000421391 -0.000397791 -0.000373815 -0.000349463 -0.000324735 -0.000299631 -0.000274637 -0.000250238 -0.000226434 -0.000203226 -0.000180613 -0.000158595 -0.000137173 -0.000116345 -9.65132e-05 -7.80758e-05 -6.10333e-05 -4.53855e-05 -3.11326e-05 -1.82745e-05 -6.81116e-06 3.25732e-06 1.19397e-05 1.92446e-05 2.5172e-05 2.9722e-05 3.28946e-05 3.46897e-05 3.51074e-05 3.41476e-05 3.23868e-05 3.04016e-05 2.8192e-05 2.57578e-05 2.30993e-05 2.02162e-05 1.71087e-05 1.37768e-05 1.05478e-05 7.74943e-06 5.38155e-06 3.44419e-06 1.93736e-06 8.61047e-07 2.15262e-07 0 0 4.84339e-07 1.93736e-06 4.35905e-06 7.74943e-06 1.21085e-05 1.74362e-05 2.37326e-05 3.09977e-05 3.84946e-05 4.54865e-05 5.19733e-05 5.79551e-05 6.34319e-05 6.84037e-05 7.28704e-05 7.6832e-05 7.89916e-05 7.80518e-05 7.40129e-05 6.68746e-05 5.66371e-05 4.33003e-05 2.68643e-05 7.32898e-06 -1.53251e-05 -4.11175e-05 -7.00483e-05 -0.000102117 -0.000137325 -0.000175671 -0.000217155 -0.000261777 -0.000308638 -0.000356839 -0.000406379 -0.000457258 -0.000509477 -0.000563035 -0.000617933 -0.00067417 -0.000730653 -0.000786291 -0.000841083 -0.00089503 -0.00094813 -0.00100038 -0.00105179 -0.00110236 -0.0011512 -0.00119743 -0.00124106 -0.00128209 -0.00132052 -0.00135634 -0.00138956 -0.00142018 -0.00144766 -0.00147148 -0.00149163 -0.00150812 -0.00152095 -0.00153011 -0.0015356 -0.00153744 -0.0015356 -0.00153011 -0.00152095 -0.00150812 -0.00149163 -0.00147148 -0.00144766 -0.00142018 -0.00138956 -0.00135634 -0.00132052 -0.00128209 -0.00124106 -0.00119743 -0.0011512 -0.00110236 -0.00105179 -0.00100038 -0.00094813 -0.00089503 -0.000841083 -0.000786291 -0.000730653 -0.00067417 -0.000617933 -0.000563035 -0.000509477 -0.000457258 -0.000406379 -0.000356839 -0.000308638 -0.000261777 -0.000217155 -0.000175671 -0.000137325 -0.000102117 -7.00483e-05 -4.11175e-05 -1.53251e-05 7.32898e-06 2.68643e-05 4.33003e-05 5.66371e-05 6.68746e-05 7.40128e-05 7.80518e-05 7.89916e-05 7.6832e-05 7.28704e-05 6.84037e-05 6.34319e-05 5.79551e-05 5.19733e-05 4.54865e-05 3.84946e-05 3.09977e-05 2.37326e-05 1.74362e-05 1.21085e-05 7.74943e-06 4.35905e-06 1.93736e-06 4.84339e-07 0 0 8.61047e-07 3.44419e-06 7.74943e-06 1.37768e-05 2.15262e-05 3.09977e-05 4.21913e-05 5.5107e-05 6.84349e-05 8.08649e-05 9.2397e-05 0.000103031 0.000112768 0.000121607 0.000129547 0.00013659 0.000140429 0.000138759 0.000131578 0.000118888 0.000100688 7.69783e-05 4.77587e-05 1.30293e-05 -2.72446e-05 -7.30978e-05 -0.00012453 -0.000181542 -0.000244133 -0.000312303 -0.000386053 -0.000465382 -0.000548691 -0.000634381 -0.000722452 -0.000812904 -0.000905737 -0.00100095 -0.00109855 -0.00119852 -0.00129894 -0.00139785 -0.00149526 -0.00159116 -0.00168556 -0.00177846 -0.00186986 -0.00195975 -0.00204657 -0.00212877 -0.00220633 -0.00227928 -0.00234759 -0.00241127 -0.00247033 -0.00252476 -0.00257362 -0.00261596 -0.00265179 -0.00268111 -0.00270391 -0.00272019 -0.00272996 -0.00273322 -0.00272996 -0.00272019 -0.00270391 -0.00268111 -0.00265179 -0.00261596 -0.00257362 -0.00252476 -0.00247033 -0.00241127 -0.00234759 -0.00227928 -0.00220633 -0.00212877 -0.00204657 -0.00195975 -0.00186986 -0.00177846 -0.00168556 -0.00159116 -0.00149526 -0.00139785 -0.00129894 -0.00119852 -0.00109855 -0.00100095 -0.000905737 -0.000812904 -0.000722452 -0.000634381 -0.000548691 -0.000465382 -0.000386053 -0.000312303 -0.000244133 -0.000181542 -0.00012453 -7.30978e-05 -2.72446e-05 1.30293e-05 4.77587e-05 7.69783e-05 0.000100688 0.000118888 0.000131578 0.000138759 0.000140429 0.00013659 0.000129547 0.000121606 0.000112768 0.000103031 9.2397e-05 8.08649e-05 6.84349e-05 5.5107e-05 4.21913e-05 3.09977e-05 2.15262e-05 1.37768e-05 7.74943e-06 3.44419e-06 8.61047e-07 0 0 1.34539e-06 5.38155e-06 1.21085e-05 2.15262e-05 3.36347e-05 4.84339e-05 6.59239e-05 8.61047e-05 0.000106929 0.000126351 0.00014437 0.000160987 0.0001762 0.00019001 0.000202418 0.000213422 0.000219421 0.000216811 0.000205591 0.000185763 0.000157325 0.000120279 7.4623e-05 2.03583e-05 -4.25698e-05 -0.000114215 -0.000194579 -0.000283659 -0.000381458 -0.000487974 -0.000603207 -0.000727159 -0.000857329 -0.00099122 -0.00112883 -0.00127016 -0.00141521 -0.00156399 -0.00171648 -0.00187269 -0.00202959 -0.00218414 -0.00233634 -0.00248619 -0.0026337 -0.00277885 -0.00292165 -0.0030621 -0.00319777 -0.0033262 -0.0034474 -0.00356137 -0.00366811 -0.00376761 -0.00385989 -0.00394494 -0.00402128 -0.00408744 -0.00414342 -0.00418923 -0.00422485 -0.0042503 -0.00426557 -0.00427066 -0.00426557 -0.0042503 -0.00422485 -0.00418923 -0.00414342 -0.00408744 -0.00402128 -0.00394494 -0.00385989 -0.00376761 -0.00366811 -0.00356137 -0.0034474 -0.0033262 -0.00319777 -0.0030621 -0.00292165 -0.00277885 -0.0026337 -0.00248619 -0.00233634 -0.00218414 -0.00202959 -0.00187269 -0.00171648 -0.00156399 -0.00141521 -0.00127016 -0.00112883 -0.00099122 -0.000857329 -0.000727159 -0.000603207 -0.000487974 -0.000381458 -0.000283659 -0.000194579 -0.000114215 -4.25698e-05 2.03583e-05 7.4623e-05 0.000120279 0.000157325 0.000185763 0.000205591 0.000216811 0.000219421 0.000213422 0.000202418 0.00019001 0.0001762 0.000160986 0.00014437 0.000126351 0.000106929 8.61047e-05 6.59239e-05 4.84339e-05 3.36347e-05 2.15262e-05 1.21085e-05 5.38155e-06 1.34539e-06 0 0 1.93736e-06 7.74943e-06 1.74362e-05 3.09977e-05 4.84339e-05 6.97448e-05 9.49305e-05 0.000123991 0.000153978 0.000181946 0.000207893 0.000231821 0.000253728 0.000273615 0.000291481 0.000307328 0.000315966 0.000312207 0.000296051 0.000267498 0.000226548 0.000173201 0.000107457 2.93159e-05 -6.13004e-05 -0.00016447 -0.000280193 -0.00040847 -0.000549299 -0.000702682 -0.000868619 -0.00104711 -0.00123455 -0.00142736 -0.00162552 -0.00182903 -0.00203791 -0.00225214 -0.00247173 -0.00269668 -0.00292261 -0.00314517 -0.00336433 -0.00358012 -0.00379252 -0.00400154 -0.00420718 -0.00440943 -0.00460478 -0.00478972 -0.00496425 -0.00512837 -0.00528207 -0.00542536 -0.00555824 -0.00568071 -0.00579064 -0.00588591 -0.00596653 -0.00603249 -0.00608379 -0.00612043 -0.00614242 -0.00614975 -0.00614242 -0.00612043 -0.00608379 -0.00603249 -0.00596653 -0.00588591 -0.00579064 -0.00568071 -0.00555824 -0.00542536 -0.00528207 -0.00512837 -0.00496425 -0.00478972 -0.00460478 -0.00440943 -0.00420718 -0.00400154 -0.00379252 -0.00358012 -0.00336433 -0.00314517 -0.00292261 -0.00269668 -0.00247173 -0.00225214 -0.00203791 -0.00182903 -0.00162552 -0.00142736 -0.00123455 -0.00104711 -0.000868619 -0.000702682 -0.000549299 -0.00040847 -0.000280193 -0.00016447 -6.13004e-05 2.93159e-05 0.000107457 0.000173201 0.000226548 0.000267498 0.000296051 0.000312207 0.000315966 0.000307328 0.000291481 0.000273615 0.000253728 0.000231821 0.000207893 0.000181946 0.000153978 0.000123991 9.49305e-05 6.97448e-05 4.84339e-05 3.09977e-05 1.74362e-05 7.74943e-06 1.93736e-06 0 0 2.63696e-06 1.05478e-05 2.37326e-05 4.21913e-05 6.59239e-05 9.49305e-05 0.000129211 0.000168765 0.000209582 0.000247649 0.000282966 0.000315534 0.000345352 0.00037242 0.000396739 0.000418308 0.000430065 0.000424949 0.000402959 0.000364095 0.000308357 0.000235746 0.000146261 3.99022e-05 -8.34367e-05 -0.000223862 -0.000381374 -0.000555972 -0.000747657 -0.000956429 -0.00118229 -0.00142523 -0.00168036 -0.00194279 -0.00221251 -0.00248952 -0.00277382 -0.00306541 -0.0033643 -0.00367048 -0.003978 -0.00428092 -0.00457923 -0.00487294 -0.00516204 -0.00544654 -0.00572643 -0.00600172 -0.00626762 -0.00651935 -0.0067569 -0.00698028 -0.00718949 -0.00738452 -0.00756539 -0.00773208 -0.0078817 -0.00801138 -0.00812111 -0.00821088 -0.00828071 -0.00833059 -0.00836051 -0.00837049 -0.00836051 -0.00833059 -0.00828071 -0.00821088 -0.00812111 -0.00801138 -0.0078817 -0.00773208 -0.00756539 -0.00738452 -0.00718949 -0.00698028 -0.0067569 -0.00651935 -0.00626762 -0.00600172 -0.00572643 -0.00544654 -0.00516204 -0.00487294 -0.00457923 -0.00428092 -0.003978 -0.00367048 -0.0033643 -0.00306541 -0.00277382 -0.00248952 -0.00221251 -0.00194279 -0.00168036 -0.00142523 -0.00118229 -0.000956429 -0.000747657 -0.000555972 -0.000381374 -0.000223862 -8.34367e-05 3.99022e-05 0.000146261 0.000235746 0.000308357 0.000364095 0.000402959 0.000424949 0.000430065 0.000418308 0.000396739 0.00037242 0.000345352 0.000315534 0.000282966 0.000247649 0.000209582 0.000168765 0.000129211 9.49305e-05 6.59239e-05 4.21913e-05 2.37326e-05 1.05478e-05 2.63696e-06 0 0 3.44419e-06 1.37768e-05 3.09977e-05 5.5107e-05 8.61047e-05 0.000123991 0.000168765 0.000220428 0.000273739 0.000323459 0.000369588 0.000412125 0.000451071 0.000486426 0.000518189 0.000546361 0.000561718 0.000555035 0.000526314 0.000475553 0.000402753 0.000307913 0.000191035 5.21172e-05 -0.000108979 -0.000292391 -0.000498121 -0.000726168 -0.000976532 -0.00124921 -0.00154421 -0.00186153 -0.00219476 -0.00253752 -0.00288981 -0.00325162 -0.00362295 -0.00400381 -0.00439419 -0.0047941 -0.00519576 -0.0055914 -0.00598104 -0.00636466 -0.00674226 -0.00711385 -0.00747942 -0.00783898 -0.00818628 -0.00851507 -0.00882534 -0.0091171 -0.00939035 -0.00964509 -0.00988132 -0.010099 -0.0102945 -0.0104638 -0.0106072 -0.0107244 -0.0108156 -0.0108808 -0.0109199 -0.0109329 -0.0109199 -0.0108808 -0.0108156 -0.0107244 -0.0106072 -0.0104638 -0.0102945 -0.010099 -0.00988132 -0.00964509 -0.00939035 -0.0091171 -0.00882534 -0.00851507 -0.00818628 -0.00783898 -0.00747942 -0.00711385 -0.00674226 -0.00636466 -0.00598104 -0.0055914 -0.00519576 -0.0047941 -0.00439419 -0.00400381 -0.00362295 -0.00325162 -0.00288981 -0.00253752 -0.00219476 -0.00186153 -0.00154421 -0.00124921 -0.000976532 -0.000726168 -0.000498121 -0.000292391 -0.000108979 5.21172e-05 0.000191035 0.000307913 0.000402753 0.000475553 0.000526314 0.000555035 0.000561718 0.000546361 0.000518189 0.000486426 0.000451071 0.000412125 0.000369588 0.000323459 0.000273739 0.000220428 0.000168765 0.000123991 8.61047e-05 5.5107e-05 3.09977e-05 1.37768e-05 3.44419e-06 0 0 4.27718e-06 1.71087e-05 3.84946e-05 6.84349e-05 0.000106929 0.000153978 0.000209582 0.000273739 0.000339775 0.000401012 0.00045745 0.00050909 0.000555931 0.000597973 0.000635217 0.000667662 0.000683866 0.000672387 0.000633225 0.000566379 0.000471851 0.000349639 0.000199744 2.21656e-05 -0.000183048 -0.000415851 -0.000676242 -0.000964222 -0.00127979 -0.00162295 -0.00199369 -0.00239203 -0.00281 -0.00323967 -0.00368104 -0.00413409 -0.00459885 -0.00507529 -0.00556343 -0.00606327 -0.00656533 -0.00706017 -0.00754776 -0.00802813 -0.00850125 -0.00896715 -0.00942581 -0.00987724 -0.0103136 -0.0107269 -0.0111173 -0.0114848 -0.0118293 -0.0121508 -0.0124493 -0.0127249 -0.0129726 -0.0131872 -0.0133687 -0.0135173 -0.0136328 -0.0137154 -0.0137649 -0.0137814 -0.0137649 -0.0137154 -0.0136328 -0.0135173 -0.0133687 -0.0131872 -0.0129726 -0.0127249 -0.0124493 -0.0121508 -0.0118293 -0.0114848 -0.0111173 -0.0107269 -0.0103136 -0.00987724 -0.00942581 -0.00896715 -0.00850125 -0.00802813 -0.00754776 -0.00706017 -0.00656533 -0.00606327 -0.00556343 -0.00507529 -0.00459885 -0.00413409 -0.00368104 -0.00323967 -0.00281 -0.00239203 -0.00199369 -0.00162295 -0.00127979 -0.000964222 -0.000676242 -0.000415851 -0.000183048 2.21656e-05 0.000199744 0.000349639 0.000471851 0.000566379 0.000633225 0.000672387 0.000683866 0.000667662 0.000635217 0.000597973 0.000555931 0.00050909 0.00045745 0.000401012 0.000339775 0.000273739 0.000209582 0.000153978 0.000106929 6.84349e-05 3.84946e-05 1.71087e-05 4.27718e-06 0 0 5.05405e-06 2.02162e-05 4.54865e-05 8.08649e-05 0.000126351 0.000181946 0.000247649 0.000323459 0.000401012 0.00047194 0.000536242 0.00059392 0.000644973 0.000689401 0.000727205 0.000758383 0.000769452 0.000746924 0.000690801 0.000601083 0.000477769 0.000320859 0.000130353 -9.37477e-05 -0.000350769 -0.000640035 -0.000961545 -0.0013153 -0.0017013 -0.00211954 -0.00257003 -0.00305276 -0.00355834 -0.00407736 -0.00460982 -0.00515572 -0.00571506 -0.00628785 -0.00687407 -0.00747374 -0.00807618 -0.00867074 -0.00925742 -0.00983621 -0.0104071 -0.0109701 -0.0115253 -0.0120725 -0.0126023 -0.013105 -0.0135807 -0.0140293 -0.0144508 -0.0148453 -0.0152128 -0.0155532 -0.0158596 -0.0161251 -0.0163499 -0.0165337 -0.0166767 -0.0167789 -0.0168401 -0.0168606 -0.0168401 -0.0167789 -0.0166767 -0.0165337 -0.0163499 -0.0161251 -0.0158596 -0.0155532 -0.0152128 -0.0148453 -0.0144508 -0.0140293 -0.0135807 -0.013105 -0.0126023 -0.0120725 -0.0115253 -0.0109701 -0.0104071 -0.00983621 -0.00925742 -0.00867074 -0.00807618 -0.00747374 -0.00687407 -0.00628785 -0.00571506 -0.00515572 -0.00460982 -0.00407736 -0.00355834 -0.00305276 -0.00257003 -0.00211954 -0.0017013 -0.0013153 -0.000961545 -0.000640035 -0.000350769 -9.37477e-05 0.000130353 0.000320859 0.000477769 0.000601083 0.000690801 0.000746924 0.000769452 0.000758383 0.000727205 0.000689401 0.000644973 0.00059392 0.000536242 0.000471939 0.000401012 0.000323459 0.000247649 0.000181946 0.000126351 8.08649e-05 4.54865e-05 2.02162e-05 5.05405e-06 0 0 5.77481e-06 2.30993e-05 5.19733e-05 9.2397e-05 0.00014437 0.000207893 0.000282966 0.000369588 0.00045745 0.000536242 0.000605964 0.000666617 0.000718199 0.000760711 0.000794153 0.000818525 0.000818475 0.000778647 0.000699043 0.000579663 0.000420506 0.000221573 -1.71367e-05 -0.000295623 -0.00061214 -0.000964942 -0.00135403 -0.0017794 -0.00224106 -0.002739 -0.00327323 -0.00384374 -0.00443978 -0.00505058 -0.00567615 -0.00631649 -0.0069716 -0.00764147 -0.0083261 -0.0090255 -0.00972831 -0.0104231 -0.01111 -0.0117889 -0.0124598 -0.0131228 -0.0137778 -0.0144248 -0.0150524 -0.0156493 -0.0162153 -0.0167506 -0.0172551 -0.0177287 -0.0181716 -0.0185837 -0.0189555 -0.0192778 -0.0195505 -0.0197737 -0.0199472 -0.0200712 -0.0201456 -0.0201703 -0.0201456 -0.0200712 -0.0199472 -0.0197737 -0.0195505 -0.0192778 -0.0189555 -0.0185837 -0.0181716 -0.0177287 -0.0172551 -0.0167506 -0.0162153 -0.0156493 -0.0150524 -0.0144248 -0.0137778 -0.0131228 -0.0124598 -0.0117889 -0.01111 -0.0104231 -0.00972831 -0.0090255 -0.0083261 -0.00764147 -0.0069716 -0.00631649 -0.00567615 -0.00505058 -0.00443978 -0.00384374 -0.00327323 -0.002739 -0.00224106 -0.0017794 -0.00135403 -0.000964942 -0.00061214 -0.000295623 -1.71367e-05 0.000221573 0.000420506 0.000579663 0.000699043 0.000778647 0.000818474 0.000818525 0.000794153 0.000760711 0.000718199 0.000666616 0.000605964 0.000536242 0.00045745 0.000369588 0.000282966 0.000207893 0.00014437 9.2397e-05 5.19733e-05 2.30993e-05 5.77481e-06 0 0 6.43946e-06 2.57578e-05 5.79551e-05 0.000103031 0.000160987 0.000231821 0.000315534 0.000412125 0.00050909 0.00059392 0.000666617 0.000727179 0.000775607 0.000811902 0.000836062 0.000848088 0.000830935 0.000767556 0.000657951 0.00050212 0.000300064 5.17816e-05 -0.000242726 -0.00058346 -0.000967161 -0.00139057 -0.00185369 -0.00235653 -0.00289907 -0.00348132 -0.00410328 -0.00476495 -0.00545432 -0.00615935 -0.00688005 -0.00761641 -0.00836845 -0.00913615 -0.00991953 -0.0107186 -0.0115217 -0.0123174 -0.0131055 -0.0138862 -0.0146594 -0.0154251 -0.0161834 -0.0169341 -0.017664 -0.0183598 -0.0190213 -0.0196487 -0.0202419 -0.0208009 -0.0213258 -0.0218165 -0.0222604 -0.0226452 -0.0229708 -0.0232372 -0.0234444 -0.0235924 -0.0236811 -0.0237107 -0.0236811 -0.0235924 -0.0234444 -0.0232372 -0.0229708 -0.0226452 -0.0222604 -0.0218165 -0.0213258 -0.0208009 -0.0202419 -0.0196487 -0.0190213 -0.0183598 -0.017664 -0.0169341 -0.0161834 -0.0154251 -0.0146594 -0.0138862 -0.0131055 -0.0123174 -0.0115217 -0.0107186 -0.00991953 -0.00913615 -0.00836845 -0.00761641 -0.00688005 -0.00615935 -0.00545432 -0.00476495 -0.00410328 -0.00348132 -0.00289907 -0.00235653 -0.00185369 -0.00139057 -0.000967161 -0.00058346 -0.000242726 5.17816e-05 0.000300064 0.00050212 0.000657951 0.000767556 0.000830935 0.000848088 0.000836062 0.000811902 0.000775607 0.000727179 0.000666616 0.00059392 0.00050909 0.000412125 0.000315534 0.000231821 0.000160986 0.000103031 5.79551e-05 2.57578e-05 6.43946e-06 0 0 7.04799e-06 2.8192e-05 6.34319e-05 0.000112768 0.0001762 0.000253728 0.000345352 0.000451071 0.000555931 0.000644973 0.000718199 0.000775607 0.000817199 0.000842973 0.000852931 0.000847072 0.000806833 0.00071365 0.000567524 0.000368454 0.000116441 -0.000188515 -0.000546415 -0.000957258 -0.00141583 -0.00191693 -0.00246054 -0.00304667 -0.00367533 -0.0043465 -0.00506019 -0.00581641 -0.00660195 -0.00740365 -0.00822149 -0.00905548 -0.00990562 -0.0107719 -0.0116543 -0.0125529 -0.0134564 -0.0143534 -0.015244 -0.0161281 -0.0170058 -0.0178771 -0.018742 -0.0196004 -0.0204371 -0.0212365 -0.0219987 -0.0227237 -0.0234114 -0.024062 -0.0246754 -0.0252515 -0.0257743 -0.0262273 -0.0266106 -0.0269242 -0.0271681 -0.0273424 -0.0274469 -0.0274818 -0.0274469 -0.0273424 -0.0271681 -0.0269242 -0.0266106 -0.0262273 -0.0257743 -0.0252515 -0.0246754 -0.024062 -0.0234114 -0.0227237 -0.0219987 -0.0212365 -0.0204371 -0.0196004 -0.018742 -0.0178771 -0.0170058 -0.0161281 -0.015244 -0.0143534 -0.0134564 -0.0125529 -0.0116543 -0.0107719 -0.00990562 -0.00905548 -0.00822149 -0.00740365 -0.00660195 -0.00581641 -0.00506019 -0.0043465 -0.00367533 -0.00304667 -0.00246054 -0.00191693 -0.00141583 -0.000957258 -0.000546415 -0.000188515 0.000116441 0.000368454 0.000567523 0.00071365 0.000806832 0.000847072 0.000852931 0.000842973 0.000817199 0.000775607 0.000718199 0.000644973 0.000555931 0.000451071 0.000345352 0.000253728 0.0001762 0.000112768 6.34319e-05 2.8192e-05 7.04799e-06 0 0 7.60041e-06 3.04016e-05 6.84037e-05 0.000121607 0.00019001 0.000273615 0.00037242 0.000486426 0.000597973 0.000689401 0.000760711 0.000811902 0.000842973 0.000853927 0.000844761 0.000815476 0.000746168 0.000616929 0.000427762 0.000178665 -0.000130362 -0.000499318 -0.000928204 -0.00141702 -0.00195816 -0.00254401 -0.00317457 -0.00384985 -0.00456984 -0.00533454 -0.00614396 -0.0069981 -0.00788269 -0.00878349 -0.00970049 -0.0106337 -0.0115831 -0.0125487 -0.0135306 -0.0145286 -0.0155323 -0.0165312 -0.0175253 -0.0185146 -0.0194991 -0.0204788 -0.0214537 -0.0224238 -0.0233715 -0.0242794 -0.0251473 -0.0259754 -0.0267636 -0.0275119 -0.0282204 -0.0288889 -0.029497 -0.030024 -0.03047 -0.0308348 -0.0311186 -0.0313213 -0.0314429 -0.0314834 -0.0314429 -0.0313213 -0.0311186 -0.0308348 -0.03047 -0.030024 -0.029497 -0.0288889 -0.0282204 -0.0275119 -0.0267636 -0.0259754 -0.0251473 -0.0242794 -0.0233715 -0.0224238 -0.0214537 -0.0204788 -0.0194991 -0.0185146 -0.0175253 -0.0165312 -0.0155323 -0.0145286 -0.0135306 -0.0125487 -0.0115831 -0.0106337 -0.00970049 -0.00878349 -0.00788269 -0.0069981 -0.00614396 -0.00533454 -0.00456984 -0.00384985 -0.00317457 -0.00254401 -0.00195816 -0.00141702 -0.000928204 -0.000499318 -0.000130362 0.000178665 0.000427762 0.000616929 0.000746168 0.000815476 0.000844761 0.000853927 0.000842973 0.000811902 0.000760711 0.000689401 0.000597973 0.000486426 0.00037242 0.000273615 0.00019001 0.000121607 6.84037e-05 3.04016e-05 7.60041e-06 0 0 8.09671e-06 3.23868e-05 7.28704e-05 0.000129547 0.000202418 0.000291481 0.000396739 0.000518189 0.000635217 0.000727205 0.000794153 0.000836062 0.000852931 0.000844761 0.000811551 0.000753301 0.00064894 0.000477395 0.000238665 -6.72478e-05 -0.000440345 -0.000880626 -0.00138809 -0.00196274 -0.00259413 -0.00327181 -0.00399578 -0.00476604 -0.0055826 -0.00644545 -0.00735459 -0.00831002 -0.00929652 -0.0102989 -0.011317 -0.0123511 -0.0134009 -0.0144666 -0.0155482 -0.0166455 -0.0177495 -0.0188509 -0.0199497 -0.0210458 -0.0221393 -0.0232302 -0.0243185 -0.0254042 -0.0264674 -0.0274885 -0.0284673 -0.029404 -0.0302984 -0.0311507 -0.0319608 -0.0327286 -0.0334287 -0.0340355 -0.0345489 -0.0349689 -0.0352956 -0.035529 -0.035669 -0.0357157 -0.035669 -0.035529 -0.0352956 -0.0349689 -0.0345489 -0.0340355 -0.0334287 -0.0327286 -0.0319608 -0.0311507 -0.0302984 -0.029404 -0.0284673 -0.0274885 -0.0264674 -0.0254042 -0.0243185 -0.0232302 -0.0221393 -0.0210458 -0.0199497 -0.0188509 -0.0177495 -0.0166455 -0.0155482 -0.0144666 -0.0134009 -0.0123511 -0.011317 -0.0102989 -0.00929652 -0.00831002 -0.00735459 -0.00644545 -0.0055826 -0.00476604 -0.00399578 -0.00327181 -0.00259413 -0.00196274 -0.00138809 -0.000880626 -0.000440345 -6.72478e-05 0.000238665 0.000477395 0.00064894 0.000753301 0.000811551 0.000844761 0.000852931 0.000836062 0.000794153 0.000727205 0.000635217 0.000518189 0.000396739 0.000291481 0.000202418 0.000129547 7.28704e-05 3.23868e-05 8.09671e-06 0 0 8.53689e-06 3.41476e-05 7.6832e-05 0.00013659 0.000213422 0.000307328 0.000418308 0.000546361 0.000667662 0.000758383 0.000818525 0.000848088 0.000847072 0.000815476 0.000753301 0.000660547 0.00051515 0.000295046 2.346e-07 -0.000369283 -0.000813508 -0.00133244 -0.00192608 -0.00259442 -0.00332375 -0.00410033 -0.00492417 -0.00579526 -0.00671361 -0.00767922 -0.00869207 -0.00975219 -0.0108435 -0.0119498 -0.0130711 -0.0142076 -0.015359 -0.0165256 -0.0177072 -0.0189038 -0.020108 -0.0213124 -0.0225169 -0.0237215 -0.0249263 -0.0261313 -0.0273363 -0.0285415 -0.0297247 -0.0308638 -0.0319586 -0.0330094 -0.0340159 -0.0349783 -0.0358965 -0.0367706 -0.0375694 -0.0382616 -0.0388473 -0.0393266 -0.0396993 -0.0399656 -0.0401253 -0.0401786 -0.0401253 -0.0399656 -0.0396993 -0.0393266 -0.0388473 -0.0382616 -0.0375694 -0.0367706 -0.0358965 -0.0349783 -0.0340159 -0.0330094 -0.0319586 -0.0308638 -0.0297247 -0.0285415 -0.0273363 -0.0261313 -0.0249263 -0.0237215 -0.0225169 -0.0213124 -0.020108 -0.0189038 -0.0177072 -0.0165256 -0.015359 -0.0142076 -0.0130711 -0.0119498 -0.0108435 -0.00975219 -0.00869207 -0.00767921 -0.00671361 -0.00579526 -0.00492417 -0.00410033 -0.00332375 -0.00259442 -0.00192608 -0.00133244 -0.000813508 -0.000369283 2.34609e-07 0.000295046 0.00051515 0.000660547 0.000753301 0.000815476 0.000847072 0.000848088 0.000818525 0.000758383 0.000667662 0.000546361 0.000418308 0.000307328 0.000213422 0.00013659 7.6832e-05 3.41476e-05 8.53689e-06 0 0 8.77684e-06 3.51074e-05 7.89916e-05 0.000140429 0.000219421 0.000315966 0.000430065 0.000561718 0.000683866 0.000769452 0.000818474 0.000830935 0.000806833 0.000746168 0.00064894 0.00051515 0.000322564 4.895e-05 -0.000305693 -0.000741364 -0.00125806 -0.00185579 -0.00253455 -0.00329433 -0.00411732 -0.00498568 -0.00589942 -0.00685853 -0.00786301 -0.00891287 -0.0100081 -0.0111487 -0.0123183 -0.0135005 -0.0146953 -0.0159027 -0.0171227 -0.0183553 -0.0196005 -0.0208583 -0.0221246 -0.0233953 -0.0246704 -0.0259499 -0.0272337 -0.028522 -0.0298146 -0.0311117 -0.0323891 -0.0336227 -0.0348127 -0.035959 -0.0370616 -0.0381205 -0.0391358 -0.0401073 -0.0409976 -0.0417692 -0.0424221 -0.0429563 -0.0433718 -0.0436686 -0.0438466 -0.043906 -0.0438466 -0.0436686 -0.0433718 -0.0429563 -0.0424221 -0.0417692 -0.0409976 -0.0401073 -0.0391358 -0.0381205 -0.0370616 -0.035959 -0.0348127 -0.0336227 -0.0323891 -0.0311117 -0.0298146 -0.028522 -0.0272337 -0.0259499 -0.0246704 -0.0233953 -0.0221246 -0.0208583 -0.0196005 -0.0183553 -0.0171227 -0.0159027 -0.0146953 -0.0135005 -0.0123183 -0.0111487 -0.0100081 -0.00891287 -0.00786301 -0.00685853 -0.00589942 -0.00498568 -0.00411732 -0.00329433 -0.00253455 -0.00185579 -0.00125806 -0.000741364 -0.000305693 4.89501e-05 0.000322564 0.00051515 0.00064894 0.000746168 0.000806833 0.000830935 0.000818475 0.000769452 0.000683866 0.000561718 0.000430065 0.000315966 0.000219421 0.000140429 7.89916e-05 3.51074e-05 8.77684e-06 0 0 8.67243e-06 3.46897e-05 7.80518e-05 0.000138759 0.000216811 0.000312207 0.000424949 0.000555035 0.000672387 0.000746924 0.000778647 0.000767556 0.00071365 0.000616929 0.000477395 0.000295046 4.895e-05 -0.000281824 -0.000697278 -0.00119741 -0.00178222 -0.00245171 -0.00320588 -0.00404473 -0.00494513 -0.00588395 -0.00686119 -0.00787685 -0.00893094 -0.0100234 -0.0111544 -0.0123237 -0.0135159 -0.0147153 -0.015922 -0.017136 -0.0183571 -0.0195856 -0.0208213 -0.0220642 -0.0233163 -0.0245794 -0.0258536 -0.0271388 -0.0284351 -0.0297425 -0.0310609 -0.0323903 -0.0337059 -0.0349828 -0.036221 -0.0374204 -0.0385812 -0.0397032 -0.0407865 -0.041831 -0.0427921 -0.0436251 -0.0443299 -0.0449066 -0.0453551 -0.0456755 -0.0458677 -0.0459318 -0.0458677 -0.0456755 -0.0453551 -0.0449066 -0.0443299 -0.0436251 -0.0427921 -0.041831 -0.0407865 -0.0397032 -0.0385812 -0.0374204 -0.036221 -0.0349828 -0.0337059 -0.0323903 -0.0310609 -0.0297425 -0.0284351 -0.0271388 -0.0258536 -0.0245794 -0.0233163 -0.0220642 -0.0208213 -0.0195856 -0.0183571 -0.017136 -0.015922 -0.0147153 -0.0135159 -0.0123237 -0.0111544 -0.0100234 -0.00893094 -0.00787685 -0.00686119 -0.00588395 -0.00494513 -0.00404473 -0.00320588 -0.00245171 -0.00178222 -0.00119741 -0.000697278 -0.000281824 4.89501e-05 0.000295046 0.000477395 0.000616929 0.00071365 0.000767556 0.000778647 0.000746924 0.000672387 0.000555035 0.000424949 0.000312207 0.000216811 0.000138759 7.80518e-05 3.46897e-05 8.67243e-06 0 0 8.22365e-06 3.28946e-05 7.40129e-05 0.000131578 0.000205591 0.000296051 0.000402959 0.000526314 0.000633225 0.000690801 0.000699043 0.000657951 0.000567524 0.000427762 0.000238665 2.34607e-07 -0.000305693 -0.000697278 -0.00117452 -0.00173742 -0.00238598 -0.0031202 -0.00394008 -0.00484561 -0.00580717 -0.00679513 -0.00780948 -0.00885024 -0.00991739 -0.0110109 -0.0121309 -0.0132772 -0.0144363 -0.0155943 -0.0167513 -0.0179073 -0.0190623 -0.0202163 -0.0213693 -0.0225213 -0.0236829 -0.0248646 -0.0260664 -0.0272883 -0.0285304 -0.0297926 -0.031075 -0.0323774 -0.0336753 -0.034944 -0.0361834 -0.0373936 -0.0385745 -0.0397262 -0.0408486 -0.0419418 -0.042953 -0.0438293 -0.0445708 -0.0451775 -0.0456494 -0.0459864 -0.0461887 -0.0462561 -0.0461887 -0.0459864 -0.0456494 -0.0451775 -0.0445708 -0.0438293 -0.042953 -0.0419418 -0.0408486 -0.0397262 -0.0385745 -0.0373936 -0.0361834 -0.034944 -0.0336753 -0.0323774 -0.031075 -0.0297926 -0.0285304 -0.0272883 -0.0260664 -0.0248646 -0.0236829 -0.0225213 -0.0213693 -0.0202163 -0.0190623 -0.0179073 -0.0167513 -0.0155943 -0.0144363 -0.0132772 -0.0121309 -0.0110109 -0.00991739 -0.00885024 -0.00780948 -0.00679513 -0.00580717 -0.00484561 -0.00394008 -0.0031202 -0.00238598 -0.00173742 -0.00117452 -0.000697278 -0.000305693 2.34633e-07 0.000238666 0.000427762 0.000567524 0.000657951 0.000699043 0.000690801 0.000633225 0.000526314 0.000402959 0.000296051 0.000205591 0.000131578 7.40129e-05 3.28946e-05 8.22365e-06 0 0 7.43051e-06 2.9722e-05 6.68746e-05 0.000118888 0.000185763 0.000267498 0.000364095 0.000475553 0.000566379 0.000601083 0.000579663 0.00050212 0.000368454 0.000178665 -6.72478e-05 -0.000369283 -0.000741364 -0.00119741 -0.00173742 -0.0023614 -0.00306935 -0.00386126 -0.00473713 -0.00569698 -0.00670345 -0.00771923 -0.00874431 -0.00977869 -0.0108224 -0.0118753 -0.0129376 -0.0140092 -0.0150794 -0.0161373 -0.0171832 -0.0182168 -0.0192383 -0.0202476 -0.0212448 -0.0222298 -0.0232245 -0.0242509 -0.0253088 -0.0263984 -0.0275197 -0.0286725 -0.029857 -0.0310731 -0.0322973 -0.0335063 -0.0347001 -0.0358785 -0.0370417 -0.0381896 -0.0393223 -0.0404397 -0.0414801 -0.0423818 -0.0431447 -0.043769 -0.0442545 -0.0446013 -0.0448094 -0.0448787 -0.0448094 -0.0446013 -0.0442545 -0.043769 -0.0431447 -0.0423818 -0.0414801 -0.0404397 -0.0393223 -0.0381896 -0.0370417 -0.0358785 -0.0347001 -0.0335063 -0.0322973 -0.0310731 -0.029857 -0.0286725 -0.0275197 -0.0263984 -0.0253088 -0