<?xml version="1.0"?> 
<VTKFile type="StructuredGrid" version="0.1"> 
<StructuredGrid WholeExtent="0 128 0 128 0 0"> 
<Piece Extent="0 128 0 128 0 0"> 
<PointData>
<DataArray type="Float32" Name="u" format="ascii" NumberOfComponents="1"> 
0 0 0 0 0 0 0 0 0 0 0 0 0 0 0 0 0 0 0 0 0 0 0 0 0 0 0 0 0 0 0 0 0 0 0 0 0 0 0 0 0 0 0 0 0 0 0 0 0 0 0 0 0 0 0 0 0 0 0 0 0 0 0 0 0 0 0 0 0 0 0 0 0 0 0 0 0 0 0 0 0 0 0 0 0 0 0 0 0 0 0 0 0 0 0 0 0 0 0 0 0 0 0 0 0 0 0 0 0 0 0 0 0 0 0 0 0 0 0 0 0 0 0 0 0 0 0 0 0 0 -6.28939e-08 -2.51576e-07 -5.66045e-07 -1.0063e-06 -1.57235e-06 -2.26418e-06 -3.0818e-06 -4.02521e-06 -5.11107e-06 -6.35604e-06 -7.76013e-06 -9.32333e-06 -1.10456e-05 -1.29271e-05 -1.49676e-05 -1.71673e-05 -1.94167e-05 -2.16066e-05 -2.3737e-05 -2.58079e-05 -2.78192e-05 -2.97711e-05 -3.16633e-05 -3.34961e-05 -3.51991e-05 -3.67019e-05 -3.80047e-05 -3.91074e-05 -4.001e-05 -4.07125e-05 -4.1215e-05 -4.15173e-05 -4.16086e-05 -4.14779e-05 -4.11252e-05 -4.05504e-05 -3.97535e-05 -3.87347e-05 -3.74938e-05 -3.60309e-05 -3.43992e-05 -3.2652e-05 -3.07893e-05 -2.8811e-05 -2.67172e-05 -2.45079e-05 -2.21831e-05 -1.97427e-05 -1.72835e-05 -1.49023e-05 -1.2599e-05 -1.03737e-05 -8.22624e-06 -6.15678e-06 -4.16525e-06 -2.25167e-06 -4.94213e-07 1.02891e-06 2.31771e-06 3.37218e-06 4.19233e-06 4.77814e-06 5.12964e-06 5.2468e-06 5.12964e-06 4.77815e-06 4.19233e-06 3.37218e-06 2.31771e-06 1.02891e-06 -4.94212e-07 -2.25166e-06 -4.16525e-06 -6.15678e-06 -8.22624e-06 -1.03737e-05 -1.2599e-05 -1.49023e-05 -1.72835e-05 -1.97427e-05 -2.21831e-05 -2.45079e-05 -2.67172e-05 -2.8811e-05 -3.07893e-05 -3.2652e-05 -3.43992e-05 -3.60309e-05 -3.74938e-05 -3.87347e-05 -3.97536e-05 -4.05504e-05 -4.11252e-05 -4.14779e-05 -4.16087e-05 -4.15174e-05 -4.1215e-05 -4.07126e-05 -4.001e-05 -3.91074e-05 -3.80047e-05 -3.67019e-05 -3.51991e-05 -3.34961e-05 -3.16633e-05 -2.97711e-05 -2.78192e-05 -2.58079e-05 -2.3737e-05 -2.16066e-05 -1.94167e-05 -1.71673e-05 -1.49676e-05 -1.29271e-05 -1.10457e-05 -9.32334e-06 -7.76014e-06 -6.35605e-06 -5.11108e-06 -4.02522e-06 -3.08181e-06 -2.26418e-06 -1.57235e-06 -1.0063e-06 -5.66046e-07 -2.51576e-07 -6.2894e-08 0 0 -2.51576e-07 -1.0063e-06 -2.26418e-06 -4.02521e-06 -6.28939e-06 -9.05673e-06 -1.23272e-05 -1.61008e-05 -2.04443e-05 -2.54242e-05 -3.10405e-05 -3.72933e-05 -4.41826e-05 -5.17083e-05 -5.98704e-05 -6.86691e-05 -7.76669e-05 -8.64265e-05 -9.49481e-05 -0.000103232 -0.000111277 -0.000119084 -0.000126653 -0.000133984 -0.000140796 -0.000146808 -0.000152019 -0.00015643 -0.00016004 -0.00016285 -0.00016486 -0.000166069 -0.000166435 -0.000165912 -0.000164501 -0.000162201 -0.000159014 -0.000154939 -0.000149975 -0.000144124 -0.000137597 -0.000130608 -0.000123157 -0.000115244 -0.000106869 -9.80316e-05 -8.87322e-05 -7.89707e-05 -6.9134e-05 -5.96091e-05 -5.0396e-05 -4.14946e-05 -3.2905e-05 -2.46271e-05 -1.6661e-05 -9.00666e-06 -1.97685e-06 4.11565e-06 9.27084e-06 1.34887e-05 1.67693e-05 1.91126e-05 2.05185e-05 2.09872e-05 2.05185e-05 1.91126e-05 1.67693e-05 1.34887e-05 9.27085e-06 4.11565e-06 -1.97685e-06 -9.00666e-06 -1.6661e-05 -2.46271e-05 -3.2905e-05 -4.14946e-05 -5.0396e-05 -5.96091e-05 -6.9134e-05 -7.89707e-05 -8.87322e-05 -9.80316e-05 -0.000106869 -0.000115244 -0.000123157 -0.000130608 -0.000137597 -0.000144124 -0.000149975 -0.000154939 -0.000159014 -0.000162201 -0.000164501 -0.000165912 -0.000166435 -0.000166069 -0.00016486 -0.00016285 -0.00016004 -0.00015643 -0.000152019 -0.000146808 -0.000140796 -0.000133984 -0.000126653 -0.000119084 -0.000111277 -0.000103232 -9.49481e-05 -8.64266e-05 -7.76669e-05 -6.86691e-05 -5.98705e-05 -5.17083e-05 -4.41826e-05 -3.72934e-05 -3.10405e-05 -2.54242e-05 -2.04443e-05 -1.61009e-05 -1.23272e-05 -9.05673e-06 -6.2894e-06 -4.02522e-06 -2.26418e-06 -1.0063e-06 -2.51576e-07 0 0 -5.66045e-07 -2.26418e-06 -5.09441e-06 -9.05673e-06 -1.41511e-05 -2.03776e-05 -2.77362e-05 -3.62269e-05 -4.59996e-05 -5.72044e-05 -6.98412e-05 -8.391e-05 -9.94108e-05 -0.000116344 -0.000134709 -0.000154505 -0.00017475 -0.00019446 -0.000213633 -0.000232271 -0.000250373 -0.000267939 -0.00028497 -0.000301465 -0.000316791 -0.000330317 -0.000342042 -0.000351967 -0.00036009 -0.000366413 -0.000370935 -0.000373656 -0.000374478 -0.000373301 -0.000370126 -0.000364953 -0.000357782 -0.000348612 -0.000337444 -0.000324278 -0.000309593 -0.000293868 -0.000277104 -0.000259299 -0.000240455 -0.000220571 -0.000199647 -0.000177684 -0.000155552 -0.000134121 -0.000113391 -9.33629e-05 -7.40362e-05 -5.5411e-05 -3.74873e-05 -2.0265e-05 -4.44792e-06 9.26021e-06 2.08594e-05 3.03496e-05 3.77309e-05 4.30033e-05 4.61667e-05 4.72212e-05 4.61667e-05 4.30033e-05 3.7731e-05 3.03497e-05 2.08594e-05 9.26022e-06 -4.44791e-06 -2.0265e-05 -3.74873e-05 -5.5411e-05 -7.40362e-05 -9.33629e-05 -0.000113391 -0.000134121 -0.000155552 -0.000177684 -0.000199647 -0.000220571 -0.000240455 -0.000259299 -0.000277104 -0.000293868 -0.000309593 -0.000324278 -0.000337444 -0.000348612 -0.000357782 -0.000364953 -0.000370126 -0.000373301 -0.000374478 -0.000373656 -0.000370935 -0.000366413 -0.00036009 -0.000351967 -0.000342042 -0.000330317 -0.000316792 -0.000301465 -0.00028497 -0.00026794 -0.000250373 -0.000232271 -0.000213633 -0.00019446 -0.000174751 -0.000154505 -0.000134709 -0.000116344 -9.94109e-05 -8.391e-05 -6.98412e-05 -5.72044e-05 -4.59997e-05 -3.62269e-05 -2.77363e-05 -2.03777e-05 -1.41511e-05 -9.05673e-06 -5.09441e-06 -2.26418e-06 -5.66046e-07 0 0 -1.0063e-06 -4.02521e-06 -9.05673e-06 -1.61008e-05 -2.51576e-05 -3.62269e-05 -4.93088e-05 -6.44034e-05 -8.17771e-05 -0.000101697 -0.000124162 -0.000149173 -0.00017673 -0.000206833 -0.000239482 -0.000274676 -0.000310667 -0.000345706 -0.000379792 -0.000412926 -0.000445108 -0.000476337 -0.000506613 -0.000535938 -0.000563185 -0.000587231 -0.000608075 -0.000625719 -0.00064016 -0.000651401 -0.00065944 -0.000664278 -0.000665738 -0.000663647 -0.000658003 -0.000648806 -0.000636057 -0.000619755 -0.000599901 -0.000576495 -0.000550388 -0.000522432 -0.000492628 -0.000460976 -0.000427475 -0.000392126 -0.000354929 -0.000315883 -0.000276536 -0.000238437 -0.000201584 -0.000165978 -0.00013162 -9.85085e-05 -6.6644e-05 -3.60267e-05 -7.90741e-06 1.64626e-05 3.70834e-05 5.39549e-05 6.70772e-05 7.64503e-05 8.20742e-05 8.39488e-05 8.20742e-05 7.64503e-05 6.70772e-05 5.39549e-05 3.70834e-05 1.64626e-05 -7.90739e-06 -3.60266e-05 -6.6644e-05 -9.85084e-05 -0.00013162 -0.000165978 -0.000201584 -0.000238437 -0.000276536 -0.000315883 -0.000354929 -0.000392126 -0.000427475 -0.000460976 -0.000492628 -0.000522432 -0.000550388 -0.000576495 -0.000599901 -0.000619755 -0.000636057 -0.000648806 -0.000658003 -0.000663647 -0.000665738 -0.000664278 -0.00065944 -0.000651401 -0.00064016 -0.000625719 -0.000608075 -0.000587231 -0.000563185 -0.000535938 -0.000506614 -0.000476337 -0.000445108 -0.000412926 -0.000379793 -0.000345706 -0.000310668 -0.000274676 -0.000239482 -0.000206833 -0.00017673 -0.000149173 -0.000124162 -0.000101697 -8.17772e-05 -6.44034e-05 -4.93089e-05 -3.62269e-05 -2.51576e-05 -1.61009e-05 -9.05673e-06 -4.02522e-06 -1.0063e-06 0 0 -1.57235e-06 -6.28939e-06 -1.41511e-05 -2.51576e-05 -3.93087e-05 -5.66045e-05 -7.70451e-05 -0.00010063 -0.000127777 -0.000158901 -0.000194003 -0.000233083 -0.000276141 -0.000323177 -0.00037419 -0.000429182 -0.000485418 -0.000540166 -0.000593426 -0.000645197 -0.000695481 -0.000744276 -0.000791583 -0.000837402 -0.000879976 -0.000917548 -0.000950118 -0.000977685 -0.00100025 -0.00101781 -0.00103037 -0.00103793 -0.00104022 -0.00103695 -0.00102813 -0.00101376 -0.000993839 -0.000968368 -0.000937346 -0.000900773 -0.000859981 -0.0008163 -0.000769732 -0.000720275 -0.00066793 -0.000612697 -0.000554576 -0.000493567 -0.000432088 -0.000372557 -0.000314975 -0.000259341 -0.000205656 -0.000153919 -0.000104131 -5.62916e-05 -1.23553e-05 2.57228e-05 5.79428e-05 8.43046e-05 0.000104808 0.000119454 0.000128241 0.00013117 0.000128241 0.000119454 0.000104808 8.43046e-05 5.79428e-05 2.57228e-05 -1.23553e-05 -5.62916e-05 -0.000104131 -0.000153919 -0.000205656 -0.000259341 -0.000314975 -0.000372557 -0.000432088 -0.000493567 -0.000554576 -0.000612697 -0.00066793 -0.000720275 -0.000769732 -0.0008163 -0.000859981 -0.000900773 -0.000937346 -0.000968368 -0.000993839 -0.00101376 -0.00102813 -0.00103695 -0.00104022 -0.00103793 -0.00103037 -0.00101781 -0.00100025 -0.000977685 -0.000950118 -0.000917548 -0.000879977 -0.000837403 -0.000791584 -0.000744276 -0.000695481 -0.000645198 -0.000593426 -0.000540166 -0.000485418 -0.000429182 -0.000374191 -0.000323177 -0.000276141 -0.000233083 -0.000194003 -0.000158901 -0.000127777 -0.00010063 -7.70451e-05 -5.66046e-05 -3.93087e-05 -2.51576e-05 -1.41511e-05 -6.2894e-06 -1.57235e-06 0 0 -2.26418e-06 -9.05673e-06 -2.03776e-05 -3.62269e-05 -5.66045e-05 -8.15105e-05 -0.000110945 -0.000144908 -0.000183999 -0.000228818 -0.000279365 -0.00033564 -0.000397643 -0.000465375 -0.000538834 -0.000618022 -0.000699002 -0.000777839 -0.000854533 -0.000929084 -0.00100149 -0.00107176 -0.00113988 -0.00120586 -0.00126717 -0.00132127 -0.00136817 -0.00140787 -0.00144036 -0.00146565 -0.00148374 -0.00149462 -0.00149791 -0.00149321 -0.00148051 -0.00145981 -0.00143113 -0.00139445 -0.00134978 -0.00129711 -0.00123837 -0.00117547 -0.00110841 -0.0010372 -0.00096182 -0.000882284 -0.00079859 -0.000710736 -0.000622206 -0.000536482 -0.000453564 -0.000373451 -0.000296145 -0.000221644 -0.000149949 -8.106e-05 -1.77917e-05 3.70408e-05 8.34376e-05 0.000121399 0.000150924 0.000172013 0.000184667 0.000188885 0.000184667 0.000172013 0.000150924 0.000121399 8.34376e-05 3.70409e-05 -1.77916e-05 -8.10599e-05 -0.000149949 -0.000221644 -0.000296145 -0.000373451 -0.000453564 -0.000536482 -0.000622206 -0.000710736 -0.00079859 -0.000882284 -0.00096182 -0.0010372 -0.00110841 -0.00117547 -0.00123837 -0.00129711 -0.00134978 -0.00139445 -0.00143113 -0.00145981 -0.00148051 -0.00149321 -0.00149791 -0.00149462 -0.00148374 -0.00146565 -0.00144036 -0.00140787 -0.00136817 -0.00132127 -0.00126717 -0.00120586 -0.00113988 -0.00107176 -0.00100149 -0.000929085 -0.000854533 -0.000777839 -0.000699002 -0.000618022 -0.000538834 -0.000465375 -0.000397643 -0.00033564 -0.000279365 -0.000228818 -0.000183999 -0.000144908 -0.000110945 -8.15106e-05 -5.66046e-05 -3.62269e-05 -2.03777e-05 -9.05673e-06 -2.26418e-06 0 0 -3.0818e-06 -1.23272e-05 -2.77362e-05 -4.93088e-05 -7.70451e-05 -0.000110945 -0.000151008 -0.000197235 -0.000250442 -0.000311446 -0.000380246 -0.000456843 -0.000541237 -0.000633427 -0.000733413 -0.000841196 -0.000951419 -0.00105873 -0.00116311 -0.00126459 -0.00136314 -0.00145878 -0.0015515 -0.00164131 -0.00172475 -0.00179839 -0.00186223 -0.00191626 -0.00196049 -0.00199491 -0.00201953 -0.00203435 -0.00203882 -0.00203242 -0.00201513 -0.00198697 -0.00194792 -0.001898 -0.0018372 -0.00176551 -0.00168556 -0.00159995 -0.00150867 -0.00141174 -0.00130914 -0.00120089 -0.00108697 -0.000967391 -0.000846892 -0.000730212 -0.000617351 -0.000508309 -0.000403086 -0.000301682 -0.000204097 -0.000110332 -2.42164e-05 5.04167e-05 0.000113568 0.000165237 0.000205424 0.000234129 0.000251352 0.000257093 0.000251352 0.000234129 0.000205424 0.000165237 0.000113568 5.04168e-05 -2.42164e-05 -0.000110332 -0.000204097 -0.000301682 -0.000403086 -0.000508309 -0.000617351 -0.000730212 -0.000846892 -0.000967391 -0.00108697 -0.00120089 -0.00130914 -0.00141174 -0.00150867 -0.00159995 -0.00168556 -0.00176551 -0.0018372 -0.001898 -0.00194792 -0.00198697 -0.00201513 -0.00203242 -0.00203882 -0.00203435 -0.00201953 -0.00199492 -0.00196049 -0.00191626 -0.00186223 -0.00179839 -0.00172475 -0.00164131 -0.0015515 -0.00145878 -0.00136314 -0.00126459 -0.00116311 -0.00105873 -0.000951419 -0.000841196 -0.000733413 -0.000633427 -0.000541237 -0.000456844 -0.000380247 -0.000311446 -0.000250443 -0.000197236 -0.000151008 -0.000110945 -7.70451e-05 -4.93089e-05 -2.77363e-05 -1.23272e-05 -3.08181e-06 0 0 -4.02521e-06 -1.61008e-05 -3.62269e-05 -6.44034e-05 -0.00010063 -0.000144908 -0.000197235 -0.000257614 -0.000327109 -0.000406787 -0.000496648 -0.000596693 -0.000706921 -0.000827333 -0.000957927 -0.00109871 -0.00124267 -0.00138282 -0.00151917 -0.00165171 -0.00178043 -0.00190535 -0.00202645 -0.00214375 -0.00225274 -0.00234892 -0.0024323 -0.00250287 -0.00256064 -0.0026056 -0.00263776 -0.00265711 -0.00266295 -0.00265459 -0.00263201 -0.00259522 -0.00254423 -0.00247902 -0.0023996 -0.00230598 -0.00220155 -0.00208973 -0.00197051 -0.0018439 -0.0017099 -0.00156851 -0.00141972 -0.00126353 -0.00110614 -0.000953746 -0.000806336 -0.000663914 -0.00052648 -0.000394034 -0.000266576 -0.000144107 -3.16296e-05 6.58504e-05 0.000148334 0.00021582 0.000268309 0.000305801 0.000328297 0.000335795 0.000328297 0.000305801 0.000268309 0.00021582 0.000148334 6.58505e-05 -3.16296e-05 -0.000144107 -0.000266576 -0.000394034 -0.00052648 -0.000663914 -0.000806336 -0.000953746 -0.00110614 -0.00126353 -0.00141972 -0.00156851 -0.0017099 -0.0018439 -0.00197051 -0.00208973 -0.00220155 -0.00230598 -0.0023996 -0.00247902 -0.00254423 -0.00259522 -0.00263201 -0.00265459 -0.00266295 -0.00265711 -0.00263776 -0.0026056 -0.00256064 -0.00250287 -0.0024323 -0.00234892 -0.00225274 -0.00214375 -0.00202645 -0.00190535 -0.00178043 -0.00165171 -0.00151917 -0.00138283 -0.00124267 -0.00109871 -0.000957928 -0.000827333 -0.000706922 -0.000596694 -0.000496649 -0.000406787 -0.000327109 -0.000257614 -0.000197236 -0.000144908 -0.00010063 -6.44034e-05 -3.62269e-05 -1.61009e-05 -4.02522e-06 0 0 -5.11107e-06 -2.04443e-05 -4.59996e-05 -8.17771e-05 -0.000127777 -0.000183999 -0.000250442 -0.000327109 -0.000415257 -0.000516149 -0.000629784 -0.000756162 -0.000895283 -0.00104715 -0.00121175 -0.0013891 -0.00157028 -0.00174636 -0.00191734 -0.00208322 -0.00224401 -0.0023997 -0.0025503 -0.0026958 -0.00283047 -0.00294861 -0.00305019 -0.00313522 -0.00320371 -0.00325566 -0.00329105 -0.0033099 -0.00331134 -0.00329452 -0.00325943 -0.00320608 -0.00313447 -0.00304459 -0.00293645 -0.00281005 -0.00266982 -0.00252023 -0.00236126 -0.00219291 -0.0020152 -0.00182811 -0.00163165 -0.00142581 -0.00121863 -0.00101813 -0.000824314 -0.000637177 -0.00045672 -0.000282944 -0.000115849 4.4565e-05 0.000191821 0.000319444 0.000427432 0.000515786 0.000584505 0.000633591 0.000663042 0.000672859 0.000663042 0.000633591 0.000584505 0.000515786 0.000427432 0.000319444 0.000191821 4.4565e-05 -0.000115849 -0.000282944 -0.00045672 -0.000637177 -0.000824314 -0.00101813 -0.00121863 -0.00142581 -0.00163165 -0.00182811 -0.0020152 -0.00219291 -0.00236126 -0.00252023 -0.00266982 -0.00281005 -0.00293645 -0.00304459 -0.00313447 -0.00320608 -0.00325943 -0.00329452 -0.00331134 -0.0033099 -0.00329105 -0.00325566 -0.00320371 -0.00313523 -0.00305019 -0.00294861 -0.00283048 -0.0026958 -0.0025503 -0.0023997 -0.00224401 -0.00208322 -0.00191734 -0.00174636 -0.00157028 -0.00138911 -0.00121175 -0.00104715 -0.000895284 -0.000756162 -0.000629784 -0.000516149 -0.000415258 -0.000327109 -0.000250443 -0.000183999 -0.000127777 -8.17772e-05 -4.59997e-05 -2.04443e-05 -5.11108e-06 0 0 -6.35604e-06 -2.54242e-05 -5.72044e-05 -0.000101697 -0.000158901 -0.000228818 -0.000311446 -0.000406787 -0.000516149 -0.000640842 -0.000780866 -0.000936221 -0.00110691 -0.00129292 -0.00149427 -0.00171095 -0.00193177 -0.00214554 -0.00235225 -0.00255192 -0.00274453 -0.00293009 -0.0031086 -0.00328006 -0.00343731 -0.00357319 -0.0036877 -0.00378084 -0.00385261 -0.00390301 -0.00393204 -0.00393971 -0.00392502 -0.00388702 -0.00382569 -0.00374105 -0.00363308 -0.00350179 -0.00334719 -0.00316926 -0.00297386 -0.00276685 -0.00254822 -0.00231799 -0.00207613 -0.00182267 -0.00155759 -0.00128089 -0.00100302 -0.000734421 -0.000475082 -0.000225009 1.57994e-05 0.000247342 0.00046962 0.000682633 0.000877989 0.0010473 0.00119056 0.00130777 0.00139894 0.00146406 0.00150313 0.00151615 0.00150313 0.00146406 0.00139894 0.00130777 0.00119056 0.0010473 0.000877989 0.000682633 0.00046962 0.000247343 1.57995e-05 -0.000225009 -0.000475082 -0.00073442 -0.00100302 -0.00128089 -0.00155759 -0.00182267 -0.00207613 -0.00231799 -0.00254822 -0.00276685 -0.00297386 -0.00316926 -0.00334719 -0.00350179 -0.00363308 -0.00374105 -0.00382569 -0.00388702 -0.00392502 -0.00393971 -0.00393204 -0.00390301 -0.00385261 -0.00378084 -0.0036877 -0.00357319 -0.00343731 -0.00328006 -0.0031086 -0.00293009 -0.00274453 -0.00255192 -0.00235225 -0.00214554 -0.00193177 -0.00171095 -0.00149427 -0.00129292 -0.00110691 -0.000936222 -0.000780867 -0.000640843 -0.000516149 -0.000406787 -0.000311446 -0.000228818 -0.000158901 -0.000101697 -5.72045e-05 -2.54242e-05 -6.35605e-06 0 0 -7.76013e-06 -3.10405e-05 -6.98412e-05 -0.000124162 -0.000194003 -0.000279365 -0.000380246 -0.000496648 -0.000629784 -0.000780866 -0.000949895 -0.00113687 -0.00134179 -0.00156466 -0.00180548 -0.00206424 -0.00232714 -0.00258037 -0.00282392 -0.00305779 -0.00328199 -0.00349652 -0.00370137 -0.00389655 -0.00407325 -0.00422268 -0.00434484 -0.00443972 -0.00450733 -0.00454767 -0.00456074 -0.00454653 -0.004504 -0.00443209 -0.00433079 -0.00420012 -0.00404006 -0.00385063 -0.00363181 -0.00338361 -0.00311366 -0.0028296 -0.00253142 -0.00221912 -0.00189271 -0.00155218 -0.00119753 -0.00082877 -0.000459319 -0.000102609 0.000241361 0.00057259 0.000891078 0.00119683 0.00148983 0.0017701 0.00202687 0.00224941 0.00243772 0.00259178 0.00271161 0.0027972 0.00284856 0.00286568 0.00284856 0.0027972 0.00271161 0.00259178 0.00243772 0.00224941 0.00202687 0.0017701 0.00148983 0.00119683 0.000891078 0.00057259 0.000241361 -0.000102608 -0.000459319 -0.00082877 -0.00119753 -0.00155218 -0.00189271 -0.00221912 -0.00253142 -0.0028296 -0.00311366 -0.00338361 -0.00363181 -0.00385063 -0.00404006 -0.00420012 -0.00433079 -0.00443209 -0.004504 -0.00454653 -0.00456074 -0.00454767 -0.00450733 -0.00443972 -0.00434484 -0.00422268 -0.00407325 -0.00389655 -0.00370137 -0.00349652 -0.00328199 -0.00305779 -0.00282392 -0.00258037 -0.00232714 -0.00206424 -0.00180548 -0.00156466 -0.0013418 -0.00113687 -0.000949896 -0.000780867 -0.000629784 -0.000496649 -0.000380247 -0.000279365 -0.000194003 -0.000124162 -6.98412e-05 -3.10406e-05 -7.76014e-06 0 0 -9.32333e-06 -3.72933e-05 -8.391e-05 -0.000149173 -0.000233083 -0.00033564 -0.000456843 -0.000596693 -0.000756162 -0.000936221 -0.00113687 -0.00135811 -0.00159994 -0.00186237 -0.00214538 -0.00244898 -0.0027564 -0.00305085 -0.00333233 -0.00360085 -0.0038564 -0.00409898 -0.0043286 -0.00454525 -0.00473829 -0.00489707 -0.00502159 -0.00511186 -0.00516788 -0.00518964 -0.00517714 -0.00513038 -0.00504828 -0.00492973 -0.00477473 -0.0045833 -0.00435542 -0.00409109 -0.00379032 -0.00345311 -0.00308924 -0.00270848 -0.00231084 -0.00189633 -0.00146493 -0.00101665 -0.000551487 -6.94457e-05 0.000412483 0.000877303 0.00132502 0.00175562 0.00216912 0.0025655 0.00294479 0.00330696 0.00363848 0.00392579 0.0041689 0.00436781 0.00452252 0.00463303 0.00469933 0.00472143 0.00469933 0.00463303 0.00452252 0.00436782 0.0041689 0.00392579 0.00363848 0.00330696 0.00294479 0.00256551 0.00216912 0.00175562 0.00132502 0.000877303 0.000412483 -6.94456e-05 -0.000551487 -0.00101665 -0.00146493 -0.00189633 -0.00231084 -0.00270848 -0.00308924 -0.00345311 -0.00379032 -0.00409109 -0.00435542 -0.0045833 -0.00477473 -0.00492973 -0.00504828 -0.00513038 -0.00517714 -0.00518964 -0.00516788 -0.00511186 -0.0050216 -0.00489707 -0.00473829 -0.00454525 -0.0043286 -0.00409898 -0.0038564 -0.00360085 -0.00333233 -0.00305085 -0.0027564 -0.00244898 -0.00214538 -0.00186237 -0.00159994 -0.00135811 -0.00113687 -0.000936222 -0.000756162 -0.000596694 -0.000456844 -0.00033564 -0.000233083 -0.000149173 -8.391e-05 -3.72934e-05 -9.32334e-06 0 0 -1.10456e-05 -4.41826e-05 -9.94108e-05 -0.00017673 -0.000276141 -0.000397643 -0.000541237 -0.000706921 -0.000895283 -0.00110691 -0.00134179 -0.00159994 -0.00188136 -0.00218603 -0.00251397 -0.00286517 -0.00321954 -0.00355698 -0.00387749 -0.00418108 -0.00446774 -0.00473748 -0.00499029 -0.00522617 -0.00543242 -0.00559636 -0.00571798 -0.00579727 -0.00583425 -0.0058289 -0.00578124 -0.00569125 -0.00555785 -0.00537994 -0.00515751 -0.00489058 -0.00457914 -0.00422319 -0.00382273 -0.00337776 -0.00290058 -0.00240349 -0.00188649 -0.00134959 -0.000792785 -0.00021607 0.000380552 0.000997081 0.00161238 0.00220531 0.00277588 0.00332408 0.00384991 0.00435338 0.00483448 0.00529322 0.00571279 0.00607643 0.00638412 0.00663587 0.00683167 0.00697153 0.00705545 0.00708342 0.00705545 0.00697153 0.00683167 0.00663587 0.00638412 0.00607643 0.00571279 0.00529322 0.00483448 0.00435338 0.00384991 0.00332408 0.00277588 0.00220531 0.00161238 0.000997081 0.000380552 -0.00021607 -0.000792785 -0.00134959 -0.00188649 -0.00240349 -0.00290058 -0.00337776 -0.00382273 -0.00422319 -0.00457914 -0.00489058 -0.00515751 -0.00537994 -0.00555785 -0.00569125 -0.00578124 -0.0058289 -0.00583425 -0.00579727 -0.00571798 -0.00559636 -0.00543243 -0.00522617 -0.00499029 -0.00473748 -0.00446774 -0.00418108 -0.0038775 -0.00355698 -0.00321954 -0.00286517 -0.00251397 -0.00218603 -0.00188136 -0.00159994 -0.0013418 -0.00110691 -0.000895284 -0.000706922 -0.000541237 -0.000397644 -0.000276141 -0.00017673 -9.94109e-05 -4.41826e-05 -1.10457e-05 0 0 -1.29271e-05 -5.17083e-05 -0.000116344 -0.000206833 -0.000323177 -0.000465375 -0.000633426 -0.000827332 -0.00104715 -0.00129292 -0.00156466 -0.00186237 -0.00218603 -0.00253566 -0.00291125 -0.0033128 -0.00371656 -0.00409876 -0.00445941 -0.0047985 -0.00511603 -0.00541201 -0.00568644 -0.00593931 -0.00615566 -0.00632056 -0.00643398 -0.00649595 -0.00650644 -0.00646547 -0.00637304 -0.00622914 -0.00603271 -0.00578271 -0.00547913 -0.00512197 -0.00471123 -0.00424692 -0.00372902 -0.00315754 -0.00254768 -0.00191462 -0.00125837 -0.000578925 0.000123716 0.000849553 0.00159858 0.00237081 0.00314038 0.00388142 0.00459396 0.00527797 0.00593347 0.00656045 0.00715892 0.00772887 0.00824983 0.00870133 0.00908337 0.00939594 0.00963906 0.00981271 0.00991691 0.00995164 0.00991691 0.00981271 0.00963906 0.00939594 0.00908337 0.00870133 0.00824983 0.00772887 0.00715892 0.00656045 0.00593347 0.00527797 0.00459396 0.00388142 0.00314038 0.00237081 0.00159858 0.000849553 0.000123717 -0.000578925 -0.00125837 -0.00191462 -0.00254768 -0.00315754 -0.00372902 -0.00424692 -0.00471123 -0.00512197 -0.00547913 -0.00578271 -0.00603272 -0.00622914 -0.00637304 -0.00646547 -0.00650644 -0.00649595 -0.00643399 -0.00632056 -0.00615567 -0.00593931 -0.00568644 -0.00541201 -0.00511603 -0.0047985 -0.00445941 -0.00409876 -0.00371656 -0.0033128 -0.00291125 -0.00253566 -0.00218603 -0.00186237 -0.00156466 -0.00129293 -0.00104715 -0.000827333 -0.000633427 -0.000465375 -0.000323177 -0.000206833 -0.000116344 -5.17083e-05 -1.29271e-05 0 0 -1.49676e-05 -5.98704e-05 -0.000134708 -0.000239482 -0.00037419 -0.000538834 -0.000733413 -0.000957927 -0.00121175 -0.00149427 -0.00180548 -0.00214538 -0.00251397 -0.00291125 -0.00333722 -0.00379188 -0.00424746 -0.00467619 -0.00507807 -0.00545309 -0.00580126 -0.00612258 -0.00641705 -0.00668466 -0.006908 -0.00706966 -0.00716962 -0.00720788 -0.00718446 -0.00709935 -0.00695254 -0.00674405 -0.00647288 -0.00613806 -0.00573959 -0.00527747 -0.0047517 -0.00416227 -0.0035092 -0.00279248 -0.00203055 -0.00124189 -0.000426476 0.000415679 0.00128458 0.00218022 0.00310261 0.00405174 0.00499647 0.00590563 0.00677924 0.00761729 0.00841979 0.00918672 0.0099181 0.0106139 0.0112496 0.0118005 0.0122666 0.012648 0.0129447 0.0131566 0.0132837 0.0133261 0.0132837 0.0131566 0.0129447 0.012648 0.0122666 0.0118005 0.0112496 0.0106139 0.0099181 0.00918672 0.00841979 0.00761729 0.00677924 0.00590563 0.00499647 0.00405174 0.00310261 0.00218022 0.00128458 0.000415679 -0.000426477 -0.00124189 -0.00203055 -0.00279248 -0.0035092 -0.00416228 -0.0047517 -0.00527747 -0.00573959 -0.00613806 -0.00647288 -0.00674405 -0.00695254 -0.00709935 -0.00718446 -0.00720789 -0.00716962 -0.00706966 -0.00690801 -0.00668466 -0.00641705 -0.00612258 -0.00580126 -0.00545309 -0.00507807 -0.00467619 -0.00424746 -0.00379188 -0.00333722 -0.00291125 -0.00251397 -0.00214538 -0.00180548 -0.00149427 -0.00121176 -0.000957928 -0.000733413 -0.000538834 -0.000374191 -0.000239482 -0.000134709 -5.98705e-05 -1.49676e-05 0 0 -1.71673e-05 -6.86691e-05 -0.000154505 -0.000274676 -0.000429182 -0.000618021 -0.000841196 -0.0010987 -0.0013891 -0.00171095 -0.00206424 -0.00244898 -0.00286517 -0.0033128 -0.00379188 -0.00430241 -0.00481225 -0.00528927 -0.00573348 -0.00614486 -0.00652343 -0.00686919 -0.00718212 -0.00746224 -0.00768945 -0.00784366 -0.00792487 -0.00793309 -0.0078683 -0.00773053 -0.00751975 -0.00723597 -0.00687834 -0.00644598 -0.00593889 -0.00535707 -0.00470053 -0.00396927 -0.00316327 -0.00228255 -0.00134919 -0.000385278 0.000609192 0.00163422 0.0026898 0.00377594 0.00489263 0.00603987 0.00718065 0.00827794 0.00933174 0.010342 0.0113089 0.0122322 0.013112 0.0139484 0.0147121 0.0153739 0.0159339 0.0163922 0.0167485 0.0170031 0.0171558 0.0172068 0.0171558 0.0170031 0.0167485 0.0163922 0.015934 0.0153739 0.0147121 0.0139484 0.013112 0.0122322 0.0113089 0.010342 0.00933174 0.00827794 0.00718065 0.00603987 0.00489263 0.00377594 0.0026898 0.00163422 0.000609192 -0.000385279 -0.00134919 -0.00228255 -0.00316327 -0.00396927 -0.00470053 -0.00535707 -0.00593889 -0.00644598 -0.00687834 -0.00723598 -0.00751975 -0.00773053 -0.00786831 -0.00793309 -0.00792487 -0.00784366 -0.00768945 -0.00746224 -0.00718212 -0.00686919 -0.00652344 -0.00614487 -0.00573348 -0.00528927 -0.00481225 -0.00430241 -0.00379188 -0.0033128 -0.00286517 -0.00244898 -0.00206424 -0.00171095 -0.00138911 -0.00109871 -0.000841197 -0.000618022 -0.000429182 -0.000274676 -0.000154505 -6.86691e-05 -1.71673e-05 0 0 -1.94167e-05 -7.76668e-05 -0.00017475 -0.000310667 -0.000485418 -0.000699002 -0.000951419 -0.00124267 -0.00157028 -0.00193177 -0.00232714 -0.0027564 -0.00321954 -0.00371656 -0.00424746 -0.00481225 -0.00537409 -0.00589615 -0.00637843 -0.00682094 -0.00722367 -0.00758662 -0.0079098 -0.00819319 -0.00841386 -0.00854882 -0.0085981 -0.00856168 -0.00843957 -0.00823176 -0.00793826 -0.00755906 -0.00709353 -0.00654103 -0.00590155 -0.00517509 -0.00436166 -0.00346125 -0.00247387 -0.00139952 -0.00026443 0.00090514 0.00210919 0.00334773 0.00462075 0.00592826 0.00727025 0.00864672 0.010014 0.0113285 0.0125902 0.013799 0.014955 0.0160582 0.0171086 0.0181062 0.0190166 0.0198057 0.0204733 0.0210196 0.0214445 0.0217479 0.02193 0.0219907 0.02193 0.0217479 0.0214445 0.0210196 0.0204733 0.0198057 0.0190166 0.0181062 0.0171086 0.0160582 0.014955 0.013799 0.0125902 0.0113285 0.010014 0.00864672 0.00727025 0.00592826 0.00462075 0.00334773 0.00210919 0.00090514 -0.00026443 -0.00139952 -0.00247387 -0.00346126 -0.00436166 -0.00517509 -0.00590155 -0.00654103 -0.00709353 -0.00755906 -0.00793826 -0.00823176 -0.00843957 -0.00856168 -0.0085981 -0.00854883 -0.00841386 -0.0081932 -0.0079098 -0.00758662 -0.00722367 -0.00682094 -0.00637843 -0.00589615 -0.00537409 -0.00481225 -0.00424746 -0.00371656 -0.00321954 -0.0027564 -0.00232714 -0.00193177 -0.00157028 -0.00124267 -0.00095142 -0.000699002 -0.000485418 -0.000310668 -0.000174751 -7.76669e-05 -1.94167e-05 0 0 -2.16066e-05 -8.64265e-05 -0.00019446 -0.000345706 -0.000540166 -0.000777839 -0.00105872 -0.00138282 -0.00174636 -0.00214554 -0.00258037 -0.00305085 -0.00355698 -0.00409876 -0.00467619 -0.00528927 -0.00589615 -0.00645497 -0.00696573 -0.00742844 -0.00784309 -0.00820968 -0.00852822 -0.0087987 -0.0089951 -0.00909142 -0.00908765 -0.00898379 -0.00877984 -0.0084758 -0.00807167 -0.00756745 -0.0069629 -0.00625778 -0.0054521 -0.00454584 -0.00353901 -0.00243161 -0.00122365 8.48915e-05 0.00146291 0.00287931 0.00433409 0.00582726 0.00735881 0.00892875 0.0105371 0.0121838 0.0138177 0.0153875 0.0168932 0.0183349 0.0197126 0.0210262 0.0222757 0.0234612 0.0245426 0.0254798 0.0262728 0.0269216 0.0274262 0.0277867 0.028003 0.0280751 0.028003 0.0277867 0.0274262 0.0269216 0.0262728 0.0254798 0.0245426 0.0234612 0.0222757 0.0210262 0.0197126 0.0183349 0.0168932 0.0153875 0.0138177 0.0121838 0.0105371 0.00892875 0.00735881 0.00582726 0.00433409 0.0028793 0.00146291 8.48911e-05 -0.00122365 -0.00243161 -0.00353901 -0.00454584 -0.0054521 -0.00625778 -0.0069629 -0.00756745 -0.00807167 -0.0084758 -0.00877984 -0.00898379 -0.00908765 -0.00909142 -0.00899511 -0.0087987 -0.00852822 -0.00820968 -0.00784309 -0.00742844 -0.00696573 -0.00645497 -0.00589615 -0.00528927 -0.00467619 -0.00409876 -0.00355698 -0.00305085 -0.00258037 -0.00214554 -0.00174636 -0.00138283 -0.00105873 -0.000777839 -0.000540166 -0.000345706 -0.00019446 -8.64266e-05 -2.16066e-05 0 0 -2.3737e-05 -9.49481e-05 -0.000213633 -0.000379792 -0.000593426 -0.000854533 -0.00116311 -0.00151917 -0.00191734 -0.00235225 -0.00282392 -0.00333233 -0.00387749 -0.00445941 -0.00507807 -0.00573348 -0.00637843 -0.00696573 -0.00749538 -0.00796736 -0.00838169 -0.00873837 -0.00903739 -0.00927875 -0.00943319 -0.00947145 -0.00939352 -0.00919941 -0.00888912 -0.00846264 -0.00791998 -0.00726114 -0.00648644 -0.00559624 -0.00459053 -0.00346931 -0.00223258 -0.000880338 0.000587411 0.00217067 0.00383281 0.00553722 0.00728388 0.0090728 0.010904 0.0127774 0.0146931 0.0166511 0.0185916 0.0204549 0.022241 0.0239499 0.0255816 0.0271361 0.0286134 0.0300136 0.03129 0.0323963 0.0333323 0.0340982 0.0346939 0.0351194 0.0353747 0.0354597 0.0353747 0.0351194 0.0346939 0.0340982 0.0333323 0.0323963 0.03129 0.0300136 0.0286134 0.0271361 0.0255816 0.0239499 0.022241 0.0204549 0.0185916 0.0166511 0.0146931 0.0127774 0.010904 0.0090728 0.00728388 0.00553722 0.00383281 0.00217067 0.000587411 -0.000880339 -0.00223258 -0.00346931 -0.00459053 -0.00559624 -0.00648644 -0.00726114 -0.00791998 -0.00846264 -0.00888912 -0.00919942 -0.00939352 -0.00947145 -0.00943319 -0.00927875 -0.00903739 -0.00873837 -0.0083817 -0.00796736 -0.00749538 -0.00696573 -0.00637843 -0.00573348 -0.00507807 -0.00445941 -0.0038775 -0.00333233 -0.00282392 -0.00235225 -0.00191734 -0.00151917 -0.00116311 -0.000854533 -0.000593426 -0.000379793 -0.000213633 -9.49482e-05 -2.3737e-05 0 0 -2.58079e-05 -0.000103232 -0.000232271 -0.000412926 -0.000645197 -0.000929084 -0.00126459 -0.00165171 -0.00208322 -0.00255192 -0.00305779 -0.00360085 -0.00418108 -0.0047985 -0.00545309 -0.00614486 -0.00682094 -0.00742844 -0.00796736 -0.00843771 -0.00883948 -0.0091