<?xml version="1.0"?> 
<VTKFile type="StructuredGrid" version="0.1"> 
<StructuredGrid WholeExtent="0 128 0 128 0 0"> 
<Piece Extent="0 128 0 128 0 0"> 
<PointData>
<DataArray type="Float32" Name="u" format="ascii" NumberOfComponents="1"> 
0 0 0 0 0 0 0 0 0 0 0 0 0 0 0 0 0 0 0 0 0 0 0 0 0 0 0 0 0 0 0 0 0 0 0 0 0 0 0 0 0 0 0 0 0 0 0 0 0 0 0 0 0 0 0 0 0 0 0 0 0 0 0 0 0 0 0 0 0 0 0 0 0 0 0 0 0 0 0 0 0 0 0 0 0 0 0 0 0 0 0 0 0 0 0 0 0 0 0 0 0 0 0 0 0 0 0 0 0 0 0 0 0 0 0 0 0 0 0 0 0 0 0 0 0 0 0 0 0 0 -6.26184e-08 -2.50474e-07 -5.63566e-07 -1.00189e-06 -1.56546e-06 -2.25426e-06 -3.0683e-06 -4.00758e-06 -5.08787e-06 -6.32496e-06 -7.71884e-06 -9.26951e-06 -1.0977e-05 -1.28412e-05 -1.48623e-05 -1.70402e-05 -1.92653e-05 -2.14281e-05 -2.35286e-05 -2.55669e-05 -2.75429e-05 -2.94566e-05 -3.1308e-05 -3.30971e-05 -3.47535e-05 -3.62067e-05 -3.74567e-05 -3.85035e-05 -3.93471e-05 -3.99876e-05 -4.04248e-05 -4.06589e-05 -4.06789e-05 -4.04739e-05 -4.00439e-05 -3.9389e-05 -3.85091e-05 -3.74043e-05 -3.60744e-05 -3.45196e-05 -3.27944e-05 -3.0953e-05 -2.89957e-05 -2.69223e-05 -2.47328e-05 -2.24273e-05 -2.00058e-05 -1.74683e-05 -1.49137e-05 -1.24413e-05 -1.00508e-05 -7.7425e-06 -5.51621e-06 -3.37199e-06 -1.30982e-06 6.70278e-07 2.48815e-06 4.06365e-06 5.39676e-06 6.48748e-06 7.33583e-06 7.94179e-06 8.30536e-06 8.42655e-06 8.30536e-06 7.94179e-06 7.33583e-06 6.48748e-06 5.39676e-06 4.06365e-06 2.48816e-06 6.70279e-07 -1.30982e-06 -3.37198e-06 -5.51621e-06 -7.7425e-06 -1.00508e-05 -1.24413e-05 -1.49137e-05 -1.74683e-05 -2.00058e-05 -2.24273e-05 -2.47328e-05 -2.69223e-05 -2.89957e-05 -3.0953e-05 -3.27944e-05 -3.45196e-05 -3.60744e-05 -3.74043e-05 -3.85091e-05 -3.9389e-05 -4.00439e-05 -4.04739e-05 -4.06789e-05 -4.06589e-05 -4.04248e-05 -3.99876e-05 -3.93471e-05 -3.85035e-05 -3.74567e-05 -3.62067e-05 -3.47535e-05 -3.30971e-05 -3.1308e-05 -2.94566e-05 -2.75429e-05 -2.55669e-05 -2.35286e-05 -2.14281e-05 -1.92653e-05 -1.70402e-05 -1.48623e-05 -1.28413e-05 -1.0977e-05 -9.26952e-06 -7.71884e-06 -6.32496e-06 -5.08788e-06 -4.00758e-06 -3.06831e-06 -2.25427e-06 -1.56546e-06 -1.0019e-06 -5.63566e-07 -2.50474e-07 -6.26185e-08 0 0 -2.50474e-07 -1.00189e-06 -2.25426e-06 -4.00758e-06 -6.26184e-06 -9.01705e-06 -1.22732e-05 -1.60303e-05 -2.03515e-05 -2.52998e-05 -3.08754e-05 -3.70781e-05 -4.39079e-05 -5.1365e-05 -5.94492e-05 -6.81607e-05 -7.70611e-05 -8.57124e-05 -9.41146e-05 -0.000102268 -0.000110171 -0.000117826 -0.000125232 -0.000132388 -0.000139014 -0.000144827 -0.000149827 -0.000154014 -0.000157389 -0.00015995 -0.000161699 -0.000162636 -0.000162715 -0.000161895 -0.000160176 -0.000157556 -0.000154036 -0.000149617 -0.000144298 -0.000138079 -0.000131177 -0.000123812 -0.000115983 -0.000107689 -9.89313e-05 -8.97094e-05 -8.00233e-05 -6.98731e-05 -5.9655e-05 -4.9765e-05 -4.02034e-05 -3.097e-05 -2.20648e-05 -1.34879e-05 -5.23929e-06 2.68111e-06 9.95262e-06 1.62546e-05 2.1587e-05 2.59499e-05 2.93433e-05 3.17671e-05 3.32214e-05 3.37062e-05 3.32214e-05 3.17671e-05 2.93433e-05 2.59499e-05 2.1587e-05 1.62546e-05 9.95262e-06 2.68111e-06 -5.23929e-06 -1.34879e-05 -2.20648e-05 -3.097e-05 -4.02034e-05 -4.9765e-05 -5.96549e-05 -6.98731e-05 -8.00233e-05 -8.97094e-05 -9.89313e-05 -0.000107689 -0.000115983 -0.000123812 -0.000131177 -0.000138079 -0.000144298 -0.000149617 -0.000154036 -0.000157556 -0.000160176 -0.000161895 -0.000162715 -0.000162636 -0.000161699 -0.00015995 -0.000157389 -0.000154014 -0.000149827 -0.000144827 -0.000139014 -0.000132388 -0.000125232 -0.000117826 -0.000110172 -0.000102268 -9.41146e-05 -8.57124e-05 -7.70611e-05 -6.81607e-05 -5.94493e-05 -5.1365e-05 -4.3908e-05 -3.70781e-05 -3.08754e-05 -2.52999e-05 -2.03515e-05 -1.60303e-05 -1.22732e-05 -9.01706e-06 -6.26185e-06 -4.00758e-06 -2.25427e-06 -1.0019e-06 -2.50474e-07 0 0 -5.63566e-07 -2.25426e-06 -5.07209e-06 -9.01705e-06 -1.40891e-05 -2.02884e-05 -2.76147e-05 -3.60682e-05 -4.57908e-05 -5.69246e-05 -6.94695e-05 -8.34256e-05 -9.87929e-05 -0.000115571 -0.000133761 -0.000153361 -0.000173387 -0.000192853 -0.000211758 -0.000230102 -0.000247886 -0.000265109 -0.000281772 -0.000297874 -0.000312781 -0.00032586 -0.00033711 -0.000346532 -0.000354124 -0.000359888 -0.000363823 -0.00036593 -0.00036611 -0.000364265 -0.000360395 -0.000354501 -0.000346582 -0.000336638 -0.00032467 -0.000310677 -0.000295149 -0.000278577 -0.000260961 -0.0002423 -0.000222595 -0.000201846 -0.000180052 -0.000157214 -0.000134224 -0.000111971 -9.04576e-05 -6.96825e-05 -4.96459e-05 -3.03479e-05 -1.17884e-05 6.0325e-06 2.23934e-05 3.65728e-05 4.85708e-05 5.83874e-05 6.60224e-05 7.14761e-05 7.47483e-05 7.5839e-05 7.47483e-05 7.14761e-05 6.60224e-05 5.83874e-05 4.85708e-05 3.65728e-05 2.23934e-05 6.03251e-06 -1.17884e-05 -3.03479e-05 -4.96459e-05 -6.96825e-05 -9.04576e-05 -0.000111971 -0.000134224 -0.000157214 -0.000180052 -0.000201846 -0.000222595 -0.0002423 -0.000260961 -0.000278577 -0.000295149 -0.000310677 -0.00032467 -0.000336638 -0.000346582 -0.000354501 -0.000360395 -0.000364265 -0.00036611 -0.00036593 -0.000363823 -0.000359888 -0.000354124 -0.000346532 -0.00033711 -0.00032586 -0.000312781 -0.000297874 -0.000281772 -0.000265109 -0.000247886 -0.000230102 -0.000211758 -0.000192853 -0.000173388 -0.000153362 -0.000133761 -0.000115571 -9.87929e-05 -8.34257e-05 -6.94696e-05 -5.69247e-05 -4.57909e-05 -3.60682e-05 -2.76147e-05 -2.02884e-05 -1.40892e-05 -9.01706e-06 -5.0721e-06 -2.25427e-06 -5.63566e-07 0 0 -1.00189e-06 -4.00758e-06 -9.01705e-06 -1.60303e-05 -2.50474e-05 -3.60682e-05 -4.90928e-05 -6.41213e-05 -8.14059e-05 -0.000101199 -0.000123501 -0.000148312 -0.000175632 -0.00020546 -0.000237797 -0.000272643 -0.000308244 -0.00034285 -0.000376458 -0.00040907 -0.000440686 -0.000471305 -0.000500928 -0.000529554 -0.000556056 -0.000579307 -0.000599307 -0.000616056 -0.000629554 -0.000639801 -0.000646797 -0.000650542 -0.000650862 -0.000647582 -0.000640703 -0.000630224 -0.000616146 -0.000598468 -0.000577191 -0.000552314 -0.00052471 -0.000495248 -0.000463931 -0.000430756 -0.000395725 -0.000358837 -0.000320093 -0.000279492 -0.00023862 -0.00019906 -0.000160814 -0.00012388 -8.82594e-05 -5.39518e-05 -2.09572e-05 1.07244e-05 3.98105e-05 6.50184e-05 8.63481e-05 0.0001038 0.000117373 0.000127069 0.000132886 0.000134825 0.000132886 0.000127069 0.000117373 0.0001038 8.63481e-05 6.50184e-05 3.98105e-05 1.07245e-05 -2.09571e-05 -5.39517e-05 -8.82594e-05 -0.00012388 -0.000160814 -0.00019906 -0.00023862 -0.000279492 -0.000320093 -0.000358837 -0.000395725 -0.000430756 -0.000463931 -0.000495248 -0.00052471 -0.000552314 -0.000577191 -0.000598468 -0.000616146 -0.000630224 -0.000640703 -0.000647582 -0.000650862 -0.000650542 -0.000646797 -0.000639801 -0.000629554 -0.000616056 -0.000599307 -0.000579307 -0.000556056 -0.000529554 -0.000500928 -0.000471305 -0.000440686 -0.000409071 -0.000376458 -0.00034285 -0.000308244 -0.000272643 -0.000237797 -0.00020546 -0.000175632 -0.000148312 -0.000123502 -0.000101199 -8.1406e-05 -6.41213e-05 -4.90929e-05 -3.60682e-05 -2.50474e-05 -1.60303e-05 -9.01706e-06 -4.00758e-06 -1.0019e-06 0 0 -1.56546e-06 -6.26184e-06 -1.40891e-05 -2.50474e-05 -3.91365e-05 -5.63566e-05 -7.67076e-05 -0.000100189 -0.000127197 -0.000158124 -0.000192971 -0.000231738 -0.000274425 -0.000321031 -0.000371558 -0.000426004 -0.000481632 -0.000535702 -0.000588216 -0.000639172 -0.000688572 -0.000736414 -0.000782699 -0.000827427 -0.000868837 -0.000905167 -0.000936417 -0.000962588 -0.000983678 -0.000999689 -0.00101062 -0.00101647 -0.00101697 -0.00101185 -0.0010011 -0.000984725 -0.000962728 -0.000935106 -0.000901861 -0.000862991 -0.000819859 -0.000773826 -0.000724891 -0.000673056 -0.00061832 -0.000560684 -0.000500146 -0.000436707 -0.000372843 -0.000311032 -0.000251271 -0.000193562 -0.000137905 -8.42996e-05 -3.27456e-05 1.67569e-05 6.22039e-05 0.000101591 0.000134919 0.000162187 0.000183396 0.000198545 0.000207634 0.000210664 0.000207634 0.000198545 0.000183396 0.000162187 0.000134919 0.000101591 6.22039e-05 1.6757e-05 -3.27455e-05 -8.42996e-05 -0.000137905 -0.000193562 -0.000251271 -0.000311032 -0.000372843 -0.000436707 -0.000500146 -0.000560684 -0.00061832 -0.000673056 -0.000724892 -0.000773826 -0.000819859 -0.000862991 -0.000901861 -0.000935106 -0.000962728 -0.000984725 -0.0010011 -0.00101185 -0.00101697 -0.00101647 -0.00101062 -0.000999689 -0.000983678 -0.000962588 -0.000936417 -0.000905167 -0.000868837 -0.000827428 -0.000782699 -0.000736414 -0.000688572 -0.000639173 -0.000588216 -0.000535703 -0.000481632 -0.000426004 -0.000371558 -0.000321031 -0.000274425 -0.000231738 -0.000192971 -0.000158124 -0.000127197 -0.00010019 -7.67076e-05 -5.63566e-05 -3.91365e-05 -2.50474e-05 -1.40892e-05 -6.26185e-06 -1.56546e-06 0 0 -2.25426e-06 -9.01705e-06 -2.02884e-05 -3.60682e-05 -5.63566e-05 -8.11535e-05 -0.000110459 -0.000144273 -0.000183163 -0.000227698 -0.000277878 -0.000333703 -0.000395171 -0.000462285 -0.000535043 -0.000613446 -0.00069355 -0.000771412 -0.000847031 -0.000920408 -0.000991543 -0.00106044 -0.00112709 -0.0011915 -0.00125113 -0.00130344 -0.00134844 -0.00138613 -0.0014165 -0.00143955 -0.00145529 -0.00146372 -0.00146444 -0.00145706 -0.00144158 -0.001418 -0.00138633 -0.00134655 -0.00129868 -0.00124271 -0.0011806 -0.00111431 -0.00104384 -0.000969201 -0.000890381 -0.000807384 -0.00072021 -0.000628858 -0.000536895 -0.000447885 -0.000361831 -0.00027873 -0.000198584 -0.000121391 -4.71536e-05 2.413e-05 8.95736e-05 0.000146291 0.000194283 0.000233549 0.00026409 0.000285904 0.000298993 0.000303356 0.000298993 0.000285904 0.00026409 0.000233549 0.000194283 0.000146291 8.95736e-05 2.413e-05 -4.71536e-05 -0.000121391 -0.000198584 -0.00027873 -0.000361831 -0.000447885 -0.000536895 -0.000628858 -0.00072021 -0.000807384 -0.000890381 -0.000969201 -0.00104384 -0.00111431 -0.0011806 -0.00124271 -0.00129868 -0.00134655 -0.00138633 -0.001418 -0.00144158 -0.00145706 -0.00146444 -0.00146372 -0.00145529 -0.00143955 -0.0014165 -0.00138613 -0.00134844 -0.00130344 -0.00125113 -0.0011915 -0.00112709 -0.00106044 -0.000991544 -0.000920409 -0.000847031 -0.000771412 -0.00069355 -0.000613446 -0.000535043 -0.000462285 -0.000395172 -0.000333703 -0.000277878 -0.000227699 -0.000183164 -0.000144273 -0.000110459 -8.11535e-05 -5.63566e-05 -3.60682e-05 -2.02884e-05 -9.01706e-06 -2.25427e-06 0 0 -3.0683e-06 -1.22732e-05 -2.76147e-05 -4.90928e-05 -7.67076e-05 -0.000110459 -0.000150347 -0.000196371 -0.000249306 -0.000309923 -0.000378223 -0.000454206 -0.000537872 -0.000629221 -0.000728253 -0.000834968 -0.000943998 -0.00104998 -0.0011529 -0.00125278 -0.0013496 -0.00144337 -0.00153409 -0.00162176 -0.00170292 -0.00177413 -0.00183538 -0.00188667 -0.00192801 -0.00195939 -0.00198082 -0.00199229 -0.00199326 -0.00198322 -0.00196215 -0.00193006 -0.00188695 -0.00183281 -0.00176765 -0.00169146 -0.00160692 -0.0015167 -0.00142079 -0.00131919 -0.00121191 -0.00109894 -0.000980286 -0.000855946 -0.000730773 -0.000609622 -0.000492492 -0.000379382 -0.000270294 -0.000165227 -6.41813e-05 3.28436e-05 0.00012192 0.000199119 0.000264441 0.000317887 0.000359456 0.000389148 0.000406963 0.000412901 0.000406963 0.000389148 0.000359456 0.000317887 0.000264441 0.000199119 0.00012192 3.28437e-05 -6.41813e-05 -0.000165227 -0.000270294 -0.000379382 -0.000492492 -0.000609622 -0.000730773 -0.000855945 -0.000980286 -0.00109894 -0.00121191 -0.00131919 -0.00142079 -0.0015167 -0.00160692 -0.00169146 -0.00176765 -0.00183281 -0.00188695 -0.00193006 -0.00196215 -0.00198322 -0.00199326 -0.00199229 -0.00198082 -0.00195939 -0.00192801 -0.00188667 -0.00183538 -0.00177413 -0.00170292 -0.00162176 -0.00153409 -0.00144337 -0.0013496 -0.00125278 -0.0011529 -0.00104998 -0.000943999 -0.000834968 -0.000728254 -0.000629222 -0.000537873 -0.000454207 -0.000378223 -0.000309923 -0.000249306 -0.000196372 -0.000150347 -0.000110459 -7.67076e-05 -4.90929e-05 -2.76147e-05 -1.22732e-05 -3.06831e-06 0 0 -4.00758e-06 -1.60303e-05 -3.60682e-05 -6.41213e-05 -0.000100189 -0.000144273 -0.000196371 -0.000256485 -0.000325624 -0.000404797 -0.000494006 -0.000593249 -0.000702527 -0.00082184 -0.000951188 -0.00109057 -0.00123298 -0.0013714 -0.00150583 -0.00163628 -0.00176274 -0.00188522 -0.00200371 -0.00211821 -0.00222422 -0.00231723 -0.00239723 -0.00246422 -0.00251822 -0.0025592 -0.00258719 -0.00260217 -0.00260345 -0.00259033 -0.00256281 -0.0025209 -0.00246458 -0.00239387 -0.00230876 -0.00220926 -0.00209884 -0.00198099 -0.00185572 -0.00172302 -0.0015829 -0.00143535 -0.00128037 -0.00111797 -0.000954479 -0.000796241 -0.000643254 -0.00049552 -0.000353037 -0.000215807 -8.38286e-05 4.28978e-05 0.000159242 0.000260073 0.000345393 0.000415199 0.000469493 0.000508274 0.000531543 0.000539299 0.000531543 0.000508274 0.000469493 0.000415199 0.000345393 0.000260074 0.000159242 4.28978e-05 -8.38286e-05 -0.000215807 -0.000353037 -0.00049552 -0.000643254 -0.000796241 -0.000954479 -0.00111797 -0.00128037 -0.00143535 -0.0015829 -0.00172302 -0.00185572 -0.00198099 -0.00209884 -0.00220926 -0.00230876 -0.00239387 -0.00246458 -0.0025209 -0.00256281 -0.00259033 -0.00260345 -0.00260217 -0.00258719 -0.0025592 -0.00251822 -0.00246422 -0.00239723 -0.00231723 -0.00222422 -0.00211821 -0.00200371 -0.00188522 -0.00176274 -0.00163628 -0.00150583 -0.0013714 -0.00123298 -0.00109057 -0.000951188 -0.00082184 -0.000702527 -0.000593249 -0.000494006 -0.000404798 -0.000325624 -0.000256485 -0.000196372 -0.000144273 -0.00010019 -6.41213e-05 -3.60682e-05 -1.60303e-05 -4.00758e-06 0 0 -5.08787e-06 -2.03515e-05 -4.57908e-05 -8.14059e-05 -0.000127197 -0.000183163 -0.000249306 -0.000325624 -0.000413307 -0.000513546 -0.00062634 -0.000751689 -0.000889593 -0.00104005 -0.00120307 -0.00137864 -0.00155783 -0.0017317 -0.00190026 -0.0020635 -0.00222142 -0.00237403 -0.00252132 -0.00266329 -0.00279421 -0.00290834 -0.00300567 -0.00308621 -0.00314995 -0.0031969 -0.00322706 -0.00324042 -0.00323613 -0.00321335 -0.00317207 -0.00311229 -0.00303402 -0.00293724 -0.00282197 -0.0026882 -0.00254047 -0.00238333 -0.00221677 -0.00204081 -0.00185542 -0.00166063 -0.00145642 -0.00124279 -0.00102796 -0.000820149 -0.000619345 -0.000425552 -0.00023877 -5.89996e-05 0.00011376 0.000279508 0.000431611 0.000563433 0.000674975 0.000766237 0.000837218 0.000887919 0.000918339 0.00092848 0.000918339 0.000887919 0.000837218 0.000766237 0.000674975 0.000563433 0.000431611 0.000279508 0.00011376 -5.89995e-05 -0.00023877 -0.000425552 -0.000619345 -0.000820149 -0.00102796 -0.00124279 -0.00145641 -0.00166063 -0.00185542 -0.00204081 -0.00221677 -0.00238333 -0.00254047 -0.0026882 -0.00282197 -0.00293724 -0.00303402 -0.00311229 -0.00317207 -0.00321335 -0.00323613 -0.00324042 -0.00322706 -0.0031969 -0.00314995 -0.00308621 -0.00300567 -0.00290834 -0.00279421 -0.00266329 -0.00252132 -0.00237403 -0.00222142 -0.0020635 -0.00190026 -0.0017317 -0.00155783 -0.00137864 -0.00120307 -0.00104005 -0.000889594 -0.000751689 -0.00062634 -0.000513546 -0.000413308 -0.000325624 -0.000249306 -0.000183164 -0.000127197 -8.1406e-05 -4.57909e-05 -2.03515e-05 -5.08788e-06 0 0 -6.32496e-06 -2.52998e-05 -5.69246e-05 -0.000101199 -0.000158124 -0.000227698 -0.000309923 -0.000404797 -0.000513546 -0.000637393 -0.00077634 -0.000930385 -0.00109953 -0.00128377 -0.00148311 -0.00169755 -0.00191588 -0.0021269 -0.00233061 -0.002527 -0.00271607 -0.00289784 -0.00307229 -0.00323942 -0.00339207 -0.00352306 -0.00363238 -0.00372004 -0.00378605 -0.00383039 -0.00385307 -0.00385408 -0.00383247 -0.00378726 -0.00371845 -0.00362604 -0.00351002 -0.00337041 -0.0032072 -0.00302039 -0.00281595 -0.00259984 -0.00237207 -0.00213264 -0.00188154 -0.00161878 -0.00134435 -0.00105827 -0.000771179 -0.000493753 -0.000225989 3.21118e-05 0.00028055 0.000519326 0.00074844 0.000967891 0.0011691 0.00134348 0.00149103 0.00161175 0.00170565 0.00177272 0.00181296 0.00182637 0.00181296 0.00177272 0.00170565 0.00161175 0.00149103 0.00134348 0.0011691 0.000967891 0.00074844 0.000519326 0.00028055 3.21119e-05 -0.000225989 -0.000493753 -0.000771178 -0.00105827 -0.00134435 -0.00161878 -0.00188154 -0.00213264 -0.00237207 -0.00259984 -0.00281595 -0.00302039 -0.0032072 -0.00337041 -0.00351002 -0.00362604 -0.00371845 -0.00378726 -0.00383247 -0.00385409 -0.00385307 -0.00383039 -0.00378605 -0.00372004 -0.00363238 -0.00352306 -0.00339207 -0.00323942 -0.00307229 -0.00289784 -0.00271608 -0.002527 -0.00233061 -0.0021269 -0.00191588 -0.00169755 -0.00148311 -0.00128377 -0.00109953 -0.000930385 -0.00077634 -0.000637394 -0.000513546 -0.000404798 -0.000309923 -0.000227699 -0.000158124 -0.000101199 -5.69247e-05 -2.52999e-05 -6.32496e-06 0 0 -7.71884e-06 -3.08754e-05 -6.94695e-05 -0.000123501 -0.000192971 -0.000277878 -0.000378223 -0.000494006 -0.00062634 -0.00077634 -0.000944005 -0.00112934 -0.00133233 -0.00155299 -0.00179132 -0.00204731 -0.00230715 -0.00255701 -0.00279689 -0.00302679 -0.00324671 -0.00345665 -0.00365662 -0.0038466 -0.00401779 -0.00416138 -0.00427736 -0.00436573 -0.0044265 -0.00445966 -0.00446522 -0.00444317 -0.00439246 -0.00431205 -0.00420194 -0.00406213 -0.00389261 -0.00369339 -0.00346446 -0.00320583 -0.00292527 -0.00263053 -0.00232161 -0.00199852 -0.00166125 -0.00130981 -0.000944192 -0.0005644 -0.000184123 0.000182948 0.000536813 0.000877471 0.00120492 0.00151917 0.00182021 0.00210805 0.0023717 0.0026002 0.00279355 0.00295174 0.00307478 0.00316266 0.00321539 0.00323297 0.00321539 0.00316266 0.00307478 0.00295174 0.00279355 0.0026002 0.0023717 0.00210805 0.00182021 0.00151917 0.00120492 0.000877471 0.000536813 0.000182948 -0.000184123 -0.0005644 -0.000944192 -0.00130981 -0.00166125 -0.00199852 -0.00232161 -0.00263053 -0.00292527 -0.00320583 -0.00346446 -0.00369339 -0.00389261 -0.00406213 -0.00420194 -0.00431205 -0.00439246 -0.00444317 -0.00446522 -0.00445966 -0.0044265 -0.00436574 -0.00427736 -0.00416138 -0.00401779 -0.0038466 -0.00365662 -0.00345665 -0.00324671 -0.00302679 -0.00279689 -0.00255701 -0.00230715 -0.00204732 -0.00179132 -0.00155299 -0.00133233 -0.00112934 -0.000944006 -0.00077634 -0.00062634 -0.000494006 -0.000378223 -0.000277878 -0.000192971 -0.000123502 -6.94696e-05 -3.08754e-05 -7.71884e-06 0 0 -9.26951e-06 -3.70781e-05 -8.34256e-05 -0.000148312 -0.000231738 -0.000333702 -0.000454206 -0.000593249 -0.000751689 -0.000930384 -0.00112934 -0.00134854 -0.001588 -0.00184772 -0.0021277 -0.00242793 -0.00273163 -0.00302202 -0.0032991 -0.00356287 -0.00381332 -0.00405047 -0.00427431 -0.00448483 -0.00467139 -0.00482331 -0.00494061 -0.00502328 -0.00507132 -0.00508473 -0.00506351 -0.00500767 -0.0049161 -0.00478773 -0.00462255 -0.00442056 -0.00418177 -0.00390616 -0.00359375 -0.00324453 -0.00286843 -0.00247539 -0.00206539 -0.00163845 -0.00119456 -0.000733717 -0.000255927 0.000238811 0.000733203 0.00120995 0.00166906 0.00211053 0.00253435 0.00294053 0.00332907 0.00369997 0.00403942 0.00433361 0.00458254 0.00478621 0.00494462 0.00505776 0.00512565 0.00514828 0.00512565 0.00505776 0.00494462 0.00478621 0.00458254 0.00433361 0.00403942 0.00369997 0.00332907 0.00294053 0.00253435 0.00211053 0.00166906 0.00120995 0.000733203 0.000238811 -0.000255927 -0.000733717 -0.00119456 -0.00163845 -0.00206539 -0.00247539 -0.00286843 -0.00324453 -0.00359375 -0.00390616 -0.00418177 -0.00442056 -0.00462255 -0.00478773 -0.0049161 -0.00500767 -0.00506351 -0.00508473 -0.00507132 -0.00502328 -0.00494061 -0.00482331 -0.00467139 -0.00448483 -0.00427431 -0.00405047 -0.00381332 -0.00356287 -0.0032991 -0.00302202 -0.00273163 -0.00242793 -0.0021277 -0.00184772 -0.00158801 -0.00134854 -0.00112934 -0.000930385 -0.000751689 -0.000593249 -0.000454207 -0.000333703 -0.000231738 -0.000148312 -8.34257e-05 -3.70781e-05 -9.26952e-06 0 0 -1.0977e-05 -4.39079e-05 -9.87929e-05 -0.000175632 -0.000274425 -0.000395171 -0.000537872 -0.000702527 -0.000889593 -0.00109953 -0.00133233 -0.001588 -0.00186655 -0.00216796 -0.00249224 -0.00283938 -0.00318931 -0.00352193 -0.00383724 -0.00413523 -0.00441592 -0.00467929 -0.00492536 -0.00515411 -0.00535285 -0.00550885 -0.00562213 -0.00569268 -0.0057205 -0.00570559 -0.00564795 -0.00554758 -0.00540339 -0.00521429 -0.00498027 -0.00470134 -0.0043775 -0.00400874 -0.00359507 -0.00313648 -0.00264544 -0.00213442 -0.00160342 -0.00105243 -0.000481458 0.000109499 0.00072044 0.00135137 0.0019808 0.00258726 0.00317075 0.00373128 0.00426883 0.00478341 0.00527503 0.00574367 0.00617226 0.0065437 0.006858 0.00711515 0.00731516 0.00745802 0.00754373 0.00757231 0.00754373 0.00745802 0.00731516 0.00711515 0.006858 0.0065437 0.00617226 0.00574367 0.00527503 0.00478341 0.00426883 0.00373128 0.00317075 0.00258726 0.0019808 0.00135137 0.00072044 0.000109499 -0.000481458 -0.00105243 -0.00160342 -0.00213442 -0.00264544 -0.00313648 -0.00359507 -0.00400874 -0.0043775 -0.00470134 -0.00498027 -0.00521429 -0.00540339 -0.00554758 -0.00564795 -0.00570559 -0.0057205 -0.00569268 -0.00562213 -0.00550885 -0.00535285 -0.00515411 -0.00492536 -0.00467929 -0.00441592 -0.00413523 -0.00383724 -0.00352193 -0.00318931 -0.00283939 -0.00249224 -0.00216796 -0.00186655 -0.00158801 -0.00133233 -0.00109953 -0.000889594 -0.000702528 -0.000537873 -0.000395172 -0.000274425 -0.000175632 -9.87929e-05 -4.3908e-05 -1.0977e-05 0 0 -1.28412e-05 -5.1365e-05 -0.000115571 -0.00020546 -0.000321031 -0.000462285 -0.000629221 -0.00082184 -0.00104005 -0.00128377 -0.00155299 -0.00184772 -0.00216796 -0.0025137 -0.00288494 -0.00328169 -0.00368021 -0.00405674 -0.0044113 -0.00474388 -0.00505449 -0.00534312 -0.00560977 -0.00585444 -0.00606217 -0.006218 -0.00632192 -0.00637393 -0.00637403 -0.00632223 -0.00621853 -0.00606291 -0.00585434 -0.00559174 -0.00527511 -0.00490447 -0.00447981 -0.00400112 -0.00346841 -0.00288168 -0.0022563 -0.00160764 -0.00093569 -0.000240463 0.000478046 0.00121984 0.00198491 0.00277326 0.00355866 0.00431488 0.0050419 0.00573973 0.00640836 0.00704781 0.00765807 0.00823914 0.00877021 0.00923047 0.00961992 0.00993857 0.0101864 0.0103634 0.0104696 0.010505 0.0104696 0.0103634 0.0101864 0.00993857 0.00961992 0.00923047 0.00877021 0.00823914 0.00765807 0.00704781 0.00640836 0.00573973 0.0050419 0.00431488 0.00355866 0.00277326 0.00198491 0.00121984 0.000478046 -0.000240463 -0.000935691 -0.00160764 -0.0022563 -0.00288168 -0.00346841 -0.00400112 -0.00447981 -0.00490447 -0.00527512 -0.00559174 -0.00585434 -0.00606291 -0.00621853 -0.00632223 -0.00637404 -0.00637393 -0.00632192 -0.006218 -0.00606217 -0.00585444 -0.00560977 -0.00534312 -0.00505449 -0.00474389 -0.0044113 -0.00405674 -0.00368021 -0.00328169 -0.00288494 -0.0025137 -0.00216796 -0.00184772 -0.00155299 -0.00128377 -0.00104005 -0.000821841 -0.000629222 -0.000462285 -0.000321031 -0.00020546 -0.000115571 -5.1365e-05 -1.28413e-05 0 0 -1.48623e-05 -5.94492e-05 -0.000133761 -0.000237797 -0.000371558 -0.000535043 -0.000728253 -0.000951188 -0.00120307 -0.00148311 -0.00179132 -0.0021277 -0.00249224 -0.00288494 -0.00330581 -0.00375485 -0.00420431 -0.00462646 -0.0050213 -0.00538883 -0.00572904 -0.00604195 -0.00632754 -0.00658582 -0.00679937 -0.00695075 -0.00703997 -0.00706703 -0.00703193 -0.00693467 -0.00677525 -0.00655366 -0.00626893 -0.00592007 -0.00550707 -0.00502995 -0.00448869 -0.0038833 -0.00321378 -0.00248014 -0.001701 -0.000895023 -6.22044e-05 0.000797455 0.00168396 0.0025973 0.00353748 0.00450451 0.0054668 0.00639279 0.00728248 0.00813587 0.00895295 0.00973373 0.0104782 0.0111864 0.0118333 0.0123939 0.0128683 0.0132565 0.0135583 0.013774 0.0139034 0.0139465 0.0139034 0.013774 0.0135583 0.0132565 0.0128683 0.0123939 0.0118333 0.0111864 0.0104782 0.00973373 0.00895295 0.00813587 0.00728248 0.00639279 0.0054668 0.00450451 0.00353748 0.0025973 0.00168396 0.000797455 -6.22045e-05 -0.000895023 -0.001701 -0.00248014 -0.00321378 -0.0038833 -0.00448869 -0.00502995 -0.00550707 -0.00592007 -0.00626893 -0.00655366 -0.00677525 -0.00693467 -0.00703193 -0.00706704 -0.00703997 -0.00695075 -0.00679937 -0.00658582 -0.00632754 -0.00604195 -0.00572904 -0.00538883 -0.0050213 -0.00462646 -0.00420431 -0.00375485 -0.00330581 -0.00288494 -0.00249224 -0.0021277 -0.00179132 -0.00148311 -0.00120307 -0.000951188 -0.000728254 -0.000535043 -0.000371558 -0.000237797 -0.000133761 -5.94493e-05 -1.48623e-05 0 0 -1.70402e-05 -6.81606e-05 -0.000153361 -0.000272643 -0.000426004 -0.000613446 -0.000834968 -0.00109057 -0.00137864 -0.00169755 -0.00204731 -0.00242793 -0.00283938 -0.00328169 -0.00375485 -0.00425885 -0.00476162 -0.00523108 -0.00566722 -0.00607006 -0.00643957 -0.00677578 -0.00707867 -0.00734825 -0.00756443 -0.00770711 -0.0077763 -0.00777199 -0.00769419 -0.0075429 -0.00731811 -0.00701982 -0.00664717 -0.00619928 -0.00567614 -0.00507777 -0.00440415 -0.00365529 -0.00283118 -0.00193184 -0.000979544 3.4156e-06 0.00101704 0.00206132 0.00313627 0.00424188 0.00537816 0.00654509 0.00770521 0.00882101 0.00989251 0.0109197 0.0119026 0.0128412 0.0137354 0.0145854 0.0153615 0.0160341 0.0166032 0.0170688 0.017431 0.0176897 0.0178449 0.0178966 0.0178449 0.0176897 0.017431 0.0170688 0.0166032 0.0160341 0.0153615 0.0145854 0.0137354 0.0128412 0.0119026 0.0109197 0.00989251 0.00882101 0.00770521 0.00654509 0.00537816 0.00424188 0.00313627 0.00206132 0.00101704 3.41542e-06 -0.000979544 -0.00193184 -0.00283119 -0.00365529 -0.00440415 -0.00507777 -0.00567615 -0.00619928 -0.00664717 -0.00701983 -0.00731811 -0.0075429 -0.00769419 -0.00777199 -0.0077763 -0.00770711 -0.00756443 -0.00734826 -0.00707868 -0.00677578 -0.00643958 -0.00607006 -0.00566723 -0.00523108 -0.00476162 -0.00425885 -0.00375485 -0.00328169 -0.00283939 -0.00242793 -0.00204732 -0.00169755 -0.00137864 -0.00109057 -0.000834968 -0.000613446 -0.000426004 -0.000272643 -0.000153362 -6.81607e-05 -1.70402e-05 0 0 -1.92653e-05 -7.70611e-05 -0.000173387 -0.000308244 -0.000481632 -0.00069355 -0.000943998 -0.00123298 -0.00155783 -0.00191588 -0.00230715 -0.00273163 -0.00318931 -0.00368021 -0.00420431 -0.00476162 -0.00531539 -0.00582886 -0.00630203 -0.0067349 -0.00712747 -0.00747974 -0.00779172 -0.00806339 -0.00827182 -0.00839404 -0.00843006 -0.00837988 -0.0082435 -0.00802091 -0.00771213 -0.00731714 -0.00683529 -0.00626593 -0.00560905 -0.00486465 -0.00403274 -0.00311331 -0.00210637 -0.00101191 0.000143609 0.00133373 0.00255845 0.00381778 0.0051117 0.00644023 0.00780336 0.0092011 0.0105893 0.0119238 0.0132046 0.0144316 0.015605 0.0167247 0.0177907 0.018803 0.0197269 0.0205276 0.021205 0.0217594 0.0221905 0.0224984 0.0226832 0.0227448 0.0226832 0.0224984 0.0221905 0.0217594 0.021205 0.0205276 0.0197269 0.018803 0.0177907 0.0167247 0.015605 0.0144316 0.0132046 0.0119238 0.0105893 0.0092011 0.00780336 0.00644023 0.0051117 0.00381778 0.00255845 0.00133373 0.000143608 -0.00101191 -0.00210637 -0.00311331 -0.00403274 -0.00486465 -0.00560905 -0.00626593 -0.00683529 -0.00731714 -0.00771213 -0.00802092 -0.0082435 -0.00837988 -0.00843006 -0.00839404 -0.00827182 -0.00806339 -0.00779172 -0.00747974 -0.00712747 -0.0067349 -0.00630203 -0.00582886 -0.00531539 -0.00476162 -0.00420431 -0.00368021 -0.00318931 -0.00273163 -0.00230715 -0.00191589 -0.00155783 -0.00123298 -0.000943999 -0.00069355 -0.000481632 -0.000308245 -0.000173388 -7.70611e-05 -1.92653e-05 0 0 -2.14281e-05 -8.57124e-05 -0.000192853 -0.000342849 -0.000535702 -0.000771411 -0.00104998 -0.0013714 -0.0017317 -0.0021269 -0.00255701 -0.00302202 -0.00352193 -0.00405674 -0.00462646 -0.00523108 -0.00582886 -0.00637805 -0.00687865 -0.00733067 -0.00773411 -0.00808896 -0.00839522 -0.0086529 -0.00883599 -0.0089185 -0.00890043 -0.00878177 -0.00856254 -0.00824272 -0.00782232 -0.00730134 -0.00667951 -0.00595656 -0.0051325 -0.00420732 -0.00318103 -0.00205362 -0.000825094 0.000504545 0.001904 0.00334197 0.00481845 0.00633345 0.00788696 0.00947899 0.0111095 0.0127786 0.0144344 0.0160253 0.0175512 0.0190121 0.020408 0.021739 0.023005 0.0242061 0.0253016 0.026251 0.0270544 0.0277117 0.028223 0.0285882 0.0288073 0.0288803 0.0288073 0.0285882 0.028223 0.0277117 0.0270544 0.026251 0.0253016 0.0242061 0.023005 0.021739 0.020408 0.0190121 0.0175512 0.0160253 0.0144344 0.0127786 0.0111095 0.00947899 0.00788696 0.00633345 0.00481845 0.00334197 0.001904 0.000504545 -0.000825095 -0.00205362 -0.00318103 -0.00420732 -0.0051325 -0.00595656 -0.00667951 -0.00730134 -0.00782232 -0.00824272 -0.00856254 -0.00878178 -0.00890043 -0.0089185 -0.00883599 -0.0086529 -0.00839522 -0.00808896 -0.00773411 -0.00733068 -0.00687866 -0.00637805 -0.00582886 -0.00523108 -0.00462646 -0.00405674 -0.00352193 -0.00302202 -0.00255701 -0.0021269 -0.0017317 -0.0013714 -0.00104998 -0.000771412 -0.000535703 -0.00034285 -0.000192853 -8.57124e-05 -2.14281e-05 0 0 -2.35286e-05 -9.41145e-05 -0.000211758 -0.000376458 -0.000588216 -0.000847031 -0.0011529 -0.00150583 -0.00190026 -0.00233061 -0.00279689 -0.0032991 -0.00383723 -0.0044113 -0.0050213 -0.00566722 -0.00630203 -0.00687865 -0.00739711 -0.00785739 -0.00825949 -0.00860342 -0.00888918 -0.00911677 -0.00925694 -0.00928049 -0.0091874 -0.00897767 -0.00865131 -0.00820832 -0.00764869 -0.00697242 -0.00617982 -0.00527118 -0.00424649 -0.00310577 -0.00184901 -0.000476204 0.00101264 0.00261753 0.00430163 0.00602814 0.00779704 0.00960835 0.0114621 0.0133582 0.0152967 0.0172776 0.0192406 0.0211255 0.0229323 0.024661 0.0263116 0.027884 0.0293784 0.0307946 0.0320856 0.0332045 0.0341513 0.034926 0.0355285 0.0359588 0.036217 0.0363031 0.036217 0.0359588 0.0355285 0.034926 0.0341513 0.0332045 0.0320856 0.0307946 0.0293784 0.027884 0.0263116 0.024661 0.0229323 0.0211255 0.0192406 0.0172776 0.0152967 0.0133582 0.0114621 0.00960835 0.00779704 0.00602813 0.00430163 0.00261752 0.00101264 -0.000476204 -0.00184901 -0.00310577 -0.0042465 -0.00527118 -0.00617982 -0.00697242 -0.00764869 -0.00820832 -0.00865131 -0.00897767 -0.0091874 -0.00928049 -0.00925695 -0.00911677 -0.00888918 -0.00860343 -0.0082595 -0.00785739 -0.00739711 -0.00687866 -0.00630203 -0.00566723 -0.0050213 -0.0044113 -0.00383724 -0.0032991 -0.00279689 -0.00233061 -0.00190026 -0.00150583 -0.0011529 -0.000847031 -0.000588216 -0.000376458 -0.000211758 -9.41146e-05 -2.35287e-05 0 0 -2.55669e-05 -0.000102268 -0.000230102 -0.00040907 -0.000639172 -0.000920408 -0.00125278 -0.00163628 -0.0020635 -0.002527 -0.00302679 -0.00356287 -0.00413523 -0.00474388 -0.00538883 -0.00607005 -0.0067349 -0.00733067 -0.00785739 -0.00831504 -0.00870362 -0.00902315 -0.0092736 -0.009455 -0.00953468 -0.00948001 -0.00929097 -0.00896757 -0.00850