<?xml version="1.0"?> 
<VTKFile type="StructuredGrid" version="0.1"> 
<StructuredGrid WholeExtent="0 128 0 128 0 0"> 
<Piece Extent="0 128 0 128 0 0"> 
<PointData>
<DataArray type="Float32" Name="u" format="ascii" NumberOfComponents="1"> 
0 0 0 0 0 0 0 0 0 0 0 0 0 0 0 0 0 0 0 0 0 0 0 0 0 0 0 0 0 0 0 0 0 0 0 0 0 0 0 0 0 0 0 0 0 0 0 0 0 0 0 0 0 0 0 0 0 0 0 0 0 0 0 0 0 0 0 0 0 0 0 0 0 0 0 0 0 0 0 0 0 0 0 0 0 0 0 0 0 0 0 0 0 0 0 0 0 0 0 0 0 0 0 0 0 0 0 0 0 0 0 0 0 0 0 0 0 0 0 0 0 0 0 0 0 0 0 0 0 0 4.07875e-09 1.6315e-08 3.67087e-08 6.526e-08 1.01969e-07 1.46835e-07 1.99859e-07 2.6104e-07 3.8572e-07 6.2924e-07 9.91599e-07 1.4728e-06 2.07284e-06 2.79172e-06 3.62944e-06 4.586e-06 5.60365e-06 6.62464e-06 7.64897e-06 8.67665e-06 9.70766e-06 1.0742e-05 1.17797e-05 1.28208e-05 1.37483e-05 1.44456e-05 1.49125e-05 1.51492e-05 1.51556e-05 1.49316e-05 1.44774e-05 1.37928e-05 1.29221e-05 1.19092e-05 1.07542e-05 9.45709e-06 8.01786e-06 6.43651e-06 4.71304e-06 2.84745e-06 9.96911e-07 -6.81415e-07 -2.18752e-06 -3.52142e-06 -4.6831e-06 -5.67256e-06 -6.48981e-06 -7.13485e-06 -7.60446e-06 -7.89544e-06 -8.00779e-06 -7.9415e-06 -7.69659e-06 -7.27304e-06 -6.67086e-06 -5.89006e-06 -5.07431e-06 -4.36734e-06 -3.76913e-06 -3.27968e-06 -2.899e-06 -2.62709e-06 -2.46394e-06 -2.40956e-06 -2.46394e-06 -2.62709e-06 -2.899e-06 -3.27968e-06 -3.76913e-06 -4.36734e-06 -5.07431e-06 -5.89006e-06 -6.67086e-06 -7.27304e-06 -7.69659e-06 -7.9415e-06 -8.00779e-06 -7.89544e-06 -7.60446e-06 -7.13485e-06 -6.48981e-06 -5.67256e-06 -4.6831e-06 -3.52142e-06 -2.18752e-06 -6.81415e-07 9.96911e-07 2.84745e-06 4.71304e-06 6.43651e-06 8.01786e-06 9.45709e-06 1.07542e-05 1.19092e-05 1.29221e-05 1.37928e-05 1.44774e-05 1.49316e-05 1.51556e-05 1.51492e-05 1.49125e-05 1.44456e-05 1.37483e-05 1.28208e-05 1.17797e-05 1.0742e-05 9.70766e-06 8.67665e-06 7.64897e-06 6.62464e-06 5.60365e-06 4.586e-06 3.62944e-06 2.79172e-06 2.07284e-06 1.4728e-06 9.916e-07 6.2924e-07 3.8572e-07 2.6104e-07 1.99859e-07 1.46835e-07 1.01969e-07 6.526e-08 3.67088e-08 1.6315e-08 4.07875e-09 0 0 1.6315e-08 6.526e-08 1.46835e-07 2.6104e-07 4.07875e-07 5.8734e-07 7.99435e-07 1.04416e-06 1.54288e-06 2.51696e-06 3.9664e-06 5.8912e-06 8.29135e-06 1.11669e-05 1.45177e-05 1.8344e-05 2.24146e-05 2.64986e-05 3.05959e-05 3.47066e-05 3.88306e-05 4.29681e-05 4.71189e-05 5.1283e-05 5.49933e-05 5.77823e-05 5.96502e-05 6.05968e-05 6.06222e-05 5.97265e-05 5.79095e-05 5.51713e-05 5.16883e-05 4.76368e-05 4.30168e-05 3.78284e-05 3.20714e-05 2.5746e-05 1.88522e-05 1.13898e-05 3.98764e-06 -2.72566e-06 -8.7501e-06 -1.40857e-05 -1.87324e-05 -2.26903e-05 -2.59593e-05 -2.85394e-05 -3.04178e-05 -3.15818e-05 -3.20311e-05 -3.1766e-05 -3.07864e-05 -2.90922e-05 -2.66835e-05 -2.35602e-05 -2.02973e-05 -1.74694e-05 -1.50765e-05 -1.31187e-05 -1.1596e-05 -1.05084e-05 -9.85577e-06 -9.63823e-06 -9.85577e-06 -1.05084e-05 -1.1596e-05 -1.31187e-05 -1.50765e-05 -1.74694e-05 -2.02973e-05 -2.35602e-05 -2.66835e-05 -2.90922e-05 -3.07864e-05 -3.1766e-05 -3.20311e-05 -3.15818e-05 -3.04178e-05 -2.85394e-05 -2.59593e-05 -2.26903e-05 -1.87324e-05 -1.40857e-05 -8.7501e-06 -2.72566e-06 3.98764e-06 1.13898e-05 1.88522e-05 2.5746e-05 3.20714e-05 3.78284e-05 4.30168e-05 4.76368e-05 5.16883e-05 5.51713e-05 5.79095e-05 5.97265e-05 6.06222e-05 6.05968e-05 5.96502e-05 5.77823e-05 5.49933e-05 5.1283e-05 4.71189e-05 4.29681e-05 3.88306e-05 3.47066e-05 3.05959e-05 2.64986e-05 2.24146e-05 1.8344e-05 1.45177e-05 1.11669e-05 8.29135e-06 5.8912e-06 3.9664e-06 2.51696e-06 1.54288e-06 1.04416e-06 7.99435e-07 5.8734e-07 4.07875e-07 2.6104e-07 1.46835e-07 6.526e-08 1.6315e-08 0 0 3.67087e-08 1.46835e-07 3.30379e-07 5.8734e-07 9.17718e-07 1.32151e-06 1.79873e-06 2.34936e-06 3.47148e-06 5.66316e-06 8.92439e-06 1.32552e-05 1.86555e-05 2.51255e-05 3.26649e-05 4.1274e-05 5.04328e-05 5.96217e-05 6.88407e-05 7.80898e-05 8.7369e-05 9.66782e-05 0.000106017 0.000115387 0.000123735 0.00013001 0.000134213 0.000136343 0.0001364 0.000134385 0.000130296 0.000124135 0.000116299 0.000107183 9.67878e-05 8.51138e-05 7.21607e-05 5.79286e-05 4.24174e-05 2.56271e-05 8.9722e-06 -6.13273e-06 -1.96877e-05 -3.16928e-05 -4.21479e-05 -5.10531e-05 -5.84083e-05 -6.42136e-05 -6.84401e-05 -7.10589e-05 -7.20701e-05 -7.14735e-05 -6.92693e-05 -6.54574e-05 -6.00378e-05 -5.30105e-05 -4.56688e-05 -3.9306e-05 -3.39222e-05 -2.95171e-05 -2.6091e-05 -2.36438e-05 -2.21755e-05 -2.1686e-05 -2.21755e-05 -2.36438e-05 -2.6091e-05 -2.95171e-05 -3.39222e-05 -3.9306e-05 -4.56688e-05 -5.30105e-05 -6.00378e-05 -6.54574e-05 -6.92693e-05 -7.14735e-05 -7.20701e-05 -7.10589e-05 -6.84401e-05 -6.42136e-05 -5.84083e-05 -5.10531e-05 -4.21479e-05 -3.16928e-05 -1.96877e-05 -6.13273e-06 8.9722e-06 2.56271e-05 4.24174e-05 5.79286e-05 7.21607e-05 8.51138e-05 9.67878e-05 0.000107183 0.000116299 0.000124135 0.000130296 0.000134385 0.0001364 0.000136343 0.000134213 0.00013001 0.000123735 0.000115387 0.000106017 9.66782e-05 8.7369e-05 7.80898e-05 6.88407e-05 5.96217e-05 5.04328e-05 4.1274e-05 3.26649e-05 2.51255e-05 1.86555e-05 1.32552e-05 8.9244e-06 5.66316e-06 3.47148e-06 2.34936e-06 1.79873e-06 1.32152e-06 9.17719e-07 5.8734e-07 3.30379e-07 1.46835e-07 3.67088e-08 0 0 6.526e-08 2.6104e-07 5.8734e-07 1.04416e-06 1.6315e-06 2.34936e-06 3.19774e-06 4.17664e-06 6.17152e-06 1.00678e-05 1.58656e-05 2.35648e-05 3.31654e-05 4.46675e-05 5.8071e-05 7.33759e-05 8.96583e-05 0.000105994 0.000122384 0.000138826 0.000155323 0.000171872 0.000188476 0.000205132 0.000219973 0.000231129 0.000238601 0.000242387 0.000242489 0.000238906 0.000231638 0.000220685 0.000206753 0.000190547 0.000172067 0.000151313 0.000128286 0.000102984 7.54086e-05 4.55592e-05 1.59506e-05 -1.09026e-05 -3.50004e-05 -5.63427e-05 -7.49296e-05 -9.0761e-05 -0.000103837 -0.000114158 -0.000121671 -0.000126327 -0.000128125 -0.000127064 -0.000123145 -0.000116369 -0.000106734 -9.42409e-05 -8.1189e-05 -6.98774e-05 -6.0306e-05 -5.24749e-05 -4.63841e-05 -4.20334e-05 -3.94231e-05 -3.85529e-05 -3.94231e-05 -4.20334e-05 -4.63841e-05 -5.24749e-05 -6.0306e-05 -6.98774e-05 -8.1189e-05 -9.42409e-05 -0.000106734 -0.000116369 -0.000123145 -0.000127064 -0.000128125 -0.000126327 -0.000121671 -0.000114158 -0.000103837 -9.0761e-05 -7.49296e-05 -5.63427e-05 -3.50004e-05 -1.09026e-05 1.59506e-05 4.55592e-05 7.54086e-05 0.000102984 0.000128286 0.000151313 0.000172067 0.000190547 0.000206753 0.000220685 0.000231638 0.000238906 0.000242489 0.000242387 0.000238601 0.000231129 0.000219973 0.000205132 0.000188476 0.000171872 0.000155323 0.000138826 0.000122384 0.000105994 8.96583e-05 7.33759e-05 5.8071e-05 4.46675e-05 3.31654e-05 2.35648e-05 1.58656e-05 1.00678e-05 6.17152e-06 4.17664e-06 3.19774e-06 2.34936e-06 1.6315e-06 1.04416e-06 5.8734e-07 2.6104e-07 6.526e-08 0 0 1.01969e-07 4.07875e-07 9.17718e-07 1.6315e-06 2.54922e-06 3.67087e-06 4.99647e-06 6.526e-06 9.643e-06 1.5731e-05 2.479e-05 3.682e-05 5.1821e-05 6.97929e-05 9.07359e-05 0.00011465 0.000140091 0.000165616 0.000191224 0.000216916 0.000242692 0.00026855 0.000294493 0.000320519 0.000343708 0.00036114 0.000372814 0.00037873 0.000378889 0.00037329 0.000361934 0.000344821 0.000323052 0.00029773 0.000268855 0.000236427 0.000200446 0.000160913 0.000117826 7.11863e-05 2.49228e-05 -1.70354e-05 -5.46881e-05 -8.80355e-05 -0.000117077 -0.000141814 -0.000162245 -0.000178371 -0.000190111 -0.000197386 -0.000200195 -0.000198538 -0.000192415 -0.000181826 -0.000166772 -0.000147251 -0.000126858 -0.000109183 -9.42282e-05 -8.19921e-05 -7.24751e-05 -6.56772e-05 -6.15985e-05 -6.0239e-05 -6.15985e-05 -6.56772e-05 -7.24751e-05 -8.19921e-05 -9.42282e-05 -0.000109183 -0.000126858 -0.000147251 -0.000166772 -0.000181826 -0.000192415 -0.000198538 -0.000200195 -0.000197386 -0.000190111 -0.000178371 -0.000162245 -0.000141814 -0.000117077 -8.80355e-05 -5.46881e-05 -1.70354e-05 2.49228e-05 7.11863e-05 0.000117826 0.000160913 0.000200446 0.000236427 0.000268855 0.00029773 0.000323052 0.000344821 0.000361934 0.00037329 0.000378889 0.00037873 0.000372814 0.00036114 0.000343708 0.000320519 0.000294493 0.00026855 0.000242692 0.000216916 0.000191224 0.000165616 0.000140091 0.00011465 9.07359e-05 6.9793e-05 5.1821e-05 3.682e-05 2.479e-05 1.5731e-05 9.643e-06 6.526e-06 4.99647e-06 3.67088e-06 2.54922e-06 1.6315e-06 9.17719e-07 4.07875e-07 1.01969e-07 0 0 1.46835e-07 5.8734e-07 1.32151e-06 2.34936e-06 3.67087e-06 5.28606e-06 7.19491e-06 9.39744e-06 1.38859e-05 2.26526e-05 3.56976e-05 5.30208e-05 7.46222e-05 0.000100502 0.00013066 0.000165096 0.000201731 0.000238487 0.000275363 0.000312359 0.000349476 0.000386713 0.00042407 0.000461547 0.00049494 0.000520041 0.000536851 0.000545371 0.0005456 0.000537538 0.000521185 0.000496542 0.000465195 0.000428731 0.000387151 0.000340455 0.000288643 0.000231714 0.000169669 0.000102508 3.58888e-05 -2.45309e-05 -7.87509e-05 -0.000126771 -0.000168592 -0.000204212 -0.000233633 -0.000256855 -0.00027376 -0.000284236 -0.00028828 -0.000285894 -0.000277077 -0.00026183 -0.000240151 -0.000212042 -0.000182675 -0.000157224 -0.000135689 -0.000118069 -0.000104364 -9.45752e-05 -8.87019e-05 -8.67441e-05 -8.87019e-05 -9.45752e-05 -0.000104364 -0.000118069 -0.000135689 -0.000157224 -0.000182675 -0.000212042 -0.000240151 -0.00026183 -0.000277077 -0.000285894 -0.00028828 -0.000284236 -0.00027376 -0.000256855 -0.000233633 -0.000204212 -0.000168592 -0.000126771 -7.87509e-05 -2.45309e-05 3.58888e-05 0.000102508 0.000169669 0.000231714 0.000288643 0.000340455 0.000387151 0.000428731 0.000465195 0.000496542 0.000521185 0.000537538 0.0005456 0.000545371 0.000536851 0.000520041 0.00049494 0.000461547 0.00042407 0.000386713 0.000349476 0.000312359 0.000275363 0.000238487 0.000201731 0.000165096 0.00013066 0.000100502 7.46222e-05 5.30208e-05 3.56976e-05 2.26526e-05 1.38859e-05 9.39744e-06 7.19492e-06 5.28606e-06 3.67088e-06 2.34936e-06 1.32152e-06 5.8734e-07 1.46835e-07 0 0 1.99859e-07 7.99435e-07 1.79873e-06 3.19774e-06 4.99647e-06 7.19491e-06 9.79308e-06 1.2791e-05 1.89003e-05 3.08327e-05 4.85884e-05 7.21672e-05 0.000101569 0.000136794 0.000177842 0.000224714 0.000274579 0.000324607 0.0003748 0.000425156 0.000475675 0.000526359 0.000577206 0.000628217 0.000673668 0.000707833 0.000730715 0.000742311 0.000742622 0.000731649 0.000709391 0.000675848 0.000633181 0.000583551 0.000526956 0.000463397 0.000392875 0.000315389 0.000230939 0.000139525 4.88486e-05 -3.33893e-05 -0.000107189 -0.00017255 -0.000229472 -0.000277956 -0.000318001 -0.000349608 -0.000372618 -0.000386876 -0.000392382 -0.000389134 -0.000377133 -0.000356379 -0.000326872 -0.000288613 -0.000248641 -0.000214 -0.000184687 -0.000160704 -0.000142051 -0.000128727 -0.000120733 -0.000118068 -0.000120733 -0.000128727 -0.000142051 -0.000160704 -0.000184687 -0.000214 -0.000248641 -0.000288613 -0.000326872 -0.000356379 -0.000377133 -0.000389134 -0.000392382 -0.000386876 -0.000372618 -0.000349608 -0.000318001 -0.000277956 -0.000229472 -0.00017255 -0.000107189 -3.33893e-05 4.88486e-05 0.000139525 0.000230939 0.000315389 0.000392875 0.000463397 0.000526956 0.000583551 0.000633181 0.000675848 0.000709391 0.000731649 0.000742622 0.000742311 0.000730715 0.000707833 0.000673668 0.000628217 0.000577206 0.000526359 0.000475675 0.000425156 0.0003748 0.000324607 0.000274579 0.000224714 0.000177842 0.000136794 0.000101569 7.21672e-05 4.85884e-05 3.08328e-05 1.89003e-05 1.2791e-05 9.79308e-06 7.19492e-06 4.99647e-06 3.19774e-06 1.79873e-06 7.99435e-07 1.99859e-07 0 0 2.6104e-07 1.04416e-06 2.34936e-06 4.17664e-06 6.526e-06 9.39744e-06 1.2791e-05 1.67066e-05 2.46861e-05 4.02713e-05 6.34624e-05 9.42591e-05 0.000132662 0.00017867 0.000232284 0.000293504 0.000358633 0.000423977 0.000489534 0.000555305 0.00062129 0.000687489 0.000753902 0.000820529 0.000879893 0.000924517 0.000954403 0.000969549 0.000969956 0.000955623 0.000926552 0.000882741 0.000827012 0.000762189 0.000688269 0.000605254 0.000513143 0.000411937 0.000301635 0.000182237 6.38023e-05 -4.36105e-05 -0.000140002 -0.000225371 -0.000299718 -0.000363044 -0.000415348 -0.00045663 -0.000486685 -0.000505308 -0.000512498 -0.000508256 -0.000492582 -0.000465475 -0.000426935 -0.000376964 -0.000324756 -0.00027951 -0.000241224 -0.0002099 -0.000185536 -0.000168134 -0.000157692 -0.000154212 -0.000157692 -0.000168134 -0.000185536 -0.0002099 -0.000241224 -0.00027951 -0.000324756 -0.000376964 -0.000426935 -0.000465475 -0.000492582 -0.000508256 -0.000512498 -0.000505308 -0.000486685 -0.00045663 -0.000415348 -0.000363044 -0.000299718 -0.000225371 -0.000140002 -4.36105e-05 6.38023e-05 0.000182237 0.000301635 0.000411937 0.000513143 0.000605254 0.000688269 0.000762189 0.000827012 0.000882741 0.000926552 0.000955623 0.000969956 0.000969549 0.000954403 0.000924517 0.000879893 0.000820529 0.000753902 0.000687489 0.00062129 0.000555305 0.000489534 0.000423977 0.000358633 0.000293504 0.000232284 0.00017867 0.000132662 9.42591e-05 6.34624e-05 4.02713e-05 2.46861e-05 1.67066e-05 1.2791e-05 9.39744e-06 6.526e-06 4.17664e-06 2.34936e-06 1.04416e-06 2.6104e-07 0 0 3.8572e-07 1.54288e-06 3.47148e-06 6.17152e-06 9.643e-06 1.38859e-05 1.89003e-05 2.46861e-05 3.54808e-05 5.55219e-05 8.48094e-05 0.000123343 0.000171123 0.00022815 0.000294423 0.000369943 0.000449884 0.000529423 0.000608561 0.000687296 0.000765628 0.000843559 0.000921087 0.000998214 0.00106571 0.00111436 0.00114415 0.0011551 0.00114719 0.00112043 0.00107481 0.00101035 0.000930729 0.000839668 0.000737159 0.000623205 0.000497804 0.000360956 0.000212662 5.29224e-05 -0.000105643 -0.000250414 -0.00038139 -0.000498571 -0.000601958 -0.000691549 -0.000767345 -0.000829347 -0.000877124 -0.000910248 -0.000928718 -0.000932535 -0.000921699 -0.00089621 -0.000856066 -0.00080127 -0.00074303 -0.000692555 -0.000649845 -0.000614901 -0.000587722 -0.000568308 -0.00055666 -0.000552777 -0.00055666 -0.000568308 -0.000587722 -0.000614901 -0.000649845 -0.000692555 -0.00074303 -0.00080127 -0.000856066 -0.00089621 -0.000921699 -0.000932535 -0.000928718 -0.000910248 -0.000877124 -0.000829347 -0.000767345 -0.000691549 -0.000601958 -0.000498571 -0.00038139 -0.000250414 -0.000105643 5.29224e-05 0.000212662 0.000360956 0.000497804 0.000623205 0.000737159 0.000839668 0.000930729 0.00101035 0.00107481 0.00112043 0.00114719 0.0011551 0.00114415 0.00111436 0.00106571 0.000998214 0.000921087 0.000843559 0.000765628 0.000687296 0.000608561 0.000529423 0.000449884 0.000369943 0.000294423 0.00022815 0.000171123 0.000123343 8.48094e-05 5.55219e-05 3.54808e-05 2.46861e-05 1.89003e-05 1.38859e-05 9.643e-06 6.17152e-06 3.47148e-06 1.54288e-06 3.8572e-07 0 0 6.2924e-07 2.51696e-06 5.66316e-06 1.00678e-05 1.5731e-05 2.26526e-05 3.08327e-05 4.02713e-05 5.55219e-05 8.11378e-05 0.000117119 0.000163466 0.000220178 0.000287256 0.000364699 0.000452507 0.000544319 0.000633775 0.000720873 0.000805614 0.000887997 0.000968024 0.00104569 0.001121 0.00118323 0.00122163 0.00123621 0.00122697 0.0011939 0.00113702 0.00105631 0.000951787 0.000828374 0.00069101 0.000539695 0.00037443 0.000195214 2.04674e-06 -0.000205071 -0.00042614 -0.000645882 -0.00084902 -0.00103556 -0.00120549 -0.00135882 -0.00149554 -0.00161566 -0.00171918 -0.0018051 -0.00187241 -0.00192113 -0.00195125 -0.00196276 -0.00195568 -0.00192999 -0.00188571 -0.00183547 -0.00179193 -0.00175509 -0.00172495 -0.00170151 -0.00168477 -0.00167472 -0.00167137 -0.00167472 -0.00168477 -0.00170151 -0.00172495 -0.00175509 -0.00179193 -0.00183547 -0.00188571 -0.00192999 -0.00195568 -0.00196276 -0.00195125 -0.00192113 -0.00187241 -0.0018051 -0.00171918 -0.00161566 -0.00149554 -0.00135882 -0.00120549 -0.00103556 -0.00084902 -0.000645882 -0.00042614 -0.000205071 2.04674e-06 0.000195214 0.00037443 0.000539695 0.00069101 0.000828374 0.000951787 0.00105631 0.00113702 0.0011939 0.00122697 0.00123621 0.00122163 0.00118323 0.001121 0.00104569 0.000968024 0.000887997 0.000805614 0.000720873 0.000633775 0.000544319 0.000452507 0.000364699 0.000287256 0.000220178 0.000163466 0.000117119 8.11378e-05 5.55219e-05 4.02713e-05 3.08327e-05 2.26526e-05 1.5731e-05 1.00678e-05 5.66316e-06 2.51696e-06 6.2924e-07 0 0 9.91599e-07 3.9664e-06 8.92439e-06 1.58656e-05 2.479e-05 3.56976e-05 4.85884e-05 6.34624e-05 8.48094e-05 0.000117119 0.000160392 0.000214627 0.000279825 0.000355986 0.00044311 0.000541197 0.000641939 0.000737031 0.000826471 0.000910259 0.000988397 0.00106088 0.00112772 0.0011889 0.00123244 0.00124632 0.00123057 0.00118516 0.00111011 0.00100541 0.000871061 0.000707068 0.000519946 0.000316216 9.58776e-05 -0.00014107 -0.000394626 -0.000664792 -0.000951566 -0.00125495 -0.00155691 -0.00183943 -0.0021025 -0.00234612 -0.00257029 -0.00277502 -0.0029603 -0.00312613 -0.0032706 -0.0033918 -0.00348973 -0.00356439 -0.00361577 -0.00364388 -0.00364871 -0.00363028 -0.00360208 -0.00357765 -0.00355697 -0.00354006 -0.0035269 -0.0035175 -0.00351187 -0.00350999 -0.00351187 -0.0035175 -0.0035269 -0.00354006 -0.00355697 -0.00357765 -0.00360208 -0.00363028 -0.00364871 -0.00364388 -0.00361577 -0.00356439 -0.00348973 -0.0033918 -0.0032706 -0.00312613 -0.0029603 -0.00277502 -0.00257029 -0.00234612 -0.0021025 -0.00183943 -0.00155691 -0.00125495 -0.000951566 -0.000664792 -0.000394626 -0.00014107 9.58776e-05 0.000316216 0.000519946 0.000707068 0.000871061 0.00100541 0.00111011 0.00118516 0.00123057 0.00124632 0.00123244 0.0011889 0.00112772 0.00106088 0.000988397 0.000910259 0.000826471 0.000737031 0.000641939 0.000541197 0.00044311 0.000355986 0.000279825 0.000214627 0.000160392 0.000117119 8.48094e-05 6.34624e-05 4.85884e-05 3.56976e-05 2.479e-05 1.58656e-05 8.9244e-06 3.9664e-06 9.91599e-07 0 0 1.4728e-06 5.8912e-06 1.32552e-05 2.35648e-05 3.682e-05 5.30208e-05 7.21672e-05 9.42591e-05 0.000123343 0.000163466 0.000214627 0.000276827 0.000350066 0.000434343 0.000529658 0.000636013 0.000742744 0.000839191 0.000925354 0.00100123 0.00106683 0.00112214 0.00116716 0.0012019 0.00121334 0.00118845 0.00112722 0.00102967 0.000895795 0.000725587 0.000519051 0.000276186 5.44635e-06 -0.000284714 -0.000594294 -0.000923295 -0.00127172 -0.00163956 -0.00202682 -0.00243351 -0.00283874 -0.00322164 -0.00358222 -0.00392047 -0.00423639 -0.00452999 -0.00480126 -0.0050502 -0.00527365 -0.00546842 -0.00563452 -0.00577196 -0.00588072 -0.00596081 -0.00601223 -0.00603498 -0.00604286 -0.0060497 -0.00605548 -0.00606022 -0.0060639 -0.00606653 -0.0060681 -0.00606863 -0.0060681 -0.00606653 -0.0060639 -0.00606022 -0.00605548 -0.0060497 -0.00604286 -0.00603498 -0.00601223 -0.00596081 -0.00588072 -0.00577196 -0.00563452 -0.00546842 -0.00527365 -0.0050502 -0.00480126 -0.00452999 -0.00423639 -0.00392047 -0.00358222 -0.00322164 -0.00283874 -0.00243351 -0.00202682 -0.00163956 -0.00127172 -0.000923295 -0.000594294 -0.000284714 5.44635e-06 0.000276186 0.000519051 0.000725587 0.000895795 0.00102967 0.00112722 0.00118845 0.00121334 0.0012019 0.00116716 0.00112214 0.00106683 0.00100123 0.000925354 0.000839191 0.000742744 0.000636013 0.000529658 0.000434343 0.000350066 0.000276827 0.000214627 0.000163466 0.000123343 9.42591e-05 7.21672e-05 5.30208e-05 3.682e-05 2.35648e-05 1.32552e-05 5.8912e-06 1.4728e-06 0 0 2.07284e-06 8.29135e-06 1.86555e-05 3.31654e-05 5.1821e-05 7.46222e-05 0.000101569 0.000132662 0.000171123 0.000220178 0.000279825 0.000350066 0.000430899 0.000522324 0.000624343 0.000736954 0.000846734 0.000940257 0.00101752 0.00107853 0.00112329 0.00115179 0.00116403 0.00116001 0.00112594 0.001048 0.000926186 0.00076051 0.000550968 0.000297559 2.83982e-07 -0.000340858 -0.000715126 -0.00111178 -0.00153082 -0.00197225 -0.00243606 -0.00292226 -0.00343084 -0.00396181 -0.00449135 -0.00499565 -0.00547471 -0.00592853 -0.00635711 -0.00676044 -0.00713854 -0.00749139 -0.00781422 -0.00810226 -0.00835551 -0.00857396 -0.00875761 -0.00890647 -0.00902054 -0.00909981 -0.00915781 -0.00920808 -0.00925062 -0.00928542 -0.00931249 -0.00933183 -0.00934343 -0.0093473 -0.00934343 -0.00933183 -0.00931249 -0.00928542 -0.00925062 -0.00920808 -0.00915781 -0.00909981 -0.00902054 -0.00890647 -0.00875761 -0.00857396 -0.00835551 -0.00810226 -0.00781422 -0.00749139 -0.00713854 -0.00676044 -0.00635711 -0.00592853 -0.00547471 -0.00499565 -0.00449135 -0.00396181 -0.00343084 -0.00292226 -0.00243606 -0.00197225 -0.00153082 -0.00111178 -0.000715126 -0.000340858 2.83987e-07 0.000297559 0.000550968 0.00076051 0.000926186 0.001048 0.00112594 0.00116001 0.00116403 0.00115179 0.00112329 0.00107853 0.00101752 0.000940257 0.000846734 0.000736954 0.000624343 0.000522324 0.000430899 0.000350066 0.000279825 0.000220178 0.000171123 0.000132662 0.000101569 7.46222e-05 5.1821e-05 3.31654e-05 1.86555e-05 8.29135e-06 2.07284e-06 0 0 2.79172e-06 1.11669e-05 2.51255e-05 4.46675e-05 6.9793e-05 0.000100502 0.000136794 0.00017867 0.00022815 0.000287256 0.000355986 0.000434343 0.000522324 0.000619931 0.000727163 0.000844021 0.000953908 0.00104023 0.00110298 0.00114216 0.00115778 0.00114983 0.00111831 0.00106323 0.00097023 0.00082497 0.00062745 0.000377669 7.56268e-05 -0.000278676 -0.000685239 -0.00114406 -0.00164177 -0.00216498 -0.0027137 -0.00328792 -0.00388765 -0.00451288 -0.00516362 -0.00583986 -0.00651476 -0.00716147 -0.00777998 -0.00837031 -0.00893244 -0.00946638 -0.00997213 -0.0104497 -0.0108923 -0.0112933 -0.0116527 -0.0119704 -0.0122465 -0.0124809 -0.0126736 -0.0128248 -0.0129469 -0.0130528 -0.0131424 -0.0132157 -0.0132727 -0.0133134 -0.0133378 -0.013346 -0.0133378 -0.0133134 -0.0132727 -0.0132157 -0.0131424 -0.0130528 -0.0129469 -0.0128248 -0.0126736 -0.0124809 -0.0122465 -0.0119704 -0.0116527 -0.0112933 -0.0108923 -0.0104497 -0.00997213 -0.00946638 -0.00893244 -0.00837031 -0.00777998 -0.00716147 -0.00651476 -0.00583986 -0.00516362 -0.00451288 -0.00388765 -0.00328792 -0.0027137 -0.00216498 -0.00164177 -0.00114406 -0.000685239 -0.000278676 7.56268e-05 0.000377669 0.00062745 0.00082497 0.00097023 0.00106323 0.00111831 0.00114983 0.00115778 0.00114216 0.00110298 0.00104023 0.000953908 0.000844021 0.000727163 0.000619931 0.000522324 0.000434343 0.000355986 0.000287256 0.00022815 0.00017867 0.000136794 0.000100502 6.97929e-05 4.46675e-05 2.51255e-05 1.11669e-05 2.79172e-06 0 0 3.62944e-06 1.45177e-05 3.26649e-05 5.8071e-05 9.07359e-05 0.00013066 0.000177842 0.000232284 0.000294423 0.000364699 0.00044311 0.000529658 0.000624343 0.000727163 0.00083812 0.000957214 0.00106427 0.0011391 0.00118172 0.00119212 0.0011703 0.00111627 0.00103002 0.000911549 0.000746216 0.000519372 0.000231016 -0.000118851 -0.000530229 -0.00100312 -0.00153752 -0.00213343 -0.00277449 -0.00344432 -0.00414293 -0.00487032 -0.00562649 -0.00641144 -0.00722516 -0.00806766 -0.00890896 -0.00971909 -0.010498 -0.0112458 -0.0119624 -0.0126478 -0.0133021 -0.0139251 -0.014508 -0.0150416 -0.015526 -0.0159613 -0.0163472 -0.016684 -0.0169715 -0.0172099 -0.0174102 -0.0175839 -0.0177308 -0.017851 -0.0179445 -0.0180113 -0.0180514 -0.0180647 -0.0180514 -0.0180113 -0.0179445 -0.017851 -0.0177308 -0.0175839 -0.0174102 -0.0172099 -0.0169715 -0.016684 -0.0163472 -0.0159613 -0.015526 -0.0150416 -0.014508 -0.0139251 -0.0133021 -0.0126478 -0.0119624 -0.0112458 -0.010498 -0.00971909 -0.00890896 -0.00806766 -0.00722516 -0.00641144 -0.00562649 -0.00487032 -0.00414293 -0.00344432 -0.00277449 -0.00213343 -0.00153752 -0.00100312 -0.000530229 -0.000118851 0.000231016 0.000519372 0.000746216 0.000911549 0.00103002 0.00111627 0.0011703 0.00119212 0.00118172 0.0011391 0.00106427 0.000957214 0.00083812 0.000727163 0.000624343 0.000529658 0.00044311 0.000364699 0.000294423 0.000232284 0.000177842 0.00013066 9.07359e-05 5.8071e-05 3.26649e-05 1.45177e-05 3.62944e-06 0 0 4.586e-06 1.8344e-05 4.1274e-05 7.33759e-05 0.00011465 0.000165096 0.000224714 0.000293504 0.000369943 0.000452507 0.000541197 0.000636013 0.000736954 0.000844021 0.000957214 0.00107653 0.00117781 0.00123688 0.00125375 0.00122841 0.00116086 0.0010511 0.000899143 0.000704976 0.000453897 0.0001312 -0.000263115 -0.000729048 -0.0012666 -0.00187577 -0.00255656 -0.00330896 -0.00411328 -0.0049498 -0.00581852 -0.00671945 -0.00765258 -0.00861792 -0.00961546 -0.0106452 -0.011674 -0.0126685 -0.0136289 -0.014555 -0.015447 -0.0163047 -0.0171283 -0.0179177 -0.0186612 -0.0193471 -0.0199756 -0.0205465 -0.02106 -0.0215159 -0.0219142 -0.0222551 -0.0225477 -0.0228012 -0.0230158 -0.0231914 -0.0233279 -0.0234254 -0.0234839 -0.0235035 -0.0234839 -0.0234254 -0.0233279 -0.0231914 -0.0230158 -0.0228012 -0.0225477 -0.0222551 -0.0219142 -0.0215159 -0.02106 -0.0205465 -0.0199756 -0.0193471 -0.0186612 -0.0179177 -0.0171283 -0.0163047 -0.015447 -0.014555 -0.0136289 -0.0126685 -0.011674 -0.0106452 -0.00961546 -0.00861792 -0.00765258 -0.00671945 -0.00581852 -0.0049498 -0.00411328 -0.00330896 -0.00255656 -0.00187577 -0.0012666 -0.000729048 -0.000263115 0.0001312 0.000453897 0.000704976 0.000899143 0.0010511 0.00116086 0.00122841 0.00125375 0.00123688 0.00117781 0.00107653 0.000957214 0.000844021 0.000736954 0.000636013 0.000541197 0.000452507 0.000369943 0.000293504 0.000224714 0.000165096 0.00011465 7.33759e-05 4.1274e-05 1.8344e-05 4.586e-06 0 0 5.60365e-06 2.24146e-05 5.04328e-05 8.96583e-05 0.000140091 0.000201731 0.000274579 0.000358633 0.000449884 0.000544319 0.000641939 0.000742744 0.000846734 0.000953908 0.00106427 0.00117781 0.00126664 0.00130287 0.00128649 0.00121751 0.00109592 0.000921722 0.000694921 0.000415515 7.00509e-05 -0.000354922 -0.000859403 -0.00144339 -0.00210689 -0.0028499 -0.00367241 -0.00457444 -0.00553313 -0.00652566 -0.00755202 -0.00861222 -0.00970625 -0.0108341 -0.0119958 -0.0131913 -0.0143861 -0.0155456 -0.0166697 -0.0177585 -0.018812 -0.0198301 -0.020813 -0.0217605 -0.0226585 -0.0234928 -0.0242636 -0.0249706 -0.0256141 -0.0261938 -0.02671 -0.0271625 -0.0275568 -0.0278986 -0.0281878 -0.0284245 -0.0286085 -0.02874 -0.0288188 -0.0288451 -0.0288188 -0.02874 -0.0286085 -0.0284245 -0.0281878 -0.0278986 -0.0275568 -0.0271625 -0.02671 -0.0261938 -0.0256141 -0.0249706 -0.0242636 -0.0234928 -0.0226585 -0.0217605 -0.020813 -0.0198301 -0.018812 -0.0177585 -0.0166697 -0.0155456 -0.0143861 -0.0131913 -0.0119958 -0.0108341 -0.00970625 -0.00861222 -0.00755202 -0.00652566 -0.00553313 -0.00457444 -0.00367241 -0.0028499 -0.00210689 -0.00144339 -0.000859403 -0.000354922 7.00509e-05 0.000415515 0.000694921 0.000921723 0.00109592 0.00121751 0.00128649 0.00130287 0.00126664 0.00117781 0.00106427 0.000953908 0.000846734 0.000742744 0.000641939 0.000544319 0.000449884 0.000358633 0.000274579 0.000201731 0.000140091 8.96583e-05 5.04328e-05 2.24146e-05 5.60365e-06 0 0 6.62464e-06 2.64986e-05 5.96217e-05 0.000105994 0.000165616 0.000238487 0.000324607 0.000423977 0.000529423 0.000633775 0.000737031 0.000839191 0.000940257 0.00104023 0.0011391 0.00123688 0.00130287 0.00130637 0.00124739 0.00112592 0.000941961 0.000695517 0.000386587 1.51712e-05 -0.000428544 -0.000954369 -0.00156231 -0.00225235 -0.00302451 -0.00387878 -0.00481516 -0.00583365 -0.00690905 -0.00801617 -0.009155 -0.0103255 -0.0115278 -0.0127618 -0.0140275 -0.0153249 -0.0166218 -0.0178862 -0.0191178 -0.0203169 -0.0214833 -0.022617 -0.0237182 -0.0247867 -0.0258065 -0.0267617 -0.0276521 -0.0284779 -0.0292389 -0.0299353 -0.030567 -0.031134 -0.0316353 -0.0320697 -0.0324372 -0.032738 -0.0329719 -0.033139 -0.0332392 -0.0332726 -0.0332392 -0.033139 -0.0329719 -0.032738 -0.0324372 -0.0320697 -0.0316353 -0.031134 -0.030567 -0.0299353 -0.0292389 -0.0284779 -0.0276521 -0.0267617 -0.0258065 -0.0247867 -0.0237182 -0.022617 -0.0214833 -0.0203169 -0.0191178 -0.0178862 -0.0166218 -0.0153249 -0.0140275 -0.0127618 -0.0115278 -0.0103255 -0.009155 -0.00801617 -0.00690905 -0.00583365 -0.00481516 -0.00387878 -0.00302451 -0.00225235 -0.00156231 -0.000954369 -0.000428544 1.51713e-05 0.000386588 0.000695517 0.000941961 0.00112592 0.00124739 0.00130637 0.00130287 0.00123688 0.0011391 0.00104023 0.000940257 0.000839191 0.000737031 0.000633775 0.000529423 0.000423977 0.000324607 0.000238487 0.000165616 0.000105994 5.96217e-05 2.64985e-05 6.62464e-06 0 0 7.64897e-06 3.05959e-05 6.88407e-05 0.000122384 0.000191224 0.000275363 0.0003748 0.000489534 0.000608561 0.000720873 0.000826471 0.000925354 0.00101752 0.00110298 0.00118172 0.00125375 0.00128649 0.00124739 0.00113644 0.000953635 0.000698986 0.000372488 -2.58589e-05 -0.000496054 -0.00104189 -0.00166714 -0.00237182 -0.00315593 -0.00401946 -0.00496241 -0.00598479 -0.00708659 -0.00824103 -0.00942132 -0.0106275 -0.0118594 -0.0131173 -0.014401 -0.0157105 -0.0170459 -0.0183811 -0.0196902 -0.0209732 -0.0222301 -0.0234608 -0.0246655 -0.0258439 -0.0269963 -0.0281053 -0.0291536 -0.0301413 -0.0310683 -0.0319346 -0.0327403 -0.0334854 -0.0341697 -0.0347829 -0.0353143 -0.035764 -0.0361319 -0.0364181 -0.0366225 -0.0367451 -0.036786 -0.0367451 -0.0366225 -0.0364181 -0.0361319 -0.035764 -0.0353143 -0.0347829 -0.0341697 -0.0334854 -0.0327403 -0.0319346 -0.0310683 -0.0301413 -0.0291536 -0.0281053 -0.0269963 -0.0258439 -0.0246655 -0.0234608 -0.0222301 -0.0209732 -0.0196902 -0.0183811 -0.0170459 -0.0157105 -0.014401 -0.0131173 -0.0118594 -0.0106275 -0.00942132 -0.00824103 -0.00708659 -0.00598479 -0.00496241 -0.00401946 -0.00315593 -0.00237182 -0.00166714 -0.00104189 -0.000496054 -2.58589e-05 0.000372488 0.000698986 0.000953635 0.00113644 0.00124739 0.00128649 0.00125375 0.00118172 0.00110298 0.00101752 0.000925354 0.000826471 0.000720873 0.00060856 0.000489534 0.0003748 0.000275363 0.000191224 0.000122384 6.88407e-05 3.05959e-05 7.64897e-06 0 0 8.67665e-06 3.47066e-05 7.80898e-05 0.000138826 0.000216916 0.000312359 0.000425156 0.000555305 0.000687296 0.000805614 0.000910259 0.00100123 0.00107853 0.00114216 0.00119212 0.00122841 0.00121751 0.00112592 0.000953635 0.000700661 0.000366994 -4.7366e-05 -0.000542418 -0.00111816 -0.00176998 -0.00249324 -0.00328796 -0.00415412 -0.00509173 -0.00610079 -0.0071813 -0.00833326 -0.00952907 -0.0107411 -0.0119694 -0.0132139 -0.0144746 -0.0157516 -0.0170448 -0.0183543 -0.019664 -0.0209578 -0.0222359 -0.0234982 -0.0247447 -0.0259754 -0.0271903 -0.0283893 -0.0295548 -0.0306687 -0.031731 -0.0327418 -0.0337011 -0.0346088 -0.035465 -0.0362696 -0.0369998 -0.0376327 -0.0381682 -0.0386063 -0.038947 -0.0391904 -0.0393365 -0.0393852 -0.0393365 -0.0391904 -0.038947 -0.0386063 -0.0381682 -0.0376327 -0.0369998 -0.0362696 -0.035465 -0.0346088 -0.0337011 -0.0327418 