<?xml version="1.0"?> 
<VTKFile type="StructuredGrid" version="0.1"> 
<StructuredGrid WholeExtent="0 64 0 64 0 0"> 
<Piece Extent="0 64 0 64 0 0"> 
<PointData>
<DataArray type="Float32" Name="u" format="ascii" NumberOfComponents="1"> 
0.86852 0.902139 0.935757 0.969375 1.00299 0.882347 0.7617 0.641053 0.520406 0.614087 0.707768 0.80145 0.895131 0.82014 0.74515 0.67016 0.59517 0.485538 0.375906 0.266275 0.156643 0.168056 0.17947 0.190883 0.202296 0.254701 0.307105 0.359509 0.411913 0.498392 0.58487 0.671349 0.757827 0.777281 0.796735 0.816188 0.835642 0.826628 0.817615 0.808602 0.799588 0.680291 0.560995 0.441698 0.322401 0.376947 0.431494 0.48604 0.540587 0.428187 0.315787 0.203386 0.0909863 0.0965626 0.102139 0.107715 0.113292 0.119247 0.125203 0.131158 0.137114 0.275349 0.413583 0.551818 0.690053 0.776958 0.782882 0.788806 0.79473 0.800654 0.729493 0.658331 0.587169 0.516007 0.564252 0.612497 0.660741 0.708986 0.64685 0.584714 0.522578 0.460442 0.428683 0.396923 0.365164 0.333404 0.323558 0.313711 0.303865 0.294018 0.356746 0.419473 0.4822 0.544928 0.595025 0.645122 0.695218 0.745315 0.752684 0.760054 0.767423 0.774792 0.782788 0.790784 0.798779 0.806775 0.721315 0.635855 0.550395 0.464935 0.512829 0.560723 0.608617 0.656511 0.509478 0.362444 0.215411 0.0683774 0.127449 0.186521 0.245593 0.304665 0.293035 0.281404 0.269774 0.258143 0.385994 0.513846 0.641697 0.769548 0.685396 0.663626 0.641855 0.620085 0.598315 0.576638 0.554962 0.533285 0.511609 0.514417 0.517225 0.520033 0.522841 0.473559 0.424278 0.374996 0.325715 0.371827 0.41794 0.464053 0.510165 0.479059 0.447953 0.416847 0.38574 0.458791 0.531841 0.604892 0.677942 0.691658 0.705373 0.719088 0.732803 0.728088 0.723372 0.718657 0.713942 0.738947 0.763952 0.788957 0.813962 0.762339 0.710716 0.659093 0.60747 0.648711 0.689953 0.731194 0.772435 0.590768 0.409102 0.227435 0.0457685 0.158336 0.270904 0.383472 0.496039 0.466823 0.437606 0.408389 0.379173 0.49664 0.614108 0.731576 0.849044 0.593834 0.544369 0.494905 0.44544 0.395976 0.423784 0.451593 0.479401 0.50721 0.464581 0.421953 0.379325 0.336696 0.300269 0.263842 0.227415 0.190987 0.314972 0.438957 0.562942 0.686926 0.63456 0.582194 0.529828 0.477462 0.560836 0.64421 0.727583 0.810957 0.788291 0.765624 0.742957 0.720291 0.703491 0.686691 0.669892 0.653092 0.695106 0.73712 0.779135 0.821149 0.803363 0.785577 0.767791 0.750005 0.784593 0.819182 0.853771 0.888359 0.672059 0.455759 0.23946 0.0231597 0.189223 0.355286 0.52135 0.687413 0.64061 0.593808 0.547005 0.500202 0.607286 0.714371 0.821455 0.928539 0.502271 0.425113 0.347954 0.270795 0.193637 0.27093 0.348224 0.425517 0.502811 0.414746 0.326681 0.238616 0.150551 0.126979 0.103406 0.0798328 0.0562599 0.258117 0.459974 0.661831 0.863687 0.790062 0.716436 0.64281 0.569184 0.662881 0.756578 0.850275 0.943972 0.884923 0.825875 0.766827 0.707779 0.678895 0.65001 0.621126 0.592242 0.651265 0.710289 0.769312 0.828336 0.844387 0.860438 0.876489 0.892539 0.920475 0.948411 0.976347 1.00428 0.75335 0.502417 0.251484 0.000550794 0.22011 0.439669 0.659228 0.878787 0.814398 0.750009 0.685621 0.621232 0.717932 0.814633 0.911333 1.00803 0.51016 0.449364 0.388569 0.327773 0.266978 0.345337 0.423696 0.502056 0.580415 0.477985 0.375556 0.273126 0.170696 0.170164 0.169632 0.169099 0.168567 0.345518 0.52247 0.699422 0.876374 0.800458 0.724543 0.648628 0.572713 0.660146 0.747579 0.835011 0.922444 0.871394 0.820344 0.769294 0.718245 0.686895 0.655546 0.624197 0.592848 0.615593 0.638337 0.661082 0.683826 0.722496 0.761167 0.799837 0.838508 0.822474 0.806441 0.790407 0.774374 0.620593 0.466812 0.313031 0.15925 0.326153 0.493057 0.659961 0.826865 0.782881 0.738898 0.694914 0.65093 0.733877 0.816823 0.899769 0.982716 0.518048 0.473616 0.429183 0.384751 0.340319 0.419744 0.499169 0.578594 0.658019 0.541225 0.42443 0.307636 0.190841 0.213349 0.235857 0.258366 0.280874 0.43292 0.584967 0.737013 0.88906 0.810855 0.732651 0.654447 0.576242 0.657411 0.738579 0.819748 0.900917 0.857865 0.814813 0.771762 0.72871 0.694896 0.661082 0.627268 0.593454 0.57992 0.566385 0.552851 0.539316 0.600606 0.661896 0.723186 0.784476 0.724473 0.66447 0.604468 0.544465 0.487835 0.431206 0.374577 0.317948 0.432197 0.546446 0.660695 0.774943 0.751365 0.727786 0.704208 0.680629 0.749821 0.819013 0.888205 0.957397 0.525936 0.497867 0.469798 0.441729 0.41366 0.494151 0.574642 0.655133 0.735623 0.604464 0.473305 0.342145 0.210986 0.256535 0.302083 0.347632 0.39318 0.520322 0.647463 0.774604 0.901746 0.821252 0.740758 0.660265 0.579771 0.654676 0.72958 0.804485 0.879389 0.844336 0.809283 0.774229 0.739176 0.702897 0.666618 0.630339 0.59406 0.544247 0.494433 0.44462 0.394807 0.478716 0.562626 0.646535 0.730445 0.626472 0.5225 0.418528 0.314555 0.355078 0.395601 0.436124 0.476647 0.538241 0.599834 0.661428 0.723021 0.719848 0.716674 0.713501 0.710327 0.765765 0.821203 0.876641 0.932079 0.533824 0.522119 0.510413 0.498707 0.487001 0.568558 0.650114 0.731671 0.813228 0.667703 0.522179 0.376655 0.231131 0.29972 0.368309 0.436898 0.505487 0.607723 0.70996 0.812196 0.914432 0.831649 0.748866 0.666083 0.5833 0.651941 0.720581 0.789221 0.857861 0.830806 0.803752 0.776697 0.749642 0.710898 0.672154 0.63341 0.594666 0.508574 0.422482 0.336389 0.250297 0.356826 0.463355 0.569884 0.676413 0.528472 0.38053 0.232588 0.0846458 0.222321 0.359996 0.497671 0.635346 0.644284 0.653223 0.662161 0.6711 0.688331 0.705563 0.722794 0.740026 0.78171 0.823393 0.865077 0.90676 0.648955 0.626871 0.604786 0.582702 0.560617 0.609821 0.659026 0.70823 0.757435 0.670316 0.583197 0.496078 0.408959 0.438302 0.467646 0.49699 0.526334 0.567284 0.608235 0.649186 0.690137 0.63464 0.579143 0.523646 0.468149 0.566696 0.665243 0.763791 0.862338 0.81804 0.773742 0.729443 0.685145 0.678963 0.672781 0.666598 0.660416 0.555531 0.450646 0.345761 0.240876 0.342525 0.444175 0.545824 0.647473 0.54144 0.435408 0.329375 0.223342 0.288663 0.353985 0.419307 0.484629 0.528304 0.571979 0.615654 0.659329 0.656243 0.653157 0.650071 0.646985 0.658409 0.669833 0.681257 0.692681 0.764086 0.731623 0.699159 0.666696 0.634233 0.651085 0.667937 0.684789 0.701641 0.672928 0.644214 0.6155 0.586786 0.576885 0.566983 0.557081 0.54718 0.526845 0.506511 0.486176 0.465842 0.437631 0.40942 0.381209 0.352998 0.481452 0.609906 0.73836 0.866814 0.805273 0.743731 0.68219 0.620649 0.647028 0.673407 0.699787 0.726166 0.602488 0.478811 0.355133 0.231455 0.328225 0.424994 0.521764 0.618533 0.554409 0.490285 0.426162 0.362038 0.355006 0.347975 0.340943 0.333911 0.412323 0.490734 0.569146 0.647557 0.624154 0.600751 0.577347 0.553944 0.535108 0.516272 0.497437 0.478601 0.879216 0.836375 0.793533 0.750691 0.707849 0.692349 0.676849 0.661349 0.645848 0.67554 0.705231 0.734923 0.764614 0.715467 0.66632 0.617173 0.568026 0.486406 0.404787 0.323167 0.241547 0.240622 0.239697 0.238772 0.237847 0.396208 0.554569 0.71293 0.871291 0.792506 0.713721 0.634936 0.556152 0.615093 0.674034 0.732975 0.791916 0.649445 0.506975 0.364505 0.222034 0.313924 0.405814 0.497703 0.589593 0.567378 0.545163 0.522949 0.500734 0.421349 0.341964 0.262579 0.183194 0.296342 0.40949 0.522638 0.635786 0.592065 0.548344 0.504623 0.460902 0.411807 0.362712 0.313617 0.264522 0.994347 0.941127 0.887906 0.834686 0.781465 0.733613 0.68576 0.637908 0.590055 0.678152 0.766249 0.854345 0.942442 0.85405 0.765657 0.677265 0.588872 0.445967 0.303062 0.160157 0.0172521 0.043613 0.0699739 0.0963348 0.122696 0.310964 0.499231 0.687499 0.875767 0.779739 0.683711 0.587683 0.491655 0.583158 0.67466 0.766163 0.857666 0.696403 0.535139 0.373876 0.212613 0.299623 0.386633 0.473643 0.560653 0.580347 0.600041 0.619736 0.63943 0.487692 0.335953 0.184215 0.032477 0.180362 0.328246 0.476131 0.624015 0.559977 0.495938 0.4319 0.367861 0.288506 0.209152 0.129797 0.0504423 0.869639 0.810991 0.752342 0.693694 0.635046 0.594722 0.554398 0.514074 0.47375 0.545058 0.616367 0.687676 0.758985 0.688947 0.618908 0.54887 0.478832 0.374355 0.269877 0.165399 0.0609212 0.0714021 0.0818831 0.0923641 0.102845 0.281639 0.460434 0.639228 0.818022 0.723584 0.629146 0.534708 0.44027 0.525185 0.6101 0.695015 0.779929 0.668915 0.557901 0.446887 0.335873 0.388693 0.441512 0.494332 0.547152 0.564251 0.58135 0.598449 0.615548 0.495991 0.376435 0.256879 0.137323 0.227869 0.318415 0.408961 0.499507 0.474673 0.449838 0.425003 0.400169 0.363858 0.327548 0.291238 0.254927 0.744931 0.680855 0.616779 0.552703 0.488627 0.455831 0.423035 0.39024 0.357444 0.411965 0.466486 0.521007 0.575527 0.523844 0.47216 0.420476 0.368792 0.302742 0.236691 0.170641 0.10459 0.0991912 0.0937923 0.0883934 0.0829944 0.252315 0.421636 0.590957 0.760278 0.667429 0.574581 0.481733 0.388884 0.467212 0.545539 0.623866 0.702193 0.641428 0.580663 0.519899 0.459134 0.477763 0.496392 0.515021 0.53365 0.548154 0.562658 0.577162 0.591665 0.504291 0.416917 0.329542 0.242168 0.275376 0.308584 0.341791 0.374999 0.389368 0.403738 0.418107 0.432476 0.43921 0.445944 0.452678 0.459412 0.620222 0.550719 0.481215 0.411712 0.342208 0.316941 0.291673 0.266406 0.241138 0.278871 0.316604 0.354337 0.39207 0.358741 0.325411 0.292082 0.258752 0.231129 0.203506 0.175882 0.148259 0.12698 0.105702 0.0844227 0.0631438 0.222991 0.382838 0.542686 0.702533 0.611274 0.520016 0.428758 0.337499 0.409239 0.480978 0.552718 0.624457 0.613941 0.603425 0.59291 0.582394 0.566833 0.551272 0.53571 0.520149 0.532058 0.543966 0.555874 0.567783 0.512591 0.457398 0.402206 0.347014 0.322883 0.298752 0.274622 0.250491 0.304064 0.357637 0.411211 0.464784 0.514562 0.56434 0.614119 0.663897 0.495514 0.420583 0.345652 0.270721 0.195789 0.17805 0.160311 0.142571 0.124832 0.145777 0.166723 0.187668 0.208613 0.193638 0.178663 0.163687 0.148712 0.159516 0.17032 0.181124 0.191928 0.154769 0.117611 0.080452 0.0432932 0.193667 0.344041 0.494414 0.644788 0.55512 0.465451 0.375782 0.286114 0.351266 0.416417 0.481569 0.546721 0.586454 0.626187 0.665921 0.705654 0.655903 0.606151 0.5564 0.506648 0.515961 0.525274 0.534587 0.5439 0.52089 0.49788 0.474869 0.451859 0.37039 0.288921 0.207452 0.125983 0.21876 0.311537 0.404314 0.497091 0.589914 0.682736 0.775559 0.868382 0.592781 0.498488 0.404195 0.309902 0.215609 0.198327 0.181045 0.163763 0.146481 0.184824 0.223167 0.261509 0.299852 0.293396 0.28694 0.280484 0.274028 0.267966 0.261904 0.255842 0.249779 0.20852 0.167261 0.126001 0.0847417 0.244595 0.404448 0.564302 0.724155 0.60197 0.479784 0.357599 0.235414 0.285777 0.336141 0.386504 0.436868 0.468973 0.501078 0.533183 0.565288 0.529524 0.493759 0.457994 0.422229 0.45805 0.493872 0.529693 0.565514 0.545255 0.524996 0.504737 0.484478 0.390294 0.29611 0.201926 0.107742 0.233055 0.358367 0.48368 0.608993 0.665929 0.722866 0.779802 0.836738 0.690047 0.576392 0.462737 0.349083 0.235428 0.218603 0.201779 0.184955 0.168131 0.223871 0.279611 0.33535 0.39109 0.393154 0.395217 0.39728 0.399343 0.376415 0.353487 0.330559 0.307631 0.262271 0.21691 0.17155 0.12619 0.295523 0.464856 0.634189 0.803522 0.64882 0.494118 0.339416 0.184714 0.220289 0.255865 0.29144 0.327015 0.351492 0.375969 0.400446 0.424923 0.403145 0.381367 0.359589 0.337811 0.40014 0.462469 0.524798 0.587127 0.569619 0.552112 0.534605 0.517098 0.410198 0.303299 0.1964 0.0895006 0.247349 0.405198 0.563046 0.720895 0.741945 0.762995 0.784045 0.805095 0.787314 0.654297 0.52128 0.388264 0.255247 0.23888 0.222513 0.206147 0.18978 0.262917 0.336055 0.409192 0.482329 0.492911 0.503494 0.514076 0.524659 0.484865 0.44507 0.405276 0.365482 0.316021 0.26656 0.217099 0.167639 0.346451 0.525264 0.704076 0.882889 0.69567 0.508451 0.321233 0.134014 0.154801 0.175588 0.196375 0.217162 0.234011 0.25086 0.267708 0.284557 0.276766 0.268974 0.261183 0.253392 0.342229 0.431066 0.519903 0.60874 0.593984 0.579228 0.564473 0.549717 0.430103 0.310488 0.190874 0.0712595 0.261644 0.452028 0.642412 0.832796 0.81796 0.803124 0.788287 0.773451 0.88458 0.732202 0.579823 0.427445 0.275066 0.259157 0.243248 0.227339 0.211429 0.301964 0.392499 0.483033 0.573568 0.592669 0.611771 0.630873 0.649974 0.593314 0.536654 0.479994 0.423333 0.369772 0.31621 0.262649 0.209087 0.397379 0.585671 0.773964 0.962256 0.74252 0.522785 0.30305 0.0833141 0.089313 0.0953118 0.101311 0.10731 0.11653 0.12575 0.134971 0.144191 0.150387 0.156582 0.162778 0.168974 0.284318 0.399663 0.515008 0.630353 0.618349 0.606345 0.59434 0.582336 0.450007 0.317677 0.185348 0.0530184 0.275938 0.498858 0.721778 0.944698 0.893975 0.843253 0.79253 0.741808 0.850142 0.69324 0.536338 0.379436 0.222534 0.261124 0.299714 0.338303 0.376893 0.449499 0.522105 0.59471 0.667316 0.684811 0.702306 0.719801 0.737295 0.686841 0.636387 0.585933 0.535479 0.490653 0.445826 0.400999 0.356172 0.480123 0.604073 0.728024 0.851975 0.66587 0.479766 0.293661 0.107557 0.126076 0.144596 0.163115 0.181635 0.171759 0.161883 0.152008 0.142132 0.140241 0.13835 0.136459 0.134569 0.278701 0.422834 0.566966 0.711099 0.661627 0.612154 0.562682 0.51321 0.413605 0.313999 0.214394 0.114788 0.284322 0.453856 0.623389 0.792923 0.7635 0.734076 0.704653 0.675229 0.815705 0.654279 0.492854 0.331428 0.170003 0.263091 0.35618 0.449268 0.542357 0.597034 0.651711 0.706388 0.761065 0.776953 0.792841 0.808728 0.824616 0.780369 0.736121 0.691873 0.647626 0.611533 0.575441 0.539349 0.503256 0.562866 0.622475 0.682085 0.741694 0.589221 0.436747 0.284273 0.131799 0.16284 0.19388 0.22492 0.25596 0.226988 0.198016 0.169044 0.140073 0.130095 0.120118 0.110141 0.100164 0.273084 0.446004 0.618924 0.791844 0.704904 0.617964 0.531024 0.444084 0.377202 0.310321 0.243439 0.176558 0.292705 0.408853 0.525001 0.641148 0.633024 0.624899 0.616775 0.608651 0.781267 0.615318 0.449369 0.28342 0.117471 0.265058 0.412646 0.560233 0.70782 0.744569 0.781317 0.818065 0.854813 0.869094 0.883375 0.897656 0.911937 0.873896 0.835855 0.797813 0.759772 0.732414 0.705056 0.677699 0.650341 0.645609 0.640877 0.636146 0.631414 0.512571 0.393728 0.274885 0.156042 0.199603 0.243164 0.286724 0.330285 0.282217 0.234149 0.186081 0.138013 0.11995 0.101886 0.0838225 0.0657589 0.267467 0.469175 0.670882 0.87259 0.748182 0.623774 0.499366 0.374958 0.3408 0.306642 0.272485 0.238327 0.301089 0.36385 0.426612 0.489374 0.502548 0.515723 0.528897 0.542072 0.746829 0.576357 0.405885 0.235412 0.0649396 0.267026 0.469112 0.671198 0.873284 0.892104 0.910923 0.929743 0.948562 0.961236 0.97391 0.986584 0.999258 0.967423 0.935588 0.903753 0.871918 0.853295 0.834672 0.816049 0.797426 0.728353 0.659279 0.590206 0.521133 0.435921 0.350709 0.265497 0.180285 0.236366 0.292447 0.348529 0.40461 0.337446 0.270282 0.203118 0.135954 0.109804 0.0836541 0.057504 0.031354 0.26185 0.492345 0.722841 0.953336 0.79146 0.629584 0.467708 0.305832 0.304398 0.302964 0.30153 0.300097 0.309472 0.318848 0.328223 0.337599 0.372073 0.406546 0.44102 0.475494 0.724146 0.556918 0.38969 0.222462 0.055234 0.258591 0.461948 0.665305 0.868662 0.864821 0.860981 0.857141 0.8533 0.881523 0.909746 0.937969 0.966192 0.9102 0.854207 0.798215 0.742223 0.734482 0.726742 0.719001 0.71126 0.634599 0.557937 0.481276 0.404615 0.348501 0.292387 0.236273 0.180159 0.253035 0.325911 0.398787 0.471663 0.400228 0.328793 0.257358 0.185923 0.202324 0.218726 0.235128 0.251529 0.374895 0.49826 0.621626 0.744991 0.678793 0.612594 0.546396 0.480197 0.450688 0.421179 0.391669 0.36216 0.379721 0.397281 0.414842 0.432402 0.477052 0.521701 0.566351 0.611001 0.701463 0.537479 0.373496 0.209512 0.0455285 0.250156 0.454784 0.659411 0.864039 0.837539 0.811039 0.784539 0.758038 0.80181 0.845582 0.889354 0.933126 0.852976 0.772827 0.692677 0.612528 0.615669 0.618811 0.621953 0.625095 0.540845 0.456596 0.372346 0.288096 0.261081 0.234065 0.20705 0.180034 0.269704 0.359375 0.449045 0.538716 0.46301 0.387303 0.311597 0.235891 0.294845 0.353798 0.412752 0.471705 0.48794 0.504175 0.520411 0.536646 0.566125 0.595604 0.625084 0.654563 0.596978 0.539393 0.481808 0.424224 0.449969 0.475714 0.50146 0.527205 0.582031 0.636857 0.691682 0.746508 0.678779 0.51804 0.357301 0.196562 0.035823 0.241721 0.44762 0.653518 0.859417 0.810257 0.761097 0.711937 0.662777 0.722097 0.781418 0.840739 0.90006 0.795753 0.691446 0.587139 0.482833 0.496857 0.510881 0.524905 0.53893 0.447092 0.355254 0.263416 0.171578 0.17366 0.175743 0.177826 0.179909 0.286374 0.392839 0.499304 0.605769 0.525791 0.445814 0.365837 0.28586 0.387365 0.48887 0.590375 0.69188 0.600985 0.510091 0.419196 0.328301 0.453458 0.578614 0.703771 0.828928 0.743268 0.657608 0.571947 0.486287 0.520217 0.554148 0.588078 0.622009 0.68701 0.752012 0.817013 0.882015 0.656096 0.498601 0.341107 0.183612 0.0261174 0.233287 0.440456 0.647625 0.854794 0.782974 0.711154 0.639335 0.567515 0.642384 0.717254 0.792124 0.866994 0.738529 0.610065 0.481601 0.353137 0.378044 0.402951 0.427858 0.452764 0.353338 0.253912 0.154485 0.0550592 0.0862402 0.117421 0.148602 0.179783 0.303043 0.426302 0.549562 0.672821 0.588573 0.504325 0.420077 0.335828 0.479885 0.623942 0.767999 0.912056 0.714031 0.516006 0.317981 0.119955 0.34079 0.561625 0.782459 1.00329 0.889558 0.775822 0.662086 0.54835 0.590466 0.632581 0.674696 0.716812 0.791989 0.867167 0.942345 1.01752 0.564911 0.454893 0.344876 0.234858 0.124841 0.283392 0.441943 0.600495 0.759046 0.724163 0.68928 0.654398 0.619515 0.679107 0.7387 0.798293 0.857885 0.715986 0.574086 0.432187 0.290287 0.313909 0.337531 0.361153 0.384775 0.321722 0.258668 0.195615 0.132561 0.136728 0.140895 0.145061 0.149228 0.271186 0.393143 0.515101 0.637058 0.562069 0.48708 0.412091 0.337102 0.434982 0.532862 0.630742 0.728622 0.582215 0.435809 0.289402 0.142996 0.352788 0.56258 0.772372 0.982165 0.882301 0.782437 0.682573 0.582709 0.601111 0.619513 0.637914 0.656316 0.741059 0.825802 0.910545 0.995288 0.473726 0.411186 0.348645 0.286104 0.223564 0.333497 0.443431 0.553365 0.663298 0.665352 0.667406 0.669461 0.671515 0.71583 0.760146 0.804461 0.848777 0.693442 0.538107 0.382772 0.227437 0.249774 0.272112 0.294449 0.316786 0.290105 0.263425 0.236744 0.210064 0.187216 0.164368 0.14152 0.118672 0.239328 0.359984 0.48064 0.601295 0.535566 0.469836 0.404106 0.338376 0.390079 0.441782 0.493485 0.545188 0.4504 0.355612 0.260824 0.166036 0.364786 0.563536 0.762286 0.961035 0.875044 0.789052 0.70306 0.617068 0.611756 0.606444 0.601132 0.59582 0.690129 0.784437 0.878746 0.973054 0.382541 0.367478 0.352414 0.337351 0.322287 0.383603 0.444919 0.506234 0.56755 0.606541 0.645532 0.684523 0.723515 0.752553 0.781592 0.81063 0.839669 0.670898 0.502128 0.333357 0.164587 0.185639 0.206692 0.227744 0.248797 0.258489 0.268181 0.277874 0.287566 0.237704 0.187841 0.137979 0.0881169 0.207471 0.326825 0.446179 0.565533 0.509062 0.452591 0.396121 0.33965 0.345176 0.350702 0.356228 0.361753 0.318584 0.275415 0.232246 0.189077 0.376784 0.564491 0.752199 0.939906 0.867786 0.795667 0.723547 0.651427 0.622402 0.593376 0.56435 0.535325 0.639199 0.743073 0.846947 0.950821 0.291356 0.32377 0.356183 0.388597 0.42101 0.433708 0.446406 0.459104 0.471802 0.54773 0.623658 0.699586 0.775515 0.789276 0.803038 0.816799 0.830561 0.648355 0.466149 0.283943 0.101737 0.121504 0.141272 0.16104 0.180808 0.226873 0.272938 0.319003 0.365068 0.288191 0.211315 0.134438 0.0575614 0.175613 0.293666 0.411718 0.52977 0.482558 0.435347 0.388135 0.340924 0.300273 0.259621 0.21897 0.178319 0.186769 0.195218 0.203668 0.212117 0.388782 0.565447 0.742112 0.918777 0.860529 0.802282 0.744034 0.685787 0.633047 0.580308 0.527568 0.474829 0.588268 0.701708 0.815147 0.928587 0.244837 0.309873 0.374909 0.439945 0.50498 0.513909 0.522837 0.531765 0.540694 0.586576 0.632459 0.678342 0.724225 0.710585 0.696945 0.683304 0.669664 0.559213 0.448763 0.338312 0.227861 0.223826 0.219792 0.215757 0.211723 0.235752 0.259781 0.283809 0.307838 0.25516 0.202481 0.149803 0.0971244 0.228954 0.360784 0.492613 0.624443 0.536789 0.449134 0.36148 0.273826 0.254189 0.234551 0.214914 0.195277 0.18964 0.184003 0.178367 0.17273 0.329842 0.486954 0.644066 0.801178 0.730314 0.65945 0.588586 0.517721 0.534233 0.550745 0.567257 0.583769 0.62445 0.665131 0.705811 0.746492 0.198317 0.295976 0.393634 0.491292 0.58895 0.594109 0.599268 0.604427 0.609585 0.625423 0.64126 0.657098 0.672935 0.631893 0.590851 0.54981 0.508768 0.470072 0.431377 0.392681 0.353985 0.326148 0.298312 0.270475 0.242638 0.24463 0.246623 0.248616 0.250609 0.222128 0.193648 0.165168 0.136687 0.282294 0.427902 0.573509 0.719116 0.591019 0.462922 0.334825 0.206728 0.208105 0.209481 0.210858 0.212234 0.192511 0.172789 0.153066 0.133343 0.270902 0.408462 0.546021 0.68358 0.600099 0.516618 0.433137 0.349656 0.435419 0.521183 0.606946 0.69271 0.660632 0.628553 0.596475 0.564396 0.151798 0.282079 0.412359 0.54264 0.672921 0.67431 0.675699 0.677088 0.678477 0.664269 0.650061 0.635853 0.621645 0.553202 0.484758 0.416315 0.347871 0.380931 0.413991 0.44705 0.48011 0.42847 0.376831 0.325192 0.273553 0.253509 0.233466 0.213422 0.193379 0.189097 0.184815 0.180532 0.17625 0.335635 0.49502 0.654404 0.813789 0.645249 0.476709 0.30817 0.13963 0.162021 0.184411 0.206801 0.229192 0.195383 0.161574 0.127765 0.0939563 0.211963 0.329969 0.447976 0.565982 0.469884 0.373786 0.277688 0.181591 0.336606 0.491621 0.646635 0.80165 0.696813 0.591976 0.487138 0.382301 0.105279 0.268182 0.431085 0.593988 0.756891 0.75451 0.75213 0.749749 0.747369 0.703115 0.658862 0.614609 0.570355 0.47451 0.378665 0.28282 0.186975 0.29179 0.396604 0.501419 0.606234 0.530792 0.455351 0.379909 0.304468 0.262388 0.220309 0.178229 0.136149 0.156065 0.175981 0.195897 0.215813 0.388975 0.562138 0.7353 0.908462 0.699479 0.490497 0.281515 0.0725323 0.115936 0.159341 0.202745 0.246149 0.198254 0.150359 0.102464 0.0545693 0.153023 0.251477 0.34993 0.448384 0.339669 0.230955 0.12224 0.0135253 0.237792 0.462058 0.686325 0.910591 0.732995 0.555398 0.377802 0.200206 0.102586 0.238362 0.374138 0.509913 0.645689 0.653331 0.660974 0.668616 0.676258 0.620586 0.564914 0.509242 0.453569 0.438386 0.423204 0.408021 0.392838 0.429367 0.465896 0.502424 0.538953 0.480168 0.421382 0.362596 0.303811 0.257323 0.210834 0.164346 0.117858 0.14778 0.177703 0.207625 0.237547 0.351438 0.465328 0.579219 0.693109 0.565498 0.437887 0.310277 0.182666 0.23146 0.280254 0.329049 0.377843 0.333653 0.289462 0.245272 0.201081 0.240583 0.280085 0.319586 0.359088 0.276994 0.1949 0.112806 0.0307126 0.243037 0.455362 0.667687 0.880011 0.755138 0.630266 0.505393 0.38052 0.0998935 0.208542 0.317191 0.425839 0.534488 0.552153 0.569818 0.587483 0.605148 0.538057 0.470966 0.403874 0.336783 0.402263 0.467742 0.533222 0.598701 0.566944 0.535187 0.503429 0.471672 0.429543 0.387413 0.345283 0.303154 0.252257 0.20136 0.150463 0.099566 0.139495 0.179424 0.219353 0.259282 0.3139 0.368519 0.423138 0.477757 0.431517 0.385278 0.339038 0.292799 0.346984 0.401168 0.455353 0.509537 0.469051 0.428566 0.38808 0.347594 0.328143 0.308693 0.289242 0.269792 0.214319 0.158846 0.103373 0.0478999 0.248283 0.448666 0.649049 0.849431 0.777282 0.705133 0.632984 0.560835 0.0972009 0.178722 0.260243 0.341765 0.423286 0.450974 0.478662 0.50635 0.534038 0.455528 0.377018 0.298507 0.219997 0.366139 0.51228 0.658422 0.804564 0.704521 0.604478 0.504435 0.404392 0.378918 0.353444 0.32797 0.302497 0.247191 0.191886 0.13658 0.0812745 0.13121 0.181145 0.231081 0.281016 0.276363 0.27171 0.267057 0.262404 0.297536 0.332668 0.3678 0.402932 0.462507 0.522082 0.581657 0.641232 0.60445 0.567669 0.530887 0.494106 0.415703 0.337301 0.258898 0.180495 0.151643 0.122791 0.0939393 0.0650873 0.253528 0.441969 0.630411 0.818852 0.799426 0.78 0.760575 0.741149 0.0945082 0.148902 0.203296 0.25769 0.312085 0.349795 0.387506 0.425217 0.462928 0.372999 0.283069 0.19314 0.103211 0.330015 0.556819 0.783623 1.01043 0.842098 0.673769 0.50544 0.337111 0.328293 0.319475 0.310657 0.30184 0.242126 0.182411 0.122697 0.062983 0.122925 0.182867 0.242808 0.30275 0.238825 0.174901 0.110976 0.0470513 0.163555 0.280058 0.396562 0.513066 0.578031 0.642996 0.707961 0.772926 0.739849 0.706772 0.673695 0.640618 0.503263 0.365909 0.228554 0.0911993 0.0889681 0.086737 0.0845058 0.0822746 0.258774 0.435273 0.611773 0.788272 0.82157 0.854868 0.888165 0.921463 0.20595 0.219929 0.233909 0.247888 0.261868 0.335586 0.409303 0.483021 0.556739 0.458358 0.359978 0.261597 0.163217 0.330518 0.497819 0.66512 0.832421 0.734873 0.637326 0.539778 0.44223 0.388923 0.335616 0.282309 0.229002 0.186634 0.144267 0.101899 0.0595317 0.14379 0.228048 0.312306 0.396564 0.344532 0.292499 0.240467 0.188435 0.270904 0.353373 0.435842 0.518311 0.579953 0.641594 0.703235 0.764877 0.738645 0.712413 0.686181 0.65995 0.561634 0.463318 0.365002 0.266686 0.233719 0.200752 0.167784 0.134817 0.292824 0.45083 0.608836 0.766843 0.783326 0.799809 0.816292 0.832775 0.317391 0.290956 0.264521 0.238086 0.211651 0.321376 0.431101 0.540825 0.65055 0.543718 0.436886 0.330054 0.223223 0.331021 0.438819 0.546617 0.654415 0.627649 0.600882 0.574116 0.54735 0.449553 0.351757 0.253961 0.156164 0.131143 0.106122 0.0811014 0.0560804 0.164655 0.273229 0.381803 0.490378 0.450238 0.410098 0.369958 0.329818 0.378253 0.426687 0.475122 0.523557 0.581875 0.640192 0.69851 0.756828 0.737441 0.718055 0.698668 0.679281 0.620004 0.560727 0.50145 0.442173 0.37847 0.314767 0.251063 0.18736 0.326873 0.466387 0.6059 0.745414 0.745082 0.74475 0.744419 0.744087 0.428833 0.361983 0.295134 0.228284 0.161434 0.307166 0.452898 0.598629 0.744361 0.629078 0.513795 0.398512 0.283229 0.331524 0.379819 0.428114 0.476409 0.520424 0.564439 0.608454 0.652469 0.510183 0.367898 0.225612 0.0833267 0.0756523 0.0679779 0.0603035 0.0526291 0.18552 0.31841 0.451301 0.584192 0.555944 0.527696 0.499449 0.471201 0.485602 0.500002 0.514402 0.528803 0.583797 0.638791 0.693785 0.748779 0.736237 0.723696 0.711154 0.698613 0.678375 0.658137 0.637899 0.617661 0.523221 0.428781 0.334342 0.239902 0.360923 0.481943 0.602964 0.723984 0.706838 0.689692 0.672545 0.655399 0.540274 0.43301 0.325746 0.218482 0.111218 0.292956 0.474695 0.656433 0.838172 0.714437 0.590703 0.466969 0.343234 0.332027 0.320819 0.309611 0.298403 0.413199 0.527996 0.642792 0.757588 0.570814 0.384039 0.197264 0.0104891 0.0201613 0.0298334 0.0395056 0.0491778 0.206385 0.363592 0.520799 0.678005 0.66165 0.645295 0.62894 0.612584 0.59295 0.573316 0.553682 0.534048 0.585719 0.637389 0.689059 0.740729 0.735033 0.729337 0.723641 0.717945 0.736746 0.755546 0.774347 0.793148 0.667972 0.542796 0.41762 0.292445 0.394972 0.4975 0.600028 0.702555 0.668594 0.634633 0.600672 0.566711 0.505544 0.403939 0.302335 0.20073 0.0991247 0.280993 0.462862 0.644731 0.826599 0.705725 0.584851 0.463977 0.343103 0.351844 0.360585 0.369325 0.378066 0.472626 0.567186 0.661747 0.756307 0.575847 0.395388 0.214928 0.0344688 0.0431866 0.0519044 0.0606222 0.06934 0.213996 0.358653 0.503309 0.647966 0.631619 0.615272 0.598925 0.582578 0.593564 0.60455 0.615535 0.626521 0.659467 0.692413 0.725359 0.758306 0.749935 0.741564 0.733193 0.724822 0.695586 0.66635 0.637115 0.607879 0.515377 0.422875 0.330374 0.237872 0.315711 0.39355 0.471389 0.549227 0.568976 0.588725 0.608474 0.628222 0.470814 0.374869 0.278923 0.182977 0.0870317 0.26903 0.451029 0.633028 0.815027 0.697013 0.578999 0.460986 0.342972 0.371662 0.400351 0.42904 0.457729 0.532053 0.606377 0.680701 0.755025 0.580881 0.406737 0.232593 0.0584485 0.0662119 0.0739753 0.0817387 0.0895022 0.221608 0.353714 0.48582 0.617926 0.601588 0.585249 0.568911 0.552572 0.594178 0.635783 0.677389 0.718994 0.733216 0.747438 0.76166 0.775882 0.764836 0.75379 0.742745 0.731699 0.654427 0.577155 0.499882 0.42261 0.362782 0.302955 0.243127 0.1833 0.23645 0.2896 0.34275 0.3959 0.469358 0.542817 0.616276 0.689734 0.436084 0.345798 0.255511 0.165225 0.0749387 0.257068 0.439196 0.621325 0.803454 0.688301 0.573148 0.457994 0.342841 0.391479 0.440117 0.488754 0.537392 0.59148 0.645568 0.699655 0.753743 0.585914 0.418086 0.250257 0.0824282 0.0892372 0.0960463 0.102855 0.109664 0.22922 0.348775 0.468331 0.587886 0.571556 0.555226 0.538896 0.522566 0.594791 0.667017 0.739242 0.811467 0.806964 0.802462 0.79796 0.793458 0.779737 0.766017 0.752297 0.738577 0.613268 0.487959 0.36265 0.237341 0.210187 0.183034 0.155881 0.128727 0.157188 0.18565 0.214111 0.242572 0.36974 0.496909 0.624077 0.751246 0.401354 0.316727 0.2321 0.147473 0.0628457 0.245105 0.427364 0.609623 0.791882 0.679589 0.567296 0.455003 0.34271 0.411296 0.479883 0.548469 0.617055 0.650907 0.684758 0.71861 0.752461 0.590948 0.429435 0.267921 0.106408 0.112263 0.118117 0.123972 0.129827 0.236831 0.343836 0.450841 0.557846 0.541525 0.525203 0.508882 0.49256 0.595405 0.69825 0.801095 0.903939 0.880713 0.857487 0.83426 0.811034 0.794639 0.778244 0.761849 0.745454 0.572108 0.398763 0.225417 0.0520717 0.0575925 0.0631133 0.0686341 0.0741549 0.0779272 0.0816995 0.0854719 0.0892442 0.270123 0.451001 0.631879 0.812758 0.539638 0.459932 0.380227 0.300522 0.220817 0.322458 0.424098 0.525738 0.627379 0.580647 0.533916 0.487184 0.440453 0.453035 0.465617 0.4782 0.490782 0.516626 0.542469 0.568313 0.594157 0.506216 0.418276 0.330335 0.242394 0.226998 0.211602 0.196206 0.18081 0.281683 0.382557 0.48343 0.584303 0.57811 0.571918 0.565725 0.559532 0.626135 0.692738 0.759341 0.825944 0.818476 0.811008 0.80354 0.796072 0.751724 0.707375 0.663027 0.618678 0.520398 0.422119 0.323839 0.225559 0.244653 0.263747 0.282842 0.301936 0.298181 0.294426 0.290672 0.286917 0.373065 0.459214 0.545363 0.631511 0.677921 0.603138 0.528355 0.453572 0.378789 0.39981 0.420832 0.441854 0.462876 0.481706 0.500536 0.519366 0.538196 0.494774 0.451352 0.40793 0.364508 0.382344 0.400181 0.418017 0.435853 0.421485 0.407117 0.392749 0.37838 0.341734 0.305087 0.26844 0.231793 0.326535 0.421277 0.516018 0.61076 0.614696 0.618632 0.622568 0.626504 0.656865 0.687226 0.717588 0.747949 0.756239 0.76453 0.77282 0.781111 0.708809 0.636506 0.564204 0.491902 0.468688 0.445474 0.42226 0.399046 0.431714 0.464381 0.497049 0.529717 0.518435 0.507153 0.495871 0.48459 0.476008 0.467427 0.458846 0.450265 0.816204 0.746343 0.676482 0.606621 0.53676 0.477163 0.417566 0.35797 0.298373 0.382764 0.467155 0.551547 0.635938 0.536512 0.437087 0.337661 0.238235 0.248063 0.257892 0.26772 0.277