<?xml version="1.0"?> 
<VTKFile type="StructuredGrid" version="0.1"> 
<StructuredGrid WholeExtent="0 128 0 128 0 0"> 
<Piece Extent="0 128 0 128 0 0"> 
<PointData>
<DataArray type="Float32" Name="u" format="ascii" NumberOfComponents="1"> 
0 0 0 0 0 0 0 0 0 0 0 0 0 0 0 0 0 0 0 0 0 0 0 0 0 0 0 0 0 0 0 0 0 0 0 0 0 0 0 0 0 0 0 0 0 0 0 0 0 0 0 0 0 0 0 0 0 0 0 0 0 0 0 0 0 0 0 0 0 0 0 0 0 0 0 0 0 0 0 0 0 0 0 0 0 0 0 0 0 0 0 0 0 0 0 0 0 0 0 0 0 0 0 0 0 0 0 0 0 0 0 0 0 0 0 0 0 0 0 0 0 0 0 0 0 0 0 0 0 0 -6.1987e-08 -2.47948e-07 -5.57883e-07 -9.91791e-07 -1.54967e-06 -2.23153e-06 -3.03736e-06 -3.96716e-06 -5.05198e-06 -6.32286e-06 -7.77979e-06 -9.42278e-06 -1.12518e-05 -1.32669e-05 -1.54681e-05 -1.78553e-05 -2.03351e-05 -2.28142e-05 -2.52926e-05 -2.77701e-05 -3.02469e-05 -3.2723e-05 -3.51983e-05 -3.76728e-05 -4.00909e-05 -4.2397e-05 -4.45911e-05 -4.66731e-05 -4.86431e-05 -5.05011e-05 -5.22471e-05 -5.38811e-05 -5.53959e-05 -5.67845e-05 -5.80469e-05 -5.91831e-05 -6.01931e-05 -6.10769e-05 -6.18344e-05 -6.24658e-05 -6.29935e-05 -6.344e-05 -6.38055e-05 -6.40899e-05 -6.42931e-05 -6.44153e-05 -6.44564e-05 -6.44163e-05 -6.43273e-05 -6.42213e-05 -6.40984e-05 -6.39585e-05 -6.38018e-05 -6.36281e-05 -6.34374e-05 -6.32299e-05 -6.30274e-05 -6.28519e-05 -6.27034e-05 -6.25819e-05 -6.24874e-05 -6.24199e-05 -6.23794e-05 -6.23659e-05 -6.23794e-05 -6.24199e-05 -6.24874e-05 -6.25819e-05 -6.27034e-05 -6.28519e-05 -6.30274e-05 -6.32299e-05 -6.34374e-05 -6.36281e-05 -6.38018e-05 -6.39585e-05 -6.40984e-05 -6.42213e-05 -6.43273e-05 -6.44163e-05 -6.44564e-05 -6.44153e-05 -6.42931e-05 -6.40899e-05 -6.38055e-05 -6.344e-05 -6.29935e-05 -6.24658e-05 -6.18344e-05 -6.10769e-05 -6.01931e-05 -5.91831e-05 -5.80469e-05 -5.67845e-05 -5.53959e-05 -5.38811e-05 -5.22471e-05 -5.05011e-05 -4.86431e-05 -4.66731e-05 -4.45911e-05 -4.2397e-05 -4.00909e-05 -3.76728e-05 -3.51983e-05 -3.2723e-05 -3.0247e-05 -2.77701e-05 -2.52926e-05 -2.28143e-05 -2.03352e-05 -1.78553e-05 -1.54681e-05 -1.32669e-05 -1.12518e-05 -9.42279e-06 -7.7798e-06 -6.32287e-06 -5.05199e-06 -3.96717e-06 -3.03736e-06 -2.23153e-06 -1.54968e-06 -9.91792e-07 -5.57883e-07 -2.47948e-07 -6.1987e-08 0 0 -2.47948e-07 -9.91791e-07 -2.23153e-06 -3.96716e-06 -6.1987e-06 -8.92612e-06 -1.21494e-05 -1.58687e-05 -2.02079e-05 -2.52914e-05 -3.11192e-05 -3.76911e-05 -4.50073e-05 -5.30677e-05 -6.18723e-05 -7.14212e-05 -8.13406e-05 -9.1257e-05 -0.00010117 -0.000111081 -0.000120988 -0.000130892 -0.000140793 -0.000150691 -0.000160364 -0.000169588 -0.000178364 -0.000186692 -0.000194573 -0.000202005 -0.000208988 -0.000215524 -0.000221584 -0.000227138 -0.000232188 -0.000236733 -0.000240772 -0.000244308 -0.000247338 -0.000249863 -0.000251974 -0.00025376 -0.000255222 -0.00025636 -0.000257173 -0.000257661 -0.000257825 -0.000257665 -0.000257309 -0.000256885 -0.000256393 -0.000255834 -0.000255207 -0.000254512 -0.00025375 -0.00025292 -0.00025211 -0.000251408 -0.000250814 -0.000250328 -0.00024995 -0.00024968 -0.000249518 -0.000249464 -0.000249518 -0.00024968 -0.00024995 -0.000250328 -0.000250814 -0.000251408 -0.00025211 -0.00025292 -0.00025375 -0.000254512 -0.000255207 -0.000255834 -0.000256393 -0.000256885 -0.000257309 -0.000257665 -0.000257825 -0.000257661 -0.000257173 -0.00025636 -0.000255222 -0.00025376 -0.000251974 -0.000249863 -0.000247338 -0.000244308 -0.000240772 -0.000236733 -0.000232188 -0.000227138 -0.000221584 -0.000215524 -0.000208988 -0.000202005 -0.000194573 -0.000186692 -0.000178364 -0.000169588 -0.000160364 -0.000150691 -0.000140793 -0.000130892 -0.000120988 -0.000111081 -0.00010117 -9.1257e-05 -8.13406e-05 -7.14212e-05 -6.18723e-05 -5.30677e-05 -4.50073e-05 -3.76911e-05 -3.11192e-05 -2.52915e-05 -2.0208e-05 -1.58687e-05 -1.21495e-05 -8.92613e-06 -6.1987e-06 -3.96717e-06 -2.23153e-06 -9.91792e-07 -2.47948e-07 0 0 -5.57883e-07 -2.23153e-06 -5.02094e-06 -8.92612e-06 -1.39471e-05 -2.00838e-05 -2.73362e-05 -3.57045e-05 -4.54679e-05 -5.69057e-05 -7.00181e-05 -8.4805e-05 -0.000101266 -0.000119402 -0.000139213 -0.000160698 -0.000183016 -0.000205328 -0.000227633 -0.000249931 -0.000272222 -0.000294507 -0.000316784 -0.000339055 -0.000360818 -0.000381573 -0.00040132 -0.000420058 -0.000437788 -0.00045451 -0.000470224 -0.00048493 -0.000498563 -0.000511061 -0.000522423 -0.000532648 -0.000541738 -0.000549692 -0.00055651 -0.000562192 -0.000566941 -0.00057096 -0.00057425 -0.000576809 -0.000578638 -0.000579738 -0.000580107 -0.000579747 -0.000578945 -0.000577991 -0.000576885 -0.000575627 -0.000574216 -0.000572653 -0.000570937 -0.000569069 -0.000567247 -0.000565667 -0.00056433 -0.000563237 -0.000562386 -0.000561779 -0.000561414 -0.000561293 -0.000561414 -0.000561779 -0.000562386 -0.000563237 -0.00056433 -0.000565667 -0.000567247 -0.000569069 -0.000570937 -0.000572653 -0.000574216 -0.000575627 -0.000576885 -0.000577991 -0.000578945 -0.000579747 -0.000580107 -0.000579738 -0.000578638 -0.000576809 -0.00057425 -0.00057096 -0.000566941 -0.000562192 -0.00055651 -0.000549692 -0.000541738 -0.000532648 -0.000522423 -0.000511061 -0.000498563 -0.00048493 -0.000470224 -0.00045451 -0.000437788 -0.000420058 -0.00040132 -0.000381573 -0.000360818 -0.000339055 -0.000316784 -0.000294507 -0.000272223 -0.000249931 -0.000227633 -0.000205328 -0.000183016 -0.000160698 -0.000139213 -0.000119402 -0.000101266 -8.48051e-05 -7.00182e-05 -5.69058e-05 -4.54679e-05 -3.57045e-05 -2.73363e-05 -2.00838e-05 -1.39471e-05 -8.92613e-06 -5.02095e-06 -2.23153e-06 -5.57883e-07 0 0 -9.91791e-07 -3.96716e-06 -8.92612e-06 -1.58687e-05 -2.47948e-05 -3.57045e-05 -4.85978e-05 -6.34746e-05 -8.08317e-05 -0.000101166 -0.000124477 -0.000150764 -0.000180029 -0.000212271 -0.000247489 -0.000285685 -0.000325362 -0.000365028 -0.000404681 -0.000444322 -0.000483951 -0.000523568 -0.000563172 -0.000602764 -0.000641454 -0.000678352 -0.000713457 -0.00074677 -0.00077829 -0.000808018 -0.000835954 -0.000862097 -0.000886335 -0.000908553 -0.000928751 -0.00094693 -0.00096309 -0.00097723 -0.000989351 -0.000999453 -0.0010079 -0.00101504 -0.00102089 -0.00102544 -0.00102869 -0.00103064 -0.0010313 -0.00103066 -0.00102924 -0.00102754 -0.00102557 -0.00102334 -0.00102083 -0.00101805 -0.001015 -0.00101168 -0.00100844 -0.00100563 -0.00100325 -0.00100131 -0.000999798 -0.000998718 -0.00099807 -0.000997854 -0.00099807 -0.000998718 -0.000999798 -0.00100131 -0.00100325 -0.00100563 -0.00100844 -0.00101168 -0.001015 -0.00101805 -0.00102083 -0.00102334 -0.00102557 -0.00102754 -0.00102924 -0.00103066 -0.0010313 -0.00103064 -0.00102869 -0.00102544 -0.00102089 -0.00101504 -0.0010079 -0.000999453 -0.000989351 -0.00097723 -0.00096309 -0.00094693 -0.000928751 -0.000908553 -0.000886335 -0.000862097 -0.000835954 -0.000808018 -0.00077829 -0.00074677 -0.000713457 -0.000678352 -0.000641454 -0.000602764 -0.000563172 -0.000523568 -0.000483951 -0.000444322 -0.000404681 -0.000365028 -0.000325363 -0.000285685 -0.000247489 -0.000212271 -0.000180029 -0.000150765 -0.000124477 -0.000101166 -8.08318e-05 -6.34747e-05 -4.85978e-05 -3.57045e-05 -2.47948e-05 -1.58687e-05 -8.92613e-06 -3.96717e-06 -9.91792e-07 0 0 -1.54967e-06 -6.1987e-06 -1.39471e-05 -2.47948e-05 -3.87418e-05 -5.57883e-05 -7.5934e-05 -9.91791e-05 -0.0001263 -0.000158071 -0.000194495 -0.000235569 -0.000281296 -0.000331673 -0.000386702 -0.000446382 -0.000508379 -0.000570356 -0.000632314 -0.000694254 -0.000756174 -0.000818075 -0.000879956 -0.000941819 -0.00100227 -0.00105992 -0.00111478 -0.00116683 -0.00121608 -0.00126253 -0.00130618 -0.00134703 -0.0013849 -0.00141961 -0.00145117 -0.00147958 -0.00150483 -0.00152692 -0.00154586 -0.00156164 -0.00157484 -0.001586 -0.00159514 -0.00160225 -0.00160733 -0.00161038 -0.00161141 -0.00161041 -0.00160818 -0.00160553 -0.00160246 -0.00159896 -0.00159504 -0.0015907 -0.00158594 -0.00158075 -0.00157568 -0.0015713 -0.00156758 -0.00156455 -0.00156218 -0.0015605 -0.00155948 -0.00155915 -0.00155948 -0.0015605 -0.00156218 -0.00156455 -0.00156758 -0.0015713 -0.00157568 -0.00158075 -0.00158594 -0.0015907 -0.00159504 -0.00159896 -0.00160246 -0.00160553 -0.00160818 -0.00161041 -0.00161141 -0.00161038 -0.00160733 -0.00160225 -0.00159514 -0.001586 -0.00157484 -0.00156164 -0.00154586 -0.00152692 -0.00150483 -0.00147958 -0.00145117 -0.00141961 -0.0013849 -0.00134703 -0.00130618 -0.00126253 -0.00121608 -0.00116683 -0.00111478 -0.00105992 -0.00100227 -0.000941819 -0.000879957 -0.000818075 -0.000756174 -0.000694254 -0.000632315 -0.000570356 -0.000508379 -0.000446382 -0.000386702 -0.000331673 -0.000281296 -0.00023557 -0.000194495 -0.000158072 -0.0001263 -9.91792e-05 -7.59341e-05 -5.57883e-05 -3.87419e-05 -2.47948e-05 -1.39471e-05 -6.1987e-06 -1.54968e-06 0 0 -2.23153e-06 -8.92612e-06 -2.00838e-05 -3.57045e-05 -5.57883e-05 -8.03351e-05 -0.000109345 -0.000142818 -0.000181871 -0.000227623 -0.000280072 -0.00033922 -0.000405066 -0.000477609 -0.000556851 -0.00064279 -0.000732065 -0.000821313 -0.000910533 -0.000999725 -0.00108889 -0.00117803 -0.00126714 -0.00135622 -0.00144327 -0.00152629 -0.00160528 -0.00168023 -0.00175115 -0.00181804 -0.0018809 -0.00193972 -0.00199425 -0.00204424 -0.00208969 -0.00213059 -0.00216695 -0.00219877 -0.00222604 -0.00224877 -0.00226776 -0.00228384 -0.002297 -0.00230724 -0.00231455 -0.00231895 -0.00232043 -0.00231899 -0.00231578 -0.00231197 -0.00230754 -0.00230251 -0.00229686 -0.00229061 -0.00228375 -0.00227628 -0.00226899 -0.00226267 -0.00225732 -0.00225295 -0.00224955 -0.00224712 -0.00224566 -0.00224517 -0.00224566 -0.00224712 -0.00224955 -0.00225295 -0.00225732 -0.00226267 -0.00226899 -0.00227628 -0.00228375 -0.00229061 -0.00229686 -0.00230251 -0.00230754 -0.00231197 -0.00231578 -0.00231899 -0.00232043 -0.00231895 -0.00231455 -0.00230724 -0.002297 -0.00228384 -0.00226776 -0.00224877 -0.00222604 -0.00219877 -0.00216695 -0.00213059 -0.00208969 -0.00204424 -0.00199425 -0.00193972 -0.0018809 -0.00181804 -0.00175115 -0.00168023 -0.00160528 -0.00152629 -0.00144327 -0.00135622 -0.00126714 -0.00117803 -0.00108889 -0.000999725 -0.000910533 -0.000821313 -0.000732066 -0.000642791 -0.000556851 -0.00047761 -0.000405066 -0.00033922 -0.000280073 -0.000227623 -0.000181872 -0.000142818 -0.000109345 -8.03352e-05 -5.57883e-05 -3.57045e-05 -2.00838e-05 -8.92613e-06 -2.23153e-06 0 0 -3.03736e-06 -1.21494e-05 -2.73362e-05 -4.85978e-05 -7.5934e-05 -0.000109345 -0.000148831 -0.000194391 -0.000247547 -0.00030982 -0.00038121 -0.000461716 -0.000551339 -0.000650079 -0.000757936 -0.000874909 -0.000996422 -0.0011179 -0.00123934 -0.00136074 -0.0014821 -0.00160343 -0.00172471 -0.00184597 -0.00196445 -0.00207745 -0.00218496 -0.00228698 -0.00238351 -0.00247456 -0.00256011 -0.00264017 -0.0027144 -0.00278244 -0.0028443 -0.00289997 -0.00294946 -0.00299277 -0.00302989 -0.00306082 -0.00308668 -0.00310856 -0.00312647 -0.0031404 -0.00315036 -0.00315635 -0.00315836 -0.0031564 -0.00315204 -0.00314684 -0.00314082 -0.00313397 -0.00312629 -0.00311778 -0.00310843 -0.00309827 -0.00308834 -0.00307974 -0.00307247 -0.00306651 -0.00306188 -0.00305857 -0.00305659 -0.00305593 -0.00305659 -0.00305857 -0.00306188 -0.00306651 -0.00307247 -0.00307974 -0.00308834 -0.00309827 -0.00310843 -0.00311778 -0.00312629 -0.00313397 -0.00314082 -0.00314684 -0.00315204 -0.0031564 -0.00315836 -0.00315635 -0.00315036 -0.0031404 -0.00312647 -0.00310856 -0.00308668 -0.00306082 -0.00302989 -0.00299277 -0.00294946 -0.00289997 -0.0028443 -0.00278244 -0.0027144 -0.00264017 -0.00256011 -0.00247456 -0.00238351 -0.00228698 -0.00218496 -0.00207745 -0.00196445 -0.00184597 -0.00172472 -0.00160343 -0.0014821 -0.00136074 -0.00123934 -0.0011179 -0.000996423 -0.00087491 -0.000757936 -0.00065008 -0.00055134 -0.000461717 -0.00038121 -0.00030982 -0.000247547 -0.000194391 -0.000148831 -0.000109345 -7.59341e-05 -4.85978e-05 -2.73363e-05 -1.21495e-05 -3.03736e-06 0 0 -3.96716e-06 -1.58687e-05 -3.57045e-05 -6.34746e-05 -9.91791e-05 -0.000142818 -0.000194391 -0.000253899 -0.000323327 -0.000404663 -0.000497907 -0.000603058 -0.000720117 -0.000849083 -0.000989957 -0.00114274 -0.00130145 -0.00146011 -0.00161872 -0.00177729 -0.0019358 -0.00209427 -0.00225269 -0.00241106 -0.00256582 -0.00271341 -0.00285383 -0.00298708 -0.00311316 -0.00323207 -0.00334382 -0.00344839 -0.00354534 -0.00363421 -0.003715 -0.00378772 -0.00385236 -0.00390892 -0.0039574 -0.00399781 -0.00403158 -0.00406016 -0.00408355 -0.00410175 -0.00411476 -0.00412258 -0.00412521 -0.00412264 -0.00411694 -0.00411016 -0.0041023 -0.00409335 -0.00408331 -0.0040722 -0.00406 -0.00404671 -0.00403375 -0.00402252 -0.00401302 -0.00400524 -0.00399919 -0.00399487 -0.00399228 -0.00399142 -0.00399228 -0.00399487 -0.00399919 -0.00400524 -0.00401302 -0.00402252 -0.00403375 -0.00404671 -0.00406 -0.0040722 -0.00408331 -0.00409335 -0.0041023 -0.00411016 -0.00411694 -0.00412264 -0.00412521 -0.00412258 -0.00411476 -0.00410175 -0.00408355 -0.00406016 -0.00403158 -0.00399781 -0.0039574 -0.00390892 -0.00385236 -0.00378772 -0.003715 -0.00363421 -0.00354534 -0.00344839 -0.00334382 -0.00323207 -0.00311316 -0.00298708 -0.00285383 -0.00271341 -0.00256582 -0.00241106 -0.00225269 -0.00209427 -0.0019358 -0.00177729 -0.00161873 -0.00146011 -0.00130145 -0.00114274 -0.000989958 -0.000849084 -0.000720117 -0.000603058 -0.000497907 -0.000404663 -0.000323327 -0.000253899 -0.000194391 -0.000142818 -9.91792e-05 -6.34747e-05 -3.57045e-05 -1.58687e-05 -3.96717e-06 0 0 -5.05198e-06 -2.02079e-05 -4.54679e-05 -8.08317e-05 -0.0001263 -0.000181871 -0.000247547 -0.000323327 -0.000411623 -0.000514848 -0.000633001 -0.000766083 -0.000914094 -0.00107703 -0.0012549 -0.0014477 -0.00164776 -0.00184742 -0.00204668 -0.00224555 -0.00244401 -0.00264208 -0.00283974 -0.00303701 -0.00322932 -0.00341214 -0.00358546 -0.00374928 -0.0039036 -0.00404842 -0.00418375 -0.00430957 -0.00442536 -0.0045306 -0.00462527 -0.00470939 -0.00478295 -0.00484594 -0.00489838 -0.00494025 -0.00497356 -0.00500029 -0.00502044 -0.00503401 -0.005041 -0.00504141 -0.00503525 -0.0050225 -0.005006 -0.00498856 -0.00497019 -0.00495088 -0.00493063 -0.00490945 -0.00488733 -0.00486427 -0.00484222 -0.00482311 -0.00480693 -0.0047937 -0.00478341 -0.00477606 -0.00477165 -0.00477018 -0.00477165 -0.00477606 -0.00478341 -0.0047937 -0.00480693 -0.00482311 -0.00484222 -0.00486427 -0.00488733 -0.00490945 -0.00493063 -0.00495088 -0.00497019 -0.00498856 -0.005006 -0.0050225 -0.00503525 -0.00504141 -0.005041 -0.00503401 -0.00502044 -0.00500029 -0.00497356 -0.00494025 -0.00489838 -0.00484594 -0.00478295 -0.00470939 -0.00462527 -0.0045306 -0.00442536 -0.00430957 -0.00418375 -0.00404842 -0.0039036 -0.00374928 -0.00358546 -0.00341214 -0.00322932 -0.00303701 -0.00283974 -0.00264208 -0.00244401 -0.00224555 -0.00204669 -0.00184742 -0.00164776 -0.0014477 -0.0012549 -0.00107703 -0.000914095 -0.000766084 -0.000633002 -0.000514848 -0.000411623 -0.000323327 -0.000247547 -0.000181872 -0.0001263 -8.08318e-05 -4.54679e-05 -2.0208e-05 -5.05199e-06 0 0 -6.32286e-06 -2.52914e-05 -5.69057e-05 -0.000101166 -0.000158071 -0.000227623 -0.00030982 -0.000404663 -0.000514848 -0.000643071 -0.000789332 -0.000953631 -0.00113597 -0.00133634 -0.00155476 -0.00179121 -0.00203597 -0.0022793 -0.0025212 -0.00276168 -0.00300073 -0.00323836 -0.00347456 -0.00370933 -0.00393694 -0.00415164 -0.00435345 -0.00454235 -0.00471834 -0.00488144 -0.00503163 -0.00516892 -0.00529277 -0.00540266 -0.00549858 -0.00558053 -0.00564852 -0.00570254 -0.00574259 -0.00576868 -0.00578371 -0.00579059 -0.00578932 -0.0057799 -0.00576234 -0.00573663 -0.00570277 -0.00566076 -0.0056147 -0.00556869 -0.00552272 -0.0054768 -0.00543093 -0.0053851 -0.00533933 -0.00529359 -0.00525074 -0.0052136 -0.00518218 -0.00515647 -0.00513647 -0.00512219 -0.00511362 -0.00511076 -0.00511362 -0.00512219 -0.00513647 -0.00515647 -0.00518218 -0.0052136 -0.00525074 -0.00529359 -0.00533933 -0.0053851 -0.00543093 -0.0054768 -0.00552272 -0.00556869 -0.0056147 -0.00566076 -0.00570277 -0.00573663 -0.00576234 -0.0057799 -0.00578932 -0.00579059 -0.00578371 -0.00576868 -0.00574259 -0.00570254 -0.00564852 -0.00558053 -0.00549858 -0.00540266 -0.00529277 -0.00516892 -0.00503163 -0.00488144 -0.00471834 -0.00454235 -0.00435345 -0.00415164 -0.00393694 -0.00370933 -0.00347456 -0.00323836 -0.00300073 -0.00276168 -0.0025212 -0.0022793 -0.00203597 -0.00179121 -0.00155476 -0.00133634 -0.00113597 -0.000953632 -0.000789332 -0.000643071 -0.000514848 -0.000404663 -0.00030982 -0.000227623 -0.000158072 -0.000101166 -5.69058e-05 -2.52915e-05 -6.32287e-06 0 0 -7.77979e-06 -3.11192e-05 -7.00181e-05 -0.000124477 -0.000194495 -0.000280072 -0.00038121 -0.000497907 -0.000633001 -0.000789332 -0.000966898 -0.0011657 -0.00138574 -0.00162701 -0.00188952 -0.00217327 -0.00246607 -0.00275574 -0.00304228 -0.00332569 -0.00360597 -0.00388312 -0.00415714 -0.00442803 -0.00468866 -0.00493191 -0.00515779 -0.00536628 -0.00555739 -0.00573112 -0.00588747 -0.00602644 -0.00614757 -0.0062504 -0.00633493 -0.00640116 -0.00644909 -0.00647872 -0.00649005 -0.00648308 -0.00646202 -0.00643105 -0.00639019 -0.00633943 -0.00627877 -0.00620822 -0.00612776 -0.00603741 -0.00594304 -0.00585053 -0.00575989 -0.00567112 -0.00558421 -0.00549917 -0.00541599 -0.00533467 -0.00525932 -0.00519401 -0.00513875 -0.00509354 -0.00505837 -0.00503325 -0.00501818 -0.00501316 -0.00501818 -0.00503325 -0.00505837 -0.00509354 -0.00513875 -0.00519401 -0.00525932 -0.00533467 -0.00541599 -0.00549917 -0.00558421 -0.00567112 -0.00575989 -0.00585053 -0.00594304 -0.00603741 -0.00612776 -0.00620821 -0.00627877 -0.00633943 -0.00639019 -0.00643105 -0.00646202 -0.00648308 -0.00649005 -0.00647872 -0.00644909 -0.00640116 -0.00633493 -0.0062504 -0.00614757 -0.00602644 -0.00588747 -0.00573112 -0.00555739 -0.00536628 -0.00515779 -0.00493191 -0.00468866 -0.00442803 -0.00415714 -0.00388312 -0.00360597 -0.00332569 -0.00304228 -0.00275574 -0.00246607 -0.00217327 -0.00188952 -0.00162701 -0.00138574 -0.0011657 -0.000966899 -0.000789332 -0.000633002 -0.000497907 -0.00038121 -0.000280073 -0.000194495 -0.000124477 -7.00182e-05 -3.11192e-05 -7.7798e-06 0 0 -9.42278e-06 -3.76911e-05 -8.4805e-05 -0.000150764 -0.000235569 -0.00033922 -0.000461716 -0.000603058 -0.000766083 -0.000953631 -0.0011657 -0.00140229 -0.00166341 -0.00194904 -0.0022592 -0.00259388 -0.00293807 -0.00327674 -0.00360991 -0.00393757 -0.00425971 -0.00457635 -0.00488748 -0.00519309 -0.00548449 -0.00575295 -0.00599848 -0.00622107 -0.00642074 -0.00659746 -0.00675126 -0.00688212 -0.00698974 -0.0070738 -0.00713431 -0.00717125 -0.00718464 -0.00717448 -0.00714075 -0.00708347 -0.0070085 -0.00692169 -0.00682306 -0.0067126 -0.0065903 -0.00645618 -0.00631023 -0.00615245 -0.00599101 -0.0058341 -0.0056817 -0.00553382 -0.00539047 -0.00525163 -0.00511731 -0.00498752 -0.00486795 -0.00476433 -0.00467665 -0.00460491 -0.00454911 -0.00450925 -0.00448534 -0.00447737 -0.00448534 -0.00450925 -0.00454911 -0.00460491 -0.00467665 -0.00476433 -0.00486795 -0.00498752 -0.00511731 -0.00525163 -0.00539047 -0.00553382 -0.0056817 -0.0058341 -0.00599101 -0.00615245 -0.00631023 -0.00645618 -0.0065903 -0.0067126 -0.00682306 -0.00692169 -0.0070085 -0.00708347 -0.00714075 -0.00717448 -0.00718464 -0.00717125 -0.00713431 -0.0070738 -0.00698974 -0.00688212 -0.00675126 -0.00659747 -0.00642074 -0.00622107 -0.00599848 -0.00575295 -0.00548449 -0.00519309 -0.00488748 -0.00457635 -0.00425971 -0.00393757 -0.00360991 -0.00327674 -0.00293807 -0.00259388 -0.0022592 -0.00194904 -0.00166341 -0.00140229 -0.0011657 -0.000953632 -0.000766084 -0.000603058 -0.000461717 -0.00033922 -0.00023557 -0.000150765 -8.48051e-05 -3.76911e-05 -9.42279e-06 0 0 -1.12518e-05 -4.50073e-05 -0.000101266 -0.000180029 -0.000281296 -0.000405066 -0.000551339 -0.000720117 -0.000914094 -0.00113597 -0.00138574 -0.00166341 -0.00196897 -0.00230243 -0.00266379 -0.00305304 -0.00345196 -0.00384231 -0.0042241 -0.00459732 -0.00496197 -0.00531806 -0.00566558 -0.00600453 -0.00632442 -0.00661475 -0.00687552 -0.00710673 -0.00730838 -0.00748048 -0.00762301 -0.00773598 -0.0078193 -0.00787288 -0.00789673 -0.00789083 -0.00785519 -0.00778981 -0.0076947 -0.00756984 -0.00742314 -0.0072625 -0.00708792 -0.0068994 -0.00669694 -0.00648053 -0.00625018 -0.00600589 -0.00575863 -0.00551939 -0.00528815 -0.00506492 -0.00484971 -0.0046425 -0.00444331 -0.00425212 -0.00407664 -0.00392456 -0.00379587 -0.00369058 -0.00360869 -0.0035502 -0.0035151 -0.0035034 -0.0035151 -0.0035502 -0.00360869 -0.00369058 -0.00379587 -0.00392456 -0.00407664 -0.00425212 -0.00444331 -0.0046425 -0.00484971 -0.00506492 -0.00528815 -0.00551939 -0.00575863 -0.00600589 -0.00625018 -0.00648053 -0.00669693 -0.0068994 -0.00708792 -0.0072625 -0.00742314 -0.00756984 -0.0076947 -0.00778981 -0.00785519 -0.00789083 -0.00789673 -0.00787288 -0.0078193 -0.00773598 -0.00762301 -0.00748048 -0.00730838 -0.00710673 -0.00687552 -0.00661475 -0.00632442 -0.00600453 -0.00566558 -0.00531806 -0.00496197 -0.00459732 -0.0042241 -0.00384232 -0.00345196 -0.00305304 -0.00266379 -0.00230243 -0.00196897 -0.00166341 -0.00138574 -0.00113597 -0.000914095 -0.000720117 -0.00055134 -0.000405066 -0.000281296 -0.000180029 -0.000101266 -4.50073e-05 -1.12518e-05 0 0 -1.32669e-05 -5.30677e-05 -0.000119402 -0.000212271 -0.000331673 -0.000477609 -0.000650079 -0.000849083 -0.00107703 -0.00133634 -0.00162701 -0.00194904 -0.00230243 -0.00268718 -0.00310329 -0.00355075 -0.00400775 -0.00445245 -0.00488485 -0.00530495 -0.00571274 -0.00610824 -0.00649144 -0.00686234 -0.00720846 -0.00751732 -0.00778892 -0.00802326 -0.00822033 -0.00838015 -0.00850271 -0.008588 -0.00863624 -0.00864764 -0.00862218 -0.00855988 -0.00846073 -0.00832473 -0.00815188 -0.00794219 -0.00770596 -0.00745349 -0.00718478 -0.00689984 -0.00659866 -0.00628125 -0.00594761 -0.00559772 -0.00524589 -0.0049064 -0.00457924 -0.00426441 -0.00396193 -0.00367178 -0.00339396 -0.00312849 -0.00288538 -0.0026747 -0.00249642 -0.00235056 -0.00223711 -0.00215608 -0.00210746 -0.00209125 -0.00210746 -0.00215608 -0.00223711 -0.00235056 -0.00249642 -0.00267469 -0.00288538 -0.00312849 -0.00339396 -0.00367178 -0.00396193 -0.00426441 -0.00457924 -0.0049064 -0.00524589 -0.00559772 -0.0059476 -0.00628125 -0.00659866 -0.00689984 -0.00718478 -0.00745349 -0.00770596 -0.00794219 -0.00815188 -0.00832473 -0.00846073 -0.00855988 -0.00862218 -0.00864764 -0.00863624 -0.008588 -0.00850271 -0.00838015 -0.00822034 -0.00802326 -0.00778892 -0.00751732 -0.00720846 -0.00686234 -0.00649144 -0.00610825 -0.00571275 -0.00530495 -0.00488485 -0.00445245 -0.00400775 -0.00355076 -0.00310329 -0.00268718 -0.00230243 -0.00194904 -0.00162701 -0.00133634 -0.00107703 -0.000849084 -0.00065008 -0.00047761 -0.000331673 -0.000212271 -0.000119402 -5.30677e-05 -1.32669e-05 0 0 -1.54681e-05 -6.18723e-05 -0.000139213 -0.000247489 -0.000386702 -0.000556851 -0.000757936 -0.000989957 -0.0012549 -0.00155476 -0.00188952 -0.0022592 -0.00266379 -0.00310329 -0.0035777 -0.00408702 -0.00460544 -0.00510715 -0.00559215 -0.00606045 -0.00651203 -0.00694691 -0.00736507 -0.00776653 -0.00813661 -0.00846066 -0.00873867 -0.00897065 -0.00915659 -0.00929649 -0.00939036 -0.00943819 -0.00944057 -0.00939806 -0.00931067 -0.00917841 -0.00900126 -0.00877923 -0.00851232 -0.00820052 -0.00785694 -0.00749464 -0.00711363 -0.00671392 -0.00629549 -0.00585835 -0.00540251 -0.00492795 -0.00445279 -0.00399513 -0.00355496 -0.0031323 -0.00272713 -0.00233946 -0.00196929 -0.00161661 -0.00129418 -0.00101474 -0.000778297 -0.000584839 -0.000434372 -0.000326896 -0.00026241 -0.000240914 -0.00026241 -0.000326896 -0.000434372 -0.000584839 -0.000778296 -0.00101474 -0.00129418 -0.00161661 -0.00196929 -0.00233946 -0.00272713 -0.0031323 -0.00355496 -0.00399513 -0.00445279 -0.00492795 -0.00540251 -0.00585835 -0.00629549 -0.00671391 -0.00711363 -0.00749464 -0.00785694 -0.00820052 -0.00851231 -0.00877923 -0.00900126 -0.00917841 -0.00931067 -0.00939806 -0.00944057 -0.00943819 -0.00939036 -0.00929649 -0.00915659 -0.00897065 -0.00873867 -0.00846066 -0.00813661 -0.00776653 -0.00736507 -0.00694691 -0.00651203 -0.00606045 -0.00559216 -0.00510715 -0.00460544 -0.00408702 -0.0035777 -0.00310329 -0.00266379 -0.0022592 -0.00188952 -0.00155476 -0.0012549 -0.000989958 -0.000757936 -0.000556851 -0.000386702 -0.000247489 -0.000139213 -6.18724e-05 -1.54681e-05 0 0 -1.78553e-05 -7.14211e-05 -0.000160698 -0.000285685 -0.000446382 -0.00064279 -0.000874909 -0.00114274 -0.0014477 -0.00179121 -0.00217327 -0.00259388 -0.00305304 -0.00355075 -0.00408702 -0.00466183 -0.00524502 -0.00580642 -0.00634602 -0.00686382 -0.00735983 -0.00783404 -0.00828646 -0.00871708 -0.00910886 -0.00944476 -0.00972477 -0.0099489 -0.0101171 -0.0102295 -0.010286 -0.0102866 -0.0102323 -0.0101242 -0.0099622 -0.00974641 -0.00947677 -0.0091533 -0.00877599 -0.00834484 -0.00787608 -0.00738596 -0.00687448 -0.00634163 -0.00578741 -0.00521183 -0.00461489 -0.00399658 -0.00337933 -0.00278558 -0.00221533 -0.00166857 -0.00114531 -0.000645544 -0.000169274 0.0002835 0.000696961 0.00105529 0.0013585 0.00160658 0.00179953 0.00193735 0.00202004 0.0020476 0.00202004 0.00193735 0.00179953 0.00160658 0.0013585 0.00105529 0.000696962 0.0002835 -0.000169274 -0.000645543 -0.00114531 -0.00166857 -0.00221533 -0.00278558 -0.00337933 -0.00399658 -0.00461489 -0.00521183 -0.00578741 -0.00634163 -0.00687448 -0.00738596 -0.00787608 -0.00834484 -0.00877599 -0.0091533 -0.00947677 -0.00974641 -0.0099622 -0.0101242 -0.0102323 -0.0102866 -0.010286 -0.0102295 -0.0101171 -0.0099489 -0.00972477 -0.00944476 -0.00910887 -0.00871708 -0.00828646 -0.00783404 -0.00735983 -0.00686382 -0.00634602 -0.00580642 -0.00524502 -0.00466183 -0.00408702 -0.00355076 -0.00305304 -0.00259388 -0.00217327 -0.00179121 -0.0014477 -0.00114274 -0.00087491 -0.000642791 -0.000446383 -0.000285685 -0.000160698 -7.14212e-05 -1.78553e-05 0 0 -2.03351e-05 -8.13406e-05 -0.000183016 -0.000325362 -0.000508379 -0.000732065 -0.000996422 -0.00130145 -0.00164776 -0.00203597 -0.00246607 -0.00293807 -0.00345196 -0.00400775 -0.00460544 -0.00524502 -0.00589152 -0.00650996 -0.00710033 -0.00766265 -0.0081969 -0.00870309 -0.00918121 -0.00963128 -0.0100336 -0.0103686 -0.0106362 -0.0108364 -0.0109693 -0.0110348 -0.0110329 -0.0109636 -0.0108286 -0.0106295 -0.0103662 -0.0100389 -0.0096475 -0.00919197 -0.00867234 -0.00808861 -0.00746078 -0.00680889 -0.00613292 -0.00543288 -0.00470876 -0.00396057 -0.00318831 -0.00239197 -0.00159914 -0.00083738 -0.0001067 0.000592902 0.00126143 0.00189888 0.00250525 0.00308054 0.00360531 0.00406011 0.00444494 0.00475981 0.0050047 0.00517962 0.00528458 0.00531956 0.00528458 0.00517962 0.0050047 0.00475981 0.00444494 0.00406011 0.00360531 0.00308054 0.00250525 0.00189888 0.00126143 0.000592903 -0.0001067 -0.000837379 -0.00159914 -0.00239197 -0.00318831 -0.00396057 -0.00470876 -0.00543287 -0.00613292 -0.00680889 -0.00746078 -0.00808861 -0.00867234 -0.00919197 -0.0096475 -0.0100389 -0.0103662 -0.0106295 -0.0108286 -0.0109636 -0.0110329 -0.0110348 -0.0109693 -0.0108364 -0.0106362 -0.0103686 -0.0100336 -0.00963128 -0.00918122 -0.00870309 -0.0081969 -0.00766265 -0.00710034 -0.00650996 -0.00589152 -0.00524502 -0.00460544 -0.00400775 -0.00345196 -0.00293807 -0.00246607 -0.00203597 -0.00164776 -0.00130145 -0.000996423 -0.000732066 -0.000508379 -0.000325363 -0.000183016 -8.13407e-05 -2.03352e-05 0 0 -2.28142e-05 -9.12569e-05 -0.000205328 -0.000365028 -0.000570356 -0.000821312 -0.0011179 -0.00146011 -0.00184742 -0.0022793 -0.00275574 -0.00327674 -0.00384231 -0.00445245 -0.00510715 -0.00580642 -0.00650996 -0.00717749 -0.007809 -0.00840451 -0.008964 -0.00948747 -0.00997494 -0.0104264 -0.0108193 -0.0111311 -0.0113619 -0.0115116 -0.0115803 -0.0115678 -0.0114743 -0.0112998 -0.0110467 -0.0107175 -0.0103123 -0.00983098 -0.00927364 -0.00864025 -0.00793081 -0.00714531 -0.00630843 -0.00544484 -0.00455455 -0.00363756 -0.00269385 -0.00172344 -0.00072633 0.000297489 0.00131417 0.00228986 0.00322455 0.00411826 0.00497098 0.00578271 0.00655345 0.0072832 0.00794812 0.00852439 0.00901201 0.00941096 0.00972126 0.0099429 0.0100759 0.0101202 0.0100759 0.0099429 0.00972126 0.00941096 0.00901201 0.00852439 0.00794812 0.0072832 0.00655345 0.00578271 0.00497098 0.00411826 0.00322455 0.00228986 0.00131417 0.00029749 -0.00072633 -0.00172344 -0.00269385 -0.00363755 -0.00455455 -0.00544484 -0.00630843 -0.00714531 -0.00793081 -0.00864025 -0.00927364 -0.00983098 -0.0103123 -0.0107175 -0.0110467 -0.0112998 -0.0114744 -0.0115678 -0.0115803 -0.0115116 -0.0113619 -0.0111311 -0.0108193 -0.0104264 -0.00997494 -0.00948748 -0.008964 -0.00840451 -0.00780901 -0.00717749 -0.00650996 -0.00580642 -0.00510715 -0.00445245 -0.00384232 -0.00327675 -0.00275574 -0.0022793 -0.00184742 -0.00146011 -0.0011179 -0.000821313 -0.000570356 -0.000365028 -0.000205328 -9.1257e-05 -2.28143e-05 0 0 -2.52926e-05 -0.00010117 -0.000227633 -0.000404681 -0.000632314 -0.000910532 -0.00123934 -0.00161872 -0.00204668 -0.0025212 -0.00304228 -0.00360991 -0.0042241 -0.00488485 -0.00559215 -0.00634602 -0.00710033 -0.007809 -0.00847202 -0.0090894 -0.00966112 -0.0101872 -0.0106676 -0.0111024 -0.0114659 -0.0117324 -0.0119019 -0.0119745 -0.0119501 -0.0118288 -0.0116105 -0.0112952 -0.0108866 -0.0103883 -0.00980026 -0.00912258 -0.00835521 -0.00749814 -0.00655138 -0.00551494 -0.00441901 -0.00329383 -0.00213938 -0.000955668 0.000257306 0.00149954 0.00277104 0.0040718 0.00536058 0.00659612 0.00777843 0.00890751 0.00998335 0.011006 0.0119753 0.0128915 0.0137254 0.0144481 0.0150597 0.01556 0.0159492 0.0162272 0.016394 0.0164496 0.016394 0.0162272 0.0159492 0.01556 0.0150597 0.0144481 0.0137254 0.0128915 0.0119753 0.011006 0.00998335 0.00890751 0.00777843 0.00659612 0.00536058 0.00407181 0.00277104 0.00149954 0.000257307 -0.000955668 -0.00213938 -0.00329383 -0.00441901 -0.00551494 -0.00655138 -0.00749814 -0.00835521 -0.00912258 -0.00980026 -0.0103883 -0.0108866 -0.0112952 -0.0116105 -0.0118288 -0.0119501 -0.0119745 -0.0119019 -0.0117324 -0.0114659 -0.0111024 -0.0106676 -0.0101872 -0.00966112 -0.0090894 -0.00847203 -0.00780901 -0.00710034 -0.00634602 -0.00559216 -0.00488485 -0.0042241 -0.00360991 -0.00304228 -0.0025212 -0.00204669 -0.00161873 -0.00123934 -0.000910533 -0.000632315 -0.000404681 -0.000227633 -0.00010117 -2.52926e-05 0 0 -2.77701e-05 -0.000111081 -0.000249931 -0.000444322 -0.000694253 -0.000999725 -0.00136074 -0.00177729 -0.00224555 -0.00276168 -0.00332569 -0.00393757 -0.00