<?xml version="1.0"?> 
<VTKFile type="StructuredGrid" version="0.1"> 
<StructuredGrid WholeExtent="0 128 0 128 0 0"> 
<Piece Extent="0 128 0 128 0 0"> 
<PointData>
<DataArray type="Float32" Name="u" format="ascii" NumberOfComponents="1"> 
0 0 0 0 0 0 0 0 0 0 0 0 0 0 0 0 0 0 0 0 0 0 0 0 0 0 0 0 0 0 0 0 0 0 0 0 0 0 0 0 0 0 0 0 0 0 0 0 0 0 0 0 0 0 0 0 0 0 0 0 0 0 0 0 0 0 0 0 0 0 0 0 0 0 0 0 0 0 0 0 0 0 0 0 0 0 0 0 0 0 0 0 0 0 0 0 0 0 0 0 0 0 0 0 0 0 0 0 0 0 0 0 0 0 0 0 0 0 0 0 0 0 0 0 0 0 0 0 0 0 -6.30791e-08 -2.52316e-07 -5.67712e-07 -1.00927e-06 -1.57698e-06 -2.27085e-06 -3.09088e-06 -4.03706e-06 -5.13699e-06 -6.41825e-06 -7.88084e-06 -9.52476e-06 -1.135e-05 -1.33566e-05 -1.55445e-05 -1.79137e-05 -2.03653e-05 -2.28004e-05 -2.52189e-05 -2.76208e-05 -3.00062e-05 -3.2375e-05 -3.47272e-05 -3.70629e-05 -3.93216e-05 -4.1443e-05 -4.34271e-05 -4.52739e-05 -4.69834e-05 -4.85555e-05 -4.99903e-05 -5.12878e-05 -5.24396e-05 -5.3437e-05 -5.42803e-05 -5.49692e-05 -5.5504e-05 -5.58845e-05 -5.61107e-05 -5.61827e-05 -5.61314e-05 -5.5988e-05 -5.57523e-05 -5.54244e-05 -5.50043e-05 -5.4492e-05 -5.38875e-05 -5.31908e-05 -5.24522e-05 -5.1722e-05 -5.10003e-05 -5.02871e-05 -4.95823e-05 -4.8886e-05 -4.81981e-05 -4.75186e-05 -4.68856e-05 -4.6337e-05 -4.58728e-05 -4.5493e-05 -4.51976e-05 -4.49866e-05 -4.486e-05 -4.48178e-05 -4.486e-05 -4.49866e-05 -4.51976e-05 -4.5493e-05 -4.58728e-05 -4.6337e-05 -4.68856e-05 -4.75186e-05 -4.81981e-05 -4.8886e-05 -4.95823e-05 -5.02871e-05 -5.10003e-05 -5.1722e-05 -5.24522e-05 -5.31908e-05 -5.38875e-05 -5.4492e-05 -5.50043e-05 -5.54244e-05 -5.57523e-05 -5.5988e-05 -5.61314e-05 -5.61827e-05 -5.61107e-05 -5.58845e-05 -5.5504e-05 -5.49692e-05 -5.42803e-05 -5.3437e-05 -5.24396e-05 -5.12879e-05 -4.99903e-05 -4.85555e-05 -4.69834e-05 -4.52739e-05 -4.34271e-05 -4.1443e-05 -3.93216e-05 -3.70629e-05 -3.47272e-05 -3.2375e-05 -3.00062e-05 -2.76208e-05 -2.52189e-05 -2.28004e-05 -2.03653e-05 -1.79137e-05 -1.55445e-05 -1.33566e-05 -1.135e-05 -9.52477e-06 -7.88085e-06 -6.41826e-06 -5.137e-06 -4.03707e-06 -3.09088e-06 -2.27085e-06 -1.57698e-06 -1.00927e-06 -5.67713e-07 -2.52317e-07 -6.30792e-08 0 0 -2.52316e-07 -1.00927e-06 -2.27085e-06 -4.03706e-06 -6.30791e-06 -9.08339e-06 -1.23635e-05 -1.61483e-05 -2.0548e-05 -2.5673e-05 -3.15234e-05 -3.8099e-05 -4.54e-05 -5.34263e-05 -6.21779e-05 -7.16549e-05 -8.14613e-05 -9.12016e-05 -0.000100876 -0.000110483 -0.000120025 -0.0001295 -0.000138909 -0.000148252 -0.000157286 -0.000165772 -0.000173709 -0.000181096 -0.000187934 -0.000194222 -0.000199961 -0.000205151 -0.000209758 -0.000213748 -0.000217121 -0.000219877 -0.000222016 -0.000223538 -0.000224443 -0.000224731 -0.000224526 -0.000223952 -0.000223009 -0.000221698 -0.000220017 -0.000217968 -0.00021555 -0.000212763 -0.000209809 -0.000206888 -0.000204001 -0.000201148 -0.000198329 -0.000195544 -0.000192792 -0.000190075 -0.000187543 -0.000185348 -0.000183491 -0.000181972 -0.000180791 -0.000179947 -0.00017944 -0.000179271 -0.00017944 -0.000179947 -0.000180791 -0.000181972 -0.000183491 -0.000185348 -0.000187543 -0.000190075 -0.000192792 -0.000195544 -0.000198329 -0.000201148 -0.000204001 -0.000206888 -0.000209809 -0.000212763 -0.00021555 -0.000217968 -0.000220017 -0.000221698 -0.000223009 -0.000223952 -0.000224526 -0.000224731 -0.000224443 -0.000223538 -0.000222016 -0.000219877 -0.000217121 -0.000213748 -0.000209758 -0.000205151 -0.000199961 -0.000194222 -0.000187934 -0.000181096 -0.000173709 -0.000165772 -0.000157287 -0.000148252 -0.000138909 -0.0001295 -0.000120025 -0.000110483 -0.000100876 -9.12016e-05 -8.14614e-05 -7.16549e-05 -6.2178e-05 -5.34264e-05 -4.54001e-05 -3.80991e-05 -3.15234e-05 -2.5673e-05 -2.0548e-05 -1.61483e-05 -1.23635e-05 -9.0834e-06 -6.30792e-06 -4.03707e-06 -2.27085e-06 -1.00927e-06 -2.52317e-07 0 0 -5.67712e-07 -2.27085e-06 -5.10941e-06 -9.08339e-06 -1.41928e-05 -2.04376e-05 -2.78179e-05 -3.63336e-05 -4.62329e-05 -5.77643e-05 -7.09276e-05 -8.57228e-05 -0.00010215 -0.000120209 -0.0001399 -0.000161223 -0.000183288 -0.000205203 -0.00022697 -0.000248587 -0.000270056 -0.000291375 -0.000312545 -0.000333566 -0.000353895 -0.000372987 -0.000390844 -0.000407465 -0.00042285 -0.000437 -0.000449913 -0.000461591 -0.000471956 -0.000480933 -0.000488522 -0.000494723 -0.000499536 -0.00050296 -0.000504996 -0.000505644 -0.000505183 -0.000503892 -0.000501771 -0.00049882 -0.000495039 -0.000490428 -0.000484988 -0.000478717 -0.00047207 -0.000465498 -0.000459003 -0.000452584 -0.000446241 -0.000439974 -0.000433783 -0.000427668 -0.000421971 -0.000417033 -0.000412856 -0.000409437 -0.000406779 -0.00040488 -0.00040374 -0.000403361 -0.00040374 -0.00040488 -0.000406779 -0.000409437 -0.000412856 -0.000417033 -0.000421971 -0.000427668 -0.000433783 -0.000439974 -0.000446241 -0.000452584 -0.000459003 -0.000465498 -0.00047207 -0.000478717 -0.000484988 -0.000490428 -0.000495039 -0.00049882 -0.000501771 -0.000503892 -0.000505183 -0.000505644 -0.000504996 -0.00050296 -0.000499536 -0.000494723 -0.000488522 -0.000480933 -0.000471956 -0.000461591 -0.000449913 -0.000437 -0.00042285 -0.000407465 -0.000390844 -0.000372987 -0.000353895 -0.000333566 -0.000312545 -0.000291375 -0.000270056 -0.000248587 -0.00022697 -0.000205204 -0.000183288 -0.000161224 -0.0001399 -0.000120209 -0.00010215 -8.57229e-05 -7.09276e-05 -5.77643e-05 -4.6233e-05 -3.63336e-05 -2.78179e-05 -2.04377e-05 -1.41928e-05 -9.0834e-06 -5.10941e-06 -2.27085e-06 -5.67713e-07 0 0 -1.00927e-06 -4.03706e-06 -9.08339e-06 -1.61483e-05 -2.52316e-05 -3.63336e-05 -4.9454e-05 -6.4593e-05 -8.21919e-05 -0.000102692 -0.000126093 -0.000152396 -0.0001816 -0.000213705 -0.000248712 -0.000286619 -0.000325845 -0.000364806 -0.000403502 -0.000441933 -0.000480099 -0.000518 -0.000555635 -0.000593006 -0.000629146 -0.000663089 -0.000694834 -0.000724383 -0.000751734 -0.000776888 -0.000799845 -0.000820606 -0.000839033 -0.000854993 -0.000868484 -0.000879508 -0.000888064 -0.000894151 -0.000897771 -0.000898923 -0.000898103 -0.000895807 -0.000892037 -0.000886791 -0.000880069 -0.000871872 -0.0008622 -0.000851052 -0.000839235 -0.000827552 -0.000816005 -0.000804593 -0.000793317 -0.000782175 -0.000771169 -0.000760298 -0.00075017 -0.000741393 -0.000733966 -0.000727889 -0.000723162 -0.000719786 -0.000717761 -0.000717086 -0.000717761 -0.000719786 -0.000723162 -0.000727889 -0.000733966 -0.000741393 -0.00075017 -0.000760298 -0.000771169 -0.000782175 -0.000793317 -0.000804593 -0.000816005 -0.000827552 -0.000839235 -0.000851052 -0.0008622 -0.000871872 -0.000880069 -0.000886791 -0.000892037 -0.000895807 -0.000898103 -0.000898923 -0.000897771 -0.000894151 -0.000888064 -0.000879508 -0.000868484 -0.000854993 -0.000839033 -0.000820606 -0.000799846 -0.000776888 -0.000751734 -0.000724383 -0.000694834 -0.000663089 -0.000629146 -0.000593006 -0.000555635 -0.000518 -0.000480099 -0.000441933 -0.000403502 -0.000364806 -0.000325846 -0.00028662 -0.000248712 -0.000213705 -0.0001816 -0.000152396 -0.000126094 -0.000102692 -8.2192e-05 -6.45931e-05 -4.94541e-05 -3.63336e-05 -2.52317e-05 -1.61483e-05 -9.0834e-06 -4.03707e-06 -1.00927e-06 0 0 -1.57698e-06 -6.30791e-06 -1.41928e-05 -2.52316e-05 -3.94244e-05 -5.67712e-05 -7.72719e-05 -0.000100927 -0.000128425 -0.000160456 -0.000197021 -0.000238119 -0.00028375 -0.000333914 -0.000388612 -0.000447843 -0.000509133 -0.00057001 -0.000630472 -0.00069052 -0.000750154 -0.000809374 -0.00086818 -0.000926572 -0.000983041 -0.00103608 -0.00108568 -0.00113185 -0.00117458 -0.00121389 -0.00124976 -0.0012822 -0.00131099 -0.00133593 -0.00135701 -0.00137423 -0.0013876 -0.00139711 -0.00140277 -0.00140457 -0.00140329 -0.0013997 -0.00139381 -0.00138561 -0.00137511 -0.0013623 -0.00134719 -0.00132977 -0.0013113 -0.00129305 -0.00127501 -0.00125718 -0.00123956 -0.00122215 -0.00120495 -0.00118797 -0.00117214 -0.00115843 -0.00114682 -0.00113733 -0.00112994 -0.00112467 -0.0011215 -0.00112045 -0.0011215 -0.00112467 -0.00112994 -0.00113733 -0.00114682 -0.00115843 -0.00117214 -0.00118797 -0.00120495 -0.00122215 -0.00123956 -0.00125718 -0.00127501 -0.00129305 -0.0013113 -0.00132977 -0.00134719 -0.0013623 -0.00137511 -0.00138561 -0.00139381 -0.0013997 -0.00140329 -0.00140457 -0.00140277 -0.00139711 -0.0013876 -0.00137423 -0.00135701 -0.00133593 -0.00131099 -0.0012822 -0.00124976 -0.00121389 -0.00117458 -0.00113185 -0.00108568 -0.00103608 -0.000983041 -0.000926572 -0.00086818 -0.000809375 -0.000750154 -0.00069052 -0.000630472 -0.00057001 -0.000509134 -0.000447843 -0.000388612 -0.000333915 -0.00028375 -0.000238119 -0.000197021 -0.000160456 -0.000128425 -0.000100927 -7.7272e-05 -5.67713e-05 -3.94245e-05 -2.52317e-05 -1.41928e-05 -6.30792e-06 -1.57698e-06 0 0 -2.27085e-06 -9.08339e-06 -2.04376e-05 -3.63336e-05 -5.67712e-05 -8.17505e-05 -0.000111272 -0.000145334 -0.000184932 -0.000231057 -0.00028371 -0.000342891 -0.0004086 -0.000480837 -0.000559601 -0.000644894 -0.000733152 -0.000820814 -0.00090788 -0.000994349 -0.00108022 -0.0011655 -0.00125018 -0.00133426 -0.00141558 -0.00149195 -0.00156338 -0.00162986 -0.0016914 -0.001748 -0.00179965 -0.00184636 -0.00188782 -0.00192373 -0.00195409 -0.00197889 -0.00199814 -0.00201184 -0.00201998 -0.00202258 -0.00202073 -0.00201557 -0.00200708 -0.00199528 -0.00198016 -0.00196171 -0.00193995 -0.00191487 -0.00188828 -0.00186199 -0.00183601 -0.00181033 -0.00178496 -0.00175989 -0.00173513 -0.00171067 -0.00168788 -0.00166813 -0.00165142 -0.00163775 -0.00162712 -0.00161952 -0.00161496 -0.00161344 -0.00161496 -0.00161952 -0.00162712 -0.00163775 -0.00165142 -0.00166813 -0.00168788 -0.00171067 -0.00173513 -0.00175989 -0.00178496 -0.00181033 -0.00183601 -0.00186199 -0.00188828 -0.00191487 -0.00193995 -0.00196171 -0.00198016 -0.00199528 -0.00200708 -0.00201557 -0.00202073 -0.00202258 -0.00201998 -0.00201184 -0.00199814 -0.00197889 -0.00195409 -0.00192373 -0.00188782 -0.00184636 -0.00179965 -0.001748 -0.0016914 -0.00162986 -0.00156338 -0.00149195 -0.00141558 -0.00133426 -0.00125018 -0.0011655 -0.00108022 -0.000994349 -0.00090788 -0.000820814 -0.000733152 -0.000644894 -0.000559602 -0.000480837 -0.0004086 -0.000342892 -0.000283711 -0.000231057 -0.000184932 -0.000145334 -0.000111272 -8.17506e-05 -5.67713e-05 -3.63336e-05 -2.04377e-05 -9.0834e-06 -2.27085e-06 0 0 -3.09088e-06 -1.23635e-05 -2.78179e-05 -4.9454e-05 -7.72719e-05 -0.000111272 -0.000151453 -0.000197816 -0.000251713 -0.000314494 -0.000386161 -0.000466713 -0.00055615 -0.000654472 -0.00076168 -0.000877772 -0.000997901 -0.00111722 -0.00123573 -0.00135342 -0.0014703 -0.00158637 -0.00170163 -0.00181608 -0.00192676 -0.00203071 -0.00212793 -0.00221842 -0.00230219 -0.00237922 -0.00244953 -0.0025131 -0.00256954 -0.00261842 -0.00265973 -0.00269349 -0.00271969 -0.00273834 -0.00274942 -0.00275295 -0.00275044 -0.00274341 -0.00273186 -0.0027158 -0.00269521 -0.00267011 -0.00264049 -0.00260635 -0.00257016 -0.00253438 -0.00249902 -0.00246407 -0.00242953 -0.00239541 -0.00236171 -0.00232841 -0.0022974 -0.00227052 -0.00224777 -0.00222916 -0.00221468 -0.00220435 -0.00219814 -0.00219607 -0.00219814 -0.00220435 -0.00221468 -0.00222916 -0.00224777 -0.00227052 -0.0022974 -0.00232841 -0.00236171 -0.00239541 -0.00242953 -0.00246407 -0.00249902 -0.00253438 -0.00257016 -0.00260635 -0.00264049 -0.00267011 -0.00269521 -0.0027158 -0.00273186 -0.00274341 -0.00275044 -0.00275295 -0.00274942 -0.00273834 -0.00271969 -0.00269349 -0.00265973 -0.00261842 -0.00256954 -0.0025131 -0.00244953 -0.00237922 -0.00230219 -0.00221842 -0.00212793 -0.00203071 -0.00192676 -0.00181608 -0.00170163 -0.00158637 -0.0014703 -0.00135342 -0.00123573 -0.00111722 -0.000997902 -0.000877773 -0.00076168 -0.000654473 -0.000556151 -0.000466714 -0.000386162 -0.000314495 -0.000251713 -0.000197816 -0.000151453 -0.000111272 -7.7272e-05 -4.94541e-05 -2.78179e-05 -1.23635e-05 -3.09088e-06 0 0 -4.03706e-06 -1.61483e-05 -3.63336e-05 -6.4593e-05 -0.000100927 -0.000145334 -0.000197816 -0.000258372 -0.000328768 -0.000410768 -0.000504374 -0.000609585 -0.0007264 -0.000854821 -0.000994847 -0.00114648 -0.00130338 -0.00145922 -0.00161401 -0.00176773 -0.00192039 -0.002072 -0.00222254 -0.00237202 -0.00251658 -0.00265235 -0.00277934 -0.00289753 -0.00300694 -0.00310755 -0.00319938 -0.00328242 -0.00335613 -0.00341997 -0.00347394 -0.00351803 -0.00355225 -0.00357661 -0.00359108 -0.00359569 -0.00359241 -0.00358323 -0.00356815 -0.00354716 -0.00352028 -0.00348749 -0.0034488 -0.00340421 -0.00335694 -0.00331021 -0.00326402 -0.00321837 -0.00317327 -0.0031287 -0.00308468 -0.00304119 -0.00300068 -0.00296557 -0.00293586 -0.00291155 -0.00289265 -0.00287915 -0.00287104 -0.00286834 -0.00287104 -0.00287915 -0.00289265 -0.00291155 -0.00293586 -0.00296557 -0.00300068 -0.00304119 -0.00308468 -0.0031287 -0.00317327 -0.00321837 -0.00326402 -0.00331021 -0.00335694 -0.00340421 -0.0034488 -0.00348749 -0.00352028 -0.00354716 -0.00356815 -0.00358323 -0.00359241 -0.00359569 -0.00359108 -0.00357661 -0.00355225 -0.00351803 -0.00347394 -0.00341997 -0.00335613 -0.00328242 -0.00319938 -0.00310755 -0.00300694 -0.00289753 -0.00277934 -0.00265235 -0.00251658 -0.00237203 -0.00222254 -0.002072 -0.0019204 -0.00176773 -0.00161401 -0.00145923 -0.00130338 -0.00114648 -0.000994848 -0.000854822 -0.000726401 -0.000609585 -0.000504374 -0.000410769 -0.000328768 -0.000258372 -0.000197816 -0.000145334 -0.000100927 -6.45931e-05 -3.63336e-05 -1.61483e-05 -4.03707e-06 0 0 -5.13699e-06 -2.0548e-05 -4.62329e-05 -8.21919e-05 -0.000128425 -0.000184932 -0.000251713 -0.000328768 -0.000418232 -0.000522241 -0.000640796 -0.000773895 -0.000921539 -0.00108373 -0.00126046 -0.00145174 -0.00164946 -0.00184552 -0.00203992 -0.00223265 -0.00242372 -0.00261313 -0.00280088 -0.00298696 -0.00316645 -0.00333441 -0.00349085 -0.00363576 -0.00376914 -0.003891 -0.00400133 -0.00410013 -0.00418676 -0.00426057 -0.00432156 -0.00436974 -0.0044051 -0.00442763 -0.00443735 -0.00443426 -0.00442101 -0.00440028 -0.00437206 -0.00433637 -0.00429319 -0.00424252 -0.00418438 -0.00411875 -0.00404994 -0.00398222 -0.00391561 -0.00385011 -0.0037857 -0.0037224 -0.0036602 -0.00359911 -0.00354235 -0.00349315 -0.00345153 -0.00341747 -0.00339098 -0.00337206 -0.00336071 -0.00335693 -0.00336071 -0.00337206 -0.00339098 -0.00341747 -0.00345153 -0.00349315 -0.00354235 -0.00359911 -0.0036602 -0.0037224 -0.0037857 -0.00385011 -0.00391561 -0.00398222 -0.00404994 -0.00411875 -0.00418438 -0.00424252 -0.00429319 -0.00433637 -0.00437206 -0.00440028 -0.00442101 -0.00443426 -0.00443735 -0.00442763 -0.0044051 -0.00436974 -0.00432156 -0.00426057 -0.00418676 -0.00410013 -0.00400133 -0.003891 -0.00376914 -0.00363576 -0.00349085 -0.00333441 -0.00316645 -0.00298696 -0.00280088 -0.00261313 -0.00242372 -0.00223265 -0.00203992 -0.00184552 -0.00164946 -0.00145174 -0.00126046 -0.00108373 -0.00092154 -0.000773896 -0.000640796 -0.000522242 -0.000418232 -0.000328768 -0.000251713 -0.000184932 -0.000128425 -8.2192e-05 -4.6233e-05 -2.0548e-05 -5.137e-06 0 0 -6.41825e-06 -2.5673e-05 -5.77643e-05 -0.000102692 -0.000160456 -0.000231057 -0.000314494 -0.000410768 -0.000522241 -0.000651277 -0.000797874 -0.000962034 -0.00114376 -0.00134304 -0.00155989 -0.0017943 -0.00203602 -0.0022748 -0.00251064 -0.00274354 -0.0029735 -0.00320053 -0.00342461 -0.00364575 -0.00385775 -0.00405441 -0.00423571 -0.00440167 -0.00455228 -0.00468755 -0.00480747 -0.00491204 -0.00500057 -0.00507239 -0.00512748 -0.00516585 -0.00518749 -0.00519242 -0.00518062 -0.00515211 -0.00511059 -0.0050598 -0.00499973 -0.00493039 -0.00485178 -0.00476389 -0.00466672 -0.00456028 -0.00445046 -0.00434317 -0.00423838 -0.00413612 -0.00403637 -0.00393915 -0.00384444 -0.00375225 -0.003667 -0.00359311 -0.0035306 -0.00347945 -0.00343967 -0.00341125 -0.0033942 -0.00338852 -0.0033942 -0.00341125 -0.00343967 -0.00347945 -0.0035306 -0.00359311 -0.003667 -0.00375225 -0.00384444 -0.00393915 -0.00403637 -0.00413612 -0.00423838 -0.00434316 -0.00445046 -0.00456028 -0.00466672 -0.00476389 -0.00485178 -0.00493039 -0.00499973 -0.0050598 -0.00511059 -0.00515211 -0.00518062 -0.00519242 -0.00518749 -0.00516585 -0.00512748 -0.00507239 -0.00500057 -0.00491204 -0.00480747 -0.00468755 -0.00455228 -0.00440167 -0.00423571 -0.00405441 -0.00385775 -0.00364575 -0.00342461 -0.00320053 -0.0029735 -0.00274354 -0.00251064 -0.0022748 -0.00203602 -0.0017943 -0.00155989 -0.00134304 -0.00114376 -0.000962035 -0.000797875 -0.000651277 -0.000522242 -0.000410769 -0.000314495 -0.000231057 -0.000160456 -0.000102692 -5.77643e-05 -2.5673e-05 -6.41826e-06 0 0 -7.88084e-06 -3.15234e-05 -7.09276e-05 -0.000126093 -0.000197021 -0.00028371 -0.000386161 -0.000504374 -0.000640796 -0.000797874 -0.00097561 -0.001174 -0.00139305 -0.00163276 -0.00189312 -0.00217414 -0.00246304 -0.00274705 -0.00302617 -0.0033004 -0.00356974 -0.00383419 -0.00409374 -0.0043484 -0.0045905 -0.00481234 -0.00501393 -0.00519528 -0.00535637 -0.00549721 -0.0056178 -0.00571814 -0.00579757 -0.00585541 -0.00589167 -0.00590635 -0.00589945 -0.00587096 -0.00582089 -0.00574924 -0.00566116 -0.0055618 -0.00545116 -0.00532924 -0.00519605 -0.00505157 -0.00489582 -0.00472879 -0.00455852 -0.00439303 -0.00423233 -0.00407641 -0.00392528 -0.00377894 -0.00363738 -0.00350061 -0.00337463 -0.00326545 -0.00317307 -0.00309748 -0.00303869 -0.0029967 -0.0029715 -0.0029631 -0.0029715 -0.0029967 -0.00303869 -0.00309748 -0.00317307 -0.00326545 -0.00337463 -0.00350061 -0.00363738 -0.00377894 -0.00392528 -0.00407641 -0.00423233 -0.00439303 -0.00455852 -0.00472879 -0.00489582 -0.00505157 -0.00519605 -0.00532924 -0.00545116 -0.0055618 -0.00566116 -0.00574924 -0.00582089 -0.00587096 -0.00589945 -0.00590635 -0.00589167 -0.00585541 -0.00579757 -0.00571814 -0.0056178 -0.00549721 -0.00535637 -0.00519528 -0.00501393 -0.00481234 -0.0045905 -0.0043484 -0.00409374 -0.00383419 -0.00356974 -0.0033004 -0.00302617 -0.00274705 -0.00246304 -0.00217414 -0.00189312 -0.00163276 -0.00139305 -0.001174 -0.000975611 -0.000797875 -0.000640796 -0.000504374 -0.000386162 -0.000283711 -0.000197021 -0.000126094 -7.09276e-05 -3.15234e-05 -7.88085e-06 0 0 -9.52476e-06 -3.8099e-05 -8.57228e-05 -0.000152396 -0.000238119 -0.000342891 -0.000466713 -0.000609584 -0.000773895 -0.000962034 -0.001174 -0.0014098 -0.00166942 -0.00195288 -0.00226016 -0.00259127 -0.00293054 -0.00326229 -0.00358652 -0.00390323 -0.00421243 -0.00451411 -0.00480827 -0.00509491 -0.00536468 -0.00560821 -0.00582551 -0.00601657 -0.00618139 -0.00631998 -0.00643234 -0.00651845 -0.00657776 -0.00660966 -0.00661416 -0.00659126 -0.00654096 -0.00646326 -0.00635816 -0.00622566 -0.00607271 -0.00590627 -0.00572634 -0.00553292 -0.005326 -0.00510559 -0.00487169 -0.00462429 -0.0043741 -0.00413182 -0.00389745 -0.00367099 -0.00345243 -0.00324178 -0.00303904 -0.00284421 -0.00266526 -0.00251017 -0.00237894 -0.00227157 -0.00218806 -0.00212841 -0.00209262 -0.00208069 -0.00209262 -0.00212841 -0.00218806 -0.00227157 -0.00237894 -0.00251017 -0.00266526 -0.00284421 -0.00303904 -0.00324178 -0.00345243 -0.00367099 -0.00389745 -0.00413182 -0.0043741 -0.00462429 -0.00487169 -0.00510559 -0.005326 -0.00553292 -0.00572634 -0.00590627 -0.00607271 -0.00622566 -0.00635816 -0.00646326 -0.00654096 -0.00659126 -0.00661416 -0.00660966 -0.00657776 -0.00651845 -0.00643234 -0.00631998 -0.00618139 -0.00601657 -0.00582551 -0.00560821 -0.00536468 -0.00509491 -0.00480827 -0.00451411 -0.00421243 -0.00390324 -0.00358652 -0.00326229 -0.00293054 -0.00259127 -0.00226016 -0.00195288 -0.00166943 -0.0014098 -0.001174 -0.000962035 -0.000773896 -0.000609585 -0.000466714 -0.000342892 -0.000238119 -0.000152396 -8.57229e-05 -3.80991e-05 -9.52477e-06 0 0 -1.135e-05 -4.54e-05 -0.00010215 -0.0001816 -0.00028375 -0.0004086 -0.00055615 -0.0007264 -0.000921539 -0.00114376 -0.00139305 -0.00166942 -0.00197287 -0.0023034 -0.00266101 -0.0030457 -0.00343851 -0.00382051 -0.00419168 -0.00455204 -0.00490158 -0.0052403 -0.0055682 -0.00588528 -0.0061803 -0.00644202 -0.00667043 -0.00686555 -0.00702736 -0.00715586 -0.00725106 -0.00731297 -0.00734113 -0.00733511 -0.00729493 -0.00722056 -0.00711203 -0.00696931 -0.00679243 -0.00658136 -0.00634525 -0.00609323 -0.00582528 -0.00554142 -0.00524163 -0.00492593 -0.00459431 -0.00424677 -0.00389721 -0.00355954 -0.00323375 -0.00291984 -0.00261781 -0.00232767 -0.00204941 -0.00178303 -0.00153887 -0.00132727 -0.00114822 -0.00100172 -0.000887782 -0.000806395 -0.000757563 -0.000741286 -0.000757563 -0.000806395 -0.000887781 -0.00100172 -0.00114822 -0.00132727 -0.00153887 -0.00178303 -0.00204941 -0.00232767 -0.00261781 -0.00291984 -0.00323375 -0.00355954 -0.00389721 -0.00424677 -0.00459431 -0.00492593 -0.00524163 -0.00554142 -0.00582528 -0.00609323 -0.00634525 -0.00658136 -0.00679243 -0.00696931 -0.00711203 -0.00722056 -0.00729493 -0.00733511 -0.00734113 -0.00731297 -0.00725107 -0.00715586 -0.00702736 -0.00686555 -0.00667043 -0.00644202 -0.0061803 -0.00588528 -0.0055682 -0.0052403 -0.00490158 -0.00455204 -0.00419168 -0.00382051 -0.00343851 -0.0030457 -0.00266101 -0.00230341 -0.00197288 -0.00166943 -0.00139305 -0.00114376 -0.00092154 -0.000726401 -0.000556151 -0.000408601 -0.00028375 -0.0001816 -0.00010215 -4.54001e-05 -1.135e-05 0 0 -1.33566e-05 -5.34263e-05 -0.000120209 -0.000213705 -0.000333914 -0.000480837 -0.000654472 -0.000854821 -0.00108373 -0.00134304 -0.00163276 -0.00195288 -0.0023034 -0.00268433 -0.00309567 -0.00353741 -0.00398695 -0.0044217 -0.00484166 -0.00524681 -0.00563718 -0.00601275 -0.00637352 -0.0067195 -0.00703736 -0.00731376 -0.00754872 -0.00774221 -0.00789426 -0.00800485 -0.00807399 -0.00810168 -0.00808769 -0.00803179 -0.00793398 -0.00779427 -0.00761265 -0.00738912 -0.00712369 -0.00681635 -0.00647878 -0.00612266 -0.00574798 -0.00535474 -0.00494295 -0.0045126 -0.00406369 -0.00359623 -0.00312785 -0.00267618 -0.00224122 -0.00182297 -0.00142143 -0.00103661 -0.000668489 -0.000317082 4.52787e-06 0.000283257 0.000519104 0.00071207 0.000862155 0.000969358 0.00103368 0.00105512 0.00103368 0.000969359 0.000862155 0.00071207 0.000519104 0.000283257 4.5281e-06 -0.000317082 -0.000668488 -0.00103661 -0.00142143 -0.00182297 -0.00224122 -0.00267618 -0.00312785 -0.00359623 -0.00406369 -0.0045126 -0.00494295 -0.00535474 -0.00574797 -0.00612266 -0.00647878 -0.00681635 -0.00712369 -0.00738912 -0.00761265 -0.00779427 -0.00793398 -0.00803179 -0.00808769 -0.00810168 -0.00807399 -0.00800485 -0.00789426 -0.00774221 -0.00754872 -0.00731377 -0.00703736 -0.00671951 -0.00637353 -0.00601275 -0.00563718 -0.00524682 -0.00484166 -0.0044217 -0.00398695 -0.00353741 -0.00309567 -0.00268434 -0.00230341 -0.00195288 -0.00163276 -0.00134304 -0.00108373 -0.000854822 -0.000654473 -0.000480837 -0.000333915 -0.000213705 -0.000120209 -5.34264e-05 -1.33566e-05 0 0 -1.55445e-05 -6.21779e-05 -0.0001399 -0.000248712 -0.000388612 -0.000559601 -0.00076168 -0.000994847 -0.00126046 -0.00155989 -0.00189312 -0.00226016 -0.00266101 -0.00309567 -0.00356413 -0.00406641 -0.00457587 -0.00506588 -0.00553644 -0.00598756 -0.00641924 -0.00683147 -0.00722425 -0.00759759 -0.00793586 -0.00822345 -0.00846035 -0.00864657 -0.0087821 -0.00886695 -0.00890111 -0.00888459 -0.00881743 -0.00869967 -0.00853132 -0.00831237 -0.00804283 -0.00772269 -0.00735195 -0.00693062 -0.0064733 -0.00599456 -0.00549443 -0.00497288 -0.00442994 -0.00386559 -0.00327984 -0.00267268 -0.00206602 -0.00148175 -0.000919871 -0.000380385 0.000136709 0.000631411 0.00110372 0.00155364 0.00196494 0.0023214 0.00262302 0.00286981 0.00306175 0.00319885 0.00328111 0.00330853 0.00328111 0.00319885 0.00306175 0.00286981 0.00262302 0.0023214 0.00196494 0.00155364 0.00110372 0.000631412 0.00013671 -0.000380385 -0.000919871 -0.00148175 -0.00206602 -0.00267268 -0.00327984 -0.00386559 -0.00442994 -0.00497288 -0.00549443 -0.00599456 -0.0064733 -0.00693062 -0.00735195 -0.00772269 -0.00804283 -0.00831237 -0.00853132 -0.00869967 -0.00881743 -0.00888459 -0.00890111 -0.00886695 -0.0087821 -0.00864657 -0.00846035 -0.00822345 -0.00793586 -0.00759759 -0.00722425 -0.00683147 -0.00641924 -0.00598756 -0.00553644 -0.00506588 -0.00457587 -0.00406641 -0.00356414 -0.00309567 -0.00266101 -0.00226016 -0.00189312 -0.00155989 -0.00126046 -0.000994848 -0.00076168 -0.000559602 -0.000388612 -0.000248712 -0.0001399 -6.2178e-05 -1.55445e-05 0 0 -1.79137e-05 -7.16549e-05 -0.000161223 -0.000286619 -0.000447843 -0.000644894 -0.000877772 -0.00114648 -0.00145174 -0.0017943 -0.00217414 -0.00259127 -0.0030457 -0.00353741 -0.00406641 -0.0046327 -0.00520525 -0.00575303 -0.00627604 -0.00677428 -0.00724775 -0.00769645 -0.00812037 -0.00851953 -0.0088758 -0.00917107 -0.00940534 -0.00957861 -0.00969089 -0.00974216 -0.00973243 -0.00966171 -0.00953036 -0.00933877 -0.00908694 -0.00877487 -0.00840256 -0.00797001 -0.00747722 -0.00692418 -0.0063288 -0.00570895 -0.00506463 -0.00439586 -0.00370262 -0.00298491 -0.00224274 -0.00147611 -0.000711715 2.37572e-05 0.000730303 0.00140792 0.00205661 0.00267638 0.00326722 0.00382913 0.00434237 0.00478717 0.00516354 0.00547148 0.00571099 0.00588207 0.00598472 0.00601893 0.00598472 0.00588207 0.00571099 0.00547148 0.00516354 0.00478717 0.00434237 0.00382913 0.00326722 0.00267638 0.00205662 0.00140792 0.000730303 2.37577e-05 -0.000711715 -0.00147611 -0.00224274 -0.00298491 -0.00370261 -0.00439585 -0.00506463 -0.00570895 -0.0063288 -0.00692418 -0.00747722 -0.00797001 -0.00840256 -0.00877487 -0.00908694 -0.00933877 -0.00953036 -0.00966171 -0.00973243 -0.00974216 -0.00969089 -0.00957861 -0.00940534 -0.00917107 -0.0088758 -0.00851953 -0.00812037 -0.00769645 -0.00724775 -0.00677428 -0.00627604 -0.00575304 -0.00520525 -0.0046327 -0.00406641 -0.00353741 -0.0030457 -0.00259127 -0.00217414 -0.0017943 -0.00145174 -0.00114648 -0.000877773 -0.000644894 -0.000447843 -0.00028662 -0.000161224 -7.16549e-05 -1.79137e-05 0 0 -2.03653e-05 -8.14613e-05 -0.000183288 -0.000325845 -0.000509133 -0.000733152 -0.000997901 -0.00130338 -0.00164946 -0.00203602 -0.00246304 -0.00293054 -0.00343851 -0.00398695 -0.00457587 -0.00520525 -0.00583926 -0.00644204 -0.00701359 -0.00755392 -0.00806301 -0.00854088 -0.00898752 -0.00940294 -0.00976629 -0.0100567 -0.0102743 -0.010419 -0.0104908 -0.0104896 -0.0104156 -0.0102687 -0.0100498 -0.00975967 -0.00939839 -0.00896595 -0.00846233 -0.00788754 -0.00724159 -0.00652446 -0.00575795 -0.00496383 -0.00414212 -0.0032928 -0.00241589 -0.00151137 -0.000579247 0.000380475 0.0013355 0.00225352 0.00313454 0.00397856 0.00478558 0.0055556 0.00628862 0.00698464 0.00761981 0.0081703 0.00863609 0.0090172 0.00931361 0.00952534 0.00965237 0.00969472 0.00965237 0.00952534 0.00931361 0.0090172 0.00863609 0.0081703 0.00761981 0.00698464 0.00628862 0.0055556 0.00478558 0.00397856 0.00313454 0.00225352 0.0013355 0.000380475 -0.000579246 -0.00151137 -0.00241589 -0.0032928 -0.00414212 -0.00496383 -0.00575795 -0.00652446 -0.00724159 -0.00788754 -0.00846233 -0.00896595 -0.00939839 -0.00975967 -0.0100498 -0.0102687 -0.0104156 -0.0104896 -0.0104908 -0.010419 -0.0102743 -0.0100567 -0.00976629 -0.00940294 -0.00898753 -0.00854089 -0.00806302 -0.00755392 -0.0070136 -0.00644204 -0.00583926 -0.00520525 -0.00457587 -0.00398695 -0.00343851 -0.00293054 -0.00246304 -0.00203602 -0.00164946 -0.00130338 -0.000997902 -0.000733153 -0.000509134 -0.000325846 -0.000183288 -8.14614e-05 -2.03653e-05 0 0 -2.28004e-05 -9.12015e-05 -0.000205203 -0.000364806 -0.00057001 -0.000820814 -0.00111722 -0.00145922 -0.00184552 -0.0022748 -0.00274705 -0.00326229 -0.0038205 -0.0044217 -0.00506588 -0.00575303 -0.00644204 -0.00709178 -0.00770223 -0.00827342 -0.00880533 -0.00929797 -0.00975133 -0.0101654 -0.0105164 -0.0107806 -0.0109579 -0.0110483 -0.0110518 -0.0109685 -0.0107984 -0.0105413 -0.010199 -0.00977295 -0.00926321 -0.00866976 -0.0079926 -0.00723174 -0.00638717 -0.00545889 -0.00447342 -0.00345726 -0.00241041 -0.00133288 -0.000224668 0.000914232 0.00208382 0.00328409 0.00447605 0.00562071 0.00671808 0.00776814 0.00877091 0.00972637 0.0106345 0.0114954 0.0122803 0.0129605 0.0135361 0.014007 0.0143733 0.014635 0.0147919 0.0148443 0.0147919 0.014635 0.0143733 0.014007 0.0135361 0.0129605 0.0122803 0.0114954 0.0106345 0.00972637 0.00877091 0.00776814 0.00671808 0.00562071 0.00447605 0.00328409 0.00208382 0.000914233 -0.000224667 -0.00133288 -0.00241041 -0.00345726 -0.00447342 -0.00545889 -0.00638717 -0.00723174 -0.0079926 -0.00866976 -0.00926321 -0.00977296 -0.010199 -0.0105413 -0.0107984 -0.0109685 -0.0110519 -0.0110483 -0.0109579 -0.0107806 -0.0105164 -0.0101654 -0.00975133 -0.00929797 -0.00880533 -0.00827342 -0.00770224 -0.00709178 -0.00644204 -0.00575304 -0.00506588 -0.0044217 -0.00382051 -0.00326229 -0.00274705 -0.0022748 -0.00184552 -0.00145923 -0.00111722 -0.000820815 -0.00057001 -0.000364806 -0.000205204 -9.12016e-05 -2.28004e-05 0 0 -2.52189e-05 -0.000100875 -0.00022697 -0.000403502 -0.000630472 -0.000907879 -0.00123572 -0.00161401 -0.00203992 -0.00251064 -0.00302617 -0.00358652 -0.00419168 -0.00484165 -0.00553644 -0.00627604 -0.00701359 -0.00770223 -0.00834197 -0.00893279 -0.0094747 -0.0099677 -0.0104118 -0.010807 -0.0111262 -0.0113426 -0.011456 -0.0114666 -0.0113742 -0.0111789 -0.0108806 -0.0104795 -0.00997799 -0.00937862 -0.0086814 -0.00788632 -0.00699339 -0.0060026 -0.00491397 -0.00372748 -0.0024752 -0.00118921 0.00013049 0.00148391 0.00287104 0.00429189 0.00574645 0.00723473 0.00870995 0.0101253 0.0114809 0.0127767 0.0140126 0.0151887 0.016305 0.0173614 0.0183238 0.0191579 0.0198636 0.020441 0.0208901 0.0212109 0.0214034 0.0214676 0.0214034 0.0212109 0.0208901 0.020441 0.0198636 0.0191579 0.0183238 0.0173614 0.016305 0.0151887 0.0140126 0.0127767 0.0114809 0.0101253 0.00870995 0.00723473 0.00574645 0.00429189 0.00287104 0.00148391 0.00013049 -0.00118921 -0.0024752 -0.00372748 -0.00491397 -0.0060026 -0.00699339 -0.00788632 -0.0086814 -0.00937862 -0.00997799 -0.0104795 -0.0108806 -0.0111789 -0.0113742 -0.0114666 -0.011456 -0.0113426 -0.0111262 -0.010807 -0.0104118 -0.0099677 -0.0094747 -0.00893279 -0.00834197 -0.00770224 -0.0070136 -0.00627605 -0.00553644 -0.00484166 -0.00419168 -0.00358652 -0.00302617 -0.00251064 -0.00203992 -0.00161401 -0.00123573 -0.00090788 -0.000630472 -0.000403502 -0.00022697 -0.000100876 -2.52189e-05 0 0 -2.76208e-05 -0.000110483 -0.000248587 -0.000441933 -0.00069052 -0.000994349 -0.00135342 -0.00176773 -0.00223265 -0.00274354 -0.0033004 -0.00390323 -0.00455204 -0.00524681 -0.00598756 -0.00677428 