<?xml version="1.0"?> 
<VTKFile type="StructuredGrid" version="0.1"> 
<StructuredGrid WholeExtent="0 128 0 128 0 0"> 
<Piece Extent="0 128 0 128 0 0"> 
<PointData>
<DataArray type="Float32" Name="u" format="ascii" NumberOfComponents="1"> 
0 0 0 0 0 0 0 0 0 0 0 0 0 0 0 0 0 0 0 0 0 0 0 0 0 0 0 0 0 0 0 0 0 0 0 0 0 0 0 0 0 0 0 0 0 0 0 0 0 0 0 0 0 0 0 0 0 0 0 0 0 0 0 0 0 0 0 0 0 0 0 0 0 0 0 0 0 0 0 0 0 0 0 0 0 0 0 0 0 0 0 0 0 0 0 0 0 0 0 0 0 0 0 0 0 0 0 0 0 0 0 0 0 0 0 0 0 0 0 0 0 0 0 0 0 0 0 0 0 0 -5.91107e-08 -2.36443e-07 -5.31996e-07 -9.45771e-07 -1.47777e-06 -2.12799e-06 -2.89642e-06 -3.78308e-06 -4.82478e-06 -6.05832e-06 -7.48372e-06 -9.10096e-06 -1.091e-05 -1.2911e-05 -1.51038e-05 -1.74884e-05 -1.99818e-05 -2.2501e-05 -2.50458e-05 -2.76164e-05 -3.02127e-05 -3.28348e-05 -3.54825e-05 -3.8156e-05 -4.08067e-05 -4.3386e-05 -4.58941e-05 -4.83308e-05 -5.06962e-05 -5.29903e-05 -5.5213e-05 -5.73645e-05 -5.94389e-05 -6.14308e-05 -6.334e-05 -6.51665e-05 -6.69104e-05 -6.85717e-05 -7.01504e-05 -7.16464e-05 -7.30692e-05 -7.44282e-05 -7.57233e-05 -7.69547e-05 -7.81223e-05 -7.9226e-05 -8.0266e-05 -8.12421e-05 -8.21584e-05 -8.30186e-05 -8.38229e-05 -8.45711e-05 -8.52634e-05 -8.58996e-05 -8.64799e-05 -8.70041e-05 -8.74694e-05 -8.78726e-05 -8.82138e-05 -8.84929e-05 -8.871e-05 -8.88651e-05 -8.89582e-05 -8.89892e-05 -8.89582e-05 -8.88651e-05 -8.871e-05 -8.84929e-05 -8.82138e-05 -8.78726e-05 -8.74694e-05 -8.70041e-05 -8.64799e-05 -8.58996e-05 -8.52634e-05 -8.45711e-05 -8.38229e-05 -8.30186e-05 -8.21584e-05 -8.12421e-05 -8.0266e-05 -7.9226e-05 -7.81223e-05 -7.69547e-05 -7.57233e-05 -7.44282e-05 -7.30692e-05 -7.16464e-05 -7.01504e-05 -6.85717e-05 -6.69104e-05 -6.51665e-05 -6.334e-05 -6.14308e-05 -5.94389e-05 -5.73645e-05 -5.5213e-05 -5.29903e-05 -5.06962e-05 -4.83308e-05 -4.58941e-05 -4.33861e-05 -4.08067e-05 -3.8156e-05 -3.54825e-05 -3.28348e-05 -3.02127e-05 -2.76164e-05 -2.50458e-05 -2.2501e-05 -1.99818e-05 -1.74884e-05 -1.51038e-05 -1.2911e-05 -1.09101e-05 -9.10096e-06 -7.48372e-06 -6.05833e-06 -4.82478e-06 -3.78309e-06 -2.89643e-06 -2.12799e-06 -1.47777e-06 -9.45772e-07 -5.31997e-07 -2.36443e-07 -5.91108e-08 0 0 -2.36443e-07 -9.45771e-07 -2.12799e-06 -3.78308e-06 -5.91107e-06 -8.51194e-06 -1.15857e-05 -1.51323e-05 -1.92991e-05 -2.42333e-05 -2.99349e-05 -3.64038e-05 -4.36402e-05 -5.16439e-05 -6.04151e-05 -6.99536e-05 -7.99273e-05 -9.00039e-05 -0.000100183 -0.000110466 -0.000120851 -0.000131339 -0.00014193 -0.000152624 -0.000163227 -0.000173544 -0.000183576 -0.000193323 -0.000202785 -0.000211961 -0.000220852 -0.000229458 -0.000237756 -0.000245723 -0.00025336 -0.000260666 -0.000267642 -0.000274287 -0.000280601 -0.000286586 -0.000292277 -0.000297713 -0.000302893 -0.000307819 -0.000312489 -0.000316904 -0.000321064 -0.000324969 -0.000328634 -0.000332074 -0.000335291 -0.000338284 -0.000341053 -0.000343599 -0.00034592 -0.000348017 -0.000349878 -0.00035149 -0.000352855 -0.000353972 -0.00035484 -0.00035546 -0.000355833 -0.000355957 -0.000355833 -0.00035546 -0.00035484 -0.000353972 -0.000352855 -0.00035149 -0.000349878 -0.000348017 -0.00034592 -0.000343599 -0.000341053 -0.000338284 -0.000335291 -0.000332074 -0.000328633 -0.000324969 -0.000321064 -0.000316904 -0.000312489 -0.000307819 -0.000302893 -0.000297713 -0.000292277 -0.000286585 -0.000280601 -0.000274287 -0.000267642 -0.000260666 -0.00025336 -0.000245723 -0.000237756 -0.000229458 -0.000220852 -0.000211961 -0.000202785 -0.000193323 -0.000183576 -0.000173544 -0.000163227 -0.000152624 -0.00014193 -0.000131339 -0.000120851 -0.000110466 -0.000100183 -9.00039e-05 -7.99274e-05 -6.99537e-05 -6.04151e-05 -5.1644e-05 -4.36402e-05 -3.64039e-05 -2.99349e-05 -2.42333e-05 -1.92991e-05 -1.51324e-05 -1.15857e-05 -8.51195e-06 -5.91108e-06 -3.78309e-06 -2.12799e-06 -9.45772e-07 -2.36443e-07 0 0 -5.31996e-07 -2.12799e-06 -4.78797e-06 -8.51194e-06 -1.32999e-05 -1.91519e-05 -2.60678e-05 -3.40478e-05 -4.3423e-05 -5.45249e-05 -6.73535e-05 -8.19086e-05 -9.81904e-05 -0.000116199 -0.000135934 -0.000157396 -0.000179836 -0.000202509 -0.000225413 -0.000248548 -0.000271915 -0.000295513 -0.000319343 -0.000343404 -0.00036726 -0.000390474 -0.000413047 -0.000434977 -0.000456266 -0.000476913 -0.000496917 -0.00051628 -0.00053495 -0.000552877 -0.00057006 -0.000586499 -0.000602194 -0.000617145 -0.000631353 -0.000644817 -0.000657623 -0.000669853 -0.00068151 -0.000692592 -0.0007031 -0.000713034 -0.000722394 -0.000731179 -0.000739425 -0.000747168 -0.000754406 -0.00076114 -0.00076737 -0.000773097 -0.000778319 -0.000783037 -0.000787224 -0.000790853 -0.000793924 -0.000796436 -0.00079839 -0.000799786 -0.000800624 -0.000800903 -0.000800624 -0.000799786 -0.00079839 -0.000796436 -0.000793924 -0.000790853 -0.000787224 -0.000783037 -0.000778319 -0.000773097 -0.00076737 -0.00076114 -0.000754406 -0.000747168 -0.000739425 -0.000731179 -0.000722394 -0.000713034 -0.0007031 -0.000692592 -0.00068151 -0.000669853 -0.000657622 -0.000644817 -0.000631353 -0.000617145 -0.000602194 -0.000586499 -0.00057006 -0.000552877 -0.00053495 -0.00051628 -0.000496917 -0.000476913 -0.000456266 -0.000434977 -0.000413047 -0.000390474 -0.00036726 -0.000343404 -0.000319343 -0.000295513 -0.000271915 -0.000248548 -0.000225413 -0.000202509 -0.000179837 -0.000157396 -0.000135934 -0.000116199 -9.81905e-05 -8.19087e-05 -6.73535e-05 -5.4525e-05 -4.34231e-05 -3.40478e-05 -2.60678e-05 -1.91519e-05 -1.32999e-05 -8.51195e-06 -4.78797e-06 -2.12799e-06 -5.31997e-07 0 0 -9.45771e-07 -3.78308e-06 -8.51194e-06 -1.51323e-05 -2.36443e-05 -3.40478e-05 -4.63428e-05 -6.05294e-05 -7.71965e-05 -9.69332e-05 -0.000119739 -0.000145615 -0.000174561 -0.000206576 -0.00024166 -0.000279815 -0.000319709 -0.000360016 -0.000400733 -0.000441863 -0.000483404 -0.000525356 -0.00056772 -0.000610496 -0.000652907 -0.000694177 -0.000734305 -0.000773293 -0.000811139 -0.000847845 -0.000883409 -0.000917832 -0.000951023 -0.000982892 -0.00101344 -0.00104266 -0.00107057 -0.00109715 -0.00112241 -0.00114634 -0.00116911 -0.00119085 -0.00121157 -0.00123128 -0.00124996 -0.00126762 -0.00128426 -0.00129987 -0.00131453 -0.0013283 -0.00134117 -0.00135314 -0.00136421 -0.00137439 -0.00138368 -0.00139207 -0.00139951 -0.00140596 -0.00141142 -0.00141589 -0.00141936 -0.00142184 -0.00142333 -0.00142383 -0.00142333 -0.00142184 -0.00141936 -0.00141589 -0.00141142 -0.00140596 -0.00139951 -0.00139207 -0.00138368 -0.00137439 -0.00136421 -0.00135314 -0.00134117 -0.0013283 -0.00131453 -0.00129987 -0.00128426 -0.00126762 -0.00124996 -0.00123128 -0.00121157 -0.00119085 -0.00116911 -0.00114634 -0.00112241 -0.00109715 -0.00107057 -0.00104266 -0.00101344 -0.000982892 -0.000951023 -0.000917832 -0.000883409 -0.000847845 -0.000811139 -0.000773293 -0.000734305 -0.000694177 -0.000652907 -0.000610496 -0.000567721 -0.000525356 -0.000483404 -0.000441863 -0.000400734 -0.000360016 -0.000319709 -0.000279815 -0.00024166 -0.000206576 -0.000174561 -0.000145615 -0.00011974 -9.69333e-05 -7.71966e-05 -6.05294e-05 -4.63428e-05 -3.40478e-05 -2.36443e-05 -1.51324e-05 -8.51195e-06 -3.78309e-06 -9.45772e-07 0 0 -1.47777e-06 -5.91107e-06 -1.32999e-05 -2.36443e-05 -3.69442e-05 -5.31996e-05 -7.24106e-05 -9.45771e-05 -0.00012062 -0.000151458 -0.000187093 -0.000227524 -0.000272751 -0.000322775 -0.000377594 -0.00043721 -0.000499546 -0.000562524 -0.000626146 -0.000690411 -0.000755318 -0.000820869 -0.000887063 -0.0009539 -0.00102017 -0.00108465 -0.00114735 -0.00120827 -0.00126741 -0.00132476 -0.00138033 -0.00143411 -0.00148597 -0.00153577 -0.0015835 -0.00162916 -0.00167276 -0.00171429 -0.00175376 -0.00179116 -0.00182673 -0.0018607 -0.00189308 -0.00192387 -0.00195306 -0.00198065 -0.00200665 -0.00203105 -0.00205396 -0.00207547 -0.00209557 -0.00211428 -0.00213158 -0.00214749 -0.002162 -0.0021751 -0.00218673 -0.00219681 -0.00220534 -0.00221232 -0.00221775 -0.00222163 -0.00222395 -0.00222473 -0.00222395 -0.00222163 -0.00221775 -0.00221232 -0.00220534 -0.00219681 -0.00218673 -0.0021751 -0.002162 -0.00214749 -0.00213158 -0.00211428 -0.00209557 -0.00207547 -0.00205396 -0.00203105 -0.00200665 -0.00198065 -0.00195306 -0.00192387 -0.00189308 -0.0018607 -0.00182673 -0.00179116 -0.00175376 -0.00171429 -0.00167276 -0.00162916 -0.0015835 -0.00153577 -0.00148597 -0.00143411 -0.00138033 -0.00132476 -0.00126741 -0.00120827 -0.00114735 -0.00108465 -0.00102017 -0.0009539 -0.000887063 -0.000820869 -0.000755319 -0.000690411 -0.000626146 -0.000562525 -0.000499546 -0.00043721 -0.000377595 -0.000322775 -0.000272751 -0.000227524 -0.000187093 -0.000151458 -0.00012062 -9.45772e-05 -7.24107e-05 -5.31997e-05 -3.69442e-05 -2.36443e-05 -1.32999e-05 -5.91108e-06 -1.47777e-06 0 0 -2.12799e-06 -8.51194e-06 -1.91519e-05 -3.40478e-05 -5.31996e-05 -7.66075e-05 -0.000104271 -0.000136191 -0.000173692 -0.0002181 -0.000269414 -0.000327634 -0.000392762 -0.000464796 -0.000543736 -0.000629583 -0.000719346 -0.000810035 -0.00090165 -0.000994191 -0.00108766 -0.00118205 -0.00127737 -0.00137362 -0.00146904 -0.0015619 -0.00165219 -0.00173991 -0.00182506 -0.00190765 -0.00198767 -0.00206512 -0.0021398 -0.00221151 -0.00228024 -0.00234599 -0.00240878 -0.00246858 -0.00252541 -0.00257927 -0.00263049 -0.00267941 -0.00272604 -0.00277037 -0.0028124 -0.00285214 -0.00288958 -0.00292472 -0.0029577 -0.00298867 -0.00301762 -0.00304456 -0.00306948 -0.00309239 -0.00311328 -0.00313215 -0.0031489 -0.00316341 -0.0031757 -0.00318575 -0.00319356 -0.00319914 -0.00320249 -0.00320361 -0.00320249 -0.00319914 -0.00319356 -0.00318575 -0.0031757 -0.00316341 -0.0031489 -0.00313215 -0.00311328 -0.00309239 -0.00306948 -0.00304456 -0.00301762 -0.00298867 -0.0029577 -0.00292472 -0.00288958 -0.00285214 -0.0028124 -0.00277037 -0.00272604 -0.00267941 -0.00263049 -0.00257927 -0.00252541 -0.00246858 -0.00240878 -0.00234599 -0.00228024 -0.00221151 -0.0021398 -0.00206512 -0.00198767 -0.00190765 -0.00182506 -0.00173991 -0.00165219 -0.0015619 -0.00146904 -0.00137362 -0.00127737 -0.00118205 -0.00108766 -0.000994192 -0.000901651 -0.000810035 -0.000719346 -0.000629583 -0.000543736 -0.000464796 -0.000392762 -0.000327635 -0.000269414 -0.0002181 -0.000173692 -0.000136191 -0.000104271 -7.66075e-05 -5.31997e-05 -3.40478e-05 -1.91519e-05 -8.51195e-06 -2.12799e-06 0 0 -2.89642e-06 -1.15857e-05 -2.60678e-05 -4.63428e-05 -7.24106e-05 -0.000104271 -0.000141925 -0.000185371 -0.000236414 -0.000296858 -0.000366702 -0.000445947 -0.000534592 -0.000632638 -0.000740085 -0.000856932 -0.00097911 -0.00110255 -0.00122725 -0.00135321 -0.00148042 -0.0016089 -0.00173864 -0.00186964 -0.00199953 -0.00212592 -0.00224881 -0.00236821 -0.00248411 -0.00259652 -0.00270544 -0.00281086 -0.00291251 -0.00301011 -0.00310366 -0.00319316 -0.00327861 -0.00336001 -0.00343737 -0.00351067 -0.00358039 -0.00364698 -0.00371044 -0.00377078 -0.00382799 -0.00388208 -0.00393303 -0.00398086 -0.00402576 -0.00406791 -0.00410732 -0.00414398 -0.00417791 -0.00420908 -0.00423751 -0.0042632 -0.004286 -0.00430576 -0.00432248 -0.00433615 -0.00434679 -0.00435439 -0.00435895 -0.00436047 -0.00435895 -0.00435439 -0.00434679 -0.00433615 -0.00432248 -0.00430576 -0.004286 -0.0042632 -0.00423751 -0.00420908 -0.00417791 -0.00414398 -0.00410732 -0.00406791 -0.00402576 -0.00398086 -0.00393303 -0.00388208 -0.00382799 -0.00377078 -0.00371044 -0.00364698 -0.00358039 -0.00351067 -0.00343737 -0.00336001 -0.00327861 -0.00319316 -0.00310366 -0.00301011 -0.00291251 -0.00281086 -0.00270544 -0.00259652 -0.00248411 -0.00236821 -0.00224881 -0.00212592 -0.00199953 -0.00186964 -0.00173864 -0.0016089 -0.00148042 -0.00135321 -0.00122725 -0.00110255 -0.00097911 -0.000856932 -0.000740085 -0.000632639 -0.000534593 -0.000445947 -0.000366702 -0.000296858 -0.000236414 -0.000185371 -0.000141925 -0.000104271 -7.24107e-05 -4.63428e-05 -2.60678e-05 -1.15857e-05 -2.89643e-06 0 0 -3.78308e-06 -1.51323e-05 -3.40478e-05 -6.05294e-05 -9.45771e-05 -0.000136191 -0.000185371 -0.000242117 -0.000308786 -0.000387733 -0.000478958 -0.000582461 -0.000698243 -0.000826303 -0.000966642 -0.00111926 -0.00127884 -0.00144006 -0.00160293 -0.00176745 -0.00193362 -0.00210143 -0.00227088 -0.00244198 -0.00261163 -0.00277671 -0.00293722 -0.00309317 -0.00324456 -0.00339138 -0.00353363 -0.00367133 -0.00380409 -0.00393157 -0.00405376 -0.00417066 -0.00428227 -0.00438859 -0.00448962 -0.00458537 -0.00467643 -0.0047634 -0.00484629 -0.0049251 -0.00499983 -0.00507047 -0.00513702 -0.0051995 -0.00525814 -0.00531319 -0.00536466 -0.00541255 -0.00545686 -0.00549758 -0.00553471 -0.00556827 -0.00559804 -0.00562385 -0.00564568 -0.00566355 -0.00567744 -0.00568737 -0.00569332 -0.00569531 -0.00569332 -0.00568737 -0.00567744 -0.00566355 -0.00564568 -0.00562385 -0.00559804 -0.00556827 -0.00553471 -0.00549758 -0.00545686 -0.00541255 -0.00536466 -0.00531319 -0.00525814 -0.0051995 -0.00513702 -0.00507047 -0.00499983 -0.0049251 -0.00484629 -0.0047634 -0.00467643 -0.00458537 -0.00448962 -0.00438859 -0.00428227 -0.00417066 -0.00405376 -0.00393157 -0.00380409 -0.00367133 -0.00353363 -0.00339138 -0.00324456 -0.00309317 -0.00293722 -0.00277671 -0.00261163 -0.00244198 -0.00227088 -0.00210143 -0.00193362 -0.00176745 -0.00160293 -0.00144006 -0.00127884 -0.00111926 -0.000966642 -0.000826304 -0.000698244 -0.000582462 -0.000478958 -0.000387733 -0.000308786 -0.000242118 -0.000185371 -0.000136191 -9.45772e-05 -6.05294e-05 -3.40478e-05 -1.51324e-05 -3.78309e-06 0 0 -4.82478e-06 -1.92991e-05 -4.3423e-05 -7.71965e-05 -0.00012062 -0.000173692 -0.000236414 -0.000308786 -0.000393682 -0.000493978 -0.000609673 -0.000740767 -0.000887261 -0.00104915 -0.00122645 -0.00141914 -0.00162039 -0.00182336 -0.00202804 -0.00223445 -0.00244257 -0.00265241 -0.00286397 -0.00307725 -0.00328827 -0.00349305 -0.0036916 -0.00388391 -0.00406999 -0.00424983 -0.00442343 -0.0045908 -0.00475153 -0.00490522 -0.00505186 -0.00519145 -0.005324 -0.0054495 -0.00556795 -0.00567936 -0.00578466 -0.0058848 -0.00597976 -0.00606956 -0.00615419 -0.00623365 -0.00630795 -0.00637707 -0.00644157 -0.006502 -0.00655835 -0.00661063 -0.00665883 -0.00670296 -0.00674301 -0.00677898 -0.0068108 -0.00683837 -0.0068617 -0.00688079 -0.00689564 -0.00690625 -0.00691261 -0.00691473 -0.00691261 -0.00690625 -0.00689564 -0.00688079 -0.0068617 -0.00683837 -0.0068108 -0.00677898 -0.00674301 -0.00670296 -0.00665883 -0.00661063 -0.00655835 -0.006502 -0.00644157 -0.00637707 -0.00630795 -0.00623365 -0.00615419 -0.00606956 -0.00597976 -0.0058848 -0.00578466 -0.00567936 -0.00556795 -0.0054495 -0.005324 -0.00519145 -0.00505186 -0.00490522 -0.00475153 -0.0045908 -0.00442343 -0.00424983 -0.00406999 -0.00388391 -0.0036916 -0.00349305 -0.00328827 -0.00307725 -0.00286397 -0.00265241 -0.00244257 -0.00223445 -0.00202805 -0.00182336 -0.00162039 -0.00141914 -0.00122645 -0.00104915 -0.000887261 -0.000740768 -0.000609673 -0.000493978 -0.000393682 -0.000308786 -0.000236414 -0.000173692 -0.00012062 -7.71966e-05 -4.34231e-05 -1.92991e-05 -4.82478e-06 0 0 -6.05832e-06 -2.42333e-05 -5.45249e-05 -9.69332e-05 -0.000151458 -0.0002181 -0.000296858 -0.000387733 -0.000493978 -0.000618846 -0.000762338 -0.000924454 -0.00110519 -0.00130455 -0.00152254 -0.00175915 -0.00200563 -0.00225321 -0.00250191 -0.00275172 -0.00300264 -0.00325467 -0.0035078 -0.00376205 -0.00401238 -0.00425373 -0.00448612 -0.00470954 -0.004924 -0.00512949 -0.00532602 -0.00551358 -0.00569181 -0.00586038 -0.00601928 -0.0061685 -0.00630805 -0.00643792 -0.00655813 -0.00666866 -0.00677116 -0.00686729 -0.00695703 -0.00704039 -0.00711738 -0.00718798 -0.0072522 -0.00731005 -0.00736282 -0.00741184 -0.00745709 -0.00749859 -0.00753633 -0.00757031 -0.00760054 -0.007627 -0.00765005 -0.00767002 -0.00768693 -0.00770076 -0.00771151 -0.0077192 -0.00772381 -0.00772534 -0.00772381 -0.0077192 -0.00771151 -0.00770076 -0.00768693 -0.00767002 -0.00765005 -0.007627 -0.00760054 -0.00757031 -0.00753633 -0.00749859 -0.00745709 -0.00741184 -0.00736282 -0.00731005 -0.0072522 -0.00718798 -0.00711738 -0.00704039 -0.00695703 -0.00686729 -0.00677116 -0.00666866 -0.00655813 -0.00643792 -0.00630805 -0.0061685 -0.00601928 -0.00586038 -0.00569181 -0.00551358 -0.00532602 -0.00512949 -0.004924 -0.00470954 -0.00448612 -0.00425373 -0.00401238 -0.00376205 -0.0035078 -0.00325467 -0.00300264 -0.00275172 -0.00250191 -0.00225321 -0.00200563 -0.00175915 -0.00152254 -0.00130456 -0.00110519 -0.000924454 -0.000762339 -0.000618847 -0.000493978 -0.000387733 -0.000296858 -0.0002181 -0.000151458 -9.69333e-05 -5.4525e-05 -2.42333e-05 -6.05833e-06 0 0 -7.48372e-06 -2.99349e-05 -6.73534e-05 -0.000119739 -0.000187093 -0.000269414 -0.000366702 -0.000478958 -0.000609673 -0.000762338 -0.000936954 -0.00113352 -0.00135204 -0.00159251 -0.00185492 -0.00213929 -0.00243455 -0.00272963 -0.00302453 -0.00331926 -0.00361381 -0.00390818 -0.00420238 -0.0044964 -0.00478395 -0.00505874 -0.00532078 -0.00557007 -0.0058066 -0.00603037 -0.00624138 -0.00643964 -0.00662493 -0.00679706 -0.00695602 -0.0071018 -0.00723442 -0.00735387 -0.00746015 -0.00755326 -0.00763592 -0.00771087 -0.00777809 -0.0078376 -0.00788938 -0.00793345 -0.0079698 -0.00799842 -0.00802188 -0.00804269 -0.00806088 -0.00807643 -0.00808935 -0.00809964 -0.0081073 -0.00811232 -0.00811579 -0.00811881 -0.00812135 -0.00812344 -0.00812506 -0.00812622 -0.00812691 -0.00812714 -0.00812691 -0.00812622 -0.00812506 -0.00812344 -0.00812135 -0.00811881 -0.00811579 -0.00811232 -0.0081073 -0.00809964 -0.00808935 -0.00807643 -0.00806088 -0.00804269 -0.00802188 -0.00799842 -0.0079698 -0.00793345 -0.00788938 -0.0078376 -0.00777809 -0.00771087 -0.00763592 -0.00755326 -0.00746015 -0.00735387 -0.00723442 -0.0071018 -0.00695602 -0.00679706 -0.00662493 -0.00643964 -0.00624138 -0.00603037 -0.0058066 -0.00557007 -0.00532079 -0.00505875 -0.00478395 -0.0044964 -0.00420238 -0.00390818 -0.00361381 -0.00331926 -0.00302453 -0.00272963 -0.00243455 -0.0021393 -0.00185493 -0.00159251 -0.00135204 -0.00113352 -0.000936955 -0.000762339 -0.000609673 -0.000478958 -0.000366702 -0.000269414 -0.000187093 -0.00011974 -6.73535e-05 -2.99349e-05 -7.48372e-06 0 0 -9.10096e-06 -3.64038e-05 -8.19086e-05 -0.000145615 -0.000227524 -0.000327634 -0.000445947 -0.000582461 -0.000740767 -0.000924453 -0.00113352 -0.00136797 -0.0016278 -0.00191301 -0.0022236 -0.00255957 -0.00290716 -0.00325261 -0.00359591 -0.00393707 -0.00427609 -0.00461296 -0.00494769 -0.00528028 -0.00560299 -0.00590809 -0.00619559 -0.00646549 -0.00671777 -0.00695245 -0.00716953 -0.00736899 -0.00755089 -0.00771525 -0.00786207 -0.00799136 -0.00810312 -0.00819733 -0.00827401 -0.00833316 -0.00837894 -0.00841554 -0.00844295 -0.00846117 -0.00847021 -0.00847006 -0.00846073 -0.0084422 -0.00841874 -0.00839458 -0.00836972 -0.00834416 -0.0083179 -0.00829095 -0.00826329 -0.00823494 -0.00820803 -0.00818471 -0.00816498 -0.00814884 -0.00813628 -0.00812731 -0.00812193 -0.00812014 -0.00812193 -0.00812731 -0.00813628 -0.00814884 -0.00816498 -0.00818471 -0.00820803 -0.00823494 -0.00826329 -0.00829095 -0.0083179 -0.00834416 -0.00836972 -0.00839458 -0.00841874 -0.0084422 -0.00846072 -0.00847006 -0.00847021 -0.00846117 -0.00844295 -0.00841554 -0.00837894 -0.00833316 -0.00827401 -0.00819733 -0.00810312 -0.00799136 -0.00786207 -0.00771525 -0.00755089 -0.00736899 -0.00716953 -0.00695245 -0.00671777 -0.00646549 -0.00619559 -0.00590809 -0.00560299 -0.00528028 -0.00494769 -0.00461296 -0.00427609 -0.00393707 -0.00359591 -0.00325261 -0.00290716 -0.00255957 -0.0022236 -0.00191301 -0.0016278 -0.00136797 -0.00113352 -0.000924454 -0.000740768 -0.000582462 -0.000445947 -0.000327635 -0.000227524 -0.000145615 -8.19087e-05 -3.64039e-05 -9.10097e-06 0 0 -1.091e-05 -4.36402e-05 -9.81904e-05 -0.000174561 -0.000272751 -0.000392762 -0.000534592 -0.000698243 -0.000887261 -0.00110519 -0.00135204 -0.0016278 -0.00193247 -0.00226606 -0.00262856 -0.00301998 -0.00342345 -0.00382214 -0.00421604 -0.00460515 -0.00498947 -0.005369 -0.00574374 -0.0061137 -0.0064695 -0.00680178 -0.00711055 -0.0073958 -0.00765753 -0.00789575 -0.00811045 -0.00830164 -0.00846969 -0.00861496 -0.00873745 -0.00883718 -0.00891413 -0.00896831 -0.00899972 -0.00900836 -0.00900022 -0.0089813 -0.0089516 -0.00891112 -0.00885985 -0.00879781 -0.00872499 -0.00864138 -0.00855341 -0.00846748 -0.0083836 -0.00830176 -0.00822197 -0.00814422 -0.00806852 -0.00799486 -0.00792677 -0.00786775 -0.00781781 -0.00777695 -0.00774518 -0.00772248 -0.00770886 -0.00770432 -0.00770886 -0.00772248 -0.00774518 -0.00777695 -0.00781781 -0.00786775 -0.00792677 -0.00799486 -0.00806852 -0.00814422 -0.00822197 -0.00830176 -0.0083836 -0.00846748 -0.00855341 -0.00864138 -0.00872499 -0.00879781 -0.00885985 -0.00891112 -0.0089516 -0.0089813 -0.00900022 -0.00900836 -0.00899972 -0.00896831 -0.00891413 -0.00883718 -0.00873745 -0.00861496 -0.00846969 -0.00830164 -0.00811046 -0.00789575 -0.00765753 -0.0073958 -0.00711055 -0.00680178 -0.0064695 -0.0061137 -0.00574374 -0.005369 -0.00498947 -0.00460515 -0.00421604 -0.00382214 -0.00342346 -0.00301998 -0.00262856 -0.00226606 -0.00193247 -0.0016278 -0.00135204 -0.00110519 -0.000887262 -0.000698244 -0.000534593 -0.000392762 -0.000272751 -0.000174561 -9.81905e-05 -4.36402e-05 -1.09101e-05 0 0 -1.2911e-05 -5.16439e-05 -0.000116199 -0.000206576 -0.000322775 -0.000464795 -0.000632638 -0.000826303 -0.00104915 -0.00130455 -0.00159251 -0.00191301 -0.00226606 -0.00265166 -0.00306981 -0.00352051 -0.00398343 -0.00443824 -0.00488493 -0.0053235 -0.00575396 -0.00617631 -0.00659054 -0.00699665 -0.00738347 -0.0077398 -0.00806564 -0.008361 -0.00862587 -0.00886026 -0.00906417 -0.00923758 -0.00938132 -0.00949618 -0.00958215 -0.00963925 -0.00966747 -0.00966682 -0.00963728 -0.00957887 -0.00949976 -0.00940815 -0.00930404 -0.00918743 -0.00905832 -0.0089167 -0.00876259 -0.00859597 -0.00842589 -0.00826142 -0.00810254 -0.00794925 -0.00780157 -0.00765948 -0.00752298 -0.00739209 -0.00727199 -0.00716791 -0.00707984 -0.00700779 -0.00695175 -0.00691172 -0.0068877 -0.00687969 -0.0068877 -0.00691172 -0.00695175 -0.00700779 -0.00707984 -0.00716791 -0.00727199 -0.00739209 -0.00752298 -0.00765948 -0.00780157 -0.00794925 -0.00810254 -0.00826142 -0.00842589 -0.00859596 -0.00876258 -0.0089167 -0.00905832 -0.00918743 -0.00930404 -0.00940815 -0.00949976 -0.00957887 -0.00963728 -0.00966682 -0.00966747 -0.00963925 -0.00958215 -0.00949618 -0.00938132 -0.00923758 -0.00906417 -0.00886026 -0.00862587 -0.008361 -0.00806564 -0.0077398 -0.00738347 -0.00699665 -0.00659054 -0.00617631 -0.00575396 -0.00532351 -0.00488493 -0.00443824 -0.00398344 -0.00352052 -0.00306981 -0.00265166 -0.00226606 -0.00191301 -0.00159251 -0.00130456 -0.00104915 -0.000826304 -0.000632639 -0.000464796 -0.000322775 -0.000206576 -0.000116199 -5.1644e-05 -1.2911e-05 0 0 -1.51038e-05 -6.04151e-05 -0.000135934 -0.00024166 -0.000377594 -0.000543736 -0.000740085 -0.000966641 -0.00122645 -0.00152254 -0.00185492 -0.0022236 -0.00262856 -0.00306981 -0.00354735 -0.00406118 -0.0045871 -0.0051009 -0.00560257 -0.00609213 -0.00656956 -0.00703488 -0.00748807 -0.00792915 -0.00834491 -0.00872215 -0.00906088 -0.0093611 -0.0096228 -0.00984599 -0.0100307 -0.0101768 -0.0102858 -0.0103589 -0.0103962 -0.0103976 -0.0103631 -0.0102928 -0.0101867 -0.0100447 -0.00987756 -0.0096961 -0.00950029 -0.00929012 -0.0090656 -0.00882674 -0.00857352 -0.00830595 -0.00803618 -0.00777637 -0.00752652 -0.00728662 -0.00705668 -0.0068367 -0.00662668 -0.00642661 -0.00624371 -0.0060852 -0.00595108 -0.00584134 -0.00575599 -0.00569503 -0.00565845 -0.00564625 -0.00565845 -0.00569503 -0.00575599 -0.00584134 -0.00595108 -0.0060852 -0.00624371 -0.00642661 -0.00662668 -0.0068367 -0.00705668 -0.00728662 -0.00752652 -0.00777637 -0.00803618 -0.00830595 -0.00857352 -0.00882674 -0.0090656 -0.00929012 -0.00950029 -0.0096961 -0.00987756 -0.0100447 -0.0101867 -0.0102928 -0.0103631 -0.0103976 -0.0103962 -0.0103589 -0.0102858 -0.0101768 -0.0100307 -0.00984599 -0.0096228 -0.0093611 -0.00906088 -0.00872215 -0.00834491 -0.00792915 -0.00748808 -0.00703488 -0.00656956 -0.00609213 -0.00560257 -0.0051009 -0.0045871 -0.00406119 -0.00354736 -0.00306981 -0.00262856 -0.0022236 -0.00185493 -0.00152254 -0.00122645 -0.000966642 -0.000740085 -0.000543736 -0.000377595 -0.000241661 -0.000135934 -6.04151e-05 -1.51038e-05 0 0 -1.74884e-05 -6.99536e-05 -0.000157396 -0.000279814 -0.00043721 -0.000629583 -0.000856932 -0.00111926 -0.00141914 -0.00175915 -0.00213929 -0.00255957 -0.00301998 -0.00352051 -0.00406118 -0.00464199 -0.00523445 -0.00581011 -0.00636897 -0.00691102 -0.00743627 -0.00794471 -0.00843635 -0.00891118 -0.00935381 -0.00974884 -0.0100963 -0.0103961 -0.0106483 -0.0108529 -0.0110099 -0.0111193 -0.0111831 -0.0112032 -0.0111795 -0.0111122 -0.0110011 -0.0108464 -0.0106479 -0.0104058 -0.0101336 -0.00984514 -0.00954032 -0.00921918 -0.00888171 -0.00852791 -0.00815778 -0.00777133 -0.00738428 -0.00701235 -0.00665555 -0.00631387 -0.00598733 -0.0056759 -0.00537961 -0.00509844 -0.00484193 -0.00461962 -0.00443152 -0.00427761 -0.00415791 -0.00407241 -0.00402111 -0.00400401 -0.00402111 -0.00407241 -0.00415791 -0.00427761 -0.00443152 -0.00461962 -0.00484193 -0.00509843 -0.00537961 -0.0056759 -0.00598732 -0.00631387 -0.00665555 -0.00701235 -0.00738428 -0.00777133 -0.00815778 -0.00852791 -0.00888171 -0.00921918 -0.00954032 -0.00984514 -0.0101336 -0.0104058 -0.0106479 -0.0108464 -0.0110011 -0.0111122 -0.0111795 -0.0112032 -0.0111831 -0.0111193 -0.0110099 -0.0108529 -0.0106483 -0.0103961 -0.0100963 -0.00974884 -0.00935382 -0.00891119 -0.00843635 -0.00794471 -0.00743627 -0.00691102 -0.00636897 -0.00581011 -0.00523445 -0.00464199 -0.00406119 -0.00352052 -0.00301998 -0.00255957 -0.0021393 -0.00175915 -0.00141914 -0.00111926 -0.000856933 -0.000629583 -0.000437211 -0.000279815 -0.000157396 -6.99537e-05 -1.74884e-05 0 0 -1.99818e-05 -7.99273e-05 -0.000179836 -0.000319709 -0.000499546 -0.000719346 -0.000979109 -0.00127884 -0.00162039 -0.00200563 -0.00243455 -0.00290716 -0.00342345 -0.00398343 -0.0045871 -0.00523445 -0.00589227 -0.00652735 -0.00713967 -0.00772925 -0.00829608 -0.00884016 -0.0093615 -0.00986009 -0.0103181 -0.0107177 -0.0110588 -0.0113416 -0.0115659 -0.0117318 -0.0118393 -0.0118883 -0.0118817 -0.0118222 -0.0117099 -0.0115446 -0.0113265 -0.0110555 -0.0107316 -0.0103549 -0.00994256 -0.00951191 -0.00906295 -0.00859569 -0.00811012 -0.00760625 -0.00708407 -0.00654358 -0.00600492 -0.0054882 -0.00499342 -0.00452059 -0.00406971 -0.00364078 -0.00323379 -0.00284874 -0.00249805 -0.00219412 -0.00193695 -0.00172653 -0.00156288 -0.00144598 -0.00137584 -0.00135246 -0.00137584 -0.00144598 -0.00156288 -0.00172653 -0.00193695 -0.00219412 -0.00249805 -0.00284874 -0.00323379 -0.00364078 -0.00406971 -0.00452059 -0.00499342 -0.0054882 -0.00600492 -0.00654358 -0.00708407 -0.00760625 -0.00811012 -0.00859569 -0.00906295 -0.00951191 -0.00994255 -0.0103549 -0.0107316 -0.0110555 -0.0113265 -0.0115446 -0.0117099 -0.0118222 -0.0118817 -0.0118883 -0.0118393 -0.0117318 -0.0115659 -0.0113416 -0.0110588 -0.0107177 -0.0103181 -0.00986009 -0.0093615 -0.00884017 -0.00829608 -0.00772925 -0.00713967 -0.00652735 -0.00589227 -0.00523445 -0.0045871 -0.00398344 -0.00342346 -0.00290716 -0.00243455 -0.00200563 -0.00162039 -0.00127884 -0.00097911 -0.000719346 -0.000499546 -0.00031971 -0.000179837 -7.99274e-05 -1.99818e-05 0 0 -2.2501e-05 -9.00039e-05 -0.000202509 -0.000360015 -0.000562524 -0.000810035 -0.00110255 -0.00144006 -0.00182336 -0.00225321 -0.00272963 -0.00325261 -0.00382214 -0.00443824 -0.00510089 -0.00581011 -0.00652734 -0.00721405 -0.00787023 -0.00849588 -0.009091 -0.00965559 -0.0101897 -0.0106932 -0.0111456 -0.0115265 -0.0118356 -0.0120731 -0.012239 -0.0123333 -0.0123559 -0.0123068 -0.01219 -0.0120094 -0.0117649 -0.0114566 -0.0110844 -0.0106483 -0.0101485 -0.00958471 -0.00897896 -0.00835305 -0.00770697 -0.00704073 -0.00635433 -0.00564777 -0.00492105 -0.00417417 -0.00343283 -0.00272275 -0.00204393 -0.00139637 -0.000780071 -0.000195027 0.000358757 0.000881283 0.0013565 0.00176835 0.00211684 0.00240197 0.00262374 0.00278214 0.00287719 0.00290887 0.00287719 0.00278215 0.00262374 0.00240197 0.00211684 0.00176835 0.0013565 0.000881283 0.000358757 -0.000195027 -0.00078007 -0.00139637 -0.00204393 -0.00272275 -0.00343283 -0.00417417 -0.00492105 -0.00564777 -0.00635433 -0.00704073 -0.00770697 -0.00835304 -0.00897896 -0.00958471 -0.0101485 -0.0106483 -0.0110844 -0.0114566 -0.0117649 -0.0120094 -0.01219 -0.0123068 -0.0123559 -0.0123333 -0.012239 -0.0120731 -0.0118356 -0.0115265 -0.0111456 -0.0106932 -0.0101897 -0.00965559 -0.009091 -0.00849588 -0.00787023 -0.00721405 -0.00652735 -0.00581012 -0.0051009 -0.00443824 -0.00382214 -0.00325261 -0.00272963 -0.00225322 -0.00182336 -0.00144006 -0.00110255 -0.000810036 -0.000562525 -0.000360016 -0.000202509 -9.0004e-05 -2.2501e-05 0 0 -2.50458e-05 -0.000100183 -0.000225412 -0.000400733 -0.000626146 -0.00090165 -0.00122725 -0.00160293 -0.00202804 -0.00250191 -0.00302453 -0.00359591 -0.00421604 -0.00488493 -0.00560257 -0.00636897 -0.00713967 -0.00787023 -0.00856064 -0.0092109 -0.00982102 -0.010391 -0.0109208 -0.0114105 -0.0118365 -0.0121752 -0.0124266 -0.0125908 -0.0126677 -0.0126574 -0.0125598 -0.0123749 -0.0121081 -0.0117647 -0.0113447 -0.010848 -0.0102748 -0.00962486 -0.00889835 -0.00809522 -0.00724284 -0.00636855 -0.00547238 -0.00455431 -0.00361434 -0.00265248 -0.00166873 -0.000663081 0.000331984 0.00128398 0.00219292 0.00305879 0.0038816 0.00466135 0.00539803 0.00609164 0.00672172 0.00726779 0.00772985 0.0081079 0.00840194 0.00861196 0.00873798 0.00877998 0.00873798 0.00861196 0.00840194 0.0081079 0.00772985 0.00726779 0.00672172 0.00609164 0.00539803 0.00466135 0.0038816 0.00305879 0.00219292 0.00128398 0.000331984 -0.00066308 -0.00166873 -0.00265248 -0.00361434 -0.00455431 -0.00547238 -0.00636855 -0.00724283 -0.00809522 -0.00889835 -0.00962486 -0.0102748 -0.010848 -0.0113447 -0.0117647 -0.0121081 -0.0123749 -0.0125598 -0.0126574 -0.0126677 -0.0125908 -0.0124266 -0.0121752 -0.0118365 -0.0114105 -0.0109208 -0.010391 -0.00982102 -0.0092109 -0.00856064 -0.00787023 -0.00713967 -0.00636897 -0.00560257 -0.00488493 -0.00421604 -0.00359591 -0.00302453 -0.00250191 -0.00202805 -0.00160293 -0.00122725 -0.000901651 -0.000626146 -0.000400734 -0.000225413 -0.000100183 -2.50459e-05 0 0 -2.76164e-05 -0.000110466 -0.000248548 -0.000441863 -0.00069041 -0.000994191 -0.0013532 -0.00176745 -0.00223445 -0.00275172 -0.00331926