<?xml version="1.0"?> 
<VTKFile type="StructuredGrid" version="0.1"> 
<StructuredGrid WholeExtent="0 128 0 128 0 0"> 
<Piece Extent="0 128 0 128 0 0"> 
<PointData>
<DataArray type="Float32" Name="u" format="ascii" NumberOfComponents="1"> 
0 0 0 0 0 0 0 0 0 0 0 0 0 0 0 0 0 0 0 0 0 0 0 0 0 0 0 0 0 0 0 0 0 0 0 0 0 0 0 0 0 0 0 0 0 0 0 0 0 0 0 0 0 0 0 0 0 0 0 0 0 0 0 0 0 0 0 0 0 0 0 0 0 0 0 0 0 0 0 0 0 0 0 0 0 0 0 0 0 0 0 0 0 0 0 0 0 0 0 0 0 0 0 0 0 0 0 0 0 0 0 0 0 0 0 0 0 0 0 0 0 0 0 0 0 0 0 0 0 0 -5.93528e-08 -2.37411e-07 -5.34175e-07 -9.49645e-07 -1.48382e-06 -2.1367e-06 -2.90829e-06 -3.79858e-06 -4.84398e-06 -6.08089e-06 -7.5093e-06 -9.12923e-06 -1.09407e-05 -1.29436e-05 -1.5138e-05 -1.7524e-05 -2.00176e-05 -2.25351e-05 -2.50765e-05 -2.76417e-05 -3.02307e-05 -3.28436e-05 -3.54804e-05 -3.8141e-05 -4.07765e-05 -4.3338e-05 -4.58253e-05 -4.82385e-05 -5.05777e-05 -5.28428e-05 -5.50338e-05 -5.71507e-05 -5.91879e-05 -6.11395e-05 -6.30056e-05 -6.47862e-05 -6.64813e-05 -6.80909e-05 -6.96149e-05 -7.10535e-05 -7.24168e-05 -7.37152e-05 -7.49487e-05 -7.61172e-05 -7.72208e-05 -7.82595e-05 -7.92332e-05 -8.01419e-05 -8.09915e-05 -8.17877e-05 -8.25305e-05 -8.32198e-05 -8.38558e-05 -8.44383e-05 -8.49675e-05 -8.54432e-05 -8.58641e-05 -8.62289e-05 -8.65376e-05 -8.67902e-05 -8.69866e-05 -8.71269e-05 -8.72111e-05 -8.72392e-05 -8.72111e-05 -8.71269e-05 -8.69866e-05 -8.67902e-05 -8.65376e-05 -8.62289e-05 -8.58641e-05 -8.54432e-05 -8.49675e-05 -8.44383e-05 -8.38558e-05 -8.32198e-05 -8.25305e-05 -8.17877e-05 -8.09915e-05 -8.01419e-05 -7.92332e-05 -7.82595e-05 -7.72208e-05 -7.61172e-05 -7.49487e-05 -7.37152e-05 -7.24168e-05 -7.10535e-05 -6.96149e-05 -6.80909e-05 -6.64813e-05 -6.47862e-05 -6.30056e-05 -6.11395e-05 -5.91879e-05 -5.71507e-05 -5.50338e-05 -5.28428e-05 -5.05777e-05 -4.82385e-05 -4.58253e-05 -4.3338e-05 -4.07765e-05 -3.8141e-05 -3.54804e-05 -3.28437e-05 -3.02307e-05 -2.76417e-05 -2.50765e-05 -2.25351e-05 -2.00176e-05 -1.7524e-05 -1.51381e-05 -1.29436e-05 -1.09407e-05 -9.12923e-06 -7.50931e-06 -6.08089e-06 -4.84398e-06 -3.79858e-06 -2.90829e-06 -2.1367e-06 -1.48382e-06 -9.49646e-07 -5.34176e-07 -2.37412e-07 -5.93529e-08 0 0 -2.37411e-07 -9.49645e-07 -2.1367e-06 -3.79858e-06 -5.93528e-06 -8.54681e-06 -1.16332e-05 -1.51943e-05 -1.93759e-05 -2.43235e-05 -3.00372e-05 -3.65169e-05 -4.37626e-05 -5.17744e-05 -6.05522e-05 -7.0096e-05 -8.00706e-05 -9.01405e-05 -0.000100306 -0.000110567 -0.000120923 -0.000131375 -0.000141922 -0.000152564 -0.000163106 -0.000173352 -0.000183301 -0.000192954 -0.000202311 -0.000211371 -0.000220135 -0.000228603 -0.000236751 -0.000244558 -0.000252022 -0.000259145 -0.000265925 -0.000272363 -0.00027846 -0.000284214 -0.000289667 -0.000294861 -0.000299795 -0.000304469 -0.000308883 -0.000313038 -0.000316933 -0.000320568 -0.000323966 -0.000327151 -0.000330122 -0.000332879 -0.000335423 -0.000337753 -0.00033987 -0.000341773 -0.000343456 -0.000344916 -0.00034615 -0.000347161 -0.000347946 -0.000348508 -0.000348845 -0.000348957 -0.000348845 -0.000348508 -0.000347946 -0.000347161 -0.00034615 -0.000344916 -0.000343456 -0.000341773 -0.00033987 -0.000337753 -0.000335423 -0.000332879 -0.000330122 -0.000327151 -0.000323966 -0.000320568 -0.000316933 -0.000313038 -0.000308883 -0.000304469 -0.000299795 -0.000294861 -0.000289667 -0.000284214 -0.00027846 -0.000272363 -0.000265925 -0.000259145 -0.000252022 -0.000244558 -0.000236751 -0.000228603 -0.000220135 -0.000211371 -0.000202311 -0.000192954 -0.000183301 -0.000173352 -0.000163106 -0.000152564 -0.000141922 -0.000131375 -0.000120923 -0.000110567 -0.000100306 -9.01406e-05 -8.00706e-05 -7.0096e-05 -6.05522e-05 -5.17744e-05 -4.37627e-05 -3.65169e-05 -3.00372e-05 -2.43236e-05 -1.93759e-05 -1.51943e-05 -1.16332e-05 -8.54681e-06 -5.93529e-06 -3.79858e-06 -2.1367e-06 -9.49646e-07 -2.37412e-07 0 0 -5.34175e-07 -2.1367e-06 -4.80758e-06 -8.54681e-06 -1.33544e-05 -1.92303e-05 -2.61746e-05 -3.41872e-05 -4.35958e-05 -5.4728e-05 -6.75837e-05 -8.2163e-05 -9.84659e-05 -0.000116492 -0.000136242 -0.000157716 -0.000180159 -0.000202816 -0.000225688 -0.000248775 -0.000272077 -0.000295593 -0.000319324 -0.000343269 -0.000366989 -0.000390042 -0.000412428 -0.000434147 -0.000455199 -0.000475585 -0.000495304 -0.000514357 -0.000532691 -0.000550255 -0.00056705 -0.000583076 -0.000598331 -0.000612818 -0.000626534 -0.000639481 -0.000651751 -0.000663437 -0.000674538 -0.000685055 -0.000694987 -0.000704335 -0.000713098 -0.000721277 -0.000728924 -0.000736089 -0.000742774 -0.000748979 -0.000754702 -0.000759945 -0.000764707 -0.000768989 -0.000772777 -0.00077606 -0.000778839 -0.000781112 -0.00078288 -0.000784142 -0.0007849 -0.000785153 -0.0007849 -0.000784142 -0.00078288 -0.000781112 -0.000778839 -0.00077606 -0.000772777 -0.000768989 -0.000764707 -0.000759945 -0.000754702 -0.000748979 -0.000742774 -0.000736089 -0.000728924 -0.000721277 -0.000713098 -0.000704335 -0.000694987 -0.000685055 -0.000674538 -0.000663437 -0.000651751 -0.000639481 -0.000626534 -0.000612818 -0.000598331 -0.000583076 -0.00056705 -0.000550255 -0.000532691 -0.000514357 -0.000495304 -0.000475585 -0.000455199 -0.000434147 -0.000412428 -0.000390042 -0.000366989 -0.000343269 -0.000319324 -0.000295593 -0.000272077 -0.000248775 -0.000225688 -0.000202816 -0.000180159 -0.000157716 -0.000136242 -0.000116492 -9.8466e-05 -8.21631e-05 -6.75838e-05 -5.4728e-05 -4.35959e-05 -3.41873e-05 -2.61746e-05 -1.92303e-05 -1.33544e-05 -8.54681e-06 -4.80758e-06 -2.1367e-06 -5.34176e-07 0 0 -9.49645e-07 -3.79858e-06 -8.54681e-06 -1.51943e-05 -2.37411e-05 -3.41872e-05 -4.65326e-05 -6.07773e-05 -7.75037e-05 -9.72942e-05 -0.000120149 -0.000146068 -0.000175051 -0.000207098 -0.000242209 -0.000280384 -0.000320282 -0.000360562 -0.000401224 -0.000442267 -0.000483692 -0.000525498 -0.000567687 -0.000610256 -0.000652424 -0.000693407 -0.000733205 -0.000771817 -0.000809243 -0.000845485 -0.000880541 -0.000914412 -0.000947006 -0.000978232 -0.00100809 -0.00103658 -0.0010637 -0.00108945 -0.00111384 -0.00113686 -0.00115867 -0.00117944 -0.00119918 -0.00121788 -0.00123553 -0.00125215 -0.00126773 -0.00128227 -0.00129586 -0.0013086 -0.00132049 -0.00133152 -0.00134169 -0.00135101 -0.00135948 -0.00136709 -0.00137383 -0.00137966 -0.0013846 -0.00138864 -0.00139179 -0.00139403 -0.00139538 -0.00139583 -0.00139538 -0.00139403 -0.00139179 -0.00138864 -0.0013846 -0.00137966 -0.00137383 -0.00136709 -0.00135948 -0.00135101 -0.00134169 -0.00133152 -0.00132049 -0.0013086 -0.00129586 -0.00128227 -0.00126773 -0.00125215 -0.00123553 -0.00121788 -0.00119918 -0.00117944 -0.00115867 -0.00113686 -0.00111384 -0.00108945 -0.0010637 -0.00103658 -0.00100809 -0.000978232 -0.000947006 -0.000914412 -0.000880541 -0.000845485 -0.000809243 -0.000771817 -0.000733205 -0.000693407 -0.000652425 -0.000610256 -0.000567687 -0.000525498 -0.000483692 -0.000442267 -0.000401224 -0.000360562 -0.000320282 -0.000280384 -0.000242209 -0.000207098 -0.000175051 -0.000146068 -0.000120149 -9.72943e-05 -7.75037e-05 -6.07773e-05 -4.65327e-05 -3.41873e-05 -2.37412e-05 -1.51943e-05 -8.54681e-06 -3.79858e-06 -9.49646e-07 0 0 -1.48382e-06 -5.93528e-06 -1.33544e-05 -2.37411e-05 -3.70955e-05 -5.34175e-05 -7.27072e-05 -9.49645e-05 -0.000121099 -0.000152022 -0.000187733 -0.000228231 -0.000273516 -0.00032359 -0.000378451 -0.0004381 -0.000500441 -0.000563378 -0.000626912 -0.000691042 -0.000755768 -0.000821091 -0.00088701 -0.000953526 -0.00101941 -0.00108345 -0.00114563 -0.00120596 -0.00126444 -0.00132107 -0.00137585 -0.00142877 -0.0014797 -0.00152849 -0.00157514 -0.00161965 -0.00166203 -0.00170227 -0.00174037 -0.00177634 -0.00181042 -0.00184288 -0.00187372 -0.00190293 -0.00193052 -0.00195649 -0.00198083 -0.00200355 -0.00202479 -0.00204469 -0.00206326 -0.0020805 -0.00209639 -0.00211096 -0.00212419 -0.00213608 -0.0021466 -0.00215572 -0.00216344 -0.00216975 -0.00217467 -0.00217817 -0.00218028 -0.00218098 -0.00218028 -0.00217817 -0.00217467 -0.00216975 -0.00216344 -0.00215572 -0.0021466 -0.00213608 -0.00212419 -0.00211096 -0.00209639 -0.0020805 -0.00206326 -0.00204469 -0.00202479 -0.00200355 -0.00198083 -0.00195649 -0.00193052 -0.00190293 -0.00187372 -0.00184288 -0.00181042 -0.00177634 -0.00174037 -0.00170227 -0.00166203 -0.00161965 -0.00157514 -0.00152849 -0.0014797 -0.00142877 -0.00137585 -0.00132107 -0.00126444 -0.00120596 -0.00114563 -0.00108345 -0.00101941 -0.000953526 -0.00088701 -0.000821091 -0.000755769 -0.000691042 -0.000626912 -0.000563379 -0.000500441 -0.0004381 -0.000378451 -0.00032359 -0.000273517 -0.000228231 -0.000187733 -0.000152022 -0.0001211 -9.49646e-05 -7.27073e-05 -5.34176e-05 -3.70955e-05 -2.37412e-05 -1.33544e-05 -5.93529e-06 -1.48382e-06 0 0 -2.1367e-06 -8.54681e-06 -1.92303e-05 -3.41872e-05 -5.34175e-05 -7.69213e-05 -0.000104698 -0.000136749 -0.000174383 -0.000218912 -0.000270335 -0.000328652 -0.000393864 -0.00046597 -0.00054497 -0.000630864 -0.000720635 -0.000811265 -0.000902753 -0.0009951 -0.00108831 -0.00118237 -0.00127729 -0.00137308 -0.00146796 -0.00156017 -0.00164971 -0.00173659 -0.0018208 -0.00190234 -0.00198122 -0.00205743 -0.00213076 -0.00220102 -0.0022682 -0.0023323 -0.00239333 -0.00245127 -0.00250614 -0.00255793 -0.00260701 -0.00265375 -0.00269815 -0.00274022 -0.00277995 -0.00281734 -0.00285239 -0.00288511 -0.0029157 -0.00294436 -0.0029711 -0.00299591 -0.00301881 -0.00303978 -0.00305883 -0.00307595 -0.00309111 -0.00310424 -0.00311535 -0.00312445 -0.00313152 -0.00313657 -0.0031396 -0.00314061 -0.0031396 -0.00313657 -0.00313152 -0.00312445 -0.00311535 -0.00310424 -0.00309111 -0.00307595 -0.00305883 -0.00303978 -0.00301881 -0.00299591 -0.0029711 -0.00294436 -0.0029157 -0.00288511 -0.00285239 -0.00281734 -0.00277995 -0.00274022 -0.00269815 -0.00265375 -0.00260701 -0.00255793 -0.00250614 -0.00245127 -0.00239333 -0.0023323 -0.0022682 -0.00220102 -0.00213076 -0.00205743 -0.00198122 -0.00190234 -0.0018208 -0.00173659 -0.00164971 -0.00156017 -0.00146796 -0.00137308 -0.00127729 -0.00118237 -0.00108831 -0.000995101 -0.000902754 -0.000811265 -0.000720635 -0.000630864 -0.00054497 -0.00046597 -0.000393864 -0.000328652 -0.000270335 -0.000218912 -0.000174383 -0.000136749 -0.000104698 -7.69213e-05 -5.34176e-05 -3.41873e-05 -1.92303e-05 -8.54681e-06 -2.1367e-06 0 0 -2.90829e-06 -1.16332e-05 -2.61746e-05 -4.65326e-05 -7.27072e-05 -0.000104698 -0.000142506 -0.00018613 -0.000237355 -0.000297963 -0.000367956 -0.000447332 -0.000536092 -0.000634236 -0.000741764 -0.000858676 -0.000980864 -0.00110422 -0.00122875 -0.00135444 -0.00148131 -0.00160934 -0.00173854 -0.00186891 -0.00199805 -0.00212356 -0.00224544 -0.00236369 -0.00247831 -0.0025893 -0.00269666 -0.00280039 -0.00290021 -0.00299583 -0.00308727 -0.00317452 -0.00325758 -0.00333645 -0.00341113 -0.00348162 -0.00354842 -0.00361205 -0.00367249 -0.00372974 -0.00378382 -0.00383471 -0.00388243 -0.00392695 -0.00396859 -0.0040076 -0.00404399 -0.00407777 -0.00410893 -0.00413748 -0.00416341 -0.00418672 -0.00420734 -0.00422522 -0.00424034 -0.00425272 -0.00426234 -0.00426922 -0.00427335 -0.00427472 -0.00427335 -0.00426922 -0.00426234 -0.00425272 -0.00424034 -0.00422522 -0.00420734 -0.00418672 -0.00416341 -0.00413748 -0.00410893 -0.00407777 -0.00404399 -0.0040076 -0.00396859 -0.00392695 -0.00388243 -0.00383471 -0.00378382 -0.00372974 -0.00367249 -0.00361205 -0.00354842 -0.00348162 -0.00341113 -0.00333645 -0.00325758 -0.00317452 -0.00308727 -0.00299583 -0.00290021 -0.00280039 -0.00269666 -0.0025893 -0.00247831 -0.00236369 -0.00224544 -0.00212356 -0.00199805 -0.00186891 -0.00173854 -0.00160934 -0.00148131 -0.00135444 -0.00122875 -0.00110422 -0.000980865 -0.000858677 -0.000741765 -0.000634237 -0.000536093 -0.000447332 -0.000367956 -0.000297964 -0.000237355 -0.000186131 -0.000142506 -0.000104698 -7.27073e-05 -4.65327e-05 -2.61746e-05 -1.16332e-05 -2.90829e-06 0 0 -3.79858e-06 -1.51943e-05 -3.41872e-05 -6.07773e-05 -9.49645e-05 -0.000136749 -0.00018613 -0.000243109 -0.000310015 -0.000389177 -0.000480595 -0.00058427 -0.000700202 -0.00082839 -0.000968835 -0.00112154 -0.00128113 -0.00144225 -0.00160489 -0.00176907 -0.00193477 -0.00210199 -0.00227075 -0.00244103 -0.0026097 -0.00277363 -0.00293282 -0.00308727 -0.00323697 -0.00338194 -0.00352216 -0.00365765 -0.00378802 -0.00391293 -0.00403236 -0.00414632 -0.0042548 -0.00435781 -0.00445536 -0.00454742 -0.00463468 -0.00471777 -0.00479672 -0.0048715 -0.00494213 -0.00500861 -0.00507092 -0.00512908 -0.00518346 -0.00523441 -0.00528195 -0.00532607 -0.00536677 -0.00540405 -0.00543792 -0.00546836 -0.0054953 -0.00551865 -0.00553841 -0.00555457 -0.00556714 -0.00557612 -0.00558151 -0.00558331 -0.00558151 -0.00557612 -0.00556714 -0.00555457 -0.00553841 -0.00551865 -0.0054953 -0.00546836 -0.00543792 -0.00540405 -0.00536677 -0.00532607 -0.00528195 -0.00523441 -0.00518346 -0.00512908 -0.00507092 -0.00500861 -0.00494213 -0.0048715 -0.00479672 -0.00471777 -0.00463468 -0.00454742 -0.00445536 -0.00435781 -0.0042548 -0.00414632 -0.00403236 -0.00391293 -0.00378802 -0.00365765 -0.00352216 -0.00338194 -0.00323697 -0.00308727 -0.00293282 -0.00277363 -0.0026097 -0.00244103 -0.00227075 -0.00210199 -0.00193477 -0.00176907 -0.0016049 -0.00144225 -0.00128113 -0.00112154 -0.000968835 -0.000828391 -0.000700203 -0.000584271 -0.000480596 -0.000389177 -0.000310015 -0.000243109 -0.000186131 -0.000136749 -9.49646e-05 -6.07773e-05 -3.41873e-05 -1.51943e-05 -3.79858e-06 0 0 -4.84398e-06 -1.93759e-05 -4.35958e-05 -7.75037e-05 -0.000121099 -0.000174383 -0.000237355 -0.000310015 -0.000395204 -0.000495765 -0.000611698 -0.000743003 -0.000889679 -0.00105173 -0.00122915 -0.00142194 -0.0016232 -0.00182603 -0.00203043 -0.0022364 -0.00244393 -0.00265304 -0.00286371 -0.00307595 -0.00328575 -0.00348909 -0.00368598 -0.00387641 -0.00406038 -0.00423789 -0.00440895 -0.00457355 -0.00473128 -0.00488173 -0.00502491 -0.00516081 -0.00528943 -0.00541078 -0.00552484 -0.00563163 -0.00573215 -0.00582741 -0.00591741 -0.00600215 -0.00608163 -0.00615584 -0.0062248 -0.0062885 -0.00634763 -0.00640289 -0.00645429 -0.00650182 -0.00654548 -0.00658527 -0.00662119 -0.00665325 -0.00668149 -0.00670597 -0.00672668 -0.00674362 -0.0067568 -0.00676621 -0.00677186 -0.00677375 -0.00677186 -0.00676621 -0.0067568 -0.00674362 -0.00672668 -0.00670597 -0.00668149 -0.00665325 -0.00662119 -0.00658527 -0.00654548 -0.00650182 -0.00645429 -0.00640289 -0.00634763 -0.0062885 -0.0062248 -0.00615584 -0.00608163 -0.00600215 -0.00591741 -0.00582741 -0.00573215 -0.00563163 -0.00552484 -0.00541078 -0.00528943 -0.00516081 -0.00502491 -0.00488173 -0.00473128 -0.00457355 -0.00440895 -0.00423789 -0.00406038 -0.00387641 -0.00368598 -0.00348909 -0.00328575 -0.00307596 -0.00286371 -0.00265304 -0.00244393 -0.0022364 -0.00203043 -0.00182603 -0.0016232 -0.00142194 -0.00122915 -0.00105173 -0.00088968 -0.000743004 -0.000611699 -0.000495766 -0.000395205 -0.000310015 -0.000237355 -0.000174383 -0.0001211 -7.75038e-05 -4.35959e-05 -1.93759e-05 -4.84398e-06 0 0 -6.08089e-06 -2.43235e-05 -5.4728e-05 -9.72942e-05 -0.000152022 -0.000218912 -0.000297963 -0.000389177 -0.000495765 -0.000620943 -0.00076471 -0.000927065 -0.00110801 -0.00130754 -0.00152567 -0.00176238 -0.00200885 -0.00225625 -0.00250459 -0.00275385 -0.00300405 -0.00325518 -0.00350724 -0.00376023 -0.00400907 -0.00424868 -0.00447905 -0.00470019 -0.0049121 -0.00511477 -0.00530821 -0.00549242 -0.00566703 -0.00583169 -0.00598639 -0.00613113 -0.00626592 -0.00639075 -0.00650563 -0.00661055 -0.00670724 -0.00679744 -0.00688114 -0.00695834 -0.00702905 -0.00709326 -0.00715097 -0.00720219 -0.00724841 -0.00729112 -0.00733032 -0.00736602 -0.00739821 -0.00742689 -0.00745207 -0.00747374 -0.00749241 -0.00750859 -0.00752228 -0.00753349 -0.0075422 -0.00754842 -0.00755216 -0.0075534 -0.00755216 -0.00754842 -0.0075422 -0.00753349 -0.00752228 -0.00750859 -0.00749241 -0.00747374 -0.00745207 -0.00742689 -0.00739821 -0.00736602 -0.00733032 -0.00729112 -0.00724841 -0.00720219 -0.00715097 -0.00709326 -0.00702905 -0.00695834 -0.00688114 -0.00679744 -0.00670724 -0.00661055 -0.00650563 -0.00639075 -0.00626592 -0.00613113 -0.00598639 -0.00583169 -0.00566703 -0.00549242 -0.00530821 -0.00511477 -0.0049121 -0.00470019 -0.00447905 -0.00424868 -0.00400907 -0.00376023 -0.00350724 -0.00325518 -0.00300405 -0.00275385 -0.00250459 -0.00225625 -0.00200885 -0.00176238 -0.00152567 -0.00130754 -0.00110801 -0.000927066 -0.00076471 -0.000620944 -0.000495766 -0.000389177 -0.000297964 -0.000218912 -0.000152022 -9.72943e-05 -5.4728e-05 -2.43236e-05 -6.08089e-06 0 0 -7.5093e-06 -3.00372e-05 -6.75837e-05 -0.000120149 -0.000187733 -0.000270335 -0.000367956 -0.000480595 -0.000611698 -0.00076471 -0.000939629 -0.00113646 -0.00135519 -0.00159584 -0.00185839 -0.00214285 -0.00243807 -0.00273291 -0.00302736 -0.00332143 -0.00361511 -0.00390841 -0.00420132 -0.00449385 -0.00477965 -0.00505238 -0.00531203 -0.00555862 -0.00579214 -0.00601259 -0.00621996 -0.00641427 -0.00659529 -0.0067628 -0.0069168 -0.00705729 -0.00718427 -0.00729775 -0.00739771 -0.00748417 -0.00755994 -0.00762785 -0.0076879 -0.00774008 -0.0077844 -0.00782085 -0.00784944 -0.00787017 -0.0078858 -0.00789909 -0.00791005 -0.00791867 -0.00792496 -0.00792892 -0.00793053 -0.00792982 -0.00792805 -0.00792652 -0.00792522 -0.00792416 -0.00792334 -0.00792275 -0.0079224 -0.00792228 -0.0079224 -0.00792275 -0.00792334 -0.00792416 -0.00792522 -0.00792652 -0.00792805 -0.00792982 -0.00793053 -0.00792892 -0.00792496 -0.00791867 -0.00791005 -0.00789909 -0.0078858 -0.00787017 -0.00784944 -0.00782085 -0.00778439 -0.00774008 -0.0076879 -0.00762785 -0.00755994 -0.00748417 -0.00739771 -0.00729775 -0.00718427 -0.00705729 -0.0069168 -0.0067628 -0.00659529 -0.00641427 -0.00621996 -0.00601259 -0.00579214 -0.00555862 -0.00531203 -0.00505238 -0.00477965 -0.00449385 -0.00420132 -0.00390841 -0.00361511 -0.00332143 -0.00302736 -0.00273291 -0.00243807 -0.00214285 -0.00185839 -0.00159584 -0.00135519 -0.00113646 -0.00093963 -0.00076471 -0.000611699 -0.000480596 -0.000367956 -0.000270335 -0.000187733 -0.000120149 -6.75838e-05 -3.00372e-05 -7.50931e-06 0 0 -9.12923e-06 -3.65169e-05 -8.2163e-05 -0.000146068 -0.000228231 -0.000328652 -0.000447332 -0.00058427 -0.000743003 -0.000927065 -0.00113646 -0.00137118 -0.00163123 -0.00191661 -0.00222732 -0.00256336 -0.00291088 -0.00325601 -0.00359876 -0.00393914 -0.00427713 -0.00461274 -0.00494597 -0.00527681 -0.00559749 -0.00590019 -0.00618493 -0.0064517 -0.0067005 -0.00693133 -0.0071442 -0.00733909 -0.00751604 -0.00767505 -0.00781613 -0.00793927 -0.00804448 -0.00813175 -0.00820109 -0.0082525 -0.00829026 -0.00831865 -0.00833768 -0.00834736 -0.00834767 -0.00833862 -0.0083202 -0.00829243 -0.0082598 -0.00822681 -0.00819348 -0.00815979 -0.00812574 -0.00809135 -0.0080566 -0.00802149 -0.00798842 -0.00795976 -0.0079355 -0.00791566 -0.00790022 -0.0078892 -0.00788258 -0.00788038 -0.00788258 -0.0078892 -0.00790022 -0.00791566 -0.0079355 -0.00795976 -0.00798842 -0.00802149 -0.0080566 -0.00809135 -0.00812574 -0.00815979 -0.00819348 -0.00822681 -0.0082598 -0.00829243 -0.0083202 -0.00833862 -0.00834767 -0.00834736 -0.00833768 -0.00831865 -0.00829025 -0.0082525 -0.00820109 -0.00813175 -0.00804448 -0.00793927 -0.00781613 -0.00767505 -0.00751604 -0.00733909 -0.0071442 -0.00693133 -0.0067005 -0.0064517 -0.00618493 -0.00590019 -0.00559749 -0.00527681 -0.00494597 -0.00461274 -0.00427713 -0.00393914 -0.00359876 -0.00325601 -0.00291088 -0.00256336 -0.00222732 -0.00191661 -0.00163123 -0.00137118 -0.00113646 -0.000927066 -0.000743004 -0.000584271 -0.000447332 -0.000328652 -0.000228231 -0.000146068 -8.21631e-05 -3.65169e-05 -9.12923e-06 0 0 -1.09407e-05 -4.37626e-05 -9.84659e-05 -0.000175051 -0.000273516 -0.000393864 -0.000536092 -0.000700202 -0.000889679 -0.00110801 -0.00135519 -0.00163123 -0.00193612 -0.00226986 -0.00263246 -0.00302391 -0.00342726 -0.00382555 -0.00421879 -0.00460697 -0.00499009 -0.00536816 -0.00574117 -0.00610912 -0.00646259 -0.00679212 -0.00709774 -0.00737942 -0.00763718 -0.00787101 -0.00808092 -0.00826689 -0.00842929 -0.00856846 -0.00868439 -0.00877709 -0.00884655 -0.00889278 -0.00891577 -0.00891553 -0.00889818 -0.00886984 -0.0088305 -0.00878018 -0.00871886 -0.00864656 -0.00856326 -0.00846897 -0.00837041 -0.00827428 -0.0081806 -0.00808935 -0.00800055 -0.00791418 -0.00783025 -0.00774877 -0.00767352 -0.0076083 -0.00755311 -0.00750796 -0.00747285 -0.00744776 -0.00743271 -0.0074277 -0.00743271 -0.00744776 -0.00747285 -0.00750796 -0.00755311 -0.0076083 -0.00767352 -0.00774877 -0.00783025 -0.00791418 -0.00800055 -0.00808935 -0.0081806 -0.00827428 -0.00837041 -0.00846897 -0.00856326 -0.00864656 -0.00871886 -0.00878018 -0.0088305 -0.00886984 -0.00889818 -0.00891553 -0.00891577 -0.00889278 -0.00884655 -0.00877709 -0.00868439 -0.00856846 -0.00842929 -0.00826689 -0.00808092 -0.00787101 -0.00763718 -0.00737942 -0.00709774 -0.00679212 -0.00646259 -0.00610912 -0.00574117 -0.00536816 -0.00499009 -0.00460697 -0.00421879 -0.00382555 -0.00342726 -0.00302391 -0.00263246 -0.00226986 -0.00193612 -0.00163123 -0.00135519 -0.00110801 -0.00088968 -0.000700203 -0.000536093 -0.000393864 -0.000273517 -0.000175051 -9.8466e-05 -4.37627e-05 -1.09407e-05 0 0 -1.29436e-05 -5.17744e-05 -0.000116492 -0.000207098 -0.00032359 -0.000465969 -0.000634236 -0.00082839 -0.00105173 -0.00130754 -0.00159584 -0.00191661 -0.00226986 -0.00265559 -0.0030738 -0.00352449 -0.00398722 -0.00444153 -0.00488743 -0.00532492 -0.005754 -0.00617467 -0.00658693 -0.00699078 -0.00737495 -0.00772817 -0.00805045 -0.00834179 -0.00860218 -0.00883162 -0.00903012 -0.00919767 -0.00933505 -0.00944301 -0.00952158 -0.00957073 -0.00959048 -0.00958082 -0.00954175 -0.00947327 -0.00938372 -0.00928141 -0.00916636 -0.00903855 -0.00889799 -0.00874468 -0.00857861 -0.0083998 -0.00821763 -0.0080415 -0.00787142 -0.00770738 -0.00754938 -0.00739742 -0.00725151 -0.00711164 -0.00698334 -0.00687215 -0.00677806 -0.00670108 -0.00664121 -0.00659845 -0.00657279 -0.00656423 -0.00657279 -0.00659845 -0.00664121 -0.00670108 -0.00677806 -0.00687215 -0.00698334 -0.00711164 -0.00725151 -0.00739742 -0.00754938 -0.00770738 -0.00787142 -0.0080415 -0.00821763 -0.0083998 -0.00857861 -0.00874468 -0.00889799 -0.00903855 -0.00916636 -0.00928141 -0.00938372 -0.00947327 -0.00954175 -0.00958082 -0.00959048 -0.00957073 -0.00952158 -0.00944301 -0.00933505 -0.00919767 -0.00903012 -0.00883162 -0.00860218 -0.00834179 -0.00805045 -0.00772817 -0.00737495 -0.00699078 -0.00658693 -0.00617467 -0.005754 -0.00532492 -0.00488743 -0.00444153 -0.00398722 -0.00352449 -0.00307381 -0.0026556 -0.00226986 -0.00191661 -0.00159584 -0.00130754 -0.00105173 -0.000828391 -0.000634237 -0.00046597 -0.00032359 -0.000207098 -0.000116492 -5.17744e-05 -1.29436e-05 0 0 -1.5138e-05 -6.05522e-05 -0.000136242 -0.000242209 -0.000378451 -0.00054497 -0.000741764 -0.000968835 -0.00122915 -0.00152567 -0.00185839 -0.00222732 -0.00263246 -0.0030738 -0.00355135 -0.00406511 -0.00459075 -0.00510394 -0.00560469 -0.006093 -0.00656886 -0.00703228 -0.00748325 -0.00792178 -0.00833457 -0.00870834 -0.00904308 -0.0093388 -0.00959549 -0.00981316 -0.0099918 -0.0101314 -0.0102333 -0.0102987 -0.0103277 -0.0103202 -0.0102763 -0.0101959 -0.010079 -0.00992572 -0.00974687 -0.00955338 -0.00934524 -0.00912246 -0.00888504 -0.00863297 -0.00836626 -0.00808491 -0.00780146 -0.00752847 -0.00726593 -0.00701386 -0.00677223 -0.00654107 -0.00632036 -0.0061101 -0.00591789 -0.0057513 -0.00561035 -0.00549502 -0.00540532 -0.00534125 -0.00530281 -0.00528999 -0.00530281 -0.00534125 -0.00540532 -0.00549502 -0.00561035 -0.0057513 -0.00591789 -0.0061101 -0.00632036 -0.00654107 -0.00677223 -0.00701386 -0.00726593 -0.00752847 -0.00780146 -0.00808491 -0.00836626 -0.00863297 -0.00888504 -0.00912246 -0.00934524 -0.00955338 -0.00974687 -0.00992572 -0.010079 -0.0101959 -0.0102763 -0.0103202 -0.0103277 -0.0102987 -0.0102333 -0.0101314 -0.0099918 -0.00981316 -0.00959549 -0.0093388 -0.00904308 -0.00870834 -0.00833457 -0.00792178 -0.00748325 -0.00703228 -0.00656886 -0.006093 -0.0056047 -0.00510395 -0.00459075 -0.00406511 -0.00355136 -0.00307381 -0.00263246 -0.00222732 -0.00185839 -0.00152567 -0.00122915 -0.000968836 -0.000741765 -0.00054497 -0.000378451 -0.000242209 -0.000136243 -6.05522e-05 -1.51381e-05 0 0 -1.7524e-05 -7.0096e-05 -0.000157716 -0.000280384 -0.0004381 -0.000630864 -0.000858676 -0.00112154 -0.00142194 -0.00176238 -0.00214285 -0.00256336 -0.00302391 -0.00352449 -0.00406511 -0.00464577 -0.00523786 -0.0058128 -0.00637058 -0.0069112 -0.00743467 -0.00794098 -0.00843013 -0.00890212 -0.00934146 -0.00973262 -0.0100756 -0.0103705 -0.0106171 -0.0108156 -0.010966 -0.0110681 -0.011124 -0.0111356 -0.0111027 -0.0110255 -0.0109039 -0.0107379 -0.0105276 -0.0102729 -0.00998763 -0.00968573 -0.00936715 -0.00903192 -0.00868001 -0.00831144 -0.0079262 -0.0075243 -0.0071219 -0.00673518 -0.00636415 -0.00600879 -0.00566911 -0.00534512 -0.0050368 -0.00474416 -0.00447716 -0.00424577 -0.00404997 -0.00388977 -0.00376517 -0.00367617 -0.00362277 -0.00360497 -0.00362277 -0.00367617 -0.00376517 -0.00388977 -0.00404997 -0.00424577 -0.00447716 -0.00474416 -0.0050368 -0.00534512 -0.00566911 -0.00600879 -0.00636415 -0.00673518 -0.0071219 -0.0075243 -0.0079262 -0.00831144 -0.00868001 -0.00903191 -0.00936715 -0.00968573 -0.00998763 -0.0102729 -0.0105276 -0.0107379 -0.0109039 -0.0110255 -0.0111027 -0.0111356 -0.011124 -0.0110681 -0.010966 -0.0108156 -0.0106171 -0.0103705 -0.0100756 -0.00973262 -0.00934146 -0.00890212 -0.00843013 -0.00794098 -0.00743467 -0.00691121 -0.00637058 -0.0058128 -0.00523787 -0.00464577 -0.00406511 -0.00352449 -0.00302391 -0.00256336 -0.00214285 -0.00176238 -0.00142194 -0.00112154 -0.000858677 -0.000630865 -0.0004381 -0.000280384 -0.000157716 -7.00961e-05 -1.7524e-05 0 0 -2.00176e-05 -8.00705e-05 -0.000180159 -0.000320282 -0.000500441 -0.000720635 -0.000980864 -0.00128113 -0.0016232 -0.00200885 -0.00243807 -0.00291088 -0.00342726 -0.00398721 -0.00459075 -0.00523786 -0.0058952 -0.00652942 -0.00714051 -0.00772848 -0.00829332 -0.00883505 -0.00935364 -0.00984912 -0.0103035 -0.0106989 -0.0110352 -0.0113125 -0.0115308 -0.0116901 -0.0117903 -0.0118315 -0.0118163 -0.0117475 -0.0116252 -0.0114491 -0.0112195 -0.0109362 -0.0105993 -0.0102088 -0.00978211 -0.00933673 -0.00887266 -0.00838989 -0.00788842 -0.00736826 -0.00682941 -0.00627186 -0.00571624 -0.00518317 -0.00467264 -0.00418467 -0.00371925 -0.00327638 -0.00285606 -0.00245829 -0.00209595 -0.00178192 -0.0015162 -0.0012988 -0.0011297 -0.00100892 -0.000936456 -0.0009123 -0.000936456 -0.00100892 -0.0011297 -0.0012988 -0.0015162 -0.00178192 -0.00209595 -0.00245829 -0.00285606 -0.00327638 -0.00371925 -0.00418467 -0.00467264 -0.00518317 -0.00571624 -0.00627186 -0.00682941 -0.00736826 -0.00788842 -0.00838989 -0.00887266 -0.00933673 -0.00978211 -0.0102088 -0.0105993 -0.0109362 -0.0112195 -0.0114491 -0.0116252 -0.0117475 -0.0118163 -0.0118315 -0.0117903 -0.0116901 -0.0115308 -0.0113125 -0.0110352 -0.0106989 -0.0103035 -0.00984912 -0.00935365 -0.00883505 -0.00829333 -0.00772848 -0.00714051 -0.00652942 -0.00589521 -0.00523787 -0.00459075 -0.00398722 -0.00342726 -0.00291088 -0.00243808 -0.00200885 -0.0016232 -0.00128113 -0.000980865 -0.000720636 -0.000500441 -0.000320282 -0.000180159 -8.00706e-05 -2.00177e-05 0 0 -2.25351e-05 -9.01405e-05 -0.000202816 -0.000360562 -0.000563378 -0.000811265 -0.00110422 -0.00144225 -0.00182603 -0.00225625 -0.00273291 -0.00325601 -0.00382555 -0.00444153 -0.00510394 -0.0058128 -0.00652942 -0.00721512 -0.0078699 -0.00849377 -0.00908672 -0.00964875 -0.0101799 -0.0106801 -0.0111287 -0.011505 -0.011809 -0.0120408 -0.0122002 -0.0122874 -0.0123023 -0.012245 -0.0121191 -0.0119286 -0.0116734 -0.0113536 -0.0109691 -0.0105199 -0.010006 -0.00942754 -0.00880639 -0.00816465 -0.0075023 -0.00681935 -0.00611579 -0.00539162 -0.00464685 -0.00388148 -0.00312175 -0.00239393 -0.00169801 -0.00103399 -0.000401877 0.000198337 0.000766648 0.00130306 0.00179099 0.00221386 0.00257167 0.00286443 0.00309213 0.00325478 0.00335236 0.00338489 0.00335236 0.00325478 0.00309213 0.00286443 0.00257167 0.00221386 0.00179099 0.00130306 0.000766649 0.000198337 -0.000401877 -0.00103399 -0.00169801 -0.00239393 -0.00312175 -0.00388148 -0.00464685 -0.00539162 -0.00611578 -0.00681934 -0.0075023 -0.00816465 -0.00880639 -0.00942753 -0.010006 -0.0105199 -0.0109691 -0.0113536 -0.0116734 -0.0119286 -0.0121191 -0.012245 -0.0123023 -0.0122874 -0.0122002 -0.0120408 -0.011809 -0.011505 -0.0111287 -0.0106801 -0.0101799 -0.00964876 -0.00908672 -0.00849377 -0.00786991 -0.00721512 -0.00652942 -0.0058128 -0.00510395 -0.00444153 -0.00382555 -0.00325601 -0.00273291 -0.00225625 -0.00182603 -0.00144225 -0.00110422 -0.000811265 -0.000563379 -0.000360562 -0.000202816 -9.01406e-05 -2.25351e-05 0 0 -2.50765e-05 -0.000100306 -0.000225688 -0.000401224 -0.000626912 -0.000902753 -0.00122875 -0.00160489 -0.00203043 -0.00250458 -0.00302736 -0.00359876 -0.00421878 -0.00488743 -0.00560469 -0.00637058 -0.00714051 -0.0078699 -0.00855876 -0.00920708 -0.00981486 -0.0103821 -0.0109088 -0.011395 -0.0118169 -0.0121509 -0.012397 -0.0125552 -0.0126254 -0.0126078 -0.0125022 -0.0123087 -0.0120324 -0.0116787 -0.0112475 -0.0107388 -0.0101526 -0.00948894 -0.00874777 -0.0079291 -0.00706049 -0.00616949 -0.00525609 -0.00432029 -0.0033621 -0.00238151 -0.00137853 -0.000353157 0.000661549 0.00163252 0.00255975 0.00344325 0.00428301 0.00507903 0.00583132 0.00653987 0.00718364 0.00774156 0.00821366 0.00859992 0.00890034 0.00911493 0.00924368 0.0092866 0.00924368 0.00911493 0.00890034 0.00859992 0.00821366 0.00774157 0.00718364 0.00653987 0.00583132 0.00507903 0.00428301 0.00344325 0.00255975 0.00163252 0.00066155 -0.000353156 -0.00137853 -0.00238151 -0.0033621 -0.00432029 -0.00525609 -0.00616949 -0.00706049 -0.0079291 -0.00874777 -0.00948894 -0.0101526 -0.0107388 -0.0112475 -0.0116787 -0.0120324 -0.0123087 -0.0125022 -0.0126078 -0.0126254 -0.0125552 -0.012397 -0.0121509 -0.0118169 -0.011395 -0.0109088 -0.0103821 -0.00981486 -0.00920708 -0.00855876 -0.00786991 -0.00714051 -0.00637058 -0.0056047 -0.00488743 -0.00421879 -0.00359877 -0.00302737 -0.00250459 -0.00203043 -0.0016049 -0.00122875 -0.000902754 -0.000626912 -0.000401224 -0.000225688 -0.000100306 -2.50765e-05 0 0 -2.76417e-05 -0.000110567 -0.000248775 -0.000442267 -0.000691042 -0.0009951 -0.00135444 -0.00176907 -0.00223