<?xml version="1.0"?> 
<VTKFile type="StructuredGrid" version="0.1"> 
<StructuredGrid WholeExtent="0 128 0 128 0 0"> 
<Piece Extent="0 128 0 128 0 0"> 
<PointData>
<DataArray type="Float32" Name="u" format="ascii" NumberOfComponents="1"> 
0 0 0 0 0 0 0 0 0 0 0 0 0 0 0 0 0 0 0 0 0 0 0 0 0 0 0 0 0 0 0 0 0 0 0 0 0 0 0 0 0 0 0 0 0 0 0 0 0 0 0 0 0 0 0 0 0 0 0 0 0 0 0 0 0 0 0 0 0 0 0 0 0 0 0 0 0 0 0 0 0 0 0 0 0 0 0 0 0 0 0 0 0 0 0 0 0 0 0 0 0 0 0 0 0 0 0 0 0 0 0 0 0 0 0 0 0 0 0 0 0 0 0 0 0 0 0 0 0 0 -6.18737e-08 -2.47495e-07 -5.56863e-07 -9.89979e-07 -1.54684e-06 -2.22745e-06 -3.03181e-06 -3.95992e-06 -5.02567e-06 -6.24296e-06 -7.6118e-06 -9.13219e-06 -1.08041e-05 -1.26276e-05 -1.46026e-05 -1.67292e-05 -1.88976e-05 -2.09984e-05 -2.30314e-05 -2.49968e-05 -2.68944e-05 -2.87243e-05 -3.04864e-05 -3.21809e-05 -3.37372e-05 -3.50849e-05 -3.62239e-05 -3.71543e-05 -3.78761e-05 -3.83893e-05 -3.86939e-05 -3.87898e-05 -3.86665e-05 -3.83135e-05 -3.77308e-05 -3.69183e-05 -3.58761e-05 -3.46042e-05 -3.31025e-05 -3.13711e-05 -2.94666e-05 -2.74458e-05 -2.53087e-05 -2.30551e-05 -2.06853e-05 -1.81991e-05 -1.55965e-05 -1.28776e-05 -1.01456e-05 -7.50341e-06 -4.95122e-06 -2.48898e-06 -1.16697e-07 2.16563e-06 4.35801e-06 6.46044e-06 8.3893e-06 1.0061e-05 1.14755e-05 1.26328e-05 1.35329e-05 1.41759e-05 1.45617e-05 1.46902e-05 1.45617e-05 1.41759e-05 1.35329e-05 1.26328e-05 1.14755e-05 1.0061e-05 8.3893e-06 6.46044e-06 4.35802e-06 2.16564e-06 -1.16696e-07 -2.48898e-06 -4.95122e-06 -7.50341e-06 -1.01456e-05 -1.28776e-05 -1.55965e-05 -1.81991e-05 -2.06853e-05 -2.30551e-05 -2.53087e-05 -2.74458e-05 -2.94666e-05 -3.13711e-05 -3.31025e-05 -3.46042e-05 -3.58761e-05 -3.69183e-05 -3.77308e-05 -3.83135e-05 -3.86665e-05 -3.87898e-05 -3.86939e-05 -3.83893e-05 -3.78761e-05 -3.71543e-05 -3.62239e-05 -3.50849e-05 -3.37372e-05 -3.21809e-05 -3.04865e-05 -2.87243e-05 -2.68944e-05 -2.49968e-05 -2.30314e-05 -2.09984e-05 -1.88976e-05 -1.67292e-05 -1.46026e-05 -1.26276e-05 -1.08041e-05 -9.13219e-06 -7.61181e-06 -6.24297e-06 -5.02567e-06 -3.95992e-06 -3.03181e-06 -2.22746e-06 -1.54684e-06 -9.8998e-07 -5.56864e-07 -2.47495e-07 -6.18738e-08 0 0 -2.47495e-07 -9.89979e-07 -2.22745e-06 -3.95992e-06 -6.18737e-06 -8.90982e-06 -1.21272e-05 -1.58397e-05 -2.01027e-05 -2.49719e-05 -3.04472e-05 -3.65288e-05 -4.32165e-05 -5.05104e-05 -5.84104e-05 -6.69167e-05 -7.55906e-05 -8.39936e-05 -9.21258e-05 -9.99871e-05 -0.000107577 -0.000114897 -0.000121946 -0.000128724 -0.000134949 -0.000140339 -0.000144896 -0.000148617 -0.000151505 -0.000153557 -0.000154775 -0.000155159 -0.000154666 -0.000153254 -0.000150923 -0.000147673 -0.000143505 -0.000138417 -0.00013241 -0.000125484 -0.000117866 -0.000109783 -0.000101235 -9.22206e-05 -8.27412e-05 -7.27964e-05 -6.23862e-05 -5.15106e-05 -4.05822e-05 -3.00136e-05 -1.98049e-05 -9.95593e-06 -4.66788e-07 8.66254e-06 1.74321e-05 2.58418e-05 3.35572e-05 4.02439e-05 4.59019e-05 5.05312e-05 5.41317e-05 5.67035e-05 5.82466e-05 5.8761e-05 5.82466e-05 5.67035e-05 5.41317e-05 5.05312e-05 4.59019e-05 4.02439e-05 3.35572e-05 2.58418e-05 1.74321e-05 8.66254e-06 -4.66785e-07 -9.95592e-06 -1.98049e-05 -3.00136e-05 -4.05822e-05 -5.15106e-05 -6.23862e-05 -7.27964e-05 -8.27412e-05 -9.22206e-05 -0.000101235 -0.000109783 -0.000117866 -0.000125484 -0.00013241 -0.000138417 -0.000143505 -0.000147673 -0.000150923 -0.000153254 -0.000154666 -0.000155159 -0.000154775 -0.000153557 -0.000151505 -0.000148617 -0.000144896 -0.00014034 -0.000134949 -0.000128724 -0.000121946 -0.000114897 -0.000107578 -9.99871e-05 -9.21258e-05 -8.39936e-05 -7.55906e-05 -6.69167e-05 -5.84104e-05 -5.05104e-05 -4.32165e-05 -3.65288e-05 -3.04472e-05 -2.49719e-05 -2.01027e-05 -1.58397e-05 -1.21273e-05 -8.90982e-06 -6.18738e-06 -3.95992e-06 -2.22746e-06 -9.8998e-07 -2.47495e-07 0 0 -5.56863e-07 -2.22745e-06 -5.01177e-06 -8.90982e-06 -1.39216e-05 -2.00471e-05 -2.72863e-05 -3.56393e-05 -4.5231e-05 -5.61867e-05 -6.85062e-05 -8.21897e-05 -9.7237e-05 -0.000113648 -0.000131423 -0.000150562 -0.000170079 -0.000188986 -0.000207283 -0.000224971 -0.000242049 -0.000258518 -0.000274378 -0.000289628 -0.000303635 -0.000315764 -0.000326015 -0.000334389 -0.000340885 -0.000345504 -0.000348245 -0.000349108 -0.000347999 -0.000344822 -0.000339577 -0.000332265 -0.000322885 -0.000311438 -0.000297923 -0.00028234 -0.0002652 -0.000247012 -0.000227778 -0.000207496 -0.000186168 -0.000163792 -0.000140369 -0.000115899 -9.131e-05 -6.75307e-05 -4.4561e-05 -2.24008e-05 -1.05027e-06 1.94907e-05 3.92221e-05 5.8144e-05 7.55037e-05 9.05488e-05 0.000103279 0.000113695 0.000121796 0.000127583 0.000131055 0.000132212 0.000131055 0.000127583 0.000121796 0.000113695 0.000103279 9.05488e-05 7.55037e-05 5.8144e-05 3.92221e-05 1.94907e-05 -1.05027e-06 -2.24008e-05 -4.4561e-05 -6.75307e-05 -9.131e-05 -0.000115899 -0.000140369 -0.000163792 -0.000186168 -0.000207496 -0.000227778 -0.000247012 -0.0002652 -0.00028234 -0.000297923 -0.000311438 -0.000322885 -0.000332265 -0.000339577 -0.000344822 -0.000347999 -0.000349108 -0.000348245 -0.000345504 -0.000340885 -0.000334389 -0.000326015 -0.000315764 -0.000303635 -0.000289628 -0.000274378 -0.000258518 -0.000242049 -0.000224971 -0.000207283 -0.000188986 -0.000170079 -0.000150563 -0.000131423 -0.000113648 -9.72371e-05 -8.21897e-05 -6.85063e-05 -5.61867e-05 -4.52311e-05 -3.56393e-05 -2.72863e-05 -2.00471e-05 -1.39216e-05 -8.90982e-06 -5.01178e-06 -2.22746e-06 -5.56864e-07 0 0 -9.89979e-07 -3.95992e-06 -8.90982e-06 -1.58397e-05 -2.47495e-05 -3.56393e-05 -4.8509e-05 -6.33587e-05 -8.04107e-05 -9.98874e-05 -0.000121789 -0.000146115 -0.000172866 -0.000202041 -0.000233642 -0.000267667 -0.000302362 -0.000335974 -0.000368503 -0.000399948 -0.00043031 -0.000459588 -0.000487783 -0.000514895 -0.000539795 -0.000561358 -0.000579583 -0.000594469 -0.000606018 -0.000614229 -0.000619102 -0.000620637 -0.000618664 -0.000613017 -0.000603693 -0.000590693 -0.000574018 -0.000553667 -0.00052964 -0.000501937 -0.000471466 -0.000439133 -0.000404938 -0.000368882 -0.000330965 -0.000291185 -0.000249545 -0.000206042 -0.000162329 -0.000120055 -7.92195e-05 -3.98237e-05 -1.86715e-06 3.46502e-05 6.97282e-05 0.000103367 0.000134229 0.000160976 0.000183608 0.000202125 0.000216527 0.000226814 0.000232986 0.000235044 0.000232986 0.000226814 0.000216527 0.000202125 0.000183608 0.000160976 0.000134229 0.000103367 6.97282e-05 3.46502e-05 -1.86714e-06 -3.98237e-05 -7.92195e-05 -0.000120055 -0.000162329 -0.000206042 -0.000249545 -0.000291185 -0.000330965 -0.000368882 -0.000404938 -0.000439133 -0.000471466 -0.000501937 -0.00052964 -0.000553667 -0.000574018 -0.000590693 -0.000603693 -0.000613017 -0.000618665 -0.000620637 -0.000619102 -0.000614229 -0.000606018 -0.00059447 -0.000579583 -0.000561358 -0.000539795 -0.000514895 -0.000487783 -0.000459588 -0.00043031 -0.000399948 -0.000368503 -0.000335974 -0.000302362 -0.000267667 -0.000233642 -0.000202042 -0.000172866 -0.000146115 -0.000121789 -9.98875e-05 -8.04108e-05 -6.33587e-05 -4.8509e-05 -3.56393e-05 -2.47495e-05 -1.58397e-05 -8.90982e-06 -3.95992e-06 -9.8998e-07 0 0 -1.54684e-06 -6.18737e-06 -1.39216e-05 -2.47495e-05 -3.86711e-05 -5.56863e-05 -7.57953e-05 -9.89979e-05 -0.000125642 -0.000156074 -0.000190295 -0.000228305 -0.000270103 -0.00031569 -0.000365065 -0.000418229 -0.000472441 -0.00052496 -0.000575786 -0.000624919 -0.000672359 -0.000718107 -0.000762161 -0.000804523 -0.00084343 -0.000877122 -0.000905598 -0.000928858 -0.000946903 -0.000959733 -0.000967346 -0.000969745 -0.000966663 -0.000957838 -0.00094327 -0.000922958 -0.000896903 -0.000865105 -0.000827563 -0.000784277 -0.000736666 -0.000686145 -0.000632716 -0.000576379 -0.000517132 -0.000454977 -0.000389914 -0.000321941 -0.000253639 -0.000187585 -0.00012378 -6.22245e-05 -2.91743e-06 5.41409e-05 0.00010895 0.000161511 0.000209733 0.000251524 0.000286887 0.00031582 0.000338323 0.000354397 0.000364041 0.000367256 0.000364041 0.000354397 0.000338323 0.00031582 0.000286887 0.000251525 0.000209733 0.000161511 0.00010895 5.41409e-05 -2.91741e-06 -6.22245e-05 -0.00012378 -0.000187585 -0.000253639 -0.000321941 -0.000389914 -0.000454977 -0.000517132 -0.000576379 -0.000632716 -0.000686145 -0.000736666 -0.000784277 -0.000827563 -0.000865105 -0.000896903 -0.000922958 -0.00094327 -0.000957838 -0.000966663 -0.000969745 -0.000967347 -0.000959733 -0.000946904 -0.000928859 -0.000905598 -0.000877122 -0.00084343 -0.000804523 -0.000762161 -0.000718107 -0.00067236 -0.000624919 -0.000575786 -0.00052496 -0.000472441 -0.000418229 -0.000365065 -0.00031569 -0.000270103 -0.000228305 -0.000190295 -0.000156074 -0.000125642 -9.8998e-05 -7.57954e-05 -5.56864e-05 -3.86711e-05 -2.47495e-05 -1.39216e-05 -6.18738e-06 -1.54684e-06 0 0 -2.22745e-06 -8.90982e-06 -2.00471e-05 -3.56393e-05 -5.56863e-05 -8.01883e-05 -0.000109145 -0.000142557 -0.000180924 -0.000224747 -0.000274025 -0.000328759 -0.000388948 -0.000454593 -0.000525694 -0.00060225 -0.000680315 -0.000755942 -0.000829132 -0.000899884 -0.000968197 -0.00103407 -0.00109751 -0.00115851 -0.00121454 -0.00126306 -0.00130406 -0.00133756 -0.00136354 -0.00138202 -0.00139298 -0.00139643 -0.001392 -0.00137929 -0.00135831 -0.00132906 -0.00129154 -0.00124575 -0.00119169 -0.00112936 -0.0010608 -0.000988049 -0.000911112 -0.000829985 -0.000744671 -0.000655167 -0.000561476 -0.000463595 -0.00036524 -0.000270123 -0.000178244 -8.96033e-05 -4.20109e-06 7.79629e-05 0.000156889 0.000232576 0.000302015 0.000362195 0.000413117 0.000454781 0.000487185 0.000510332 0.000524219 0.000528849 0.000524219 0.000510332 0.000487185 0.000454781 0.000413117 0.000362195 0.000302015 0.000232576 0.000156889 7.79629e-05 -4.20107e-06 -8.96033e-05 -0.000178244 -0.000270123 -0.00036524 -0.000463595 -0.000561476 -0.000655167 -0.000744671 -0.000829985 -0.000911112 -0.000988049 -0.0010608 -0.00112936 -0.00119169 -0.00124575 -0.00129154 -0.00132906 -0.00135831 -0.00137929 -0.001392 -0.00139643 -0.00139298 -0.00138202 -0.00136354 -0.00133756 -0.00130406 -0.00126306 -0.00121454 -0.00115851 -0.00109751 -0.00103407 -0.000968198 -0.000899884 -0.000829132 -0.000755943 -0.000680315 -0.00060225 -0.000525694 -0.000454593 -0.000388948 -0.000328759 -0.000274025 -0.000224747 -0.000180924 -0.000142557 -0.000109145 -8.01884e-05 -5.56864e-05 -3.56393e-05 -2.00471e-05 -8.90982e-06 -2.22746e-06 0 0 -3.03181e-06 -1.21272e-05 -2.72863e-05 -4.8509e-05 -7.57953e-05 -0.000109145 -0.000148559 -0.000194036 -0.000246258 -0.000305905 -0.000372978 -0.000447477 -0.000529402 -0.000618752 -0.000715528 -0.000819729 -0.000925984 -0.00102892 -0.00112854 -0.00122484 -0.00131782 -0.00140749 -0.00149384 -0.00157686 -0.00165312 -0.00171916 -0.00177497 -0.00182056 -0.00185593 -0.00188108 -0.001896 -0.0019007 -0.00189466 -0.00187736 -0.00184881 -0.001809 -0.00175793 -0.00169561 -0.00162202 -0.00153718 -0.00144386 -0.00134484 -0.00124012 -0.0011297 -0.00101358 -0.000891756 -0.000764231 -0.000631005 -0.000497132 -0.000367667 -0.00024261 -0.00012196 -5.71816e-06 0.000106116 0.000213543 0.000316562 0.000411076 0.000492988 0.000562298 0.000619007 0.000663113 0.000694618 0.000713521 0.000719822 0.000713521 0.000694618 0.000663113 0.000619007 0.000562298 0.000492988 0.000411076 0.000316562 0.000213543 0.000106116 -5.71812e-06 -0.00012196 -0.00024261 -0.000367667 -0.000497132 -0.000631005 -0.000764231 -0.000891756 -0.00101358 -0.0011297 -0.00124012 -0.00134484 -0.00144386 -0.00153718 -0.00162202 -0.00169561 -0.00175793 -0.001809 -0.00184881 -0.00187736 -0.00189466 -0.0019007 -0.001896 -0.00188108 -0.00185593 -0.00182056 -0.00177497 -0.00171916 -0.00165312 -0.00157686 -0.00149384 -0.00140749 -0.00131782 -0.00122484 -0.00112854 -0.00102892 -0.000925985 -0.000819729 -0.000715528 -0.000618752 -0.000529402 -0.000447478 -0.000372979 -0.000305906 -0.000246258 -0.000194036 -0.000148559 -0.000109145 -7.57954e-05 -4.8509e-05 -2.72863e-05 -1.21273e-05 -3.03181e-06 0 0 -3.95992e-06 -1.58397e-05 -3.56393e-05 -6.33587e-05 -9.89979e-05 -0.000142557 -0.000194036 -0.000253435 -0.000321643 -0.00039955 -0.000487155 -0.00058446 -0.000691463 -0.000808166 -0.000934567 -0.00107067 -0.00120945 -0.0013439 -0.00147401 -0.00159979 -0.00172124 -0.00183835 -0.00195113 -0.00205958 -0.00215918 -0.00224543 -0.00231833 -0.00237788 -0.00242407 -0.00245692 -0.00247641 -0.00248255 -0.00247466 -0.00245207 -0.00241477 -0.00236277 -0.00229607 -0.00221467 -0.00211856 -0.00200775 -0.00188586 -0.00175653 -0.00161975 -0.00147553 -0.00132386 -0.00116474 -0.000998179 -0.000824169 -0.000649315 -0.000480218 -0.000316878 -0.000159295 -7.46861e-06 0.000138601 0.000278913 0.000413468 0.000536915 0.000643903 0.000734431 0.000808499 0.000866107 0.000907256 0.000931946 0.000940176 0.000931946 0.000907256 0.000866107 0.000808499 0.000734431 0.000643903 0.000536915 0.000413468 0.000278913 0.000138601 -7.46857e-06 -0.000159295 -0.000316878 -0.000480218 -0.000649315 -0.000824169 -0.000998179 -0.00116474 -0.00132386 -0.00147553 -0.00161975 -0.00175653 -0.00188586 -0.00200775 -0.00211856 -0.00221467 -0.00229607 -0.00236277 -0.00241477 -0.00245207 -0.00247466 -0.00248255 -0.00247641 -0.00245692 -0.00242407 -0.00237788 -0.00231833 -0.00224543 -0.00215918 -0.00205958 -0.00195113 -0.00183835 -0.00172124 -0.00159979 -0.00147401 -0.0013439 -0.00120945 -0.00107067 -0.000934567 -0.000808166 -0.000691464 -0.00058446 -0.000487156 -0.00039955 -0.000321643 -0.000253435 -0.000194036 -0.000142557 -9.8998e-05 -6.33587e-05 -3.56393e-05 -1.58397e-05 -3.95992e-06 0 0 -5.02567e-06 -2.01027e-05 -4.5231e-05 -8.04107e-05 -0.000125642 -0.000180924 -0.000246258 -0.000321643 -0.000408118 -0.000506724 -0.00061746 -0.000740325 -0.00087532 -0.00102245 -0.0011817 -0.00135309 -0.00152766 -0.00169649 -0.00185956 -0.00201689 -0.00216847 -0.00231429 -0.00245437 -0.0025887 -0.00271154 -0.00281716 -0.00290556 -0.00297673 -0.00303067 -0.00306739 -0.00308689 -0.00308916 -0.00307338 -0.00303872 -0.00298519 -0.00291278 -0.0028215 -0.00271133 -0.00258229 -0.00243438 -0.0022723 -0.00210079 -0.00191984 -0.00172946 -0.00152963 -0.00132036 -0.00110166 -0.000873521 -0.000644482 -0.000423085 -0.000209331 -3.21893e-06 0.000195251 0.000386078 0.000569263 0.000744806 0.000905795 0.00104532 0.00116338 0.00125997 0.0013351 0.00138876 0.00142096 0.00143169 0.00142096 0.00138876 0.0013351 0.00125997 0.00116338 0.00104532 0.000905795 0.000744806 0.000569263 0.000386078 0.000195251 -3.21888e-06 -0.000209331 -0.000423085 -0.000644482 -0.000873521 -0.00110166 -0.00132036 -0.00152963 -0.00172946 -0.00191984 -0.00210079 -0.0022723 -0.00243438 -0.00258229 -0.00271133 -0.0028215 -0.00291278 -0.00298519 -0.00303872 -0.00307338 -0.00308916 -0.00308689 -0.00306739 -0.00303067 -0.00297673 -0.00290556 -0.00281716 -0.00271155 -0.0025887 -0.00245437 -0.0023143 -0.00216847 -0.00201689 -0.00185956 -0.00169649 -0.00152766 -0.00135309 -0.0011817 -0.00102245 -0.000875321 -0.000740325 -0.00061746 -0.000506724 -0.000408119 -0.000321643 -0.000246258 -0.000180924 -0.000125642 -8.04108e-05 -4.52311e-05 -2.01027e-05 -5.02567e-06 0 0 -6.24296e-06 -2.49719e-05 -5.61867e-05 -9.98874e-05 -0.000156074 -0.000224747 -0.000305905 -0.00039955 -0.000506724 -0.000628472 -0.000764794 -0.000915689 -0.00108116 -0.0012612 -0.00145582 -0.00166501 -0.00187757 -0.0020823 -0.00227921 -0.00246828 -0.00264953 -0.00282294 -0.00298853 -0.00314629 -0.00328905 -0.00340964 -0.00350807 -0.00358433 -0.00363842 -0.00367036 -0.00368012 -0.00366772 -0.00363221 -0.00357266 -0.00348906 -0.00338142 -0.00324973 -0.003094 -0.00291422 -0.00271039 -0.0024887 -0.00225531 -0.00201024 -0.00175347 -0.00148501 -0.00120486 -0.000913022 -0.00060949 -0.000305324 -1.15773e-05 0.000271749 0.000544656 0.000807143 0.00105921 0.00130086 0.00153208 0.00174397 0.00192761 0.002083 0.00221013 0.00230902 0.00237965 0.00242203 0.00243615 0.00242203 0.00237965 0.00230902 0.00221014 0.002083 0.00192761 0.00174397 0.00153208 0.00130086 0.00105921 0.000807143 0.000544656 0.000271749 -1.15772e-05 -0.000305324 -0.00060949 -0.000913021 -0.00120486 -0.00148501 -0.00175347 -0.00201024 -0.00225531 -0.0024887 -0.00271039 -0.00291422 -0.003094 -0.00324973 -0.00338142 -0.00348906 -0.00357266 -0.00363221 -0.00366772 -0.00368012 -0.00367036 -0.00363843 -0.00358433 -0.00350807 -0.00340964 -0.00328905 -0.00314629 -0.00298853 -0.00282294 -0.00264953 -0.00246828 -0.00227921 -0.00208231 -0.00187757 -0.00166501 -0.00145582 -0.0012612 -0.00108116 -0.00091569 -0.000764794 -0.000628473 -0.000506724 -0.00039955 -0.000305906 -0.000224747 -0.000156074 -9.98875e-05 -5.61867e-05 -2.49719e-05 -6.24297e-06 0 0 -7.6118e-06 -3.04472e-05 -6.85062e-05 -0.000121789 -0.000190295 -0.000274025 -0.000372978 -0.000487155 -0.000617459 -0.000764794 -0.000929159 -0.00111055 -0.00130898 -0.00152443 -0.00175692 -0.00200644 -0.00225918 -0.00250135 -0.00273295 -0.00295397 -0.00316442 -0.0033643 -0.0035536 -0.00373233 -0.00389168 -0.00402286 -0.00412586 -0.00420069 -0.00424734 -0.00426581 -0.00425611 -0.00421823 -0.00415116 -0.00405388 -0.00392639 -0.00376868 -0.00358077 -0.00336265 -0.00311432 -0.00283578 -0.00253504 -0.00222009 -0.00189093 -0.00154757 -0.00119 -0.000818233 -0.000432258 -3.20784e-05 0.000368159 0.000754306 0.00112636 0.00148433 0.00182821 0.002158 0.00247369 0.0027753 0.00305146 0.00329079 0.0034933 0.00365899 0.00378786 0.00387992 0.00393515 0.00395356 0.00393515 0.00387992 0.00378786 0.00365899 0.0034933 0.00329079 0.00305146 0.0027753 0.00247369 0.002158 0.00182821 0.00148433 0.00112636 0.000754306 0.000368159 -3.20783e-05 -0.000432258 -0.000818233 -0.00119 -0.00154757 -0.00189093 -0.00222009 -0.00253504 -0.00283578 -0.00311432 -0.00336265 -0.00358077 -0.00376868 -0.00392639 -0.00405388 -0.00415116 -0.00421823 -0.00425611 -0.00426581 -0.00424734 -0.00420069 -0.00412586 -0.00402286 -0.00389168 -0.00373233 -0.0035536 -0.0033643 -0.00316442 -0.00295397 -0.00273295 -0.00250135 -0.00225918 -0.00200644 -0.00175692 -0.00152444 -0.00130898 -0.00111055 -0.000929159 -0.000764794 -0.00061746 -0.000487156 -0.000372979 -0.000274025 -0.000190295 -0.000121789 -6.85063e-05 -3.04472e-05 -7.61181e-06 0 0 -9.13219e-06 -3.65288e-05 -8.21897e-05 -0.000146115 -0.000228305 -0.000328759 -0.000447477 -0.00058446 -0.000740325 -0.000915689 -0.00111055 -0.00132492 -0.00155878 -0.00181214 -0.00208501 -0.00237737 -0.00267249 -0.00295363 -0.00322079 -0.00347396 -0.00371315 -0.00393836 -0.00414959 -0.00434683 -0.00451946 -0.00465683 -0.00475894 -0.0048258 -0.00485741 -0.00485376 -0.00481485 -0.00474069 -0.00463022 -0.00448237 -0.00429716 -0.00407458 -0.00381463 -0.00351731 -0.00318262 -0.00281056 -0.00241133 -0.00199512 -0.00156193 -0.00111176 -0.000644606 -0.000160478 0.000340629 0.000858716 0.00137597 0.00187456 0.00235451 0.0028158 0.00325845 0.00368244 0.00408778 0.00447446 0.00482824 0.00513484 0.00539428 0.00560655 0.00577164 0.00588957 0.00596032 0.00598391 0.00596032 0.00588957 0.00577164 0.00560655 0.00539428 0.00513484 0.00482824 0.00447446 0.00408778 0.00368244 0.00325845 0.0028158 0.00235451 0.00187456 0.00137597 0.000858716 0.000340629 -0.000160478 -0.000644606 -0.00111176 -0.00156193 -0.00199512 -0.00241133 -0.00281056 -0.00318262 -0.00351731 -0.00381463 -0.00407458 -0.00429716 -0.00448237 -0.00463022 -0.00474069 -0.00481485 -0.00485376 -0.00485741 -0.0048258 -0.00475894 -0.00465683 -0.00451946 -0.00434683 -0.00414959 -0.00393836 -0.00371315 -0.00347396 -0.00322079 -0.00295363 -0.00267249 -0.00237737 -0.00208501 -0.00181214 -0.00155878 -0.00132492 -0.00111055 -0.00091569 -0.000740325 -0.00058446 -0.000447478 -0.000328759 -0.000228305 -0.000146115 -8.21898e-05 -3.65288e-05 -9.13219e-06 0 0 -1.08041e-05 -4.32165e-05 -9.7237e-05 -0.000172866 -0.000270103 -0.000388948 -0.000529402 -0.000691463 -0.00087532 -0.00108116 -0.00130898 -0.00155878 -0.00183056 -0.00212433 -0.00244008 -0.00277781 -0.0031175 -0.00343914 -0.00374272 -0.00402824 -0.00429571 -0.00454513 -0.00477649 -0.00498979 -0.00517237 -0.00531154 -0.00540731 -0.00545968 -0.00546864 -0.00543419 -0.00535635 -0.0052351 -0.00506939 -0.00485815 -0.00460139 -0.0042991 -0.00395129 -0.00355796 -0.0031191 -0.00263472 -0.00211757 -0.0015804 -0.00102322 -0.000446029 0.000151179 0.000768402 0.00140564 0.00206289 0.0027181 0.0033492 0.00395619 0.00453908 0.00509786 0.00563253 0.0061431 0.00662956 0.00707432 0.00745978 0.00778594 0.00805279 0.00826034 0.0084086 0.00849755 0.0085272 0.00849755 0.0084086 0.00826034 0.00805279 0.00778594 0.00745978 0.00707432 0.00662956 0.0061431 0.00563253 0.00509786 0.00453908 0.00395619 0.0033492 0.0027181 0.00206289 0.00140564 0.000768402 0.000151179 -0.000446029 -0.00102322 -0.0015804 -0.00211757 -0.00263472 -0.0031191 -0.00355796 -0.00395129 -0.0042991 -0.00460139 -0.00485815 -0.00506939 -0.0052351 -0.00535635 -0.0054342 -0.00546864 -0.00545968 -0.00540731 -0.00531154 -0.00517237 -0.0049898 -0.00477649 -0.00454513 -0.00429571 -0.00402824 -0.00374272 -0.00343914 -0.0031175 -0.00277781 -0.00244008 -0.00212433 -0.00183057 -0.00155878 -0.00130898 -0.00108116 -0.000875321 -0.000691464 -0.000529402 -0.000388948 -0.000270103 -0.000172866 -9.72371e-05 -4.32165e-05 -1.08041e-05 0 0 -1.26276e-05 -5.05103e-05 -0.000113648 -0.000202041 -0.00031569 -0.000454593 -0.000618752 -0.000808166 -0.00102245 -0.0012612 -0.00152443 -0.00181214 -0.00212433 -0.00246099 -0.00282213 -0.00320775 -0.00359421 -0.00395787 -0.00429874 -0.00461682 -0.00491211 -0.0051846 -0.00543431 -0.00566122 -0.00585042 -0.005987 -0.00607096 -0.0061023 -0.00608102 -0.00600712 -0.0058806 -0.00570146 -0.00546867 -0.00518121 -0.00483907 -0.00444226 -0.00399077 -0.00348461 -0.00292377 -0.00230826 -0.00165376 -0.000975947 -0.000274824 0.00044961 0.00119735 0.00196841 0.00276277 0.00358045 0.00439455 0.0051782 0.0059314 0.00665415 0.00734644 0.00800828 0.00863967 0.0092406 0.00978971 0.0102656 0.0106683 0.0109977 0.011254 0.011437 0.0115468 0.0115834 0.0115468 0.011437 0.011254 0.0109977 0.0106683 0.0102656 0.00978971 0.0092406 0.00863967 0.00800828 0.00734644 0.00665415 0.0059314 0.0051782 0.00439455 0.00358045 0.00276277 0.00196841 0.00119735 0.00044961 -0.000274824 -0.000975947 -0.00165376 -0.00230826 -0.00292377 -0.00348461 -0.00399077 -0.00444226 -0.00483907 -0.00518121 -0.00546867 -0.00570146 -0.0058806 -0.00600712 -0.00608102 -0.0061023 -0.00607096 -0.005987 -0.00585042 -0.00566122 -0.00543431 -0.00518461 -0.00491211 -0.00461682 -0.00429874 -0.00395787 -0.00359421 -0.00320775 -0.00282213 -0.00246099 -0.00212433 -0.00181214 -0.00152444 -0.0012612 -0.00102245 -0.000808166 -0.000618752 -0.000454593 -0.00031569 -0.000202042 -0.000113648 -5.05104e-05 -1.26276e-05 0 0 -1.46026e-05 -5.84104e-05 -0.000131423 -0.000233642 -0.000365065 -0.000525694 -0.000715527 -0.000934567 -0.0011817 -0.00145582 -0.00175692 -0.00208501 -0.00244008 -0.00282213 -0.00323117 -0.00366719 -0.00410261 -0.00450984 -0.00488886 -0.0052397 -0.00556234 -0.00585679 -0.00612304 -0.0063611 -0.0065536 -0.00668321 -0.0067499 -0.00675369 -0.00669457 -0.00657254 -0.00638761 -0.00613977 -0.00582807 -0.00545154 -0.0050102 -0.00450404 -0.00393306 -0.00329725 -0.00259663 -0.00183119 -0.0010199 -0.000181747 0.000683274 0.00157516 0.00249392 0.00343954 0.00441203 0.00541139 0.00640533 0.00736159 0.00828015 0.00916102 0.0100042 0.0108097 0.0115775 0.0123076 0.0129744 0.0135523 0.0140413 0.0144414 0.0147525 0.0149748 0.0151082 0.0151526 0.0151082 0.0149748 0.0147525 0.0144414 0.0140413 0.0135523 0.0129744 0.0123076 0.0115775 0.0108097 0.0100042 0.00916102 0.00828015 0.00736159 0.00640533 0.00541139 0.00441203 0.00343954 0.00249392 0.00157516 0.000683273 -0.000181748 -0.0010199 -0.00183119 -0.00259663 -0.00329725 -0.00393306 -0.00450404 -0.0050102 -0.00545154 -0.00582807 -0.00613977 -0.00638761 -0.00657254 -0.00669457 -0.00675369 -0.0067499 -0.00668321 -0.00655361 -0.0063611 -0.00612304 -0.00585679 -0.00556234 -0.0052397 -0.00488887 -0.00450984 -0.00410261 -0.00366719 -0.00323117 -0.00282213 -0.00244008 -0.00208501 -0.00175692 -0.00145582 -0.0011817 -0.000934567 -0.000715528 -0.000525694 -0.000365065 -0.000233642 -0.000131424 -5.84104e-05 -1.46026e-05 0 0 -1.67292e-05 -6.69166e-05 -0.000150562 -0.000267667 -0.000418229 -0.00060225 -0.000819729 -0.00107067 -0.00135309 -0.00166501 -0.00200644 -0.00237737 -0.00277781 -0.00320775 -0.00366719 -0.00415614 -0.00464272 -0.00509503 -0.00551308 -0.00589687 -0.0062464 -0.00656168 -0.00684269 -0.00708944 -0.00728193 -0.00740016 -0.00744412 -0.00741383 -0.00730927 -0.00713045 -0.00687737 -0.00655003 -0.00614757 -0.00566916 -0.00511479 -0.00448445 -0.00377815 -0.00299589 -0.00213767 -0.00120349 -0.000215992 0.000802196 0.00185107 0.00293063 0.00404087 0.0051818 0.00635341 0.00755571 0.00875044 0.00989934 0.0110024 0.0120597 0.0130711 0.0140367 0.0149565 0.0158305 0.0166284 0.0173199 0.017905 0.0183837 0.018756 0.019022 0.0191816 0.0192347 0.0191816 0.019022 0.018756 0.0183837 0.017905 0.0173199 0.0166284 0.0158305 0.0149565 0.0140367 0.0130711 0.0120597 0.0110024 0.00989934 0.00875044 0.00755571 0.00635341 0.0051818 0.00404087 0.00293063 0.00185107 0.000802196 -0.000215992 -0.0012035 -0.00213768 -0.00299589 -0.00377815 -0.00448445 -0.00511479 -0.00566916 -0.00614758 -0.00655003 -0.00687737 -0.00713045 -0.00730927 -0.00741383 -0.00744412 -0.00740016 -0.00728193 -0.00708944 -0.00684269 -0.00656168 -0.00624641 -0.00589687 -0.00551308 -0.00509503 -0.00464272 -0.00415615 -0.0036672 -0.00320775 -0.00277781 -0.00237737 -0.00200644 -0.00166501 -0.00135309 -0.00107067 -0.000819729 -0.00060225 -0.000418229 -0.000267667 -0.000150563 -6.69167e-05 -1.67292e-05 0 0 -1.88976e-05 -7.55905e-05 -0.000170079 -0.000302362 -0.000472441 -0.000680315 -0.000925984 -0.00120945 -0.00152766 -0.00187757 -0.00225918 -0.00267249 -0.0031175 -0.00359421 -0.00410261 -0.00464272 -0.00517803 -0.00567205 -0.00612478 -0.00653622 -0.00690637 -0.00723523 -0.0075228 -0.00776908 -0.00795124 -0.00804644 -0.00805468 -0.00797595 -0.00781027 -0.00755763 -0.00721803 -0.00679147 -0.0062773 -0.0056749 -0.00498425 -0.00420537 -0.00333824 -0.00238287 -0.00133926 -0.000207404 0.00098588 0.00221378 0.00347631 0.00477345 0.00610522 0.0074716 0.00887261 0.0103082 0.0117335 0.0131035 0.0144181 0.0156775 0.0168815 0.0180302 0.0191236 0.0201616 0.0211089 0.0219298 0.0226245 0.0231929 0.0236349 0.0239507 0.0241401 0.0242033 0.0241401 0.0239507 0.0236349 0.0231929 0.0226245 0.0219298 0.0211089 0.0201616 0.0191236 0.0180302 0.0168815 0.0156775 0.0144181 0.0131035 0.0117335 0.0103082 0.00887261 0.0074716 0.00610522 0.00477345 0.00347631 0.00221378 0.00098588 -0.000207405 -0.00133926 -0.00238287 -0.00333824 -0.00420537 -0.00498426 -0.0056749 -0.0062773 -0.00679147 -0.00721803 -0.00755763 -0.00781027 -0.00797595 -0.00805468 -0.00804644 -0.00795124 -0.00776909 -0.0075228 -0.00723523 -0.00690637 -0.00653622 -0.00612478 -0.00567205 -0.00517803 -0.00464272 -0.00410261 -0.00359421 -0.0031175 -0.00267249 -0.00225918 -0.00187757 -0.00152766 -0.00120945 -0.000925985 -0.000680315 -0.000472441 -0.000302362 -0.000170079 -7.55906e-05 -1.88976e-05 0 0 -2.09984e-05 -8.39936e-05 -0.000188986 -0.000335974 -0.00052496 -0.000755942 -0.00102892 -0.0013439 -0.00169649 -0.0020823 -0.00250135 -0.00295363 -0.00343913 -0.00395787 -0.00450983 -0.00509503 -0.00567205 -0.00619948 -0.00667734 -0.00710561 -0.0074843 -0.00781341 -0.00809294 -0.00832288 -0.0084774 -0.00853064 -0.00848261 -0.0083333 -0.00808272 -0.00773086 -0.00727772 -0.00672331 -0.00606736 -0.0053096 -0.00445004 -0.00348867 -0.0024255 -0.00126052 6.27265e-06 0.00137487 0.00281363 0.00429092 0.00580674 0.00736109 0.00895397 0.0105854 0.0122553 0.0139638 0.0156582 0.017286 0.0188471 0.0203416 0.0217695 0.0231307 0.0244252 0.0256532 0.0267731 0.0277438 0.0285651 0.029237 0.0297597 0.030133 0.030357 0.0304316 0.030357 0.030133 0.0297597 0.029237 0.0285651 0.0277438 0.0267731 0.0256532 0.0244252 0.0231307 0.0217695 0.0203416 0.0188471 0.017286 0.0156582 0.0139638 0.0122553 0.0105854 0.00895397 0.00736109 0.00580674 0.00429092 0.00281363 0.00137487 6.27208e-06 -0.00126052 -0.0024255 -0.00348867 -0.00445004 -0.00530961 -0.00606736 -0.00672331 -0.00727772 -0.00773086 -0.00808272 -0.0083333 -0.00848261 -0.00853064 -0.0084774 -0.00832288 -0.00809294 -0.00781341 -0.0074843 -0.00710561 -0.00667734 -0.00619948 -0.00567205 -0.00509503 -0.00450984 -0.00395787 -0.00343914 -0.00295363 -0.00250135 -0.00208231 -0.00169649 -0.0013439 -0.00102892 -0.000755943 -0.00052496 -0.000335974 -0.000188986 -8.39936e-05 -2.09984e-05 0 0 -2.30314e-05 -9.21257e-05 -0.000207283 -0.000368503 -0.000575786 -0.000829132 -0.00112854 -0.00147401 -0.00185956 -0.00227921 -0.00273295 -0.00322078 -0.00374272 -0.00429874 -0.00488886 -0.00551308 -0.00612478 -0.00667734 -0.00717076 -0.00760505 -0.0079802 -0.00829621 -0.00855309 -0.00875083 -0.0088604 -0.00885277 -0.00872792 -0.00848587 -0.0081266 -0.00765013 -0.00705645 -0.00634557 -0.00551775 -0.00457327 -0.00351215 -0.00233436 -0.00103992 0.000371168 0.00189891 0.00354332 0.00526725 0.0070336 0.00884236 0.0106935 0.0125871 0.0145231 0.0165015 0.0185224 0.0205245 0.0224468 0.0242894 0.0260521 0.0277351 0.0293382 0.0308616 0.0323052 0.0336211 0.0347616 0.0357266 0.0365162 0.0371303 0.0375689 0.0378321 0.0379199 0.0378321 0.0375689 0.0371303 0.0365162 0.0357266 0.0347616 0.0336211 0.0323052 0.0308616 0.0293382 0.0277351 0.0260521 0.0242894 0.0224468 0.0205245 0.0185224 0.0165015 0.0145231 0.0125871 0.0106935 0.00884236 0.0070336 0.00526725 0.00354332 0.00189891 0.000371167 -0.00103993 -0.00233436 -0.00351215 -0.00457327 -0.00551775 -0.00634557 -0.00705645 -0.00765013 -0.0081266 -0.00848587 -0.00872792 -0.00885277 -0.00886041 -0.00875084 -0.00855309 -0.00829622 -0.0079802 -0.00760505 -0.00717076 -0.00667734 -0.00612478 -0.00551308 -0.00488887 -0.00429874 -0.00374272 -0.00322079 -0.00273295 -0.00227921 -0.00185956 -0.00147401 -0.00112854 -0.000829132 -0.000575786 -0.000368503 -0.000207283 -9.21258e-05 -2.30314e-05 0 0 -2.49968e-05 -9.9987e-05 -0.000224971 -0.000399948 -0.000624919 -0.000899883 -0.00122484 -0.00159979 -0.00201689 -0.00246828 -0.00295397 -0.00347396 -0.00402824 -0.00461682 -0.0052397 -0.00589687 -0.00653622 -0.00710561 -0.00760505 -0.00803453 -0.00839406 -0.00868364 -0.00890327 -0.00905294 -0.00910025 -0.00901281 -0.00879061 -0.00843365 -0.00794193 -0.00731546 -0.00655422