<?xml version="1.0"?> 
<VTKFile type="StructuredGrid" version="0.1"> 
<StructuredGrid WholeExtent="0 64 0 64 0 0"> 
<Piece Extent="0 64 0 64 0 0"> 
<PointData>
<DataArray type="Float32" Name="u" format="ascii" NumberOfComponents="1"> 
0.870821 0.905022 0.939223 0.973424 1.00763 0.886348 0.765071 0.643794 0.522517 0.616628 0.710738 0.804849 0.898959 0.823642 0.748325 0.673008 0.59769 0.487595 0.3775 0.267405 0.15731 0.168772 0.180233 0.191694 0.203155 0.255782 0.308409 0.361036 0.413663 0.500509 0.587354 0.6742 0.761046 0.780582 0.800119 0.819655 0.839191 0.830139 0.821088 0.812036 0.802985 0.683181 0.563377 0.443573 0.323768 0.378548 0.433329 0.488109 0.542889 0.430004 0.31712 0.204236 0.0913515 0.0969766 0.102602 0.108227 0.113852 0.119739 0.125626 0.131513 0.1374 0.276572 0.415744 0.554916 0.694089 0.77931 0.785602 0.791893 0.798185 0.804476 0.732927 0.661378 0.589829 0.518281 0.56674 0.615199 0.663659 0.712118 0.6497 0.587282 0.524865 0.462447 0.430598 0.398749 0.3669 0.335052 0.325145 0.315238 0.305332 0.295425 0.358446 0.421467 0.484489 0.54751 0.59781 0.648111 0.698411 0.748712 0.756106 0.763501 0.770895 0.77829 0.786334 0.794378 0.802422 0.810467 0.724639 0.638812 0.552984 0.467157 0.515267 0.563377 0.611486 0.659596 0.511861 0.364125 0.216389 0.0686538 0.128057 0.18746 0.246863 0.306266 0.29448 0.282695 0.270909 0.259123 0.387887 0.51665 0.645413 0.774177 0.687799 0.666181 0.644563 0.622945 0.601327 0.579506 0.557685 0.535865 0.514044 0.516852 0.51966 0.522469 0.525277 0.475758 0.42624 0.376722 0.327203 0.373601 0.419998 0.466395 0.512793 0.481518 0.450244 0.418969 0.387695 0.46111 0.534526 0.607941 0.681357 0.695112 0.708867 0.722622 0.736377 0.73163 0.726883 0.722135 0.717388 0.742528 0.767668 0.792808 0.817948 0.766098 0.714247 0.662396 0.610545 0.651985 0.693425 0.734864 0.776304 0.593717 0.41113 0.228543 0.0459562 0.159137 0.272318 0.385499 0.49868 0.469221 0.439763 0.410305 0.380846 0.499201 0.617556 0.73591 0.854265 0.596288 0.54676 0.497233 0.447705 0.398178 0.426085 0.453993 0.4819 0.509808 0.466965 0.424122 0.381278 0.338435 0.301816 0.265197 0.228578 0.191959 0.316603 0.441247 0.56589 0.690534 0.637892 0.585249 0.532607 0.479964 0.563774 0.647584 0.731394 0.815204 0.792414 0.769623 0.746833 0.724043 0.707154 0.690265 0.673376 0.656487 0.698723 0.740958 0.783194 0.82543 0.807556 0.789682 0.771808 0.753934 0.788703 0.823473 0.858242 0.893012 0.675573 0.458135 0.240697 0.0232585 0.190217 0.357176 0.524135 0.691094 0.643963 0.596832 0.549701 0.502569 0.610515 0.718461 0.826407 0.934353 0.504777 0.42734 0.349902 0.272465 0.195028 0.272664 0.3503 0.427935 0.505571 0.417077 0.328583 0.240088 0.151594 0.127875 0.104155 0.0804354 0.0567158 0.259606 0.462495 0.665385 0.868275 0.794265 0.720255 0.646244 0.572234 0.666438 0.760642 0.854847 0.949051 0.889715 0.83038 0.771044 0.711709 0.682678 0.653647 0.624616 0.595585 0.654917 0.714249 0.77358 0.832912 0.849014 0.865117 0.88122 0.897322 0.925422 0.953521 0.98162 1.00972 0.75743 0.50514 0.25285 0.000560817 0.221298 0.442034 0.662771 0.883508 0.818704 0.7539 0.689096 0.624293 0.72183 0.819367 0.916904 1.01444 0.512581 0.451606 0.390632 0.329657 0.268682 0.347396 0.426109 0.504822 0.583535 0.480594 0.377652 0.27471 0.171769 0.171217 0.170665 0.170114 0.169562 0.347425 0.525288 0.703151 0.881014 0.804702 0.728389 0.652077 0.575764 0.663667 0.751569 0.839472 0.927374 0.876072 0.824769 0.773467 0.722165 0.690654 0.659144 0.627633 0.596123 0.618985 0.641848 0.66471 0.687573 0.726424 0.765276 0.804127 0.842979 0.826872 0.810766 0.79466 0.778554 0.623937 0.46932 0.314703 0.160087 0.327891 0.495695 0.663499 0.831303 0.787011 0.742718 0.698426 0.654133 0.737835 0.821536 0.905237 0.988938 0.520384 0.475873 0.431361 0.386849 0.342337 0.422127 0.501918 0.581709 0.661499 0.54411 0.426721 0.309333 0.191944 0.21456 0.237176 0.259792 0.282408 0.435245 0.588081 0.740917 0.893754 0.815139 0.736524 0.657909 0.579294 0.660895 0.742496 0.824097 0.905698 0.862429 0.819159 0.77589 0.73262 0.69863 0.66464 0.63065 0.59666 0.583053 0.569447 0.555841 0.542234 0.603834 0.665435 0.727035 0.788635 0.728323 0.668012 0.6077 0.547388 0.490444 0.4335 0.376556 0.319612 0.434484 0.549356 0.664227 0.779099 0.755318 0.731537 0.707755 0.683974 0.75384 0.823705 0.893571 0.963436 0.528188 0.500139 0.47209 0.44404 0.415991 0.496859 0.577727 0.658595 0.739463 0.607627 0.475791 0.343955 0.212118 0.257902 0.303686 0.34947 0.395254 0.523064 0.650874 0.778684 0.906493 0.825576 0.744659 0.663742 0.582824 0.658124 0.733423 0.808722 0.884022 0.848785 0.813549 0.778312 0.743076 0.706606 0.670136 0.633667 0.597197 0.547122 0.497046 0.446971 0.396895 0.481244 0.565593 0.649942 0.734291 0.629774 0.525257 0.42074 0.316222 0.356951 0.39768 0.438409 0.479138 0.541077 0.603017 0.664956 0.726895 0.723625 0.720355 0.717085 0.713815 0.769844 0.825874 0.881904 0.937934 0.535992 0.524405 0.512819 0.501232 0.489645 0.571591 0.653536 0.735482 0.817427 0.671144 0.52486 0.378577 0.232293 0.301245 0.370197 0.439149 0.508101 0.610884 0.713667 0.81645 0.919233 0.836013 0.752794 0.669574 0.586355 0.655352 0.72435 0.793348 0.862345 0.835142 0.807938 0.780735 0.753531 0.714582 0.675633 0.636684 0.597734 0.51119 0.424645 0.338101 0.251556 0.358654 0.465752 0.57285 0.679948 0.531225 0.382502 0.233779 0.0850567 0.223458 0.36186 0.500262 0.638664 0.647671 0.656677 0.665684 0.674691 0.691932 0.709173 0.726414 0.743655 0.785849 0.828043 0.870237 0.912431 0.651643 0.629658 0.607672 0.585686 0.5637 0.613111 0.662523 0.711934 0.761345 0.673779 0.586212 0.498646 0.411079 0.440577 0.470075 0.499572 0.52907 0.570243 0.611416 0.652589 0.693761 0.637972 0.582182 0.526392 0.470602 0.569665 0.668728 0.767792 0.866855 0.822319 0.777784 0.733248 0.688713 0.682497 0.676281 0.670065 0.663849 0.558413 0.452977 0.34754 0.242104 0.344294 0.446484 0.548673 0.650863 0.544271 0.437678 0.331086 0.224494 0.29016 0.355827 0.421494 0.48716 0.531081 0.575002 0.618923 0.662844 0.65968 0.656516 0.653352 0.650189 0.661895 0.673602 0.685308 0.697014 0.767295 0.73491 0.702525 0.67014 0.637755 0.654632 0.671509 0.688386 0.705263 0.676414 0.647564 0.618715 0.589865 0.579909 0.569952 0.559996 0.550039 0.529602 0.509165 0.488727 0.46829 0.43993 0.41157 0.38321 0.35485 0.483978 0.613107 0.742236 0.871364 0.809497 0.747629 0.685762 0.623894 0.650412 0.676929 0.703447 0.729965 0.605636 0.481308 0.35698 0.232652 0.329934 0.427215 0.524497 0.621778 0.557317 0.492855 0.428393 0.363931 0.356862 0.349794 0.342725 0.335656 0.414492 0.493327 0.572162 0.650997 0.627428 0.60386 0.580291 0.556722 0.537941 0.51916 0.500379 0.481598 0.882946 0.840162 0.797378 0.754594 0.711809 0.696152 0.680495 0.664838 0.649181 0.679048 0.708916 0.738784 0.768651 0.719241 0.66983 0.620419 0.571008 0.488961 0.406913 0.324866 0.242819 0.241888 0.240958 0.240028 0.239097 0.398291 0.557486 0.71668 0.875874 0.796674 0.717475 0.638275 0.559075 0.618326 0.677578 0.736829 0.79608 0.65286 0.50964 0.36642 0.2232 0.315573 0.407947 0.50032 0.592694 0.570362 0.548031 0.5257 0.503368 0.423564 0.34376 0.263956 0.184153 0.297902 0.411652 0.525401 0.639151 0.595177 0.551203 0.507229 0.463255 0.413986 0.364718 0.31545 0.266181 0.998597 0.945414 0.892231 0.839047 0.785864 0.737673 0.689481 0.64129 0.593099 0.681683 0.770268 0.858853 0.947438 0.858573 0.769707 0.680842 0.591977 0.44832 0.304662 0.161005 0.0173474 0.0438467 0.0703461 0.0968454 0.123345 0.312604 0.501864 0.691124 0.880383 0.783852 0.68732 0.590788 0.494257 0.586241 0.678226 0.77021 0.862195 0.700083 0.537971 0.375859 0.213747 0.301213 0.388678 0.476144 0.563609 0.583408 0.603207 0.623006 0.642805 0.490266 0.337727 0.185188 0.0326488 0.181313 0.329976 0.47864 0.627304 0.562925 0.498546 0.434167 0.369788 0.290032 0.210276 0.13052 0.0507647 0.873351 0.814672 0.755993 0.697314 0.638636 0.598023 0.557411 0.516799 0.476186 0.547892 0.619597 0.691302 0.763007 0.692594 0.622181 0.551768 0.481355 0.376328 0.2713 0.166273 0.061245 0.0717809 0.0823168 0.0928527 0.103389 0.283124 0.46286 0.642596 0.822332 0.727398 0.632464 0.53753 0.442596 0.527958 0.61332 0.698682 0.784044 0.672446 0.560848 0.44925 0.337651 0.390747 0.443843 0.496939 0.550035 0.567225 0.584415 0.601605 0.618795 0.498607 0.378418 0.25823 0.138041 0.22907 0.320098 0.411127 0.502155 0.477168 0.452182 0.427195 0.402208 0.365789 0.32937 0.29295 0.256531 0.748104 0.68393 0.619756 0.555581 0.491407 0.458374 0.425341 0.392307 0.359274 0.4141 0.468925 0.523751 0.578577 0.526616 0.474655 0.422694 0.370733 0.304336 0.237938 0.17154 0.105143 0.0997151 0.0942875 0.0888599 0.0834323 0.253644 0.423857 0.594069 0.764281 0.670945 0.577609 0.484272 0.390936 0.469676 0.548415 0.627154 0.705894 0.644809 0.583725 0.52264 0.461555 0.480282 0.499008 0.517734 0.53646 0.551041 0.565622 0.580204 0.594785 0.506947 0.419109 0.331272 0.243434 0.276827 0.31022 0.343613 0.377006 0.391412 0.405818 0.420223 0.434629 0.441546 0.448463 0.455381 0.462298 0.622858 0.553188 0.483518 0.413848 0.344178 0.318724 0.29327 0.267816 0.242362 0.280308 0.318254 0.3562 0.394146 0.360637 0.327129 0.29362 0.260111 0.232343 0.204576 0.176808 0.14904 0.127649 0.106258 0.0848671 0.063476 0.224165 0.384853 0.545541 0.70623 0.614491 0.522753 0.431014 0.339276 0.411393 0.48351 0.555627 0.627744 0.617172 0.606601 0.59603 0.585459 0.569816 0.554172 0.538529 0.522886 0.534858 0.54683 0.558802 0.570774 0.515287 0.459801 0.404314 0.348827 0.324584 0.300342 0.2761 0.251857 0.305655 0.359453 0.413251 0.467049 0.517303 0.567557 0.617811 0.668064 0.497612 0.422446 0.347281 0.272115 0.19695 0.179075 0.1612 0.143325 0.12545 0.146516 0.167583 0.188649 0.209716 0.194659 0.179602 0.164546 0.149489 0.160351 0.171213 0.182076 0.192938 0.155583 0.118229 0.0808743 0.0435198 0.194685 0.345849 0.497014 0.648179 0.558038 0.467897 0.377756 0.287615 0.35311 0.418604 0.484099 0.549593 0.589536 0.629478 0.669421 0.709363 0.65935 0.609337 0.559324 0.509311 0.518674 0.528038 0.537401 0.546764 0.523628 0.500492 0.477355 0.454219 0.372342 0.290464 0.208586 0.126709 0.219899 0.313089 0.406279 0.49947 0.59306 0.68665 0.780241 0.873831 0.595293 0.500695 0.406097 0.311499 0.216901 0.199478 0.182054 0.164631 0.147207 0.185765 0.224322 0.26288 0.301438 0.294944 0.288451 0.281958 0.275464 0.269372 0.263279 0.257187 0.251094 0.209617 0.16814 0.126664 0.0851867 0.245881 0.406575 0.56727 0.727964 0.605135 0.482307 0.359478 0.23665 0.287278 0.337907 0.388535 0.439164 0.471438 0.503712 0.535986 0.56826 0.532307 0.496355 0.460402 0.424449 0.46046 0.49647 0.532481 0.568492 0.548121 0.527751 0.507381 0.487011 0.392351 0.29769 0.20303 0.108369 0.234269 0.360169 0.486069 0.611969 0.669474 0.726979 0.784484 0.841989 0.692975 0.578945 0.464914 0.350883 0.236852 0.21988 0.202908 0.185936 0.168964 0.225013 0.281062 0.337111 0.39316 0.39523 0.3973 0.39937 0.40144 0.378392 0.355345 0.332298 0.30925 0.263651 0.218052 0.172453 0.126854 0.297077 0.467301 0.637525 0.807749 0.652233 0.496717 0.341201 0.185684 0.221447 0.257209 0.292972 0.328734 0.35334 0.377946 0.402551 0.427157 0.405265 0.383372 0.361479 0.339587 0.402245 0.464903 0.527561 0.590219 0.572615 0.555011 0.537407 0.519803 0.41236 0.304916 0.197473 0.0900301 0.24864 0.407249 0.565859 0.724468 0.745888 0.767308 0.788728 0.810148 0.790657 0.657194 0.52373 0.390267 0.256804 0.240283 0.223762 0.207242 0.190721 0.264261 0.337802 0.411342 0.484882 0.495515 0.506149 0.516782 0.527415 0.487413 0.447411 0.407408 0.367406 0.317685 0.267963 0.218242 0.16852 0.348274 0.528027 0.707781 0.887534 0.699331 0.511127 0.322923 0.134719 0.155615 0.176512 0.197408 0.218305 0.235242 0.252179 0.269117 0.286054 0.278222 0.270389 0.262557 0.254724 0.34403 0.433336 0.522641 0.611947 0.597109 0.582271 0.567432 0.552594 0.432368 0.312143 0.191917 0.0716908 0.26301 0.454329 0.645649 0.836968 0.822302 0.807637 0.792972 0.778306 0.888339 0.735443 0.582547 0.429651 0.276755 0.260686 0.244617 0.228547 0.212478 0.30351 0.394541 0.485573 0.576604 0.595801 0.614997 0.634194 0.653391 0.596434 0.539476 0.482519 0.425562 0.371719 0.317875 0.264031 0.210187 0.39947 0.588753 0.778037 0.96732 0.746428 0.525537 0.304645 0.0837535 0.089784 0.0958144 0.101845 0.107875 0.117144 0.126413 0.135682 0.144951 0.151179 0.157407 0.163634 0.169862 0.285815 0.401768 0.517721 0.633674 0.621602 0.60953 0.597458 0.585386 0.452377 0.319369 0.18636 0.0533516 0.27738 0.501409 0.725438 0.949467 0.898717 0.847966 0.797215 0.746464 0.853755 0.6963 0.538846 0.381392 0.223937 0.262657 0.301376 0.340095 0.378815 0.451822 0.52483 0.597837 0.670845 0.688426 0.706008 0.72359 0.741171 0.690453 0.639735 0.589017 0.538298 0.493235 0.448172 0.403109 0.358046 0.482649 0.607252 0.731855 0.856458 0.669375 0.482291 0.295207 0.108123 0.12674 0.145357 0.163974 0.182591 0.172664 0.162736 0.152808 0.142881 0.14098 0.139078 0.137177 0.135276 0.280168 0.42506 0.569952 0.714844 0.665108 0.615371 0.565634 0.515897 0.415783 0.315669 0.215555 0.115441 0.285809 0.456177 0.626544 0.796912 0.767551 0.73819 0.708829 0.679468 0.81917 0.657157 0.495145 0.333132 0.171119 0.264627 0.358135 0.451643 0.545151 0.600135 0.655119 0.710102 0.765086 0.781052 0.797019 0.812985 0.828951 0.784472 0.739993 0.695514 0.651035 0.614752 0.578469 0.542187 0.505904 0.565828 0.625751 0.685674 0.745597 0.592321 0.439045 0.285769 0.132493 0.163697 0.1949 0.226104 0.257307 0.228183 0.199059 0.169934 0.14081 0.13078 0.12075 0.11072 0.10069 0.274521 0.448352 0.622183 0.796015 0.708613 0.621212 0.53381 0.446409 0.379189 0.31197 0.24475 0.177531 0.294237 0.410944 0.52765 0.644356 0.636385 0.628414 0.620443 0.612471 0.784586 0.618015 0.451444 0.284873 0.118302 0.266598 0.414895 0.563191 0.711488 0.748448 0.785407 0.822367 0.859327 0.873678 0.888029 0.90238 0.916732 0.878491 0.840251 0.802011 0.763771 0.736269 0.708767 0.681265 0.653763 0.649006 0.644249 0.639493 0.634736 0.515268 0.3958 0.276331 0.156863 0.200653 0.244443 0.288233 0.332023 0.283702 0.235381 0.187061 0.13874 0.120581 0.102422 0.0842631 0.0661041 0.268874 0.471644 0.674414 0.877185 0.752118 0.627052 0.501986 0.37692 0.342595 0.30827 0.273946 0.239621 0.302666 0.365711 0.428756 0.491801 0.50522 0.518638 0.532056 0.545475 0.750001 0.578872 0.407742 0.236613 0.065484 0.268569 0.471654 0.674739 0.877825 0.89676 0.915696 0.934632 0.953567 0.966304 0.97904 0.991776 1.00451 0.972511 0.940509 0.908508 0.876507 0.857785 0.839064 0.820343 0.801621 0.732185 0.662748 0.593312 0.523875 0.438215 0.352554 0.266894 0.181233 0.237609 0.293986 0.350362 0.406739 0.339221 0.271704 0.204187 0.136669 0.110382 0.0840938 0.057806 0.0315182 0.263227 0.494936 0.726646 0.958355 0.795624 0.632893 0.470162 0.307431 0.306001 0.304571 0.303141 0.30171 0.311094 0.320478 0.329862 0.339246 0.374054 0.408862 0.44367 0.478478 0.727221 0.559346 0.391471 0.223596 0.0557213 0.260086 0.46445 0.668815 0.873179 0.869336 0.865492 0.861648 0.857804 0.886171 0.914538 0.942905 0.971272 0.914986 0.858701 0.802415 0.746129 0.738348 0.730566 0.722784 0.715003 0.637938 0.560873 0.483808 0.406743 0.350334 0.293925 0.237516 0.181107 0.254366 0.327626 0.400885 0.474144 0.402334 0.330523 0.258712 0.186901 0.203389 0.219877 0.236364 0.252852 0.376868 0.500883 0.624899 0.748914 0.682364 0.615813 0.549262 0.482712 0.453062 0.423411 0.393761 0.36411 0.38171 0.399311 0.416911 0.434511 0.479592 0.524674 0.569755 0.614836 0.704442 0.539821 0.3752 0.210579 0.0459586 0.251603 0.457246 0.66289 0.868534 0.841911 0.815288 0.788664 0.762041 0.806039 0.850036 0.894034 0.938032 0.857462 0.776892 0.696322 0.615752 0.61891 0.622068 0.625226 0.628384 0.543691 0.458998 0.374305 0.289612 0.262454 0.235297 0.208139 0.180981 0.271123 0.361266 0.451408 0.54155 0.465446 0.389341 0.313237 0.237133 0.296396 0.355659 0.414923 0.474186 0.490508 0.50683 0.523152 0.539473 0.569103 0.598733 0.628363 0.657992 0.600122 0.542251 0.484381 0.42651 0.452327 0.478143 0.50396 0.529776 0.585131 0.640485 0.695839 0.751194 0.681662 0.520296 0.358929 0.197563 0.0361959 0.243119 0.450043 0.656966 0.863889 0.814486 0.765083 0.71568 0.666277 0.725906 0.785535 0.845163 0.904792 0.799938 0.695083 0.590229 0.485374 0.499472 0.51357 0.527667 0.541765 0.449444 0.357123 0.264802 0.17248 0.174574 0.176668 0.178762 0.180855 0.28788 0.394906 0.501931 0.608956 0.528558 0.44816 0.367762 0.287364 0.389403 0.491442 0.593481 0.69552 0.604148 0.512776 0.421404 0.330033 0.455843 0.581653 0.707463 0.833273 0.747182 0.661091 0.575001 0.48891 0.522943 0.556976 0.591009 0.625042 0.690669 0.756297 0.821924 0.887552 0.658883 0.50077 0.342658 0.184546 0.0264333 0.234636 0.442839 0.651042 0.859244 0.787062 0.714879 0.642696 0.570514 0.645773 0.721033 0.796293 0.871552 0.742413 0.613274 0.484135 0.354996 0.380034 0.405071 0.430109 0.455146 0.355197 0.255248 0.155298 0.055349 0.0866941 0.118039 0.149384 0.180729 0.304637 0.428546 0.552454 0.676362 0.59167 0.506979 0.422287 0.337596 0.48241 0.627225 0.772039 0.916854 0.717788 0.518723 0.319657 0.120592 0.342582 0.564573 0.786563 1.00855 0.894242 0.779931 0.665621 0.55131 0.593559 0.635808 0.678058 0.720307 0.796207 0.872108 0.948009 1.02391 0.56731 0.456896 0.346481 0.236066 0.125651 0.284988 0.444325 0.603662 0.762999 0.727946 0.692892 0.657839 0.622786 0.682688 0.742591 0.802494 0.862396 0.719751 0.577106 0.434461 0.291815 0.315561 0.339308 0.363054 0.3868 0.323414 0.260029 0.196644 0.133259 0.137448 0.141636 0.145825 0.150013 0.272612 0.395212 0.517811 0.64041 0.565027 0.489643 0.41426 0.338876 0.437271 0.535665 0.63406 0.732454 0.585279 0.438104 0.290929 0.143754 0.354643 0.565533 0.776423 0.987313 0.886947 0.786581 0.686214 0.585848 0.604261 0.622673 0.641086 0.659499 0.745008 0.830517 0.916027 1.00154 0.475738 0.413021 0.350304 0.287586 0.224869 0.33534 0.445811 0.556283 0.666754 0.66883 0.670906 0.672981 0.675057 0.719603 0.764149 0.808695 0.853241 0.697089 0.540938 0.384786 0.228635 0.251089 0.273544 0.295998 0.318453 0.291632 0.264811 0.23799 0.211169 0.188201 0.165233 0.142265 0.119297 0.240587 0.361878 0.483169 0.604459 0.538384 0.472308 0.406232 0.340157 0.392131 0.444106 0.49608 0.548055 0.45277 0.357485 0.2622 0.166915 0.366705 0.566494 0.766284 0.966073 0.879651 0.79323 0.706808 0.620386 0.614962 0.609539 0.604115 0.598691 0.693809 0.788927 0.884045 0.979163 0.384166 0.369146 0.354126 0.339107 0.324087 0.385692 0.447298 0.508903 0.570509 0.609714 0.648919 0.688124 0.727329 0.756518 0.785707 0.814896 0.844085 0.674427 0.504769 0.335111 0.165454 0.186617 0.20778 0.228943 0.250106 0.259849 0.269592 0.279336 0.289079 0.238954 0.18883 0.138705 0.0885805 0.208562 0.328544 0.448526 0.568508 0.511741 0.454973 0.398205 0.341437 0.346992 0.352546 0.358101 0.363656 0.320261 0.276866 0.233471 0.190077 0.378766 0.567455 0.756144 0.944833 0.872356 0.799879 0.727402 0.654925 0.625664 0.596404 0.567143 0.537883 0.642609 0.747336 0.852063 0.956789 0.292594 0.325271 0.357949 0.390627 0.423305 0.436045 0.448784 0.461524 0.474263 0.550598 0.626932 0.703266 0.779601 0.793433 0.807265 0.821097 0.834929 0.651765 0.468601 0.285437 0.102273 0.122144 0.142016 0.161887 0.181759 0.228066 0.274374 0.320682 0.366989 0.289708 0.212427 0.135145 0.0578642 0.176537 0.295211 0.413884 0.532557 0.485097 0.437638 0.390178 0.342718 0.301853 0.260987 0.220122 0.179256 0.187752 0.196247 0.204743 0.213238 0.390827 0.568416 0.746004 0.923593 0.86506 0.806528 0.747995 0.689463 0.636366 0.583269 0.530172 0.477075 0.59141 0.705745 0.820081 0.934416 0.245877 0.311334 0.37679 0.442247 0.507704 0.516658 0.525612 0.534567 0.543521 0.589651 0.635781 0.68191 0.72804 0.714327 0.700613 0.6869 0.673187 0.562155 0.451123 0.340092 0.22906 0.225004 0.220948 0.216893 0.212837 0.236992 0.261147 0.285303 0.309458 0.256502 0.203547 0.150591 0.0976354 0.230159 0.362682 0.495205 0.627728 0.539613 0.451498 0.363382 0.275267 0.255526 0.235785 0.216044 0.196303 0.190638 0.184973 0.179308 0.173643 0.331577 0.489511 0.647445 0.80538 0.73416 0.66294 0.59172 0.5205 0.537034 0.553569 0.570103 0.586638 0.627773 0.668908 0.710043 0.751177 0.19916 0.297396 0.395632 0.493867 0.592103 0.597272 0.602441 0.60761 0.612778 0.628704 0.644629 0.660554 0.67648 0.635221 0.593962 0.552703 0.511444 0.472545 0.433646 0.394747 0.355848 0.327865 0.299881 0.271898 0.243914 0.245918 0.247921 0.249924 0.251927 0.223297 0.194667 0.166037 0.137407 0.28378 0.430153 0.576526 0.7229 0.594129 0.465358 0.336587 0.207816 0.209199 0.210583 0.211967 0.21335 0.193524 0.173699 0.153873 0.134048 0.272327 0.410607 0.548887 0.687166 0.603259 0.519352 0.435444 0.351537 0.437703 0.523869 0.610035 0.696201 0.664136 0.63207 0.600005 0.567939 0.152443 0.283458 0.414473 0.545488 0.676503 0.677886 0.679269 0.680653 0.682036 0.667757 0.653478 0.639198 0.624919 0.556115 0.48731 0.418506 0.349701 0.382935 0.416169 0.449402 0.482636 0.430725 0.378814 0.326903 0.274992 0.254843 0.234694 0.214545 0.194396 0.190092 0.185787 0.181482 0.177178 0.337401 0.497624 0.657848 0.818071 0.648644 0.479218 0.309791 0.140365 0.162873 0.185381 0.207889 0.230397 0.196411 0.162425 0.128439 0.0944526 0.213078 0.331703 0.450328 0.568953 0.472358 0.375763 0.279169 0.182574 0.338372 0.494169 0.649967 0.805765 0.700499 0.595233 0.489967 0.384701 0.105726 0.26952 0.433314 0.597108 0.760902 0.7585 0.756098 0.753696 0.751293 0.70681 0.662326 0.617842 0.573359 0.477009 0.380658 0.284308 0.187958 0.293325 0.398691 0.504057 0.609424 0.533585 0.457747 0.381908 0.30607 0.263769 0.221468 0.179167 0.136865 0.156886 0.176907 0.196928 0.216949 0.391022 0.565095 0.739169 0.913242 0.70316 0.493078 0.282996 0.072914 0.116546 0.160179 0.203811 0.247444 0.199297 0.151151 0.103004 0.0548575 0.153828 0.252798 0.351769 0.450739 0.341457 0.232175 0.122893 0.013611 0.23904 0.464469 0.689899 0.915328 0.736861 0.558395 0.379929 0.201462 0.103022 0.239545 0.376068 0.512591 0.649114 0.656788 0.664462 0.672136 0.679809 0.623847 0.567884 0.511921 0.455958 0.440695 0.425431 0.410168 0.394904 0.431626 0.468347 0.505068 0.541789 0.482694 0.423599 0.364504 0.305409 0.258677 0.211944 0.165211 0.118478 0.148558 0.178638 0.208718 0.238797 0.353287 0.467777 0.582266 0.696756 0.568474 0.440192 0.311909 0.183627 0.232678 0.281729 0.33078 0.379831 0.335408 0.290986 0.246564 0.202142 0.241849 0.281556 0.321263 0.36097 0.278453 0.195936 0.113419 0.030902 0.244311 0.45772 0.671129 0.884538 0.759131 0.633723 0.508316 0.382909 0.100318 0.20957 0.318823 0.428075 0.537327 0.555077 0.572826 0.590576 0.608325 0.540883 0.473441 0.405999 0.338557 0.404381 0.470204 0.536027 0.601851 0.569927 0.538003 0.506079 0.474154 0.431803 0.389452 0.3471 0.304749 0.253584 0.20242 0.151255 0.10009 0.140229 0.180368 0.220507 0.260646 0.315552 0.370458 0.425364 0.48027 0.433788 0.387305 0.340823 0.29434 0.348809 0.403279 0.457748 0.512218 0.47152 0.430822 0.390124 0.349426 0.329869 0.310313 0.290757 0.2712 0.215449 0.159697 0.103945 0.0481929 0.249582 0.450971 0.65236 0.853748 0.7814 0.709052 0.636703 0.564355 0.0976138 0.179595 0.261577 0.343558 0.42554 0.453365 0.481191 0.509016 0.536841 0.45792 0.378999 0.300078 0.221157 0.368067 0.514977 0.661887 0.808797 0.708228 0.607658 0.507089 0.40652 0.380912 0.355304 0.329696 0.304089 0.248492 0.192895 0.137299 0.0817023 0.1319 0.182098 0.232297 0.282495 0.277817 0.27314 0.268462 0.263785 0.299102 0.334419 0.369736 0.405053 0.464941 0.524829 0.584717 0.644605 0.607631 0.570657 0.533683 0.49671 0.41789 0.33907 0.260251 0.181431 0.152444 0.123457 0.0944706 0.0654838 0.254853 0.444221 0.63359 0.822959 0.803669 0.78438 0.765091 0.745801 0.0949097 0.14962 0.204331 0.259042 0.313753 0.351654 0.389555 0.427456 0.465357 0.374957 0.284557 0.194156 0.103756 0.331753 0.55975 0.787747 1.01574 0.846529 0.677314 0.5081 0.338885 0.330021 0.321157 0.312292 0.303428 0.2434 0.183371 0.123343 0.0633146 0.123572 0.183829 0.244086 0.304343 0.240082 0.175821 0.11156 0.0472988 0.164416 0.281532 0.398649 0.515766 0.581072 0.646379 0.711685 0.776992 0.743742 0.710493 0.677243 0.643994 0.505911 0.367828 0.229744 0.0916614 0.0894397 0.0872181 0.0849964 0.0827747 0.260123 0.437472 0.614821 0.792169 0.825939 0.859708 0.893478 0.927248 0.206824 0.220944 0.235063 0.249182 0.263302 0.33739 0.411478 0.485566 0.559653 0.46076 0.361867 0.262973 0.16408 0.33226 0.50044 0.66862 0.8368 0.738739 0.640679 0.542618 0.444557 0.39097 0.337382 0.283794 0.230207 0.187616 0.145026 0.102435 0.0598449 0.144546 0.229248 0.313949 0.398651 0.346344 0.294038 0.241732 0.189426 0.272329 0.355232 0.438136 0.521039 0.583004 0.644969 0.706935 0.7689 0.742532 0.716163 0.689795 0.663427 0.564588 0.46575 0.366912 0.268073 0.234952 0.20183 0.168709 0.135587 0.294353 0.453119 0.611885 0.770651 0.787489 0.804327 0.821165 0.838003 0.318739 0.292267 0.265795 0.239323 0.212851 0.323125 0.4334 0.543675 0.65395 0.546563 0.439177 0.33179 0.224403 0.332767 0.44113 0.549493 0.657856 0.63095 0.604043 0.577136 0.55023 0.451919 0.353608 0.255297 0.156986 0.131833 0.10668 0.0815279 0.0563753 0.165521 0.274667 0.383812 0.492958 0.452607 0.412256 0.371904 0.331553 0.380243 0.428932 0.477622 0.526312 0.584936 0.64356 0.702184 0.760809 0.741321 0.721834 0.702347 0.682859 0.623266 0.563672 0.504079 0.444485 0.380464 0.316442 0.252421 0.1884 0.328583 0.468766 0.60895 0.749133 0.749039 0.748945 0.748851 0.748758 0.430654 0.36359 0.296527 0.229463 0.1624 0.308861 0.455323 0.601785 0.748246 0.632366 0.516487 0.400607 0.284727 0.333273 0.38182 0.430366 0.478913 0.52316 0.567408 0.611655 0.655902 0.512868 0.369833 0.226799 0.0837643 0.0760496 0.068335 0.0606203 0.0529057 0.186496 0.320085 0.453675 0.587265 0.558869 0.530473 0.502077 0.47368 0.488157 0.502633 0.517109 0.531585 0.586868 0.642151 0.697434 0.752717 0.740111 0.727505 0.714898 0.702292 0.681943 0.661595 0.641246 0.620897 0.525976 0.431055 0.336133 0.241212 0.362813 0.484414 0.606014 0.727615 0.710589 0.693564 0.676538 0.659513 0.542569 0.434914 0.327259 0.219604 0.111949 0.294597 0.477246 0.659894 0.842542 0.71817 0.593797 0.469424 0.345051 0.33378 0.32251 0.311239 0.299969 0.415371 0.530772 0.646173 0.761575 0.573817 0.386059 0.198301 0.010543 0.0202662 0.0299895 0.0397128 0.049436 0.20747 0.365504 0.523538 0.681573 0.665131 0.64869 0.632249 0.615808 0.59607 0.576333 0.556595 0.536858 0.5888 0.640742 0.692684 0.744626 0.7389 0.733175 0.72745 0.721725 0.740621 0.759517 0.778413 0.797309 0.671488 0.545667 0.419846 0.294025 0.397043 0.500061 0.603079 0.706097 0.67214 0.638182 0.604225 0.570267 0.507692 0.405715 0.303738 0.201761 0.099784 0.282566 0.465348 0.64813 0.830912 0.709414 0.587915 0.466417 0.344919 0.353702 0.362486 0.371269 0.380053 0.475111 0.57017 0.665229 0.760287 0.578878 0.397469 0.216059 0.0346502 0.0434139 0.0521776 0.0609413 0.069705 0.215123 0.36054 0.505958 0.651375 0.634942 0.61851 0.602077 0.585644 0.596687 0.607731 0.618775 0.629818 0.662937 0.696057 0.729176 0.762295 0.753881 0.745467 0.737053 0.728639 0.699246 0.669852 0.640459 0.611065 0.518091 0.425117 0.332144 0.23917 0.317364 0.395558 0.473752 0.551947 0.572001 0.592056 0.612111 0.632166 0.472814 0.376516 0.280217 0.183918 0.0876194 0.270535 0.45345 0.636366 0.819281 0.700658 0.582034 0.46341 0.344787 0.373624 0.402462 0.431299 0.460137 0.534852 0.609568 0.684284 0.758999 0.583939 0.408878 0.233818 0.0587574 0.0665615 0.0743656 0.0821698 0.0899739 0.222775 0.355576 0.488377 0.621178 0.604753 0.588329 0.571904 0.55548 0.597305 0.639129 0.680954 0.722779 0.737075 0.751371 0.765668 0.779964 0.768861 0.757759 0.746656 0.735554 0.657871 0.580188 0.502504 0.424821 0.364694 0.304568 0.244441 0.184315 0.237685 0.291055 0.344426 0.397796 0.471863 0.54593 0.619997 0.694064 0.437937 0.347317 0.256696 0.166075 0.0754549 0.258504 0.441553 0.624602 0.807651 0.691902 0.576153 0.460404 0.344655 0.393546 0.442438 0.491329 0.54022 0.594593 0.648966 0.703339 0.757712 0.589 0.420288 0.251576 0.0828645 0.0897091 0.0965537 0.103398 0.110243 0.230427 0.350612 0.470796 0.59098 0.574564 0.558148 0.541732 0.525316 0.597922 0.670528 0.743133 0.815739 0.811213 0.806686 0.80216 0.797633 0.783842 0.770051 0.75626 0.742468 0.616496 0.490523 0.36455 0.238577 0.211298 0.184018 0.156739 0.12946 0.158006 0.186553 0.215099 0.243646 0.371725 0.499804 0.627883 0.755963 0.40306 0.318118 0.233175 0.148233 0.0632903 0.246473 0.429655 0.612838 0.79602 0.683146 0.570271 0.457397 0.344523 0.413468 0.482413 0.551359 0.620304 0.654334 0.688364 0.722394 0.756424 0.594061 0.431698 0.269335 0.106972 0.112857 0.118742 0.124627 0.130512 0.23808 0.345647 0.453215 0.560783 0.544375 0.527968 0.51156 0.495152 0.598539 0.701926 0.805313 0.9087 0.88535 0.862001 0.838652 0.815302 0.798823 0.782343 0.765863 0.749383 0.575121 0.400858 0.226596 0.0523331 0.0579009 0.0634688 0.0690366 0.0746045 0.0783271 0.0820497 0.0857724 0.089495 0.271587 0.453678 0.63577 0.817861 0.541929 0.461978 0.382027 0.302076 0.222125 0.324254 0.426383 0.528511 0.63064 0.583675 0.536711 0.489746 0.442781 0.455426 0.468071 0.480716 0.493361 0.519341 0.545322 0.571303 0.597284 0.50888 0.420476 0.332072 0.243669 0.228192 0.212715 0.197238 0.181761 0.283165 0.384569 0.485973 0.587377 0.581152 0.574927 0.568701 0.562476 0.629429 0.696383 0.763336 0.83029 0.822782 0.815275 0.807767 0.80026 0.755679 0.711098 0.666517 0.621936 0.523135 0.424335 0.325534 0.226733 0.245942 0.265152 0.284361 0.30357 0.299741 0.295912 0.292083 0.288254 0.37506 0.461865 0.54867 0.635475 0.680799 0.605839 0.530879 0.455919 0.380959 0.402035 0.42311 0.444185 0.46526 0.484205 0.50315 0.522094 0.541039 0.497383 0.453728 0.410072 0.366417 0.384349 0.40228 0.420212 0.438144 0.423699 0.409255 0.39481 0.380366 0.343527 0.306688 0.269849 0.23301 0.32825 0.423491 0.518731 0.613972 0.617929 0.621886 0.625843 0.6298 0.66032 0.69084 0.72136 0.75188 0.760214 0.768548 0.776883 0.785217 0.712535 0.639853 0.567171 0.49449 0.47115 0.447811 0.424472 0.401133 0.433984 0.466835 0.499686 0.532537 0.521156 0.509775 0.498394 0.487014 0.478533 0.470051 0.46157 0.453089 0.819668 0.7497 0.679731 0.609763 0.539794 0.479816 0.419837 0.359859 0.29988 0.384735 0.469589 0.554443 0.639297 0.539341 0.439385 0.339429 0.239473 0.249356 0.259238 0.269121 0.279003 0.338518 0.398033 0.457548 0.517063 0.458862 0.400661 0.34246