<?xml version="1.0"?> 
<VTKFile type="StructuredGrid" version="0.1"> 
<StructuredGrid WholeExtent="0 128 0 128 0 0"> 
<Piece Extent="0 128 0 128 0 0"> 
<PointData>
<DataArray type="Float32" Name="u" format="ascii" NumberOfComponents="1"> 
0 0 0 0 0 0 0 0 0 0 0 0 0 0 0 0 0 0 0 0 0 0 0 0 0 0 0 0 0 0 0 0 0 0 0 0 0 0 0 0 0 0 0 0 0 0 0 0 0 0 0 0 0 0 0 0 0 0 0 0 0 0 0 0 0 0 0 0 0 0 0 0 0 0 0 0 0 0 0 0 0 0 0 0 0 0 0 0 0 0 0 0 0 0 0 0 0 0 0 0 0 0 0 0 0 0 0 0 0 0 0 0 0 0 0 0 0 0 0 0 0 0 0 0 0 0 0 0 0 0 -5.56793e-08 -2.22717e-07 -5.01113e-07 -8.90868e-07 -1.39198e-06 -2.00445e-06 -2.72828e-06 -3.56347e-06 -4.55204e-06 -5.73602e-06 -7.11541e-06 -8.69021e-06 -1.04604e-05 -1.2426e-05 -1.4587e-05 -1.69435e-05 -1.9422e-05 -2.19494e-05 -2.45257e-05 -2.71508e-05 -2.98248e-05 -3.25476e-05 -3.53193e-05 -3.81398e-05 -4.09654e-05 -4.37523e-05 -4.65006e-05 -4.92102e-05 -5.18812e-05 -5.45135e-05 -5.71071e-05 -5.96621e-05 -6.21728e-05 -6.46338e-05 -6.70449e-05 -6.94061e-05 -7.17176e-05 -7.39792e-05 -7.61911e-05 -7.83531e-05 -8.04647e-05 -8.25252e-05 -8.45347e-05 -8.64932e-05 -8.84006e-05 -9.0257e-05 -9.20624e-05 -9.38167e-05 -9.55025e-05 -9.71026e-05 -9.86168e-05 -0.000100045 -0.000101388 -0.000102645 -0.000103816 -0.000104901 -0.000105878 -0.000106725 -0.000107441 -0.000108028 -0.000108484 -0.000108809 -0.000109005 -0.00010907 -0.000109005 -0.000108809 -0.000108484 -0.000108028 -0.000107441 -0.000106725 -0.000105878 -0.000104901 -0.000103816 -0.000102645 -0.000101388 -0.000100045 -9.86168e-05 -9.71026e-05 -9.55025e-05 -9.38167e-05 -9.20624e-05 -9.0257e-05 -8.84006e-05 -8.64932e-05 -8.45347e-05 -8.25252e-05 -8.04647e-05 -7.83531e-05 -7.61911e-05 -7.39792e-05 -7.17176e-05 -6.94061e-05 -6.70449e-05 -6.46338e-05 -6.21728e-05 -5.96621e-05 -5.71071e-05 -5.45135e-05 -5.18812e-05 -4.92102e-05 -4.65006e-05 -4.37523e-05 -4.09654e-05 -3.81398e-05 -3.53193e-05 -3.25476e-05 -2.98248e-05 -2.71508e-05 -2.45257e-05 -2.19494e-05 -1.9422e-05 -1.69435e-05 -1.45871e-05 -1.2426e-05 -1.04604e-05 -8.69021e-06 -7.11542e-06 -5.73603e-06 -4.55205e-06 -3.56348e-06 -2.72829e-06 -2.00445e-06 -1.39198e-06 -8.90869e-07 -5.01114e-07 -2.22717e-07 -5.56793e-08 0 0 -2.22717e-07 -8.90868e-07 -2.00445e-06 -3.56347e-06 -5.56793e-06 -8.01781e-06 -1.09131e-05 -1.42539e-05 -1.82082e-05 -2.29441e-05 -2.84616e-05 -3.47608e-05 -4.18416e-05 -4.97041e-05 -5.83482e-05 -6.77739e-05 -7.76881e-05 -8.77978e-05 -9.81028e-05 -0.000108603 -0.000119299 -0.00013019 -0.000141277 -0.000152559 -0.000163862 -0.000175009 -0.000186002 -0.000196841 -0.000207525 -0.000218054 -0.000228429 -0.000238648 -0.000248691 -0.000258535 -0.000268179 -0.000277625 -0.00028687 -0.000295917 -0.000304764 -0.000313412 -0.000321859 -0.000330101 -0.000338139 -0.000345973 -0.000353602 -0.000361028 -0.000368249 -0.000375267 -0.00038201 -0.00038841 -0.000394467 -0.000400181 -0.000405552 -0.000410579 -0.000415263 -0.000419603 -0.000423512 -0.000426899 -0.000429765 -0.000432111 -0.000433935 -0.000435237 -0.000436019 -0.00043628 -0.000436019 -0.000435237 -0.000433935 -0.000432111 -0.000429765 -0.000426899 -0.000423512 -0.000419603 -0.000415263 -0.000410579 -0.000405552 -0.000400181 -0.000394467 -0.00038841 -0.00038201 -0.000375267 -0.000368249 -0.000361028 -0.000353602 -0.000345973 -0.000338139 -0.000330101 -0.000321859 -0.000313412 -0.000304764 -0.000295917 -0.00028687 -0.000277625 -0.000268179 -0.000258535 -0.000248691 -0.000238648 -0.000228429 -0.000218054 -0.000207525 -0.000196841 -0.000186002 -0.000175009 -0.000163862 -0.000152559 -0.000141277 -0.00013019 -0.000119299 -0.000108603 -9.81028e-05 -8.77978e-05 -7.76881e-05 -6.77739e-05 -5.83482e-05 -4.97041e-05 -4.18417e-05 -3.47609e-05 -2.84617e-05 -2.29441e-05 -1.82082e-05 -1.42539e-05 -1.09131e-05 -8.01782e-06 -5.56793e-06 -3.56348e-06 -2.00445e-06 -8.90869e-07 -2.22717e-07 0 0 -5.01113e-07 -2.00445e-06 -4.51002e-06 -8.01781e-06 -1.25278e-05 -1.80401e-05 -2.45545e-05 -3.20712e-05 -4.09684e-05 -5.16242e-05 -6.40387e-05 -7.82119e-05 -9.41437e-05 -0.000111834 -0.000131283 -0.000152491 -0.000174798 -0.000197545 -0.000220731 -0.000244357 -0.000268423 -0.000292928 -0.000317873 -0.000343258 -0.000368688 -0.000393771 -0.000418506 -0.000442892 -0.000466931 -0.000490621 -0.000513964 -0.000536959 -0.000559556 -0.000581704 -0.000603404 -0.000624655 -0.000645458 -0.000665813 -0.00068572 -0.000705178 -0.000724182 -0.000742727 -0.000760813 -0.000778439 -0.000795606 -0.000812313 -0.000828561 -0.00084435 -0.000859523 -0.000873923 -0.000887552 -0.000900407 -0.000912491 -0.000923802 -0.000934341 -0.000944108 -0.000952902 -0.000960523 -0.000966972 -0.000972249 -0.000976353 -0.000979284 -0.000981043 -0.000981629 -0.000981043 -0.000979284 -0.000976353 -0.000972249 -0.000966972 -0.000960523 -0.000952902 -0.000944108 -0.000934341 -0.000923802 -0.000912491 -0.000900407 -0.000887552 -0.000873923 -0.000859523 -0.00084435 -0.000828561 -0.000812313 -0.000795606 -0.000778439 -0.000760813 -0.000742727 -0.000724182 -0.000705178 -0.00068572 -0.000665813 -0.000645458 -0.000624655 -0.000603404 -0.000581704 -0.000559556 -0.000536959 -0.000513964 -0.000490621 -0.000466931 -0.000442892 -0.000418506 -0.000393771 -0.000368688 -0.000343258 -0.000317873 -0.000292928 -0.000268423 -0.000244357 -0.000220731 -0.000197545 -0.000174798 -0.000152491 -0.000131283 -0.000111834 -9.41438e-05 -7.82119e-05 -6.40388e-05 -5.16243e-05 -4.09684e-05 -3.20713e-05 -2.45546e-05 -1.80401e-05 -1.25278e-05 -8.01782e-06 -4.51002e-06 -2.00445e-06 -5.01114e-07 0 0 -8.90868e-07 -3.56347e-06 -8.01781e-06 -1.42539e-05 -2.22717e-05 -3.20712e-05 -4.36525e-05 -5.70156e-05 -7.28327e-05 -9.17764e-05 -0.000113847 -0.000139043 -0.000167367 -0.000198816 -0.000233393 -0.000271096 -0.000310752 -0.000351191 -0.000392411 -0.000434413 -0.000477196 -0.000520761 -0.000565108 -0.000610236 -0.000655446 -0.000700037 -0.00074401 -0.000787364 -0.000830099 -0.000872216 -0.000913714 -0.000954594 -0.000994765 -0.00103414 -0.00107272 -0.0011105 -0.00114748 -0.00118367 -0.00121906 -0.00125365 -0.00128743 -0.0013204 -0.00135256 -0.00138389 -0.00141441 -0.00144411 -0.001473 -0.00150107 -0.00152804 -0.00155364 -0.00157787 -0.00160072 -0.00162221 -0.00164232 -0.00166105 -0.00167841 -0.00169405 -0.0017076 -0.00171906 -0.00172844 -0.00173574 -0.00174095 -0.00174408 -0.00174512 -0.00174408 -0.00174095 -0.00173574 -0.00172844 -0.00171906 -0.0017076 -0.00169405 -0.00167841 -0.00166105 -0.00164232 -0.00162221 -0.00160072 -0.00157787 -0.00155364 -0.00152804 -0.00150107 -0.001473 -0.00144411 -0.00141441 -0.00138389 -0.00135256 -0.0013204 -0.00128743 -0.00125365 -0.00121906 -0.00118367 -0.00114748 -0.0011105 -0.00107272 -0.00103414 -0.000994765 -0.000954594 -0.000913714 -0.000872216 -0.000830099 -0.000787364 -0.00074401 -0.000700037 -0.000655446 -0.000610236 -0.000565108 -0.000520761 -0.000477196 -0.000434413 -0.000392411 -0.000351191 -0.000310753 -0.000271096 -0.000233393 -0.000198816 -0.000167367 -0.000139043 -0.000113847 -9.17765e-05 -7.28328e-05 -5.70156e-05 -4.36526e-05 -3.20713e-05 -2.22717e-05 -1.42539e-05 -8.01782e-06 -3.56348e-06 -8.90869e-07 0 0 -1.39198e-06 -5.56793e-06 -1.25278e-05 -2.22717e-05 -3.47995e-05 -5.01113e-05 -6.82071e-05 -8.90868e-05 -0.000113801 -0.000143401 -0.000177885 -0.000217255 -0.00026151 -0.000310651 -0.000364676 -0.000423587 -0.000485551 -0.000548736 -0.000613143 -0.00067877 -0.000745619 -0.00081369 -0.000882981 -0.000953494 -0.00102413 -0.00109381 -0.00116252 -0.00123026 -0.00129703 -0.00136284 -0.00142768 -0.00149155 -0.00155432 -0.00161584 -0.00167612 -0.00173515 -0.00179294 -0.00184948 -0.00190478 -0.00195883 -0.00201162 -0.00206313 -0.00211337 -0.00216233 -0.00221002 -0.00225643 -0.00230156 -0.00234542 -0.00238756 -0.00242756 -0.00246542 -0.00250113 -0.0025347 -0.00256612 -0.00259539 -0.00262252 -0.00264695 -0.00266812 -0.00268603 -0.00270069 -0.00271209 -0.00272023 -0.00272512 -0.00272675 -0.00272512 -0.00272023 -0.00271209 -0.00270069 -0.00268603 -0.00266812 -0.00264695 -0.00262252 -0.00259539 -0.00256612 -0.0025347 -0.00250113 -0.00246542 -0.00242756 -0.00238756 -0.00234542 -0.00230156 -0.00225643 -0.00221002 -0.00216233 -0.00211337 -0.00206313 -0.00201162 -0.00195883 -0.00190478 -0.00184948 -0.00179294 -0.00173515 -0.00167612 -0.00161584 -0.00155432 -0.00149155 -0.00142768 -0.00136284 -0.00129703 -0.00123026 -0.00116252 -0.00109381 -0.00102413 -0.000953494 -0.000882981 -0.00081369 -0.000745619 -0.00067877 -0.000613143 -0.000548736 -0.000485551 -0.000423587 -0.000364676 -0.000310651 -0.00026151 -0.000217255 -0.000177885 -0.000143401 -0.000113801 -8.90869e-05 -6.82071e-05 -5.01114e-05 -3.47996e-05 -2.22717e-05 -1.25278e-05 -5.56793e-06 -1.39198e-06 0 0 -2.00445e-06 -8.01781e-06 -1.80401e-05 -3.20712e-05 -5.01113e-05 -7.21603e-05 -9.82182e-05 -0.000128285 -0.000163874 -0.000206497 -0.000256155 -0.000312847 -0.000376575 -0.000447337 -0.000525134 -0.000609965 -0.000699193 -0.00079018 -0.000882925 -0.000977429 -0.00107369 -0.00117171 -0.00127149 -0.00137303 -0.00147475 -0.00157508 -0.00167402 -0.00177157 -0.00186772 -0.00196249 -0.00205586 -0.00214784 -0.00223822 -0.00232682 -0.00241361 -0.00249862 -0.00258183 -0.00266325 -0.00274288 -0.00282071 -0.00289673 -0.00297091 -0.00304325 -0.00311376 -0.00318242 -0.00324925 -0.00331424 -0.0033774 -0.00343809 -0.00349569 -0.00355021 -0.00360163 -0.00364996 -0.00369521 -0.00373736 -0.00377643 -0.00381161 -0.00384209 -0.00386789 -0.00388899 -0.00390541 -0.00391714 -0.00392417 -0.00392652 -0.00392417 -0.00391714 -0.00390541 -0.00388899 -0.00386789 -0.00384209 -0.00381161 -0.00377643 -0.00373736 -0.00369521 -0.00364996 -0.00360163 -0.00355021 -0.00349569 -0.00343809 -0.0033774 -0.00331424 -0.00324925 -0.00318242 -0.00311376 -0.00304325 -0.00297091 -0.00289673 -0.00282071 -0.00274288 -0.00266325 -0.00258183 -0.00249862 -0.00241361 -0.00232682 -0.00223822 -0.00214784 -0.00205586 -0.00196249 -0.00186772 -0.00177157 -0.00167402 -0.00157508 -0.00147475 -0.00137303 -0.00127149 -0.00117171 -0.00107369 -0.000977429 -0.000882925 -0.00079018 -0.000699193 -0.000609965 -0.000525134 -0.000447337 -0.000376575 -0.000312848 -0.000256155 -0.000206497 -0.000163874 -0.000128285 -9.82183e-05 -7.21604e-05 -5.01114e-05 -3.20713e-05 -1.80401e-05 -8.01782e-06 -2.00445e-06 0 0 -2.72828e-06 -1.09131e-05 -2.45545e-05 -4.36525e-05 -6.82071e-05 -9.82182e-05 -0.000133686 -0.00017461 -0.00022305 -0.000281065 -0.000348655 -0.00042582 -0.00051256 -0.000608875 -0.000714765 -0.00083023 -0.00095168 -0.00107552 -0.00120176 -0.00133039 -0.00146141 -0.00159483 -0.00173064 -0.00186885 -0.0020073 -0.00214386 -0.00227853 -0.0024113 -0.00254218 -0.00267116 -0.00279825 -0.00292344 -0.00304647 -0.00316705 -0.0032852 -0.0034009 -0.00351416 -0.00362498 -0.00373336 -0.0038393 -0.00394277 -0.00404374 -0.0041422 -0.00423817 -0.00433163 -0.00442259 -0.00451106 -0.00459702 -0.00467962 -0.00475803 -0.00483223 -0.00490222 -0.00496801 -0.00502959 -0.00508697 -0.00514014 -0.00518802 -0.00522952 -0.00526463 -0.00529335 -0.0053157 -0.00533166 -0.00534123 -0.00534443 -0.00534123 -0.00533166 -0.0053157 -0.00529335 -0.00526463 -0.00522952 -0.00518802 -0.00514014 -0.00508697 -0.00502959 -0.00496801 -0.00490222 -0.00483223 -0.00475803 -0.00467962 -0.00459702 -0.00451106 -0.00442259 -0.00433163 -0.00423817 -0.0041422 -0.00404374 -0.00394277 -0.0038393 -0.00373336 -0.00362498 -0.00351416 -0.0034009 -0.0032852 -0.00316705 -0.00304647 -0.00292344 -0.00279825 -0.00267116 -0.00254218 -0.0024113 -0.00227853 -0.00214386 -0.0020073 -0.00186885 -0.00173064 -0.00159483 -0.00146141 -0.00133039 -0.00120176 -0.00107552 -0.00095168 -0.00083023 -0.000714766 -0.000608876 -0.000512561 -0.00042582 -0.000348655 -0.000281065 -0.00022305 -0.00017461 -0.000133686 -9.82183e-05 -6.82071e-05 -4.36526e-05 -2.45546e-05 -1.09131e-05 -2.72829e-06 0 0 -3.56347e-06 -1.42539e-05 -3.20712e-05 -5.70156e-05 -8.90868e-05 -0.000128285 -0.00017461 -0.000228062 -0.000291331 -0.000367106 -0.000455386 -0.000556173 -0.000669466 -0.000795266 -0.000933571 -0.00108438 -0.00124301 -0.00140476 -0.00156964 -0.00173765 -0.00190879 -0.00208305 -0.00226043 -0.00244095 -0.00262178 -0.00280015 -0.00297604 -0.00314946 -0.0033204 -0.00348886 -0.00365486 -0.00381837 -0.00397906 -0.00413656 -0.00429087 -0.00444199 -0.00458993 -0.00473467 -0.00487623 -0.0050146 -0.00514974 -0.00528161 -0.00541022 -0.00553556 -0.00565764 -0.00577645 -0.00589199 -0.00600427 -0.00611216 -0.00621457 -0.00631148 -0.0064029 -0.00648882 -0.00656926 -0.0066442 -0.00671365 -0.00677619 -0.00683039 -0.00687625 -0.00691377 -0.00694295 -0.0069638 -0.0069763 -0.00698047 -0.0069763 -0.0069638 -0.00694295 -0.00691377 -0.00687625 -0.00683039 -0.00677619 -0.00671365 -0.0066442 -0.00656926 -0.00648882 -0.0064029 -0.00631148 -0.00621457 -0.00611216 -0.00600427 -0.00589199 -0.00577645 -0.00565764 -0.00553556 -0.00541022 -0.00528161 -0.00514974 -0.0050146 -0.00487623 -0.00473467 -0.00458993 -0.00444199 -0.00429087 -0.00413656 -0.00397906 -0.00381837 -0.00365486 -0.00348886 -0.0033204 -0.00314946 -0.00297604 -0.00280015 -0.00262178 -0.00244095 -0.00226043 -0.00208305 -0.00190879 -0.00173765 -0.00156965 -0.00140476 -0.00124301 -0.00108438 -0.000933571 -0.000795266 -0.000669467 -0.000556174 -0.000455387 -0.000367106 -0.000291331 -0.000228062 -0.00017461 -0.000128285 -8.90869e-05 -5.70156e-05 -3.20713e-05 -1.42539e-05 -3.56348e-06 0 0 -4.55204e-06 -1.82082e-05 -4.09684e-05 -7.28327e-05 -0.000113801 -0.000163874 -0.00022305 -0.000291331 -0.000372008 -0.000468376 -0.000580433 -0.000708179 -0.000851616 -0.00101074 -0.00118556 -0.00137606 -0.0015762 -0.0017799 -0.00198717 -0.002198 -0.00241241 -0.00263038 -0.00285192 -0.00307703 -0.00330211 -0.00352358 -0.00374142 -0.00395566 -0.00416627 -0.00437327 -0.00457665 -0.00477641 -0.00497217 -0.00516353 -0.00535049 -0.00553305 -0.00571121 -0.00588498 -0.00605435 -0.00621932 -0.00638003 -0.00653662 -0.00668909 -0.00683743 -0.00698164 -0.00712173 -0.0072577 -0.00738955 -0.00751609 -0.00763617 -0.00774977 -0.00785691 -0.00795757 -0.00805176 -0.00813948 -0.00822073 -0.00829387 -0.00835725 -0.00841089 -0.00845477 -0.0084889 -0.00851328 -0.00852791 -0.00853279 -0.00852791 -0.00851328 -0.0084889 -0.00845477 -0.00841089 -0.00835725 -0.00829387 -0.00822073 -0.00813948 -0.00805176 -0.00795757 -0.00785691 -0.00774977 -0.00763617 -0.00751609 -0.00738955 -0.0072577 -0.00712173 -0.00698164 -0.00683743 -0.00668909 -0.00653662 -0.00638003 -0.00621932 -0.00605435 -0.00588498 -0.00571121 -0.00553305 -0.00535049 -0.00516352 -0.00497217 -0.00477641 -0.00457665 -0.00437327 -0.00416627 -0.00395566 -0.00374142 -0.00352358 -0.00330211 -0.00307703 -0.00285192 -0.00263038 -0.00241241 -0.00219801 -0.00198717 -0.0017799 -0.0015762 -0.00137606 -0.00118556 -0.00101074 -0.000851616 -0.00070818 -0.000580433 -0.000468376 -0.000372009 -0.000291331 -0.00022305 -0.000163874 -0.000113801 -7.28328e-05 -4.09684e-05 -1.82082e-05 -4.55205e-06 0 0 -5.73602e-06 -2.29441e-05 -5.16242e-05 -9.17764e-05 -0.000143401 -0.000206497 -0.000281065 -0.000367106 -0.000468376 -0.000588633 -0.000727878 -0.00088611 -0.00106333 -0.00125954 -0.00147473 -0.00170891 -0.00195425 -0.00220292 -0.00245491 -0.00271024 -0.00296889 -0.00323087 -0.00349617 -0.0037648 -0.0040322 -0.00429378 -0.00454956 -0.00479953 -0.00504369 -0.00528205 -0.00551459 -0.00574133 -0.00596195 -0.00617614 -0.0063839 -0.00658522 -0.00678011 -0.00696857 -0.0071506 -0.0073262 -0.00749605 -0.00766084 -0.00782057 -0.00797523 -0.00812483 -0.00826937 -0.00840884 -0.00854326 -0.00867181 -0.0087937 -0.00890892 -0.00901749 -0.00911939 -0.00921463 -0.00930321 -0.00938513 -0.00945881 -0.00952266 -0.00957669 -0.0096209 -0.00965528 -0.00967984 -0.00969457 -0.00969948 -0.00969457 -0.00967984 -0.00965528 -0.0096209 -0.00957669 -0.00952266 -0.00945881 -0.00938513 -0.00930321 -0.00921463 -0.00911939 -0.00901749 -0.00890892 -0.0087937 -0.00867181 -0.00854326 -0.00840884 -0.00826937 -0.00812483 -0.00797523 -0.00782056 -0.00766084 -0.00749605 -0.0073262 -0.0071506 -0.00696857 -0.00678011 -0.00658522 -0.0063839 -0.00617614 -0.00596195 -0.00574133 -0.00551459 -0.00528205 -0.00504369 -0.00479953 -0.00454956 -0.00429378 -0.0040322 -0.00376481 -0.00349617 -0.00323087 -0.00296889 -0.00271024 -0.00245492 -0.00220292 -0.00195425 -0.00170891 -0.00147473 -0.00125954 -0.00106333 -0.000886111 -0.000727879 -0.000588634 -0.000468376 -0.000367106 -0.000281065 -0.000206497 -0.000143401 -9.17765e-05 -5.16243e-05 -2.29441e-05 -5.73603e-06 0 0 -7.11541e-06 -2.84616e-05 -6.40387e-05 -0.000113847 -0.000177885 -0.000256155 -0.000348655 -0.000455386 -0.000580433 -0.000727878 -0.000897723 -0.00108997 -0.00130461 -0.00154165 -0.00180109 -0.00208293 -0.00237718 -0.00267383 -0.00297289 -0.00327435 -0.00357822 -0.0038845 -0.00419318 -0.00450427 -0.00481205 -0.00511077 -0.00540045 -0.00568108 -0.00595267 -0.0062152 -0.0064687 -0.00671314 -0.00694842 -0.0071744 -0.0073911 -0.00759851 -0.00779662 -0.00798545 -0.00816498 -0.00833523 -0.00849779 -0.00865426 -0.00880466 -0.00894897 -0.0090872 -0.00921935 -0.00934541 -0.00946539 -0.0095793 -0.00968715 -0.00978893 -0.00988464 -0.00997429 -0.0100579 -0.0101354 -0.0102069 -0.010271 -0.0103266 -0.0103737 -0.0104121 -0.0104421 -0.0104635 -0.0104763 -0.0104806 -0.0104763 -0.0104635 -0.0104421 -0.0104121 -0.0103737 -0.0103266 -0.010271 -0.0102069 -0.0101354 -0.0100579 -0.00997429 -0.00988464 -0.00978893 -0.00968715 -0.0095793 -0.00946539 -0.00934541 -0.00921935 -0.0090872 -0.00894897 -0.00880466 -0.00865426 -0.00849779 -0.00833523 -0.00816498 -0.00798545 -0.00779662 -0.00759851 -0.0073911 -0.0071744 -0.00694842 -0.00671314 -0.0064687 -0.0062152 -0.00595267 -0.00568108 -0.00540045 -0.00511077 -0.00481205 -0.00450428 -0.00419318 -0.0038845 -0.00357822 -0.00327435 -0.00297289 -0.00267383 -0.00237718 -0.00208293 -0.00180109 -0.00154165 -0.00130461 -0.00108997 -0.000897723 -0.000727879 -0.000580433 -0.000455387 -0.000348655 -0.000256155 -0.000177885 -0.000113847 -6.40388e-05 -2.84617e-05 -7.11542e-06 0 0 -8.69021e-06 -3.47608e-05 -7.82119e-05 -0.000139043 -0.000217255 -0.000312847 -0.00042582 -0.000556173 -0.000708179 -0.00088611 -0.00108997 -0.00131975 -0.00157545 -0.00185709 -0.00216464 -0.00249812 -0.00284497 -0.00319262 -0.00354108 -0.00389034 -0.00424041 -0.00459128 -0.00494296 -0.00529544 -0.00564166 -0.00597454 -0.00629409 -0.0066003 -0.00689319 -0.00717274 -0.00743895 -0.00769183 -0.00793156 -0.00815832 -0.0083721 -0.00857291 -0.00876074 -0.0089356 -0.00909749 -0.00924641 -0.00938525 -0.0095169 -0.00964137 -0.00975865 -0.00986876 -0.00997167 -0.0100674 -0.010156 -0.0102386 -0.0103165 -0.0103898 -0.0104584 -0.0105223 -0.0105815 -0.010636 -0.0106859 -0.0107305 -0.0107691 -0.0108018 -0.0108285 -0.0108493 -0.0108642 -0.0108731 -0.010876 -0.0108731 -0.0108642 -0.0108493 -0.0108285 -0.0108018 -0.0107691 -0.0107305 -0.0106859 -0.010636 -0.0105815 -0.0105223 -0.0104584 -0.0103898 -0.0103165 -0.0102386 -0.010156 -0.0100674 -0.00997167 -0.00986876 -0.00975865 -0.00964137 -0.0095169 -0.00938525 -0.00924641 -0.00909749 -0.0089356 -0.00876074 -0.00857291 -0.0083721 -0.00815832 -0.00793156 -0.00769183 -0.00743895 -0.00717274 -0.00689319 -0.0066003 -0.00629409 -0.00597454 -0.00564166 -0.00529544 -0.00494296 -0.00459128 -0.00424041 -0.00389034 -0.00354108 -0.00319262 -0.00284497 -0.00249813 -0.00216464 -0.00185709 -0.00157546 -0.00131975 -0.00108997 -0.000886111 -0.00070818 -0.000556174 -0.000425821 -0.000312848 -0.000217255 -0.000139043 -7.82119e-05 -3.47609e-05 -8.69022e-06 0 0 -1.04604e-05 -4.18416e-05 -9.41437e-05 -0.000167367 -0.00026151 -0.000376575 -0.00051256 -0.000669466 -0.000851615 -0.00106333 -0.00130461 -0.00157545 -0.00187586 -0.00220584 -0.00256538 -0.00295448 -0.00335763 -0.00375931 -0.0041595 -0.00455821 -0.00495545 -0.00535121 -0.00574549 -0.00613829 -0.00652102 -0.00688509 -0.00723048 -0.0075572 -0.00786526 -0.00815464 -0.00842536 -0.00867741 -0.00891139 -0.00912788 -0.00932689 -0.00950842 -0.00967247 -0.00981904 -0.00994813 -0.0100597 -0.0101584 -0.0102487 -0.0103307 -0.0104043 -0.0104695 -0.0105263 -0.0105748 -0.010615 -0.0106496 -0.0106818 -0.0107115 -0.0107387 -0.0107633 -0.0107855 -0.0108051 -0.0108223 -0.0108372 -0.0108501 -0.0108611 -0.01087 -0.010877 -0.0108819 -0.0108849 -0.0108859 -0.0108849 -0.0108819 -0.010877 -0.01087 -0.0108611 -0.0108501 -0.0108372 -0.0108223 -0.0108051 -0.0107855 -0.0107633 -0.0107387 -0.0107115 -0.0106818 -0.0106496 -0.010615 -0.0105748 -0.0105263 -0.0104695 -0.0104043 -0.0103307 -0.0102487 -0.0101584 -0.0100597 -0.00994813 -0.00981904 -0.00967247 -0.00950842 -0.00932689 -0.00912788 -0.00891139 -0.00867741 -0.00842536 -0.00815464 -0.00786526 -0.0075572 -0.00723048 -0.00688509 -0.00652103 -0.0061383 -0.00574549 -0.00535121 -0.00495545 -0.00455821 -0.0041595 -0.00375931 -0.00335764 -0.00295449 -0.00256538 -0.00220584 -0.00187587 -0.00157546 -0.00130461 -0.00106333 -0.000851616 -0.000669467 -0.000512561 -0.000376575 -0.000261511 -0.000167367 -9.41438e-05 -4.18417e-05 -1.04604e-05 0 0 -1.2426e-05 -4.97041e-05 -0.000111834 -0.000198816 -0.000310651 -0.000447337 -0.000608875 -0.000795265 -0.00101074 -0.00125954 -0.00154165 -0.00185709 -0.00220584 -0.00258791 -0.0030033 -0.00345202 -0.00391517 -0.00437387 -0.00482814 -0.00527796 -0.00572335 -0.00616429 -0.00660079 -0.00703284 -0.00745016 -0.00784241 -0.00820962 -0.00855178 -0.00886888 -0.00916093 -0.00942793 -0.00966988 -0.00988789 -0.0100831 -0.0102555 -0.0104051 -0.0105318 -0.0106358 -0.0107169 -0.0107752 -0.0108173 -0.0108498 -0.0108726 -0.0108858 -0.0108894 -0.0108834 -0.0108677 -0.0108424 -0.0108125 -0.010783 -0.0107541 -0.0107255 -0.0106975 -0.0106698 -0.0106427 -0.010616 -0.0105912 -0.0105697 -0.0105515 -0.0105366 -0.010525 -0.0105168 -0.0105118 -0.0105101 -0.0105118 -0.0105168 -0.010525 -0.0105366 -0.0105515 -0.0105697 -0.0105912 -0.010616 -0.0106427 -0.0106698 -0.0106975 -0.0107255 -0.010754 -0.010783 -0.0108125 -0.0108424 -0.0108677 -0.0108834 -0.0108894 -0.0108858 -0.0108726 -0.0108498 -0.0108173 -0.0107752 -0.0107169 -0.0106358 -0.0105318 -0.0104051 -0.0102555 -0.0100831 -0.00988789 -0.00966988 -0.00942793 -0.00916093 -0.00886888 -0.00855178 -0.00820962 -0.00784241 -0.00745016 -0.00703285 -0.00660079 -0.00616429 -0.00572335 -0.00527797 -0.00482814 -0.00437388 -0.00391517 -0.00345202 -0.00300331 -0.00258791 -0.00220584 -0.00185709 -0.00154165 -0.00125954 -0.00101074 -0.000795266 -0.000608876 -0.000447337 -0.000310651 -0.000198817 -0.000111834 -4.97041e-05 -1.2426e-05 0 0 -1.4587e-05 -5.83482e-05 -0.000131283 -0.000233393 -0.000364676 -0.000525133 -0.000714765 -0.000933571 -0.00118556 -0.00147473 -0.00180109 -0.00216464 -0.00256538 -0.0030033 -0.00347842 -0.00399072 -0.00451757 -0.00503633 -0.00554701 -0.0060496 -0.0065441 -0.00703052 -0.00750885 -0.00797909 -0.00842905 -0.00884652 -0.00923151 -0.00958402 -0.00990405 -0.0101916 -0.0104466 -0.0106692 -0.0108611 -0.011024 -0.0111579 -0.0112628 -0.0113388 -0.0113858 -0.0114038 -0.0113929 -0.0113619 -0.0113201 -0.0112672 -0.0112033 -0.0111285 -0.0110427 -0.010946 -0.0108382 -0.0107271 -0.0106202 -0.0105175 -0.010419 -0.0103247 -0.0102346 -0.0101487 -0.010067 -0.00999244 -0.00992779 -0.00987309 -0.00982833 -0.00979352 -0.00976866 -0.00975374 -0.00974877 -0.00975374 -0.00976866 -0.00979352 -0.00982833 -0.00987309 -0.00992779 -0.00999244 -0.010067 -0.0101487 -0.0102346 -0.0103247 -0.010419 -0.0105175 -0.0106202 -0.0107271 -0.0108382 -0.010946 -0.0110427 -0.0111285 -0.0112033 -0.0112672 -0.0113201 -0.0113619 -0.0113929 -0.0114038 -0.0113858 -0.0113388 -0.0112628 -0.0111579 -0.011024 -0.0108611 -0.0106692 -0.0104466 -0.0101916 -0.00990405 -0.00958402 -0.00923151 -0.00884652 -0.00842905 -0.00797909 -0.00750885 -0.00703052 -0.0065441 -0.0060496 -0.00554701 -0.00503633 -0.00451757 -0.00399072 -0.00347842 -0.00300331 -0.00256538 -0.00216464 -0.00180109 -0.00147473 -0.00118556 -0.000933572 -0.000714766 -0.000525134 -0.000364676 -0.000233393 -0.000131283 -5.83482e-05 -1.45871e-05 0 0 -1.69435e-05 -6.77739e-05 -0.000152491 -0.000271095 -0.000423587 -0.000609965 -0.00083023 -0.00108438 -0.00137606 -0.00170891 -0.00208293 -0.00249812 -0.00295448 -0.00345202 -0.00399072 -0.00457059 -0.00516484 -0.00574667 -0.0063161 -0.00687311 -0.00741771 -0.00794989 -0.00846966 -0.00897703 -0.0094577 -0.00989741 -0.0102962 -0.0106539 -0.0109708 -0.0112466 -0.0114815 -0.0116755 -0.0118309 -0.0119505 -0.012034 -0.0120817 -0.0120933 -0.0120691 -0.0120088 -0.0119126 -0.0117923 -0.0116595 -0.0115144 -0.0113568 -0.0111868 -0.0110045 -0.0108097 -0.0106025 -0.0103935 -0.0101932 -0.0100017 -0.00981897 -0.00964495 -0.00947969 -0.00932316 -0.00917539 -0.00904095 -0.00892444 -0.00882585 -0.00874519 -0.00868245 -0.00863764 -0.00861075 -0.00860179 -0.00861075 -0.00863764 -0.00868245 -0.00874519 -0.00882585 -0.00892444 -0.00904095 -0.00917539 -0.00932316 -0.00947969 -0.00964495 -0.00981897 -0.0100017 -0.0101932 -0.0103935 -0.0106025 -0.0108097 -0.0110045 -0.0111868 -0.0113568 -0.0115144 -0.0116595 -0.0117923 -0.0119126 -0.0120088 -0.0120691 -0.0120933 -0.0120817 -0.012034 -0.0119505 -0.0118309 -0.0116755 -0.0114815 -0.0112466 -0.0109708 -0.0106539 -0.0102962 -0.00989741 -0.0094577 -0.00897703 -0.00846967 -0.00794989 -0.00741771 -0.00687311 -0.0063161 -0.00574667 -0.00516484 -0.00457059 -0.00399072 -0.00345202 -0.00295449 -0.00249813 -0.00208294 -0.00170891 -0.00137606 -0.00108438 -0.000830231 -0.000609965 -0.000423587 -0.000271096 -0.000152491 -6.77739e-05 -1.69435e-05 0 0 -1.9422e-05 -7.76881e-05 -0.000174798 -0.000310752 -0.000485551 -0.000699193 -0.000951679 -0.00124301 -0.0015762 -0.00195425 -0.00237718 -0.00284497 -0.00335763 -0.00391517 -0.00451757 -0.00516484 -0.00582551 -0.00646812 -0.00709267 -0.00769917 -0.0082876 -0.00885797 -0.00941028 -0.00994453 -0.0104441 -0.0108925 -0.0112896 -0.0116355 -0.0119301 -0.0121735 -0.0123656 -0.0125065 -0.0125996 -0.0126485 -0.012653 -0.0126133 -0.0125293 -0.012401 -0.0122285 -0.0120117 -0.0117658 -0.0115061 -0.0112327 -0.0109455 -0.0106445 -0.0103297 -0.0100011 -0.00965879 -0.00931704 -0.00899029 -0.00867852 -0.00838174 -0.00809994 -0.00783314 -0.00758133 -0.0073445 -0.0071295 -0.00694317 -0.0067855 -0.0066565 -0.00655617 -0.00648451 -0.00644151 -0.00642717 -0.00644151 -0.00648451 -0.00655617 -0.0066565 -0.0067855 -0.00694317 -0.0071295 -0.0073445 -0.00758133 -0.00783314 -0.00809994 -0.00838174 -0.00867852 -0.00899029 -0.00931704 -0.00965879 -0.0100011 -0.0103297 -0.0106445 -0.0109455 -0.0112327 -0.0115061 -0.0117658 -0.0120117 -0.0122285 -0.012401 -0.0125293 -0.0126133 -0.012653 -0.0126485 -0.0125996 -0.0125065 -0.0123656 -0.0121735 -0.0119301 -0.0116355 -0.0112896 -0.0108925 -0.0104441 -0.00994453 -0.00941028 -0.00885797 -0.0082876 -0.00769917 -0.00709268 -0.00646812 -0.00582551 -0.00516484 -0.00451757 -0.00391517 -0.00335764 -0.00284497 -0.00237718 -0.00195425 -0.0015762 -0.00124301 -0.00095168 -0.000699194 -0.000485551 -0.000310753 -0.000174798 -7.76882e-05 -1.9422e-05 0 0 -2.19494e-05 -8.77977e-05 -0.000197545 -0.000351191 -0.000548736 -0.00079018 -0.00107552 -0.00140476 -0.0017799 -0.00220292 -0.00267383 -0.00319262 -0.0037593 -0.00437387 -0.00503633 -0.00574667 -0.00646812 -0.0071639 -0.00783401 -0.00847844 -0.0090972 -0.00969029 -0.0102577 -0.0107995 -0.0112963 -0.0117291 -0.0120978 -0.0124025 -0.012643 -0.0128195 -0.0129319 -0.0129802 -0.0129692 -0.0129037 -0.0127838 -0.0126094 -0.0123805 -0.0120971 -0.0117593 -0.011367 -0.0109399 -0.0104978 -0.0100408 -0.00956875 -0.00908172 -0.0085797 -0.00806268 -0.00753067 -0.00700309 -0.00649936 -0.00601948 -0.00556344 -0.00513126 -0.00472292 -0.00433843 -0.00397779 -0.00365086 -0.00336753 -0.00312779 -0.00293163 -0.00277907 -0.0026701 -0.00260471 -0.00258292 -0.00260471 -0.0026701 -0.00277907 -0.00293163 -0.00312779 -0.00336753 -0.00365086 -0.00397779 -0.00433843 -0.00472292 -0.00513126 -0.00556344 -0.00601948 -0.00649936 -0.00700309 -0.00753067 -0.00806268 -0.0085797 -0.00908172 -0.00956875 -0.0100408 -0.0104978 -0.0109399 -0.011367 -0.0117593 -0.0120971 -0.0123805 -0.0126094 -0.0127838 -0.0129037 -0.0129692 -0.0129802 -0.0129319 -0.0128195 -0.012643 -0.0124025 -0.0120978 -0.0117291 -0.0112963 -0.0107995 -0.0102577 -0.0096903 -0.00909721 -0.00847844 -0.00783401 -0.0071639 -0.00646812 -0.00574667 -0.00503633 -0.00437388 -0.00375931 -0.00319263 -0.00267383 -0.00220292 -0.0017799 -0.00140477 -0.00107552 -0.00079018 -0.000548736 -0.000351191 -0.000197545 -8.77978e-05 -2.19495e-05 0 0 -2.45257e-05 -9.81028e-05 -0.000220731 -0.000392411 -0.000613142 -0.000882925 -0.00120176 -0.00156964 -0.00198717 -0.00245491 -0.00297288 -0.00354108 -0.0041595 -0.00482814 -0.00554701 -0.0063161 -0.00709267 -0.00783401 -0.00854009 -0.00921093 -0.00984653 -0.0104469 -0.011012 -0.0115418 -0.0120143 -0.0124073 -0.0127209 -0.012955 -0.0131096 -0.0131847 -0.0131803 -0.0130965 -0.0129397 -0.0127163 -0.0124264 -0.0120699 -0.0116469 -0.0111573 -0.0106012 -0.00997855 -0.0093146 -0.00863462 -0.00793861 -0.00722658 -0.00649852 -0.00575442 -0.0049943 -0.00421815 -0.00345165 -0.00272047 -0.00202462 -0.0013641 -0.000738899 -0.000149026 0.000405523 0.000924745 0.00139496 0.00180247 0.0021473 0.00242942 0.00264886 0.00280559 0.00289964 0.00293098 0.00289964 0.00280559 0.00264886 0.00242942 0.0021473 0.00180247 0.00139496 0.000924745 0.000405523 -0.000149025 -0.000738899 -0.0013641 -0.00202462 -0.00272047 -0.00345165 -0.00421815 -0.0049943 -0.00575442 -0.00649852 -0.00722658 -0.00793861 -0.00863462 -0.0093146 -0.00997854 -0.0106012 -0.0111573 -0.0116469 -0.0120699 -0.0124264 -0.0127163 -0.0129397 -0.0130965 -0.0131803 -0.0131847 -0.0131096 -0.012955 -0.0127209 -0.0124073 -0.0120143 -0.0115418 -0.011012 -0.0104469 -0.00984653 -0.00921094 -0.0085401 -0.00783401 -0.00709268 -0.0063161 -0.00554701 -0.00482814 -0.0041595 -0.00354108 -0.00297289 -0.00245492 -0.00198717 -0.00156965 -0.00120176 -0.000882926 -0.000613143 -0.000392411 -0.000220731 -9.81029e-05 -2.45257e-05 0 0 -2.71508e-05 -0.000108603 -0.000244357 -0.000434413 -0.00067877 -0.000977429 -0.00133039 -0.00173765 -0.002198 -0.00271024 -0.00327435 -0.00389034 -0.00455821 -0.00527796 -0.0060496 -0.00687311 -0.00769917 -0.00847844 -0.00921093 -0.00989664 -0.0105356 -0.0111277 -0.0116731 -0.0121716 -0.0125981 -0.0129271 -0.0131588 -0.0