<?xml version="1.0"?> 
<VTKFile type="StructuredGrid" version="0.1"> 
<StructuredGrid WholeExtent="0 128 0 128 0 0"> 
<Piece Extent="0 128 0 128 0 0"> 
<PointData>
<DataArray type="Float32" Name="u" format="ascii" NumberOfComponents="1"> 
0 0 0 0 0 0 0 0 0 0 0 0 0 0 0 0 0 0 0 0 0 0 0 0 0 0 0 0 0 0 0 0 0 0 0 0 0 0 0 0 0 0 0 0 0 0 0 0 0 0 0 0 0 0 0 0 0 0 0 0 0 0 0 0 0 0 0 0 0 0 0 0 0 0 0 0 0 0 0 0 0 0 0 0 0 0 0 0 0 0 0 0 0 0 0 0 0 0 0 0 0 0 0 0 0 0 0 0 0 0 0 0 0 0 0 0 0 0 0 0 0 0 0 0 0 0 0 0 0 0 -5.67089e-08 -2.26836e-07 -5.1038e-07 -9.07343e-07 -1.41772e-06 -2.04152e-06 -2.77874e-06 -3.62937e-06 -4.63398e-06 -5.83312e-06 -7.22678e-06 -8.81498e-06 -1.05977e-05 -1.2575e-05 -1.47468e-05 -1.71131e-05 -1.95979e-05 -2.21251e-05 -2.46947e-05 -2.73068e-05 -2.99613e-05 -3.26583e-05 -3.53976e-05 -3.81794e-05 -4.09587e-05 -4.36905e-05 -4.63749e-05 -4.90118e-05 -5.16013e-05 -5.41433e-05 -5.66379e-05 -5.9085e-05 -6.14793e-05 -6.3815e-05 -6.60924e-05 -6.83113e-05 -7.04719e-05 -7.25739e-05 -7.46176e-05 -7.66028e-05 -7.85317e-05 -8.04062e-05 -8.22263e-05 -8.39921e-05 -8.57035e-05 -8.73606e-05 -8.89633e-05 -9.05117e-05 -9.19939e-05 -9.33981e-05 -9.47245e-05 -9.59729e-05 -9.71434e-05 -9.82359e-05 -9.92505e-05 -0.000100187 -0.000101029 -0.000101758 -0.000102375 -0.00010288 -0.000103273 -0.000103554 -0.000103722 -0.000103778 -0.000103722 -0.000103554 -0.000103273 -0.00010288 -0.000102375 -0.000101758 -0.000101029 -0.000100187 -9.92505e-05 -9.82359e-05 -9.71434e-05 -9.59729e-05 -9.47245e-05 -9.33981e-05 -9.19939e-05 -9.05117e-05 -8.89633e-05 -8.73606e-05 -8.57035e-05 -8.39921e-05 -8.22263e-05 -8.04062e-05 -7.85317e-05 -7.66028e-05 -7.46176e-05 -7.25739e-05 -7.04718e-05 -6.83113e-05 -6.60924e-05 -6.3815e-05 -6.14793e-05 -5.9085e-05 -5.66379e-05 -5.41433e-05 -5.16013e-05 -4.90118e-05 -4.63749e-05 -4.36905e-05 -4.09587e-05 -3.81794e-05 -3.53976e-05 -3.26583e-05 -2.99613e-05 -2.73068e-05 -2.46948e-05 -2.21251e-05 -1.95979e-05 -1.71131e-05 -1.47468e-05 -1.2575e-05 -1.05977e-05 -8.81499e-06 -7.22679e-06 -5.83312e-06 -4.63398e-06 -3.62937e-06 -2.77874e-06 -2.04152e-06 -1.41772e-06 -9.07343e-07 -5.10381e-07 -2.26836e-07 -5.6709e-08 0 0 -2.26836e-07 -9.07343e-07 -2.04152e-06 -3.62937e-06 -5.67089e-06 -8.16608e-06 -1.11149e-05 -1.45175e-05 -1.85359e-05 -2.33325e-05 -2.89071e-05 -3.52599e-05 -4.23908e-05 -5.02999e-05 -5.8987e-05 -6.84523e-05 -7.83915e-05 -8.85004e-05 -9.8779e-05 -0.000109227 -0.000119845 -0.000130633 -0.00014159 -0.000152718 -0.000163835 -0.000174762 -0.000185499 -0.000196047 -0.000206405 -0.000216573 -0.000226552 -0.00023634 -0.000245917 -0.00025526 -0.00026437 -0.000273245 -0.000281887 -0.000290296 -0.00029847 -0.000306411 -0.000314127 -0.000321625 -0.000328905 -0.000335968 -0.000342814 -0.000349442 -0.000355853 -0.000362047 -0.000367975 -0.000373593 -0.000378898 -0.000383892 -0.000388573 -0.000392944 -0.000397002 -0.000400749 -0.000404115 -0.000407033 -0.000409501 -0.000411521 -0.000413092 -0.000414214 -0.000414888 -0.000415112 -0.000414888 -0.000414214 -0.000413092 -0.000411521 -0.000409501 -0.000407033 -0.000404115 -0.000400749 -0.000397002 -0.000392944 -0.000388573 -0.000383892 -0.000378898 -0.000373593 -0.000367975 -0.000362047 -0.000355853 -0.000349442 -0.000342814 -0.000335968 -0.000328905 -0.000321625 -0.000314127 -0.000306411 -0.00029847 -0.000290296 -0.000281887 -0.000273245 -0.00026437 -0.00025526 -0.000245917 -0.00023634 -0.000226552 -0.000216573 -0.000206405 -0.000196047 -0.000185499 -0.000174762 -0.000163835 -0.000152718 -0.00014159 -0.000130633 -0.000119845 -0.000109227 -9.8779e-05 -8.85004e-05 -7.83915e-05 -6.84523e-05 -5.89871e-05 -5.02999e-05 -4.23909e-05 -3.526e-05 -2.89072e-05 -2.33325e-05 -1.85359e-05 -1.45175e-05 -1.1115e-05 -8.16609e-06 -5.6709e-06 -3.62937e-06 -2.04152e-06 -9.07343e-07 -2.26836e-07 0 0 -5.1038e-07 -2.04152e-06 -4.59342e-06 -8.16608e-06 -1.27595e-05 -1.83737e-05 -2.50086e-05 -3.26643e-05 -4.17058e-05 -5.2498e-05 -6.50411e-05 -7.93348e-05 -9.53794e-05 -0.000113175 -0.000132721 -0.000154018 -0.000176381 -0.000199126 -0.000222253 -0.000245761 -0.000269652 -0.000293924 -0.000318578 -0.000343615 -0.000368628 -0.000393214 -0.000417374 -0.000441106 -0.000464411 -0.00048729 -0.000509741 -0.000531765 -0.000553313 -0.000574335 -0.000594832 -0.000614802 -0.000634247 -0.000653165 -0.000671558 -0.000689426 -0.000706785 -0.000723656 -0.000740037 -0.000755929 -0.000771332 -0.000786245 -0.00080067 -0.000814605 -0.000827945 -0.000840583 -0.00085252 -0.000863756 -0.00087429 -0.000884123 -0.000893255 -0.000901685 -0.000909259 -0.000915824 -0.000921378 -0.000925923 -0.000929458 -0.000931983 -0.000933497 -0.000934002 -0.000933497 -0.000931983 -0.000929458 -0.000925923 -0.000921378 -0.000915824 -0.000909259 -0.000901685 -0.000893255 -0.000884123 -0.00087429 -0.000863756 -0.00085252 -0.000840583 -0.000827945 -0.000814605 -0.00080067 -0.000786245 -0.000771332 -0.000755929 -0.000740037 -0.000723656 -0.000706785 -0.000689426 -0.000671558 -0.000653165 -0.000634247 -0.000614802 -0.000594832 -0.000574335 -0.000553313 -0.000531765 -0.000509741 -0.00048729 -0.000464411 -0.000441106 -0.000417374 -0.000393214 -0.000368628 -0.000343615 -0.000318579 -0.000293924 -0.000269652 -0.000245761 -0.000222253 -0.000199126 -0.000176381 -0.000154018 -0.000132721 -0.000113175 -9.53794e-05 -7.93349e-05 -6.50411e-05 -5.24981e-05 -4.17058e-05 -3.26644e-05 -2.50087e-05 -1.83737e-05 -1.27595e-05 -8.16609e-06 -4.59343e-06 -2.04152e-06 -5.10381e-07 0 0 -9.07343e-07 -3.62937e-06 -8.16608e-06 -1.45175e-05 -2.26836e-05 -3.26643e-05 -4.44598e-05 -5.80699e-05 -7.41436e-05 -9.33298e-05 -0.000115629 -0.00014104 -0.000169563 -0.0002012 -0.000235948 -0.000273809 -0.000313566 -0.000354002 -0.000395116 -0.000436909 -0.000479381 -0.000522532 -0.000566362 -0.00061087 -0.000655339 -0.000699048 -0.000741998 -0.000784189 -0.00082562 -0.000866293 -0.000906206 -0.000945361 -0.000983668 -0.00102104 -0.00105748 -0.00109298 -0.00112755 -0.00116118 -0.00119388 -0.00122565 -0.00125651 -0.0012865 -0.00131562 -0.00134387 -0.00137126 -0.00139777 -0.00142341 -0.00144819 -0.0014719 -0.00149437 -0.00151559 -0.00153557 -0.00155429 -0.00157177 -0.00158801 -0.001603 -0.00161646 -0.00162813 -0.00163801 -0.00164609 -0.00165237 -0.00165686 -0.00165955 -0.00166045 -0.00165955 -0.00165686 -0.00165237 -0.00164609 -0.00163801 -0.00162813 -0.00161646 -0.001603 -0.00158801 -0.00157177 -0.00155429 -0.00153557 -0.00151559 -0.00149437 -0.0014719 -0.00144819 -0.00142341 -0.00139777 -0.00137126 -0.00134387 -0.00131562 -0.0012865 -0.00125651 -0.00122565 -0.00119388 -0.00116118 -0.00112755 -0.00109298 -0.00105748 -0.00102104 -0.000983668 -0.000945361 -0.000906206 -0.000866293 -0.00082562 -0.000784189 -0.000741998 -0.000699048 -0.000655339 -0.00061087 -0.000566362 -0.000522532 -0.000479381 -0.000436909 -0.000395116 -0.000354002 -0.000313566 -0.000273809 -0.000235948 -0.0002012 -0.000169563 -0.00014104 -0.000115629 -9.33299e-05 -7.41437e-05 -5.807e-05 -4.44598e-05 -3.26644e-05 -2.26836e-05 -1.45175e-05 -8.16609e-06 -3.62937e-06 -9.07343e-07 0 0 -1.41772e-06 -5.67089e-06 -1.27595e-05 -2.26836e-05 -3.54431e-05 -5.1038e-05 -6.94684e-05 -9.07343e-05 -0.000115849 -0.000145828 -0.00018067 -0.000220375 -0.000264943 -0.000314374 -0.000368669 -0.000427827 -0.000489947 -0.000553127 -0.000617369 -0.000682671 -0.000749033 -0.000816456 -0.00088494 -0.000954485 -0.00102397 -0.00109226 -0.00115937 -0.00122529 -0.00129003 -0.00135358 -0.00141595 -0.00147713 -0.00153698 -0.00159538 -0.00165231 -0.00170778 -0.0017618 -0.00181435 -0.00186544 -0.00191507 -0.00196329 -0.00201015 -0.00205566 -0.0020998 -0.00214259 -0.00218401 -0.00222408 -0.00226279 -0.00229985 -0.00233495 -0.00236811 -0.00239932 -0.00242858 -0.0024559 -0.00248126 -0.00250468 -0.00252572 -0.00254395 -0.00255938 -0.00257201 -0.00258183 -0.00258884 -0.00259305 -0.00259445 -0.00259305 -0.00258884 -0.00258183 -0.00257201 -0.00255938 -0.00254395 -0.00252572 -0.00250468 -0.00248126 -0.0024559 -0.00242858 -0.00239932 -0.00236811 -0.00233495 -0.00229985 -0.00226279 -0.00222408 -0.00218401 -0.00214259 -0.0020998 -0.00205566 -0.00201015 -0.00196329 -0.00191507 -0.00186544 -0.00181435 -0.0017618 -0.00170778 -0.00165231 -0.00159538 -0.00153698 -0.00147713 -0.00141595 -0.00135358 -0.00129003 -0.00122529 -0.00115937 -0.00109226 -0.00102397 -0.000954485 -0.00088494 -0.000816456 -0.000749033 -0.000682671 -0.000617369 -0.000553128 -0.000489947 -0.000427827 -0.000368669 -0.000314374 -0.000264943 -0.000220375 -0.00018067 -0.000145828 -0.00011585 -9.07343e-05 -6.94685e-05 -5.10381e-05 -3.54431e-05 -2.26836e-05 -1.27595e-05 -5.6709e-06 -1.41772e-06 0 0 -2.04152e-06 -8.16608e-06 -1.83737e-05 -3.26643e-05 -5.1038e-05 -7.34947e-05 -0.000100035 -0.000130657 -0.000166823 -0.000209992 -0.000260164 -0.000317339 -0.000381518 -0.000452699 -0.000530883 -0.000616071 -0.000705523 -0.000796504 -0.000889011 -0.000983046 -0.00107861 -0.0011757 -0.00127431 -0.00137446 -0.00147451 -0.00157286 -0.00166949 -0.00176442 -0.00185765 -0.00194916 -0.00203896 -0.00212706 -0.00221325 -0.00229734 -0.00237933 -0.00245921 -0.00253699 -0.00261266 -0.00268623 -0.0027577 -0.00282714 -0.00289462 -0.00296015 -0.00302372 -0.00308533 -0.00314498 -0.00320268 -0.00325842 -0.00331178 -0.00336233 -0.00341008 -0.00345502 -0.00349716 -0.00353649 -0.00357302 -0.00360674 -0.00363704 -0.00366329 -0.00368551 -0.00370369 -0.00371783 -0.00372793 -0.00373399 -0.00373601 -0.00373399 -0.00372793 -0.00371783 -0.00370369 -0.00368551 -0.00366329 -0.00363704 -0.00360674 -0.00357302 -0.00353649 -0.00349716 -0.00345502 -0.00341008 -0.00336233 -0.00331178 -0.00325842 -0.00320268 -0.00314498 -0.00308533 -0.00302372 -0.00296015 -0.00289462 -0.00282714 -0.0027577 -0.00268623 -0.00261266 -0.00253699 -0.00245921 -0.00237933 -0.00229734 -0.00221325 -0.00212706 -0.00203896 -0.00194916 -0.00185765 -0.00176442 -0.0016695 -0.00157286 -0.00147451 -0.00137446 -0.00127431 -0.0011757 -0.00107861 -0.000983046 -0.000889011 -0.000796504 -0.000705524 -0.000616071 -0.000530884 -0.000452699 -0.000381518 -0.00031734 -0.000260164 -0.000209992 -0.000166823 -0.000130657 -0.000100035 -7.34948e-05 -5.10381e-05 -3.26644e-05 -1.83737e-05 -8.16609e-06 -2.04152e-06 0 0 -2.77874e-06 -1.11149e-05 -2.50086e-05 -4.44598e-05 -6.94684e-05 -0.000100035 -0.000136158 -0.000177839 -0.000227065 -0.000285823 -0.000354112 -0.000431934 -0.000519288 -0.000616173 -0.000722591 -0.000838541 -0.000960296 -0.00108413 -0.00121004 -0.00133803 -0.0014681 -0.00160025 -0.00173448 -0.00187079 -0.00200697 -0.00214083 -0.00227237 -0.00240158 -0.00252846 -0.00265302 -0.00277526 -0.00289517 -0.00301248 -0.00312694 -0.00323853 -0.00334726 -0.00345312 -0.00355612 -0.00365626 -0.00375354 -0.00384805 -0.0039399 -0.00402909 -0.00411561 -0.00419947 -0.00428067 -0.0043592 -0.00443507 -0.0045077 -0.00457651 -0.0046415 -0.00470267 -0.00476002 -0.00481356 -0.00486328 -0.00490917 -0.00495041 -0.00498615 -0.00501639 -0.00504114 -0.00506038 -0.00507413 -0.00508237 -0.00508512 -0.00508237 -0.00507413 -0.00506038 -0.00504114 -0.00501639 -0.00498615 -0.00495041 -0.00490917 -0.00486328 -0.00481356 -0.00476002 -0.00470267 -0.0046415 -0.00457651 -0.0045077 -0.00443507 -0.0043592 -0.00428067 -0.00419947 -0.00411561 -0.00402909 -0.0039399 -0.00384805 -0.00375354 -0.00365626 -0.00355612 -0.00345312 -0.00334726 -0.00323853 -0.00312694 -0.00301248 -0.00289517 -0.00277526 -0.00265302 -0.00252846 -0.00240158 -0.00227237 -0.00214083 -0.00200697 -0.00187079 -0.00173448 -0.00160025 -0.00146811 -0.00133803 -0.00121004 -0.00108413 -0.000960296 -0.000838541 -0.000722591 -0.000616174 -0.000519288 -0.000431934 -0.000354113 -0.000285823 -0.000227065 -0.000177839 -0.000136158 -0.000100035 -6.94685e-05 -4.44598e-05 -2.50087e-05 -1.1115e-05 -2.77874e-06 0 0 -3.62937e-06 -1.45175e-05 -3.26643e-05 -5.80699e-05 -9.07343e-05 -0.000130657 -0.000177839 -0.00023228 -0.000296575 -0.000373319 -0.000462514 -0.000564159 -0.000678253 -0.000804798 -0.000943793 -0.00109524 -0.00125426 -0.00141601 -0.00158046 -0.00174764 -0.00191752 -0.00209013 -0.00226545 -0.00244348 -0.00262135 -0.00279619 -0.00296799 -0.00313675 -0.00330248 -0.00346517 -0.00362483 -0.00378144 -0.00393467 -0.00408416 -0.00422991 -0.00437193 -0.0045102 -0.00464473 -0.00477553 -0.00490258 -0.00502603 -0.005146 -0.00526248 -0.00537549 -0.00548503 -0.00559108 -0.00569365 -0.00579275 -0.00588761 -0.00597748 -0.00606237 -0.00614226 -0.00621718 -0.0062871 -0.00635203 -0.00641198 -0.00646584 -0.00651252 -0.00655202 -0.00658434 -0.00660948 -0.00662743 -0.0066382 -0.00664179 -0.0066382 -0.00662743 -0.00660948 -0.00658434 -0.00655202 -0.00651252 -0.00646584 -0.00641198 -0.00635203 -0.0062871 -0.00621718 -0.00614226 -0.00606237 -0.00597748 -0.00588761 -0.00579275 -0.00569365 -0.00559108 -0.00548503 -0.00537549 -0.00526248 -0.005146 -0.00502603 -0.00490258 -0.00477553 -0.00464473 -0.0045102 -0.00437193 -0.00422991 -0.00408416 -0.00393467 -0.00378144 -0.00362483 -0.00346517 -0.00330248 -0.00313675 -0.00296799 -0.00279619 -0.00262135 -0.00244348 -0.00226545 -0.00209013 -0.00191753 -0.00174764 -0.00158046 -0.00141601 -0.00125426 -0.00109524 -0.000943793 -0.000804798 -0.000678254 -0.000564159 -0.000462514 -0.00037332 -0.000296575 -0.00023228 -0.000177839 -0.000130657 -9.07343e-05 -5.807e-05 -3.26644e-05 -1.45175e-05 -3.62937e-06 0 0 -4.63398e-06 -1.85359e-05 -4.17058e-05 -7.41436e-05 -0.000115849 -0.000166823 -0.000227065 -0.000296575 -0.000378527 -0.000476098 -0.000589286 -0.000718093 -0.000862517 -0.00102256 -0.00119822 -0.0013895 -0.00159011 -0.00179378 -0.0020005 -0.00221028 -0.00242311 -0.00263899 -0.00285793 -0.00307992 -0.00330127 -0.00351831 -0.00373102 -0.00393942 -0.00414349 -0.00434324 -0.00453867 -0.00472977 -0.00491617 -0.00509748 -0.0052737 -0.00544482 -0.00561085 -0.00577179 -0.00592764 -0.00607839 -0.0062244 -0.00636602 -0.00650324 -0.00663606 -0.00676449 -0.00688853 -0.00700816 -0.00712341 -0.00723353 -0.00733782 -0.00743627 -0.00752888 -0.00761566 -0.00769659 -0.00777169 -0.00784095 -0.00790315 -0.00795705 -0.00800266 -0.00803998 -0.008069 -0.00808973 -0.00810217 -0.00810632 -0.00810217 -0.00808973 -0.008069 -0.00803998 -0.00800266 -0.00795705 -0.00790315 -0.00784095 -0.00777169 -0.00769659 -0.00761566 -0.00752888 -0.00743627 -0.00733782 -0.00723353 -0.00712341 -0.00700816 -0.00688853 -0.00676449 -0.00663606 -0.00650324 -0.00636602 -0.0062244 -0.00607839 -0.00592764 -0.00577179 -0.00561085 -0.00544482 -0.0052737 -0.00509748 -0.00491617 -0.00472977 -0.00453867 -0.00434324 -0.00414349 -0.00393942 -0.00373102 -0.00351831 -0.00330127 -0.00307992 -0.00285793 -0.00263899 -0.00242311 -0.00221028 -0.0020005 -0.00179378 -0.00159011 -0.0013895 -0.00119822 -0.00102256 -0.000862518 -0.000718093 -0.000589287 -0.000476098 -0.000378528 -0.000296575 -0.000227065 -0.000166823 -0.00011585 -7.41437e-05 -4.17058e-05 -1.85359e-05 -4.63398e-06 0 0 -5.83312e-06 -2.33325e-05 -5.2498e-05 -9.33298e-05 -0.000145828 -0.000209992 -0.000285823 -0.000373319 -0.000476098 -0.000597773 -0.000738346 -0.000897815 -0.00107618 -0.00127345 -0.00148961 -0.00172467 -0.00197053 -0.0022191 -0.00247039 -0.00272438 -0.00298109 -0.00324051 -0.00350264 -0.00376748 -0.00403035 -0.00428657 -0.00453612 -0.00477902 -0.00501526 -0.00524484 -0.00546777 -0.00568404 -0.00589334 -0.00609536 -0.00629009 -0.00647755 -0.00665772 -0.00683061 -0.00699621 -0.00715454 -0.00730652 -0.00745309 -0.00759426 -0.00773003 -0.00786038 -0.00798533 -0.00810488 -0.00821901 -0.0083275 -0.00843009 -0.00852679 -0.0086176 -0.00870251 -0.00878152 -0.00885465 -0.00892187 -0.00898214 -0.00903436 -0.00907856 -0.00911471 -0.00914284 -0.00916292 -0.00917498 -0.00917899 -0.00917498 -0.00916292 -0.00914284 -0.00911471 -0.00907856 -0.00903436 -0.00898214 -0.00892187 -0.00885465 -0.00878152 -0.00870251 -0.0086176 -0.00852679 -0.00843009 -0.0083275 -0.00821901 -0.00810488 -0.00798533 -0.00786038 -0.00773003 -0.00759426 -0.00745309 -0.00730652 -0.00715454 -0.00699621 -0.00683061 -0.00665772 -0.00647755 -0.00629009 -0.00609536 -0.00589334 -0.00568404 -0.00546777 -0.00524484 -0.00501526 -0.00477902 -0.00453612 -0.00428657 -0.00403035 -0.00376748 -0.00350264 -0.00324051 -0.00298109 -0.00272438 -0.00247039 -0.0022191 -0.00197053 -0.00172467 -0.00148961 -0.00127345 -0.00107618 -0.000897816 -0.000738346 -0.000597774 -0.000476098 -0.00037332 -0.000285823 -0.000209992 -0.000145828 -9.33299e-05 -5.24981e-05 -2.33325e-05 -5.83312e-06 0 0 -7.22678e-06 -2.89071e-05 -6.5041e-05 -0.000115629 -0.00018067 -0.000260164 -0.000354112 -0.000462514 -0.000589286 -0.000738346 -0.000909693 -0.00110333 -0.00131925 -0.00155746 -0.00181795 -0.00210074 -0.00239551 -0.00269197 -0.00299012 -0.00328995 -0.00359148 -0.00389469 -0.00419959 -0.00450618 -0.0048086 -0.00510096 -0.00538329 -0.00565557 -0.0059178 -0.00617 -0.00641214 -0.00664425 -0.00686617 -0.00707779 -0.0072791 -0.0074701 -0.00765079 -0.00782118 -0.00798125 -0.00813102 -0.00827237 -0.00840722 -0.00853555 -0.00865738 -0.00877269 -0.00888149 -0.00898379 -0.00907957 -0.00916952 -0.00925431 -0.00933394 -0.00940841 -0.00947773 -0.00954189 -0.0096009 -0.00965475 -0.00970281 -0.00974446 -0.00977971 -0.00980855 -0.00983098 -0.009847 -0.00985661 -0.00985982 -0.00985661 -0.009847 -0.00983098 -0.00980855 -0.00977971 -0.00974446 -0.00970281 -0.00965475 -0.0096009 -0.00954189 -0.00947773 -0.00940841 -0.00933394 -0.00925431 -0.00916952 -0.00907957 -0.00898379 -0.00888149 -0.00877269 -0.00865738 -0.00853555 -0.00840722 -0.00827237 -0.00813102 -0.00798125 -0.00782118 -0.00765079 -0.0074701 -0.0072791 -0.00707779 -0.00686617 -0.00664425 -0.00641214 -0.00617 -0.0059178 -0.00565557 -0.00538329 -0.00510096 -0.0048086 -0.00450618 -0.00419959 -0.00389469 -0.00359148 -0.00328995 -0.00299012 -0.00269197 -0.00239551 -0.00210074 -0.00181795 -0.00155746 -0.00131925 -0.00110333 -0.000909693 -0.000738346 -0.000589287 -0.000462515 -0.000354113 -0.000260164 -0.00018067 -0.000115629 -6.50411e-05 -2.89072e-05 -7.22679e-06 0 0 -8.81498e-06 -3.52599e-05 -7.93348e-05 -0.00014104 -0.000220375 -0.000317339 -0.000431934 -0.000564159 -0.000718093 -0.000897815 -0.00110333 -0.00133463 -0.00159172 -0.00187459 -0.00218326 -0.00251771 -0.00286505 -0.00321238 -0.00355969 -0.00390698 -0.00425426 -0.00460153 -0.00494878 -0.00529601 -0.005636 -0.0059615 -0.00627252 -0.00656906 -0.00685112 -0.00711869 -0.00737178 -0.00761039 -0.00783467 -0.00804478 -0.00824072 -0.00842249 -0.00859008 -0.0087435 -0.00888275 -0.00900783 -0.00912197 -0.00922839 -0.00932711 -0.00941812 -0.00950142 -0.00957701 -0.0096449 -0.00970507 -0.00975958 -0.00981045 -0.00985771 -0.00990133 -0.00994133 -0.0099777 -0.0100104 -0.0100396 -0.0100652 -0.0100874 -0.0101061 -0.0101215 -0.0101334 -0.010142 -0.0101471 -0.0101488 -0.0101471 -0.010142 -0.0101334 -0.0101215 -0.0101061 -0.0100874 -0.0100652 -0.0100396 -0.0100104 -0.0099777 -0.00994133 -0.00990133 -0.00985771 -0.00981045 -0.00975958 -0.00970507 -0.0096449 -0.00957701 -0.00950142 -0.00941812 -0.00932711 -0.00922839 -0.00912197 -0.00900783 -0.00888275 -0.0087435 -0.00859008 -0.00842249 -0.00824072 -0.00804478 -0.00783467 -0.00761039 -0.00737178 -0.00711869 -0.00685112 -0.00656906 -0.00627252 -0.0059615 -0.005636 -0.00529601 -0.00494878 -0.00460153 -0.00425427 -0.00390699 -0.00355969 -0.00321238 -0.00286505 -0.00251771 -0.00218326 -0.00187459 -0.00159172 -0.00133463 -0.00110333 -0.000897816 -0.000718093 -0.000564159 -0.000431934 -0.00031734 -0.000220375 -0.00014104 -7.93349e-05 -3.526e-05 -8.81499e-06 0 0 -1.05977e-05 -4.23908e-05 -9.53794e-05 -0.000169563 -0.000264943 -0.000381517 -0.000519288 -0.000678253 -0.000862517 -0.00107618 -0.00131925 -0.00159171 -0.00189358 -0.00222485 -0.00258552 -0.00297559 -0.00337916 -0.00378034 -0.00417911 -0.00457548 -0.00496945 -0.00536103 -0.0057502 -0.00613698 -0.00651256 -0.00686818 -0.00720382 -0.0075195 -0.0078152 -0.00809093 -0.00834669 -0.00858247 -0.00879884 -0.00899633 -0.00917495 -0.0093347 -0.00947558 -0.00959758 -0.00970071 -0.00978497 -0.0098553 -0.00991662 -0.00996894 -0.0100123 -0.0100466 -0.0100719 -0.0100882 -0.0100955 -0.0100977 -0.0100985 -0.0100981 -0.0100963 -0.0100933 -0.010089 -0.0100833 -0.0100763 -0.0100692 -0.010063 -0.0100578 -0.0100535 -0.0100502 -0.0100478 -0.0100464 -0.0100459 -0.0100464 -0.0100478 -0.0100502 -0.0100535 -0.0100578 -0.010063 -0.0100692 -0.0100763 -0.0100833 -0.010089 -0.0100933 -0.0100963 -0.0100981 -0.0100985 -0.0100977 -0.0100955 -0.0100882 -0.0100719 -0.0100466 -0.0100123 -0.00996894 -0.00991662 -0.0098553 -0.00978497 -0.00970071 -0.00959758 -0.00947558 -0.0093347 -0.00917495 -0.00899633 -0.00879884 -0.00858247 -0.00834669 -0.00809093 -0.0078152 -0.0075195 -0.00720382 -0.00686818 -0.00651256 -0.00613698 -0.0057502 -0.00536103 -0.00496946 -0.00457548 -0.00417911 -0.00378034 -0.00337917 -0.00297559 -0.00258552 -0.00222485 -0.00189358 -0.00159172 -0.00131925 -0.00107618 -0.000862518 -0.000678254 -0.000519288 -0.000381518 -0.000264943 -0.000169563 -9.53795e-05 -4.23909e-05 -1.05977e-05 0 0 -1.2575e-05 -5.02999e-05 -0.000113175 -0.000201199 -0.000314374 -0.000452699 -0.000616173 -0.000804798 -0.00102256 -0.00127345 -0.00155746 -0.00187459 -0.00222485 -0.00260824 -0.00302475 -0.00347438 -0.00393784 -0.00439584 -0.00484837 -0.00529544 -0.00573705 -0.00617319 -0.00660386 -0.00702907 -0.00743829 -0.007821 -0.00817719 -0.00850688 -0.00881005 -0.00908671 -0.00933686 -0.00956049 -0.00975867 -0.00993244 -0.0100818 -0.0102067 -0.0103073 -0.0103834 -0.0104351 -0.0104625 -0.0104724 -0.0104719 -0.010461 -0.0104398 -0.0104082 -0.0103661 -0.0103137 -0.0102509 -0.0101838 -0.0101186 -0.0100551 -0.00999347 -0.00993364 -0.00987564 -0.00981945 -0.00976507 -0.00971494 -0.0096715 -0.00963474 -0.00960466 -0.00958127 -0.00956456 -0.00955454 -0.0095512 -0.00955454 -0.00956456 -0.00958127 -0.00960466 -0.00963474 -0.0096715 -0.00971494 -0.00976507 -0.00981945 -0.00987564 -0.00993364 -0.00999347 -0.0100551 -0.0101186 -0.0101838 -0.0102509 -0.0103137 -0.0103661 -0.0104082 -0.0104398 -0.010461 -0.0104719 -0.0104724 -0.0104625 -0.0104351 -0.0103834 -0.0103073 -0.0102067 -0.0100818 -0.00993244 -0.00975867 -0.00956049 -0.00933686 -0.00908671 -0.00881005 -0.00850688 -0.00817719 -0.007821 -0.00743829 -0.00702907 -0.00660386 -0.00617319 -0.00573705 -0.00529544 -0.00484838 -0.00439584 -0.00393784 -0.00347438 -0.00302475 -0.00260824 -0.00222485 -0.00187459 -0.00155746 -0.00127345 -0.00102256 -0.000804799 -0.000616174 -0.000452699 -0.000314374 -0.0002012 -0.000113175 -5.02999e-05 -1.2575e-05 0 0 -1.47468e-05 -5.8987e-05 -0.000132721 -0.000235948 -0.000368669 -0.000530883 -0.000722591 -0.000943792 -0.00119822 -0.00148961 -0.00181795 -0.00218326 -0.00258552 -0.00302475 -0.00350093 -0.00401407 -0.00454109 -0.00505889 -0.00556748 -0.00606687 -0.00655704 -0.007038 -0.00750975 -0.00797229 -0.00841318 -0.00881995 -0.00919263 -0.0095312 -0.00983567 -0.010106 -0.0103423 -0.0105445 -0.0107142 -0.0108531 -0.0109612 -0.0110386 -0.0110852 -0.011101 -0.011086 -0.0110403 -0.0109732 -0.0108942 -0.0108034 -0.0107007 -0.0105861 -0.0104597 -0.0103214 -0.0101713 -0.010018 -0.00987052 -0.00972874 -0.00959269 -0.00946236 -0.00933776 -0.00921889 -0.00910575 -0.00900236 -0.00891275 -0.00883694 -0.0087749 -0.00872666 -0.00869219 -0.00867152 -0.00866462 -0.00867152 -0.00869219 -0.00872666 -0.0087749 -0.00883694 -0.00891275 -0.00900236 -0.00910575 -0.00921889 -0.00933776 -0.00946236 -0.00959269 -0.00972874 -0.00987052 -0.010018 -0.0101713 -0.0103214 -0.0104597 -0.0105861 -0.0107007 -0.0108034 -0.0108942 -0.0109732 -0.0110403 -0.011086 -0.011101 -0.0110852 -0.0110386 -0.0109612 -0.0108531 -0.0107142 -0.0105445 -0.0103423 -0.010106 -0.00983567 -0.0095312 -0.00919263 -0.00881996 -0.00841318 -0.00797229 -0.00750975 -0.007038 -0.00655704 -0.00606687 -0.00556749 -0.00505889 -0.00454109 -0.00401407 -0.00350093 -0.00302475 -0.00258552 -0.00218326 -0.00181795 -0.00148961 -0.00119822 -0.000943793 -0.000722592 -0.000530884 -0.000368669 -0.000235948 -0.000132721 -5.89871e-05 -1.47468e-05 0 0 -1.71131e-05 -6.84523e-05 -0.000154018 -0.000273809 -0.000427827 -0.000616071 -0.000838541 -0.00109524 -0.0013895 -0.00172466 -0.00210074 -0.00251771 -0.00297559 -0.00347438 -0.00401407 -0.00459466 -0.00518889 -0.00576949 -0.00633644 -0.00688976 -0.00742944 -0.00795548 -0.00846788 -0.00896665 -0.00943722 -0.00986505 -0.0102501 -0.0105925 -0.0108921 -0.0111489 -0.011363 -0.0115343 -0.0116653 -0.0117583 -0.0118133 -0.0118303 -0.0118093 -0.0117503 -0.0116534 -0.0115184 -0.0113577 -0.0111836 -0.010996 -0.010795 -0.0105806 -0.0103527 -0.0101113 -0.00985655 -0.00960027 -0.00935441 -0.00911899 -0.008894 -0.00867945 -0.00847532 -0.00828163 -0.00809837 -0.00793146 -0.0077868 -0.00766439 -0.00756424 -0.00748635 -0.00743071 -0.00739733 -0.0073862 -0.00739733 -0.00743071 -0.00748635 -0.00756424 -0.00766439 -0.0077868 -0.00793146 -0.00809837 -0.00828163 -0.00847532 -0.00867945 -0.008894 -0.00911899 -0.00935441 -0.00960027 -0.00985655 -0.0101113 -0.0103527 -0.0105806 -0.010795 -0.010996 -0.0111836 -0.0113577 -0.0115184 -0.0116534 -0.0117503 -0.0118093 -0.0118303 -0.0118133 -0.0117583 -0.0116653 -0.0115343 -0.011363 -0.0111489 -0.0108921 -0.0105925 -0.0102501 -0.00986505 -0.00943722 -0.00896665 -0.00846788 -0.00795548 -0.00742944 -0.00688976 -0.00633644 -0.00576949 -0.0051889 -0.00459467 -0.00401407 -0.00347438 -0.00297559 -0.00251771 -0.00210074 -0.00172467 -0.0013895 -0.00109524 -0.000838541 -0.000616071 -0.000427827 -0.000273809 -0.000154018 -6.84524e-05 -1.71131e-05 0 0 -1.95979e-05 -7.83915e-05 -0.000176381 -0.000313566 -0.000489947 -0.000705523 -0.000960296 -0.00125426 -0.00159011 -0.00197053 -0.00239551 -0.00286505 -0.00337916 -0.00393784 -0.00454108 -0.00518889 -0.0058493 -0.00649034 -0.00711201 -0.00771431 -0.00829724 -0.0088608 -0.00940499 -0.00992982 -0.0104184 -0.0108538 -0.011236 -0.011565 -0.0118409 -0.0120636 -0.0122331 -0.0123494 -0.0124159 -0.0124359 -0.0124093 -0.0123361 -0.0122164 -0.0120502 -0.0118374 -0.0115781 -0.011288 -0.0109829 -0.0106628 -0.0103278 -0.00997776 -0.00961274 -0.00923273 -0.00883774 -0.00844368 -0.00806644 -0.00770602 -0.00736243 -0.00703567 -0.00672574 -0.00643263 -0.00615635 -0.00590522 -0.00568758 -0.00550342 -0.00535274 -0.00523555 -0.00515184 -0.00510161 -0.00508487 -0.00510161 -0.00515184 -0.00523555 -0.00535274 -0.00550342 -0.00568758 -0.00590522 -0.00615635 -0.00643263 -0.00672574 -0.00703567 -0.00736243 -0.00770602 -0.00806644 -0.00844368 -0.00883774 -0.00923273 -0.00961274 -0.00997775 -0.0103278 -0.0106628 -0.0109829 -0.011288 -0.0115781 -0.0118374 -0.0120502 -0.0122164 -0.0123361 -0.0124093 -0.0124359 -0.0124159 -0.0123494 -0.0122331 -0.0120636 -0.0118409 -0.011565 -0.011236 -0.0108538 -0.0104184 -0.00992982 -0.009405 -0.0088608 -0.00829724 -0.00771431 -0.00711201 -0.00649034 -0.0058493 -0.0051889 -0.00454109 -0.00393784 -0.00337917 -0.00286506 -0.00239551 -0.00197053 -0.00159011 -0.00125426 -0.000960297 -0.000705524 -0.000489947 -0.000313566 -0.000176381 -7.83916e-05 -1.95979e-05 0 0 -2.21251e-05 -8.85004e-05 -0.000199126 -0.000354001 -0.000553127 -0.000796503 -0.00108413 -0.00141601 -0.00179378 -0.0022191 -0.00269197 -0.00321238 -0.00378034 -0.00439584 -0.00505889 -0.00576949 -0.00649034 -0.00718416 -0.00785096 -0.00849072 -0.00910346 -0.00968916 -0.0102478 -0.0107795 -0.0112646 -0.0116835 -0.0120364 -0.0123231 -0.0125437 -0.0126983 -0.0127867 -0.012809 -0.0127697 -0.0126735 -0.0125204 -0.0123103 -0.0120433 -0.0117193 -0.0113384 -0.0109005 -0.0104259 -0.00993503 -0.00942774 -0.00890409 -0.00836407 -0.00780768 -0.00723492 -0.00664579 -0.00606139 -0.00550278 -0.00496998 -0.00446299 -0.0039818 -0.00352641 -0.00309683 -0.00269306 -0.00232662 -0.00200904 -0.00174031 -0.00152045 -0.00134944 -0.00122729 -0.001154 -0.00112957 -0.001154 -0.00122729 -0.00134944 -0.00152045 -0.00174031 -0.00200904 -0.00232662 -0.00269306 -0.00309683 -0.00352641 -0.0039818 -0.00446299 -0.00496998 -0.00550278 -0.00606138 -0.00664579 -0.00723492 -0.00780768 -0.00836407 -0.00890409 -0.00942774 -0.00993502 -0.0104259 -0.0109005 -0.0113384 -0.0117193 -0.0120433 -0.0123103 -0.0125204 -0.0126735 -0.0127697 -0.012809 -0.0127867 -0.0126983 -0.0125437 -0.0123231 -0.0120364 -0.0116835 -0.0112646 -0.0107795 -0.0102478 -0.00968916 -0.00910346 -0.00849072 -0.00785096 -0.00718417 -0.00649034 -0.00576949 -0.00505889 -0.00439584 -0.00378034 -0.00321238 -0.00269197 -0.0022191 -0.00179378 -0.00141601 -0.00108413 -0.000796504 -0.000553128 -0.000354002 -0.000199126 -8.85005e-05 -2.21251e-05 0 0 -2.46947e-05 -9.8779e-05 -0.000222253 -0.000395116 -0.000617368 -0.000889011 -0.00121004 -0.00158046 -0.0020005 -0.00247039 -0.00299011 -0.00355969 -0.00417911 -0.00484837 -0.00556748 -0.00633644 -0.00711201 -0.00785096 -0.00855329 -0.009219 -0.00984809 -0.0104406 -0.0109964 -0.0115156 -0.0119758 -0.0123544 -0.0126514 -0.0128668 -0.0130007 -0.013053 -0.0130238 -0.0129129 -0.0127267 -0.0124713 -0.0121467 -0.0117529 -0.0112899 -0.0107577 -0.0101562 -0.00948562 -0.00877159 -0.00803996 -0.00729074 -0.00652392 -0.00573951 -0.0049375 -0.0041179 -0.0032807 -0.00245339 -0.00166345 -0.000910871 -0.000195664 0.000482175 0.00112265 0.00172575 0.00229148 0.00280435 0.00324882 0.00362492 0.00393264 0.00417197 0.00434293 0.0044455 0.00447969 0.0044455 0.00434293 0.00417197 0.00393264 0.00362492 0.00324882 0.00280435 0.00229148 0.00172575 0.00112265 0.000482175 -0.000195664 -0.000910871 -0.00166345 -0.00245339 -0.0032807 -0.0041179 -0.0049375 -0.00573951 -0.00652392 -0.00729074 -0.00803996 -0.00877158 -0.00948562 -0.0101562 -0.0107577 -0.0112899 -0.0117529 -0.0121467 -0.0124713 -0.0127267 -0.0129129 -0.0130238 -0.013053 -0.0130007 -0.0128668 -0.0126514 -0.0123544 -0.0119758 -0.0115156 -0.0109964 -0.0104406 -0.00984809 -0.009219 -0.00855329 -0.00785096 -0.00711201 -0.00633644 -0.00556749 -0.00484838 -0.00417911 -0.00355969 -0.00299012 -0.00247039 -0.0020005 -0.00158046 -0.00121004 -0.000889011 -0.000617369 -0.000395116 -0.000222253 -9.87791e-05 -2.46948e-05 0 0 -2.73068e-05 -0.000109227 -0.000245761 -0.000436909 -0.00068267 -0.000983045 -0.00133803 -0.00174764 -0.00221028 -0.00272438 -0.00328995 -0.00390698 -0.00457548 -0.00529544 -0.00606687 -0.00688976 -0.00771431 -0.00849072 -0.009219 -0.00989913 -0.01