<?xml version="1.0"?> 
<VTKFile type="StructuredGrid" version="0.1"> 
<StructuredGrid WholeExtent="0 128 0 128 0 0"> 
<Piece Extent="0 128 0 128 0 0"> 
<PointData>
<DataArray type="Float32" Name="u" format="ascii" NumberOfComponents="1"> 
0 0 0 0 0 0 0 0 0 0 0 0 0 0 0 0 0 0 0 0 0 0 0 0 0 0 0 0 0 0 0 0 0 0 0 0 0 0 0 0 0 0 0 0 0 0 0 0 0 0 0 0 0 0 0 0 0 0 0 0 0 0 0 0 0 0 0 0 0 0 0 0 0 0 0 0 0 0 0 0 0 0 0 0 0 0 0 0 0 0 0 0 0 0 0 0 0 0 0 0 0 0 0 0 0 0 0 0 0 0 0 0 0 0 0 0 0 0 0 0 0 0 0 0 0 0 0 0 0 0 -6.2552e-08 -2.50208e-07 -5.62968e-07 -1.00083e-06 -1.5638e-06 -2.25187e-06 -3.06505e-06 -4.00333e-06 -5.09617e-06 -6.37304e-06 -7.83393e-06 -9.47884e-06 -1.13078e-05 -1.33207e-05 -1.55177e-05 -1.78987e-05 -2.03677e-05 -2.28287e-05 -2.52816e-05 -2.77265e-05 -3.01633e-05 -3.25921e-05 -3.50128e-05 -3.74256e-05 -3.97724e-05 -4.19957e-05 -4.40952e-05 -4.60712e-05 -4.79235e-05 -4.96521e-05 -5.12572e-05 -5.27385e-05 -5.40886e-05 -5.52996e-05 -5.63715e-05 -5.73045e-05 -5.80984e-05 -5.87532e-05 -5.9269e-05 -5.96458e-05 -5.991e-05 -6.00879e-05 -6.01797e-05 -6.01852e-05 -6.01046e-05 -5.99377e-05 -5.96846e-05 -5.93453e-05 -5.89603e-05 -5.85698e-05 -5.8174e-05 -5.77728e-05 -5.73662e-05 -5.69543e-05 -5.65369e-05 -5.61142e-05 -5.57153e-05 -5.53697e-05 -5.50772e-05 -5.48379e-05 -5.46518e-05 -5.45189e-05 -5.44391e-05 -5.44125e-05 -5.44391e-05 -5.45188e-05 -5.46518e-05 -5.48379e-05 -5.50772e-05 -5.53697e-05 -5.57153e-05 -5.61142e-05 -5.65369e-05 -5.69542e-05 -5.73662e-05 -5.77728e-05 -5.8174e-05 -5.85698e-05 -5.89603e-05 -5.93453e-05 -5.96846e-05 -5.99377e-05 -6.01046e-05 -6.01852e-05 -6.01797e-05 -6.00879e-05 -5.991e-05 -5.96458e-05 -5.9269e-05 -5.87532e-05 -5.80984e-05 -5.73045e-05 -5.63715e-05 -5.52996e-05 -5.40886e-05 -5.27385e-05 -5.12572e-05 -4.96522e-05 -4.79235e-05 -4.60712e-05 -4.40952e-05 -4.19957e-05 -3.97724e-05 -3.74256e-05 -3.50129e-05 -3.25921e-05 -3.01633e-05 -2.77265e-05 -2.52816e-05 -2.28287e-05 -2.03677e-05 -1.78987e-05 -1.55177e-05 -1.33207e-05 -1.13078e-05 -9.47885e-06 -7.83393e-06 -6.37304e-06 -5.09617e-06 -4.00333e-06 -3.06505e-06 -2.25187e-06 -1.5638e-06 -1.00083e-06 -5.62968e-07 -2.50208e-07 -6.2552e-08 0 0 -2.50208e-07 -1.00083e-06 -2.25187e-06 -4.00333e-06 -6.2552e-06 -9.00748e-06 -1.22602e-05 -1.60133e-05 -2.03847e-05 -2.54921e-05 -3.13357e-05 -3.79154e-05 -4.52311e-05 -5.32829e-05 -6.20709e-05 -7.15949e-05 -8.14709e-05 -9.13147e-05 -0.000101126 -0.000110906 -0.000120653 -0.000130368 -0.000140051 -0.000149702 -0.00015909 -0.000167983 -0.000176381 -0.000184285 -0.000191694 -0.000198609 -0.000205029 -0.000210954 -0.000216354 -0.000221198 -0.000225486 -0.000229218 -0.000232393 -0.000235013 -0.000237076 -0.000238583 -0.00023964 -0.000240352 -0.000240719 -0.000240741 -0.000240418 -0.000239751 -0.000238738 -0.000237381 -0.000235841 -0.000234279 -0.000232696 -0.000231091 -0.000229465 -0.000227817 -0.000226148 -0.000224457 -0.000222861 -0.000221479 -0.000220309 -0.000219352 -0.000218607 -0.000218075 -0.000217756 -0.00021765 -0.000217756 -0.000218075 -0.000218607 -0.000219352 -0.000220309 -0.000221479 -0.000222861 -0.000224457 -0.000226148 -0.000227817 -0.000229465 -0.000231091 -0.000232696 -0.000234279 -0.000235841 -0.000237381 -0.000238738 -0.000239751 -0.000240418 -0.000240741 -0.000240719 -0.000240352 -0.00023964 -0.000238583 -0.000237076 -0.000235013 -0.000232393 -0.000229218 -0.000225486 -0.000221198 -0.000216354 -0.000210954 -0.000205029 -0.000198609 -0.000191694 -0.000184285 -0.000176381 -0.000167983 -0.00015909 -0.000149702 -0.000140051 -0.000130368 -0.000120653 -0.000110906 -0.000101126 -9.13148e-05 -8.14709e-05 -7.15949e-05 -6.20709e-05 -5.3283e-05 -4.52311e-05 -3.79154e-05 -3.13357e-05 -2.54922e-05 -2.03847e-05 -1.60133e-05 -1.22602e-05 -9.00749e-06 -6.2552e-06 -4.00333e-06 -2.25187e-06 -1.00083e-06 -2.50208e-07 0 0 -5.62968e-07 -2.25187e-06 -5.06671e-06 -9.00748e-06 -1.40742e-05 -2.02668e-05 -2.75854e-05 -3.60299e-05 -4.58655e-05 -5.73573e-05 -7.05053e-05 -8.53096e-05 -0.00010177 -0.000119887 -0.000139659 -0.000161089 -0.00018331 -0.000205458 -0.000227534 -0.000249538 -0.00027147 -0.000293329 -0.000315116 -0.00033683 -0.000357952 -0.000377961 -0.000396857 -0.000414641 -0.000431311 -0.000446869 -0.000461315 -0.000474647 -0.000486797 -0.000497696 -0.000507344 -0.00051574 -0.000522885 -0.000528779 -0.000533421 -0.000536812 -0.00053919 -0.000540791 -0.000541617 -0.000541667 -0.000540941 -0.000539439 -0.000537162 -0.000534108 -0.000530643 -0.000527129 -0.000523566 -0.000519955 -0.000516296 -0.000512588 -0.000508832 -0.000505028 -0.000501438 -0.000498327 -0.000495695 -0.000493541 -0.000491866 -0.00049067 -0.000489952 -0.000489712 -0.000489952 -0.00049067 -0.000491866 -0.000493541 -0.000495695 -0.000498327 -0.000501438 -0.000505028 -0.000508832 -0.000512588 -0.000516296 -0.000519955 -0.000523566 -0.000527129 -0.000530643 -0.000534108 -0.000537162 -0.000539439 -0.000540941 -0.000541667 -0.000541617 -0.000540791 -0.00053919 -0.000536812 -0.000533421 -0.000528779 -0.000522885 -0.00051574 -0.000507344 -0.000497696 -0.000486797 -0.000474647 -0.000461315 -0.000446869 -0.000431311 -0.000414641 -0.000396857 -0.000377961 -0.000357952 -0.00033683 -0.000315116 -0.000293329 -0.00027147 -0.000249538 -0.000227534 -0.000205458 -0.00018331 -0.000161089 -0.00013966 -0.000119887 -0.00010177 -8.53096e-05 -7.05054e-05 -5.73574e-05 -4.58656e-05 -3.603e-05 -2.75854e-05 -2.02669e-05 -1.40742e-05 -9.00749e-06 -5.06672e-06 -2.25187e-06 -5.62968e-07 0 0 -1.00083e-06 -4.00333e-06 -9.00748e-06 -1.60133e-05 -2.50208e-05 -3.60299e-05 -4.90407e-05 -6.40532e-05 -8.15387e-05 -0.000101969 -0.000125343 -0.000151661 -0.000180924 -0.000213132 -0.000248284 -0.00028638 -0.000325884 -0.000365259 -0.000404506 -0.000443624 -0.000482613 -0.000521474 -0.000560206 -0.000598809 -0.000636359 -0.00067193 -0.000705524 -0.000737139 -0.000766776 -0.000794434 -0.000820115 -0.000843817 -0.000865417 -0.000884793 -0.000901945 -0.000916872 -0.000929574 -0.000940051 -0.000948304 -0.000954333 -0.000958559 -0.000961407 -0.000962875 -0.000962963 -0.000961673 -0.000959003 -0.000954954 -0.000949526 -0.000943365 -0.000937117 -0.000930784 -0.000924365 -0.000917859 -0.000911268 -0.00090459 -0.000897827 -0.000891445 -0.000885915 -0.000881235 -0.000877407 -0.000874429 -0.000872302 -0.000871025 -0.0008706 -0.000871025 -0.000872302 -0.000874429 -0.000877407 -0.000881235 -0.000885915 -0.000891445 -0.000897827 -0.00090459 -0.000911268 -0.000917859 -0.000924365 -0.000930784 -0.000937117 -0.000943365 -0.000949526 -0.000954954 -0.000959003 -0.000961673 -0.000962963 -0.000962875 -0.000961407 -0.000958559 -0.000954333 -0.000948304 -0.000940051 -0.000929574 -0.000916872 -0.000901945 -0.000884793 -0.000865417 -0.000843817 -0.000820115 -0.000794434 -0.000766776 -0.000737139 -0.000705524 -0.000671931 -0.000636359 -0.000598809 -0.000560206 -0.000521474 -0.000482613 -0.000443624 -0.000404506 -0.000365259 -0.000325884 -0.00028638 -0.000248284 -0.000213132 -0.000180925 -0.000151662 -0.000125343 -0.000101969 -8.15388e-05 -6.40533e-05 -4.90408e-05 -3.603e-05 -2.50208e-05 -1.60133e-05 -9.00749e-06 -4.00333e-06 -1.00083e-06 0 0 -1.5638e-06 -6.2552e-06 -1.40742e-05 -2.50208e-05 -3.9095e-05 -5.62968e-05 -7.66262e-05 -0.000100083 -0.000127404 -0.000159326 -0.000195848 -0.000236971 -0.000282694 -0.000333018 -0.000387943 -0.000447468 -0.000509193 -0.000570717 -0.00063204 -0.000693162 -0.000754083 -0.000814802 -0.000875321 -0.000935639 -0.000994311 -0.00104989 -0.00110238 -0.00115178 -0.00119809 -0.0012413 -0.00128143 -0.00131846 -0.00135221 -0.00138249 -0.00140929 -0.00143261 -0.00145246 -0.00146883 -0.00148173 -0.00149115 -0.00149775 -0.0015022 -0.00150449 -0.00150463 -0.00150261 -0.00149844 -0.00149212 -0.00148363 -0.00147401 -0.00146425 -0.00145435 -0.00144432 -0.00143416 -0.00142386 -0.00141342 -0.00140285 -0.00139288 -0.00138424 -0.00137693 -0.00137095 -0.00136629 -0.00136297 -0.00136098 -0.00136031 -0.00136098 -0.00136297 -0.00136629 -0.00137095 -0.00137693 -0.00138424 -0.00139288 -0.00140285 -0.00141342 -0.00142386 -0.00143416 -0.00144432 -0.00145435 -0.00146425 -0.00147401 -0.00148363 -0.00149212 -0.00149844 -0.00150261 -0.00150463 -0.00150449 -0.0015022 -0.00149775 -0.00149115 -0.00148173 -0.00146883 -0.00145246 -0.00143261 -0.00140929 -0.00138249 -0.00135221 -0.00131846 -0.00128143 -0.0012413 -0.00119809 -0.00115178 -0.00110238 -0.00104989 -0.000994311 -0.000935639 -0.000875321 -0.000814803 -0.000754083 -0.000693162 -0.00063204 -0.000570717 -0.000509193 -0.000447468 -0.000387943 -0.000333019 -0.000282695 -0.000236971 -0.000195848 -0.000159326 -0.000127404 -0.000100083 -7.66262e-05 -5.62968e-05 -3.9095e-05 -2.50208e-05 -1.40742e-05 -6.2552e-06 -1.5638e-06 0 0 -2.25187e-06 -9.00748e-06 -2.02668e-05 -3.60299e-05 -5.62968e-05 -8.10674e-05 -0.000110342 -0.00014412 -0.000183462 -0.000229429 -0.000282021 -0.000341238 -0.00040708 -0.000479547 -0.000558638 -0.000644354 -0.000733238 -0.000821833 -0.000910137 -0.000998153 -0.00108588 -0.00117332 -0.00126046 -0.00134732 -0.00143181 -0.00151184 -0.00158743 -0.00165856 -0.00172525 -0.00178748 -0.00184526 -0.00189859 -0.00194719 -0.00199079 -0.00202938 -0.00206296 -0.00209154 -0.00211512 -0.00213369 -0.00214725 -0.00215676 -0.00216317 -0.00216647 -0.00216667 -0.00216376 -0.00215776 -0.00214865 -0.00213643 -0.00212257 -0.00210851 -0.00209426 -0.00207982 -0.00206518 -0.00205035 -0.00203533 -0.00202011 -0.00200575 -0.00199331 -0.00198278 -0.00197416 -0.00196746 -0.00196268 -0.00195981 -0.00195885 -0.00195981 -0.00196268 -0.00196746 -0.00197416 -0.00198278 -0.00199331 -0.00200575 -0.00202011 -0.00203533 -0.00205035 -0.00206518 -0.00207982 -0.00209426 -0.00210851 -0.00212257 -0.00213643 -0.00214865 -0.00215776 -0.00216376 -0.00216667 -0.00216647 -0.00216317 -0.00215676 -0.00214725 -0.00213369 -0.00211512 -0.00209154 -0.00206296 -0.00202938 -0.00199079 -0.00194719 -0.00189859 -0.00184526 -0.00178748 -0.00172525 -0.00165856 -0.00158743 -0.00151184 -0.00143181 -0.00134732 -0.00126046 -0.00117332 -0.00108588 -0.000998153 -0.000910138 -0.000821833 -0.000733238 -0.000644354 -0.000558638 -0.000479547 -0.00040708 -0.000341238 -0.000282022 -0.00022943 -0.000183462 -0.00014412 -0.000110342 -8.10674e-05 -5.62968e-05 -3.603e-05 -2.02669e-05 -9.00749e-06 -2.25187e-06 0 0 -3.06505e-06 -1.22602e-05 -2.75854e-05 -4.90407e-05 -7.66262e-05 -0.000110342 -0.000150187 -0.000196163 -0.000249712 -0.000312279 -0.000383862 -0.000464463 -0.000554081 -0.000652716 -0.000760368 -0.000877038 -0.000998018 -0.00111861 -0.0012388 -0.0013586 -0.001478 -0.00159701 -0.00171563 -0.00183385 -0.00194885 -0.00205779 -0.00216067 -0.00225749 -0.00234825 -0.00243296 -0.0025116 -0.00258419 -0.00265034 -0.00270968 -0.00276221 -0.00280792 -0.00284682 -0.00287891 -0.00290418 -0.00292264 -0.00293559 -0.00294431 -0.0029488 -0.00294908 -0.00294512 -0.00293695 -0.00292455 -0.00290792 -0.00288905 -0.00286992 -0.00285053 -0.00283087 -0.00281094 -0.00279076 -0.00277031 -0.00274959 -0.00273005 -0.00271311 -0.00269878 -0.00268706 -0.00267794 -0.00267142 -0.00266752 -0.00266621 -0.00266752 -0.00267142 -0.00267794 -0.00268706 -0.00269878 -0.00271311 -0.00273005 -0.00274959 -0.00277031 -0.00279076 -0.00281094 -0.00283087 -0.00285053 -0.00286992 -0.00288905 -0.00290792 -0.00292455 -0.00293695 -0.00294512 -0.00294908 -0.0029488 -0.00294431 -0.00293559 -0.00292264 -0.00290418 -0.00287891 -0.00284682 -0.00280792 -0.00276221 -0.00270968 -0.00265034 -0.00258419 -0.0025116 -0.00243296 -0.00234825 -0.00225749 -0.00216067 -0.00205779 -0.00194885 -0.00183385 -0.00171563 -0.00159701 -0.001478 -0.0013586 -0.0012388 -0.00111861 -0.000998019 -0.000877038 -0.000760369 -0.000652716 -0.000554081 -0.000464464 -0.000383863 -0.000312279 -0.000249713 -0.000196163 -0.000150187 -0.000110342 -7.66262e-05 -4.90408e-05 -2.75854e-05 -1.22602e-05 -3.06505e-06 0 0 -4.00333e-06 -1.60133e-05 -3.60299e-05 -6.40532e-05 -0.000100083 -0.00014412 -0.000196163 -0.000256213 -0.000326155 -0.000407874 -0.000501371 -0.000606646 -0.000723698 -0.000852527 -0.000993134 -0.00114552 -0.00130353 -0.00146104 -0.00161802 -0.00177449 -0.00193045 -0.00208589 -0.00224082 -0.00239524 -0.00254544 -0.00268772 -0.0028221 -0.00294856 -0.0030671 -0.00317774 -0.00328046 -0.00337527 -0.00346167 -0.00353917 -0.00360778 -0.00366749 -0.0037183 -0.00376021 -0.00379322 -0.00381733 -0.00383424 -0.00384563 -0.0038515 -0.00385185 -0.00384669 -0.00383601 -0.00381982 -0.0037981 -0.00377346 -0.00374847 -0.00372314 -0.00369746 -0.00367144 -0.00364507 -0.00361836 -0.00359131 -0.00356578 -0.00354366 -0.00352494 -0.00350963 -0.00349771 -0.00348921 -0.0034841 -0.0034824 -0.0034841 -0.00348921 -0.00349771 -0.00350963 -0.00352494 -0.00354366 -0.00356578 -0.00359131 -0.00361836 -0.00364507 -0.00367144 -0.00369746 -0.00372314 -0.00374847 -0.00377346 -0.0037981 -0.00381982 -0.00383601 -0.00384669 -0.00385185 -0.0038515 -0.00384563 -0.00383424 -0.00381733 -0.00379322 -0.00376021 -0.0037183 -0.00366749 -0.00360778 -0.00353917 -0.00346167 -0.00337527 -0.00328046 -0.00317774 -0.0030671 -0.00294856 -0.0028221 -0.00268772 -0.00254544 -0.00239524 -0.00224082 -0.00208589 -0.00193045 -0.00177449 -0.00161802 -0.00146104 -0.00130353 -0.00114552 -0.000993135 -0.000852528 -0.000723698 -0.000606646 -0.000501372 -0.000407875 -0.000326155 -0.000256213 -0.000196163 -0.00014412 -0.000100083 -6.40533e-05 -3.603e-05 -1.60133e-05 -4.00333e-06 0 0 -5.09617e-06 -2.03847e-05 -4.58655e-05 -8.15387e-05 -0.000127404 -0.000183462 -0.000249712 -0.000326155 -0.000415075 -0.00051876 -0.000637207 -0.000770419 -0.000918394 -0.00108113 -0.00125864 -0.0014509 -0.00165006 -0.00184824 -0.00204543 -0.00224164 -0.00243688 -0.00263113 -0.0028244 -0.00301669 -0.00320327 -0.00337943 -0.00354515 -0.00370044 -0.0038453 -0.00397974 -0.00410374 -0.00421731 -0.00431987 -0.00441083 -0.00449021 -0.00455799 -0.00461417 -0.00465877 -0.00469177 -0.00471318 -0.00472529 -0.00473041 -0.00472854 -0.00471967 -0.00470381 -0.00468095 -0.0046511 -0.00461426 -0.00457391 -0.00453356 -0.0044932 -0.00445283 -0.00441245 -0.00437206 -0.00433166 -0.00429126 -0.00425337 -0.00422054 -0.00419276 -0.00417003 -0.00415235 -0.00413972 -0.00413215 -0.00412962 -0.00413215 -0.00413972 -0.00415235 -0.00417003 -0.00419276 -0.00422054 -0.00425337 -0.00429126 -0.00433166 -0.00437206 -0.00441245 -0.00445283 -0.0044932 -0.00453356 -0.00457391 -0.00461426 -0.0046511 -0.00468095 -0.00470381 -0.00471967 -0.00472854 -0.00473041 -0.00472529 -0.00471318 -0.00469177 -0.00465877 -0.00461417 -0.00455799 -0.00449021 -0.00441083 -0.00431987 -0.00421731 -0.00410374 -0.00397974 -0.0038453 -0.00370044 -0.00354515 -0.00337943 -0.00320327 -0.00301669 -0.0028244 -0.00263113 -0.00243688 -0.00224165 -0.00204543 -0.00184824 -0.00165006 -0.0014509 -0.00125864 -0.00108113 -0.000918395 -0.00077042 -0.000637208 -0.00051876 -0.000415076 -0.000326155 -0.000249713 -0.000183462 -0.000127404 -8.15388e-05 -4.58656e-05 -2.03847e-05 -5.09617e-06 0 0 -6.37304e-06 -2.54921e-05 -5.73573e-05 -0.000101969 -0.000159326 -0.000229429 -0.000312279 -0.000407874 -0.00051876 -0.000647478 -0.00079403 -0.000958416 -0.00114063 -0.00134069 -0.00155857 -0.00179429 -0.00203787 -0.00227932 -0.00251864 -0.00275585 -0.00299093 -0.00322389 -0.00345472 -0.00368343 -0.00390407 -0.00411068 -0.00430326 -0.00448182 -0.00464636 -0.00479686 -0.00493334 -0.0050558 -0.00516363 -0.00525623 -0.0053336 -0.00539574 -0.00544266 -0.00547435 -0.00549081 -0.00549204 -0.00548133 -0.00546194 -0.0054339 -0.00539718 -0.0053518 -0.00529776 -0.00523505 -0.00516367 -0.00508854 -0.00501459 -0.0049418 -0.00487019 -0.00479975 -0.00473048 -0.00466238 -0.00459545 -0.00453326 -0.00447935 -0.00443374 -0.00439642 -0.0043674 -0.00434667 -0.00433423 -0.00433008 -0.00433423 -0.00434667 -0.0043674 -0.00439642 -0.00443374 -0.00447935 -0.00453326 -0.00459545 -0.00466238 -0.00473048 -0.00479975 -0.00487019 -0.0049418 -0.00501459 -0.00508854 -0.00516367 -0.00523505 -0.00529776 -0.0053518 -0.00539718 -0.0054339 -0.00546194 -0.00548132 -0.00549204 -0.00549081 -0.00547435 -0.00544266 -0.00539574 -0.0053336 -0.00525623 -0.00516363 -0.0050558 -0.00493334 -0.00479686 -0.00464636 -0.00448182 -0.00430326 -0.00411068 -0.00390407 -0.00368343 -0.00345472 -0.00322389 -0.00299093 -0.00275585 -0.00251864 -0.00227932 -0.00203787 -0.00179429 -0.00155857 -0.00134069 -0.00114064 -0.000958417 -0.000794031 -0.000647479 -0.00051876 -0.000407875 -0.000312279 -0.00022943 -0.000159326 -0.000101969 -5.73574e-05 -2.54922e-05 -6.37304e-06 0 0 -7.83393e-06 -3.13357e-05 -7.05053e-05 -0.000125343 -0.000195848 -0.000282021 -0.000383862 -0.000501371 -0.000637207 -0.00079403 -0.00097184 -0.00117064 -0.00139042 -0.00163119 -0.00189295 -0.00217569 -0.00246695 -0.00275428 -0.00303766 -0.00331711 -0.00359261 -0.00386417 -0.00413179 -0.00439546 -0.00464782 -0.00488148 -0.00509644 -0.0052927 -0.00547026 -0.00562912 -0.00576928 -0.00589074 -0.00599295 -0.00607535 -0.00613796 -0.00618076 -0.00620375 -0.00620695 -0.00619034 -0.00615393 -0.00610235 -0.00604023 -0.00596758 -0.0058844 -0.00579069 -0.00568644 -0.00557165 -0.00544634 -0.00531735 -0.00519156 -0.00506896 -0.00494956 -0.00483335 -0.00472034 -0.00461052 -0.00450389 -0.00440543 -0.0043201 -0.00424789 -0.00418881 -0.00414286 -0.00411004 -0.00409035 -0.00408378 -0.00409035 -0.00411004 -0.00414286 -0.00418881 -0.00424789 -0.0043201 -0.00440543 -0.00450389 -0.00461052 -0.00472034 -0.00483335 -0.00494956 -0.00506896 -0.00519156 -0.00531735 -0.00544634 -0.00557165 -0.00568644 -0.00579069 -0.0058844 -0.00596758 -0.00604023 -0.00610234 -0.00615393 -0.00619034 -0.00620695 -0.00620375 -0.00618076 -0.00613796 -0.00607535 -0.00599295 -0.00589074 -0.00576928 -0.00562912 -0.00547026 -0.0052927 -0.00509644 -0.00488148 -0.00464782 -0.00439547 -0.00413179 -0.00386417 -0.00359261 -0.00331711 -0.00303766 -0.00275428 -0.00246696 -0.00217569 -0.00189295 -0.00163119 -0.00139042 -0.00117064 -0.000971841 -0.000794031 -0.000637208 -0.000501372 -0.000383863 -0.000282022 -0.000195848 -0.000125343 -7.05054e-05 -3.13357e-05 -7.83393e-06 0 0 -9.47884e-06 -3.79154e-05 -8.53095e-05 -0.000151661 -0.000236971 -0.000341238 -0.000464463 -0.000606646 -0.000770419 -0.000958416 -0.00117064 -0.00140708 -0.00166775 -0.00195264 -0.00226175 -0.00259509 -0.00293732 -0.00327312 -0.00360249 -0.00392542 -0.00424191 -0.00455197 -0.0048556 -0.00515279 -0.00543453 -0.00569183 -0.00592467 -0.00613307 -0.00631701 -0.0064765 -0.00661154 -0.00672213 -0.00680783 -0.00686821 -0.00690328 -0.00691303 -0.00689746 -0.00685657 -0.00679036 -0.00669883 -0.00658835 -0.00646527 -0.00632959 -0.00618132 -0.00602045 -0.00584699 -0.00566092 -0.00546226 -0.00526034 -0.00506447 -0.00487467 -0.00469093 -0.00451325 -0.00434163 -0.00417608 -0.00401658 -0.0038699 -0.00374277 -0.0036352 -0.00354719 -0.00347874 -0.00342984 -0.0034005 -0.00339073 -0.0034005 -0.00342984 -0.00347874 -0.00354719 -0.0036352 -0.00374277 -0.0038699 -0.00401658 -0.00417608 -0.00434163 -0.00451325 -0.00469093 -0.00487467 -0.00506447 -0.00526034 -0.00546226 -0.00566092 -0.00584698 -0.00602045 -0.00618132 -0.00632959 -0.00646527 -0.00658835 -0.00669883 -0.00679036 -0.00685657 -0.00689746 -0.00691303 -0.00690328 -0.00686821 -0.00680783 -0.00672213 -0.00661154 -0.0064765 -0.00631701 -0.00613307 -0.00592467 -0.00569183 -0.00543453 -0.00515279 -0.0048556 -0.00455197 -0.00424191 -0.00392542 -0.00360249 -0.00327312 -0.00293733 -0.00259509 -0.00226175 -0.00195264 -0.00166775 -0.00140708 -0.00117064 -0.000958417 -0.00077042 -0.000606646 -0.000464464 -0.000341239 -0.000236971 -0.000151662 -8.53096e-05 -3.79154e-05 -9.47885e-06 0 0 -1.13078e-05 -4.52311e-05 -0.00010177 -0.000180924 -0.000282694 -0.00040708 -0.000554081 -0.000723698 -0.000918394 -0.00114063 -0.00139042 -0.00166775 -0.00197262 -0.00230504 -0.002665 -0.0030525 -0.00344898 -0.00383585 -0.00421312 -0.00458078 -0.00493884 -0.0052873 -0.00562615 -0.0059554 -0.0062642 -0.00654173 -0.00678797 -0.00700293 -0.00718661 -0.00733901 -0.00746013 -0.00754996 -0.00760827 -0.00763481 -0.00762957 -0.00759255 -0.00752377 -0.00742321 -0.00729087 -0.00712676 -0.00693934 -0.00673706 -0.00651993 -0.00628794 -0.0060411 -0.0057794 -0.00550285 -0.00521145 -0.0049175 -0.00463333 -0.00435893 -0.0040943 -0.00383945 -0.00359436 -0.00335905 -0.00313352 -0.00292665 -0.00274737 -0.00259568 -0.00247156 -0.00237503 -0.00230607 -0.0022647 -0.00225091 -0.0022647 -0.00230607 -0.00237503 -0.00247156 -0.00259568 -0.00274737 -0.00292665 -0.00313352 -0.00335905 -0.00359436 -0.00383945 -0.0040943 -0.00435893 -0.00463333 -0.0049175 -0.00521145 -0.00550285 -0.0057794 -0.0060411 -0.00628794 -0.00651993 -0.00673706 -0.00693934 -0.00712676 -0.00729087 -0.00742321 -0.00752377 -0.00759255 -0.00762957 -0.00763481 -0.00760827 -0.00754996 -0.00746013 -0.00733901 -0.00718661 -0.00700293 -0.00678797 -0.00654173 -0.0062642 -0.0059554 -0.00562615 -0.0052873 -0.00493884 -0.00458078 -0.00421312 -0.00383585 -0.00344898 -0.0030525 -0.002665 -0.00230504 -0.00197262 -0.00166775 -0.00139042 -0.00114064 -0.000918395 -0.000723698 -0.000554082 -0.00040708 -0.000282695 -0.000180925 -0.00010177 -4.52311e-05 -1.13078e-05 0 0 -1.33207e-05 -5.32829e-05 -0.000119887 -0.000213132 -0.000333018 -0.000479546 -0.000652716 -0.000852527 -0.00108113 -0.00134069 -0.00163119 -0.00195264 -0.00230504 -0.00268838 -0.00310268 -0.00354792 -0.00400191 -0.00444246 -0.00486955 -0.0052832 -0.00568339 -0.00607014 -0.00644344 -0.0068033 -0.00713683 -0.00743117 -0.00768633 -0.00790229 -0.00807906 -0.00821665 -0.00831505 -0.00837425 -0.00839428 -0.00837513 -0.00831682 -0.00821934 -0.00808269 -0.00790686 -0.00769187 -0.00743771 -0.00715531 -0.0068556 -0.00653859 -0.00620426 -0.00585263 -0.00548369 -0.00509745 -0.00469389 -0.00428885 -0.00389813 -0.00352174 -0.00315967 -0.00281194 -0.00247853 -0.00215945 -0.00185469 -0.0015757 -0.00133391 -0.00112932 -0.000961923 -0.000831727 -0.00073873 -0.000682932 -0.000664333 -0.000682932 -0.00073873 -0.000831727 -0.000961923 -0.00112932 -0.00133391 -0.0015757 -0.00185469 -0.00215945 -0.00247853 -0.00281194 -0.00315967 -0.00352174 -0.00389813 -0.00428885 -0.00469389 -0.00509745 -0.00548369 -0.00585263 -0.00620426 -0.00653859 -0.0068556 -0.00715531 -0.00743771 -0.00769187 -0.00790686 -0.00808269 -0.00821934 -0.00831682 -0.00837513 -0.00839428 -0.00837425 -0.00831505 -0.00821665 -0.00807907 -0.00790229 -0.00768633 -0.00743117 -0.00713683 -0.0068033 -0.00644345 -0.00607015 -0.0056834 -0.0052832 -0.00486955 -0.00444246 -0.00400191 -0.00354792 -0.00310268 -0.00268838 -0.00230504 -0.00195264 -0.00163119 -0.00134069 -0.00108113 -0.000852528 -0.000652717 -0.000479547 -0.000333019 -0.000213132 -0.000119887 -5.3283e-05 -1.33207e-05 0 0 -1.55177e-05 -6.20709e-05 -0.000139659 -0.000248283 -0.000387943 -0.000558638 -0.000760368 -0.000993134 -0.00125864 -0.00155857 -0.00189294 -0.00226175 -0.002665 -0.00310268 -0.00357479 -0.00408134 -0.00459613 -0.00509294 -0.00557179 -0.00603267 -0.00647558 -0.00690051 -0.00730748 -0.00769649 -0.00805241 -0.00836017 -0.00861974 -0.00883114 -0.00899437 -0.00910942 -0.00917629 -0.00919499 -0.00916584 -0.00908919 -0.00896504 -0.00879338 -0.00857421 -0.00830754 -0.00799336 -0.00763168 -0.00723627 -0.0068209 -0.00638557 -0.00593029 -0.00545505 -0.00495985 -0.0044447 -0.00390959 -0.00337437 -0.00285887 -0.0023631 -0.00188705 -0.00143073 -0.000994133 -0.000577264 -0.00018012 0.000182955 0.000497621 0.000763876 0.000981722 0.00115116 0.00127218 0.0013448 0.001369 0.0013448 0.00127218 0.00115116 0.000981722 0.000763877 0.000497621 0.000182956 -0.00018012 -0.000577264 -0.000994133 -0.00143073 -0.00188705 -0.0023631 -0.00285887 -0.00337437 -0.00390959 -0.0044447 -0.00495985 -0.00545505 -0.00593029 -0.00638557 -0.0068209 -0.00723627 -0.00763168 -0.00799336 -0.00830754 -0.00857421 -0.00879338 -0.00896504 -0.0090892 -0.00916584 -0.00919499 -0.00917629 -0.00910942 -0.00899437 -0.00883114 -0.00861974 -0.00836017 -0.00805242 -0.00769649 -0.00730749 -0.00690052 -0.00647558 -0.00603267 -0.00557179 -0.00509295 -0.00459613 -0.00408135 -0.0035748 -0.00310268 -0.002665 -0.00226176 -0.00189295 -0.00155857 -0.00125864 -0.000993135 -0.000760369 -0.000558638 -0.000387943 -0.000248284 -0.00013966 -6.20709e-05 -1.55177e-05 0 0 -1.78987e-05 -7.15949e-05 -0.000161088 -0.00028638 -0.000447468 -0.000644354 -0.000877037 -0.00114552 -0.0014509 -0.00179429 -0.00217569 -0.00259509 -0.0030525 -0.00354792 -0.00408134 -0.00465278 -0.00523163 -0.00578731 -0.00631984 -0.00682919 -0.00731538 -0.00777841 -0.00821827 -0.00863496 -0.00901096 -0.00932871 -0.00958822 -0.00978949 -0.00993252 -0.0100173 -0.0100439 -0.0100122 -0.00992297 -0.00977699 -0.00957422 -0.00931468 -0.00899835 -0.00862524 -0.00819535 -0.00770867 -0.00718221 -0.00663294 -0.00606088 -0.00546601 -0.00484835 -0.00420788 -0.00354461 -0.00285855 -0.00217406 -0.00151555 -0.000883003 -0.000276425 0.000304185 0.000858828 0.0013875 0.00189021 0.00234932 0.00274722 0.00308391 0.00335937 0.00357363 0.00372667 0.00381849 0.0038491 0.00381849 0.00372667 0.00357363 0.00335937 0.00308391 0.00274722 0.00234932 0.00189021 0.0013875 0.000858828 0.000304186 -0.000276425 -0.000883003 -0.00151555 -0.00217406 -0.00285855 -0.00354461 -0.00420788 -0.00484835 -0.00546601 -0.00606088 -0.00663294 -0.00718221 -0.00770867 -0.00819535 -0.00862524 -0.00899835 -0.00931468 -0.00957422 -0.00977699 -0.00992297 -0.0100122 -0.0100439 -0.0100173 -0.00993252 -0.00978949 -0.00958822 -0.00932871 -0.00901096 -0.00863497 -0.00821827 -0.00777841 -0.00731539 -0.00682919 -0.00631984 -0.00578732 -0.00523163 -0.00465278 -0.00408135 -0.00354792 -0.0030525 -0.00259509 -0.00217569 -0.00179429 -0.0014509 -0.00114552 -0.000877038 -0.000644355 -0.000447468 -0.00028638 -0.000161089 -7.1595e-05 -1.78987e-05 0 0 -2.03677e-05 -8.14709e-05 -0.000183309 -0.000325883 -0.000509193 -0.000733238 -0.000998018 -0.00130353 -0.00165006 -0.00203787 -0.00246695 -0.00293732 -0.00344898 -0.00400191 -0.00459613 -0.00523163 -0.00587301 -0.00648487 -0.00706721 -0.00762003 -0.00814333 -0.00863711 -0.00910137 -0.00953612 -0.00992114 -0.0102362 -0.0104814 -0.0106567 -0.0107621 -0.0107975 -0.010763 -0.0106586 -0.0104856 -0.0102452 -0.00993746 -0.00956237 -0.00911992 -0.00861011 -0.00803296 -0.00738845 -0.0066974 -0.00598065 -0.00523819 -0.00447002 -0.00367614 -0.00285655 -0.00201125 -0.00114025 -0.000273272 0.000559929 0.00135936 0.00212501 0.00285689 0.00355499 0.00421932 0.00484988 0.0054252 0.0059238 0.0063457 0.00669089 0.00695937 0.00715114 0.00726621 0.00730456 0.00726621 0.00715115 0.00695937 0.00669089 0.0063457 0.0059238 0.0054252 0.00484988 0.00421932 0.00355499 0.00285689 0.00212501 0.00135936 0.000559929 -0.000273271 -0.00114025 -0.00201125 -0.00285655 -0.00367614 -0.00447002 -0.00523819 -0.00598065 -0.0066974 -0.00738845 -0.00803296 -0.00861011 -0.00911992 -0.00956237 -0.00993746 -0.0102452 -0.0104856 -0.0106586 -0.010763 -0.0107975 -0.0107621 -0.0106567 -0.0104814 -0.0102362 -0.00992114 -0.00953612 -0.00910138 -0.00863711 -0.00814333 -0.00762003 -0.00706721 -0.00648487 -0.00587301 -0.00523163 -0.00459613 -0.00400191 -0.00344898 -0.00293733 -0.00246696 -0.00203787 -0.00165006 -0.00130354 -0.000998019 -0.000733239 -0.000509193 -0.000325884 -0.00018331 -8.1471e-05 -2.03677e-05 0 0 -2.28287e-05 -9.13147e-05 -0.000205458 -0.000365259 -0.000570717 -0.000821832 -0.00111861 -0.00146104 -0.00184823 -0.00227932 -0.00275428 -0.00327312 -0.00383585 -0.00444246 -0.00509294 -0.00578731 -0.00648487 -0.00714491 -0.00776743 -0.00835244 -0.00889993 -0.00940991 -0.00988238 -0.0103173 -0.0106916 -0.0109822 -0.0111891 -0.0113122 -0.0113515 -0.0113071 -0.011179 -0.0109671 -0.0106736 -0.0103005 -0.00984784 -0.00931558 -0.00870374 -0.00801233 -0.00724133 -0.00639076 -0.00548612 -0.00455293 -0.00359119 -0.00260089 -0.00158204 -0.00053464 0.000541316 0.00164583 0.00274268 0.00379567 0.0048048 0.00577006 0.00669147 0.007569 0.00840268 0.00919249 0.00991238 0.0105363 0.0110642 0.0114961 0.0118321 0.012072 0.012216 0.012264 0.012216 0.012072 0.0118321 0.0114961 0.0110642 0.0105363 0.00991238 0.00919249 0.00840268 0.007569 0.00669147 0.00577006 0.0048048 0.00379567 0.00274268 0.00164583 0.000541317 -0.00053464 -0.00158204 -0.00260089 -0.00359119 -0.00455293 -0.00548612 -0.00639076 -0.00724133 -0.00801233 -0.00870374 -0.00931558 -0.00984784 -0.0103005 -0.0106736 -0.0109671 -0.011179 -0.0113071 -0.0113515 -0.0113122 -0.0111891 -0.0109822 -0.0106917 -0.0103173 -0.00988238 -0.00940992 -0.00889994 -0.00835244 -0.00776743 -0.00714491 -0.00648487 -0.00578732 -0.00509295 -0.00444246 -0.00383585 -0.00327313 -0.00275428 -0.00227932 -0.00184824 -0.00146104 -0.00111861 -0.000821833 -0.000570717 -0.000365259 -0.000205458 -9.13148e-05 -2.28287e-05 0 0 -2.52816e-05 -0.000101126 -0.000227534 -0.000404505 -0.00063204 -0.000910137 -0.0012388 -0.00161802 -0.00204543 -0.00251864 -0.00303766 -0.00360249 -0.00421312 -0.00486955 -0.00557179 -0.00631984 -0.00706721 -0.00776743 -0.0084205 -0.00902642 -0.00958519 -0.0100968 -0.0105613 -0.0109786 -0.0113225 -0.0115667 -0.0117111 -0.0117559 -0.0117009 -0.0115462 -0.0112919 -0.0109378 -0.0104871 -0.00994294 -0.00930536 -0.00857432 -0.00774982 -0.00683188 -0.00582047 -0.00471562 -0.00354837 -0.00234979 -0.00111988 0.000141369 0.00143395 0.00275786 0.0041131 0.00549967 0.00687379 0.00819168 0.00945333 0.0106587 0.0118079 0.0129009 0.0139376 0.014918 0.0158109 0.0165847 0.0172394 0.0177751 0.0181917 0.0184894 0.0186679 0.0187274 0.0186679 0.0184894 0.0181917 0.0177751 0.0172394 0.0165847 0.0158109 0.014918 0.0139376 0.0129009 0.0118079 0.0106587 0.00945333 0.00819168 0.00687379 0.00549967 0.0041131 0.00275786 0.00143395 0.00014137 -0.00111988 -0.00234979 -0.00354837 -0.00471562 -0.00582047 -0.00683188 -0.00774982 -0.00857432 -0.00930536 -0.00994294 -0.0104871 -0.0109378 -0.0112919 -0.0115462 -0.0117009 -0.0117559 -0.0117111 -0.0115667 -0.0113225 -0.0109786 -0.0105613 -0.0100968 -0.00958519 -0.00902642 -0.0084205 -0.00776743 -0.00706721 -0.00631984 -0.00557179 -0.00486955 -0.00421312 -0.00360249 -0.00303766 -0.00251865 -0.00204543 -0.00161802 -0.0012388 -0.000910138 -0.00063204 -0.000404506 -0.000227535 -0.000101126 -2.52816e-05 0 0 -2.77265e-05 -0.000110906 -0.000249538 -0.000443623 -0.000693162 -0.00