<?xml version="1.0"?> 
<VTKFile type="StructuredGrid" version="0.1"> 
<StructuredGrid WholeExtent="0 128 0 128 0 0"> 
<Piece Extent="0 128 0 128 0 0"> 
<PointData>
<DataArray type="Float32" Name="u" format="ascii" NumberOfComponents="1"> 
0 0 0 0 0 0 0 0 0 0 0 0 0 0 0 0 0 0 0 0 0 0 0 0 0 0 0 0 0 0 0 0 0 0 0 0 0 0 0 0 0 0 0 0 0 0 0 0 0 0 0 0 0 0 0 0 0 0 0 0 0 0 0 0 0 0 0 0 0 0 0 0 0 0 0 0 0 0 0 0 0 0 0 0 0 0 0 0 0 0 0 0 0 0 0 0 0 0 0 0 0 0 0 0 0 0 0 0 0 0 0 0 0 0 0 0 0 0 0 0 0 0 0 0 0 0 0 0 0 0 -6.2557e-08 -2.50228e-07 -5.63013e-07 -1.00091e-06 -1.56393e-06 -2.25205e-06 -3.0653e-06 -4.00365e-06 -5.08272e-06 -6.3181e-06 -7.7098e-06 -9.25781e-06 -1.09621e-05 -1.28228e-05 -1.48397e-05 -1.7013e-05 -1.9233e-05 -2.13902e-05 -2.34845e-05 -2.55161e-05 -2.74848e-05 -2.93906e-05 -3.12337e-05 -3.30139e-05 -3.46608e-05 -3.6104e-05 -3.73433e-05 -3.83789e-05 -3.92107e-05 -3.98388e-05 -4.0263e-05 -4.04835e-05 -4.04894e-05 -4.02697e-05 -3.98245e-05 -3.91538e-05 -3.82576e-05 -3.71359e-05 -3.57887e-05 -3.4216e-05 -3.24725e-05 -3.06128e-05 -2.86371e-05 -2.65452e-05 -2.43372e-05 -2.20132e-05 -1.9573e-05 -1.70166e-05 -1.44437e-05 -1.19536e-05 -9.54643e-06 -7.22208e-06 -4.98061e-06 -2.822e-06 -7.46258e-07 1.24662e-06 3.0761e-06 4.66165e-06 6.00326e-06 7.10095e-06 7.95471e-06 8.56453e-06 8.93043e-06 9.0524e-06 8.93043e-06 8.56453e-06 7.95471e-06 7.10095e-06 6.00326e-06 4.66165e-06 3.0761e-06 1.24662e-06 -7.46257e-07 -2.822e-06 -4.98061e-06 -7.22208e-06 -9.54642e-06 -1.19536e-05 -1.44437e-05 -1.70166e-05 -1.9573e-05 -2.20132e-05 -2.43372e-05 -2.65452e-05 -2.86371e-05 -3.06128e-05 -3.24725e-05 -3.4216e-05 -3.57887e-05 -3.71359e-05 -3.82576e-05 -3.91538e-05 -3.98245e-05 -4.02697e-05 -4.04894e-05 -4.04835e-05 -4.0263e-05 -3.98388e-05 -3.92107e-05 -3.83789e-05 -3.73433e-05 -3.6104e-05 -3.46608e-05 -3.30139e-05 -3.12337e-05 -2.93906e-05 -2.74848e-05 -2.55161e-05 -2.34845e-05 -2.13902e-05 -1.9233e-05 -1.7013e-05 -1.48397e-05 -1.28228e-05 -1.09621e-05 -9.25782e-06 -7.70981e-06 -6.31811e-06 -5.08273e-06 -4.00365e-06 -3.0653e-06 -2.25206e-06 -1.56393e-06 -1.00091e-06 -5.63014e-07 -2.50228e-07 -6.25571e-08 0 0 -2.50228e-07 -1.00091e-06 -2.25205e-06 -4.00365e-06 -6.2557e-06 -9.00821e-06 -1.22612e-05 -1.60146e-05 -2.03309e-05 -2.52724e-05 -3.08392e-05 -3.70312e-05 -4.38485e-05 -5.12911e-05 -5.93589e-05 -6.8052e-05 -7.6932e-05 -8.55607e-05 -9.39381e-05 -0.000102064 -0.000109939 -0.000117563 -0.000124935 -0.000132056 -0.000138643 -0.000144416 -0.000149373 -0.000153516 -0.000156843 -0.000159355 -0.000161052 -0.000161934 -0.000161957 -0.000161079 -0.000159298 -0.000156615 -0.000153031 -0.000148544 -0.000143155 -0.000136864 -0.00012989 -0.000122451 -0.000114548 -0.000106181 -9.7349e-05 -8.80526e-05 -7.82918e-05 -6.80666e-05 -5.77748e-05 -4.78145e-05 -3.81857e-05 -2.88883e-05 -1.99224e-05 -1.1288e-05 -2.98503e-06 4.98647e-06 1.23044e-05 1.86466e-05 2.40131e-05 2.84038e-05 3.18188e-05 3.42581e-05 3.57217e-05 3.62096e-05 3.57217e-05 3.42581e-05 3.18188e-05 2.84038e-05 2.40131e-05 1.86466e-05 1.23044e-05 4.98648e-06 -2.98503e-06 -1.1288e-05 -1.99224e-05 -2.88883e-05 -3.81857e-05 -4.78145e-05 -5.77748e-05 -6.80666e-05 -7.82918e-05 -8.80526e-05 -9.7349e-05 -0.000106181 -0.000114548 -0.000122451 -0.00012989 -0.000136864 -0.000143155 -0.000148544 -0.000153031 -0.000156615 -0.000159298 -0.000161079 -0.000161957 -0.000161934 -0.000161052 -0.000159355 -0.000156843 -0.000153516 -0.000149373 -0.000144416 -0.000138643 -0.000132056 -0.000124935 -0.000117563 -0.000109939 -0.000102064 -9.39382e-05 -8.55608e-05 -7.6932e-05 -6.8052e-05 -5.93589e-05 -5.12911e-05 -4.38486e-05 -3.70313e-05 -3.08392e-05 -2.52724e-05 -2.03309e-05 -1.60146e-05 -1.22612e-05 -9.00822e-06 -6.25571e-06 -4.00365e-06 -2.25206e-06 -1.00091e-06 -2.50228e-07 0 0 -5.63013e-07 -2.25205e-06 -5.06712e-06 -9.00821e-06 -1.40753e-05 -2.02685e-05 -2.75877e-05 -3.60329e-05 -4.57445e-05 -5.68629e-05 -6.93882e-05 -8.33203e-05 -9.86592e-05 -0.000115405 -0.000133558 -0.000153117 -0.000173097 -0.000192512 -0.000211361 -0.000229645 -0.000247363 -0.000264516 -0.000281103 -0.000297125 -0.000311947 -0.000324936 -0.00033609 -0.00034541 -0.000352897 -0.000358549 -0.000362367 -0.000364352 -0.000364404 -0.000362427 -0.000358421 -0.000352385 -0.000344319 -0.000334223 -0.000322099 -0.000307944 -0.000292252 -0.000275516 -0.000257734 -0.000238907 -0.000219035 -0.000198118 -0.000176157 -0.00015315 -0.000129993 -0.000107583 -8.59178e-05 -6.49988e-05 -4.48255e-05 -2.5398e-05 -6.71633e-06 1.12196e-05 2.76849e-05 4.19548e-05 5.40294e-05 6.39086e-05 7.15924e-05 7.70808e-05 8.03739e-05 8.14716e-05 8.03739e-05 7.70808e-05 7.15924e-05 6.39086e-05 5.40294e-05 4.19548e-05 2.76849e-05 1.12196e-05 -6.71632e-06 -2.5398e-05 -4.48255e-05 -6.49988e-05 -8.59178e-05 -0.000107583 -0.000129993 -0.00015315 -0.000176157 -0.000198118 -0.000219035 -0.000238907 -0.000257734 -0.000275516 -0.000292252 -0.000307944 -0.000322099 -0.000334224 -0.000344319 -0.000352385 -0.000358421 -0.000362427 -0.000364404 -0.000364352 -0.000362367 -0.000358549 -0.000352897 -0.00034541 -0.00033609 -0.000324936 -0.000311948 -0.000297125 -0.000281103 -0.000264516 -0.000247363 -0.000229645 -0.000211361 -0.000192512 -0.000173097 -0.000153117 -0.000133558 -0.000115405 -9.86593e-05 -8.33204e-05 -6.93883e-05 -5.6863e-05 -4.57445e-05 -3.60329e-05 -2.75877e-05 -2.02685e-05 -1.40753e-05 -9.00822e-06 -5.06713e-06 -2.25206e-06 -5.63014e-07 0 0 -1.00091e-06 -4.00365e-06 -9.00821e-06 -1.60146e-05 -2.50228e-05 -3.60329e-05 -4.90447e-05 -6.40584e-05 -8.13235e-05 -0.00010109 -0.000123357 -0.000148125 -0.000175394 -0.000205164 -0.000237436 -0.000272208 -0.000307728 -0.000342243 -0.000375753 -0.000408257 -0.000439756 -0.00047025 -0.000499739 -0.000528223 -0.000554573 -0.000577664 -0.000597493 -0.000614063 -0.000627372 -0.00063742 -0.000644209 -0.000647736 -0.00064783 -0.000644315 -0.000637192 -0.000626461 -0.000612122 -0.000594175 -0.00057262 -0.000547456 -0.00051956 -0.000489806 -0.000458193 -0.000424724 -0.000389396 -0.000352211 -0.000313167 -0.000272266 -0.000231099 -0.000191258 -0.000152743 -0.000115553 -7.96898e-05 -4.5152e-05 -1.19401e-05 1.99459e-05 4.92176e-05 7.45863e-05 9.60522e-05 0.000113615 0.000127275 0.000137033 0.000142887 0.000144838 0.000142887 0.000137033 0.000127275 0.000113615 9.60522e-05 7.45863e-05 4.92176e-05 1.99459e-05 -1.19401e-05 -4.5152e-05 -7.96897e-05 -0.000115553 -0.000152743 -0.000191258 -0.000231099 -0.000272266 -0.000313167 -0.000352211 -0.000389396 -0.000424724 -0.000458193 -0.000489806 -0.00051956 -0.000547456 -0.00057262 -0.000594175 -0.000612122 -0.000626461 -0.000637192 -0.000644315 -0.00064783 -0.000647736 -0.000644209 -0.000637421 -0.000627372 -0.000614063 -0.000597494 -0.000577664 -0.000554573 -0.000528223 -0.000499739 -0.00047025 -0.000439756 -0.000408257 -0.000375753 -0.000342243 -0.000307728 -0.000272208 -0.000237436 -0.000205164 -0.000175394 -0.000148125 -0.000123357 -0.00010109 -8.13236e-05 -6.40585e-05 -4.90448e-05 -3.60329e-05 -2.50228e-05 -1.60146e-05 -9.00822e-06 -4.00365e-06 -1.00091e-06 0 0 -1.56393e-06 -6.2557e-06 -1.40753e-05 -2.50228e-05 -3.90982e-05 -5.63013e-05 -7.66324e-05 -0.000100091 -0.000127068 -0.000157953 -0.000192745 -0.000231445 -0.000274053 -0.000320569 -0.000370993 -0.000425325 -0.000480825 -0.000534754 -0.000587113 -0.000637902 -0.000687119 -0.000734766 -0.000780842 -0.000825348 -0.000866521 -0.000902599 -0.000933583 -0.000959473 -0.000980269 -0.000995969 -0.00100658 -0.00101209 -0.00101223 -0.00100674 -0.000995613 -0.000978846 -0.000956441 -0.000928399 -0.000894718 -0.0008554 -0.000811812 -0.000765321 -0.000715927 -0.000663631 -0.000608431 -0.000550329 -0.000489324 -0.000425416 -0.000361093 -0.000298841 -0.000238661 -0.000180552 -0.000124515 -7.055e-05 -1.86565e-05 3.11655e-05 7.69024e-05 0.000116541 0.000150082 0.000177524 0.000198868 0.000214113 0.000223261 0.00022631 0.000223261 0.000214113 0.000198868 0.000177524 0.000150082 0.000116541 7.69025e-05 3.11655e-05 -1.86564e-05 -7.055e-05 -0.000124515 -0.000180552 -0.000238661 -0.000298841 -0.000361093 -0.000425416 -0.000489324 -0.000550329 -0.000608431 -0.000663631 -0.000715927 -0.000765321 -0.000811812 -0.0008554 -0.000894718 -0.000928399 -0.000956441 -0.000978846 -0.000995613 -0.00100674 -0.00101223 -0.00101209 -0.00100658 -0.00099597 -0.000980269 -0.000959473 -0.000933584 -0.000902599 -0.000866521 -0.000825348 -0.000780842 -0.000734766 -0.000687119 -0.000637902 -0.000587114 -0.000534755 -0.000480825 -0.000425325 -0.000370993 -0.00032057 -0.000274054 -0.000231445 -0.000192745 -0.000157953 -0.000127068 -0.000100091 -7.66325e-05 -5.63014e-05 -3.90982e-05 -2.50228e-05 -1.40753e-05 -6.25571e-06 -1.56393e-06 0 0 -2.25205e-06 -9.00821e-06 -2.02685e-05 -3.60329e-05 -5.63013e-05 -8.10739e-05 -0.000110351 -0.000144131 -0.000182978 -0.000227452 -0.000277553 -0.000333281 -0.000394637 -0.00046162 -0.00053423 -0.000612468 -0.000692388 -0.000770046 -0.000845443 -0.000918578 -0.000989452 -0.00105806 -0.00112441 -0.0011885 -0.00124779 -0.00129974 -0.00134436 -0.00138164 -0.00141159 -0.0014342 -0.00144947 -0.00145741 -0.00145762 -0.00144971 -0.00143368 -0.00140954 -0.00137728 -0.00133689 -0.00128839 -0.00123178 -0.00116901 -0.00110206 -0.00103094 -0.000955628 -0.000876141 -0.000792474 -0.000704626 -0.000612599 -0.000519973 -0.000430331 -0.000343671 -0.000259995 -0.000179302 -0.000101592 -2.68653e-05 4.48783e-05 0.00011074 0.000167819 0.000216118 0.000255634 0.000286369 0.000308323 0.000321495 0.000325886 0.000321495 0.000308323 0.00028637 0.000255634 0.000216118 0.000167819 0.00011074 4.48783e-05 -2.68653e-05 -0.000101592 -0.000179302 -0.000259995 -0.000343671 -0.000430331 -0.000519973 -0.000612599 -0.000704626 -0.000792474 -0.000876141 -0.000955628 -0.00103094 -0.00110206 -0.00116901 -0.00123178 -0.00128839 -0.00133689 -0.00137728 -0.00140954 -0.00143368 -0.00144971 -0.00145762 -0.00145741 -0.00144947 -0.0014342 -0.00141159 -0.00138164 -0.00134436 -0.00129974 -0.00124779 -0.0011885 -0.00112441 -0.00105806 -0.000989452 -0.000918579 -0.000845444 -0.000770047 -0.000692388 -0.000612468 -0.00053423 -0.00046162 -0.000394637 -0.000333281 -0.000277553 -0.000227452 -0.000182978 -0.000144132 -0.000110351 -8.1074e-05 -5.63014e-05 -3.60329e-05 -2.02685e-05 -9.00822e-06 -2.25206e-06 0 0 -3.0653e-06 -1.22612e-05 -2.75877e-05 -4.90447e-05 -7.66324e-05 -0.000110351 -0.000150199 -0.000196179 -0.000249053 -0.000309587 -0.00037778 -0.000453633 -0.000537145 -0.000628316 -0.000727146 -0.000833636 -0.000942417 -0.00104812 -0.00115074 -0.00125029 -0.00134675 -0.00144014 -0.00153045 -0.00161768 -0.00169838 -0.00176909 -0.00182982 -0.00188057 -0.00192133 -0.0019521 -0.00197289 -0.00198369 -0.00198398 -0.00197322 -0.0019514 -0.00191854 -0.00187462 -0.00181966 -0.00175365 -0.00167658 -0.00159115 -0.00150003 -0.00140322 -0.00130072 -0.00119253 -0.00107864 -0.000959075 -0.000833815 -0.000707741 -0.000585728 -0.000467775 -0.000353882 -0.00024405 -0.000138278 -3.65667e-05 6.10843e-05 0.000150729 0.000228421 0.00029416 0.000347947 0.000389781 0.000419662 0.000437591 0.000443567 0.000437591 0.000419662 0.000389781 0.000347947 0.00029416 0.000228421 0.000150729 6.10844e-05 -3.65666e-05 -0.000138278 -0.00024405 -0.000353882 -0.000467775 -0.000585728 -0.000707741 -0.000833815 -0.000959075 -0.00107864 -0.00119253 -0.00130072 -0.00140322 -0.00150003 -0.00159115 -0.00167658 -0.00175365 -0.00181966 -0.00187462 -0.00191854 -0.0019514 -0.00197322 -0.00198398 -0.00198369 -0.00197289 -0.0019521 -0.00192133 -0.00188057 -0.00182982 -0.00176909 -0.00169838 -0.00161768 -0.00153045 -0.00144014 -0.00134675 -0.00125029 -0.00115074 -0.00104812 -0.000942417 -0.000833637 -0.000727147 -0.000628316 -0.000537145 -0.000453633 -0.000377781 -0.000309587 -0.000249054 -0.000196179 -0.0001502 -0.000110351 -7.66325e-05 -4.90448e-05 -2.75877e-05 -1.22612e-05 -3.0653e-06 0 0 -4.00365e-06 -1.60146e-05 -3.60329e-05 -6.40584e-05 -0.000100091 -0.000144131 -0.000196179 -0.000256234 -0.000325294 -0.000404359 -0.000493427 -0.0005925 -0.000701577 -0.000820657 -0.000949742 -0.00108883 -0.00123091 -0.00136897 -0.00150301 -0.00163303 -0.00175902 -0.001881 -0.00199896 -0.00211289 -0.00221829 -0.00231065 -0.00238997 -0.00245625 -0.00250949 -0.00254968 -0.00257683 -0.00259095 -0.00259132 -0.00257726 -0.00254877 -0.00250585 -0.00244849 -0.0023767 -0.00229048 -0.00218982 -0.00207824 -0.00195922 -0.00183277 -0.00169889 -0.00155758 -0.00140884 -0.00125267 -0.00108907 -0.000924397 -0.000765032 -0.000610971 -0.000462213 -0.000318759 -0.000180608 -4.77605e-05 7.97836e-05 0.00019687 0.000298345 0.000384209 0.000454461 0.000509101 0.00054813 0.000571548 0.000579353 0.000571548 0.00054813 0.000509101 0.000454461 0.000384209 0.000298345 0.00019687 7.97837e-05 -4.77605e-05 -0.000180608 -0.000318759 -0.000462213 -0.000610971 -0.000765032 -0.000924397 -0.00108906 -0.00125267 -0.00140884 -0.00155758 -0.00169889 -0.00183277 -0.00195922 -0.00207824 -0.00218983 -0.00229048 -0.0023767 -0.00244849 -0.00250585 -0.00254877 -0.00257726 -0.00259132 -0.00259095 -0.00257683 -0.00254968 -0.00250949 -0.00245625 -0.00238997 -0.00231065 -0.00221829 -0.00211289 -0.00199896 -0.001881 -0.00175903 -0.00163303 -0.00150301 -0.00136897 -0.00123091 -0.00108883 -0.000949743 -0.000820658 -0.000701577 -0.0005925 -0.000493428 -0.000404359 -0.000325294 -0.000256234 -0.000196179 -0.000144132 -0.000100091 -6.40585e-05 -3.60329e-05 -1.60146e-05 -4.00365e-06 0 0 -5.08272e-06 -2.03309e-05 -4.57445e-05 -8.13235e-05 -0.000127068 -0.000182978 -0.000249053 -0.000325294 -0.000412876 -0.000512974 -0.000625588 -0.000750718 -0.000888364 -0.00103853 -0.00120121 -0.0013764 -0.00155517 -0.00172859 -0.00189664 -0.00205934 -0.00221667 -0.00236865 -0.00251526 -0.00265652 -0.00278667 -0.00289999 -0.00299646 -0.0030761 -0.00313889 -0.00318484 -0.00321395 -0.00322623 -0.00322081 -0.00319685 -0.00315435 -0.0030933 -0.00301372 -0.00291559 -0.00279893 -0.00266372 -0.00251453 -0.00235592 -0.00218789 -0.00201044 -0.00182358 -0.00162729 -0.00142158 -0.00120645 -0.000990151 -0.000780926 -0.000578776 -0.000383702 -0.000195703 -1.47797e-05 0.000159068 0.000325841 0.000478873 0.000611502 0.000723726 0.000815545 0.00088696 0.000937971 0.000968578 0.00097878 0.000968578 0.000937971 0.00088696 0.000815545 0.000723726 0.000611502 0.000478873 0.000325841 0.000159068 -1.47796e-05 -0.000195703 -0.000383702 -0.000578776 -0.000780926 -0.000990151 -0.00120645 -0.00142158 -0.00162729 -0.00182358 -0.00201044 -0.00218789 -0.00235592 -0.00251453 -0.00266372 -0.00279893 -0.00291559 -0.00301372 -0.0030933 -0.00315435 -0.00319685 -0.00322081 -0.00322623 -0.00321396 -0.00318484 -0.00313889 -0.0030761 -0.00299646 -0.00289999 -0.00278667 -0.00265652 -0.00251526 -0.00236865 -0.00221667 -0.00205934 -0.00189664 -0.00172859 -0.00155518 -0.0013764 -0.00120121 -0.00103853 -0.000888365 -0.000750718 -0.000625588 -0.000512974 -0.000412876 -0.000325294 -0.000249054 -0.000182978 -0.000127068 -8.13236e-05 -4.57445e-05 -2.03309e-05 -5.08273e-06 0 0 -6.3181e-06 -2.52724e-05 -5.68629e-05 -0.00010109 -0.000157953 -0.000227452 -0.000309587 -0.000404359 -0.000512974 -0.000636639 -0.000775355 -0.000929122 -0.00109794 -0.00128181 -0.00148073 -0.0016947 -0.00191251 -0.00212295 -0.00232603 -0.00252175 -0.0027101 -0.00289108 -0.0030647 -0.00323095 -0.00338267 -0.00351266 -0.00362094 -0.00370751 -0.00377235 -0.00381548 -0.0038369 -0.0038366 -0.00381361 -0.00376697 -0.00369669 -0.00360275 -0.00348516 -0.00334392 -0.00317903 -0.00299049 -0.00278428 -0.00256641 -0.00233686 -0.00209565 -0.00184276 -0.0015782 -0.00130198 -0.00101408 -0.000725214 -0.00044609 -0.000176705 8.29395e-05 0.000332844 0.000573009 0.000803435 0.00102412 0.00122645 0.0014018 0.00155017 0.00167157 0.00176599 0.00183343 0.00187389 0.00188738 0.00187389 0.00183343 0.00176599 0.00167157 0.00155017 0.0014018 0.00122645 0.00102412 0.000803435 0.00057301 0.000332844 8.29396e-05 -0.000176705 -0.00044609 -0.000725214 -0.00101408 -0.00130198 -0.0015782 -0.00184276 -0.00209565 -0.00233686 -0.00256641 -0.00278428 -0.00299049 -0.00317903 -0.00334392 -0.00348516 -0.00360275 -0.00369669 -0.00376697 -0.00381361 -0.0038366 -0.0038369 -0.00381548 -0.00377235 -0.00370751 -0.00362094 -0.00351266 -0.00338267 -0.00323096 -0.0030647 -0.00289108 -0.0027101 -0.00252175 -0.00232604 -0.00212295 -0.00191251 -0.0016947 -0.00148073 -0.00128181 -0.00109794 -0.000929123 -0.000775356 -0.00063664 -0.000512974 -0.000404359 -0.000309587 -0.000227452 -0.000157953 -0.00010109 -5.6863e-05 -2.52724e-05 -6.31811e-06 0 0 -7.7098e-06 -3.08392e-05 -6.93882e-05 -0.000123357 -0.000192745 -0.000277553 -0.00037778 -0.000493427 -0.000625588 -0.000775355 -0.00094273 -0.00112771 -0.0013303 -0.0015505 -0.0017883 -0.00204371 -0.00230291 -0.00255207 -0.00279119 -0.00302027 -0.00323931 -0.00344831 -0.00364728 -0.0038362 -0.00400627 -0.00414868 -0.00426341 -0.00435048 -0.00440988 -0.00444161 -0.00444566 -0.00442206 -0.00436973 -0.00428764 -0.0041758 -0.00403419 -0.00386281 -0.00366168 -0.00343078 -0.00317013 -0.0028875 -0.00259068 -0.00227968 -0.0019545 -0.00161514 -0.00126159 -0.00089386 -0.000511945 -0.000129586 0.000239476 0.000595242 0.000937711 0.00126688 0.00158276 0.00188534 0.00217462 0.00243959 0.00266923 0.00286355 0.00302253 0.00314618 0.0032345 0.0032875 0.00330516 0.0032875 0.0032345 0.00314618 0.00302253 0.00286355 0.00266923 0.00243959 0.00217462 0.00188534 0.00158276 0.00126688 0.000937711 0.000595242 0.000239476 -0.000129586 -0.000511944 -0.000893859 -0.00126159 -0.00161514 -0.0019545 -0.00227968 -0.00259068 -0.0028875 -0.00317013 -0.00343078 -0.00366168 -0.00386281 -0.00403419 -0.0041758 -0.00428764 -0.00436973 -0.00442206 -0.00444567 -0.00444161 -0.00440988 -0.00435048 -0.00426341 -0.00414868 -0.00400628 -0.0038362 -0.00364728 -0.00344831 -0.00323931 -0.00302027 -0.00279119 -0.00255207 -0.00230291 -0.00204372 -0.0017883 -0.0015505 -0.0013303 -0.00112771 -0.000942731 -0.000775356 -0.000625588 -0.000493428 -0.000377781 -0.000277553 -0.000192745 -0.000123357 -6.93883e-05 -3.08392e-05 -7.70981e-06 0 0 -9.25781e-06 -3.70312e-05 -8.33203e-05 -0.000148125 -0.000231445 -0.000333281 -0.000453633 -0.0005925 -0.000750718 -0.000929122 -0.00112771 -0.00134649 -0.00158545 -0.0018446 -0.00212394 -0.00242346 -0.00272638 -0.00301593 -0.0032921 -0.00355489 -0.0038043 -0.00404033 -0.00426298 -0.00447226 -0.0046575 -0.00480803 -0.00492388 -0.00500502 -0.00505146 -0.00506321 -0.00504025 -0.0049826 -0.00488917 -0.00475886 -0.00459167 -0.00438761 -0.00414668 -0.00386887 -0.00355419 -0.00320264 -0.00282417 -0.00242874 -0.00201636 -0.00158701 -0.00114071 -0.000677448 -0.000197229 0.000299949 0.000796733 0.00127577 0.00173706 0.00218061 0.00260641 0.00301447 0.00340478 0.00377735 0.00411831 0.00441381 0.00466385 0.00486843 0.00502754 0.0051412 0.00520939 0.00523212 0.00520939 0.0051412 0.00502754 0.00486843 0.00466385 0.00441381 0.00411831 0.00377735 0.00340478 0.00301447 0.00260641 0.00218061 0.00173706 0.00127577 0.000796733 0.000299949 -0.000197229 -0.000677448 -0.00114071 -0.00158701 -0.00201636 -0.00242874 -0.00282417 -0.00320264 -0.00355419 -0.00386887 -0.00414668 -0.00438761 -0.00459167 -0.00475886 -0.00488917 -0.0049826 -0.00504026 -0.00506321 -0.00505146 -0.00500502 -0.00492388 -0.00480804 -0.0046575 -0.00447226 -0.00426298 -0.00404033 -0.0038043 -0.00355489 -0.0032921 -0.00301593 -0.00272638 -0.00242346 -0.00212394 -0.0018446 -0.00158545 -0.00134649 -0.00112771 -0.000929123 -0.000750719 -0.0005925 -0.000453633 -0.000333281 -0.000231445 -0.000148125 -8.33204e-05 -3.70313e-05 -9.25782e-06 0 0 -1.09621e-05 -4.38485e-05 -9.86592e-05 -0.000175394 -0.000274053 -0.000394637 -0.000537145 -0.000701577 -0.000888364 -0.00109794 -0.0013303 -0.00158545 -0.00186339 -0.00216411 -0.00248763 -0.00283392 -0.00318292 -0.00351454 -0.00382877 -0.00412561 -0.00440507 -0.00466714 -0.00491183 -0.00513913 -0.00533633 -0.00549073 -0.00560233 -0.00567112 -0.00569711 -0.00568029 -0.00562067 -0.00551824 -0.00537192 -0.00518061 -0.00494431 -0.00466303 -0.00433676 -0.0039655 -0.00354926 -0.00308803 -0.00259431 -0.00208059 -0.00154688 -0.000993174 -0.000419472 0.000174224 0.000787915 0.0014216 0.00205374 0.0026628 0.00324876 0.00381164 0.00435144 0.00486814 0.00536176 0.00583229 0.0062626 0.00663553 0.00695108 0.00720926 0.00741007 0.0075535 0.00763956 0.00766825 0.00763956 0.0075535 0.00741007 0.00720926 0.00695108 0.00663553 0.0062626 0.00583229 0.00536176 0.00486814 0.00435144 0.00381164 0.00324876 0.0026628 0.00205374 0.0014216 0.000787915 0.000174224 -0.000419472 -0.000993174 -0.00154688 -0.00208059 -0.00259431 -0.00308803 -0.00354926 -0.0039655 -0.00433676 -0.00466303 -0.00494431 -0.00518061 -0.00537192 -0.00551824 -0.00562067 -0.00568029 -0.00569711 -0.00567112 -0.00560233 -0.00549073 -0.00533633 -0.00513913 -0.00491183 -0.00466714 -0.00440507 -0.00412561 -0.00382877 -0.00351454 -0.00318293 -0.00283393 -0.00248763 -0.00216411 -0.00186339 -0.00158545 -0.0013303 -0.00109794 -0.000888365 -0.000701577 -0.000537145 -0.000394637 -0.000274054 -0.000175394 -9.86593e-05 -4.38486e-05 -1.09621e-05 0 0 -1.28228e-05 -5.12911e-05 -0.000115405 -0.000205164 -0.000320569 -0.00046162 -0.000628316 -0.000820657 -0.00103853 -0.00128181 -0.0015505 -0.0018446 -0.00216411 -0.00250904 -0.00287937 -0.00327512 -0.00367254 -0.0040479 -0.0044012 -0.00473244 -0.00504162 -0.00532874 -0.0055938 -0.0058368 -0.00604278 -0.00619677 -0.00629877 -0.00634879 -0.00634681 -0.00629285 -0.0061869 -0.00602897 -0.00581799 -0.0055529 -0.00523372 -0.00486044 -0.00443305 -0.00395157 -0.00341598 -0.00282629 -0.00219791 -0.00154623 -0.000871255 -0.000172988 0.000548572 0.00129343 0.00206157 0.00285301 0.00364144 0.00440055 0.00513034 0.0058308 0.00650195 0.00714377 0.00775628 0.00833946 0.00887245 0.00933438 0.00972524 0.010045 0.0102938 0.0104714 0.010578 0.0106136 0.010578 0.0104714 0.0102938 0.010045 0.00972524 0.00933438 0.00887245 0.00833946 0.00775628 0.00714377 0.00650195 0.0058308 0.00513034 0.00440055 0.00364144 0.00285301 0.00206157 0.00129343 0.000548572 -0.000172988 -0.000871255 -0.00154623 -0.00219791 -0.00282629 -0.00341598 -0.00395157 -0.00443305 -0.00486044 -0.00523372 -0.00555291 -0.00581799 -0.00602897 -0.0061869 -0.00629285 -0.00634681 -0.00634879 -0.00629877 -0.00619677 -0.00604278 -0.0058368 -0.0055938 -0.00532874 -0.00504162 -0.00473244 -0.0044012 -0.0040479 -0.00367254 -0.00327512 -0.00287937 -0.00250904 -0.00216411 -0.0018446 -0.0015505 -0.00128181 -0.00103853 -0.000820658 -0.000628316 -0.00046162 -0.00032057 -0.000205165 -0.000115405 -5.12911e-05 -1.28228e-05 0 0 -1.48397e-05 -5.93589e-05 -0.000133558 -0.000237436 -0.000370993 -0.00053423 -0.000727146 -0.000949742 -0.00120121 -0.00148073 -0.0017883 -0.00212394 -0.00248763 -0.00287937 -0.00329917 -0.00374703 -0.00419522 -0.004616 -0.00500939 -0.00537537 -0.00571395 -0.00602513 -0.00630891 -0.00656529 -0.00677684 -0.00692615 -0.00701321 -0.00703802 -0.00700058 -0.0069009 -0.00673896 -0.00651478 -0.00622737 -0.00587574 -0.0054599 -0.00497984 -0.00443556 -0.00382706 -0.00315435 -0.00241743 -0.00163497 -0.000825651 1.05196e-05 0.000873544 0.00176342 0.00268016 0.00362374 0.00459419 0.00555983 0.00648903 0.00738179 0.00823809 0.00905795 0.00984137 0.0105883 0.0112989 0.0119479 0.0125104 0.0129863 0.0133757 0.0136786 0.013895 0.0140248 0.014068 0.0140248 0.013895 0.0136786 0.0133757 0.0129863 0.0125104 0.0119479 0.0112989 0.0105883 0.00984137 0.00905795 0.00823809 0.00738179 0.00648903 0.00555983 0.00459419 0.00362374 0.00268016 0.00176342 0.000873544 1.05195e-05 -0.000825651 -0.00163497 -0.00241743 -0.00315435 -0.00382706 -0.00443556 -0.00497984 -0.0054599 -0.00587574 -0.00622737 -0.00651478 -0.00673896 -0.0069009 -0.00700058 -0.00703802 -0.00701321 -0.00692615 -0.00677684 -0.00656529 -0.00630891 -0.00602513 -0.00571395 -0.00537537 -0.00500939 -0.00461601 -0.00419522 -0.00374703 -0.00329917 -0.00287937 -0.00248763 -0.00212394 -0.0017883 -0.00148073 -0.00120121 -0.000949743 -0.000727147 -0.00053423 -0.000370993 -0.000237436 -0.000133558 -5.93589e-05 -1.48397e-05 0 0 -1.7013e-05 -6.80519e-05 -0.000153117 -0.000272208 -0.000425325 -0.000612468 -0.000833636 -0.00108883 -0.0013764 -0.0016947 -0.00204371 -0.00242346 -0.00283392 -0.00327512 -0.00374703 -0.00424967 -0.00475097 -0.00521886 -0.00565334 -0.00605441 -0.00642207 -0.00675632 -0.00705716 -0.00732459 -0.00753852 -0.00767887 -0.00774563 -0.00773881 -0.00765841 -0.00750442 -0.00727685 -0.00697569 -0.00660007 -0.00614912 -0.00562284 -0.00502122 -0.00434428 -0.003592 -0.00276438 -0.00186144 -0.000905488 8.11386e-05 0.00109844 0.00214642 0.00322508 0.00433442 0.00547443 0.00664512 0.00780892 0.00892825 0.0100031 0.0110335 0.0120194 0.0129609 0.0138579 0.0147105 0.0154889 0.0161635 0.0167343 0.0172014 0.0175647 0.0178241 0.0179798 0.0180317 0.0179798 0.0178241 0.0175647 0.0172014 0.0167343 0.0161635 0.0154889 0.0147105 0.0138579 0.0129609 0.0120194 0.0110335 0.0100031 0.00892825 0.00780892 0.00664512 0.00547443 0.00433442 0.00322508 0.00214642 0.00109844 8.11385e-05 -0.000905489 -0.00186144 -0.00276438 -0.003592 -0.00434428 -0.00502122 -0.00562284 -0.00614912 -0.00660007 -0.00697569 -0.00727685 -0.00750442 -0.00765841 -0.00773881 -0.00774563 -0.00767887 -0.00753852 -0.00732459 -0.00705716 -0.00675632 -0.00642207 -0.00605441 -0.00565334 -0.00521886 -0.00475097 -0.00424967 -0.00374703 -0.00327512 -0.00283393 -0.00242346 -0.00204372 -0.0016947 -0.0013764 -0.00108883 -0.000833637 -0.000612468 -0.000425325 -0.000272208 -0.000153117 -6.8052e-05 -1.7013e-05 0 0 -1.9233e-05 -7.6932e-05 -0.000173097 -0.000307728 -0.000480825 -0.000692388 -0.000942417 -0.00123091 -0.00155517 -0.00191251 -0.00230291 -0.00272638 -0.00318292 -0.00367254 -0.00419522 -0.00475097 -0.00530306 -0.00581474 -0.00628603 -0.00671691 -0.0071074 -0.00745749 -0.00776717 -0.00803645 -0.00824239 -0.00836204 -0.00839539 -0.00834245 -0.00820321 -0.00797768 -0.00766586 -0.00726774 -0.00678267 -0.00621 -0.00554971 -0.00480181 -0.0039663 -0.00304318 -0.00203245 -0.000934114 0.000225339 0.00141941 0.0026481 0.0039114 0.00520932 0.00654186 0.00790902 0.0093108 0.0107029 0.0120412 0.0133256 0.0145562 0.0157329 0.0168557 0.0179246 0.0189397 0.0198661 0.020669 0.0213483 0.0219042 0.0223365 0.0226453 0.0228305 0.0228923 0.0228305 0.0226453 0.0223365 0.0219042 0.0213483 0.020669 0.0198661 0.0189397 0.0179246 0.0168557 0.0157329 0.0145562 0.0133256 0.0120412 0.0107029 0.0093108 0.00790902 0.00654186 0.00520932 0.0039114 0.0026481 0.00141941 0.000225339 -0.000934114 -0.00203245 -0.00304318 -0.0039663 -0.00480181 -0.00554971 -0.00621 -0.00678267 -0.00726774 -0.00766586 -0.00797768 -0.00820321 -0.00834245 -0.00839539 -0.00836204 -0.00824239 -0.00803646 -0.00776717 -0.00745749 -0.0071074 -0.00671692 -0.00628603 -0.00581474 -0.00530306 -0.00475097 -0.00419522 -0.00367254 -0.00318293 -0.00272638 -0.00230291 -0.00191251 -0.00155518 -0.00123091 -0.000942417 -0.000692388 -0.000480825 -0.000307728 -0.000173097 -7.6932e-05 -1.9233e-05 0 0 -2.13902e-05 -8.55607e-05 -0.000192512 -0.000342243 -0.000534754 -0.000770046 -0.00104812 -0.00136897 -0.00172859 -0.00212295 -0.00255207 -0.00301593 -0.00351454 -0.0040479 -0.004616 -0.00521886 -0.00581474 -0.00636194 -0.00686045 -0.00731027 -0.0077114 -0.00806384 -0.00836759 -0.00862266 -0.00880304 -0.00888276 -0.00886181 -0.00874019 -0.0085179 -0.00819493 -0.0077713 -0.00724701 -0.00662177 -0.00589532 -0.00506766 -0.0041388 -0.00310872 -0.00197744 -0.000744947 0.000588754 0.00199233 0.00343443 0.00491506 0.00643423 0.00799192 0.00958815 0.0112229 0.0128962 0.0145562 0.016151 0.0176807 0.0191453 0.0205447 0.0218789 0.023148 0.024352 0.0254502 0.026402 0.0272073 0.0278662 0.0283787 0.0287447 0.0289644 0.0290376 0.0289644 0.0287447 0.0283787 0.0278662 0.0272073 0.026402 0.0254502 0.024352 0.023148 0.0218789 0.0205447 0.0191453 0.0176807 0.016151 0.0145562 0.0128962 0.0112229 0.00958815 0.00799192 0.00643423 0.00491506 0.00343443 0.00199233 0.000588754 -0.000744948 -0.00197744 -0.00310872 -0.0041388 -0.00506766 -0.00589532 -0.00662177 -0.00724701 -0.00777131 -0.00819494 -0.0085179 -0.00874019 -0.00886181 -0.00888276 -0.00880305 -0.00862266 -0.00836759 -0.00806384 -0.0077114 -0.00731027 -0.00686045 -0.00636194 -0.00581474 -0.00521886 -0.00461601 -0.0040479 -0.00351454 -0.00301593 -0.00255207 -0.00212295 -0.00172859 -0.00136897 -0.00104812 -0.000770047 -0.000534755 -0.000342243 -0.000192512 -8.55608e-05 -2.13902e-05 0 0 -2.34845e-05 -9.39381e-05 -0.000211361 -0.000375752 -0.000587113 -0.000845443 -0.00115074 -0.00150301 -0.00189664 -0.00232603 -0.00279119 -0.0032921 -0.00382877 -0.0044012 -0.00500939 -0.00565334 -0.00628603 -0.00686045 -0.00737659 -0.00783446 -0.00823405 -0.00857538 -0.00885842 -0.00908319 -0.00922047 -0.00924104 -0.00914489 -0.00893204 -0.00860247 -0.00815618 -0.00759319 -0.00691348 -0.00611735 -0.00520509 -0.00417671 -0.00303219 -0.00177155 -0.000394771 0.00109813 0.00270717 0.00439547 0.0061262 0.00789934 0.0097149 0.0115729 0.0134733 0.0154161 0.0174013 0.0193686 0.0212576 0.0230683 0.0248007 0.0264548 0.0280306 0.0295281 0.0309473 0.0322411 0.0333624 0.0343112 0.0350875 0.0356913 0.0361226 0.0363813 0.0364676 0.0363813 0.0361226 0.0356913 0.0350875 0.0343112 0.0333624 0.0322411 0.0309473 0.0295281 0.0280306 0.0264548 0.0248007 0.0230683 0.0212576 0.0193686 0.0174013 0.0154161 0.0134733 0.0115729 0.0097149 0.00789934 0.0061262 0.00439547 0.00270717 0.00109813 -0.000394772 -0.00177155 -0.00303219 -0.00417671 -0.0052051 -0.00611735 -0.00691348 -0.00759319 -0.00815618 -0.00860247 -0.00893204 -0.0091449 -0.00924104 -0.00922048 -0.0090832 -0.00885842 -0.00857538 -0.00823406 -0.00783446 -0.00737659 -0.00686045 -0.00628603 -0.00565334 -0.00500939 -0.0044012 -0.00382877 -0.0032921 -0.00279119 -0.00232604 -0.00189664 -0.00150301 -0.00115074 -0.000845444 -0.000587114 -0.000375753 -0.000211361 -9.39382e-05 -2.34845e-05 0 0 -2.55161e-05 -0.000102064 -0.000229645 -0.000408257 -0.000637901 -0.000918578 -0.00125029 -0.00163303 -0.00205934 -0.00252175 -0.00302027 -0.00355489 -0.00412561 -0.00473244 -0.00537537 -0.00605441 -0.00671691 -0.00731027 -0.00783446 -0.0082895 -0.00867537 -0.0089921 -0.00923966 -0.00941806 -0.00949468 -0.00943687 -0.00924465 -0.0089179