<?xml version="1.0"?> 
<VTKFile type="StructuredGrid" version="0.1"> 
<StructuredGrid WholeExtent="0 128 0 128 0 0"> 
<Piece Extent="0 128 0 128 0 0"> 
<PointData>
<DataArray type="Float32" Name="u" format="ascii" NumberOfComponents="1"> 
0 0 0 0 0 0 0 0 0 0 0 0 0 0 0 0 0 0 0 0 0 0 0 0 0 0 0 0 0 0 0 0 0 0 0 0 0 0 0 0 0 0 0 0 0 0 0 0 0 0 0 0 0 0 0 0 0 0 0 0 0 0 0 0 0 0 0 0 0 0 0 0 0 0 0 0 0 0 0 0 0 0 0 0 0 0 0 0 0 0 0 0 0 0 0 0 0 0 0 0 0 0 0 0 0 0 0 0 0 0 0 0 0 0 0 0 0 0 0 0 0 0 0 0 0 0 0 0 0 0 3.89497e-08 1.55799e-07 3.50548e-07 6.23196e-07 9.73743e-07 1.40219e-06 1.90854e-06 2.49278e-06 3.04159e-06 3.44163e-06 3.6929e-06 3.79539e-06 3.74911e-06 3.55406e-06 3.21024e-06 2.71764e-06 1.96915e-06 8.57615e-07 -6.1695e-07 -2.45455e-06 -4.65518e-06 -7.21885e-06 -1.01456e-05 -1.34353e-05 -1.70474e-05 -2.09412e-05 -2.51167e-05 -2.95739e-05 -3.43127e-05 -3.93333e-05 -4.46356e-05 -5.02196e-05 -5.60096e-05 -6.19301e-05 -6.79811e-05 -7.41626e-05 -8.04745e-05 -8.6917e-05 -9.34899e-05 -0.000100193 -0.000106948 -0.000113677 -0.000120379 -0.000127054 -0.000133703 -0.000140325 -0.00014692 -0.000153489 -0.000159904 -0.000166037 -0.000171889 -0.000177459 -0.000182748 -0.000187756 -0.000192482 -0.000196927 -0.000200963 -0.00020446 -0.000207419 -0.00020984 -0.000211723 -0.000213068 -0.000213876 -0.000214145 -0.000213876 -0.000213068 -0.000211723 -0.00020984 -0.000207419 -0.00020446 -0.000200963 -0.000196927 -0.000192482 -0.000187756 -0.000182748 -0.000177459 -0.000171889 -0.000166037 -0.000159904 -0.000153489 -0.00014692 -0.000140325 -0.000133703 -0.000127054 -0.000120379 -0.000113677 -0.000106948 -0.000100193 -9.34899e-05 -8.6917e-05 -8.04745e-05 -7.41626e-05 -6.79811e-05 -6.19301e-05 -5.60096e-05 -5.02196e-05 -4.46356e-05 -3.93333e-05 -3.43127e-05 -2.95739e-05 -2.51167e-05 -2.09412e-05 -1.70474e-05 -1.34353e-05 -1.01456e-05 -7.21885e-06 -4.65518e-06 -2.45455e-06 -6.16949e-07 8.57616e-07 1.96915e-06 2.71764e-06 3.21024e-06 3.55406e-06 3.74911e-06 3.79539e-06 3.6929e-06 3.44163e-06 3.04159e-06 2.49278e-06 1.90854e-06 1.40219e-06 9.73743e-07 6.23196e-07 3.50548e-07 1.55799e-07 3.89497e-08 0 0 1.55799e-07 6.23196e-07 1.40219e-06 2.49278e-06 3.89497e-06 5.60876e-06 7.63415e-06 9.97113e-06 1.21664e-05 1.37665e-05 1.47716e-05 1.51816e-05 1.49964e-05 1.42162e-05 1.2841e-05 1.08706e-05 7.87659e-06 3.43046e-06 -2.4678e-06 -9.8182e-06 -1.86207e-05 -2.88754e-05 -4.05822e-05 -5.37412e-05 -6.81896e-05 -8.37647e-05 -0.000100467 -0.000118295 -0.000137251 -0.000157333 -0.000178542 -0.000200878 -0.000224038 -0.000247721 -0.000271925 -0.00029665 -0.000321898 -0.000347668 -0.000373959 -0.000400773 -0.000427794 -0.000454708 -0.000481516 -0.000508217 -0.000534812 -0.0005613 -0.000587681 -0.000613956 -0.000639614 -0.000664147 -0.000687555 -0.000709837 -0.000730993 -0.000751024 -0.000769929 -0.000787709 -0.000803851 -0.00081784 -0.000829676 -0.000839361 -0.000846894 -0.000852274 -0.000855502 -0.000856578 -0.000855502 -0.000852274 -0.000846894 -0.000839361 -0.000829676 -0.00081784 -0.000803851 -0.000787709 -0.000769929 -0.000751024 -0.000730993 -0.000709837 -0.000687555 -0.000664147 -0.000639614 -0.000613956 -0.000587681 -0.0005613 -0.000534812 -0.000508217 -0.000481516 -0.000454708 -0.000427794 -0.000400773 -0.000373959 -0.000347668 -0.000321898 -0.00029665 -0.000271925 -0.000247721 -0.000224038 -0.000200878 -0.000178542 -0.000157333 -0.000137251 -0.000118295 -0.000100467 -8.37647e-05 -6.81896e-05 -5.37412e-05 -4.05822e-05 -2.88754e-05 -1.86207e-05 -9.8182e-06 -2.4678e-06 3.43047e-06 7.87659e-06 1.08706e-05 1.2841e-05 1.42162e-05 1.49964e-05 1.51816e-05 1.47716e-05 1.37665e-05 1.21664e-05 9.97113e-06 7.63415e-06 5.60876e-06 3.89497e-06 2.49278e-06 1.40219e-06 6.23196e-07 1.55799e-07 0 0 3.50548e-07 1.40219e-06 3.15493e-06 5.60876e-06 8.76369e-06 1.26197e-05 1.71768e-05 2.2435e-05 2.73743e-05 3.09747e-05 3.32361e-05 3.41585e-05 3.3742e-05 3.19865e-05 2.88921e-05 2.44588e-05 1.77223e-05 7.71854e-06 -5.55255e-06 -2.20909e-05 -4.18967e-05 -6.49697e-05 -9.131e-05 -0.000120918 -0.000153427 -0.000188471 -0.00022605 -0.000266165 -0.000308815 -0.000354 -0.00040172 -0.000451976 -0.000504087 -0.000557371 -0.00061183 -0.000667463 -0.000724271 -0.000782253 -0.000841409 -0.000901739 -0.000962536 -0.00102309 -0.00108341 -0.00114349 -0.00120333 -0.00126292 -0.00132228 -0.0013814 -0.00143913 -0.00149433 -0.001547 -0.00159713 -0.00164473 -0.0016898 -0.00173234 -0.00177235 -0.00180866 -0.00184014 -0.00186677 -0.00188856 -0.00190551 -0.00191762 -0.00192488 -0.0019273 -0.00192488 -0.00191762 -0.00190551 -0.00188856 -0.00186677 -0.00184014 -0.00180866 -0.00177235 -0.00173234 -0.0016898 -0.00164473 -0.00159713 -0.001547 -0.00149433 -0.00143913 -0.0013814 -0.00132228 -0.00126292 -0.00120333 -0.00114349 -0.00108341 -0.00102309 -0.000962536 -0.000901739 -0.000841409 -0.000782253 -0.000724271 -0.000667463 -0.00061183 -0.000557371 -0.000504087 -0.000451976 -0.00040172 -0.000354 -0.000308815 -0.000266165 -0.00022605 -0.000188471 -0.000153426 -0.000120918 -9.131e-05 -6.49697e-05 -4.18966e-05 -2.20909e-05 -5.55254e-06 7.71855e-06 1.77223e-05 2.44588e-05 2.88922e-05 3.19866e-05 3.3742e-05 3.41585e-05 3.32361e-05 3.09747e-05 2.73743e-05 2.2435e-05 1.71768e-05 1.26197e-05 8.76369e-06 5.60876e-06 3.15493e-06 1.40219e-06 3.50548e-07 0 0 6.23196e-07 2.49278e-06 5.60876e-06 9.97113e-06 1.55799e-05 2.2435e-05 3.05366e-05 3.98845e-05 4.86655e-05 5.50661e-05 5.90863e-05 6.07262e-05 5.99858e-05 5.6865e-05 5.13638e-05 4.34823e-05 3.15063e-05 1.37218e-05 -9.8712e-06 -3.92728e-05 -7.44829e-05 -0.000115502 -0.000162329 -0.000214965 -0.000272758 -0.000335059 -0.000401867 -0.000473182 -0.000549004 -0.000629333 -0.000714169 -0.000803513 -0.000896154 -0.000990882 -0.0010877 -0.0011866 -0.00128759 -0.00139067 -0.00149584 -0.00160309 -0.00171118 -0.00181883 -0.00192606 -0.00203287 -0.00213925 -0.0022452 -0.00235072 -0.00245582 -0.00255846 -0.00265659 -0.00275022 -0.00283935 -0.00292397 -0.0030041 -0.00307972 -0.00315084 -0.0032154 -0.00327136 -0.00331871 -0.00335744 -0.00338757 -0.0034091 -0.00342201 -0.00342631 -0.00342201 -0.0034091 -0.00338757 -0.00335744 -0.00331871 -0.00327136 -0.0032154 -0.00315084 -0.00307972 -0.0030041 -0.00292397 -0.00283935 -0.00275022 -0.00265659 -0.00255846 -0.00245582 -0.00235072 -0.0022452 -0.00213925 -0.00203287 -0.00192606 -0.00181883 -0.00171118 -0.00160309 -0.00149584 -0.00139067 -0.00128759 -0.0011866 -0.0010877 -0.000990882 -0.000896154 -0.000803513 -0.000714169 -0.000629333 -0.000549004 -0.000473182 -0.000401867 -0.000335059 -0.000272758 -0.000214965 -0.000162329 -0.000115502 -7.44829e-05 -3.92728e-05 -9.87119e-06 1.37219e-05 3.15064e-05 4.34823e-05 5.13638e-05 5.6865e-05 5.99858e-05 6.07262e-05 5.90863e-05 5.50661e-05 4.86655e-05 3.98845e-05 3.05366e-05 2.2435e-05 1.55799e-05 9.97113e-06 5.60876e-06 2.49278e-06 6.23196e-07 0 0 9.73743e-07 3.89497e-06 8.76369e-06 1.55799e-05 2.43436e-05 3.50548e-05 4.77134e-05 6.23196e-05 7.60398e-05 8.60407e-05 9.23224e-05 9.48847e-05 9.37278e-05 8.88515e-05 8.0256e-05 6.79411e-05 4.92287e-05 2.14404e-05 -1.54238e-05 -6.13637e-05 -0.00011638 -0.000180471 -0.000253639 -0.000335882 -0.000426185 -0.00052353 -0.000627917 -0.000739347 -0.000857819 -0.000983333 -0.00111589 -0.00125549 -0.00140024 -0.00154825 -0.00169953 -0.00185407 -0.00201186 -0.00217292 -0.00233725 -0.00250483 -0.00267371 -0.00284193 -0.00300948 -0.00317636 -0.00334257 -0.00350812 -0.00367301 -0.00383722 -0.00399759 -0.00415092 -0.00429722 -0.00443648 -0.00456871 -0.0046939 -0.00481206 -0.00492318 -0.00502407 -0.0051115 -0.00518548 -0.00524601 -0.00529309 -0.00532671 -0.00534689 -0.00535361 -0.00534689 -0.00532671 -0.00529309 -0.00524601 -0.00518548 -0.0051115 -0.00502407 -0.00492318 -0.00481206 -0.0046939 -0.00456871 -0.00443648 -0.00429722 -0.00415092 -0.00399759 -0.00383722 -0.00367301 -0.00350812 -0.00334257 -0.00317636 -0.00300948 -0.00284193 -0.00267371 -0.00250483 -0.00233725 -0.00217292 -0.00201186 -0.00185407 -0.00169953 -0.00154825 -0.00140024 -0.00125549 -0.00111589 -0.000983333 -0.000857819 -0.000739347 -0.000627917 -0.00052353 -0.000426185 -0.000335882 -0.000253639 -0.000180471 -0.00011638 -6.13637e-05 -1.54237e-05 2.14404e-05 4.92287e-05 6.79411e-05 8.0256e-05 8.88515e-05 9.37278e-05 9.48847e-05 9.23224e-05 8.60408e-05 7.60398e-05 6.23196e-05 4.77134e-05 3.50548e-05 2.43436e-05 1.55799e-05 8.76369e-06 3.89497e-06 9.73743e-07 0 0 1.40219e-06 5.60876e-06 1.26197e-05 2.2435e-05 3.50548e-05 5.04788e-05 6.87073e-05 8.97402e-05 0.000109497 0.000123899 0.000132944 0.000136634 0.000134968 0.000127946 0.000115569 9.78352e-05 7.08893e-05 3.08741e-05 -2.22102e-05 -8.83638e-05 -0.000167587 -0.000259879 -0.00036524 -0.00048367 -0.000613706 -0.000753883 -0.0009042 -0.00106466 -0.00123526 -0.001416 -0.00160688 -0.0018079 -0.00201635 -0.00222948 -0.00244732 -0.00266985 -0.00289708 -0.00312901 -0.00336563 -0.00360696 -0.00385015 -0.00409238 -0.00433365 -0.00457396 -0.00481331 -0.0050517 -0.00528913 -0.0055256 -0.00575653 -0.00597732 -0.00618799 -0.00638853 -0.00657894 -0.00675922 -0.00692937 -0.00708938 -0.00723466 -0.00736056 -0.00746709 -0.00755425 -0.00762204 -0.00767047 -0.00769952 -0.0077092 -0.00769952 -0.00767047 -0.00762204 -0.00755425 -0.00746709 -0.00736056 -0.00723466 -0.00708938 -0.00692937 -0.00675922 -0.00657894 -0.00638853 -0.00618799 -0.00597732 -0.00575653 -0.0055256 -0.00528913 -0.0050517 -0.00481331 -0.00457396 -0.00433365 -0.00409238 -0.00385015 -0.00360696 -0.00336563 -0.00312901 -0.00289708 -0.00266985 -0.00244732 -0.00222948 -0.00201635 -0.0018079 -0.00160688 -0.001416 -0.00123526 -0.00106466 -0.0009042 -0.000753883 -0.000613706 -0.00048367 -0.00036524 -0.000259879 -0.000167587 -8.83638e-05 -2.22102e-05 3.08742e-05 7.08893e-05 9.78352e-05 0.000115569 0.000127946 0.000134968 0.000136634 0.000132944 0.000123899 0.000109497 8.97402e-05 6.87073e-05 5.04789e-05 3.50548e-05 2.2435e-05 1.26197e-05 5.60876e-06 1.40219e-06 0 0 1.90854e-06 7.63415e-06 1.71768e-05 3.05366e-05 4.77134e-05 6.87073e-05 9.35183e-05 0.000122146 0.000149038 0.00016864 0.000180952 0.000185974 0.000183706 0.000174149 0.000157302 0.000133165 9.64882e-05 4.20231e-05 -3.02306e-05 -0.000120273 -0.000228104 -0.000353724 -0.000497132 -0.000658329 -0.000835322 -0.00102612 -0.00123072 -0.00144912 -0.00168132 -0.00192733 -0.00218714 -0.00246076 -0.00274447 -0.00303458 -0.00333108 -0.00363397 -0.00394325 -0.00425893 -0.004581 -0.00490947 -0.00524048 -0.00557018 -0.00589857 -0.00622566 -0.00655144 -0.00687592 -0.00719909 -0.00752095 -0.00783527 -0.0081358 -0.00842254 -0.0086955 -0.00895466 -0.00920004 -0.00943164 -0.00964944 -0.00984717 -0.0100185 -0.0101635 -0.0102822 -0.0103744 -0.0104404 -0.0104799 -0.0104931 -0.0104799 -0.0104404 -0.0103744 -0.0102822 -0.0101635 -0.0100185 -0.00984717 -0.00964944 -0.00943164 -0.00920004 -0.00895466 -0.0086955 -0.00842254 -0.0081358 -0.00783527 -0.00752095 -0.00719909 -0.00687592 -0.00655144 -0.00622566 -0.00589857 -0.00557018 -0.00524048 -0.00490947 -0.004581 -0.00425893 -0.00394325 -0.00363397 -0.00333108 -0.00303458 -0.00274447 -0.00246076 -0.00218714 -0.00192733 -0.00168132 -0.00144912 -0.00123072 -0.00102612 -0.000835322 -0.000658329 -0.000497132 -0.000353724 -0.000228104 -0.000120273 -3.02305e-05 4.20232e-05 9.64882e-05 0.000133165 0.000157302 0.000174149 0.000183706 0.000185974 0.000180952 0.00016864 0.000149038 0.000122146 9.35183e-05 6.87073e-05 4.77134e-05 3.05366e-05 1.71768e-05 7.63415e-06 1.90854e-06 0 0 2.49278e-06 9.97113e-06 2.2435e-05 3.98845e-05 6.23196e-05 8.97402e-05 0.000122146 0.000159538 0.000194662 0.000220264 0.000236345 0.000242905 0.000239943 0.00022746 0.000205455 0.000173929 0.000126025 5.48874e-05 -3.94848e-05 -0.000157091 -0.000297932 -0.000462006 -0.000649315 -0.000859858 -0.00109103 -0.00134024 -0.00160747 -0.00189273 -0.00219602 -0.00251733 -0.00285668 -0.00321405 -0.00358462 -0.00396353 -0.00435079 -0.00474641 -0.00515037 -0.00556269 -0.00598335 -0.00641237 -0.0068447 -0.00727533 -0.00770426 -0.00813148 -0.00855699 -0.0089808 -0.00940289 -0.00982329 -0.0102338 -0.0106264 -0.0110009 -0.0113574 -0.0116959 -0.0120164 -0.0123189 -0.0126034 -0.0128616 -0.0130854 -0.0132748 -0.0134298 -0.0135503 -0.0136364 -0.013688 -0.0137053 -0.013688 -0.0136364 -0.0135503 -0.0134298 -0.0132748 -0.0130854 -0.0128616 -0.0126034 -0.0123189 -0.0120164 -0.0116959 -0.0113574 -0.0110009 -0.0106264 -0.0102338 -0.00982329 -0.00940289 -0.0089808 -0.00855699 -0.00813148 -0.00770426 -0.00727533 -0.0068447 -0.00641237 -0.00598335 -0.00556269 -0.00515037 -0.00474641 -0.00435079 -0.00396353 -0.00358462 -0.00321405 -0.00285668 -0.00251733 -0.00219602 -0.00189273 -0.00160747 -0.00134024 -0.00109103 -0.000859858 -0.000649315 -0.000462006 -0.000297932 -0.000157091 -3.94848e-05 5.48874e-05 0.000126025 0.000173929 0.000205455 0.00022746 0.000239943 0.000242905 0.000236345 0.000220264 0.000194662 0.000159538 0.000122146 8.97402e-05 6.23196e-05 3.98845e-05 2.2435e-05 9.97113e-06 2.49278e-06 0 0 3.04159e-06 1.21664e-05 2.73743e-05 4.86655e-05 7.60398e-05 0.000109497 0.000149038 0.000194662 0.000237268 0.000267756 0.000286126 0.000292378 0.000286512 0.000268527 0.000238425 0.000196204 0.000133468 4.18225e-05 -7.87336e-05 -0.0002282 -0.000406577 -0.000613865 -0.000850063 -0.00111517 -0.00140578 -0.00171848 -0.00205327 -0.00241015 -0.00278912 -0.00319018 -0.00361333 -0.00405857 -0.00451994 -0.00499151 -0.00547326 -0.0059652 -0.00646733 -0.00697965 -0.00750215 -0.00803484 -0.00857167 -0.0091066 -0.00963964 -0.0101708 -0.0107 -0.0112274 -0.0117528 -0.0122763 -0.0127878 -0.0132771 -0.0137441 -0.0141889 -0.0146115 -0.0150119 -0.01539 -0.0157459 -0.0160691 -0.0163493 -0.0165863 -0.0167803 -0.0169311 -0.0170389 -0.0171035 -0.0171251 -0.0171035 -0.0170389 -0.0169311 -0.0167803 -0.0165863 -0.0163493 -0.0160691 -0.0157459 -0.01539 -0.0150119 -0.0146115 -0.0141889 -0.0137441 -0.0132771 -0.0127878 -0.0122763 -0.0117528 -0.0112274 -0.0107 -0.0101708 -0.00963964 -0.0091066 -0.00857167 -0.00803484 -0.00750215 -0.00697965 -0.00646733 -0.0059652 -0.00547326 -0.00499151 -0.00451994 -0.00405857 -0.00361333 -0.00319018 -0.00278912 -0.00241015 -0.00205327 -0.00171848 -0.00140578 -0.00111517 -0.000850063 -0.000613865 -0.000406577 -0.0002282 -7.87336e-05 4.18226e-05 0.000133468 0.000196204 0.000238425 0.000268527 0.000286512 0.000292378 0.000286127 0.000267757 0.000237268 0.000194662 0.000149038 0.000109497 7.60398e-05 4.86655e-05 2.73743e-05 1.21664e-05 3.04159e-06 0 0 3.44163e-06 1.37665e-05 3.09747e-05 5.50661e-05 8.60407e-05 0.000123899 0.00016864 0.000220264 0.000267756 0.000300101 0.000317297 0.000319346 0.000306247 0.000278 0.000234605 0.000176062 9.27843e-05 -2.48156e-05 -0.000176738 -0.000362982 -0.000583548 -0.000838437 -0.00112765 -0.00145118 -0.0018045 -0.00218309 -0.00258694 -0.00301604 -0.00347041 -0.00395004 -0.00445493 -0.00498508 -0.00553363 -0.00609369 -0.00666528 -0.00724839 -0.00784303 -0.00844918 -0.00906686 -0.00969607 -0.0103302 -0.0109628 -0.0115937 -0.0122229 -0.0128506 -0.0134767 -0.0141011 -0.0147239 -0.0153329 -0.0159161 -0.0164734 -0.0170049 -0.0175104 -0.0179901 -0.0184439 -0.0188718 -0.0192609 -0.0195981 -0.0198834 -0.0201168 -0.0202984 -0.0204281 -0.0205059 -0.0205318 -0.0205059 -0.0204281 -0.0202984 -0.0201168 -0.0198834 -0.0195981 -0.0192609 -0.0188718 -0.0184439 -0.0179901 -0.0175104 -0.0170049 -0.0164734 -0.0159161 -0.0153329 -0.0147239 -0.0141011 -0.0134767 -0.0128506 -0.0122229 -0.0115937 -0.0109628 -0.0103302 -0.00969607 -0.00906686 -0.00844918 -0.00784303 -0.00724839 -0.00666528 -0.00609369 -0.00553363 -0.00498508 -0.00445493 -0.00395004 -0.00347041 -0.00301604 -0.00258694 -0.00218309 -0.0018045 -0.00145118 -0.00112765 -0.000838437 -0.000583548 -0.000362982 -0.000176738 -2.48155e-05 9.27844e-05 0.000176062 0.000234605 0.000278 0.000306247 0.000319346 0.000317297 0.000300101 0.000267757 0.000220264 0.00016864 0.000123899 8.60408e-05 5.50661e-05 3.09747e-05 1.37665e-05 3.44163e-06 0 0 3.6929e-06 1.47716e-05 3.32361e-05 5.90863e-05 9.23224e-05 0.000132944 0.000180952 0.000236345 0.000286126 0.000317297 0.000329858 0.000323808 0.000299147 0.000255877 0.000193996 0.000113505 3.97334e-06 -0.000145027 -0.000333497 -0.000561436 -0.000828845 -0.00113572 -0.00148207 -0.00186789 -0.00228721 -0.00273407 -0.00320847 -0.00371042 -0.0042399 -0.00479693 -0.0053815 -0.0059936 -0.00662566 -0.00727007 -0.00792684 -0.00859597 -0.00927746 -0.0099713 -0.0106775 -0.0113961 -0.0121204 -0.0128438 -0.0135663 -0.014288 -0.0150088 -0.0157287 -0.0164477 -0.0171659 -0.0178691 -0.0185434 -0.0191888 -0.0198052 -0.0203926 -0.0209511 -0.0214806 -0.0219812 -0.0224369 -0.0228319 -0.0231661 -0.0234395 -0.0236522 -0.0238041 -0.0238952 -0.0239256 -0.0238952 -0.0238041 -0.0236522 -0.0234395 -0.0231661 -0.0228319 -0.0224369 -0.0219812 -0.0214806 -0.0209511 -0.0203926 -0.0198052 -0.0191888 -0.0185434 -0.0178691 -0.0171659 -0.0164477 -0.0157287 -0.0150088 -0.014288 -0.0135663 -0.0128438 -0.0121204 -0.0113961 -0.0106775 -0.0099713 -0.00927746 -0.00859597 -0.00792684 -0.00727007 -0.00662566 -0.0059936 -0.0053815 -0.00479693 -0.0042399 -0.00371042 -0.00320847 -0.00273407 -0.00228721 -0.00186789 -0.00148207 -0.00113572 -0.000828844 -0.000561436 -0.000333497 -0.000145027 3.97345e-06 0.000113505 0.000193996 0.000255877 0.000299148 0.000323808 0.000329858 0.000317297 0.000286127 0.000236345 0.000180952 0.000132944 9.23224e-05 5.90863e-05 3.32361e-05 1.47716e-05 3.6929e-06 0 0 3.79539e-06 1.51816e-05 3.41585e-05 6.07262e-05 9.48847e-05 0.000136634 0.000185974 0.000242905 0.000292378 0.000319346 0.000323808 0.000305764 0.000265214 0.000202159 0.000116598 8.53114e-06 -0.000132964 -0.000318812 -0.000549012 -0.000823563 -0.00114247 -0.00150572 -0.00191333 -0.00236529 -0.00285389 -0.00337142 -0.00391788 -0.00449327 -0.00509759 -0.00573084 -0.00639302 -0.00708413 -0.00779605 -0.00852065 -0.00925795 -0.0100079 -0.0107706 -0.011546 -0.0123341 -0.0131348 -0.0139421 -0.0147497 -0.0155576 -0.0163659 -0.0171745 -0.0179835 -0.0187927 -0.0196024 -0.0203964 -0.021159 -0.0218902 -0.0225899 -0.0232581 -0.0238948 -0.0245001 -0.025074 -0.0255972 -0.0260506 -0.0264343 -0.0267483 -0.0269924 -0.0271668 -0.0272715 -0.0273064 -0.0272715 -0.0271668 -0.0269924 -0.0267483 -0.0264343 -0.0260506 -0.0255972 -0.025074 -0.0245001 -0.0238948 -0.0232581 -0.0225899 -0.0218902 -0.021159 -0.0203964 -0.0196024 -0.0187927 -0.0179835 -0.0171745 -0.0163659 -0.0155576 -0.0147497 -0.0139421 -0.0131348 -0.0123341 -0.011546 -0.0107706 -0.0100079 -0.00925795 -0.00852065 -0.00779605 -0.00708413 -0.00639302 -0.00573084 -0.00509759 -0.00449327 -0.00391788 -0.00337142 -0.00285389 -0.00236529 -0.00191333 -0.00150572 -0.00114247 -0.000823563 -0.000549011 -0.000318812 -0.000132964 8.53126e-06 0.000116598 0.000202159 0.000265214 0.000305764 0.000323808 0.000319346 0.000292378 0.000242905 0.000185974 0.000136634 9.48847e-05 6.07262e-05 3.41585e-05 1.51816e-05 3.79539e-06 0 0 3.74911e-06 1.49964e-05 3.3742e-05 5.99858e-05 9.37278e-05 0.000134968 0.000183706 0.000239943 0.000286512 0.000306247 0.000299147 0.000265214 0.000204447 0.000116846 2.41095e-06 -0.000138858 -0.000318029 -0.00054617 -0.000823281 -0.00114936 -0.00152441 -0.00194843 -0.00242143 -0.00294339 -0.00350455 -0.00409513 -0.00471515 -0.00536459 -0.00604347 -0.00675177 -0.00748949 -0.00825665 -0.00904478 -0.00984544 -0.0106586 -0.0114843 -0.0123225 -0.0131733 -0.0140365 -0.0149123 -0.0157954 -0.0166804 -0.0175675 -0.0184567 -0.0193478 -0.020241 -0.0211361 -0.0220333 -0.0229148 -0.023763 -0.0245777 -0.025359 -0.0261069 -0.0268214 -0.0275025 -0.0281501 -0.0287417 -0.0292544 -0.0296882 -0.0300431 -0.0303192 -0.0305164 -0.0306347 -0.0306741 -0.0306347 -0.0305164 -0.0303192 -0.0300431 -0.0296882 -0.0292544 -0.0287417 -0.0281501 -0.0275025 -0.0268214 -0.0261069 -0.025359 -0.0245777 -0.023763 -0.0229148 -0.0220333 -0.0211361 -0.020241 -0.0193478 -0.0184567 -0.0175675 -0.0166804 -0.0157954 -0.0149123 -0.0140365 -0.0131733 -0.0123225 -0.0114843 -0.0106586 -0.00984544 -0.00904478 -0.00825665 -0.00748949 -0.00675177 -0.00604347 -0.00536459 -0.00471515 -0.00409513 -0.00350455 -0.00294339 -0.00242143 -0.00194843 -0.00152441 -0.00114936 -0.000823281 -0.00054617 -0.000318029 -0.000138858 2.41106e-06 0.000116846 0.000204447 0.000265214 0.000299148 0.000306247 0.000286512 0.000239943 0.000183706 0.000134968 9.37278e-05 5.99858e-05 3.3742e-05 1.49964e-05 3.74911e-06 0 0 3.55406e-06 1.42162e-05 3.19865e-05 5.6865e-05 8.88515e-05 0.000127946 0.000174149 0.00022746 0.000268527 0.000278 0.000255877 0.000202159 0.000116846 -6.19799e-08 -0.000148565 -0.000328663 -0.000551221 -0.000827102 -0.00115631 -0.00153883 -0.00197469 -0.00246386 -0.00300636 -0.00360218 -0.00423918 -0.00490522 -0.00560029 -0.0063244 -0.00707754 -0.00785972 -0.00867093 -0.00951118 -0.0103719 -0.0112444 -0.0121288 -0.0130251 -0.0139332 -0.0148531 -0.0157849 -0.0167286 -0.0176802 -0.0186361 -0.0195961 -0.0205603 -0.0215287 -0.0225012 -0.0234779 -0.0244588 -0.0254244 -0.0263552 -0.0272512 -0.0281124 -0.0289389 -0.0297306 -0.0304876 -0.0312097 -0.0318705 -0.0324431 -0.0329276 -0.0333241 -0.0336324 -0.0338526 -0.0339848 -0.0340288 -0.0339848 -0.0338526 -0.0336324 -0.0333241 -0.0329276 -0.0324431 -0.0318705 -0.0312097 -0.0304876 -0.0297306 -0.0289389 -0.0281124 -0.0272512 -0.0263552 -0.0254244 -0.0244588 -0.0234779 -0.0225012 -0.0215287 -0.0205603 -0.0195961 -0.0186361 -0.0176802 -0.0167286 -0.0157849 -0.0148531 -0.0139332 -0.0130251 -0.0121288 -0.0112444 -0.0103719 -0.00951118 -0.00867093 -0.00785972 -0.00707754 -0.0063244 -0.00560029 -0.00490522 -0.00423918 -0.00360218 -0.00300636 -0.00246386 -0.00197469 -0.00153883 -0.00115631 -0.000827102 -0.000551221 -0.000328663 -0.000148565 -6.18778e-08 0.000116846 0.000202159 0.000255877 0.000278 0.000268527 0.00022746 0.000174149 0.000127946 8.88515e-05 5.6865e-05 3.19866e-05 1.42162e-05 3.55406e-06 0 0 3.21024e-06 1.2841e-05 2.88921e-05 5.13638e-05 8.0256e-05 0.000115569 0.000157302 0.000205455 0.000238425 0.000234605 0.000193996 0.000116598 2.41096e-06 -0.000148565 -0.00033633 -0.000560884 -0.000832539 -0.00116161 -0.00154809 -0.00199198 -0.00249328 -0.003052 -0.00366813 -0.00434167 -0.0050578 -0.00580167 -0.0065733 -0.00737268 -0.00819981 -0.00905469 -0.00993732 -0.0108477 -0.0117773 -0.0127176 -0.0136686 -0.0146302 -0.0156025 -0.0165855 -0.0175792 -0.0185836 -0.0195967 -0.0206166 -0.0216433 -0.0226768 -0.0237171 -0.0247642 -0.025818 -0.0268787 -0.027925 -0.0289357 -0.0299108 -0.0308503 -0.0317543 -0.0326227 -0.0334555 -0.0342527 -0.0349835 -0.0356168 -0.0361526 -0.0365911 -0.0369321 -0.0371757 -0.0373218 -0.0373705 -0.0373218 -0.0371757 -0.0369321 -0.0365911 -0.0361526 -0.0356168 -0.0349835 -0.0342527 -0.0334555 -0.0326227 -0.0317543 -0.0308503 -0.0299108 -0.0289357 -0.027925 -0.0268787 -0.025818 -0.0247642 -0.0237171 -0.0226768 -0.0216433 -0.0206166 -0.0195967 -0.0185836 -0.0175792 -0.0165855 -0.0156025 -0.0146302 -0.0136686 -0.0127176 -0.0117773 -0.0108477 -0.00993732 -0.00905469 -0.00819981 -0.00737268 -0.0065733 -0.00580167 -0.0050578 -0.00434167 -0.00366813 -0.003052 -0.00249328 -0.00199198 -0.00154809 -0.00116161 -0.000832539 -0.000560884 -0.00033633 -0.000148565 2.41104e-06 0.000116598 0.000193996 0.000234605 0.000238425 0.000205455 0.000157302 0.000115569 8.0256e-05 5.13638e-05 2.88921e-05 1.2841e-05 3.21024e-06 0 0 2.71764e-06 1.08706e-05 2.44588e-05 4.34823e-05 6.79411e-05 9.78352e-05 0.000133165 0.000173929 0.000196204 0.000176062 0.000113505 8.53116e-06 -0.000138858 -0.000328663 -0.000560884 -0.000835521 -0.00116198 -0.00154969 -0.00199862 -0.0025088 -0.00308021 -0.00371285 -0.00440674 -0.00516186 -0.00596039 -0.00678449 -0.00763417 -0.00850943 -0.00941027 -0.0103367 -0.0112887 -0.0122662 -0.0132611 -0.014265 -0.0152779 -0.0162997 -0.0173306 -0.0183705 -0.0194195 -0.0204774 -0.0215448 -0.022622 -0.0237091 -0.0248062 -0.0259131 -0.0270298 -0.0281565 -0.0292931 -0.0304167 -0.0315044 -0.0325564 -0.0335726 -0.0345529 -0.0354975 -0.0364062 -0.0372791 -0.0380807 -0.0387754 -0.0393632 -0.0398442 -0.0402183 -0.0404855 -0.0406458 -0.0406992 -0.0406458 -0.0404855 -0.0402183 -0.0398442 -0.0393632 -0.0387754 -0.0380807 -0.0372791 -0.0364062 -0.0354975 -0.0345529 -0.0335726 -0.0325564 -0.0315044 -0.0304167 -0.0292931 -0.0281565 -0.0270298 -0.0259131 -0.0248062 -0.0237091 -0.022622 -0.0215448 -0.0204774 -0.0194195 -0.0183705 -0.0173306 -0.0162997 -0.0152779 -0.014265 -0.0132611 -0.0122662 -0.0112887 -0.0103367 -0.00941027 -0.00850943 -0.00763417 -0.00678449 -0.00596039 -0.00516186 -0.00440674 -0.00371285 -0.00308021 -0.0025088 -0.00199862 -0.00154968 -0.00116198 -0.000835521 -0.000560884 -0.000328663 -0.000138858 8.53123e-06 0.000113505 0.000176062 0.000196204 0.000173929 0.000133165 9.78352e-05 6.79411e-05 4.34823e-05 2.44588e-05 1.08706e-05 2.71764e-06 0 0 1.96915e-06 7.87659e-06 1.77223e-05 3.15064e-05 4.92287e-05 7.08893e-05 9.64882e-05 0.000126025 0.000133468 9.27843e-05 3.97338e-06 -0.000132964 -0.000318029 -0.000551221 -0.000832539 -0.00116198 -0.0015472 -0.00199583 -0.00250786 -0.00308331 -0.00372217 -0.00442445 -0.00519013 -0.00601923 -0.00689041 -0.00778234 -0.00869502 -0.00962845 -0.0105826 -0.0115576 -0.0125532 -0.0135697 -0.0145994 -0.015635 -0.0166763 -0.0177236 -0.0187766 -0.0198355 -0.0209002 -0.0219707 -0.0230511 -0.0241455 -0.0252539 -0.0263762 -0.0275125 -0.0286628 -0.0298271 -0.0310053 -0.0321736 -0.0333082 -0.0344089 -0.035476 -0.0365092 -0.0375087 -0.0384744 -0.0394064 -0.0402643 -0.0410078 -0.0416369 -0.0421516 -0.042552 -0.0428379 -0.0430095 -0.0430667 -0.0430095 -0.0428379 -0.042552 -0.0421516 -0.0416369 -0.0410078 -0.0402643 -0.0394064 -0.0384744 -0.0375087 -0.0365092 -0.035476 -0.0344089 -0.0333082 -0.0321736 -0.0310053 -0.0298271 -0.0286628 -0.0275125 -0.0263762 -0.0252539 -0.0241455 -0.0230511 -0.0219707 -0.0209002 -0.0198355 -0.0187766 -0.0177236 -0.0166763 -0.015635 -0.0145994 -0.0135697 -0.0125532 -0.0115576 -0.0105826 -0.00962845 -0.00869502 -0.00778234 -0.00689041 -0.00601923 -0.00519013 -0.00442445 -0.00372217 -0.00308331 -0.00250786 -0.00199583 -0.0015472 -0.00116198 -0.000832539 -0.000551221 -0.000318029 -0.000132964 3.9734e-06 9.27843e-05 0.000133468 0.000126025 9.64882e-05 7.08893e-05 4.92287e-05 3.15064e-05 1.77223e-05 7.87659e-06 1.96915e-06 0 0 8.57616e-07 3.43046e-06 7.71854e-06 1.37219e-05 2.14404e-05 3.08742e-05 4.20232e-05 5.48874e-05 4.18226e-05 -2.48156e-05 -0.000145027 -0.000318812 -0.00054617 -0.000827102 -0.00116161 -0.00154968 -0.00199583 -0.00250452 -0.00307576 -0.00370956 -0.00440591 -0.00516481 -0.00598626 -0.00687027 -0.00779131 -0.00872386 -0.00966792 -0.0106235 -0.0115906 -0.0125692 -0.0135593 -0.0145609 -0.0155684 -0.016576 -0.0175837 -0.0185916 -0.0195995 -0.0206077 -0.0216159 -0.0226243 -0.0236425 -0.0246804 -0.0257378 -0.0268148 -0.0279114 -0.0290276 -0.0301633 -0.0313187 -0.0324699 -0.0335934 -0.0346892 -0.0357573 -0.0367975 -0.0378101 -0.0387949 -0.039752 -0.0406362 -0.0414025 -0.042051 -0.0425815 -0.0429942 -0.0432889 -0.0434658 -0.0435247 -0.0434658 -0.0432889 -0.0429942 -0.0425815 -0.042051 -0.0414025 -0.0406362 -0.039752 -0.0387949 -0.0378101 -0.0367975 -0.0357573 -0.0346892 -0.0335934 -0.0324699 -0.0313187 -0.0301633 -0.0290276 -0.0279114 -0.0268148 -0.0257378 -0.0246804 -0.0236425 -0.0226243 -0.0216159 -0.0206077 -0.0195995 -0.0185916 -0.0175837 -0.016576 -0.0155684 -0.0145609 -0.0135593 -0.0125692 -0.0115906 -0.0106235 -0.00966792 -0.00872386 -0.00779131 -0.00687027 -0.00598626 -0.00516481 -0.00440591 -0.00370956 -0.00307576 -0.00250452 -0.00199583 -0.00154968 -0.00116161 -0.000827102 -0.00054617 -0.000318812 -0.000145027 -2.48156e-05 4.18225e-05 5.48874e-05 4.20231e-05 3.08741e-05 2.14404e-05 1.37218e-05 7.71854e-06 3.43046e-06 8.57615e-07 0 0 -6.16949e-07 -2.4678e-06 -5.55254e-06 -9.87118e-06 -1.54237e-05 -2.22102e-05 -3.02305e-05 -3.94847e-05 -7.87335e-05 -0.000176738 -0.000333497 -0.000549011 -0.000823281 -0.00115631 -0.00154809 -0.00199862 -0.00250786 -0.00307576 -0.00370232 -0.00438754 -0.00513141 -0.00593394 -0.00679513 -0.00771498 -0.00866308 -0.00960905 -0.0105529 -0.0114946 -0.0124341 -0.0133716 -0.0143069 -0.01524 -0.016168 -0.017088 -0.0179999 -0.0189037 -0.0197994 -0.0206871 -0.0215667 -0.0224382 -0.023319 -0.0242266 -0.0251609 -0.0261219 -0.0271096 -0.0281241 -0.0291653 -0.0302332 -0.0313056 -0.0323603 -0.0333972 -0.0344164 -0.0354179 -0.0364016 -0.0373676 -0.0383158 -0.0391965 -0.0399598 -0.0406056 -0.041134 -0.0415449 -0.0418385 -0.0420146 -0.0420733 -0.0420146 -0.0418385 -0.0415449 -0.041134 -0.0406056 -0.0399598 -0.0391965 -0.0383158 -0.0373676 -0.0364016 -0.0354179 -0.0344164 -0.0333972 -0.0323603 -0.0313056 -0.0302332 -0.0291653 -0.0281241 -0.0271096 -0.0261219 -0.0251609 -0.0242266 -0.023319 -0.0224382 -0.0215667 -0.0206871 -0.0197994 -0.0189037 -0.0179999 -0.017088 -0.016168 -0.01524 -0.0143069 -0.0133716 -0.0124341 -0.0114946 -0.0105529 -0.00960905 -0.00866308 -0.00771498 -0.00679513 -0.00593394 -0.00513141 -0.00438754 -0.00370232 -0.00307576 -0.00250786 -0.00199862 -0.00154809 -0.00115631 -0.000823281 -0.000549012 -0.000333497 -0.000176738 -7.87337e-05 -3.94849e-05 -3.02306e-05 -2.22102e-05 -1.54238e-05 -9.87121e-06 -5.55256e-06 -2.4678e-06 -6.16951e-07 0 0 -2.45455e-06 -9.81819e-06 -2.20909e-05 -3.92728e-05 -6.13637e-05 -8.83637e-05 -0.000120273 -0.000157091 -0.0002282 -0.000362982 -0.000561436 -0.000823563 -0.00114936 -0.00153883 -0.00199198 -0.0025088 -0.00308331 -0.00370956 -0.00438754 -0.00511724 -0.00589868 -0.00673184 -0.00761673 -0.00855336 -0.00950574 -0.0104379 -0.0113499 -0.0122417 -0.0131133 -0.0139647 -0.0147959 -0.0156069 -0.0163984 -0.0171711 -0.017925 -0.01866 -0.0193763 -0.0200738 -0.0207525 -0.0214124 -0.0220806 -0.0227842 -0.0235231 -0.0242975 -0.0251073 -0.0259524 -0.026833 -0.0277489 -0.0286807 -0.0296087 -0.030533 -0.0314535 -0.0323703 -0.0332833 -0.0341925 -0.035098 -0.0359452 -0.0366794 -0.0373006 -0.0378089 -0.0382043 -0.0384866 -0.0386561 -0.0387125 -0.0386561 -0.0384866 -0.0382043 -0.0378089 -0.0373006 -0.0366794 -0.0359452 -0.035098 -0.0341925 -0.0332833 -0.0323703 -0.0314535 -0.030533 -0.0296087 -0.0286807 -0.0277489 -0.026833 -0.0259524 -0.0251073 -0.0242975 -0.0235231 -0.0227842 -0.0220806 -0.02