<?xml version="1.0"?> 
<VTKFile type="StructuredGrid" version="0.1"> 
<StructuredGrid WholeExtent="0 128 0 128 0 0"> 
<Piece Extent="0 128 0 128 0 0"> 
<PointData>
<DataArray type="Float32" Name="u" format="ascii" NumberOfComponents="1"> 
0 0 0 0 0 0 0 0 0 0 0 0 0 0 0 0 0 0 0 0 0 0 0 0 0 0 0 0 0 0 0 0 0 0 0 0 0 0 0 0 0 0 0 0 0 0 0 0 0 0 0 0 0 0 0 0 0 0 0 0 0 0 0 0 0 0 0 0 0 0 0 0 0 0 0 0 0 0 0 0 0 0 0 0 0 0 0 0 0 0 0 0 0 0 0 0 0 0 0 0 0 0 0 0 0 0 0 0 0 0 0 0 0 0 0 0 0 0 0 0 0 0 0 0 0 0 0 0 0 0 -6.28739e-08 -2.51496e-07 -5.65866e-07 -1.00598e-06 -1.57185e-06 -2.26346e-06 -3.08082e-06 -4.02393e-06 -5.12117e-06 -6.40093e-06 -7.8632e-06 -9.50799e-06 -1.13353e-05 -1.33451e-05 -1.55374e-05 -1.79123e-05 -2.03719e-05 -2.28186e-05 -2.52523e-05 -2.76731e-05 -3.00809e-05 -3.24758e-05 -3.48577e-05 -3.72267e-05 -3.95234e-05 -4.16886e-05 -4.37223e-05 -4.56244e-05 -4.7395e-05 -4.90342e-05 -5.05417e-05 -5.19178e-05 -5.31542e-05 -5.42428e-05 -5.51836e-05 -5.59766e-05 -5.66219e-05 -5.71193e-05 -5.7469e-05 -5.76708e-05 -5.77539e-05 -5.77474e-05 -5.76511e-05 -5.74653e-05 -5.71897e-05 -5.68245e-05 -5.63696e-05 -5.5825e-05 -5.52369e-05 -5.46513e-05 -5.40683e-05 -5.34878e-05 -5.29099e-05 -5.23346e-05 -5.17618e-05 -5.11916e-05 -5.06582e-05 -5.01959e-05 -4.98048e-05 -4.94847e-05 -4.92358e-05 -4.9058e-05 -4.89514e-05 -4.89158e-05 -4.89514e-05 -4.9058e-05 -4.92358e-05 -4.94847e-05 -4.98048e-05 -5.01959e-05 -5.06582e-05 -5.11916e-05 -5.17618e-05 -5.23346e-05 -5.29099e-05 -5.34878e-05 -5.40683e-05 -5.46513e-05 -5.52368e-05 -5.5825e-05 -5.63696e-05 -5.68245e-05 -5.71897e-05 -5.74653e-05 -5.76511e-05 -5.77474e-05 -5.77539e-05 -5.76708e-05 -5.74689e-05 -5.71193e-05 -5.66219e-05 -5.59766e-05 -5.51836e-05 -5.42428e-05 -5.31542e-05 -5.19178e-05 -5.05417e-05 -4.90342e-05 -4.7395e-05 -4.56244e-05 -4.37223e-05 -4.16886e-05 -3.95234e-05 -3.72267e-05 -3.48577e-05 -3.24758e-05 -3.00809e-05 -2.76731e-05 -2.52523e-05 -2.28186e-05 -2.03719e-05 -1.79123e-05 -1.55375e-05 -1.33451e-05 -1.13353e-05 -9.508e-06 -7.86321e-06 -6.40094e-06 -5.12118e-06 -4.02394e-06 -3.08083e-06 -2.26346e-06 -1.57185e-06 -1.00598e-06 -5.65866e-07 -2.51496e-07 -6.2874e-08 0 0 -2.51496e-07 -1.00598e-06 -2.26346e-06 -4.02393e-06 -6.28739e-06 -9.05385e-06 -1.23233e-05 -1.60957e-05 -2.04847e-05 -2.56037e-05 -3.14528e-05 -3.8032e-05 -4.53412e-05 -5.33804e-05 -6.21498e-05 -7.16492e-05 -8.14877e-05 -9.12744e-05 -0.000101009 -0.000110692 -0.000120324 -0.000129903 -0.000139431 -0.000148907 -0.000158094 -0.000166754 -0.000174889 -0.000182498 -0.00018958 -0.000196137 -0.000202167 -0.000207671 -0.000212617 -0.000216971 -0.000220734 -0.000223907 -0.000226487 -0.000228477 -0.000229876 -0.000230683 -0.000231016 -0.000230989 -0.000230605 -0.000229861 -0.000228759 -0.000227298 -0.000225478 -0.0002233 -0.000220947 -0.000218605 -0.000216273 -0.000213951 -0.00021164 -0.000209338 -0.000207047 -0.000204766 -0.000202633 -0.000200784 -0.000199219 -0.000197939 -0.000196943 -0.000196232 -0.000195805 -0.000195663 -0.000195805 -0.000196232 -0.000196943 -0.000197939 -0.000199219 -0.000200784 -0.000202633 -0.000204766 -0.000207047 -0.000209338 -0.00021164 -0.000213951 -0.000216273 -0.000218605 -0.000220947 -0.0002233 -0.000225478 -0.000227298 -0.000228759 -0.000229861 -0.000230605 -0.000230989 -0.000231016 -0.000230683 -0.000229876 -0.000228477 -0.000226487 -0.000223907 -0.000220734 -0.000216971 -0.000212617 -0.000207671 -0.000202167 -0.000196137 -0.00018958 -0.000182498 -0.000174889 -0.000166754 -0.000158094 -0.000148907 -0.000139431 -0.000129903 -0.000120324 -0.000110692 -0.000101009 -9.12744e-05 -8.14877e-05 -7.16492e-05 -6.21498e-05 -5.33805e-05 -4.53412e-05 -3.8032e-05 -3.14528e-05 -2.56037e-05 -2.04847e-05 -1.60957e-05 -1.23233e-05 -9.05386e-06 -6.2874e-06 -4.02394e-06 -2.26346e-06 -1.00598e-06 -2.51496e-07 0 0 -5.65866e-07 -2.26346e-06 -5.09279e-06 -9.05385e-06 -1.41466e-05 -2.03712e-05 -2.77274e-05 -3.62154e-05 -4.60906e-05 -5.76084e-05 -7.07688e-05 -8.55719e-05 -0.000102018 -0.000120106 -0.000139837 -0.000161211 -0.000183347 -0.000205367 -0.000227271 -0.000249058 -0.000270728 -0.000292282 -0.000313719 -0.00033504 -0.00035571 -0.000375197 -0.0003935 -0.00041062 -0.000426555 -0.000441307 -0.000454876 -0.00046726 -0.000478388 -0.000488185 -0.000496653 -0.00050379 -0.000509597 -0.000514074 -0.000517221 -0.000519037 -0.000519785 -0.000519726 -0.00051886 -0.000517187 -0.000514707 -0.00051142 -0.000507326 -0.000502425 -0.000497132 -0.000491862 -0.000486614 -0.00048139 -0.000476189 -0.000471011 -0.000465856 -0.000460724 -0.000455924 -0.000451763 -0.000448243 -0.000445363 -0.000443122 -0.000441522 -0.000440562 -0.000440242 -0.000440562 -0.000441522 -0.000443122 -0.000445363 -0.000448243 -0.000451763 -0.000455924 -0.000460724 -0.000465856 -0.000471011 -0.000476189 -0.00048139 -0.000486614 -0.000491861 -0.000497132 -0.000502425 -0.000507326 -0.00051142 -0.000514707 -0.000517187 -0.00051886 -0.000519726 -0.000519785 -0.000519037 -0.000517221 -0.000514074 -0.000509597 -0.00050379 -0.000496653 -0.000488185 -0.000478388 -0.00046726 -0.000454876 -0.000441307 -0.000426555 -0.00041062 -0.0003935 -0.000375197 -0.00035571 -0.00033504 -0.000313719 -0.000292282 -0.000270728 -0.000249058 -0.000227271 -0.000205367 -0.000183347 -0.000161211 -0.000139837 -0.000120106 -0.000102018 -8.5572e-05 -7.07689e-05 -5.76084e-05 -4.60906e-05 -3.62154e-05 -2.77274e-05 -2.03712e-05 -1.41467e-05 -9.05386e-06 -5.0928e-06 -2.26346e-06 -5.65866e-07 0 0 -1.00598e-06 -4.02393e-06 -9.05385e-06 -1.60957e-05 -2.51496e-05 -3.62154e-05 -4.92932e-05 -6.43829e-05 -8.19388e-05 -0.000102415 -0.000125811 -0.000152128 -0.000181365 -0.000213522 -0.000248599 -0.000286597 -0.000325951 -0.000365098 -0.000404037 -0.000442769 -0.000481295 -0.000519612 -0.000557723 -0.000595627 -0.000632374 -0.000667017 -0.000699556 -0.000729991 -0.000758321 -0.000784546 -0.000808668 -0.000830685 -0.000850467 -0.000867885 -0.000882938 -0.000895626 -0.00090595 -0.000913909 -0.000919503 -0.000922733 -0.000924063 -0.000923958 -0.000922418 -0.000919444 -0.000915035 -0.000909191 -0.000901913 -0.0008932 -0.00088379 -0.00087442 -0.000865092 -0.000855805 -0.000846559 -0.000837353 -0.000828189 -0.000819065 -0.000810531 -0.000803135 -0.000796876 -0.000791756 -0.000787773 -0.000784929 -0.000783222 -0.000782653 -0.000783222 -0.000784929 -0.000787773 -0.000791756 -0.000796876 -0.000803135 -0.000810531 -0.000819065 -0.000828189 -0.000837353 -0.000846559 -0.000855805 -0.000865092 -0.00087442 -0.00088379 -0.0008932 -0.000901913 -0.000909191 -0.000915035 -0.000919444 -0.000922418 -0.000923958 -0.000924063 -0.000922733 -0.000919503 -0.000913909 -0.00090595 -0.000895626 -0.000882938 -0.000867885 -0.000850467 -0.000830685 -0.000808668 -0.000784546 -0.000758321 -0.000729991 -0.000699556 -0.000667017 -0.000632374 -0.000595627 -0.000557723 -0.000519613 -0.000481295 -0.00044277 -0.000404037 -0.000365098 -0.000325951 -0.000286597 -0.000248599 -0.000213522 -0.000181365 -0.000152128 -0.000125811 -0.000102415 -8.19389e-05 -6.4383e-05 -4.92932e-05 -3.62154e-05 -2.51496e-05 -1.60957e-05 -9.05386e-06 -4.02394e-06 -1.00598e-06 0 0 -1.57185e-06 -6.28739e-06 -1.41466e-05 -2.51496e-05 -3.92962e-05 -5.65866e-05 -7.70206e-05 -0.000100598 -0.000128029 -0.000160023 -0.00019658 -0.0002377 -0.000283382 -0.000333628 -0.000388436 -0.000447807 -0.000509298 -0.000570465 -0.000631308 -0.000691827 -0.000752023 -0.000811895 -0.000871442 -0.000930666 -0.000988085 -0.00104221 -0.00109306 -0.00114061 -0.00118488 -0.00122585 -0.00126354 -0.00129794 -0.00132885 -0.00135607 -0.00137959 -0.00139942 -0.00141555 -0.00142798 -0.00143672 -0.00144177 -0.00144385 -0.00144368 -0.00144128 -0.00143663 -0.00142974 -0.00142061 -0.00140924 -0.00139562 -0.00138092 -0.00136628 -0.00135171 -0.0013372 -0.00132275 -0.00130836 -0.00129404 -0.00127979 -0.00126645 -0.0012549 -0.00124512 -0.00123712 -0.0012309 -0.00122645 -0.00122378 -0.0012229 -0.00122378 -0.00122645 -0.0012309 -0.00123712 -0.00124512 -0.0012549 -0.00126645 -0.00127979 -0.00129404 -0.00130836 -0.00132275 -0.0013372 -0.00135171 -0.00136628 -0.00138092 -0.00139562 -0.00140924 -0.00142061 -0.00142974 -0.00143663 -0.00144128 -0.00144368 -0.00144385 -0.00144177 -0.00143672 -0.00142798 -0.00141555 -0.00139942 -0.00137959 -0.00135607 -0.00132885 -0.00129794 -0.00126354 -0.00122585 -0.00118488 -0.00114061 -0.00109306 -0.00104221 -0.000988085 -0.000930667 -0.000871443 -0.000811895 -0.000752023 -0.000691828 -0.000631308 -0.000570465 -0.000509298 -0.000447807 -0.000388436 -0.000333628 -0.000283382 -0.0002377 -0.00019658 -0.000160023 -0.000128029 -0.000100598 -7.70207e-05 -5.65866e-05 -3.92963e-05 -2.51496e-05 -1.41467e-05 -6.2874e-06 -1.57185e-06 0 0 -2.26346e-06 -9.05385e-06 -2.03712e-05 -3.62154e-05 -5.65866e-05 -8.14846e-05 -0.00011091 -0.000144862 -0.000184362 -0.000230433 -0.000283075 -0.000342288 -0.00040807 -0.000480424 -0.000559348 -0.000644842 -0.000733389 -0.000821469 -0.000909084 -0.000996231 -0.00108291 -0.00116913 -0.00125488 -0.00134016 -0.00142284 -0.00150079 -0.001574 -0.00164248 -0.00170622 -0.00176523 -0.0018195 -0.00186904 -0.00191355 -0.00195274 -0.00198661 -0.00201516 -0.00203839 -0.0020563 -0.00206888 -0.00207615 -0.00207914 -0.00207891 -0.00207544 -0.00206875 -0.00205883 -0.00204568 -0.0020293 -0.0020097 -0.00198853 -0.00196745 -0.00194646 -0.00192556 -0.00190476 -0.00188404 -0.00186342 -0.0018429 -0.00182369 -0.00180705 -0.00179297 -0.00178145 -0.00177249 -0.00176609 -0.00176225 -0.00176097 -0.00176225 -0.00176609 -0.00177249 -0.00178145 -0.00179297 -0.00180705 -0.00182369 -0.0018429 -0.00186342 -0.00188404 -0.00190476 -0.00192556 -0.00194646 -0.00196745 -0.00198853 -0.0020097 -0.0020293 -0.00204568 -0.00205883 -0.00206875 -0.00207544 -0.00207891 -0.00207914 -0.00207615 -0.00206888 -0.0020563 -0.00203839 -0.00201516 -0.00198661 -0.00195274 -0.00191355 -0.00186904 -0.0018195 -0.00176523 -0.00170622 -0.00164248 -0.001574 -0.00150079 -0.00142284 -0.00134016 -0.00125488 -0.00116913 -0.00108291 -0.000996232 -0.000909084 -0.00082147 -0.000733389 -0.000644843 -0.000559348 -0.000480424 -0.000408071 -0.000342288 -0.000283076 -0.000230434 -0.000184362 -0.000144862 -0.00011091 -8.14847e-05 -5.65866e-05 -3.62154e-05 -2.03712e-05 -9.05386e-06 -2.26346e-06 0 0 -3.08082e-06 -1.23233e-05 -2.77274e-05 -4.92932e-05 -7.70206e-05 -0.00011091 -0.00015096 -0.000197173 -0.000250938 -0.000313646 -0.000385297 -0.000465891 -0.000555429 -0.00065391 -0.000761335 -0.000877702 -0.000998224 -0.00111811 -0.00123736 -0.00135598 -0.00147396 -0.00159131 -0.00170803 -0.00182411 -0.00193665 -0.00204274 -0.00214239 -0.0022356 -0.00232236 -0.00240267 -0.00247654 -0.00254397 -0.00260456 -0.0026579 -0.002704 -0.00274286 -0.00277447 -0.00279885 -0.00281598 -0.00282587 -0.00282994 -0.00282962 -0.00282491 -0.0028158 -0.00280229 -0.0027844 -0.00276211 -0.00273542 -0.00270661 -0.00267791 -0.00264935 -0.0026209 -0.00259259 -0.00256439 -0.00253633 -0.00250839 -0.00248225 -0.0024596 -0.00244043 -0.00242475 -0.00241256 -0.00240384 -0.00239862 -0.00239687 -0.00239862 -0.00240384 -0.00241256 -0.00242475 -0.00244043 -0.0024596 -0.00248225 -0.00250839 -0.00253633 -0.00256439 -0.00259259 -0.0026209 -0.00264934 -0.00267791 -0.00270661 -0.00273542 -0.00276211 -0.0027844 -0.00280229 -0.0028158 -0.00282491 -0.00282962 -0.00282994 -0.00282587 -0.00281598 -0.00279885 -0.00277447 -0.00274286 -0.002704 -0.0026579 -0.00260456 -0.00254397 -0.00247655 -0.00240267 -0.00232236 -0.0022356 -0.00214239 -0.00204274 -0.00193665 -0.00182411 -0.00170803 -0.00159131 -0.00147397 -0.00135598 -0.00123736 -0.00111811 -0.000998225 -0.000877703 -0.000761335 -0.000653911 -0.00055543 -0.000465892 -0.000385297 -0.000313646 -0.000250938 -0.000197173 -0.000150961 -0.00011091 -7.70207e-05 -4.92932e-05 -2.77274e-05 -1.23233e-05 -3.08083e-06 0 0 -4.02393e-06 -1.60957e-05 -3.62154e-05 -6.43829e-05 -0.000100598 -0.000144862 -0.000197173 -0.000257532 -0.000327755 -0.00040966 -0.000503245 -0.000608511 -0.000725459 -0.000854087 -0.000994396 -0.00114639 -0.0013038 -0.00146039 -0.00161615 -0.00177108 -0.00192518 -0.00207845 -0.00223089 -0.00238251 -0.0025295 -0.00266807 -0.00279822 -0.00291996 -0.00303328 -0.00313819 -0.00323467 -0.00332274 -0.00340187 -0.00347154 -0.00353175 -0.0035825 -0.0036238 -0.00365564 -0.00367801 -0.00369093 -0.00369625 -0.00369583 -0.00368967 -0.00367778 -0.00366014 -0.00363677 -0.00360765 -0.0035728 -0.00353516 -0.00349768 -0.00346037 -0.00342322 -0.00338623 -0.00334941 -0.00331275 -0.00327626 -0.00324212 -0.00321254 -0.00318751 -0.00316702 -0.00315109 -0.00313971 -0.00313289 -0.00313061 -0.00313289 -0.00313971 -0.00315109 -0.00316702 -0.00318751 -0.00321254 -0.00324212 -0.00327626 -0.00331275 -0.00334941 -0.00338623 -0.00342322 -0.00346037 -0.00349768 -0.00353516 -0.0035728 -0.00360765 -0.00363677 -0.00366014 -0.00367778 -0.00368967 -0.00369583 -0.00369625 -0.00369093 -0.00367801 -0.00365564 -0.0036238 -0.0035825 -0.00353175 -0.00347154 -0.00340187 -0.00332274 -0.00323467 -0.00313819 -0.00303328 -0.00291996 -0.00279822 -0.00266807 -0.0025295 -0.00238251 -0.00223089 -0.00207845 -0.00192518 -0.00177108 -0.00161615 -0.00146039 -0.0013038 -0.00114639 -0.000994397 -0.000854087 -0.000725459 -0.000608512 -0.000503245 -0.00040966 -0.000327755 -0.000257532 -0.000197173 -0.000144862 -0.000100598 -6.4383e-05 -3.62154e-05 -1.60957e-05 -4.02394e-06 0 0 -5.12117e-06 -2.04847e-05 -4.60906e-05 -8.19388e-05 -0.000128029 -0.000184362 -0.000250938 -0.000327755 -0.000417015 -0.000520915 -0.000639457 -0.00077264 -0.000920465 -0.00108293 -0.00126004 -0.00145179 -0.00165017 -0.00184718 -0.00204281 -0.00223707 -0.00242996 -0.00262147 -0.00281161 -0.00300038 -0.00318292 -0.00335441 -0.00351483 -0.00366419 -0.00380249 -0.00392973 -0.0040459 -0.00415102 -0.00424445 -0.00432558 -0.00439442 -0.00445095 -0.00449519 -0.00452713 -0.00454677 -0.00455412 -0.00455167 -0.00454195 -0.00452496 -0.00450068 -0.00446914 -0.00443031 -0.00438421 -0.00433084 -0.00427414 -0.00421807 -0.00416263 -0.00410781 -0.00405363 -0.00400008 -0.00394716 -0.00389486 -0.00384613 -0.0038039 -0.00376816 -0.00373892 -0.00371618 -0.00369994 -0.00369019 -0.00368694 -0.00369019 -0.00369994 -0.00371618 -0.00373892 -0.00376816 -0.0038039 -0.00384613 -0.00389486 -0.00394716 -0.00400008 -0.00405363 -0.00410781 -0.00416263 -0.00421807 -0.00427414 -0.00433084 -0.00438421 -0.00443031 -0.00446914 -0.00450068 -0.00452496 -0.00454195 -0.00455167 -0.00455412 -0.00454677 -0.00452713 -0.00449519 -0.00445095 -0.00439442 -0.00432558 -0.00424445 -0.00415102 -0.0040459 -0.00392973 -0.00380249 -0.00366419 -0.00351483 -0.00335441 -0.00318292 -0.00300038 -0.00281161 -0.00262147 -0.00242996 -0.00223707 -0.00204281 -0.00184718 -0.00165017 -0.00145179 -0.00126004 -0.00108293 -0.000920465 -0.000772641 -0.000639458 -0.000520916 -0.000417015 -0.000327755 -0.000250938 -0.000184362 -0.000128029 -8.19389e-05 -4.60906e-05 -2.04847e-05 -5.12118e-06 0 0 -6.40093e-06 -2.56037e-05 -5.76084e-05 -0.000102415 -0.000160023 -0.000230433 -0.000313646 -0.000409659 -0.000520915 -0.000649852 -0.000796471 -0.000960772 -0.00114275 -0.00134242 -0.00155976 -0.00179479 -0.00203736 -0.00227734 -0.00251472 -0.00274951 -0.00298171 -0.00321131 -0.00343832 -0.00366274 -0.00387846 -0.0040794 -0.00426555 -0.00443691 -0.00459348 -0.00473527 -0.00486227 -0.00497448 -0.00507126 -0.00515194 -0.00521654 -0.00526505 -0.00529747 -0.00531381 -0.00531405 -0.00529821 -0.00526981 -0.0052324 -0.00518597 -0.00513052 -0.00506605 -0.00499257 -0.00491007 -0.00481855 -0.00472349 -0.00463038 -0.00453921 -0.00444999 -0.00436271 -0.00427738 -0.00419398 -0.00411254 -0.00403709 -0.00397171 -0.00391638 -0.00387111 -0.0038359 -0.00381076 -0.00379567 -0.00379064 -0.00379567 -0.00381076 -0.0038359 -0.00387111 -0.00391638 -0.00397171 -0.00403709 -0.00411254 -0.00419398 -0.00427738 -0.00436271 -0.00444999 -0.00453921 -0.00463038 -0.00472349 -0.00481855 -0.00491007 -0.00499257 -0.00506605 -0.00513052 -0.00518597 -0.0052324 -0.00526981 -0.00529821 -0.00531405 -0.00531381 -0.00529747 -0.00526505 -0.00521654 -0.00515194 -0.00507126 -0.00497448 -0.00486227 -0.00473527 -0.00459348 -0.00443691 -0.00426555 -0.0040794 -0.00387846 -0.00366274 -0.00343832 -0.00321131 -0.00298171 -0.00274951 -0.00251472 -0.00227734 -0.00203736 -0.00179479 -0.00155976 -0.00134242 -0.00114275 -0.000960773 -0.000796472 -0.000649853 -0.000520916 -0.00040966 -0.000313646 -0.000230434 -0.000160023 -0.000102415 -5.76084e-05 -2.56037e-05 -6.40094e-06 0 0 -7.8632e-06 -3.14528e-05 -7.07688e-05 -0.000125811 -0.00019658 -0.000283075 -0.000385297 -0.000503245 -0.000639457 -0.000796471 -0.000974288 -0.00117291 -0.00139233 -0.00163255 -0.00189357 -0.0021754 -0.00246538 -0.00275088 -0.00303188 -0.0033084 -0.00358043 -0.00384797 -0.00411102 -0.00436958 -0.0046161 -0.00484303 -0.00505037 -0.00523811 -0.00540625 -0.00555481 -0.00568377 -0.00579314 -0.00588229 -0.00595062 -0.00599812 -0.00602479 -0.00603064 -0.00601565 -0.00597984 -0.0059232 -0.00585067 -0.00576717 -0.00567271 -0.00556728 -0.00545089 -0.00532353 -0.00518522 -0.00503593 -0.00488323 -0.00473462 -0.00459013 -0.00444975 -0.00431347 -0.0041813 -0.00405324 -0.00392929 -0.003815 -0.00371596 -0.00363216 -0.00356359 -0.00351026 -0.00347216 -0.00344931 -0.00344169 -0.00344931 -0.00347216 -0.00351026 -0.00356359 -0.00363216 -0.00371596 -0.003815 -0.00392928 -0.00405324 -0.0041813 -0.00431347 -0.00444975 -0.00459013 -0.00473462 -0.00488322 -0.00503593 -0.00518522 -0.00532353 -0.00545089 -0.00556728 -0.0056727 -0.00576717 -0.00585067 -0.0059232 -0.00597984 -0.00601565 -0.00603064 -0.00602479 -0.00599812 -0.00595062 -0.00588229 -0.00579314 -0.00568377 -0.00555481 -0.00540625 -0.00523811 -0.00505037 -0.00484303 -0.0046161 -0.00436958 -0.00411102 -0.00384797 -0.00358043 -0.0033084 -0.00303188 -0.00275088 -0.00246538 -0.0021754 -0.00189357 -0.00163255 -0.00139233 -0.00117291 -0.000974288 -0.000796472 -0.000639458 -0.000503245 -0.000385297 -0.000283076 -0.00019658 -0.000125811 -7.07689e-05 -3.14528e-05 -7.86321e-06 0 0 -9.50799e-06 -3.80319e-05 -8.55719e-05 -0.000152128 -0.0002377 -0.000342288 -0.000465891 -0.000608511 -0.00077264 -0.000960772 -0.00117291 -0.00140904 -0.00166918 -0.00195332 -0.00226147 -0.00259361 -0.00293423 -0.00326779 -0.00359429 -0.00391374 -0.00422612 -0.00453144 -0.00482971 -0.00512092 -0.00539585 -0.00564531 -0.00586929 -0.00606779 -0.0062408 -0.00638834 -0.0065104 -0.00660698 -0.00667755 -0.00672161 -0.00673916 -0.00673018 -0.00669469 -0.00663268 -0.00654415 -0.0064291 -0.00629424 -0.00614626 -0.00598517 -0.00581097 -0.00562365 -0.00542321 -0.00520966 -0.004983 -0.00475334 -0.0045308 -0.00431538 -0.00410708 -0.00390591 -0.00371185 -0.00352492 -0.00334511 -0.00317987 -0.00303667 -0.00291549 -0.00281635 -0.00273924 -0.00268416 -0.00265112 -0.0026401 -0.00265112 -0.00268416 -0.00273924 -0.00281635 -0.00291549 -0.00303667 -0.00317987 -0.00334511 -0.00352492 -0.00371185 -0.0039059 -0.00410708 -0.00431538 -0.0045308 -0.00475334 -0.004983 -0.00520966 -0.00542321 -0.00562364 -0.00581097 -0.00598517 -0.00614626 -0.00629424 -0.0064291 -0.00654415 -0.00663268 -0.00669469 -0.00673018 -0.00673916 -0.00672161 -0.00667755 -0.00660698 -0.0065104 -0.00638834 -0.0062408 -0.00606779 -0.00586929 -0.00564531 -0.00539585 -0.00512092 -0.00482971 -0.00453144 -0.00422612 -0.00391374 -0.00359429 -0.00326779 -0.00293423 -0.00259362 -0.00226147 -0.00195332 -0.00166918 -0.00140904 -0.00117291 -0.000960773 -0.000772641 -0.000608512 -0.000465892 -0.000342288 -0.0002377 -0.000152128 -8.5572e-05 -3.8032e-05 -9.508e-06 0 0 -1.13353e-05 -4.53412e-05 -0.000102018 -0.000181365 -0.000283382 -0.00040807 -0.000555429 -0.000725458 -0.000920465 -0.00114275 -0.00139233 -0.00166918 -0.00197332 -0.00230474 -0.00266345 -0.00304943 -0.00344391 -0.00382808 -0.00420195 -0.00456552 -0.00491878 -0.00526174 -0.00559439 -0.00591674 -0.00621771 -0.00648624 -0.00672232 -0.00692595 -0.00709713 -0.00723587 -0.00734216 -0.007416 -0.00745704 -0.00746493 -0.00743965 -0.00738122 -0.00728963 -0.00716488 -0.00700697 -0.00681591 -0.00660053 -0.00636968 -0.00612337 -0.00586158 -0.00558432 -0.0052916 -0.0049834 -0.00465973 -0.00433382 -0.0040189 -0.00371495 -0.003422 -0.00314002 -0.00286903 -0.00260902 -0.00236 -0.00213169 -0.00193382 -0.00176639 -0.00162941 -0.00152286 -0.00144676 -0.00140109 -0.00138587 -0.00140109 -0.00144676 -0.00152286 -0.00162941 -0.00176639 -0.00193382 -0.00213169 -0.00236 -0.00260902 -0.00286903 -0.00314002 -0.003422 -0.00371495 -0.0040189 -0.00433382 -0.00465973 -0.0049834 -0.0052916 -0.00558432 -0.00586158 -0.00612337 -0.00636968 -0.00660053 -0.00681591 -0.00700697 -0.00716488 -0.00728963 -0.00738122 -0.00743965 -0.00746493 -0.00745704 -0.007416 -0.00734216 -0.00723587 -0.00709713 -0.00692595 -0.00672232 -0.00648624 -0.00621771 -0.00591674 -0.00559439 -0.00526174 -0.00491878 -0.00456552 -0.00420195 -0.00382809 -0.00344391 -0.00304944 -0.00266345 -0.00230474 -0.00197332 -0.00166918 -0.00139233 -0.00114275 -0.000920466 -0.000725459 -0.00055543 -0.000408071 -0.000283383 -0.000181365 -0.000102018 -4.53412e-05 -1.13353e-05 0 0 -1.33451e-05 -5.33804e-05 -0.000120106 -0.000213522 -0.000333628 -0.000480424 -0.00065391 -0.000854087 -0.00108293 -0.00134242 -0.00163255 -0.00195332 -0.00230474 -0.0026868 -0.00309951 -0.00354286 -0.00399442 -0.00443175 -0.00485486 -0.00526375 -0.00565841 -0.00603885 -0.00640506 -0.00675705 -0.00708168 -0.00736581 -0.00760945 -0.00781259 -0.00797524 -0.00809739 -0.00817905 -0.00822022 -0.00822076 -0.00818055 -0.0080996 -0.0079779 -0.00781545 -0.00761225 -0.00736831 -0.00708362 -0.00676954 -0.00643743 -0.00608729 -0.00571912 -0.00533292 -0.00492869 -0.00450643 -0.00406614 -0.00362469 -0.00319893 -0.00278886 -0.00239449 -0.00201582 -0.00165284 -0.00130556 -0.000973967 -0.000670461 -0.000407422 -0.00018485 -2.74642e-06 0.00013889 0.000240059 0.00030076 0.000320994 0.00030076 0.000240059 0.00013889 -2.74629e-06 -0.00018485 -0.000407422 -0.000670461 -0.000973967 -0.00130556 -0.00165284 -0.00201582 -0.00239449 -0.00278886 -0.00319893 -0.00362469 -0.00406614 -0.00450643 -0.00492869 -0.00533292 -0.00571912 -0.00608729 -0.00643743 -0.00676954 -0.00708362 -0.00736831 -0.00761225 -0.00781545 -0.0079779 -0.0080996 -0.00818055 -0.00822076 -0.00822022 -0.00817905 -0.0080974 -0.00797524 -0.00781259 -0.00760945 -0.00736581 -0.00708168 -0.00675705 -0.00640506 -0.00603885 -0.00565841 -0.00526375 -0.00485486 -0.00443175 -0.00399442 -0.00354286 -0.00309951 -0.00268681 -0.00230474 -0.00195332 -0.00163255 -0.00134242 -0.00108293 -0.000854088 -0.000653911 -0.000480424 -0.000333628 -0.000213522 -0.000120106 -5.33805e-05 -1.33451e-05 0 0 -1.55374e-05 -6.21498e-05 -0.000139837 -0.000248599 -0.000388436 -0.000559348 -0.000761334 -0.000994396 -0.00126004 -0.00155976 -0.00189357 -0.00226147 -0.00266345 -0.00309951 -0.00356966 -0.00407389 -0.00458575 -0.0050788 -0.00555302 -0.00600843 -0.00644501 -0.00686278 -0.00726172 -0.00764185 -0.00798775 -0.00828403 -0.00853069 -0.00872772 -0.00887513 -0.00897292 -0.00902108 -0.00901962 -0.0089687 -0.0088685 -0.00871901 -0.00852023 -0.00827216 -0.00797481 -0.00762817 -0.00723224 -0.00680126 -0.0063495 -0.00587694 -0.00538359 -0.00486944 -0.0043345 -0.00377876 -0.00320223 -0.00262593 -0.00207089 -0.0015371 -0.00102457 -0.000533293 -6.3275e-05 0.000385487 0.000812992 0.00120381 0.00154253 0.00182913 0.00206362 0.00224601 0.00237628 0.00245445 0.0024805 0.00245445 0.00237628 0.00224601 0.00206362 0.00182913 0.00154253 0.00120382 0.000812993 0.000385487 -6.32746e-05 -0.000533293 -0.00102457 -0.0015371 -0.00207089 -0.00262593 -0.00320223 -0.00377876 -0.0043345 -0.00486944 -0.00538359 -0.00587694 -0.0063495 -0.00680126 -0.00723224 -0.00762816 -0.00797481 -0.00827216 -0.00852023 -0.00871901 -0.0088685 -0.0089687 -0.00901962 -0.00902108 -0.00897292 -0.00887513 -0.00872772 -0.00853069 -0.00828403 -0.00798775 -0.00764185 -0.00726172 -0.00686278 -0.00644501 -0.00600843 -0.00555302 -0.0050788 -0.00458575 -0.00407389 -0.00356966 -0.00309951 -0.00266345 -0.00226147 -0.00189357 -0.00155976 -0.00126004 -0.000994397 -0.000761335 -0.000559348 -0.000388436 -0.000248599 -0.000139837 -6.21498e-05 -1.55375e-05 0 0 -1.79123e-05 -7.16491e-05 -0.000161211 -0.000286597 -0.000447807 -0.000644842 -0.000877702 -0.00114639 -0.00145179 -0.00179479 -0.0021754 -0.00259361 -0.00304943 -0.00354286 -0.00407389 -0.00464252 -0.00521792 -0.00576922 -0.00629643 -0.00679955 -0.00727858 -0.00773352 -0.00816437 -0.00857113 -0.00893593 -0.0092409 -0.00948603 -0.00967133 -0.0097968 -0.00986243 -0.00986824 -0.00981421 -0.00970087 -0.00952876 -0.00929787 -0.0090082 -0.00865976 -0.00825253 -0.00778653 -0.00726176 -0.00669571 -0.0061059 -0.00549232 -0.00485498 -0.00419388 -0.00350901 -0.00280038 -0.00206799 -0.00133755 -0.000634774 4.03343e-05 0.000687776 0.00130755 0.00189966 0.0024641 0.00300088 0.00349114 0.00391603 0.00427555 0.00456971 0.00479849 0.00496191 0.00505997 0.00509265 0.00505997 0.00496191 0.00479849 0.00456971 0.00427555 0.00391603 0.00349114 0.00300088 0.0024641 0.00189966 0.00130755 0.000687777 4.03348e-05 -0.000634774 -0.00133755 -0.00206799 -0.00280038 -0.00350901 -0.00419388 -0.00485498 -0.00549232 -0.0061059 -0.00669571 -0.00726176 -0.00778653 -0.00825253 -0.00865976 -0.0090082 -0.00929787 -0.00952876 -0.00970087 -0.00981421 -0.00986824 -0.00986244 -0.0097968 -0.00967133 -0.00948603 -0.0092409 -0.00893593 -0.00857113 -0.00816437 -0.00773352 -0.00727858 -0.00679955 -0.00629643 -0.00576922 -0.00521792 -0.00464253 -0.00407389 -0.00354286 -0.00304944 -0.00259362 -0.0021754 -0.00179479 -0.00145179 -0.00114639 -0.000877703 -0.000644843 -0.000447808 -0.000286597 -0.000161211 -7.16492e-05 -1.79123e-05 0 0 -2.03719e-05 -8.14877e-05 -0.000183347 -0.000325951 -0.000509298 -0.000733389 -0.000998224 -0.0013038 -0.00165017 -0.00203736 -0.00246538 -0.00293423 -0.00344391 -0.00399442 -0.00458575 -0.00521792 -0.00585524 -0.00646206 -0.00703838 -0.00758419 -0.0080995 -0.00858431 -0.00903861 -0.00946241 -0.00983513 -0.0101362 -0.0103657 -0.0105235 -0.0106097 -0.0106242 -0.0105672 -0.0104384 -0.0102391 -0.00997025 -0.00963182 -0.00922383 -0.00874629 -0.00819919 -0.00758254 -0.00689632 -0.00616193 -0.00540074 -0.00461273 -0.00379792 -0.00295631 -0.00208789 -0.00119266 -0.000270634 0.000646986 0.00152898 0.00237535 0.00318609 0.0039612 0.00470069 0.00540456 0.00607279 0.00668256 0.00721103 0.0076582 0.00802406 0.00830862 0.00851188 0.00863383 0.00867448 0.00863383 0.00851188 0.00830862 0.00802406 0.0076582 0.00721103 0.00668256 0.00607279 0.00540456 0.00470069 0.00396121 0.00318609 0.00237535 0.00152898 0.000646987 -0.000270634 -0.00119266 -0.00208789 -0.00295631 -0.00379792 -0.00461273 -0.00540074 -0.00616193 -0.00689632 -0.00758254 -0.00819919 -0.00874629 -0.00922383 -0.00963182 -0.00997025 -0.0102391 -0.0104384 -0.0105672 -0.0106242 -0.0106097 -0.0105235 -0.0103657 -0.0101362 -0.00983514 -0.00946241 -0.00903861 -0.00858431 -0.00809951 -0.0075842 -0.00703838 -0.00646207 -0.00585524 -0.00521792 -0.00458575 -0.00399442 -0.00344391 -0.00293423 -0.00246538 -0.00203736 -0.00165017 -0.0013038 -0.000998225 -0.00073339 -0.000509298 -0.000325951 -0.000183347 -8.14877e-05 -2.03719e-05 0 0 -2.28186e-05 -9.12744e-05 -0.000205367 -0.000365097 -0.000570465 -0.000821469 -0.00111811 -0.00146039 -0.00184718 -0.00227734 -0.00275088 -0.00326779 -0.00382808 -0.00443175 -0.0050788 -0.00576922 -0.00646206 -0.00711638 -0.00773217 -0.00830942 -0.00884815 -0.00934836 -0.00981003 -0.0102332 -0.0105943 -0.0108698 -0.0110599 -0.0111643 -0.0111833 -0.0111166 -0.0109645 -0.0107268 -0.0104053 -0.0100019 -0.00951647 -0.00894912 -0.0082998 -0.00756852 -0.00675528 -0.00586008 -0.00490901 -0.00392814 -0.00291748 -0.00187704 -0.000806805 0.000293218 0.00142303 0.00258263 0.00373421 0.00483995 0.00589985 0.00691392 0.00788215 0.00880455 0.00968111 0.0105118 0.0112691 0.0119255 0.0124809 0.0129352 0.0132887 0.0135411 0.0136926 0.013743 0.0136926 0.0135411 0.0132887 0.0129352 0.0124809 0.0119255 0.0112691 0.0105118 0.00968111 0.00880455 0.00788215 0.00691392 0.00589985 0.00483995 0.00373421 0.00258263 0.00142303 0.000293219 -0.000806804 -0.00187704 -0.00291748 -0.00392814 -0.004909 -0.00586008 -0.00675528 -0.00756852 -0.0082998 -0.00894912 -0.00951647 -0.0100019 -0.0104053 -0.0107268 -0.0109645 -0.0111166 -0.0111833 -0.0111643 -0.0110599 -0.0108698 -0.0105943 -0.0102332 -0.00981003 -0.00934836 -0.00884816 -0.00830943 -0.00773217 -0.00711638 -0.00646207 -0.00576922 -0.0050788 -0.00443175 -0.00382809 -0.00326779 -0.00275088 -0.00227734 -0.00184718 -0.00146039 -0.00111811 -0.00082147 -0.000570465 -0.000365098 -0.000205368 -9.12744e-05 -2.28186e-05 0 0 -2.52523e-05 -0.000101009 -0.000227271 -0.000404037 -0.000631308 -0.000909083 -0.00123736 -0.00161615 -0.00204281 -0.00251472 -0.00303188 -0.00359429 -0.00420195 -0.00485486 -0.00555302 -0.00629643 -0.00703838 -0.00773217 -0.00837779 -0.00897524 -0.00952454 -0.0100257 -0.0104786 -0.0108834 -0.0112134 -0.0114417 -0.0115685 -0.0115938 -0.0115175 -0.0113396 -0.0110602 -0.0106792 -0.0101994 -0.0096236 -0.00895183 -0.00818406 -0.00732029 -0.00636054 -0.00530478 -0.00415303 -0.00293693 -0.00168811 -0.000406573 0.000907675 0.00225464 0.00363431 0.0050467 0.0064918 0.00792412 0.00929813 0.0106139 0.0118713 0.0130704 0.0142112 0.0152938 0.016318 0.0172509 0.0180594 0.0187435 0.0193033 0.0197386 0.0200496 0.0202361 0.0202983 0.0202361 0.0200496 0.0197386 0.0193033 0.0187435 0.0180594 0.0172509 0.016318 0.0152938 0.0142112 0.0130704 0.0118713 0.0106139 0.00929813 0.00792412 0.00649181 0.0050467 0.00363431 0.00225464 0.000907675 -0.000406572 -0.00168811 -0.00293692 -0.00415303 -0.00530478 -0.00636054 -0.0073203 -0.00818406 -0.00895183 -0.0096236 -0.0101994 -0.0106792 -0.0110602 -0.0113396 -0.0115175 -0.0115938 -0.0115685 -0.0114417 -0.0112134 -0.0108834 -0.0104786 -0.0100257 -0.00952454 -0.00897525 -0.00837779 -0.00773217 -0.00703838 -0.00629643 -0.00555302 -0.00485486 -0.00420196 -0.0035943 -0.00303188 -0.00251472 -0.00204281 -0.00161615 -0.00123736 -0.000909084 -0.000631308 -0.000404037 -0.000227271 -0.000101009 -2.52523e-05 0 0 -2.76731e-05 -0.000110692 -0.000249058 -0.000442769 -0.000691827 -0.000996231 -0.00135598 -0.001771