<?xml version="1.0"?> 
<VTKFile type="StructuredGrid" version="0.1"> 
<StructuredGrid WholeExtent="0 128 0 128 0 0"> 
<Piece Extent="0 128 0 128 0 0"> 
<PointData>
<DataArray type="Float32" Name="u" format="ascii" NumberOfComponents="1"> 
0 0 0 0 0 0 0 0 0 0 0 0 0 0 0 0 0 0 0 0 0 0 0 0 0 0 0 0 0 0 0 0 0 0 0 0 0 0 0 0 0 0 0 0 0 0 0 0 0 0 0 0 0 0 0 0 0 0 0 0 0 0 0 0 0 0 0 0 0 0 0 0 0 0 0 0 0 0 0 0 0 0 0 0 0 0 0 0 0 0 0 0 0 0 0 0 0 0 0 0 0 0 0 0 0 0 0 0 0 0 0 0 0 0 0 0 0 0 0 0 0 0 0 0 0 0 0 0 0 0 -6.02767e-09 -2.41107e-08 -5.4249e-08 -9.64427e-08 -1.50692e-07 -2.16996e-07 -2.95356e-07 -3.85771e-07 -5.80072e-07 -9.70091e-07 -1.55583e-06 -2.33728e-06 -3.31445e-06 -4.48734e-06 -5.85594e-06 -7.42026e-06 -9.206e-06 -1.12389e-05 -1.35189e-05 -1.6046e-05 -1.88202e-05 -2.18416e-05 -2.51101e-05 -2.86257e-05 -3.23474e-05 -3.62339e-05 -4.02853e-05 -4.45015e-05 -4.88826e-05 -5.34286e-05 -5.81395e-05 -6.30152e-05 -6.80205e-05 -7.31201e-05 -7.83138e-05 -8.36018e-05 -8.8984e-05 -9.44605e-05 -0.000100031 -0.000105696 -0.000111406 -0.00011711 -0.00012281 -0.000128505 -0.000134196 -0.000139881 -0.000145562 -0.000151237 -0.000156794 -0.000162116 -0.000167203 -0.000172057 -0.000176676 -0.000181062 -0.000185213 -0.00018913 -0.000192692 -0.000195779 -0.000198392 -0.000200529 -0.000202192 -0.000203379 -0.000204092 -0.000204329 -0.000204092 -0.000203379 -0.000202192 -0.000200529 -0.000198392 -0.000195779 -0.000192692 -0.00018913 -0.000185213 -0.000181062 -0.000176676 -0.000172057 -0.000167203 -0.000162116 -0.000156794 -0.000151237 -0.000145562 -0.000139881 -0.000134196 -0.000128505 -0.00012281 -0.00011711 -0.000111406 -0.000105696 -0.000100031 -9.44605e-05 -8.8984e-05 -8.36018e-05 -7.83138e-05 -7.31201e-05 -6.80205e-05 -6.30152e-05 -5.81395e-05 -5.34286e-05 -4.88826e-05 -4.45015e-05 -4.02853e-05 -3.62339e-05 -3.23474e-05 -2.86257e-05 -2.51101e-05 -2.18416e-05 -1.88202e-05 -1.6046e-05 -1.35189e-05 -1.12389e-05 -9.206e-06 -7.42026e-06 -5.85594e-06 -4.48733e-06 -3.31445e-06 -2.33728e-06 -1.55583e-06 -9.7009e-07 -5.80072e-07 -3.85771e-07 -2.95356e-07 -2.16996e-07 -1.50692e-07 -9.64427e-08 -5.4249e-08 -2.41107e-08 -6.02767e-09 0 0 -2.41107e-08 -9.64427e-08 -2.16996e-07 -3.85771e-07 -6.02767e-07 -8.67985e-07 -1.18142e-06 -1.54308e-06 -2.32029e-06 -3.88036e-06 -6.2233e-06 -9.34911e-06 -1.32578e-05 -1.79493e-05 -2.34238e-05 -2.9681e-05 -3.6824e-05 -4.49555e-05 -5.40755e-05 -6.4184e-05 -7.5281e-05 -8.73665e-05 -0.00010044 -0.000114503 -0.00012939 -0.000144936 -0.000161141 -0.000178006 -0.000195531 -0.000213715 -0.000232558 -0.000252061 -0.000272082 -0.00029248 -0.000313255 -0.000334407 -0.000355936 -0.000377842 -0.000400125 -0.000422784 -0.000445623 -0.000468442 -0.000491241 -0.000514022 -0.000536783 -0.000559524 -0.000582246 -0.000604949 -0.000627174 -0.000648462 -0.000668814 -0.000688228 -0.000706706 -0.000724247 -0.000740851 -0.000756519 -0.000770768 -0.000783118 -0.000793567 -0.000802117 -0.000808767 -0.000813516 -0.000816366 -0.000817316 -0.000816366 -0.000813516 -0.000808767 -0.000802117 -0.000793567 -0.000783118 -0.000770768 -0.000756519 -0.000740851 -0.000724247 -0.000706706 -0.000688228 -0.000668814 -0.000648462 -0.000627174 -0.000604949 -0.000582246 -0.000559524 -0.000536783 -0.000514022 -0.000491241 -0.000468442 -0.000445623 -0.000422784 -0.000400125 -0.000377842 -0.000355936 -0.000334407 -0.000313255 -0.00029248 -0.000272082 -0.000252061 -0.000232558 -0.000213715 -0.000195531 -0.000178006 -0.000161141 -0.000144936 -0.000129389 -0.000114503 -0.00010044 -8.73665e-05 -7.5281e-05 -6.4184e-05 -5.40755e-05 -4.49555e-05 -3.6824e-05 -2.9681e-05 -2.34238e-05 -1.79493e-05 -1.32578e-05 -9.34911e-06 -6.2233e-06 -3.88036e-06 -2.32029e-06 -1.54308e-06 -1.18142e-06 -8.67984e-07 -6.02767e-07 -3.85771e-07 -2.16996e-07 -9.64427e-08 -2.41107e-08 0 0 -5.4249e-08 -2.16996e-07 -4.88241e-07 -8.67985e-07 -1.35623e-06 -1.95297e-06 -2.6582e-06 -3.47194e-06 -5.22065e-06 -8.73082e-06 -1.40024e-05 -2.10355e-05 -2.983e-05 -4.0386e-05 -5.27035e-05 -6.67823e-05 -8.2854e-05 -0.00010115 -0.00012167 -0.000144414 -0.000169382 -0.000196575 -0.000225991 -0.000257632 -0.000291126 -0.000326105 -0.000362567 -0.000400514 -0.000439944 -0.000480858 -0.000523256 -0.000567137 -0.000612185 -0.000658081 -0.000704824 -0.000752416 -0.000800856 -0.000850144 -0.00090028 -0.000951265 -0.00100265 -0.00105399 -0.00110529 -0.00115655 -0.00120776 -0.00125893 -0.00131005 -0.00136114 -0.00141114 -0.00145904 -0.00150483 -0.00154851 -0.00159009 -0.00162956 -0.00166692 -0.00170217 -0.00173423 -0.00176202 -0.00178553 -0.00180476 -0.00181972 -0.00183041 -0.00183682 -0.00183896 -0.00183682 -0.00183041 -0.00181972 -0.00180476 -0.00178553 -0.00176202 -0.00173423 -0.00170217 -0.00166692 -0.00162956 -0.00159009 -0.00154851 -0.00150483 -0.00145904 -0.00141114 -0.00136114 -0.00131005 -0.00125893 -0.00120776 -0.00115655 -0.00110529 -0.00105399 -0.00100265 -0.000951265 -0.00090028 -0.000850144 -0.000800856 -0.000752416 -0.000704824 -0.000658081 -0.000612185 -0.000567137 -0.000523255 -0.000480858 -0.000439944 -0.000400514 -0.000362567 -0.000326105 -0.000291126 -0.000257632 -0.000225991 -0.000196575 -0.000169382 -0.000144414 -0.00012167 -0.00010115 -8.2854e-05 -6.67823e-05 -5.27034e-05 -4.0386e-05 -2.983e-05 -2.10355e-05 -1.40024e-05 -8.73081e-06 -5.22065e-06 -3.47194e-06 -2.6582e-06 -1.95296e-06 -1.35623e-06 -8.67984e-07 -4.88241e-07 -2.16996e-07 -5.4249e-08 0 0 -9.64427e-08 -3.85771e-07 -8.67985e-07 -1.54308e-06 -2.41107e-06 -3.47194e-06 -4.72569e-06 -6.17233e-06 -9.28116e-06 -1.55214e-05 -2.48932e-05 -3.73965e-05 -5.30312e-05 -7.17974e-05 -9.3695e-05 -0.000118724 -0.000147296 -0.000179822 -0.000216302 -0.000256736 -0.000301124 -0.000349466 -0.000401762 -0.000458012 -0.000517558 -0.000579742 -0.000644564 -0.000712024 -0.000782122 -0.000854858 -0.000930232 -0.00100824 -0.00108833 -0.00116992 -0.00125302 -0.00133763 -0.00142374 -0.00151137 -0.0016005 -0.00169114 -0.00178249 -0.00187377 -0.00196497 -0.00205609 -0.00214713 -0.0022381 -0.00232899 -0.0024198 -0.0025087 -0.00259385 -0.00267525 -0.00275291 -0.00282682 -0.00289699 -0.00296341 -0.00302608 -0.00308307 -0.00313247 -0.00317427 -0.00320847 -0.00323507 -0.00325407 -0.00326547 -0.00326926 -0.00326547 -0.00325407 -0.00323507 -0.00320847 -0.00317427 -0.00313247 -0.00308307 -0.00302608 -0.00296341 -0.00289699 -0.00282682 -0.00275291 -0.00267525 -0.00259385 -0.0025087 -0.0024198 -0.00232899 -0.0022381 -0.00214713 -0.00205609 -0.00196497 -0.00187377 -0.00178249 -0.00169114 -0.0016005 -0.00151137 -0.00142374 -0.00133763 -0.00125302 -0.00116992 -0.00108833 -0.00100824 -0.000930232 -0.000854858 -0.000782122 -0.000712024 -0.000644564 -0.000579742 -0.000517558 -0.000458012 -0.000401762 -0.000349466 -0.000301124 -0.000256736 -0.000216302 -0.000179822 -0.000147296 -0.000118724 -9.3695e-05 -7.17973e-05 -5.30312e-05 -3.73964e-05 -2.48932e-05 -1.55214e-05 -9.28115e-06 -6.17233e-06 -4.72569e-06 -3.47194e-06 -2.41107e-06 -1.54308e-06 -8.67984e-07 -3.85771e-07 -9.64427e-08 0 0 -1.50692e-07 -6.02767e-07 -1.35623e-06 -2.41107e-06 -3.76729e-06 -5.4249e-06 -7.3839e-06 -9.64427e-06 -1.45018e-05 -2.42523e-05 -3.88957e-05 -5.8432e-05 -8.28612e-05 -0.000112183 -0.000146398 -0.000185507 -0.00023015 -0.000280972 -0.000337972 -0.00040115 -0.000470506 -0.00054604 -0.000627753 -0.000715644 -0.000808684 -0.000905847 -0.00100713 -0.00111254 -0.00122207 -0.00133572 -0.00145349 -0.00157538 -0.00170051 -0.001828 -0.00195785 -0.00209005 -0.0022246 -0.00236151 -0.00250078 -0.0026424 -0.00278514 -0.00292776 -0.00307026 -0.00321264 -0.00335489 -0.00349703 -0.00363904 -0.00378093 -0.00391984 -0.00405289 -0.00418008 -0.00430143 -0.00441691 -0.00452654 -0.00463032 -0.00472824 -0.0048173 -0.00489449 -0.0049598 -0.00501323 -0.00505479 -0.00508448 -0.00510229 -0.00510823 -0.00510229 -0.00508448 -0.00505479 -0.00501323 -0.0049598 -0.00489449 -0.0048173 -0.00472824 -0.00463032 -0.00452654 -0.00441691 -0.00430143 -0.00418008 -0.00405289 -0.00391984 -0.00378093 -0.00363904 -0.00349703 -0.00335489 -0.00321264 -0.00307026 -0.00292776 -0.00278514 -0.0026424 -0.00250078 -0.00236151 -0.0022246 -0.00209005 -0.00195785 -0.001828 -0.00170051 -0.00157538 -0.00145349 -0.00133572 -0.00122207 -0.00111254 -0.00100713 -0.000905847 -0.000808684 -0.000715644 -0.000627753 -0.00054604 -0.000470506 -0.00040115 -0.000337972 -0.000280972 -0.00023015 -0.000185506 -0.000146398 -0.000112183 -8.28612e-05 -5.8432e-05 -3.88956e-05 -2.42523e-05 -1.45018e-05 -9.64427e-06 -7.38389e-06 -5.4249e-06 -3.76729e-06 -2.41107e-06 -1.35623e-06 -6.02767e-07 -1.50692e-07 0 0 -2.16996e-07 -8.67985e-07 -1.95297e-06 -3.47194e-06 -5.4249e-06 -7.81186e-06 -1.06328e-05 -1.38878e-05 -2.08826e-05 -3.49233e-05 -5.60097e-05 -8.4142e-05 -0.00011932 -0.000161544 -0.000210814 -0.000267129 -0.000331416 -0.000404599 -0.000486679 -0.000577656 -0.000677529 -0.000786298 -0.000903964 -0.00103053 -0.00116451 -0.00130442 -0.00145027 -0.00160205 -0.00175977 -0.00192343 -0.00209302 -0.00226855 -0.00244874 -0.00263232 -0.0028193 -0.00300967 -0.00320343 -0.00340058 -0.00360112 -0.00380506 -0.0040106 -0.00421597 -0.00442117 -0.00462619 -0.00483104 -0.00503572 -0.00524022 -0.00544454 -0.00564457 -0.00583616 -0.00601932 -0.00619405 -0.00636035 -0.00651822 -0.00666766 -0.00680867 -0.00693692 -0.00704806 -0.00714211 -0.00721905 -0.0072789 -0.00732165 -0.0073473 -0.00735585 -0.0073473 -0.00732165 -0.0072789 -0.00721905 -0.00714211 -0.00704806 -0.00693692 -0.00680867 -0.00666766 -0.00651822 -0.00636035 -0.00619405 -0.00601932 -0.00583616 -0.00564457 -0.00544454 -0.00524022 -0.00503572 -0.00483104 -0.00462619 -0.00442117 -0.00421597 -0.0040106 -0.00380506 -0.00360112 -0.00340058 -0.00320343 -0.00300967 -0.0028193 -0.00263232 -0.00244874 -0.00226855 -0.00209302 -0.00192343 -0.00175977 -0.00160205 -0.00145027 -0.00130442 -0.00116451 -0.00103053 -0.000903964 -0.000786298 -0.000677529 -0.000577656 -0.000486679 -0.000404599 -0.000331416 -0.000267129 -0.000210814 -0.000161544 -0.00011932 -8.4142e-05 -5.60097e-05 -3.49232e-05 -2.08826e-05 -1.38877e-05 -1.06328e-05 -7.81186e-06 -5.4249e-06 -3.47194e-06 -1.95296e-06 -8.67984e-07 -2.16996e-07 0 0 -2.95356e-07 -1.18142e-06 -2.6582e-06 -4.72569e-06 -7.3839e-06 -1.06328e-05 -1.44724e-05 -1.89028e-05 -2.84235e-05 -4.75344e-05 -7.62355e-05 -0.000114527 -0.000162408 -0.000219879 -0.000286941 -0.000363593 -0.000451094 -0.000550705 -0.000662425 -0.000786254 -0.000922192 -0.00107024 -0.0012304 -0.00140266 -0.00158502 -0.00177546 -0.00197398 -0.00218057 -0.00239525 -0.002618 -0.00284884 -0.00308775 -0.00333301 -0.00358288 -0.00383738 -0.00409649 -0.00436022 -0.00462856 -0.00490153 -0.00517911 -0.00545888 -0.00573841 -0.00601771 -0.00629677 -0.00657559 -0.00685417 -0.00713252 -0.00741063 -0.00768288 -0.00794366 -0.00819297 -0.00843079 -0.00865715 -0.00887203 -0.00907543 -0.00926736 -0.00944191 -0.00959319 -0.0097212 -0.00982593 -0.00990739 -0.00996558 -0.0100005 -0.0100121 -0.0100005 -0.00996558 -0.00990739 -0.00982593 -0.0097212 -0.00959319 -0.00944191 -0.00926736 -0.00907543 -0.00887203 -0.00865715 -0.00843079 -0.00819297 -0.00794366 -0.00768288 -0.00741063 -0.00713252 -0.00685417 -0.00657559 -0.00629677 -0.00601771 -0.00573841 -0.00545888 -0.00517911 -0.00490153 -0.00462856 -0.00436022 -0.00409649 -0.00383738 -0.00358288 -0.00333301 -0.00308775 -0.00284884 -0.002618 -0.00239525 -0.00218057 -0.00197398 -0.00177546 -0.00158502 -0.00140266 -0.0012304 -0.00107024 -0.000922192 -0.000786253 -0.000662424 -0.000550705 -0.000451094 -0.000363593 -0.000286941 -0.000219879 -0.000162408 -0.000114527 -7.62355e-05 -4.75344e-05 -2.84235e-05 -1.89028e-05 -1.44724e-05 -1.06328e-05 -7.38389e-06 -4.72569e-06 -2.6582e-06 -1.18142e-06 -2.95356e-07 0 0 -3.85771e-07 -1.54308e-06 -3.47194e-06 -6.17233e-06 -9.64427e-06 -1.38878e-05 -1.89028e-05 -2.46893e-05 -3.71246e-05 -6.20858e-05 -9.95729e-05 -0.000149586 -0.000212125 -0.000287189 -0.00037478 -0.000474897 -0.000589184 -0.000719288 -0.000865208 -0.00102694 -0.0012045 -0.00139786 -0.00160705 -0.00183205 -0.00207023 -0.00231897 -0.00257826 -0.0028481 -0.00312849 -0.00341943 -0.00372093 -0.00403298 -0.00435331 -0.00467968 -0.00501209 -0.00535052 -0.00569498 -0.00604547 -0.00640199 -0.00676455 -0.00712996 -0.00749507 -0.00785986 -0.00822435 -0.00858852 -0.00895239 -0.00931594 -0.00967919 -0.0100348 -0.0103754 -0.010701 -0.0110116 -0.0113073 -0.011588 -0.0118536 -0.0121043 -0.0123323 -0.0125299 -0.0126971 -0.0128339 -0.0129403 -0.0130163 -0.0130619 -0.0130771 -0.0130619 -0.0130163 -0.0129403 -0.0128339 -0.0126971 -0.0125299 -0.0123323 -0.0121043 -0.0118536 -0.011588 -0.0113073 -0.0110116 -0.010701 -0.0103754 -0.0100348 -0.00967919 -0.00931594 -0.00895239 -0.00858852 -0.00822435 -0.00785986 -0.00749507 -0.00712996 -0.00676455 -0.00640199 -0.00604547 -0.00569498 -0.00535052 -0.00501209 -0.00467968 -0.00435331 -0.00403298 -0.00372093 -0.00341943 -0.00312849 -0.0028481 -0.00257826 -0.00231897 -0.00207023 -0.00183205 -0.00160705 -0.00139786 -0.0012045 -0.00102694 -0.000865207 -0.000719288 -0.000589184 -0.000474897 -0.00037478 -0.000287189 -0.000212125 -0.000149586 -9.95728e-05 -6.20858e-05 -3.71246e-05 -2.46893e-05 -1.89028e-05 -1.38877e-05 -9.64427e-06 -6.17233e-06 -3.47194e-06 -1.54308e-06 -3.85771e-07 0 0 -5.80072e-07 -2.32029e-06 -5.22065e-06 -9.28115e-06 -1.45018e-05 -2.08826e-05 -2.84235e-05 -3.71246e-05 -5.42955e-05 -8.72457e-05 -0.000135975 -0.000200484 -0.000280772 -0.00037684 -0.000488687 -0.000616313 -0.000761568 -0.000926299 -0.00111051 -0.00131419 -0.00153736 -0.00177999 -0.00204211 -0.0023237 -0.00262138 -0.00293176 -0.00325483 -0.00359059 -0.00393905 -0.0043002 -0.00467404 -0.00506059 -0.0054571 -0.00586085 -0.00627185 -0.00669009 -0.00711558 -0.00754831 -0.00798828 -0.0084355 -0.00888621 -0.00933666 -0.00978684 -0.0102368 -0.0106864 -0.0111358 -0.0115849 -0.0120338 -0.0124733 -0.0128945 -0.0132972 -0.0136816 -0.0140475 -0.0143951 -0.0147243 -0.015035 -0.0153178 -0.0155628 -0.0157701 -0.0159398 -0.0160717 -0.016166 -0.0162225 -0.0162413 -0.0162225 -0.016166 -0.0160717 -0.0159398 -0.0157701 -0.0155628 -0.0153178 -0.015035 -0.0147243 -0.0143951 -0.0140475 -0.0136816 -0.0132972 -0.0128945 -0.0124733 -0.0120338 -0.0115849 -0.0111358 -0.0106864 -0.0102368 -0.00978684 -0.00933666 -0.00888621 -0.0084355 -0.00798828 -0.00754831 -0.00711558 -0.00669009 -0.00627185 -0.00586085 -0.0054571 -0.00506059 -0.00467404 -0.0043002 -0.00393905 -0.00359059 -0.00325483 -0.00293176 -0.00262138 -0.0023237 -0.00204211 -0.00177999 -0.00153736 -0.00131419 -0.00111051 -0.000926299 -0.000761568 -0.000616313 -0.000488687 -0.00037684 -0.000280772 -0.000200484 -0.000135975 -8.72456e-05 -5.42954e-05 -3.71246e-05 -2.84235e-05 -2.08826e-05 -1.45018e-05 -9.28115e-06 -5.22065e-06 -2.32029e-06 -5.80072e-07 0 0 -9.7009e-07 -3.88036e-06 -8.73081e-06 -1.55214e-05 -2.42523e-05 -3.49233e-05 -4.75344e-05 -6.20858e-05 -8.72456e-05 -0.000131682 -0.000195396 -0.000278386 -0.000380653 -0.000502197 -0.000643018 -0.000803115 -0.000984127 -0.00118769 -0.00141381 -0.00166247 -0.00193369 -0.00222746 -0.00254378 -0.00288265 -0.00323972 -0.00361064 -0.0039954 -0.00439402 -0.00480647 -0.00523278 -0.00567293 -0.00612693 -0.00659178 -0.00706451 -0.0075451 -0.00803356 -0.00852989 -0.00903409 -0.00954616 -0.0100661 -0.01059 -0.0111139 -0.0116378 -0.0121618 -0.0126858 -0.0132099 -0.013734 -0.0142581 -0.0147716 -0.0152641 -0.0157354 -0.0161856 -0.0166146 -0.0170226 -0.0174094 -0.0177751 -0.0181081 -0.0183966 -0.0186408 -0.0188405 -0.0189959 -0.0191069 -0.0191735 -0.0191957 -0.0191735 -0.0191069 -0.0189959 -0.0188405 -0.0186408 -0.0183966 -0.0181081 -0.0177751 -0.0174094 -0.0170226 -0.0166146 -0.0161856 -0.0157354 -0.0152641 -0.0147716 -0.0142581 -0.013734 -0.0132099 -0.0126858 -0.0121618 -0.0116378 -0.0111139 -0.01059 -0.0100661 -0.00954616 -0.00903409 -0.00852989 -0.00803356 -0.0075451 -0.00706451 -0.00659178 -0.00612693 -0.00567293 -0.00523278 -0.00480647 -0.00439402 -0.0039954 -0.00361064 -0.00323972 -0.00288265 -0.00254378 -0.00222746 -0.00193369 -0.00166247 -0.0014138 -0.00118769 -0.000984127 -0.000803115 -0.000643018 -0.000502197 -0.000380653 -0.000278386 -0.000195396 -0.000131682 -8.72456e-05 -6.20858e-05 -4.75344e-05 -3.49233e-05 -2.42523e-05 -1.55214e-05 -8.73081e-06 -3.88036e-06 -9.7009e-07 0 0 -1.55583e-06 -6.2233e-06 -1.40024e-05 -2.48932e-05 -3.88956e-05 -5.60097e-05 -7.62355e-05 -9.95728e-05 -0.000135975 -0.000195396 -0.000277835 -0.000383292 -0.000511767 -0.000663261 -0.000837773 -0.0010353 -0.00125686 -0.00150346 -0.0017751 -0.00207178 -0.00239349 -0.00274025 -0.00311205 -0.00350889 -0.00392525 -0.00435562 -0.00479999 -0.00525838 -0.00573077 -0.00621717 -0.00671759 -0.007232 -0.00775738 -0.00829066 -0.00883184 -0.00938093 -0.00993792 -0.0105028 -0.0110756 -0.0116563 -0.0122413 -0.0128268 -0.0134129 -0.0139995 -0.0145868 -0.0151746 -0.015763 -0.016352 -0.0169296 -0.0174841 -0.0180155 -0.0185236 -0.0190086 -0.0194704 -0.0199091 -0.0203245 -0.0207032 -0.0210313 -0.021309 -0.0215362 -0.0217129 -0.0218391 -0.0219148 -0.02194 -0.0219148 -0.0218391 -0.0217129 -0.0215362 -0.021309 -0.0210313 -0.0207032 -0.0203245 -0.0199091 -0.0194704 -0.0190086 -0.0185236 -0.0180155 -0.0174841 -0.0169296 -0.016352 -0.015763 -0.0151746 -0.0145868 -0.0139995 -0.0134129 -0.0128268 -0.0122413 -0.0116563 -0.0110756 -0.0105028 -0.00993792 -0.00938093 -0.00883184 -0.00829066 -0.00775738 -0.007232 -0.00671759 -0.00621717 -0.00573077 -0.00525838 -0.00479999 -0.00435562 -0.00392525 -0.00350889 -0.00311205 -0.00274025 -0.00239349 -0.00207178 -0.0017751 -0.00150346 -0.00125686 -0.0010353 -0.000837773 -0.000663261 -0.000511767 -0.000383292 -0.000277835 -0.000195396 -0.000135975 -9.95729e-05 -7.62355e-05 -5.60097e-05 -3.88957e-05 -2.48932e-05 -1.40024e-05 -6.2233e-06 -1.55583e-06 0 0 -2.33728e-06 -9.34911e-06 -2.10355e-05 -3.73964e-05 -5.84319e-05 -8.4142e-05 -0.000114527 -0.000149586 -0.000200484 -0.000278386 -0.000383292 -0.000515201 -0.000674114 -0.000860031 -0.00107295 -0.00131288 -0.00157977 -0.00187361 -0.00219439 -0.00254211 -0.00291677 -0.00331838 -0.00374692 -0.00420241 -0.00467796 -0.00516669 -0.00566859 -0.00618368 -0.00671194 -0.00725339 -0.00780801 -0.00837581 -0.00895388 -0.0095393 -0.0101321 -0.0107322 -0.0113397 -0.0119545 -0.0125767 -0.0132062 -0.0138401 -0.0144753 -0.0151119 -0.0157499 -0.0163893 -0.01703 -0.0176721 -0.0183155 -0.0189474 -0.0195547 -0.0201375 -0.0206957 -0.0212294 -0.0217386 -0.0222232 -0.0226833 -0.0231031 -0.0234669 -0.0237748 -0.0240267 -0.0242226 -0.0243625 -0.0244465 -0.0244745 -0.0244465 -0.0243625 -0.0242226 -0.0240267 -0.0237748 -0.0234669 -0.0231031 -0.0226833 -0.0222232 -0.0217386 -0.0212294 -0.0206957 -0.0201375 -0.0195547 -0.0189474 -0.0183155 -0.0176721 -0.01703 -0.0163893 -0.0157499 -0.0151119 -0.0144753 -0.0138401 -0.0132062 -0.0125767 -0.0119545 -0.0113397 -0.0107322 -0.0101321 -0.0095393 -0.00895388 -0.00837581 -0.00780801 -0.00725339 -0.00671194 -0.00618368 -0.00566859 -0.00516669 -0.00467796 -0.00420241 -0.00374692 -0.00331838 -0.00291677 -0.00254211 -0.00219439 -0.00187361 -0.00157977 -0.00131288 -0.00107295 -0.000860031 -0.000674114 -0.000515201 -0.000383292 -0.000278386 -0.000200484 -0.000149586 -0.000114527 -8.4142e-05 -5.8432e-05 -3.73965e-05 -2.10355e-05 -9.34912e-06 -2.33728e-06 0 0 -3.31445e-06 -1.32578e-05 -2.983e-05 -5.30312e-05 -8.28612e-05 -0.00011932 -0.000162408 -0.000212125 -0.000280772 -0.000380653 -0.000511767 -0.000674114 -0.000867694 -0.00109251 -0.00134855 -0.00163583 -0.00195286 -0.00229814 -0.00267168 -0.00307347 -0.00350353 -0.00396184 -0.0044484 -0.00496323 -0.00549786 -0.00604385 -0.0066012 -0.00716991 -0.00774998 -0.00834141 -0.0089442 -0.00955835 -0.0101813 -0.0108104 -0.0114458 -0.0120873 -0.0127351 -0.0133891 -0.0140493 -0.0147157 -0.0153864 -0.0160595 -0.016735 -0.0174129 -0.0180933 -0.018776 -0.0194612 -0.0201487 -0.0208248 -0.0214758 -0.0221014 -0.0227019 -0.0232771 -0.0238271 -0.0243518 -0.0248513 -0.0253078 -0.0257034 -0.0260381 -0.026312 -0.026525 -0.0266772 -0.0267685 -0.0267989 -0.0267685 -0.0266772 -0.026525 -0.026312 -0.0260381 -0.0257034 -0.0253078 -0.0248513 -0.0243518 -0.0238271 -0.0232771 -0.0227019 -0.0221014 -0.0214758 -0.0208248 -0.0201487 -0.0194612 -0.018776 -0.0180933 -0.0174129 -0.016735 -0.0160595 -0.0153864 -0.0147157 -0.0140493 -0.0133891 -0.0127351 -0.0120873 -0.0114458 -0.0108104 -0.0101813 -0.00955835 -0.0089442 -0.00834141 -0.00774998 -0.00716991 -0.0066012 -0.00604385 -0.00549786 -0.00496323 -0.0044484 -0.00396184 -0.00350353 -0.00307347 -0.00267168 -0.00229814 -0.00195286 -0.00163583 -0.00134855 -0.00109251 -0.000867694 -0.000674114 -0.000511767 -0.000380653 -0.000280772 -0.000212125 -0.000162408 -0.00011932 -8.28612e-05 -5.30312e-05 -2.983e-05 -1.32578e-05 -3.31445e-06 0 0 -4.48733e-06 -1.79493e-05 -4.0386e-05 -7.17973e-05 -0.000112183 -0.000161544 -0.000219879 -0.000287189 -0.00037684 -0.000502197 -0.000663261 -0.000860031 -0.00109251 -0.00136069 -0.00166458 -0.00200418 -0.00237612 -0.00277705 -0.00320696 -0.00366586 -0.00415375 -0.00467062 -0.00521648 -0.00579133 -0.00638494 -0.00698711 -0.00759782 -0.00821708 -0.00884489 -0.00948125 -0.0101262 -0.0107796 -0.0114396 -0.0121041 -0.012773 -0.0134464 -0.0141243 -0.0148066 -0.0154935 -0.0161848 -0.0168802 -0.0175793 -0.0182821 -0.0189886 -0.0196988 -0.0204127 -0.0211303 -0.0218515 -0.022562 -0.0232473 -0.0239073 -0.0245421 -0.0251516 -0.0257359 -0.0262949 -0.0268287 -0.0273173 -0.0277408 -0.0280991 -0.0283922 -0.0286202 -0.0287831 -0.0288808 -0.0289134 -0.0288808 -0.0287831 -0.0286202 -0.0283922 -0.0280991 -0.0277408 -0.0273173 -0.0268287 -0.0262949 -0.0257359 -0.0251516 -0.0245421 -0.0239073 -0.0232473 -0.022562 -0.0218515 -0.0211303 -0.0204127 -0.0196988 -0.0189886 -0.0182821 -0.0175793 -0.0168802 -0.0161848 -0.0154935 -0.0148066 -0.0141243 -0.0134464 -0.012773 -0.0121041 -0.0114396 -0.0107796 -0.0101262 -0.00948125 -0.00884489 -0.00821708 -0.00759782 -0.00698711 -0.00638494 -0.00579133 -0.00521648 -0.00467062 -0.00415375 -0.00366586 -0.00320696 -0.00277705 -0.00237612 -0.00200418 -0.00166458 -0.00136069 -0.00109251 -0.000860031 -0.000663261 -0.000502197 -0.00037684 -0.00028719 -0.000219879 -0.000161544 -0.000112183 -7.17974e-05 -4.0386e-05 -1.79493e-05 -4.48734e-06 0 0 -5.85594e-06 -2.34237e-05 -5.27034e-05 -9.3695e-05 -0.000146398 -0.000210814 -0.000286941 -0.00037478 -0.000488687 -0.000643018 -0.000837772 -0.00107295 -0.00134855 -0.00166458 -0.00202103 -0.0024179 -0.00284955 -0.00331033 -0.00380024 -0.00431928 -0.00486745 -0.00544474 -0.00605117 -0.00668672 -0.00733922 -0.00799646 -0.00865845 -0.00932519 -0.00999667 -0.0106729 -0.0113539 -0.0120396 -0.0127288 -0.0134202 -0.0141137 -0.0148093 -0.0155072 -0.0162071 -0.0169093 -0.0176136 -0.0183216 -0.0190348 -0.0197532 -0.0204769 -0.0212059 -0.02194 -0.0226794 -0.023424 -0.024159 -0.0248693 -0.0255551 -0.0262163 -0.026853 -0.027465 -0.0280525 -0.0286154 -0.0291317 -0.029579 -0.0299576 -0.0302673 -0.0305082 -0.0306803 -0.0307835 -0.0308179 -0.0307835 -0.0306803 -0.0305082 -0.0302673 -0.0299576 -0.029579 -0.0291317 -0.0286154 -0.0280525 -0.027465 -0.026853 -0.0262163 -0.0255551 -0.0248693 -0.024159 -0.023424 -0.0226794 -0.02194 -0.0212059 -0.0204769 -0.0197532 -0.0190348 -0.0183216 -0.0176136 -0.0169093 -0.0162071 -0.0155072 -0.0148093 -0.0141137 -0.0134202 -0.0127288 -0.0120396 -0.0113539 -0.0106729 -0.00999667 -0.00932519 -0.00865845 -0.00799646 -0.00733922 -0.00668672 -0.00605117 -0.00544474 -0.00486745 -0.00431928 -0.00380024 -0.00331033 -0.00284956 -0.0024179 -0.00202103 -0.00166458 -0.00134855 -0.00107295 -0.000837773 -0.000643018 -0.000488687 -0.00037478 -0.000286941 -0.000210814 -0.000146399 -9.36951e-05 -5.27035e-05 -2.34238e-05 -5.85594e-06 0 0 -7.42026e-06 -2.9681e-05 -6.67823e-05 -0.000118724 -0.000185506 -0.000267129 -0.000363593 -0.000474896 -0.000616313 -0.000803115 -0.0010353 -0.00131288 -0.00163583 -0.00200418 -0.0024179 -0.00287702 -0.00337317 -0.003898 -0.00445152 -0.00503373 -0.00564462 -0.0062842 -0.00695246 -0.00764941 -0.00836068 -0.0090719 -0.00978309 -0.0104942 -0.0112053 -0.0119164 -0.0126274 -0.0133384 -0.0140489 -0.0147588 -0.0154678 -0.0161762 -0.0168837 -0.0175906 -0.0182966 -0.019002 -0.0197104 -0.0204259 -0.0211484 -0.0218779 -0.0226144 -0.023358 -0.0241085 -0.0248661 -0.0256156 -0.0263418 -0.0270449 -0.0277246 -0.0283812 -0.0290145 -0.0296246 -0.0302115 -0.0307508 -0.0312182 -0.0316137 -0.0319373 -0.0321889 -0.0323687 -0.0324766 -0.0325125 -0.0324766 -0.0323687 -0.0321889 -0.0319373 -0.0316137 -0.0312182 -0.0307508 -0.0302115 -0.0296246 -0.0290145 -0.0283812 -0.0277246 -0.0270449 -0.0263418 -0.0256156 -0.0248661 -0.0241085 -0.023358 -0.0226144 -0.0218779 -0.0211484 -0.0204259 -0.0197104 -0.019002 -0.0182966 -0.0175906 -0.0168837 -0.0161762 -0.0154678 -0.0147588 -0.0140489 -0.0133384 -0.0126274 -0.0119164 -0.0112053 -0.0104942 -0.00978309 -0.0090719 -0.00836067 -0.00764941 -0.00695246 -0.0062842 -0.00564462 -0.00503373 -0.00445152 -0.003898 -0.00337317 -0.00287702 -0.0024179 -0.00200418 -0.00163583 -0.00131288 -0.0010353 -0.000803116 -0.000616314 -0.000474897 -0.000363593 -0.000267129 -0.000185507 -0.000118724 -6.67824e-05 -2.9681e-05 -7.42026e-06 0 0 -9.206e-06 -3.6824e-05 -8.2854e-05 -0.000147296 -0.00023015 -0.000331416 -0.000451094 -0.000589184 -0.000761568 -0.000984127 -0.00125686 -0.00157977 -0.00195286 -0.00237612 -0.00284955 -0.00337317 -0.00393514 -0.00452368 -0.00513877 -0.00578042 -0.00644863 -0.00714339 -0.00786471 -0.00861259 -0.00937018 -0.0101206 -0.010864 -0.0116001 -0.0123292 -0.0130511 -0.0137659 -0.0144736 -0.0151751 -0.0158716 -0.016563 -0.0172493 -0.0179306 -0.0186068 -0.019278 -0.019944 -0.0206122 -0.0212897 -0.0219766 -0.0226727 -0.0233781 -0.0240929 -0.0248169 -0.0255503 -0.0262784 -0.0269866 -0.0276751 -0.0283437 -0.0289924 -0.0296213 -0.0302304 -0.0308196 -0.0313628 -0.0318334 -0.0322317 -0.0325576 -0.032811 -0.0329921 -0.0331007 -0.0331369 -0.0331007 -0.0329921 -0.032811 -0.0325576 -0.0322317 -0.0318334 -0.0313628 -0.0308196 -0.0302304 -0.0296213 -0.0289924 -0.0283437 -0.0276751 -0.0269866 -0.0262784 -0.0255503 -0.0248169 -0.0240929 -0.0233781 -0.0226727 -0.0219765 -0.0212897 -0.0206122 -0.019944 -0.019278 -0.0186068 -0.0179306 -0.0172493 -0.016563 -0.0158716 -0.0151751 -0.0144736 -0.0137659 -0.0130511 -0.0123292 -0.0116001 -0.010864 -0.0101206 -0.00937018 -0.00861259 -0.00786471 -0.00714339 -0.00644863 -0.00578042 -0.00513877 -0.00452368 -0.00393515 -0.00337317 -0.00284956 -0.00237612 -0.00195286 -0.00157977 -0.00125686 -0.000984127 -0.000761568 -0.000589184 -0.000451094 -0.000331416 -0.00023015 -0.000147296 -8.28541e-05 -3.6824e-05 -9.20601e-06 0 0 -1.12389e-05 -4.49555e-05 -0.00010115 -0.000179822 -0.000280972 -0.000404599 -0.000550705 -0.000719288 -0.000926299 -0.00118769 -0.00150346 -0.00187361 -0.00229814 -0.00277705 -0.00331033 -0.003898 -0.00452368 -0.005171 -0.00583997 -0.00653059 -0.00724284 -0.00797675 -0.00873229 -0.00950948 -0.0102886 -0.0110498 -0.0117933 -0.0125189 -0.0132266 -0.0139166 -0.0145886 -0.0152429 -0.0158824 -0.0165103 -0.0171266 -0.0177313 -0.0183244 -0.0189058 -0.0194756 -0.0200338 -0.0205924 -0.0211633 -0.0217466 -0.0223423 -0.0229504 -0.0235709 -0.0242037 -0.0248489 -0.0254937 -0.0261256 -0.0267443 -0.0273501 -0.0279428 -0.0285224 -0.029089 -0.0296426 -0.0301555 -0.0306 -0.0309761 -0.0312838 -0.0315231 -0.0316941 -0.0317967 -0.0318309 -0.0317967 -0.0316941 -0.0315231 -0.0312838 -0.0309761 -0.0306 -0.0301555 -0.0296426 -0.029089 -0.0285224 -0.0279428 -0.0273501 -0.0267443 -0.0261256 -0.0254937 -0.0248489 -0.0242037 -0.0235709 -0.0229504 -0.0223423 -0.0217466 -0.0211633 -0.0205924 -0.0200338 -0.0194756 -0.0189058 -0.0183244 -0.0177313 -0.0171266 -0.0165103 -0.0158824 -0.0152429 -0.0145886 -0.0139166 -0.0132266 -0.0125189 -0.0117933 -0.0110498 -0.0102886 -0.00950948 -0.00873229 -0.00797675 -0.00724284 -0.00653059 -0.00583997 -0.005171 -0.00452368 -0.003898 -0.00331034 -0.00277705 -0.00229814 -0.00187361 -0.00150346 -0.00118769 -0.0009263 -0.000719288 -0.000550705 -0.0004046 -0.000280972 -0.000179822 -0.00010115 -4.49555e-05 -1.12389e-05 0 0 -1.35189e-05 -5.40754e-05 -0.00012167 -0.000216302 -0.000337972 -0.000486679 -0.000662424 -0.000865207 -0.00111051 -0.0014138 -0.0017751 -0.00219439 -0.00267168 -0.00320696 -0.00380024 -0.00445152 -0.00513877 -0.00583997 -0.00655512 -0.00728422 -0.00802726 -0.00878426 -0.0095552 -0.0103401 -0.0111159 -0.0118595 -0.012571 -0.0132504 -0.0138976 -0.0145127 -0.0150956 -0.0156464 -0.0161709 -0.016675 -0.0171587 -0.017622 -0.0180649 -0.0184874 -0.0188895 -0.0192713 -0.0196509 -0.0200467 -0.0204587 -0.0208869 -0.0213313 -0.021792 -0.0222688 -0.0227619 -0.0232616 -0.0237586 -0.0242526 -0.0247439 -0.0252323 -0.0257178 -0.0262006 -0.0266805 -0.027129 -0.0275178 -0.0278467 -0.0281159 -0.0283252 -0.0284748 -0.0285645 -0.0285944 -0.0285645 -0.0284748 -0.0283252 -0.0281159 -0.0278467 -0.0275178 -0.027129 -0.0266805 -0.0262006 -0.0257178 -0.0252323 -0.0247439 -0.0242526 -0.0237586 -0.0232616 -0.0227619 -0.0222688 -0.021792 -0.0213313 -0.0208869 -0.0204587 -0.0200467 -0.0196509 -0.0192712 -0.0188895 -0.0184874 -0.0180649 -0.017622 -0.0171587 -0.016675 -0.0161709 -0.0156464 -0.0150956 -0.0145127 -0.0138976 -0.0132504 -0.012571 -0.0118595 -0.0111159 -0.0103401 -0.0095552 -0.00878426 -0.00802726 -0.00728422 -0.00655512 -0.00583997 -0.00513877 -0.00445152 -0.00380024 -0.00320696 -0.00267168 -0.00219439 -0.0017751 -0.00141381 -0.00111051 -0.000865208 -0.000662425 -0.000486679 -0.000337972 -0.000216302 -0.00012167 -5.40755e-05 -1.35189e-05 0 0 -1.6046e-05 -6.41839e-05 -0.000144414 -0.000256736 -0.00040115 -0.000577655 -0.000786253 -0.00102694 -0.00131419 -0.00166247 -0.00207178 -0.00254211 -0.00307347 -0.00366586 -0.00431928 -0.00503373 -0.00578042 -0.00653058 -0.00728422 -0.00804132 -0.00880189 -0.00956593 -0.0103334 -0.0111044 -0.0118521 -0.0125497 -0.0131973 -0.0137947 -0.0143422 -0.0148395 -0.0152868 -0.0156841 -0.0160406 -0.0163656 -0.0166593 -0.0169216 -0.0171524 -0.0173518 -0.0175198 -0.0176564 -0.0177877 -0.0179398 -0.0181127 -0.0183064 -0.0185209 -0.0187563 -0.0190124 -0.0192894 -0.0195821 -0.0198856 -0.0202 -0.020525 -0.0208609 -0.0212075 -0.0215649 -0.0219331 -0.0222834 -0.0225869