<?xml version="1.0"?> 
<VTKFile type="StructuredGrid" version="0.1"> 
<StructuredGrid WholeExtent="0 128 0 128 0 0"> 
<Piece Extent="0 128 0 128 0 0"> 
<PointData>
<DataArray type="Float32" Name="u" format="ascii" NumberOfComponents="1"> 
0 0 0 0 0 0 0 0 0 0 0 0 0 0 0 0 0 0 0 0 0 0 0 0 0 0 0 0 0 0 0 0 0 0 0 0 0 0 0 0 0 0 0 0 0 0 0 0 0 0 0 0 0 0 0 0 0 0 0 0 0 0 0 0 0 0 0 0 0 0 0 0 0 0 0 0 0 0 0 0 0 0 0 0 0 0 0 0 0 0 0 0 0 0 0 0 0 0 0 0 0 0 0 0 0 0 0 0 0 0 0 0 0 0 0 0 0 0 0 0 0 0 0 0 0 0 0 0 0 0 -5.77633e-08 -2.31053e-07 -5.1987e-07 -9.24213e-07 -1.44408e-06 -2.07948e-06 -2.8304e-06 -3.69685e-06 -4.7178e-06 -5.93224e-06 -7.34017e-06 -8.94157e-06 -1.07365e-05 -1.27248e-05 -1.49067e-05 -1.7282e-05 -1.97718e-05 -2.22971e-05 -2.48578e-05 -2.74539e-05 -3.00855e-05 -3.27525e-05 -3.54549e-05 -3.81928e-05 -4.09198e-05 -4.35896e-05 -4.62021e-05 -4.87574e-05 -5.12554e-05 -5.36962e-05 -5.60797e-05 -5.8406e-05 -6.06695e-05 -6.28648e-05 -6.4992e-05 -6.70508e-05 -6.90415e-05 -7.09639e-05 -7.28182e-05 -7.46042e-05 -7.6327e-05 -7.79916e-05 -7.95981e-05 -8.11464e-05 -8.26366e-05 -8.40686e-05 -8.54424e-05 -8.67581e-05 -8.80102e-05 -8.91933e-05 -9.03073e-05 -9.13524e-05 -9.23284e-05 -9.32354e-05 -9.40733e-05 -9.48423e-05 -9.55308e-05 -9.61276e-05 -9.66325e-05 -9.70456e-05 -9.7367e-05 -9.75965e-05 -9.77342e-05 -9.77801e-05 -9.77342e-05 -9.75965e-05 -9.7367e-05 -9.70456e-05 -9.66325e-05 -9.61276e-05 -9.55308e-05 -9.48423e-05 -9.40733e-05 -9.32354e-05 -9.23284e-05 -9.13524e-05 -9.03073e-05 -8.91933e-05 -8.80102e-05 -8.67581e-05 -8.54424e-05 -8.40686e-05 -8.26366e-05 -8.11464e-05 -7.95981e-05 -7.79916e-05 -7.6327e-05 -7.46042e-05 -7.28182e-05 -7.09639e-05 -6.90415e-05 -6.70508e-05 -6.4992e-05 -6.28648e-05 -6.06695e-05 -5.8406e-05 -5.60797e-05 -5.36962e-05 -5.12554e-05 -4.87574e-05 -4.62021e-05 -4.35896e-05 -4.09198e-05 -3.81929e-05 -3.5455e-05 -3.27525e-05 -3.00855e-05 -2.74539e-05 -2.48578e-05 -2.22971e-05 -1.97718e-05 -1.7282e-05 -1.49067e-05 -1.27248e-05 -1.07365e-05 -8.94158e-06 -7.34017e-06 -5.93225e-06 -4.71781e-06 -3.69685e-06 -2.8304e-06 -2.07948e-06 -1.44408e-06 -9.24214e-07 -5.1987e-07 -2.31053e-07 -5.77633e-08 0 0 -2.31053e-07 -9.24213e-07 -2.07948e-06 -3.69685e-06 -5.77633e-06 -8.31791e-06 -1.13216e-05 -1.47874e-05 -1.88712e-05 -2.3729e-05 -2.93607e-05 -3.57663e-05 -4.29458e-05 -5.08993e-05 -5.96268e-05 -6.91281e-05 -7.90873e-05 -8.91883e-05 -9.94311e-05 -0.000109816 -0.000120342 -0.00013101 -0.00014182 -0.000152771 -0.000163679 -0.000174358 -0.000184808 -0.000195029 -0.000205022 -0.000214785 -0.000224319 -0.000233624 -0.000242678 -0.000251459 -0.000259968 -0.000268203 -0.000276166 -0.000283856 -0.000291273 -0.000298417 -0.000305308 -0.000311966 -0.000318392 -0.000324586 -0.000330546 -0.000336274 -0.00034177 -0.000347032 -0.000352041 -0.000356773 -0.000361229 -0.000365409 -0.000369313 -0.000372941 -0.000376293 -0.000379369 -0.000382123 -0.00038451 -0.00038653 -0.000388183 -0.000389468 -0.000390386 -0.000390937 -0.00039112 -0.000390937 -0.000390386 -0.000389468 -0.000388183 -0.00038653 -0.00038451 -0.000382123 -0.000379369 -0.000376293 -0.000372941 -0.000369313 -0.000365409 -0.000361229 -0.000356773 -0.000352041 -0.000347032 -0.00034177 -0.000336274 -0.000330546 -0.000324586 -0.000318392 -0.000311966 -0.000305308 -0.000298417 -0.000291273 -0.000283856 -0.000276166 -0.000268203 -0.000259968 -0.000251459 -0.000242678 -0.000233624 -0.000224319 -0.000214785 -0.000205022 -0.000195029 -0.000184808 -0.000174358 -0.000163679 -0.000152771 -0.00014182 -0.00013101 -0.000120342 -0.000109816 -9.94311e-05 -8.91884e-05 -7.90874e-05 -6.91282e-05 -5.96268e-05 -5.08994e-05 -4.29459e-05 -3.57663e-05 -2.93607e-05 -2.3729e-05 -1.88712e-05 -1.47874e-05 -1.13216e-05 -8.31792e-06 -5.77633e-06 -3.69685e-06 -2.07948e-06 -9.24214e-07 -2.31053e-07 0 0 -5.1987e-07 -2.07948e-06 -4.67883e-06 -8.31791e-06 -1.29967e-05 -1.87153e-05 -2.54736e-05 -3.32717e-05 -4.24602e-05 -5.33902e-05 -6.60615e-05 -8.04741e-05 -9.66281e-05 -0.000114524 -0.00013416 -0.000155538 -0.000177947 -0.000200674 -0.00022372 -0.000247085 -0.000270769 -0.000294772 -0.000319095 -0.000343736 -0.000368279 -0.000392306 -0.000415819 -0.000438816 -0.000461299 -0.000483265 -0.000504717 -0.000525654 -0.000546026 -0.000565784 -0.000584928 -0.000603458 -0.000621374 -0.000638675 -0.000655363 -0.000671437 -0.000686943 -0.000701925 -0.000716383 -0.000730318 -0.000743729 -0.000756617 -0.000768982 -0.000780823 -0.000792092 -0.000802739 -0.000812766 -0.000822171 -0.000830955 -0.000839118 -0.00084666 -0.000853581 -0.000859778 -0.000865148 -0.000869693 -0.000873411 -0.000876303 -0.000878368 -0.000879608 -0.000880021 -0.000879608 -0.000878368 -0.000876303 -0.000873411 -0.000869693 -0.000865148 -0.000859778 -0.000853581 -0.00084666 -0.000839118 -0.000830955 -0.000822171 -0.000812766 -0.000802739 -0.000792092 -0.000780823 -0.000768982 -0.000756617 -0.000743729 -0.000730318 -0.000716383 -0.000701925 -0.000686943 -0.000671437 -0.000655363 -0.000638675 -0.000621373 -0.000603458 -0.000584928 -0.000565784 -0.000546026 -0.000525654 -0.000504717 -0.000483265 -0.000461299 -0.000438816 -0.000415819 -0.000392306 -0.000368279 -0.000343736 -0.000319095 -0.000294772 -0.000270769 -0.000247085 -0.00022372 -0.000200674 -0.000177947 -0.000155538 -0.00013416 -0.000114524 -9.66282e-05 -8.04742e-05 -6.60615e-05 -5.33902e-05 -4.24603e-05 -3.32717e-05 -2.54736e-05 -1.87153e-05 -1.29968e-05 -8.31792e-06 -4.67883e-06 -2.07948e-06 -5.1987e-07 0 0 -9.24213e-07 -3.69685e-06 -8.31791e-06 -1.47874e-05 -2.31053e-05 -3.32717e-05 -4.52864e-05 -5.91496e-05 -7.54849e-05 -9.49159e-05 -0.000117443 -0.000143065 -0.000171783 -0.000203597 -0.000238507 -0.000276512 -0.000316349 -0.000356753 -0.000397724 -0.000439262 -0.000481368 -0.00052404 -0.000567279 -0.000611086 -0.000654718 -0.000697434 -0.000739234 -0.000780118 -0.000820086 -0.000859139 -0.000897275 -0.000934496 -0.000970712 -0.00100584 -0.00103987 -0.00107281 -0.00110466 -0.00113542 -0.00116509 -0.00119367 -0.00122123 -0.00124787 -0.00127357 -0.00129834 -0.00132219 -0.0013451 -0.00136708 -0.00138813 -0.00140816 -0.00142709 -0.00144492 -0.00146164 -0.00147725 -0.00149177 -0.00150517 -0.00151748 -0.00152849 -0.00153804 -0.00154612 -0.00155273 -0.00155787 -0.00156154 -0.00156375 -0.00156448 -0.00156375 -0.00156154 -0.00155787 -0.00155273 -0.00154612 -0.00153804 -0.00152849 -0.00151748 -0.00150517 -0.00149177 -0.00147725 -0.00146164 -0.00144492 -0.00142709 -0.00140816 -0.00138813 -0.00136708 -0.0013451 -0.00132219 -0.00129834 -0.00127357 -0.00124787 -0.00122123 -0.00119367 -0.00116509 -0.00113542 -0.00110466 -0.00107281 -0.00103987 -0.00100584 -0.000970712 -0.000934496 -0.000897275 -0.000859139 -0.000820086 -0.000780118 -0.000739234 -0.000697434 -0.000654718 -0.000611086 -0.000567279 -0.00052404 -0.000481368 -0.000439263 -0.000397724 -0.000356753 -0.000316349 -0.000276513 -0.000238507 -0.000203597 -0.000171783 -0.000143065 -0.000117443 -9.4916e-05 -7.5485e-05 -5.91497e-05 -4.52865e-05 -3.32717e-05 -2.31053e-05 -1.47874e-05 -8.31792e-06 -3.69685e-06 -9.24214e-07 0 0 -1.44408e-06 -5.77633e-06 -1.29967e-05 -2.31053e-05 -3.61021e-05 -5.1987e-05 -7.076e-05 -9.24213e-05 -0.000117945 -0.000148306 -0.000183504 -0.000223539 -0.000268412 -0.000318121 -0.000372667 -0.000432051 -0.000494296 -0.000557427 -0.000621444 -0.000686348 -0.000752137 -0.000818812 -0.000886374 -0.000954821 -0.001023 -0.00108974 -0.00115505 -0.00121893 -0.00128138 -0.0013424 -0.00140199 -0.00146015 -0.00151674 -0.00157162 -0.0016248 -0.00167627 -0.00172604 -0.0017741 -0.00182045 -0.0018651 -0.00190817 -0.00194979 -0.00198995 -0.00202866 -0.00206591 -0.00210171 -0.00213606 -0.00216895 -0.00220026 -0.00222983 -0.00225768 -0.00228381 -0.00230821 -0.00233088 -0.00235183 -0.00237106 -0.00238827 -0.00240319 -0.00241581 -0.00242614 -0.00243417 -0.00243991 -0.00244335 -0.0024445 -0.00244335 -0.00243991 -0.00243417 -0.00242614 -0.00241581 -0.00240319 -0.00238827 -0.00237106 -0.00235183 -0.00233088 -0.00230821 -0.00228381 -0.00225768 -0.00222983 -0.00220025 -0.00216895 -0.00213606 -0.00210171 -0.00206591 -0.00202866 -0.00198995 -0.00194979 -0.00190817 -0.0018651 -0.00182045 -0.0017741 -0.00172604 -0.00167627 -0.0016248 -0.00157162 -0.00151674 -0.00146015 -0.00140199 -0.0013424 -0.00128138 -0.00121893 -0.00115505 -0.00108974 -0.001023 -0.000954821 -0.000886374 -0.000818812 -0.000752137 -0.000686348 -0.000621444 -0.000557427 -0.000494296 -0.000432051 -0.000372667 -0.000318121 -0.000268412 -0.000223539 -0.000183504 -0.000148306 -0.000117945 -9.24214e-05 -7.07601e-05 -5.1987e-05 -3.61021e-05 -2.31053e-05 -1.29968e-05 -5.77633e-06 -1.44408e-06 0 0 -2.07948e-06 -8.31791e-06 -1.87153e-05 -3.32717e-05 -5.1987e-05 -7.48612e-05 -0.000101894 -0.000133087 -0.000169841 -0.000213561 -0.000264246 -0.000321897 -0.000386513 -0.000458094 -0.000536641 -0.000622153 -0.000711786 -0.000802695 -0.00089488 -0.00098834 -0.00108308 -0.00117909 -0.00127638 -0.00137494 -0.00147311 -0.00156923 -0.00166328 -0.00175527 -0.00184519 -0.00193306 -0.00201887 -0.00210261 -0.0021841 -0.00226313 -0.00233971 -0.00241383 -0.00248549 -0.0025547 -0.00262145 -0.00268575 -0.00274777 -0.0028077 -0.00286553 -0.00292127 -0.00297492 -0.00302647 -0.00307593 -0.00312329 -0.00316837 -0.00321096 -0.00325106 -0.00328868 -0.00332382 -0.00335647 -0.00338664 -0.00341432 -0.00343911 -0.00346059 -0.00347877 -0.00349364 -0.00350521 -0.00351347 -0.00351843 -0.00352008 -0.00351843 -0.00351347 -0.00350521 -0.00349364 -0.00347877 -0.00346059 -0.00343911 -0.00341432 -0.00338664 -0.00335647 -0.00332382 -0.00328868 -0.00325106 -0.00321096 -0.00316837 -0.00312329 -0.00307593 -0.00302647 -0.00297492 -0.00292127 -0.00286553 -0.0028077 -0.00274777 -0.00268575 -0.00262145 -0.0025547 -0.00248549 -0.00241383 -0.00233971 -0.00226313 -0.0021841 -0.00210261 -0.00201887 -0.00193306 -0.00184519 -0.00175527 -0.00166328 -0.00156923 -0.00147311 -0.00137494 -0.00127638 -0.00117909 -0.00108308 -0.000988341 -0.00089488 -0.000802695 -0.000711786 -0.000622153 -0.000536641 -0.000458094 -0.000386513 -0.000321897 -0.000264246 -0.000213561 -0.000169841 -0.000133087 -0.000101895 -7.48613e-05 -5.1987e-05 -3.32717e-05 -1.87153e-05 -8.31792e-06 -2.07948e-06 0 0 -2.8304e-06 -1.13216e-05 -2.54736e-05 -4.52864e-05 -7.076e-05 -0.000101894 -0.00013869 -0.000181146 -0.000231172 -0.00029068 -0.000359668 -0.000438137 -0.000526087 -0.000623517 -0.000730428 -0.00084682 -0.00096882 -0.00109256 -0.00121803 -0.00134524 -0.00147419 -0.00160487 -0.00173729 -0.00187145 -0.00200507 -0.00213589 -0.0022639 -0.00238911 -0.00251151 -0.00263111 -0.0027479 -0.00286189 -0.00297281 -0.00308038 -0.00318461 -0.00328549 -0.00338303 -0.00347723 -0.00356809 -0.0036556 -0.00374002 -0.00382159 -0.00390031 -0.00397617 -0.00404919 -0.00411936 -0.00418668 -0.00425115 -0.0043125 -0.00437047 -0.00442506 -0.00447627 -0.00452409 -0.00456853 -0.00460959 -0.00464727 -0.00468101 -0.00471025 -0.00473499 -0.00475524 -0.00477098 -0.00478223 -0.00478897 -0.00479122 -0.00478897 -0.00478223 -0.00477098 -0.00475524 -0.00473499 -0.00471025 -0.00468101 -0.00464727 -0.00460959 -0.00456853 -0.00452409 -0.00447627 -0.00442506 -0.00437047 -0.0043125 -0.00425115 -0.00418668 -0.00411936 -0.00404919 -0.00397617 -0.00390031 -0.00382159 -0.00374002 -0.0036556 -0.00356809 -0.00347723 -0.00338303 -0.00328549 -0.00318461 -0.00308038 -0.00297281 -0.00286189 -0.0027479 -0.00263111 -0.00251151 -0.00238911 -0.0022639 -0.00213589 -0.00200507 -0.00187145 -0.00173729 -0.00160487 -0.00147419 -0.00134524 -0.00121803 -0.00109256 -0.00096882 -0.00084682 -0.000730428 -0.000623517 -0.000526087 -0.000438137 -0.000359668 -0.00029068 -0.000231173 -0.000181146 -0.00013869 -0.000101895 -7.07601e-05 -4.52865e-05 -2.54736e-05 -1.13216e-05 -2.8304e-06 0 0 -3.69685e-06 -1.47874e-05 -3.32717e-05 -5.91496e-05 -9.24213e-05 -0.000133087 -0.000181146 -0.000236598 -0.00030194 -0.000379664 -0.000469771 -0.000572261 -0.000687133 -0.000814389 -0.000954028 -0.00110605 -0.0012654 -0.00142701 -0.0015909 -0.00175705 -0.00192547 -0.00209616 -0.00226912 -0.00244434 -0.00261887 -0.00278973 -0.00295693 -0.00312047 -0.00328034 -0.00343655 -0.0035891 -0.00373798 -0.00388285 -0.00402335 -0.00415949 -0.00429125 -0.00441866 -0.00454169 -0.00466036 -0.00477467 -0.00488493 -0.00499146 -0.00509428 -0.00519337 -0.00528874 -0.00538039 -0.00546832 -0.00555252 -0.00563265 -0.00570837 -0.00577967 -0.00584655 -0.00590902 -0.00596706 -0.00602069 -0.00606991 -0.00611397 -0.00615216 -0.00618448 -0.00621092 -0.00623148 -0.00624617 -0.00625499 -0.00625792 -0.00625499 -0.00624617 -0.00623148 -0.00621092 -0.00618448 -0.00615216 -0.00611397 -0.00606991 -0.00602069 -0.00596706 -0.00590902 -0.00584655 -0.00577967 -0.00570837 -0.00563265 -0.00555252 -0.00546832 -0.00538039 -0.00528874 -0.00519337 -0.00509428 -0.00499146 -0.00488493 -0.00477467 -0.00466036 -0.00454169 -0.00441866 -0.00429125 -0.00415948 -0.00402335 -0.00388285 -0.00373798 -0.0035891 -0.00343655 -0.00328034 -0.00312047 -0.00295694 -0.00278973 -0.00261887 -0.00244434 -0.00226912 -0.00209616 -0.00192547 -0.00175705 -0.0015909 -0.00142701 -0.0012654 -0.00110605 -0.000954029 -0.00081439 -0.000687134 -0.000572261 -0.000469771 -0.000379664 -0.00030194 -0.000236599 -0.000181146 -0.000133087 -9.24214e-05 -5.91497e-05 -3.32717e-05 -1.47874e-05 -3.69685e-06 0 0 -4.7178e-06 -1.88712e-05 -4.24602e-05 -7.54849e-05 -0.000117945 -0.000169841 -0.000231172 -0.00030194 -0.000385191 -0.000483974 -0.000598291 -0.00072814 -0.000873521 -0.00103444 -0.00121088 -0.00140286 -0.00160385 -0.00180734 -0.00201333 -0.00222181 -0.00243278 -0.00264625 -0.00286221 -0.00308067 -0.00329783 -0.00350987 -0.00371682 -0.00391865 -0.00411537 -0.00430699 -0.00449351 -0.00467491 -0.00485082 -0.00502085 -0.005185 -0.00534326 -0.00549564 -0.00564213 -0.00578275 -0.00591748 -0.00604691 -0.00617164 -0.00629166 -0.00640698 -0.00651759 -0.00662349 -0.00672469 -0.00682117 -0.00691275 -0.0069992 -0.00708053 -0.00715674 -0.00722783 -0.00729379 -0.00735464 -0.00741036 -0.0074602 -0.00750339 -0.00753994 -0.00756984 -0.0075931 -0.00760971 -0.00761968 -0.007623 -0.00761968 -0.00760971 -0.0075931 -0.00756984 -0.00753994 -0.00750339 -0.0074602 -0.00741036 -0.00735464 -0.00729379 -0.00722783 -0.00715674 -0.00708053 -0.0069992 -0.00691275 -0.00682117 -0.00672469 -0.00662349 -0.00651759 -0.00640698 -0.00629166 -0.00617164 -0.00604691 -0.00591748 -0.00578275 -0.00564213 -0.00549564 -0.00534326 -0.005185 -0.00502085 -0.00485082 -0.00467491 -0.00449351 -0.00430699 -0.00411537 -0.00391865 -0.00371682 -0.00350988 -0.00329783 -0.00308067 -0.00286221 -0.00264625 -0.00243278 -0.00222181 -0.00201333 -0.00180734 -0.00160386 -0.00140286 -0.00121088 -0.00103444 -0.000873522 -0.00072814 -0.000598291 -0.000483975 -0.000385191 -0.00030194 -0.000231173 -0.000169841 -0.000117945 -7.5485e-05 -4.24603e-05 -1.88712e-05 -4.71781e-06 0 0 -5.93224e-06 -2.3729e-05 -5.33902e-05 -9.49159e-05 -0.000148306 -0.000213561 -0.00029068 -0.000379664 -0.000483974 -0.000607075 -0.000748966 -0.000909647 -0.00108912 -0.00128738 -0.00150443 -0.00174027 -0.00198653 -0.00223483 -0.00248517 -0.00273755 -0.00299197 -0.00324844 -0.00350695 -0.0037675 -0.00402527 -0.00427543 -0.00451799 -0.00475294 -0.00498029 -0.00520004 -0.00541218 -0.00561671 -0.00581332 -0.00600168 -0.00618179 -0.00635364 -0.00651725 -0.00667261 -0.00681972 -0.00695858 -0.00709041 -0.00721645 -0.00733668 -0.00745112 -0.00755976 -0.0076626 -0.00775964 -0.00785088 -0.00793671 -0.00801751 -0.00809328 -0.00816403 -0.00822975 -0.00829045 -0.00834612 -0.00839676 -0.00844188 -0.00848099 -0.00851408 -0.00854115 -0.00856221 -0.00857725 -0.00858627 -0.00858928 -0.00858627 -0.00857725 -0.00856221 -0.00854115 -0.00851408 -0.00848099 -0.00844188 -0.00839676 -0.00834612 -0.00829045 -0.00822975 -0.00816403 -0.00809328 -0.00801751 -0.00793671 -0.00785088 -0.00775964 -0.0076626 -0.00755976 -0.00745112 -0.00733668 -0.00721645 -0.00709041 -0.00695858 -0.00681972 -0.00667261 -0.00651725 -0.00635364 -0.00618179 -0.00600168 -0.00581332 -0.00561671 -0.00541218 -0.00520004 -0.00498029 -0.00475294 -0.00451799 -0.00427543 -0.00402527 -0.0037675 -0.00350695 -0.00324844 -0.00299197 -0.00273755 -0.00248517 -0.00223483 -0.00198653 -0.00174027 -0.00150443 -0.00128738 -0.00108912 -0.000909648 -0.000748967 -0.000607076 -0.000483975 -0.000379664 -0.00029068 -0.000213561 -0.000148306 -9.4916e-05 -5.33902e-05 -2.3729e-05 -5.93225e-06 0 0 -7.34016e-06 -2.93607e-05 -6.60615e-05 -0.000117443 -0.000183504 -0.000264246 -0.000359668 -0.000469771 -0.000598291 -0.000748966 -0.000921797 -0.00111678 -0.00133392 -0.00157322 -0.00183467 -0.00211828 -0.00241341 -0.00270946 -0.00300642 -0.00330428 -0.00360305 -0.00390273 -0.00420332 -0.00450481 -0.00480118 -0.0050864 -0.00536045 -0.00562335 -0.0058751 -0.00611568 -0.00634511 -0.00656338 -0.00677034 -0.00696583 -0.00714985 -0.00732241 -0.0074835 -0.00763312 -0.00777128 -0.00789797 -0.00801542 -0.00812588 -0.00822934 -0.00832579 -0.00841525 -0.00849771 -0.00857317 -0.00864163 -0.00870453 -0.00876329 -0.00881793 -0.00886843 -0.0089148 -0.00895704 -0.00899514 -0.00902912 -0.00905903 -0.00908496 -0.0091069 -0.00912485 -0.00913881 -0.00914878 -0.00915476 -0.00915676 -0.00915476 -0.00914878 -0.00913881 -0.00912485 -0.0091069 -0.00908496 -0.00905903 -0.00902912 -0.00899514 -0.00895704 -0.0089148 -0.00886843 -0.00881793 -0.00876329 -0.00870453 -0.00864163 -0.00857317 -0.00849771 -0.00841525 -0.00832579 -0.00822934 -0.00812588 -0.00801542 -0.00789797 -0.00777128 -0.00763312 -0.0074835 -0.00732241 -0.00714985 -0.00696583 -0.00677034 -0.00656338 -0.00634511 -0.00611568 -0.0058751 -0.00562335 -0.00536045 -0.0050864 -0.00480118 -0.00450481 -0.00420332 -0.00390273 -0.00360305 -0.00330428 -0.00300642 -0.00270946 -0.00241342 -0.00211828 -0.00183467 -0.00157322 -0.00133392 -0.00111678 -0.000921797 -0.000748967 -0.000598291 -0.000469771 -0.000359668 -0.000264246 -0.000183504 -0.000117443 -6.60615e-05 -2.93607e-05 -7.34017e-06 0 0 -8.94157e-06 -3.57663e-05 -8.04741e-05 -0.000143065 -0.000223539 -0.000321897 -0.000438137 -0.00057226 -0.00072814 -0.000909647 -0.00111678 -0.00134955 -0.00160794 -0.00189196 -0.0022016 -0.00253688 -0.00288452 -0.00323125 -0.00357708 -0.003922 -0.00426601 -0.00460912 -0.00495132 -0.00529262 -0.00562558 -0.00594278 -0.00624421 -0.00652988 -0.00679979 -0.00705393 -0.00729231 -0.00751492 -0.00772188 -0.00791331 -0.0080892 -0.00824956 -0.00839438 -0.00852367 -0.00863743 -0.00873565 -0.00882195 -0.00889994 -0.00896962 -0.009031 -0.00908407 -0.00912883 -0.00916529 -0.00919344 -0.00921622 -0.00923656 -0.00925446 -0.00926993 -0.00928296 -0.00929355 -0.00930171 -0.00930743 -0.00931164 -0.0093153 -0.0093184 -0.00932093 -0.0093229 -0.0093243 -0.00932515 -0.00932543 -0.00932515 -0.0093243 -0.0093229 -0.00932093 -0.0093184 -0.0093153 -0.00931164 -0.00930743 -0.00930171 -0.00929355 -0.00928296 -0.00926993 -0.00925446 -0.00923656 -0.00921622 -0.00919344 -0.00916529 -0.00912883 -0.00908407 -0.009031 -0.00896962 -0.00889994 -0.00882195 -0.00873565 -0.00863743 -0.00852367 -0.00839438 -0.00824956 -0.0080892 -0.00791331 -0.00772188 -0.00751492 -0.00729231 -0.00705393 -0.00679979 -0.00652988 -0.00624421 -0.00594278 -0.00562558 -0.00529262 -0.00495132 -0.00460912 -0.00426601 -0.003922 -0.00357708 -0.00323125 -0.00288452 -0.00253688 -0.00220161 -0.00189196 -0.00160794 -0.00134955 -0.00111678 -0.000909648 -0.00072814 -0.000572261 -0.000438137 -0.000321897 -0.000223539 -0.000143065 -8.04742e-05 -3.57663e-05 -8.94158e-06 0 0 -1.07365e-05 -4.29458e-05 -9.66281e-05 -0.000171783 -0.000268411 -0.000386513 -0.000526086 -0.000687133 -0.000873521 -0.00108912 -0.00133392 -0.00160794 -0.00191116 -0.00224359 -0.00260523 -0.00299608 -0.00339984 -0.00380019 -0.00419714 -0.0045907 -0.00498085 -0.00536761 -0.00575096 -0.00613092 -0.00649846 -0.00684457 -0.00716926 -0.00747253 -0.00775437 -0.00801478 -0.00825376 -0.00847132 -0.00866795 -0.00884411 -0.00899983 -0.00913509 -0.0092499 -0.00934426 -0.00941816 -0.00947162 -0.00950998 -0.00953862 -0.00955754 -0.00956674 -0.00956621 -0.00955596 -0.00953599 -0.00950629 -0.00947177 -0.0094373 -0.00940288 -0.00936853 -0.00933423 -0.00929999 -0.00926581 -0.00923168 -0.00919972 -0.00917202 -0.00914857 -0.0091294 -0.00911448 -0.00910382 -0.00909743 -0.0090953 -0.00909743 -0.00910382 -0.00911448 -0.0091294 -0.00914857 -0.00917202 -0.00919972 -0.00923168 -0.00926581 -0.00929999 -0.00933423 -0.00936853 -0.00940288 -0.0094373 -0.00947177 -0.00950629 -0.00953599 -0.00955596 -0.00956621 -0.00956674 -0.00955754 -0.00953862 -0.00950998 -0.00947162 -0.00941816 -0.00934426 -0.0092499 -0.00913509 -0.00899983 -0.00884411 -0.00866794 -0.00847132 -0.00825376 -0.00801478 -0.00775437 -0.00747253 -0.00716926 -0.00684457 -0.00649846 -0.00613092 -0.00575096 -0.00536761 -0.00498085 -0.0045907 -0.00419715 -0.00380019 -0.00339984 -0.00299608 -0.00260523 -0.00224359 -0.00191116 -0.00160794 -0.00133392 -0.00108912 -0.000873522 -0.000687134 -0.000526087 -0.000386513 -0.000268412 -0.000171784 -9.66282e-05 -4.29459e-05 -1.07365e-05 0 0 -1.27248e-05 -5.08993e-05 -0.000114523 -0.000203597 -0.000318121 -0.000458094 -0.000623517 -0.000814389 -0.00103444 -0.00128738 -0.00157322 -0.00189196 -0.00224359 -0.00262812 -0.00304555 -0.00349588 -0.00395937 -0.00441628 -0.00486662 -0.00531039 -0.00574758 -0.0061782 -0.00660224 -0.00701971 -0.00741982 -0.00779178 -0.00813561 -0.00845129 -0.00873883 -0.00899823 -0.00922949 -0.0094326 -0.00960853 -0.00975824 -0.00988173 -0.009979 -0.0100501 -0.0100949 -0.0101135 -0.0101059 -0.0100795 -0.0100419 -0.0099931 -0.00993301 -0.00986168 -0.0097791 -0.00968527 -0.0095802 -0.00947118 -0.00936551 -0.0092632 -0.00916423 -0.00906862 -0.00897636 -0.00888745 -0.00880189 -0.00872325 -0.0086551 -0.00859743 -0.00855025 -0.00851355 -0.00848734 -0.00847161 -0.00846637 -0.00847161 -0.00848734 -0.00851355 -0.00855025 -0.00859743 -0.0086551 -0.00872325 -0.00880189 -0.00888745 -0.00897636 -0.00906862 -0.00916423 -0.0092632 -0.00936551 -0.00947118 -0.0095802 -0.00968527 -0.0097791 -0.00986168 -0.00993301 -0.0099931 -0.0100419 -0.0100795 -0.0101059 -0.0101135 -0.0100949 -0.0100501 -0.009979 -0.00988173 -0.00975824 -0.00960853 -0.0094326 -0.00922949 -0.00899823 -0.00873883 -0.00845129 -0.00813561 -0.00779178 -0.00741982 -0.00701971 -0.00660224 -0.0061782 -0.00574758 -0.00531039 -0.00486663 -0.00441629 -0.00395937 -0.00349588 -0.00304556 -0.00262813 -0.00224359 -0.00189196 -0.00157322 -0.00128738 -0.00103444 -0.00081439 -0.000623517 -0.000458094 -0.000318121 -0.000203597 -0.000114524 -5.08994e-05 -1.27248e-05 0 0 -1.49067e-05 -5.96267e-05 -0.00013416 -0.000238507 -0.000372667 -0.000536641 -0.000730428 -0.000954028 -0.00121088 -0.00150443 -0.00183467 -0.0022016 -0.00260523 -0.00304555 -0.00352257 -0.00403628 -0.00456312 -0.00507953 -0.00558551 -0.00608107 -0.00656619 -0.00704089 -0.00750515 -0.00795899 -0.00838965 -0.00878441 -0.00914325 -0.00946617 -0.00975318 -0.0100043 -0.0102195 -0.0103987 -0.0105436 -0.0106557 -0.0107349 -0.0107813 -0.0107948 -0.0107755 -0.0107234 -0.0106384 -0.0105306 -0.0104099 -0.0102763 -0.0101298 -0.00997046 -0.00979824 -0.00961314 -0.00941516 -0.00921446 -0.00902121 -0.0088354 -0.00865704 -0.00848613 -0.00832266 -0.00816663 -0.00801805 -0.00788225 -0.00776456 -0.00766497 -0.00758349 -0.00752011 -0.00747484 -0.00744768 -0.00743863 -0.00744768 -0.00747484 -0.00752011 -0.00758349 -0.00766497 -0.00776456 -0.00788225 -0.00801805 -0.00816663 -0.00832266 -0.00848613 -0.00865704 -0.0088354 -0.00902121 -0.00921446 -0.00941516 -0.00961314 -0.00979824 -0.00997046 -0.0101298 -0.0102763 -0.0104099 -0.0105306 -0.0106384 -0.0107234 -0.0107755 -0.0107948 -0.0107813 -0.0107349 -0.0106557 -0.0105436 -0.0103987 -0.0102195 -0.0100043 -0.00975319 -0.00946617 -0.00914325 -0.00878441 -0.00838966 -0.00795899 -0.00750515 -0.00704089 -0.00656619 -0.00608107 -0.00558552 -0.00507953 -0.00456312 -0.00403628 -0.00352257 -0.00304556 -0.00260523 -0.00220161 -0.00183467 -0.00150443 -0.00121088 -0.000954029 -0.000730428 -0.000536641 -0.000372668 -0.000238507 -0.00013416 -5.96268e-05 -1.49067e-05 0 0 -1.7282e-05 -6.91281e-05 -0.000155538 -0.000276512 -0.000432051 -0.000622153 -0.000846819 -0.00110605 -0.00140286 -0.00174027 -0.00211828 -0.00253688 -0.00299608 -0.00349588 -0.00403628 -0.00461727 -0.00521108 -0.00578993 -0.00635381 -0.00690273 -0.00743669 -0.00795568 -0.0084597 -0.00894876 -0.00940797 -0.00982244 -0.0101922 -0.0105172 -0.0107974 -0.0110329 -0.0112237 -0.0113698 -0.0114733 -0.0115365 -0.0115594 -0.011542 -0.0114843 -0.0113862 -0.0112479 -0.0110693 -0.0108632 -0.0106424 -0.0104071 -0.0101571 -0.00989258 -0.00961339 -0.00931958 -0.00901116 -0.0087016 -0.00840438 -0.0081195 -0.00784695 -0.00758675 -0.00733888 -0.00710335 -0.00688017 -0.00667671 -0.00650038 -0.00635118 -0.00622911 -0.00613417 -0.00606635 -0.00602566 -0.00601209 -0.00602566 -0.00606635 -0.00613417 -0.00622911 -0.00635118 -0.00650038 -0.00667671 -0.00688017 -0.00710335 -0.00733888 -0.00758675 -0.00784695 -0.0081195 -0.00840438 -0.0087016 -0.00901116 -0.00931958 -0.00961339 -0.00989258 -0.0101571 -0.0104071 -0.0106424 -0.0108632 -0.0110693 -0.0112479 -0.0113862 -0.0114843 -0.011542 -0.0115594 -0.0115365 -0.0114733 -0.0113698 -0.0112237 -0.0110329 -0.0107974 -0.0105172 -0.0101922 -0.00982244 -0.00940797 -0.00894876 -0.0084597 -0.00795568 -0.00743669 -0.00690273 -0.00635382 -0.00578993 -0.00521109 -0.00461728 -0.00403628 -0.00349588 -0.00299608 -0.00253688 -0.00211828 -0.00174027 -0.00140286 -0.00110605 -0.00084682 -0.000622154 -0.000432051 -0.000276513 -0.000155538 -6.91282e-05 -1.7282e-05 0 0 -1.97718e-05 -7.90873e-05 -0.000177946 -0.000316349 -0.000494296 -0.000711786 -0.00096882 -0.0012654 -0.00160385 -0.00198653 -0.00241341 -0.00288452 -0.00339984 -0.00395937 -0.00456312 -0.00521108 -0.00587076 -0.00650966 -0.00712777 -0.00772509 -0.00830163 -0.00885739 -0.00939235 -0.00990654 -0.0103827 -0.0108035 -0.0111689 -0.0114791 -0.0117339 -0.0119334 -0.0120776 -0.0121665 -0.0122031 -0.0121906 -0.012129 -0.0120183 -0.0118585 -0.0116495 -0.0113914 -0.0110843 -0.0107443 -0.0103881 -0.0100155 -0.00962659 -0.00922132 -0.00879972 -0.00836178 -0.0079075 -0.00745451 -0.00702042 -0.00660523 -0.00620896 -0.00583158 -0.00547312 -0.00513356 -0.0048129 -0.00452115 -0.0042683 -0.00405435 -0.0038793 -0.00374315 -0.0036459 -0.00358755 -0.0035681 -0.00358755 -0.0036459 -0.00374315 -0.0038793 -0.00405435 -0.0042683 -0.00452115 -0.0048129 -0.00513356 -0.00547312 -0.00583158 -0.00620896 -0.00660523 -0.00702042 -0.00745451 -0.0079075 -0.00836178 -0.00879972 -0.00922132 -0.00962659 -0.0100155 -0.0103881 -0.0107443 -0.0110843 -0.0113914 -0.0116495 -0.0118585 -0.0120183 -0.012129 -0.0121906 -0.0122031 -0.0121665 -0.0120776 -0.0119334 -0.0117339 -0.0114791 -0.0111689 -0.0108035 -0.0103827 -0.00990654 -0.00939236 -0.00885739 -0.00830163 -0.0077251 -0.00712777 -0.00650966 -0.00587077 -0.00521109 -0.00456312 -0.00395937 -0.00339984 -0.00288452 -0.00241342 -0.00198653 -0.00160386 -0.0012654 -0.000968821 -0.000711787 -0.000494296 -0.00031635 -0.000177947 -7.90874e-05 -1.97718e-05 0 0 -2.22971e-05 -8.91883e-05 -0.000200674 -0.000356753 -0.000557427 -0.000802695 -0.00109256 -0.00142701 -0.00180734 -0.00223482 -0.00270946 -0.00323125 -0.00380019 -0.00441628 -0.00507953 -0.00578993 -0.00650966 -0.00720089 -0.00786362 -0.00849786 -0.0091036 -0.00968084 -0.0102296 -0.0107498 -0.0112216 -0.0116251 -0.0119601 -0.0122268 -0.0124251 -0.012555 -0.0126165 -0.0126097 -0.0125387 -0.0124081 -0.0122176 -0.0119675 -0.0116576 -0.0112879 -0.0108584 -0.0103693 -0.00984125 -0.00929532 -0.00873147 -0.00814971 -0.00755002 -0.00693242 -0.0062969 -0.00564347 -0.00499508 -0.00437471 -0.00378237 -0.00321804 -0.00268174 -0.00217345 -0.00169318 -0.00124094 -0.000830088 -0.000474021 -0.000172733 7.37759e-05 0.000265505 0.000402454 0.000484623 0.000512013 0.000484623 0.000402454 0.000265505 7.37759e-05 -0.000172732 -0.000474021 -0.000830088 -0.00124094 -0.00169318 -0.00217345 -0.00268174 -0.00321804 -0.00378237 -0.00437471 -0.00499508 -0.00564346 -0.0062969 -0.00693242 -0.00755002 -0.00814971 -0.00873147 -0.00929532 -0.00984125 -0.0103693 -0.0108584 -0.0112879 -0.0116576 -0.0119675 -0.0122176 -0.0124081 -0.0125387 -0.0126097 -0.0126165 -0.012555 -0.0124251 -0.0122268 -0.0119601 -0.0116251 -0.0112216 -0.0107498 -0.0102296 -0.00968084 -0.0091036 -0.00849786 -0.00786363 -0.00720089 -0.00650966 -0.00578993 -0.00507953 -0.00441629 -0.00380019 -0.00323125 -0.00270946 -0.00223483 -0.00180734 -0.00142701 -0.00109256 -0.000802695 -0.000557427 -0.000356754 -0.000200674 -8.91884e-05 -2.22971e-05 0 0 -2.48578e-05 -9.9431e-05 -0.00022372 -0.000397724 -0.000621444 -0.000894879 -0.00121803 -0.0015909 -0.00201333 -0.00248517 -0.00300641 -0.00357707 -0.00419714 -0.00486662 -0.00558551 -0.00635381 -0.00712777 -0.00786362 -0.00856137 -0.00922103 -0.00984258 -0.010426 -0.0109714 -0.0114786 -0.0119249 -0.0122872 -0.0125657 -0.0127602 -0.0128708 -0.0128976 -0.0128404 -0.0126993 -0.0124802 -0.0121889 -0.0118253 -0.0113896 -0.0108816 -0.0103014 -0.00964894 -0.0089243 -0.00815388 -0.00736411 -0.00655498 -0.0057265 -0.00487867 -0.00401148 -0.00312494 -0.00221905 -0.00132332 -0.000467269 0.0003491 0.00112579 0.0018628 0.00256012 0.00321777 0.00383573 0.00439648 0.00488245 0.00529367 0.00563011 0.00589179 0.00607871 0.00619085 0.00622824 0.00619085 0.00607871 0.00589179 0.00563011 0.00529367 0.00488245 0.00439648 0.00383573 0.00321777 0.00256012 0.0018628 0.00112579 0.0003491 -0.000467269 -0.00132332 -0.00221905 -0.00312494 -0.00401148 -0.00487867 -0.0057265 -0.00655498 -0.00736411 -0.00815388 -0.0089243 -0.00964894 -0.0103014 -0.0108816 -0.0113896 -0.0118253 -0.0121889 -0.0124802 -0.0126993 -0.0128404 -0.0128976 -0.0128708 -0.0127602 -0.0125657 -0.0122872 -0.0119249 -0.0114786 -0.0109714 -0.010426 -0.00984258 -0.00922103 -0.00856138 -0.00786363 -0.00712777 -0.00635382 -0.00558552 -0.00486663 -0.00419715 -0.00357708 -0.00300642 -0.00248517 -0.00201333 -0.0015909 -0.00121803 -0.00089488 -0.000621445 -0.000397725 -0.00022372 -9.94311e-05 -2.48578e-05 0 0 -2.74539e-05 -0.000109816 -0.000247085 -0.000439262 -0.000686347 -0.00098834 -0.00134524 -0.00175705 -0.0022218 -0.00273755 