<?xml version="1.0"?> 
<VTKFile type="StructuredGrid" version="0.1"> 
<StructuredGrid WholeExtent="0 128 0 128 0 0"> 
<Piece Extent="0 128 0 128 0 0"> 
<PointData>
<DataArray type="Float32" Name="u" format="ascii" NumberOfComponents="1"> 
0 0 0 0 0 0 0 0 0 0 0 0 0 0 0 0 0 0 0 0 0 0 0 0 0 0 0 0 0 0 0 0 0 0 0 0 0 0 0 0 0 0 0 0 0 0 0 0 0 0 0 0 0 0 0 0 0 0 0 0 0 0 0 0 0 0 0 0 0 0 0 0 0 0 0 0 0 0 0 0 0 0 0 0 0 0 0 0 0 0 0 0 0 0 0 0 0 0 0 0 0 0 0 0 0 0 0 0 0 0 0 0 0 0 0 0 0 0 0 0 0 0 0 0 0 0 0 0 0 0 -6.34762e-08 -2.53905e-07 -5.71286e-07 -1.01562e-06 -1.58691e-06 -2.28514e-06 -3.11033e-06 -4.06248e-06 -5.16095e-06 -6.42514e-06 -7.85505e-06 -9.45067e-06 -1.1212e-05 -1.31391e-05 -1.52318e-05 -1.74903e-05 -1.98065e-05 -2.20724e-05 -2.4288e-05 -2.64534e-05 -2.85684e-05 -3.06332e-05 -3.26476e-05 -3.46118e-05 -3.64566e-05 -3.8113e-05 -3.9581e-05 -4.08605e-05 -4.19515e-05 -4.28541e-05 -4.35683e-05 -4.4094e-05 -4.44204e-05 -4.45365e-05 -4.44423e-05 -4.41377e-05 -4.36229e-05 -4.28978e-05 -4.19624e-05 -4.08167e-05 -3.95096e-05 -3.809e-05 -3.65578e-05 -3.49132e-05 -3.3156e-05 -3.12863e-05 -2.93041e-05 -2.72094e-05 -2.50902e-05 -2.30347e-05 -2.10428e-05 -1.91146e-05 -1.725e-05 -1.54491e-05 -1.37118e-05 -1.20382e-05 -1.0499e-05 -9.16505e-06 -8.03631e-06 -7.1128e-06 -6.39452e-06 -5.88145e-06 -5.57362e-06 -5.47101e-06 -5.57362e-06 -5.88145e-06 -6.39452e-06 -7.1128e-06 -8.03631e-06 -9.16505e-06 -1.0499e-05 -1.20382e-05 -1.37118e-05 -1.54491e-05 -1.725e-05 -1.91146e-05 -2.10428e-05 -2.30347e-05 -2.50902e-05 -2.72094e-05 -2.93041e-05 -3.12863e-05 -3.3156e-05 -3.49132e-05 -3.65578e-05 -3.809e-05 -3.95096e-05 -4.08167e-05 -4.19624e-05 -4.28978e-05 -4.36229e-05 -4.41378e-05 -4.44423e-05 -4.45365e-05 -4.44204e-05 -4.40941e-05 -4.35683e-05 -4.28541e-05 -4.19515e-05 -4.08605e-05 -3.9581e-05 -3.8113e-05 -3.64566e-05 -3.46118e-05 -3.26476e-05 -3.06332e-05 -2.85684e-05 -2.64534e-05 -2.4288e-05 -2.20724e-05 -1.98065e-05 -1.74903e-05 -1.52318e-05 -1.31391e-05 -1.1212e-05 -9.45068e-06 -7.85506e-06 -6.42515e-06 -5.16096e-06 -4.06248e-06 -3.11034e-06 -2.28515e-06 -1.58691e-06 -1.01562e-06 -5.71286e-07 -2.53905e-07 -6.34763e-08 0 0 -2.53905e-07 -1.01562e-06 -2.28514e-06 -4.06248e-06 -6.34762e-06 -9.14057e-06 -1.24413e-05 -1.62499e-05 -2.06438e-05 -2.57006e-05 -3.14202e-05 -3.78027e-05 -4.4848e-05 -5.25562e-05 -6.09273e-05 -6.99612e-05 -7.9226e-05 -8.82896e-05 -9.71521e-05 -0.000105813 -0.000114274 -0.000122533 -0.000130591 -0.000138447 -0.000145827 -0.000152452 -0.000158324 -0.000163442 -0.000167806 -0.000171417 -0.000174273 -0.000176376 -0.000177682 -0.000178146 -0.000177769 -0.000176551 -0.000174492 -0.000171591 -0.00016785 -0.000163267 -0.000158038 -0.00015236 -0.000146231 -0.000139653 -0.000132624 -0.000125145 -0.000117216 -0.000108837 -0.000100361 -9.21387e-05 -8.41712e-05 -7.64583e-05 -6.9e-05 -6.17963e-05 -5.48472e-05 -4.81528e-05 -4.1996e-05 -3.66602e-05 -3.21453e-05 -2.84512e-05 -2.55781e-05 -2.35258e-05 -2.22945e-05 -2.1884e-05 -2.22945e-05 -2.35258e-05 -2.55781e-05 -2.84512e-05 -3.21452e-05 -3.66602e-05 -4.1996e-05 -4.81528e-05 -5.48472e-05 -6.17963e-05 -6.9e-05 -7.64583e-05 -8.41712e-05 -9.21387e-05 -0.000100361 -0.000108837 -0.000117216 -0.000125145 -0.000132624 -0.000139653 -0.000146231 -0.00015236 -0.000158038 -0.000163267 -0.00016785 -0.000171591 -0.000174492 -0.000176551 -0.000177769 -0.000178146 -0.000177682 -0.000176376 -0.000174273 -0.000171417 -0.000167806 -0.000163442 -0.000158324 -0.000152452 -0.000145827 -0.000138447 -0.000130591 -0.000122533 -0.000114274 -0.000105813 -9.71521e-05 -8.82896e-05 -7.9226e-05 -6.99612e-05 -6.09273e-05 -5.25563e-05 -4.48481e-05 -3.78027e-05 -3.14202e-05 -2.57006e-05 -2.06438e-05 -1.62499e-05 -1.24413e-05 -9.14058e-06 -6.34763e-06 -4.06248e-06 -2.28515e-06 -1.01562e-06 -2.53905e-07 0 0 -5.71286e-07 -2.28514e-06 -5.14157e-06 -9.14057e-06 -1.42821e-05 -2.05663e-05 -2.7993e-05 -3.65623e-05 -4.64486e-05 -5.78263e-05 -7.06955e-05 -8.5056e-05 -0.000100908 -0.000118251 -0.000137086 -0.000157413 -0.000178258 -0.000198652 -0.000218592 -0.00023808 -0.000257116 -0.000275698 -0.000293829 -0.000311506 -0.00032811 -0.000343017 -0.000356229 -0.000367744 -0.000377564 -0.000385687 -0.000392115 -0.000396846 -0.000399784 -0.000400828 -0.00039998 -0.00039724 -0.000392606 -0.00038608 -0.000377662 -0.00036735 -0.000355587 -0.00034281 -0.000329021 -0.000314219 -0.000298404 -0.000281577 -0.000263737 -0.000244884 -0.000225812 -0.000207312 -0.000189385 -0.000172031 -0.00015525 -0.000139042 -0.000123406 -0.000108344 -9.44911e-05 -8.24854e-05 -7.23268e-05 -6.40152e-05 -5.75506e-05 -5.29331e-05 -5.01626e-05 -4.9239e-05 -5.01626e-05 -5.29331e-05 -5.75506e-05 -6.40152e-05 -7.23268e-05 -8.24854e-05 -9.44911e-05 -0.000108344 -0.000123406 -0.000139042 -0.00015525 -0.000172031 -0.000189385 -0.000207312 -0.000225812 -0.000244884 -0.000263737 -0.000281577 -0.000298404 -0.000314219 -0.000329021 -0.00034281 -0.000355587 -0.000367351 -0.000377662 -0.00038608 -0.000392606 -0.00039724 -0.00039998 -0.000400828 -0.000399784 -0.000396846 -0.000392115 -0.000385687 -0.000377564 -0.000367744 -0.000356229 -0.000343017 -0.00032811 -0.000311506 -0.000293829 -0.000275698 -0.000257116 -0.00023808 -0.000218592 -0.000198652 -0.000178259 -0.000157413 -0.000137086 -0.000118252 -0.000100908 -8.50561e-05 -7.06955e-05 -5.78264e-05 -4.64486e-05 -3.65623e-05 -2.7993e-05 -2.05663e-05 -1.42822e-05 -9.14058e-06 -5.14158e-06 -2.28515e-06 -5.71286e-07 0 0 -1.01562e-06 -4.06248e-06 -9.14057e-06 -1.62499e-05 -2.53905e-05 -3.65623e-05 -4.97653e-05 -6.49996e-05 -8.25753e-05 -0.000102802 -0.000125681 -0.000151211 -0.000179392 -0.000210225 -0.000243709 -0.000279845 -0.000316904 -0.000353158 -0.000388608 -0.000423254 -0.000457094 -0.00049013 -0.000522362 -0.000553789 -0.000583306 -0.000609808 -0.000633295 -0.000653767 -0.000671224 -0.000685666 -0.000697093 -0.000705505 -0.000710727 -0.000712584 -0.000711076 -0.000706204 -0.000697967 -0.000686365 -0.000671399 -0.000653068 -0.000632154 -0.00060944 -0.000584926 -0.000558611 -0.000530496 -0.000500581 -0.000468865 -0.00043535 -0.000401443 -0.000368555 -0.000336685 -0.000305833 -0.000276 -0.000247185 -0.000219389 -0.000192611 -0.000167984 -0.000146641 -0.000128581 -0.000113805 -0.000102312 -9.41033e-05 -8.91779e-05 -8.75361e-05 -8.91779e-05 -9.41033e-05 -0.000102312 -0.000113805 -0.000128581 -0.000146641 -0.000167984 -0.000192611 -0.000219389 -0.000247185 -0.000276 -0.000305833 -0.000336685 -0.000368555 -0.000401443 -0.00043535 -0.000468865 -0.000500581 -0.000530496 -0.000558611 -0.000584926 -0.00060944 -0.000632154 -0.000653068 -0.000671399 -0.000686365 -0.000697967 -0.000706204 -0.000711076 -0.000712584 -0.000710727 -0.000705505 -0.000697093 -0.000685666 -0.000671224 -0.000653767 -0.000633295 -0.000609808 -0.000583306 -0.000553789 -0.000522362 -0.000490131 -0.000457094 -0.000423254 -0.000388608 -0.000353159 -0.000316904 -0.000279845 -0.000243709 -0.000210225 -0.000179392 -0.000151211 -0.000125681 -0.000102802 -8.25753e-05 -6.49997e-05 -4.97654e-05 -3.65623e-05 -2.53905e-05 -1.62499e-05 -9.14058e-06 -4.06248e-06 -1.01562e-06 0 0 -1.58691e-06 -6.34762e-06 -1.42821e-05 -2.53905e-05 -3.96726e-05 -5.71286e-05 -7.77583e-05 -0.000101562 -0.000129024 -0.000160629 -0.000196376 -0.000236267 -0.0002803 -0.000328476 -0.000380795 -0.000437257 -0.000495162 -0.00055181 -0.0006072 -0.000661334 -0.00071421 -0.000765829 -0.000816191 -0.000865295 -0.000911416 -0.000952825 -0.000989524 -0.00102151 -0.00104879 -0.00107135 -0.00108921 -0.00110235 -0.00111051 -0.00111341 -0.00111106 -0.00110344 -0.00109057 -0.00107245 -0.00104906 -0.00102042 -0.00098774 -0.00095225 -0.000913946 -0.00087283 -0.0008289 -0.000782158 -0.000732602 -0.000680234 -0.000627255 -0.000575867 -0.00052607 -0.000477864 -0.00043125 -0.000386227 -0.000342795 -0.000300955 -0.000262475 -0.000229126 -0.000200908 -0.00017782 -0.000159863 -0.000147036 -0.00013934 -0.000136775 -0.00013934 -0.000147036 -0.000159863 -0.00017782 -0.000200908 -0.000229126 -0.000262475 -0.000300955 -0.000342795 -0.000386227 -0.00043125 -0.000477864 -0.00052607 -0.000575867 -0.000627255 -0.000680234 -0.000732602 -0.000782158 -0.0008289 -0.00087283 -0.000913946 -0.00095225 -0.00098774 -0.00102042 -0.00104906 -0.00107245 -0.00109057 -0.00110344 -0.00111106 -0.00111341 -0.00111051 -0.00110235 -0.00108921 -0.00107135 -0.00104879 -0.00102151 -0.000989524 -0.000952826 -0.000911416 -0.000865296 -0.000816191 -0.000765829 -0.00071421 -0.000661334 -0.000607201 -0.00055181 -0.000495163 -0.000437258 -0.000380796 -0.000328477 -0.0002803 -0.000236267 -0.000196376 -0.000160629 -0.000129024 -0.000101562 -7.77584e-05 -5.71286e-05 -3.96727e-05 -2.53905e-05 -1.42822e-05 -6.34763e-06 -1.58691e-06 0 0 -2.28514e-06 -9.14057e-06 -2.05663e-05 -3.65623e-05 -5.71286e-05 -8.22652e-05 -0.000111972 -0.000146249 -0.000185794 -0.000231305 -0.000282782 -0.000340224 -0.000403632 -0.000473006 -0.000548346 -0.000629651 -0.000713034 -0.000794606 -0.000874369 -0.000952321 -0.00102846 -0.00110279 -0.00117531 -0.00124603 -0.00131244 -0.00137207 -0.00142491 -0.00147098 -0.00151025 -0.00154275 -0.00156846 -0.00158739 -0.00159914 -0.00160331 -0.00159992 -0.00158896 -0.00157043 -0.00154432 -0.00151065 -0.0014694 -0.00142235 -0.00137124 -0.00131608 -0.00125687 -0.00119362 -0.00112631 -0.00105495 -0.000979537 -0.000903247 -0.000829248 -0.000757541 -0.000688125 -0.000621 -0.000556167 -0.000493625 -0.000433375 -0.000377964 -0.000329942 -0.000289307 -0.000256061 -0.000230203 -0.000211732 -0.00020065 -0.000196956 -0.00020065 -0.000211732 -0.000230203 -0.000256061 -0.000289307 -0.000329942 -0.000377964 -0.000433375 -0.000493625 -0.000556167 -0.000621 -0.000688125 -0.000757541 -0.000829248 -0.000903247 -0.000979537 -0.00105495 -0.00112631 -0.00119362 -0.00125687 -0.00131608 -0.00137124 -0.00142235 -0.0014694 -0.00151065 -0.00154432 -0.00157043 -0.00158896 -0.00159992 -0.00160331 -0.00159914 -0.00158739 -0.00156846 -0.00154275 -0.00151025 -0.00147098 -0.00142491 -0.00137207 -0.00131244 -0.00124603 -0.00117531 -0.00110279 -0.00102846 -0.000952321 -0.000874369 -0.000794607 -0.000713034 -0.000629651 -0.000548346 -0.000473006 -0.000403632 -0.000340224 -0.000282782 -0.000231305 -0.000185794 -0.000146249 -0.000111972 -8.22652e-05 -5.71286e-05 -3.65623e-05 -2.05663e-05 -9.14058e-06 -2.28515e-06 0 0 -3.11033e-06 -1.24413e-05 -2.7993e-05 -4.97653e-05 -7.77583e-05 -0.000111972 -0.000152406 -0.000199061 -0.000252887 -0.000314832 -0.000384897 -0.000463083 -0.000549388 -0.000643814 -0.000746359 -0.000857025 -0.000970518 -0.00108155 -0.00119011 -0.00129621 -0.00139985 -0.00150102 -0.00159973 -0.00169598 -0.00178638 -0.00186754 -0.00193947 -0.00200216 -0.00205562 -0.00209985 -0.00213485 -0.00216061 -0.0021766 -0.00218229 -0.00217767 -0.00216275 -0.00213752 -0.00210199 -0.00205616 -0.00200002 -0.00193597 -0.00186641 -0.00179133 -0.00171075 -0.00162464 -0.00153303 -0.0014359 -0.00133326 -0.00122942 -0.0011287 -0.0010311 -0.000936614 -0.00084525 -0.000757005 -0.000671879 -0.000589871 -0.000514451 -0.000449087 -0.000393779 -0.000348527 -0.000313331 -0.000288191 -0.000273107 -0.000268079 -0.000273107 -0.000288191 -0.000313331 -0.000348527 -0.000393779 -0.000449087 -0.000514451 -0.000589871 -0.000671879 -0.000757005 -0.00084525 -0.000936614 -0.0010311 -0.0011287 -0.00122942 -0.00133326 -0.0014359 -0.00153303 -0.00162464 -0.00171075 -0.00179133 -0.00186641 -0.00193597 -0.00200002 -0.00205616 -0.00210199 -0.00213752 -0.00216275 -0.00217767 -0.00218229 -0.0021766 -0.00216061 -0.00213485 -0.00209985 -0.00205562 -0.00200216 -0.00193947 -0.00186754 -0.00178638 -0.00169598 -0.00159973 -0.00150103 -0.00139985 -0.00129621 -0.00119011 -0.00108155 -0.000970519 -0.000857025 -0.00074636 -0.000643814 -0.000549389 -0.000463083 -0.000384898 -0.000314832 -0.000252887 -0.000199062 -0.000152407 -0.000111972 -7.77584e-05 -4.97654e-05 -2.7993e-05 -1.24413e-05 -3.11034e-06 0 0 -4.06248e-06 -1.62499e-05 -3.65623e-05 -6.49996e-05 -0.000101562 -0.000146249 -0.000199061 -0.000259999 -0.000330301 -0.000411209 -0.000502723 -0.000604843 -0.000717568 -0.0008409 -0.000974836 -0.00111938 -0.00126762 -0.00141263 -0.00155443 -0.00169301 -0.00182838 -0.00196052 -0.00208945 -0.00221516 -0.00233322 -0.00243923 -0.00253318 -0.00261507 -0.0026849 -0.00274266 -0.00278837 -0.00282202 -0.00284291 -0.00285034 -0.00284431 -0.00282482 -0.00279187 -0.00274546 -0.00268559 -0.00261227 -0.00252862 -0.00243776 -0.0023397 -0.00223444 -0.00212198 -0.00200232 -0.00187546 -0.0017414 -0.00160577 -0.00147422 -0.00134674 -0.00122333 -0.001104 -0.000988741 -0.000877556 -0.000770444 -0.000671936 -0.000586563 -0.000514324 -0.000455219 -0.000409249 -0.000376413 -0.000356712 -0.000350144 -0.000356712 -0.000376413 -0.000409249 -0.000455219 -0.000514324 -0.000586563 -0.000671936 -0.000770444 -0.000877556 -0.000988741 -0.001104 -0.00122333 -0.00134674 -0.00147422 -0.00160577 -0.0017414 -0.00187546 -0.00200232 -0.00212198 -0.00223444 -0.0023397 -0.00243776 -0.00252862 -0.00261227 -0.0026856 -0.00274546 -0.00279187 -0.00282482 -0.00284431 -0.00285034 -0.00284291 -0.00282202 -0.00278837 -0.00274267 -0.0026849 -0.00261507 -0.00253318 -0.00243923 -0.00233323 -0.00221516 -0.00208945 -0.00196052 -0.00182838 -0.00169302 -0.00155443 -0.00141263 -0.00126762 -0.00111938 -0.000974837 -0.0008409 -0.000717569 -0.000604843 -0.000502724 -0.00041121 -0.000330301 -0.000259999 -0.000199062 -0.000146249 -0.000101562 -6.49997e-05 -3.65623e-05 -1.62499e-05 -4.06248e-06 0 0 -5.16095e-06 -2.06438e-05 -4.64486e-05 -8.25753e-05 -0.000129024 -0.000185794 -0.000252887 -0.000330301 -0.000419515 -0.000522008 -0.000637779 -0.000766828 -0.000909155 -0.00106476 -0.00123364 -0.00141581 -0.00160243 -0.00178469 -0.0019626 -0.00213614 -0.00230533 -0.00247016 -0.00263064 -0.00278675 -0.00293288 -0.00306338 -0.00317827 -0.00327754 -0.00336119 -0.00342922 -0.00348164 -0.00351843 -0.00353875 -0.00354175 -0.00352742 -0.00349577 -0.00344679 -0.00338049 -0.00329687 -0.00319592 -0.00308174 -0.00295843 -0.00282599 -0.00268442 -0.00253372 -0.00237389 -0.00220494 -0.00202685 -0.00184696 -0.00167261 -0.00150379 -0.00134051 -0.00118277 -0.00103056 -0.00088388 -0.00074274 -0.000613016 -0.000500588 -0.000405457 -0.000327622 -0.000267084 -0.000223842 -0.000197897 -0.000189249 -0.000197897 -0.000223842 -0.000267084 -0.000327622 -0.000405456 -0.000500588 -0.000613016 -0.00074274 -0.00088388 -0.00103056 -0.00118277 -0.00134051 -0.00150379 -0.00167261 -0.00184696 -0.00202685 -0.00220494 -0.00237389 -0.00253372 -0.00268442 -0.00282599 -0.00295843 -0.00308174 -0.00319592 -0.00329687 -0.00338049 -0.00344679 -0.00349577 -0.00352742 -0.00354175 -0.00353875 -0.00351843 -0.00348164 -0.00342922 -0.00336119 -0.00327754 -0.00317827 -0.00306338 -0.00293288 -0.00278675 -0.00263064 -0.00247016 -0.00230533 -0.00213615 -0.0019626 -0.00178469 -0.00160243 -0.00141581 -0.00123365 -0.00106476 -0.000909156 -0.000766829 -0.000637779 -0.000522008 -0.000419516 -0.000330301 -0.000252887 -0.000185794 -0.000129024 -8.25753e-05 -4.64486e-05 -2.06438e-05 -5.16096e-06 0 0 -6.42514e-06 -2.57006e-05 -5.78263e-05 -0.000102802 -0.000160629 -0.000231305 -0.000314832 -0.000411209 -0.000522008 -0.0006488 -0.000791584 -0.000950361 -0.00112513 -0.00131589 -0.00152265 -0.0017454 -0.00197306 -0.00219455 -0.00240988 -0.00261903 -0.00282201 -0.00301883 -0.00320948 -0.00339395 -0.00356522 -0.00371621 -0.00384695 -0.00395742 -0.00404762 -0.00411756 -0.00416724 -0.00419665 -0.00420484 -0.00419083 -0.00415462 -0.00409623 -0.00401564 -0.00391286 -0.00378789 -0.00364072 -0.0034768 -0.00330156 -0.00311501 -0.00291714 -0.00270795 -0.00248745 -0.00225563 -0.00201249 -0.00176764 -0.00153067 -0.00130159 -0.00108038 -0.000867065 -0.000661629 -0.000464076 -0.000274406 -0.000100285 5.06193e-05 0.000178308 0.00028278 0.000364036 0.000422077 0.000456901 0.000468509 0.000456901 0.000422077 0.000364036 0.00028278 0.000178308 5.06194e-05 -0.000100285 -0.000274406 -0.000464076 -0.000661629 -0.000867065 -0.00108038 -0.00130159 -0.00153067 -0.00176764 -0.00201249 -0.00225563 -0.00248745 -0.00270795 -0.00291714 -0.00311501 -0.00330156 -0.0034768 -0.00364072 -0.00378789 -0.00391286 -0.00401564 -0.00409623 -0.00415462 -0.00419083 -0.00420484 -0.00419665 -0.00416724 -0.00411756 -0.00404762 -0.00395742 -0.00384695 -0.00371621 -0.00356522 -0.00339396 -0.00320948 -0.00301883 -0.00282201 -0.00261903 -0.00240988 -0.00219455 -0.00197306 -0.0017454 -0.00152265 -0.0013159 -0.00112513 -0.000950362 -0.000791585 -0.0006488 -0.000522008 -0.00041121 -0.000314832 -0.000231305 -0.000160629 -0.000102802 -5.78264e-05 -2.57006e-05 -6.42515e-06 0 0 -7.85505e-06 -3.14202e-05 -7.06954e-05 -0.000125681 -0.000196376 -0.000282782 -0.000384897 -0.000502723 -0.000637779 -0.000791584 -0.000964139 -0.00115544 -0.0013655 -0.0015943 -0.00184186 -0.00210816 -0.00237951 -0.00264221 -0.00289627 -0.00314167 -0.00337842 -0.00360652 -0.00382597 -0.00403677 -0.00423025 -0.00439773 -0.00453921 -0.0046547 -0.00474419 -0.00480768 -0.00484518 -0.00485668 -0.00484116 -0.00479756 -0.00472591 -0.00462619 -0.00449841 -0.00434256 -0.00415865 -0.00394668 -0.0037138 -0.00346715 -0.00320675 -0.00293258 -0.00264466 -0.00234298 -0.00202754 -0.00169834 -0.00136781 -0.00104841 -0.00074012 -0.00044295 -0.000156897 0.000118039 0.000381858 0.000634559 0.000866255 0.00106706 0.00123697 0.00137599 0.00148411 0.00156134 0.00160768 0.00162313 0.00160768 0.00156134 0.00148411 0.00137599 0.00123697 0.00106706 0.000866255 0.000634559 0.000381858 0.000118039 -0.000156897 -0.00044295 -0.00074012 -0.00104841 -0.00136781 -0.00169834 -0.00202754 -0.00234298 -0.00264466 -0.00293258 -0.00320675 -0.00346715 -0.0037138 -0.00394668 -0.00415865 -0.00434256 -0.00449841 -0.00462619 -0.00472591 -0.00479756 -0.00484116 -0.00485668 -0.00484518 -0.00480768 -0.00474419 -0.0046547 -0.00453921 -0.00439773 -0.00423025 -0.00403677 -0.00382597 -0.00360652 -0.00337842 -0.00314167 -0.00289627 -0.00264221 -0.00237951 -0.00210816 -0.00184186 -0.0015943 -0.0013655 -0.00115544 -0.00096414 -0.000791585 -0.000637779 -0.000502724 -0.000384898 -0.000282782 -0.000196376 -0.000125681 -7.06955e-05 -3.14202e-05 -7.85506e-06 0 0 -9.45067e-06 -3.78027e-05 -8.5056e-05 -0.000151211 -0.000236267 -0.000340224 -0.000463083 -0.000604843 -0.000766828 -0.000950361 -0.00115544 -0.00138207 -0.00163025 -0.00189998 -0.00219126 -0.00250408 -0.00282178 -0.00312768 -0.00342177 -0.00370406 -0.00397455 -0.00423323 -0.00448011 -0.00471519 -0.00492796 -0.00510792 -0.00525506 -0.00536938 -0.00545089 -0.00549959 -0.00551546 -0.00549853 -0.00544771 -0.00536196 -0.00524128 -0.00508565 -0.00489509 -0.0046696 -0.00440917 -0.0041138 -0.00379273 -0.0034552 -0.00310122 -0.00273077 -0.00234386 -0.00194049 -0.00152067 -0.00108438 -0.000647478 -0.000225817 0.000180607 0.000571792 0.000947739 0.00130845 0.00165392 0.00198415 0.0022866 0.00254873 0.00277053 0.002952 0.00309314 0.00319396 0.00325445 0.00327461 0.00325445 0.00319396 0.00309314 0.002952 0.00277053 0.00254873 0.00228661 0.00198415 0.00165392 0.00130845 0.00094774 0.000571792 0.000180607 -0.000225816 -0.000647478 -0.00108438 -0.00152066 -0.00194049 -0.00234386 -0.00273077 -0.00310122 -0.0034552 -0.00379273 -0.0041138 -0.00440917 -0.0046696 -0.00489509 -0.00508565 -0.00524128 -0.00536196 -0.00544771 -0.00549853 -0.00551547 -0.00549959 -0.00545089 -0.00536939 -0.00525506 -0.00510792 -0.00492797 -0.00471519 -0.00448011 -0.00423323 -0.00397455 -0.00370406 -0.00342177 -0.00312768 -0.00282178 -0.00250408 -0.00219126 -0.00189998 -0.00163025 -0.00138208 -0.00115544 -0.000950362 -0.000766829 -0.000604843 -0.000463083 -0.000340224 -0.000236267 -0.000151211 -8.50561e-05 -3.78027e-05 -9.45068e-06 0 0 -1.1212e-05 -4.4848e-05 -0.000100908 -0.000179392 -0.0002803 -0.000403632 -0.000549388 -0.000717568 -0.000909155 -0.00112513 -0.0013655 -0.00163025 -0.0019194 -0.00223293 -0.00257086 -0.00293317 -0.00329987 -0.00365094 -0.00398638 -0.0043062 -0.0046104 -0.00489897 -0.00517191 -0.00542923 -0.00565837 -0.0058468 -0.0059945 -0.00610148 -0.00616774 -0.00619327 -0.00617809 -0.00612218 -0.00602451 -0.00588402 -0.00570073 -0.00547462 -0.0052057 -0.00489397 -0.00453943 -0.00414207 -0.0037136 -0.00326572 -0.00279841 -0.00231169 -0.00180555 -0.00127999 -0.00073501 -0.000170615 0.000393366 0.000937103 0.00146059 0.00196384 0.00244684 0.0029096 0.00335211 0.00377438 0.00416076 0.00449563 0.00477898 0.00501081 0.00519113 0.00531992 0.0053972 0.00542296 0.0053972 0.00531992 0.00519113 0.00501081 0.00477898 0.00449563 0.00416076 0.00377438 0.00335211 0.0029096 0.00244684 0.00196384 0.00146059 0.000937103 0.000393367 -0.000170615 -0.00073501 -0.00127999 -0.00180555 -0.00231169 -0.00279841 -0.00326572 -0.0037136 -0.00414207 -0.00453943 -0.00489397 -0.0052057 -0.00547462 -0.00570073 -0.00588402 -0.00602451 -0.00612218 -0.00617809 -0.00619327 -0.00616774 -0.00610148 -0.0059945 -0.0058468 -0.00565837 -0.00542923 -0.00517191 -0.00489897 -0.0046104 -0.00430621 -0.00398639 -0.00365094 -0.00329987 -0.00293317 -0.00257086 -0.00223293 -0.0019194 -0.00163025 -0.0013655 -0.00112513 -0.000909156 -0.000717569 -0.000549389 -0.000403633 -0.0002803 -0.000179392 -0.000100908 -4.48481e-05 -1.1212e-05 0 0 -1.31391e-05 -5.25562e-05 -0.000118251 -0.000210225 -0.000328476 -0.000473006 -0.000643814 -0.000840899 -0.00106476 -0.00131589 -0.0015943 -0.00189998 -0.00223293 -0.00259316 -0.00298066 -0.00339543 -0.00381377 -0.004212 -0.00459011 -0.0049481 -0.00528597 -0.00560373 -0.00590136 -0.00617887 -0.00642147 -0.00661435 -0.00675752 -0.00685098 -0.00689472 -0.00688874 -0.00683305 -0.00672765 -0.00657154 -0.00636375 -0.00610426 -0.00579309 -0.00543023 -0.00501567 -0.00454943 -0.0040315 -0.00347641 -0.00289869 -0.00229833 -0.00167534 -0.00102972 -0.000361462 0.000329427 0.00104295 0.00175472 0.00244035 0.00309984 0.0037332 0.00434041 0.00492149 0.00547643 0.00600523 0.00648873 0.00690777 0.00726233 0.00755243 0.00777807 0.00793923 0.00803593 0.00806817 0.00803593 0.00793923 0.00777807 0.00755243 0.00726233 0.00690777 0.00648873 0.00600523 0.00547643 0.00492149 0.00434041 0.0037332 0.00309984 0.00244035 0.00175472 0.00104295 0.000329427 -0.000361462 -0.00102972 -0.00167534 -0.00229833 -0.00289869 -0.00347641 -0.0040315 -0.00454943 -0.00501568 -0.00543023 -0.00579309 -0.00610426 -0.00636375 -0.00657154 -0.00672765 -0.00683305 -0.00688874 -0.00689472 -0.00685098 -0.00675752 -0.00661436 -0.00642147 -0.00617888 -0.00590136 -0.00560373 -0.00528598 -0.0049481 -0.00459011 -0.004212 -0.00381378 -0.00339543 -0.00298066 -0.00259316 -0.00223293 -0.00189998 -0.0015943 -0.0013159 -0.00106476 -0.0008409 -0.000643814 -0.000473006 -0.000328477 -0.000210225 -0.000118252 -5.25563e-05 -1.31391e-05 0 0 -1.52318e-05 -6.09273e-05 -0.000137086 -0.000243709 -0.000380795 -0.000548345 -0.000746359 -0.000974836 -0.00123364 -0.00152265 -0.00184185 -0.00219126 -0.00257086 -0.00298066 -0.00342065 -0.00389085 -0.0043635 -0.00481087 -0.00523295 -0.00562976 -0.00600127 -0.00634751 -0.00666846 -0.00696413 -0.00721726 -0.00741059 -0.00754413 -0.00761788 -0.00763183 -0.00758599 -0.00748035 -0.00731492 -0.00708881 -0.00680113 -0.00645188 -0.00604106 -0.00556867 -0.00503472 -0.00443919 -0.00378209 -0.00308116 -0.00235412 -0.00160098 -0.00082173 -1.63764e-05 0.000815083 0.00167265 0.00255632 0.00343658 0.00428392 0.00509835 0.00587986 0.00662845 0.00734413 0.00802688 0.00867672 0.00927051 0.00978513 0.0102206 0.0105769 0.010854 0.0110519 0.0111707 0.0112102 0.0111707 0.0110519 0.010854 0.0105769 0.0102206 0.00978513 0.00927051 0.00867672 0.00802688 0.00734413 0.00662845 0.00587986 0.00509835 0.00428392 0.00343658 0.00255632 0.00167265 0.000815083 -1.63762e-05 -0.00082173 -0.00160098 -0.00235412 -0.00308116 -0.00378209 -0.00443919 -0.00503472 -0.00556867 -0.00604106 -0.00645188 -0.00680113 -0.00708881 -0.00731493 -0.00748036 -0.00758599 -0.00763183 -0.00761788 -0.00754414 -0.00741059 -0.00721726 -0.00696413 -0.00666846 -0.00634751 -0.00600128 -0.00562976 -0.00523296 -0.00481087 -0.0043635 -0.00389085 -0.00342065 -0.00298066 -0.00257086 -0.00219126 -0.00184186 -0.00152265 -0.00123365 -0.000974837 -0.00074636 -0.000548346 -0.000380796 -0.000243709 -0.000137086 -6.09273e-05 -1.52318e-05 0 0 -1.74903e-05 -6.99612e-05 -0.000157413 -0.000279845 -0.000437257 -0.000629651 -0.000857024 -0.00111938 -0.00141581 -0.0017454 -0.00210816 -0.00250408 -0.00293317 -0.00339543 -0.00389085 -0.00441943 -0.00494904 -0.00544754 -0.00591491 -0.00635116 -0.0067563 -0.00713032 -0.00747321 -0.00778499 -0.00804573 -0.00823551 -0.00835433 -0.00840219 -0.00837909 -0.00828502 -0.00812 -0.00788401 -0.00757632 -0.00719618 -0.00674358 -0.00621854 -0.00562104 -0.00495109 -0.00420869 -0.00339384 -0.00252784 -0.00163202 -0.000706352 0.000249146 0.00123448 0.00224965 0.00329465 0.00436949 0.00543895 0.00646783 0.00745612 0.00840383 0.00931096 0.0101775 0.0110035 0.0117888 0.0125061 0.0131277 0.0136537 0.0140841 0.0144188 0.0146579 0.0148014 0.0148492 0.0148014 0.0146579 0.0144188 0.0140841 0.0136537 0.0131277 0.0125061 0.0117888 0.0110035 0.0101775 0.00931096 0.00840383 0.00745612 0.00646783 0.00543895 0.00436949 0.00329465 0.00224965 0.00123448 0.000249146 -0.000706352 -0.00163202 -0.00252784 -0.00339384 -0.00420869 -0.00495109 -0.00562104 -0.00621854 -0.00674358 -0.00719618 -0.00757632 -0.00788401 -0.00812 -0.00828502 -0.00837909 -0.00840219 -0.00835433 -0.00823552 -0.00804574 -0.007785 -0.00747322 -0.00713032 -0.0067563 -0.00635116 -0.00591491 -0.00544754 -0.00494905 -0.00441944 -0.00389085 -0.00339543 -0.00293317 -0.00250408 -0.00210816 -0.0017454 -0.00141581 -0.00111938 -0.000857025 -0.000629651 -0.000437258 -0.000279845 -0.000157413 -6.99612e-05 -1.74903e-05 0 0 -1.98065e-05 -7.92259e-05 -0.000178258 -0.000316904 -0.000495162 -0.000713034 -0.000970518 -0.00126762 -0.00160243 -0.00197306 -0.00237951 -0.00282178 -0.00329987 -0.00381377 -0.0043635 -0.00494904 -0.00553351 -0.00607999 -0.0065885 -0.00705902 -0.00749157 -0.00788614 -0.00824273 -0.00856134 -0.00881918 -0.00899346 -0.00908417 -0.00909132 -0.0090149 -0.00885492 -0.00861138 -0.00828427 -0.00787311 -0.00737742 -0.00679718 -0.00613241 -0.00538309 -0.00454924 -0.00363085 -0.00262792 -0.00156588 -0.000470161 0.000659234 0.00182231 0.00301906 0.00424949 0.0055136 0.00681138 0.00810117 0.00934127 0.0105317 0.0116724 0.0127635 0.0138049 0.0147965 0.0157386 0.0165984 0.0173436 0.0179741 0.0184901 0.0188913 0.0191779 0.0193499 0.0194072 0.0193499 0.0191779 0.0188913 0.0184901 0.0179741 0.0173436 0.0165984 0.0157386 0.0147965 0.0138049 0.0127635 0.0116724 0.0105317 0.00934127 0.00810117 0.00681138 0.0055136 0.00424949 0.00301906 0.00182231 0.000659234 -0.000470161 -0.00156588 -0.00262792 -0.00363085 -0.00454924 -0.00538309 -0.00613241 -0.00679718 -0.00737742 -0.00787312 -0.00828427 -0.00861138 -0.00885492 -0.0090149 -0.00909132 -0.00908417 -0.00899346 -0.00881918 -0.00856134 -0.00824273 -0.00788614 -0.00749158 -0.00705903 -0.0065885 -0.00607999 -0.00553351 -0.00494905 -0.0043635 -0.00381378 -0.00329987 -0.00282178 -0.00237951 -0.00197306 -0.00160243 -0.00126762 -0.000970519 -0.000713034 -0.000495163 -0.000316904 -0.000178259 -7.9226e-05 -1.98065e-05 0 0 -2.20724e-05 -8.82896e-05 -0.000198652 -0.000353158 -0.00055181 -0.000794606 -0.00108155 -0.00141263 -0.00178469 -0.00219455 -0.00264221 -0.00312768 -0.00365094 -0.004212 -0.00481087 -0.00544753 -0.00607999 -0.00666623 -0.00720625 -0.00770005 -0.00814762 -0.00854898 -0.00890412 -0.00921304 -0.00944988 -0.00958876 -0.00962969 -0.00957267 -0.0094177 -0.00916477 -0.0088139 -0.00836507 -0.00781825 -0.00717339 -0.0064305 -0.00558957 -0.00465061 -0.00361361 -0.00247857 -0.00124551 5.53269e-05 0.00139365 0.00276947 0.00418278 0.00563358 0.00712187 0.00864765 0.0102109 0.0117626 0.0132535 0.0146836 0.016053 0.0173616 0.0186094 0.0197965 0.0209228 0.0219503 0.0228408 0.0235942 0.0242107 0.0246902 0.0250327 0.0252382 0.0253067 0.0252382 0.0250327 0.0246902 0.0242107 0.0235942 0.0228408 0.0219503 0.0209228 0.0197965 0.0186094 0.0173616 0.016053 0.0146836 0.0132535 0.0117626 0.0102109 0.00864765 0.00712187 0.00563358 0.00418278 0.00276947 0.00139365 5.53267e-05 -0.00124551 -0.00247858 -0.00361361 -0.00465061 -0.00558957 -0.0064305 -0.00717339 -0.00781825 -0.00836507 -0.0088139 -0.00916477 -0.0094177 -0.00957267 -0.00962969 -0.00958876 -0.00944988 -0.00921305 -0.00890413 -0.00854899 -0.00814763 -0.00770005 -0.00720625 -0.00666623 -0.00607999 -0.00544754 -0.00481087 -0.00421201 -0.00365094 -0.00312768 -0.00264221 -0.00219455 -0.00178469 -0.00141263 -0.00108155 -0.000794607 -0.00055181 -0.000353159 -0.000198652 -8.82896e-05 -2.20724e-05 0 0 -2.4288e-05 -9.7152e-05 -0.000218592 -0.000388608 -0.0006072 -0.000874368 -0.00119011 -0.00155443 -0.0019626 -0.00240987 -0.00289626 -0.00342177 -0.00398638 -0.00459011 -0.00523295 -0.00591491 -0.0065885 -0.00720625 -0.00776816 -0.00827423 -0.00872445 -0.00911884 -0.00945739 -0.0097401 -0.00993782 -0.0100214 -0.0099909 -0.00984625 -0.00958747 -0.00921457 -0.00872755 -0.0081264 -0.00741171 -0.00658409 -0.00564353 -0.00459002 -0.00342358 -0.00214419 -0.000751869 0.000753397 0.00233577 0.00395942 0.00562435 0.00733055 0.00907803 0.0108668 0.0126968 0.0145681 0.0164232 0.0182044 0.0199118 0.0215454 0.0231052 0.0245912 0.0260033 0.0273417 0.0285618 0.0296192 0.030514 0.031246 0.0318154 0.0322221 0.0324661 0.0325475 0.0324661 0.0322221 0.0318154 0.031246 0.030514 0.0296192 0.0285618 0.0273417 0.0260033 0.0245912 0.0231052 0.0215454 0.0199118 0.0182044 0.0164232 0.0145681 0.0126968 0.0108668 0.00907803 0.00733055 0.00562435 0.00395942 0.00233577 0.000753397 -0.000751869 -0.00214419 -0.00342358 -0.00459002 -0.00564353 -0.00658409 -0.00741172 -0.0081264 -0.00872755 -0.00921457 -0.00958747 -0.00984625 -0.0099909 -0.0100214 -0.00993783 -0.0097401 -0.00945739 -0.00911885 -0.00872446 -0.00827423 -0.00776816 -0.00720625 -0.0065885 -0.00591491 -0.00523296 -0.00459011 -0.00398639 -0.00342177 -0.00289627 -0.00240988 -0.0019626 -0.00155443 -0.00119011 -0.000874369 -0.000607201 -0.000388608 -0.000218592 -9.71521e-05 -2.4288e-05 0 0 -2.64533e-05 -0.000105813 -0.00023808 -0.000423254 -0.000661334 -0.00095232 -0.00129621 -0.00169301 -0.00213614 -0.00261903 -0.00314167 -0.00370