<?xml version="1.0"?> 
<VTKFile type="StructuredGrid" version="0.1"> 
<StructuredGrid WholeExtent="0 128 0 128 0 0"> 
<Piece Extent="0 128 0 128 0 0"> 
<PointData>
<DataArray type="Float32" Name="u" format="ascii" NumberOfComponents="1"> 
0 0 0 0 0 0 0 0 0 0 0 0 0 0 0 0 0 0 0 0 0 0 0 0 0 0 0 0 0 0 0 0 0 0 0 0 0 0 0 0 0 0 0 0 0 0 0 0 0 0 0 0 0 0 0 0 0 0 0 0 0 0 0 0 0 0 0 0 0 0 0 0 0 0 0 0 0 0 0 0 0 0 0 0 0 0 0 0 0 0 0 0 0 0 0 0 0 0 0 0 0 0 0 0 0 0 0 0 0 0 0 0 0 0 0 0 0 0 0 0 0 0 0 0 0 0 0 0 0 0 -6.36884e-08 -2.54754e-07 -5.73196e-07 -1.01901e-06 -1.59221e-06 -2.29278e-06 -3.12073e-06 -4.07606e-06 -5.18065e-06 -6.4564e-06 -7.9033e-06 -9.52135e-06 -1.13106e-05 -1.32709e-05 -1.54024e-05 -1.77051e-05 -2.0073e-05 -2.24e-05 -2.46862e-05 -2.69316e-05 -2.91362e-05 -3.13e-05 -3.34229e-05 -3.5505e-05 -3.74793e-05 -3.92784e-05 -4.09025e-05 -4.23515e-05 -4.36255e-05 -4.47244e-05 -4.56482e-05 -4.6397e-05 -4.69602e-05 -4.73274e-05 -4.74985e-05 -4.74736e-05 -4.72527e-05 -4.68357e-05 -4.62227e-05 -4.54137e-05 -4.44526e-05 -4.33837e-05 -4.22069e-05 -4.09222e-05 -3.95297e-05 -3.80292e-05 -3.64208e-05 -3.47046e-05 -3.29586e-05 -3.1261e-05 -2.96119e-05 -2.80111e-05 -2.64588e-05 -2.4955e-05 -2.34995e-05 -2.20925e-05 -2.07961e-05 -1.96726e-05 -1.87219e-05 -1.7944e-05 -1.7339e-05 -1.69069e-05 -1.66476e-05 -1.65612e-05 -1.66476e-05 -1.69069e-05 -1.7339e-05 -1.7944e-05 -1.87219e-05 -1.96726e-05 -2.07961e-05 -2.20925e-05 -2.34995e-05 -2.4955e-05 -2.64588e-05 -2.80111e-05 -2.96119e-05 -3.1261e-05 -3.29586e-05 -3.47046e-05 -3.64208e-05 -3.80292e-05 -3.95297e-05 -4.09222e-05 -4.22069e-05 -4.33837e-05 -4.44526e-05 -4.54137e-05 -4.62227e-05 -4.68357e-05 -4.72527e-05 -4.74736e-05 -4.74985e-05 -4.73274e-05 -4.69602e-05 -4.6397e-05 -4.56482e-05 -4.47244e-05 -4.36255e-05 -4.23515e-05 -4.09025e-05 -3.92784e-05 -3.74793e-05 -3.55051e-05 -3.34229e-05 -3.13e-05 -2.91362e-05 -2.69316e-05 -2.46862e-05 -2.24e-05 -2.0073e-05 -1.77051e-05 -1.54025e-05 -1.32709e-05 -1.13106e-05 -9.52136e-06 -7.9033e-06 -6.4564e-06 -5.18066e-06 -4.07606e-06 -3.12074e-06 -2.29279e-06 -1.59221e-06 -1.01902e-06 -5.73196e-07 -2.54754e-07 -6.36885e-08 0 0 -2.54754e-07 -1.01901e-06 -2.29278e-06 -4.07606e-06 -6.36884e-06 -9.17113e-06 -1.24829e-05 -1.63042e-05 -2.07226e-05 -2.58256e-05 -3.16132e-05 -3.80854e-05 -4.52422e-05 -5.30837e-05 -6.16098e-05 -7.08205e-05 -8.02918e-05 -8.95999e-05 -9.87448e-05 -0.000107726 -0.000116545 -0.0001252 -0.000133692 -0.00014202 -0.000149917 -0.000157114 -0.00016361 -0.000169406 -0.000174502 -0.000178897 -0.000182593 -0.000185588 -0.000187841 -0.000189309 -0.000189994 -0.000189895 -0.000189011 -0.000187343 -0.000184891 -0.000181655 -0.000177811 -0.000173535 -0.000168828 -0.000163689 -0.000158119 -0.000152117 -0.000145683 -0.000138818 -0.000131834 -0.000125044 -0.000118447 -0.000112045 -0.000105835 -9.98198e-05 -9.3998e-05 -8.83699e-05 -8.31844e-05 -7.86902e-05 -7.48875e-05 -7.17761e-05 -6.93562e-05 -6.76277e-05 -6.65906e-05 -6.62449e-05 -6.65906e-05 -6.76277e-05 -6.93562e-05 -7.17761e-05 -7.48875e-05 -7.86902e-05 -8.31844e-05 -8.83699e-05 -9.3998e-05 -9.98198e-05 -0.000105835 -0.000112045 -0.000118447 -0.000125044 -0.000131834 -0.000138818 -0.000145683 -0.000152117 -0.000158119 -0.000163689 -0.000168828 -0.000173535 -0.000177811 -0.000181655 -0.000184891 -0.000187343 -0.000189011 -0.000189895 -0.000189994 -0.00018931 -0.000187841 -0.000185588 -0.000182593 -0.000178897 -0.000174502 -0.000169406 -0.00016361 -0.000157114 -0.000149917 -0.00014202 -0.000133692 -0.0001252 -0.000116545 -0.000107726 -9.87448e-05 -8.96e-05 -8.02919e-05 -7.08205e-05 -6.16098e-05 -5.30837e-05 -4.52423e-05 -3.80854e-05 -3.16132e-05 -2.58256e-05 -2.07226e-05 -1.63043e-05 -1.24829e-05 -9.17114e-06 -6.36885e-06 -4.07606e-06 -2.29279e-06 -1.01902e-06 -2.54754e-07 0 0 -5.73196e-07 -2.29278e-06 -5.15876e-06 -9.17113e-06 -1.43299e-05 -2.0635e-05 -2.80866e-05 -3.66845e-05 -4.66259e-05 -5.81076e-05 -7.11297e-05 -8.56922e-05 -0.000101795 -0.000119438 -0.000138622 -0.000159346 -0.000180657 -0.0002016 -0.000222176 -0.000242384 -0.000262226 -0.0002817 -0.000300806 -0.000319545 -0.000337313 -0.000353506 -0.000368122 -0.000381163 -0.000392629 -0.000402519 -0.000410834 -0.000417573 -0.000422642 -0.000425946 -0.000427487 -0.000427263 -0.000425274 -0.000421522 -0.000416004 -0.000408723 -0.000400074 -0.000390454 -0.000379862 -0.0003683 -0.000355767 -0.000342263 -0.000327787 -0.000312341 -0.000296627 -0.000281349 -0.000266507 -0.0002521 -0.00023813 -0.000224595 -0.000211496 -0.000198832 -0.000187165 -0.000177053 -0.000168497 -0.000161496 -0.000156051 -0.000152162 -0.000149829 -0.000149051 -0.000149829 -0.000152162 -0.000156051 -0.000161496 -0.000168497 -0.000177053 -0.000187165 -0.000198832 -0.000211496 -0.000224595 -0.000238129 -0.0002521 -0.000266507 -0.000281349 -0.000296627 -0.000312341 -0.000327787 -0.000342263 -0.000355767 -0.0003683 -0.000379862 -0.000390454 -0.000400074 -0.000408723 -0.000416004 -0.000421522 -0.000425274 -0.000427263 -0.000427487 -0.000425946 -0.000422642 -0.000417573 -0.000410834 -0.000402519 -0.000392629 -0.000381164 -0.000368122 -0.000353506 -0.000337313 -0.000319546 -0.000300806 -0.0002817 -0.000262226 -0.000242384 -0.000222176 -0.0002016 -0.000180657 -0.000159346 -0.000138622 -0.000119438 -0.000101795 -8.56922e-05 -7.11297e-05 -5.81076e-05 -4.66259e-05 -3.66846e-05 -2.80866e-05 -2.06351e-05 -1.43299e-05 -9.17114e-06 -5.15877e-06 -2.29279e-06 -5.73196e-07 0 0 -1.01901e-06 -4.07606e-06 -9.17113e-06 -1.63042e-05 -2.54754e-05 -3.66845e-05 -4.99317e-05 -6.52169e-05 -8.28904e-05 -0.000103302 -0.000126453 -0.000152342 -0.000180969 -0.000212335 -0.000246439 -0.000283282 -0.000321167 -0.0003584 -0.000394979 -0.000430906 -0.000466179 -0.000500799 -0.000534767 -0.000568081 -0.000599668 -0.000628454 -0.00065444 -0.000677624 -0.000698007 -0.00071559 -0.000730371 -0.000742351 -0.000751363 -0.000757238 -0.000759976 -0.000759578 -0.000756043 -0.000749372 -0.000739563 -0.000726619 -0.000711242 -0.00069414 -0.000675311 -0.000654756 -0.000632475 -0.000608467 -0.000582733 -0.000555273 -0.000527337 -0.000500176 -0.00047379 -0.000448178 -0.000423341 -0.000399279 -0.000375992 -0.00035348 -0.000332737 -0.000314761 -0.00029955 -0.000287104 -0.000277425 -0.000270511 -0.000266362 -0.000264979 -0.000266362 -0.000270511 -0.000277425 -0.000287104 -0.00029955 -0.000314761 -0.000332737 -0.00035348 -0.000375992 -0.000399279 -0.000423341 -0.000448178 -0.00047379 -0.000500176 -0.000527337 -0.000555273 -0.000582733 -0.000608467 -0.000632475 -0.000654756 -0.000675311 -0.00069414 -0.000711242 -0.000726619 -0.000739563 -0.000749372 -0.000756043 -0.000759578 -0.000759976 -0.000757238 -0.000751363 -0.000742351 -0.000730371 -0.00071559 -0.000698007 -0.000677624 -0.00065444 -0.000628454 -0.000599668 -0.000568081 -0.000534767 -0.000500799 -0.000466179 -0.000430906 -0.000394979 -0.0003584 -0.000321167 -0.000283282 -0.000246439 -0.000212335 -0.000180969 -0.000152342 -0.000126453 -0.000103302 -8.28905e-05 -6.5217e-05 -4.99318e-05 -3.66846e-05 -2.54754e-05 -1.63043e-05 -9.17114e-06 -4.07606e-06 -1.01902e-06 0 0 -1.59221e-06 -6.36884e-06 -1.43299e-05 -2.54754e-05 -3.98053e-05 -5.73196e-05 -7.80183e-05 -0.000101901 -0.000129516 -0.00016141 -0.000197582 -0.000238034 -0.000282764 -0.000331773 -0.000385061 -0.000442628 -0.000501824 -0.00056 -0.000617155 -0.00067329 -0.000728405 -0.000782499 -0.000835573 -0.000887626 -0.000936981 -0.00098196 -0.00102256 -0.00105879 -0.00109064 -0.00111811 -0.0011412 -0.00115992 -0.001174 -0.00118318 -0.00118746 -0.00118684 -0.00118132 -0.00117089 -0.00115557 -0.00113534 -0.00111132 -0.00108459 -0.00105517 -0.00102306 -0.000988242 -0.00095073 -0.000910521 -0.000867614 -0.000823964 -0.000781525 -0.000740296 -0.000700278 -0.000661471 -0.000623874 -0.000587488 -0.000552312 -0.000519902 -0.000491814 -0.000468047 -0.000448601 -0.000433476 -0.000422673 -0.000416191 -0.00041403 -0.000416191 -0.000422673 -0.000433476 -0.000448601 -0.000468047 -0.000491814 -0.000519902 -0.000552312 -0.000587488 -0.000623874 -0.000661471 -0.000700278 -0.000740296 -0.000781525 -0.000823964 -0.000867614 -0.000910521 -0.00095073 -0.000988242 -0.00102306 -0.00105517 -0.00108459 -0.00111132 -0.00113534 -0.00115557 -0.00117089 -0.00118132 -0.00118684 -0.00118746 -0.00118318 -0.001174 -0.00115992 -0.0011412 -0.00111811 -0.00109064 -0.00105879 -0.00102256 -0.00098196 -0.000936981 -0.000887626 -0.000835573 -0.000782499 -0.000728405 -0.00067329 -0.000617155 -0.00056 -0.000501824 -0.000442628 -0.000385061 -0.000331773 -0.000282764 -0.000238034 -0.000197583 -0.00016141 -0.000129516 -0.000101902 -7.80184e-05 -5.73196e-05 -3.98053e-05 -2.54754e-05 -1.43299e-05 -6.36885e-06 -1.59221e-06 0 0 -2.29278e-06 -9.17113e-06 -2.0635e-05 -3.66845e-05 -5.73196e-05 -8.25402e-05 -0.000112346 -0.000146738 -0.000186503 -0.00023243 -0.000284519 -0.000342769 -0.00040718 -0.000477753 -0.000554488 -0.000637384 -0.000722626 -0.000806399 -0.000888703 -0.000969537 -0.0010489 -0.0011268 -0.00120322 -0.00127818 -0.00134925 -0.00141402 -0.00147249 -0.00152465 -0.00157052 -0.00161008 -0.00164333 -0.00167029 -0.00169057 -0.00170379 -0.00170995 -0.00170905 -0.0017011 -0.00168609 -0.00166402 -0.00163489 -0.0016003 -0.00156181 -0.00151945 -0.0014732 -0.00142307 -0.00136905 -0.00131115 -0.00124936 -0.00118651 -0.0011254 -0.00106603 -0.0010084 -0.000952518 -0.000898379 -0.000845982 -0.000795329 -0.000748659 -0.000708212 -0.000673987 -0.000645985 -0.000624206 -0.000608649 -0.000599315 -0.000596204 -0.000599315 -0.000608649 -0.000624206 -0.000645985 -0.000673987 -0.000708212 -0.000748659 -0.000795329 -0.000845982 -0.000898378 -0.000952518 -0.0010084 -0.00106603 -0.0011254 -0.00118651 -0.00124936 -0.00131115 -0.00136905 -0.00142307 -0.0014732 -0.00151945 -0.00156181 -0.0016003 -0.00163489 -0.00166402 -0.00168609 -0.0017011 -0.00170905 -0.00170995 -0.00170379 -0.00169057 -0.00167029 -0.00164333 -0.00161008 -0.00157052 -0.00152465 -0.00147249 -0.00141402 -0.00134925 -0.00127818 -0.00120322 -0.0011268 -0.0010489 -0.000969538 -0.000888703 -0.0008064 -0.000722627 -0.000637384 -0.000554488 -0.000477754 -0.00040718 -0.000342769 -0.000284519 -0.00023243 -0.000186504 -0.000146738 -0.000112346 -8.25403e-05 -5.73196e-05 -3.66846e-05 -2.06351e-05 -9.17114e-06 -2.29279e-06 0 0 -3.12073e-06 -1.24829e-05 -2.80866e-05 -4.99317e-05 -7.80183e-05 -0.000112346 -0.000152916 -0.000199727 -0.000253852 -0.000316363 -0.000387262 -0.000466546 -0.000554217 -0.000650275 -0.00075472 -0.000867551 -0.000983575 -0.0010976 -0.00120962 -0.00131965 -0.00142767 -0.0015337 -0.00163772 -0.00173975 -0.00183648 -0.00192464 -0.00200422 -0.00207522 -0.00213765 -0.00219149 -0.00223676 -0.00227345 -0.00230105 -0.00231904 -0.00232743 -0.00232621 -0.00231538 -0.00229495 -0.00226491 -0.00222527 -0.00217818 -0.0021258 -0.00206814 -0.00200519 -0.00193695 -0.00186343 -0.00178462 -0.00170052 -0.00161497 -0.00153179 -0.00145098 -0.00137255 -0.00129648 -0.00122279 -0.00115148 -0.00108253 -0.00101901 -0.000963955 -0.000917371 -0.000879258 -0.000849613 -0.000828439 -0.000815734 -0.0008115 -0.000815734 -0.000828439 -0.000849613 -0.000879257 -0.000917371 -0.000963955 -0.00101901 -0.00108253 -0.00115148 -0.00122279 -0.00129648 -0.00137255 -0.00145098 -0.00153179 -0.00161497 -0.00170052 -0.00178462 -0.00186343 -0.00193695 -0.00200519 -0.00206814 -0.0021258 -0.00217818 -0.00222527 -0.00226491 -0.00229495 -0.00231538 -0.00232621 -0.00232743 -0.00231904 -0.00230105 -0.00227345 -0.00223676 -0.00219149 -0.00213765 -0.00207522 -0.00200422 -0.00192464 -0.00183648 -0.00173975 -0.00163772 -0.0015337 -0.00142767 -0.00131965 -0.00120962 -0.0010976 -0.000983575 -0.000867551 -0.00075472 -0.000650276 -0.000554218 -0.000466547 -0.000387262 -0.000316364 -0.000253852 -0.000199727 -0.000152916 -0.000112346 -7.80184e-05 -4.99318e-05 -2.80866e-05 -1.24829e-05 -3.12074e-06 0 0 -4.07606e-06 -1.63042e-05 -3.66845e-05 -6.52169e-05 -0.000101901 -0.000146738 -0.000199727 -0.000260868 -0.000331562 -0.000413209 -0.000505811 -0.000609366 -0.000723876 -0.000849339 -0.000985756 -0.00113313 -0.00128467 -0.0014336 -0.00157992 -0.00172362 -0.00186472 -0.0020032 -0.00213907 -0.00227232 -0.00239867 -0.00251382 -0.00261776 -0.0027105 -0.00279203 -0.00286236 -0.00292148 -0.00296941 -0.00300545 -0.00302895 -0.00303991 -0.00303831 -0.00302417 -0.00299749 -0.00295825 -0.00290647 -0.00284497 -0.00277656 -0.00270124 -0.00261902 -0.0025299 -0.00243387 -0.00233093 -0.00222109 -0.00210935 -0.0020007 -0.00189516 -0.00179271 -0.00169337 -0.00159712 -0.00150397 -0.00141392 -0.00133095 -0.00125904 -0.0011982 -0.00114842 -0.0011097 -0.00108204 -0.00106545 -0.00105992 -0.00106545 -0.00108204 -0.0011097 -0.00114842 -0.0011982 -0.00125904 -0.00133095 -0.00141392 -0.00150397 -0.00159712 -0.00169337 -0.00179271 -0.00189516 -0.0020007 -0.00210935 -0.00222109 -0.00233093 -0.00243387 -0.0025299 -0.00261902 -0.00270124 -0.00277656 -0.00284497 -0.00290647 -0.00295825 -0.00299749 -0.00302417 -0.00303831 -0.00303991 -0.00302895 -0.00300545 -0.00296941 -0.00292148 -0.00286236 -0.00279203 -0.0027105 -0.00261776 -0.00251382 -0.00239867 -0.00227232 -0.00213907 -0.0020032 -0.00186472 -0.00172362 -0.00157992 -0.0014336 -0.00128467 -0.00113313 -0.000985757 -0.00084934 -0.000723876 -0.000609367 -0.000505811 -0.00041321 -0.000331562 -0.000260868 -0.000199727 -0.000146738 -0.000101902 -6.5217e-05 -3.66846e-05 -1.63043e-05 -4.07606e-06 0 0 -5.18065e-06 -2.07226e-05 -4.66259e-05 -8.28904e-05 -0.000129516 -0.000186503 -0.000253852 -0.000331562 -0.000421312 -0.000524781 -0.00064197 -0.000772879 -0.000917507 -0.00107585 -0.00124792 -0.00143371 -0.00162455 -0.0018118 -0.00199544 -0.00217548 -0.00235192 -0.00252476 -0.002694 -0.00285964 -0.0030162 -0.00315821 -0.00328567 -0.00339859 -0.00349695 -0.00358077 -0.00365003 -0.00370475 -0.0037441 -0.00376727 -0.00377426 -0.00376507 -0.0037397 -0.00369815 -0.00364042 -0.00356651 -0.00348013 -0.00338499 -0.0032811 -0.00316845 -0.00304705 -0.0029169 -0.00277798 -0.00263031 -0.00248043 -0.00233485 -0.00219359 -0.00205664 -0.001924 -0.00179568 -0.00167167 -0.00155197 -0.00144177 -0.00134627 -0.00126546 -0.00119935 -0.00114792 -0.00111119 -0.00108915 -0.00108181 -0.00108915 -0.00111119 -0.00114792 -0.00119935 -0.00126546 -0.00134627 -0.00144177 -0.00155197 -0.00167167 -0.00179568 -0.001924 -0.00205664 -0.00219359 -0.00233485 -0.00248042 -0.00263031 -0.00277798 -0.0029169 -0.00304705 -0.00316845 -0.0032811 -0.00338499 -0.00348013 -0.00356651 -0.00364042 -0.00369815 -0.0037397 -0.00376507 -0.00377426 -0.00376727 -0.0037441 -0.00370475 -0.00365003 -0.00358077 -0.00349695 -0.00339859 -0.00328567 -0.00315821 -0.0030162 -0.00285964 -0.002694 -0.00252476 -0.00235192 -0.00217548 -0.00199544 -0.0018118 -0.00162455 -0.00143371 -0.00124792 -0.00107585 -0.000917507 -0.000772879 -0.000641971 -0.000524782 -0.000421312 -0.000331562 -0.000253852 -0.000186504 -0.000129516 -8.28905e-05 -4.66259e-05 -2.07226e-05 -5.18066e-06 0 0 -6.4564e-06 -2.58256e-05 -5.81076e-05 -0.000103302 -0.00016141 -0.00023243 -0.000316363 -0.000413209 -0.000524781 -0.000652892 -0.000797543 -0.000958732 -0.00113646 -0.00133073 -0.00154154 -0.00176888 -0.00200187 -0.00222959 -0.00245205 -0.00266925 -0.00288118 -0.00308785 -0.00328926 -0.00348541 -0.00366943 -0.00383448 -0.00398053 -0.00410761 -0.0042157 -0.00430481 -0.00437493 -0.00442607 -0.00445732 -0.00446776 -0.00445738 -0.0044262 -0.00437421 -0.0043014 -0.00420779 -0.00409337 -0.00396312 -0.00382201 -0.00367005 -0.00350723 -0.00333357 -0.00314904 -0.00295367 -0.00274744 -0.00253898 -0.00233693 -0.00214129 -0.00195205 -0.00176922 -0.00159279 -0.00142277 -0.00125916 -0.00110877 -0.000978436 -0.000868152 -0.000777921 -0.000707741 -0.000657612 -0.000627535 -0.000617509 -0.000627535 -0.000657612 -0.00070774 -0.000777921 -0.000868152 -0.000978435 -0.00110877 -0.00125916 -0.00142277 -0.00159279 -0.00176922 -0.00195205 -0.00214129 -0.00233693 -0.00253898 -0.00274744 -0.00295367 -0.00314904 -0.00333357 -0.00350723 -0.00367005 -0.00382201 -0.00396312 -0.00409337 -0.00420779 -0.0043014 -0.00437421 -0.0044262 -0.00445738 -0.00446776 -0.00445732 -0.00442608 -0.00437493 -0.00430481 -0.0042157 -0.00410761 -0.00398053 -0.00383448 -0.00366944 -0.00348541 -0.00328926 -0.00308785 -0.00288118 -0.00266925 -0.00245205 -0.00222959 -0.00200187 -0.00176888 -0.00154154 -0.00133073 -0.00113646 -0.000958733 -0.000797543 -0.000652893 -0.000524782 -0.00041321 -0.000316364 -0.00023243 -0.00016141 -0.000103302 -5.81076e-05 -2.58256e-05 -6.4564e-06 0 0 -7.9033e-06 -3.16132e-05 -7.11297e-05 -0.000126453 -0.000197582 -0.000284519 -0.000387262 -0.000505811 -0.00064197 -0.000797543 -0.000972528 -0.00116693 -0.00138074 -0.00161396 -0.0018666 -0.00213865 -0.00241661 -0.00268698 -0.00294974 -0.00320492 -0.00345249 -0.00369247 -0.00392486 -0.00414965 -0.00435839 -0.00454262 -0.00470234 -0.00483756 -0.00494828 -0.00503449 -0.00509619 -0.00513338 -0.00514511 -0.0051304 -0.00508926 -0.00502169 -0.00492768 -0.00480724 -0.00466037 -0.00448706 -0.00429394 -0.00408762 -0.00386809 -0.00363536 -0.00338944 -0.00313031 -0.00285798 -0.00257245 -0.00228501 -0.00200695 -0.00173826 -0.00147895 -0.00122902 -0.000988465 -0.000757286 -0.000535484 -0.00033194 -0.000155535 -6.26892e-06 0.000115858 0.000210845 0.000278693 0.000319402 0.000332972 0.000319402 0.000278693 0.000210845 0.000115858 -6.26879e-06 -0.000155535 -0.00033194 -0.000535484 -0.000757286 -0.000988465 -0.00122902 -0.00147895 -0.00173826 -0.00200695 -0.00228501 -0.00257245 -0.00285798 -0.00313031 -0.00338944 -0.00363536 -0.00386809 -0.00408762 -0.00429394 -0.00448706 -0.00466037 -0.00480724 -0.00492768 -0.00502169 -0.00508926 -0.0051304 -0.00514511 -0.00513338 -0.00509619 -0.00503449 -0.00494828 -0.00483756 -0.00470234 -0.00454262 -0.00435839 -0.00414965 -0.00392486 -0.00369247 -0.00345249 -0.00320492 -0.00294974 -0.00268698 -0.00241661 -0.00213865 -0.0018666 -0.00161396 -0.00138074 -0.00116693 -0.000972529 -0.000797543 -0.000641971 -0.000505811 -0.000387262 -0.000284519 -0.000197583 -0.000126453 -7.11297e-05 -3.16132e-05 -7.9033e-06 0 0 -9.52135e-06 -3.80854e-05 -8.56922e-05 -0.000152342 -0.000238034 -0.000342769 -0.000466546 -0.000609366 -0.000772879 -0.000958732 -0.00116693 -0.00139746 -0.00165034 -0.00192556 -0.00222312 -0.00254302 -0.00286879 -0.00318396 -0.00348853 -0.00378249 -0.00406586 -0.00433862 -0.00460079 -0.00485235 -0.00508305 -0.00528263 -0.0054511 -0.00558845 -0.00569468 -0.0057698 -0.0058138 -0.00582668 -0.00580747 -0.00575521 -0.00566991 -0.00555155 -0.00540013 -0.00521567 -0.00499815 -0.00474758 -0.00447259 -0.00418181 -0.00387522 -0.00355284 -0.00321467 -0.0028607 -0.00249093 -0.00210537 -0.00171853 -0.00134491 -0.000984515 -0.000637349 -0.00030341 1.73031e-05 0.000324789 0.000619049 0.000888718 0.00112243 0.00132019 0.00148199 0.00160783 0.00169772 0.00175166 0.00176964 0.00175166 0.00169772 0.00160783 0.00148199 0.00132019 0.00112243 0.000888718 0.00061905 0.00032479 1.73033e-05 -0.00030341 -0.000637349 -0.000984515 -0.00134491 -0.00171853 -0.00210537 -0.00249093 -0.0028607 -0.00321467 -0.00355284 -0.00387522 -0.00418181 -0.00447259 -0.00474758 -0.00499815 -0.00521567 -0.00540013 -0.00555155 -0.00566991 -0.00575521 -0.00580747 -0.00582668 -0.0058138 -0.0057698 -0.00569469 -0.00558845 -0.0054511 -0.00528264 -0.00508305 -0.00485235 -0.00460079 -0.00433862 -0.00406586 -0.00378249 -0.00348853 -0.00318396 -0.00286879 -0.00254302 -0.00222312 -0.00192556 -0.00165034 -0.00139746 -0.00116693 -0.000958733 -0.000772879 -0.000609367 -0.000466547 -0.000342769 -0.000238034 -0.000152342 -8.56922e-05 -3.80854e-05 -9.52136e-06 0 0 -1.13106e-05 -4.52422e-05 -0.000101795 -0.000180969 -0.000282764 -0.00040718 -0.000554217 -0.000723876 -0.000917506 -0.00113646 -0.00138074 -0.00165034 -0.00194526 -0.00226551 -0.00261108 -0.00298198 -0.0033584 -0.00372054 -0.00406839 -0.00440198 -0.00472128 -0.0050263 -0.00531705 -0.00559351 -0.00584343 -0.00605453 -0.00622681 -0.00636027 -0.00645492 -0.00651075 -0.00652776 -0.00650595 -0.0064444 -0.00634219 -0.00619931 -0.00601577 -0.00579156 -0.00552668 -0.00522114 -0.00487494 -0.00449908 -0.00410458 -0.00369145 -0.00325967 -0.00280926 -0.00234021 -0.00185252 -0.00134619 -0.000839519 -0.000350803 0.000119959 0.000572765 0.00100762 0.00142451 0.00182346 0.00220444 0.0025532 0.00285546 0.00311122 0.00332047 0.00348323 0.00359948 0.00366923 0.00369248 0.00366923 0.00359948 0.00348323 0.00332047 0.00311122 0.00285546 0.0025532 0.00220444 0.00182346 0.00142451 0.00100762 0.000572765 0.000119959 -0.000350802 -0.000839518 -0.00134619 -0.00185252 -0.00234021 -0.00280926 -0.00325967 -0.00369145 -0.00410458 -0.00449908 -0.00487494 -0.00522114 -0.00552668 -0.00579156 -0.00601577 -0.00619931 -0.00634219 -0.0064444 -0.00650595 -0.00652776 -0.00651075 -0.00645492 -0.00636027 -0.00622681 -0.00605453 -0.00584343 -0.00559351 -0.00531705 -0.0050263 -0.00472128 -0.00440198 -0.0040684 -0.00372054 -0.0033584 -0.00298198 -0.00261109 -0.00226551 -0.00194527 -0.00165034 -0.00138074 -0.00113646 -0.000917507 -0.000723876 -0.000554218 -0.000407181 -0.000282764 -0.000180969 -0.000101795 -4.52423e-05 -1.13106e-05 0 0 -1.32709e-05 -5.30837e-05 -0.000119438 -0.000212335 -0.000331773 -0.000477753 -0.000650275 -0.000849339 -0.00107585 -0.00133073 -0.00161396 -0.00192556 -0.00226551 -0.00263383 -0.0030305 -0.00345554 -0.00388544 -0.00429671 -0.00468935 -0.00506336 -0.00541875 -0.00575551 -0.00607364 -0.00637314 -0.00663952 -0.00685829 -0.00702946 -0.00715303 -0.00722898 -0.00725733 -0.00723807 -0.00717121 -0.00705591 -0.00689133 -0.00667748 -0.00641435 -0.00610195 -0.00574028 -0.00532934 -0.00486912 -0.00437339 -0.00385594 -0.00331676 -0.00275585 -0.00217321 -0.00156884 -0.000942736 -0.000294905 0.000352011 0.000975365 0.00157516 0.00215139 0.00270406 0.00323317 0.00373871 0.0042207 0.00466151 0.00504356 0.00536682 0.00563131 0.00583703 0.00598396 0.00607213 0.00610152 0.00607213 0.00598396 0.00583703 0.00563131 0.00536682 0.00504356 0.00466152 0.0042207 0.00373871 0.00323317 0.00270406 0.00215139 0.00157516 0.000975365 0.000352011 -0.000294904 -0.000942736 -0.00156884 -0.00217321 -0.00275585 -0.00331676 -0.00385594 -0.00437339 -0.00486912 -0.00532934 -0.00574028 -0.00610195 -0.00641435 -0.00667748 -0.00689133 -0.00705591 -0.00717121 -0.00723807 -0.00725733 -0.00722898 -0.00715303 -0.00702946 -0.0068583 -0.00663952 -0.00637314 -0.00607364 -0.00575551 -0.00541875 -0.00506337 -0.00468935 -0.00429671 -0.00388544 -0.00345554 -0.0030305 -0.00263383 -0.00226551 -0.00192556 -0.00161396 -0.00133073 -0.00107585 -0.00084934 -0.000650276 -0.000477754 -0.000331773 -0.000212335 -0.000119438 -5.30837e-05 -1.32709e-05 0 0 -1.54024e-05 -6.16098e-05 -0.000138622 -0.000246439 -0.000385061 -0.000554488 -0.00075472 -0.000985756 -0.00124792 -0.00154154 -0.0018666 -0.00222312 -0.00261108 -0.0030305 -0.00348137 -0.00396369 -0.00444991 -0.00491247 -0.00535139 -0.00576666 -0.00615828 -0.00652624 -0.00687056 -0.00719122 -0.00747132 -0.00769394 -0.00785907 -0.00796671 -0.00801687 -0.00800955 -0.00794474 -0.00782245 -0.00764198 -0.00740263 -0.00710441 -0.0067473 -0.00633132 -0.00585647 -0.00532274 -0.00473013 -0.00409554 -0.00343589 -0.00275117 -0.00204138 -0.00130652 -0.000546587 0.000238412 0.00104848 0.00185606 0.0026336 0.00338108 0.00409852 0.00478592 0.00544326 0.00607056 0.00666781 0.00721365 0.00768672 0.008087 0.0084145 0.00866923 0.00885117 0.00896034 0.00899673 0.00896034 0.00885117 0.00866923 0.0084145 0.008087 0.00768672 0.00721365 0.00666781 0.00607056 0.00544326 0.00478592 0.00409852 0.00338108 0.0026336 0.00185606 0.00104848 0.000238413 -0.000546587 -0.00130652 -0.00204138 -0.00275117 -0.00343589 -0.00409554 -0.00473013 -0.00532274 -0.00585647 -0.00633133 -0.0067473 -0.00710441 -0.00740263 -0.00764198 -0.00782245 -0.00794474 -0.00800955 -0.00801687 -0.00796671 -0.00785907 -0.00769394 -0.00747132 -0.00719123 -0.00687056 -0.00652625 -0.00615828 -0.00576666 -0.00535139 -0.00491248 -0.00444991 -0.00396369 -0.00348137 -0.0030305 -0.00261109 -0.00222312 -0.0018666 -0.00154154 -0.00124792 -0.000985757 -0.00075472 -0.000554488 -0.000385061 -0.000246439 -0.000138622 -6.16098e-05 -1.54025e-05 0 0 -1.77051e-05 -7.08204e-05 -0.000159346 -0.000283282 -0.000442628 -0.000637384 -0.00086755 -0.00113313 -0.00143371 -0.00176888 -0.00213865 -0.00254302 -0.00298198 -0.00345554 -0.00396369 -0.00450644 -0.00505181 -0.00556784 -0.00605452 -0.00651186 -0.00693986 -0.00733851 -0.00770781 -0.00804778 -0.00833884 -0.00856145 -0.00871562 -0.00880133 -0.00881859 -0.0087674 -0.00864777 -0.00845968 -0.00820262 -0.0078761 -0.0074801 -0.00701462 -0.00647967 -0.00587524 -0.00520134 -0.00445797 -0.00366552 -0.00284442 -0.00199467 -0.00111625 -0.000209185 0.000726543 0.00169093 0.00268397 0.00367263 0.00462389 0.00553773 0.00641416 0.00725319 0.0080548 0.008819 0.00954579 0.0102096 0.0107849 0.0112717 0.01167 0.0119798 0.0122011 0.0123339 0.0123781 0.0123339 0.0122011 0.0119798 0.01167 0.0112717 0.0107849 0.0102096 0.00954579 0.008819 0.0080548 0.00725319 0.00641417 0.00553773 0.00462389 0.00367263 0.00268397 0.00169093 0.000726543 -0.000209184 -0.00111625 -0.00199467 -0.00284442 -0.00366552 -0.00445797 -0.00520134 -0.00587524 -0.00647967 -0.00701462 -0.0074801 -0.0078761 -0.00820263 -0.00845968 -0.00864777 -0.00876741 -0.00881859 -0.00880133 -0.00871562 -0.00856146 -0.00833884 -0.00804778 -0.00770782 -0.00733851 -0.00693986 -0.00651186 -0.00605452 -0.00556784 -0.00505181 -0.00450644 -0.00396369 -0.00345554 -0.00298198 -0.00254302 -0.00213865 -0.00176888 -0.00143371 -0.00113313 -0.000867551 -0.000637385 -0.000442628 -0.000283282 -0.000159346 -7.08205e-05 -1.77051e-05 0 0 -2.0073e-05 -8.02918e-05 -0.000180657 -0.000321167 -0.000501824 -0.000722626 -0.000983575 -0.00128467 -0.00162455 -0.00200187 -0.00241661 -0.00286879 -0.0033584 -0.00388544 -0.00444991 -0.00505181 -0.00565438 -0.00622085 -0.00675124 -0.00724552 -0.00770372 -0.00812582 -0.00851182 -0.00886173 -0.00915314 -0.00936366 -0.00949328 -0.00954201 -0.00950984 -0.00939677 -0.00920281 -0.00892795 -0.00857199 -0.00813473 -0.00761616 -0.00701628 -0.0063351 -0.00557262 -0.00472883 -0.00380373 -0.00282181 -0.00180753 -0.000760903 0.000318078 0.00142941 0.00257309 0.00374913 0.00495752 0.00615896 0.00731417 0.00842314 0.00948586 0.0105024 0.0114726 0.0123966 0.0132744 0.0140756 0.01477 0.0153576 0.0158383 0.0162123 0.0164793 0.0166396 0.016693 0.0166396 0.0164793 0.0162123 0.0158383 0.0153576 0.01477 0.0140756 0.0132744 0.0123966 0.0114726 0.0105024 0.00948586 0.00842314 0.00731417 0.00615896 0.00495752 0.00374913 0.00257309 0.00142941 0.000318078 -0.000760902 -0.00180753 -0.00282181 -0.00380373 -0.00472883 -0.00557262 -0.0063351 -0.00701628 -0.00761616 -0.00813473 -0.00857199 -0.00892795 -0.00920281 -0.00939677 -0.00950984 -0.00954201 -0.00949329 -0.00936366 -0.00915315 -0.00886173 -0.00851182 -0.00812582 -0.00770372 -0.00724553 -0.00675124 -0.00622086 -0.00565438 -0.00505181 -0.00444991 -0.00388544 -0.0033584 -0.00286879 -0.00241661 -0.00200187 -0.00162455 -0.00128467 -0.000983575 -0.000722627 -0.000501824 -0.000321168 -0.000180657 -8.02919e-05 -2.0073e-05 0 0 -2.24e-05 -8.95999e-05 -0.0002016 -0.0003584 -0.000559999 -0.000806399 -0.0010976 -0.0014336 -0.0018118 -0.00222959 -0.00268698 -0.00318396 -0.00372053 -0.00429671 -0.00491247 -0.00556784 -0.00622085 -0.00682959 -0.00739404 -0.0079142 -0.00839009 -0.00882168 -0.009209 -0.00955203 -0.00982531 -0.0100034 -0.0100862 -0.0100739 -0.00996631 -0.00976353 -0.00946554 -0.00907234 -0.00858423 -0.00800151 -0.00732419 -0.00655227 -0.00568574 -0.0047246 -0.00366886 -0.00251852 -0.00130286 -5.1196e-05 0.00123648 0.00256018 0.00391989 0.00531561 0.00674734 0.00821509 0.00967229 0.0110724 0.0124153 0.0137012 0.0149299 0.0161015 0.017216 0.0182734 0.0192379 0.0200738 0.0207811 0.0213598 0.0218099 0.0221314 0.0223243 0.0223886 0.0223243 0.0221314 0.0218099 0.0213598 0.0207811 0.0200738 0.0192379 0.0182734 0.017216 0.0161015 0.0149299 0.0137012 0.0124153 0.0110724 0.00967229 0.00821509 0.00674734 0.00531561 0.00391989 0.00256018 0.00123648 -5.1196e-05 -0.00130286 -0.00251852 -0.00366886 -0.0047246 -0.00568574 -0.00655227 -0.00732419 -0.00800151 -0.00858423 -0.00907234 -0.00946554 -0.00976353 -0.00996631 -0.0100739 -0.0100862 -0.0100034 -0.00982531 -0.00955203 -0.009209 -0.00882169 -0.00839009 -0.00791421 -0.00739404 -0.00682959 -0.00622086 -0.00556784 -0.00491248 -0.00429671 -0.00372054 -0.00318396 -0.00268698 -0.00222959 -0.0018118 -0.0014336 -0.0010976 -0.0008064 -0.00056 -0.0003584 -0.0002016 -8.96e-05 -2.24e-05 0 0 -2.46862e-05 -9.87448e-05 -0.000222176 -0.000394979 -0.000617155 -0.000888703 -0.00120962 -0.00157992 -0.00199544 -0.00245205 -0.00294974 -0.00348853 -0.00406839 -0.00468935 -0.00535139 -0.00605452 -0.00675124 -0.00739404 -0.00798293 -0.0085179 -0.00899896 -0.00942611 -0.00979934 -0.0101187 -0.0103553 -0.0104806 -0.0104945 -0.0103969 -0.010188 -0.00986769 -0.00943596 -0.00889284 -0.00823934 -0.00747646 -0.0066042 -0.00562258 -0.00453157 -0.0033312 -0.00202145 -0.000602324 0.000891307 0.00242458 0.00399749 0.00561005 0.00726224 0.00895408 0.0106856 0.0124567 0.0142126 0.0158985 0.0175143 0.0190601 0.0205358 0.0219415 0.0232771 0.0245427 0.0256963 0.0266962 0.0275422 0.0282344 0.0287727 0.0291573 0.029388 0.0294649 0.029388 0.0291573 0.0287727 0.0282344 0.0275422 0.0266962 0.0256963 0.0245427 0.0232771 0.0219415 0.0205358 0.0190601 0.0175143 0.0158985 0.0142126 0.0124567 0.0106856 0.00895408 0.00726225 0.00561005 0.00399749 0.00242458 0.000891307 -0.000602325 -0.00202145 -0.0033312 -0.00453157 -0.00562258 -0.0066042 -0.00747646 -0.00823934 -0.00889285 -0.00943597 -0.00986769 -0.010188 -0.0103969 -0.0104945 -0.0104806 -0.0103553 -0.0101187 -0.00979935 -0.00942611 -0.00899897 -0.0085179 -0.00798293 -0.00739404 -0.00675124 -0.00605452 -0.0053514 -0.00468935 -0.0040684 -0.00348853 -0.00294975 -0.00245205 -0.00199544 -0.00157992 -0.00120962 -0.000888704 -0.000617155 -0.000394979 -0.000222176 -9.87448e-05 -2.46862e-05 0 0 -2.69316e-05 -0.000107726 -0.000242384 -0.000430905 -0.00067329 -0.000969537 -0.00131965 -0.00172362 -0.00217548 -0.00266924 -0.00320492 -0.00378249 -0.00440198 -0.00506336 -0.00576