<?xml version="1.0"?> 
<VTKFile type="StructuredGrid" version="0.1"> 
<StructuredGrid WholeExtent="0 128 0 128 0 0"> 
<Piece Extent="0 128 0 128 0 0"> 
<PointData>
<DataArray type="Float32" Name="u" format="ascii" NumberOfComponents="1"> 
0 0 0 0 0 0 0 0 0 0 0 0 0 0 0 0 0 0 0 0 0 0 0 0 0 0 0 0 0 0 0 0 0 0 0 0 0 0 0 0 0 0 0 0 0 0 0 0 0 0 0 0 0 0 0 0 0 0 0 0 0 0 0 0 0 0 0 0 0 0 0 0 0 0 0 0 0 0 0 0 0 0 0 0 0 0 0 0 0 0 0 0 0 0 0 0 0 0 0 0 0 0 0 0 0 0 0 0 0 0 0 0 0 0 0 0 0 0 0 0 0 0 0 0 0 0 0 0 0 0 -5.88259e-08 -2.35304e-07 -5.29433e-07 -9.41214e-07 -1.47065e-06 -2.11773e-06 -2.88247e-06 -3.76486e-06 -4.80218e-06 -6.03174e-06 -7.45353e-06 -9.06754e-06 -1.08738e-05 -1.28723e-05 -1.5063e-05 -1.74459e-05 -1.99389e-05 -2.24597e-05 -2.50084e-05 -2.7585e-05 -3.01894e-05 -3.28218e-05 -3.54819e-05 -3.817e-05 -4.08379e-05 -4.34376e-05 -4.59692e-05 -4.84325e-05 -5.08278e-05 -5.31548e-05 -5.54137e-05 -5.76044e-05 -5.97213e-05 -6.17588e-05 -6.3717e-05 -6.55958e-05 -6.73952e-05 -6.91153e-05 -7.07559e-05 -7.23172e-05 -7.38076e-05 -7.52354e-05 -7.66007e-05 -7.79034e-05 -7.91437e-05 -8.03214e-05 -8.14365e-05 -8.24892e-05 -8.34811e-05 -8.44141e-05 -8.52882e-05 -8.61033e-05 -8.68595e-05 -8.75568e-05 -8.81951e-05 -8.87745e-05 -8.929e-05 -8.97369e-05 -9.01149e-05 -9.04243e-05 -9.06649e-05 -9.08367e-05 -9.09398e-05 -9.09742e-05 -9.09398e-05 -9.08367e-05 -9.06649e-05 -9.04243e-05 -9.01149e-05 -8.97369e-05 -8.929e-05 -8.87745e-05 -8.81951e-05 -8.75568e-05 -8.68595e-05 -8.61033e-05 -8.52882e-05 -8.44141e-05 -8.34811e-05 -8.24892e-05 -8.14365e-05 -8.03214e-05 -7.91436e-05 -7.79034e-05 -7.66007e-05 -7.52354e-05 -7.38076e-05 -7.23172e-05 -7.07559e-05 -6.91153e-05 -6.73952e-05 -6.55958e-05 -6.3717e-05 -6.17588e-05 -5.97213e-05 -5.76044e-05 -5.54137e-05 -5.31548e-05 -5.08278e-05 -4.84325e-05 -4.59692e-05 -4.34376e-05 -4.08379e-05 -3.817e-05 -3.54819e-05 -3.28218e-05 -3.01894e-05 -2.7585e-05 -2.50084e-05 -2.24597e-05 -1.99389e-05 -1.74459e-05 -1.5063e-05 -1.28723e-05 -1.08738e-05 -9.06755e-06 -7.45353e-06 -6.03175e-06 -4.80219e-06 -3.76486e-06 -2.88247e-06 -2.11773e-06 -1.47065e-06 -9.41215e-07 -5.29433e-07 -2.35304e-07 -5.88259e-08 0 0 -2.35304e-07 -9.41214e-07 -2.11773e-06 -3.76486e-06 -5.88259e-06 -8.47093e-06 -1.15299e-05 -1.50594e-05 -1.92087e-05 -2.4127e-05 -2.98141e-05 -3.62702e-05 -4.34951e-05 -5.1489e-05 -6.02518e-05 -6.97835e-05 -7.97554e-05 -8.98388e-05 -0.000100034 -0.00011034 -0.000120758 -0.000131287 -0.000141928 -0.00015268 -0.000163352 -0.00017375 -0.000183877 -0.00019373 -0.000203311 -0.000212619 -0.000221655 -0.000230417 -0.000238885 -0.000247035 -0.000254868 -0.000262383 -0.000269581 -0.000276461 -0.000283024 -0.000289269 -0.00029523 -0.000300941 -0.000306403 -0.000311614 -0.000316575 -0.000321285 -0.000325746 -0.000329957 -0.000333925 -0.000337656 -0.000341153 -0.000344413 -0.000347438 -0.000350227 -0.00035278 -0.000355098 -0.00035716 -0.000358947 -0.00036046 -0.000361697 -0.000362659 -0.000363347 -0.000363759 -0.000363897 -0.000363759 -0.000363347 -0.000362659 -0.000361697 -0.00036046 -0.000358947 -0.00035716 -0.000355098 -0.00035278 -0.000350227 -0.000347438 -0.000344413 -0.000341153 -0.000337656 -0.000333925 -0.000329957 -0.000325746 -0.000321285 -0.000316575 -0.000311614 -0.000306403 -0.000300941 -0.00029523 -0.000289269 -0.000283024 -0.000276461 -0.000269581 -0.000262383 -0.000254868 -0.000247035 -0.000238885 -0.000230417 -0.000221655 -0.000212619 -0.000203311 -0.00019373 -0.000183877 -0.00017375 -0.000163352 -0.00015268 -0.000141928 -0.000131287 -0.000120758 -0.00011034 -0.000100034 -8.98389e-05 -7.97555e-05 -6.97836e-05 -6.02519e-05 -5.14891e-05 -4.34952e-05 -3.62702e-05 -2.98141e-05 -2.4127e-05 -1.92088e-05 -1.50594e-05 -1.15299e-05 -8.47094e-06 -5.88259e-06 -3.76486e-06 -2.11773e-06 -9.41215e-07 -2.35304e-07 0 0 -5.29433e-07 -2.11773e-06 -4.7649e-06 -8.47093e-06 -1.32358e-05 -1.90596e-05 -2.59422e-05 -3.38837e-05 -4.32197e-05 -5.42857e-05 -6.70817e-05 -8.16079e-05 -9.78641e-05 -0.00011585 -0.000135567 -0.000157013 -0.00017945 -0.000202137 -0.000225076 -0.000248265 -0.000271705 -0.000295396 -0.000319337 -0.00034353 -0.000367541 -0.000390938 -0.000413722 -0.000435893 -0.00045745 -0.000478393 -0.000498723 -0.000518439 -0.000537492 -0.00055583 -0.000573453 -0.000590362 -0.000606557 -0.000622037 -0.000636803 -0.000650855 -0.000664268 -0.000677118 -0.000689406 -0.000701131 -0.000712293 -0.000722892 -0.000732929 -0.000742403 -0.00075133 -0.000759727 -0.000767594 -0.00077493 -0.000781736 -0.000788011 -0.000793756 -0.00079897 -0.00080361 -0.000807632 -0.000811034 -0.000813818 -0.000815984 -0.00081753 -0.000818458 -0.000818768 -0.000818458 -0.00081753 -0.000815984 -0.000813818 -0.000811034 -0.000807632 -0.00080361 -0.00079897 -0.000793756 -0.000788011 -0.000781736 -0.00077493 -0.000767594 -0.000759727 -0.00075133 -0.000742403 -0.000732929 -0.000722892 -0.000712293 -0.000701131 -0.000689406 -0.000677118 -0.000664268 -0.000650855 -0.000636803 -0.000622037 -0.000606557 -0.000590362 -0.000573453 -0.00055583 -0.000537492 -0.000518439 -0.000498723 -0.000478393 -0.00045745 -0.000435893 -0.000413722 -0.000390938 -0.000367541 -0.00034353 -0.000319337 -0.000295396 -0.000271705 -0.000248265 -0.000225076 -0.000202137 -0.00017945 -0.000157013 -0.000135567 -0.00011585 -9.78641e-05 -8.16079e-05 -6.70818e-05 -5.42857e-05 -4.32197e-05 -3.38837e-05 -2.59422e-05 -1.90596e-05 -1.32358e-05 -8.47094e-06 -4.7649e-06 -2.11773e-06 -5.29433e-07 0 0 -9.41214e-07 -3.76486e-06 -8.47093e-06 -1.50594e-05 -2.35304e-05 -3.38837e-05 -4.61195e-05 -6.02377e-05 -7.6835e-05 -9.65079e-05 -0.000119256 -0.000145081 -0.000173981 -0.000205956 -0.000241007 -0.000279134 -0.000319022 -0.000359355 -0.000400135 -0.00044136 -0.000483031 -0.000525148 -0.000567711 -0.00061072 -0.000653406 -0.000695002 -0.000735507 -0.000774921 -0.000813244 -0.000850477 -0.000886619 -0.00092167 -0.000955541 -0.000988142 -0.00101947 -0.00104953 -0.00107832 -0.00110584 -0.00113209 -0.00115708 -0.00118092 -0.00120377 -0.00122561 -0.00124645 -0.0012663 -0.00128514 -0.00130298 -0.00131983 -0.0013357 -0.00135063 -0.00136461 -0.00137765 -0.00138975 -0.00140091 -0.00141112 -0.00142039 -0.00142864 -0.00143579 -0.00144184 -0.00144679 -0.00145064 -0.00145339 -0.00145504 -0.00145559 -0.00145504 -0.00145339 -0.00145064 -0.00144679 -0.00144184 -0.00143579 -0.00142864 -0.00142039 -0.00141112 -0.00140091 -0.00138975 -0.00137765 -0.00136461 -0.00135063 -0.0013357 -0.00131983 -0.00130298 -0.00128514 -0.0012663 -0.00124645 -0.00122561 -0.00120377 -0.00118092 -0.00115708 -0.00113209 -0.00110584 -0.00107832 -0.00104953 -0.00101947 -0.000988141 -0.000955541 -0.00092167 -0.000886619 -0.000850477 -0.000813244 -0.000774921 -0.000735507 -0.000695002 -0.000653406 -0.00061072 -0.000567711 -0.000525148 -0.000483031 -0.00044136 -0.000400135 -0.000359355 -0.000319022 -0.000279134 -0.000241007 -0.000205956 -0.000173981 -0.000145081 -0.000119257 -9.6508e-05 -7.6835e-05 -6.02378e-05 -4.61195e-05 -3.38837e-05 -2.35304e-05 -1.50594e-05 -8.47094e-06 -3.76486e-06 -9.41215e-07 0 0 -1.47065e-06 -5.88259e-06 -1.32358e-05 -2.35304e-05 -3.67662e-05 -5.29433e-05 -7.20617e-05 -9.41214e-05 -0.000120055 -0.000150794 -0.000186338 -0.000226689 -0.000271845 -0.000321806 -0.000376574 -0.000436147 -0.000498472 -0.000561493 -0.00062521 -0.000689625 -0.000754736 -0.000820544 -0.000887048 -0.00095425 -0.00102095 -0.00108594 -0.00114923 -0.00121081 -0.00127069 -0.00132887 -0.00138534 -0.00144011 -0.00149303 -0.00154397 -0.00159293 -0.0016399 -0.00168488 -0.00172788 -0.0017689 -0.00180793 -0.00184519 -0.00188088 -0.00191502 -0.00194759 -0.00197859 -0.00200803 -0.00203591 -0.00206223 -0.00208703 -0.00211035 -0.0021322 -0.00215258 -0.00217149 -0.00218892 -0.00220488 -0.00221936 -0.00223225 -0.00224342 -0.00225287 -0.00226061 -0.00226662 -0.00227092 -0.0022735 -0.00227435 -0.0022735 -0.00227092 -0.00226662 -0.00226061 -0.00225287 -0.00224342 -0.00223225 -0.00221936 -0.00220488 -0.00218892 -0.00217149 -0.00215258 -0.0021322 -0.00211035 -0.00208703 -0.00206223 -0.00203591 -0.00200803 -0.00197859 -0.00194759 -0.00191502 -0.00188088 -0.00184519 -0.00180793 -0.0017689 -0.00172788 -0.00168488 -0.0016399 -0.00159293 -0.00154397 -0.00149303 -0.00144011 -0.00138534 -0.00132887 -0.00127069 -0.00121081 -0.00114923 -0.00108594 -0.00102095 -0.00095425 -0.000887049 -0.000820544 -0.000754736 -0.000689625 -0.000625211 -0.000561493 -0.000498472 -0.000436147 -0.000376574 -0.000321807 -0.000271845 -0.000226689 -0.000186338 -0.000150794 -0.000120055 -9.41215e-05 -7.20618e-05 -5.29433e-05 -3.67662e-05 -2.35304e-05 -1.32358e-05 -5.88259e-06 -1.47065e-06 0 0 -2.11773e-06 -8.47093e-06 -1.90596e-05 -3.38837e-05 -5.29433e-05 -7.62383e-05 -0.000103769 -0.000135535 -0.000172879 -0.000217143 -0.000268327 -0.000326432 -0.000391456 -0.000463401 -0.000542266 -0.000628052 -0.000717799 -0.000808549 -0.000900303 -0.00099306 -0.00108682 -0.00118158 -0.00127735 -0.00137412 -0.00147016 -0.00156375 -0.00165489 -0.00174357 -0.0018298 -0.00191357 -0.00199489 -0.00207376 -0.00214997 -0.00222332 -0.00229381 -0.00236145 -0.00242623 -0.00248815 -0.00254721 -0.00260342 -0.00265707 -0.00270847 -0.00275762 -0.00280452 -0.00284917 -0.00289157 -0.00293172 -0.00296961 -0.00300532 -0.00303891 -0.00307037 -0.00309972 -0.00312694 -0.00315204 -0.00317502 -0.00319588 -0.00321444 -0.00323053 -0.00324414 -0.00325527 -0.00326393 -0.00327012 -0.00327383 -0.00327507 -0.00327383 -0.00327012 -0.00326393 -0.00325527 -0.00324414 -0.00323053 -0.00321444 -0.00319588 -0.00317502 -0.00315204 -0.00312694 -0.00309972 -0.00307037 -0.00303891 -0.00300532 -0.00296961 -0.00293172 -0.00289157 -0.00284917 -0.00280452 -0.00275762 -0.00270847 -0.00265707 -0.00260342 -0.00254721 -0.00248815 -0.00242623 -0.00236145 -0.00229381 -0.00222332 -0.00214997 -0.00207376 -0.00199489 -0.00191357 -0.0018298 -0.00174357 -0.00165489 -0.00156375 -0.00147016 -0.00137412 -0.00127735 -0.00118158 -0.00108682 -0.00099306 -0.000900303 -0.00080855 -0.000717799 -0.000628052 -0.000542267 -0.000463401 -0.000391456 -0.000326432 -0.000268327 -0.000217143 -0.000172879 -0.000135535 -0.000103769 -7.62384e-05 -5.29433e-05 -3.38837e-05 -1.90596e-05 -8.47094e-06 -2.11773e-06 0 0 -2.88247e-06 -1.15299e-05 -2.59422e-05 -4.61195e-05 -7.20617e-05 -0.000103769 -0.000141241 -0.000184478 -0.000235307 -0.000295555 -0.000365223 -0.00044431 -0.000532815 -0.000630741 -0.000738085 -0.000854848 -0.000977004 -0.00110053 -0.00122541 -0.00135166 -0.00147928 -0.00160827 -0.00173861 -0.00187033 -0.00200106 -0.00212844 -0.00225249 -0.00237319 -0.00249056 -0.00260459 -0.00271527 -0.00282261 -0.00292634 -0.00302618 -0.00312213 -0.00321419 -0.00330237 -0.00338665 -0.00346704 -0.00354354 -0.00361657 -0.00368653 -0.00375343 -0.00381727 -0.00387804 -0.00393575 -0.00399039 -0.00404197 -0.00409058 -0.00413629 -0.00417912 -0.00421906 -0.00425612 -0.00429028 -0.00432156 -0.00434995 -0.00437521 -0.00439711 -0.00441563 -0.00443079 -0.00444258 -0.004451 -0.00445605 -0.00445774 -0.00445605 -0.004451 -0.00444258 -0.00443079 -0.00441563 -0.00439711 -0.00437521 -0.00434995 -0.00432156 -0.00429028 -0.00425612 -0.00421906 -0.00417912 -0.00413629 -0.00409058 -0.00404197 -0.00399039 -0.00393575 -0.00387804 -0.00381727 -0.00375343 -0.00368653 -0.00361657 -0.00354354 -0.00346704 -0.00338665 -0.00330237 -0.00321419 -0.00312213 -0.00302618 -0.00292634 -0.00282261 -0.00271527 -0.00260459 -0.00249056 -0.00237319 -0.00225249 -0.00212844 -0.00200106 -0.00187033 -0.00173862 -0.00160827 -0.00147928 -0.00135167 -0.00122541 -0.00110053 -0.000977005 -0.000854849 -0.000738085 -0.000630741 -0.000532816 -0.00044431 -0.000365223 -0.000295556 -0.000235307 -0.000184478 -0.000141241 -0.000103769 -7.20618e-05 -4.61195e-05 -2.59422e-05 -1.15299e-05 -2.88247e-06 0 0 -3.76486e-06 -1.50594e-05 -3.38837e-05 -6.02377e-05 -9.41214e-05 -0.000135535 -0.000184478 -0.000240951 -0.00030734 -0.000386031 -0.000477026 -0.000580323 -0.000695922 -0.000823824 -0.000964029 -0.00111654 -0.00127609 -0.00143742 -0.00160054 -0.00176544 -0.00193212 -0.00210059 -0.00227084 -0.00244288 -0.00261362 -0.00278001 -0.00294203 -0.00309968 -0.00325298 -0.00340191 -0.00354647 -0.00368668 -0.00382216 -0.00395257 -0.00407789 -0.00419813 -0.00431329 -0.00442338 -0.00452838 -0.0046283 -0.00472368 -0.00481506 -0.00490244 -0.00498582 -0.00506519 -0.00514057 -0.00521194 -0.00527931 -0.00534279 -0.0054025 -0.00545844 -0.00551061 -0.00555901 -0.00560363 -0.00564449 -0.00568157 -0.00571456 -0.00574316 -0.00576736 -0.00578715 -0.00580255 -0.00581355 -0.00582015 -0.00582235 -0.00582015 -0.00581355 -0.00580255 -0.00578715 -0.00576736 -0.00574316 -0.00571456 -0.00568157 -0.00564449 -0.00560363 -0.00555901 -0.00551061 -0.00545844 -0.0054025 -0.00534279 -0.00527931 -0.00521194 -0.00514057 -0.00506519 -0.00498582 -0.00490244 -0.00481506 -0.00472368 -0.0046283 -0.00452838 -0.00442338 -0.00431329 -0.00419813 -0.00407789 -0.00395257 -0.00382216 -0.00368668 -0.00354647 -0.00340191 -0.00325298 -0.00309968 -0.00294203 -0.00278001 -0.00261362 -0.00244288 -0.00227084 -0.00210059 -0.00193212 -0.00176544 -0.00160054 -0.00143742 -0.00127609 -0.00111654 -0.00096403 -0.000823825 -0.000695923 -0.000580323 -0.000477026 -0.000386032 -0.00030734 -0.000240951 -0.000184478 -0.000135535 -9.41215e-05 -6.02378e-05 -3.38837e-05 -1.50594e-05 -3.76486e-06 0 0 -4.80218e-06 -1.92087e-05 -4.32197e-05 -7.6835e-05 -0.000120055 -0.000172879 -0.000235307 -0.00030734 -0.00039189 -0.00049187 -0.000607281 -0.000738122 -0.000884394 -0.0010461 -0.00122323 -0.00141579 -0.00161701 -0.00182012 -0.00202513 -0.00223202 -0.0024408 -0.00265147 -0.00286403 -0.00307848 -0.00329088 -0.0034973 -0.00369774 -0.00389219 -0.00408066 -0.00426315 -0.00443965 -0.00461017 -0.00477431 -0.00493167 -0.00508224 -0.00522603 -0.00536304 -0.00549327 -0.00561671 -0.00573337 -0.0058441 -0.00594977 -0.00605038 -0.00614593 -0.00623641 -0.00632183 -0.00640218 -0.00647747 -0.00654808 -0.00661437 -0.00667635 -0.00673402 -0.00678737 -0.00683642 -0.00688116 -0.00692158 -0.00695746 -0.00698855 -0.00701486 -0.00703638 -0.00705313 -0.00706508 -0.00707226 -0.00707465 -0.00707226 -0.00706508 -0.00705313 -0.00703638 -0.00701486 -0.00698855 -0.00695746 -0.00692158 -0.00688116 -0.00683642 -0.00678737 -0.00673402 -0.00667635 -0.00661437 -0.00654808 -0.00647747 -0.00640218 -0.00632183 -0.00623641 -0.00614593 -0.00605038 -0.00594977 -0.0058441 -0.00573337 -0.00561671 -0.00549327 -0.00536304 -0.00522603 -0.00508224 -0.00493167 -0.00477431 -0.00461017 -0.00443965 -0.00426315 -0.00408066 -0.00389219 -0.00369774 -0.0034973 -0.00329088 -0.00307848 -0.00286403 -0.00265147 -0.0024408 -0.00223202 -0.00202513 -0.00182013 -0.00161701 -0.00141579 -0.00122323 -0.0010461 -0.000884394 -0.000738123 -0.000607282 -0.000491871 -0.00039189 -0.00030734 -0.000235307 -0.000172879 -0.000120055 -7.6835e-05 -4.32197e-05 -1.92088e-05 -4.80219e-06 0 0 -6.03174e-06 -2.4127e-05 -5.42857e-05 -9.65079e-05 -0.000150794 -0.000217143 -0.000295555 -0.000386031 -0.00049187 -0.000616371 -0.000759535 -0.00092136 -0.00110185 -0.001301 -0.00151881 -0.00175528 -0.00200175 -0.00224952 -0.00249862 -0.00274903 -0.00300076 -0.0032538 -0.00350816 -0.00376383 -0.00401583 -0.00425917 -0.00449385 -0.00471987 -0.00493722 -0.00514592 -0.00534595 -0.00553732 -0.00571969 -0.0058927 -0.00605636 -0.00621067 -0.00635563 -0.00649124 -0.0066175 -0.00673441 -0.00684352 -0.00694637 -0.00704299 -0.00713335 -0.00721746 -0.00729532 -0.00736694 -0.00743231 -0.00749253 -0.0075487 -0.00760084 -0.00764892 -0.00769297 -0.00773297 -0.00776892 -0.00780083 -0.00782885 -0.00785314 -0.00787369 -0.0078905 -0.00790358 -0.00791292 -0.00791852 -0.00792039 -0.00791852 -0.00791292 -0.00790358 -0.0078905 -0.00787369 -0.00785314 -0.00782885 -0.00780083 -0.00776892 -0.00773297 -0.00769297 -0.00764892 -0.00760084 -0.0075487 -0.00749253 -0.00743231 -0.00736694 -0.00729532 -0.00721746 -0.00713335 -0.00704298 -0.00694637 -0.00684352 -0.00673441 -0.0066175 -0.00649124 -0.00635563 -0.00621067 -0.00605636 -0.0058927 -0.00571969 -0.00553732 -0.00534595 -0.00514592 -0.00493722 -0.00471987 -0.00449385 -0.00425917 -0.00401583 -0.00376383 -0.00350816 -0.0032538 -0.00300076 -0.00274903 -0.00249862 -0.00224952 -0.00200175 -0.00175528 -0.00151881 -0.001301 -0.00110185 -0.000921361 -0.000759535 -0.000616372 -0.000491871 -0.000386032 -0.000295556 -0.000217143 -0.000150794 -9.6508e-05 -5.42857e-05 -2.4127e-05 -6.03175e-06 0 0 -7.45353e-06 -2.98141e-05 -6.70817e-05 -0.000119256 -0.000186338 -0.000268327 -0.000365223 -0.000477026 -0.000607281 -0.000759535 -0.000933786 -0.00113004 -0.00134828 -0.00158853 -0.00185077 -0.00213501 -0.00243028 -0.00272562 -0.00302102 -0.00331648 -0.003612 -0.00390758 -0.00420323 -0.00449894 -0.00478848 -0.00506563 -0.00533037 -0.00558272 -0.00582267 -0.00605021 -0.00626537 -0.00646812 -0.00665828 -0.00683565 -0.00700025 -0.00715205 -0.00729107 -0.00741731 -0.00753076 -0.00763143 -0.00772193 -0.00780486 -0.00788025 -0.00794807 -0.00800834 -0.00806106 -0.00810621 -0.00814381 -0.00817615 -0.00820552 -0.00823191 -0.00825534 -0.00827579 -0.00829327 -0.00830779 -0.00831933 -0.00832876 -0.00833693 -0.00834384 -0.0083495 -0.0083539 -0.00835704 -0.00835893 -0.00835956 -0.00835893 -0.00835704 -0.0083539 -0.0083495 -0.00834384 -0.00833693 -0.00832876 -0.00831933 -0.00830779 -0.00829327 -0.00827579 -0.00825534 -0.00823191 -0.00820552 -0.00817615 -0.00814381 -0.00810621 -0.00806106 -0.00800834 -0.00794807 -0.00788025 -0.00780486 -0.00772192 -0.00763143 -0.00753076 -0.00741731 -0.00729107 -0.00715205 -0.00700025 -0.00683565 -0.00665828 -0.00646812 -0.00626537 -0.00605021 -0.00582267 -0.00558272 -0.00533037 -0.00506563 -0.00478848 -0.00449894 -0.00420323 -0.00390758 -0.003612 -0.00331648 -0.00302102 -0.00272562 -0.00243029 -0.00213501 -0.00185077 -0.00158853 -0.00134828 -0.00113004 -0.000933787 -0.000759535 -0.000607282 -0.000477026 -0.000365223 -0.000268327 -0.000186338 -0.000119257 -6.70818e-05 -2.98141e-05 -7.45353e-06 0 0 -9.06754e-06 -3.62702e-05 -8.16079e-05 -0.000145081 -0.000226689 -0.000326431 -0.000444309 -0.000580323 -0.000738122 -0.00092136 -0.00113004 -0.00136415 -0.0016237 -0.00190869 -0.00221912 -0.00255498 -0.00290263 -0.00324841 -0.00359232 -0.00393436 -0.00427453 -0.00461282 -0.00494925 -0.00528381 -0.00560883 -0.00591666 -0.0062073 -0.00648074 -0.00673699 -0.00697604 -0.0071979 -0.00740257 -0.00759009 -0.00776053 -0.00791389 -0.00805017 -0.00816936 -0.00827146 -0.00835649 -0.00842443 -0.00847933 -0.00852524 -0.00856217 -0.00859011 -0.00860906 -0.00861903 -0.00862001 -0.00861199 -0.00859894 -0.0085848 -0.00856957 -0.00855325 -0.00853584 -0.00851734 -0.00849775 -0.00847707 -0.00845717 -0.00843992 -0.00842533 -0.00841339 -0.0084041 -0.00839747 -0.00839349 -0.00839216 -0.00839349 -0.00839747 -0.0084041 -0.00841339 -0.00842533 -0.00843992 -0.00845717 -0.00847707 -0.00849775 -0.00851734 -0.00853584 -0.00855325 -0.00856957 -0.0085848 -0.00859894 -0.00861199 -0.00862001 -0.00861903 -0.00860906 -0.00859011 -0.00856217 -0.00852524 -0.00847933 -0.00842443 -0.00835649 -0.00827146 -0.00816936 -0.00805017 -0.00791389 -0.00776053 -0.00759009 -0.00740257 -0.0071979 -0.00697604 -0.00673699 -0.00648074 -0.0062073 -0.00591666 -0.00560883 -0.00528381 -0.00494925 -0.00461282 -0.00427453 -0.00393436 -0.00359232 -0.00324841 -0.00290263 -0.00255498 -0.00221912 -0.00190869 -0.0016237 -0.00136415 -0.00113004 -0.000921361 -0.000738123 -0.000580323 -0.00044431 -0.000326432 -0.000226689 -0.000145081 -8.16079e-05 -3.62702e-05 -9.06755e-06 0 0 -1.08738e-05 -4.34951e-05 -9.7864e-05 -0.000173981 -0.000271845 -0.000391456 -0.000532815 -0.000695922 -0.000884394 -0.00110185 -0.00134828 -0.0016237 -0.0019281 -0.00226148 -0.00262385 -0.00301519 -0.00341879 -0.0038179 -0.00421253 -0.00460267 -0.00498834 -0.00536952 -0.00574621 -0.00611843 -0.00647688 -0.00681228 -0.00712463 -0.00741393 -0.00768019 -0.0079234 -0.00814355 -0.00834066 -0.00851513 -0.00866734 -0.00879731 -0.00890502 -0.00899049 -0.00905371 -0.00909468 -0.0091134 -0.00911573 -0.00910751 -0.00908876 -0.00905946 -0.00901962 -0.00896924 -0.00890831 -0.00883685 -0.00876091 -0.00868657 -0.00861382 -0.00854267 -0.00847312 -0.00840517 -0.00833881 -0.00827405 -0.00821408 -0.00816211 -0.00811814 -0.00808216 -0.00805417 -0.00803418 -0.00802219 -0.00801819 -0.00802219 -0.00803418 -0.00805417 -0.00808216 -0.00811814 -0.00816211 -0.00821408 -0.00827405 -0.00833881 -0.00840517 -0.00847312 -0.00854267 -0.00861382 -0.00868657 -0.00876091 -0.00883685 -0.00890831 -0.00896924 -0.00901962 -0.00905946 -0.00908876 -0.00910751 -0.00911573 -0.0091134 -0.00909468 -0.00905371 -0.00899049 -0.00890502 -0.0087973 -0.00866734 -0.00851513 -0.00834066 -0.00814355 -0.0079234 -0.00768019 -0.00741393 -0.00712463 -0.00681228 -0.00647688 -0.00611843 -0.00574622 -0.00536952 -0.00498834 -0.00460268 -0.00421253 -0.0038179 -0.00341879 -0.00301519 -0.00262385 -0.00226148 -0.0019281 -0.0016237 -0.00134828 -0.00110185 -0.000884394 -0.000695923 -0.000532816 -0.000391457 -0.000271845 -0.000173981 -9.78641e-05 -4.34952e-05 -1.08738e-05 0 0 -1.28723e-05 -5.1489e-05 -0.00011585 -0.000205956 -0.000321806 -0.000463401 -0.00063074 -0.000823824 -0.0010461 -0.001301 -0.00158853 -0.00190869 -0.00226148 -0.0026469 -0.00306496 -0.00351564 -0.00397875 -0.00443408 -0.00488164 -0.00532142 -0.00575343 -0.00617767 -0.00659412 -0.00700281 -0.00739262 -0.00775247 -0.00808237 -0.0083823 -0.00865227 -0.00889228 -0.00910233 -0.00928241 -0.00943338 -0.00955607 -0.00965048 -0.00971661 -0.00975447 -0.00976404 -0.00974534 -0.00969835 -0.00963112 -0.00955167 -0.00946 -0.00935611 -0.00924001 -0.00911168 -0.00897113 -0.00881837 -0.00866204 -0.0085108 -0.00836465 -0.0082236 -0.00808763 -0.00795675 -0.00783096 -0.00771027 -0.0075995 -0.0075035 -0.00742227 -0.00735581 -0.00730412 -0.0072672 -0.00724505 -0.00723766 -0.00724505 -0.0072672 -0.00730412 -0.00735581 -0.00742227 -0.0075035 -0.0075995 -0.00771027 -0.00783096 -0.00795675 -0.00808763 -0.00822359 -0.00836465 -0.0085108 -0.00866204 -0.00881837 -0.00897113 -0.00911168 -0.00924001 -0.00935611 -0.00946 -0.00955167 -0.00963112 -0.00969835 -0.00974534 -0.00976404 -0.00975447 -0.00971661 -0.00965048 -0.00955607 -0.00943338 -0.00928241 -0.00910233 -0.00889228 -0.00865227 -0.0083823 -0.00808237 -0.00775247 -0.00739262 -0.00700281 -0.00659413 -0.00617767 -0.00575343 -0.00532143 -0.00488164 -0.00443408 -0.00397875 -0.00351564 -0.00306496 -0.00264691 -0.00226148 -0.00190869 -0.00158853 -0.001301 -0.0010461 -0.000823825 -0.000630741 -0.000463402 -0.000321807 -0.000205956 -0.00011585 -5.14891e-05 -1.28723e-05 0 0 -1.5063e-05 -6.02518e-05 -0.000135567 -0.000241007 -0.000376574 -0.000542266 -0.000738085 -0.000964029 -0.00122323 -0.00151881 -0.00185077 -0.00221912 -0.00262385 -0.00306496 -0.00354245 -0.00405632 -0.00458252 -0.00509696 -0.00559966 -0.00609061 -0.00656981 -0.00703727 -0.00749298 -0.00793694 -0.00835606 -0.00873725 -0.00908051 -0.00938583 -0.00965323 -0.00988269 -0.0100742 -0.0102278 -0.0103449 -0.0104267 -0.0104734 -0.0104849 -0.0104613 -0.0104025 -0.0103085 -0.0101793 -0.0100255 -0.00985772 -0.00967591 -0.00948008 -0.00927023 -0.00904636 -0.00880847 -0.00855657 -0.00830234 -0.00805751 -0.00782207 -0.00759602 -0.00737936 -0.00717209 -0.00697422 -0.00678573 -0.00661342 -0.00646409 -0.00633774 -0.00623435 -0.00615395 -0.00609651 -0.00606205 -0.00605056 -0.00606205 -0.00609651 -0.00615395 -0.00623435 -0.00633774 -0.00646409 -0.00661342 -0.00678573 -0.00697422 -0.00717209 -0.00737936 -0.00759602 -0.00782207 -0.00805751 -0.00830234 -0.00855656 -0.00880847 -0.00904636 -0.00927023 -0.00948008 -0.00967591 -0.00985772 -0.0100255 -0.0101793 -0.0103085 -0.0104025 -0.0104613 -0.0104849 -0.0104734 -0.0104267 -0.0103449 -0.0102278 -0.0100742 -0.00988269 -0.00965323 -0.00938584 -0.00908051 -0.00873725 -0.00835606 -0.00793694 -0.00749298 -0.00703727 -0.00656982 -0.00609061 -0.00559966 -0.00509696 -0.00458252 -0.00405633 -0.00354245 -0.00306496 -0.00262385 -0.00221912 -0.00185077 -0.00151881 -0.00122323 -0.00096403 -0.000738085 -0.000542267 -0.000376574 -0.000241007 -0.000135567 -6.02519e-05 -1.5063e-05 0 0 -1.74459e-05 -6.97835e-05 -0.000157013 -0.000279134 -0.000436147 -0.000628052 -0.000854848 -0.00111654 -0.00141579 -0.00175528 -0.00213501 -0.00255498 -0.00301519 -0.00351564 -0.00405632 -0.00463725 -0.00523009 -0.00580654 -0.00636658 -0.00691023 -0.00743748 -0.00794833 -0.00844278 -0.00892083 -0.0093672 -0.00976661 -0.0101191 -0.0104245 -0.0106831 -0.0108946 -0.0110592 -0.0111769 -0.0112496 -0.0112793 -0.0112661 -0.01121 -0.011111 -0.010969 -0.0107841 -0.0105562 -0.0102989 -0.0100257 -0.00973648 -0.00943135 -0.00911029 -0.00877328 -0.00842033 -0.00805143 -0.00768182 -0.0073267 -0.00698608 -0.00665995 -0.00634833 -0.0060512 -0.00576857 -0.00550043 -0.00525585 -0.00504389 -0.00486453 -0.00471778 -0.00460364 -0.00452212 -0.0044732 -0.0044569 -0.0044732 -0.00452212 -0.00460364 -0.00471778 -0.00486453 -0.00504389 -0.00525585 -0.00550043 -0.00576857 -0.0060512 -0.00634833 -0.00665995 -0.00698608 -0.0073267 -0.00768182 -0.00805143 -0.00842033 -0.00877328 -0.00911029 -0.00943135 -0.00973648 -0.0100257 -0.0102989 -0.0105562 -0.0107841 -0.010969 -0.011111 -0.01121 -0.0112661 -0.0112793 -0.0112496 -0.0111769 -0.0110592 -0.0108946 -0.0106831 -0.0104245 -0.0101191 -0.00976661 -0.0093672 -0.00892083 -0.00844278 -0.00794833 -0.00743748 -0.00691023 -0.00636659 -0.00580654 -0.00523009 -0.00463725 -0.00405633 -0.00351564 -0.00301519 -0.00255498 -0.00213501 -0.00175528 -0.00141579 -0.00111654 -0.000854849 -0.000628052 -0.000436147 -0.000279134 -0.000157013 -6.97836e-05 -1.74459e-05 0 0 -1.99389e-05 -7.97554e-05 -0.00017945 -0.000319022 -0.000498471 -0.000717799 -0.000977004 -0.00127609 -0.00161701 -0.00200174 -0.00243028 -0.00290263 -0.00341879 -0.00397875 -0.00458252 -0.00523009 -0.00588841 -0.00652442 -0.00713811 -0.00772949 -0.00829855 -0.00884529 -0.00936973 -0.00987184 -0.0103339 -0.0107383 -0.0110849 -0.0113738 -0.011605 -0.0117785 -0.0118942 -0.0119522 -0.0119553 -0.0119064 -0.0118054 -0.0116524 -0.0114474 -0.0111904 -0.0108813 -0.0105202 -0.0101242 -0.00971028 -0.00927851 -0.00882887 -0.00836137 -0.00787601 -0.00737278 -0.00685169 -0.0063323 -0.00583416 -0.00535729 -0.00490168 -0.00446733 -0.00405424 -0.0036624 -0.00329183 -0.00295439 -0.00266194 -0.00241448 -0.00221201 -0.00205454 -0.00194206 -0.00187457 -0.00185207 -0.00187457 -0.00194206 -0.00205454 -0.00221201 -0.00241448 -0.00266194 -0.00295439 -0.00329183 -0.0036624 -0.00405424 -0.00446733 -0.00490168 -0.00535729 -0.00583416 -0.0063323 -0.00685169 -0.00737278 -0.00787601 -0.00836137 -0.00882887 -0.00927851 -0.00971028 -0.0101242 -0.0105202 -0.0108813 -0.0111904 -0.0114474 -0.0116524 -0.0118054 -0.0119064 -0.0119553 -0.0119522 -0.0118942 -0.0117785 -0.011605 -0.0113738 -0.0110849 -0.0107383 -0.0103339 -0.00987184 -0.00936973 -0.0088453 -0.00829855 -0.00772949 -0.00713811 -0.00652442 -0.00588842 -0.00523009 -0.00458252 -0.00397875 -0.00341879 -0.00290263 -0.00243029 -0.00200175 -0.00161701 -0.00127609 -0.000977005 -0.0007178 -0.000498472 -0.000319022 -0.00017945 -7.97555e-05 -1.99389e-05 0 0 -2.24597e-05 -8.98388e-05 -0.000202137 -0.000359355 -0.000561492 -0.000808549 -0.00110053 -0.00143742 -0.00182012 -0.00224952 -0.00272562 -0.00324841 -0.0038179 -0.00443408 -0.00509696 -0.00580654 -0.00652442 -0.00721222 -0.00786994 -0.00849758 -0.00909514 -0.00966262 -0.0102 -0.0107073 -0.0111642 -0.0115501 -0.0118651 -0.0121091 -0.0122823 -0.0123846 -0.0124159 -0.0123764 -0.0122699 -0.0121005 -0.0118681 -0.0115729 -0.0112147 -0.0107936 -0.0103095 -0.00976257 -0.00917431 -0.00856639 -0.00793881 -0.00729157 -0.00662468 -0.00593813 -0.00523192 -0.00450605 -0.00378562 -0.00309572 -0.00243634 -0.00180749 -0.00120918 -0.000641384 -0.000104121 0.000402615 0.000863369 0.00126269 0.00160058 0.00187703 0.00209205 0.00224563 0.00233778 0.0023685 0.00233778 0.00224563 0.00209205 0.00187703 0.00160058 0.00126269 0.000863369 0.000402615 -0.00010412 -0.000641384 -0.00120917 -0.00180749 -0.00243634 -0.00309572 -0.00378562 -0.00450605 -0.00523192 -0.00593813 -0.00662468 -0.00729157 -0.00793881 -0.00856639 -0.00917431 -0.00976257 -0.0103095 -0.0107936 -0.0112147 -0.0115729 -0.0118681 -0.0121005 -0.0122699 -0.0123764 -0.0124159 -0.0123846 -0.0122823 -0.0121091 -0.0118651 -0.0115501 -0.0111642 -0.0107073 -0.0102 -0.00966262 -0.00909515 -0.00849759 -0.00786995 -0.00721223 -0.00652442 -0.00580654 -0.00509696 -0.00443408 -0.0038179 -0.00324841 -0.00272562 -0.00224953 -0.00182013 -0.00143742 -0.00110053 -0.00080855 -0.000561493 -0.000359356 -0.000202137 -8.98389e-05 -2.24597e-05 0 0 -2.50084e-05 -0.000100034 -0.000225076 -0.000400135 -0.00062521 -0.000900303 -0.00122541 -0.00160054 -0.00202513 -0.00249862 -0.00302102 -0.00359232 -0.00421253 -0.00488164 -0.00559966 -0.00636658 -0.00713811 -0.00786994 -0.00856208 -0.00921452 -0.00982726 -0.0104003 -0.0109337 -0.0114273 -0.0118579 -0.0122019 -0.0124594 -0.0126305 -0.012715 -0.012713 -0.0126245 -0.0124494 -0.0121933 -0.0118616 -0.0114543 -0.0109713 -0.0104127 -0.00977851 -0.00906866 -0.00828319 -0.00744924 -0.00659397 -0.00571738 -0.00481946 -0.00390021 -0.00295964 -0.00199774 -0.00101452 -4.17916e-05 0.00088864 0.00177677 0.0026226 0.00342613 0.00418736 0.00490628 0.00558291 0.00619742 0.00673 0.00718064 0.00754934 0.00783611 0.00804095 0.00816385 0.00820482 0.00816385 0.00804095 0.00783611 0.00754934 0.00718064 0.00673 0.00619742 0.00558291 0.00490629 0.00418736 0.00342613 0.0026226 0.00177677 0.00088864 -4.17911e-05 -0.00101452 -0.00199774 -0.00295964 -0.00390021 -0.00481945 -0.00571738 -0.00659397 -0.00744924 -0.00828319 -0.00906866 -0.0097785 -0.0104127 -0.0109713 -0.0114543 -0.0118616 -0.0121933 -0.0124494 -0.0126245 -0.012713 -0.012715 -0.0126305 -0.0124594 -0.0122019 -0.0118579 -0.0114273 -0.0109337 -0.0104003 -0.00982727 -0.00921452 -0.00856208 -0.00786995 -0.00713812 -0.00636659 -0.00559966 -0.00488164 -0.00421253 -0.00359232 -0.00302102 -0.00249862 -0.00202513 -0.00160054 -0.00122541 -0.000900304 -0.000625211 -0.000400135 -0.000225076 -0.000100034 -2.50084e-05 0 0 -2.7585e-05 -0.00011034 -0.000248265 -0.00044136 -0.000689625 -0.000993059 -0.00135166 -0.00176544 -0.00223202 