<?xml version="1.0"?> 
<VTKFile type="StructuredGrid" version="0.1"> 
<StructuredGrid WholeExtent="0 128 0 128 0 0"> 
<Piece Extent="0 128 0 128 0 0"> 
<PointData>
<DataArray type="Float32" Name="u" format="ascii" NumberOfComponents="1"> 
0 0 0 0 0 0 0 0 0 0 0 0 0 0 0 0 0 0 0 0 0 0 0 0 0 0 0 0 0 0 0 0 0 0 0 0 0 0 0 0 0 0 0 0 0 0 0 0 0 0 0 0 0 0 0 0 0 0 0 0 0 0 0 0 0 0 0 0 0 0 0 0 0 0 0 0 0 0 0 0 0 0 0 0 0 0 0 0 0 0 0 0 0 0 0 0 0 0 0 0 0 0 0 0 0 0 0 0 0 0 0 0 0 0 0 0 0 0 0 0 0 0 0 0 0 0 0 0 0 0 -6.32004e-08 -2.52801e-07 -5.68803e-07 -1.01121e-06 -1.58001e-06 -2.27521e-06 -3.09682e-06 -4.04482e-06 -5.14628e-06 -6.42824e-06 -7.89069e-06 -9.53365e-06 -1.13571e-05 -1.33611e-05 -1.55455e-05 -1.79105e-05 -2.03562e-05 -2.2783e-05 -2.51908e-05 -2.75796e-05 -2.99495e-05 -3.23004e-05 -3.46324e-05 -3.69454e-05 -3.91783e-05 -4.127e-05 -4.32206e-05 -4.503e-05 -4.66983e-05 -4.82254e-05 -4.96113e-05 -5.08561e-05 -5.1951e-05 -5.28874e-05 -5.36653e-05 -5.42846e-05 -5.47453e-05 -5.50476e-05 -5.51913e-05 -5.51764e-05 -5.50353e-05 -5.48004e-05 -5.44716e-05 -5.40488e-05 -5.35322e-05 -5.29217e-05 -5.22173e-05 -5.1419e-05 -5.058e-05 -4.97533e-05 -4.89391e-05 -4.81373e-05 -4.73478e-05 -4.65707e-05 -4.58061e-05 -4.50538e-05 -4.43544e-05 -4.37482e-05 -4.32353e-05 -4.28156e-05 -4.24892e-05 -4.22561e-05 -4.21162e-05 -4.20696e-05 -4.21162e-05 -4.22561e-05 -4.24892e-05 -4.28156e-05 -4.32353e-05 -4.37482e-05 -4.43544e-05 -4.50538e-05 -4.58061e-05 -4.65707e-05 -4.73478e-05 -4.81373e-05 -4.89391e-05 -4.97533e-05 -5.058e-05 -5.1419e-05 -5.22173e-05 -5.29217e-05 -5.35322e-05 -5.40488e-05 -5.44716e-05 -5.48004e-05 -5.50353e-05 -5.51764e-05 -5.51912e-05 -5.50476e-05 -5.47453e-05 -5.42846e-05 -5.36653e-05 -5.28874e-05 -5.1951e-05 -5.08561e-05 -4.96113e-05 -4.82254e-05 -4.66983e-05 -4.50301e-05 -4.32206e-05 -4.127e-05 -3.91783e-05 -3.69454e-05 -3.46324e-05 -3.23004e-05 -2.99495e-05 -2.75796e-05 -2.51908e-05 -2.2783e-05 -2.03562e-05 -1.79105e-05 -1.55455e-05 -1.33611e-05 -1.13571e-05 -9.53366e-06 -7.8907e-06 -6.42824e-06 -5.14628e-06 -4.04483e-06 -3.09682e-06 -2.27522e-06 -1.58001e-06 -1.01121e-06 -5.68804e-07 -2.52802e-07 -6.32004e-08 0 0 -2.52801e-07 -1.01121e-06 -2.27521e-06 -4.04482e-06 -6.32004e-06 -9.10085e-06 -1.23873e-05 -1.61793e-05 -2.05851e-05 -2.57129e-05 -3.15628e-05 -3.81346e-05 -4.54284e-05 -5.34443e-05 -6.21821e-05 -7.1642e-05 -8.14249e-05 -9.1132e-05 -0.000100763 -0.000110319 -0.000119798 -0.000129202 -0.000138529 -0.000147781 -0.000156713 -0.00016508 -0.000172882 -0.00018012 -0.000186793 -0.000192902 -0.000198445 -0.000203424 -0.000207804 -0.00021155 -0.000214661 -0.000217138 -0.000218981 -0.00022019 -0.000220765 -0.000220706 -0.000220141 -0.000219202 -0.000217886 -0.000216195 -0.000214129 -0.000211687 -0.000208869 -0.000205676 -0.00020232 -0.000199013 -0.000195756 -0.000192549 -0.000189391 -0.000186283 -0.000183224 -0.000180215 -0.000177418 -0.000174993 -0.000172941 -0.000171263 -0.000169957 -0.000169024 -0.000168465 -0.000168278 -0.000168465 -0.000169024 -0.000169957 -0.000171262 -0.000172941 -0.000174993 -0.000177418 -0.000180215 -0.000183224 -0.000186283 -0.000189391 -0.000192549 -0.000195756 -0.000199013 -0.00020232 -0.000205676 -0.000208869 -0.000211687 -0.000214129 -0.000216195 -0.000217886 -0.000219202 -0.000220141 -0.000220706 -0.000220765 -0.00022019 -0.000218981 -0.000217138 -0.000214661 -0.00021155 -0.000207804 -0.000203424 -0.000198445 -0.000192902 -0.000186793 -0.00018012 -0.000172883 -0.00016508 -0.000156713 -0.000147781 -0.00013853 -0.000129202 -0.000119798 -0.000110319 -0.000100763 -9.1132e-05 -8.14249e-05 -7.1642e-05 -6.21822e-05 -5.34443e-05 -4.54285e-05 -3.81346e-05 -3.15628e-05 -2.5713e-05 -2.05851e-05 -1.61793e-05 -1.23873e-05 -9.10086e-06 -6.32004e-06 -4.04483e-06 -2.27522e-06 -1.01121e-06 -2.52802e-07 0 0 -5.68803e-07 -2.27521e-06 -5.11923e-06 -9.10085e-06 -1.42201e-05 -2.04769e-05 -2.78714e-05 -3.64034e-05 -4.63165e-05 -5.78541e-05 -7.10162e-05 -8.58029e-05 -0.000102214 -0.00012025 -0.00013991 -0.000161194 -0.000183206 -0.000205047 -0.000226717 -0.000248217 -0.000269546 -0.000290704 -0.000311691 -0.000332508 -0.000352604 -0.00037143 -0.000388986 -0.00040527 -0.000420285 -0.000434029 -0.000446502 -0.000457705 -0.000467559 -0.000475987 -0.000482987 -0.000488561 -0.000492708 -0.000495428 -0.000496721 -0.000496588 -0.000495318 -0.000493204 -0.000490244 -0.000486439 -0.00048179 -0.000476295 -0.000469956 -0.000462771 -0.00045522 -0.00044778 -0.000440452 -0.000433235 -0.00042613 -0.000419137 -0.000412255 -0.000405484 -0.000399189 -0.000393734 -0.000389118 -0.000385341 -0.000382403 -0.000380305 -0.000379046 -0.000378626 -0.000379046 -0.000380305 -0.000382403 -0.000385341 -0.000389118 -0.000393734 -0.000399189 -0.000405484 -0.000412255 -0.000419137 -0.00042613 -0.000433235 -0.000440452 -0.00044778 -0.00045522 -0.000462771 -0.000469956 -0.000476295 -0.00048179 -0.000486439 -0.000490244 -0.000493204 -0.000495318 -0.000496588 -0.000496721 -0.000495428 -0.000492708 -0.000488561 -0.000482987 -0.000475987 -0.000467559 -0.000457705 -0.000446502 -0.000434029 -0.000420285 -0.00040527 -0.000388986 -0.00037143 -0.000352605 -0.000332508 -0.000311691 -0.000290704 -0.000269546 -0.000248217 -0.000226717 -0.000205047 -0.000183206 -0.000161195 -0.00013991 -0.00012025 -0.000102214 -8.58029e-05 -7.10163e-05 -5.78542e-05 -4.63166e-05 -3.64034e-05 -2.78714e-05 -2.04769e-05 -1.42201e-05 -9.10086e-06 -5.11923e-06 -2.27522e-06 -5.68804e-07 0 0 -1.01121e-06 -4.04482e-06 -9.10085e-06 -1.61793e-05 -2.52801e-05 -3.64034e-05 -4.95491e-05 -6.47172e-05 -8.23405e-05 -0.000102852 -0.000126251 -0.000152538 -0.000181714 -0.000213777 -0.000248729 -0.000286568 -0.0003257 -0.000364528 -0.000403053 -0.000441274 -0.000479192 -0.000516807 -0.000554118 -0.000591126 -0.000626852 -0.000660321 -0.00069153 -0.000720481 -0.000747173 -0.000771607 -0.000793782 -0.000813698 -0.000831217 -0.000846199 -0.000858644 -0.000868553 -0.000875925 -0.000880761 -0.00088306 -0.000882822 -0.000880566 -0.000876806 -0.000871545 -0.000864781 -0.000856515 -0.000846747 -0.000835477 -0.000822704 -0.00080928 -0.000796054 -0.000783026 -0.000770196 -0.000757565 -0.000745132 -0.000732897 -0.000720861 -0.00070967 -0.000699971 -0.000691765 -0.00068505 -0.000679828 -0.000676097 -0.000673859 -0.000673113 -0.000673859 -0.000676097 -0.000679828 -0.00068505 -0.000691765 -0.000699971 -0.00070967 -0.000720861 -0.000732897 -0.000745132 -0.000757565 -0.000770196 -0.000783026 -0.000796053 -0.00080928 -0.000822704 -0.000835477 -0.000846747 -0.000856515 -0.000864781 -0.000871545 -0.000876806 -0.000880566 -0.000882822 -0.00088306 -0.000880761 -0.000875925 -0.000868553 -0.000858644 -0.000846199 -0.000831217 -0.000813698 -0.000793782 -0.000771607 -0.000747173 -0.000720481 -0.00069153 -0.000660321 -0.000626853 -0.000591126 -0.000554118 -0.000516807 -0.000479192 -0.000441274 -0.000403053 -0.000364528 -0.0003257 -0.000286568 -0.000248729 -0.000213777 -0.000181714 -0.000152539 -0.000126251 -0.000102852 -8.23406e-05 -6.47172e-05 -4.95491e-05 -3.64034e-05 -2.52802e-05 -1.61793e-05 -9.10086e-06 -4.04483e-06 -1.01121e-06 0 0 -1.58001e-06 -6.32004e-06 -1.42201e-05 -2.52801e-05 -3.95002e-05 -5.68803e-05 -7.74204e-05 -0.000101121 -0.000128657 -0.000160706 -0.000197267 -0.000238341 -0.000283928 -0.000334027 -0.000388638 -0.000447762 -0.000508906 -0.000569575 -0.00062977 -0.000689491 -0.000748738 -0.000807511 -0.000865809 -0.000923634 -0.000979457 -0.00103175 -0.00108052 -0.00112575 -0.00116746 -0.00120564 -0.00124028 -0.0012714 -0.00129878 -0.00132219 -0.00134163 -0.00135711 -0.00136863 -0.00137619 -0.00137978 -0.00137941 -0.00137588 -0.00137001 -0.00136179 -0.00135122 -0.00133831 -0.00132304 -0.00130543 -0.00128548 -0.0012645 -0.00124383 -0.00122348 -0.00120343 -0.0011837 -0.00116427 -0.00114515 -0.00112635 -0.00110886 -0.00109371 -0.00108088 -0.00107039 -0.00106223 -0.0010564 -0.0010529 -0.00105174 -0.0010529 -0.0010564 -0.00106223 -0.00107039 -0.00108088 -0.00109371 -0.00110886 -0.00112635 -0.00114515 -0.00116427 -0.0011837 -0.00120343 -0.00122348 -0.00124383 -0.0012645 -0.00128548 -0.00130543 -0.00132304 -0.00133831 -0.00135122 -0.00136179 -0.00137001 -0.00137588 -0.00137941 -0.00137978 -0.00137619 -0.00136863 -0.00135711 -0.00134163 -0.00132219 -0.00129878 -0.0012714 -0.00124028 -0.00120564 -0.00116746 -0.00112575 -0.00108052 -0.00103175 -0.000979457 -0.000923634 -0.000865809 -0.000807511 -0.000748738 -0.000689491 -0.00062977 -0.000569575 -0.000508906 -0.000447763 -0.000388639 -0.000334027 -0.000283928 -0.000238342 -0.000197268 -0.000160706 -0.000128657 -0.000101121 -7.74205e-05 -5.68804e-05 -3.95003e-05 -2.52802e-05 -1.42201e-05 -6.32004e-06 -1.58001e-06 0 0 -2.27521e-06 -9.10085e-06 -2.04769e-05 -3.64034e-05 -5.68803e-05 -8.19077e-05 -0.000111485 -0.000145614 -0.000185266 -0.000231416 -0.000284065 -0.000343211 -0.000408856 -0.000480999 -0.000559639 -0.000644778 -0.000732824 -0.000820188 -0.000906869 -0.000992867 -0.00107818 -0.00116282 -0.00124677 -0.00133003 -0.00141042 -0.00148572 -0.00155594 -0.00162108 -0.00168114 -0.00173611 -0.00178601 -0.00183082 -0.00187024 -0.00190395 -0.00193195 -0.00195424 -0.00197083 -0.00198171 -0.00198689 -0.00198635 -0.00198127 -0.00197281 -0.00196098 -0.00194576 -0.00192716 -0.00190518 -0.00187982 -0.00185108 -0.00182088 -0.00179112 -0.00176181 -0.00173294 -0.00170452 -0.00167655 -0.00164902 -0.00162194 -0.00159676 -0.00157494 -0.00155647 -0.00154136 -0.00152961 -0.00152122 -0.00151618 -0.0015145 -0.00151618 -0.00152122 -0.00152961 -0.00154136 -0.00155647 -0.00157494 -0.00159676 -0.00162194 -0.00164902 -0.00167655 -0.00170452 -0.00173294 -0.00176181 -0.00179112 -0.00182088 -0.00185108 -0.00187982 -0.00190518 -0.00192716 -0.00194576 -0.00196098 -0.00197281 -0.00198127 -0.00198635 -0.00198688 -0.00198171 -0.00197083 -0.00195424 -0.00193195 -0.00190395 -0.00187024 -0.00183082 -0.00178601 -0.00173611 -0.00168114 -0.00162108 -0.00155594 -0.00148572 -0.00141042 -0.00133003 -0.00124677 -0.00116282 -0.00107818 -0.000992867 -0.000906869 -0.000820188 -0.000732824 -0.000644778 -0.00055964 -0.000480999 -0.000408856 -0.000343212 -0.000284065 -0.000231417 -0.000185266 -0.000145614 -0.000111486 -8.19078e-05 -5.68804e-05 -3.64034e-05 -2.04769e-05 -9.10086e-06 -2.27522e-06 0 0 -3.09682e-06 -1.23873e-05 -2.78714e-05 -4.95491e-05 -7.74204e-05 -0.000111485 -0.000151744 -0.000198196 -0.000252168 -0.000314984 -0.000386644 -0.000467149 -0.000556498 -0.000654693 -0.000761731 -0.000877614 -0.000997455 -0.00111637 -0.00123435 -0.0013514 -0.00146753 -0.00158272 -0.00169699 -0.00181032 -0.00191974 -0.00202223 -0.00211781 -0.00220647 -0.00228822 -0.00236305 -0.00243096 -0.00249195 -0.0025456 -0.00259148 -0.0026296 -0.00265994 -0.00268252 -0.00269733 -0.00270437 -0.00270364 -0.00269673 -0.00268522 -0.00266911 -0.00264839 -0.00262308 -0.00259316 -0.00255865 -0.00251953 -0.00247842 -0.00243791 -0.00239802 -0.00235873 -0.00232004 -0.00228197 -0.0022445 -0.00220764 -0.00217336 -0.00214366 -0.00211853 -0.00209797 -0.00208197 -0.00207055 -0.00206369 -0.00206141 -0.00206369 -0.00207055 -0.00208197 -0.00209797 -0.00211853 -0.00214366 -0.00217336 -0.00220764 -0.0022445 -0.00228197 -0.00232004 -0.00235873 -0.00239802 -0.00243791 -0.00247842 -0.00251953 -0.00255865 -0.00259316 -0.00262308 -0.00264839 -0.00266911 -0.00268522 -0.00269673 -0.00270364 -0.00270437 -0.00269733 -0.00268252 -0.00265994 -0.0026296 -0.00259148 -0.0025456 -0.00249195 -0.00243096 -0.00236305 -0.00228822 -0.00220647 -0.00211781 -0.00202223 -0.00191974 -0.00181032 -0.00169699 -0.00158272 -0.00146753 -0.0013514 -0.00123435 -0.00111637 -0.000997456 -0.000877615 -0.000761732 -0.000654693 -0.000556499 -0.000467149 -0.000386644 -0.000314984 -0.000252168 -0.000198197 -0.000151744 -0.000111486 -7.74205e-05 -4.95491e-05 -2.78714e-05 -1.23873e-05 -3.09682e-06 0 0 -4.04482e-06 -1.61793e-05 -3.64034e-05 -6.47172e-05 -0.000101121 -0.000145614 -0.000198196 -0.000258869 -0.000329362 -0.000411407 -0.000505004 -0.000610154 -0.000726855 -0.000855109 -0.000994914 -0.00114627 -0.0013028 -0.00145811 -0.00161221 -0.0017651 -0.00191677 -0.00206723 -0.00221647 -0.0023645 -0.00250741 -0.00264128 -0.00276612 -0.00288192 -0.00298869 -0.00308643 -0.00317513 -0.00325479 -0.00332487 -0.00338479 -0.00343458 -0.00347421 -0.0035037 -0.00352304 -0.00353224 -0.00353129 -0.00352226 -0.00350723 -0.00348618 -0.00345913 -0.00342606 -0.00338699 -0.00334191 -0.00329082 -0.00323712 -0.00318421 -0.0031321 -0.00308078 -0.00303026 -0.00298053 -0.00293159 -0.00288344 -0.00283868 -0.00279989 -0.00276706 -0.0027402 -0.00271931 -0.00270439 -0.00269544 -0.00269245 -0.00269544 -0.00270439 -0.00271931 -0.0027402 -0.00276706 -0.00279989 -0.00283868 -0.00288344 -0.00293159 -0.00298053 -0.00303026 -0.00308078 -0.0031321 -0.00318421 -0.00323712 -0.00329082 -0.00334191 -0.00338699 -0.00342606 -0.00345913 -0.00348618 -0.00350723 -0.00352226 -0.00353129 -0.00353224 -0.00352304 -0.0035037 -0.00347421 -0.00343458 -0.00338479 -0.00332487 -0.00325479 -0.00317513 -0.00308643 -0.00298869 -0.00288192 -0.00276612 -0.00264128 -0.00250741 -0.0023645 -0.00221647 -0.00206723 -0.00191677 -0.0017651 -0.00161221 -0.00145811 -0.0013028 -0.00114627 -0.000994915 -0.000855109 -0.000726856 -0.000610154 -0.000505005 -0.000411408 -0.000329362 -0.000258869 -0.000198197 -0.000145614 -0.000101121 -6.47172e-05 -3.64034e-05 -1.61793e-05 -4.04483e-06 0 0 -5.14628e-06 -2.05851e-05 -4.63165e-05 -8.23405e-05 -0.000128657 -0.000185266 -0.000252168 -0.000329362 -0.000418941 -0.000522998 -0.000641533 -0.000774546 -0.000922036 -0.001084 -0.00126045 -0.00145137 -0.00164861 -0.00184399 -0.00203752 -0.00222919 -0.00241901 -0.00260697 -0.00279308 -0.00297734 -0.00315475 -0.00332032 -0.00347406 -0.00361597 -0.00374604 -0.00386428 -0.00397068 -0.00406525 -0.00414731 -0.00421622 -0.00427196 -0.00431453 -0.00434395 -0.00436019 -0.00436328 -0.0043532 -0.00433273 -0.00430464 -0.00426893 -0.0042256 -0.00417466 -0.00411609 -0.00404991 -0.00397611 -0.0038992 -0.00382372 -0.00374966 -0.00367701 -0.00360579 -0.00353598 -0.0034676 -0.00340063 -0.00333852 -0.00328469 -0.00323913 -0.00320187 -0.00317288 -0.00315217 -0.00313975 -0.00313561 -0.00313975 -0.00315217 -0.00317288 -0.00320187 -0.00323913 -0.00328469 -0.00333852 -0.00340063 -0.0034676 -0.00353598 -0.00360579 -0.00367701 -0.00374966 -0.00382372 -0.0038992 -0.00397611 -0.00404991 -0.00411609 -0.00417466 -0.0042256 -0.00426893 -0.00430464 -0.00433273 -0.0043532 -0.00436328 -0.00436019 -0.00434395 -0.00431453 -0.00427196 -0.00421622 -0.00414731 -0.00406525 -0.00397068 -0.00386428 -0.00374604 -0.00361597 -0.00347407 -0.00332032 -0.00315475 -0.00297734 -0.00279308 -0.00260697 -0.00241901 -0.00222919 -0.00203752 -0.00184399 -0.00164861 -0.00145138 -0.00126045 -0.00108401 -0.000922037 -0.000774547 -0.000641534 -0.000522999 -0.000418942 -0.000329362 -0.000252168 -0.000185266 -0.000128657 -8.23406e-05 -4.63166e-05 -2.05851e-05 -5.14628e-06 0 0 -6.42824e-06 -2.57129e-05 -5.78541e-05 -0.000102852 -0.000160706 -0.000231416 -0.000314984 -0.000411407 -0.000522998 -0.000652068 -0.000798618 -0.000962646 -0.00114415 -0.00134314 -0.0015596 -0.00179355 -0.00203465 -0.00227257 -0.00250733 -0.00273892 -0.00296734 -0.0031926 -0.00341468 -0.00363359 -0.00384306 -0.00403681 -0.00421484 -0.00437715 -0.00452375 -0.00465462 -0.00476978 -0.00486922 -0.00495223 -0.00501809 -0.00506681 -0.00509839 -0.00511283 -0.00511013 -0.00509028 -0.00505329 -0.005003 -0.00494327 -0.0048741 -0.00479548 -0.00470742 -0.00460991 -0.00450296 -0.00438656 -0.0042669 -0.00415013 -0.00403627 -0.00392531 -0.00381725 -0.00371209 -0.00360983 -0.00351048 -0.00341869 -0.00333914 -0.00327184 -0.00321676 -0.00317393 -0.00314334 -0.00312498 -0.00311886 -0.00312498 -0.00314334 -0.00317393 -0.00321676 -0.00327184 -0.00333914 -0.00341869 -0.00351048 -0.00360983 -0.00371209 -0.00381725 -0.00392531 -0.00403627 -0.00415013 -0.0042669 -0.00438656 -0.00450296 -0.00460991 -0.00470742 -0.00479548 -0.0048741 -0.00494327 -0.005003 -0.00505329 -0.00509028 -0.00511013 -0.00511283 -0.00509839 -0.00506681 -0.00501809 -0.00495223 -0.00486922 -0.00476978 -0.00465462 -0.00452375 -0.00437715 -0.00421484 -0.00403681 -0.00384306 -0.00363359 -0.00341468 -0.0031926 -0.00296735 -0.00273892 -0.00250733 -0.00227258 -0.00203465 -0.00179355 -0.0015596 -0.00134314 -0.00114415 -0.000962646 -0.000798618 -0.000652069 -0.000522999 -0.000411408 -0.000314984 -0.000231417 -0.000160706 -0.000102852 -5.78542e-05 -2.5713e-05 -6.42824e-06 0 0 -7.89069e-06 -3.15628e-05 -7.10162e-05 -0.000126251 -0.000197267 -0.000284065 -0.000386644 -0.000505004 -0.000641533 -0.000798618 -0.000976257 -0.00117445 -0.0013932 -0.00163251 -0.00189237 -0.00217279 -0.0024609 -0.00274386 -0.00302166 -0.0032943 -0.00356178 -0.0038241 -0.00408126 -0.00433326 -0.00457234 -0.00479074 -0.00498845 -0.00516547 -0.00532181 -0.00545746 -0.00557243 -0.00566671 -0.0057396 -0.00579042 -0.00581915 -0.00582579 -0.00581036 -0.00577284 -0.00571323 -0.00563155 -0.00553308 -0.00542312 -0.00530168 -0.00516875 -0.00502434 -0.00486844 -0.00470106 -0.00452219 -0.0043402 -0.00416345 -0.00399194 -0.00382566 -0.00366463 -0.00350884 -0.00335829 -0.00321297 -0.0030792 -0.00296326 -0.00286516 -0.0027849 -0.00272247 -0.00267788 -0.00265112 -0.0026422 -0.00265112 -0.00267788 -0.00272247 -0.00278489 -0.00286516 -0.00296326 -0.0030792 -0.00321297 -0.00335829 -0.00350884 -0.00366463 -0.00382566 -0.00399194 -0.00416345 -0.0043402 -0.00452219 -0.00470106 -0.00486844 -0.00502434 -0.00516875 -0.00530168 -0.00542312 -0.00553308 -0.00563155 -0.00571323 -0.00577284 -0.00581036 -0.00582579 -0.00581915 -0.00579042 -0.0057396 -0.00566671 -0.00557243 -0.00545746 -0.00532181 -0.00516547 -0.00498845 -0.00479074 -0.00457234 -0.00433326 -0.00408126 -0.0038241 -0.00356178 -0.0032943 -0.00302166 -0.00274386 -0.00246091 -0.00217279 -0.00189237 -0.00163251 -0.0013932 -0.00117445 -0.000976258 -0.000798618 -0.000641534 -0.000505005 -0.000386644 -0.000284065 -0.000197268 -0.000126251 -7.10163e-05 -3.15628e-05 -7.8907e-06 0 0 -9.53365e-06 -3.81346e-05 -8.58029e-05 -0.000152538 -0.000238341 -0.000343211 -0.000467149 -0.000610154 -0.000774546 -0.000962645 -0.00117445 -0.00140997 -0.00166919 -0.00195212 -0.00225876 -0.0025891 -0.00292739 -0.00325785 -0.00358049 -0.00389531 -0.0042023 -0.00450148 -0.00479282 -0.00507635 -0.0053426 -0.00558211 -0.00579488 -0.00598092 -0.00614022 -0.00627279 -0.00637862 -0.00645771 -0.00650944 -0.00653319 -0.00652895 -0.00649673 -0.00643652 -0.00634833 -0.00623215 -0.00608799 -0.00592296 -0.00574419 -0.00555167 -0.00534542 -0.00512542 -0.00489169 -0.00464421 -0.00438299 -0.00411911 -0.00386367 -0.00361666 -0.00337809 -0.00314794 -0.00292624 -0.00271296 -0.00250813 -0.00232004 -0.00215704 -0.00201911 -0.00190626 -0.00181849 -0.00175579 -0.00171817 -0.00170564 -0.00171817 -0.00175579 -0.00181849 -0.00190626 -0.00201911 -0.00215704 -0.00232004 -0.00250813 -0.00271296 -0.00292624 -0.00314794 -0.00337809 -0.00361666 -0.00386367 -0.00411911 -0.00438299 -0.00464421 -0.00489169 -0.00512542 -0.00534542 -0.00555167 -0.00574419 -0.00592296 -0.00608799 -0.00623215 -0.00634833 -0.00643652 -0.00649673 -0.00652895 -0.00653319 -0.00650944 -0.00645771 -0.00637862 -0.00627279 -0.00614022 -0.00598092 -0.00579488 -0.00558211 -0.0053426 -0.00507635 -0.00479283 -0.00450148 -0.00420231 -0.00389531 -0.00358049 -0.00325785 -0.00292739 -0.0025891 -0.00225876 -0.00195212 -0.00166919 -0.00140997 -0.00117445 -0.000962646 -0.000774547 -0.000610154 -0.000467149 -0.000343212 -0.000238342 -0.000152539 -8.5803e-05 -3.81346e-05 -9.53366e-06 0 0 -1.13571e-05 -4.54284e-05 -0.000102214 -0.000181714 -0.000283928 -0.000408856 -0.000556498 -0.000726855 -0.000922036 -0.00114415 -0.0013932 -0.00166919 -0.00197211 -0.00230197 -0.00265876 -0.00304248 -0.00343409 -0.00381454 -0.00418383 -0.00454196 -0.00488893 -0.00522473 -0.00554938 -0.00586286 -0.00615382 -0.00641092 -0.00663415 -0.0068235 -0.00697899 -0.00710061 -0.00718836 -0.00724223 -0.00726175 -0.00724642 -0.00719624 -0.00711121 -0.00699133 -0.0068366 -0.00664702 -0.0064226 -0.00617264 -0.00590647 -0.00562408 -0.00532549 -0.00501067 -0.00467965 -0.0043324 -0.00396895 -0.00360363 -0.00325079 -0.00291044 -0.00258257 -0.00226719 -0.00196428 -0.00167387 -0.00139593 -0.00114122 -0.000920469 -0.00073368 -0.000580853 -0.000461987 -0.000377083 -0.000326141 -0.00030916 -0.000326141 -0.000377083 -0.000461987 -0.000580853 -0.00073368 -0.000920469 -0.00114122 -0.00139593 -0.00167387 -0.00196428 -0.00226719 -0.00258257 -0.00291044 -0.00325079 -0.00360363 -0.00396895 -0.0043324 -0.00467965 -0.00501067 -0.00532549 -0.00562408 -0.00590647 -0.00617264 -0.0064226 -0.00664702 -0.0068366 -0.00699133 -0.00711121 -0.00719624 -0.00724642 -0.00726175 -0.00724223 -0.00718836 -0.00710061 -0.00697899 -0.00682351 -0.00663415 -0.00641092 -0.00615383 -0.00586286 -0.00554938 -0.00522473 -0.00488893 -0.00454196 -0.00418383 -0.00381455 -0.00343409 -0.00304248 -0.00265876 -0.00230197 -0.00197211 -0.00166919 -0.0013932 -0.00114415 -0.000922037 -0.000726856 -0.000556499 -0.000408856 -0.000283928 -0.000181714 -0.000102214 -4.54285e-05 -1.13571e-05 0 0 -1.33611e-05 -5.34443e-05 -0.00012025 -0.000213777 -0.000334027 -0.000480999 -0.000654692 -0.000855108 -0.001084 -0.00134314 -0.00163251 -0.00195212 -0.00230197 -0.00268205 -0.00309237 -0.00353293 -0.00398102 -0.00441394 -0.00483168 -0.00523425 -0.00562165 -0.00599387 -0.00635091 -0.00669278 -0.00700602 -0.00727718 -0.00750624 -0.00769322 -0.00783812 -0.00794092 -0.00800164 -0.00802027 -0.00799652 -0.00793009 -0.007821 -0.00766922 -0.00747477 -0.00723765 -0.00695786 -0.00663539 -0.00628213 -0.00590997 -0.00551891 -0.00510895 -0.00468008 -0.00423232 -0.00376565 -0.00328008 -0.00279376 -0.00232483 -0.00187328 -0.00143912 -0.00102236 -0.00062298 -0.000240992 0.000123607 0.000457268 0.00074644 0.000991124 0.00119132 0.00134703 0.00145825 0.00152498 0.00154722 0.00152498 0.00145825 0.00134703 0.00119132 0.000991124 0.00074644 0.000457268 0.000123608 -0.000240991 -0.000622979 -0.00102236 -0.00143912 -0.00187328 -0.00232482 -0.00279376 -0.00328008 -0.00376565 -0.00423232 -0.00468008 -0.00510895 -0.00551891 -0.00590997 -0.00628213 -0.00663539 -0.00695786 -0.00723765 -0.00747477 -0.00766922 -0.007821 -0.00793009 -0.00799652 -0.00802027 -0.00800164 -0.00794092 -0.00783812 -0.00769323 -0.00750625 -0.00727718 -0.00700603 -0.00669279 -0.00635091 -0.00599387 -0.00562165 -0.00523425 -0.00483169 -0.00441394 -0.00398103 -0.00353293 -0.00309237 -0.00268205 -0.00230197 -0.00195212 -0.00163251 -0.00134314 -0.00108401 -0.000855109 -0.000654693 -0.000480999 -0.000334027 -0.000213777 -0.00012025 -5.34443e-05 -1.33611e-05 0 0 -1.55455e-05 -6.21821e-05 -0.00013991 -0.000248728 -0.000388638 -0.000559639 -0.000761731 -0.000994914 -0.00126045 -0.0015596 -0.00189237 -0.00225876 -0.00265876 -0.00309237 -0.0035596 -0.00406045 -0.00456818 -0.00505604 -0.00552404 -0.00597218 -0.00640046 -0.00680888 -0.00719743 -0.00756613 -0.0078992 -0.00818088 -0.00841117 -0.00859008 -0.0087176 -0.00879373 -0.00881847 -0.00879182 -0.00871375 -0.00858422 -0.00840323 -0.00817077 -0.00788686 -0.00755149 -0.00716465 -0.00672635 -0.00625142 -0.00575469 -0.00523615 -0.0046958 -0.00413366 -0.0035497 -0.00294395 -0.00231639 -0.0016895 -0.00108576 -0.000505175 5.22601e-05 0.000586544 0.00109768 0.00158566 0.00205049 0.00247542 0.00284369 0.0031553 0.00341026 0.00360856 0.0037502 0.00383519 0.00386352 0.00383519 0.0037502 0.00360856 0.00341026 0.0031553 0.00284369 0.00247542 0.00205049 0.00158566 0.00109768 0.000586545 5.22605e-05 -0.000505175 -0.00108576 -0.0016895 -0.00231639 -0.00294395 -0.0035497 -0.00413366 -0.0046958 -0.00523615 -0.00575469 -0.00625142 -0.00672635 -0.00716465 -0.00755149 -0.00788686 -0.00817078 -0.00840323 -0.00858422 -0.00871375 -0.00879182 -0.00881847 -0.00879373 -0.0087176 -0.00859008 -0.00841117 -0.00818088 -0.0078992 -0.00756613 -0.00719744 -0.00680888 -0.00640046 -0.00597219 -0.00552404 -0.00505604 -0.00456818 -0.00406045 -0.00355961 -0.00309237 -0.00265876 -0.00225876 -0.00189237 -0.0015596 -0.00126045 -0.000994915 -0.000761732 -0.00055964 -0.000388639 -0.000248729 -0.00013991 -6.21822e-05 -1.55455e-05 0 0 -1.79105e-05 -7.1642e-05 -0.000161194 -0.000286568 -0.000447762 -0.000644778 -0.000877614 -0.00114627 -0.00145137 -0.00179355 -0.00217279 -0.0025891 -0.00304248 -0.00353293 -0.00406045 -0.00462504 -0.00519555 -0.00574084 -0.00626091 -0.00675575 -0.00722537 -0.00766977 -0.00808894 -0.00848289 -0.00883334 -0.00912202 -0.00934893 -0.00951406 -0.00961743 -0.00965902 -0.00963884 -0.00955689 -0.00941345 -0.0092088 -0.00894294 -0.00861587 -0.00822759 -0.0077781 -0.0072674 -0.00669549 -0.00608052 -0.00544062 -0.0047758 -0.00408606 -0.00337139 -0.0026318 -0.00186729 -0.00107786 -0.000290845 0.000466398 0.00119387 0.00189158 0.00255952 0.00319769 0.00380609 0.00438472 0.00491324 0.00537128 0.00575886 0.00607597 0.00632261 0.00649878 0.00660448 0.00663972 0.00660448 0.00649878 0.00632261 0.00607597 0.00575886 0.00537128 0.00491324 0.00438472 0.00380609 0.00319769 0.00255952 0.00189158 0.00119387 0.000466398 -0.000290845 -0.00107786 -0.00186729 -0.0026318 -0.00337139 -0.00408606 -0.0047758 -0.00544062 -0.00608052 -0.00669549 -0.0072674 -0.0077781 -0.00822759 -0.00861587 -0.00894294 -0.0092088 -0.00941345 -0.00955689 -0.00963884 -0.00965902 -0.00961743 -0.00951407 -0.00934893 -0.00912202 -0.00883334 -0.00848289 -0.00808894 -0.00766977 -0.00722537 -0.00675576 -0.00626091 -0.00574085 -0.00519556 -0.00462504 -0.00406045 -0.00353293 -0.00304248 -0.0025891 -0.00217279 -0.00179355 -0.00145138 -0.00114627 -0.000877615 -0.000644778 -0.000447763 -0.000286568 -0.000161195 -7.1642e-05 -1.79105e-05 0 0 -2.03562e-05 -8.14249e-05 -0.000183206 -0.0003257 -0.000508906 -0.000732824 -0.000997455 -0.0013028 -0.00164861 -0.00203464 -0.0024609 -0.00292739 -0.00343409 -0.00398102 -0.00456818 -0.00519555 -0.00582719 -0.00642711 -0.00699533 -0.00753184 -0.00803663 -0.00850972 -0.00895109 -0.00936076 -0.00971771 -0.0100009 -0.0102104 -0.0103462 -0.0104082 -0.0103966 -0.0103112 -0.010152 -0.0099199 -0.00961555 -0.00923896 -0.00879013 -0.00826907 -0.00767577 -0.00701024 -0.00627246 -0.00548451 -0.00466844 -0.00382424 -0.00295191 -0.00205147 -0.0011229 -0.000166207 0.000818609 0.00179853 0.00274053 0.00364461 0.00451077 0.00533902 0.00612935 0.00688176 0.00759625 0.00824831 0.00881343 0.00929161 0.00968285 0.00998714 0.0102045 0.0103349 0.0103784 0.0103349 0.0102045 0.00998714 0.00968285 0.00929161 0.00881343 0.00824831 0.00759625 0.00688176 0.00612935 0.00533902 0.00451077 0.00364461 0.00274053 0.00179853 0.000818609 -0.000166206 -0.0011229 -0.00205147 -0.00295191 -0.00382424 -0.00466844 -0.00548451 -0.00627246 -0.00701024 -0.00767577 -0.00826907 -0.00879013 -0.00923896 -0.00961555 -0.0099199 -0.010152 -0.0103112 -0.0103966 -0.0104082 -0.0103462 -0.0102104 -0.0100009 -0.00971771 -0.00936076 -0.0089511 -0.00850972 -0.00803663 -0.00753184 -0.00699533 -0.00642712 -0.00582719 -0.00519556 -0.00456818 -0.00398103 -0.0034341 -0.00292739 -0.00246091 -0.00203465 -0.00164861 -0.0013028 -0.000997456 -0.000732825 -0.000508906 -0.0003257 -0.000183206 -8.1425e-05 -2.03562e-05 0 0 -2.2783e-05 -9.11319e-05 -0.000205047 -0.000364528 -0.000569575 -0.000820188 -0.00111637 -0.00145811 -0.00184399 -0.00227257 -0.00274386 -0.00325785 -0.00381454 -0.00441394 -0.00505604 -0.00574084 -0.00642711 -0.00707361 -0.00768034 -0.0082473 -0.00877449 -0.00926191 -0.00970956 -0.0101174 -0.0104616 -0.0107179 -0.0108866 -0.0109675 -0.0109607 -0.0108661 -0.0106838 -0.0104137 -0.0100574 -0.0096162 -0.00909013 -0.00847921 -0.00778343 -0.00700279 -0.00613728 -0.00518692 -0.0041785 -0.0031388 -0.00206783 -0.000965583 0.000167934 0.00133272 0.00252878 0.00375612 0.00497495 0.0061455 0.00726778 0.00834178 0.00936751 0.010345 0.0112741 0.012155 0.0129582 0.0136543 0.0142434 0.0147253 0.0151001 0.0153679 0.0155285 0.015582 0.0155285 0.0153679 0.0151001 0.0147253 0.0142434 0.0136543 0.0129582 0.012155 0.0112741 0.010345 0.00936751 0.00834178 0.00726778 0.0061455 0.00497495 0.00375612 0.00252878 0.00133272 0.000167934 -0.000965582 -0.00206783 -0.0031388 -0.0041785 -0.00518692 -0.00613728 -0.00700279 -0.00778343 -0.00847921 -0.00909013 -0.0096162 -0.0100574 -0.0104137 -0.0106838 -0.0108661 -0.0109607 -0.0109675 -0.0108866 -0.0107179 -0.0104616 -0.0101174 -0.00970956 -0.00926191 -0.00877449 -0.0082473 -0.00768035 -0.00707362 -0.00642712 -0.00574085 -0.00505604 -0.00441394 -0.00381455 -0.00325785 -0.00274386 -0.00227258 -0.00184399 -0.00145811 -0.00111637 -0.000820188 -0.000569575 -0.000364528 -0.000205047 -9.1132e-05 -2.2783e-05 0 0 -2.51908e-05 -0.000100763 -0.000226717 -0.000403053 -0.00062977 -0.000906868 -0.00123435 -0.00161221 -0.00203752 -0.00250733 -0.00302166 -0.00358049 -0.00418383 -0.00483168 -0.00552404 -0.00626091 -0.00699533 -0.00768034 -0.00831595 -0.00890215 -0.00943895 -0.00992634 -0.0103643 -0.0107529 -0.0110649 -0.011273 -0.0113774 -0.0113779 -0.0112747 -0.0110676 -0.0107567 -0.0103421 -0.00982594 -0.00921074 -0.00849646 -0.0076831 -0.00677066 -0.00575914 -0.00464855 -0.00343887 -0.00216248 -0.000851708 0.00049343 0.00187294 0.00328682 0.00473506 0.00621768 0.00773467 0.00923842 0.0106813 0.0120634 0.0133846 0.014645 0.0158445 0.0169832 0.018061 0.019043 0.019894 0.0206141 0.0212033 0.0216615 0.0219889 0.0221853 0.0222507 0.0221853 0.0219889 0.0216615 0.0212033 0.0206141 0.019894 0.019043 0.018061 0.0169832 0.0158445 0.014645 0.0133846 0.0120634 0.0106813 0.00923842 0.00773467 0.00621768 0.00473506 0.00328682 0.00187294 0.000493431 -0.000851707 -0.00216248 -0.00343887 -0.00464855 -0.00575914 -0.00677066 -0.0076831 -0.00849646 -0.00921074 -0.00982594 -0.0103421 -0.0107568 -0.0110676 -0.0112747 -0.011378 -0.0113774 -0.011273 -0.0110649 -0.0107529 -0.0103643 -0.00992634 -0.00943895 -0.00890216 -0.00831595 -0.00768035 -0.00699533 -0.00626091 -0.00552405 -0.00483169 -0.00418384 -0.00358049 -0.00302166 -0.00250734 -0.00203752 -0.00161221 -0.00123435 -0.000906869 -0.00062977 -0.000403053 -0.000226717 -0.000100763 -2.51908e-05 0 0 -2.75796e-05 -0.000110319 -0.000248217 -0.000441274 -0.000689491 -0.000992867 -0.0013514 -0.0017651 -0.0022291