<?xml version="1.0"?> 
<VTKFile type="StructuredGrid" version="0.1"> 
<StructuredGrid WholeExtent="0 128 0 128 0 0"> 
<Piece Extent="0 128 0 128 0 0"> 
<PointData>
<DataArray type="Float32" Name="u" format="ascii" NumberOfComponents="1"> 
0 0 0 0 0 0 0 0 0 0 0 0 0 0 0 0 0 0 0 0 0 0 0 0 0 0 0 0 0 0 0 0 0 0 0 0 0 0 0 0 0 0 0 0 0 0 0 0 0 0 0 0 0 0 0 0 0 0 0 0 0 0 0 0 0 0 0 0 0 0 0 0 0 0 0 0 0 0 0 0 0 0 0 0 0 0 0 0 0 0 0 0 0 0 0 0 0 0 0 0 0 0 0 0 0 0 0 0 0 0 0 0 0 0 0 0 0 0 0 0 0 0 0 0 0 0 0 0 0 0 -6.07468e-08 -2.42987e-07 -5.46722e-07 -9.71949e-07 -1.51867e-06 -2.18689e-06 -2.9766e-06 -3.8878e-06 -4.95432e-06 -6.20998e-06 -7.65478e-06 -9.28872e-06 -1.11118e-05 -1.3124e-05 -1.53254e-05 -1.77159e-05 -2.0207e-05 -2.27102e-05 -2.52254e-05 -2.77528e-05 -3.02922e-05 -3.28436e-05 -3.54072e-05 -3.79828e-05 -4.05185e-05 -4.29623e-05 -4.53141e-05 -4.75741e-05 -4.97421e-05 -5.18182e-05 -5.38025e-05 -5.56948e-05 -5.74889e-05 -5.91787e-05 -6.07641e-05 -6.22451e-05 -6.36218e-05 -6.48941e-05 -6.6062e-05 -6.71255e-05 -6.81007e-05 -6.90034e-05 -6.98338e-05 -7.05917e-05 -7.12772e-05 -7.18903e-05 -7.2431e-05 -7.28993e-05 -7.33132e-05 -7.36905e-05 -7.40314e-05 -7.43358e-05 -7.46036e-05 -7.4835e-05 -7.50299e-05 -7.51883e-05 -7.53197e-05 -7.54336e-05 -7.553e-05 -7.56088e-05 -7.56701e-05 -7.57139e-05 -7.57402e-05 -7.57489e-05 -7.57402e-05 -7.57139e-05 -7.56701e-05 -7.56088e-05 -7.553e-05 -7.54336e-05 -7.53197e-05 -7.51883e-05 -7.50299e-05 -7.4835e-05 -7.46036e-05 -7.43358e-05 -7.40314e-05 -7.36905e-05 -7.33132e-05 -7.28993e-05 -7.2431e-05 -7.18903e-05 -7.12772e-05 -7.05917e-05 -6.98338e-05 -6.90034e-05 -6.81007e-05 -6.71255e-05 -6.6062e-05 -6.48941e-05 -6.36218e-05 -6.22451e-05 -6.07641e-05 -5.91787e-05 -5.74889e-05 -5.56948e-05 -5.38025e-05 -5.18182e-05 -4.97421e-05 -4.75741e-05 -4.53141e-05 -4.29623e-05 -4.05185e-05 -3.79828e-05 -3.54072e-05 -3.28436e-05 -3.02922e-05 -2.77528e-05 -2.52255e-05 -2.27102e-05 -2.0207e-05 -1.77159e-05 -1.53254e-05 -1.3124e-05 -1.11118e-05 -9.28873e-06 -7.65479e-06 -6.20998e-06 -4.95432e-06 -3.8878e-06 -2.9766e-06 -2.18689e-06 -1.51867e-06 -9.7195e-07 -5.46722e-07 -2.42988e-07 -6.07469e-08 0 0 -2.42987e-07 -9.71949e-07 -2.18689e-06 -3.8878e-06 -6.07468e-06 -8.74754e-06 -1.19064e-05 -1.55512e-05 -1.98173e-05 -2.48399e-05 -3.06191e-05 -3.71549e-05 -4.44472e-05 -5.24961e-05 -6.13016e-05 -7.08636e-05 -8.0828e-05 -9.08408e-05 -0.000100902 -0.000111011 -0.000121169 -0.000131375 -0.000141629 -0.000151931 -0.000162074 -0.000171849 -0.000181257 -0.000190296 -0.000198968 -0.000207273 -0.00021521 -0.000222779 -0.000229956 -0.000236715 -0.000243056 -0.000248981 -0.000254487 -0.000259576 -0.000264248 -0.000268502 -0.000272403 -0.000276014 -0.000279335 -0.000282367 -0.000285109 -0.000287561 -0.000289724 -0.000291597 -0.000293253 -0.000294762 -0.000296126 -0.000297343 -0.000298415 -0.00029934 -0.00030012 -0.000300753 -0.000301279 -0.000301734 -0.00030212 -0.000302435 -0.00030268 -0.000302856 -0.000302961 -0.000302996 -0.000302961 -0.000302856 -0.00030268 -0.000302435 -0.00030212 -0.000301734 -0.000301279 -0.000300753 -0.00030012 -0.00029934 -0.000298415 -0.000297343 -0.000296126 -0.000294762 -0.000293253 -0.000291597 -0.000289724 -0.000287561 -0.000285109 -0.000282367 -0.000279335 -0.000276014 -0.000272403 -0.000268502 -0.000264248 -0.000259576 -0.000254487 -0.000248981 -0.000243056 -0.000236715 -0.000229956 -0.000222779 -0.00021521 -0.000207273 -0.000198968 -0.000190296 -0.000181257 -0.000171849 -0.000162074 -0.000151931 -0.000141629 -0.000131375 -0.000121169 -0.000111011 -0.000100902 -9.08408e-05 -8.08281e-05 -7.08636e-05 -6.13016e-05 -5.24961e-05 -4.44472e-05 -3.71549e-05 -3.06191e-05 -2.48399e-05 -1.98173e-05 -1.55512e-05 -1.19064e-05 -8.74755e-06 -6.07469e-06 -3.8878e-06 -2.18689e-06 -9.7195e-07 -2.42988e-07 0 0 -5.46722e-07 -2.18689e-06 -4.92049e-06 -8.74754e-06 -1.3668e-05 -1.9682e-05 -2.67894e-05 -3.49902e-05 -4.45889e-05 -5.58898e-05 -6.8893e-05 -8.35985e-05 -0.000100006 -0.000118116 -0.000137929 -0.000159443 -0.000181863 -0.000204392 -0.000227029 -0.000249775 -0.00027263 -0.000295593 -0.000318665 -0.000341845 -0.000364666 -0.00038666 -0.000407827 -0.000428167 -0.000447679 -0.000466364 -0.000484222 -0.000501253 -0.0005174 -0.000532608 -0.000546877 -0.000560206 -0.000572596 -0.000584047 -0.000594558 -0.00060413 -0.000612906 -0.000621031 -0.000628504 -0.000635325 -0.000641495 -0.000647013 -0.000651879 -0.000656094 -0.000659819 -0.000663215 -0.000666283 -0.000669022 -0.000671433 -0.000673515 -0.000675269 -0.000676695 -0.000677877 -0.000678902 -0.00067977 -0.000680479 -0.000681031 -0.000681425 -0.000681662 -0.000681741 -0.000681662 -0.000681425 -0.000681031 -0.000680479 -0.00067977 -0.000678902 -0.000677877 -0.000676695 -0.000675269 -0.000673515 -0.000671433 -0.000669022 -0.000666282 -0.000663215 -0.000659819 -0.000656094 -0.000651879 -0.000647013 -0.000641495 -0.000635325 -0.000628504 -0.000621031 -0.000612906 -0.00060413 -0.000594558 -0.000584047 -0.000572596 -0.000560206 -0.000546877 -0.000532608 -0.0005174 -0.000501253 -0.000484222 -0.000466364 -0.000447679 -0.000428167 -0.000407827 -0.00038666 -0.000364666 -0.000341845 -0.000318665 -0.000295593 -0.00027263 -0.000249775 -0.000227029 -0.000204392 -0.000181863 -0.000159443 -0.000137929 -0.000118116 -0.000100006 -8.35986e-05 -6.88931e-05 -5.58899e-05 -4.45889e-05 -3.49902e-05 -2.67894e-05 -1.9682e-05 -1.36681e-05 -8.74755e-06 -4.9205e-06 -2.18689e-06 -5.46722e-07 0 0 -9.71949e-07 -3.8878e-06 -8.74754e-06 -1.55512e-05 -2.42987e-05 -3.49902e-05 -4.76255e-05 -6.22048e-05 -7.92691e-05 -9.93596e-05 -0.000122476 -0.00014862 -0.000177789 -0.000209984 -0.000245206 -0.000283454 -0.000323312 -0.000363363 -0.000403607 -0.000444044 -0.000484675 -0.000525498 -0.000566515 -0.000607725 -0.000648296 -0.000687396 -0.000725026 -0.000761185 -0.000795874 -0.000829092 -0.000860839 -0.000891116 -0.000919823 -0.000946859 -0.000972226 -0.000995922 -0.00101795 -0.00103831 -0.00105699 -0.00107401 -0.00108961 -0.00110405 -0.00111734 -0.00112947 -0.00114044 -0.00115025 -0.0011589 -0.00116639 -0.00117301 -0.00117905 -0.0011845 -0.00118937 -0.00119366 -0.00119736 -0.00120048 -0.00120301 -0.00120512 -0.00120694 -0.00120848 -0.00120974 -0.00121072 -0.00121142 -0.00121184 -0.00121198 -0.00121184 -0.00121142 -0.00121072 -0.00120974 -0.00120848 -0.00120694 -0.00120512 -0.00120301 -0.00120048 -0.00119736 -0.00119366 -0.00118937 -0.0011845 -0.00117905 -0.00117301 -0.00116639 -0.0011589 -0.00115025 -0.00114044 -0.00112947 -0.00111734 -0.00110405 -0.00108961 -0.00107401 -0.00105699 -0.00103831 -0.00101795 -0.000995922 -0.000972226 -0.000946859 -0.000919823 -0.000891116 -0.000860839 -0.000829092 -0.000795874 -0.000761185 -0.000725026 -0.000687396 -0.000648296 -0.000607725 -0.000566515 -0.000525498 -0.000484675 -0.000444044 -0.000403607 -0.000363363 -0.000323312 -0.000283454 -0.000245206 -0.000209985 -0.000177789 -0.00014862 -0.000122477 -9.93597e-05 -7.92692e-05 -6.22048e-05 -4.76256e-05 -3.49902e-05 -2.42988e-05 -1.55512e-05 -8.74755e-06 -3.8878e-06 -9.7195e-07 0 0 -1.51867e-06 -6.07468e-06 -1.3668e-05 -2.42987e-05 -3.79668e-05 -5.46722e-05 -7.44149e-05 -9.71949e-05 -0.000123858 -0.000155249 -0.000191369 -0.000232218 -0.000277795 -0.000328101 -0.000383135 -0.000442897 -0.000505175 -0.000567755 -0.000630636 -0.000693819 -0.000757304 -0.000821091 -0.000885179 -0.00094957 -0.00101296 -0.00107406 -0.00113285 -0.00118935 -0.00124355 -0.00129546 -0.00134506 -0.00139237 -0.00143722 -0.00147947 -0.0015191 -0.00155613 -0.00159054 -0.00162235 -0.00165155 -0.00167814 -0.00170252 -0.00172509 -0.00174584 -0.00176479 -0.00178193 -0.00179726 -0.00181078 -0.00182248 -0.00183283 -0.00184226 -0.00185078 -0.00185839 -0.00186509 -0.00187088 -0.00187575 -0.00187971 -0.00188299 -0.00188584 -0.00188825 -0.00189022 -0.00189175 -0.00189285 -0.0018935 -0.00189372 -0.0018935 -0.00189285 -0.00189175 -0.00189022 -0.00188825 -0.00188584 -0.00188299 -0.00187971 -0.00187575 -0.00187088 -0.00186509 -0.00185839 -0.00185078 -0.00184226 -0.00183283 -0.00182248 -0.00181078 -0.00179726 -0.00178193 -0.00176479 -0.00174584 -0.00172509 -0.00170252 -0.00167814 -0.00165155 -0.00162235 -0.00159054 -0.00155613 -0.0015191 -0.00147947 -0.00143722 -0.00139237 -0.00134506 -0.00129546 -0.00124355 -0.00118935 -0.00113285 -0.00107406 -0.00101296 -0.00094957 -0.00088518 -0.000821091 -0.000757304 -0.000693819 -0.000630636 -0.000567755 -0.000505175 -0.000442898 -0.000383135 -0.000328101 -0.000277795 -0.000232218 -0.00019137 -0.00015525 -0.000123858 -9.7195e-05 -7.4415e-05 -5.46722e-05 -3.79668e-05 -2.42988e-05 -1.36681e-05 -6.07469e-06 -1.51867e-06 0 0 -2.18689e-06 -8.74754e-06 -1.9682e-05 -3.49902e-05 -5.46722e-05 -7.87279e-05 -0.000107157 -0.000139961 -0.000178355 -0.000223559 -0.000275572 -0.000334394 -0.000400025 -0.000472465 -0.000551714 -0.000637772 -0.000727452 -0.000817567 -0.000908116 -0.0009991 -0.00109052 -0.00118237 -0.00127466 -0.00136738 -0.00145867 -0.00154664 -0.00163131 -0.00171267 -0.00179072 -0.00186546 -0.00193689 -0.00200501 -0.0020696 -0.00213043 -0.00218751 -0.00224082 -0.00229038 -0.00233619 -0.00237823 -0.00241652 -0.00245162 -0.00248412 -0.00251402 -0.0025413 -0.00256598 -0.00258805 -0.00260752 -0.00262438 -0.00263927 -0.00265286 -0.00266513 -0.00267609 -0.00268573 -0.00269406 -0.00270108 -0.00270678 -0.00271151 -0.00271561 -0.00271908 -0.00272192 -0.00272412 -0.0027257 -0.00272665 -0.00272696 -0.00272665 -0.0027257 -0.00272412 -0.00272192 -0.00271908 -0.00271561 -0.00271151 -0.00270678 -0.00270108 -0.00269406 -0.00268573 -0.00267609 -0.00266513 -0.00265286 -0.00263927 -0.00262438 -0.00260752 -0.00258805 -0.00256598 -0.0025413 -0.00251402 -0.00248412 -0.00245162 -0.00241652 -0.00237823 -0.00233619 -0.00229038 -0.00224082 -0.00218751 -0.00213043 -0.0020696 -0.00200501 -0.00193689 -0.00186546 -0.00179072 -0.00171267 -0.00163131 -0.00154664 -0.00145867 -0.00136738 -0.00127466 -0.00118237 -0.00109052 -0.0009991 -0.000908116 -0.000817567 -0.000727453 -0.000637773 -0.000551714 -0.000472465 -0.000400025 -0.000334394 -0.000275572 -0.000223559 -0.000178356 -0.000139961 -0.000107158 -7.8728e-05 -5.46722e-05 -3.49902e-05 -1.9682e-05 -8.74755e-06 -2.18689e-06 0 0 -2.9766e-06 -1.19064e-05 -2.67894e-05 -4.76255e-05 -7.44149e-05 -0.000107157 -0.000145853 -0.000190502 -0.000242762 -0.000304289 -0.000375084 -0.000455147 -0.000544478 -0.000643077 -0.000750944 -0.000868079 -0.000990143 -0.0011128 -0.00123605 -0.00135989 -0.00148432 -0.00160934 -0.00173495 -0.00186116 -0.00198541 -0.00210515 -0.00222039 -0.00233113 -0.00243736 -0.00253909 -0.00263632 -0.00272904 -0.00281696 -0.00289976 -0.00297744 -0.00305001 -0.00311747 -0.00317981 -0.00323704 -0.00328915 -0.00333693 -0.00338117 -0.00342185 -0.00345899 -0.00349258 -0.00352263 -0.00354912 -0.00357207 -0.00359235 -0.00361084 -0.00362754 -0.00364245 -0.00365558 -0.00366692 -0.00367647 -0.00368423 -0.00369067 -0.00369625 -0.00370097 -0.00370483 -0.00370784 -0.00370998 -0.00371127 -0.0037117 -0.00371127 -0.00370998 -0.00370784 -0.00370483 -0.00370097 -0.00369625 -0.00369067 -0.00368423 -0.00367647 -0.00366692 -0.00365558 -0.00364245 -0.00362754 -0.00361084 -0.00359235 -0.00357207 -0.00354912 -0.00352263 -0.00349258 -0.00345899 -0.00342185 -0.00338117 -0.00333693 -0.00328915 -0.00323704 -0.00317981 -0.00311747 -0.00305001 -0.00297744 -0.00289976 -0.00281696 -0.00272904 -0.00263632 -0.00253909 -0.00243736 -0.00233113 -0.00222039 -0.00210515 -0.00198541 -0.00186116 -0.00173495 -0.00160934 -0.00148432 -0.00135989 -0.00123605 -0.0011128 -0.000990144 -0.000868079 -0.000750945 -0.000643078 -0.000544479 -0.000455148 -0.000375084 -0.000304289 -0.000242762 -0.000190502 -0.000145853 -0.000107158 -7.4415e-05 -4.76256e-05 -2.67894e-05 -1.19064e-05 -2.9766e-06 0 0 -3.8878e-06 -1.55512e-05 -3.49902e-05 -6.22048e-05 -9.71949e-05 -0.000139961 -0.000190502 -0.000248819 -0.000317076 -0.000397439 -0.000489906 -0.000594478 -0.000711155 -0.000839938 -0.000980825 -0.00113382 -0.00129325 -0.00145345 -0.00161443 -0.00177618 -0.0019387 -0.00210199 -0.00226606 -0.0024309 -0.00259318 -0.00274958 -0.0029001 -0.00304474 -0.0031835 -0.00331637 -0.00344336 -0.00356446 -0.00367929 -0.00378744 -0.0038889 -0.00398369 -0.00407179 -0.00415322 -0.00422797 -0.00429603 -0.00435844 -0.00441622 -0.00446936 -0.00451787 -0.00456174 -0.00460098 -0.00463559 -0.00466556 -0.00469204 -0.00471619 -0.00473801 -0.00475749 -0.00477463 -0.00478944 -0.00480192 -0.00481205 -0.00482046 -0.00482775 -0.00483392 -0.00483896 -0.00484289 -0.00484569 -0.00484737 -0.00484793 -0.00484737 -0.00484569 -0.00484289 -0.00483896 -0.00483392 -0.00482775 -0.00482046 -0.00481205 -0.00480191 -0.00478944 -0.00477463 -0.00475749 -0.00473801 -0.00471619 -0.00469204 -0.00466556 -0.00463559 -0.00460098 -0.00456174 -0.00451787 -0.00446936 -0.00441622 -0.00435844 -0.00429603 -0.00422797 -0.00415322 -0.00407179 -0.00398369 -0.0038889 -0.00378744 -0.00367929 -0.00356446 -0.00344336 -0.00331637 -0.0031835 -0.00304474 -0.0029001 -0.00274958 -0.00259318 -0.0024309 -0.00226606 -0.00210199 -0.0019387 -0.00177618 -0.00161443 -0.00145345 -0.00129325 -0.00113382 -0.000980826 -0.000839938 -0.000711156 -0.000594479 -0.000489906 -0.000397439 -0.000317077 -0.000248819 -0.000190502 -0.000139961 -9.7195e-05 -6.22048e-05 -3.49902e-05 -1.55512e-05 -3.8878e-06 0 0 -4.95432e-06 -1.98173e-05 -4.45889e-05 -7.92691e-05 -0.000123858 -0.000178355 -0.000242762 -0.000317076 -0.000403935 -0.000505973 -0.00062319 -0.000755586 -0.000903162 -0.00106592 -0.00124385 -0.00143696 -0.00163798 -0.00183962 -0.00204189 -0.00224479 -0.00244831 -0.00265246 -0.00285724 -0.00306264 -0.00326441 -0.0034583 -0.0036443 -0.00382241 -0.00399264 -0.00415498 -0.00430943 -0.004456 -0.00459422 -0.00472365 -0.00484427 -0.0049561 -0.00505913 -0.00515336 -0.00523879 -0.00531542 -0.00538471 -0.00544814 -0.0055057 -0.00555738 -0.0056032 -0.00564314 -0.00567722 -0.00570542 -0.00572944 -0.00575095 -0.00576995 -0.00578644 -0.00580042 -0.0058119 -0.00582086 -0.00582732 -0.0058322 -0.00583643 -0.00584 -0.00584293 -0.00584521 -0.00584683 -0.00584781 -0.00584813 -0.00584781 -0.00584683 -0.00584521 -0.00584293 -0.00584 -0.00583643 -0.0058322 -0.00582732 -0.00582086 -0.0058119 -0.00580042 -0.00578644 -0.00576995 -0.00575095 -0.00572944 -0.00570542 -0.00567722 -0.00564314 -0.0056032 -0.00555738 -0.0055057 -0.00544814 -0.00538471 -0.00531542 -0.00523879 -0.00515336 -0.00505913 -0.0049561 -0.00484427 -0.00472365 -0.00459422 -0.004456 -0.00430943 -0.00415498 -0.00399264 -0.00382241 -0.0036443 -0.0034583 -0.00326441 -0.00306264 -0.00285724 -0.00265246 -0.00244831 -0.00224479 -0.00204189 -0.00183962 -0.00163798 -0.00143696 -0.00124385 -0.00106592 -0.000903162 -0.000755587 -0.00062319 -0.000505973 -0.000403935 -0.000317077 -0.000242762 -0.000178356 -0.000123858 -7.92692e-05 -4.45889e-05 -1.98173e-05 -4.95432e-06 0 0 -6.20998e-06 -2.48399e-05 -5.58898e-05 -9.93596e-05 -0.000155249 -0.000223559 -0.000304289 -0.000397439 -0.000505973 -0.000632856 -0.000778089 -0.000941671 -0.0011236 -0.00132388 -0.00154251 -0.00177949 -0.00202555 -0.00227141 -0.00251707 -0.00276253 -0.0030078 -0.00325287 -0.00349774 -0.00374241 -0.00398151 -0.00420965 -0.00442683 -0.00463306 -0.00482832 -0.00501263 -0.00518598 -0.00534837 -0.00549938 -0.00563856 -0.00576594 -0.00588149 -0.00598523 -0.00607715 -0.00615726 -0.00622555 -0.0062843 -0.00633579 -0.00638002 -0.00641699 -0.0064467 -0.00646914 -0.00648433 -0.00649225 -0.00649561 -0.00649711 -0.00649676 -0.00649454 -0.00649047 -0.00648453 -0.00647674 -0.00646709 -0.00645717 -0.00644858 -0.0064413 -0.00643535 -0.00643073 -0.00642742 -0.00642544 -0.00642477 -0.00642544 -0.00642742 -0.00643073 -0.00643535 -0.0064413 -0.00644858 -0.00645717 -0.00646709 -0.00647674 -0.00648453 -0.00649047 -0.00649454 -0.00649676 -0.00649711 -0.00649561 -0.00649225 -0.00648432 -0.00646914 -0.0064467 -0.00641699 -0.00638002 -0.00633579 -0.0062843 -0.00622555 -0.00615726 -0.00607715 -0.00598523 -0.00588149 -0.00576594 -0.00563856 -0.00549938 -0.00534837 -0.00518598 -0.00501263 -0.00482832 -0.00463306 -0.00442683 -0.00420965 -0.00398151 -0.00374242 -0.00349774 -0.00325287 -0.0030078 -0.00276253 -0.00251707 -0.00227141 -0.00202555 -0.00177949 -0.00154251 -0.00132388 -0.0011236 -0.000941672 -0.00077809 -0.000632857 -0.000505973 -0.000397439 -0.000304289 -0.000223559 -0.00015525 -9.93597e-05 -5.58899e-05 -2.48399e-05 -6.20998e-06 0 0 -7.65478e-06 -3.06191e-05 -6.8893e-05 -0.000122476 -0.000191369 -0.000275572 -0.000375084 -0.000489906 -0.00062319 -0.000778089 -0.000954604 -0.00115273 -0.00137248 -0.00161384 -0.00187682 -0.00216141 -0.00245596 -0.00274881 -0.00303996 -0.00332941 -0.00361716 -0.00390321 -0.00418757 -0.00447022 -0.00474448 -0.00500364 -0.00524771 -0.00547667 -0.00569055 -0.00588932 -0.006073 -0.00624158 -0.00639475 -0.00653219 -0.00665389 -0.00675986 -0.0068501 -0.00692461 -0.00698339 -0.00702644 -0.00705721 -0.00707918 -0.00709234 -0.00709669 -0.00709224 -0.00707898 -0.00705691 -0.00702603 -0.00699055 -0.00695469 -0.00691844 -0.0068818 -0.00684477 -0.00680736 -0.00676956 -0.00673137 -0.00669539 -0.00666421 -0.00663782 -0.00661623 -0.00659944 -0.00658745 -0.00658025 -0.00657785 -0.00658025 -0.00658745 -0.00659944 -0.00661623 -0.00663782 -0.00666421 -0.00669539 -0.00673137 -0.00676956 -0.00680736 -0.00684477 -0.0068818 -0.00691844 -0.00695469 -0.00699055 -0.00702603 -0.0070569 -0.00707898 -0.00709224 -0.00709669 -0.00709234 -0.00707918 -0.00705721 -0.00702644 -0.00698339 -0.00692461 -0.0068501 -0.00675986 -0.00665389 -0.00653219 -0.00639475 -0.00624158 -0.006073 -0.00588932 -0.00569055 -0.00547667 -0.00524771 -0.00500364 -0.00474448 -0.00447022 -0.00418757 -0.00390321 -0.00361716 -0.00332941 -0.00303996 -0.00274881 -0.00245596 -0.00216141 -0.00187682 -0.00161384 -0.00137248 -0.00115273 -0.000954605 -0.00077809 -0.000623191 -0.000489906 -0.000375085 -0.000275572 -0.00019137 -0.000122477 -6.88931e-05 -3.06191e-05 -7.65479e-06 0 0 -9.28872e-06 -3.71549e-05 -8.35985e-05 -0.00014862 -0.000232218 -0.000334394 -0.000455147 -0.000594478 -0.000755586 -0.000941671 -0.00115273 -0.00138877 -0.00164979 -0.00193578 -0.00224675 -0.0025827 -0.0029292 -0.00327182 -0.00361056 -0.00394542 -0.0042764 -0.0046035 -0.00492672 -0.00524607 -0.00555332 -0.00584027 -0.00610692 -0.00635326 -0.00657931 -0.00678505 -0.00697049 -0.00713563 -0.00728034 -0.00740451 -0.00750814 -0.00759121 -0.00765375 -0.00769573 -0.00771718 -0.00771807 -0.00770344 -0.0076783 -0.00764265 -0.00759649 -0.00753982 -0.00747265 -0.00739496 -0.00730676 -0.00721426 -0.00712367 -0.00703499 -0.00694821 -0.00686334 -0.00678037 -0.00669931 -0.00662016 -0.00654685 -0.00648331 -0.00642955 -0.00638556 -0.00635135 -0.00632692 -0.00631225 -0.00630737 -0.00631225 -0.00632692 -0.00635135 -0.00638556 -0.00642955 -0.00648331 -0.00654685 -0.00662016 -0.00669931 -0.00678037 -0.00686334 -0.00694821 -0.00703499 -0.00712367 -0.00721426 -0.00730676 -0.00739496 -0.00747265 -0.00753982 -0.00759649 -0.00764265 -0.0076783 -0.00770344 -0.00771807 -0.00771718 -0.00769573 -0.00765375 -0.00759121 -0.00750814 -0.00740451 -0.00728034 -0.00713563 -0.00697049 -0.00678505 -0.00657931 -0.00635326 -0.00610692 -0.00584027 -0.00555332 -0.00524607 -0.00492672 -0.0046035 -0.0042764 -0.00394542 -0.00361056 -0.00327182 -0.0029292 -0.0025827 -0.00224676 -0.00193579 -0.00164979 -0.00138877 -0.00115273 -0.000941672 -0.000755587 -0.000594479 -0.000455148 -0.000334394 -0.000232218 -0.00014862 -8.35986e-05 -3.71549e-05 -9.28873e-06 0 0 -1.11118e-05 -4.44472e-05 -0.000100006 -0.000177789 -0.000277795 -0.000400025 -0.000544478 -0.000711155 -0.000903162 -0.0011236 -0.00137248 -0.00164979 -0.00195554 -0.00228972 -0.00265233 -0.00304338 -0.00344528 -0.00384045 -0.00422887 -0.00461056 -0.00498551 -0.00535372 -0.0057152 -0.00606994 -0.00640802 -0.00671953 -0.00700447 -0.00726283 -0.00749461 -0.00769982 -0.00787845 -0.00803051 -0.00815616 -0.00825554 -0.00832867 -0.00837555 -0.00839616 -0.00839052 -0.00835862 -0.00830046 -0.00822299 -0.00813316 -0.00803095 -0.00791639 -0.00778945 -0.00765015 -0.00749849 -0.00733445 -0.00716675 -0.00700407 -0.00684641 -0.00669377 -0.00654616 -0.00640357 -0.006266 -0.00613345 -0.00601155 -0.00590589 -0.0058165 -0.00574335 -0.00568646 -0.00564583 -0.00562144 -0.00561332 -0.00562144 -0.00564583 -0.00568646 -0.00574335 -0.0058165 -0.00590589 -0.00601155 -0.00613345 -0.006266 -0.00640357 -0.00654616 -0.00669377 -0.00684641 -0.00700407 -0.00716675 -0.00733445 -0.00749849 -0.00765015 -0.00778945 -0.00791639 -0.00803095 -0.00813315 -0.00822299 -0.00830046 -0.00835862 -0.00839052 -0.00839616 -0.00837554 -0.00832867 -0.00825554 -0.00815616 -0.00803051 -0.00787846 -0.00769982 -0.00749461 -0.00726283 -0.00700447 -0.00671953 -0.00640803 -0.00606994 -0.0057152 -0.00535373 -0.00498551 -0.00461056 -0.00422887 -0.00384045 -0.00344528 -0.00304338 -0.00265233 -0.00228972 -0.00195554 -0.00164979 -0.00137248 -0.0011236 -0.000903162 -0.000711156 -0.000544479 -0.000400025 -0.000277795 -0.000177789 -0.000100006 -4.44473e-05 -1.11118e-05 0 0 -1.3124e-05 -5.24961e-05 -0.000118116 -0.000209984 -0.000328101 -0.000472465 -0.000643077 -0.000839938 -0.00106592 -0.00132388 -0.00161384 -0.00193578 -0.00228972 -0.00267564 -0.00309355 -0.00354345 -0.0040042 -0.00445469 -0.0048949 -0.00532483 -0.0057445 -0.00615389 -0.00655301 -0.00694185 -0.0073086 -0.00764144 -0.00794036 -0.00820536 -0.00843645 -0.00863363 -0.00879689 -0.00892624 -0.00902219 -0.00908528 -0.0091155 -0.00911286 -0.00907734 -0.00900896 -0.00890771 -0.0087736 -0.00861586 -0.00844374 -0.00825725 -0.00805637 -0.00784112 -0.00761149 -0.00736749 -0.0071091 -0.00684801 -0.00659587 -0.0063527 -0.00611849 -0.00589324 -0.00567695 -0.00546962 -0.00527125 -0.00508949 -0.00493195 -0.00479866 -0.00468959 -0.00460477 -0.00454418 -0.00450782 -0.00449571 -0.00450782 -0.00454418 -0.00460477 -0.00468959 -0.00479866 -0.00493195 -0.00508949 -0.00527125 -0.00546962 -0.00567695 -0.00589324 -0.00611849 -0.0063527 -0.00659587 -0.00684801 -0.0071091 -0.00736749 -0.00761149 -0.00784112 -0.00805637 -0.00825725 -0.00844374 -0.00861586 -0.0087736 -0.00890771 -0.00900896 -0.00907734 -0.00911286 -0.0091155 -0.00908528 -0.00902219 -0.00892624 -0.00879689 -0.00863363 -0.00843645 -0.00820536 -0.00794036 -0.00764144 -0.0073086 -0.00694185 -0.00655301 -0.00615389 -0.0057445 -0.00532484 -0.0048949 -0.00445469 -0.00400421 -0.00354345 -0.00309355 -0.00267564 -0.00228972 -0.00193579 -0.00161384 -0.00132388 -0.00106592 -0.000839938 -0.000643078 -0.000472465 -0.000328101 -0.000209985 -0.000118116 -5.24961e-05 -1.3124e-05 0 0 -1.53254e-05 -6.13015e-05 -0.000137928 -0.000245206 -0.000383135 -0.000551714 -0.000750944 -0.000980825 -0.00124385 -0.00154251 -0.00187681 -0.00224675 -0.00265233 -0.00309355 -0.0035704 -0.00408289 -0.00460596 -0.00511454 -0.00560864 -0.00608824 -0.00655336 -0.00700399 -0.00744014 -0.00786179 -0.00825504 -0.00860598 -0.00891458 -0.00918087 -0.00940484 -0.00958648 -0.0097258 -0.0098228 -0.00987845 -0.00989372 -0.00986862 -0.00980315 -0.00969729 -0.00955107 -0.00936446 -0.00913748 -0.00888204 -0.00861006 -0.00832153 -0.00801646 -0.00769484 -0.00735667 -0.00700196 -0.0066307 -0.00625804 -0.00589909 -0.00555387 -0.00522236 -0.00490458 -0.00460052 -0.00431018 -0.00403356 -0.00378066 -0.00356149 -0.00337603 -0.00322429 -0.00310627 -0.00302197 -0.00297139 -0.00295453 -0.00297139 -0.00302197 -0.00310627 -0.00322429 -0.00337603 -0.00356149 -0.00378066 -0.00403356 -0.00431018 -0.00460052 -0.00490458 -0.00522236 -0.00555386 -0.00589909 -0.00625804 -0.0066307 -0.00700196 -0.00735667 -0.00769484 -0.00801646 -0.00832153 -0.00861006 -0.00888204 -0.00913748 -0.00936446 -0.00955107 -0.00969729 -0.00980315 -0.00986862 -0.00989372 -0.00987845 -0.0098228 -0.0097258 -0.00958648 -0.00940484 -0.00918087 -0.00891458 -0.00860598 -0.00825505 -0.00786179 -0.00744014 -0.00700399 -0.00655336 -0.00608824 -0.00560864 -0.00511454 -0.00460596 -0.0040829 -0.0035704 -0.00309355 -0.00265233 -0.00224676 -0.00187682 -0.00154251 -0.00124385 -0.000980826 -0.000750945 -0.000551714 -0.000383135 -0.000245206 -0.000137929 -6.13016e-05 -1.53254e-05 0 0 -1.77159e-05 -7.08636e-05 -0.000159443 -0.000283454 -0.000442897 -0.000637772 -0.000868079 -0.00113382 -0.00143696 -0.00177949 -0.00216141 -0.0025827 -0.00304338 -0.00354345 -0.00408289 -0.00466172 -0.00525056 -0.00582001 -0.00637009 -0.00690078 -0.0074121 -0.00790403 -0.00837659 -0.00882977 -0.00924736 -0.00961315 -0.00992715 -0.0101894 -0.0103998 -0.0105584 -0.0106652 -0.0107202 -0.0107249 -0.0106809 -0.010588 -0.0104464 -0.010256 -0.0100168 -0.00972887 -0.00939212 -0.00902155 -0.00863211 -0.00822381 -0.00779663 -0.00735059 -0.00688568 -0.00640191 -0.00589926 -0.00539684 -0.00491372 -0.0044499 -0.00400539 -0.00358018 -0.00317427 -0.00278767 -0.00242038 -0.00208508 -0.0017945 -0.00154862 -0.00134744 -0.00119097 -0.00107921 -0.00101215 -0.000989798 -0.00101215 -0.00107921 -0.00119097 -0.00134744 -0.00154862 -0.0017945 -0.00208508 -0.00242038 -0.00278767 -0.00317427 -0.00358018 -0.00400539 -0.0044499 -0.00491372 -0.00539684 -0.00589926 -0.00640191 -0.00688568 -0.00735059 -0.00779663 -0.00822381 -0.00863211 -0.00902155 -0.00939212 -0.00972887 -0.0100168 -0.010256 -0.0104464 -0.010588 -0.0106809 -0.0107249 -0.0107202 -0.0106652 -0.0105584 -0.0103998 -0.0101894 -0.00992715 -0.00961315 -0.00924736 -0.00882977 -0.00837659 -0.00790404 -0.0074121 -0.00690078 -0.00637009 -0.00582001 -0.00525056 -0.00466173 -0.0040829 -0.00354345 -0.00304338 -0.0025827 -0.00216141 -0.00177949 -0.00143696 -0.00113382 -0.00086808 -0.000637773 -0.000442898 -0.000283455 -0.000159443 -7.08636e-05 -1.77159e-05 0 0 -2.0207e-05 -8.0828e-05 -0.000181863 -0.000323312 -0.000505175 -0.000727452 -0.000990143 -0.00129325 -0.00163798 -0.00202555 -0.00245595 -0.0029292 -0.00344528 -0.0040042 -0.00460596 -0.00525056 -0.00590383 -0.00653161 -0.0071339 -0.0077107 -0.00826201 -0.00878782 -0.00928815 -0.00976299 -0.0101936 -0.0105613 -0.010866 -0.0111077 -0.0112865 -0.0114024 -0.0114552 -0.0114452 -0.0113744 -0.0112451 -0.0110572 -0.0108109 -0.0105061 -0.0101427 -0.00972087 -0.00924051 -0.00872028 -0.00817884 -0.00761617 -0.00703229 -0.00642719 -0.00580087 -0.00515333 -0.00448457 -0.00381846 -0.00317884 -0.00256574 -0.00197913 -0.00141903 -0.000885437 -0.000378345 0.000102243 0.00054037 0.000920081 0.00124137 0.00150425 0.00170871 0.00185475 0.00194238 0.00197159 0.00194238 0.00185475 0.00170871 0.00150425 0.00124137 0.000920081 0.00054037 0.000102243 -0.000378345 -0.000885437 -0.00141903 -0.00197913 -0.00256574 -0.00317884 -0.00381846 -0.00448457 -0.00515333 -0.00580087 -0.00642719 -0.00703229 -0.00761617 -0.00817884 -0.00872028 -0.00924051 -0.00972087 -0.0101427 -0.0105061 -0.0108109 -0.0110572 -0.0112451 -0.0113744 -0.0114452 -0.0114552 -0.0114024 -0.0112865 -0.0111077 -0.010866 -0.0105613 -0.0101936 -0.00976299 -0.00928816 -0.00878783 -0.00826201 -0.0077107 -0.0071339 -0.00653161 -0.00590383 -0.00525056 -0.00460596 -0.00400421 -0.00344528 -0.0029292 -0.00245596 -0.00202555 -0.00163798 -0.00129325 -0.000990144 -0.000727453 -0.000505176 -0.000323312 -0.000181863 -8.08281e-05 -2.0207e-05 0 0 -2.27102e-05 -9.08407e-05 -0.000204392 -0.000363363 -0.000567755 -0.000817567 -0.0011128 -0.00145345 -0.00183962 -0.00227141 -0.0027488 -0.00327182 -0.00384044 -0.00445469 -0.00511454 -0.00582001 -0.00653161 -0.00720984 -0.00785472 -0.00846623 -0.00904438 -0.00958917 -0.0101006 -0.0105787 -0.0110019 -0.0113486 -0.011619 -0.0118129 -0.0119304 -0.0119715 -0.0119362 -0.0118245 -0.0116395 -0.0113846 -0.0110597 -0.0106649 -0.0102 -0.00966521 -0.00906042 -0.00838565 -0.00766415 -0.00691918 -0.00615074 -0.00535882 -0.00454343 -0.00370457 -0.00284223 -0.00195642 -0.00107693 -0.000233563 0.000573693 0.00134483 0.00207986 0.00277877 0.00344156 0.00406823 0.00463881 0.00513332 0.00555174 0.00589409 0.00616036 0.00635055 0.00646467 0.00650271 0.00646467 0.00635055 0.00616036 0.00589409 0.00555174 0.00513332 0.00463881 0.00406823 0.00344156 0.00277877 0.00207986 0.00134483 0.000573694 -0.000233562 -0.00107693 -0.00195642 -0.00284223 -0.00370457 -0.00454343 -0.00535882 -0.00615073 -0.00691918 -0.00766415 -0.00838565 -0.00906042 -0.00966521 -0.0102 -0.0106649 -0.0110597 -0.0113846 -0.0116395 -0.0118245 -0.0119362 -0.0119715 -0.0119304 -0.0118129 -0.011619 -0.0113486 -0.0110019 -0.0105787 -0.0101006 -0.00958918 -0.00904439 -0.00846623 -0.00785472 -0.00720985 -0.00653161 -0.00582001 -0.00511454 -0.00445469 -0.00384045 -0.00327182 -0.00274881 -0.00227141 -0.00183962 -0.00145345 -0.0011128 -0.000817567 -0.000567755 -0.000363363 -0.000204392 -9.08408e-05 -2.27102e-05 0 0 -2.52254e-05 -0.000100902 -0.000227029 -0.000403607 -0.000630636 -0.000908116 -0.00123605 -0.00161443 -0.00204189 -0.00251707 -0.00303996 -0.00361056 -0.00422887 -0.0048949 -0.00560863 -0.00637009 -0.0071339 -0.00785472 -0.00853255 -0.00916738 -0.00975923 -0.0103081 -0.0108139 -0.0112768 -0.0116721 -0.0119752 -0.0121861 -0.0123049 -0.0123314 -0.0122658 -0.012108 -0.0118581 -0.0115204 -0.0110996 -0.0105955 -0.0100083 -0.00933789 -0.00858429 -0.0077475 -0.00682753 -0.00585315 -0.00485313 -0.00382749 -0.00277622 -0.00169931 -0.000596775 0.00053139 0.00168519 0.00282773 0.00392213 0.00496839 0.00596651 0.00691649 0.00781834 0.00867204 0.0094776 0.0102102 0.0108452 0.0113825 0.0118221 0.012164 0.0124082 0.0125547 0.0126036 0.0125547 0.0124082 0.012164 0.0118221 0.0113825 0.0108452 0.0102102 0.0094776 0.00867204 0.00781834 0.00691649 0.00596651 0.00496839 0.00392213 0.00282773 0.00168519 0.000531391 -0.000596775 -0.00169931 -0.00277621 -0.00382749 -0.00485313 -0.00585315 -0.00682753 -0.0077475 -0.00858429 -0.00933789 -0.0100083 -0.0105955 -0.0110996 -0.0115204 -0.0118581 -0.012108 -0.0122658 -0.0123314 -0.0123049 -0.0121861 -0.0119752 -0.0116721 -0.0112768 -0.0108139 -0.0103081 -0.00975923 -0.00916739 -0.00853255 -0.00785472 -0.0071339 -0.00637009 -0.00560864 -0.0048949 -0.00422887 -0.00361056 -0.00303996 -0.00251707 -0.00204189 -0.00161443 -0.00123605 -0.000908117 -0.000630637 -0.000403607 -0.000227029 -0.000100902 -2.52255e-05 0 0 -2.77528e-05 -0.000111011 -0.000249775 -0.000444044 -0.000693819 -0.000999099 -0.00135989 -0.00177618 -0.0022