<?xml version="1.0"?> 
<VTKFile type="StructuredGrid" version="0.1"> 
<StructuredGrid WholeExtent="0 128 0 128 0 0"> 
<Piece Extent="0 128 0 128 0 0"> 
<PointData>
<DataArray type="Float32" Name="u" format="ascii" NumberOfComponents="1"> 
0 0 0 0 0 0 0 0 0 0 0 0 0 0 0 0 0 0 0 0 0 0 0 0 0 0 0 0 0 0 0 0 0 0 0 0 0 0 0 0 0 0 0 0 0 0 0 0 0 0 0 0 0 0 0 0 0 0 0 0 0 0 0 0 0 0 0 0 0 0 0 0 0 0 0 0 0 0 0 0 0 0 0 0 0 0 0 0 0 0 0 0 0 0 0 0 0 0 0 0 0 0 0 0 0 0 0 0 0 0 0 0 0 0 0 0 0 0 0 0 0 0 0 0 0 0 0 0 0 0 -3.1297e-08 -1.25188e-07 -2.81673e-07 -5.00752e-07 -7.82425e-07 -1.12669e-06 -1.53355e-06 -2.00301e-06 -2.60453e-06 -3.4076e-06 -4.41221e-06 -5.61836e-06 -7.02606e-06 -8.6353e-06 -1.04461e-05 -1.24584e-05 -1.46515e-05 -1.70044e-05 -1.95172e-05 -2.21898e-05 -2.50224e-05 -2.80148e-05 -3.11671e-05 -3.44793e-05 -3.79145e-05 -4.14358e-05 -4.50432e-05 -4.87367e-05 -5.25163e-05 -5.63821e-05 -6.0334e-05 -6.4372e-05 -6.84789e-05 -7.26375e-05 -7.68478e-05 -8.11099e-05 -8.54236e-05 -8.97891e-05 -9.42063e-05 -9.86752e-05 -0.000103163 -0.000107635 -0.000112093 -0.000116536 -0.000120964 -0.000125377 -0.000129776 -0.000134159 -0.000138443 -0.000142541 -0.000146454 -0.000150181 -0.000153723 -0.00015708 -0.000160251 -0.000163236 -0.000165949 -0.000168299 -0.000170288 -0.000171915 -0.000173181 -0.000174085 -0.000174628 -0.000174808 -0.000174628 -0.000174085 -0.000173181 -0.000171915 -0.000170288 -0.000168299 -0.000165949 -0.000163236 -0.000160251 -0.00015708 -0.000153723 -0.000150181 -0.000146454 -0.000142541 -0.000138443 -0.000134159 -0.000129776 -0.000125377 -0.000120964 -0.000116536 -0.000112093 -0.000107635 -0.000103163 -9.86752e-05 -9.42063e-05 -8.97891e-05 -8.54236e-05 -8.11099e-05 -7.68478e-05 -7.26375e-05 -6.84789e-05 -6.4372e-05 -6.0334e-05 -5.63821e-05 -5.25163e-05 -4.87367e-05 -4.50432e-05 -4.14358e-05 -3.79145e-05 -3.44793e-05 -3.11671e-05 -2.80148e-05 -2.50224e-05 -2.21898e-05 -1.95172e-05 -1.70044e-05 -1.46515e-05 -1.24584e-05 -1.04461e-05 -8.6353e-06 -7.02606e-06 -5.61837e-06 -4.41221e-06 -3.4076e-06 -2.60453e-06 -2.00301e-06 -1.53355e-06 -1.12669e-06 -7.82426e-07 -5.00752e-07 -2.81673e-07 -1.25188e-07 -3.1297e-08 0 0 -1.25188e-07 -5.00752e-07 -1.12669e-06 -2.00301e-06 -3.1297e-06 -4.50677e-06 -6.13421e-06 -8.01204e-06 -1.04181e-05 -1.36304e-05 -1.76488e-05 -2.24735e-05 -2.81042e-05 -3.45412e-05 -4.17843e-05 -4.98337e-05 -5.86058e-05 -6.80175e-05 -7.80686e-05 -8.87593e-05 -0.00010009 -0.000112059 -0.000124668 -0.000137917 -0.000151658 -0.000165743 -0.000180173 -0.000194947 -0.000210065 -0.000225528 -0.000241336 -0.000257488 -0.000273915 -0.00029055 -0.000307391 -0.000324439 -0.000341695 -0.000359156 -0.000376825 -0.000394701 -0.00041265 -0.00043054 -0.000448371 -0.000466143 -0.000483856 -0.000501509 -0.000519103 -0.000536637 -0.000553772 -0.000570164 -0.000585815 -0.000600725 -0.000614892 -0.000628318 -0.000641003 -0.000652946 -0.000663794 -0.000673197 -0.000681152 -0.000687661 -0.000692724 -0.00069634 -0.00069851 -0.000699233 -0.00069851 -0.00069634 -0.000692724 -0.000687661 -0.000681152 -0.000673197 -0.000663794 -0.000652946 -0.000641003 -0.000628318 -0.000614892 -0.000600725 -0.000585815 -0.000570164 -0.000553772 -0.000536637 -0.000519103 -0.000501509 -0.000483856 -0.000466143 -0.000448371 -0.00043054 -0.00041265 -0.000394701 -0.000376825 -0.000359156 -0.000341695 -0.000324439 -0.000307391 -0.00029055 -0.000273915 -0.000257488 -0.000241336 -0.000225528 -0.000210065 -0.000194947 -0.000180173 -0.000165743 -0.000151658 -0.000137917 -0.000124668 -0.000112059 -0.00010009 -8.87593e-05 -7.80686e-05 -6.80175e-05 -5.86058e-05 -4.98337e-05 -4.17843e-05 -3.45412e-05 -2.81043e-05 -2.24735e-05 -1.76488e-05 -1.36304e-05 -1.04181e-05 -8.01204e-06 -6.13422e-06 -4.50677e-06 -3.1297e-06 -2.00301e-06 -1.12669e-06 -5.00752e-07 -1.25188e-07 0 0 -2.81673e-07 -1.12669e-06 -2.53506e-06 -4.50677e-06 -7.04183e-06 -1.01402e-05 -1.3802e-05 -1.80271e-05 -2.34408e-05 -3.06684e-05 -3.97099e-05 -5.05653e-05 -6.32346e-05 -7.77177e-05 -9.40148e-05 -0.000112126 -0.000131863 -0.000153039 -0.000175654 -0.000199708 -0.000225201 -0.000252133 -0.000280504 -0.000310314 -0.00034123 -0.000372922 -0.000405389 -0.00043863 -0.000472647 -0.000507439 -0.000543006 -0.000579348 -0.00061631 -0.000653737 -0.00069163 -0.000729989 -0.000768813 -0.000808102 -0.000847857 -0.000888077 -0.000928463 -0.000968716 -0.00100884 -0.00104882 -0.00108867 -0.00112839 -0.00116798 -0.00120743 -0.00124599 -0.00128287 -0.00131808 -0.00135163 -0.00138351 -0.00141372 -0.00144226 -0.00146913 -0.00149354 -0.00151469 -0.00153259 -0.00154724 -0.00155863 -0.00156677 -0.00157165 -0.00157328 -0.00157165 -0.00156677 -0.00155863 -0.00154724 -0.00153259 -0.00151469 -0.00149354 -0.00146913 -0.00144226 -0.00141372 -0.00138351 -0.00135163 -0.00131808 -0.00128287 -0.00124599 -0.00120743 -0.00116798 -0.00112839 -0.00108867 -0.00104882 -0.00100884 -0.000968716 -0.000928463 -0.000888077 -0.000847857 -0.000808102 -0.000768813 -0.000729989 -0.00069163 -0.000653737 -0.00061631 -0.000579348 -0.000543006 -0.000507439 -0.000472647 -0.00043863 -0.000405389 -0.000372922 -0.00034123 -0.000310314 -0.000280504 -0.000252133 -0.000225201 -0.000199708 -0.000175654 -0.000153039 -0.000131863 -0.000112126 -9.40148e-05 -7.77177e-05 -6.32346e-05 -5.05653e-05 -3.97099e-05 -3.06684e-05 -2.34408e-05 -1.80271e-05 -1.3802e-05 -1.01402e-05 -7.04183e-06 -4.50677e-06 -2.53506e-06 -1.12669e-06 -2.81673e-07 0 0 -5.00752e-07 -2.00301e-06 -4.50677e-06 -8.01204e-06 -1.25188e-05 -1.80271e-05 -2.45369e-05 -3.20481e-05 -4.16725e-05 -5.45216e-05 -7.05954e-05 -8.98938e-05 -0.000112417 -0.000138165 -0.000167137 -0.000199335 -0.000234423 -0.00027207 -0.000312275 -0.000355037 -0.000400358 -0.000448237 -0.000498674 -0.000551669 -0.000606632 -0.000662972 -0.000720691 -0.000779787 -0.000840262 -0.000902114 -0.000965344 -0.00102995 -0.00109566 -0.0011622 -0.00122957 -0.00129776 -0.00136678 -0.00143663 -0.0015073 -0.0015788 -0.0016506 -0.00172216 -0.00179349 -0.00186457 -0.00193542 -0.00200603 -0.00207641 -0.00214655 -0.00221509 -0.00228066 -0.00234326 -0.0024029 -0.00245957 -0.00251327 -0.00256401 -0.00261178 -0.00265518 -0.00269279 -0.00272461 -0.00275065 -0.0027709 -0.00278536 -0.00279404 -0.00279693 -0.00279404 -0.00278536 -0.0027709 -0.00275065 -0.00272461 -0.00269279 -0.00265518 -0.00261178 -0.00256401 -0.00251327 -0.00245957 -0.0024029 -0.00234326 -0.00228066 -0.00221509 -0.00214655 -0.00207641 -0.00200603 -0.00193542 -0.00186457 -0.00179349 -0.00172216 -0.0016506 -0.0015788 -0.0015073 -0.00143663 -0.00136678 -0.00129776 -0.00122957 -0.0011622 -0.00109566 -0.00102995 -0.000965344 -0.000902114 -0.000840262 -0.000779787 -0.000720691 -0.000662972 -0.000606632 -0.000551669 -0.000498674 -0.000448237 -0.000400358 -0.000355037 -0.000312275 -0.00027207 -0.000234423 -0.000199335 -0.000167137 -0.000138165 -0.000112417 -8.98939e-05 -7.05954e-05 -5.45216e-05 -4.16725e-05 -3.20482e-05 -2.45369e-05 -1.80271e-05 -1.25188e-05 -8.01204e-06 -4.50677e-06 -2.00301e-06 -5.00752e-07 0 0 -7.82425e-07 -3.1297e-06 -7.04183e-06 -1.25188e-05 -1.95606e-05 -2.81673e-05 -3.83388e-05 -5.00752e-05 -6.51133e-05 -8.519e-05 -0.000110305 -0.000140459 -0.000175652 -0.000215883 -0.000261152 -0.00031146 -0.000366286 -0.000425109 -0.000487929 -0.000554746 -0.000625559 -0.00070037 -0.000779178 -0.000861982 -0.000947862 -0.00103589 -0.00112608 -0.00121842 -0.00131291 -0.00140955 -0.00150835 -0.0016093 -0.00171197 -0.00181594 -0.0019212 -0.00202775 -0.00213559 -0.00224473 -0.00235516 -0.00246688 -0.00257906 -0.00269088 -0.00280232 -0.00291339 -0.0030241 -0.00313443 -0.00324439 -0.00335398 -0.00346107 -0.00356353 -0.00366135 -0.00375453 -0.00384308 -0.00392699 -0.00400627 -0.00408091 -0.00414871 -0.00420748 -0.0042572 -0.00429788 -0.00432953 -0.00435213 -0.00436569 -0.00437021 -0.00436569 -0.00435213 -0.00432953 -0.00429788 -0.0042572 -0.00420748 -0.00414871 -0.00408091 -0.00400627 -0.00392699 -0.00384308 -0.00375453 -0.00366135 -0.00356353 -0.00346107 -0.00335398 -0.00324439 -0.00313443 -0.0030241 -0.00291339 -0.00280232 -0.00269088 -0.00257906 -0.00246688 -0.00235516 -0.00224473 -0.00213559 -0.00202775 -0.0019212 -0.00181594 -0.00171197 -0.0016093 -0.00150835 -0.00140955 -0.00131291 -0.00121842 -0.00112608 -0.00103589 -0.000947862 -0.000861982 -0.000779178 -0.00070037 -0.000625559 -0.000554746 -0.000487929 -0.000425109 -0.000366286 -0.00031146 -0.000261152 -0.000215883 -0.000175652 -0.000140459 -0.000110305 -8.519e-05 -6.51134e-05 -5.00752e-05 -3.83389e-05 -2.81673e-05 -1.95606e-05 -1.25188e-05 -7.04183e-06 -3.1297e-06 -7.82426e-07 0 0 -1.12669e-06 -4.50677e-06 -1.01402e-05 -1.80271e-05 -2.81673e-05 -4.05609e-05 -5.52079e-05 -7.21083e-05 -9.37632e-05 -0.000122674 -0.00015884 -0.000202261 -0.000252938 -0.000310871 -0.000376059 -0.000448503 -0.000527452 -0.000612157 -0.000702618 -0.000798834 -0.000900806 -0.00100853 -0.00112202 -0.00124125 -0.00136492 -0.00149169 -0.00162155 -0.00175452 -0.00189059 -0.00202976 -0.00217202 -0.00231739 -0.00246524 -0.00261495 -0.00276652 -0.00291996 -0.00307525 -0.00323241 -0.00339143 -0.00355231 -0.00371385 -0.00387486 -0.00403534 -0.00419529 -0.0043547 -0.00451358 -0.00467192 -0.00482974 -0.00498395 -0.00513148 -0.00527234 -0.00540652 -0.00553403 -0.00565487 -0.00576903 -0.00587651 -0.00597415 -0.00605877 -0.00613037 -0.00618895 -0.00623452 -0.00626706 -0.00628659 -0.0062931 -0.00628659 -0.00626706 -0.00623452 -0.00618895 -0.00613037 -0.00605877 -0.00597415 -0.00587651 -0.00576903 -0.00565487 -0.00553403 -0.00540652 -0.00527234 -0.00513148 -0.00498395 -0.00482974 -0.00467192 -0.00451358 -0.0043547 -0.00419529 -0.00403534 -0.00387486 -0.00371385 -0.00355231 -0.00339143 -0.00323241 -0.00307525 -0.00291996 -0.00276652 -0.00261495 -0.00246524 -0.00231739 -0.00217202 -0.00202976 -0.00189059 -0.00175452 -0.00162155 -0.00149169 -0.00136492 -0.00124125 -0.00112202 -0.00100853 -0.000900806 -0.000798834 -0.000702618 -0.000612157 -0.000527452 -0.000448503 -0.000376059 -0.000310871 -0.000252938 -0.000202261 -0.00015884 -0.000122674 -9.37632e-05 -7.21084e-05 -5.5208e-05 -4.0561e-05 -2.81673e-05 -1.80271e-05 -1.01402e-05 -4.50677e-06 -1.12669e-06 0 0 -1.53355e-06 -6.13421e-06 -1.3802e-05 -2.45369e-05 -3.83388e-05 -5.52079e-05 -7.51441e-05 -9.81474e-05 -0.000127622 -0.000166972 -0.000216198 -0.0002753 -0.000344277 -0.00042313 -0.000511858 -0.000610462 -0.000717921 -0.000833214 -0.000956341 -0.0010873 -0.0012261 -0.00137273 -0.00152719 -0.00168949 -0.00185781 -0.00203035 -0.00220712 -0.0023881 -0.0025733 -0.00276272 -0.00295636 -0.00315423 -0.00335546 -0.00355924 -0.00376554 -0.00397438 -0.00418576 -0.00439967 -0.00461611 -0.00483508 -0.00505497 -0.00527412 -0.00549255 -0.00571025 -0.00592723 -0.00614348 -0.00635901 -0.00657381 -0.0067837 -0.00698451 -0.00717624 -0.00735888 -0.00753243 -0.0076969 -0.00785229 -0.00799858 -0.00813148 -0.00824666 -0.00834411 -0.00842385 -0.00848587 -0.00853017 -0.00855675 -0.00856561 -0.00855675 -0.00853017 -0.00848587 -0.00842385 -0.00834411 -0.00824666 -0.00813148 -0.00799858 -0.00785229 -0.0076969 -0.00753243 -0.00735888 -0.00717624 -0.00698451 -0.0067837 -0.00657381 -0.00635901 -0.00614348 -0.00592723 -0.00571025 -0.00549255 -0.00527412 -0.00505497 -0.00483508 -0.00461611 -0.00439967 -0.00418576 -0.00397438 -0.00376554 -0.00355924 -0.00335546 -0.00315423 -0.00295636 -0.00276272 -0.0025733 -0.0023881 -0.00220712 -0.00203035 -0.00185781 -0.00168949 -0.00152719 -0.00137273 -0.0012261 -0.0010873 -0.000956341 -0.000833214 -0.000717921 -0.000610462 -0.000511858 -0.00042313 -0.000344277 -0.0002753 -0.000216198 -0.000166972 -0.000127622 -9.81475e-05 -7.51442e-05 -5.5208e-05 -3.83389e-05 -2.45369e-05 -1.3802e-05 -6.13422e-06 -1.53355e-06 0 0 -2.00301e-06 -8.01204e-06 -1.80271e-05 -3.20481e-05 -5.00752e-05 -7.21083e-05 -9.81474e-05 -0.000128193 -0.00016669 -0.000218086 -0.000282381 -0.000359575 -0.000449668 -0.000552659 -0.000668549 -0.000797338 -0.000937693 -0.00108828 -0.0012491 -0.00142015 -0.00160143 -0.00179295 -0.0019947 -0.00220667 -0.00242653 -0.00265189 -0.00288276 -0.00311915 -0.00336105 -0.00360845 -0.00386137 -0.00411981 -0.00438265 -0.0046488 -0.00491826 -0.00519103 -0.00546711 -0.0057465 -0.0060292 -0.00631521 -0.0066024 -0.00688865 -0.00717394 -0.00745829 -0.00774169 -0.00802414 -0.00830564 -0.0085862 -0.00886035 -0.00912263 -0.00937305 -0.0096116 -0.00983828 -0.0100531 -0.010256 -0.0104471 -0.0106207 -0.0107711 -0.0108984 -0.0110026 -0.0110836 -0.0111414 -0.0111762 -0.0111877 -0.0111762 -0.0111414 -0.0110836 -0.0110026 -0.0108984 -0.0107711 -0.0106207 -0.0104471 -0.010256 -0.0100531 -0.00983828 -0.0096116 -0.00937305 -0.00912263 -0.00886035 -0.0085862 -0.00830564 -0.00802414 -0.00774169 -0.00745829 -0.00717394 -0.00688865 -0.0066024 -0.00631521 -0.0060292 -0.0057465 -0.00546711 -0.00519103 -0.00491826 -0.0046488 -0.00438265 -0.00411981 -0.00386137 -0.00360845 -0.00336105 -0.00311915 -0.00288276 -0.00265189 -0.00242653 -0.00220667 -0.0019947 -0.00179295 -0.00160143 -0.00142015 -0.0012491 -0.00108828 -0.000937693 -0.000797338 -0.00066855 -0.000552659 -0.000449668 -0.000359575 -0.000282382 -0.000218086 -0.00016669 -0.000128193 -9.81475e-05 -7.21084e-05 -5.00752e-05 -3.20482e-05 -1.80271e-05 -8.01204e-06 -2.00301e-06 0 0 -2.60453e-06 -1.04181e-05 -2.34408e-05 -4.16725e-05 -6.51133e-05 -9.37632e-05 -0.000127622 -0.00016669 -0.000216468 -0.000282456 -0.000364654 -0.000463063 -0.000577683 -0.000708512 -0.000855552 -0.0010188 -0.00119639 -0.00138644 -0.00158895 -0.00180392 -0.00203135 -0.00227124 -0.00252359 -0.00278841 -0.00306265 -0.00334327 -0.00363027 -0.00392366 -0.00422343 -0.00452958 -0.00484211 -0.00516103 -0.00548504 -0.00581286 -0.00614448 -0.0064799 -0.00681913 -0.00716216 -0.00750899 -0.00785963 -0.0082116 -0.00856245 -0.00891217 -0.00926075 -0.00960821 -0.00995454 -0.0102997 -0.0106438 -0.0109801 -0.0113019 -0.0116092 -0.0119021 -0.0121805 -0.0124444 -0.0126938 -0.0129288 -0.0131423 -0.0133273 -0.0134838 -0.0136119 -0.0137116 -0.0137827 -0.0138254 -0.0138397 -0.0138254 -0.0137827 -0.0137116 -0.0136119 -0.0134838 -0.0133273 -0.0131423 -0.0129288 -0.0126938 -0.0124444 -0.0121805 -0.0119021 -0.0116092 -0.0113019 -0.0109801 -0.0106438 -0.0102997 -0.00995454 -0.00960821 -0.00926075 -0.00891217 -0.00856245 -0.0082116 -0.00785963 -0.00750899 -0.00716216 -0.00681913 -0.0064799 -0.00614448 -0.00581286 -0.00548504 -0.00516103 -0.00484211 -0.00452958 -0.00422343 -0.00392366 -0.00363027 -0.00334327 -0.00306265 -0.00278841 -0.00252359 -0.00227124 -0.00203135 -0.00180392 -0.00158895 -0.00138644 -0.00119639 -0.0010188 -0.000855552 -0.000708512 -0.000577683 -0.000463063 -0.000364655 -0.000282456 -0.000216468 -0.00016669 -0.000127622 -9.37632e-05 -6.51134e-05 -4.16725e-05 -2.34408e-05 -1.04181e-05 -2.60453e-06 0 0 -3.4076e-06 -1.36304e-05 -3.06684e-05 -5.45216e-05 -8.519e-05 -0.000122674 -0.000166972 -0.000218086 -0.000282456 -0.000366521 -0.000470283 -0.00059374 -0.000736893 -0.000899741 -0.00108229 -0.00128453 -0.00150363 -0.00173677 -0.00198394 -0.00224514 -0.00252038 -0.00280964 -0.00311294 -0.00343027 -0.00375774 -0.00409146 -0.00443141 -0.0047776 -0.00513004 -0.00548872 -0.00585364 -0.00622481 -0.00660091 -0.00698064 -0.007364 -0.00775099 -0.00814162 -0.00853587 -0.00893375 -0.00933527 -0.009738 -0.0101395 -0.0105399 -0.010939 -0.0113369 -0.0117337 -0.0121292 -0.0125236 -0.0129091 -0.0132784 -0.0136312 -0.0139677 -0.0142878 -0.0145916 -0.014879 -0.0151501 -0.0153965 -0.0156101 -0.0157909 -0.0159387 -0.0160538 -0.0161359 -0.0161852 -0.0162016 -0.0161852 -0.0161359 -0.0160538 -0.0159387 -0.0157909 -0.0156101 -0.0153965 -0.0151501 -0.014879 -0.0145916 -0.0142878 -0.0139677 -0.0136312 -0.0132784 -0.0129091 -0.0125236 -0.0121292 -0.0117337 -0.0113369 -0.010939 -0.0105399 -0.0101395 -0.009738 -0.00933527 -0.00893375 -0.00853587 -0.00814162 -0.00775099 -0.007364 -0.00698064 -0.00660091 -0.00622481 -0.00585364 -0.00548872 -0.00513004 -0.0047776 -0.00443141 -0.00409145 -0.00375774 -0.00343027 -0.00311294 -0.00280964 -0.00252038 -0.00224514 -0.00198394 -0.00173677 -0.00150363 -0.00128453 -0.00108229 -0.000899742 -0.000736893 -0.00059374 -0.000470283 -0.000366521 -0.000282456 -0.000218087 -0.000166972 -0.000122674 -8.519e-05 -5.45216e-05 -3.06684e-05 -1.36304e-05 -3.4076e-06 0 0 -4.41221e-06 -1.76488e-05 -3.97099e-05 -7.05954e-05 -0.000110305 -0.00015884 -0.000216198 -0.000282381 -0.000364654 -0.000470282 -0.000599266 -0.000751604 -0.000927298 -0.00112635 -0.00134875 -0.00159451 -0.00185942 -0.00213927 -0.00243408 -0.00274382 -0.00306852 -0.00340816 -0.00376274 -0.00413227 -0.00451182 -0.00489645 -0.00528618 -0.00568099 -0.00608089 -0.00648589 -0.00689597 -0.00731113 -0.00773024 -0.00815214 -0.00857683 -0.00900431 -0.00943458 -0.00986764 -0.0103035 -0.0107421 -0.0111816 -0.0116199 -0.012057 -0.012493 -0.0129279 -0.0133616 -0.0137941 -0.0142255 -0.0146475 -0.015052 -0.015439 -0.0158085 -0.0161604 -0.0164948 -0.0168117 -0.0171111 -0.0173836 -0.0176197 -0.0178195 -0.017983 -0.0181101 -0.0182009 -0.0182554 -0.0182736 -0.0182554 -0.0182009 -0.0181101 -0.017983 -0.0178195 -0.0176197 -0.0173836 -0.0171111 -0.0168117 -0.0164948 -0.0161604 -0.0158085 -0.015439 -0.015052 -0.0146475 -0.0142255 -0.0137941 -0.0133616 -0.0129279 -0.012493 -0.012057 -0.0116199 -0.0111816 -0.0107421 -0.0103035 -0.00986764 -0.00943458 -0.00900431 -0.00857683 -0.00815214 -0.00773024 -0.00731113 -0.00689597 -0.00648589 -0.00608089 -0.00568099 -0.00528618 -0.00489645 -0.00451182 -0.00413227 -0.00376274 -0.00340816 -0.00306852 -0.00274382 -0.00243408 -0.00213928 -0.00185942 -0.00159451 -0.00134875 -0.00112635 -0.000927298 -0.000751605 -0.000599266 -0.000470283 -0.000364655 -0.000282382 -0.000216198 -0.00015884 -0.000110305 -7.05954e-05 -3.97099e-05 -1.76489e-05 -4.41221e-06 0 0 -5.61836e-06 -2.24735e-05 -5.05653e-05 -8.98938e-05 -0.000140459 -0.000202261 -0.0002753 -0.000359575 -0.000463063 -0.00059374 -0.000751604 -0.000936657 -0.0011489 -0.00138833 -0.00165495 -0.00194875 -0.00226375 -0.00259396 -0.00293936 -0.00329996 -0.00367577 -0.00406678 -0.00447299 -0.0048944 -0.00532487 -0.00575826 -0.00619458 -0.00663382 -0.00707598 -0.00752107 -0.00796908 -0.00842001 -0.00887304 -0.00932736 -0.00978296 -0.0102398 -0.010698 -0.0111575 -0.0116182 -0.0120802 -0.0125424 -0.0130035 -0.0134637 -0.0139229 -0.014381 -0.0148382 -0.0152943 -0.0157495 -0.0161952 -0.0166229 -0.0170326 -0.0174244 -0.0177982 -0.0181541 -0.0184919 -0.0188119 -0.0191033 -0.019356 -0.0195697 -0.0197446 -0.0198807 -0.0199778 -0.0200361 -0.0200556 -0.0200361 -0.0199778 -0.0198807 -0.0197446 -0.0195697 -0.019356 -0.0191033 -0.0188119 -0.0184919 -0.0181541 -0.0177982 -0.0174244 -0.0170326 -0.0166229 -0.0161952 -0.0157495 -0.0152943 -0.0148382 -0.014381 -0.0139229 -0.0134637 -0.0130035 -0.0125424 -0.0120802 -0.0116182 -0.0111575 -0.010698 -0.0102398 -0.00978296 -0.00932736 -0.00887304 -0.00842001 -0.00796908 -0.00752107 -0.00707598 -0.00663382 -0.00619458 -0.00575826 -0.00532487 -0.0048944 -0.00447299 -0.00406678 -0.00367577 -0.00329997 -0.00293936 -0.00259396 -0.00226375 -0.00194875 -0.00165495 -0.00138833 -0.0011489 -0.000936658 -0.000751605 -0.00059374 -0.000463064 -0.000359575 -0.0002753 -0.000202261 -0.000140459 -8.98939e-05 -5.05653e-05 -2.24735e-05 -5.61837e-06 0 0 -7.02606e-06 -2.81042e-05 -6.32345e-05 -0.000112417 -0.000175651 -0.000252938 -0.000344277 -0.000449668 -0.000577682 -0.000736892 -0.000927298 -0.0011489 -0.00140169 -0.00168569 -0.00200087 -0.00234725 -0.00271663 -0.00310081 -0.00349979 -0.00391356 -0.00434214 -0.00478551 -0.00524368 -0.00571666 -0.0061969 -0.00667688 -0.00715662 -0.00763609 -0.00811531 -0.00859427 -0.00907298 -0.00955143 -0.0100293 -0.0105063 -0.0109824 -0.0114576 -0.0119319 -0.0124054 -0.0128779 -0.0133495 -0.0138204 -0.0142905 -0.0147598 -0.0152285 -0.0156964 -0.0161635 -0.01663 -0.0170957 -0.0175522 -0.017991 -0.0184121 -0.0188155 -0.0192012 -0.0195693 -0.0199196 -0.0202523 -0.0205559 -0.020819 -0.0210416 -0.0212237 -0.0213654 -0.0214666 -0.0215273 -0.0215475 -0.0215273 -0.0214666 -0.0213654 -0.0212237 -0.0210416 -0.020819 -0.0205559 -0.0202523 -0.0199196 -0.0195693 -0.0192012 -0.0188155 -0.0184121 -0.017991 -0.0175522 -0.0170957 -0.01663 -0.0161635 -0.0156964 -0.0152285 -0.0147598 -0.0142905 -0.0138204 -0.0133495 -0.0128779 -0.0124054 -0.0119319 -0.0114576 -0.0109824 -0.0105063 -0.0100293 -0.00955143 -0.00907298 -0.00859427 -0.00811531 -0.00763609 -0.00715662 -0.00667688 -0.0061969 -0.00571666 -0.00524368 -0.00478551 -0.00434214 -0.00391356 -0.00349979 -0.00310081 -0.00271663 -0.00234726 -0.00200087 -0.00168569 -0.0014017 -0.0011489 -0.000927298 -0.000736893 -0.000577683 -0.000449668 -0.000344277 -0.000252938 -0.000175652 -0.000112417 -6.32346e-05 -2.81043e-05 -7.02607e-06 0 0 -8.6353e-06 -3.45412e-05 -7.77177e-05 -0.000138165 -0.000215882 -0.000310871 -0.00042313 -0.000552659 -0.000708512 -0.000899741 -0.00112635 -0.00138833 -0.00168569 -0.00201842 -0.00238653 -0.00279002 -0.00321806 -0.00365984 -0.00411536 -0.00458462 -0.00506762 -0.00556436 -0.00607483 -0.00659904 -0.0071279 -0.00765232 -0.00817228 -0.0086878 -0.00919887 -0.0097055 -0.0102077 -0.0107054 -0.011199 -0.011689 -0.0121751 -0.0126576 -0.0131363 -0.0136113 -0.0140825 -0.0145501 -0.0150156 -0.0154807 -0.0159455 -0.0164099 -0.0168739 -0.0173376 -0.017801 -0.018264 -0.0187185 -0.0191562 -0.0195773 -0.0199817 -0.0203694 -0.0207405 -0.0210948 -0.0214324 -0.0217411 -0.0220086 -0.022235 -0.0224202 -0.0225643 -0.0226672 -0.0227289 -0.0227495 -0.0227289 -0.0226672 -0.0225643 -0.0224202 -0.022235 -0.0220086 -0.0217411 -0.0214324 -0.0210948 -0.0207405 -0.0203694 -0.0199817 -0.0195773 -0.0191562 -0.0187185 -0.018264 -0.017801 -0.0173376 -0.0168739 -0.0164099 -0.0159455 -0.0154807 -0.0150156 -0.0145501 -0.0140825 -0.0136113 -0.0131363 -0.0126576 -0.0121751 -0.011689 -0.011199 -0.0107054 -0.0102077 -0.0097055 -0.00919887 -0.0086878 -0.00817228 -0.00765232 -0.0071279 -0.00659904 -0.00607483 -0.00556436 -0.00506762 -0.00458462 -0.00411536 -0.00365984 -0.00321806 -0.00279002 -0.00238653 -0.00201842 -0.00168569 -0.00138833 -0.00112635 -0.000899742 -0.000708513 -0.00055266 -0.00042313 -0.000310871 -0.000215883 -0.000138165 -7.77178e-05 -3.45412e-05 -8.63531e-06 0 0 -1.04461e-05 -4.17843e-05 -9.40147e-05 -0.000167137 -0.000261152 -0.000376059 -0.000511858 -0.000668549 -0.000855552 -0.00108229 -0.00134875 -0.00165495 -0.00200087 -0.00238653 -0.00281192 -0.00327704 -0.00376803 -0.00427105 -0.00478608 -0.00531314 -0.00585222 -0.00640331 -0.00696643 -0.00754157 -0.00811789 -0.00868456 -0.00924158 -0.00978895 -0.0103267 -0.0108547 -0.0113732 -0.0118819 -0.0123823 -0.0128753 -0.0133612 -0.0138398 -0.0143112 -0.0147753 -0.0152322 -0.0156818 -0.0161279 -0.0165742 -0.0170205 -0.0174671 -0.0179137 -0.0183605 -0.0188074 -0.0192544 -0.0196941 -0.0201187 -0.0205284 -0.0209231 -0.0213029 -0.0216676 -0.0220174 -0.0223522 -0.0226591 -0.022925 -0.0231501 -0.0233342 -0.0234774 -0.0235797 -0.0236411 -0.0236615 -0.0236411 -0.0235797 -0.0234774 -0.0233342 -0.0231501 -0.022925 -0.0226591 -0.0223522 -0.0220174 -0.0216676 -0.0213029 -0.0209231 -0.0205284 -0.0201187 -0.0196941 -0.0192544 -0.0188074 -0.0183605 -0.0179137 -0.0174671 -0.0170205 -0.0165742 -0.0161279 -0.0156818 -0.0152322 -0.0147753 -0.0143112 -0.0138398 -0.0133612 -0.0128753 -0.0123823 -0.0118819 -0.0113732 -0.0108547 -0.0103267 -0.00978895 -0.00924158 -0.00868456 -0.00811789 -0.00754157 -0.00696643 -0.00640331 -0.00585222 -0.00531314 -0.00478608 -0.00427105 -0.00376803 -0.00327704 -0.00281192 -0.00238653 -0.00200087 -0.00165495 -0.00134875 -0.00108229 -0.000855553 -0.00066855 -0.000511858 -0.000376059 -0.000261152 -0.000167137 -9.40148e-05 -4.17844e-05 -1.04461e-05 0 0 -1.24584e-05 -4.98336e-05 -0.000112126 -0.000199335 -0.00031146 -0.000448503 -0.000610462 -0.000797338 -0.0010188 -0.00128453 -0.00159451 -0.00194875 -0.00234725 -0.00279002 -0.00327704 -0.00380832 -0.00436655 -0.00493443 -0.00551195 -0.00609911 -0.00669592 -0.00730238 -0.00791847 -0.00854422 -0.00916685 -0.00977361 -0.0103645 -0.0109395 -0.0114987 -0.012042 -0.0125694 -0.013081 -0.0135789 -0.0140654 -0.0145405 -0.0150042 -0.0154565 -0.0158974 -0.0163268 -0.0167448 -0.0171575 -0.0175709 -0.0179851 -0.0184 -0.0188157 -0.019232 -0.0196492 -0.020067 -0.020479 -0.0208784 -0.0212653 -0.0216397 -0.0220015 -0.0223508 -0.0226875 -0.0230118 -0.0233098 -0.0235682 -0.0237868 -0.0239656 -0.0241047 -0.0242041 -0.0242637 -0.0242835 -0.0242637 -0.0242041 -0.0241047 -0.0239656 -0.0237868 -0.0235682 -0.0233098 -0.0230118 -0.0226875 -0.0223508 -0.0220015 -0.0216397 -0.0212653 -0.0208784 -0.020479 -0.020067 -0.0196492 -0.019232 -0.0188157 -0.0184 -0.0179851 -0.0175709 -0.0171575 -0.0167448 -0.0163268 -0.0158974 -0.0154565 -0.0150042 -0.0145405 -0.0140654 -0.0135789 -0.013081 -0.0125694 -0.012042 -0.0114987 -0.0109395 -0.0103645 -0.00977361 -0.00916685 -0.00854422 -0.00791847 -0.00730238 -0.00669592 -0.00609911 -0.00551195 -0.00493443 -0.00436655 -0.00380832 -0.00327704 -0.00279002 -0.00234726 -0.00194875 -0.00159451 -0.00128453 -0.0010188 -0.000797339 -0.000610463 -0.000448503 -0.00031146 -0.000199335 -0.000112126 -4.98337e-05 -1.24584e-05 0 0 -1.46514e-05 -5.86058e-05 -0.000131863 -0.000234423 -0.000366286 -0.000527452 -0.000717921 -0.000937692 -0.00119639 -0.00150363 -0.00185942 -0.00226375 -0.00271663 -0.00321806 -0.00376803 -0.00436655 -0.00499219 -0.00562354 -0.00626059 -0.00690335 -0.00755181 -0.00820597 -0.00886584 -0.00953141 -0.0101877 -0.0108199 -0.0114279 -0.0120117 -0.0125714 -0.0131068 -0.0136181 -0.0141052 -0.0145718 -0.0150213 -0.015454 -0.0158696 -0.0162682 -0.0166499 -0.0170146 -0.0173624 -0.0177025 -0.0180442 -0.0183875 -0.0187325 -0.0190791 -0.0194273 -0.0197771 -0.0201286 -0.0204768 -0.0208168 -0.0211487 -0.0214723 -0.0217877 -0.022095 -0.0223941 -0.0226849 -0.0229538 -0.0231868 -0.0233839 -0.0235453 -0.0236707 -0.0237603 -0.0238141 -0.023832 -0.0238141 -0.0237603 -0.0236707 -0.0235453 -0.0233839 -0.0231868 -0.0229538 -0.0226849 -0.0223941 -0.022095 -0.0217877 -0.0214723 -0.0211487 -0.0208168 -0.0204768 -0.0201286 -0.0197771 -0.0194273 -0.0190791 -0.0187325 -0.0183875 -0.0180442 -0.0177025 -0.0173624 -0.0170146 -0.0166499 -0.0162682 -0.0158696 -0.015454 -0.0150213 -0.0145718 -0.0141052 -0.0136181 -0.0131068 -0.0125713 -0.0120117 -0.0114279 -0.0108199 -0.0101877 -0.00953141 -0.00886584 -0.00820597 -0.00755181 -0.00690335 -0.00626059 -0.00562354 -0.0049922 -0.00436655 -0.00376803 -0.00321806 -0.00271664 -0.00226375 -0.00185942 -0.00150363 -0.00119639 -0.000937693 -0.000717921 -0.000527452 -0.000366286 -0.000234423 -0.000131863 -5.86058e-05 -1.46515e-05 0 0 -1.70044e-05 -6.80174e-05 -0.000153039 -0.00027207 -0.000425109 -0.000612157 -0.000833214 -0.00108828 -0.00138644 -0.00173677 -0.00213927 -0.00259396 -0.00310081 -0.00365984 -0.00427105 -0.00493443 -0.00562354 -0.00631195 -0.00699965 -0.00768664 -0.00837293 -0.00905851 -0.00974338 -0.0104276 -0.0110935 -0.0117239 -0.0123186 -0.0128776 -0.013401 -0.0138887 -0.0143408 -0.0147572 -0.0151435 -0.0155052 -0.0158422 -0.0161546 -0.0164423 -0.0167055 -0.016944 -0.0171579 -0.0173609 -0.017567 -0.017776 -0.017988 -0.0182031 -0.0184211 -0.0186421 -0.0188661 -0.0190912 -0.0193155 -0.0195391 -0.019762 -0.019984 -0.0202054 -0.0204259 -0.0206457 -0.0208514 -0.0210297 -0.0211806 -0.021304 -0.0214 -0.0214686 -0.0215097 -0.0215234 -0.0215097 -0.0214686 -0.0214 -0.021304 -0.0211806 -0.0210297 -0.0208514 -0.0206457 -0.0204259 -0.0202054 -0.019984 -0.019762 -0.0195391 -0.0193155 -0.0190912 -0.0188661 -0.0186421 -0.0184211 -0.0182031 -0.017988 -0.017776 -0.017567 -0.0173609 -0.0171579 -0.016944 -0.0167055 -0.0164423 -0.0161546 -0.0158422 -0.0155052 -0.0151435 -0.0147572 -0.0143408 -0.0138887 -0.013401 -0.0128776 -0.0123186 -0.0117239 -0.0110935 -0.0104276 -0.00974338 -0.00905851 -0.00837293 -0.00768664 -0.00699965 -0.00631195 -0.00562354 -0.00493443 -0.00427105 -0.00365984 -0.00310081 -0.00259396 -0.00213928 -0.00173677 -0.00138644 -0.00108828 -0.000833214 -0.000612157 -0.000425109 -0.00027207 -0.000153039 -6.80175e-05 -1.70044e-05 0 0 -1.95172e-05 -7.80686e-05 -0.000175654 -0.000312274 -0.000487929 -0.000702617 -0.00095634 -0.0012491 -0.00158894 -0.00198394 -0.00243408 -0.00293936 -0.00349979 -0.00411536 -0.00478608 -0.00551195 -0.00626059 -0.00699965 -0.00772912 -0.008449 -0.00915929 -0.00986 -0.0105511 -0.0112326 -0.0118842 -0.0124855 -0.0130365 -0.0135372 -0.0139876 -0.0143877 -0.0147375 -0.015037 -0.0152941 -0.0155169 -0.0157052 -0.0158592 -0.0159788 -0.016064 -0.0161148 -0.0161313 -0.0161329 -0.0161394 -0.0161507 -0.0161668 -0.0161877 -0.0162134 -0.016244 -0.0162794 -0.016322 -0.0163745 -0.0164367 -0.0165086 -0.0165903 -0.0166818 -0.0167831 -0.0168941 -0.0170028 -0.017097 -0.0171767 -0.0172419 -0.0172926 -0.0173288 -0.0173505 -0.0173578 -0.0173505 -0.0173288 -0.0172926 -0.0172419 -0.0171767 -0.017097 -0.0170028 -0.0168941 -0.0167831 -0.0166818 -0.0165903 -0.0165086 -0.0164367 -0.0163745 -0.016322 -0.0162794 -0.016244 -0.0162134 -0.0161877 -0.0161668 -0.0161507 -0.0161394 -0.0161329 -0.0161313 -0.0161148 -0.016064 -0.0159788 -0.0158592 -0.0157052 -0.0155169 -0.0152941 -0.015037 -0.0147375 -0.0143877 -0.0139876 -0.0135372 -0.0130365 -0.0124855 -0.0118842 -0.0112326 -0.0105511 -0.00986 -0.00915929 -0.008449 -0.00772912 -0.00699965 -0.00626059 -0.00551195 -0.00478608 -0.00411536 -0.00349979 -0.00293936 -0.00243408 -0.00198394 -0.00158895 -0.0012491 -0.000956341 -0.000702618 -0.000487929 -0.000312275 -0.000175655 -7.80687e-05 -1.95172e-05 0 0 -2.21898e-05 -8.87593e-05 -0.000199708 -0.000355037 -0.000554745 -0.000798834 -0.0010873 -0.00142015 -0.00180391 -0.00224514 -0.00274382 -0.00329996 -0.00391356 -0.00458462 -0.00531314 -0.00609911 -0.00690335 -0.00768664 -0.008449 -0.00919041 -0.00991089 -0.0106104 -0.011289 -0.0119467 -0.0125598 -0.0131048 -0.0135817 -0.0139905 -0.0143312 -0.0146037 -0.0148081 -0.0149445 -0.0150236 -0.0150565 -0.0150431 -0.0149835 -0.0148776 -0.0147256 -0.0145272 -0.0142826 -0.0140185 -0.0137614 -0.0135115 -0.0132687 -0.013033 -0.0128044 -0.0125829 -0.0123685 -0.0121694 -0.0119937 -0.0118413 -0.0117123 -0.0116067 -0.0115245 -0.0114656 -0.0114302 -0.0114079 -0.0113885 -0.0113722 -0.0113588 -0.0113