<?xml version="1.0"?> 
<VTKFile type="StructuredGrid" version="0.1"> 
<StructuredGrid WholeExtent="0 128 0 128 0 0"> 
<Piece Extent="0 128 0 128 0 0"> 
<PointData>
<DataArray type="Float32" Name="u" format="ascii" NumberOfComponents="1"> 
0 0 0 0 0 0 0 0 0 0 0 0 0 0 0 0 0 0 0 0 0 0 0 0 0 0 0 0 0 0 0 0 0 0 0 0 0 0 0 0 0 0 0 0 0 0 0 0 0 0 0 0 0 0 0 0 0 0 0 0 0 0 0 0 0 0 0 0 0 0 0 0 0 0 0 0 0 0 0 0 0 0 0 0 0 0 0 0 0 0 0 0 0 0 0 0 0 0 0 0 0 0 0 0 0 0 0 0 0 0 0 0 0 0 0 0 0 0 0 0 0 0 0 0 0 0 0 0 0 0 4.92498e-09 1.96999e-08 4.43249e-08 7.87997e-08 1.23125e-07 1.77299e-07 2.41324e-07 3.15199e-07 4.52998e-07 7.08797e-07 1.08259e-06 1.57439e-06 2.18419e-06 2.91198e-06 3.75778e-06 4.72157e-06 5.74327e-06 6.76279e-06 7.78013e-06 8.79529e-06 9.80826e-06 1.08191e-05 1.18277e-05 1.28341e-05 1.37217e-05 1.4374e-05 1.47909e-05 1.49724e-05 1.49185e-05 1.46293e-05 1.41046e-05 1.33446e-05 1.23951e-05 1.13021e-05 1.00655e-05 8.68542e-06 7.16178e-06 5.4946e-06 3.68388e-06 1.72961e-06 -2.0966e-07 -1.97542e-06 -3.56766e-06 -4.98639e-06 -6.23161e-06 -7.30331e-06 -8.2015e-06 -8.92617e-06 -9.47302e-06 -9.83773e-06 -1.00203e-05 -1.00207e-05 -9.83901e-06 -9.47515e-06 -8.92916e-06 -8.20103e-06 -7.43303e-06 -6.76742e-06 -6.20422e-06 -5.74342e-06 -5.38502e-06 -5.12902e-06 -4.97542e-06 -4.92422e-06 -4.97542e-06 -5.12902e-06 -5.38502e-06 -5.74342e-06 -6.20422e-06 -6.76742e-06 -7.43303e-06 -8.20103e-06 -8.92916e-06 -9.47515e-06 -9.83901e-06 -1.00207e-05 -1.00203e-05 -9.83773e-06 -9.47302e-06 -8.92617e-06 -8.2015e-06 -7.30331e-06 -6.23161e-06 -4.98639e-06 -3.56766e-06 -1.97542e-06 -2.0966e-07 1.72961e-06 3.68388e-06 5.4946e-06 7.16178e-06 8.68542e-06 1.00655e-05 1.13021e-05 1.23951e-05 1.33446e-05 1.41046e-05 1.46293e-05 1.49185e-05 1.49724e-05 1.47909e-05 1.4374e-05 1.37217e-05 1.28341e-05 1.18277e-05 1.08191e-05 9.80826e-06 8.79529e-06 7.78013e-06 6.76279e-06 5.74327e-06 4.72157e-06 3.75778e-06 2.91198e-06 2.18419e-06 1.57439e-06 1.08259e-06 7.08797e-07 4.52998e-07 3.15199e-07 2.41324e-07 1.77299e-07 1.23125e-07 7.87998e-08 4.43249e-08 1.96999e-08 4.92499e-09 0 0 1.96999e-08 7.87997e-08 1.77299e-07 3.15199e-07 4.92498e-07 7.09198e-07 9.65297e-07 1.2608e-06 1.81199e-06 2.83519e-06 4.33038e-06 6.29757e-06 8.73675e-06 1.16479e-05 1.50311e-05 1.88863e-05 2.29731e-05 2.70512e-05 3.11205e-05 3.51812e-05 3.92331e-05 4.32762e-05 4.73107e-05 5.13364e-05 5.4887e-05 5.7496e-05 5.91636e-05 5.98896e-05 5.96741e-05 5.8517e-05 5.64185e-05 5.33784e-05 4.95804e-05 4.52083e-05 4.02621e-05 3.47417e-05 2.86471e-05 2.19784e-05 1.47355e-05 6.91846e-06 -8.38639e-07 -7.90168e-06 -1.42707e-05 -1.99456e-05 -2.49264e-05 -2.92133e-05 -3.2806e-05 -3.57047e-05 -3.78921e-05 -3.93509e-05 -4.00812e-05 -4.00829e-05 -3.9356e-05 -3.79006e-05 -3.57166e-05 -3.28041e-05 -2.97321e-05 -2.70697e-05 -2.48169e-05 -2.29737e-05 -2.15401e-05 -2.05161e-05 -1.99017e-05 -1.96969e-05 -1.99017e-05 -2.05161e-05 -2.15401e-05 -2.29737e-05 -2.48169e-05 -2.70697e-05 -2.97321e-05 -3.28041e-05 -3.57166e-05 -3.79006e-05 -3.9356e-05 -4.00829e-05 -4.00812e-05 -3.93509e-05 -3.78921e-05 -3.57047e-05 -3.2806e-05 -2.92133e-05 -2.49264e-05 -1.99456e-05 -1.42707e-05 -7.90168e-06 -8.38639e-07 6.91846e-06 1.47355e-05 2.19784e-05 2.86471e-05 3.47417e-05 4.02621e-05 4.52083e-05 4.95804e-05 5.33784e-05 5.64185e-05 5.8517e-05 5.96741e-05 5.98896e-05 5.91636e-05 5.7496e-05 5.4887e-05 5.13364e-05 4.73107e-05 4.32762e-05 3.92331e-05 3.51812e-05 3.11205e-05 2.70512e-05 2.29731e-05 1.88863e-05 1.50311e-05 1.16479e-05 8.73675e-06 6.29757e-06 4.33038e-06 2.83519e-06 1.81199e-06 1.2608e-06 9.65297e-07 7.09198e-07 4.92499e-07 3.15199e-07 1.77299e-07 7.87998e-08 1.96999e-08 0 0 4.43249e-08 1.77299e-07 3.98924e-07 7.09198e-07 1.10812e-06 1.59569e-06 2.17192e-06 2.83679e-06 4.07698e-06 6.37917e-06 9.74335e-06 1.41695e-05 1.96577e-05 2.62078e-05 3.382e-05 4.24941e-05 5.16895e-05 6.08651e-05 7.00212e-05 7.91576e-05 8.82744e-05 9.73715e-05 0.000106449 0.000115507 0.000123496 0.000129366 0.000133118 0.000134752 0.000134267 0.000131663 0.000126942 0.000120101 0.000111556 0.000101719 9.05897e-05 7.81688e-05 6.4456e-05 4.94514e-05 3.31549e-05 1.55665e-05 -1.88694e-06 -1.77788e-05 -3.2109e-05 -4.48776e-05 -5.60845e-05 -6.57298e-05 -7.38135e-05 -8.03356e-05 -8.52572e-05 -8.85395e-05 -9.01826e-05 -9.01865e-05 -8.85511e-05 -8.52764e-05 -8.03624e-05 -7.38092e-05 -6.68972e-05 -6.09068e-05 -5.5838e-05 -5.16908e-05 -4.84652e-05 -4.61612e-05 -4.47787e-05 -4.43179e-05 -4.47787e-05 -4.61612e-05 -4.84652e-05 -5.16908e-05 -5.5838e-05 -6.09068e-05 -6.68972e-05 -7.38092e-05 -8.03624e-05 -8.52764e-05 -8.85511e-05 -9.01865e-05 -9.01826e-05 -8.85395e-05 -8.52572e-05 -8.03356e-05 -7.38135e-05 -6.57298e-05 -5.60845e-05 -4.48776e-05 -3.2109e-05 -1.77788e-05 -1.88694e-06 1.55665e-05 3.31549e-05 4.94514e-05 6.4456e-05 7.81688e-05 9.05897e-05 0.000101719 0.000111556 0.000120101 0.000126942 0.000131663 0.000134267 0.000134752 0.000133118 0.000129366 0.000123496 0.000115507 0.000106449 9.73715e-05 8.82744e-05 7.91576e-05 7.00212e-05 6.08651e-05 5.16895e-05 4.24941e-05 3.382e-05 2.62078e-05 1.96577e-05 1.41695e-05 9.74335e-06 6.37917e-06 4.07699e-06 2.83679e-06 2.17192e-06 1.5957e-06 1.10812e-06 7.09198e-07 3.98924e-07 1.77299e-07 4.43249e-08 0 0 7.87997e-08 3.15199e-07 7.09198e-07 1.2608e-06 1.96999e-06 2.83679e-06 3.86119e-06 5.04318e-06 7.24797e-06 1.13407e-05 1.73215e-05 2.51903e-05 3.4947e-05 4.65917e-05 6.01244e-05 7.55451e-05 9.18924e-05 0.000108205 0.000124482 0.000140725 0.000156932 0.000173105 0.000189243 0.000205346 0.000219548 0.000229984 0.000236654 0.000239558 0.000238696 0.000234068 0.000225674 0.000213513 0.000198322 0.000180833 0.000161048 0.000138967 0.000114588 8.79135e-05 5.8942e-05 2.76738e-05 -3.35455e-06 -3.16067e-05 -5.70826e-05 -7.97823e-05 -9.97058e-05 -0.000116853 -0.000131224 -0.000142819 -0.000151568 -0.000157404 -0.000160325 -0.000160332 -0.000157424 -0.000151602 -0.000142867 -0.000131216 -0.000118928 -0.000108279 -9.92675e-05 -9.18947e-05 -8.61603e-05 -8.20643e-05 -7.96067e-05 -7.87875e-05 -7.96067e-05 -8.20643e-05 -8.61603e-05 -9.18947e-05 -9.92675e-05 -0.000108279 -0.000118928 -0.000131216 -0.000142867 -0.000151602 -0.000157424 -0.000160332 -0.000160325 -0.000157404 -0.000151568 -0.000142819 -0.000131224 -0.000116853 -9.97058e-05 -7.97823e-05 -5.70826e-05 -3.16067e-05 -3.35455e-06 2.76738e-05 5.8942e-05 8.79135e-05 0.000114588 0.000138967 0.000161048 0.000180833 0.000198322 0.000213513 0.000225674 0.000234068 0.000238696 0.000239558 0.000236654 0.000229984 0.000219548 0.000205346 0.000189243 0.000173105 0.000156932 0.000140725 0.000124482 0.000108205 9.18924e-05 7.55451e-05 6.01244e-05 4.65917e-05 3.4947e-05 2.51903e-05 1.73215e-05 1.13408e-05 7.24797e-06 5.04318e-06 3.86119e-06 2.83679e-06 1.96999e-06 1.2608e-06 7.09198e-07 3.15199e-07 7.87998e-08 0 0 1.23125e-07 4.92498e-07 1.10812e-06 1.96999e-06 3.07812e-06 4.43249e-06 6.03311e-06 7.87997e-06 1.1325e-05 1.77199e-05 2.70649e-05 3.93598e-05 5.46047e-05 7.27996e-05 9.39444e-05 0.000118039 0.000143582 0.00016907 0.000194503 0.000219882 0.000245207 0.000270476 0.000295692 0.000320852 0.000343044 0.00035935 0.000369772 0.00037431 0.000372963 0.000365731 0.000352615 0.000333615 0.000309878 0.000282552 0.000251638 0.000217136 0.000179044 0.000137365 9.20969e-05 4.32404e-05 -5.24149e-06 -4.93855e-05 -8.91916e-05 -0.00012466 -0.00015579 -0.000182583 -0.000205038 -0.000223154 -0.000236826 -0.000245943 -0.000250507 -0.000250518 -0.000245975 -0.000236879 -0.000223229 -0.000205026 -0.000185826 -0.000169186 -0.000155106 -0.000143585 -0.000134625 -0.000128225 -0.000124385 -0.000123105 -0.000124385 -0.000128225 -0.000134625 -0.000143585 -0.000155106 -0.000169186 -0.000185826 -0.000205026 -0.000223229 -0.000236879 -0.000245975 -0.000250518 -0.000250507 -0.000245943 -0.000236826 -0.000223154 -0.000205038 -0.000182583 -0.00015579 -0.00012466 -8.91916e-05 -4.93855e-05 -5.24149e-06 4.32404e-05 9.20969e-05 0.000137365 0.000179044 0.000217136 0.000251638 0.000282552 0.000309878 0.000333615 0.000352615 0.000365731 0.000372963 0.00037431 0.000369772 0.00035935 0.000343044 0.000320852 0.000295692 0.000270476 0.000245207 0.000219882 0.000194503 0.00016907 0.000143582 0.000118039 9.39444e-05 7.27996e-05 5.46047e-05 3.93598e-05 2.70649e-05 1.77199e-05 1.1325e-05 7.87998e-06 6.03311e-06 4.43249e-06 3.07812e-06 1.96999e-06 1.10812e-06 4.92499e-07 1.23125e-07 0 0 1.77299e-07 7.09198e-07 1.59569e-06 2.83679e-06 4.43249e-06 6.38278e-06 8.68767e-06 1.13472e-05 1.63079e-05 2.55167e-05 3.89734e-05 5.66781e-05 7.86308e-05 0.000104831 0.00013528 0.000169977 0.000206758 0.000243461 0.000280085 0.00031663 0.000353097 0.000389486 0.000425796 0.000462027 0.000493983 0.000517464 0.000532472 0.000539006 0.000537067 0.000526653 0.000507766 0.000480405 0.000446224 0.000406875 0.000362359 0.000312675 0.000257824 0.000197805 0.00013262 6.22661e-05 -7.54775e-06 -7.11151e-05 -0.000128436 -0.00017951 -0.000224338 -0.000262919 -0.000295254 -0.000321342 -0.000341029 -0.000354158 -0.000360731 -0.000360746 -0.000354204 -0.000341106 -0.00032145 -0.000295237 -0.000267589 -0.000243627 -0.000223352 -0.000206763 -0.000193861 -0.000184645 -0.000179115 -0.000177272 -0.000179115 -0.000184645 -0.000193861 -0.000206763 -0.000223352 -0.000243627 -0.000267589 -0.000295237 -0.00032145 -0.000341106 -0.000354204 -0.000360746 -0.000360731 -0.000354158 -0.000341029 -0.000321342 -0.000295254 -0.000262919 -0.000224338 -0.00017951 -0.000128436 -7.11151e-05 -7.54775e-06 6.22661e-05 0.00013262 0.000197805 0.000257824 0.000312675 0.000362359 0.000406875 0.000446224 0.000480405 0.000507766 0.000526653 0.000537067 0.000539006 0.000532472 0.000517464 0.000493983 0.000462027 0.000425796 0.000389486 0.000353097 0.00031663 0.000280085 0.000243461 0.000206758 0.000169977 0.00013528 0.000104831 7.86308e-05 5.66781e-05 3.89734e-05 2.55167e-05 1.63079e-05 1.13472e-05 8.68767e-06 6.38278e-06 4.43249e-06 2.83679e-06 1.5957e-06 7.09198e-07 1.77299e-07 0 0 2.41324e-07 9.65297e-07 2.17192e-06 3.86119e-06 6.03311e-06 8.68767e-06 1.18249e-05 1.54448e-05 2.21969e-05 3.4731e-05 5.30471e-05 7.71452e-05 0.000107025 0.000142687 0.000184131 0.000231357 0.00028142 0.000331377 0.000381226 0.000430969 0.000480605 0.000530134 0.000579556 0.000628871 0.000672365 0.000704326 0.000724754 0.000733647 0.000731007 0.000716834 0.000691126 0.000653885 0.00060736 0.000553802 0.000493211 0.000425586 0.000350927 0.000269235 0.00018051 8.47511e-05 -1.02733e-05 -9.67955e-05 -0.000174816 -0.000244333 -0.000305349 -0.000357862 -0.000401874 -0.000437383 -0.000464178 -0.000482049 -0.000490994 -0.000491015 -0.000482111 -0.000464283 -0.000437529 -0.00040185 -0.000364218 -0.000331604 -0.000304007 -0.000281428 -0.000263866 -0.000251322 -0.000243795 -0.000241287 -0.000243795 -0.000251322 -0.000263866 -0.000281428 -0.000304007 -0.000331604 -0.000364218 -0.00040185 -0.000437529 -0.000464283 -0.000482111 -0.000491015 -0.000490994 -0.000482049 -0.000464178 -0.000437383 -0.000401874 -0.000357862 -0.000305349 -0.000244333 -0.000174816 -9.67955e-05 -1.02733e-05 8.47511e-05 0.00018051 0.000269235 0.000350927 0.000425586 0.000493211 0.000553802 0.00060736 0.000653885 0.000691126 0.000716834 0.000731007 0.000733647 0.000724754 0.000704326 0.000672365 0.000628871 0.000579556 0.000530134 0.000480605 0.000430969 0.000381226 0.000331377 0.00028142 0.000231357 0.000184131 0.000142687 0.000107025 7.71452e-05 5.30471e-05 3.47311e-05 2.21969e-05 1.54448e-05 1.18249e-05 8.68767e-06 6.03311e-06 3.86119e-06 2.17192e-06 9.65297e-07 2.41324e-07 0 0 3.15199e-07 1.2608e-06 2.83679e-06 5.04318e-06 7.87997e-06 1.13472e-05 1.54448e-05 2.01727e-05 2.89919e-05 4.5363e-05 6.92861e-05 0.000100761 0.000139788 0.000186367 0.000240498 0.000302181 0.00036757 0.000432819 0.000497928 0.000562898 0.000627729 0.00069242 0.000756971 0.000821382 0.000878192 0.000919937 0.000946617 0.000958233 0.000954785 0.000936272 0.000902695 0.000854054 0.000793287 0.000723333 0.000644193 0.000555867 0.000458354 0.000351654 0.000235768 0.000110695 -1.34182e-05 -0.000126427 -0.00022833 -0.000319129 -0.000398823 -0.000467412 -0.000524896 -0.000571275 -0.000606273 -0.000629615 -0.000641299 -0.000641326 -0.000629696 -0.00060641 -0.000571466 -0.000524866 -0.000475714 -0.000433115 -0.00039707 -0.000367579 -0.000344641 -0.000328257 -0.000318427 -0.00031515 -0.000318427 -0.000328257 -0.000344641 -0.000367579 -0.00039707 -0.000433115 -0.000475714 -0.000524866 -0.000571466 -0.00060641 -0.000629696 -0.000641326 -0.000641299 -0.000629615 -0.000606273 -0.000571275 -0.000524896 -0.000467412 -0.000398823 -0.000319129 -0.00022833 -0.000126427 -1.34182e-05 0.000110695 0.000235768 0.000351654 0.000458354 0.000555867 0.000644193 0.000723333 0.000793287 0.000854054 0.000902695 0.000936272 0.000954785 0.000958233 0.000946617 0.000919937 0.000878192 0.000821382 0.000756971 0.00069242 0.000627729 0.000562898 0.000497928 0.000432819 0.00036757 0.000302181 0.000240498 0.000186367 0.000139788 0.000100761 6.92861e-05 4.5363e-05 2.89919e-05 2.01727e-05 1.54448e-05 1.13472e-05 7.87998e-06 5.04318e-06 2.83679e-06 1.2608e-06 3.15199e-07 0 0 4.52998e-07 1.81199e-06 4.07699e-06 7.24797e-06 1.1325e-05 1.63079e-05 2.21969e-05 2.89919e-05 4.08272e-05 6.18373e-05 9.20221e-05 0.000131382 0.000179916 0.000237625 0.000304509 0.000380567 0.000460793 0.000540179 0.000618726 0.000696433 0.0007733 0.000849327 0.000924514 0.000998862 0.00106317 0.00110823 0.00113405 0.00114062 0.00112796 0.00109604 0.00104489 0.000974489 0.000888692 0.000791342 0.00068244 0.000561985 0.000429978 0.000286419 0.000131307 -3.53574e-05 -0.000200853 -0.000352459 -0.000490176 -0.000614003 -0.000723941 -0.000819989 -0.000902147 -0.000970416 -0.00102428 -0.00106322 -0.00108724 -0.00109634 -0.00109051 -0.00106976 -0.00103409 -0.000983501 -0.000929076 -0.000881908 -0.000841996 -0.000809341 -0.000783943 -0.000765801 -0.000754916 -0.000751288 -0.000754916 -0.000765801 -0.000783943 -0.000809341 -0.000841996 -0.000881908 -0.000929076 -0.000983501 -0.00103409 -0.00106976 -0.00109051 -0.00109634 -0.00108724 -0.00106322 -0.00102428 -0.000970416 -0.000902147 -0.000819989 -0.000723941 -0.000614003 -0.000490176 -0.000352459 -0.000200853 -3.53574e-05 0.000131307 0.000286419 0.000429978 0.000561985 0.00068244 0.000791342 0.000888692 0.000974489 0.00104489 0.00109604 0.00112796 0.00114062 0.00113405 0.00110823 0.00106317 0.000998862 0.000924514 0.000849327 0.0007733 0.000696433 0.000618726 0.000540179 0.000460793 0.000380567 0.000304509 0.000237625 0.000179916 0.000131382 9.20221e-05 6.18373e-05 4.08272e-05 2.89919e-05 2.21969e-05 1.63079e-05 1.1325e-05 7.24797e-06 4.07699e-06 1.81199e-06 4.52998e-07 0 0 7.08797e-07 2.83519e-06 6.37917e-06 1.13408e-05 1.77199e-05 2.55167e-05 3.4731e-05 4.5363e-05 6.18373e-05 8.85787e-05 0.000125587 0.000172863 0.000230406 0.000298216 0.000376293 0.000464637 0.000556679 0.000645852 0.000732154 0.000815586 0.000896148 0.000973839 0.00104866 0.00112061 0.001179 0.00121315 0.00122304 0.00120868 0.00117008 0.00110722 0.00102012 0.000908769 0.000778264 0.000633701 0.000475083 0.000302407 0.000115675 -8.51144e-05 -0.00029996 -0.000528863 -0.000756449 -0.000967343 -0.00116155 -0.00133906 -0.00149988 -0.00164401 -0.00177145 -0.0018822 -0.00197516 -0.00204923 -0.00210441 -0.0021407 -0.0021581 -0.00215662 -0.00213624 -0.00209697 -0.00205131 -0.00201173 -0.00197824 -0.00195084 -0.00192953 -0.0019143 -0.00190517 -0.00190213 -0.00190517 -0.0019143 -0.00192953 -0.00195084 -0.00197824 -0.00201173 -0.00205131 -0.00209697 -0.00213624 -0.00215662 -0.0021581 -0.0021407 -0.00210441 -0.00204923 -0.00197516 -0.0018822 -0.00177145 -0.00164401 -0.00149988 -0.00133906 -0.00116155 -0.000967343 -0.000756449 -0.000528863 -0.00029996 -8.51144e-05 0.000115675 0.000302407 0.000475083 0.000633701 0.000778264 0.000908769 0.00102012 0.00110722 0.00117008 0.00120868 0.00122304 0.00121315 0.001179 0.00112061 0.00104866 0.000973839 0.000896148 0.000815586 0.000732154 0.000645852 0.000556679 0.000464637 0.000376293 0.000298216 0.000230406 0.000172863 0.000125587 8.85787e-05 6.18373e-05 4.5363e-05 3.47311e-05 2.55167e-05 1.77199e-05 1.13408e-05 6.37917e-06 2.83519e-06 7.08797e-07 0 0 1.08259e-06 4.33038e-06 9.74335e-06 1.73215e-05 2.70649e-05 3.89734e-05 5.30471e-05 6.92861e-05 9.20221e-05 0.000125587 0.000169982 0.000225205 0.000291257 0.000368139 0.000455849 0.000554389 0.000655228 0.000749836 0.000838212 0.000920358 0.000996273 0.00106596 0.00112941 0.00118663 0.0012257 0.00123468 0.00121359 0.00116241 0.00108115 0.000969812 0.000828392 0.000656892 0.000462002 0.000250411 2.21216e-05 -0.000222868 -0.000484557 -0.000762946 -0.00105803 -0.00136982 -0.0016802 -0.00197108 -0.00224244 -0.0024943 -0.00272665 -0.00293949 -0.00313281 -0.00330663 -0.00345892 -0.00358765 -0.00369282 -0.00377443 -0.00383248 -0.00386697 -0.00387791 -0.00386528 -0.0038424 -0.00382257 -0.0038058 -0.00379207 -0.00378139 -0.00377377 -0.00376919 -0.00376767 -0.00376919 -0.00377377 -0.00378139 -0.00379207 -0.0038058 -0.00382257 -0.0038424 -0.00386528 -0.00387791 -0.00386697 -0.00383248 -0.00377443 -0.00369282 -0.00358765 -0.00345892 -0.00330663 -0.00313281 -0.00293949 -0.00272665 -0.0024943 -0.00224244 -0.00197108 -0.0016802 -0.00136982 -0.00105803 -0.000762946 -0.000484557 -0.000222868 2.21216e-05 0.000250411 0.000462002 0.000656892 0.000828392 0.000969812 0.00108115 0.00116241 0.00121359 0.00123468 0.0012257 0.00118663 0.00112941 0.00106596 0.000996273 0.000920358 0.000838212 0.000749836 0.000655228 0.000554389 0.000455849 0.000368139 0.000291257 0.000225205 0.000169982 0.000125587 9.20221e-05 6.92861e-05 5.30471e-05 3.89734e-05 2.70649e-05 1.73215e-05 9.74335e-06 4.33038e-06 1.08259e-06 0 0 1.57439e-06 6.29757e-06 1.41695e-05 2.51903e-05 3.93598e-05 5.66781e-05 7.71452e-05 0.000100761 0.000131382 0.000172863 0.000225205 0.000288407 0.000362471 0.000447395 0.000543179 0.000649825 0.000756439 0.000852131 0.000936902 0.00101075 0.00107368 0.00112568 0.00116676 0.00119692 0.00120325 0.00117284 0.00110569 0.0010018 0.000861173 0.000683807 0.000469703 0.00021886 -6.00937e-05 -0.000358528 -0.000676443 -0.00101384 -0.00137072 -0.00174707 -0.00214291 -0.00255823 -0.00297212 -0.00336367 -0.00373287 -0.00407972 -0.00440424 -0.00470641 -0.00498623 -0.00524371 -0.00547556 -0.00567847 -0.00585245 -0.00599751 -0.00611363 -0.00620083 -0.00625909 -0.00628843 -0.00630237 -0.00631445 -0.00632467 -0.00633304 -0.00633954 -0.00634419 -0.00634698 -0.00634791 -0.00634698 -0.00634419 -0.00633954 -0.00633304 -0.00632467 -0.00631445 -0.00630237 -0.00628843 -0.00625909 -0.00620083 -0.00611363 -0.00599751 -0.00585245 -0.00567847 -0.00547556 -0.00524371 -0.00498623 -0.00470641 -0.00440424 -0.00407972 -0.00373287 -0.00336367 -0.00297212 -0.00255823 -0.00214291 -0.00174707 -0.00137072 -0.00101384 -0.000676443 -0.000358528 -6.00937e-05 0.00021886 0.000469703 0.000683807 0.000861173 0.0010018 0.00110569 0.00117284 0.00120325 0.00119692 0.00116676 0.00112568 0.00107368 0.00101075 0.000936902 0.000852131 0.000756439 0.000649825 0.000543179 0.000447395 0.000362471 0.000288407 0.000225205 0.000172863 0.000131382 0.000100761 7.71452e-05 5.66781e-05 3.93598e-05 2.51903e-05 1.41695e-05 6.29757e-06 1.57439e-06 0 0 2.18419e-06 8.73675e-06 1.96577e-05 3.4947e-05 5.46047e-05 7.86308e-05 0.000107025 0.000139788 0.000179916 0.000230406 0.000291257 0.000362471 0.000444046 0.000535983 0.000638282 0.000750943 0.000860313 0.000952739 0.00102822 0.00108676 0.00112835 0.00115301 0.00116071 0.00115148 0.00111166 0.00102761 0.000899347 0.000726858 0.000510146 0.000249211 -5.59476e-05 -0.000405329 -0.000788022 -0.00119312 -0.00162061 -0.00207051 -0.0025428 -0.0030375 -0.0035546 -0.0040941 -0.0046322 -0.00514511 -0.00563282 -0.00609533 -0.00653265 -0.00694477 -0.0073317 -0.00769343 -0.00802507 -0.0083217 -0.00858332 -0.00880995 -0.00900157 -0.00915818 -0.0092798 -0.00936641 -0.0094312 -0.00948735 -0.00953486 -0.00957374 -0.00960397 -0.00962557 -0.00963853 -0.00964285 -0.00963853 -0.00962557 -0.00960397 -0.00957374 -0.00953486 -0.00948735 -0.0094312 -0.00936641 -0.0092798 -0.00915818 -0.00900157 -0.00880995 -0.00858332 -0.0083217 -0.00802507 -0.00769343 -0.0073317 -0.00694477 -0.00653265 -0.00609533 -0.00563282 -0.00514511 -0.0046322 -0.0040941 -0.0035546 -0.0030375 -0.0025428 -0.00207051 -0.00162061 -0.00119312 -0.000788022 -0.000405329 -5.59476e-05 0.000249211 0.000510146 0.000726858 0.000899347 0.00102761 0.00111166 0.00115148 0.00116071 0.00115301 0.00112835 0.00108676 0.00102822 0.000952739 0.000860313 0.000750943 0.000638282 0.000535983 0.000444046 0.000362471 0.000291257 0.000230406 0.000179916 0.000139788 0.000107025 7.86308e-05 5.46047e-05 3.4947e-05 1.96577e-05 8.73675e-06 2.18419e-06 0 0 2.91198e-06 1.16479e-05 2.62078e-05 4.65917e-05 7.27996e-05 0.000104831 0.000142687 0.000186367 0.000237625 0.000298216 0.000368139 0.000447395 0.000535983 0.000633904 0.000741158 0.000857744 0.000966849 0.00105166 0.00111217 0.00114839 0.00116031 0.00114794 0.00111127 0.0010503 0.000950924 0.00079901 0.000594564 0.000337583 2.80695e-05 -0.000333978 -0.000748559 -0.00121567 -0.00172178 -0.00225335 -0.00281038 -0.00339287 -0.00400082 -0.00463423 -0.00529309 -0.00597742 -0.00666044 -0.0073154 -0.00794229 -0.00854112 -0.00911189 -0.00965459 -0.0101692 -0.0106558 -0.0111075 -0.0115173 -0.0118854 -0.0122117 -0.0124963 -0.012739 -0.01294 -0.0130992 -0.0132289 -0.0133413 -0.0134364 -0.0135142 -0.0135747 -0.0136179 -0.0136438 -0.0136525 -0.0136438 -0.0136179 -0.0135747 -0.0135142 -0.0134364 -0.0133413 -0.0132289 -0.0130992 -0.01294 -0.012739 -0.0124963 -0.0122117 -0.0118854 -0.0115173 -0.0111075 -0.0106558 -0.0101692 -0.00965459 -0.00911189 -0.00854112 -0.00794229 -0.0073154 -0.00666044 -0.00597742 -0.00529309 -0.00463423 -0.00400082 -0.00339287 -0.00281038 -0.00225335 -0.00172178 -0.00121567 -0.000748559 -0.000333978 2.80695e-05 0.000337583 0.000594564 0.000799011 0.000950924 0.0010503 0.00111127 0.00114794 0.00116031 0.00114839 0.00111217 0.00105166 0.000966849 0.000857744 0.000741158 0.000633904 0.000535983 0.000447395 0.000368139 0.000298216 0.000237625 0.000186367 0.000142687 0.000104831 7.27996e-05 4.65917e-05 2.62078e-05 1.16479e-05 2.91198e-06 0 0 3.75778e-06 1.50311e-05 3.382e-05 6.01244e-05 9.39444e-05 0.00013528 0.000184131 0.000240498 0.000304509 0.000376293 0.000455849 0.000543179 0.000638282 0.000741158 0.000851807 0.000970228 0.00107605 0.00114889 0.00118875 0.00119564 0.00116955 0.00111047 0.00101843 0.000893399 0.000721049 0.000487028 0.000191337 -0.000166025 -0.000585057 -0.00106576 -0.00160813 -0.00221217 -0.00286138 -0.00353924 -0.00424576 -0.00498093 -0.00574476 -0.00653725 -0.00735839 -0.00820819 -0.00905684 -0.00987454 -0.0106613 -0.0114171 -0.0121419 -0.0128359 -0.0134988 -0.0141308 -0.0147227 -0.0152654 -0.0157588 -0.0162029 -0.0165978 -0.0169434 -0.0172398 -0.0174869 -0.0176955 -0.0178762 -0.0180292 -0.0181543 -0.0182517 -0.0183212 -0.0183629 -0.0183768 -0.0183629 -0.0183212 -0.0182517 -0.0181543 -0.0180292 -0.0178762 -0.0176955 -0.0174869 -0.0172398 -0.0169434 -0.0165978 -0.0162029 -0.0157588 -0.0152654 -0.0147227 -0.0141308 -0.0134988 -0.0128359 -0.0121419 -0.0114171 -0.0106613 -0.00987454 -0.00905684 -0.00820819 -0.00735839 -0.00653725 -0.00574476 -0.00498093 -0.00424576 -0.00353924 -0.00286138 -0.00221217 -0.00160813 -0.00106576 -0.000585057 -0.000166025 0.000191337 0.000487028 0.000721049 0.0008934 0.00101843 0.00111047 0.00116955 0.00119564 0.00118875 0.00114889 0.00107605 0.000970228 0.000851807 0.000741158 0.000638282 0.000543179 0.000455849 0.000376293 0.000304509 0.000240498 0.000184131 0.00013528 9.39444e-05 6.01244e-05 3.382e-05 1.50311e-05 3.75778e-06 0 0 4.72157e-06 1.88863e-05 4.24941e-05 7.55451e-05 0.000118039 0.000169977 0.000231357 0.000302181 0.000380567 0.000464637 0.000554389 0.000649825 0.000750943 0.000857744 0.000970228 0.0010884 0.00118791 0.00124443 0.00125796 0.00122851 0.00115606 0.00104062 0.000882186 0.000680765 0.000422032 9.16659e-05 -0.000310334 -0.000783966 -0.00132923 -0.00194613 -0.00263467 -0.00339483 -0.00420681 -0.00505078 -0.00592674 -0.00683469 -0.00777463 -0.00874657 -0.00975049 -0.0107864 -0.0118214 -0.0128225 -0.0137898 -0.0147232 -0.0156228 -0.0164886 -0.0173204 -0.0181185 -0.0188709 -0.0195658 -0.0202033 -0.0207834 -0.021306 -0.0217713 -0.022179 -0.0225294 -0.0228309 -0.0230922 -0.0233133 -0.0234943 -0.023635 -0.0237355 -0.0237958 -0.0238159 -0.0237958 -0.0237355 -0.023635 -0.0234943 -0.0233133 -0.0230922 -0.0228309 -0.0225294 -0.022179 -0.0217713 -0.021306 -0.0207834 -0.0202033 -0.0195658 -0.0188709 -0.0181185 -0.0173204 -0.0164886 -0.0156228 -0.0147232 -0.0137898 -0.0128225 -0.0118214 -0.0107864 -0.00975049 -0.00874657 -0.00777463 -0.00683469 -0.00592674 -0.00505078 -0.00420681 -0.00339483 -0.00263466 -0.00194613 -0.00132923 -0.000783966 -0.000310334 9.16659e-05 0.000422032 0.000680765 0.000882186 0.00104062 0.00115606 0.00122851 0.00125796 0.00124443 0.00118791 0.0010884 0.000970228 0.000857744 0.000750943 0.000649825 0.000554389 0.000464637 0.000380567 0.000302181 0.000231357 0.000169977 0.000118039 7.55451e-05 4.24941e-05 1.88863e-05 4.72157e-06 0 0 5.74327e-06 2.29731e-05 5.16895e-05 9.18924e-05 0.000143582 0.000206758 0.00028142 0.00036757 0.000460793 0.000556679 0.000655228 0.000756439 0.000860313 0.000966849 0.00107605 0.00118791 0.00127441 0.00130751 0.00128723 0.00121356 0.00108649 0.000906037 0.000672193 0.000384958 3.13484e-05 -0.000401619 -0.000913944 -0.00150563 -0.00217667 -0.00292707 -0.00375682 -0.00466594 -0.00563149 -0.00663058 -0.00766318 -0.00872932 -0.00982898 -0.0109622 -0.0121289 -0.0133291 -0.0145287 -0.0156934 -0.0168233 -0.0179183 -0.0189784 -0.0200037 -0.0209941 -0.0219497 -0.0228561 -0.0236991 -0.0244787 -0.0251949 -0.0258476 -0.026437 -0.0269628 -0.0274253 -0.0278291 -0.0281791 -0.0284753 -0.0287176 -0.028906 -0.0290407 -0.0291214 -0.0291483 -0.0291214 -0.0290407 -0.028906 -0.0287176 -0.0284753 -0.0281791 -0.0278291 -0.0274253 -0.0269628 -0.026437 -0.0258476 -0.0251949 -0.0244787 -0.0236991 -0.0228561 -0.0219497 -0.0209941 -0.0200037 -0.0189784 -0.0179183 -0.0168233 -0.0156934 -0.0145287 -0.0133291 -0.0121289 -0.0109622 -0.00982898 -0.00872932 -0.00766318 -0.00663058 -0.00563149 -0.00466594 -0.00375682 -0.00292707 -0.00217667 -0.00150563 -0.000913944 -0.000401619 3.13484e-05 0.000384958 0.000672193 0.000906038 0.00108649 0.00121356 0.00128723 0.00130751 0.00127441 0.00118791 0.00107605 0.000966849 0.000860313 0.000756439 0.000655228 0.000556679 0.000460793 0.000367569 0.00028142 0.000206758 0.000143582 9.18924e-05 5.16895e-05 2.29731e-05 5.74327e-06 0 0 6.76279e-06 2.70512e-05 6.08652e-05 0.000108205 0.00016907 0.000243461 0.000331377 0.000432819 0.000540179 0.000645852 0.000749836 0.000852131 0.000952739 0.00105166 0.00114889 0.00124443 0.00130751 0.00130736 0.00124397 0.00111735 0.0009275 0.000674412 0.000358091 -2.14651e-05 -0.000473527 -0.00100737 -0.00162299 -0.00232039 -0.00309957 -0.00396053 -0.00490327 -0.00592779 -0.00700885 -0.00812124 -0.00926495 -0.01044 -0.0116463 -0.012884 -0.014153 -0.0154533 -0.0167532 -0.0180211 -0.019257 -0.0204608 -0.0216325 -0.0227722 -0.0238798 -0.0249554 -0.0259828 -0.0269459 -0.0278446 -0.028679 -0.0294491 -0.0301548 -0.0307962 -0.0313733 -0.0318842 -0.0323269 -0.0327015 -0.033008 -0.0332464 -0.0334167 -0.0335189 -0.033553 -0.0335189 -0.0334167 -0.0332464 -0.033008 -0.0327015 -0.0323269 -0.0318842 -0.0313733 -0.0307962 -0.0301548 -0.0294491 -0.028679 -0.0278446 -0.0269459 -0.0259828 -0.0249554 -0.0238798 -0.0227722 -0.0216325 -0.0204608 -0.019257 -0.0180211 -0.0167532 -0.0154533 -0.014153 -0.012884 -0.0116463 -0.01044 -0.00926495 -0.00812124 -0.00700885 -0.00592779 -0.00490327 -0.00396053 -0.00309957 -0.00232039 -0.00162299 -0.00100737 -0.000473527 -2.14651e-05 0.000358091 0.000674412 0.0009275 0.00111735 0.00124397 0.00130736 0.00130751 0.00124443 0.00114889 0.00105166 0.000952739 0.000852131 0.000749836 0.000645852 0.000540179 0.000432819 0.000331377 0.000243461 0.00016907 0.000108205 6.08651e-05 2.70512e-05 6.76279e-06 0 0 7.78013e-06 3.11205e-05 7.00212e-05 0.000124482 0.000194503 0.000280085 0.000381227 0.000497929 0.000618726 0.000732154 0.000838212 0.000936902 0.00102822 0.00111217 0.00118875 0.00125796 0.00128723 0.00124397 0.0011282 0.0009399 0.000679081 0.000345741 -6.01204e-05 -0.000538503 -0.0010926 -0.00172559 -0.00243747 -0.00322826 -0.00409794 -0.00504652 -0.006074 -0.00718038 -0.00833889 -0.00952278 -0.010732 -0.0119667 -0.0132267 -0.0145121 -0.0158228 -0.017159 -0.0184951 -0.0198058 -0.021091 -0.0223508 -0.0235852 -0.0247941 -0.0259776 -0.0271356 -0.0282509 -0.029306 -0.0303009 -0.0312357 -0.0321103 -0.0329248 -0.0336792 -0.0343733 -0.0349959 -0.0355355 -0.0359921 -0.0363656 -0.0366561 -0.0368637 -0.0369882 -0.0370297 -0.0369882 -0.0368637 -0.0366561 -0.0363656 -0.0359921 -0.0355355 -0.0349959 -0.0343733 -0.0336792 -0.0329248 -0.0321103 -0.0312357 -0.0303009 -0.029306 -0.0282509 -0.0271356 -0.0259776 -0.0247941 -0.0235852 -0.0223508 -0.021091 -0.0198058 -0.0184951 -0.017159 -0.0158228 -0.0145121 -0.0132267 -0.0119667 -0.010732 -0.00952278 -0.00833889 -0.00718038 -0.006074 -0.00504652 -0.00409794 -0.00322826 -0.00243747 -0.00172559 -0.0010926 -0.000538503 -6.01203e-05 0.000345741 0.000679081 0.0009399 0.0011282 0.00124397 0.00128723 0.00125796 0.00118875 0.00111217 0.00102822 0.000936901 0.000838212 0.000732154 0.000618726 0.000497928 0.000381226 0.000280085 0.000194503 0.000124482 7.00212e-05 3.11205e-05 7.78013e-06 0 0 8.79529e-06 3.51812e-05 7.91576e-05 0.000140725 0.000219882 0.00031663 0.000430969 0.000562899 0.000696433 0.000815586 0.000920358 0.00101075 0.00108676 0.00114839 0.00119564 0.00122851 0.00121356 0.00111735 0.0009399 0.000681194 0.000341235 -7.99764e-05 -0.00058244 -0.00116616 -0.00182586 -0.00255627 -0.00335739 -0.00422923 -0.00517178 -0.00618505 -0.00726902 -0.00842371 -0.00962161 -0.0108352 -0.0120645 -0.0133094 -0.0145701 -0.0158464 -0.0171384 -0.0184462 -0.0197542 -0.0210473 -0.0223253 -0.0235883 -0.0248363 -0.0260693 -0.0272873 -0.0284903 -0.0296603 -0.0307795 -0.0318477 -0.032865 -0.0338315 -0.034747 -0.0356116 -0.0364254 -0.0371644 -0.0378049 -0.0383469 -0.0387903 -0.0