<?xml version="1.0"?> 
<VTKFile type="StructuredGrid" version="0.1"> 
<StructuredGrid WholeExtent="0 128 0 128 0 0"> 
<Piece Extent="0 128 0 128 0 0"> 
<PointData>
<DataArray type="Float32" Name="u" format="ascii" NumberOfComponents="1"> 
0 0 0 0 0 0 0 0 0 0 0 0 0 0 0 0 0 0 0 0 0 0 0 0 0 0 0 0 0 0 0 0 0 0 0 0 0 0 0 0 0 0 0 0 0 0 0 0 0 0 0 0 0 0 0 0 0 0 0 0 0 0 0 0 0 0 0 0 0 0 0 0 0 0 0 0 0 0 0 0 0 0 0 0 0 0 0 0 0 0 0 0 0 0 0 0 0 0 0 0 0 0 0 0 0 0 0 0 0 0 0 0 0 0 0 0 0 0 0 0 0 0 0 0 0 0 0 0 0 0 -6.31185e-08 -2.52474e-07 -5.68066e-07 -1.0099e-06 -1.57796e-06 -2.27227e-06 -3.09281e-06 -4.03958e-06 -5.14002e-06 -6.42152e-06 -7.8841e-06 -9.52775e-06 -1.13525e-05 -1.33583e-05 -1.55451e-05 -1.79131e-05 -2.03629e-05 -2.27954e-05 -2.52106e-05 -2.76084e-05 -2.9989e-05 -3.23522e-05 -3.46981e-05 -3.70267e-05 -3.92774e-05 -4.13896e-05 -4.33632e-05 -4.51983e-05 -4.68949e-05 -4.84529e-05 -4.98724e-05 -5.11534e-05 -5.22873e-05 -5.32657e-05 -5.40884e-05 -5.47556e-05 -5.52671e-05 -5.5623e-05 -5.58234e-05 -5.58682e-05 -5.57887e-05 -5.56166e-05 -5.53517e-05 -5.49941e-05 -5.45437e-05 -5.40006e-05 -5.33648e-05 -5.26362e-05 -5.18661e-05 -5.11056e-05 -5.03549e-05 -4.96139e-05 -4.88825e-05 -4.81608e-05 -4.74489e-05 -4.67466e-05 -4.60927e-05 -4.55261e-05 -4.50466e-05 -4.46543e-05 -4.43491e-05 -4.41312e-05 -4.40004e-05 -4.39568e-05 -4.40004e-05 -4.41312e-05 -4.43491e-05 -4.46543e-05 -4.50466e-05 -4.55261e-05 -4.60927e-05 -4.67466e-05 -4.74489e-05 -4.81608e-05 -4.88825e-05 -4.96139e-05 -5.03549e-05 -5.11056e-05 -5.1866e-05 -5.26362e-05 -5.33647e-05 -5.40006e-05 -5.45437e-05 -5.49941e-05 -5.53517e-05 -5.56166e-05 -5.57887e-05 -5.58682e-05 -5.58234e-05 -5.5623e-05 -5.52671e-05 -5.47556e-05 -5.40884e-05 -5.32657e-05 -5.22873e-05 -5.11534e-05 -4.98724e-05 -4.84529e-05 -4.68949e-05 -4.51983e-05 -4.33632e-05 -4.13896e-05 -3.92774e-05 -3.70267e-05 -3.46981e-05 -3.23522e-05 -2.9989e-05 -2.76084e-05 -2.52106e-05 -2.27954e-05 -2.03629e-05 -1.79131e-05 -1.55451e-05 -1.33583e-05 -1.13525e-05 -9.52776e-06 -7.88411e-06 -6.42153e-06 -5.14002e-06 -4.03959e-06 -3.09281e-06 -2.27227e-06 -1.57796e-06 -1.0099e-06 -5.68067e-07 -2.52474e-07 -6.31186e-08 0 0 -2.52474e-07 -1.0099e-06 -2.27227e-06 -4.03958e-06 -6.31185e-06 -9.08906e-06 -1.23712e-05 -1.61583e-05 -2.05601e-05 -2.56861e-05 -3.15364e-05 -3.8111e-05 -4.54099e-05 -5.34331e-05 -6.21805e-05 -7.16523e-05 -8.14516e-05 -9.11816e-05 -0.000100842 -0.000110434 -0.000119956 -0.000129409 -0.000138793 -0.000148107 -0.00015711 -0.000165558 -0.000173453 -0.000180793 -0.000187579 -0.000193812 -0.00019949 -0.000204614 -0.000209149 -0.000213063 -0.000216354 -0.000219022 -0.000221068 -0.000222492 -0.000223294 -0.000223473 -0.000223155 -0.000222466 -0.000221407 -0.000219976 -0.000218175 -0.000216002 -0.000213459 -0.000210545 -0.000207464 -0.000204423 -0.00020142 -0.000198455 -0.00019553 -0.000192643 -0.000189795 -0.000186986 -0.000184371 -0.000182104 -0.000180186 -0.000178617 -0.000177397 -0.000176525 -0.000176002 -0.000175827 -0.000176002 -0.000176525 -0.000177397 -0.000178617 -0.000180186 -0.000182104 -0.000184371 -0.000186986 -0.000189795 -0.000192643 -0.00019553 -0.000198455 -0.00020142 -0.000204423 -0.000207464 -0.000210545 -0.000213459 -0.000216002 -0.000218175 -0.000219976 -0.000221407 -0.000222466 -0.000223155 -0.000223473 -0.000223294 -0.000222492 -0.000221068 -0.000219022 -0.000216354 -0.000213063 -0.000209149 -0.000204614 -0.00019949 -0.000193812 -0.000187579 -0.000180793 -0.000173453 -0.000165558 -0.00015711 -0.000148107 -0.000138793 -0.000129409 -0.000119956 -0.000110434 -0.000100842 -9.11816e-05 -8.14516e-05 -7.16523e-05 -6.21806e-05 -5.34331e-05 -4.54099e-05 -3.8111e-05 -3.15364e-05 -2.56861e-05 -2.05601e-05 -1.61584e-05 -1.23712e-05 -9.08907e-06 -6.31186e-06 -4.03959e-06 -2.27227e-06 -1.0099e-06 -2.52474e-07 0 0 -5.68066e-07 -2.27227e-06 -5.1126e-06 -9.08906e-06 -1.42017e-05 -2.04504e-05 -2.78353e-05 -3.63563e-05 -4.62601e-05 -5.77937e-05 -7.09569e-05 -8.57497e-05 -0.000102172 -0.000120224 -0.000139906 -0.000161218 -0.000183266 -0.000205159 -0.000226895 -0.000248476 -0.000269901 -0.00029117 -0.000312283 -0.000333241 -0.000353497 -0.000372506 -0.000390269 -0.000406785 -0.000422054 -0.000436076 -0.000448852 -0.000460381 -0.000470586 -0.000479391 -0.000486796 -0.0004928 -0.000497404 -0.000500607 -0.000502411 -0.000502813 -0.000502099 -0.000500549 -0.000498165 -0.000494947 -0.000490893 -0.000486005 -0.000480283 -0.000473725 -0.000466794 -0.000459951 -0.000453194 -0.000446525 -0.000439943 -0.000433448 -0.00042704 -0.000420719 -0.000414835 -0.000409735 -0.000405419 -0.000401888 -0.000399142 -0.000397181 -0.000396004 -0.000395611 -0.000396004 -0.000397181 -0.000399142 -0.000401888 -0.000405419 -0.000409735 -0.000414835 -0.000420719 -0.00042704 -0.000433448 -0.000439942 -0.000446525 -0.000453194 -0.000459951 -0.000466794 -0.000473725 -0.000480283 -0.000486005 -0.000490893 -0.000494947 -0.000498165 -0.000500549 -0.000502099 -0.000502813 -0.000502411 -0.000500607 -0.000497404 -0.0004928 -0.000486796 -0.000479391 -0.000470586 -0.000460381 -0.000448852 -0.000436076 -0.000422054 -0.000406785 -0.000390269 -0.000372506 -0.000353497 -0.000333241 -0.000312283 -0.00029117 -0.000269901 -0.000248476 -0.000226895 -0.000205159 -0.000183266 -0.000161218 -0.000139906 -0.000120224 -0.000102172 -8.57498e-05 -7.09569e-05 -5.77937e-05 -4.62602e-05 -3.63563e-05 -2.78353e-05 -2.04504e-05 -1.42017e-05 -9.08907e-06 -5.1126e-06 -2.27227e-06 -5.68067e-07 0 0 -1.0099e-06 -4.03958e-06 -9.08906e-06 -1.61583e-05 -2.52474e-05 -3.63563e-05 -4.94849e-05 -6.46333e-05 -8.22403e-05 -0.000102744 -0.000126146 -0.000152444 -0.00018164 -0.000213732 -0.000248722 -0.000286609 -0.000325806 -0.000364726 -0.000403369 -0.000441735 -0.000479824 -0.000517636 -0.00055517 -0.000592428 -0.000628439 -0.000662233 -0.000693811 -0.000723173 -0.000750318 -0.000775247 -0.000797959 -0.000818455 -0.000836597 -0.000852251 -0.000865415 -0.000876089 -0.000884274 -0.000889969 -0.000893174 -0.000893891 -0.00089262 -0.000889866 -0.000885627 -0.000879905 -0.000872699 -0.00086401 -0.000853836 -0.000842179 -0.000829857 -0.00081769 -0.000805678 -0.000793822 -0.00078212 -0.000770573 -0.000759182 -0.000747945 -0.000737484 -0.000728417 -0.000720745 -0.000714468 -0.000709586 -0.000706099 -0.000704007 -0.000703309 -0.000704007 -0.000706099 -0.000709586 -0.000714468 -0.000720745 -0.000728417 -0.000737484 -0.000747945 -0.000759182 -0.000770573 -0.00078212 -0.000793822 -0.000805678 -0.00081769 -0.000829857 -0.000842179 -0.000853836 -0.00086401 -0.000872699 -0.000879905 -0.000885627 -0.000889866 -0.00089262 -0.00089389 -0.000893174 -0.000889969 -0.000884274 -0.000876089 -0.000865415 -0.000852251 -0.000836597 -0.000818455 -0.000797959 -0.000775247 -0.000750318 -0.000723173 -0.000693811 -0.000662233 -0.000628439 -0.000592428 -0.00055517 -0.000517636 -0.000479824 -0.000441735 -0.000403369 -0.000364726 -0.000325806 -0.000286609 -0.000248722 -0.000213732 -0.00018164 -0.000152444 -0.000126146 -0.000102744 -8.22403e-05 -6.46334e-05 -4.9485e-05 -3.63563e-05 -2.52474e-05 -1.61584e-05 -9.08907e-06 -4.03959e-06 -1.0099e-06 0 0 -1.57796e-06 -6.31185e-06 -1.42017e-05 -2.52474e-05 -3.94491e-05 -5.68066e-05 -7.73202e-05 -0.00010099 -0.0001285 -0.000160538 -0.000197102 -0.000238194 -0.000283812 -0.000333957 -0.000388628 -0.000447827 -0.000509072 -0.000569885 -0.000630264 -0.000690211 -0.000749725 -0.000808806 -0.000867454 -0.000925669 -0.000981935 -0.00103474 -0.00108408 -0.00112996 -0.00117237 -0.00121132 -0.00124681 -0.00127884 -0.00130718 -0.00133164 -0.00135221 -0.00136889 -0.00138168 -0.00139058 -0.00139558 -0.0013967 -0.00139472 -0.00139041 -0.00138379 -0.00137485 -0.00136359 -0.00135001 -0.00133412 -0.0013159 -0.00129665 -0.00127764 -0.00125887 -0.00124035 -0.00122206 -0.00120402 -0.00118622 -0.00116866 -0.00115232 -0.00113815 -0.00112616 -0.00111636 -0.00110873 -0.00110328 -0.00110001 -0.00109892 -0.00110001 -0.00110328 -0.00110873 -0.00111636 -0.00112616 -0.00113815 -0.00115232 -0.00116866 -0.00118622 -0.00120402 -0.00122206 -0.00124035 -0.00125887 -0.00127764 -0.00129665 -0.0013159 -0.00133412 -0.00135001 -0.00136359 -0.00137485 -0.00138379 -0.00139041 -0.00139472 -0.0013967 -0.00139558 -0.00139058 -0.00138168 -0.00136889 -0.00135221 -0.00133164 -0.00130718 -0.00127884 -0.00124681 -0.00121132 -0.00117237 -0.00112996 -0.00108408 -0.00103474 -0.000981936 -0.000925669 -0.000867454 -0.000808806 -0.000749725 -0.000690211 -0.000630265 -0.000569885 -0.000509072 -0.000447827 -0.000388629 -0.000333957 -0.000283812 -0.000238194 -0.000197103 -0.000160538 -0.000128501 -0.00010099 -7.73202e-05 -5.68067e-05 -3.94491e-05 -2.52474e-05 -1.42017e-05 -6.31186e-06 -1.57796e-06 0 0 -2.27227e-06 -9.08906e-06 -2.04504e-05 -3.63563e-05 -5.68066e-05 -8.18016e-05 -0.000111341 -0.000145425 -0.000185041 -0.000231175 -0.000283828 -0.000342999 -0.000408689 -0.000480898 -0.000559625 -0.000644871 -0.000733064 -0.000820634 -0.000907581 -0.000993904 -0.0010796 -0.00116468 -0.00124913 -0.00133296 -0.00141399 -0.00149002 -0.00156108 -0.00162714 -0.00168822 -0.0017443 -0.00179541 -0.00184152 -0.00188234 -0.00191756 -0.00194718 -0.0019712 -0.00198962 -0.00200243 -0.00200964 -0.00201125 -0.00200839 -0.0020022 -0.00199266 -0.00197979 -0.00196357 -0.00194402 -0.00192113 -0.0018949 -0.00186718 -0.0018398 -0.00181278 -0.0017861 -0.00175977 -0.00173379 -0.00170816 -0.00168288 -0.00165934 -0.00163894 -0.00162168 -0.00160755 -0.00159657 -0.00158872 -0.00158402 -0.00158245 -0.00158402 -0.00158872 -0.00159657 -0.00160755 -0.00162168 -0.00163894 -0.00165934 -0.00168288 -0.00170816 -0.00173379 -0.00175977 -0.0017861 -0.00181278 -0.0018398 -0.00186718 -0.0018949 -0.00192113 -0.00194402 -0.00196357 -0.00197979 -0.00199266 -0.0020022 -0.00200839 -0.00201125 -0.00200964 -0.00200243 -0.00198962 -0.0019712 -0.00194718 -0.00191756 -0.00188234 -0.00184152 -0.00179541 -0.0017443 -0.00168822 -0.00162714 -0.00156108 -0.00149002 -0.00141399 -0.00133296 -0.00124913 -0.00116468 -0.0010796 -0.000993904 -0.000907581 -0.000820634 -0.000733064 -0.000644871 -0.000559625 -0.000480898 -0.000408689 -0.000342999 -0.000283828 -0.000231175 -0.000185041 -0.000145425 -0.000111341 -8.18017e-05 -5.68067e-05 -3.63563e-05 -2.04504e-05 -9.08907e-06 -2.27227e-06 0 0 -3.09281e-06 -1.23712e-05 -2.78353e-05 -4.94849e-05 -7.73202e-05 -0.000111341 -0.000151548 -0.00019794 -0.000251861 -0.000314655 -0.000386321 -0.00046686 -0.000556271 -0.000654555 -0.000761711 -0.00087774 -0.000997782 -0.00111697 -0.00123532 -0.00135281 -0.00146946 -0.00158526 -0.00170021 -0.00181431 -0.00192459 -0.00202809 -0.0021248 -0.00221472 -0.00229785 -0.00237419 -0.00244375 -0.00250652 -0.00256208 -0.00261002 -0.00265033 -0.00268302 -0.00270809 -0.00272553 -0.00273535 -0.00273754 -0.00273365 -0.00272521 -0.00271223 -0.00269471 -0.00267264 -0.00264603 -0.00261487 -0.00257917 -0.00254144 -0.00250418 -0.00246739 -0.00243108 -0.00239524 -0.00235988 -0.00232499 -0.00229058 -0.00225854 -0.00223078 -0.00220728 -0.00218806 -0.00217311 -0.00216243 -0.00215602 -0.00215388 -0.00215602 -0.00216243 -0.00217311 -0.00218806 -0.00220728 -0.00223078 -0.00225854 -0.00229058 -0.00232499 -0.00235988 -0.00239524 -0.00243108 -0.00246739 -0.00250418 -0.00254144 -0.00257917 -0.00261487 -0.00264603 -0.00267264 -0.00269471 -0.00271223 -0.00272521 -0.00273365 -0.00273754 -0.00273535 -0.00272553 -0.00270809 -0.00268302 -0.00265033 -0.00261002 -0.00256208 -0.00250652 -0.00244375 -0.00237419 -0.00229785 -0.00221472 -0.0021248 -0.00202809 -0.00192459 -0.00181431 -0.00170021 -0.00158526 -0.00146946 -0.00135281 -0.00123532 -0.00111697 -0.000997782 -0.000877741 -0.000761712 -0.000654555 -0.000556271 -0.00046686 -0.000386321 -0.000314655 -0.000251861 -0.00019794 -0.000151548 -0.000111341 -7.73202e-05 -4.9485e-05 -2.78353e-05 -1.23712e-05 -3.09281e-06 0 0 -4.03958e-06 -1.61583e-05 -3.63563e-05 -6.46333e-05 -0.00010099 -0.000145425 -0.00019794 -0.000258533 -0.000328961 -0.000410977 -0.000504582 -0.000609776 -0.000726558 -0.000854929 -0.000994888 -0.00114644 -0.00130322 -0.0014589 -0.00161348 -0.00176694 -0.0019193 -0.00207054 -0.00222068 -0.00236971 -0.00251375 -0.00264893 -0.00277524 -0.00289269 -0.00300127 -0.00310099 -0.00319184 -0.00327382 -0.00334639 -0.003409 -0.00346166 -0.00350436 -0.00353709 -0.00355987 -0.0035727 -0.00357556 -0.00357048 -0.00355946 -0.00354251 -0.00351962 -0.0034908 -0.00345604 -0.00341534 -0.00336871 -0.00331943 -0.00327076 -0.00322271 -0.00317529 -0.00312848 -0.00308229 -0.00303673 -0.00299178 -0.00294993 -0.00291367 -0.00288298 -0.00285787 -0.00283834 -0.0028244 -0.00281603 -0.00281324 -0.00281603 -0.0028244 -0.00283834 -0.00285787 -0.00288298 -0.00291367 -0.00294993 -0.00299178 -0.00303673 -0.00308229 -0.00312848 -0.00317529 -0.00322271 -0.00327076 -0.00331943 -0.00336871 -0.00341534 -0.00345604 -0.0034908 -0.00351962 -0.00354251 -0.00355946 -0.00357048 -0.00357556 -0.0035727 -0.00355987 -0.00353709 -0.00350436 -0.00346166 -0.003409 -0.00334639 -0.00327382 -0.00319184 -0.00310099 -0.00300127 -0.00289269 -0.00277524 -0.00264893 -0.00251376 -0.00236971 -0.00222068 -0.00207054 -0.0019193 -0.00176694 -0.00161348 -0.00145891 -0.00130323 -0.00114644 -0.000994889 -0.000854929 -0.000726559 -0.000609776 -0.000504583 -0.000410978 -0.000328961 -0.000258534 -0.00019794 -0.000145425 -0.00010099 -6.46334e-05 -3.63563e-05 -1.61584e-05 -4.03959e-06 0 0 -5.14002e-06 -2.05601e-05 -4.62601e-05 -8.22403e-05 -0.0001285 -0.000185041 -0.000251861 -0.000328961 -0.000418463 -0.00052249 -0.000641041 -0.000774115 -0.000921714 -0.00108384 -0.00126048 -0.00145166 -0.00164923 -0.00184508 -0.00203921 -0.00223161 -0.00242229 -0.00261125 -0.00279849 -0.002984 -0.00316284 -0.00333006 -0.00348565 -0.00362962 -0.00376197 -0.00388269 -0.00399179 -0.00408927 -0.00417447 -0.00424674 -0.00430609 -0.00435251 -0.004386 -0.00440657 -0.00441421 -0.00440892 -0.00439341 -0.00437037 -0.00433981 -0.00430172 -0.0042561 -0.00420296 -0.00414229 -0.0040741 -0.00400275 -0.0039326 -0.00386365 -0.0037959 -0.00372936 -0.00366401 -0.00359987 -0.00353694 -0.0034785 -0.00342785 -0.00338499 -0.00334993 -0.00332265 -0.00330317 -0.00329149 -0.00328759 -0.00329149 -0.00330317 -0.00332265 -0.00334993 -0.00338499 -0.00342785 -0.0034785 -0.00353694 -0.00359987 -0.00366401 -0.00372936 -0.0037959 -0.00386365 -0.0039326 -0.00400275 -0.0040741 -0.00414229 -0.00420296 -0.0042561 -0.00430172 -0.00433981 -0.00437037 -0.00439341 -0.00440892 -0.00441421 -0.00440657 -0.004386 -0.00435251 -0.00430609 -0.00424674 -0.00417447 -0.00408927 -0.00399179 -0.00388269 -0.00376197 -0.00362962 -0.00348565 -0.00333006 -0.00316284 -0.002984 -0.00279849 -0.00261125 -0.00242229 -0.00223161 -0.00203921 -0.00184508 -0.00164923 -0.00145166 -0.00126049 -0.00108384 -0.000921715 -0.000774116 -0.000641041 -0.00052249 -0.000418464 -0.000328961 -0.000251861 -0.000185041 -0.000128501 -8.22403e-05 -4.62602e-05 -2.05601e-05 -5.14002e-06 0 0 -6.42152e-06 -2.56861e-05 -5.77937e-05 -0.000102744 -0.000160538 -0.000231175 -0.000314655 -0.000410977 -0.00052249 -0.000651539 -0.000798124 -0.000962246 -0.0011439 -0.0013431 -0.00155983 -0.0017941 -0.00203563 -0.00227415 -0.00250965 -0.00274215 -0.00297163 -0.0031981 -0.00342156 -0.00364201 -0.00385322 -0.00404897 -0.00422925 -0.00439407 -0.00454342 -0.00467731 -0.00479574 -0.00489871 -0.00498551 -0.00505546 -0.00510856 -0.0051448 -0.00516418 -0.00516672 -0.0051524 -0.00512122 -0.00507696 -0.00502336 -0.00496044 -0.00488819 -0.00480661 -0.0047157 -0.00461547 -0.0045059 -0.004393 -0.00428273 -0.0041751 -0.0040701 -0.00396775 -0.00386803 -0.00377095 -0.00367651 -0.00358921 -0.00351355 -0.00344953 -0.00339715 -0.00335641 -0.00332731 -0.00330985 -0.00330403 -0.00330985 -0.00332731 -0.00335641 -0.00339715 -0.00344953 -0.00351355 -0.00358921 -0.00367651 -0.00377095 -0.00386803 -0.00396775 -0.0040701 -0.00417509 -0.00428273 -0.004393 -0.0045059 -0.00461547 -0.0047157 -0.00480661 -0.00488819 -0.00496044 -0.00502336 -0.00507696 -0.00512122 -0.0051524 -0.00516672 -0.00516418 -0.0051448 -0.00510856 -0.00505546 -0.00498551 -0.00489871 -0.00479574 -0.00467732 -0.00454342 -0.00439407 -0.00422925 -0.00404897 -0.00385322 -0.00364201 -0.00342156 -0.0031981 -0.00297163 -0.00274215 -0.00250965 -0.00227415 -0.00203563 -0.0017941 -0.00155983 -0.0013431 -0.00114391 -0.000962247 -0.000798125 -0.000651539 -0.00052249 -0.000410978 -0.000314655 -0.000231175 -0.000160538 -0.000102744 -5.77937e-05 -2.56861e-05 -6.42153e-06 0 0 -7.8841e-06 -3.15364e-05 -7.09569e-05 -0.000126146 -0.000197102 -0.000283828 -0.000386321 -0.000504582 -0.000641041 -0.000798124 -0.000975833 -0.00117417 -0.00139313 -0.00163271 -0.00189292 -0.00217376 -0.00246242 -0.00274611 -0.00302482 -0.00329855 -0.00356731 -0.0038311 -0.00408991 -0.00434374 -0.0045849 -0.00480566 -0.00500604 -0.00518603 -0.00534564 -0.00548486 -0.00560369 -0.00570213 -0.00577951 -0.00583515 -0.00586905 -0.00588122 -0.00587164 -0.00584032 -0.00578726 -0.00571246 -0.00562112 -0.00551844 -0.00540441 -0.00527904 -0.00514233 -0.00499427 -0.00483487 -0.00466412 -0.00449017 -0.00432115 -0.00415705 -0.00399789 -0.00384365 -0.00369434 -0.00354996 -0.00341051 -0.00328209 -0.00317078 -0.00307661 -0.00299955 -0.00293962 -0.00289681 -0.00287112 -0.00286256 -0.00287112 -0.00289681 -0.00293962 -0.00299955 -0.00307661 -0.00317078 -0.00328209 -0.00341051 -0.00354996 -0.00369434 -0.00384365 -0.00399789 -0.00415705 -0.00432115 -0.00449017 -0.00466412 -0.00483487 -0.00499427 -0.00514232 -0.00527904 -0.00540441 -0.00551844 -0.00562112 -0.00571246 -0.00578726 -0.00584032 -0.00587164 -0.00588122 -0.00586905 -0.00583515 -0.00577951 -0.00570213 -0.00560369 -0.00548486 -0.00534564 -0.00518603 -0.00500604 -0.00480566 -0.0045849 -0.00434374 -0.00408991 -0.0038311 -0.00356732 -0.00329856 -0.00302482 -0.00274611 -0.00246242 -0.00217376 -0.00189293 -0.00163271 -0.00139313 -0.00117417 -0.000975834 -0.000798125 -0.000641041 -0.000504583 -0.000386321 -0.000283828 -0.000197103 -0.000126146 -7.0957e-05 -3.15364e-05 -7.88411e-06 0 0 -9.52775e-06 -3.8111e-05 -8.57497e-05 -0.000152444 -0.000238194 -0.000342999 -0.00046686 -0.000609776 -0.000774115 -0.000962246 -0.00117417 -0.00140988 -0.00166939 -0.00195268 -0.00225977 -0.00259064 -0.00292961 -0.00326096 -0.0035847 -0.00390083 -0.00420934 -0.00451024 -0.00480352 -0.0050892 -0.00535786 -0.00560014 -0.00581602 -0.00600551 -0.00616861 -0.00630532 -0.00641563 -0.00649955 -0.00655648 -0.00658582 -0.00658759 -0.00656177 -0.00650836 -0.00642737 -0.0063188 -0.00618264 -0.0060259 -0.0058556 -0.00567172 -0.00547427 -0.00526325 -0.00503866 -0.00480049 -0.00454876 -0.00429428 -0.00404786 -0.00380953 -0.00357926 -0.00335707 -0.00314295 -0.0029369 -0.00273893 -0.00255711 -0.00239954 -0.00226621 -0.00215712 -0.00207227 -0.00201167 -0.0019753 -0.00196318 -0.0019753 -0.00201167 -0.00207227 -0.00215712 -0.00226621 -0.00239954 -0.00255711 -0.00273893 -0.0029369 -0.00314295 -0.00335707 -0.00357926 -0.00380953 -0.00404786 -0.00429427 -0.00454876 -0.00480049 -0.00503866 -0.00526325 -0.00547427 -0.00567172 -0.0058556 -0.0060259 -0.00618264 -0.0063188 -0.00642737 -0.00650836 -0.00656177 -0.00658759 -0.00658582 -0.00655648 -0.00649955 -0.00641563 -0.00630532 -0.00616861 -0.00600551 -0.00581602 -0.00560014 -0.00535787 -0.0050892 -0.00480353 -0.00451024 -0.00420934 -0.00390083 -0.0035847 -0.00326097 -0.00292961 -0.00259065 -0.00225977 -0.00195268 -0.00166939 -0.00140988 -0.00117417 -0.000962247 -0.000774116 -0.000609776 -0.00046686 -0.000342999 -0.000238194 -0.000152444 -8.57498e-05 -3.8111e-05 -9.52776e-06 0 0 -1.13525e-05 -4.54099e-05 -0.000102172 -0.000181639 -0.000283812 -0.000408689 -0.000556271 -0.000726558 -0.000921714 -0.0011439 -0.00139313 -0.00166938 -0.00197268 -0.002303 -0.00266036 -0.00304475 -0.0034372 -0.00381871 -0.00418931 -0.00454897 -0.00489771 -0.00523553 -0.00556241 -0.00587837 -0.00617213 -0.0064324 -0.0066592 -0.00685251 -0.00701234 -0.00713869 -0.00723156 -0.00729095 -0.00731641 -0.00730747 -0.00726415 -0.00718645 -0.00707435 -0.00692787 -0.00674701 -0.00653175 -0.0062913 -0.00603484 -0.00576236 -0.00547388 -0.00516938 -0.00484887 -0.00451234 -0.00415981 -0.00380531 -0.00346287 -0.00313251 -0.00281422 -0.002508 -0.00221385 -0.00193178 -0.00166177 -0.0014143 -0.00119982 -0.00101834 -0.00086986 -0.000754373 -0.000671882 -0.000622388 -0.00060589 -0.000622388 -0.000671882 -0.000754373 -0.00086986 -0.00101834 -0.00119982 -0.0014143 -0.00166177 -0.00193178 -0.00221385 -0.002508 -0.00281422 -0.00313251 -0.00346287 -0.00380531 -0.00415981 -0.00451234 -0.00484887 -0.00516938 -0.00547388 -0.00576236 -0.00603484 -0.0062913 -0.00653175 -0.00674701 -0.00692787 -0.00707435 -0.00718645 -0.00726415 -0.00730747 -0.00731641 -0.00729095 -0.00723156 -0.00713869 -0.00701234 -0.00685251 -0.0066592 -0.0064324 -0.00617213 -0.00587837 -0.00556241 -0.00523553 -0.00489771 -0.00454897 -0.00418931 -0.00381872 -0.0034372 -0.00304475 -0.00266036 -0.002303 -0.00197268 -0.00166939 -0.00139313 -0.00114391 -0.000921715 -0.000726559 -0.000556272 -0.000408689 -0.000283812 -0.00018164 -0.000102172 -4.54099e-05 -1.13525e-05 0 0 -1.33583e-05 -5.3433e-05 -0.000120224 -0.000213732 -0.000333957 -0.000480897 -0.000654555 -0.000854929 -0.00108384 -0.0013431 -0.00163271 -0.00195268 -0.002303 -0.00268367 -0.0030947 -0.00353608 -0.00398518 -0.00441936 -0.00483863 -0.00524298 -0.00563243 -0.00600696 -0.00636657 -0.00671127 -0.00702769 -0.00730245 -0.00753556 -0.00772702 -0.00787683 -0.00798499 -0.00805149 -0.00807634 -0.00805929 -0.0080001 -0.00789875 -0.00775526 -0.00756962 -0.00734183 -0.0070719 -0.00675981 -0.00641732 -0.00605617 -0.00567635 -0.00527786 -0.00486071 -0.0044249 -0.00397042 -0.00349728 -0.00302326 -0.00256617 -0.00212601 -0.00170277 -0.00129645 -0.000907051 -0.00053458 -0.000179031 0.000146362 0.00042837 0.000666992 0.000862228 0.00101408 0.00112254 0.00118762 0.00120931 0.00118762 0.00112254 0.00101408 0.000862228 0.000666992 0.00042837 0.000146362 -0.000179031 -0.000534579 -0.000907051 -0.00129645 -0.00170277 -0.00212601 -0.00256617 -0.00302326 -0.00349728 -0.00397042 -0.0044249 -0.00486071 -0.00527786 -0.00567635 -0.00605617 -0.00641732 -0.00675981 -0.0070719 -0.00734183 -0.00756962 -0.00775526 -0.00789875 -0.0080001 -0.0080593 -0.00807634 -0.00805149 -0.00798499 -0.00787683 -0.00772703 -0.00753556 -0.00730245 -0.00702769 -0.00671127 -0.00636657 -0.00600696 -0.00563243 -0.00524299 -0.00483863 -0.00441936 -0.00398518 -0.00353608 -0.0030947 -0.00268367 -0.002303 -0.00195268 -0.00163271 -0.0013431 -0.00108384 -0.00085493 -0.000654555 -0.000480898 -0.000333957 -0.000213732 -0.000120224 -5.34331e-05 -1.33583e-05 0 0 -1.55451e-05 -6.21805e-05 -0.000139906 -0.000248722 -0.000388628 -0.000559625 -0.000761711 -0.000994888 -0.00126048 -0.00155983 -0.00189292 -0.00225977 -0.00266036 -0.0030947 -0.00356279 -0.00406463 -0.00457355 -0.0050629 -0.00553267 -0.00598287 -0.00641349 -0.00682453 -0.007216 -0.00758789 -0.00792454 -0.00821028 -0.00844512 -0.00862905 -0.00876208 -0.0088442 -0.00887542 -0.00885572 -0.00878515 -0.0086637 -0.00849139 -0.00826821 -0.00799416 -0.00766924 -0.00729346 -0.00686681 -0.00640396 -0.00591958 -0.00541367 -0.00488623 -0.00433725 -0.00376675 -0.00317472 -0.00256116 -0.00194815 -0.00135777 -0.000790018 -0.000244897 0.000277594 0.000777455 0.00125469 0.00170929 0.00212487 0.00248504 0.0027898 0.00303914 0.00323308 0.00337161 0.00345472 0.00348243 0.00345472 0.00337161 0.00323308 0.00303914 0.0027898 0.00248504 0.00212487 0.00170929 0.00125469 0.000777455 0.000277594 -0.000244897 -0.000790018 -0.00135777 -0.00194815 -0.00256116 -0.00317472 -0.00376675 -0.00433725 -0.00488622 -0.00541367 -0.00591958 -0.00640396 -0.00686681 -0.00729346 -0.00766924 -0.00799416 -0.00826821 -0.00849139 -0.0086637 -0.00878515 -0.00885573 -0.00887542 -0.0088442 -0.00876208 -0.00862906 -0.00844512 -0.00821028 -0.00792454 -0.00758789 -0.007216 -0.00682453 -0.00641349 -0.00598287 -0.00553267 -0.0050629 -0.00457355 -0.00406463 -0.00356279 -0.0030947 -0.00266036 -0.00225977 -0.00189293 -0.00155983 -0.00126049 -0.000994889 -0.000761712 -0.000559625 -0.000388629 -0.000248722 -0.000139906 -6.21806e-05 -1.55451e-05 0 0 -1.79131e-05 -7.16523e-05 -0.000161218 -0.000286609 -0.000447827 -0.00064487 -0.00087774 -0.00114644 -0.00145166 -0.0017941 -0.00217376 -0.00259064 -0.00304475 -0.00353608 -0.00406463 -0.0046304 -0.00520232 -0.00574933 -0.00627143 -0.00676862 -0.00724089 -0.00768825 -0.00811069 -0.00850823 -0.00886269 -0.0091559 -0.00938787 -0.0095586 -0.00966809 -0.00971633 -0.00970333 -0.00962909 -0.00949396 -0.00929828 -0.00904206 -0.00872528 -0.00834797 -0.0079101 -0.0074117 -0.00685274 -0.00625121 -0.00562507 -0.00497432 -0.00429897 -0.003599 -0.00287443 -0.00212525 -0.00135146 -0.000579964 0.000162343 0.00087546 0.00155939 0.00221412 0.00283967 0.00343602 0.00400318 0.00452122 0.00497018 0.00535007 0.00566089 0.00590264 0.00607531 0.00617892 0.00621346 0.00617892 0.00607532 0.00590264 0.00566089 0.00535007 0.00497018 0.00452122 0.00400318 0.00343602 0.00283967 0.00221412 0.00155939 0.00087546 0.000162344 -0.000579963 -0.00135146 -0.00212525 -0.00287443 -0.003599 -0.00429897 -0.00497432 -0.00562507 -0.00625121 -0.00685274 -0.0074117 -0.0079101 -0.00834797 -0.00872528 -0.00904206 -0.00929828 -0.00949396 -0.0096291 -0.00970334 -0.00971633 -0.00966809 -0.0095586 -0.00938787 -0.0091559 -0.00886269 -0.00850823 -0.0081107 -0.00768825 -0.00724089 -0.00676862 -0.00627143 -0.00574933 -0.00520232 -0.0046304 -0.00406463 -0.00353608 -0.00304475 -0.00259065 -0.00217376 -0.0017941 -0.00145166 -0.00114644 -0.000877741 -0.000644871 -0.000447827 -0.000286609 -0.000161218 -7.16523e-05 -1.79131e-05 0 0 -2.03629e-05 -8.14515e-05 -0.000183266 -0.000325806 -0.000509072 -0.000733064 -0.000997781 -0.00130322 -0.00164923 -0.00203563 -0.00246242 -0.00292961 -0.0034372 -0.00398517 -0.00457355 -0.00520232 -0.0058356 -0.0064375 -0.00700802 -0.00754716 -0.00805492 -0.0085313 -0.0089763 -0.00938992 -0.00975128 -0.0100395 -0.0102545 -0.0103964 -0.0104651 -0.0104607 -0.0103831 -0.0102324 -0.0100093 -0.00971478 -0.0093487 -0.00891112 -0.00840204 -0.00782144 -0.00716935 -0.00644574 -0.00567251 -0.0048715 -0.00404273 -0.0031862 -0.00230189 -0.00138983 -0.000449993 0.000517607 0.00148045 0.002406 0.00329426 0.00414523 0.00495892 0.00573532 0.00647442 0.00717625 0.00781672 0.0083718 0.00884149 0.00922578 0.00952467 0.00973816 0.00986625 0.00990895 0.00986625 0.00973816 0.00952467 0.00922578 0.00884149 0.0083718 0.00781672 0.00717625 0.00647442 0.00573532 0.00495892 0.00414523 0.00329426 0.002406 0.00148045 0.000517607 -0.000449992 -0.00138983 -0.00230189 -0.0031862 -0.00404273 -0.0048715 -0.00567251 -0.00644574 -0.00716935 -0.00782144 -0.00840204 -0.00891112 -0.0093487 -0.00971478 -0.0100093 -0.0102324 -0.0103831 -0.0104607 -0.0104651 -0.0103964 -0.0102545 -0.0100395 -0.00975128 -0.00938993 -0.0089763 -0.0085313 -0.00805492 -0.00754716 -0.00700802 -0.0064375 -0.0058356 -0.00520232 -0.00457355 -0.00398518 -0.0034372 -0.00292961 -0.00246242 -0.00203563 -0.00164923 -0.00130323 -0.000997782 -0.000733065 -0.000509073 -0.000325806 -0.000183266 -8.14516e-05 -2.03629e-05 0 0 -2.27954e-05 -9.11815e-05 -0.000205158 -0.000364726 -0.000569885 -0.000820634 -0.00111697 -0.0014589 -0.00184508 -0.00227415 -0.00274611 -0.00326096 -0.00381871 -0.00441936 -0.0050629 -0.00574933 -0.0064375 -0.00708623 -0.00769554 -0.00826541 -0.00879586 -0.00928687 -0.00973846 -0.0101506 -0.0104995 -0.0107612 -0.0109358 -0.0110232 -0.0110236 -0.0109367 -0.0107627 -0.0105016 -0.0101549 -0.00972413 -0.00920928 -0.00861035 -0.00792735 -0.00716029 -0.00630915 -0.00537395 -0.00438127 -0.00335772 -0.00230331 -0.00121802 -0.000101865 0.00104516 0.00222306 0.00343183 0.00463223 0.00578502 0.00689021 0.00794779 0.00895777 0.00992014 0.0108349 0.0117021 0.0124927 0.0131779 0.0137577 0.0142321 0.0146011 0.0148646 0.0150228 0.0150755 0.0150228 0.0148646 0.0146011 0.0142321 0.0137577 0.0131779 0.0124927 0.0117021 0.0108349 0.00992014 0.00895777 0.00794779 0.00689021 0.00578502 0.00463223 0.00343183 0.00222306 0.00104516 -0.000101864 -0.00121802 -0.00230331 -0.00335772 -0.00438127 -0.00537395 -0.00630915 -0.00716029 -0.00792735 -0.00861035 -0.00920928 -0.00972413 -0.0101549 -0.0105016 -0.0107628 -0.0109367 -0.0110236 -0.0110232 -0.0109358 -0.0107612 -0.0104995 -0.0101506 -0.00973846 -0.00928687 -0.00879586 -0.00826541 -0.00769554 -0.00708623 -0.0064375 -0.00574933 -0.0050629 -0.00441936 -0.00381872 -0.00326097 -0.00274611 -0.00227415 -0.00184508 -0.00145891 -0.00111697 -0.000820635 -0.000569885 -0.000364726 -0.000205159 -9.11816e-05 -2.27954e-05 0 0 -2.52106e-05 -0.000100842 -0.000226895 -0.000403369 -0.000630264 -0.00090758 -0.00123532 -0.00161348 -0.0020392 -0.00250965 -0.00302482 -0.0035847 -0.00418931 -0.00483863 -0.00553267 -0.00627143 -0.00700802 -0.00769554 -0.00833399 -0.00892338 -0.00946371 -0.00995496 -0.0103972 -0.0107903 -0.0111073 -0.0113211 -0.0114317 -0.0114391 -0.0113433 -0.0111443 -0.0108421 -0.0104368 -0.00993068 -0.00932635 -0.00862378 -0.00782297 -0.00692392 -0.00592663 -0.00483111 -0.00363735 -0.0023775 -0.00108374 0.000243949 0.00160556 0.00300109 0.00443054 0.00589391 0.0073912 0.00887538 0.0102994 0.0116633 0.0129671 0.0142107 0.0153941 0.0165174 0.0175806 0.0185491 0.0193885 0.0200988 0.0206799 0.0211319 0.0214547 0.0216484 0.021713 0.0216484 0.0214547 0.0211319 0.0206799 0.0200988 0.0193885 0.0185491 0.0175806 0.0165174 0.0153941 0.0142107 0.0129671 0.0116633 0.0102994 0.00887538 0.0073912 0.00589391 0.00443054 0.00300109 0.00160556 0.00024395 -0.00108374 -0.0023775 -0.00363735 -0.00483111 -0.00592663 -0.00692392 -0.00782297 -0.00862378 -0.00932635 -0.00993068 -0.0104368 -0.0108421 -0.0111443 -0.0113433 -0.0114391 -0.0114317 -0.0113211 -0.0111073 -0.0107903 -0.0103972 -0.00995497 -0.00946371 -0.00892338 -0.008334 -0.00769554 -0.00700802 -0.00627143 -0.00553267 -0.00483863 -0.00418931 -0.00358471 -0.00302482 -0.00250965 -0.00203921 -0.00161348 -0.00123532 -0.000907581 -0.000630265 -0.000403369 -0.000226895 -0.000100842 -2.52106e-05 0 0 -2.76084e-05 -0.000110434 -0.000248476 -0.000441735 -0.000690211 -0.000993904 -0.00135281 -0.00176694 -0.00223161 -0.00274215 -0.003