<?xml version="1.0"?> 
<VTKFile type="StructuredGrid" version="0.1"> 
<StructuredGrid WholeExtent="0 128 0 128 0 0"> 
<Piece Extent="0 128 0 128 0 0"> 
<PointData>
<DataArray type="Float32" Name="u" format="ascii" NumberOfComponents="1"> 
0 0 0 0 0 0 0 0 0 0 0 0 0 0 0 0 0 0 0 0 0 0 0 0 0 0 0 0 0 0 0 0 0 0 0 0 0 0 0 0 0 0 0 0 0 0 0 0 0 0 0 0 0 0 0 0 0 0 0 0 0 0 0 0 0 0 0 0 0 0 0 0 0 0 0 0 0 0 0 0 0 0 0 0 0 0 0 0 0 0 0 0 0 0 0 0 0 0 0 0 0 0 0 0 0 0 0 0 0 0 0 0 0 0 0 0 0 0 0 0 0 0 0 0 0 0 0 0 0 0 -6.35907e-08 -2.54363e-07 -5.72316e-07 -1.01745e-06 -1.58977e-06 -2.28926e-06 -3.11594e-06 -4.0698e-06 -5.1754e-06 -6.45728e-06 -7.91546e-06 -9.54993e-06 -1.13607e-05 -1.33477e-05 -1.55111e-05 -1.78507e-05 -2.02636e-05 -2.26465e-05 -2.49997e-05 -2.73229e-05 -2.96163e-05 -3.18798e-05 -3.41135e-05 -3.63172e-05 -3.84269e-05 -4.03781e-05 -4.21709e-05 -4.38053e-05 -4.52812e-05 -4.65987e-05 -4.77578e-05 -4.87585e-05 -4.95911e-05 -5.02459e-05 -5.07229e-05 -5.10222e-05 -5.11438e-05 -5.10876e-05 -5.08536e-05 -5.04419e-05 -4.98906e-05 -4.92381e-05 -4.84843e-05 -4.76293e-05 -4.6673e-05 -4.56154e-05 -4.44565e-05 -4.31964e-05 -4.19009e-05 -4.06357e-05 -3.9401e-05 -3.81967e-05 -3.70228e-05 -3.58793e-05 -3.47662e-05 -3.36836e-05 -3.26828e-05 -3.18155e-05 -3.10817e-05 -3.04812e-05 -3.00142e-05 -2.96806e-05 -2.94805e-05 -2.94137e-05 -2.94805e-05 -2.96806e-05 -3.00142e-05 -3.04812e-05 -3.10816e-05 -3.18155e-05 -3.26828e-05 -3.36836e-05 -3.47662e-05 -3.58793e-05 -3.70228e-05 -3.81967e-05 -3.9401e-05 -4.06357e-05 -4.19009e-05 -4.31964e-05 -4.44565e-05 -4.56154e-05 -4.66729e-05 -4.76293e-05 -4.84843e-05 -4.92381e-05 -4.98906e-05 -5.04419e-05 -5.08536e-05 -5.10876e-05 -5.11438e-05 -5.10222e-05 -5.07229e-05 -5.02459e-05 -4.95911e-05 -4.87585e-05 -4.77578e-05 -4.65987e-05 -4.52812e-05 -4.38053e-05 -4.21709e-05 -4.03781e-05 -3.84269e-05 -3.63173e-05 -3.41135e-05 -3.18798e-05 -2.96163e-05 -2.73229e-05 -2.49997e-05 -2.26465e-05 -2.02636e-05 -1.78507e-05 -1.55111e-05 -1.33477e-05 -1.13607e-05 -9.54994e-06 -7.91547e-06 -6.45729e-06 -5.1754e-06 -4.06981e-06 -3.11595e-06 -2.28927e-06 -1.58977e-06 -1.01745e-06 -5.72317e-07 -2.54363e-07 -6.35907e-08 0 0 -2.54363e-07 -1.01745e-06 -2.28926e-06 -4.0698e-06 -6.35907e-06 -9.15705e-06 -1.24638e-05 -1.62792e-05 -2.07016e-05 -2.58291e-05 -3.16619e-05 -3.81997e-05 -4.54428e-05 -5.3391e-05 -6.20443e-05 -7.14029e-05 -8.10542e-05 -9.05862e-05 -9.99986e-05 -0.000109292 -0.000118465 -0.000127519 -0.000136454 -0.000145269 -0.000153708 -0.000161512 -0.000168684 -0.000175221 -0.000181125 -0.000186395 -0.000191031 -0.000195034 -0.000198364 -0.000200984 -0.000202892 -0.000204089 -0.000204575 -0.00020435 -0.000203414 -0.000201767 -0.000199562 -0.000196952 -0.000193937 -0.000190517 -0.000186692 -0.000182461 -0.000177826 -0.000172786 -0.000167603 -0.000162543 -0.000157604 -0.000152787 -0.000148091 -0.000143517 -0.000139065 -0.000134734 -0.000130731 -0.000127262 -0.000124327 -0.000121925 -0.000120057 -0.000118722 -0.000117922 -0.000117655 -0.000117922 -0.000118722 -0.000120057 -0.000121925 -0.000124327 -0.000127262 -0.000130731 -0.000134734 -0.000139065 -0.000143517 -0.000148091 -0.000152787 -0.000157604 -0.000162543 -0.000167603 -0.000172786 -0.000177826 -0.000182461 -0.000186692 -0.000190517 -0.000193937 -0.000196952 -0.000199562 -0.000201767 -0.000203414 -0.00020435 -0.000204575 -0.000204089 -0.000202892 -0.000200984 -0.000198364 -0.000195034 -0.000191031 -0.000186395 -0.000181125 -0.000175221 -0.000168684 -0.000161512 -0.000153708 -0.000145269 -0.000136454 -0.000127519 -0.000118465 -0.000109292 -9.99986e-05 -9.05862e-05 -8.10543e-05 -7.14029e-05 -6.20444e-05 -5.3391e-05 -4.54428e-05 -3.81998e-05 -3.16619e-05 -2.58292e-05 -2.07016e-05 -1.62792e-05 -1.24638e-05 -9.15706e-06 -6.35907e-06 -4.06981e-06 -2.28927e-06 -1.01745e-06 -2.54363e-07 0 0 -5.72316e-07 -2.28926e-06 -5.15084e-06 -9.15705e-06 -1.43079e-05 -2.06034e-05 -2.80435e-05 -3.66282e-05 -4.65786e-05 -5.81156e-05 -7.12392e-05 -8.59494e-05 -0.000102246 -0.00012013 -0.0001396 -0.000160656 -0.000182372 -0.000203819 -0.000224997 -0.000245906 -0.000266547 -0.000286918 -0.000307021 -0.000326855 -0.000345842 -0.000363403 -0.000379538 -0.000394247 -0.000407531 -0.000419389 -0.00042982 -0.000438826 -0.00044632 -0.000452213 -0.000456506 -0.0004592 -0.000460294 -0.000459788 -0.000457682 -0.000453977 -0.000449015 -0.000443143 -0.000436359 -0.000428663 -0.000420057 -0.000410538 -0.000400109 -0.000388768 -0.000377108 -0.000365722 -0.000354609 -0.00034377 -0.000333205 -0.000322914 -0.000312896 -0.000303152 -0.000294146 -0.00028634 -0.000279735 -0.000274331 -0.000270128 -0.000267125 -0.000265324 -0.000264724 -0.000265324 -0.000267125 -0.000270128 -0.000274331 -0.000279735 -0.00028634 -0.000294146 -0.000303152 -0.000312896 -0.000322914 -0.000333205 -0.00034377 -0.000354609 -0.000365722 -0.000377108 -0.000388768 -0.000400109 -0.000410538 -0.000420057 -0.000428663 -0.000436359 -0.000443143 -0.000449015 -0.000453977 -0.000457682 -0.000459788 -0.000460294 -0.0004592 -0.000456506 -0.000452213 -0.00044632 -0.000438826 -0.00042982 -0.000419389 -0.000407531 -0.000394247 -0.000379538 -0.000363403 -0.000345842 -0.000326855 -0.000307021 -0.000286918 -0.000266547 -0.000245906 -0.000224997 -0.000203819 -0.000182372 -0.000160657 -0.0001396 -0.00012013 -0.000102246 -8.59494e-05 -7.12392e-05 -5.81156e-05 -4.65786e-05 -3.66283e-05 -2.80435e-05 -2.06034e-05 -1.43079e-05 -9.15706e-06 -5.15085e-06 -2.28927e-06 -5.72317e-07 0 0 -1.01745e-06 -4.0698e-06 -9.15705e-06 -1.62792e-05 -2.54363e-05 -3.66282e-05 -4.98551e-05 -6.51168e-05 -8.28064e-05 -0.000103317 -0.000126647 -0.000152799 -0.000181771 -0.000213564 -0.000248177 -0.000285611 -0.000324217 -0.000362345 -0.000399994 -0.000437166 -0.000473861 -0.000510077 -0.000545815 -0.000581076 -0.00061483 -0.00064605 -0.000674734 -0.000700884 -0.000724499 -0.00074558 -0.000764125 -0.000780136 -0.000793457 -0.000803934 -0.000811567 -0.000816356 -0.0008183 -0.000817401 -0.000813657 -0.00080707 -0.00079825 -0.000787809 -0.000775749 -0.000762068 -0.000746767 -0.000729846 -0.000711304 -0.000691143 -0.000670414 -0.000650172 -0.000630416 -0.000611147 -0.000592365 -0.000574069 -0.00055626 -0.000538937 -0.000522925 -0.000509048 -0.000497306 -0.000487699 -0.000480227 -0.00047489 -0.000471687 -0.00047062 -0.000471687 -0.00047489 -0.000480227 -0.000487699 -0.000497306 -0.000509048 -0.000522925 -0.000538937 -0.00055626 -0.000574069 -0.000592365 -0.000611147 -0.000630416 -0.000650172 -0.000670414 -0.000691143 -0.000711304 -0.000729846 -0.000746767 -0.000762068 -0.000775749 -0.000787809 -0.00079825 -0.00080707 -0.000813657 -0.000817401 -0.0008183 -0.000816356 -0.000811567 -0.000803934 -0.000793457 -0.000780136 -0.000764125 -0.00074558 -0.000724499 -0.000700884 -0.000674734 -0.00064605 -0.00061483 -0.000581076 -0.000545815 -0.000510077 -0.000473861 -0.000437167 -0.000399995 -0.000362345 -0.000324217 -0.000285612 -0.000248177 -0.000213564 -0.000181771 -0.000152799 -0.000126648 -0.000103317 -8.28065e-05 -6.51169e-05 -4.98551e-05 -3.66283e-05 -2.54363e-05 -1.62792e-05 -9.15706e-06 -4.06981e-06 -1.01745e-06 0 0 -1.58977e-06 -6.35907e-06 -1.43079e-05 -2.54363e-05 -3.97442e-05 -5.72316e-05 -7.78986e-05 -0.000101745 -0.000129385 -0.000161432 -0.000197887 -0.000238748 -0.000284017 -0.000333694 -0.000387777 -0.000446268 -0.000506589 -0.000566163 -0.000624991 -0.000683073 -0.000740407 -0.000796995 -0.000852836 -0.000907931 -0.000960672 -0.00100945 -0.00105427 -0.00109513 -0.00113203 -0.00116497 -0.00119395 -0.00121896 -0.00123978 -0.00125615 -0.00126807 -0.00127556 -0.00127859 -0.00127719 -0.00127134 -0.00126105 -0.00124727 -0.00123095 -0.00121211 -0.00119073 -0.00116682 -0.00114038 -0.00111141 -0.00107991 -0.00104752 -0.00101589 -0.000985025 -0.000954918 -0.00092557 -0.000896983 -0.000869156 -0.00084209 -0.000817071 -0.000795388 -0.000777041 -0.00076203 -0.000750355 -0.000742015 -0.000737012 -0.000735344 -0.000737012 -0.000742015 -0.000750355 -0.00076203 -0.000777041 -0.000795388 -0.000817071 -0.00084209 -0.000869156 -0.000896983 -0.00092557 -0.000954918 -0.000985025 -0.00101589 -0.00104752 -0.00107991 -0.00111141 -0.00114038 -0.00116682 -0.00119073 -0.00121211 -0.00123095 -0.00124727 -0.00126105 -0.00127134 -0.00127719 -0.00127859 -0.00127556 -0.00126807 -0.00125615 -0.00123978 -0.00121896 -0.00119395 -0.00116497 -0.00113203 -0.00109513 -0.00105427 -0.00100945 -0.000960672 -0.000907931 -0.000852837 -0.000796995 -0.000740407 -0.000683073 -0.000624992 -0.000566164 -0.000506589 -0.000446268 -0.000387777 -0.000333694 -0.000284017 -0.000238748 -0.000197887 -0.000161432 -0.000129385 -0.000101745 -7.78986e-05 -5.72317e-05 -3.97442e-05 -2.54363e-05 -1.43079e-05 -6.35907e-06 -1.58977e-06 0 0 -2.28926e-06 -9.15705e-06 -2.06034e-05 -3.66282e-05 -5.72316e-05 -8.24135e-05 -0.000112174 -0.000146513 -0.000186314 -0.000232462 -0.000284957 -0.000343798 -0.000408985 -0.000480519 -0.000558399 -0.000642626 -0.000729488 -0.000815275 -0.000899987 -0.000983624 -0.00106619 -0.00114767 -0.00122808 -0.00130742 -0.00138337 -0.00145361 -0.00151815 -0.00157699 -0.00163012 -0.00167755 -0.00171928 -0.00175531 -0.00178528 -0.00180885 -0.00182603 -0.0018368 -0.00184118 -0.00183915 -0.00183073 -0.00181591 -0.00179606 -0.00177257 -0.00174544 -0.00171465 -0.00168023 -0.00164215 -0.00160043 -0.00155507 -0.00150843 -0.00146289 -0.00141844 -0.00137508 -0.00133282 -0.00129166 -0.00125158 -0.00121261 -0.00117658 -0.00114536 -0.00111894 -0.00109732 -0.00108051 -0.0010685 -0.0010613 -0.00105889 -0.0010613 -0.0010685 -0.00108051 -0.00109732 -0.00111894 -0.00114536 -0.00117658 -0.00121261 -0.00125158 -0.00129166 -0.00133282 -0.00137508 -0.00141844 -0.00146289 -0.00150843 -0.00155507 -0.00160043 -0.00164215 -0.00168023 -0.00171465 -0.00174544 -0.00177257 -0.00179606 -0.00181591 -0.00183073 -0.00183915 -0.00184118 -0.0018368 -0.00182603 -0.00180885 -0.00178528 -0.00175531 -0.00171928 -0.00167755 -0.00163012 -0.00157699 -0.00151815 -0.00145361 -0.00138337 -0.00130742 -0.00122808 -0.00114767 -0.00106619 -0.000983625 -0.000899988 -0.000815276 -0.000729488 -0.000642626 -0.000558399 -0.000480519 -0.000408985 -0.000343798 -0.000284957 -0.000232462 -0.000186315 -0.000146513 -0.000112174 -8.24136e-05 -5.72317e-05 -3.66283e-05 -2.06034e-05 -9.15706e-06 -2.28927e-06 0 0 -3.11594e-06 -1.24638e-05 -2.80435e-05 -4.98551e-05 -7.78986e-05 -0.000112174 -0.000152681 -0.00019942 -0.000253595 -0.000316407 -0.000387858 -0.000467947 -0.000556674 -0.000654039 -0.000760043 -0.000874685 -0.000992914 -0.00110968 -0.00122498 -0.00133882 -0.0014512 -0.00156211 -0.00167156 -0.00177954 -0.00188292 -0.00197853 -0.00206637 -0.00214646 -0.00221878 -0.00228334 -0.00234013 -0.00238917 -0.00242996 -0.00246205 -0.00248542 -0.00250009 -0.00250605 -0.00250329 -0.00249183 -0.00247165 -0.00244464 -0.00241267 -0.00237573 -0.00233383 -0.00228697 -0.00223515 -0.00217837 -0.00211662 -0.00205314 -0.00199115 -0.00193065 -0.00187164 -0.00181412 -0.00175809 -0.00170355 -0.0016505 -0.00160146 -0.00155896 -0.001523 -0.00149358 -0.0014707 -0.00145435 -0.00144454 -0.00144127 -0.00144454 -0.00145435 -0.0014707 -0.00149358 -0.001523 -0.00155896 -0.00160146 -0.0016505 -0.00170355 -0.00175809 -0.00181412 -0.00187164 -0.00193065 -0.00199115 -0.00205314 -0.00211662 -0.00217837 -0.00223515 -0.00228697 -0.00233383 -0.00237573 -0.00241267 -0.00244464 -0.00247165 -0.00249183 -0.00250329 -0.00250605 -0.00250009 -0.00248542 -0.00246205 -0.00242996 -0.00238917 -0.00234013 -0.00228334 -0.00221878 -0.00214646 -0.00206637 -0.00197853 -0.00188292 -0.00177955 -0.00167156 -0.00156211 -0.0014512 -0.00133882 -0.00122498 -0.00110968 -0.000992915 -0.000874685 -0.000760043 -0.00065404 -0.000556674 -0.000467947 -0.000387858 -0.000316407 -0.000253595 -0.000199421 -0.000152681 -0.000112174 -7.78986e-05 -4.98551e-05 -2.80435e-05 -1.24638e-05 -3.11595e-06 0 0 -4.0698e-06 -1.62792e-05 -3.66282e-05 -6.51168e-05 -0.000101745 -0.000146513 -0.00019942 -0.000260467 -0.000331225 -0.000413266 -0.00050659 -0.000611196 -0.000727084 -0.000854255 -0.000992709 -0.00114245 -0.00129687 -0.00144938 -0.00159998 -0.00174867 -0.00189544 -0.00204031 -0.00218326 -0.0023243 -0.00245932 -0.0025842 -0.00269894 -0.00280354 -0.002898 -0.00298232 -0.0030565 -0.00312054 -0.00317383 -0.00321574 -0.00324627 -0.00326542 -0.0032732 -0.0032696 -0.00325463 -0.00322828 -0.003193 -0.00315124 -0.003103 -0.00304827 -0.00298707 -0.00291938 -0.00284522 -0.00276457 -0.00268166 -0.00260069 -0.00252167 -0.00244459 -0.00236946 -0.00229628 -0.00222504 -0.00215575 -0.0020917 -0.00203619 -0.00198923 -0.0019508 -0.00192091 -0.00189956 -0.00188675 -0.00188248 -0.00188675 -0.00189956 -0.00192091 -0.0019508 -0.00198923 -0.00203619 -0.0020917 -0.00215575 -0.00222504 -0.00229628 -0.00236946 -0.00244459 -0.00252167 -0.00260069 -0.00268166 -0.00276457 -0.00284522 -0.00291938 -0.00298707 -0.00304827 -0.003103 -0.00315124 -0.003193 -0.00322828 -0.00325463 -0.0032696 -0.0032732 -0.00326542 -0.00324627 -0.00321574 -0.00317383 -0.00312054 -0.0030565 -0.00298232 -0.002898 -0.00280354 -0.00269894 -0.0025842 -0.00245932 -0.0023243 -0.00218326 -0.00204031 -0.00189544 -0.00174867 -0.00159998 -0.00144938 -0.00129687 -0.00114245 -0.00099271 -0.000854256 -0.000727085 -0.000611196 -0.00050659 -0.000413267 -0.000331226 -0.000260468 -0.000199421 -0.000146513 -0.000101745 -6.51169e-05 -3.66283e-05 -1.62792e-05 -4.06981e-06 0 0 -5.1754e-06 -2.07016e-05 -4.65786e-05 -8.28064e-05 -0.000129385 -0.000186314 -0.000253594 -0.000331225 -0.0004211 -0.000525111 -0.000643257 -0.00077554 -0.000921959 -0.00108251 -0.00125721 -0.00144603 -0.00164057 -0.00183237 -0.00202145 -0.00220781 -0.00239144 -0.00257234 -0.00275052 -0.00292597 -0.00309345 -0.00324771 -0.00338876 -0.00351658 -0.00363119 -0.00373259 -0.00382076 -0.00389572 -0.00395671 -0.00400299 -0.00403456 -0.00405142 -0.00405357 -0.00404101 -0.00401373 -0.00397175 -0.0039183 -0.00385664 -0.00378675 -0.00370865 -0.00362233 -0.00352779 -0.00342504 -0.00331406 -0.00320041 -0.00308963 -0.00298171 -0.00287666 -0.00277448 -0.00267516 -0.00257871 -0.00248513 -0.00239874 -0.00232386 -0.00226051 -0.00220868 -0.00216836 -0.00213957 -0.00212229 -0.00211653 -0.00212229 -0.00213957 -0.00216836 -0.00220868 -0.00226051 -0.00232386 -0.00239874 -0.00248513 -0.00257871 -0.00267516 -0.00277448 -0.00287666 -0.00298171 -0.00308963 -0.00320041 -0.00331406 -0.00342504 -0.00352779 -0.00362233 -0.00370865 -0.00378675 -0.00385664 -0.0039183 -0.00397175 -0.00401373 -0.00404101 -0.00405357 -0.00405142 -0.00403456 -0.00400299 -0.00395671 -0.00389572 -0.00382076 -0.00373259 -0.00363119 -0.00351658 -0.00338876 -0.00324771 -0.00309345 -0.00292597 -0.00275052 -0.00257234 -0.00239144 -0.00220781 -0.00202146 -0.00183237 -0.00164057 -0.00144603 -0.00125721 -0.00108252 -0.00092196 -0.000775541 -0.000643258 -0.000525111 -0.0004211 -0.000331226 -0.000253595 -0.000186315 -0.000129385 -8.28065e-05 -4.65786e-05 -2.07016e-05 -5.1754e-06 0 0 -6.45728e-06 -2.58291e-05 -5.81156e-05 -0.000103317 -0.000161432 -0.000232462 -0.000316407 -0.000413266 -0.000525111 -0.00065401 -0.000799966 -0.000962976 -0.00114304 -0.00134016 -0.00155434 -0.00178557 -0.00202323 -0.00225667 -0.00248589 -0.00271091 -0.00293171 -0.00314829 -0.00336066 -0.00356882 -0.00376618 -0.00394616 -0.00410875 -0.00425396 -0.00438179 -0.00449223 -0.00458529 -0.00466096 -0.00471844 -0.00475688 -0.0047763 -0.0047767 -0.00475807 -0.00472042 -0.00466374 -0.00458803 -0.00449772 -0.00439722 -0.00428653 -0.00416565 -0.00403458 -0.00389332 -0.00374188 -0.00358025 -0.00341585 -0.0032561 -0.00310101 -0.00295058 -0.0028048 -0.00266367 -0.0025272 -0.00239539 -0.00227399 -0.00216878 -0.00207976 -0.00200692 -0.00195027 -0.0019098 -0.00188552 -0.00187743 -0.00188552 -0.0019098 -0.00195027 -0.00200692 -0.00207976 -0.00216878 -0.00227399 -0.00239539 -0.0025272 -0.00266367 -0.0028048 -0.00295058 -0.00310101 -0.0032561 -0.00341585 -0.00358025 -0.00374188 -0.00389332 -0.00403458 -0.00416565 -0.00428653 -0.00439722 -0.00449772 -0.00458803 -0.00466374 -0.00472042 -0.00475807 -0.0047767 -0.0047763 -0.00475688 -0.00471844 -0.00466096 -0.00458529 -0.00449223 -0.00438179 -0.00425396 -0.00410875 -0.00394616 -0.00376618 -0.00356882 -0.00336066 -0.00314829 -0.00293171 -0.00271091 -0.0024859 -0.00225667 -0.00202323 -0.00178558 -0.00155434 -0.00134017 -0.00114304 -0.000962977 -0.000799966 -0.000654011 -0.000525111 -0.000413267 -0.000316407 -0.000232462 -0.000161432 -0.000103317 -5.81156e-05 -2.58292e-05 -6.45729e-06 0 0 -7.91546e-06 -3.16618e-05 -7.12392e-05 -0.000126647 -0.000197887 -0.000284957 -0.000387858 -0.00050659 -0.000643257 -0.000799966 -0.000976715 -0.0011735 -0.00139033 -0.00162721 -0.00188412 -0.00216107 -0.00244485 -0.00272226 -0.0029933 -0.00325796 -0.00351625 -0.00376816 -0.00401369 -0.00425285 -0.00447751 -0.00467953 -0.00485891 -0.00501566 -0.00514977 -0.00526125 -0.00535008 -0.00541629 -0.00545901 -0.00547742 -0.0054715 -0.00544126 -0.00538671 -0.00530783 -0.00520463 -0.00507711 -0.00493124 -0.00477297 -0.00460231 -0.00441926 -0.00422382 -0.00401598 -0.00379575 -0.00356313 -0.00332797 -0.00310012 -0.00287957 -0.00266634 -0.00246042 -0.00226181 -0.00207051 -0.00188653 -0.00171746 -0.00157094 -0.00144696 -0.00134553 -0.00126663 -0.00121028 -0.00117646 -0.00116519 -0.00117646 -0.00121028 -0.00126663 -0.00134553 -0.00144696 -0.00157094 -0.00171746 -0.00188653 -0.00207051 -0.00226181 -0.00246042 -0.00266634 -0.00287957 -0.00310012 -0.00332797 -0.00356313 -0.00379575 -0.00401598 -0.00422382 -0.00441926 -0.00460231 -0.00477297 -0.00493124 -0.00507711 -0.00520463 -0.00530783 -0.00538671 -0.00544126 -0.0054715 -0.00547742 -0.00545901 -0.00541629 -0.00535009 -0.00526125 -0.00514977 -0.00501566 -0.00485891 -0.00467953 -0.00447751 -0.00425285 -0.00401369 -0.00376816 -0.00351625 -0.00325796 -0.0029933 -0.00272227 -0.00244486 -0.00216107 -0.00188412 -0.00162721 -0.00139034 -0.00117351 -0.000976715 -0.000799966 -0.000643258 -0.00050659 -0.000387858 -0.000284957 -0.000197887 -0.000126648 -7.12392e-05 -3.16619e-05 -7.91547e-06 0 0 -9.54993e-06 -3.81997e-05 -8.59494e-05 -0.000152799 -0.000238748 -0.000343797 -0.000467947 -0.000611196 -0.00077554 -0.000962976 -0.0011735 -0.00140712 -0.00166383 -0.00194364 -0.00224653 -0.00257252 -0.00290544 -0.00322916 -0.00354367 -0.00384897 -0.00414506 -0.00443194 -0.00470961 -0.00497807 -0.00522744 -0.00544783 -0.00563925 -0.00580169 -0.00593515 -0.00603964 -0.00611515 -0.00616169 -0.00617843 -0.00616459 -0.00612015 -0.00604511 -0.00593948 -0.00580325 -0.00563642 -0.005439 -0.00521887 -0.00498391 -0.00473412 -0.0044695 -0.00419004 -0.00389576 -0.00358665 -0.00326271 -0.00293677 -0.00262166 -0.00231739 -0.00202396 -0.00174135 -0.00146958 -0.00120865 -0.000958546 -0.000729155 -0.000530349 -0.000362128 -0.000224494 -0.000117444 -4.09805e-05 4.89783e-06 2.01906e-05 4.89786e-06 -4.09804e-05 -0.000117444 -0.000224494 -0.000362128 -0.000530349 -0.000729155 -0.000958546 -0.00120865 -0.00146958 -0.00174135 -0.00202395 -0.00231739 -0.00262166 -0.00293677 -0.00326271 -0.00358665 -0.00389576 -0.00419004 -0.0044695 -0.00473412 -0.00498391 -0.00521887 -0.005439 -0.00563642 -0.00580325 -0.00593948 -0.00604511 -0.00612015 -0.00616459 -0.00617844 -0.00616169 -0.00611515 -0.00603964 -0.00593515 -0.00580169 -0.00563925 -0.00544783 -0.00522744 -0.00497807 -0.00470961 -0.00443194 -0.00414506 -0.00384897 -0.00354367 -0.00322916 -0.00290544 -0.00257252 -0.00224653 -0.00194364 -0.00166384 -0.00140712 -0.00117351 -0.000962977 -0.000775541 -0.000611196 -0.000467947 -0.000343798 -0.000238748 -0.000152799 -8.59495e-05 -3.81998e-05 -9.54994e-06 0 0 -1.13607e-05 -4.54428e-05 -0.000102246 -0.000181771 -0.000284017 -0.000408985 -0.000556674 -0.000727084 -0.000921959 -0.00114304 -0.00139033 -0.00166383 -0.00196354 -0.00228946 -0.00264158 -0.00301992 -0.003405 -0.00377736 -0.004137 -0.00448393 -0.00481814 -0.00513963 -0.00544841 -0.00574447 -0.00601597 -0.00625106 -0.00644975 -0.00661204 -0.00673793 -0.00682741 -0.00688048 -0.00689716 -0.00687671 -0.0068184 -0.00672224 -0.00658824 -0.00641638 -0.00620667 -0.00595911 -0.0056737 -0.00536061 -0.00503003 -0.00468194 -0.00431635 -0.00393326 -0.00353267 -0.00311458 -0.00267898 -0.00224225 -0.00182075 -0.00141447 -0.00102341 -0.000647585 -0.000286981 5.83983e-05 0.000388552 0.000690935 0.000952999 0.00117475 0.00135618 0.00149729 0.00159808 0.00165856 0.00167872 0.00165856 0.00159808 0.00149729 0.00135618 0.00117475 0.000953 0.000690935 0.000388552 5.83986e-05 -0.00028698 -0.000647585 -0.00102341 -0.00141447 -0.00182075 -0.00224225 -0.00267898 -0.00311458 -0.00353267 -0.00393326 -0.00431635 -0.00468194 -0.00503003 -0.00536061 -0.0056737 -0.00595911 -0.00620667 -0.00641638 -0.00658824 -0.00672224 -0.0068184 -0.00687671 -0.00689716 -0.00688049 -0.00682741 -0.00673793 -0.00661204 -0.00644976 -0.00625106 -0.00601597 -0.00574447 -0.00544841 -0.00513963 -0.00481814 -0.00448393 -0.004137 -0.00377736 -0.003405 -0.00301992 -0.00264159 -0.00228946 -0.00196354 -0.00166384 -0.00139034 -0.00114304 -0.00092196 -0.000727085 -0.000556674 -0.000408985 -0.000284018 -0.000181771 -0.000102246 -4.54428e-05 -1.13607e-05 0 0 -1.33477e-05 -5.3391e-05 -0.00012013 -0.000213564 -0.000333693 -0.000480519 -0.000654039 -0.000854255 -0.00108251 -0.00134016 -0.00162721 -0.00194364 -0.00228946 -0.00266467 -0.00306928 -0.00350327 -0.00394351 -0.00436685 -0.0047733 -0.00516285 -0.00553549 -0.00589124 -0.0062301 -0.00655205 -0.0068431 -0.00708922 -0.00729043 -0.00744672 -0.0075581 -0.00762455 -0.00764609 -0.00762271 -0.00755382 -0.00743885 -0.00727779 -0.00707065 -0.00681742 -0.0065181 -0.00617269 -0.0057812 -0.00535646 -0.00491132 -0.00444577 -0.00395982 -0.00345346 -0.0029267 -0.00237953 -0.00181195 -0.00124442 -0.000697369 -0.000170803 0.00033528 0.000820878 0.00128599 0.00173062 0.00215477 0.00254281 0.0028791 0.00316366 0.00339648 0.00357757 0.00370691 0.00378452 0.00381039 0.00378452 0.00370691 0.00357757 0.00339648 0.00316366 0.0028791 0.00254281 0.00215477 0.00173062 0.00128599 0.000820878 0.00033528 -0.000170802 -0.000697369 -0.00124442 -0.00181195 -0.00237953 -0.0029267 -0.00345346 -0.00395982 -0.00444577 -0.00491132 -0.00535646 -0.0057812 -0.00617269 -0.0065181 -0.00681742 -0.00707065 -0.00727779 -0.00743885 -0.00755382 -0.00762271 -0.00764609 -0.00762455 -0.0075581 -0.00744672 -0.00729043 -0.00708922 -0.0068431 -0.00655205 -0.0062301 -0.00589125 -0.0055355 -0.00516285 -0.0047733 -0.00436686 -0.00394351 -0.00350327 -0.00306928 -0.00266467 -0.00228946 -0.00194364 -0.00162721 -0.00134017 -0.00108252 -0.000854256 -0.00065404 -0.000480519 -0.000333694 -0.000213564 -0.00012013 -5.3391e-05 -1.33478e-05 0 0 -1.55111e-05 -6.20443e-05 -0.0001396 -0.000248177 -0.000387777 -0.000558399 -0.000760043 -0.000992709 -0.00125721 -0.00155434 -0.00188412 -0.00224653 -0.00264158 -0.00306928 -0.00352961 -0.00402258 -0.00452099 -0.00499765 -0.00545256 -0.00588572 -0.00629712 -0.00668677 -0.00705467 -0.00740081 -0.00770882 -0.00796231 -0.00816128 -0.00830573 -0.00839566 -0.00843107 -0.00841196 -0.00833833 -0.00820979 -0.00802594 -0.00778679 -0.00749234 -0.00714259 -0.00673753 -0.00627717 -0.00576151 -0.00520642 -0.00462779 -0.00402562 -0.00339991 -0.00275065 -0.00207785 -0.00138151 -0.000661621 5.67318e-05 0.000748474 0.00141361 0.00205213 0.00266404 0.00324934 0.00380803 0.00434011 0.00482646 0.00524796 0.00560462 0.00589643 0.00612339 0.00628551 0.00638278 0.0064152 0.00638278 0.00628551 0.00612339 0.00589643 0.00560462 0.00524796 0.00482646 0.00434011 0.00380803 0.00324934 0.00266404 0.00205213 0.00141361 0.000748474 5.67322e-05 -0.00066162 -0.00138151 -0.00207785 -0.00275065 -0.00339991 -0.00402562 -0.00462779 -0.00520642 -0.00576151 -0.00627717 -0.00673753 -0.00714259 -0.00749234 -0.00778679 -0.00802594 -0.00820979 -0.00833833 -0.00841196 -0.00843107 -0.00839566 -0.00830573 -0.00816128 -0.00796231 -0.00770882 -0.00740082 -0.00705467 -0.00668677 -0.00629712 -0.00588572 -0.00545256 -0.00499765 -0.00452099 -0.00402258 -0.00352961 -0.00306928 -0.00264159 -0.00224653 -0.00188412 -0.00155434 -0.00125721 -0.00099271 -0.000760044 -0.000558399 -0.000387777 -0.000248178 -0.0001396 -6.20444e-05 -1.55111e-05 0 0 -1.78507e-05 -7.14028e-05 -0.000160656 -0.000285611 -0.000446268 -0.000642626 -0.000874685 -0.00114245 -0.00144603 -0.00178557 -0.00216107 -0.00257252 -0.00301992 -0.00350327 -0.00402258 -0.00457784 -0.00513743 -0.00566975 -0.00617479 -0.00665254 -0.00710302 -0.00752621 -0.00792213 -0.00829076 -0.00861315 -0.00887033 -0.0090623 -0.00918907 -0.00925062 -0.00924696 -0.0091781 -0.00904403 -0.0088446 -0.00857967 -0.00824925 -0.00785332 -0.0073919 -0.00686497 -0.00627255 -0.00561462 -0.00491049 -0.00417945 -0.00342149 -0.00263662 -0.00182483 -0.000986128 -0.000120513 0.000772017 0.0016612 0.00251678 0.00333876 0.00412713 0.00488189 0.00560305 0.00629061 0.00694456 0.00754189 0.00805957 0.00849761 0.00885601 0.00913476 0.00933387 0.00945334 0.00949316 0.00945334 0.00933387 0.00913476 0.00885601 0.00849761 0.00805957 0.00754189 0.00694456 0.00629061 0.00560305 0.00488189 0.00412713 0.00333876 0.00251678 0.0016612 0.000772017 -0.000120513 -0.000986128 -0.00182483 -0.00263662 -0.00342149 -0.00417945 -0.00491049 -0.00561462 -0.00627255 -0.00686497 -0.0073919 -0.00785332 -0.00824925 -0.00857967 -0.0088446 -0.00904403 -0.0091781 -0.00924697 -0.00925062 -0.00918907 -0.00906231 -0.00887033 -0.00861315 -0.00829076 -0.00792213 -0.00752621 -0.00710302 -0.00665254 -0.00617479 -0.00566975 -0.00513744 -0.00457784 -0.00402258 -0.00350327 -0.00301992 -0.00257252 -0.00216107 -0.00178558 -0.00144603 -0.00114245 -0.000874686 -0.000642626 -0.000446268 -0.000285612 -0.000160657 -7.14029e-05 -1.78507e-05 0 0 -2.02636e-05 -8.10542e-05 -0.000182372 -0.000324217 -0.000506589 -0.000729488 -0.000992914 -0.00129687 -0.00164057 -0.00202323 -0.00244485 -0.00290544 -0.003405 -0.00394351 -0.00452099 -0.00513743 -0.00575641 -0.00634149 -0.00689266 -0.00740994 -0.00789333 -0.00834281 -0.00875839 -0.00914008 -0.0094661 -0.00971471 -0.00988588 -0.00997963 -0.00999596 -0.00993486 -0.00979634 -0.0095804 -0.00928726 -0.00891717 -0.00847013 -0.00794614 -0.00734519 -0.00666728 -0.00591243 -0.00508062 -0.00419514 -0.00327928 -0.00233304 -0.00135642 -0.000349411 0.000687975 0.00175574 0.00285389 0.00394618 0.00499638 0.00600447 0.00697047 0.00789437 0.00877617 0.00961587 0.0104135 0.0111415 0.0117724 0.0123063 0.0127431 0.0130829 0.0133256 0.0134712 0.0135197 0.0134712 0.0133256 0.0130829 0.0127431 0.0123063 0.0117724 0.0111415 0.0104135 0.00961587 0.00877617 0.00789437 0.00697047 0.00600447 0.00499638 0.00394618 0.00285389 0.00175574 0.000687976 -0.000349411 -0.00135642 -0.00233304 -0.00327928 -0.00419514 -0.00508062 -0.00591243 -0.00666728 -0.00734519 -0.00794614 -0.00847013 -0.00891717 -0.00928726 -0.0095804 -0.00979634 -0.00993486 -0.00999596 -0.00997963 -0.00988588 -0.00971471 -0.00946611 -0.00914008 -0.0087584 -0.00834281 -0.00789333 -0.00740995 -0.00689267 -0.00634149 -0.00575641 -0.00513744 -0.00452099 -0.00394351 -0.003405 -0.00290544 -0.00244486 -0.00202323 -0.00164057 -0.00129687 -0.000992915 -0.000729489 -0.000506589 -0.000324217 -0.000182372 -8.10543e-05 -2.02636e-05 0 0 -2.26465e-05 -9.05861e-05 -0.000203819 -0.000362345 -0.000566163 -0.000815275 -0.00110968 -0.00144938 -0.00183237 -0.00225667 -0.00272226 -0.00322916 -0.00377736 -0.00436685 -0.00499765 -0.00566975 -0.00634149 -0.0069712 -0.00755889 -0.00810455 -0.00860819 -0.0090698 -0.00948939 -0.00986696 -0.0101777 -0.0103969 -0.0105244 -0.0105603 -0.0105047 -0.0103574 -0.0101185 -0.00978803 -0.00936677 -0.00885557 -0.00825443 -0.00756334 -0.00678231 -0.00591134 -0.00495042 -0.00389956 -0.00278683 -0.00164029 -0.000459936 0.000754223 0.00200219 0.00328397 0.00459955 0.00594894 0.00728888 0.00857609 0.00981058 0.0109923 0.0121214 0.0131977 0.0142213 0.0151922 0.0160777 0.0168451 0.0174944 0.0180257 0.0184389 0.0187341 0.0189112 0.0189702 0.0189112 0.0187341 0.0184389 0.0180257 0.0174944 0.0168451 0.0160777 0.0151922 0.0142213 0.0131977 0.0121214 0.0109923 0.00981058 0.00857609 0.00728888 0.00594894 0.00459955 0.00328397 0.00200219 0.000754223 -0.000459936 -0.00164029 -0.00278683 -0.00389956 -0.00495042 -0.00591134 -0.00678231 -0.00756334 -0.00825443 -0.00885557 -0.00936677 -0.00978803 -0.0101185 -0.0103574 -0.0105047 -0.0105603 -0.0105244 -0.0103969 -0.0101777 -0.00986696 -0.0094894 -0.00906981 -0.00860819 -0.00810455 -0.00755889 -0.0069712 -0.00634149 -0.00566975 -0.00499765 -0.00436686 -0.00377736 -0.00322916 -0.00272227 -0.00225667 -0.00183237 -0.00144938 -0.00110968 -0.000815276 -0.000566164 -0.000362345 -0.000203819 -9.05862e-05 -2.26466e-05 0 0 -2.49996e-05 -9.99986e-05 -0.000224997 -0.000399994 -0.000624991 -0.000899987 -0.00122498 -0.00159998 -0.00202145 -0.00248589 -0.0029933 -0.00354367 -0.004137 -0.0047733 -0.00545256 -0.00617479 -0.00689266 -0.00755889 -0.00817345 -0.00873635 -0.0092476 -0.00970719 -0.0101151 -0.0104714 -0.010748 -0.0109168 -0.0109779 -0.0109312 -0.0107767 -0.0105146 -0.0101446 -0.00966693 -0.00908314 -0.00839487 -0.00760214 -0.00670494 -0.00570327 -0.00459714 -0.00338654 -0.00207147 -0.000685565 0.000737529 0.00219782 0.0036953 0.00522998 0.00680184 0.00841091 0.0100572 0.0116893 0.0132559 0.0147571 0.0161927 0.0175629 0.0188677 0.0201069 0.0212807 0.0223504 0.0232774 0.0240619 0.0247037 0.0252029 0.0255595 0.0257734 0.0258447 0.0257734 0.0255595 0.0252029 0.0247037 0.0240619 0.0232774 0.0223504 0.0212807 0.0201069 0.0188677 0.0175629 0.0161927 0.0147571 0.0132559 0.0116893 0.0100572 0.00841091 0.00680185 0.00522998 0.0036953 0.00219782 0.000737529 -0.000685565 -0.00207147 -0.00338654 -0.00459714 -0.00570327 -0.00670494 -0.00760214 -0.00839487 -0.00908314 -0.00966693 -0.0101446 -0.0105146 -0.0107767 -0.0109312 -0.0109779 -0.0109168 -0.010748 -0.0104714 -0.0101151 -0.0097072 -0.00924761 -0.00873636 -0.00817345 -0.00755889 -0.00689267 -0.00617479 -0.00545256 -0.0047733 -0.004137 -0.00354367 -0.0029933 -0.0024859 -0.00202146 -0.00159998 -0.00122498 -0.000899988 -0.000624992 -0.000399995 -0.000224997 -9.99987e-05 -2.49997e-05 0 0 -2.73229e-05 -0.000109292 -0.000245906 -0.000437166 -0.000683072 -0.000983624 -0.00133882 -0.