<?xml version="1.0"?> 
<VTKFile type="StructuredGrid" version="0.1"> 
<StructuredGrid WholeExtent="0 128 0 128 0 0"> 
<Piece Extent="0 128 0 128 0 0"> 
<PointData>
<DataArray type="Float32" Name="u" format="ascii" NumberOfComponents="1"> 
0 0 0 0 0 0 0 0 0 0 0 0 0 0 0 0 0 0 0 0 0 0 0 0 0 0 0 0 0 0 0 0 0 0 0 0 0 0 0 0 0 0 0 0 0 0 0 0 0 0 0 0 0 0 0 0 0 0 0 0 0 0 0 0 0 0 0 0 0 0 0 0 0 0 0 0 0 0 0 0 0 0 0 0 0 0 0 0 0 0 0 0 0 0 0 0 0 0 0 0 0 0 0 0 0 0 0 0 0 0 0 0 0 0 0 0 0 0 0 0 0 0 0 0 0 0 0 0 0 0 5.14491e-08 2.05796e-07 4.63042e-07 8.23186e-07 1.28623e-06 1.85217e-06 2.52101e-06 3.29274e-06 4.10376e-06 4.89042e-06 5.65274e-06 6.39072e-06 7.10435e-06 7.79363e-06 8.45857e-06 9.09916e-06 9.57116e-06 9.73033e-06 9.57668e-06 9.1102e-06 8.3309e-06 7.23876e-06 5.8338e-06 4.11601e-06 2.06343e-06 -3.45893e-07 -3.11196e-06 -6.23478e-06 -9.71435e-06 -1.35507e-05 -1.77437e-05 -2.22935e-05 -2.70986e-05 -3.20575e-05 -3.71703e-05 -4.24368e-05 -4.78572e-05 -5.34313e-05 -5.91593e-05 -6.50411e-05 -7.09413e-05 -7.67245e-05 -8.23906e-05 -8.79397e-05 -9.33718e-05 -9.86868e-05 -0.000103885 -0.000108966 -0.000113845 -0.000118439 -0.000122747 -0.000126769 -0.000130506 -0.000133957 -0.000137122 -0.000140001 -0.000142566 -0.000144789 -0.00014667 -0.000148209 -0.000149406 -0.000150262 -0.000150775 -0.000150946 -0.000150775 -0.000150262 -0.000149406 -0.000148209 -0.00014667 -0.000144789 -0.000142566 -0.000140001 -0.000137122 -0.000133957 -0.000130506 -0.000126769 -0.000122747 -0.000118439 -0.000113845 -0.000108966 -0.000103885 -9.86868e-05 -9.33718e-05 -8.79397e-05 -8.23906e-05 -7.67245e-05 -7.09413e-05 -6.50411e-05 -5.91593e-05 -5.34313e-05 -4.78572e-05 -4.24368e-05 -3.71703e-05 -3.20575e-05 -2.70986e-05 -2.22935e-05 -1.77437e-05 -1.35507e-05 -9.71435e-06 -6.23478e-06 -3.11196e-06 -3.45893e-07 2.06343e-06 4.11601e-06 5.8338e-06 7.23876e-06 8.3309e-06 9.1102e-06 9.57668e-06 9.73033e-06 9.57116e-06 9.09915e-06 8.45856e-06 7.79363e-06 7.10435e-06 6.39072e-06 5.65274e-06 4.89042e-06 4.10376e-06 3.29274e-06 2.52101e-06 1.85217e-06 1.28623e-06 8.23186e-07 4.63042e-07 2.05796e-07 5.14491e-08 0 0 2.05796e-07 8.23186e-07 1.85217e-06 3.29274e-06 5.14491e-06 7.40867e-06 1.0084e-05 1.3171e-05 1.6415e-05 1.95617e-05 2.2611e-05 2.55629e-05 2.84174e-05 3.11745e-05 3.38343e-05 3.63966e-05 3.82846e-05 3.89213e-05 3.83067e-05 3.64408e-05 3.33236e-05 2.8955e-05 2.33352e-05 1.6464e-05 8.25373e-06 -1.38357e-06 -1.24479e-05 -2.49391e-05 -3.88574e-05 -5.42027e-05 -7.09749e-05 -8.91741e-05 -0.000108395 -0.00012823 -0.000148681 -0.000169747 -0.000191429 -0.000213725 -0.000236637 -0.000260164 -0.000283765 -0.000306898 -0.000329562 -0.000351759 -0.000373487 -0.000394747 -0.000415539 -0.000435863 -0.000455382 -0.000473757 -0.000490989 -0.000507078 -0.000522024 -0.000535826 -0.000548486 -0.000560003 -0.000570263 -0.000579156 -0.000586681 -0.000592837 -0.000597626 -0.000601046 -0.000603098 -0.000603782 -0.000603098 -0.000601046 -0.000597626 -0.000592837 -0.000586681 -0.000579156 -0.000570263 -0.000560003 -0.000548486 -0.000535826 -0.000522024 -0.000507078 -0.000490989 -0.000473757 -0.000455382 -0.000435863 -0.000415539 -0.000394747 -0.000373487 -0.000351759 -0.000329562 -0.000306898 -0.000283765 -0.000260164 -0.000236637 -0.000213725 -0.000191429 -0.000169747 -0.000148681 -0.00012823 -0.000108395 -8.91741e-05 -7.09749e-05 -5.42027e-05 -3.88574e-05 -2.49391e-05 -1.24479e-05 -1.38357e-06 8.25373e-06 1.6464e-05 2.33352e-05 2.8955e-05 3.33236e-05 3.64408e-05 3.83067e-05 3.89213e-05 3.82846e-05 3.63966e-05 3.38343e-05 3.11745e-05 2.84174e-05 2.55629e-05 2.2611e-05 1.95617e-05 1.6415e-05 1.3171e-05 1.0084e-05 7.40867e-06 5.14491e-06 3.29274e-06 1.85217e-06 8.23186e-07 2.05796e-07 0 0 4.63042e-07 1.85217e-06 4.16738e-06 7.40867e-06 1.15761e-05 1.66695e-05 2.26891e-05 2.96347e-05 3.69338e-05 4.40138e-05 5.08747e-05 5.75165e-05 6.39391e-05 7.01427e-05 7.61271e-05 8.18924e-05 8.61404e-05 8.7573e-05 8.61901e-05 8.19918e-05 7.49781e-05 6.51488e-05 5.25042e-05 3.70441e-05 1.85709e-05 -3.11304e-06 -2.80077e-05 -5.61131e-05 -8.74292e-05 -0.000121956 -0.000159694 -0.000200642 -0.000243888 -0.000288518 -0.000334532 -0.000381931 -0.000430714 -0.000480882 -0.000532434 -0.00058537 -0.000638472 -0.00069052 -0.000741516 -0.000791458 -0.000840346 -0.000888182 -0.000934964 -0.000980692 -0.00102461 -0.00106595 -0.00110472 -0.00114092 -0.00117455 -0.00120561 -0.00123409 -0.00126001 -0.00128309 -0.0013031 -0.00132003 -0.00133388 -0.00134466 -0.00135235 -0.00135697 -0.00135851 -0.00135697 -0.00135235 -0.00134466 -0.00133388 -0.00132003 -0.0013031 -0.00128309 -0.00126001 -0.00123409 -0.00120561 -0.00117455 -0.00114092 -0.00110472 -0.00106595 -0.00102461 -0.000980692 -0.000934964 -0.000888182 -0.000840346 -0.000791458 -0.000741516 -0.00069052 -0.000638472 -0.00058537 -0.000532434 -0.000480882 -0.000430714 -0.000381931 -0.000334532 -0.000288518 -0.000243888 -0.000200642 -0.000159694 -0.000121956 -8.74292e-05 -5.61131e-05 -2.80077e-05 -3.11304e-06 1.85709e-05 3.70441e-05 5.25042e-05 6.51488e-05 7.49781e-05 8.19918e-05 8.61901e-05 8.7573e-05 8.61404e-05 8.18924e-05 7.61271e-05 7.01427e-05 6.39391e-05 5.75165e-05 5.08747e-05 4.40138e-05 3.69338e-05 2.96347e-05 2.26891e-05 1.66695e-05 1.15761e-05 7.40867e-06 4.16738e-06 1.85217e-06 4.63042e-07 0 0 8.23186e-07 3.29274e-06 7.40867e-06 1.3171e-05 2.05796e-05 2.96347e-05 4.03361e-05 5.26839e-05 6.56601e-05 7.82468e-05 9.04439e-05 0.000102251 0.00011367 0.000124698 0.000135337 0.000145586 0.000153139 0.000155685 0.000153227 0.000145763 0.000133294 0.00011582 9.33408e-05 6.58561e-05 3.30149e-05 -5.53429e-06 -4.97914e-05 -9.97565e-05 -0.00015543 -0.000216811 -0.0002839 -0.000356697 -0.000433578 -0.000512921 -0.000594724 -0.000678989 -0.000765714 -0.000854901 -0.000946549 -0.00104066 -0.00113506 -0.00122759 -0.00131825 -0.00140704 -0.00149395 -0.00157899 -0.00166216 -0.00174345 -0.00182153 -0.00189503 -0.00196396 -0.00202831 -0.00208809 -0.00214331 -0.00219394 -0.00224001 -0.00228105 -0.00231662 -0.00234672 -0.00237135 -0.0023905 -0.00240418 -0.00241239 -0.00241513 -0.00241239 -0.00240418 -0.0023905 -0.00237135 -0.00234672 -0.00231662 -0.00228105 -0.00224001 -0.00219394 -0.00214331 -0.00208809 -0.00202831 -0.00196396 -0.00189503 -0.00182153 -0.00174345 -0.00166216 -0.00157899 -0.00149395 -0.00140704 -0.00131825 -0.00122759 -0.00113506 -0.00104066 -0.000946549 -0.000854901 -0.000765714 -0.000678989 -0.000594724 -0.000512921 -0.000433578 -0.000356697 -0.0002839 -0.000216811 -0.00015543 -9.97565e-05 -4.97914e-05 -5.53429e-06 3.30149e-05 6.58561e-05 9.33408e-05 0.00011582 0.000133294 0.000145763 0.000153227 0.000155685 0.000153139 0.000145586 0.000135337 0.000124698 0.00011367 0.000102251 9.04439e-05 7.82468e-05 6.56601e-05 5.26839e-05 4.03361e-05 2.96347e-05 2.05796e-05 1.3171e-05 7.40867e-06 3.29274e-06 8.23186e-07 0 0 1.28623e-06 5.14491e-06 1.15761e-05 2.05796e-05 3.21557e-05 4.63042e-05 6.30252e-05 8.23186e-05 0.000102594 0.000122261 0.000141319 0.000159768 0.000177609 0.000194841 0.000211464 0.000227479 0.000239279 0.000243258 0.000239417 0.000227755 0.000208272 0.000180969 0.000145845 0.0001029 5.15858e-05 -8.64732e-06 -7.77991e-05 -0.00015587 -0.000242859 -0.000338767 -0.000443593 -0.000557338 -0.000677466 -0.000801438 -0.000929256 -0.00106092 -0.00119643 -0.00133578 -0.00147898 -0.00162603 -0.00177353 -0.00191811 -0.00205977 -0.00219849 -0.00233429 -0.00246717 -0.00259712 -0.00272415 -0.00284613 -0.00296098 -0.00306868 -0.00316924 -0.00326265 -0.00334891 -0.00342804 -0.00350002 -0.00356415 -0.00361973 -0.00366676 -0.00370523 -0.00373516 -0.00375654 -0.00376936 -0.00377364 -0.00376936 -0.00375654 -0.00373516 -0.00370523 -0.00366676 -0.00361973 -0.00356415 -0.00350002 -0.00342804 -0.00334891 -0.00326265 -0.00316924 -0.00306868 -0.00296098 -0.00284613 -0.00272415 -0.00259712 -0.00246717 -0.00233429 -0.00219849 -0.00205977 -0.00191811 -0.00177353 -0.00162603 -0.00147898 -0.00133578 -0.00119643 -0.00106092 -0.000929256 -0.000801438 -0.000677466 -0.000557338 -0.000443593 -0.000338767 -0.000242859 -0.00015587 -7.77991e-05 -8.64732e-06 5.15858e-05 0.0001029 0.000145845 0.000180969 0.000208272 0.000227755 0.000239417 0.000243258 0.000239279 0.000227479 0.000211464 0.000194841 0.000177609 0.000159768 0.000141319 0.000122261 0.000102594 8.23186e-05 6.30252e-05 4.63042e-05 3.21557e-05 2.05796e-05 1.15761e-05 5.14491e-06 1.28623e-06 0 0 1.85217e-06 7.40867e-06 1.66695e-05 2.96347e-05 4.63042e-05 6.66781e-05 9.07562e-05 0.000118539 0.000147735 0.000176055 0.000203499 0.000230066 0.000255756 0.000280571 0.000304508 0.00032757 0.000344562 0.000350292 0.000344761 0.000327967 0.000299912 0.000260595 0.000210017 0.000148176 7.42835e-05 -1.24521e-05 -0.000112031 -0.000224452 -0.000349717 -0.000487824 -0.000638774 -0.000802567 -0.000975551 -0.00115407 -0.00133813 -0.00152772 -0.00172286 -0.00192353 -0.00212974 -0.00234148 -0.00255389 -0.00276208 -0.00296606 -0.00316583 -0.00336138 -0.00355273 -0.00373985 -0.00392277 -0.00409843 -0.00426381 -0.0044189 -0.0045637 -0.00469821 -0.00482244 -0.00493637 -0.00504002 -0.00513237 -0.00521241 -0.00528013 -0.00533554 -0.00537863 -0.00540942 -0.00542789 -0.00543404 -0.00542789 -0.00540942 -0.00537863 -0.00533554 -0.00528013 -0.00521241 -0.00513237 -0.00504002 -0.00493637 -0.00482244 -0.00469821 -0.0045637 -0.0044189 -0.00426381 -0.00409843 -0.00392277 -0.00373985 -0.00355273 -0.00336138 -0.00316583 -0.00296606 -0.00276208 -0.00255389 -0.00234148 -0.00212974 -0.00192353 -0.00172286 -0.00152772 -0.00133813 -0.00115407 -0.000975551 -0.000802567 -0.000638774 -0.000487824 -0.000349717 -0.000224452 -0.000112031 -1.24521e-05 7.42835e-05 0.000148176 0.000210017 0.000260595 0.000299912 0.000327967 0.000344761 0.000350292 0.000344562 0.00032757 0.000304508 0.000280571 0.000255756 0.000230066 0.000203499 0.000176055 0.000147735 0.000118539 9.07562e-05 6.66781e-05 4.63042e-05 2.96347e-05 1.66695e-05 7.40867e-06 1.85217e-06 0 0 2.52101e-06 1.0084e-05 2.26891e-05 4.03361e-05 6.30252e-05 9.07562e-05 0.000123529 0.000161344 0.000201084 0.000239631 0.000276984 0.000313145 0.000348113 0.000381888 0.00041447 0.000445859 0.000468987 0.000476786 0.000469257 0.0004464 0.000408214 0.000354699 0.000285856 0.000201684 0.000101108 -1.69488e-05 -0.000152486 -0.000305504 -0.000476003 -0.000663983 -0.000869443 -0.00109238 -0.00132783 -0.00157082 -0.00182134 -0.0020794 -0.002345 -0.00261814 -0.00289881 -0.00318702 -0.00347612 -0.0037595 -0.00403714 -0.00430905 -0.00457522 -0.00483565 -0.00509036 -0.00533933 -0.00557842 -0.00580352 -0.00601461 -0.0062117 -0.00639479 -0.00656387 -0.00671895 -0.00686003 -0.00698573 -0.00709466 -0.00718684 -0.00726226 -0.00732092 -0.00736282 -0.00738796 -0.00739634 -0.00738796 -0.00736282 -0.00732092 -0.00726226 -0.00718684 -0.00709466 -0.00698573 -0.00686003 -0.00671895 -0.00656387 -0.00639479 -0.0062117 -0.00601461 -0.00580352 -0.00557842 -0.00533933 -0.00509036 -0.00483565 -0.00457522 -0.00430905 -0.00403714 -0.0037595 -0.00347612 -0.00318702 -0.00289881 -0.00261814 -0.002345 -0.0020794 -0.00182134 -0.00157082 -0.00132783 -0.00109238 -0.000869443 -0.000663983 -0.000476003 -0.000305504 -0.000152486 -1.69488e-05 0.000101108 0.000201684 0.000285856 0.000354699 0.000408214 0.0004464 0.000469257 0.000476786 0.000468987 0.000445859 0.00041447 0.000381888 0.000348113 0.000313145 0.000276984 0.000239631 0.000201084 0.000161344 0.000123529 9.07562e-05 6.30252e-05 4.03361e-05 2.26891e-05 1.0084e-05 2.52101e-06 0 0 3.29274e-06 1.3171e-05 2.96347e-05 5.26839e-05 8.23186e-05 0.000118539 0.000161344 0.000210736 0.00026264 0.000312987 0.000361776 0.000409006 0.000454678 0.000498792 0.000541348 0.000582346 0.000612554 0.000622741 0.000612908 0.000583053 0.000533177 0.000463281 0.000373363 0.000263425 0.00013206 -2.21371e-05 -0.000199166 -0.000399026 -0.000621718 -0.000867243 -0.0011356 -0.00142679 -0.00173431 -0.00205168 -0.0023789 -0.00271595 -0.00306286 -0.0034196 -0.0037862 -0.00416263 -0.00454024 -0.00491037 -0.005273 -0.00562814 -0.0059758 -0.00631596 -0.00664863 -0.00697381 -0.0072861 -0.00758011 -0.00785582 -0.00811324 -0.00835238 -0.00857322 -0.00877578 -0.00896004 -0.00912422 -0.0092665 -0.00938689 -0.0094854 -0.00956201 -0.00961674 -0.00964957 -0.00966052 -0.00964957 -0.00961674 -0.00956201 -0.0094854 -0.00938689 -0.0092665 -0.00912422 -0.00896004 -0.00877578 -0.00857322 -0.00835238 -0.00811324 -0.00785582 -0.00758011 -0.0072861 -0.00697381 -0.00664863 -0.00631596 -0.0059758 -0.00562814 -0.005273 -0.00491037 -0.00454024 -0.00416263 -0.0037862 -0.0034196 -0.00306286 -0.00271595 -0.0023789 -0.00205168 -0.00173431 -0.00142679 -0.0011356 -0.000867243 -0.000621718 -0.000399026 -0.000199166 -2.21371e-05 0.00013206 0.000263425 0.000373363 0.000463281 0.000533177 0.000583053 0.000612908 0.000622741 0.000612554 0.000582346 0.000541348 0.000498792 0.000454678 0.000409006 0.000361776 0.000312987 0.00026264 0.000210736 0.000161344 0.000118539 8.23186e-05 5.26839e-05 2.96347e-05 1.3171e-05 3.29274e-06 0 0 4.10376e-06 1.6415e-05 3.69338e-05 6.56601e-05 0.000102594 0.000147735 0.000201084 0.00026264 0.000327162 0.000389408 0.000449378 0.000507072 0.00056249 0.000615632 0.000666497 0.000715087 0.000749914 0.000759492 0.000743821 0.000702901 0.000636732 0.000545315 0.000428648 0.000286732 0.000118043 -7.89416e-05 -0.000304223 -0.000557801 -0.000839675 -0.00114985 -0.00148831 -0.00185508 -0.00224204 -0.00264112 -0.00305231 -0.00347562 -0.00391103 -0.00435856 -0.0048182 -0.00528995 -0.00576322 -0.0062274 -0.00668251 -0.00712853 -0.00756546 -0.00799332 -0.00841209 -0.00882178 -0.00921556 -0.00958662 -0.00993494 -0.0102605 -0.0105634 -0.0108435 -0.0111009 -0.0113356 -0.0115449 -0.0117264 -0.0118799 -0.0120055 -0.0121032 -0.012173 -0.0122148 -0.0122288 -0.0122148 -0.012173 -0.0121032 -0.0120055 -0.0118799 -0.0117264 -0.0115449 -0.0113356 -0.0111009 -0.0108435 -0.0105634 -0.0102605 -0.00993494 -0.00958662 -0.00921556 -0.00882178 -0.00841209 -0.00799332 -0.00756546 -0.00712853 -0.00668251 -0.0062274 -0.00576322 -0.00528995 -0.0048182 -0.00435856 -0.00391103 -0.00347562 -0.00305231 -0.00264112 -0.00224204 -0.00185508 -0.00148831 -0.00114985 -0.000839675 -0.000557801 -0.000304223 -7.89416e-05 0.000118043 0.000286732 0.000428648 0.000545314 0.000636732 0.000702901 0.000743821 0.000759492 0.000749914 0.000715087 0.000666497 0.000615632 0.00056249 0.000507072 0.000449378 0.000389408 0.000327162 0.00026264 0.000201084 0.000147735 0.000102594 6.56601e-05 3.69338e-05 1.6415e-05 4.10376e-06 0 0 4.89042e-06 1.95617e-05 4.40138e-05 7.82468e-05 0.000122261 0.000176055 0.000239631 0.000312987 0.000389408 0.000462179 0.000531299 0.000596768 0.000658587 0.000716754 0.000771271 0.000822137 0.000855717 0.000858374 0.000830108 0.00077092 0.000680809 0.000559776 0.00040782 0.000224941 9.96444e-06 -0.000238286 -0.000519812 -0.000834611 -0.00118268 -0.00156403 -0.00197865 -0.00242655 -0.00289808 -0.0033836 -0.00388312 -0.00439663 -0.00492413 -0.00546563 -0.00602112 -0.0065906 -0.00716202 -0.00772333 -0.00827453 -0.00881561 -0.00934657 -0.00986742 -0.0103782 -0.0108788 -0.0113609 -0.0118161 -0.0122444 -0.0126458 -0.0130202 -0.0133678 -0.0136885 -0.0139822 -0.014245 -0.0144727 -0.0146654 -0.0148231 -0.0149457 -0.0150333 -0.0150858 -0.0151034 -0.0150858 -0.0150333 -0.0149457 -0.0148231 -0.0146654 -0.0144727 -0.014245 -0.0139822 -0.0136885 -0.0133678 -0.0130202 -0.0126458 -0.0122444 -0.0118161 -0.0113609 -0.0108788 -0.0103782 -0.00986742 -0.00934657 -0.00881561 -0.00827453 -0.00772333 -0.00716202 -0.0065906 -0.00602112 -0.00546563 -0.00492413 -0.00439663 -0.00388312 -0.0033836 -0.00289808 -0.00242655 -0.00197865 -0.00156403 -0.00118268 -0.000834611 -0.000519812 -0.000238286 9.96444e-06 0.000224941 0.00040782 0.000559776 0.000680809 0.00077092 0.000830108 0.000858374 0.000855717 0.000822137 0.000771271 0.000716754 0.000658586 0.000596768 0.000531299 0.000462179 0.000389408 0.000312987 0.000239631 0.000176055 0.000122261 7.82468e-05 4.40138e-05 1.95617e-05 4.89042e-06 0 0 5.65274e-06 2.2611e-05 5.08747e-05 9.04439e-05 0.000141319 0.000203499 0.000276984 0.000361776 0.000449378 0.000531299 0.000607537 0.000678094 0.000742968 0.00080216 0.000855669 0.000903497 0.000929962 0.000919386 0.000871768 0.000787108 0.000665407 0.000506664 0.000310879 7.80529e-05 -0.000192177 -0.000500172 -0.000845932 -0.00122946 -0.00165075 -0.0021098 -0.00260662 -0.00314121 -0.00370242 -0.00427912 -0.00487131 -0.00547899 -0.00610215 -0.0067408 -0.00739495 -0.00806458 -0.00873666 -0.00939815 -0.0100491 -0.0106894 -0.0113191 -0.0119383 -0.0125468 -0.0131448 -0.0137221 -0.0142685 -0.0147841 -0.0152689 -0.0157229 -0.0161461 -0.0165384 -0.0168999 -0.0172243 -0.0175055 -0.0177435 -0.0179381 -0.0180896 -0.0181977 -0.0182626 -0.0182842 -0.0182626 -0.0181977 -0.0180896 -0.0179381 -0.0177435 -0.0175055 -0.0172243 -0.0168999 -0.0165384 -0.0161461 -0.0157229 -0.0152689 -0.0147841 -0.0142685 -0.0137221 -0.0131448 -0.0125468 -0.0119383 -0.0113191 -0.0106894 -0.0100491 -0.00939815 -0.00873666 -0.00806458 -0.00739495 -0.0067408 -0.00610215 -0.00547899 -0.00487131 -0.00427912 -0.00370242 -0.00314121 -0.00260662 -0.0021098 -0.00165075 -0.00122946 -0.000845932 -0.000500172 -0.000192177 7.80529e-05 0.000310879 0.000506664 0.000665407 0.000787108 0.000871768 0.000919386 0.000929962 0.000903496 0.000855669 0.000802159 0.000742968 0.000678094 0.000607537 0.000531299 0.000449378 0.000361776 0.000276984 0.000203499 0.000141319 9.04439e-05 5.08747e-05 2.2611e-05 5.65274e-06 0 0 6.39072e-06 2.55629e-05 5.75165e-05 0.000102251 0.000159768 0.000230066 0.000313145 0.000409006 0.000507072 0.000596768 0.000678094 0.000751049 0.000815633 0.000871848 0.000919692 0.000959165 0.00097265 0.000942529 0.000868801 0.000751467 0.000590527 0.00038598 0.000137826 -0.000153933 -0.000488381 -0.000864597 -0.00128258 -0.00174234 -0.00224386 -0.00278716 -0.00337222 -0.00399905 -0.00465507 -0.00532768 -0.00601689 -0.00672269 -0.00744509 -0.00818409 -0.00893969 -0.00971188 -0.0104871 -0.0112519 -0.0120061 -0.0127499 -0.0134831 -0.0142058 -0.0149181 -0.0156199 -0.0162991 -0.0169439 -0.0175542 -0.01813 -0.0186714 -0.0191783 -0.0196507 -0.0200886 -0.020483 -0.0208248 -0.0211141 -0.0213507 -0.0215348 -0.0216662 -0.0217451 -0.0217714 -0.0217451 -0.0216662 -0.0215348 -0.0213507 -0.0211141 -0.0208248 -0.020483 -0.0200886 -0.0196507 -0.0191783 -0.0186714 -0.01813 -0.0175542 -0.0169439 -0.0162991 -0.0156199 -0.0149181 -0.0142058 -0.0134831 -0.0127499 -0.0120061 -0.0112519 -0.0104871 -0.00971188 -0.00893969 -0.00818409 -0.00744509 -0.00672269 -0.00601689 -0.00532768 -0.00465507 -0.00399905 -0.00337222 -0.00278716 -0.00224386 -0.00174234 -0.00128258 -0.000864597 -0.000488381 -0.000153933 0.000137826 0.00038598 0.000590526 0.000751467 0.000868801 0.000942529 0.00097265 0.000959165 0.000919692 0.000871848 0.000815633 0.000751049 0.000678094 0.000596768 0.000507072 0.000409006 0.000313145 0.000230066 0.000159768 0.000102251 5.75165e-05 2.55629e-05 6.39072e-06 0 0 7.10435e-06 2.84174e-05 6.39391e-05 0.00011367 0.000177609 0.000255756 0.000348113 0.000454678 0.00056249 0.000658587 0.000742968 0.000815633 0.000876584 0.000925819 0.000963338 0.000989143 0.000983781 0.000927803 0.000821208 0.000663996 0.000456168 0.000197723 -0.000111339 -0.000471017 -0.000878647 -0.00133156 -0.00182977 -0.00237326 -0.00296203 -0.00359609 -0.00427544 -0.00500008 -0.00575602 -0.00652927 -0.00731985 -0.00812774 -0.00895296 -0.00979549 -0.0106553 -0.0115325 -0.0124134 -0.0132845 -0.0141457 -0.014997 -0.0158385 -0.0166702 -0.017492 -0.0183039 -0.019092 -0.0198423 -0.0205546 -0.0212291 -0.0218657 -0.0224645 -0.0230254 -0.0235484 -0.024021 -0.0244306 -0.0247772 -0.0250607 -0.0252813 -0.0254388 -0.0255333 -0.0255649 -0.0255333 -0.0254388 -0.0252813 -0.0250607 -0.0247772 -0.0244306 -0.024021 -0.0235484 -0.0230254 -0.0224645 -0.0218657 -0.0212291 -0.0205546 -0.0198423 -0.019092 -0.0183039 -0.017492 -0.0166702 -0.0158385 -0.014997 -0.0141457 -0.0132845 -0.0124134 -0.0115325 -0.0106553 -0.00979549 -0.00895296 -0.00812774 -0.00731985 -0.00652927 -0.00575602 -0.00500008 -0.00427544 -0.00359609 -0.00296203 -0.00237326 -0.00182977 -0.00133156 -0.000878647 -0.000471017 -0.000111339 0.000197723 0.000456167 0.000663996 0.000821207 0.000927802 0.000983781 0.000989143 0.000963338 0.000925819 0.000876584 0.000815633 0.000742968 0.000658587 0.00056249 0.000454678 0.000348113 0.000255756 0.000177609 0.00011367 6.39391e-05 2.84174e-05 7.10435e-06 0 0 7.79363e-06 3.11745e-05 7.01427e-05 0.000124698 0.000194841 0.000280571 0.000381888 0.000498792 0.000615632 0.000716754 0.00080216 0.000871848 0.000925819 0.000964073 0.00098661 0.000993429 0.000963354 0.000875207 0.000728987 0.000524695 0.00026233 -5.81072e-05 -0.000436617 -0.000873199 -0.00136298 -0.00190107 -0.00248748 -0.00312221 -0.00380525 -0.00453662 -0.00531629 -0.00614429 -0.00700527 -0.00788391 -0.0087802 -0.00969414 -0.0106257 -0.011575 -0.0125419 -0.0135265 -0.0145155 -0.015496 -0.0164677 -0.0174309 -0.0183854 -0.0193312 -0.0202685 -0.021197 -0.0221008 -0.0229636 -0.0237853 -0.0245661 -0.0253059 -0.0260047 -0.0266625 -0.0272793 -0.0278384 -0.0283229 -0.0287329 -0.0290683 -0.0293292 -0.0295155 -0.0296273 -0.0296646 -0.0296273 -0.0295155 -0.0293292 -0.0290683 -0.0287329 -0.0283229 -0.0278384 -0.0272793 -0.0266625 -0.0260047 -0.0253059 -0.0245661 -0.0237853 -0.0229636 -0.0221008 -0.021197 -0.0202685 -0.0193312 -0.0183854 -0.0174309 -0.0164677 -0.015496 -0.0145155 -0.0135265 -0.0125419 -0.011575 -0.0106257 -0.00969414 -0.0087802 -0.00788391 -0.00700527 -0.00614429 -0.00531629 -0.00453662 -0.00380525 -0.00312221 -0.00248748 -0.00190107 -0.00136298 -0.000873199 -0.000436617 -5.81073e-05 0.00026233 0.000524695 0.000728987 0.000875207 0.000963354 0.000993429 0.00098661 0.000964073 0.000925819 0.000871848 0.000802159 0.000716754 0.000615632 0.000498792 0.000381888 0.000280571 0.000194841 0.000124698 7.01427e-05 3.11745e-05 7.79363e-06 0 0 8.45857e-06 3.38343e-05 7.61271e-05 0.000135337 0.000211464 0.000304508 0.00041447 0.000541348 0.000666497 0.000771271 0.000855669 0.000919692 0.000963338 0.00098661 0.000989505 0.000972025 0.000911371 0.000784742 0.00059214 0.000333564 9.01397e-06 -0.00038151 -0.000838007 -0.00136048 -0.00194137 -0.00257312 -0.00325573 -0.0039892 -0.00477353 -0.00560872 -0.00649477 -0.00743169 -0.00840283 -0.00939158 -0.0103979 -0.0114219 -0.0124635 -0.0135226 -0.0145994 -0.0156937 -0.0167935 -0.0178863 -0.0189723 -0.0200514 -0.0211237 -0.0221891 -0.0232476 -0.0242992 -0.0253254 -0.0263078 -0.0272464 -0.0281411 -0.0289919 -0.0297989 -0.030562 -0.0312813 -0.031935 -0.0325016 -0.0329811 -0.0333733 -0.0336784 -0.0338963 -0.0340271 -0.0340706 -0.0340271 -0.0338963 -0.0336784 -0.0333733 -0.0329811 -0.0325016 -0.031935 -0.0312813 -0.030562 -0.0297989 -0.0289919 -0.0281411 -0.0272464 -0.0263078 -0.0253254 -0.0242992 -0.0232476 -0.0221891 -0.0211237 -0.0200514 -0.0189723 -0.0178863 -0.0167935 -0.0156937 -0.0145994 -0.0135226 -0.0124635 -0.0114219 -0.0103979 -0.00939158 -0.00840283 -0.00743169 -0.00649477 -0.00560872 -0.00477353 -0.0039892 -0.00325573 -0.00257312 -0.00194137 -0.00136048 -0.000838007 -0.00038151 9.01394e-06 0.000333564 0.00059214 0.000784742 0.000911371 0.000972025 0.000989505 0.00098661 0.000963338 0.000919692 0.000855669 0.000771271 0.000666497 0.000541348 0.00041447 0.000304508 0.000211464 0.000135337 7.61271e-05 3.38343e-05 8.45856e-06 0 0 9.09916e-06 3.63966e-05 8.18924e-05 0.000145586 0.000227479 0.00032757 0.000445859 0.000582346 0.000715087 0.000822137 0.000903497 0.000959165 0.000989143 0.000993429 0.000972025 0.00092493 0.00082783 0.000656408 0.000410666 9.06031e-05 -0.000303781 -0.000772485 -0.00131551 -0.00193286 -0.00261382 -0.0033477 -0.0041345 -0.00497422 -0.00586686 -0.00681241 -0.00781088 -0.00886227 -0.0099487 -0.0110523 -0.0121731 -0.013311 -0.0144661 -0.0156383 -0.0168278 -0.0180344 -0.0192473 -0.0204556 -0.0216594 -0.0228587 -0.0240534 -0.0252436 -0.0264292 -0.0276103 -0.0287659 -0.0298751 -0.0309377 -0.031954 -0.0329237 -0.0338471 -0.0347239 -0.0355543 -0.036311 -0.0369669 -0.0375218 -0.0379758 -0.038329 -0.0385812 -0.0387325 -0.038783 -0.0387325 -0.0385812 -0.038329 -0.0379758 -0.0375218 -0.0369669 -0.036311 -0.0355543 -0.0347239 -0.0338471 -0.0329237 -0.031954 -0.0309377 -0.0298751 -0.0287659 -0.0276103 -0.0264292 -0.0252436 -0.0240534 -0.0228587 -0.0216594 -0.0204556 -0.0192473 -0.0180344 -0.0168278 -0.0156383 -0.0144661 -0.013311 -0.0121731 -0.0110523 -0.0099487 -0.00886227 -0.00781088 -0.00681241 -0.00586686 -0.00497422 -0.0041345 -0.0033477 -0.00261382 -0.00193286 -0.00131551 -0.000772485 -0.000303781 9.06031e-05 0.000410666 0.000656408 0.00082783 0.00092493 0.000972025 0.000993429 0.000989143 0.000959165 0.000903497 0.000822137 0.000715087 0.000582346 0.000445859 0.00032757 0.000227479 0.000145586 8.18924e-05 3.63966e-05 9.09916e-06 0 0 9.57116e-06 3.82846e-05 8.61404e-05 0.000153139 0.000239279 0.000344562 0.000468987 0.000612554 0.000749914 0.000855717 0.000929962 0.00097265 0.000983781 0.000963354 0.000911371 0.00082783 0.000687679 0.000465866 0.00016239 -0.000222747 -0.000689547 -0.00123801 -0.00186813 -0.00257992 -0.0033586 -0.0041894 -0.00507232 -0.00600737 -0.00699453 -0.00803382 -0.00912523 -0.0102688 -0.0114459 -0.012638 -0.0138451 -0.0150673 -0.0163044 -0.0175566 -0.0188239 -0.0201061 -0.0213955 -0.0226844 -0.0239726 -0.0252603 -0.0265473 -0.0278338 -0.0291196 -0.0304049 -0.0316665 -0.0328816 -0.03405 -0.0351719 -0.0362471 -0.0372757 -0.0382577 -0.0391932 -0.0400483 -0.0407894 -0.0414164 -0.0419295 -0.0423286 -0.0426136 -0.0427846 -0.0428416 -0.0427846 -0.0426136 -0.0423286 -0.0419295 -0.0414164 -0.0407894 -0.0400483 -0.0391932 -0.0382577 -0.0372757 -0.0362471 -0.0351719 -0.03405 -0.0328816 -0.0316665 -0.0304049 -0.0291196 -0.0278338 -0.0265473 -0.0252603 -0.0239726 -0.0226844 -0.0213955 -0.0201061 -0.0188239 -0.0175566 -0.0163044 -0.0150673 -0.0138451 -0.012638 -0.0114459 -0.0102688 -0.00912523 -0.00803382 -0.00699453 -0.00600737 -0.00507232 -0.0041894 -0.0033586 -0.00257992 -0.00186813 -0.00123801 -0.000689547 -0.000222747 0.00016239 0.000465866 0.000687679 0.00082783 0.000911371 0.000963354 0.000983781 0.00097265 0.000929962 0.000855717 0.000749914 0.000612554 0.000468987 0.000344562 0.000239279 0.000153139 8.61404e-05 3.82846e-05 9.57116e-06 0 0 9.73033e-06 3.89213e-05 8.7573e-05 0.000155685 0.000243258 0.000350292 0.000476786 0.000622741 0.000759492 0.000858374 0.000919386 0.000942529 0.000927803 0.000875207 0.000784742 0.000656408 0.000465866 0.000188776 -0.000174862 -0.000625047 -0.00116178 -0.00178506 -0.00249489 -0.00329126 -0.00415396 -0.00506277 -0.00601769 -0.00701871 -0.00806584 -0.00915908 -0.0102984 -0.0114839 -0.0126973 -0.0139205 -0.0151536 -0.0163966 -0.0176494 -0.018912 -0.0201844 -0.0214667 -0.0227569 -0.0240532 -0.0253554 -0.0266637 -0.027978 -0.0292984 -0.0306247 -0.0319571 -0.0332714 -0.0345436 -0.0357737 -0.0369617 -0.0381076 -0.0392114 -0.0402731 -0.0412926 -0.0422287 -0.04304 -0.0437264 -0.0442881 -0.0447249 -0.045037 -0.0452242 -0.0452866 -0.0452242 -0.045037 -0.0447249 -0.0442881 -0.0437264 -0.04304 -0.0422287 -0.0412926 -0.0402731 -0.0392114 -0.0381076 -0.0369617 -0.0357737 -0.0345436 -0.0332714 -0.0319571 -0.0306247 -0.0292984 -0.027978 -0.0266637 -0.0253554 -0.0240532 -0.0227569 -0.0214667 -0.0201844 -0.018912 -0.0176494 -0.0163966 -0.0151536 -0.0139205 -0.0126973 -0.0114839 -0.0102984 -0.00915908 -0.00806584 -0.00701871 -0.00601769 -0.00506277 -0.00415396 -0.00329126 -0.00249489 -0.00178506 -0.00116178 -0.000625047 -0.000174862 0.000188776 0.000465866 0.000656408 0.000784742 0.000875207 0.000927803 0.000942529 0.000919386 0.000858374 0.000759492 0.000622741 0.000476786 0.000350292 0.000243258 0.000155685 8.7573e-05 3.89213e-05 9.73033e-06 0 0 9.57668e-06 3.83067e-05 8.61901e-05 0.000153227 0.000239417 0.000344761 0.000469257 0.000612908 0.000743821 0.000830108 0.000871768 0.000868801 0.000821208 0.000728987 0.00059214 0.000410666 0.000162391 -0.000174862 -0.00060109 -0.0011163 -0.00172048 -0.00241363 -0.00319577 -0.00406688 -0.00499992 -0.00596782 -0.0069706 -0.00800826 -0.00908079 -0.0101882 -0.0113305 -0.0125076 -0.013703 -0.0149 -0.0160987 -0.0172989 -0.0185008 -0.0197043 -0.0209095 -0.0221163 -0.0233315 -0.0245621 -0.0258079 -0.0270691 -0.0283456 -0.0296374 -0.0309446 -0.032267 -0.0335806 -0.0348613 -0.036109 -0.0373236 -0.0385054 -0.0396541 -0.0407699 -0.0418527 -0.0428523 -0.0437187 -0.0444518 -0.0450516 -0.0455181 -0.0458513 -0.0460512 -0.0461179 -0.0460512 -0.0458513 -0.0455181 -0.0450516 -0.0444518 -0.0437187 -0.0428523 -0.0418527 -0.0407699 -0.0396541 -0.0385054 -0.0373236 -0.036109 -0.0348613 -0.0335806 -0.032267 -0.0309446 -0.0296374 -0.0283456 -0.0270691 -0.0258079 -0.0245621 -0.0233315 -0.0221163 -0.0209095 -0.0197043 -0.0185008 -0.0172989 -0.0160987 -0.0149 -0.013703 -0.0125076 -0.0113305 -0.0101882 -0.00908079 -0.00800826 -0.0069706 -0.00596782 -0.00499992 -0.00406688 -0.00319577 -0.00241363 -0.00172048 -0.0011163 -0.00060109 -0.000174862 0.00016239 0.000410666 0.00059214 0.000728987 0.000821208 0.000868801 0.000871768 0.000830108 0.000743821 0.000612908 0.000469257 0.000344761 0.000239417 0.000153227 8.61901e-05 3.83067e-05 9.57668e-06 0 0 9.1102e-06 3.64408e-05 8.19918e-05 0.000145763 0.000227755 0.000327967 0.0004464 0.000583053 0.000702901 0.00077092 0.000787108 0.000751467 0.000663996 0.000524695 0.000333564 9.06031e-05 -0.000222747 -0.000625047 -0.0011163 -0.00169649 -0.00236564 -0.00312374 -0.00397078 -0.00490677 -0.00589645 -0.00690455 -0.00793107 -0.00897601 -0.0100394 -0.0111211 -0.0122213 -0.01334 -0.014463 -0.0155764 -0.0166801 -0.0177743 -0.0188588 -0.0199337 -0.020999 -0.0220547 -0.0231192 -0.024211 -0.0253301 -0.0264764 -0.02765 -0.028851 -0.0300792 -0.0313347 -0.0325942 -0.0338345 -0.0350556 -0.0362576 -0.0374403 -0.0386038 -0.0397482 -0.0408733 -0.0419191 -0.0428255 -0.0435924 -0.0442199 -0.0447079 -0.0450566 -0.0452657 -0.0453354 -0.0452657 -0.0450566 -0.0447079 -0.0442199 -0.0435924 -0.0428255 -0.0419191 -0.0408733 -0.0397482 -0.0386038 -0.0374403 -0.0362576 -0.0350556 -0.0338345 -0.0325942 -0.0313347 -0.0300792 -0.028851 -0.02765 -0.0264764 -0.0253301 -