<?xml version="1.0"?> 
<VTKFile type="StructuredGrid" version="0.1"> 
<StructuredGrid WholeExtent="0 128 0 128 0 0"> 
<Piece Extent="0 128 0 128 0 0"> 
<PointData>
<DataArray type="Float32" Name="u" format="ascii" NumberOfComponents="1"> 
0 0 0 0 0 0 0 0 0 0 0 0 0 0 0 0 0 0 0 0 0 0 0 0 0 0 0 0 0 0 0 0 0 0 0 0 0 0 0 0 0 0 0 0 0 0 0 0 0 0 0 0 0 0 0 0 0 0 0 0 0 0 0 0 0 0 0 0 0 0 0 0 0 0 0 0 0 0 0 0 0 0 0 0 0 0 0 0 0 0 0 0 0 0 0 0 0 0 0 0 0 0 0 0 0 0 0 0 0 0 0 0 0 0 0 0 0 0 0 0 0 0 0 0 0 0 0 0 0 0 -6.35067e-08 -2.54027e-07 -5.7156e-07 -1.01611e-06 -1.58767e-06 -2.28624e-06 -3.11183e-06 -4.06443e-06 -5.16932e-06 -6.4518e-06 -7.91185e-06 -9.54948e-06 -1.13647e-05 -1.33575e-05 -1.55278e-05 -1.78758e-05 -2.02991e-05 -2.26958e-05 -2.50656e-05 -2.74088e-05 -2.97251e-05 -3.20148e-05 -3.42777e-05 -3.65138e-05 -3.86599e-05 -4.06523e-05 -4.24913e-05 -4.41767e-05 -4.57086e-05 -4.7087e-05 -4.83118e-05 -4.93831e-05 -5.02915e-05 -5.10276e-05 -5.15913e-05 -5.19827e-05 -5.22018e-05 -5.22486e-05 -5.21231e-05 -5.18252e-05 -5.13916e-05 -5.08587e-05 -5.02267e-05 -4.94954e-05 -4.8665e-05 -4.77353e-05 -4.67064e-05 -4.55783e-05 -4.44132e-05 -4.32734e-05 -4.21588e-05 -4.10694e-05 -4.00053e-05 -3.89665e-05 -3.79528e-05 -3.69644e-05 -3.60497e-05 -3.52569e-05 -3.4586e-05 -3.40372e-05 -3.36103e-05 -3.33054e-05 -3.31224e-05 -3.30614e-05 -3.31224e-05 -3.33054e-05 -3.36103e-05 -3.40372e-05 -3.4586e-05 -3.52569e-05 -3.60497e-05 -3.69644e-05 -3.79528e-05 -3.89664e-05 -4.00053e-05 -4.10694e-05 -4.21588e-05 -4.32734e-05 -4.44132e-05 -4.55783e-05 -4.67064e-05 -4.77353e-05 -4.8665e-05 -4.94954e-05 -5.02267e-05 -5.08587e-05 -5.13916e-05 -5.18252e-05 -5.21231e-05 -5.22486e-05 -5.22018e-05 -5.19827e-05 -5.15913e-05 -5.10276e-05 -5.02915e-05 -4.93831e-05 -4.83118e-05 -4.7087e-05 -4.57086e-05 -4.41767e-05 -4.24913e-05 -4.06524e-05 -3.86599e-05 -3.65138e-05 -3.42777e-05 -3.20148e-05 -2.97251e-05 -2.74088e-05 -2.50656e-05 -2.26958e-05 -2.02991e-05 -1.78758e-05 -1.55278e-05 -1.33575e-05 -1.13647e-05 -9.54949e-06 -7.91186e-06 -6.4518e-06 -5.16933e-06 -4.06443e-06 -3.11183e-06 -2.28624e-06 -1.58767e-06 -1.01611e-06 -5.71561e-07 -2.54027e-07 -6.35068e-08 0 0 -2.54027e-07 -1.01611e-06 -2.28624e-06 -4.06443e-06 -6.35067e-06 -9.14496e-06 -1.24473e-05 -1.62577e-05 -2.06773e-05 -2.58072e-05 -3.16474e-05 -3.81979e-05 -4.54587e-05 -5.34299e-05 -6.21113e-05 -7.15031e-05 -8.11965e-05 -9.0783e-05 -0.000100262 -0.000109635 -0.000118901 -0.000128059 -0.000137111 -0.000146055 -0.000154639 -0.000162609 -0.000169965 -0.000176707 -0.000182835 -0.000188348 -0.000193247 -0.000197533 -0.000201166 -0.00020411 -0.000206365 -0.000207931 -0.000208807 -0.000208994 -0.000208492 -0.000207301 -0.000205566 -0.000203435 -0.000200907 -0.000197982 -0.00019466 -0.000190941 -0.000186826 -0.000182313 -0.000177653 -0.000173093 -0.000168635 -0.000164278 -0.000160021 -0.000155866 -0.000151811 -0.000147858 -0.000144199 -0.000141028 -0.000138344 -0.000136149 -0.000134441 -0.000133221 -0.00013249 -0.000132246 -0.00013249 -0.000133221 -0.000134441 -0.000136149 -0.000138344 -0.000141027 -0.000144199 -0.000147858 -0.000151811 -0.000155866 -0.000160021 -0.000164278 -0.000168635 -0.000173093 -0.000177653 -0.000182313 -0.000186826 -0.000190941 -0.00019466 -0.000197982 -0.000200907 -0.000203435 -0.000205566 -0.000207301 -0.000208492 -0.000208994 -0.000208807 -0.000207931 -0.000206365 -0.00020411 -0.000201166 -0.000197533 -0.000193247 -0.000188348 -0.000182835 -0.000176707 -0.000169965 -0.000162609 -0.000154639 -0.000146055 -0.000137111 -0.000128059 -0.000118901 -0.000109635 -0.000100263 -9.0783e-05 -8.11966e-05 -7.15031e-05 -6.21114e-05 -5.34299e-05 -4.54588e-05 -3.81979e-05 -3.16474e-05 -2.58072e-05 -2.06773e-05 -1.62577e-05 -1.24473e-05 -9.14497e-06 -6.35068e-06 -4.06443e-06 -2.28624e-06 -1.01611e-06 -2.54027e-07 0 0 -5.7156e-07 -2.28624e-06 -5.14404e-06 -9.14496e-06 -1.4289e-05 -2.05762e-05 -2.80065e-05 -3.65799e-05 -4.65239e-05 -5.80662e-05 -7.12067e-05 -8.59453e-05 -0.000102282 -0.000120217 -0.000139751 -0.000160882 -0.000182692 -0.000204262 -0.000225591 -0.000246679 -0.000267526 -0.000288133 -0.000308499 -0.000328625 -0.000347939 -0.000365871 -0.000382422 -0.000397591 -0.000411378 -0.000423783 -0.000434807 -0.000444448 -0.000452624 -0.000459248 -0.000464322 -0.000467845 -0.000469817 -0.000470238 -0.000469108 -0.000466427 -0.000462524 -0.000457729 -0.00045204 -0.000445459 -0.000437985 -0.000429618 -0.000420358 -0.000410205 -0.000399719 -0.00038946 -0.000379429 -0.000369625 -0.000360048 -0.000350698 -0.000341575 -0.00033268 -0.000324447 -0.000317312 -0.000311274 -0.000306335 -0.000302493 -0.000299748 -0.000298102 -0.000297553 -0.000298102 -0.000299748 -0.000302493 -0.000306335 -0.000311274 -0.000317312 -0.000324447 -0.00033268 -0.000341575 -0.000350698 -0.000360048 -0.000369625 -0.000379429 -0.00038946 -0.000399719 -0.000410205 -0.000420358 -0.000429618 -0.000437985 -0.000445459 -0.00045204 -0.000457729 -0.000462524 -0.000466427 -0.000469108 -0.000470238 -0.000469817 -0.000467845 -0.000464322 -0.000459248 -0.000452624 -0.000444448 -0.000434807 -0.000423783 -0.000411378 -0.000397591 -0.000382422 -0.000365871 -0.000347939 -0.000328625 -0.000308499 -0.000288133 -0.000267526 -0.000246679 -0.000225591 -0.000204262 -0.000182692 -0.000160882 -0.000139751 -0.000120217 -0.000102282 -8.59454e-05 -7.12067e-05 -5.80662e-05 -4.6524e-05 -3.65799e-05 -2.80065e-05 -2.05762e-05 -1.4289e-05 -9.14497e-06 -5.14405e-06 -2.28624e-06 -5.71561e-07 0 0 -1.01611e-06 -4.06443e-06 -9.14496e-06 -1.62577e-05 -2.54027e-05 -3.65799e-05 -4.97892e-05 -6.50309e-05 -8.27092e-05 -0.000103229 -0.00012659 -0.000152792 -0.000181835 -0.00021372 -0.000248445 -0.000286012 -0.000324786 -0.000363132 -0.00040105 -0.00043854 -0.000475602 -0.000512236 -0.000548443 -0.000584221 -0.000618558 -0.000650438 -0.000679861 -0.000706828 -0.000731338 -0.000753392 -0.000772989 -0.00079013 -0.000804664 -0.000816441 -0.000825461 -0.000831724 -0.000835229 -0.000835978 -0.000833969 -0.000829203 -0.000822265 -0.00081374 -0.000803627 -0.000791927 -0.000778639 -0.000763765 -0.000747302 -0.000729253 -0.000710611 -0.000692374 -0.00067454 -0.000657111 -0.000640085 -0.000623463 -0.000607245 -0.000591431 -0.000576795 -0.00056411 -0.000553377 -0.000544595 -0.000537765 -0.000532886 -0.000529959 -0.000528983 -0.000529959 -0.000532886 -0.000537765 -0.000544595 -0.000553377 -0.00056411 -0.000576795 -0.000591431 -0.000607245 -0.000623463 -0.000640085 -0.000657111 -0.00067454 -0.000692374 -0.000710611 -0.000729253 -0.000747302 -0.000763765 -0.000778639 -0.000791927 -0.000803627 -0.00081374 -0.000822265 -0.000829203 -0.000833969 -0.000835978 -0.000835229 -0.000831724 -0.000825461 -0.000816441 -0.000804664 -0.00079013 -0.000772989 -0.000753392 -0.000731338 -0.000706828 -0.000679861 -0.000650438 -0.000618558 -0.000584222 -0.000548443 -0.000512237 -0.000475602 -0.00043854 -0.00040105 -0.000363132 -0.000324786 -0.000286013 -0.000248446 -0.00021372 -0.000181835 -0.000152792 -0.00012659 -0.000103229 -8.27093e-05 -6.50309e-05 -4.97893e-05 -3.65799e-05 -2.54027e-05 -1.62577e-05 -9.14497e-06 -4.06443e-06 -1.01611e-06 0 0 -1.58767e-06 -6.35067e-06 -1.4289e-05 -2.54027e-05 -3.96917e-05 -5.7156e-05 -7.77957e-05 -0.000101611 -0.000129233 -0.000161295 -0.000197796 -0.000238737 -0.000284117 -0.000333937 -0.000388196 -0.000446894 -0.000507478 -0.000567394 -0.000626641 -0.000685219 -0.000743128 -0.00080037 -0.000856942 -0.000912846 -0.000966496 -0.00101631 -0.00106228 -0.00110442 -0.00114272 -0.00117717 -0.0012078 -0.00123458 -0.00125729 -0.00127569 -0.00128978 -0.00129957 -0.00130505 -0.00130622 -0.00130308 -0.00129563 -0.00128479 -0.00127147 -0.00125567 -0.00123739 -0.00121662 -0.00119338 -0.00116766 -0.00113946 -0.00111033 -0.00108183 -0.00105397 -0.00102674 -0.00100013 -0.000974161 -0.000948821 -0.000924111 -0.000901242 -0.000881422 -0.000864651 -0.000850929 -0.000840257 -0.000832634 -0.00082806 -0.000826536 -0.00082806 -0.000832634 -0.000840257 -0.000850929 -0.000864651 -0.000881422 -0.000901242 -0.000924111 -0.000948821 -0.000974161 -0.00100013 -0.00102674 -0.00105397 -0.00108183 -0.00111033 -0.00113946 -0.00116766 -0.00119338 -0.00121662 -0.00123739 -0.00125567 -0.00127147 -0.00128479 -0.00129563 -0.00130308 -0.00130622 -0.00130505 -0.00129957 -0.00128978 -0.00127569 -0.00125729 -0.00123458 -0.0012078 -0.00117718 -0.00114272 -0.00110442 -0.00106228 -0.00101631 -0.000966497 -0.000912846 -0.000856942 -0.00080037 -0.000743129 -0.000685219 -0.000626641 -0.000567394 -0.000507479 -0.000446895 -0.000388196 -0.000333937 -0.000284117 -0.000238737 -0.000197796 -0.000161295 -0.000129233 -0.000101611 -7.77958e-05 -5.71561e-05 -3.96917e-05 -2.54027e-05 -1.4289e-05 -6.35068e-06 -1.58767e-06 0 0 -2.28624e-06 -9.14496e-06 -2.05762e-05 -3.65799e-05 -5.7156e-05 -8.23047e-05 -0.000112026 -0.000146319 -0.000186096 -0.000232265 -0.000284827 -0.000343781 -0.000409129 -0.000480869 -0.000559002 -0.000643528 -0.000730769 -0.000817047 -0.000902362 -0.000986715 -0.0010701 -0.00115253 -0.001234 -0.0013145 -0.00139175 -0.00146348 -0.00152969 -0.00159036 -0.00164551 -0.00169513 -0.00173923 -0.00177779 -0.00181049 -0.00183699 -0.00185729 -0.00187138 -0.00187927 -0.00188095 -0.00187643 -0.00186571 -0.0018501 -0.00183091 -0.00180816 -0.00178184 -0.00175194 -0.00171847 -0.00168143 -0.00164082 -0.00159888 -0.00155784 -0.00151772 -0.0014785 -0.00144019 -0.00140279 -0.0013663 -0.00133072 -0.00129779 -0.00126925 -0.0012451 -0.00122534 -0.00120997 -0.00119899 -0.00119241 -0.00119021 -0.00119241 -0.00119899 -0.00120997 -0.00122534 -0.0012451 -0.00126925 -0.00129779 -0.00133072 -0.0013663 -0.00140279 -0.00144019 -0.0014785 -0.00151772 -0.00155784 -0.00159888 -0.00164082 -0.00168143 -0.00171847 -0.00175194 -0.00178184 -0.00180816 -0.00183091 -0.0018501 -0.00186571 -0.00187643 -0.00188095 -0.00187927 -0.00187138 -0.00185729 -0.00183699 -0.00181049 -0.00177779 -0.00173923 -0.00169513 -0.00164551 -0.00159036 -0.00152969 -0.00146348 -0.00139176 -0.0013145 -0.001234 -0.00115253 -0.00107011 -0.000986715 -0.000902363 -0.000817047 -0.000730769 -0.000643528 -0.000559002 -0.000480869 -0.000409129 -0.000343782 -0.000284827 -0.000232265 -0.000186096 -0.00014632 -0.000112026 -8.23048e-05 -5.71561e-05 -3.65799e-05 -2.05762e-05 -9.14497e-06 -2.28624e-06 0 0 -3.11183e-06 -1.24473e-05 -2.80065e-05 -4.97892e-05 -7.77957e-05 -0.000112026 -0.00015248 -0.000199157 -0.000253297 -0.000316138 -0.000387681 -0.000467925 -0.00055687 -0.000654516 -0.000760864 -0.000875913 -0.000994658 -0.00111209 -0.00122822 -0.00134303 -0.00145653 -0.00156872 -0.00167961 -0.00178918 -0.00189433 -0.00199196 -0.00208207 -0.00216466 -0.00223972 -0.00230726 -0.00236728 -0.00241977 -0.00246428 -0.00250035 -0.00252797 -0.00254715 -0.00255789 -0.00256018 -0.00255403 -0.00253944 -0.00251819 -0.00249208 -0.00246111 -0.00242528 -0.00238458 -0.00233903 -0.00228861 -0.00223334 -0.00217625 -0.0021204 -0.00206578 -0.0020124 -0.00196026 -0.00190936 -0.00185969 -0.00181126 -0.00176643 -0.00172759 -0.00169472 -0.00166782 -0.0016469 -0.00163196 -0.001623 -0.00162001 -0.001623 -0.00163196 -0.0016469 -0.00166782 -0.00169472 -0.00172759 -0.00176643 -0.00181126 -0.00185969 -0.00190936 -0.00196026 -0.0020124 -0.00206578 -0.0021204 -0.00217625 -0.00223334 -0.00228861 -0.00233903 -0.00238458 -0.00242528 -0.00246111 -0.00249208 -0.00251819 -0.00253944 -0.00255403 -0.00256018 -0.00255789 -0.00254715 -0.00252797 -0.00250035 -0.00246428 -0.00241977 -0.00236728 -0.00230726 -0.00223972 -0.00216466 -0.00208207 -0.00199197 -0.00189433 -0.00178918 -0.00167961 -0.00156872 -0.00145653 -0.00134303 -0.00122822 -0.00111209 -0.000994658 -0.000875914 -0.000760864 -0.000654517 -0.00055687 -0.000467925 -0.000387681 -0.000316138 -0.000253297 -0.000199157 -0.00015248 -0.000112026 -7.77958e-05 -4.97893e-05 -2.80065e-05 -1.24473e-05 -3.11183e-06 0 0 -4.06443e-06 -1.62577e-05 -3.65799e-05 -6.50309e-05 -0.000101611 -0.000146319 -0.000199157 -0.000260123 -0.000330837 -0.000412915 -0.000506358 -0.000611167 -0.00072734 -0.000854878 -0.000993782 -0.00114405 -0.00129914 -0.00145253 -0.0016042 -0.00175416 -0.00190241 -0.00204895 -0.00219377 -0.00233689 -0.00247423 -0.00260175 -0.00271944 -0.00282731 -0.00292535 -0.00301357 -0.00309196 -0.00316052 -0.00321866 -0.00326577 -0.00330184 -0.0033269 -0.00334092 -0.00334391 -0.00333588 -0.00331681 -0.00328906 -0.00325496 -0.00321451 -0.00316771 -0.00311456 -0.00305506 -0.00298921 -0.00291701 -0.00284245 -0.0027695 -0.00269816 -0.00262844 -0.00256034 -0.00249385 -0.00242898 -0.00236572 -0.00230718 -0.00225644 -0.00221351 -0.00217838 -0.00215106 -0.00213154 -0.00211983 -0.00211593 -0.00211983 -0.00213154 -0.00215106 -0.00217838 -0.00221351 -0.00225644 -0.00230718 -0.00236572 -0.00242898 -0.00249385 -0.00256034 -0.00262844 -0.00269816 -0.0027695 -0.00284245 -0.00291701 -0.00298921 -0.00305506 -0.00311456 -0.00316771 -0.00321451 -0.00325496 -0.00328906 -0.00331681 -0.00333588 -0.00334391 -0.00334092 -0.0033269 -0.00330184 -0.00326577 -0.00321866 -0.00316052 -0.00309196 -0.00301357 -0.00292535 -0.00282731 -0.00271944 -0.00260175 -0.00247423 -0.00233689 -0.00219377 -0.00204895 -0.00190241 -0.00175416 -0.0016042 -0.00145253 -0.00129915 -0.00114405 -0.000993782 -0.000854879 -0.000727341 -0.000611167 -0.000506359 -0.000412915 -0.000330837 -0.000260124 -0.000199157 -0.00014632 -0.000101611 -6.50309e-05 -3.65799e-05 -1.62577e-05 -4.06443e-06 0 0 -5.16932e-06 -2.06773e-05 -4.65239e-05 -8.27092e-05 -0.000129233 -0.000186096 -0.000253297 -0.000330837 -0.000420666 -0.000524736 -0.000643047 -0.000775598 -0.00092239 -0.00108342 -0.0012587 -0.00144821 -0.00164361 -0.00183652 -0.00202697 -0.00221493 -0.00240043 -0.00258344 -0.00276398 -0.00294204 -0.00311245 -0.00327004 -0.0034148 -0.00354673 -0.00366584 -0.00377212 -0.00386558 -0.00394621 -0.00401329 -0.0040661 -0.00410464 -0.0041289 -0.00413889 -0.00413461 -0.00411605 -0.00408322 -0.00403922 -0.00398718 -0.00392709 -0.00385894 -0.00378274 -0.00369849 -0.00360619 -0.00350584 -0.00340269 -0.00330199 -0.00320375 -0.00310795 -0.00301461 -0.00292371 -0.00283527 -0.00274929 -0.00266982 -0.00260095 -0.00254268 -0.002495 -0.00245791 -0.00243142 -0.00241553 -0.00241023 -0.00241553 -0.00243142 -0.00245791 -0.002495 -0.00254268 -0.00260095 -0.00266982 -0.00274929 -0.00283527 -0.00292371 -0.00301461 -0.00310795 -0.00320375 -0.00330199 -0.00340269 -0.00350584 -0.00360619 -0.00369849 -0.00378274 -0.00385894 -0.00392709 -0.00398718 -0.00403922 -0.00408322 -0.00411605 -0.00413461 -0.00413889 -0.0041289 -0.00410464 -0.0040661 -0.00401329 -0.00394621 -0.00386558 -0.00377212 -0.00366584 -0.00354673 -0.0034148 -0.00327004 -0.00311245 -0.00294204 -0.00276398 -0.00258344 -0.00240043 -0.00221494 -0.00202697 -0.00183653 -0.00164361 -0.00144821 -0.0012587 -0.00108342 -0.000922391 -0.000775599 -0.000643048 -0.000524737 -0.000420667 -0.000330837 -0.000253297 -0.000186096 -0.000129233 -8.27093e-05 -4.6524e-05 -2.06773e-05 -5.16933e-06 0 0 -6.4518e-06 -2.58072e-05 -5.80662e-05 -0.000103229 -0.000161295 -0.000232265 -0.000316138 -0.000412915 -0.000524736 -0.000653742 -0.000799934 -0.00096331 -0.00114387 -0.00134162 -0.00155655 -0.00178866 -0.00202741 -0.00226225 -0.00249317 -0.00272018 -0.00294327 -0.00316245 -0.00337771 -0.00358906 -0.00379 -0.00397402 -0.00414113 -0.00429133 -0.00442462 -0.004541 -0.00464047 -0.00472302 -0.00478787 -0.00483423 -0.0048621 -0.00487147 -0.00486235 -0.00483473 -0.00478862 -0.00472402 -0.00464518 -0.00455636 -0.00445756 -0.00434878 -0.00423001 -0.00410127 -0.00396254 -0.00381383 -0.00366221 -0.00351474 -0.00337142 -0.00323225 -0.00309724 -0.00296637 -0.00283966 -0.00271711 -0.00260415 -0.00250626 -0.00242343 -0.00235566 -0.00230295 -0.0022653 -0.00224271 -0.00223518 -0.00224271 -0.0022653 -0.00230295 -0.00235566 -0.00242343 -0.00250626 -0.00260415 -0.00271711 -0.00283966 -0.00296637 -0.00309724 -0.00323225 -0.00337142 -0.00351474 -0.00366221 -0.00381383 -0.00396254 -0.00410127 -0.00423001 -0.00434878 -0.00445756 -0.00455636 -0.00464518 -0.00472402 -0.00478862 -0.00483473 -0.00486235 -0.00487147 -0.0048621 -0.00483423 -0.00478787 -0.00472302 -0.00464047 -0.004541 -0.00442462 -0.00429133 -0.00414113 -0.00397402 -0.00379 -0.00358906 -0.00337771 -0.00316245 -0.00294327 -0.00272018 -0.00249317 -0.00226225 -0.00202741 -0.00178866 -0.00155655 -0.00134162 -0.00114387 -0.00096331 -0.000799934 -0.000653743 -0.000524737 -0.000412915 -0.000316138 -0.000232265 -0.000161295 -0.000103229 -5.80662e-05 -2.58072e-05 -6.4518e-06 0 0 -7.91185e-06 -3.16474e-05 -7.12066e-05 -0.00012659 -0.000197796 -0.000284827 -0.000387681 -0.000506358 -0.000643047 -0.000799934 -0.000977018 -0.0011743 -0.00139178 -0.00162946 -0.00188734 -0.00216541 -0.00245057 -0.0027297 -0.00300281 -0.00326989 -0.00353095 -0.00378597 -0.00403497 -0.00427795 -0.00450687 -0.0047137 -0.00489845 -0.00506112 -0.0052017 -0.0053202 -0.00541662 -0.00549095 -0.00554239 -0.00557015 -0.00557422 -0.0055546 -0.00551129 -0.00544429 -0.0053536 -0.00523923 -0.00510694 -0.00496251 -0.00480594 -0.00463723 -0.00445638 -0.00426338 -0.00405825 -0.00384098 -0.003621 -0.00340773 -0.00320118 -0.00300135 -0.00280823 -0.00262183 -0.00244215 -0.00226918 -0.00211018 -0.00197237 -0.00185577 -0.00176036 -0.00168616 -0.00163316 -0.00160136 -0.00159076 -0.00160136 -0.00163316 -0.00168616 -0.00176036 -0.00185577 -0.00197237 -0.00211018 -0.00226918 -0.00244215 -0.00262183 -0.00280823 -0.00300135 -0.00320118 -0.00340773 -0.003621 -0.00384098 -0.00405825 -0.00426338 -0.00445637 -0.00463723 -0.00480594 -0.00496251 -0.00510694 -0.00523923 -0.0053536 -0.00544429 -0.00551129 -0.0055546 -0.00557422 -0.00557015 -0.0055424 -0.00549095 -0.00541662 -0.0053202 -0.0052017 -0.00506112 -0.00489845 -0.0047137 -0.00450687 -0.00427795 -0.00403497 -0.00378597 -0.00353095 -0.00326989 -0.00300281 -0.00272971 -0.00245057 -0.00216541 -0.00188734 -0.00162946 -0.00139178 -0.0011743 -0.000977019 -0.000799934 -0.000643048 -0.000506359 -0.000387681 -0.000284827 -0.000197796 -0.00012659 -7.12067e-05 -3.16474e-05 -7.91186e-06 0 0 -9.54948e-06 -3.81979e-05 -8.59453e-05 -0.000152792 -0.000238737 -0.000343781 -0.000467924 -0.000611167 -0.000775598 -0.000963309 -0.0011743 -0.00140857 -0.00166612 -0.00194695 -0.00225106 -0.00257845 -0.00291308 -0.00323889 -0.00355589 -0.00386407 -0.00416345 -0.00445401 -0.00473576 -0.0050087 -0.00526306 -0.00548908 -0.00568675 -0.00585609 -0.00599708 -0.00610973 -0.00619403 -0.00625 -0.00627686 -0.00627386 -0.00624101 -0.00617829 -0.00608572 -0.00596328 -0.00581099 -0.00562884 -0.00542449 -0.00520561 -0.00497221 -0.00472428 -0.00446183 -0.00418484 -0.00389333 -0.00358729 -0.00327905 -0.00298097 -0.00269303 -0.00241523 -0.00214759 -0.00189009 -0.00164273 -0.00140552 -0.00118789 -0.000999284 -0.00083969 -0.000709114 -0.000607554 -0.000535012 -0.000491486 -0.000476978 -0.000491486 -0.000535012 -0.000607554 -0.000709114 -0.00083969 -0.000999284 -0.00118789 -0.00140552 -0.00164273 -0.00189009 -0.00214759 -0.00241523 -0.00269303 -0.00298097 -0.00327905 -0.00358729 -0.00389333 -0.00418484 -0.00446182 -0.00472428 -0.00497221 -0.00520561 -0.00542449 -0.00562884 -0.00581099 -0.00596328 -0.00608572 -0.00617829 -0.00624101 -0.00627386 -0.00627686 -0.00625 -0.00619403 -0.00610973 -0.00599708 -0.00585609 -0.00568676 -0.00548908 -0.00526306 -0.0050087 -0.00473576 -0.00445401 -0.00416345 -0.00386408 -0.00355589 -0.00323889 -0.00291308 -0.00257845 -0.00225106 -0.00194695 -0.00166612 -0.00140857 -0.0011743 -0.00096331 -0.000775599 -0.000611167 -0.000467925 -0.000343782 -0.000238737 -0.000152792 -8.59454e-05 -3.8198e-05 -9.54949e-06 0 0 -1.13647e-05 -4.54587e-05 -0.000102282 -0.000181835 -0.000284117 -0.000409129 -0.00055687 -0.00072734 -0.00092239 -0.00114387 -0.00139178 -0.00166612 -0.00196689 -0.00229409 -0.00264773 -0.00302779 -0.00341493 -0.0037898 -0.0041524 -0.00450273 -0.00484078 -0.00516656 -0.00548008 -0.00578132 -0.00605858 -0.00630015 -0.00650604 -0.00667624 -0.00681075 -0.00690958 -0.00697272 -0.00700017 -0.00699127 -0.00694537 -0.00686246 -0.00674255 -0.00658563 -0.00639171 -0.00616078 -0.00589284 -0.00559784 -0.00528568 -0.00495639 -0.00460995 -0.00424636 -0.00386564 -0.00346776 -0.00305275 -0.00263638 -0.00223445 -0.00184697 -0.00147392 -0.00111531 -0.000771138 -0.000441409 -0.000126119 0.000162697 0.000413004 0.000624802 0.000798092 0.000932873 0.00102914 0.00108691 0.00110616 0.00108691 0.00102914 0.000932873 0.000798092 0.000624803 0.000413004 0.000162697 -0.000126118 -0.000441408 -0.000771138 -0.00111531 -0.00147392 -0.00184697 -0.00223445 -0.00263638 -0.00305275 -0.00346776 -0.00386564 -0.00424636 -0.00460995 -0.00495639 -0.00528568 -0.00559784 -0.00589284 -0.00616078 -0.00639171 -0.00658563 -0.00674255 -0.00686246 -0.00694537 -0.00699127 -0.00700017 -0.00697272 -0.00690958 -0.00681075 -0.00667624 -0.00650604 -0.00630016 -0.00605858 -0.00578132 -0.00548008 -0.00516657 -0.00484078 -0.00450273 -0.0041524 -0.0037898 -0.00341493 -0.00302779 -0.00264773 -0.0022941 -0.00196689 -0.00166612 -0.00139178 -0.00114387 -0.000922391 -0.000727341 -0.00055687 -0.000409129 -0.000284117 -0.000181835 -0.000102282 -4.54588e-05 -1.13647e-05 0 0 -1.33575e-05 -5.34299e-05 -0.000120217 -0.00021372 -0.000333937 -0.000480869 -0.000654516 -0.000854878 -0.00108342 -0.00134162 -0.00162946 -0.00194695 -0.00229409 -0.00267089 -0.00307733 -0.00351342 -0.00395613 -0.00438244 -0.00479235 -0.00518585 -0.00556294 -0.00592363 -0.00626792 -0.0065958 -0.00689342 -0.00714693 -0.00735631 -0.00752158 -0.00764272 -0.00771975 -0.00775266 -0.00774145 -0.00768562 -0.00758466 -0.00743858 -0.00724737 -0.00701103 -0.00672956 -0.00640297 -0.00603125 -0.00562698 -0.00520271 -0.00475846 -0.00429422 -0.00380999 -0.00330577 -0.00278157 -0.00223737 -0.00169298 -0.00116819 -0.00066299 -0.000177392 0.000288609 0.000735012 0.00116182 0.00156903 0.0019416 0.00226449 0.00253771 0.00276125 0.00293512 0.00305931 0.00313382 0.00315866 0.00313382 0.00305931 0.00293512 0.00276125 0.00253771 0.00226449 0.0019416 0.00156903 0.00116182 0.000735012 0.000288609 -0.000177392 -0.00066299 -0.00116819 -0.00169298 -0.00223737 -0.00278157 -0.00330577 -0.00380999 -0.00429422 -0.00475846 -0.00520271 -0.00562698 -0.00603125 -0.00640297 -0.00672956 -0.00701103 -0.00724737 -0.00743858 -0.00758466 -0.00768562 -0.00774145 -0.00775266 -0.00771975 -0.00764272 -0.00752158 -0.00735631 -0.00714693 -0.00689343 -0.0065958 -0.00626792 -0.00592364 -0.00556294 -0.00518585 -0.00479235 -0.00438244 -0.00395613 -0.00351342 -0.00307733 -0.00267089 -0.0022941 -0.00194695 -0.00162946 -0.00134162 -0.00108342 -0.000854879 -0.000654517 -0.000480869 -0.000333937 -0.00021372 -0.000120217 -5.34299e-05 -1.33575e-05 0 0 -1.55278e-05 -6.21113e-05 -0.00013975 -0.000248445 -0.000388196 -0.000559002 -0.000760864 -0.000993781 -0.0012587 -0.00155655 -0.00188734 -0.00225106 -0.00264773 -0.00307733 -0.00353987 -0.00403534 -0.00453668 -0.00501681 -0.00547573 -0.00591344 -0.00632993 -0.00672522 -0.00709929 -0.00745215 -0.00776759 -0.0080294 -0.00823756 -0.0083921 -0.00849299 -0.00854025 -0.00853387 -0.00847386 -0.00835992 -0.00819175 -0.00796936 -0.00769275 -0.00736191 -0.00697685 -0.00653757 -0.00604406 -0.00551192 -0.00495671 -0.00437844 -0.0037771 -0.00315271 -0.00250525 -0.00183473 -0.00114115 -0.000448848 0.000217834 0.000858896 0.00147434 0.00206416 0.00262836 0.00316695 0.00367991 0.0041488 0.00455518 0.00489903 0.00518037 0.00539919 0.00555549 0.00564926 0.00568052 0.00564926 0.00555549 0.00539919 0.00518037 0.00489903 0.00455518 0.0041488 0.00367991 0.00316695 0.00262836 0.00206416 0.00147434 0.000858897 0.000217835 -0.000448848 -0.00114115 -0.00183473 -0.00250525 -0.00315271 -0.0037771 -0.00437844 -0.00495671 -0.00551192 -0.00604406 -0.00653757 -0.00697685 -0.00736191 -0.00769275 -0.00796936 -0.00819175 -0.00835992 -0.00847386 -0.00853387 -0.00854025 -0.00849299 -0.0083921 -0.00823757 -0.0080294 -0.0077676 -0.00745216 -0.00709929 -0.00672522 -0.00632993 -0.00591344 -0.00547573 -0.00501681 -0.00453668 -0.00403534 -0.00353987 -0.00307733 -0.00264773 -0.00225106 -0.00188734 -0.00155655 -0.0012587 -0.000993782 -0.000760865 -0.000559003 -0.000388196 -0.000248446 -0.000139751 -6.21114e-05 -1.55278e-05 0 0 -1.78758e-05 -7.15031e-05 -0.000160882 -0.000286012 -0.000446894 -0.000643528 -0.000875913 -0.00114405 -0.00144821 -0.00178866 -0.00216541 -0.00257845 -0.00302779 -0.00351342 -0.00403534 -0.00459356 -0.00515658 -0.00569291 -0.00620255 -0.00668549 -0.00714175 -0.00757131 -0.00797419 -0.00835037 -0.00868109 -0.00894756 -0.0091498 -0.0092878 -0.00936155 -0.00937107 -0.00931635 -0.00919738 -0.00901415 -0.00876663 -0.00845481 -0.00807869 -0.00763828 -0.00713357 -0.00656457 -0.00593128 -0.00525265 -0.00454766 -0.00381631 -0.00305859 -0.00227451 -0.00146407 -0.00062726 0.000235912 0.00109601 0.00192361 0.0027187 0.00348128 0.00421135 0.00490892 0.00557398 0.00620654 0.00678432 0.00728507 0.00770877 0.00805544 0.00832508 0.00851767 0.00863323 0.00867175 0.00863323 0.00851767 0.00832508 0.00805544 0.00770877 0.00728507 0.00678432 0.00620654 0.00557398 0.00490892 0.00421135 0.00348128 0.0027187 0.00192361 0.00109601 0.000235913 -0.000627259 -0.00146407 -0.00227451 -0.00305859 -0.00381631 -0.00454766 -0.00525265 -0.00593128 -0.00656457 -0.00713357 -0.00763828 -0.00807869 -0.00845481 -0.00876663 -0.00901415 -0.00919739 -0.00931635 -0.00937107 -0.00936156 -0.0092878 -0.0091498 -0.00894757 -0.00868109 -0.00835037 -0.00797419 -0.00757132 -0.00714175 -0.0066855 -0.00620255 -0.00569291 -0.00515658 -0.00459356 -0.00403534 -0.00351342 -0.00302779 -0.00257845 -0.00216541 -0.00178866 -0.00144821 -0.00114405 -0.000875914 -0.000643528 -0.000446895 -0.000286013 -0.000160882 -7.15032e-05 -1.78758e-05 0 0 -2.02991e-05 -8.11965e-05 -0.000182692 -0.000324786 -0.000507478 -0.000730769 -0.000994657 -0.00129914 -0.0016436 -0.00202741 -0.00245057 -0.00291308 -0.00341493 -0.00395613 -0.00453668 -0.00515658 -0.00577952 -0.00636918 -0.00692558 -0.0074487 -0.00793855 -0.00839513 -0.00881844 -0.00920848 -0.00954369 -0.00980251 -0.00998496 -0.010091 -0.0101207 -0.010074 -0.0099509 -0.00975143 -0.00947595 -0.00912484 -0.0086981 -0.00819572 -0.00761772 -0.00696409 -0.00623482 -0.00542992 -0.00457233 -0.00368499 -0.00276788 -0.00182101 -0.000844389 0.000161993 0.00119813 0.00226403 0.00332436 0.00434378 0.0053223 0.00625992 0.00715664 0.00801246 0.00882737 0.00960138 0.0103078 0.0109201 0.0114382 0.0118621 0.0121917 0.0124272 0.0125685 0.0126156 0.0125685 0.0124272 0.0121917 0.0118621 0.0114382 0.0109201 0.0103078 0.00960138 0.00882737 0.00801246 0.00715664 0.00625992 0.0053223 0.00434378 0.00332436 0.00226403 0.00119813 0.000161994 -0.000844388 -0.00182101 -0.00276788 -0.00368498 -0.00457233 -0.00542992 -0.00623482 -0.00696409 -0.00761772 -0.00819572 -0.0086981 -0.00912484 -0.00947595 -0.00975143 -0.0099509 -0.010074 -0.0101207 -0.010091 -0.00998496 -0.00980252 -0.00954369 -0.00920848 -0.00881844 -0.00839514 -0.00793856 -0.0074487 -0.00692558 -0.00636919 -0.00577952 -0.00515658 -0.00453668 -0.00395613 -0.00341493 -0.00291308 -0.00245057 -0.00202742 -0.00164361 -0.00129915 -0.000994658 -0.000730769 -0.000507479 -0.000324786 -0.000182692 -8.11966e-05 -2.02992e-05 0 0 -2.26957e-05 -9.0783e-05 -0.000204262 -0.000363132 -0.000567394 -0.000817047 -0.00111209 -0.00145253 -0.00183652 -0.00226225 -0.0027297 -0.00323889 -0.0037898 -0.00438244 -0.00501681 -0.00569291 -0.00636918 -0.00700408 -0.0075976 -0.00814973 -0.00866049 -0.00912987 -0.00955788 -0.0099445 -0.0102652 -0.0104953 -0.010635 -0.0106841 -0.0106427 -0.0105108 -0.0102883 -0.00997539 -0.00957291 -0.00908192 -0.00850241 -0.00783438 -0.00707782 -0.00623275 -0.00529916 -0.00427705 -0.00319412 -0.00207808 -0.000928938 0.000253316 0.00146868 0.00271715 0.00399873 0.00531342 0.00661894 0.00787301 0.00907562 0.0102268 0.0113265 0.0123748 0.0133716 0.0143169 0.0151791 0.0159263 0.0165585 0.0170758 0.0174782 0.0177655 0.017938 0.0179954 0.017938 0.0177655 0.0174782 0.0170758 0.0165585 0.0159263 0.0151791 0.0143169 0.0133716 0.0123748 0.0113265 0.0102268 0.00907562 0.00787301 0.00661894 0.00531342 0.00399873 0.00271715 0.00146868 0.000253317 -0.000928938 -0.00207808 -0.00319412 -0.00427705 -0.00529916 -0.00623275 -0.00707782 -0.00783438 -0.00850241 -0.00908192 -0.00957291 -0.00997539 -0.0102883 -0.0105108 -0.0106427 -0.0106841 -0.010635 -0.0104953 -0.0102652 -0.0099445 -0.00955788 -0.00912988 -0.0086605 -0.00814974 -0.0075976 -0.00700408 -0.00636919 -0.00569291 -0.00501681 -0.00438244 -0.0037898 -0.00323889 -0.00272971 -0.00226225 -0.00183653 -0.00145253 -0.00111209 -0.000817048 -0.000567394 -0.000363132 -0.000204262 -9.07831e-05 -2.26958e-05 0 0 -2.50656e-05 -0.000100262 -0.000225591 -0.00040105 -0.00062664 -0.000902362 -0.00122822 -0.0016042 -0.00202697 -0.00249317 -0.00300281 -0.00355589 -0.0041524 -0.00479234 -0.00547573 -0.00620255 -0.00692558 -0.0075976 -0.0082186 -0.00878859 -0.00930757 -0.00977554 -0.0101925 -0.0105584 -0.0108455 -0.011026 -0.0110998 -0.011067 -0.0109275 -0.0106814 -0.0103287 -0.00986926 -0.00930505 -0.00863788 -0.00786774 -0.00699465 -0.00601859 -0.00493957 -0.00375758 -0.00247264 -0.00111801 0.000273045 0.00170051 0.00316439 0.00466469 0.00620141 0.00777454 0.00938408 0.0109798 0.0125113 0.0139787 0.0153819 0.0167209 0.0179958 0.0192066 0.0203532 0.021398 0.0223036 0.0230698 0.0236967 0.0241843 0.0245326 0.0247416 0.0248112 0.0247416 0.0245326 0.0241843 0.0236967 0.0230698 0.0223036 0.021398 0.0203532 0.0192066 0.0179958 0.0167209 0.0153819 0.0139787 0.0125113 0.0109798 0.00938408 0.00777454 0.00620141 0.00466469 0.00316439 0.00170051 0.000273045 -0.00111801 -0.00247264 -0.00375758 -0.00493957 -0.00601859 -0.00699465 -0.00786774 -0.00863788 -0.00930505 -0.00986926 -0.0103287 -0.0106814 -0.0109275 -0.011067 -0.0110998 -0.011026 -0.0108456 -0.0105584 -0.0101925 -0.00977554 -0.00930758 -0.0087886 -0.0082186 -0.0075976 -0.00692558 -0.00620255 -0.00547573 -0.00479235 -0.0041524 -0.00355589 -0.00300281 -0.00249317 -0.00202697 -0.0016042 -0.00122822 -0.000902363 -0.000626641 -0.00040105 -0.000225591 -0.000100263 -2.50656e-05 0 0 -2.74087e-05 -0.000109635 -0.000246679 -0.00043854 -0.000685219 -0.000986715 -0.00134303 -0.00175416 -0.00