<?xml version="1.0"?> 
<VTKFile type="StructuredGrid" version="0.1"> 
<StructuredGrid WholeExtent="0 128 0 128 0 0"> 
<Piece Extent="0 128 0 128 0 0"> 
<PointData>
<DataArray type="Float32" Name="u" format="ascii" NumberOfComponents="1"> 
0 0 0 0 0 0 0 0 0 0 0 0 0 0 0 0 0 0 0 0 0 0 0 0 0 0 0 0 0 0 0 0 0 0 0 0 0 0 0 0 0 0 0 0 0 0 0 0 0 0 0 0 0 0 0 0 0 0 0 0 0 0 0 0 0 0 0 0 0 0 0 0 0 0 0 0 0 0 0 0 0 0 0 0 0 0 0 0 0 0 0 0 0 0 0 0 0 0 0 0 0 0 0 0 0 0 0 0 0 0 0 0 0 0 0 0 0 0 0 0 0 0 0 0 0 0 0 0 0 0 -6.17595e-08 -2.47038e-07 -5.55836e-07 -9.88153e-07 -1.54399e-06 -2.22334e-06 -3.02622e-06 -3.95261e-06 -5.01618e-06 -6.23057e-06 -7.59579e-06 -9.11183e-06 -1.07787e-05 -1.25964e-05 -1.45649e-05 -1.66843e-05 -1.88448e-05 -2.0937e-05 -2.29609e-05 -2.49163e-05 -2.68034e-05 -2.8622e-05 -3.03723e-05 -3.20543e-05 -3.35974e-05 -3.49313e-05 -3.60561e-05 -3.69716e-05 -3.76779e-05 -3.81749e-05 -3.84628e-05 -3.85415e-05 -3.84004e-05 -3.80292e-05 -3.74277e-05 -3.6596e-05 -3.55342e-05 -3.42421e-05 -3.27198e-05 -3.09673e-05 -2.90415e-05 -2.69995e-05 -2.48411e-05 -2.25664e-05 -2.01754e-05 -1.76681e-05 -1.50444e-05 -1.23045e-05 -9.55188e-06 -6.89012e-06 -4.31926e-06 -1.83929e-06 5.4979e-07 2.84798e-06 5.05528e-06 7.17169e-06 9.11322e-06 1.07959e-05 1.22197e-05 1.33846e-05 1.42906e-05 1.49378e-05 1.53261e-05 1.54556e-05 1.53261e-05 1.49378e-05 1.42906e-05 1.33846e-05 1.22197e-05 1.07959e-05 9.11322e-06 7.17169e-06 5.05528e-06 2.84798e-06 5.49791e-07 -1.83929e-06 -4.31926e-06 -6.89012e-06 -9.55187e-06 -1.23045e-05 -1.50444e-05 -1.76681e-05 -2.01754e-05 -2.25664e-05 -2.48411e-05 -2.69995e-05 -2.90415e-05 -3.09673e-05 -3.27198e-05 -3.42421e-05 -3.55342e-05 -3.6596e-05 -3.74277e-05 -3.80292e-05 -3.84004e-05 -3.85415e-05 -3.84628e-05 -3.81749e-05 -3.76779e-05 -3.69716e-05 -3.60561e-05 -3.49313e-05 -3.35974e-05 -3.20543e-05 -3.03724e-05 -2.8622e-05 -2.68034e-05 -2.49163e-05 -2.29609e-05 -2.0937e-05 -1.88448e-05 -1.66843e-05 -1.45649e-05 -1.25964e-05 -1.07787e-05 -9.11184e-06 -7.59579e-06 -6.23057e-06 -5.01618e-06 -3.95261e-06 -3.02622e-06 -2.22335e-06 -1.54399e-06 -9.88153e-07 -5.55836e-07 -2.47038e-07 -6.17596e-08 0 0 -2.47038e-07 -9.88153e-07 -2.22334e-06 -3.95261e-06 -6.17595e-06 -8.89337e-06 -1.21049e-05 -1.58104e-05 -2.00647e-05 -2.49223e-05 -3.03831e-05 -3.64473e-05 -4.31148e-05 -5.03856e-05 -5.82597e-05 -6.67371e-05 -7.53794e-05 -8.37481e-05 -9.18434e-05 -9.96652e-05 -0.000107213 -0.000114488 -0.000121489 -0.000128217 -0.00013439 -0.000139725 -0.000144224 -0.000147886 -0.000150711 -0.0001527 -0.000153851 -0.000154166 -0.000153602 -0.000152117 -0.000149711 -0.000146384 -0.000142137 -0.000136968 -0.000130879 -0.000123869 -0.000116166 -0.000107998 -9.93643e-05 -9.02655e-05 -8.07015e-05 -7.06723e-05 -6.01778e-05 -4.92181e-05 -3.82075e-05 -2.75605e-05 -1.7277e-05 -7.35716e-06 2.19916e-06 1.13919e-05 2.02211e-05 2.86868e-05 3.64529e-05 4.31835e-05 4.88787e-05 5.35384e-05 5.71625e-05 5.97513e-05 6.13045e-05 6.18222e-05 6.13045e-05 5.97513e-05 5.71626e-05 5.35384e-05 4.88787e-05 4.31835e-05 3.64529e-05 2.86868e-05 2.02211e-05 1.13919e-05 2.19916e-06 -7.35716e-06 -1.7277e-05 -2.75605e-05 -3.82075e-05 -4.92181e-05 -6.01778e-05 -7.06723e-05 -8.07015e-05 -9.02655e-05 -9.93643e-05 -0.000107998 -0.000116166 -0.000123869 -0.000130879 -0.000136968 -0.000142137 -0.000146384 -0.000149711 -0.000152117 -0.000153602 -0.000154166 -0.000153851 -0.0001527 -0.000150711 -0.000147886 -0.000144224 -0.000139725 -0.00013439 -0.000128217 -0.000121489 -0.000114488 -0.000107213 -9.96652e-05 -9.18434e-05 -8.37482e-05 -7.53794e-05 -6.67371e-05 -5.82597e-05 -5.03856e-05 -4.31148e-05 -3.64473e-05 -3.03832e-05 -2.49223e-05 -2.00647e-05 -1.58105e-05 -1.21049e-05 -8.89338e-06 -6.17596e-06 -3.95261e-06 -2.22335e-06 -9.88153e-07 -2.47038e-07 0 0 -5.55836e-07 -2.22334e-06 -5.00252e-06 -8.89337e-06 -1.38959e-05 -2.00101e-05 -2.7236e-05 -3.55735e-05 -4.51456e-05 -5.60751e-05 -6.83621e-05 -8.20065e-05 -9.70083e-05 -0.000113368 -0.000131084 -0.000150158 -0.000169604 -0.000188433 -0.000206648 -0.000224247 -0.00024123 -0.000257598 -0.000273351 -0.000288488 -0.000302377 -0.000314382 -0.000324504 -0.000332744 -0.000339101 -0.000343574 -0.000346165 -0.000346873 -0.000345604 -0.000342263 -0.000336849 -0.000329364 -0.000319807 -0.000308179 -0.000294478 -0.000278706 -0.000261374 -0.000242995 -0.00022357 -0.000203097 -0.000181578 -0.000159013 -0.0001354 -0.000110741 -8.59669e-05 -6.20111e-05 -3.88734e-05 -1.65536e-05 4.94811e-06 2.56318e-05 4.54975e-05 6.45452e-05 8.2019e-05 9.71629e-05 0.000109977 0.000120461 0.000128616 0.00013444 0.000137935 0.0001391 0.000137935 0.00013444 0.000128616 0.000120461 0.000109977 9.7163e-05 8.2019e-05 6.45452e-05 4.54975e-05 2.56318e-05 4.94812e-06 -1.65536e-05 -3.88734e-05 -6.20111e-05 -8.59669e-05 -0.000110741 -0.0001354 -0.000159013 -0.000181578 -0.000203097 -0.00022357 -0.000242995 -0.000261374 -0.000278706 -0.000294478 -0.000308179 -0.000319808 -0.000329364 -0.000336849 -0.000342263 -0.000345604 -0.000346873 -0.000346165 -0.000343574 -0.000339101 -0.000332744 -0.000324505 -0.000314382 -0.000302377 -0.000288489 -0.000273351 -0.000257598 -0.00024123 -0.000224247 -0.000206648 -0.000188433 -0.000169604 -0.000150158 -0.000131084 -0.000113368 -9.70084e-05 -8.20065e-05 -6.83621e-05 -5.60752e-05 -4.51456e-05 -3.55735e-05 -2.7236e-05 -2.00101e-05 -1.38959e-05 -8.89338e-06 -5.00253e-06 -2.22335e-06 -5.55836e-07 0 0 -9.88153e-07 -3.95261e-06 -8.89337e-06 -1.58104e-05 -2.47038e-05 -3.55735e-05 -4.84195e-05 -6.32418e-05 -8.02588e-05 -9.96891e-05 -0.000121533 -0.000145789 -0.000172459 -0.000201542 -0.000233039 -0.000266948 -0.000301517 -0.000334993 -0.000367374 -0.000398661 -0.000428854 -0.000457953 -0.000485958 -0.000512868 -0.000537559 -0.000558901 -0.000576897 -0.000591545 -0.000602846 -0.000610799 -0.000615405 -0.000616664 -0.000614407 -0.000608467 -0.000598843 -0.000585537 -0.000568547 -0.000547873 -0.000523517 -0.000495477 -0.000464664 -0.000431991 -0.000397457 -0.000361062 -0.000322806 -0.000282689 -0.000240711 -0.000196872 -0.00015283 -0.000110242 -6.91082e-05 -2.94287e-05 8.79664e-06 4.55677e-05 8.08845e-05 0.000114747 0.000145812 0.000172734 0.000195515 0.000214153 0.00022865 0.000239005 0.000245218 0.000247289 0.000245218 0.000239005 0.00022865 0.000214153 0.000195515 0.000172734 0.000145812 0.000114747 8.08845e-05 4.55677e-05 8.79666e-06 -2.94286e-05 -6.91082e-05 -0.000110242 -0.00015283 -0.000196872 -0.000240711 -0.000282689 -0.000322806 -0.000361062 -0.000397457 -0.000431991 -0.000464664 -0.000495477 -0.000523517 -0.000547873 -0.000568547 -0.000585537 -0.000598843 -0.000608467 -0.000614407 -0.000616664 -0.000615405 -0.000610799 -0.000602846 -0.000591545 -0.000576897 -0.000558902 -0.000537559 -0.000512869 -0.000485958 -0.000457953 -0.000428854 -0.000398661 -0.000367374 -0.000334993 -0.000301518 -0.000266948 -0.000233039 -0.000201542 -0.000172459 -0.000145789 -0.000121533 -9.96892e-05 -8.02589e-05 -6.32418e-05 -4.84195e-05 -3.55735e-05 -2.47038e-05 -1.58105e-05 -8.89338e-06 -3.95261e-06 -9.88153e-07 0 0 -1.54399e-06 -6.17595e-06 -1.38959e-05 -2.47038e-05 -3.85997e-05 -5.55836e-05 -7.56554e-05 -9.88153e-05 -0.000125404 -0.000155764 -0.000189895 -0.000227796 -0.000269468 -0.00031491 -0.000364123 -0.000417107 -0.000471121 -0.000523426 -0.000574021 -0.000622907 -0.000670084 -0.000715551 -0.000759309 -0.000801357 -0.000839935 -0.000873283 -0.000901401 -0.000924289 -0.000941946 -0.000954373 -0.00096157 -0.000963537 -0.000960011 -0.000950729 -0.000935693 -0.000914901 -0.000888354 -0.000856052 -0.000817995 -0.000774182 -0.000726038 -0.000674986 -0.000621027 -0.00056416 -0.000504385 -0.000441702 -0.000376111 -0.000307613 -0.000238797 -0.000172253 -0.000107982 -4.59823e-05 1.37448e-05 7.11995e-05 0.000126382 0.000179292 0.000227831 0.000269897 0.000305492 0.000334615 0.000357266 0.000373445 0.000383153 0.000386389 0.000383153 0.000373445 0.000357266 0.000334615 0.000305492 0.000269897 0.000227831 0.000179292 0.000126382 7.11995e-05 1.37448e-05 -4.59823e-05 -0.000107982 -0.000172253 -0.000238797 -0.000307613 -0.000376111 -0.000441702 -0.000504385 -0.00056416 -0.000621027 -0.000674986 -0.000726038 -0.000774182 -0.000817995 -0.000856052 -0.000888354 -0.000914901 -0.000935693 -0.000950729 -0.000960011 -0.000963537 -0.00096157 -0.000954374 -0.000941946 -0.000924289 -0.000901401 -0.000873284 -0.000839935 -0.000801357 -0.000759309 -0.000715551 -0.000670084 -0.000622908 -0.000574022 -0.000523426 -0.000471121 -0.000417107 -0.000364123 -0.00031491 -0.000269468 -0.000227796 -0.000189895 -0.000155764 -0.000125405 -9.88153e-05 -7.56555e-05 -5.55836e-05 -3.85997e-05 -2.47038e-05 -1.38959e-05 -6.17596e-06 -1.54399e-06 0 0 -2.22334e-06 -8.89337e-06 -2.00101e-05 -3.55735e-05 -5.55836e-05 -8.00404e-05 -0.000108944 -0.000142294 -0.000180582 -0.0002243 -0.000273448 -0.000328026 -0.000388033 -0.00045347 -0.000524337 -0.000600634 -0.000678414 -0.000753733 -0.000826591 -0.000896987 -0.000964921 -0.00103039 -0.0010934 -0.00115395 -0.00120951 -0.00125753 -0.00129802 -0.00133098 -0.0013564 -0.0013743 -0.00138466 -0.00138749 -0.00138242 -0.00136905 -0.0013474 -0.00131746 -0.00127923 -0.00123271 -0.00117791 -0.00111482 -0.00104549 -0.00097198 -0.000894279 -0.00081239 -0.000726314 -0.000636051 -0.0005416 -0.000442963 -0.000343868 -0.000248044 -0.000155493 -6.62145e-05 1.97925e-05 0.000102527 0.00018199 0.000258181 0.000328076 0.000388652 0.000439908 0.000481845 0.000514463 0.000537761 0.00055174 0.0005564 0.00055174 0.000537761 0.000514463 0.000481845 0.000439908 0.000388652 0.000328076 0.000258181 0.00018199 0.000102527 1.97925e-05 -6.62144e-05 -0.000155493 -0.000248044 -0.000343867 -0.000442963 -0.0005416 -0.000636051 -0.000726314 -0.00081239 -0.000894279 -0.00097198 -0.00104549 -0.00111482 -0.00117791 -0.00123271 -0.00127923 -0.00131746 -0.0013474 -0.00136905 -0.00138242 -0.00138749 -0.00138466 -0.0013743 -0.0013564 -0.00133098 -0.00129802 -0.00125753 -0.00120951 -0.00115395 -0.0010934 -0.00103039 -0.000964921 -0.000896987 -0.000826591 -0.000753734 -0.000678415 -0.000600634 -0.000524337 -0.000453471 -0.000388033 -0.000328026 -0.000273448 -0.000224301 -0.000180582 -0.000142294 -0.000108944 -8.00404e-05 -5.55836e-05 -3.55735e-05 -2.00101e-05 -8.89338e-06 -2.22335e-06 0 0 -3.02622e-06 -1.21049e-05 -2.7236e-05 -4.84195e-05 -7.56554e-05 -0.000108944 -0.000148285 -0.000193678 -0.000245793 -0.000305298 -0.000372194 -0.00044648 -0.000528156 -0.000617223 -0.000713681 -0.000817529 -0.000923397 -0.00102591 -0.00112508 -0.0012209 -0.00131336 -0.00140248 -0.00148825 -0.00157066 -0.00164627 -0.00171164 -0.00176675 -0.00181161 -0.00184621 -0.00187057 -0.00188468 -0.00188853 -0.00188162 -0.00186343 -0.00183396 -0.00179321 -0.00174117 -0.00167786 -0.00160327 -0.0015174 -0.00142303 -0.00132297 -0.00121721 -0.00110575 -0.000988594 -0.000865735 -0.000737178 -0.000602921 -0.000468042 -0.000337616 -0.000211644 -9.01253e-05 2.69397e-05 0.000139551 0.000247709 0.000351413 0.000446548 0.000528998 0.000598764 0.000655845 0.000700241 0.000731953 0.00075098 0.000757322 0.00075098 0.000731953 0.000700241 0.000655845 0.000598764 0.000528998 0.000446548 0.000351413 0.000247709 0.000139551 2.69398e-05 -9.01252e-05 -0.000211644 -0.000337616 -0.000468042 -0.000602921 -0.000737178 -0.000865735 -0.000988594 -0.00110575 -0.00121721 -0.00132297 -0.00142303 -0.0015174 -0.00160327 -0.00167786 -0.00174117 -0.00179321 -0.00183396 -0.00186343 -0.00188162 -0.00188853 -0.00188468 -0.00187057 -0.00184621 -0.00181161 -0.00176675 -0.00171164 -0.00164627 -0.00157066 -0.00148825 -0.00140248 -0.00131336 -0.0012209 -0.00112508 -0.00102592 -0.000923398 -0.000817529 -0.000713681 -0.000617224 -0.000528157 -0.00044648 -0.000372194 -0.000305298 -0.000245793 -0.000193678 -0.000148285 -0.000108944 -7.56555e-05 -4.84195e-05 -2.7236e-05 -1.21049e-05 -3.02622e-06 0 0 -3.95261e-06 -1.58104e-05 -3.55735e-05 -6.32418e-05 -9.88153e-05 -0.000142294 -0.000193678 -0.000252967 -0.000321035 -0.000398756 -0.00048613 -0.000583157 -0.000689837 -0.000806169 -0.000932155 -0.00106779 -0.00120607 -0.00133997 -0.00146949 -0.00159464 -0.00171541 -0.00183181 -0.00194383 -0.00205147 -0.00215023 -0.00223561 -0.00230759 -0.00236618 -0.00241138 -0.0024432 -0.00246162 -0.00246665 -0.00245763 -0.00243387 -0.00239537 -0.00234215 -0.00227419 -0.00219149 -0.00209407 -0.00198191 -0.00185866 -0.00172797 -0.00158983 -0.00144425 -0.00129122 -0.00113076 -0.000962845 -0.000787489 -0.00061132 -0.000440968 -0.000276433 -0.000117715 3.51866e-05 0.000182271 0.000323538 0.000458988 0.000583246 0.000690937 0.000782059 0.000856614 0.000914601 0.00095602 0.000980872 0.000989156 0.000980872 0.00095602 0.000914601 0.000856614 0.000782059 0.000690937 0.000583246 0.000458988 0.000323538 0.000182271 3.51866e-05 -0.000117715 -0.000276433 -0.000440968 -0.00061132 -0.000787489 -0.000962845 -0.00113076 -0.00129122 -0.00144425 -0.00158983 -0.00172797 -0.00185866 -0.00198191 -0.00209407 -0.00219149 -0.00227419 -0.00234215 -0.00239537 -0.00243387 -0.00245763 -0.00246665 -0.00246162 -0.0024432 -0.00241138 -0.00236618 -0.00230759 -0.00223561 -0.00215023 -0.00205147 -0.00194383 -0.00183181 -0.00171542 -0.00159464 -0.0014695 -0.00133997 -0.00120607 -0.00106779 -0.000932155 -0.00080617 -0.000689837 -0.000583158 -0.000486131 -0.000398757 -0.000321036 -0.000252967 -0.000193678 -0.000142294 -9.88153e-05 -6.32418e-05 -3.55735e-05 -1.58105e-05 -3.95261e-06 0 0 -5.01618e-06 -2.00647e-05 -4.51456e-05 -8.02588e-05 -0.000125404 -0.000180582 -0.000245793 -0.000321035 -0.00040733 -0.000505696 -0.000616135 -0.000738645 -0.000873226 -0.00101988 -0.00117861 -0.0013494 -0.00152333 -0.00169146 -0.00185379 -0.00201032 -0.00216104 -0.00230596 -0.00244508 -0.0025784 -0.00270018 -0.00280469 -0.00289193 -0.0029619 -0.00301459 -0.00305002 -0.00306818 -0.00306906 -0.00305186 -0.00301574 -0.00296071 -0.00288676 -0.0027939 -0.00268212 -0.00255143 -0.00240183 -0.00223806 -0.00206484 -0.0018822 -0.00169011 -0.0014886 -0.00127765 -0.00105726 -0.000827437 -0.000596756 -0.000373792 -0.000158545 4.89842e-05 0.000248796 0.000440891 0.000625269 0.000801929 0.000963931 0.00110433 0.00122313 0.00132033 0.00139593 0.00144994 0.00148234 0.00149314 0.00148234 0.00144994 0.00139593 0.00132033 0.00122313 0.00110433 0.000963931 0.000801929 0.000625269 0.000440891 0.000248796 4.89842e-05 -0.000158545 -0.000373792 -0.000596755 -0.000827437 -0.00105726 -0.00127765 -0.0014886 -0.00169011 -0.0018822 -0.00206484 -0.00223806 -0.00240183 -0.00255143 -0.00268212 -0.0027939 -0.00288676 -0.00296071 -0.00301574 -0.00305186 -0.00306907 -0.00306818 -0.00305002 -0.00301459 -0.0029619 -0.00289193 -0.00280469 -0.00270018 -0.0025784 -0.00244508 -0.00230596 -0.00216104 -0.00201032 -0.00185379 -0.00169146 -0.00152333 -0.0013494 -0.00117861 -0.00101988 -0.000873227 -0.000738645 -0.000616135 -0.000505697 -0.00040733 -0.000321036 -0.000245793 -0.000180582 -0.000125405 -8.02589e-05 -4.51456e-05 -2.00647e-05 -5.01618e-06 0 0 -6.23057e-06 -2.49223e-05 -5.60751e-05 -9.96891e-05 -0.000155764 -0.0002243 -0.000305298 -0.000398756 -0.000505696 -0.000627139 -0.000763083 -0.000913529 -0.00107848 -0.00125793 -0.00145188 -0.00166033 -0.00187209 -0.00207596 -0.00227194 -0.00246002 -0.00264021 -0.00281251 -0.00297692 -0.00313343 -0.00327489 -0.00339413 -0.00349115 -0.00356596 -0.00361854 -0.0036489 -0.00365705 -0.00364297 -0.00360574 -0.00354442 -0.00345902 -0.00334952 -0.00321594 -0.00305826 -0.0028765 -0.00267066 -0.00244692 -0.0022115 -0.00196439 -0.00170559 -0.00143511 -0.00115294 -0.000859078 -0.000553534 -0.000247402 4.82209e-05 0.000333334 0.000607938 0.000872032 0.00112562 0.00136869 0.00160126 0.00181436 0.00199905 0.00215533 0.00228319 0.00238264 0.00245367 0.00249629 0.0025105 0.00249629 0.00245367 0.00238264 0.00228319 0.00215533 0.00199905 0.00181436 0.00160126 0.00136869 0.00112562 0.000872032 0.000607938 0.000333334 4.8221e-05 -0.000247402 -0.000553534 -0.000859078 -0.00115294 -0.00143511 -0.00170559 -0.00196439 -0.0022115 -0.00244692 -0.00267066 -0.0028765 -0.00305827 -0.00321594 -0.00334952 -0.00345902 -0.00354442 -0.00360574 -0.00364297 -0.00365705 -0.0036489 -0.00361854 -0.00356596 -0.00349116 -0.00339413 -0.00327489 -0.00313343 -0.00297692 -0.00281251 -0.00264021 -0.00246002 -0.00227194 -0.00207596 -0.00187209 -0.00166033 -0.00145188 -0.00125793 -0.00107848 -0.00091353 -0.000763083 -0.000627139 -0.000505697 -0.000398757 -0.000305298 -0.000224301 -0.000155764 -9.96892e-05 -5.60752e-05 -2.49223e-05 -6.23057e-06 0 0 -7.59579e-06 -3.03831e-05 -6.83621e-05 -0.000121533 -0.000189895 -0.000273448 -0.000372193 -0.00048613 -0.000616135 -0.000763083 -0.000926974 -0.00110781 -0.00130559 -0.00152031 -0.00175198 -0.00200059 -0.00225235 -0.00249346 -0.00272393 -0.00294375 -0.00315293 -0.00335146 -0.00353934 -0.00371658 -0.00387438 -0.00400394 -0.00410527 -0.00417836 -0.00422322 -0.00423984 -0.00422822 -0.00418837 -0.00411927 -0.00401992 -0.0038903 -0.00373043 -0.0035403 -0.00331992 -0.00306928 -0.00278838 -0.00248525 -0.00216792 -0.0018364 -0.00149067 -0.00113075 -0.000756625 -0.000368303 3.42175e-05 0.000436741 0.00082507 0.00119921 0.00155915 0.00190489 0.00223645 0.00255381 0.00285697 0.00313454 0.00337509 0.00357864 0.00374518 0.00387471 0.00396723 0.00402274 0.00404124 0.00402274 0.00396723 0.00387471 0.00374518 0.00357864 0.00337509 0.00313454 0.00285697 0.00255381 0.00223645 0.00190489 0.00155915 0.00119921 0.00082507 0.000436741 3.42176e-05 -0.000368303 -0.000756625 -0.00113075 -0.00149067 -0.0018364 -0.00216792 -0.00248525 -0.00278838 -0.00306928 -0.00331992 -0.0035403 -0.00373043 -0.0038903 -0.00401992 -0.00411927 -0.00418837 -0.00422822 -0.00423984 -0.00422322 -0.00417836 -0.00410527 -0.00400394 -0.00387438 -0.00371658 -0.00353934 -0.00335146 -0.00315293 -0.00294375 -0.00272393 -0.00249346 -0.00225235 -0.00200059 -0.00175198 -0.00152031 -0.00130559 -0.00110781 -0.000926975 -0.000763083 -0.000616135 -0.000486131 -0.000372194 -0.000273449 -0.000189895 -0.000121533 -6.83621e-05 -3.03832e-05 -7.59579e-06 0 0 -9.11183e-06 -3.64473e-05 -8.20065e-05 -0.000145789 -0.000227796 -0.000328026 -0.00044648 -0.000583157 -0.000738645 -0.000913529 -0.00110781 -0.00132149 -0.00155456 -0.00180703 -0.0020789 -0.00237016 -0.00266409 -0.00294396 -0.00320977 -0.00346151 -0.00369918 -0.0039228 -0.00413235 -0.00432784 -0.00449864 -0.00463411 -0.00473427 -0.00479911 -0.00482863 -0.00482282 -0.0047817 -0.00470526 -0.00459245 -0.00444222 -0.00425457 -0.00402949 -0.003767 -0.00346709 -0.00312975 -0.002755 -0.00235305 -0.00193412 -0.00149823 -0.00104536 -0.000575524 -8.87148e-05 0.000415066 0.000935819 0.00145567 0.00195676 0.00243907 0.00290261 0.00334738 0.00377338 0.00418061 0.00456907 0.00492446 0.00523245 0.00549307 0.0057063 0.00587214 0.0059906 0.00606168 0.00608537 0.00606168 0.0059906 0.00587214 0.0057063 0.00549307 0.00523245 0.00492446 0.00456907 0.00418061 0.00377338 0.00334738 0.00290261 0.00243907 0.00195676 0.00145567 0.000935819 0.000415066 -8.87148e-05 -0.000575524 -0.00104536 -0.00149823 -0.00193412 -0.00235305 -0.002755 -0.00312975 -0.00346709 -0.003767 -0.00402949 -0.00425457 -0.00444222 -0.00459245 -0.00470526 -0.0047817 -0.00482282 -0.00482863 -0.00479911 -0.00473427 -0.00463411 -0.00449864 -0.00432784 -0.00413235 -0.0039228 -0.00369919 -0.00346151 -0.00320977 -0.00294396 -0.0026641 -0.00237016 -0.0020789 -0.00180703 -0.00155456 -0.00132149 -0.00110781 -0.00091353 -0.000738645 -0.000583158 -0.00044648 -0.000328026 -0.000227796 -0.000145789 -8.20065e-05 -3.64473e-05 -9.11184e-06 0 0 -1.07787e-05 -4.31148e-05 -9.70083e-05 -0.000172459 -0.000269467 -0.000388033 -0.000528156 -0.000689837 -0.000873226 -0.00107848 -0.00130559 -0.00155456 -0.00182539 -0.00211809 -0.00243264 -0.00276906 -0.00310734 -0.00342747 -0.00372945 -0.00401329 -0.00427899 -0.00452654 -0.00475595 -0.00496721 -0.00514766 -0.00528465 -0.00537816 -0.0054282 -0.00543477 -0.00539787 -0.00531749 -0.00519365 -0.00502528 -0.00481133 -0.00455181 -0.00424671 -0.00389603 -0.00349977 -0.00305793 -0.00257052 -0.00205031 -0.0015101 -0.000949882 -0.000369661 0.000230565 0.000850795 0.00149103 0.00215127 0.00280939 0.00344328 0.00405292 0.00463833 0.0051995 0.00573642 0.00624911 0.00673756 0.00718412 0.00757114 0.00789862 0.00816655 0.00837495 0.0085238 0.00861311 0.00864288 0.00861311 0.0085238 0.00837495 0.00816655 0.00789862 0.00757114 0.00718412 0.00673756 0.00624911 0.00573642 0.0051995 0.00463833 0.00405292 0.00344328 0.00280939 0.00215127 0.00149103 0.000850795 0.000230565 -0.000369661 -0.000949882 -0.0015101 -0.00205031 -0.00257052 -0.00305793 -0.00349977 -0.00389603 -0.00424671 -0.00455181 -0.00481133 -0.00502528 -0.00519365 -0.00531749 -0.00539787 -0.00543477 -0.0054282 -0.00537816 -0.00528465 -0.00514766 -0.00496721 -0.00475595 -0.00452654 -0.00427899 -0.00401329 -0.00372945 -0.00342747 -0.00310734 -0.00276906 -0.00243265 -0.00211809 -0.0018254 -0.00155456 -0.00130559 -0.00107848 -0.000873227 -0.000689837 -0.000528157 -0.000388033 -0.000269468 -0.000172459 -9.70084e-05 -4.31148e-05 -1.07787e-05 0 0 -1.25964e-05 -5.03856e-05 -0.000113368 -0.000201542 -0.00031491 -0.00045347 -0.000617223 -0.000806169 -0.00101988 -0.00125793 -0.00152031 -0.00180703 -0.00211809 -0.00245348 -0.00281321 -0.00319728 -0.00358207 -0.00394397 -0.00428298 -0.0045991 -0.00489234 -0.00516268 -0.00541013 -0.00563469 -0.00582146 -0.00595554 -0.00603693 -0.00606563 -0.00604164 -0.00596496 -0.00583559 -0.00565353 -0.00541776 -0.00512726 -0.00478203 -0.00438207 -0.00392738 -0.00341796 -0.00285381 -0.00223493 -0.00157704 -0.000895846 -0.000191356 0.000536432 0.00128752 0.0020619 0.00285959 0.00368057 0.0044979 0.00528464 0.00604077 0.0067663 0.00746123 0.00812557 0.0087593 0.00936244 0.00991353 0.0103911 0.0107953 0.0111259 0.0113831 0.0115668 0.011677 0.0117138 0.011677 0.0115668 0.0113831 0.0111259 0.0107953 0.0103912 0.00991353 0.00936244 0.0087593 0.00812557 0.00746124 0.0067663 0.00604077 0.00528464 0.0044979 0.00368057 0.00285959 0.0020619 0.00128752 0.000536432 -0.000191356 -0.000895847 -0.00157704 -0.00223493 -0.00285381 -0.00341796 -0.00392738 -0.00438207 -0.00478203 -0.00512726 -0.00541776 -0.00565353 -0.00583559 -0.00596496 -0.00604164 -0.00606563 -0.00603693 -0.00595554 -0.00582146 -0.00563469 -0.00541013 -0.00516268 -0.00489234 -0.00459911 -0.00428299 -0.00394397 -0.00358207 -0.00319728 -0.00281322 -0.00245348 -0.00211809 -0.00180703 -0.00152031 -0.00125793 -0.00101988 -0.00080617 -0.000617224 -0.000453471 -0.00031491 -0.000201542 -0.000113368 -5.03856e-05 -1.25964e-05 0 0 -1.45649e-05 -5.82597e-05 -0.000131084 -0.000233039 -0.000364123 -0.000524337 -0.000713681 -0.000932155 -0.00117861 -0.00145188 -0.00175198 -0.0020789 -0.00243264 -0.00281321 -0.00322061 -0.00365482 -0.0040883 -0.00449348 -0.00487036 -0.00521895 -0.00553923 -0.00583121 -0.0060949 -0.00633028 -0.00652003 -0.0066468 -0.00671059 -0.00671141 -0.00664925 -0.00652411 -0.006336 -0.00608491 -0.00576989 -0.00539 -0.00494523 -0.00443558 -0.00386106 -0.00322166 -0.00251739 -0.00174825 -0.000933233 -9.13692e-05 0.000777348 0.00167292 0.00259534 0.00354461 0.00452074 0.00552372 0.0065212 0.00748083 0.00840261 0.00928653 0.0101326 0.0109408 0.0117112 0.0124437 0.0131127 0.0136925 0.0141831 0.0145845 0.0148967 0.0151197 0.0152535 0.0152981 0.0152535 0.0151197 0.0148967 0.0145845 0.0141831 0.0136925 0.0131127 0.0124437 0.0117112 0.0109408 0.0101326 0.00928653 0.00840261 0.00748083 0.0065212 0.00552372 0.00452074 0.00354461 0.00259534 0.00167292 0.000777348 -9.13694e-05 -0.000933234 -0.00174825 -0.00251739 -0.00322166 -0.00386106 -0.00443558 -0.00494523 -0.00539 -0.00576989 -0.00608491 -0.006336 -0.00652411 -0.00664925 -0.00671141 -0.00671059 -0.0066468 -0.00652003 -0.00633028 -0.0060949 -0.00583121 -0.00553923 -0.00521895 -0.00487037 -0.00449348 -0.0040883 -0.00365483 -0.00322061 -0.00281322 -0.00243265 -0.0020789 -0.00175198 -0.00145188 -0.00117861 -0.000932155 -0.000713681 -0.000524337 -0.000364123 -0.000233039 -0.000131084 -5.82597e-05 -1.45649e-05 0 0 -1.66843e-05 -6.67371e-05 -0.000150158 -0.000266948 -0.000417107 -0.000600634 -0.000817529 -0.00106779 -0.0013494 -0.00166033 -0.00200059 -0.00237016 -0.00276906 -0.00319728 -0.00365482 -0.00414169 -0.00462603 -0.005076 -0.00549159 -0.00587281 -0.00621966 -0.00653214 -0.00681025 -0.00705399 -0.00724337 -0.00735842 -0.00739914 -0.00736553 -0.00725759 -0.00707532 -0.00681871 -0.00648778 -0.00608167 -0.00559954 -0.0050414 -0.00440724 -0.00369707 -0.00291088 -0.00204868 -0.00111046 -0.000118895 0.000903334 0.00195623 0.00303979 0.00415403 0.00529892 0.00647449 0.00768072 0.00887929 0.0100319 0.0111384 0.012199 0.0132136 0.0141822 0.0151048 0.0159814 0.0167816 0.0174751 0.018062 0.0185421 0.0189156 0.0191823 0.0193424 0.0193957 0.0193424 0.0191823 0.0189156 0.0185421 0.018062 0.0174751 0.0167816 0.0159814 0.0151048 0.0141822 0.0132136 0.012199 0.0111384 0.0100319 0.00887929 0.00768072 0.00647449 0.00529892 0.00415402 0.00303979 0.00195623 0.000903334 -0.000118896 -0.00111046 -0.00204868 -0.00291088 -0.00369707 -0.00440724 -0.0050414 -0.00559954 -0.00608167 -0.00648778 -0.00681871 -0.00707532 -0.00725759 -0.00736553 -0.00739914 -0.00735842 -0.00724337 -0.00705399 -0.00681025 -0.00653215 -0.00621967 -0.00587282 -0.00549159 -0.005076 -0.00462603 -0.00414169 -0.00365483 -0.00319728 -0.00276906 -0.00237016 -0.00200059 -0.00166033 -0.0013494 -0.00106779 -0.00081753 -0.000600634 -0.000417107 -0.000266948 -0.000150158 -6.67371e-05 -1.66843e-05 0 0 -1.88448e-05 -7.53793e-05 -0.000169604 -0.000301517 -0.000471121 -0.000678414 -0.000923397 -0.00120607 -0.00152333 -0.00187209 -0.00225235 -0.00266409 -0.00310734 -0.00358207 -0.0040883 -0.00462603 -0.0051588 -0.00565016 -0.00610012 -0.00650867 -0.00687582 -0.00720156 -0.00748589 -0.00772882 -0.00790753 -0.00799922 -0.00800388 -0.00792152 -0.00775214 -0.00749573 -0.0071523 -0.00672184 -0.00620372 -0.00559731 -0.00490261 -0.00411961 -0.00324833 -0.00228875 -0.00124087 -0.000104709 0.0010929 0.00232511 0.00359192 0.00489333 0.00622934 0.00759994 0.00900515 0.010445 0.0118743 0.0132482 0.0145665 0.0158294 0.0170367 0.0181886 0.0192849 0.0203258 0.0212756 0.0220987 0.0227952 0.0233651 0.0238083 0.0241249 0.0243149 0.0243782 0.0243149 0.0241249 0.0238083 0.0233651 0.0227952 0.0220987 0.0212756 0.0203258 0.0192849 0.0181886 0.0170367 0.0158294 0.0145665 0.0132482 0.0118743 0.010445 0.00900515 0.00759994 0.00622934 0.00489333 0.00359192 0.00232511 0.0010929 -0.000104709 -0.00124087 -0.00228875 -0.00324833 -0.00411961 -0.00490261 -0.00559731 -0.00620372 -0.00672184 -0.0071523 -0.00749573 -0.00775214 -0.00792153 -0.00800389 -0.00799922 -0.00790753 -0.00772882 -0.00748589 -0.00720156 -0.00687582 -0.00650867 -0.00610012 -0.00565016 -0.0051588 -0.00462603 -0.0040883 -0.00358207 -0.00310734 -0.0026641 -0.00225235 -0.00187209 -0.00152334 -0.00120607 -0.000923398 -0.000678415 -0.000471121 -0.000301518 -0.000169604 -7.53794e-05 -1.88448e-05 0 0 -2.0937e-05 -8.37481e-05 -0.000188433 -0.000334993 -0.000523426 -0.000753733 -0.00102591 -0.00133997 -0.00169146 -0.00207596 -0.00249346 -0.00294396 -0.00342747 -0.00394397 -0.00449348 -0.00507599 -0.00565016 -0.00617463 -0.0066494 -0.00707447 -0.00744985 -0.00777553 -0.00805151 -0.0082778 -0.00842857 -0.00847801 -0.00842613 -0.00827292 -0.00801838 -0.00766251 -0.00720531 -0.00664679 -0.00598667 -0.00522471 -0.0043609 -0.00339525 -0.00232774 -0.00115839 0.00011281 0.00148586 0.00292908 0.00441081 0.00593105 0.00748979 0.00908704 0.0107228 0.012397 0.0141098 0.0158084 0.0174402 0.0190051 0.0205032 0.0219345 0.023299 0.0245966 0.0258274 0.02695 0.0279229 0.0287461 0.0294196 0.0299435 0.0303176 0.0305421 0.030617 0.0305421 0.0303176 0.0299435 0.0294196 0.0287461 0.0279229 0.02695 0.0258274 0.0245966 0.023299 0.0219345 0.0205032 0.0190051 0.0174402 0.0158084 0.0141098 0.012397 0.0107228 0.00908704 0.00748979 0.00593105 0.00441081 0.00292908 0.00148586 0.00011281 -0.00115839 -0.00232774 -0.00339525 -0.0043609 -0.00522471 -0.00598667 -0.00664679 -0.00720531 -0.00766251 -0.00801838 -0.00827292 -0.00842613 -0.00847801 -0.00842857 -0.0082778 -0.00805151 -0.00777553 -0.00744985 -0.00707447 -0.0066494 -0.00617463 -0.00565016 -0.005076 -0.00449348 -0.00394397 -0.00342747 -0.00294396 -0.00249346 -0.00207596 -0.00169146 -0.00133997 -0.00102592 -0.000753734 -0.000523426 -0.000334993 -0.000188433 -8.37482e-05 -2.0937e-05 0 0 -2.29608e-05 -9.18434e-05 -0.000206648 -0.000367374 -0.000574021 -0.000826591 -0.00112508 -0.00146949 -0.00185379 -0.00227194 -0.00272393 -0.00320977 -0.00372945 -0.00428298 -0.00487036 -0.00549159 -0.00610012 -0.0066494 -0.00713943 -0.00757022 -0.00794177 -0.00825406 -0.00850711 -0.00870092 -0.00880648 -0.0087948 -0.00866587 -0.00841971 -0.0080563 -0.00757565 -0.00697776 -0.00626262 -0.00543053 -0.00448175 -0.00341629 -0.00223415 -0.000935321 0.000480186 0.00201237 0.00366124 0.00538965 0.00716044 0.00897362 0.0108292 0.0127271 0.0146675 0.0166502 0.0186753 0.0206816 0.0226079 0.0244543 0.0262206 0.027907 0.0295134 0.0310398 0.0324863 0.0338048 0.0349475 0.0359145 0.0367056 0.0373209 0.0377604 0.0380241 0.038112 0.0380241 0.0377604 0.0373209 0.0367056 0.0359145 0.0349475 0.0338048 0.0324863 0.0310398 0.0295134 0.027907 0.0262206 0.0244543 0.0226079 0.0206816 0.0186753 0.0166502 0.0146675 0.0127271 0.0108292 0.00897362 0.00716044 0.00538965 0.00366124 0.00201237 0.000480185 -0.000935322 -0.00223415 -0.00341629 -0.00448175 -0.00543053 -0.00626262 -0.00697776 -0.00757565 -0.0080563 -0.00841971 -0.00866588 -0.0087948 -0.00880648 -0.00870092 -0.00850712 -0.00825406 -0.00794177 -0.00757023 -0.00713944 -0.0066494 -0.00610012 -0.00549159 -0.00487037 -0.00428299 -0.00372945 -0.00320977 -0.00272393 -0.00227194 -0.00185379 -0.0014695 -0.00112508 -0.000826591 -0.000574022 -0.000367374 -0.000206648 -9.18435e-05 -2.29609e-05 0 0 -2.49163e-05 -9.96652e-05 -0.000224247 -0.000398661 -0.000622907 -0.000896986 -0.0012209 -0.00159464 -0.00201032 -0.00246002 -0.00294375 -0.00346151 -0.00401329 -0.0045991 -0.00521895 -0.00587281 -0.00650867 -0.00707447 -0.00757022 -0.00799592 -0.00835157 -0.00863716 -0.0088527 -0.00899819 -0.00904126 -0.00894958 -0.00872312 -0.0083619 -0.00786591 -0.00723516 -0.00646964