<?xml version="1.0"?> 
<VTKFile type="StructuredGrid" version="0.1"> 
<StructuredGrid WholeExtent="0 128 0 128 0 0"> 
<Piece Extent="0 128 0 128 0 0"> 
<PointData>
<DataArray type="Float32" Name="u" format="ascii" NumberOfComponents="1"> 
0 0 0 0 0 0 0 0 0 0 0 0 0 0 0 0 0 0 0 0 0 0 0 0 0 0 0 0 0 0 0 0 0 0 0 0 0 0 0 0 0 0 0 0 0 0 0 0 0 0 0 0 0 0 0 0 0 0 0 0 0 0 0 0 0 0 0 0 0 0 0 0 0 0 0 0 0 0 0 0 0 0 0 0 0 0 0 0 0 0 0 0 0 0 0 0 0 0 0 0 0 0 0 0 0 0 0 0 0 0 0 0 0 0 0 0 0 0 0 0 0 0 0 0 0 0 0 0 0 0 -5.96231e-08 -2.38492e-07 -5.36608e-07 -9.5397e-07 -1.49058e-06 -2.14643e-06 -2.92153e-06 -3.81588e-06 -4.8654e-06 -6.10603e-06 -7.53777e-06 -9.16062e-06 -1.09746e-05 -1.29796e-05 -1.51758e-05 -1.75631e-05 -2.00568e-05 -2.25722e-05 -2.51093e-05 -2.76681e-05 -3.02487e-05 -3.28509e-05 -3.54749e-05 -3.81206e-05 -4.07385e-05 -4.32792e-05 -4.57425e-05 -4.81287e-05 -5.04375e-05 -5.26691e-05 -5.48234e-05 -5.69004e-05 -5.88944e-05 -6.07996e-05 -6.26159e-05 -6.43433e-05 -6.5982e-05 -6.75318e-05 -6.89927e-05 -7.03648e-05 -7.16594e-05 -7.28877e-05 -7.40497e-05 -7.51456e-05 -7.61751e-05 -7.71384e-05 -7.80355e-05 -7.88663e-05 -7.96387e-05 -8.03608e-05 -8.10324e-05 -8.16536e-05 -8.22244e-05 -8.27448e-05 -8.32147e-05 -8.36342e-05 -8.40039e-05 -8.43243e-05 -8.45954e-05 -8.48172e-05 -8.49897e-05 -8.5113e-05 -8.51869e-05 -8.52115e-05 -8.51869e-05 -8.5113e-05 -8.49897e-05 -8.48172e-05 -8.45954e-05 -8.43243e-05 -8.40039e-05 -8.36342e-05 -8.32147e-05 -8.27448e-05 -8.22244e-05 -8.16536e-05 -8.10324e-05 -8.03608e-05 -7.96387e-05 -7.88663e-05 -7.80355e-05 -7.71384e-05 -7.61751e-05 -7.51456e-05 -7.40497e-05 -7.28877e-05 -7.16594e-05 -7.03648e-05 -6.89927e-05 -6.75318e-05 -6.5982e-05 -6.43433e-05 -6.26159e-05 -6.07996e-05 -5.88944e-05 -5.69004e-05 -5.48234e-05 -5.26691e-05 -5.04375e-05 -4.81287e-05 -4.57425e-05 -4.32792e-05 -4.07385e-05 -3.81206e-05 -3.54749e-05 -3.28509e-05 -3.02487e-05 -2.76681e-05 -2.51093e-05 -2.25722e-05 -2.00568e-05 -1.75631e-05 -1.51758e-05 -1.29796e-05 -1.09746e-05 -9.16062e-06 -7.53778e-06 -6.10604e-06 -4.86541e-06 -3.81588e-06 -2.92153e-06 -2.14643e-06 -1.49058e-06 -9.53971e-07 -5.36608e-07 -2.38493e-07 -5.96232e-08 0 0 -2.38492e-07 -9.5397e-07 -2.14643e-06 -3.81588e-06 -5.96231e-06 -8.58573e-06 -1.16861e-05 -1.52635e-05 -1.94616e-05 -2.44241e-05 -3.01511e-05 -3.66425e-05 -4.38983e-05 -5.19185e-05 -6.07032e-05 -7.02523e-05 -8.0227e-05 -9.02886e-05 -0.000100437 -0.000110672 -0.000120995 -0.000131404 -0.0001419 -0.000152482 -0.000162954 -0.000173117 -0.00018297 -0.000192515 -0.00020175 -0.000210676 -0.000219294 -0.000227602 -0.000235578 -0.000243198 -0.000250463 -0.000257373 -0.000263928 -0.000270127 -0.000275971 -0.000281459 -0.000286638 -0.000291551 -0.000296199 -0.000300582 -0.0003047 -0.000308554 -0.000312142 -0.000315465 -0.000318555 -0.000321443 -0.00032413 -0.000326614 -0.000328898 -0.000330979 -0.000332859 -0.000334537 -0.000336016 -0.000337297 -0.000338382 -0.000339269 -0.000339959 -0.000340452 -0.000340748 -0.000340846 -0.000340748 -0.000340452 -0.000339959 -0.000339269 -0.000338382 -0.000337297 -0.000336016 -0.000334537 -0.000332859 -0.000330979 -0.000328898 -0.000326614 -0.00032413 -0.000321443 -0.000318555 -0.000315465 -0.000312142 -0.000308554 -0.0003047 -0.000300582 -0.000296199 -0.000291551 -0.000286637 -0.000281459 -0.000275971 -0.000270127 -0.000263928 -0.000257373 -0.000250463 -0.000243198 -0.000235578 -0.000227602 -0.000219294 -0.000210676 -0.00020175 -0.000192515 -0.00018297 -0.000173117 -0.000162954 -0.000152482 -0.0001419 -0.000131404 -0.000120995 -0.000110672 -0.000100437 -9.02887e-05 -8.02271e-05 -7.02523e-05 -6.07032e-05 -5.19185e-05 -4.38983e-05 -3.66425e-05 -3.01511e-05 -2.44242e-05 -1.94616e-05 -1.52635e-05 -1.16861e-05 -8.58573e-06 -5.96232e-06 -3.81588e-06 -2.14643e-06 -9.53971e-07 -2.38493e-07 0 0 -5.36608e-07 -2.14643e-06 -4.82947e-06 -8.58573e-06 -1.34152e-05 -1.93179e-05 -2.62938e-05 -3.43429e-05 -4.37886e-05 -5.49543e-05 -6.78399e-05 -8.24455e-05 -9.87711e-05 -0.000116817 -0.000136582 -0.000158068 -0.000180511 -0.000203149 -0.000225983 -0.000249013 -0.000272238 -0.000295658 -0.000319274 -0.000343085 -0.000366647 -0.000389512 -0.000411683 -0.000433158 -0.000453938 -0.000474022 -0.00049341 -0.000512104 -0.00053005 -0.000547196 -0.000563543 -0.00057909 -0.000593838 -0.000607786 -0.000620934 -0.000633283 -0.000644934 -0.000655989 -0.000666448 -0.00067631 -0.000685576 -0.000694246 -0.000702319 -0.000709796 -0.000716749 -0.000723247 -0.000729292 -0.000734882 -0.00074002 -0.000744703 -0.000748932 -0.000752708 -0.000756035 -0.000758919 -0.000761359 -0.000763355 -0.000764908 -0.000766017 -0.000766682 -0.000766904 -0.000766682 -0.000766017 -0.000764908 -0.000763355 -0.000761359 -0.000758919 -0.000756035 -0.000752708 -0.000748932 -0.000744703 -0.00074002 -0.000734882 -0.000729292 -0.000723247 -0.000716749 -0.000709796 -0.000702319 -0.000694246 -0.000685576 -0.00067631 -0.000666448 -0.000655989 -0.000644934 -0.000633283 -0.000620934 -0.000607786 -0.000593838 -0.00057909 -0.000563543 -0.000547196 -0.00053005 -0.000512104 -0.00049341 -0.000474022 -0.000453938 -0.000433158 -0.000411683 -0.000389512 -0.000366647 -0.000343085 -0.000319274 -0.000295658 -0.000272238 -0.000249013 -0.000225984 -0.000203149 -0.000180511 -0.000158068 -0.000136582 -0.000116817 -9.87712e-05 -8.24456e-05 -6.784e-05 -5.49543e-05 -4.37887e-05 -3.43429e-05 -2.62938e-05 -1.93179e-05 -1.34152e-05 -8.58573e-06 -4.82948e-06 -2.14643e-06 -5.36608e-07 0 0 -9.5397e-07 -3.81588e-06 -8.58573e-06 -1.52635e-05 -2.38492e-05 -3.43429e-05 -4.67445e-05 -6.10541e-05 -7.78464e-05 -9.76965e-05 -0.000120604 -0.00014657 -0.000175593 -0.000207674 -0.000242813 -0.000281009 -0.000320908 -0.000361155 -0.000401748 -0.00044269 -0.000483978 -0.000525615 -0.000567598 -0.000609929 -0.000651816 -0.000692467 -0.000731881 -0.000770058 -0.000807 -0.000842705 -0.000877174 -0.000910407 -0.000942311 -0.000972793 -0.00100185 -0.00102949 -0.00105571 -0.00108051 -0.00110388 -0.00112584 -0.00114655 -0.0011662 -0.0011848 -0.00120233 -0.0012188 -0.00123421 -0.00124857 -0.00126186 -0.00127422 -0.00128577 -0.00129652 -0.00130646 -0.00131559 -0.00132392 -0.00133144 -0.00133815 -0.00134406 -0.00134919 -0.00135353 -0.00135708 -0.00135984 -0.00136181 -0.00136299 -0.00136338 -0.00136299 -0.00136181 -0.00135984 -0.00135708 -0.00135353 -0.00134919 -0.00134406 -0.00133815 -0.00133144 -0.00132392 -0.00131559 -0.00130646 -0.00129652 -0.00128577 -0.00127422 -0.00126186 -0.00124857 -0.00123421 -0.0012188 -0.00120233 -0.0011848 -0.0011662 -0.00114655 -0.00112584 -0.00110388 -0.00108051 -0.00105571 -0.00102949 -0.00100185 -0.000972793 -0.000942311 -0.000910407 -0.000877174 -0.000842705 -0.000807 -0.000770059 -0.000731881 -0.000692467 -0.000651816 -0.00060993 -0.000567598 -0.000525615 -0.000483979 -0.00044269 -0.000401749 -0.000361155 -0.000320908 -0.000281009 -0.000242813 -0.000207674 -0.000175593 -0.00014657 -0.000120604 -9.76966e-05 -7.78465e-05 -6.10541e-05 -4.67446e-05 -3.43429e-05 -2.38493e-05 -1.52635e-05 -8.58573e-06 -3.81588e-06 -9.53971e-07 0 0 -1.49058e-06 -5.96231e-06 -1.34152e-05 -2.38492e-05 -3.72644e-05 -5.36608e-05 -7.30383e-05 -9.5397e-05 -0.000121635 -0.000152651 -0.000188444 -0.000229015 -0.000274364 -0.000324491 -0.000379395 -0.000439077 -0.000501419 -0.000564304 -0.000627732 -0.000691703 -0.000756216 -0.000821273 -0.000886872 -0.000953015 -0.00101846 -0.00108198 -0.00114356 -0.00120322 -0.00126094 -0.00131673 -0.00137058 -0.00142251 -0.00147236 -0.00151999 -0.0015654 -0.00160858 -0.00164955 -0.00168829 -0.00172482 -0.00175912 -0.00179148 -0.00182219 -0.00185124 -0.00187864 -0.00190438 -0.00192846 -0.00195089 -0.00197166 -0.00199097 -0.00200902 -0.00202581 -0.00204134 -0.00205561 -0.00206862 -0.00208037 -0.00209086 -0.0021001 -0.00210811 -0.00211489 -0.00212043 -0.00212474 -0.00212782 -0.00212967 -0.00213029 -0.00212967 -0.00212782 -0.00212474 -0.00212043 -0.00211489 -0.00210811 -0.0021001 -0.00209086 -0.00208037 -0.00206862 -0.00205561 -0.00204134 -0.00202581 -0.00200902 -0.00199097 -0.00197166 -0.00195089 -0.00192846 -0.00190438 -0.00187864 -0.00185124 -0.00182219 -0.00179148 -0.00175912 -0.00172482 -0.00168829 -0.00164955 -0.00160858 -0.0015654 -0.00151999 -0.00147236 -0.00142251 -0.00137058 -0.00131673 -0.00126094 -0.00120322 -0.00114356 -0.00108198 -0.00101846 -0.000953015 -0.000886873 -0.000821273 -0.000756217 -0.000691703 -0.000627732 -0.000564304 -0.000501419 -0.000439077 -0.000379395 -0.000324491 -0.000274364 -0.000229016 -0.000188444 -0.000152651 -0.000121635 -9.53971e-05 -7.30384e-05 -5.36608e-05 -3.72645e-05 -2.38493e-05 -1.34152e-05 -5.96232e-06 -1.49058e-06 0 0 -2.14643e-06 -8.58573e-06 -1.93179e-05 -3.43429e-05 -5.36608e-05 -7.72715e-05 -0.000105175 -0.000137372 -0.000175154 -0.000219817 -0.00027136 -0.000329782 -0.000395084 -0.000467267 -0.000546329 -0.000632271 -0.000722043 -0.000812598 -0.000903934 -0.000996052 -0.00108895 -0.00118263 -0.0012771 -0.00137234 -0.00146659 -0.00155805 -0.00164673 -0.00173263 -0.00181575 -0.00189609 -0.00197364 -0.00204842 -0.0021202 -0.00218878 -0.00225417 -0.00231636 -0.00237535 -0.00243114 -0.00248374 -0.00253313 -0.00257974 -0.00262396 -0.00266579 -0.00270524 -0.0027423 -0.00277698 -0.00280928 -0.00283919 -0.00286699 -0.00289299 -0.00291717 -0.00293953 -0.00296008 -0.00297881 -0.00299573 -0.00301083 -0.00302414 -0.00303568 -0.00304543 -0.00305342 -0.00305963 -0.00306407 -0.00306673 -0.00306762 -0.00306673 -0.00306407 -0.00305963 -0.00305342 -0.00304543 -0.00303568 -0.00302414 -0.00301083 -0.00299573 -0.00297881 -0.00296008 -0.00293953 -0.00291717 -0.00289299 -0.00286699 -0.00283919 -0.00280928 -0.00277698 -0.0027423 -0.00270524 -0.00266579 -0.00262396 -0.00257974 -0.00253313 -0.00248374 -0.00243114 -0.00237535 -0.00231636 -0.00225417 -0.00218878 -0.0021202 -0.00204842 -0.00197364 -0.00189609 -0.00181575 -0.00173263 -0.00164673 -0.00155805 -0.00146659 -0.00137234 -0.0012771 -0.00118263 -0.00108895 -0.000996052 -0.000903934 -0.000812598 -0.000722043 -0.000632271 -0.000546329 -0.000467267 -0.000395085 -0.000329782 -0.00027136 -0.000219817 -0.000175155 -0.000137372 -0.000105175 -7.72716e-05 -5.36608e-05 -3.43429e-05 -1.93179e-05 -8.58573e-06 -2.14643e-06 0 0 -2.92153e-06 -1.16861e-05 -2.62938e-05 -4.67445e-05 -7.30383e-05 -0.000105175 -0.000143155 -0.000186978 -0.000238405 -0.000299196 -0.000369351 -0.00044887 -0.000537754 -0.000636002 -0.000743614 -0.00086059 -0.000982781 -0.00110604 -0.00123035 -0.00135574 -0.00148218 -0.0016097 -0.00173827 -0.00186791 -0.00199619 -0.00212068 -0.00224138 -0.0023583 -0.00247144 -0.00258078 -0.00268635 -0.00278812 -0.00288583 -0.00297918 -0.00306818 -0.00315282 -0.00323312 -0.00330906 -0.00338064 -0.00344788 -0.00351131 -0.0035715 -0.00362844 -0.00368213 -0.00373258 -0.00377978 -0.00382374 -0.00386445 -0.0039023 -0.00393768 -0.00397059 -0.00400103 -0.004029 -0.00405449 -0.00407752 -0.00409808 -0.00411619 -0.00413189 -0.00414517 -0.00415604 -0.0041645 -0.00417053 -0.00417416 -0.00417537 -0.00417416 -0.00417053 -0.0041645 -0.00415604 -0.00414517 -0.00413189 -0.00411619 -0.00409808 -0.00407752 -0.00405449 -0.004029 -0.00400103 -0.00397059 -0.00393768 -0.0039023 -0.00386445 -0.00382374 -0.00377978 -0.00373258 -0.00368213 -0.00362844 -0.0035715 -0.00351131 -0.00344788 -0.00338064 -0.00330906 -0.00323312 -0.00315282 -0.00306818 -0.00297918 -0.00288583 -0.00278812 -0.00268635 -0.00258078 -0.00247144 -0.0023583 -0.00224138 -0.00212068 -0.00199619 -0.00186791 -0.00173827 -0.0016097 -0.00148218 -0.00135574 -0.00123035 -0.00110604 -0.000982781 -0.000860591 -0.000743614 -0.000636002 -0.000537754 -0.00044887 -0.000369351 -0.000299196 -0.000238405 -0.000186978 -0.000143155 -0.000105175 -7.30384e-05 -4.67446e-05 -2.62938e-05 -1.16861e-05 -2.92153e-06 0 0 -3.81588e-06 -1.52635e-05 -3.43429e-05 -6.10541e-05 -9.5397e-05 -0.000137372 -0.000186978 -0.000244216 -0.000311386 -0.000390786 -0.000482417 -0.000586279 -0.000702372 -0.000830696 -0.000971251 -0.00112404 -0.00128363 -0.00144462 -0.00160699 -0.00177076 -0.00193591 -0.00210246 -0.00227039 -0.00243972 -0.00260726 -0.00276987 -0.00292752 -0.00308023 -0.003228 -0.00337082 -0.0035087 -0.00364163 -0.00376924 -0.00389117 -0.00400742 -0.00411797 -0.00422285 -0.00432203 -0.00441553 -0.00450335 -0.0045862 -0.00466481 -0.00473918 -0.00480932 -0.00487521 -0.00493686 -0.00499427 -0.00504744 -0.00509688 -0.00514309 -0.00518607 -0.00522583 -0.00526236 -0.00529566 -0.00532574 -0.00535259 -0.00537625 -0.00539676 -0.00541411 -0.0054283 -0.00543934 -0.00544723 -0.00545196 -0.00545354 -0.00545196 -0.00544723 -0.00543934 -0.0054283 -0.00541411 -0.00539676 -0.00537625 -0.00535259 -0.00532574 -0.00529566 -0.00526236 -0.00522583 -0.00518607 -0.00514309 -0.00509688 -0.00504744 -0.00499427 -0.00493686 -0.00487521 -0.00480932 -0.00473918 -0.00466481 -0.0045862 -0.00450335 -0.00441553 -0.00432203 -0.00422285 -0.00411797 -0.00400742 -0.00389117 -0.00376924 -0.00364163 -0.0035087 -0.00337082 -0.003228 -0.00308023 -0.00292752 -0.00276987 -0.00260726 -0.00243972 -0.00227039 -0.00210246 -0.00193591 -0.00177076 -0.00160699 -0.00144462 -0.00128363 -0.00112404 -0.000971251 -0.000830697 -0.000702373 -0.00058628 -0.000482418 -0.000390786 -0.000311386 -0.000244216 -0.000186978 -0.000137372 -9.53971e-05 -6.10541e-05 -3.43429e-05 -1.52635e-05 -3.81588e-06 0 0 -4.8654e-06 -1.94616e-05 -4.37886e-05 -7.78464e-05 -0.000121635 -0.000175154 -0.000238405 -0.000311386 -0.000396902 -0.000497757 -0.000613951 -0.000745484 -0.000892356 -0.00105457 -0.00123212 -0.00142501 -0.00162627 -0.00182892 -0.00203297 -0.00223843 -0.00244527 -0.00265352 -0.00286317 -0.00307421 -0.00328259 -0.00348426 -0.00367922 -0.00386747 -0.00404901 -0.00422383 -0.00439194 -0.00455334 -0.00470761 -0.00485433 -0.0049935 -0.00512513 -0.00524922 -0.00536576 -0.00547475 -0.00557619 -0.00567118 -0.0057608 -0.00584505 -0.00592394 -0.00599745 -0.0060656 -0.00612838 -0.0061858 -0.00623871 -0.006288 -0.00633366 -0.00637569 -0.0064141 -0.00644888 -0.00648003 -0.00650755 -0.00653166 -0.00655255 -0.00657022 -0.00658468 -0.00659593 -0.00660397 -0.00660879 -0.0066104 -0.00660879 -0.00660397 -0.00659593 -0.00658468 -0.00657022 -0.00655255 -0.00653166 -0.00650755 -0.00648003 -0.00644888 -0.0064141 -0.00637569 -0.00633366 -0.006288 -0.00623871 -0.0061858 -0.00612838 -0.0060656 -0.00599745 -0.00592394 -0.00584505 -0.0057608 -0.00567118 -0.00557619 -0.00547475 -0.00536576 -0.00524922 -0.00512513 -0.0049935 -0.00485433 -0.00470761 -0.00455334 -0.00439194 -0.00422383 -0.00404901 -0.00386747 -0.00367922 -0.00348426 -0.00328259 -0.00307421 -0.00286317 -0.00265352 -0.00244528 -0.00223843 -0.00203298 -0.00182892 -0.00162627 -0.00142501 -0.00123212 -0.00105457 -0.000892357 -0.000745485 -0.000613951 -0.000497757 -0.000396902 -0.000311386 -0.000238405 -0.000175155 -0.000121635 -7.78465e-05 -4.37887e-05 -1.94616e-05 -4.86541e-06 0 0 -6.10603e-06 -2.44241e-05 -5.49543e-05 -9.76965e-05 -0.000152651 -0.000219817 -0.000299196 -0.000390786 -0.000497757 -0.000623276 -0.000767343 -0.000929958 -0.00111112 -0.00131083 -0.00152909 -0.0017659 -0.00201235 -0.00225952 -0.00250742 -0.00275605 -0.0030054 -0.00325548 -0.00350628 -0.00375782 -0.00400494 -0.00424252 -0.00447056 -0.00468906 -0.00489802 -0.00509744 -0.00528732 -0.00546765 -0.00563807 -0.00579821 -0.00594806 -0.00608763 -0.00621691 -0.00633591 -0.00644462 -0.00654305 -0.00663302 -0.00671636 -0.00679307 -0.00686314 -0.00692659 -0.0069834 -0.00703359 -0.00707714 -0.00711577 -0.00715118 -0.00718338 -0.00721236 -0.00723813 -0.00726068 -0.00728002 -0.00729614 -0.00730975 -0.00732154 -0.00733152 -0.00733968 -0.00734603 -0.00735057 -0.00735329 -0.0073542 -0.00735329 -0.00735057 -0.00734603 -0.00733968 -0.00733152 -0.00732154 -0.00730975 -0.00729614 -0.00728002 -0.00726068 -0.00723813 -0.00721236 -0.00718338 -0.00715118 -0.00711577 -0.00707714 -0.00703359 -0.0069834 -0.00692659 -0.00686314 -0.00679307 -0.00671636 -0.00663302 -0.00654305 -0.00644462 -0.00633591 -0.00621691 -0.00608763 -0.00594806 -0.00579821 -0.00563807 -0.00546765 -0.00528732 -0.00509744 -0.00489802 -0.00468907 -0.00447057 -0.00424252 -0.00400494 -0.00375782 -0.00350628 -0.00325548 -0.0030054 -0.00275605 -0.00250742 -0.00225952 -0.00201235 -0.0017659 -0.0015291 -0.00131084 -0.00111112 -0.000929959 -0.000767344 -0.000623276 -0.000497757 -0.000390786 -0.000299196 -0.000219817 -0.000152651 -9.76966e-05 -5.49543e-05 -2.44242e-05 -6.10604e-06 0 0 -7.53777e-06 -3.01511e-05 -6.78399e-05 -0.000120604 -0.000188444 -0.00027136 -0.000369351 -0.000482417 -0.000613951 -0.000767343 -0.000942593 -0.0011397 -0.00135867 -0.0015995 -0.00186218 -0.00214672 -0.00244188 -0.00273642 -0.00303033 -0.00332362 -0.00361629 -0.00390833 -0.00419975 -0.00449054 -0.00477431 -0.00504464 -0.00530155 -0.00554502 -0.00577505 -0.00599166 -0.00619483 -0.00638457 -0.00656064 -0.00672282 -0.00687109 -0.00700546 -0.00712593 -0.00723249 -0.00732516 -0.00740392 -0.00747172 -0.00753149 -0.00758323 -0.00762694 -0.00766261 -0.00769026 -0.00770988 -0.00772147 -0.00772805 -0.00773263 -0.00773523 -0.00773583 -0.00773445 -0.00773108 -0.00772571 -0.00771835 -0.00771052 -0.00770374 -0.007698 -0.0076933 -0.00768965 -0.00768704 -0.00768547 -0.00768495 -0.00768547 -0.00768704 -0.00768965 -0.0076933 -0.007698 -0.00770374 -0.00771052 -0.00771835 -0.00772571 -0.00773108 -0.00773445 -0.00773583 -0.00773523 -0.00773263 -0.00772805 -0.00772147 -0.00770988 -0.00769026 -0.00766261 -0.00762694 -0.00758323 -0.00753149 -0.00747172 -0.00740392 -0.00732516 -0.00723249 -0.00712593 -0.00700546 -0.00687109 -0.00672282 -0.00656064 -0.00638457 -0.00619483 -0.00599166 -0.00577505 -0.00554502 -0.00530155 -0.00504464 -0.00477431 -0.00449054 -0.00419975 -0.00390833 -0.00361629 -0.00332362 -0.00303034 -0.00273642 -0.00244189 -0.00214672 -0.00186218 -0.0015995 -0.00135867 -0.0011397 -0.000942594 -0.000767344 -0.000613951 -0.000482418 -0.000369351 -0.00027136 -0.000188444 -0.000120604 -6.784e-05 -3.01511e-05 -7.53778e-06 0 0 -9.16061e-06 -3.66425e-05 -8.24455e-05 -0.00014657 -0.000229015 -0.000329782 -0.00044887 -0.000586279 -0.000745484 -0.000929958 -0.0011397 -0.00137472 -0.001635 -0.00192055 -0.00223138 -0.00256747 -0.00291487 -0.00325962 -0.00360171 -0.00394115 -0.00427794 -0.00461208 -0.00494356 -0.00527239 -0.0055907 -0.00589063 -0.00617217 -0.00643532 -0.00668009 -0.00690648 -0.00711448 -0.0073041 -0.00747532 -0.00762815 -0.00776258 -0.00787862 -0.00797626 -0.00805551 -0.00811636 -0.00815881 -0.00818728 -0.00820619 -0.00821553 -0.00821531 -0.00820553 -0.00818618 -0.00815727 -0.00811879 -0.00807555 -0.00803236 -0.00798921 -0.00794612 -0.00790307 -0.00786006 -0.0078171 -0.00777419 -0.00773399 -0.00769914 -0.00766966 -0.00764553 -0.00762677 -0.00761337 -0.00760532 -0.00760264 -0.00760532 -0.00761337 -0.00762677 -0.00764553 -0.00766966 -0.00769914 -0.00773399 -0.00777419 -0.0078171 -0.00786006 -0.00790307 -0.00794612 -0.00798921 -0.00803236 -0.00807555 -0.00811879 -0.00815727 -0.00818618 -0.00820553 -0.00821531 -0.00821553 -0.00820619 -0.00818728 -0.00815881 -0.00811636 -0.00805551 -0.00797626 -0.00787862 -0.00776258 -0.00762815 -0.00747532 -0.0073041 -0.00711448 -0.00690648 -0.00668009 -0.00643532 -0.00617217 -0.00589063 -0.0055907 -0.00527239 -0.00494356 -0.00461208 -0.00427794 -0.00394116 -0.00360171 -0.00325962 -0.00291487 -0.00256747 -0.00223138 -0.00192055 -0.001635 -0.00137472 -0.0011397 -0.000929959 -0.000745485 -0.00058628 -0.000448871 -0.000329782 -0.000229016 -0.00014657 -8.24456e-05 -3.66425e-05 -9.16062e-06 0 0 -1.09746e-05 -4.38983e-05 -9.87711e-05 -0.000175593 -0.000274364 -0.000395084 -0.000537754 -0.000702372 -0.000892356 -0.00111112 -0.00135867 -0.001635 -0.00194011 -0.00227401 -0.00263668 -0.00302814 -0.00343131 -0.00382911 -0.00422156 -0.00460864 -0.00499036 -0.00536672 -0.00573772 -0.00610336 -0.00645412 -0.00678047 -0.00708243 -0.00735999 -0.00761315 -0.00784191 -0.00804627 -0.00822623 -0.0083821 -0.00851421 -0.00862255 -0.00870712 -0.00876792 -0.00880495 -0.00881821 -0.00880771 -0.0087797 -0.00874046 -0.00868999 -0.00862828 -0.00855533 -0.00847115 -0.00837574 -0.00826909 -0.00815828 -0.00805036 -0.00794533 -0.00784321 -0.00774397 -0.00764764 -0.0075542 -0.00746366 -0.00738014 -0.00730775 -0.00724649 -0.00719638 -0.0071574 -0.00712956 -0.00711285 -0.00710729 -0.00711285 -0.00712956 -0.0071574 -0.00719638 -0.00724649 -0.00730775 -0.00738013 -0.00746366 -0.0075542 -0.00764764 -0.00774397 -0.00784321 -0.00794533 -0.00805036 -0.00815828 -0.00826909 -0.00837574 -0.00847115 -0.00855533 -0.00862828 -0.00868999 -0.00874046 -0.0087797 -0.00880771 -0.00881821 -0.00880495 -0.00876792 -0.00870712 -0.00862255 -0.00851421 -0.0083821 -0.00822623 -0.00804627 -0.00784191 -0.00761315 -0.00735999 -0.00708243 -0.00678047 -0.00645412 -0.00610336 -0.00573772 -0.00536672 -0.00499036 -0.00460864 -0.00422156 -0.00382911 -0.00343131 -0.00302814 -0.00263668 -0.00227401 -0.00194011 -0.001635 -0.00135867 -0.00111112 -0.000892357 -0.000702373 -0.000537754 -0.000395085 -0.000274364 -0.000175593 -9.87712e-05 -4.38983e-05 -1.09746e-05 0 0 -1.29796e-05 -5.19185e-05 -0.000116817 -0.000207674 -0.000324491 -0.000467267 -0.000636002 -0.000830696 -0.00105457 -0.00131083 -0.0015995 -0.00192055 -0.00227401 -0.00265985 -0.00307809 -0.00352873 -0.00399119 -0.0044449 -0.00488987 -0.00532608 -0.00575354 -0.00617226 -0.00658223 -0.00698344 -0.00736455 -0.00771418 -0.00803233 -0.00831901 -0.00857421 -0.00879794 -0.00899019 -0.00915096 -0.00928099 -0.00938099 -0.00945098 -0.00949095 -0.0095009 -0.00948083 -0.00943073 -0.00935062 -0.00924898 -0.0091343 -0.00900659 -0.00886583 -0.00871203 -0.00854519 -0.00836531 -0.00817239 -0.00797623 -0.00778663 -0.00760358 -0.0074271 -0.00725718 -0.00709381 -0.006937 -0.00678675 -0.00664897 -0.00652956 -0.00642851 -0.00634584 -0.00628154 -0.00623562 -0.00620806 -0.00619887 -0.00620806 -0.00623562 -0.00628154 -0.00634584 -0.00642851 -0.00652956 -0.00664897 -0.00678675 -0.006937 -0.00709381 -0.00725718 -0.0074271 -0.00760358 -0.00778663 -0.00797623 -0.00817239 -0.00836531 -0.00854519 -0.00871203 -0.00886583 -0.00900658 -0.0091343 -0.00924898 -0.00935062 -0.00943073 -0.00948083 -0.0095009 -0.00949095 -0.00945098 -0.00938099 -0.00928099 -0.00915096 -0.00899019 -0.00879794 -0.00857421 -0.00831901 -0.00803233 -0.00771418 -0.00736455 -0.00698345 -0.00658223 -0.00617226 -0.00575355 -0.00532608 -0.00488987 -0.00444491 -0.00399119 -0.00352873 -0.0030781 -0.00265985 -0.00227401 -0.00192055 -0.0015995 -0.00131084 -0.00105457 -0.000830697 -0.000636002 -0.000467267 -0.000324491 -0.000207674 -0.000116817 -5.19186e-05 -1.29796e-05 0 0 -1.51758e-05 -6.07032e-05 -0.000136582 -0.000242813 -0.000379395 -0.000546328 -0.000743614 -0.000971251 -0.00123212 -0.00152909 -0.00186218 -0.00223138 -0.00263668 -0.00307809 -0.00355562 -0.00406925 -0.00459453 -0.00510699 -0.00560664 -0.00609347 -0.00656749 -0.00702869 -0.00747708 -0.00791265 -0.00832201 -0.00869175 -0.00902188 -0.00931239 -0.00956329 -0.00977457 -0.00994624 -0.0100783 -0.010172 -0.0102285 -0.0102479 -0.0102301 -0.0101752 -0.0100831 -0.00995392 -0.00978755 -0.00959513 -0.00938772 -0.00916533 -0.00892796 -0.00867561 -0.00840828 -0.00812596 -0.00782867 -0.0075294 -0.00724117 -0.00696397 -0.0066978 -0.00644267 -0.00619857 -0.0059655 -0.00574347 -0.00554049 -0.00536457 -0.00521571 -0.00509392 -0.0049992 -0.00493154 -0.00489094 -0.00487741 -0.00489094 -0.00493154 -0.0049992 -0.00509392 -0.00521571 -0.00536457 -0.00554049 -0.00574347 -0.0059655 -0.00619857 -0.00644267 -0.0066978 -0.00696397 -0.00724117 -0.0075294 -0.00782867 -0.00812596 -0.00840828 -0.00867561 -0.00892796 -0.00916533 -0.00938772 -0.00959513 -0.00978755 -0.00995392 -0.0100831 -0.0101752 -0.0102301 -0.0102479 -0.0102285 -0.010172 -0.0100783 -0.00994624 -0.00977457 -0.00956329 -0.00931239 -0.00902188 -0.00869175 -0.00832201 -0.00791265 -0.00747708 -0.0070287 -0.00656749 -0.00609348 -0.00560664 -0.005107 -0.00459453 -0.00406925 -0.00355562 -0.0030781 -0.00263668 -0.00223138 -0.00186218 -0.0015291 -0.00123212 -0.000971252 -0.000743615 -0.000546329 -0.000379395 -0.000242813 -0.000136582 -6.07032e-05 -1.51758e-05 0 0 -1.75631e-05 -7.02523e-05 -0.000158068 -0.000281009 -0.000439077 -0.00063227 -0.00086059 -0.00112404 -0.00142501 -0.0017659 -0.00214672 -0.00256747 -0.00302814 -0.00352873 -0.00406925 -0.00464969 -0.00524132 -0.00581538 -0.00637188 -0.00691082 -0.0074322 -0.00793602 -0.00842228 -0.00889098 -0.00932648 -0.00971318 -0.0100511 -0.0103401 -0.0105804 -0.0107718 -0.0109144 -0.0110082 -0.0110551 -0.0110567 -0.0110133 -0.0109246 -0.0107908 -0.0106119 -0.0103878 -0.0101185 -0.00981813 -0.0095007 -0.00916622 -0.00881468 -0.00844608 -0.00806042 -0.00765771 -0.00723794 -0.0068178 -0.00641399 -0.00602649 -0.00565531 -0.00530046 -0.00496192 -0.00463971 -0.00433382 -0.00405469 -0.00381279 -0.00360809 -0.00344062 -0.00331036 -0.00321732 -0.0031615 -0.00314289 -0.0031615 -0.00321732 -0.00331036 -0.00344062 -0.00360809 -0.00381279 -0.00405469 -0.00433382 -0.00463971 -0.00496192 -0.00530046 -0.00565531 -0.00602649 -0.00641398 -0.0068178 -0.00723794 -0.00765771 -0.00806042 -0.00844608 -0.00881468 -0.00916622 -0.0095007 -0.00981813 -0.0101185 -0.0103878 -0.0106119 -0.0107908 -0.0109246 -0.0110133 -0.0110567 -0.0110551 -0.0110082 -0.0109144 -0.0107718 -0.0105804 -0.0103401 -0.0100511 -0.00971318 -0.00932649 -0.00889098 -0.00842228 -0.00793602 -0.00743221 -0.00691083 -0.00637189 -0.00581538 -0.00524132 -0.0046497 -0.00406925 -0.00352873 -0.00302814 -0.00256747 -0.00214673 -0.0017659 -0.00142501 -0.00112404 -0.000860591 -0.000632271 -0.000439077 -0.000281009 -0.000158068 -7.02523e-05 -1.75631e-05 0 0 -2.00567e-05 -8.0227e-05 -0.000180511 -0.000320908 -0.000501419 -0.000722043 -0.000982781 -0.00128363 -0.00162627 -0.00201235 -0.00244188 -0.00291487 -0.00343131 -0.00399119 -0.00459453 -0.00524132 -0.00589805 -0.00653124 -0.00714086 -0.00772694 -0.00828946 -0.00882843 -0.00934384 -0.0098357 -0.0102859 -0.0106764 -0.0110072 -0.0112782 -0.0114895 -0.011641 -0.0117329 -0.011765 -0.0117399 -0.0116604 -0.0115264 -0.0113379 -0.011095 -0.0107975 -0.0104455 -0.0100391 -0.00959582 -0.00913341 -0.00865185 -0.00815114 -0.0076313 -0.00709231 -0.00653417 -0.00595689 -0.00538167 -0.00482969 -0.00430096 -0.00379548 -0.00331326 -0.00285428 -0.00241854 -0.00200606 -0.00163026 -0.00130456 -0.00102898 -0.000803493 -0.000628119 -0.000502851 -0.00042769 -0.000402637 -0.00042769 -0.000502851 -0.000628119 -0.000803493 -0.00102898 -0.00130456 -0.00163026 -0.00200606 -0.00241854 -0.00285428 -0.00331326 -0.00379548 -0.00430096 -0.00482969 -0.00538167 -0.00595689 -0.00653417 -0.00709231 -0.0076313 -0.00815114 -0.00865185 -0.0091334 -0.00959582 -0.0100391 -0.0104455 -0.0107975 -0.011095 -0.0113379 -0.0115264 -0.0116604 -0.0117399 -0.011765 -0.0117329 -0.011641 -0.0114895 -0.0112782 -0.0110072 -0.0106764 -0.0102859 -0.0098357 -0.00934384 -0.00882843 -0.00828946 -0.00772694 -0.00714087 -0.00653124 -0.00589806 -0.00524132 -0.00459453 -0.00399119 -0.00343131 -0.00291487 -0.00244189 -0.00201235 -0.00162627 -0.00128363 -0.000982782 -0.000722044 -0.000501419 -0.000320908 -0.000180511 -8.02271e-05 -2.00568e-05 0 0 -2.25721e-05 -9.02886e-05 -0.000203149 -0.000361154 -0.000564304 -0.000812597 -0.00110604 -0.00144462 -0.00182892 -0.00225952 -0.00273642 -0.00325962 -0.00382911 -0.0044449 -0.00510699 -0.00581538 -0.00653124 -0.00721573 -0.00786886 -0.00849063 -0.00908104 -0.00964009 -0.0101678 -0.0106641 -0.0111082 -0.0114793 -0.0117774 -0.0120025 -0.0121546 -0.0122336 -0.0122396 -0.0121726 -0.0120362 -0.0118343 -0.0115668 -0.0112336 -0.0108349 -0.0103705 -0.00984054 -0.00924496 -0.00860603 -0.00794597 -0.00726481 -0.00656252 -0.00583912 -0.0050946 -0.00432897 -0.00354222 -0.00276124 -0.0020129 -0.00129722 -0.000614176 3.62173e-05 0.000653963 0.00123906 0.00179151 0.00229413 0.00272974 0.00309832 0.0033999 0.00363445 0.00380199 0.00390252 0.00393602 0.00390252 0.00380199 0.00363445 0.0033999 0.00309832 0.00272974 0.00229413 0.00179151 0.00123906 0.000653963 3.62176e-05 -0.000614176 -0.00129722 -0.0020129 -0.00276124 -0.00354222 -0.00432897 -0.0050946 -0.00583912 -0.00656252 -0.0072648 -0.00794597 -0.00860603 -0.00924496 -0.00984054 -0.0103705 -0.0108349 -0.0112336 -0.0115668 -0.0118343 -0.0120362 -0.0121726 -0.0122396 -0.0122336 -0.0121546 -0.0120025 -0.0117774 -0.0114793 -0.0111082 -0.0106641 -0.0101678 -0.00964009 -0.00908105 -0.00849064 -0.00786887 -0.00721573 -0.00653124 -0.00581538 -0.005107 -0.00444491 -0.00382911 -0.00325962 -0.00273642 -0.00225952 -0.00182892 -0.00144462 -0.00110604 -0.000812598 -0.000564304 -0.000361155 -0.00020315 -9.02887e-05 -2.25722e-05 0 0 -2.51093e-05 -0.000100437 -0.000225983 -0.000401748 -0.000627732 -0.000903934 -0.00123035 -0.00160699 -0.00203297 -0.00250742 -0.00303033 -0.00360171 -0.00422156 -0.00488987 -0.00560664 -0.00637188 -0.00714086 -0.00786886 -0.00855588 -0.00920191 -0.00980695 -0.010371 -0.0108941 -0.0113762 -0.0117934 -0.012122 -0.0123619 -0.0125131 -0.0125756 -0.0125495 -0.0124346 -0.0122311 -0.011944 -0.0115784 -0.0111343 -0.0106116 -0.0100105 -0.00933088 -0.00857275 -0.00773612 -0.00684875 -0.00593841 -0.00500509 -0.00404881 -0.00306955 -0.00206731 -0.00104211 6.07246e-06 0.00104348 0.00203637 0.00298475 0.00388861 0.00474796 0.00556279 0.00633311 0.00705891 0.00771849 0.00829012 0.0087738 0.00916955 0.00947735 0.00969721 0.00982912 0.00987309 0.00982912 0.00969721 0.00947735 0.00916955 0.0087738 0.00829012 0.00771849 0.00705891 0.00633311 0.00556279 0.00474796 0.00388861 0.00298475 0.00203637 0.00104348 6.07307e-06 -0.00104211 -0.00206731 -0.00306955 -0.00404881 -0.00500509 -0.00593841 -0.00684875 -0.00773612 -0.00857275 -0.00933088 -0.0100105 -0.0106116 -0.0111343 -0.0115784 -0.011944 -0.0122311 -0.0124346 -0.0125495 -0.0125756 -0.0125131 -0.0123619 -0.012122 -0.0117934 -0.0113762 -0.0108941 -0.010371 -0.00980695 -0.00920191 -0.00855588 -0.00786887 -0.00714087 -0.00637189 -0.00560664 -0.00488987 -0.00422156 -0.00360171 -0.00303034 -0.00250742 -0.00203298 -0.00160699 -0.00123036 -0.000903934 -0.000627732 -0.000401749 -0.000225984 -0.000100437 -2.51093e-05 0 0 -2.76681e-05 -0.000110672 -0.000249013 -0.00044269 -0.000691702 -0.000996051 -0.00135