<?xml version="1.0"?> 
<VTKFile type="StructuredGrid" version="0.1"> 
<StructuredGrid WholeExtent="0 64 0 64 0 0"> 
<Piece Extent="0 64 0 64 0 0"> 
<PointData>
<DataArray type="Float32" Name="u" format="ascii" NumberOfComponents="1"> 
0.865898 0.898855 0.931812 0.964768 0.997725 0.877795 0.757865 0.637935 0.518005 0.611197 0.70439 0.797582 0.890775 0.816157 0.741538 0.66692 0.592302 0.483197 0.374093 0.264989 0.155884 0.167243 0.178602 0.189961 0.201319 0.25347 0.305621 0.357772 0.409923 0.495983 0.582044 0.668105 0.754165 0.773525 0.792885 0.812244 0.831604 0.822634 0.813664 0.804694 0.795724 0.677004 0.558284 0.439564 0.320844 0.375125 0.429406 0.483687 0.537968 0.426119 0.314269 0.20242 0.0905707 0.0960916 0.101613 0.107134 0.112655 0.118687 0.12472 0.130753 0.136786 0.273957 0.411128 0.548299 0.68547 0.774279 0.779787 0.785294 0.790801 0.796308 0.725587 0.654865 0.584144 0.513422 0.561422 0.609423 0.657423 0.705423 0.643608 0.581793 0.519977 0.458162 0.426504 0.394847 0.363189 0.331532 0.321753 0.311975 0.302197 0.292419 0.354812 0.417206 0.479599 0.541992 0.591857 0.641722 0.691587 0.741452 0.748793 0.756133 0.763474 0.770814 0.778755 0.786696 0.794636 0.802577 0.717535 0.632493 0.547451 0.462409 0.510058 0.557706 0.605354 0.653003 0.506768 0.360533 0.214298 0.0680628 0.126759 0.185455 0.244151 0.302847 0.291392 0.279937 0.268482 0.257027 0.383844 0.51066 0.637476 0.764293 0.68266 0.660718 0.638776 0.616833 0.594891 0.573378 0.551865 0.530352 0.50884 0.511648 0.514455 0.517263 0.520071 0.471059 0.422047 0.373035 0.324022 0.369811 0.415601 0.46139 0.507179 0.476264 0.445349 0.414434 0.383519 0.456155 0.52879 0.601426 0.674061 0.687731 0.7014 0.71507 0.728739 0.72406 0.719382 0.714703 0.710024 0.734875 0.759727 0.784579 0.80943 0.758066 0.706702 0.655338 0.603974 0.64499 0.686006 0.727022 0.768037 0.587417 0.406796 0.226176 0.045555 0.157426 0.269297 0.381168 0.493039 0.464096 0.435154 0.406211 0.377269 0.49373 0.610192 0.726654 0.843116 0.591041 0.54165 0.492258 0.442866 0.393474 0.42117 0.448866 0.476561 0.504257 0.461873 0.419488 0.377104 0.33472 0.29851 0.262301 0.226092 0.189882 0.313118 0.436354 0.55959 0.682827 0.630775 0.578723 0.526671 0.474619 0.557497 0.640375 0.723253 0.806131 0.783605 0.761079 0.738552 0.716026 0.699328 0.68263 0.665932 0.649234 0.690996 0.732758 0.774521 0.816283 0.798597 0.780911 0.763225 0.74554 0.779923 0.814306 0.848689 0.883072 0.668066 0.45306 0.238053 0.0230472 0.188093 0.353139 0.518185 0.683231 0.636801 0.59037 0.54394 0.49751 0.603617 0.709724 0.815831 0.921938 0.499422 0.422581 0.34574 0.268899 0.192057 0.268962 0.345866 0.42277 0.499674 0.412098 0.324521 0.236944 0.149368 0.125962 0.102555 0.0791489 0.0557426 0.256425 0.457108 0.657791 0.858474 0.785285 0.712096 0.638907 0.565719 0.658839 0.751959 0.84508 0.9382 0.879479 0.820757 0.762035 0.703313 0.674596 0.645878 0.617161 0.588444 0.647117 0.70579 0.764463 0.823136 0.839128 0.85512 0.871112 0.887105 0.914855 0.942605 0.970356 0.998106 0.748715 0.499323 0.249931 0.000539388 0.21876 0.436981 0.655202 0.873423 0.809505 0.745587 0.681669 0.617751 0.713504 0.809256 0.905009 1.00076 0.507406 0.446815 0.386224 0.325633 0.265042 0.342999 0.420956 0.498913 0.576869 0.475022 0.373174 0.271326 0.169478 0.168968 0.168457 0.167947 0.167436 0.343352 0.519268 0.695184 0.871099 0.795636 0.720173 0.64471 0.569246 0.656145 0.743044 0.829943 0.916842 0.866079 0.815316 0.764553 0.71379 0.682625 0.651459 0.620293 0.589128 0.611738 0.634348 0.656958 0.679569 0.718033 0.756498 0.794963 0.833428 0.817477 0.801526 0.785575 0.769624 0.616793 0.463961 0.31113 0.158298 0.324179 0.49006 0.655941 0.821822 0.778189 0.734555 0.690922 0.647288 0.729379 0.81147 0.893561 0.975652 0.51539 0.471049 0.426708 0.382368 0.338027 0.417036 0.496046 0.575055 0.654064 0.537946 0.421827 0.305708 0.189589 0.211974 0.234359 0.256745 0.27913 0.430279 0.581427 0.732576 0.883725 0.805987 0.728249 0.650512 0.572774 0.653451 0.734128 0.814806 0.895483 0.852679 0.809875 0.767071 0.724267 0.690653 0.657039 0.623425 0.589811 0.576359 0.562906 0.549454 0.536001 0.596938 0.657876 0.718813 0.779751 0.720099 0.660447 0.600795 0.541142 0.484871 0.4286 0.372328 0.316057 0.429598 0.543139 0.65668 0.770221 0.746872 0.723523 0.700174 0.676825 0.745255 0.813684 0.882113 0.950542 0.523374 0.495283 0.467193 0.439102 0.411012 0.491074 0.571136 0.651198 0.73126 0.60087 0.47048 0.34009 0.2097 0.254981 0.300261 0.345542 0.390823 0.517205 0.643587 0.769969 0.89635 0.816338 0.736326 0.656314 0.576302 0.650757 0.725213 0.799668 0.874124 0.839279 0.804434 0.769589 0.734745 0.698682 0.66262 0.626558 0.590495 0.54098 0.491464 0.441949 0.392433 0.475844 0.559254 0.642664 0.726074 0.62272 0.519367 0.416014 0.312661 0.352949 0.393238 0.433527 0.473816 0.535017 0.596218 0.657419 0.71862 0.715556 0.712491 0.709427 0.706362 0.76113 0.815897 0.870665 0.925432 0.531358 0.519518 0.507677 0.495837 0.483996 0.565111 0.646225 0.72734 0.808455 0.663793 0.519132 0.374471 0.22981 0.297987 0.366164 0.43434 0.502517 0.604132 0.705746 0.807361 0.908976 0.826689 0.744402 0.662116 0.579829 0.648063 0.716297 0.784531 0.852765 0.825879 0.798994 0.772108 0.745222 0.706711 0.6682 0.62969 0.591179 0.505601 0.420023 0.334444 0.248866 0.354749 0.460631 0.566514 0.672397 0.525342 0.378288 0.231233 0.0841786 0.221028 0.357877 0.494726 0.631575 0.640436 0.649297 0.658158 0.667019 0.684239 0.701459 0.718679 0.735899 0.777005 0.818111 0.859217 0.900323 0.645897 0.623701 0.601505 0.57931 0.557114 0.606083 0.655052 0.704021 0.75299 0.66638 0.579769 0.493159 0.406549 0.435717 0.464886 0.494055 0.523224 0.563922 0.604621 0.645319 0.686018 0.630854 0.57569 0.520525 0.465361 0.563322 0.661283 0.759244 0.857204 0.813176 0.769148 0.725119 0.681091 0.674947 0.668802 0.662658 0.656514 0.552256 0.447997 0.343739 0.23948 0.340516 0.441551 0.542586 0.643621 0.538224 0.432827 0.32743 0.222032 0.286962 0.351892 0.416822 0.481751 0.525147 0.568543 0.611938 0.655334 0.652336 0.649338 0.64634 0.643342 0.654447 0.665552 0.676657 0.687761 0.760435 0.727884 0.695333 0.662782 0.630232 0.647055 0.663879 0.680702 0.697526 0.668966 0.640406 0.611847 0.583287 0.573448 0.563609 0.55377 0.54393 0.523713 0.503495 0.483277 0.46306 0.435018 0.406977 0.378935 0.350894 0.478581 0.606268 0.733956 0.861643 0.800472 0.739302 0.678131 0.61696 0.643182 0.669404 0.695627 0.721849 0.59891 0.475972 0.353033 0.230095 0.326282 0.42247 0.518657 0.614845 0.551105 0.487366 0.423626 0.359886 0.352897 0.345907 0.338918 0.331928 0.409858 0.487788 0.565718 0.643648 0.620433 0.597217 0.574001 0.550785 0.531889 0.512993 0.494096 0.4752 0.874973 0.832067 0.789161 0.746255 0.703349 0.688027 0.672705 0.657383 0.642061 0.671552 0.701044 0.730535 0.760026 0.711179 0.662332 0.613484 0.564637 0.483503 0.402369 0.321236 0.240102 0.239183 0.238264 0.237345 0.236426 0.39384 0.551254 0.708668 0.866082 0.787769 0.709456 0.631142 0.552829 0.611418 0.670006 0.728595 0.787184 0.645565 0.503947 0.362328 0.22071 0.312049 0.403389 0.494729 0.586069 0.563987 0.541905 0.519822 0.49774 0.418831 0.339923 0.261014 0.182105 0.294569 0.407034 0.519499 0.631963 0.588529 0.545096 0.501662 0.458229 0.409331 0.360433 0.311536 0.262638 0.989512 0.936251 0.882989 0.829728 0.776467 0.728999 0.681532 0.634064 0.586597 0.674139 0.761681 0.849223 0.936765 0.84891 0.761054 0.673199 0.585344 0.443294 0.301244 0.159194 0.017144 0.0433474 0.0695509 0.0957544 0.121958 0.309099 0.496239 0.68338 0.870521 0.775065 0.67961 0.584154 0.488698 0.579653 0.670608 0.761563 0.852519 0.69222 0.531921 0.371623 0.211324 0.297816 0.384309 0.470801 0.557293 0.576868 0.596444 0.616019 0.635594 0.484766 0.333938 0.18311 0.0322817 0.179281 0.32628 0.473279 0.620278 0.556626 0.492975 0.429323 0.365672 0.286773 0.207874 0.128975 0.0500764 0.865416 0.806804 0.748192 0.68958 0.630968 0.590971 0.550974 0.510977 0.47098 0.541838 0.612697 0.683555 0.754414 0.684801 0.615189 0.545577 0.475965 0.372112 0.268259 0.164406 0.0605531 0.0709717 0.0813902 0.0918088 0.102227 0.279952 0.457676 0.6354 0.813124 0.71925 0.625375 0.5315 0.437626 0.522032 0.606439 0.690846 0.775253 0.664903 0.554553 0.444203 0.333853 0.386358 0.438864 0.49137 0.543875 0.560871 0.577866 0.594862 0.611857 0.493019 0.374181 0.255343 0.136506 0.226504 0.316502 0.4065 0.496498 0.471836 0.447174 0.422512 0.39785 0.361664 0.325478 0.289292 0.253106 0.74132 0.677357 0.613395 0.549432 0.485469 0.452943 0.420416 0.38789 0.355363 0.409538 0.463713 0.517888 0.572062 0.520693 0.469324 0.417955 0.366587 0.30093 0.235274 0.169618 0.103962 0.0985959 0.0932296 0.0878632 0.0824968 0.250805 0.419112 0.58742 0.755728 0.663434 0.57114 0.478847 0.386553 0.464412 0.54227 0.620129 0.697988 0.637586 0.577184 0.516783 0.456381 0.4749 0.493419 0.511938 0.530457 0.544873 0.559289 0.573704 0.58812 0.501272 0.414425 0.327577 0.240729 0.273726 0.306724 0.339721 0.372718 0.387046 0.401374 0.415702 0.430029 0.436556 0.443083 0.449609 0.456136 0.617224 0.54791 0.478597 0.409284 0.33997 0.314914 0.289858 0.264802 0.239746 0.277238 0.314729 0.35222 0.389711 0.356585 0.323459 0.290334 0.257208 0.229749 0.20229 0.174831 0.147371 0.12622 0.105069 0.0839176 0.0627663 0.221658 0.380549 0.53944 0.698331 0.607619 0.516906 0.426193 0.33548 0.406791 0.478101 0.549412 0.620722 0.610269 0.599816 0.589363 0.57891 0.563442 0.547975 0.532507 0.51704 0.528875 0.540711 0.552547 0.564383 0.509526 0.454668 0.399811 0.344953 0.320949 0.296946 0.272942 0.248938 0.302256 0.355573 0.408891 0.462208 0.511448 0.560687 0.609926 0.659165 0.493128 0.418464 0.3438 0.269135 0.194471 0.176886 0.159301 0.141715 0.12413 0.144937 0.165745 0.186552 0.20736 0.192477 0.177595 0.162712 0.147829 0.158567 0.169305 0.180043 0.190781 0.153844 0.116908 0.079972 0.0430358 0.192511 0.341985 0.49146 0.640935 0.551803 0.462671 0.373539 0.284407 0.34917 0.413932 0.478694 0.543457 0.582952 0.622448 0.661943 0.701439 0.651985 0.60253 0.553076 0.503622 0.512878 0.522134 0.53139 0.540646 0.517779 0.494911 0.472044 0.449177 0.368172 0.287168 0.206163 0.125159 0.217466 0.309773 0.40208 0.494387 0.586339 0.678291 0.770243 0.862195 0.589922 0.495976 0.402031 0.308086 0.21414 0.197019 0.179899 0.162778 0.145657 0.183755 0.221853 0.259951 0.298049 0.291636 0.285222 0.278808 0.272395 0.266368 0.26034 0.254313 0.248286 0.207273 0.166261 0.125248 0.084236 0.243134 0.402031 0.560929 0.719826 0.598372 0.476918 0.355464 0.234009 0.284072 0.334134 0.384197 0.434259 0.466172 0.498085 0.529998 0.561911 0.52636 0.490809 0.455258 0.419707 0.455313 0.490918 0.526524 0.562129 0.541997 0.521865 0.501732 0.4816 0.387957 0.294315 0.200672 0.107029 0.231674 0.356319 0.480964 0.605609 0.661901 0.718193 0.774485 0.830777 0.686716 0.573489 0.460263 0.347036 0.23381 0.217153 0.200496 0.18384 0.167183 0.222572 0.277961 0.33335 0.388738 0.390794 0.392849 0.394905 0.396961 0.374168 0.351376 0.328583 0.30579 0.260702 0.215613 0.170525 0.125436 0.293757 0.462077 0.630397 0.798718 0.644941 0.491164 0.337388 0.183611 0.218974 0.254336 0.289699 0.325062 0.349392 0.373722 0.398053 0.422383 0.400735 0.379088 0.35744 0.335793 0.397748 0.459702 0.521657 0.583612 0.566215 0.548818 0.531421 0.514024 0.407742 0.301461 0.19518 0.0888994 0.245882 0.402866 0.559849 0.716832 0.737463 0.758095 0.778726 0.799358 0.78351 0.651002 0.518494 0.385986 0.253479 0.237287 0.221094 0.204902 0.18871 0.26139 0.334069 0.406748 0.479428 0.489952 0.500477 0.511002 0.521526 0.481969 0.442411 0.402853 0.363295 0.314131 0.264966 0.215801 0.166637 0.34438 0.522123 0.699866 0.877609 0.69151 0.505411 0.319312 0.133213 0.153876 0.174538 0.195201 0.215864 0.232612 0.24936 0.266107 0.282855 0.275111 0.267367 0.259622 0.251878 0.340183 0.428487 0.516791 0.605095 0.590433 0.575771 0.561109 0.546447 0.427528 0.308608 0.189689 0.0707698 0.260091 0.449412 0.638733 0.828054 0.813025 0.797997 0.782968 0.76794 0.880304 0.728515 0.576726 0.424937 0.273148 0.25742 0.241692 0.225965 0.210237 0.300207 0.390177 0.480147 0.570117 0.589111 0.608104 0.627098 0.646092 0.589769 0.533446 0.477123 0.4208 0.367559 0.314319 0.261078 0.207837 0.395003 0.582169 0.769335 0.956501 0.738079 0.519658 0.301236 0.0828147 0.0887777 0.0947407 0.100704 0.106667 0.115832 0.124997 0.134162 0.143327 0.149486 0.155645 0.161805 0.167964 0.282617 0.397271 0.511925 0.626578 0.614651 0.602724 0.590797 0.57887 0.447313 0.315755 0.184198 0.0526402 0.274299 0.495958 0.717617 0.939276 0.888587 0.837899 0.78721 0.736521 0.846033 0.68976 0.533487 0.377214 0.220941 0.259383 0.297825 0.336267 0.374709 0.446858 0.519007 0.591157 0.663306 0.680702 0.698098 0.715495 0.732891 0.682737 0.632583 0.58243 0.532276 0.487717 0.443159 0.398601 0.354042 0.477252 0.600461 0.72367 0.84688 0.661888 0.476896 0.291905 0.106913 0.125322 0.14373 0.162139 0.180548 0.170731 0.160914 0.151097 0.141281 0.139402 0.137523 0.135644 0.133765 0.277034 0.420303 0.563573 0.706842 0.65767 0.608499 0.559327 0.510156 0.411128 0.312101 0.213073 0.114046 0.282632 0.451217 0.619803 0.788389 0.758896 0.729403 0.69991 0.670417 0.811762 0.651006 0.490249 0.329492 0.168735 0.261346 0.353958 0.446569 0.53918 0.593509 0.647838 0.702167 0.756495 0.772294 0.788093 0.803891 0.81969 0.775705 0.731721 0.687736 0.643752 0.607875 0.571999 0.536123 0.500247 0.5595 0.618753 0.678006 0.737259 0.585697 0.434135 0.282573 0.131011 0.161865 0.19272 0.223574 0.254429 0.22563 0.196832 0.168033 0.139234 0.129317 0.1194 0.109483 0.0995656 0.271451 0.443336 0.615221 0.787106 0.70069 0.614274 0.527858 0.441442 0.374944 0.308447 0.241949 0.175452 0.290964 0.406476 0.521989 0.637501 0.629204 0.620907 0.61261 0.604313 0.777492 0.612251 0.44701 0.281769 0.116528 0.263309 0.41009 0.556871 0.703652 0.74016 0.776668 0.813176 0.849685 0.863886 0.878087 0.892288 0.906489 0.868673 0.830858 0.793043 0.755227 0.728034 0.70084 0.673646 0.646452 0.641749 0.637045 0.632341 0.627638 0.509506 0.391373 0.273241 0.155109 0.198409 0.241709 0.28501 0.32831 0.280529 0.232749 0.184968 0.137188 0.119233 0.101277 0.0833218 0.0653665 0.265867 0.466368 0.666868 0.867369 0.743709 0.620048 0.496388 0.372728 0.33876 0.304792 0.270825 0.236857 0.299297 0.361736 0.424175 0.486614 0.499513 0.512411 0.52531 0.538209 0.743221 0.573496 0.403772 0.234047 0.0643219 0.265272 0.466223 0.667173 0.868124 0.886811 0.905499 0.924186 0.942874 0.955477 0.968081 0.980684 0.993288 0.961641 0.929995 0.898349 0.866703 0.848192 0.82968 0.811169 0.792658 0.723997 0.655337 0.586677 0.518017 0.433314 0.348612 0.263909 0.179207 0.234953 0.290699 0.346445 0.402191 0.335429 0.268666 0.201904 0.135141 0.109148 0.0831544 0.0571609 0.0311674 0.260284 0.4894 0.718516 0.947633 0.786728 0.625823 0.464918 0.304013 0.302576 0.301138 0.299701 0.298263 0.307629 0.316995 0.32636 0.335726 0.369821 0.403916 0.438011 0.472105 0.720647 0.554156 0.387664 0.221173 0.0546813 0.256893 0.459104 0.661316 0.863527 0.859691 0.855854 0.852018 0.848182 0.876241 0.9043 0.93236 0.960419 0.90476 0.849101 0.793442 0.737783 0.730089 0.722395 0.714701 0.707008 0.630804 0.554601 0.478398 0.402195 0.346417 0.290639 0.23486 0.179082 0.251522 0.323963 0.396403 0.468843 0.397835 0.326827 0.255819 0.184811 0.201115 0.217419 0.233723 0.250026 0.372653 0.49528 0.617906 0.740533 0.674734 0.608936 0.543138 0.477339 0.44799 0.418642 0.389293 0.359944 0.377459 0.394974 0.412489 0.430004 0.474165 0.518325 0.562486 0.606647 0.698073 0.534815 0.371557 0.208299 0.0450407 0.248513 0.451985 0.655458 0.85893 0.83257 0.80621 0.77985 0.75349 0.797005 0.84052 0.884035 0.92755 0.847879 0.768207 0.688535 0.608864 0.611987 0.615111 0.618234 0.621357 0.537611 0.453865 0.370119 0.286373 0.259519 0.232665 0.205812 0.178958 0.268092 0.357226 0.44636 0.535495 0.460241 0.384987 0.309734 0.23448 0.293082 0.351683 0.410284 0.468885 0.485022 0.501159 0.517296 0.533432 0.562741 0.592049 0.621357 0.650665 0.593405 0.536145 0.478885 0.421625 0.44729 0.472954 0.498618 0.524282 0.578509 0.632735 0.686962 0.741188 0.675499 0.515475 0.35545 0.195425 0.0354 0.240133 0.444867 0.6496 0.854333 0.80545 0.756566 0.707682 0.658798 0.717769 0.77674 0.835711 0.894682 0.790997 0.687313 0.583629 0.479944 0.493885 0.507826 0.521766 0.535707 0.444418 0.353129 0.26184 0.170552 0.172622 0.174692 0.176763 0.178833 0.284661 0.39049 0.496318 0.602146 0.522647 0.443148 0.363649 0.28415 0.385049 0.485947 0.586846 0.687745 0.597391 0.507038 0.416685 0.326332 0.450747 0.575162 0.699576 0.823991 0.73882 0.653649 0.568478 0.483306 0.51712 0.550933 0.584747 0.61856 0.682852 0.747145 0.811437 0.87573 0.652925 0.496134 0.339342 0.182551 0.0257594 0.231754 0.437748 0.643742 0.849737 0.778329 0.706922 0.635514 0.564107 0.638533 0.71296 0.787386 0.861813 0.734116 0.606419 0.478722 0.351025 0.375783 0.400541 0.425299 0.450057 0.351225 0.252393 0.153562 0.0547298 0.0857244 0.116719 0.147714 0.178708 0.301231 0.423753 0.546276 0.668798 0.585053 0.501309 0.417564 0.33382 0.477016 0.620212 0.763408 0.906604 0.709761 0.512918 0.316075 0.119232 0.338753 0.558274 0.777796 0.997317 0.884235 0.771152 0.65807 0.544987 0.58695 0.628913 0.670875 0.712838 0.787196 0.861555 0.935913 1.01027 0.562181 0.452616 0.343051 0.233486 0.12392 0.281579 0.439237 0.596895 0.754554 0.719865 0.685176 0.650487 0.615798 0.675038 0.734278 0.793518 0.852759 0.711707 0.570655 0.429603 0.28855 0.312031 0.335512 0.358993 0.382474 0.319798 0.257122 0.194445 0.131769 0.13591 0.140052 0.144194 0.148335 0.269564 0.390792 0.512021 0.633249 0.558708 0.484167 0.409627 0.335086 0.432381 0.529676 0.626971 0.724266 0.578733 0.433201 0.287668 0.142135 0.350679 0.559224 0.767769 0.976313 0.877021 0.777728 0.678436 0.579143 0.597531 0.61592 0.634309 0.652697 0.736572 0.820446 0.904321 0.988196 0.471437 0.409098 0.346759 0.28442 0.222081 0.331404 0.440726 0.550048 0.659371 0.6614 0.66343 0.665459 0.667489 0.711543 0.755596 0.79965 0.843704 0.689297 0.53489 0.380483 0.226076 0.24828 0.270484 0.292688 0.314892 0.288371 0.26185 0.235329 0.208807 0.186096 0.163385 0.140674 0.117963 0.237897 0.357831 0.477766 0.5977 0.532363 0.467026 0.401689 0.336352 0.387746 0.439141 0.490535 0.541929 0.447706 0.353483 0.25926 0.165038 0.362606 0.560174 0.757742 0.95531 0.869807 0.784304 0.698801 0.613298 0.608113 0.602927 0.597742 0.592556 0.685947 0.779338 0.872729 0.966121 0.380693 0.36558 0.350467 0.335355 0.320242 0.381229 0.442215 0.503201 0.564188 0.602936 0.641684 0.680432 0.71918 0.748047 0.776915 0.805782 0.83465 0.666888 0.499126 0.331364 0.163602 0.184529 0.205456 0.226382 0.247309 0.256943 0.266578 0.276212 0.285846 0.236282 0.186718 0.137154 0.0875899 0.20623 0.32487 0.443511 0.562151 0.506018 0.449885 0.393752 0.337618 0.343112 0.348605 0.354098 0.359592 0.316679 0.273766 0.230853 0.18794 0.374532 0.561123 0.747715 0.934306 0.862593 0.79088 0.719167 0.647454 0.618694 0.589935 0.561175 0.532416 0.635323 0.73823 0.841138 0.944045 0.289948 0.322062 0.354176 0.38629 0.418403 0.431054 0.443704 0.456354 0.469005 0.544471 0.619938 0.695404 0.770871 0.784552 0.798233 0.811915 0.825596 0.644479 0.463362 0.282245 0.101128 0.120778 0.140427 0.160077 0.179726 0.225516 0.271306 0.317095 0.362885 0.286468 0.210051 0.133634 0.0572171 0.174563 0.29191 0.409256 0.526602 0.479673 0.432743 0.385814 0.338885 0.298477 0.25807 0.217662 0.177254 0.185652 0.194049 0.202446 0.210843 0.386458 0.562073 0.737688 0.913303 0.85538 0.797456 0.739533 0.681609 0.629276 0.576942 0.524608 0.472275 0.584698 0.697122 0.809546 0.92197 0.243654 0.308212 0.37277 0.437328 0.501886 0.510784 0.519683 0.528582 0.537481 0.583083 0.628685 0.674287 0.719889 0.706332 0.692775 0.679218 0.665661 0.55587 0.44608 0.336289 0.226498 0.222488 0.218477 0.214467 0.210457 0.234342 0.258227 0.282112 0.305998 0.253634 0.201271 0.148907 0.0965436 0.227585 0.358626 0.489667 0.620709 0.533579 0.446448 0.359318 0.272188 0.252669 0.233149 0.21363 0.19411 0.188506 0.182902 0.177297 0.171693 0.327871 0.484048 0.640226 0.796404 0.725944 0.655484 0.585024 0.514564 0.53105 0.547536 0.564022 0.580508 0.620674 0.66084 0.701006 0.741172 0.197359 0.294361 0.391363 0.488366 0.585368 0.590515 0.595662 0.600809 0.605956 0.621694 0.637432 0.653169 0.668907 0.628112 0.587317 0.546522 0.505727 0.467262 0.428798 0.390333 0.351868 0.324198 0.296528 0.268857 0.241187 0.243168 0.245148 0.247129 0.24911 0.2208 0.19249 0.16418 0.13587 0.280606 0.425343 0.570079 0.714816 0.587485 0.460154 0.332823 0.205492 0.20686 0.208229 0.209597 0.210966 0.19136 0.171754 0.152148 0.132543 0.269283 0.406024 0.542764 0.679505 0.596508 0.513512 0.430515 0.347519 0.432824 0.51813 0.603435 0.688741 0.656649 0.624558 0.592466 0.560374 0.151065 0.280511 0.409957 0.539404 0.66885 0.670246 0.671641 0.673037 0.674432 0.660305 0.646178 0.632052 0.617925 0.549891 0.481858 0.413825 0.345792 0.378654 0.411515 0.444377 0.477238 0.425908 0.374578 0.323247 0.271917 0.251993 0.23207 0.212146 0.192222 0.187966 0.183709 0.179453 0.175196 0.333628 0.492059 0.650491 0.808923 0.641391 0.473859 0.306327 0.138795 0.161052 0.183308 0.205565 0.227822 0.194214 0.160607 0.127 0.0933922 0.210696 0.327999 0.445303 0.562606 0.467073 0.37154 0.276006 0.180473 0.334598 0.488724 0.642849 0.796974 0.692625 0.588275 0.483926 0.379577 0.10477 0.266661 0.428551 0.590442 0.752332 0.749976 0.74762 0.745264 0.742908 0.698917 0.654925 0.610934 0.566943 0.471671 0.3764 0.281129 0.185858 0.290045 0.394233 0.498421 0.602609 0.527618 0.452628 0.377638 0.302647 0.260819 0.218991 0.177163 0.135335 0.155132 0.174929 0.194726 0.214523 0.386649 0.558776 0.730903 0.903029 0.695297 0.487564 0.279831 0.0720986 0.115243 0.158388 0.201533 0.244677 0.197069 0.14946 0.101851 0.0542419 0.152108 0.249975 0.347841 0.445707 0.337637 0.229568 0.121498 0.0134279 0.236373 0.459318 0.682262 0.905207 0.7286 0.551993 0.375386 0.198779 0.10209 0.237017 0.371943 0.50687 0.641796 0.649403 0.65701 0.664616 0.672223 0.616881 0.561539 0.506197 0.450855 0.435763 0.420672 0.405581 0.390489 0.4268 0.46311 0.49942 0.53573 0.477296 0.418862 0.360428 0.301994 0.255784 0.209573 0.163363 0.117153 0.146896 0.17664 0.206383 0.236127 0.349336 0.462546 0.575755 0.688965 0.562117 0.435269 0.308421 0.181573 0.230076 0.278579 0.327082 0.375584 0.331657 0.287731 0.243804 0.199877 0.239145 0.278413 0.317681 0.356949 0.275336 0.193723 0.11211 0.0304976 0.24159 0.452682 0.663774 0.874866 0.750601 0.626337 0.502073 0.377809 0.0994108 0.207373 0.315336 0.423298 0.531261 0.54883 0.566399 0.583969 0.601538 0.534845 0.468152 0.40146 0.334767 0.399856 0.464944 0.530033 0.595121 0.563554 0.531986 0.500419 0.468852 0.426974 0.385096 0.343219 0.301341 0.250748 0.200156 0.149563 0.0989706 0.138661 0.178351 0.218041 0.257731 0.312023 0.366315 0.420608 0.4749 0.428937 0.382974 0.337011 0.291048 0.344909 0.398769 0.45263 0.506491 0.466246 0.426002 0.385757 0.345512 0.326181 0.306851 0.287521 0.268191 0.213035 0.157879 0.102723 0.0475674 0.246807 0.446046 0.645285 0.844524 0.772603 0.700681 0.62876 0.556838 0.0967311 0.17773 0.258728 0.339726 0.420725 0.448257 0.475789 0.503321 0.530853 0.452809 0.374766 0.296723 0.218679 0.363948 0.509216 0.654485 0.799753 0.700308 0.600863 0.501418 0.401973 0.376652 0.35133 0.326009 0.300688 0.245713 0.190738 0.135763 0.0807884 0.130425 0.180062 0.229699 0.279335 0.27471 0.270085 0.26546 0.260835 0.295757 0.330679 0.3656 0.400522 0.459741 0.51896 0.578179 0.637398 0.600835 0.564272 0.52771 0.491147 0.413218 0.335289 0.257361 0.179432 0.150734 0.122035 0.0933359 0.0646371 0.252023 0.43941 0.626796 0.814183 0.794604 0.775025 0.755446 0.735867 0.0940515 0.148086 0.20212 0.256155 0.310189 0.347684 0.385178 0.422673 0.460168 0.370774 0.28138 0.191986 0.102592 0.32804 0.553488 0.778937 1.00438 0.837062 0.66974 0.502417 0.335095 0.32633 0.317565 0.308799 0.300034 0.240677 0.18132 0.121963 0.0626062 0.12219 0.181773 0.241356 0.300939 0.237397 0.173855 0.110312 0.04677 0.162577 0.278383 0.39419 0.509997 0.574574 0.639151 0.703728 0.768305 0.735424 0.702543 0.669662 0.636782 0.500255 0.363728 0.227201 0.090674 0.0884322 0.0861904 0.0839486 0.0817068 0.25724 0.432774 0.608307 0.783841 0.816605 0.849369 0.882133 0.914897 0.204955 0.218776 0.232597 0.246418 0.260239 0.333536 0.406833 0.48013 0.553427 0.455629 0.357832 0.260034 0.162236 0.328538 0.49484 0.661142 0.827444 0.73048 0.633515 0.53655 0.439585 0.386597 0.333609 0.280621 0.227633 0.185519 0.143404 0.10129 0.0591757 0.14293 0.226684 0.310438 0.394193 0.342471 0.29075 0.239029 0.187308 0.269284 0.35126 0.433236 0.515212 0.576485 0.637758 0.699031 0.760304 0.734228 0.708151 0.682075 0.655998 0.558276 0.460554 0.362832 0.26511 0.232318 0.199526 0.166734 0.133942 0.291085 0.448228 0.60537 0.762513 0.778595 0.794677 0.810759 0.826841 0.315858 0.289465 0.263073 0.236681 0.210288 0.319388 0.428487 0.537587 0.646686 0.540485 0.434284 0.328082 0.221881 0.329037 0.436192 0.543348 0.650504 0.623897 0.59729 0.570683 0.544076 0.446865 0.349654 0.252442 0.155231 0.13036 0.105488 0.0806167 0.0557452 0.16367 0.271595 0.37952 0.487446 0.447546 0.407646 0.367746 0.327846 0.375991 0.424136 0.472281 0.520426 0.578396 0.636365 0.694334 0.752303 0.733031 0.713759 0.694487 0.675215 0.616298 0.557381 0.498463 0.439546 0.376204 0.312862 0.24952 0.186178 0.32493 0.463681 0.602433 0.741185 0.740585 0.739985 0.739385 0.738785 0.426761 0.360155 0.29355 0.226944 0.160338 0.30524 0.450142 0.595044 0.739945 0.62534 0.510736 0.396131 0.281526 0.329535 0.377545 0.425554 0.473564 0.517314 0.561065 0.604816 0.648567 0.507133 0.365698 0.224264 0.0828295 0.0752008 0.0675721 0.0599435 0.0523148 0.184411 0.316507 0.448603 0.580699 0.55262 0.524541 0.496462 0.468384 0.482698 0.497012 0.511327 0.525641 0.580306 0.634972 0.689637 0.744302 0.731835 0.719367 0.7069 0.694432 0.67432 0.654207 0.634095 0.613982 0.52009 0.426198 0.332306 0.238414 0.358774 0.479135 0.599496 0.719857 0.702575 0.685293 0.668011 0.650729 0.537664 0.430845 0.324026 0.217207 0.110388 0.291092 0.471796 0.6525 0.833205 0.710196 0.587187 0.464179 0.34117 0.330034 0.318897 0.30776 0.296623 0.410732 0.524841 0.638949 0.753058 0.567401 0.381743 0.196085 0.0104278 0.0200419 0.0296561 0.0392702 0.0488843 0.205151 0.361418 0.517685 0.673952 0.657694 0.641437 0.625179 0.608921 0.589405 0.569889 0.550372 0.530856 0.582217 0.633579 0.68494 0.736302 0.730638 0.724975 0.719312 0.713649 0.732341 0.751034 0.769726 0.788418 0.663976 0.539534 0.415092 0.290649 0.392619 0.494589 0.596559 0.698529 0.664565 0.630601 0.596637 0.562673 0.503101 0.40192 0.300739 0.199558 0.0983763 0.279207 0.460037 0.640868 0.821698 0.701534 0.581369 0.461205 0.34104 0.349732 0.358424 0.367116 0.375808 0.469802 0.563796 0.657789 0.751783 0.572403 0.393023 0.213643 0.0342627 0.0429283 0.0515939 0.0602595 0.0689252 0.212717 0.356508 0.500299 0.644091 0.627842 0.611593 0.595344 0.579095 0.590015 0.600934 0.611854 0.622774 0.655524 0.688273 0.721022 0.753772 0.74545 0.737128 0.728806 0.720484 0.691427 0.662371 0.633314 0.604257 0.512293 0.420328 0.328363 0.236398 0.313833 0.391267 0.468702 0.546136 0.565538 0.584941 0.604343 0.623746 0.468539 0.372995 0.277452 0.181908 0.0863645 0.267321 0.448278 0.629235 0.810191 0.692871 0.575551 0.458231 0.34091 0.369431 0.397952 0.426472 0.454993 0.528872 0.602751 0.676629 0.750508 0.577406 0.404303 0.2312 0.0580975 0.0658146 0.0735318 0.0812489 0.088966 0.220282 0.351598 0.482914 0.61423 0.59799 0.581749 0.565509 0.549268 0.590624 0.63198 0.673337 0.714693 0.72883 0.742967 0.757105 0.771242 0.760261 0.74928 0.7383 0.727319 0.650513 0.573708 0.496902 0.420096 0.360609 0.301122 0.241634 0.182147 0.235046 0.287945 0.340844 0.393743 0.466512 0.539281 0.61205 0.684818 0.433976 0.34407 0.254165 0.164259 0.0743527 0.255436 0.436519 0.617602 0.798685 0.684209 0.569733 0.455256 0.34078 0.38913 0.437479 0.485829 0.534178 0.587942 0.641706 0.695469 0.749233 0.582408 0.415583 0.248758 0.0819323 0.088701 0.0954696 0.102238 0.109007 0.227848 0.346688 0.465529 0.58437 0.568138 0.551905 0.535673 0.519441 0.591234 0.663026 0.734819 0.806611 0.802136 0.797662 0.793187 0.788712 0.775073 0.761433 0.747793 0.734154 0.609599 0.485045 0.36049 0.235935 0.208926 0.181916 0.154906 0.127896 0.156259 0.184623 0.212987 0.24135 0.367486 0.493621 0.619756 0.745891 0.399414 0.315146 0.230877 0.146609 0.0623409 0.24355 0.42476 0.605969 0.787178 0.675546 0.563914 0.452282 0.34065 0.408829 0.477007 0.545185 0.613363 0.647012 0.680661 0.714309 0.747958 0.58741 0.426863 0.266315 0.105767 0.111587 0.117407 0.123228 0.129048 0.235413 0.341778 0.448144 0.554509 0.538285 0.522062 0.505838 0.489615 0.591843 0.694072 0.796301 0.89853 0.875443 0.852356 0.829269 0.806183 0.789884 0.773586 0.757287 0.740989 0.568685 0.396382 0.224078 0.0517745 0.057242 0.0627095 0.0681769 0.0736444 0.0774727 0.081301 0.0851293 0.0889575 0.268459 0.447961 0.627462 0.806964 0.53703 0.457606 0.378181 0.298756 0.219332 0.320417 0.421502 0.522587 0.623672 0.577206 0.53074 0.484274 0.437807 0.450318 0.462829 0.47534 0.487851 0.513539 0.539227 0.564916 0.590604 0.503189 0.415775 0.32836 0.240946 0.225642 0.210337 0.195033 0.179729 0.279999 0.380269 0.480539 0.58081 0.574654 0.568498 0.562342 0.556186 0.622391 0.688596 0.754801 0.821006 0.813583 0.806159 0.798736 0.791313 0.747229 0.703144 0.65906 0.614975 0.517288 0.4196 0.321912 0.224225 0.243188 0.262152 0.281115 0.300078 0.296408 0.292737 0.289066 0.285396 0.3708 0.456204 0.541607 0.627011 0.674646 0.600065 0.525485 0.450904 0.376323 0.397283 0.418244 0.439205 0.460165 0.478865 0.497565 0.516265 0.534965 0.491808 0.448652 0.405496 0.362339 0.380067 0.397794 0.415522 0.433249 0.418968 0.404687 0.390406 0.376124 0.339696 0.303267 0.266839 0.23041 0.324585 0.41876 0.512935 0.60711 0.611022 0.614934 0.618846 0.622758 0.652939 0.68312 0.713301 0.743482 0.751722 0.759963 0.768203 0.776444 0.704573 0.632703 0.560832 0.488962 0.46589 0.442818 0.419747 0.396675 0.429134 0.461594 0.494053 0.526512 0.515343 0.504173 0.493003 0.481834 0.47314 0.464446 0.455753 0.447059 0.812263 0.742525 0.672788 0.603051 0.533314 0.47415 0.414986 0.355822 0.296659 0.380524 0.46439 0.548256 0.632122 0.533298 0.434474 0.335651 0.236827 0.246594 0.256361 0.266128 0.275895 0.334747 0.393599 0.4524