<?xml version="1.0"?> 
<VTKFile type="StructuredGrid" version="0.1"> 
<StructuredGrid WholeExtent="0 128 0 128 0 0"> 
<Piece Extent="0 128 0 128 0 0"> 
<PointData>
<DataArray type="Float32" Name="u" format="ascii" NumberOfComponents="1"> 
0 0 0 0 0 0 0 0 0 0 0 0 0 0 0 0 0 0 0 0 0 0 0 0 0 0 0 0 0 0 0 0 0 0 0 0 0 0 0 0 0 0 0 0 0 0 0 0 0 0 0 0 0 0 0 0 0 0 0 0 0 0 0 0 0 0 0 0 0 0 0 0 0 0 0 0 0 0 0 0 0 0 0 0 0 0 0 0 0 0 0 0 0 0 0 0 0 0 0 0 0 0 0 0 0 0 0 0 0 0 0 0 0 0 0 0 0 0 0 0 0 0 0 0 0 0 0 0 0 0 -6.3575e-08 -2.543e-07 -5.72175e-07 -1.0172e-06 -1.58938e-06 -2.2887e-06 -3.11518e-06 -4.0688e-06 -5.16974e-06 -6.43817e-06 -7.87408e-06 -9.47747e-06 -1.12483e-05 -1.31867e-05 -1.52925e-05 -1.75659e-05 -1.98992e-05 -2.21852e-05 -2.44237e-05 -2.66148e-05 -2.87585e-05 -3.08548e-05 -3.29037e-05 -3.49052e-05 -3.67907e-05 -3.84917e-05 -4.00082e-05 -4.13402e-05 -4.24876e-05 -4.34506e-05 -4.4229e-05 -4.4823e-05 -4.52216e-05 -4.5414e-05 -4.54003e-05 -4.51804e-05 -4.47543e-05 -4.41221e-05 -4.32836e-05 -4.22391e-05 -4.10358e-05 -3.97212e-05 -3.82954e-05 -3.67584e-05 -3.51101e-05 -3.33505e-05 -3.14797e-05 -2.94976e-05 -2.74895e-05 -2.55404e-05 -2.36504e-05 -2.18195e-05 -2.00477e-05 -1.83349e-05 -1.66813e-05 -1.50867e-05 -1.36195e-05 -1.23479e-05 -1.12719e-05 -1.03916e-05 -9.70685e-06 -9.21777e-06 -8.92433e-06 -8.82651e-06 -8.92433e-06 -9.21777e-06 -9.70685e-06 -1.03916e-05 -1.12719e-05 -1.23479e-05 -1.36195e-05 -1.50867e-05 -1.66813e-05 -1.83349e-05 -2.00477e-05 -2.18195e-05 -2.36504e-05 -2.55404e-05 -2.74895e-05 -2.94976e-05 -3.14797e-05 -3.33505e-05 -3.51101e-05 -3.67584e-05 -3.82954e-05 -3.97212e-05 -4.10358e-05 -4.22391e-05 -4.32836e-05 -4.41221e-05 -4.47543e-05 -4.51804e-05 -4.54003e-05 -4.5414e-05 -4.52216e-05 -4.4823e-05 -4.4229e-05 -4.34506e-05 -4.24876e-05 -4.13402e-05 -4.00082e-05 -3.84917e-05 -3.67907e-05 -3.49052e-05 -3.29037e-05 -3.08548e-05 -2.87585e-05 -2.66148e-05 -2.44237e-05 -2.21852e-05 -1.98992e-05 -1.75659e-05 -1.52926e-05 -1.31867e-05 -1.12483e-05 -9.47747e-06 -7.87408e-06 -6.43817e-06 -5.16975e-06 -4.0688e-06 -3.11518e-06 -2.2887e-06 -1.58938e-06 -1.0172e-06 -5.72176e-07 -2.543e-07 -6.35751e-08 0 0 -2.543e-07 -1.0172e-06 -2.2887e-06 -4.0688e-06 -6.3575e-06 -9.1548e-06 -1.24607e-05 -1.62752e-05 -2.0679e-05 -2.57527e-05 -3.14963e-05 -3.79099e-05 -4.49934e-05 -5.27468e-05 -6.11702e-05 -7.02635e-05 -7.95969e-05 -8.87407e-05 -9.76948e-05 -0.000106459 -0.000115034 -0.000123419 -0.000131615 -0.000139621 -0.000147163 -0.000153967 -0.000160033 -0.000165361 -0.000169951 -0.000173802 -0.000176916 -0.000179292 -0.000180886 -0.000181656 -0.000181601 -0.000180721 -0.000179017 -0.000176488 -0.000173135 -0.000168956 -0.000164143 -0.000158885 -0.000153182 -0.000147033 -0.00014044 -0.000133402 -0.000125919 -0.00011799 -0.000109958 -0.000102162 -9.46016e-05 -8.7278e-05 -8.01907e-05 -7.33397e-05 -6.67251e-05 -6.03467e-05 -5.44778e-05 -4.93914e-05 -4.50876e-05 -4.15662e-05 -3.88274e-05 -3.68711e-05 -3.56973e-05 -3.5306e-05 -3.56973e-05 -3.68711e-05 -3.88274e-05 -4.15662e-05 -4.50876e-05 -4.93914e-05 -5.44778e-05 -6.03467e-05 -6.67251e-05 -7.33397e-05 -8.01907e-05 -8.7278e-05 -9.46016e-05 -0.000102162 -0.000109958 -0.00011799 -0.000125919 -0.000133402 -0.00014044 -0.000147033 -0.000153182 -0.000158885 -0.000164143 -0.000168956 -0.000173135 -0.000176488 -0.000179017 -0.000180721 -0.000181601 -0.000181656 -0.000180886 -0.000179292 -0.000176916 -0.000173802 -0.000169951 -0.000165361 -0.000160033 -0.000153967 -0.000147163 -0.000139621 -0.000131615 -0.000123419 -0.000115034 -0.000106459 -9.76949e-05 -8.87407e-05 -7.95969e-05 -7.02635e-05 -6.11702e-05 -5.27468e-05 -4.49934e-05 -3.79099e-05 -3.14963e-05 -2.57527e-05 -2.0679e-05 -1.62752e-05 -1.24607e-05 -9.15481e-06 -6.35751e-06 -4.0688e-06 -2.2887e-06 -1.0172e-06 -2.543e-07 0 0 -5.72175e-07 -2.2887e-06 -5.14958e-06 -9.1548e-06 -1.43044e-05 -2.05983e-05 -2.80366e-05 -3.66192e-05 -4.65277e-05 -5.79435e-05 -7.08667e-05 -8.52972e-05 -0.000101235 -0.00011868 -0.000137633 -0.000158093 -0.000179093 -0.000199667 -0.000219813 -0.000239533 -0.000258827 -0.000277694 -0.000296133 -0.000314147 -0.000331116 -0.000346425 -0.000360074 -0.000372061 -0.000382389 -0.000391055 -0.000398061 -0.000403407 -0.000406994 -0.000408726 -0.000408603 -0.000406623 -0.000402789 -0.000397098 -0.000389553 -0.000380152 -0.000369322 -0.000357491 -0.000344659 -0.000330825 -0.000315991 -0.000300155 -0.000283317 -0.000265479 -0.000247405 -0.000229864 -0.000212854 -0.000196376 -0.000180429 -0.000165014 -0.000150131 -0.00013578 -0.000122575 -0.000111131 -0.000101447 -9.3524e-05 -8.73616e-05 -8.296e-05 -8.03189e-05 -7.94386e-05 -8.03189e-05 -8.296e-05 -8.73616e-05 -9.3524e-05 -0.000101447 -0.000111131 -0.000122575 -0.00013578 -0.000150131 -0.000165014 -0.000180429 -0.000196376 -0.000212854 -0.000229864 -0.000247405 -0.000265479 -0.000283317 -0.000300155 -0.000315991 -0.000330825 -0.000344659 -0.000357491 -0.000369322 -0.000380152 -0.000389553 -0.000397098 -0.000402789 -0.000406623 -0.000408603 -0.000408726 -0.000406994 -0.000403407 -0.000398061 -0.000391055 -0.000382389 -0.000372062 -0.000360074 -0.000346425 -0.000331116 -0.000314147 -0.000296134 -0.000277694 -0.000258827 -0.000239534 -0.000219813 -0.000199667 -0.000179093 -0.000158093 -0.000137633 -0.00011868 -0.000101235 -8.52973e-05 -7.08667e-05 -5.79436e-05 -4.65277e-05 -3.66192e-05 -2.80366e-05 -2.05983e-05 -1.43044e-05 -9.15481e-06 -5.14958e-06 -2.2887e-06 -5.72176e-07 0 0 -1.0172e-06 -4.0688e-06 -9.1548e-06 -1.62752e-05 -2.543e-05 -3.66192e-05 -4.98428e-05 -6.51008e-05 -8.27159e-05 -0.000103011 -0.000125985 -0.000151639 -0.000179973 -0.000210987 -0.000244681 -0.000281054 -0.000318388 -0.000354963 -0.000390779 -0.000425837 -0.000460137 -0.000493677 -0.000526459 -0.000558483 -0.000588651 -0.000615867 -0.000640131 -0.000661443 -0.000679802 -0.00069521 -0.000707665 -0.000717168 -0.000723545 -0.000726624 -0.000726404 -0.000722886 -0.000716069 -0.000705953 -0.000692538 -0.000675825 -0.000656572 -0.00063554 -0.000612727 -0.000588134 -0.000561761 -0.000533608 -0.000503675 -0.000471962 -0.000439832 -0.000408646 -0.000378407 -0.000349112 -0.000320763 -0.000293359 -0.0002669 -0.000241387 -0.000217911 -0.000197566 -0.00018035 -0.000166265 -0.00015531 -0.000147484 -0.000142789 -0.000141224 -0.000142789 -0.000147484 -0.00015531 -0.000166265 -0.00018035 -0.000197566 -0.000217911 -0.000241387 -0.0002669 -0.000293359 -0.000320763 -0.000349112 -0.000378407 -0.000408646 -0.000439832 -0.000471962 -0.000503675 -0.000533608 -0.000561761 -0.000588134 -0.000612727 -0.00063554 -0.000656572 -0.000675825 -0.000692538 -0.000705953 -0.000716069 -0.000722886 -0.000726404 -0.000726624 -0.000723545 -0.000717168 -0.000707665 -0.00069521 -0.000679802 -0.000661443 -0.000640131 -0.000615867 -0.000588651 -0.000558483 -0.00052646 -0.000493678 -0.000460137 -0.000425837 -0.000390779 -0.000354963 -0.000318388 -0.000281054 -0.000244681 -0.000210987 -0.000179974 -0.00015164 -0.000125985 -0.000103011 -8.2716e-05 -6.51009e-05 -4.98429e-05 -3.66192e-05 -2.543e-05 -1.62752e-05 -9.15481e-06 -4.0688e-06 -1.0172e-06 0 0 -1.58938e-06 -6.3575e-06 -1.43044e-05 -2.543e-05 -3.97344e-05 -5.72175e-05 -7.78794e-05 -0.00010172 -0.000129244 -0.000160954 -0.000196852 -0.000236937 -0.000281209 -0.000329668 -0.000382314 -0.000439147 -0.000497481 -0.000554629 -0.000610593 -0.000665371 -0.000718963 -0.000771371 -0.000822593 -0.00087263 -0.000919767 -0.000962292 -0.0010002 -0.0010335 -0.00106219 -0.00108626 -0.00110573 -0.00112057 -0.00113054 -0.00113535 -0.00113501 -0.00112951 -0.00111886 -0.00110305 -0.00108209 -0.00105598 -0.00102589 -0.000993031 -0.000957386 -0.000918959 -0.000877752 -0.000833763 -0.000786992 -0.000737441 -0.000687237 -0.00063851 -0.00059126 -0.000545488 -0.000501192 -0.000458373 -0.000417032 -0.000377167 -0.000340486 -0.000308696 -0.000281797 -0.000259789 -0.000242671 -0.000230444 -0.000223108 -0.000220663 -0.000223108 -0.000230444 -0.000242671 -0.000259789 -0.000281797 -0.000308696 -0.000340486 -0.000377167 -0.000417032 -0.000458373 -0.000501192 -0.000545488 -0.00059126 -0.00063851 -0.000687237 -0.000737441 -0.000786992 -0.000833763 -0.000877752 -0.000918959 -0.000957386 -0.00099303 -0.00102589 -0.00105598 -0.00108209 -0.00110305 -0.00111886 -0.00112951 -0.00113501 -0.00113535 -0.00113054 -0.00112057 -0.00110573 -0.00108626 -0.00106219 -0.0010335 -0.0010002 -0.000962293 -0.000919768 -0.00087263 -0.000822593 -0.000771371 -0.000718964 -0.000665371 -0.000610593 -0.00055463 -0.000497481 -0.000439147 -0.000382314 -0.000329668 -0.000281209 -0.000236937 -0.000196852 -0.000160954 -0.000129244 -0.00010172 -7.78795e-05 -5.72176e-05 -3.97344e-05 -2.543e-05 -1.43044e-05 -6.35751e-06 -1.58938e-06 0 0 -2.2887e-06 -9.1548e-06 -2.05983e-05 -3.66192e-05 -5.72175e-05 -8.23932e-05 -0.000112146 -0.000146477 -0.000186111 -0.000231774 -0.000283467 -0.000341189 -0.00040494 -0.000474721 -0.000550532 -0.000632371 -0.000716372 -0.000798666 -0.000879254 -0.000958134 -0.00103531 -0.00111077 -0.00118453 -0.00125659 -0.00132447 -0.0013857 -0.00144029 -0.00148825 -0.00152955 -0.00156422 -0.00159225 -0.00161363 -0.00162798 -0.0016349 -0.00163441 -0.00162649 -0.00161115 -0.00158839 -0.00155821 -0.00152061 -0.00147729 -0.00142996 -0.00137864 -0.0013233 -0.00126396 -0.00120062 -0.00113327 -0.00106191 -0.000989621 -0.000919454 -0.000851415 -0.000785502 -0.000721716 -0.000660057 -0.000600526 -0.000543121 -0.0004903 -0.000444523 -0.000405788 -0.000374096 -0.000349447 -0.00033184 -0.000321276 -0.000317754 -0.000321276 -0.00033184 -0.000349447 -0.000374096 -0.000405788 -0.000444523 -0.0004903 -0.000543121 -0.000600526 -0.000660057 -0.000721716 -0.000785502 -0.000851415 -0.000919454 -0.000989621 -0.00106191 -0.00113327 -0.00120062 -0.00126396 -0.0013233 -0.00137864 -0.00142996 -0.00147729 -0.00152061 -0.00155821 -0.00158839 -0.00161115 -0.00162649 -0.00163441 -0.0016349 -0.00162798 -0.00161363 -0.00159225 -0.00156422 -0.00152956 -0.00148825 -0.00144029 -0.0013857 -0.00132447 -0.00125659 -0.00118453 -0.00111077 -0.00103531 -0.000958134 -0.000879254 -0.000798667 -0.000716373 -0.000632372 -0.000550532 -0.000474722 -0.000404941 -0.000341189 -0.000283467 -0.000231774 -0.000186111 -0.000146477 -0.000112146 -8.23933e-05 -5.72176e-05 -3.66192e-05 -2.05983e-05 -9.15481e-06 -2.2887e-06 0 0 -3.11518e-06 -1.24607e-05 -2.80366e-05 -4.98428e-05 -7.78794e-05 -0.000112146 -0.000152644 -0.000199371 -0.000253317 -0.00031547 -0.00038583 -0.000464396 -0.000551169 -0.000646148 -0.000749335 -0.000860727 -0.000975062 -0.00108707 -0.00119676 -0.00130413 -0.00140917 -0.00151189 -0.00161228 -0.00171035 -0.00180274 -0.00188609 -0.0019604 -0.00202567 -0.00208189 -0.00212908 -0.00216722 -0.00219633 -0.00221586 -0.00222529 -0.00222461 -0.00221384 -0.00219296 -0.00216198 -0.0021209 -0.00206971 -0.00201075 -0.00194634 -0.00187648 -0.00180116 -0.00172039 -0.00163417 -0.0015425 -0.00144538 -0.00134698 -0.00125148 -0.00115887 -0.00106916 -0.000982336 -0.000898412 -0.000817382 -0.000739247 -0.000667353 -0.000605045 -0.000552323 -0.000509186 -0.000475636 -0.000451671 -0.000437292 -0.000432499 -0.000437292 -0.000451671 -0.000475636 -0.000509186 -0.000552323 -0.000605045 -0.000667353 -0.000739247 -0.000817382 -0.000898412 -0.000982336 -0.00106916 -0.00115887 -0.00125148 -0.00134698 -0.00144538 -0.0015425 -0.00163417 -0.00172039 -0.00180116 -0.00187648 -0.00194634 -0.00201075 -0.00206971 -0.0021209 -0.00216198 -0.00219296 -0.00221384 -0.00222461 -0.00222529 -0.00221586 -0.00219633 -0.00216722 -0.00212908 -0.00208189 -0.00202567 -0.0019604 -0.00188609 -0.00180274 -0.00171035 -0.00161228 -0.00151189 -0.00140917 -0.00130413 -0.00119676 -0.00108707 -0.000975063 -0.000860728 -0.000749335 -0.000646149 -0.000551169 -0.000464396 -0.00038583 -0.00031547 -0.000253318 -0.000199371 -0.000152644 -0.000112146 -7.78795e-05 -4.98429e-05 -2.80366e-05 -1.24607e-05 -3.11518e-06 0 0 -4.0688e-06 -1.62752e-05 -3.66192e-05 -6.51008e-05 -0.00010172 -0.000146477 -0.000199371 -0.000260403 -0.000330863 -0.000412043 -0.000503941 -0.000606558 -0.000719894 -0.000843949 -0.000978723 -0.00112422 -0.00127355 -0.00141985 -0.00156312 -0.00170335 -0.00184055 -0.00197471 -0.00210584 -0.00223393 -0.0023546 -0.00246347 -0.00256052 -0.00264577 -0.00271921 -0.00278084 -0.00283066 -0.00286867 -0.00289418 -0.0029065 -0.00290562 -0.00289154 -0.00286428 -0.00282381 -0.00277015 -0.0027033 -0.00262629 -0.00254216 -0.00245091 -0.00235254 -0.00224704 -0.00213443 -0.0020147 -0.00188785 -0.00175933 -0.00163459 -0.00151363 -0.00139645 -0.00128305 -0.00117344 -0.0010676 -0.000965548 -0.000871645 -0.000790263 -0.000721401 -0.00066506 -0.000621238 -0.000589937 -0.000571157 -0.000564897 -0.000571157 -0.000589937 -0.000621238 -0.000665059 -0.000721401 -0.000790263 -0.000871645 -0.000965548 -0.0010676 -0.00117344 -0.00128305 -0.00139645 -0.00151363 -0.00163459 -0.00175933 -0.00188785 -0.0020147 -0.00213443 -0.00224704 -0.00235254 -0.00245091 -0.00254216 -0.00262629 -0.0027033 -0.00277015 -0.00282381 -0.00286428 -0.00289154 -0.00290562 -0.0029065 -0.00289418 -0.00286867 -0.00283066 -0.00278084 -0.00271921 -0.00264577 -0.00256052 -0.00246347 -0.00235461 -0.00223393 -0.00210584 -0.00197471 -0.00184055 -0.00170335 -0.00156312 -0.00141985 -0.00127355 -0.00112422 -0.000978723 -0.000843949 -0.000719894 -0.000606558 -0.000503941 -0.000412043 -0.000330864 -0.000260403 -0.000199371 -0.000146477 -0.00010172 -6.51009e-05 -3.66192e-05 -1.62752e-05 -4.0688e-06 0 0 -5.16974e-06 -2.0679e-05 -4.65277e-05 -8.27159e-05 -0.000129244 -0.000186111 -0.000253317 -0.000330863 -0.00042029 -0.000523139 -0.000639409 -0.0007691 -0.000912214 -0.00106875 -0.00123871 -0.00142208 -0.00161011 -0.00179401 -0.00197377 -0.00214941 -0.00232092 -0.0024883 -0.00265156 -0.00281068 -0.00296009 -0.00309419 -0.00321299 -0.00331648 -0.00340467 -0.00347756 -0.00353514 -0.00357741 -0.00360354 -0.00361267 -0.00360481 -0.00357995 -0.0035381 -0.00347926 -0.00340342 -0.00331059 -0.00320475 -0.00308988 -0.00296598 -0.00283305 -0.0026911 -0.00254012 -0.00238011 -0.00221108 -0.00204011 -0.00187431 -0.00171368 -0.00155822 -0.00140793 -0.00126281 -0.00112286 -0.000988071 -0.000864132 -0.000756719 -0.000665831 -0.000591467 -0.000533629 -0.000492316 -0.000467529 -0.000459266 -0.000467529 -0.000492316 -0.000533629 -0.000591467 -0.00066583 -0.000756719 -0.000864132 -0.000988071 -0.00112286 -0.00126281 -0.00140793 -0.00155822 -0.00171368 -0.00187431 -0.00204011 -0.00221108 -0.00238011 -0.00254012 -0.0026911 -0.00283305 -0.00296598 -0.00308988 -0.00320475 -0.00331059 -0.00340342 -0.00347926 -0.0035381 -0.00357995 -0.00360481 -0.00361267 -0.00360354 -0.00357741 -0.00353514 -0.00347756 -0.00340467 -0.00331649 -0.00321299 -0.00309419 -0.00296009 -0.00281068 -0.00265156 -0.0024883 -0.00232092 -0.00214941 -0.00197377 -0.00179401 -0.00161011 -0.00142208 -0.00123871 -0.00106875 -0.000912214 -0.000769101 -0.000639409 -0.000523139 -0.000420291 -0.000330864 -0.000253318 -0.000186111 -0.000129244 -8.2716e-05 -4.65277e-05 -2.0679e-05 -5.16975e-06 0 0 -6.43817e-06 -2.57527e-05 -5.79435e-05 -0.000103011 -0.000160954 -0.000231774 -0.00031547 -0.000412043 -0.000523139 -0.000650405 -0.000793842 -0.000953449 -0.00112923 -0.00132117 -0.00152929 -0.00175358 -0.00198301 -0.00220654 -0.00242418 -0.00263593 -0.00284178 -0.00304173 -0.0032358 -0.00342396 -0.00359924 -0.00375463 -0.00389013 -0.00400574 -0.00410146 -0.0041773 -0.00423324 -0.0042693 -0.00428452 -0.00427794 -0.00424957 -0.0041994 -0.00412744 -0.00403369 -0.00391815 -0.00378081 -0.00362698 -0.00346196 -0.00328574 -0.00309834 -0.00289975 -0.00268997 -0.002469 -0.00223684 -0.0020028 -0.0017762 -0.00155705 -0.00134533 -0.00114105 -0.000944218 -0.000754823 -0.000572867 -0.000405771 -0.000260955 -0.000138418 -3.81609e-05 3.98171e-05 9.55157e-05 0.000128935 0.000140075 0.000128935 9.55157e-05 3.98172e-05 -3.81608e-05 -0.000138418 -0.000260955 -0.000405771 -0.000572867 -0.000754822 -0.000944218 -0.00114105 -0.00134533 -0.00155705 -0.0017762 -0.0020028 -0.00223684 -0.002469 -0.00268997 -0.00289975 -0.00309834 -0.00328574 -0.00346196 -0.00362698 -0.00378081 -0.00391815 -0.00403369 -0.00412744 -0.0041994 -0.00424957 -0.00427794 -0.00428452 -0.0042693 -0.00423324 -0.0041773 -0.00410146 -0.00400574 -0.00389013 -0.00375463 -0.00359924 -0.00342397 -0.0032358 -0.00304173 -0.00284178 -0.00263593 -0.00242418 -0.00220654 -0.00198301 -0.00175358 -0.00152929 -0.00132118 -0.00112923 -0.00095345 -0.000793842 -0.000650405 -0.000523139 -0.000412043 -0.00031547 -0.000231774 -0.000160954 -0.000103011 -5.79436e-05 -2.57527e-05 -6.43817e-06 0 0 -7.87407e-06 -3.14963e-05 -7.08667e-05 -0.000125985 -0.000196852 -0.000283467 -0.00038583 -0.000503941 -0.000639409 -0.000793842 -0.00096724 -0.0011596 -0.00137093 -0.00160123 -0.00185048 -0.00211871 -0.00239225 -0.00265746 -0.00291434 -0.00316289 -0.00340311 -0.003635 -0.00385855 -0.00407378 -0.00427206 -0.00444478 -0.00459194 -0.00471354 -0.00480958 -0.00488006 -0.00492498 -0.00494434 -0.00493712 -0.0049023 -0.0048399 -0.0047499 -0.0046323 -0.00448711 -0.00431433 -0.00411396 -0.00389298 -0.00365839 -0.0034102 -0.0031484 -0.00287299 -0.00258398 -0.00228136 -0.00196513 -0.00164739 -0.00134026 -0.00104371 -0.000757765 -0.000482414 -0.000217658 3.65007e-05 0.000280064 0.000503438 0.000697028 0.000860836 0.00099486 0.0010991 0.00117356 0.00121823 0.00123313 0.00121823 0.00117356 0.0010991 0.00099486 0.000860836 0.000697028 0.000503438 0.000280064 3.65009e-05 -0.000217658 -0.000482413 -0.000757765 -0.00104371 -0.00134025 -0.00164739 -0.00196513 -0.00228136 -0.00258398 -0.00287299 -0.0031484 -0.0034102 -0.00365839 -0.00389298 -0.00411396 -0.00431433 -0.00448711 -0.0046323 -0.0047499 -0.0048399 -0.00490231 -0.00493712 -0.00494434 -0.00492498 -0.00488006 -0.00480958 -0.00471354 -0.00459194 -0.00444478 -0.00427206 -0.00407378 -0.00385855 -0.003635 -0.00340311 -0.00316289 -0.00291434 -0.00265746 -0.00239225 -0.00211871 -0.00185049 -0.00160123 -0.00137093 -0.0011596 -0.000967241 -0.000793842 -0.000639409 -0.000503941 -0.00038583 -0.000283467 -0.000196852 -0.000125985 -7.08667e-05 -3.14963e-05 -7.87408e-06 0 0 -9.47747e-06 -3.79099e-05 -8.52972e-05 -0.000151639 -0.000236937 -0.000341189 -0.000464396 -0.000606558 -0.0007691 -0.000953449 -0.0011596 -0.00138756 -0.00163733 -0.0019089 -0.00220228 -0.00251747 -0.00283783 -0.00314676 -0.00344425 -0.00373031 -0.00400492 -0.00426809 -0.00451983 -0.00476013 -0.00497855 -0.00516465 -0.00531842 -0.00543988 -0.00552902 -0.00558584 -0.00561034 -0.00560252 -0.00556134 -0.00548577 -0.0053758 -0.00523144 -0.00505268 -0.00483952 -0.00459198 -0.00431003 -0.00400275 -0.00367919 -0.00333935 -0.00298323 -0.00261083 -0.00222215 -0.00181719 -0.00139595 -0.000973894 -0.000566469 -0.000173681 0.000204472 0.000567988 0.000916869 0.00125111 0.00157072 0.00186349 0.00211723 0.00233193 0.00250759 0.00264422 0.00274181 0.00280037 0.00281989 0.00280037 0.00274181 0.00264422 0.00250759 0.00233193 0.00211723 0.0018635 0.00157072 0.00125111 0.000916869 0.000567988 0.000204472 -0.000173681 -0.000566469 -0.000973894 -0.00139595 -0.00181719 -0.00222215 -0.00261083 -0.00298323 -0.00333935 -0.00367919 -0.00400275 -0.00431003 -0.00459198 -0.00483952 -0.00505268 -0.00523144 -0.0053758 -0.00548577 -0.00556134 -0.00560252 -0.00561034 -0.00558584 -0.00552902 -0.00543988 -0.00531843 -0.00516465 -0.00497855 -0.00476013 -0.00451983 -0.0042681 -0.00400492 -0.00373031 -0.00344426 -0.00314676 -0.00283784 -0.00251747 -0.00220228 -0.0019089 -0.00163733 -0.00138756 -0.0011596 -0.00095345 -0.000769101 -0.000606558 -0.000464396 -0.000341189 -0.000236937 -0.00015164 -8.52973e-05 -3.79099e-05 -9.47748e-06 0 0 -1.12483e-05 -4.49934e-05 -0.000101235 -0.000179973 -0.000281209 -0.00040494 -0.000551169 -0.000719894 -0.000912214 -0.00112923 -0.00137093 -0.00163733 -0.00192842 -0.00224421 -0.00258468 -0.00294985 -0.00331976 -0.00367445 -0.00401392 -0.00433817 -0.00464721 -0.00494103 -0.00521963 -0.00548301 -0.0057187 -0.00591422 -0.00606958 -0.00618477 -0.00625979 -0.00629464 -0.00628933 -0.00624385 -0.00615719 -0.00602833 -0.00585727 -0.00564402 -0.00538857 -0.00509092 -0.00475108 -0.00436904 -0.0039563 -0.00352435 -0.00307319 -0.00260283 -0.00211326 -0.00160448 -0.0010765 -0.000529311 1.77014e-05 0.000545154 0.00105305 0.00154138 0.00201015 0.00245936 0.00288902 0.00329911 0.0036744 0.00399965 0.00427487 0.00450004 0.00467518 0.00480028 0.00487534 0.00490036 0.00487534 0.00480028 0.00467518 0.00450004 0.00427487 0.00399965 0.0036744 0.00329911 0.00288902 0.00245936 0.00201015 0.00154138 0.00105305 0.000545154 1.77017e-05 -0.000529311 -0.0010765 -0.00160448 -0.00211326 -0.00260283 -0.00307319 -0.00352435 -0.0039563 -0.00436904 -0.00475108 -0.00509092 -0.00538857 -0.00564402 -0.00585727 -0.00602833 -0.00615719 -0.00624385 -0.00628933 -0.00629464 -0.00625979 -0.00618477 -0.00606958 -0.00591423 -0.0057187 -0.00548301 -0.00521963 -0.00494103 -0.00464721 -0.00433817 -0.00401392 -0.00367445 -0.00331976 -0.00294985 -0.00258468 -0.00224421 -0.00192842 -0.00163733 -0.00137093 -0.00112923 -0.000912214 -0.000719894 -0.000551169 -0.000404941 -0.000281209 -0.000179974 -0.000101235 -4.49934e-05 -1.12484e-05 0 0 -1.31867e-05 -5.27468e-05 -0.00011868 -0.000210987 -0.000329667 -0.000474721 -0.000646148 -0.000843949 -0.00106875 -0.00132117 -0.00160123 -0.0019089 -0.00224421 -0.00260713 -0.00299769 -0.00341587 -0.00383802 -0.00424051 -0.00462334 -0.00498649 -0.00532998 -0.00565379 -0.00595794 -0.00624243 -0.00649252 -0.00669352 -0.00684541 -0.0069482 -0.00700188 -0.00700647 -0.00696195 -0.00686833 -0.00672465 -0.00652998 -0.00628431 -0.00598764 -0.00563997 -0.00524131 -0.00479164 -0.00429097 -0.00375361 -0.00319386 -0.00261172 -0.0020072 -0.00138028 -0.000730976 -5.92831e-05 0.000634799 0.00132739 0.00199462 0.00263647 0.00325296 0.00384408 0.00440983 0.00495021 0.00546522 0.00593615 0.0063443 0.00668965 0.00697221 0.00719198 0.00734895 0.00744314 0.00747454 0.00744314 0.00734895 0.00719198 0.00697221 0.00668965 0.0063443 0.00593615 0.00546522 0.00495021 0.00440983 0.00384408 0.00325296 0.00263647 0.00199462 0.00132739 0.000634799 -5.92828e-05 -0.000730976 -0.00138028 -0.0020072 -0.00261172 -0.00319386 -0.00375361 -0.00429097 -0.00479164 -0.00524131 -0.00563997 -0.00598764 -0.00628431 -0.00652998 -0.00672465 -0.00686833 -0.00696195 -0.00700647 -0.00700188 -0.0069482 -0.00684541 -0.00669352 -0.00649252 -0.00624243 -0.00595795 -0.0056538 -0.00532998 -0.00498649 -0.00462334 -0.00424052 -0.00383803 -0.00341587 -0.00299769 -0.00260713 -0.00224421 -0.0019089 -0.00160123 -0.00132118 -0.00106875 -0.000843949 -0.000646149 -0.000474722 -0.000329668 -0.000210987 -0.00011868 -5.27468e-05 -1.31867e-05 0 0 -1.52925e-05 -6.11702e-05 -0.000137633 -0.000244681 -0.000382313 -0.000550531 -0.000749334 -0.000978723 -0.00123871 -0.00152929 -0.00185048 -0.00220228 -0.00258468 -0.00299769 -0.0034413 -0.00391551 -0.00439263 -0.00484496 -0.00527251 -0.00567526 -0.00605322 -0.0064064 -0.00673478 -0.00703837 -0.00730001 -0.00750252 -0.00764591 -0.00773017 -0.0077553 -0.00772131 -0.00762819 -0.00747595 -0.00726374 -0.00699074 -0.00665692 -0.00626231 -0.0058069 -0.00529068 -0.00471366 -0.00407584 -0.0033947 -0.00268774 -0.00195495 -0.00119633 -0.000411895 0.00039837 0.00123446 0.00209638 0.00295518 0.00378191 0.00457659 0.00533921 0.00606976 0.00676826 0.00743469 0.00806906 0.00864876 0.00915116 0.00957627 0.00992408 0.0101946 0.0103878 0.0105038 0.0105424 0.0105038 0.0103878 0.0101946 0.00992408 0.00957627 0.00915116 0.00864876 0.00806906 0.00743469 0.00676826 0.00606976 0.00533921 0.00457659 0.00378191 0.00295518 0.00209638 0.00123446 0.00039837 -0.000411895 -0.00119633 -0.00195495 -0.00268774 -0.0033947 -0.00407584 -0.00471366 -0.00529068 -0.0058069 -0.00626231 -0.00665692 -0.00699074 -0.00726374 -0.00747595 -0.00762819 -0.00772131 -0.0077553 -0.00773017 -0.00764591 -0.00750252 -0.00730001 -0.00703838 -0.00673478 -0.0064064 -0.00605322 -0.00567526 -0.00527251 -0.00484497 -0.00439263 -0.00391551 -0.0034413 -0.00299769 -0.00258468 -0.00220228 -0.00185049 -0.00152929 -0.00123871 -0.000978723 -0.000749335 -0.000550532 -0.000382314 -0.000244681 -0.000137633 -6.11702e-05 -1.52926e-05 0 0 -1.75659e-05 -7.02635e-05 -0.000158093 -0.000281054 -0.000439147 -0.000632371 -0.000860727 -0.00112422 -0.00142208 -0.00175358 -0.00211871 -0.00251747 -0.00294985 -0.00341587 -0.00391551 -0.00444878 -0.00498358 -0.0054878 -0.00596143 -0.00640448 -0.00681695 -0.00719883 -0.00755014 -0.00787086 -0.00814117 -0.00834124 -0.00847108 -0.00853068 -0.00852005 -0.00843917 -0.00828807 -0.00806672 -0.00777446 -0.00741058 -0.00697511 -0.00646802 -0.00588933 -0.00523904 -0.00451714 -0.00372363 -0.00287956 -0.00200597 -0.00110287 -0.000170243 0.000791897 0.00178356 0.00280473 0.00385542 0.00490106 0.00590705 0.00687341 0.00780013 0.00868721 0.00953465 0.0103425 0.0111106 0.0118122 0.0124202 0.0129347 0.0133557 0.0136831 0.0139169 0.0140573 0.014104 0.0140573 0.0139169 0.0136831 0.0133557 0.0129347 0.0124202 0.0118122 0.0111106 0.0103425 0.00953465 0.00868721 0.00780013 0.00687341 0.00590705 0.00490106 0.00385542 0.00280473 0.00178356 0.000791898 -0.000170243 -0.00110287 -0.00200597 -0.00287956 -0.00372363 -0.00451714 -0.00523904 -0.00588933 -0.00646802 -0.00697511 -0.00741059 -0.00777446 -0.00806672 -0.00828807 -0.00843918 -0.00852005 -0.00853068 -0.00847108 -0.00834124 -0.00814117 -0.00787086 -0.00755014 -0.00719883 -0.00681695 -0.00640448 -0.00596143 -0.0054878 -0.00498358 -0.00444879 -0.00391551 -0.00341587 -0.00294985 -0.00251747 -0.00211871 -0.00175358 -0.00142208 -0.00112422 -0.000860728 -0.000632372 -0.000439147 -0.000281054 -0.000158093 -7.02635e-05 -1.75659e-05 0 0 -1.98992e-05 -7.95969e-05 -0.000179093 -0.000318388 -0.000497481 -0.000716372 -0.000975062 -0.00127355 -0.00161011 -0.00198301 -0.00239225 -0.00283783 -0.00331976 -0.00383802 -0.00439263 -0.00498358 -0.005574 -0.006127 -0.0066426 -0.00712078 -0.00756156 -0.00796492 -0.00833088 -0.00865942 -0.00892787 -0.00911351 -0.00921636 -0.00923641 -0.00917367 -0.00902812 -0.00879978 -0.00848865 -0.0080943 -0.00761633 -0.00705474 -0.00640952 -0.00568067 -0.00486821 -0.00397212 -0.0029924 -0.00195422 -0.000882707 0.000222124 0.00136028 0.00253175 0.00373654 0.00497466 0.0062461 0.00750987 0.00872498 0.00989144 0.0110092 0.0120784 0.0130989 0.0140707 0.0149939 0.0158365 0.0165669 0.0171848 0.0176904 0.0180837 0.0183645 0.0185331 0.0185893 0.0185331 0.0183645 0.0180837 0.0176904 0.0171848 0.0165669 0.0158365 0.0149939 0.0140707 0.0130989 0.0120784 0.0110092 0.00989144 0.00872498 0.00750987 0.0062461 0.00497466 0.00373654 0.00253175 0.00136028 0.000222124 -0.000882707 -0.00195422 -0.0029924 -0.00397212 -0.00486821 -0.00568067 -0.00640952 -0.00705474 -0.00761633 -0.0080943 -0.00848865 -0.00879978 -0.00902812 -0.00917367 -0.00923641 -0.00921636 -0.00911351 -0.00892787 -0.00865943 -0.00833088 -0.00796493 -0.00756156 -0.00712079 -0.0066426 -0.00612701 -0.005574 -0.00498358 -0.00439263 -0.00383803 -0.00331976 -0.00283784 -0.00239225 -0.00198301 -0.00161011 -0.00127355 -0.000975063 -0.000716373 -0.000497481 -0.000318388 -0.000179093 -7.9597e-05 -1.98992e-05 0 0 -2.21852e-05 -8.87407e-05 -0.000199667 -0.000354963 -0.000554629 -0.000798666 -0.00108707 -0.00141985 -0.001794 -0.00220654 -0.00265746 -0.00314676 -0.00367445 -0.00424051 -0.00484496 -0.0054878 -0.006127 -0.00672057 -0.00726851 -0.0077708 -0.00822747 -0.00863849 -0.00900388 -0.00932364 -0.00957199 -0.00972317 -0.00977719 -0.00973403 -0.00959371 -0.00935622 -0.00902156 -0.00858973 -0.00806079 -0.00743477 -0.00671168 -0.00589153 -0.0049743 -0.00396001 -0.00284865 -0.00164021 -0.000364699 0.000947911 0.00229762 0.00368442 0.00510831 0.0065693 0.00806739 0.00960257 0.0111265 0.0125907 0.0139952 0.0153401 0.0166253 0.0178508 0.0190166 0.0201228 0.0211318 0.0220063 0.0227463 0.0233517 0.0238226 0.024159 0.0243608 0.024428 0.0243608 0.024159 0.0238226 0.0233517 0.0227463 0.0220063 0.0211318 0.0201228 0.0190166 0.0178508 0.0166253 0.0153401 0.0139952 0.0125907 0.0111265 0.00960257 0.00806739 0.0065693 0.00510831 0.00368442 0.00229762 0.000947911 -0.000364699 -0.00164021 -0.00284865 -0.00396001 -0.0049743 -0.00589153 -0.00671168 -0.00743477 -0.00806079 -0.00858973 -0.00902156 -0.00935622 -0.00959371 -0.00973404 -0.00977719 -0.00972318 -0.00957199 -0.00932364 -0.00900389 -0.0086385 -0.00822747 -0.00777081 -0.00726851 -0.00672058 -0.00612701 -0.0054878 -0.00484497 -0.00424052 -0.00367445 -0.00314676 -0.00265746 -0.00220654 -0.00179401 -0.00141985 -0.00108707 -0.000798667 -0.00055463 -0.000354963 -0.000199667 -8.87408e-05 -2.21852e-05 0 0 -2.44237e-05 -9.76948e-05 -0.000219813 -0.000390779 -0.000610593 -0.000879253 -0.00119676 -0.00156312 -0.00197377 -0.00242418 -0.00291434 -0.00344425 -0.00401392 -0.00462334 -0.00527251 -0.00596143 -0.0066426 -0.00726851 -0.00783915 -0.00835454 -0.00881467 -0.00921954 -0.00956915 -0.00986349 -0.0100735 -0.0101702 -0.0101536 -0.0100235 -0.00978018 -0.00942347 -0.0089534 -0.00836998 -0.00767391 -0.0068659 -0.00594595 -0.00491406 -0.00377022 -0.00251444 -0.00114672 0.000332939 0.00188899 0.00348588 0.00512361 0.00680218 0.00852159 0.0102818 0.0120829 0.0139248 0.0157508 0.0175041 0.0191847 0.0207926 0.0223278 0.0237903 0.0251802 0.0264973 0.027698 0.0287386 0.0296192 0.0303396 0.0308999 0.0313002 0.0315403 0.0316204 0.0315403 0.0313002 0.0308999 0.0303396 0.0296192 0.0287386 0.027698 0.0264973 0.0251802 0.0237903 0.0223278 0.0207926 0.0191847 0.0175041 0.0157508 0.0139248 0.0120829 0.0102818 0.00852159 0.00680218 0.00512361 0.00348588 0.00188899 0.000332939 -0.00114672 -0.00251444 -0.00377022 -0.00491406 -0.00594595 -0.0068659 -0.00767391 -0.00836998 -0.0089534 -0.00942347 -0.00978019 -0.0100236 -0.0101536 -0.0101702 -0.0100735 -0.0098635 -0.00956915 -0.00921954 -0.00881467 -0.00835455 -0.00783916 -0.00726851 -0.0066426 -0.00596143 -0.00527251 -0.00462334 -0.00401392 -0.00344426 -0.00291434 -0.00242418 -0.00197377 -0.00156312 -0.00119676 -0.000879254 -0.000610593 -0.00039078 -0.000219814 -9.76949e-05 -2.44237e-05 0 0 -2.66148e-05 -0.000106459 -0.000239533 -0.000425837 -0.000665371 -0.000958134 -0.00130413 -0.00170335 -0.00214941 -0.00263593 -0.0