<?xml version="1.0"?> 
<VTKFile type="StructuredGrid" version="0.1"> 
<StructuredGrid WholeExtent="0 128 0 128 0 0"> 
<Piece Extent="0 128 0 128 0 0"> 
<PointData>
<DataArray type="Float32" Name="u" format="ascii" NumberOfComponents="1"> 
0 0 0 0 0 0 0 0 0 0 0 0 0 0 0 0 0 0 0 0 0 0 0 0 0 0 0 0 0 0 0 0 0 0 0 0 0 0 0 0 0 0 0 0 0 0 0 0 0 0 0 0 0 0 0 0 0 0 0 0 0 0 0 0 0 0 0 0 0 0 0 0 0 0 0 0 0 0 0 0 0 0 0 0 0 0 0 0 0 0 0 0 0 0 0 0 0 0 0 0 0 0 0 0 0 0 0 0 0 0 0 0 0 0 0 0 0 0 0 0 0 0 0 0 0 0 0 0 0 0 -6.17815e-08 -2.47126e-07 -5.56033e-07 -9.88503e-07 -1.54454e-06 -2.22413e-06 -3.02729e-06 -3.95401e-06 -5.018e-06 -6.23294e-06 -7.59885e-06 -9.11573e-06 -1.07836e-05 -1.26024e-05 -1.45721e-05 -1.66928e-05 -1.88549e-05 -2.09487e-05 -2.29743e-05 -2.49316e-05 -2.68207e-05 -2.86415e-05 -3.03941e-05 -3.20784e-05 -3.3624e-05 -3.49605e-05 -3.60879e-05 -3.70063e-05 -3.77155e-05 -3.82156e-05 -3.85066e-05 -3.85885e-05 -3.84508e-05 -3.8083e-05 -3.74851e-05 -3.6657e-05 -3.55988e-05 -3.43105e-05 -3.27921e-05 -3.10435e-05 -2.91218e-05 -2.70837e-05 -2.49293e-05 -2.26586e-05 -2.02715e-05 -1.77682e-05 -1.51485e-05 -1.24125e-05 -9.66367e-06 -7.00558e-06 -4.43821e-06 -1.96155e-06 4.24397e-07 2.71963e-06 4.92414e-06 7.03794e-06 8.97711e-06 1.06577e-05 1.20798e-05 1.32433e-05 1.41482e-05 1.47946e-05 1.51824e-05 1.53117e-05 1.51824e-05 1.47946e-05 1.41482e-05 1.32433e-05 1.20798e-05 1.06577e-05 8.97711e-06 7.03794e-06 4.92414e-06 2.71963e-06 4.24398e-07 -1.96155e-06 -4.43821e-06 -7.00558e-06 -9.66367e-06 -1.24125e-05 -1.51485e-05 -1.77682e-05 -2.02715e-05 -2.26586e-05 -2.49293e-05 -2.70837e-05 -2.91218e-05 -3.10435e-05 -3.27921e-05 -3.43105e-05 -3.55988e-05 -3.6657e-05 -3.74851e-05 -3.8083e-05 -3.84508e-05 -3.85885e-05 -3.85066e-05 -3.82156e-05 -3.77155e-05 -3.70063e-05 -3.60879e-05 -3.49605e-05 -3.3624e-05 -3.20784e-05 -3.03941e-05 -2.86415e-05 -2.68207e-05 -2.49316e-05 -2.29743e-05 -2.09487e-05 -1.88549e-05 -1.66928e-05 -1.45721e-05 -1.26024e-05 -1.07836e-05 -9.11573e-06 -7.59886e-06 -6.23295e-06 -5.018e-06 -3.95402e-06 -3.02729e-06 -2.22413e-06 -1.54454e-06 -9.88504e-07 -5.56034e-07 -2.47126e-07 -6.17815e-08 0 0 -2.47126e-07 -9.88503e-07 -2.22413e-06 -3.95401e-06 -6.17815e-06 -8.89653e-06 -1.21092e-05 -1.58161e-05 -2.0072e-05 -2.49318e-05 -3.03954e-05 -3.64629e-05 -4.31342e-05 -5.04094e-05 -5.82885e-05 -6.67714e-05 -7.54197e-05 -8.3795e-05 -9.18972e-05 -9.97265e-05 -0.000107283 -0.000114566 -0.000121576 -0.000128313 -0.000134496 -0.000139842 -0.000144352 -0.000148025 -0.000150862 -0.000152862 -0.000154026 -0.000154354 -0.000153803 -0.000152332 -0.00014994 -0.000146628 -0.000142395 -0.000137242 -0.000131168 -0.000124174 -0.000116487 -0.000108335 -9.97171e-05 -9.06342e-05 -8.10861e-05 -7.10726e-05 -6.05939e-05 -4.96499e-05 -3.86547e-05 -2.80223e-05 -1.77528e-05 -7.84619e-06 1.69759e-06 1.08785e-05 1.96966e-05 2.81518e-05 3.59084e-05 4.26309e-05 4.83191e-05 5.29731e-05 5.65929e-05 5.91784e-05 6.07298e-05 6.12469e-05 6.07298e-05 5.91784e-05 5.65929e-05 5.29731e-05 4.83191e-05 4.26309e-05 3.59084e-05 2.81518e-05 1.96966e-05 1.08785e-05 1.69759e-06 -7.84619e-06 -1.77528e-05 -2.80223e-05 -3.86547e-05 -4.96499e-05 -6.05939e-05 -7.10726e-05 -8.10861e-05 -9.06342e-05 -9.97171e-05 -0.000108335 -0.000116487 -0.000124174 -0.000131168 -0.000137242 -0.000142395 -0.000146628 -0.00014994 -0.000152332 -0.000153803 -0.000154354 -0.000154026 -0.000152862 -0.000150862 -0.000148025 -0.000144352 -0.000139842 -0.000134496 -0.000128313 -0.000121576 -0.000114566 -0.000107283 -9.97265e-05 -9.18973e-05 -8.3795e-05 -7.54197e-05 -6.67714e-05 -5.82885e-05 -5.04095e-05 -4.31343e-05 -3.64629e-05 -3.03954e-05 -2.49318e-05 -2.0072e-05 -1.58161e-05 -1.21092e-05 -8.89654e-06 -6.17815e-06 -3.95402e-06 -2.22413e-06 -9.88504e-07 -2.47126e-07 0 0 -5.56033e-07 -2.22413e-06 -5.0043e-06 -8.89653e-06 -1.39008e-05 -2.00172e-05 -2.72456e-05 -3.55861e-05 -4.5162e-05 -5.60965e-05 -6.83897e-05 -8.20415e-05 -9.7052e-05 -0.000113421 -0.000131149 -0.000150236 -0.000169694 -0.000188539 -0.000206769 -0.000224385 -0.000241386 -0.000257774 -0.000273547 -0.000288705 -0.000302616 -0.000314645 -0.000324791 -0.000333056 -0.000339439 -0.00034394 -0.00034656 -0.000347297 -0.000346057 -0.000342747 -0.000337366 -0.000329913 -0.000320389 -0.000308795 -0.000295129 -0.000279392 -0.000262096 -0.000243753 -0.000224364 -0.000203927 -0.000182444 -0.000159913 -0.000136336 -0.000111712 -8.6973e-05 -6.30502e-05 -3.99439e-05 -1.76539e-05 3.81958e-06 2.44766e-05 4.43173e-05 6.33415e-05 8.0794e-05 9.59195e-05 0.000108718 0.000119189 0.000127334 0.000133151 0.000136642 0.000137805 0.000136642 0.000133151 0.000127334 0.000119189 0.000108718 9.59195e-05 8.0794e-05 6.33415e-05 4.43173e-05 2.44767e-05 3.81958e-06 -1.76539e-05 -3.99438e-05 -6.30502e-05 -8.6973e-05 -0.000111712 -0.000136336 -0.000159913 -0.000182444 -0.000203927 -0.000224364 -0.000243753 -0.000262096 -0.000279392 -0.000295129 -0.000308795 -0.000320389 -0.000329913 -0.000337366 -0.000342747 -0.000346058 -0.000347297 -0.00034656 -0.00034394 -0.000339439 -0.000333056 -0.000324791 -0.000314645 -0.000302616 -0.000288705 -0.000273547 -0.000257774 -0.000241386 -0.000224385 -0.000206769 -0.000188539 -0.000169694 -0.000150236 -0.000131149 -0.000113421 -9.70521e-05 -8.20416e-05 -6.83897e-05 -5.60965e-05 -4.5162e-05 -3.55861e-05 -2.72456e-05 -2.00172e-05 -1.39008e-05 -8.89654e-06 -5.0043e-06 -2.22413e-06 -5.56034e-07 0 0 -9.88503e-07 -3.95401e-06 -8.89653e-06 -1.58161e-05 -2.47126e-05 -3.55861e-05 -4.84367e-05 -6.32642e-05 -8.0288e-05 -9.97271e-05 -0.000121582 -0.000145852 -0.000172537 -0.000201638 -0.000233154 -0.000267085 -0.000301679 -0.00033518 -0.000367589 -0.000398906 -0.000429131 -0.000458264 -0.000486305 -0.000513254 -0.000537984 -0.000559368 -0.000577407 -0.0005921 -0.000603448 -0.00061145 -0.000616106 -0.000617416 -0.000615213 -0.000609328 -0.000599761 -0.000586512 -0.000569581 -0.000548968 -0.000524674 -0.000496697 -0.000465948 -0.000433339 -0.000398869 -0.000362537 -0.000324344 -0.00028429 -0.000242376 -0.0001986 -0.000154619 -0.000112089 -7.10113e-05 -3.13848e-05 6.79036e-06 4.3514e-05 7.87863e-05 0.000112607 0.000143634 0.000170524 0.000193276 0.000211892 0.000226372 0.000236714 0.000242919 0.000244988 0.000242919 0.000236714 0.000226372 0.000211892 0.000193276 0.000170524 0.000143634 0.000112607 7.87863e-05 4.3514e-05 6.79037e-06 -3.13847e-05 -7.10113e-05 -0.000112089 -0.000154619 -0.000198599 -0.000242376 -0.00028429 -0.000324344 -0.000362537 -0.000398869 -0.000433339 -0.000465948 -0.000496697 -0.000524674 -0.000548968 -0.000569581 -0.000586512 -0.000599761 -0.000609328 -0.000615213 -0.000617417 -0.000616106 -0.00061145 -0.000603448 -0.0005921 -0.000577407 -0.000559368 -0.000537984 -0.000513254 -0.000486305 -0.000458264 -0.000429131 -0.000398906 -0.000367589 -0.00033518 -0.000301679 -0.000267086 -0.000233154 -0.000201638 -0.000172537 -0.000145852 -0.000121582 -9.97272e-05 -8.0288e-05 -6.32643e-05 -4.84367e-05 -3.55861e-05 -2.47126e-05 -1.58161e-05 -8.89654e-06 -3.95402e-06 -9.88504e-07 0 0 -1.54454e-06 -6.17815e-06 -1.39008e-05 -2.47126e-05 -3.86134e-05 -5.56033e-05 -7.56823e-05 -9.88503e-05 -0.00012545 -0.000155824 -0.000189971 -0.000227893 -0.000269589 -0.000315059 -0.000364303 -0.000417321 -0.000471373 -0.000523719 -0.000574358 -0.000623291 -0.000670517 -0.000716038 -0.000759851 -0.000801959 -0.0008406 -0.000874013 -0.000902198 -0.000925156 -0.000942887 -0.00095539 -0.000962665 -0.000964713 -0.000961271 -0.000952075 -0.000937127 -0.000916425 -0.000889971 -0.000857763 -0.000819802 -0.000776089 -0.000728044 -0.000677092 -0.000623232 -0.000566464 -0.000506788 -0.000444204 -0.000378712 -0.000310312 -0.000241592 -0.000175139 -0.000110955 -4.90387e-05 1.06099e-05 6.79907e-05 0.000123104 0.000175949 0.000224428 0.000266443 0.000301994 0.000331082 0.000353705 0.000369865 0.000379561 0.000382793 0.000379561 0.000369865 0.000353705 0.000331082 0.000301994 0.000266443 0.000224428 0.000175949 0.000123104 6.79907e-05 1.061e-05 -4.90387e-05 -0.000110955 -0.000175139 -0.000241592 -0.000310312 -0.000378712 -0.000444204 -0.000506788 -0.000566464 -0.000623232 -0.000677092 -0.000728044 -0.000776089 -0.000819802 -0.000857763 -0.000889971 -0.000916425 -0.000937127 -0.000952075 -0.000961271 -0.000964713 -0.000962665 -0.00095539 -0.000942887 -0.000925157 -0.000902199 -0.000874013 -0.0008406 -0.000801959 -0.000759852 -0.000716038 -0.000670517 -0.000623291 -0.000574358 -0.000523719 -0.000471373 -0.000417321 -0.000364303 -0.000315059 -0.000269589 -0.000227893 -0.000189971 -0.000155824 -0.00012545 -9.88504e-05 -7.56823e-05 -5.56034e-05 -3.86134e-05 -2.47126e-05 -1.39008e-05 -6.17815e-06 -1.54454e-06 0 0 -2.22413e-06 -8.89653e-06 -2.00172e-05 -3.55861e-05 -5.56033e-05 -8.00688e-05 -0.000108982 -0.000142344 -0.000180648 -0.000224386 -0.000273559 -0.000328166 -0.000388208 -0.000453685 -0.000524596 -0.000600942 -0.000678777 -0.000754155 -0.000827075 -0.000897539 -0.000965545 -0.00103109 -0.00109419 -0.00115482 -0.00121046 -0.00125858 -0.00129917 -0.00133223 -0.00135776 -0.00137576 -0.00138624 -0.00138919 -0.00138423 -0.00137099 -0.00134946 -0.00131965 -0.00128156 -0.00123518 -0.00118052 -0.00111757 -0.00104838 -0.000975013 -0.000897454 -0.000815708 -0.000729774 -0.000639653 -0.000545345 -0.000446849 -0.000347892 -0.000252201 -0.000159775 -7.06157e-05 1.52783e-05 9.79066e-05 0.000177269 0.000253366 0.000323176 0.000383678 0.000434872 0.000476758 0.000509336 0.000532606 0.000546568 0.000551222 0.000546568 0.000532606 0.000509336 0.000476758 0.000434872 0.000383678 0.000323176 0.000253366 0.000177269 9.79066e-05 1.52783e-05 -7.06157e-05 -0.000159775 -0.000252201 -0.000347892 -0.000446849 -0.000545345 -0.000639653 -0.000729774 -0.000815708 -0.000897454 -0.000975013 -0.00104838 -0.00111757 -0.00118052 -0.00123518 -0.00128156 -0.00131965 -0.00134946 -0.00137099 -0.00138423 -0.00138919 -0.00138624 -0.00137576 -0.00135776 -0.00133223 -0.00129917 -0.00125858 -0.00121046 -0.00115482 -0.00109419 -0.00103109 -0.000965545 -0.000897539 -0.000827075 -0.000754155 -0.000678777 -0.000600943 -0.000524597 -0.000453685 -0.000388208 -0.000328166 -0.000273559 -0.000224386 -0.000180648 -0.000142345 -0.000108983 -8.00688e-05 -5.56034e-05 -3.55861e-05 -2.00172e-05 -8.89654e-06 -2.22413e-06 0 0 -3.02729e-06 -1.21092e-05 -2.72456e-05 -4.84367e-05 -7.56823e-05 -0.000108982 -0.000148337 -0.000193747 -0.000245882 -0.000305414 -0.000372344 -0.000446671 -0.000528394 -0.000617516 -0.000714034 -0.000817949 -0.000923891 -0.00102649 -0.00112574 -0.00122165 -0.00131421 -0.00140343 -0.00148931 -0.00157184 -0.00164758 -0.00171307 -0.00176831 -0.00181331 -0.00184806 -0.00187256 -0.00188682 -0.00189084 -0.00188409 -0.00186607 -0.00183677 -0.00179619 -0.00174434 -0.00168122 -0.00160681 -0.00152113 -0.00142697 -0.0013271 -0.00122153 -0.00111027 -0.000993304 -0.000870639 -0.000742275 -0.000608211 -0.00047352 -0.000343273 -0.000217472 -9.61158e-05 2.07955e-05 0.000133262 0.000241283 0.000344859 0.000439878 0.000522228 0.000591909 0.00064892 0.000693263 0.000724936 0.00074394 0.000750274 0.00074394 0.000724936 0.000693263 0.00064892 0.000591909 0.000522228 0.000439878 0.000344859 0.000241283 0.000133262 2.07955e-05 -9.61158e-05 -0.000217472 -0.000343273 -0.00047352 -0.000608211 -0.000742275 -0.000870639 -0.000993304 -0.00111027 -0.00122153 -0.0013271 -0.00142697 -0.00152113 -0.00160681 -0.00168122 -0.00174434 -0.00179619 -0.00183677 -0.00186607 -0.00188409 -0.00189084 -0.00188682 -0.00187256 -0.00184806 -0.00181331 -0.00176831 -0.00171307 -0.00164758 -0.00157184 -0.00148931 -0.00140343 -0.00131421 -0.00122165 -0.00112574 -0.00102649 -0.000923891 -0.00081795 -0.000714034 -0.000617516 -0.000528395 -0.000446671 -0.000372344 -0.000305415 -0.000245882 -0.000193747 -0.000148337 -0.000108983 -7.56823e-05 -4.84367e-05 -2.72456e-05 -1.21092e-05 -3.02729e-06 0 0 -3.95401e-06 -1.58161e-05 -3.55861e-05 -6.32642e-05 -9.88503e-05 -0.000142344 -0.000193747 -0.000253057 -0.000321152 -0.000398908 -0.000486327 -0.000583406 -0.000690148 -0.000806551 -0.000932616 -0.00106834 -0.00120671 -0.00134072 -0.00147036 -0.00159562 -0.00171652 -0.00183306 -0.00194522 -0.00205302 -0.00215194 -0.00223747 -0.00230963 -0.0023684 -0.00241379 -0.0024458 -0.00246442 -0.00246967 -0.00246085 -0.00243731 -0.00239904 -0.00234605 -0.00227832 -0.00219587 -0.00209869 -0.00198679 -0.00186379 -0.00173336 -0.00159547 -0.00145015 -0.00129738 -0.00113716 -0.000969502 -0.000794398 -0.000618475 -0.000448357 -0.000284045 -0.000125539 2.71614e-05 0.000174056 0.000315145 0.000450428 0.000574535 0.000682094 0.000773106 0.00084757 0.000905486 0.000946855 0.000971676 0.00097995 0.000971676 0.000946855 0.000905486 0.00084757 0.000773106 0.000682094 0.000574535 0.000450428 0.000315145 0.000174056 2.71615e-05 -0.000125539 -0.000284045 -0.000448357 -0.000618475 -0.000794398 -0.000969502 -0.00113716 -0.00129738 -0.00145015 -0.00159547 -0.00173336 -0.00186379 -0.00198679 -0.00209869 -0.00219587 -0.00227833 -0.00234605 -0.00239904 -0.00243731 -0.00246085 -0.00246967 -0.00246442 -0.0024458 -0.00241379 -0.0023684 -0.00230963 -0.00223747 -0.00215194 -0.00205302 -0.00194522 -0.00183306 -0.00171652 -0.00159562 -0.00147036 -0.00134072 -0.00120672 -0.00106834 -0.000932616 -0.000806551 -0.000690148 -0.000583407 -0.000486327 -0.000398909 -0.000321152 -0.000253057 -0.000193747 -0.000142345 -9.88504e-05 -6.32643e-05 -3.55861e-05 -1.58161e-05 -3.95402e-06 0 0 -5.018e-06 -2.0072e-05 -4.5162e-05 -8.0288e-05 -0.00012545 -0.000180648 -0.000245882 -0.000321152 -0.000407481 -0.000505893 -0.000616388 -0.000738966 -0.000873627 -0.00102037 -0.0011792 -0.00135011 -0.00152416 -0.00169242 -0.00185489 -0.00201157 -0.00216245 -0.00230755 -0.00244685 -0.00258036 -0.00270234 -0.00280706 -0.00289452 -0.00296471 -0.00301764 -0.00305332 -0.00307173 -0.00307287 -0.00305594 -0.00302009 -0.00296534 -0.00289168 -0.00279912 -0.00268764 -0.00255726 -0.00240798 -0.00224452 -0.00207163 -0.0018893 -0.00169753 -0.00149633 -0.0012857 -0.00106562 -0.000836116 -0.000605742 -0.000383071 -0.000168103 3.91613e-05 0.000238723 0.000430581 0.000614736 0.000791188 0.000953 0.00109324 0.0012119 0.00130899 0.0013845 0.00143844 0.0014708 0.00148159 0.0014708 0.00143844 0.0013845 0.00130899 0.0012119 0.00109324 0.000953 0.000791188 0.000614736 0.000430581 0.000238723 3.91614e-05 -0.000168103 -0.000383071 -0.000605742 -0.000836116 -0.00106562 -0.0012857 -0.00149633 -0.00169753 -0.0018893 -0.00207163 -0.00224452 -0.00240798 -0.00255726 -0.00268764 -0.00279912 -0.00289168 -0.00296534 -0.00302009 -0.00305594 -0.00307287 -0.00307173 -0.00305332 -0.00301765 -0.00296471 -0.00289452 -0.00280706 -0.00270234 -0.00258036 -0.00244685 -0.00230755 -0.00216246 -0.00201157 -0.00185489 -0.00169242 -0.00152416 -0.00135011 -0.0011792 -0.00102037 -0.000873627 -0.000738967 -0.000616389 -0.000505894 -0.000407482 -0.000321152 -0.000245882 -0.000180648 -0.00012545 -8.0288e-05 -4.5162e-05 -2.0072e-05 -5.018e-06 0 0 -6.23294e-06 -2.49318e-05 -5.60965e-05 -9.97271e-05 -0.000155824 -0.000224386 -0.000305414 -0.000398908 -0.000505893 -0.000627394 -0.00076341 -0.000913942 -0.00107899 -0.00125855 -0.00145263 -0.00166123 -0.00187314 -0.00207717 -0.00227332 -0.00246159 -0.00264199 -0.0028145 -0.00297913 -0.00313588 -0.00327758 -0.00339708 -0.00349437 -0.00356944 -0.00362231 -0.00365297 -0.00366142 -0.00364766 -0.00361075 -0.00354977 -0.0034647 -0.00335555 -0.00322233 -0.00306502 -0.00288363 -0.00267816 -0.00245481 -0.00221976 -0.00197303 -0.00171462 -0.00144451 -0.00116272 -0.00086924 -0.000564072 -0.000258307 3.69653e-05 0.000321745 0.000596032 0.000859826 0.00111313 0.00135594 0.00158825 0.00180113 0.00198562 0.00214173 0.00226946 0.0023688 0.00243976 0.00248234 0.00249653 0.00248234 0.00243976 0.0023688 0.00226946 0.00214173 0.00198562 0.00180113 0.00158825 0.00135594 0.00111313 0.000859826 0.000596032 0.000321745 3.69653e-05 -0.000258307 -0.000564072 -0.00086924 -0.00116272 -0.00144451 -0.00171462 -0.00197303 -0.00221976 -0.00245481 -0.00267816 -0.00288363 -0.00306502 -0.00322233 -0.00335555 -0.0034647 -0.00354977 -0.00361075 -0.00364766 -0.00366142 -0.00365297 -0.00362231 -0.00356944 -0.00349437 -0.00339708 -0.00327758 -0.00313588 -0.00297913 -0.0028145 -0.00264199 -0.00246159 -0.00227332 -0.00207717 -0.00187314 -0.00166123 -0.00145263 -0.00125855 -0.00107899 -0.000913943 -0.000763411 -0.000627394 -0.000505894 -0.000398909 -0.000305415 -0.000224386 -0.000155824 -9.97272e-05 -5.60965e-05 -2.49318e-05 -6.23295e-06 0 0 -7.59885e-06 -3.03954e-05 -6.83897e-05 -0.000121582 -0.000189971 -0.000273559 -0.000372344 -0.000486327 -0.000616388 -0.00076341 -0.000927392 -0.00110833 -0.00130624 -0.0015211 -0.00175292 -0.0020017 -0.00225365 -0.00249496 -0.00272565 -0.0029457 -0.00315511 -0.0033539 -0.00354205 -0.00371958 -0.00387767 -0.00400754 -0.00410918 -0.0041826 -0.00422779 -0.00424476 -0.00423351 -0.00419403 -0.00412531 -0.00402634 -0.00389713 -0.00373767 -0.00354796 -0.003328 -0.00307779 -0.00279733 -0.00249465 -0.00217776 -0.00184668 -0.0015014 -0.00114192 -0.000768233 -0.00038035 2.17338e-05 0.00042383 0.000811752 0.0011855 0.00154507 0.00189047 0.0022217 0.00253874 0.00284162 0.00311892 0.00335925 0.0035626 0.00372898 0.00385839 0.00395082 0.00400628 0.00402477 0.00400628 0.00395082 0.00385839 0.00372898 0.0035626 0.00335925 0.00311892 0.00284162 0.00253874 0.0022217 0.00189047 0.00154507 0.0011855 0.000811752 0.00042383 2.17338e-05 -0.00038035 -0.000768233 -0.00114192 -0.0015014 -0.00184668 -0.00217776 -0.00249465 -0.00279733 -0.00307779 -0.003328 -0.00354796 -0.00373767 -0.00389713 -0.00402634 -0.00412531 -0.00419403 -0.00423351 -0.00424476 -0.00422779 -0.0041826 -0.00410918 -0.00400754 -0.00387767 -0.00371958 -0.00354205 -0.0033539 -0.00315512 -0.0029457 -0.00272565 -0.00249497 -0.00225365 -0.0020017 -0.00175292 -0.0015211 -0.00130624 -0.00110833 -0.000927393 -0.000763411 -0.000616389 -0.000486327 -0.000372344 -0.000273559 -0.000189972 -0.000121582 -6.83897e-05 -3.03954e-05 -7.59886e-06 0 0 -9.11573e-06 -3.64629e-05 -8.20415e-05 -0.000145852 -0.000227893 -0.000328166 -0.000446671 -0.000583406 -0.000738966 -0.000913942 -0.00110833 -0.00132214 -0.00155537 -0.00180801 -0.00208006 -0.00237154 -0.00266569 -0.0029458 -0.00321187 -0.00346388 -0.00370184 -0.00392576 -0.00413563 -0.00433145 -0.00450259 -0.00463843 -0.00473896 -0.00480417 -0.00483409 -0.00482869 -0.00478799 -0.00471197 -0.0045996 -0.00444982 -0.00426263 -0.00403802 -0.00377601 -0.00347658 -0.00313974 -0.00276549 -0.00236405 -0.00194563 -0.00151024 -0.00105788 -0.000588544 -0.000102235 0.000401047 0.000921302 0.00144067 0.00194129 0.00242316 0.00288628 0.00333066 0.00375628 0.00416316 0.00455129 0.00490638 0.00521412 0.00547451 0.00568756 0.00585327 0.00597163 0.00604264 0.00606632 0.00604264 0.00597163 0.00585327 0.00568756 0.00547451 0.00521412 0.00490638 0.00455129 0.00416316 0.00375628 0.00333066 0.00288628 0.00242316 0.00194129 0.00144067 0.000921302 0.000401047 -0.000102235 -0.000588544 -0.00105788 -0.00151024 -0.00194563 -0.00236405 -0.00276549 -0.00313974 -0.00347658 -0.00377601 -0.00403802 -0.00426263 -0.00444982 -0.0045996 -0.00471197 -0.00478799 -0.00482869 -0.00483409 -0.00480418 -0.00473896 -0.00463843 -0.00450259 -0.00433145 -0.00413563 -0.00392576 -0.00370184 -0.00346388 -0.00321187 -0.00294581 -0.0026657 -0.00237154 -0.00208007 -0.00180801 -0.00155537 -0.00132214 -0.00110833 -0.000913943 -0.000738967 -0.000583407 -0.000446671 -0.000328166 -0.000227893 -0.000145852 -8.20416e-05 -3.64629e-05 -9.11573e-06 0 0 -1.07836e-05 -4.31342e-05 -9.7052e-05 -0.000172537 -0.000269589 -0.000388208 -0.000528394 -0.000690148 -0.000873627 -0.00107899 -0.00130624 -0.00155537 -0.00182638 -0.00211928 -0.00243406 -0.00277073 -0.00310927 -0.00342969 -0.00373198 -0.00401614 -0.00428217 -0.00453008 -0.00475985 -0.0049715 -0.00515236 -0.00528975 -0.00538369 -0.00543417 -0.00544119 -0.00540475 -0.00532486 -0.0052015 -0.00503363 -0.0048202 -0.00456119 -0.00425662 -0.00390647 -0.00351076 -0.00306948 -0.00258264 -0.002063 -0.00152336 -0.000963712 -0.000384057 0.000215605 0.000835274 0.00147495 0.00213463 0.00279221 0.00342558 0.00403473 0.00461966 0.00518039 0.0057169 0.00622919 0.00671727 0.00716349 0.00755022 0.00787745 0.00814519 0.00835343 0.00850217 0.00859141 0.00862116 0.00859141 0.00850217 0.00835343 0.00814519 0.00787745 0.00755022 0.00716349 0.00671727 0.00622919 0.0057169 0.00518039 0.00461966 0.00403473 0.00342558 0.00279221 0.00213463 0.00147495 0.000835274 0.000215605 -0.000384057 -0.000963712 -0.00152336 -0.002063 -0.00258264 -0.00306948 -0.00351076 -0.00390647 -0.00425662 -0.00456119 -0.0048202 -0.00503363 -0.0052015 -0.00532486 -0.00540476 -0.00544119 -0.00543417 -0.00538369 -0.00528976 -0.00515236 -0.0049715 -0.00475985 -0.00453008 -0.00428217 -0.00401614 -0.00373198 -0.00342969 -0.00310927 -0.00277073 -0.00243406 -0.00211928 -0.00182638 -0.00155537 -0.00130624 -0.00107899 -0.000873627 -0.000690148 -0.000528395 -0.000388208 -0.000269589 -0.000172537 -9.70521e-05 -4.31343e-05 -1.07836e-05 0 0 -1.26024e-05 -5.04094e-05 -0.000113421 -0.000201638 -0.000315059 -0.000453685 -0.000617515 -0.000806551 -0.00102037 -0.00125855 -0.0015211 -0.00180801 -0.00211928 -0.00245492 -0.00281491 -0.00319928 -0.00358438 -0.00394662 -0.00428598 -0.00460248 -0.0048961 -0.00516685 -0.00541473 -0.00563973 -0.00582696 -0.00596152 -0.00604339 -0.00607259 -0.00604911 -0.00597296 -0.00584412 -0.00566261 -0.0054274 -0.00513747 -0.00479282 -0.00439345 -0.00393936 -0.00343055 -0.00286702 -0.00224878 -0.00159152 -0.000910956 -0.000207095 0.000520067 0.00127053 0.00204429 0.00284136 0.00366173 0.00447846 0.00526462 0.0060202 0.00674522 0.00743966 0.00810353 0.00873683 0.00933955 0.00989028 0.0103676 0.0107714 0.0111019 0.0113589 0.0115425 0.0116526 0.0116893 0.0116526 0.0115425 0.0113589 0.0111019 0.0107714 0.0103676 0.00989028 0.00933955 0.00873683 0.00810353 0.00743966 0.00674522 0.0060202 0.00526462 0.00447846 0.00366173 0.00284136 0.00204429 0.00127053 0.000520067 -0.000207095 -0.000910956 -0.00159152 -0.00224878 -0.00286702 -0.00343055 -0.00393936 -0.00439345 -0.00479282 -0.00513747 -0.0054274 -0.00566261 -0.00584412 -0.00597296 -0.00604911 -0.00607259 -0.00604339 -0.00596152 -0.00582696 -0.00563973 -0.00541473 -0.00516685 -0.0048961 -0.00460248 -0.00428599 -0.00394662 -0.00358439 -0.00319928 -0.00281492 -0.00245492 -0.00211928 -0.00180801 -0.0015211 -0.00125855 -0.00102037 -0.000806551 -0.000617516 -0.000453685 -0.000315059 -0.000201638 -0.000113421 -5.04095e-05 -1.26024e-05 0 0 -1.45721e-05 -5.82885e-05 -0.000131149 -0.000233154 -0.000364303 -0.000524596 -0.000714034 -0.000932615 -0.0011792 -0.00145263 -0.00175292 -0.00208006 -0.00243406 -0.00281491 -0.00322262 -0.00365718 -0.00409103 -0.0044966 -0.00487389 -0.0052229 -0.00554363 -0.00583608 -0.00610025 -0.00633614 -0.00652641 -0.00665371 -0.00671806 -0.00671943 -0.00665785 -0.00653329 -0.00634578 -0.0060953 -0.00578091 -0.00540164 -0.00495752 -0.00444853 -0.00387467 -0.00323595 -0.00253236 -0.0017639 -0.000949587 -0.000108416 0.000759611 0.00165449 0.00257623 0.00352483 0.00450028 0.00550258 0.0064994 0.0074584 0.00837958 0.00926294 0.0101085 0.0109162 0.0116861 0.0124181 0.0130867 0.0136662 0.0141565 0.0145576 0.0148696 0.0150925 0.0152262 0.0152708 0.0152262 0.0150925 0.0148696 0.0145576 0.0141565 0.0136662 0.0130867 0.0124181 0.0116861 0.0109162 0.0101085 0.00926294 0.00837958 0.0074584 0.0064994 0.00550258 0.00450028 0.00352483 0.00257623 0.00165449 0.000759611 -0.000108416 -0.000949588 -0.0017639 -0.00253236 -0.00323595 -0.00387467 -0.00444853 -0.00495752 -0.00540165 -0.00578091 -0.0060953 -0.00634578 -0.0065333 -0.00665785 -0.00671943 -0.00671806 -0.00665372 -0.00652641 -0.00633614 -0.00610025 -0.00583608 -0.00554363 -0.0052229 -0.00487389 -0.0044966 -0.00409103 -0.00365718 -0.00322262 -0.00281492 -0.00243406 -0.00208007 -0.00175292 -0.00145263 -0.0011792 -0.000932616 -0.000714034 -0.000524597 -0.000364303 -0.000233154 -0.000131149 -5.82885e-05 -1.45721e-05 0 0 -1.66928e-05 -6.67714e-05 -0.000150236 -0.000267085 -0.000417321 -0.000600942 -0.000817949 -0.00106834 -0.00135011 -0.00166123 -0.0020017 -0.00237154 -0.00277073 -0.00319928 -0.00365718 -0.00414444 -0.00462921 -0.00507962 -0.00549568 -0.00587739 -0.00622475 -0.00653776 -0.00681642 -0.00706072 -0.00725069 -0.00736635 -0.00740768 -0.0073747 -0.00726739 -0.00708577 -0.00682983 -0.00649957 -0.00609415 -0.00561272 -0.00505528 -0.00442184 -0.0037124 -0.00292694 -0.00206548 -0.00112802 -0.000137216 0.000884259 0.00193641 0.00301922 0.00413271 0.00527687 0.0064517 0.0076572 0.00885505 0.0100069 0.0111129 0.0121728 0.0131868 0.0141549 0.0150769 0.015953 0.0167528 0.017446 0.0180325 0.0185124 0.0188856 0.0191522 0.0193122 0.0193655 0.0193122 0.0191522 0.0188856 0.0185124 0.0180325 0.017446 0.0167528 0.015953 0.0150769 0.0141549 0.0131868 0.0121728 0.0111129 0.0100069 0.00885505 0.0076572 0.0064517 0.00527687 0.00413271 0.00301922 0.0019364 0.000884259 -0.000137216 -0.00112802 -0.00206549 -0.00292694 -0.0037124 -0.00442184 -0.00505528 -0.00561272 -0.00609415 -0.00649957 -0.00682983 -0.00708577 -0.00726739 -0.0073747 -0.00740768 -0.00736635 -0.0072507 -0.00706072 -0.00681642 -0.00653776 -0.00622475 -0.00587739 -0.00549568 -0.00507962 -0.00462921 -0.00414444 -0.00365718 -0.00319928 -0.00277073 -0.00237154 -0.0020017 -0.00166123 -0.00135011 -0.00106834 -0.00081795 -0.000600943 -0.000417321 -0.000267086 -0.000150236 -6.67714e-05 -1.66928e-05 0 0 -1.88549e-05 -7.54197e-05 -0.000169694 -0.000301679 -0.000471373 -0.000678777 -0.000923891 -0.00120671 -0.00152416 -0.00187314 -0.00225365 -0.00266569 -0.00310927 -0.00358438 -0.00409103 -0.00462921 -0.00516246 -0.00565433 -0.00610481 -0.00651391 -0.00688163 -0.00720796 -0.00749291 -0.00773647 -0.00791583 -0.00800819 -0.00801353 -0.00793185 -0.00776316 -0.00750746 -0.00716475 -0.00673503 -0.00621765 -0.005612 -0.00491805 -0.00413583 -0.00326532 -0.00230653 -0.00125945 -0.000124093 0.00107271 0.00230412 0.00357013 0.00487074 0.00620596 0.00757578 0.00898021 0.0104192 0.0118478 0.013221 0.0145386 0.0158008 0.0170076 0.0181588 0.0192546 0.020295 0.0212443 0.022067 0.0227632 0.0233328 0.0237758 0.0240922 0.0242821 0.0243454 0.0242821 0.0240922 0.0237758 0.0233328 0.0227632 0.022067 0.0212443 0.020295 0.0192546 0.0181588 0.0170076 0.0158008 0.0145386 0.013221 0.0118478 0.0104192 0.00898021 0.00757578 0.00620596 0.00487074 0.00357013 0.00230412 0.00107271 -0.000124093 -0.00125945 -0.00230653 -0.00326532 -0.00413583 -0.00491805 -0.005612 -0.00621765 -0.00673503 -0.00716475 -0.00750747 -0.00776317 -0.00793185 -0.00801353 -0.00800819 -0.00791584 -0.00773647 -0.00749291 -0.00720796 -0.00688163 -0.00651391 -0.00610481 -0.00565433 -0.00516246 -0.00462921 -0.00409103 -0.00358439 -0.00310927 -0.0026657 -0.00225365 -0.00187314 -0.00152416 -0.00120672 -0.000923891 -0.000678777 -0.000471373 -0.000301679 -0.000169694 -7.54197e-05 -1.88549e-05 0 0 -2.09487e-05 -8.37949e-05 -0.000188539 -0.00033518 -0.000523718 -0.000754155 -0.00102649 -0.00134072 -0.00169242 -0.00207717 -0.00249496 -0.0029458 -0.00342969 -0.00394662 -0.0044966 -0.00507962 -0.00565433 -0.00617936 -0.00665471 -0.0070804 -0.0074564 -0.00778273 -0.00805938 -0.00828636 -0.00843784 -0.008488 -0.00843685 -0.00828437 -0.00803058 -0.00767546 -0.00721903 -0.00666128 -0.00600195 -0.00524078 -0.00437777 -0.00341291 -0.00234622 -0.00117768 9.2694e-05 0.00146491 0.0029073 0.00438821 0.00590762 0.00746555 0.00906198 0.0106969 0.0123704 0.0140823 0.0157802 0.0174112 0.0189754 0.0204729 0.0219035 0.0232674 0.0245645 0.0257947 0.0269168 0.0278893 0.0287121 0.0293854 0.029909 0.030283 0.0305074 0.0305822 0.0305074 0.030283 0.029909 0.0293854 0.0287121 0.0278893 0.0269168 0.0257947 0.0245645 0.0232674 0.0219035 0.0204729 0.0189754 0.0174112 0.0157802 0.0140823 0.0123704 0.0106969 0.00906198 0.00746555 0.00590762 0.00438821 0.0029073 0.00146491 9.26935e-05 -0.00117768 -0.00234622 -0.00341291 -0.00437777 -0.00524078 -0.00600195 -0.00666128 -0.00721903 -0.00767547 -0.00803058 -0.00828437 -0.00843685 -0.00848801 -0.00843784 -0.00828636 -0.00805939 -0.00778273 -0.0074564 -0.0070804 -0.00665472 -0.00617936 -0.00565433 -0.00507962 -0.0044966 -0.00394662 -0.00342969 -0.00294581 -0.00249497 -0.00207717 -0.00169242 -0.00134072 -0.00102649 -0.000754155 -0.000523719 -0.00033518 -0.000188539 -8.3795e-05 -2.09488e-05 0 0 -2.29743e-05 -9.18972e-05 -0.000206769 -0.000367589 -0.000574358 -0.000827075 -0.00112574 -0.00147036 -0.00185489 -0.00227332 -0.00272565 -0.00321186 -0.00373198 -0.00428598 -0.00487389 -0.00549568 -0.00610481 -0.00665471 -0.00714539 -0.00757685 -0.00794907 -0.00826207 -0.00851585 -0.0087104 -0.00881672 -0.0088058 -0.00867765 -0.00843226 -0.00806963 -0.00758977 -0.00699267 -0.00627833 -0.00544704 -0.00449907 -0.00343442 -0.00225309 -0.000955088 0.000459594 0.00199095 0.00363899 0.00536656 0.00713653 0.00894888 0.0108036 0.0127008 0.0146403 0.0166222 0.0186465 0.0206521 0.0225777 0.0244233 0.026189 0.0278747 0.0294805 0.0310064 0.0324523 0.0337704 0.0349127 0.0358793 0.0366701 0.0372852 0.0377245 0.0379882 0.038076 0.0379882 0.0377245 0.0372852 0.0366701 0.0358793 0.0349127 0.0337704 0.0324523 0.0310064 0.0294805 0.0278747 0.026189 0.0244233 0.0225777 0.0206521 0.0186465 0.0166222 0.0146403 0.0127008 0.0108036 0.00894888 0.00713653 0.00536656 0.00363899 0.00199095 0.000459593 -0.000955089 -0.00225309 -0.00343442 -0.00449907 -0.00544704 -0.00627833 -0.00699267 -0.00758977 -0.00806963 -0.00843226 -0.00867765 -0.0088058 -0.00881672 -0.0087104 -0.00851585 -0.00826208 -0.00794907 -0.00757685 -0.00714539 -0.00665472 -0.00610481 -0.00549568 -0.00487389 -0.00428599 -0.00373198 -0.00321187 -0.00272565 -0.00227332 -0.00185489 -0.00147036 -0.00112574 -0.000827076 -0.000574358 -0.000367589 -0.000206769 -9.18973e-05 -2.29743e-05 0 0 -2.49316e-05 -9.97265e-05 -0.000224385 -0.000398906 -0.000623291 -0.000897538 -0.00122165 -0.00159562 -0.00201157 -0.00246159 -0.0029457 -0.00346388 -0.00401614 -0.00460248 -0.00522289 -0.00587739 -0.00651391 -0.00708039 -0.00757685 -0.00800326 -0.00835964 -0.00864599 -0.00886231 -0.00900858 -0.00905246 -0.00896158 -0.00873593 -0.00837551 -0.00788033 -0.0072503