<?xml version="1.0"?> 
<VTKFile type="StructuredGrid" version="0.1"> 
<StructuredGrid WholeExtent="0 128 0 128 0 0"> 
<Piece Extent="0 128 0 128 0 0"> 
<PointData>
<DataArray type="Float32" Name="u" format="ascii" NumberOfComponents="1"> 
0 0 0 0 0 0 0 0 0 0 0 0 0 0 0 0 0 0 0 0 0 0 0 0 0 0 0 0 0 0 0 0 0 0 0 0 0 0 0 0 0 0 0 0 0 0 0 0 0 0 0 0 0 0 0 0 0 0 0 0 0 0 0 0 0 0 0 0 0 0 0 0 0 0 0 0 0 0 0 0 0 0 0 0 0 0 0 0 0 0 0 0 0 0 0 0 0 0 0 0 0 0 0 0 0 0 0 0 0 0 0 0 0 0 0 0 0 0 0 0 0 0 0 0 0 0 0 0 0 0 -6.23072e-08 -2.49229e-07 -5.60764e-07 -9.96915e-07 -1.55768e-06 -2.24306e-06 -3.05305e-06 -3.98766e-06 -5.0618e-06 -6.29041e-06 -7.67347e-06 -9.21099e-06 -1.0903e-05 -1.27494e-05 -1.47503e-05 -1.69057e-05 -1.91058e-05 -2.12412e-05 -2.33117e-05 -2.53173e-05 -2.72582e-05 -2.91342e-05 -3.09453e-05 -3.26917e-05 -3.43027e-05 -3.57078e-05 -3.6907e-05 -3.79004e-05 -3.86879e-05 -3.92696e-05 -3.96454e-05 -3.98153e-05 -3.97686e-05 -3.94945e-05 -3.8993e-05 -3.82641e-05 -3.73078e-05 -3.61242e-05 -3.47131e-05 -3.30747e-05 -3.12644e-05 -2.93378e-05 -2.72948e-05 -2.51356e-05 -2.28601e-05 -2.04682e-05 -1.796e-05 -1.53356e-05 -1.26958e-05 -1.01419e-05 -7.67381e-06 -5.2915e-06 -2.995e-06 -7.84312e-07 1.34057e-06 3.37965e-06 5.25107e-06 6.87296e-06 8.24533e-06 9.36818e-06 1.02415e-05 1.08653e-05 1.12396e-05 1.13644e-05 1.12396e-05 1.08653e-05 1.02415e-05 9.36818e-06 8.24533e-06 6.87296e-06 5.25107e-06 3.37965e-06 1.34057e-06 -7.84312e-07 -2.995e-06 -5.2915e-06 -7.67381e-06 -1.01419e-05 -1.26958e-05 -1.53356e-05 -1.796e-05 -2.04682e-05 -2.28601e-05 -2.51356e-05 -2.72948e-05 -2.93378e-05 -3.12644e-05 -3.30747e-05 -3.47131e-05 -3.61242e-05 -3.73078e-05 -3.82641e-05 -3.8993e-05 -3.94945e-05 -3.97686e-05 -3.98153e-05 -3.96454e-05 -3.92696e-05 -3.86879e-05 -3.79004e-05 -3.6907e-05 -3.57078e-05 -3.43027e-05 -3.26917e-05 -3.09453e-05 -2.91342e-05 -2.72582e-05 -2.53173e-05 -2.33117e-05 -2.12412e-05 -1.91058e-05 -1.69057e-05 -1.47503e-05 -1.27494e-05 -1.0903e-05 -9.21099e-06 -7.67347e-06 -6.29041e-06 -5.06181e-06 -3.98766e-06 -3.05305e-06 -2.24306e-06 -1.55768e-06 -9.96916e-07 -5.60765e-07 -2.49229e-07 -6.23072e-08 0 0 -2.49229e-07 -9.96915e-07 -2.24306e-06 -3.98766e-06 -6.23072e-06 -8.97223e-06 -1.22122e-05 -1.59506e-05 -2.02472e-05 -2.51616e-05 -3.06939e-05 -3.68439e-05 -4.36119e-05 -5.09976e-05 -5.90012e-05 -6.76226e-05 -7.64233e-05 -8.49646e-05 -9.32466e-05 -0.000101269 -0.000109033 -0.000116537 -0.000123781 -0.000130767 -0.000137211 -0.000142831 -0.000147628 -0.000151602 -0.000154752 -0.000157078 -0.000158582 -0.000159261 -0.000159074 -0.000157978 -0.000155972 -0.000153056 -0.000149231 -0.000144497 -0.000138852 -0.000132299 -0.000125057 -0.000117351 -0.000109179 -0.000100542 -9.14402e-05 -8.18728e-05 -7.18401e-05 -6.13422e-05 -5.07833e-05 -4.05677e-05 -3.06952e-05 -2.1166e-05 -1.198e-05 -3.13725e-06 5.36229e-06 1.35186e-05 2.10043e-05 2.74918e-05 3.29813e-05 3.74727e-05 4.0966e-05 4.34612e-05 4.49584e-05 4.54574e-05 4.49584e-05 4.34612e-05 4.0966e-05 3.74727e-05 3.29813e-05 2.74918e-05 2.10043e-05 1.35186e-05 5.36229e-06 -3.13725e-06 -1.198e-05 -2.1166e-05 -3.06952e-05 -4.05677e-05 -5.07833e-05 -6.13422e-05 -7.18401e-05 -8.18728e-05 -9.14402e-05 -0.000100542 -0.000109179 -0.000117351 -0.000125057 -0.000132299 -0.000138852 -0.000144497 -0.000149231 -0.000153056 -0.000155972 -0.000157978 -0.000159074 -0.000159261 -0.000158582 -0.000157078 -0.000154752 -0.000151602 -0.000147628 -0.000142831 -0.000137211 -0.000130767 -0.000123781 -0.000116537 -0.000109033 -0.000101269 -9.32467e-05 -8.49647e-05 -7.64233e-05 -6.76227e-05 -5.90012e-05 -5.09976e-05 -4.36119e-05 -3.6844e-05 -3.06939e-05 -2.51616e-05 -2.02472e-05 -1.59506e-05 -1.22122e-05 -8.97224e-06 -6.23072e-06 -3.98766e-06 -2.24306e-06 -9.96916e-07 -2.49229e-07 0 0 -5.60764e-07 -2.24306e-06 -5.04688e-06 -8.97223e-06 -1.40191e-05 -2.01875e-05 -2.74775e-05 -3.58889e-05 -4.55562e-05 -5.66136e-05 -6.90612e-05 -8.28989e-05 -9.81267e-05 -0.000114745 -0.000132753 -0.000152151 -0.000171952 -0.00019117 -0.000209805 -0.000227856 -0.000245323 -0.000262207 -0.000278508 -0.000294225 -0.000308724 -0.00032137 -0.000332163 -0.000341104 -0.000348191 -0.000353426 -0.000356808 -0.000358338 -0.000357917 -0.00035545 -0.000350937 -0.000344377 -0.000335771 -0.000325118 -0.000312418 -0.000297672 -0.000281379 -0.00026404 -0.000245653 -0.00022622 -0.00020574 -0.000184214 -0.00016164 -0.00013802 -0.000114263 -9.12773e-05 -6.90643e-05 -4.76235e-05 -2.6955e-05 -7.05881e-06 1.20652e-05 3.04169e-05 4.72596e-05 6.18566e-05 7.42079e-05 8.43136e-05 9.21735e-05 9.77878e-05 0.000101156 0.000102279 0.000101156 9.77878e-05 9.21735e-05 8.43136e-05 7.4208e-05 6.18566e-05 4.72596e-05 3.04169e-05 1.20652e-05 -7.0588e-06 -2.6955e-05 -4.76235e-05 -6.90643e-05 -9.12773e-05 -0.000114263 -0.00013802 -0.00016164 -0.000184214 -0.00020574 -0.00022622 -0.000245653 -0.00026404 -0.000281379 -0.000297672 -0.000312418 -0.000325118 -0.000335771 -0.000344377 -0.000350937 -0.00035545 -0.000357917 -0.000358338 -0.000356808 -0.000353426 -0.000348191 -0.000341104 -0.000332163 -0.00032137 -0.000308724 -0.000294225 -0.000278508 -0.000262208 -0.000245324 -0.000227856 -0.000209805 -0.00019117 -0.000171952 -0.000152151 -0.000132753 -0.000114745 -9.81268e-05 -8.28989e-05 -6.90613e-05 -5.66137e-05 -4.55563e-05 -3.5889e-05 -2.74775e-05 -2.01875e-05 -1.40191e-05 -8.97224e-06 -5.04688e-06 -2.24306e-06 -5.60765e-07 0 0 -9.96915e-07 -3.98766e-06 -8.97223e-06 -1.59506e-05 -2.49229e-05 -3.58889e-05 -4.88488e-05 -6.38025e-05 -8.09888e-05 -0.000100646 -0.000122775 -0.000147376 -0.000174447 -0.00020399 -0.000236005 -0.00027049 -0.000305693 -0.000339859 -0.000372987 -0.000405077 -0.000436131 -0.000466147 -0.000495125 -0.000523067 -0.000548842 -0.000571324 -0.000590512 -0.000606407 -0.000619007 -0.000628313 -0.000634326 -0.000637045 -0.000636298 -0.000631912 -0.000623888 -0.000612226 -0.000596926 -0.000577987 -0.00055541 -0.000529195 -0.00050023 -0.000469404 -0.000436717 -0.00040217 -0.000365761 -0.000327491 -0.000287361 -0.000245369 -0.000203133 -0.000162271 -0.000122781 -8.4664e-05 -4.79201e-05 -1.2549e-05 2.14492e-05 5.40744e-05 8.4017e-05 0.000109967 0.000131925 0.000149891 0.000163864 0.000173845 0.000179833 0.00018183 0.000179833 0.000173845 0.000163864 0.000149891 0.000131925 0.000109967 8.40171e-05 5.40744e-05 2.14492e-05 -1.2549e-05 -4.792e-05 -8.4664e-05 -0.000122781 -0.000162271 -0.000203133 -0.000245369 -0.000287361 -0.000327491 -0.000365761 -0.00040217 -0.000436717 -0.000469404 -0.00050023 -0.000529195 -0.00055541 -0.000577987 -0.000596926 -0.000612226 -0.000623888 -0.000631912 -0.000636298 -0.000637045 -0.000634326 -0.000628314 -0.000619007 -0.000606407 -0.000590513 -0.000571324 -0.000548843 -0.000523067 -0.000495125 -0.000466147 -0.000436131 -0.000405077 -0.000372987 -0.000339859 -0.000305693 -0.000270491 -0.000236005 -0.000203991 -0.000174448 -0.000147376 -0.000122776 -0.000100647 -8.09889e-05 -6.38026e-05 -4.88489e-05 -3.5889e-05 -2.49229e-05 -1.59506e-05 -8.97224e-06 -3.98766e-06 -9.96916e-07 0 0 -1.55768e-06 -6.23072e-06 -1.40191e-05 -2.49229e-05 -3.8942e-05 -5.60764e-05 -7.63263e-05 -9.96915e-05 -0.000126545 -0.00015726 -0.000191837 -0.000230275 -0.000272574 -0.000318735 -0.000368757 -0.000422641 -0.000477646 -0.000531029 -0.000582791 -0.000632933 -0.000681454 -0.000728354 -0.000773633 -0.000817292 -0.000857566 -0.000892694 -0.000922676 -0.00094751 -0.000967198 -0.00098174 -0.000991134 -0.000995383 -0.000994215 -0.000987362 -0.000974825 -0.000956603 -0.000932696 -0.000903104 -0.000867828 -0.000826867 -0.000781609 -0.000733444 -0.000682371 -0.00062839 -0.000571501 -0.000511705 -0.000449001 -0.000383389 -0.000317396 -0.000253548 -0.000191845 -0.000132288 -7.48751e-05 -1.96078e-05 3.35143e-05 8.44913e-05 0.000131277 0.000171824 0.000206133 0.000234204 0.000256038 0.000271633 0.00028099 0.000284109 0.00028099 0.000271633 0.000256038 0.000234204 0.000206133 0.000171824 0.000131277 8.44913e-05 3.35143e-05 -1.96078e-05 -7.48751e-05 -0.000132288 -0.000191845 -0.000253548 -0.000317396 -0.000383389 -0.000449001 -0.000511705 -0.000571501 -0.00062839 -0.000682371 -0.000733444 -0.000781609 -0.000826867 -0.000867828 -0.000903105 -0.000932696 -0.000956603 -0.000974825 -0.000987362 -0.000994215 -0.000995383 -0.000991135 -0.00098174 -0.000967198 -0.00094751 -0.000922676 -0.000892694 -0.000857567 -0.000817292 -0.000773633 -0.000728354 -0.000681454 -0.000632933 -0.000582792 -0.000531029 -0.000477646 -0.000422642 -0.000368758 -0.000318735 -0.000272574 -0.000230275 -0.000191837 -0.00015726 -0.000126545 -9.96916e-05 -7.63263e-05 -5.60765e-05 -3.8942e-05 -2.49229e-05 -1.40191e-05 -6.23072e-06 -1.55768e-06 0 0 -2.24306e-06 -8.97223e-06 -2.01875e-05 -3.58889e-05 -5.60764e-05 -8.07501e-05 -0.00010991 -0.000143556 -0.000182225 -0.000226455 -0.000276245 -0.000331596 -0.000392507 -0.000458979 -0.000531011 -0.000608604 -0.00068781 -0.000764682 -0.00083922 -0.000911424 -0.000981294 -0.00104883 -0.00111403 -0.0011769 -0.0012349 -0.00128548 -0.00132865 -0.00136441 -0.00139277 -0.00141371 -0.00142723 -0.00143335 -0.00143167 -0.0014218 -0.00140375 -0.00137751 -0.00134308 -0.00130047 -0.00124967 -0.00119069 -0.00112552 -0.00105616 -0.000982614 -0.000904881 -0.000822962 -0.000736855 -0.000646561 -0.00055208 -0.00045705 -0.000365109 -0.000276257 -0.000190494 -0.00010782 -2.82352e-05 4.82606e-05 0.000121667 0.000189038 0.000247426 0.000296832 0.000337254 0.000368694 0.000391151 0.000404625 0.000409117 0.000404625 0.000391151 0.000368694 0.000337254 0.000296832 0.000247426 0.000189038 0.000121667 4.82606e-05 -2.82352e-05 -0.00010782 -0.000190494 -0.000276257 -0.000365109 -0.00045705 -0.00055208 -0.000646561 -0.000736855 -0.000822962 -0.000904881 -0.000982614 -0.00105616 -0.00112552 -0.00119069 -0.00124967 -0.00130047 -0.00134308 -0.00137751 -0.00140375 -0.0014218 -0.00143167 -0.00143335 -0.00142723 -0.00141371 -0.00139277 -0.00136442 -0.00132865 -0.00128548 -0.0012349 -0.0011769 -0.00111403 -0.00104883 -0.000981294 -0.000911424 -0.00083922 -0.000764682 -0.00068781 -0.000608604 -0.000531011 -0.000458979 -0.000392507 -0.000331596 -0.000276245 -0.000226455 -0.000182225 -0.000143556 -0.00010991 -8.07502e-05 -5.60765e-05 -3.5889e-05 -2.01875e-05 -8.97224e-06 -2.24306e-06 0 0 -3.05305e-06 -1.22122e-05 -2.74775e-05 -4.88488e-05 -7.63263e-05 -0.00010991 -0.0001496 -0.000195395 -0.000248028 -0.00030823 -0.000376 -0.000451338 -0.000534245 -0.000624721 -0.000722765 -0.000828377 -0.000936185 -0.00104082 -0.00114227 -0.00124055 -0.00133565 -0.00142757 -0.00151632 -0.00160189 -0.00168083 -0.00174968 -0.00180844 -0.00185712 -0.00189571 -0.00192421 -0.00194262 -0.00195095 -0.00194866 -0.00193523 -0.00191066 -0.00187494 -0.00182808 -0.00177008 -0.00170094 -0.00162066 -0.00153195 -0.00143755 -0.00133745 -0.00123164 -0.00112014 -0.00100294 -0.000880042 -0.000751443 -0.000622096 -0.000496954 -0.000376017 -0.000259284 -0.000146755 -3.84313e-05 6.56881e-05 0.000165603 0.000257302 0.000336775 0.000404021 0.000459041 0.000501834 0.0005324 0.00055074 0.000556853 0.00055074 0.0005324 0.000501834 0.000459041 0.000404021 0.000336775 0.000257302 0.000165603 6.56881e-05 -3.84313e-05 -0.000146755 -0.000259284 -0.000376017 -0.000496954 -0.000622096 -0.000751442 -0.000880042 -0.00100294 -0.00112014 -0.00123164 -0.00133745 -0.00143755 -0.00153195 -0.00162066 -0.00170094 -0.00177008 -0.00182808 -0.00187494 -0.00191066 -0.00193523 -0.00194866 -0.00195095 -0.00194262 -0.00192421 -0.00189571 -0.00185712 -0.00180844 -0.00174968 -0.00168083 -0.00160189 -0.00151632 -0.00142757 -0.00133565 -0.00124055 -0.00114227 -0.00104082 -0.000936186 -0.000828377 -0.000722765 -0.000624721 -0.000534246 -0.000451339 -0.000376 -0.00030823 -0.000248029 -0.000195395 -0.0001496 -0.00010991 -7.63263e-05 -4.88489e-05 -2.74775e-05 -1.22122e-05 -3.05305e-06 0 0 -3.98766e-06 -1.59506e-05 -3.58889e-05 -6.38025e-05 -9.96915e-05 -0.000143556 -0.000195395 -0.00025521 -0.000323955 -0.000402586 -0.000491102 -0.000589503 -0.00069779 -0.000815962 -0.000944019 -0.00108196 -0.00122277 -0.00135943 -0.00149195 -0.00162031 -0.00174452 -0.00186459 -0.0019805 -0.00209227 -0.00219537 -0.0022853 -0.00236205 -0.00242563 -0.00247603 -0.00251325 -0.0025373 -0.00254818 -0.00254519 -0.00252765 -0.00249555 -0.0024489 -0.0023877 -0.00231195 -0.00222164 -0.00211678 -0.00200092 -0.00187762 -0.00174687 -0.00160868 -0.00146304 -0.00130996 -0.00114944 -0.000981476 -0.000812534 -0.000649083 -0.000491124 -0.000338656 -0.00019168 -5.0196e-05 8.57966e-05 0.000216298 0.000336068 0.000439869 0.000527701 0.000599563 0.000655456 0.00069538 0.000719334 0.000727318 0.000719334 0.00069538 0.000655456 0.000599563 0.000527701 0.000439869 0.000336068 0.000216298 8.57967e-05 -5.01959e-05 -0.00019168 -0.000338656 -0.000491124 -0.000649083 -0.000812534 -0.000981476 -0.00114944 -0.00130996 -0.00146304 -0.00160868 -0.00174687 -0.00187762 -0.00200092 -0.00211678 -0.00222164 -0.00231195 -0.0023877 -0.0024489 -0.00249555 -0.00252765 -0.00254519 -0.00254818 -0.0025373 -0.00251325 -0.00247603 -0.00242563 -0.00236205 -0.0022853 -0.00219537 -0.00209227 -0.0019805 -0.00186459 -0.00174452 -0.00162031 -0.00149195 -0.00135943 -0.00122277 -0.00108196 -0.00094402 -0.000815962 -0.00069779 -0.000589504 -0.000491102 -0.000402586 -0.000323956 -0.00025521 -0.000195395 -0.000143556 -9.96916e-05 -6.38026e-05 -3.5889e-05 -1.59506e-05 -3.98766e-06 0 0 -5.0618e-06 -2.02472e-05 -4.55562e-05 -8.09888e-05 -0.000126545 -0.000182225 -0.000248028 -0.000323955 -0.000411127 -0.000510665 -0.000622569 -0.000746838 -0.000883474 -0.00103248 -0.00119384 -0.00136758 -0.00154473 -0.00171637 -0.00188249 -0.00204308 -0.00219816 -0.00234772 -0.00249176 -0.00263028 -0.00275753 -0.00286778 -0.00296103 -0.00303726 -0.00309649 -0.00313872 -0.00316394 -0.00317215 -0.00316251 -0.00313418 -0.00308716 -0.00302145 -0.00293705 -0.00283396 -0.00271218 -0.0025717 -0.00241717 -0.00225319 -0.00207978 -0.00189694 -0.00170466 -0.00150295 -0.00129179 -0.00107121 -0.000849558 -0.000635219 -0.000428191 -0.000228474 -3.6068e-05 0.000149027 0.000326812 0.000497286 0.000653678 0.000789218 0.000903906 0.000997741 0.00107072 0.00112285 0.00115413 0.00116456 0.00115413 0.00112285 0.00107072 0.000997741 0.000903906 0.000789218 0.000653678 0.000497286 0.000326812 0.000149027 -3.60679e-05 -0.000228474 -0.000428191 -0.000635219 -0.000849557 -0.00107121 -0.00129179 -0.00150295 -0.00170466 -0.00189694 -0.00207978 -0.00225319 -0.00241717 -0.0025717 -0.00271218 -0.00283396 -0.00293705 -0.00302145 -0.00308716 -0.00313418 -0.00316251 -0.00317215 -0.00316394 -0.00313872 -0.00309649 -0.00303726 -0.00296103 -0.00286778 -0.00275753 -0.00263028 -0.00249176 -0.00234772 -0.00219816 -0.00204309 -0.00188249 -0.00171637 -0.00154473 -0.00136758 -0.00119384 -0.00103248 -0.000883475 -0.000746839 -0.000622569 -0.000510665 -0.000411128 -0.000323956 -0.000248029 -0.000182225 -0.000126545 -8.09889e-05 -4.55563e-05 -2.02472e-05 -5.06181e-06 0 0 -6.29041e-06 -2.51616e-05 -5.66136e-05 -0.000100646 -0.00015726 -0.000226455 -0.00030823 -0.000402586 -0.000510665 -0.000633609 -0.000771418 -0.000924092 -0.00109163 -0.00127404 -0.00147131 -0.00168344 -0.00189923 -0.00210746 -0.00230814 -0.00250126 -0.00268682 -0.00286483 -0.00303528 -0.00319818 -0.00334634 -0.00347259 -0.00357693 -0.00365936 -0.00371987 -0.00375848 -0.00377518 -0.00376996 -0.00374187 -0.00368996 -0.00361422 -0.00351465 -0.00339125 -0.00324402 -0.00307297 -0.00287809 -0.00266545 -0.00244112 -0.0022051 -0.00195739 -0.00169799 -0.0014269 -0.00114413 -0.000849662 -0.000554363 -0.000269086 6.16817e-06 0.0002714 0.000526609 0.000771796 0.00100696 0.0012321 0.00143847 0.00161733 0.00176867 0.00189249 0.0019888 0.00205759 0.00209887 0.00211262 0.00209887 0.00205759 0.0019888 0.00189249 0.00176867 0.00161733 0.00143847 0.0012321 0.00100696 0.000771796 0.000526609 0.0002714 6.16826e-06 -0.000269086 -0.000554363 -0.000849662 -0.00114413 -0.0014269 -0.00169799 -0.00195739 -0.0022051 -0.00244112 -0.00266545 -0.00287809 -0.00307297 -0.00324402 -0.00339125 -0.00351465 -0.00361422 -0.00368996 -0.00374187 -0.00376996 -0.00377518 -0.00375848 -0.00371987 -0.00365936 -0.00357693 -0.00347259 -0.00334634 -0.00319818 -0.00303528 -0.00286483 -0.00268682 -0.00250126 -0.00230814 -0.00210746 -0.00189923 -0.00168344 -0.00147131 -0.00127404 -0.00109163 -0.000924093 -0.000771419 -0.000633609 -0.000510665 -0.000402586 -0.00030823 -0.000226455 -0.00015726 -0.000100647 -5.66137e-05 -2.51616e-05 -6.29041e-06 0 0 -7.67347e-06 -3.06939e-05 -6.90612e-05 -0.000122775 -0.000191837 -0.000276245 -0.000376 -0.000491102 -0.000622569 -0.000771418 -0.00093765 -0.00112126 -0.00132226 -0.00154064 -0.00177641 -0.00202955 -0.00228626 -0.00253271 -0.0027689 -0.00299483 -0.0032105 -0.00341591 -0.00361107 -0.00379596 -0.00396178 -0.00409972 -0.00420976 -0.00429191 -0.00434617 -0.00437254 -0.00437103 -0.00434162 -0.00428328 -0.00419498 -0.00407672 -0.00392849 -0.0037503 -0.00354214 -0.00330402 -0.00303593 -0.00274576 -0.00244139 -0.00212281 -0.00179002 -0.00144303 -0.00108184 -0.000706443 -0.00031684 7.30512e-05 0.000449316 0.000811954 0.00116097 0.00149635 0.00181811 0.00212624 0.00242074 0.00269046 0.0029242 0.00312199 0.00328382 0.00340968 0.00349959 0.00355353 0.00357151 0.00355353 0.00349959 0.00340968 0.00328382 0.00312199 0.0029242 0.00269046 0.00242074 0.00212624 0.00181811 0.00149635 0.00116097 0.000811954 0.000449316 7.30513e-05 -0.00031684 -0.000706443 -0.00108184 -0.00144303 -0.00179002 -0.00212281 -0.00244139 -0.00274576 -0.00303593 -0.00330402 -0.00354214 -0.0037503 -0.00392849 -0.00407672 -0.00419498 -0.00428328 -0.00434162 -0.00437103 -0.00437254 -0.00434617 -0.00429191 -0.00420976 -0.00409972 -0.00396179 -0.00379596 -0.00361107 -0.00341591 -0.0032105 -0.00299483 -0.0027689 -0.00253271 -0.00228626 -0.00202955 -0.00177641 -0.00154064 -0.00132226 -0.00112127 -0.000937651 -0.000771419 -0.000622569 -0.000491102 -0.000376 -0.000276245 -0.000191837 -0.000122776 -6.90613e-05 -3.06939e-05 -7.67347e-06 0 0 -9.21099e-06 -3.68439e-05 -8.28989e-05 -0.000147376 -0.000230275 -0.000331596 -0.000451338 -0.000589503 -0.000746838 -0.000924092 -0.00112126 -0.00133836 -0.00157537 -0.0018323 -0.00210914 -0.00240591 -0.00270582 -0.00299211 -0.00326476 -0.00352379 -0.0037692 -0.00400097 -0.00421912 -0.00442364 -0.00460387 -0.00474917 -0.00485951 -0.00493492 -0.00497538 -0.00498091 -0.00495148 -0.00488712 -0.00478673 -0.00464925 -0.00447466 -0.00426298 -0.00401419 -0.00372831 -0.00340532 -0.00304524 -0.00265811 -0.002254 -0.00183291 -0.00139484 -0.000939791 -0.000467757 2.12591e-05 0.000527257 0.00103268 0.00151999 0.00198917 0.00244022 0.00287316 0.00328797 0.00368465 0.00406322 0.00440962 0.00470984 0.00496387 0.00517172 0.00533337 0.00544884 0.00551813 0.00554122 0.00551813 0.00544884 0.00533337 0.00517172 0.00496387 0.00470984 0.00440962 0.00406322 0.00368465 0.00328797 0.00287316 0.00244022 0.00198917 0.00151999 0.00103268 0.000527257 2.12591e-05 -0.000467757 -0.000939791 -0.00139484 -0.00183291 -0.002254 -0.00265811 -0.00304524 -0.00340532 -0.00372831 -0.00401419 -0.00426298 -0.00447466 -0.00464925 -0.00478673 -0.00488712 -0.00495148 -0.00498091 -0.00497539 -0.00493492 -0.00485952 -0.00474917 -0.00460387 -0.00442364 -0.00421912 -0.00400097 -0.0037692 -0.0035238 -0.00326477 -0.00299211 -0.00270582 -0.00240591 -0.00210914 -0.0018323 -0.00157537 -0.00133836 -0.00112127 -0.000924093 -0.000746839 -0.000589504 -0.000451339 -0.000331596 -0.000230275 -0.000147376 -8.28989e-05 -3.6844e-05 -9.21099e-06 0 0 -1.0903e-05 -4.36119e-05 -9.81267e-05 -0.000174447 -0.000272574 -0.000392507 -0.000534245 -0.00069779 -0.000883474 -0.00109163 -0.00132226 -0.00157537 -0.00185094 -0.002149 -0.00246952 -0.00281252 -0.00315792 -0.00348566 -0.00379574 -0.00408816 -0.00436291 -0.00462 -0.00485943 -0.0050812 -0.0052726 -0.00542094 -0.0055262 -0.00558839 -0.00560751 -0.00558357 -0.00551655 -0.00540647 -0.00525223 -0.00505276 -0.00480805 -0.00451811 -0.00418294 -0.00380253 -0.00337688 -0.002906 -0.00240249 -0.00187897 -0.00133542 -0.00077185 -0.000188261 0.000415349 0.00103898 0.00168263 0.00232454 0.00294293 0.00353781 0.00410917 0.00465703 0.00518137 0.0056822 0.00615951 0.00659598 0.00697424 0.00729431 0.00755619 0.00775987 0.00790536 0.00799265 0.00802175 0.00799265 0.00790536 0.00775987 0.00755619 0.00729431 0.00697424 0.00659598 0.00615951 0.0056822 0.00518137 0.00465703 0.00410917 0.00353781 0.00294293 0.00232454 0.00168263 0.00103898 0.000415349 -0.000188261 -0.000771851 -0.00133542 -0.00187897 -0.00240249 -0.002906 -0.00337688 -0.00380253 -0.00418294 -0.00451811 -0.00480805 -0.00505276 -0.00525223 -0.00540647 -0.00551655 -0.00558357 -0.00560752 -0.00558839 -0.0055262 -0.00542094 -0.0052726 -0.0050812 -0.00485944 -0.00462001 -0.00436291 -0.00408816 -0.00379574 -0.00348566 -0.00315792 -0.00281252 -0.00246952 -0.002149 -0.00185095 -0.00157537 -0.00132226 -0.00109163 -0.000883475 -0.00069779 -0.000534246 -0.000392507 -0.000272574 -0.000174448 -9.81268e-05 -4.36119e-05 -1.0903e-05 0 0 -1.27494e-05 -5.09976e-05 -0.000114745 -0.00020399 -0.000318735 -0.000458978 -0.000624721 -0.000815962 -0.00103248 -0.00127404 -0.00154064 -0.0018323 -0.002149 -0.00249074 -0.00285753 -0.00324937 -0.00364255 -0.00401337 -0.00436183 -0.00468792 -0.00499165 -0.00527301 -0.00553201 -0.00576865 -0.00596798 -0.00611503 -0.00620981 -0.00625232 -0.00624256 -0.00618053 -0.00606623 -0.00589966 -0.00567977 -0.00540551 -0.00507689 -0.00469389 -0.00425653 -0.0037648 -0.0032187 -0.00261823 -0.00197891 -0.00131628 -0.000630321 7.89571e-05 0.000811556 0.00156748 0.00234672 0.00314928 0.00394861 0.00471814 0.00545787 0.00616782 0.00684796 0.00749832 0.00811888 0.00870964 0.00924951 0.00971741 0.0101133 0.0104372 0.0106892 0.0108691 0.0109771 0.0110131 0.0109771 0.0108691 0.0106892 0.0104372 0.0101133 0.00971741 0.00924951 0.00870964 0.00811888 0.00749832 0.00684796 0.00616782 0.00545787 0.00471814 0.00394861 0.00314928 0.00234672 0.00156748 0.000811556 7.8957e-05 -0.000630321 -0.00131628 -0.00197891 -0.00261823 -0.0032187 -0.0037648 -0.00425653 -0.00469389 -0.00507689 -0.00540551 -0.00567977 -0.00589966 -0.00606623 -0.00618053 -0.00624256 -0.00625232 -0.00620981 -0.00611503 -0.00596798 -0.00576865 -0.00553202 -0.00527301 -0.00499165 -0.00468792 -0.00436183 -0.00401337 -0.00364256 -0.00324938 -0.00285754 -0.00249074 -0.002149 -0.0018323 -0.00154064 -0.00127404 -0.00103248 -0.000815962 -0.000624721 -0.000458979 -0.000318735 -0.000203991 -0.000114745 -5.09976e-05 -1.27494e-05 0 0 -1.47503e-05 -5.90012e-05 -0.000132753 -0.000236005 -0.000368757 -0.000531011 -0.000722765 -0.000944019 -0.00119384 -0.0014713 -0.00177641 -0.00210914 -0.00246952 -0.00285753 -0.00327319 -0.00371648 -0.00415972 -0.00457524 -0.00496302 -0.00532308 -0.0056554 -0.00596 -0.00623686 -0.00648599 -0.00668999 -0.00683144 -0.00691035 -0.00692671 -0.00688052 -0.00677179 -0.00660052 -0.0063667 -0.00606936 -0.00570751 -0.00528117 -0.00479032 -0.00423497 -0.00361512 -0.00293076 -0.00218191 -0.00138736 -0.000565933 0.000282381 0.00115758 0.00205966 0.00298862 0.00394447 0.00492721 0.00590489 0.00684562 0.00774937 0.00861615 0.00944596 0.0102388 0.0109947 0.0117136 0.0123702 0.0129393 0.0134209 0.0138149 0.0141213 0.0143402 0.0144715 0.0145153 0.0144715 0.0143402 0.0141213 0.0138149 0.0134209 0.0129393 0.0123702 0.0117136 0.0109947 0.0102388 0.00944596 0.00861615 0.00774937 0.00684562 0.0059049 0.00492721 0.00394447 0.00298862 0.00205966 0.00115758 0.000282381 -0.000565933 -0.00138736 -0.00218191 -0.00293076 -0.00361512 -0.00423497 -0.00479032 -0.00528117 -0.00570751 -0.00606936 -0.0063667 -0.00660052 -0.00677179 -0.00688052 -0.00692671 -0.00691035 -0.00683144 -0.00668999 -0.00648599 -0.00623686 -0.00596 -0.0056554 -0.00532308 -0.00496302 -0.00457524 -0.00415972 -0.00371648 -0.00327319 -0.00285754 -0.00246952 -0.00210914 -0.00177641 -0.00147131 -0.00119384 -0.00094402 -0.000722765 -0.000531011 -0.000368758 -0.000236005 -0.000132753 -5.90012e-05 -1.47503e-05 0 0 -1.69057e-05 -6.76226e-05 -0.000152151 -0.00027049 -0.000422641 -0.000608603 -0.000828377 -0.00108196 -0.00136758 -0.00168344 -0.00202955 -0.00240591 -0.00281252 -0.00324937 -0.00371648 -0.00421383 -0.00470943 -0.00517126 -0.00559933 -0.00599363 -0.00635417 -0.00668095 -0.00697397 -0.00723322 -0.00743864 -0.00757017 -0.00762781 -0.00761155 -0.0075214 -0.00735736 -0.00711942 -0.00680758 -0.00642099 -0.00595875 -0.00542089 -0.00480739 -0.00411826 -0.00335349 -0.00251309 -0.00159705 -0.000627849 0.000372064 0.00140269 0.00246401 0.00355605 0.0046788 0.00583225 0.00701641 0.0081934 0.00932536 0.0104123 0.0114542 0.012451 0.0134028 0.0143096 0.0151714 0.0159581 0.01664 0.017217 0.0176891 0.0180562 0.0183185 0.0184758 0.0185283 0.0184758 0.0183185 0.0180562 0.0176891 0.017217 0.01664 0.0159581 0.0151714 0.0143096 0.0134028 0.012451 0.0114542 0.0104123 0.00932536 0.0081934 0.00701641 0.00583225 0.0046788 0.00355605 0.00246401 0.00140269 0.000372064 -0.000627849 -0.00159706 -0.00251309 -0.00335349 -0.00411826 -0.00480739 -0.00542089 -0.00595875 -0.00642099 -0.00680758 -0.00711942 -0.00735736 -0.0075214 -0.00761155 -0.00762781 -0.00757018 -0.00743865 -0.00723322 -0.00697397 -0.00668095 -0.00635418 -0.00599363 -0.00559933 -0.00517126 -0.00470943 -0.00421383 -0.00371648 -0.00324938 -0.00281252 -0.00240591 -0.00202955 -0.00168344 -0.00136758 -0.00108196 -0.000828378 -0.000608604 -0.000422642 -0.000270491 -0.000152151 -6.76227e-05 -1.69057e-05 0 0 -1.91058e-05 -7.64233e-05 -0.000171952 -0.000305693 -0.000477645 -0.00068781 -0.000936185 -0.00122277 -0.00154473 -0.00189923 -0.00228626 -0.00270582 -0.00315792 -0.00364255 -0.00415972 -0.00470943 -0.00525501 -0.00575982 -0.00622387 -0.00664714 -0.00702964 -0.00737137 -0.00767232 -0.00793251 -0.00812901 -0.00823891 -0.0082622 -0.00819889 -0.00804898 -0.00781246 -0.00748934 -0.00707962 -0.00658263 -0.00599773 -0.00532491 -0.00456417 -0.00371551 -0.00277893 -0.00175443 -0.000642015 0.000531686 0.00174004 0.00298304 0.00426069 0.00557299 0.00691994 0.00830153 0.00971778 0.0111241 0.012476 0.0137734 0.0150163 0.0162047 0.0173386 0.0184181 0.0194431 0.0203785 0.0211891 0.0218751 0.0224363 0.0228728 0.0231846 0.0233717 0.0234341 0.0233717 0.0231846 0.0228728 0.0224363 0.0218751 0.0211891 0.0203785 0.0194431 0.0184181 0.0173386 0.0162047 0.0150163 0.0137734 0.012476 0.0111241 0.00971778 0.00830153 0.00691994 0.00557299 0.00426069 0.00298304 0.00174004 0.000531686 -0.000642016 -0.00175443 -0.00277893 -0.00371551 -0.00456417 -0.00532491 -0.00599773 -0.00658263 -0.00707962 -0.00748934 -0.00781246 -0.00804898 -0.00819889 -0.0082622 -0.00823891 -0.00812901 -0.00793251 -0.00767233 -0.00737137 -0.00702964 -0.00664714 -0.00622387 -0.00575983 -0.00525501 -0.00470943 -0.00415972 -0.00364256 -0.00315792 -0.00270582 -0.00228626 -0.00189923 -0.00154473 -0.00122277 -0.000936186 -0.00068781 -0.000477646 -0.000305693 -0.000171952 -7.64233e-05 -1.91058e-05 0 0 -2.12412e-05 -8.49646e-05 -0.00019117 -0.000339858 -0.000531029 -0.000764682 -0.00104082 -0.00135943 -0.00171637 -0.00210746 -0.00253271 -0.00299211 -0.00348566 -0.00401337 -0.00457524 -0.00517126 -0.00575982 -0.00629933 -0.00678977 -0.00723115 -0.00762346 -0.00796672 -0.00826091 -0.00850604 -0.00867615 -0.00874531 -0.00871351 -0.00858075 -0.00834703 -0.00801235 -0.00757671 -0.00704011 -0.00640228 -0.00566293 -0.00482208 -0.00387971 -0.00283584 -0.00169045 -0.000443555 0.000904852 0.0023233 0.00378031 0.00527588 0.00681002 0.00838273 0.009994 0.0116438 0.0133322 0.015007 0.016616 0.0181593 0.0196367 0.0210484 0.0223943 0.0236745 0.0248888 0.0259964 0.0269564 0.0277686 0.0284332 0.0289501 0.0293193 0.0295408 0.0296147 0.0295408 0.0293193 0.0289501 0.0284332 0.0277686 0.0269564 0.0259964 0.0248888 0.0236745 0.0223943 0.0210484 0.0196367 0.0181593 0.016616 0.015007 0.0133322 0.0116438 0.009994 0.00838273 0.00681002 0.00527588 0.00378031 0.0023233 0.000904851 -0.000443556 -0.00169045 -0.00283584 -0.00387971 -0.00482208 -0.00566293 -0.00640228 -0.00704011 -0.00757671 -0.00801235 -0.00834703 -0.00858075 -0.00871351 -0.00874531 -0.00867616 -0.00850604 -0.00826091 -0.00796672 -0.00762347 -0.00723115 -0.00678977 -0.00629933 -0.00575983 -0.00517126 -0.00457524 -0.00401337 -0.00348566 -0.00299211 -0.00253271 -0.00210746 -0.00171637 -0.00135943 -0.00104082 -0.000764682 -0.000531029 -0.000339859 -0.000191171 -8.49647e-05 -2.12412e-05 0 0 -2.33117e-05 -9.32466e-05 -0.000209805 -0.000372986 -0.000582791 -0.00083922 -0.00114227 -0.00149195 -0.00188249 -0.00230814 -0.0027689 -0.00326476 -0.00379574 -0.00436183 -0.00496302 -0.00559933 -0.00622387 -0.00678977 -0.00729703 -0.00774566 -0.00813565 -0.008467 -0.00873972 -0.0089538 -0.00908008 -0.00908939 -0.00898174 -0.00875713 -0.00841556 -0.00795702 -0.00738153 -0.00668906 -0.00587992 -0.00495436 -0.0039124 -0.00275402 -0.00147924 -8.8055e-05 0.00141954 0.00304355 0.00474698 0.00649287 0.00828122 0.010112 0.0119853 0.013901 0.0158591 0.0178598 0.0198421 0.0217456 0.0235701 0.0253156 0.0269823 0.02857 0.0300787 0.0315086 0.032812 0.0339417 0.0348976 0.0356797 0.0362879 0.0367224 0.0369831 0.03707 0.0369831 0.0367224 0.0362879 0.0356797 0.0348976 0.0339417 0.032812 0.0315086 0.0300787 0.02857 0.0269823 0.0253156 0.0235701 0.0217456 0.0198421 0.0178598 0.0158591 0.013901 0.0119853 0.010112 0.00828122 0.00649287 0.00474698 0.00304355 0.00141954 -8.80557e-05 -0.00147924 -0.00275402 -0.0039124 -0.00495436 -0.00587992 -0.00668906 -0.00738153 -0.00795703 -0.00841556 -0.00875714 -0.00898175 -0.00908939 -0.00908008 -0.0089538 -0.00873972 -0.00846701 -0.00813565 -0.00774566 -0.00729704 -0.00678977 -0.00622387 -0.00559933 -0.00496302 -0.00436183 -0.00379574 -0.00326477 -0.0027689 -0.00230814 -0.00188249 -0.00149195 -0.00114227 -0.00083922 -0.000582792 -0.000372987 -0.000209805 -9.32467e-05 -2.33117e-05 0 0 -2.53173e-05 -0.000101269 -0.000227856 -0.000405077 -0.000632933 -0.000911424 -0.00124055 -0.00162031 -0.00204308 -0.00250126 -0.00299483 -0.00352379 -0.00408816 -0.00468792 -0.00532308 -0.00599363 -0.00664714 -0.00723115 -0.00774566 -0.00819068 -0.0085662 -0.00887223 -0.00910876 -0.0092758 -0.00934078 -0.00927115 -0.0090669 -0.00872804 -0.00825457 -0.00764648 -0.006