<?xml version="1.0"?> 
<VTKFile type="StructuredGrid" version="0.1"> 
<StructuredGrid WholeExtent="0 128 0 128 0 0"> 
<Piece Extent="0 128 0 128 0 0"> 
<PointData>
<DataArray type="Float32" Name="u" format="ascii" NumberOfComponents="1"> 
0 0 0 0 0 0 0 0 0 0 0 0 0 0 0 0 0 0 0 0 0 0 0 0 0 0 0 0 0 0 0 0 0 0 0 0 0 0 0 0 0 0 0 0 0 0 0 0 0 0 0 0 0 0 0 0 0 0 0 0 0 0 0 0 0 0 0 0 0 0 0 0 0 0 0 0 0 0 0 0 0 0 0 0 0 0 0 0 0 0 0 0 0 0 0 0 0 0 0 0 0 0 0 0 0 0 0 0 0 0 0 0 0 0 0 0 0 0 0 0 0 0 0 0 0 0 0 0 0 0 4.59547e-08 1.83819e-07 4.13593e-07 7.35276e-07 1.14887e-06 1.65437e-06 2.25178e-06 2.9411e-06 3.61154e-06 4.15229e-06 4.56337e-06 4.84476e-06 4.99647e-06 5.0185e-06 4.91085e-06 4.67352e-06 4.18532e-06 3.32508e-06 2.09279e-06 4.88447e-07 -1.48794e-06 -3.83637e-06 -6.55686e-06 -9.64939e-06 -1.30794e-05 -1.68123e-05 -2.08482e-05 -2.5187e-05 -2.98288e-05 -3.47734e-05 -4.0021e-05 -4.55715e-05 -5.13411e-05 -5.72461e-05 -6.32863e-05 -6.94618e-05 -7.57726e-05 -8.22187e-05 -8.88001e-05 -9.55168e-05 -0.000102281 -0.000109006 -0.00011569 -0.000122335 -0.00012894 -0.000135505 -0.00014203 -0.000148515 -0.000154838 -0.000160874 -0.000166624 -0.000172087 -0.000177265 -0.000182156 -0.000186762 -0.000191081 -0.000194996 -0.000198389 -0.00020126 -0.000203609 -0.000205436 -0.000206741 -0.000207524 -0.000207785 -0.000207524 -0.000206741 -0.000205436 -0.000203609 -0.00020126 -0.000198389 -0.000194996 -0.000191081 -0.000186762 -0.000182156 -0.000177265 -0.000172087 -0.000166624 -0.000160874 -0.000154838 -0.000148515 -0.00014203 -0.000135505 -0.00012894 -0.000122335 -0.00011569 -0.000109006 -0.000102281 -9.55168e-05 -8.88001e-05 -8.22187e-05 -7.57726e-05 -6.94618e-05 -6.32863e-05 -5.72461e-05 -5.13411e-05 -4.55715e-05 -4.0021e-05 -3.47734e-05 -2.98288e-05 -2.5187e-05 -2.08482e-05 -1.68123e-05 -1.30794e-05 -9.64938e-06 -6.55686e-06 -3.83637e-06 -1.48794e-06 4.88447e-07 2.09279e-06 3.32508e-06 4.18532e-06 4.67352e-06 4.91085e-06 5.0185e-06 4.99647e-06 4.84476e-06 4.56337e-06 4.15229e-06 3.61154e-06 2.9411e-06 2.25178e-06 1.65437e-06 1.14887e-06 7.35276e-07 4.13593e-07 1.83819e-07 4.59548e-08 0 0 1.83819e-07 7.35276e-07 1.65437e-06 2.9411e-06 4.59547e-06 6.61748e-06 9.00713e-06 1.17644e-05 1.44462e-05 1.66092e-05 1.82535e-05 1.9379e-05 1.99859e-05 2.0074e-05 1.96434e-05 1.86941e-05 1.67413e-05 1.33003e-05 8.37114e-06 1.95379e-06 -5.95176e-06 -1.53455e-05 -2.62274e-05 -3.85975e-05 -5.23176e-05 -6.72494e-05 -8.33929e-05 -0.000100748 -0.000119315 -0.000139094 -0.000160084 -0.000182286 -0.000205365 -0.000228984 -0.000253145 -0.000277847 -0.00030309 -0.000328875 -0.0003552 -0.000382067 -0.000409125 -0.000436023 -0.000462761 -0.00048934 -0.00051576 -0.00054202 -0.00056812 -0.000594061 -0.00061935 -0.000643495 -0.000666494 -0.000688349 -0.00070906 -0.000728626 -0.000747047 -0.000764323 -0.000779984 -0.000793556 -0.00080504 -0.000814436 -0.000821744 -0.000826965 -0.000830097 -0.000831141 -0.000830097 -0.000826965 -0.000821744 -0.000814436 -0.00080504 -0.000793556 -0.000779984 -0.000764323 -0.000747047 -0.000728626 -0.00070906 -0.000688349 -0.000666494 -0.000643495 -0.00061935 -0.000594061 -0.00056812 -0.00054202 -0.00051576 -0.00048934 -0.000462761 -0.000436023 -0.000409125 -0.000382067 -0.0003552 -0.000328875 -0.00030309 -0.000277847 -0.000253145 -0.000228984 -0.000205365 -0.000182286 -0.000160084 -0.000139094 -0.000119315 -0.000100748 -8.33929e-05 -6.72494e-05 -5.23176e-05 -3.85975e-05 -2.62274e-05 -1.53455e-05 -5.95176e-06 1.95379e-06 8.37114e-06 1.33003e-05 1.67413e-05 1.86941e-05 1.96434e-05 2.0074e-05 1.99859e-05 1.9379e-05 1.82535e-05 1.66092e-05 1.44462e-05 1.17644e-05 9.00713e-06 6.61748e-06 4.59548e-06 2.9411e-06 1.65437e-06 7.35276e-07 1.83819e-07 0 0 4.13593e-07 1.65437e-06 3.72233e-06 6.61748e-06 1.03398e-05 1.48893e-05 2.0266e-05 2.64699e-05 3.25039e-05 3.73706e-05 4.10703e-05 4.36028e-05 4.49682e-05 4.51665e-05 4.41976e-05 4.20617e-05 3.76679e-05 2.99257e-05 1.88351e-05 4.39602e-06 -1.33915e-05 -3.45274e-05 -5.90117e-05 -8.68445e-05 -0.000117715 -0.000151311 -0.000187634 -0.000226683 -0.000268459 -0.000312961 -0.000360189 -0.000410144 -0.00046207 -0.000515215 -0.000569576 -0.000625156 -0.000681953 -0.000739968 -0.000799201 -0.000859651 -0.00092053 -0.000981051 -0.00104121 -0.00110102 -0.00116046 -0.00121954 -0.00127827 -0.00133664 -0.00139354 -0.00144786 -0.00149961 -0.00154879 -0.00159538 -0.00163941 -0.00168086 -0.00171973 -0.00175496 -0.0017855 -0.00181134 -0.00183248 -0.00184892 -0.00186067 -0.00186772 -0.00187007 -0.00186772 -0.00186067 -0.00184892 -0.00183248 -0.00181134 -0.0017855 -0.00175496 -0.00171973 -0.00168086 -0.00163941 -0.00159538 -0.00154879 -0.00149961 -0.00144786 -0.00139354 -0.00133664 -0.00127827 -0.00121954 -0.00116046 -0.00110102 -0.00104121 -0.000981051 -0.00092053 -0.000859651 -0.000799201 -0.000739968 -0.000681953 -0.000625156 -0.000569576 -0.000515215 -0.00046207 -0.000410144 -0.000360189 -0.000312961 -0.000268459 -0.000226683 -0.000187634 -0.000151311 -0.000117715 -8.68445e-05 -5.90117e-05 -3.45274e-05 -1.33915e-05 4.39602e-06 1.88351e-05 2.99257e-05 3.76679e-05 4.20617e-05 4.41976e-05 4.51665e-05 4.49682e-05 4.36028e-05 4.10703e-05 3.73706e-05 3.25039e-05 2.64699e-05 2.0266e-05 1.48893e-05 1.03398e-05 6.61748e-06 3.72233e-06 1.65437e-06 4.13593e-07 0 0 7.35276e-07 2.9411e-06 6.61748e-06 1.17644e-05 1.83819e-05 2.64699e-05 3.60285e-05 4.70577e-05 5.77846e-05 6.64367e-05 7.30139e-05 7.75161e-05 7.99435e-05 8.0296e-05 7.85736e-05 7.47763e-05 6.69651e-05 5.32012e-05 3.34846e-05 7.81515e-06 -2.3807e-05 -6.1382e-05 -0.00010491 -0.00015439 -0.00020927 -0.000268998 -0.000333572 -0.000402992 -0.00047726 -0.000556375 -0.000640336 -0.000729144 -0.000821458 -0.000915937 -0.00101258 -0.00111139 -0.00121236 -0.0013155 -0.0014208 -0.00152827 -0.0016365 -0.00174409 -0.00185104 -0.00195736 -0.00206304 -0.00216808 -0.00227248 -0.00237625 -0.0024774 -0.00257398 -0.00266598 -0.0027534 -0.00283624 -0.0029145 -0.00298819 -0.00305729 -0.00311993 -0.00317422 -0.00322016 -0.00325775 -0.00328698 -0.00330786 -0.00332039 -0.00332456 -0.00332039 -0.00330786 -0.00328698 -0.00325775 -0.00322016 -0.00317422 -0.00311993 -0.00305729 -0.00298819 -0.0029145 -0.00283624 -0.0027534 -0.00266598 -0.00257398 -0.0024774 -0.00237625 -0.00227248 -0.00216808 -0.00206304 -0.00195736 -0.00185104 -0.00174409 -0.0016365 -0.00152827 -0.0014208 -0.0013155 -0.00121236 -0.00111139 -0.00101258 -0.000915937 -0.000821458 -0.000729144 -0.000640336 -0.000556375 -0.00047726 -0.000402992 -0.000333572 -0.000268998 -0.00020927 -0.00015439 -0.00010491 -6.1382e-05 -2.3807e-05 7.81515e-06 3.34846e-05 5.32012e-05 6.69651e-05 7.47763e-05 7.85736e-05 8.0296e-05 7.99435e-05 7.75162e-05 7.30139e-05 6.64367e-05 5.77846e-05 4.70577e-05 3.60285e-05 2.64699e-05 1.83819e-05 1.17644e-05 6.61748e-06 2.9411e-06 7.35276e-07 0 0 1.14887e-06 4.59547e-06 1.03398e-05 1.83819e-05 2.87217e-05 4.13593e-05 5.62946e-05 7.35276e-05 9.02885e-05 0.000103807 0.000114084 0.000121119 0.000124912 0.000125463 0.000122771 0.000116838 0.000104633 8.31269e-05 5.23196e-05 1.22112e-05 -3.71985e-05 -9.59094e-05 -0.000163921 -0.000241235 -0.000326985 -0.000420309 -0.000521206 -0.000629676 -0.000745719 -0.000869335 -0.00100052 -0.00113929 -0.00128353 -0.00143115 -0.00158216 -0.00173654 -0.00189431 -0.00205547 -0.00222 -0.00238792 -0.00255703 -0.00272514 -0.00289226 -0.00305838 -0.0032235 -0.00338762 -0.00355075 -0.00371288 -0.00387094 -0.00402184 -0.00416559 -0.00430218 -0.00443162 -0.00455391 -0.00466904 -0.00477702 -0.0048749 -0.00495972 -0.0050315 -0.00509023 -0.0051359 -0.00516853 -0.0051881 -0.00519463 -0.0051881 -0.00516853 -0.0051359 -0.00509023 -0.0050315 -0.00495972 -0.0048749 -0.00477702 -0.00466904 -0.00455391 -0.00443162 -0.00430218 -0.00416559 -0.00402184 -0.00387094 -0.00371288 -0.00355075 -0.00338762 -0.0032235 -0.00305838 -0.00289226 -0.00272514 -0.00255703 -0.00238792 -0.00222 -0.00205547 -0.00189431 -0.00173654 -0.00158216 -0.00143115 -0.00128353 -0.00113929 -0.00100052 -0.000869335 -0.000745719 -0.000629676 -0.000521206 -0.000420309 -0.000326985 -0.000241235 -0.000163921 -9.59093e-05 -3.71985e-05 1.22112e-05 5.23197e-05 8.31269e-05 0.000104633 0.000116838 0.000122771 0.000125463 0.000124912 0.000121119 0.000114084 0.000103807 9.02885e-05 7.35276e-05 5.62946e-05 4.13593e-05 2.87217e-05 1.83819e-05 1.03398e-05 4.59548e-06 1.14887e-06 0 0 1.65437e-06 6.61748e-06 1.48893e-05 2.64699e-05 4.13593e-05 5.95574e-05 8.10642e-05 0.00010588 0.000130015 0.000149483 0.000164281 0.000174411 0.000179873 0.000180666 0.000176791 0.000168247 0.000150672 0.000119703 7.53403e-05 1.75841e-05 -5.35658e-05 -0.000138109 -0.000236047 -0.000347378 -0.000470858 -0.000605245 -0.000750536 -0.000906733 -0.00107384 -0.00125184 -0.00144076 -0.00164057 -0.00184828 -0.00206086 -0.00227831 -0.00250062 -0.00272781 -0.00295987 -0.0031968 -0.0034386 -0.00368212 -0.0039242 -0.00416485 -0.00440406 -0.00464184 -0.00487818 -0.00511308 -0.00534655 -0.00557415 -0.00579145 -0.00599845 -0.00619514 -0.00638154 -0.00655763 -0.00672342 -0.00687891 -0.00701985 -0.007142 -0.00724536 -0.00732993 -0.0073957 -0.00744268 -0.00747087 -0.00748027 -0.00747087 -0.00744268 -0.0073957 -0.00732993 -0.00724536 -0.007142 -0.00701985 -0.00687891 -0.00672342 -0.00655763 -0.00638154 -0.00619514 -0.00599845 -0.00579145 -0.00557415 -0.00534655 -0.00511308 -0.00487818 -0.00464184 -0.00440406 -0.00416485 -0.0039242 -0.00368212 -0.0034386 -0.0031968 -0.00295987 -0.00272781 -0.00250062 -0.00227831 -0.00206086 -0.00184828 -0.00164057 -0.00144076 -0.00125184 -0.00107384 -0.000906733 -0.000750536 -0.000605245 -0.000470858 -0.000347378 -0.000236047 -0.000138109 -5.35658e-05 1.75841e-05 7.53403e-05 0.000119703 0.000150672 0.000168247 0.000176791 0.000180666 0.000179873 0.000174411 0.000164281 0.000149483 0.000130015 0.00010588 8.10642e-05 5.95574e-05 4.13593e-05 2.64699e-05 1.48893e-05 6.61748e-06 1.65437e-06 0 0 2.25178e-06 9.00713e-06 2.0266e-05 3.60285e-05 5.62946e-05 8.10642e-05 0.000110337 0.000144114 0.000176965 0.000203462 0.000223605 0.000237393 0.000244827 0.000245907 0.000240632 0.000229002 0.000205081 0.000162929 0.000102546 2.39339e-05 -7.29091e-05 -0.000187982 -0.000321286 -0.00047282 -0.000640891 -0.000823805 -0.00102156 -0.00123416 -0.00146161 -0.0017039 -0.00196103 -0.002233 -0.00251572 -0.00280506 -0.00310103 -0.00340363 -0.00371286 -0.00402872 -0.0043512 -0.00468032 -0.00501178 -0.00534128 -0.00566882 -0.00599442 -0.00631806 -0.00663974 -0.00695947 -0.00727725 -0.00758704 -0.00788281 -0.00816456 -0.00843228 -0.00868598 -0.00892566 -0.00915132 -0.00936296 -0.0095548 -0.00972106 -0.00986174 -0.00997684 -0.0100664 -0.0101303 -0.0101687 -0.0101815 -0.0101687 -0.0101303 -0.0100664 -0.00997684 -0.00986174 -0.00972106 -0.0095548 -0.00936296 -0.00915132 -0.00892566 -0.00868598 -0.00843228 -0.00816456 -0.00788281 -0.00758704 -0.00727725 -0.00695947 -0.00663974 -0.00631806 -0.00599442 -0.00566882 -0.00534128 -0.00501178 -0.00468032 -0.0043512 -0.00402872 -0.00371286 -0.00340363 -0.00310103 -0.00280506 -0.00251572 -0.002233 -0.00196103 -0.0017039 -0.00146161 -0.00123416 -0.00102156 -0.000823805 -0.000640891 -0.00047282 -0.000321286 -0.000187982 -7.2909e-05 2.39339e-05 0.000102547 0.000162929 0.000205081 0.000229002 0.000240632 0.000245907 0.000244827 0.000237393 0.000223605 0.000203462 0.000176965 0.000144114 0.000110337 8.10642e-05 5.62946e-05 3.60285e-05 2.0266e-05 9.00713e-06 2.25178e-06 0 0 2.9411e-06 1.17644e-05 2.64699e-05 4.70577e-05 7.35276e-05 0.00010588 0.000144114 0.000188231 0.000231139 0.000265747 0.000292055 0.000310065 0.000319774 0.000321184 0.000314294 0.000299105 0.000267861 0.000212805 0.000133938 3.12606e-05 -9.52282e-05 -0.000245528 -0.000419639 -0.000617561 -0.000837082 -0.00107599 -0.00133429 -0.00161197 -0.00190904 -0.0022255 -0.00256134 -0.00291658 -0.00328583 -0.00366375 -0.00405032 -0.00444555 -0.00484945 -0.005262 -0.0056832 -0.00611307 -0.00654599 -0.00697636 -0.00740418 -0.00782944 -0.00825216 -0.00867232 -0.00908993 -0.00950498 -0.0099096 -0.0102959 -0.0106639 -0.0110136 -0.011345 -0.011658 -0.0119528 -0.0122292 -0.0124797 -0.0126969 -0.0128806 -0.013031 -0.0131479 -0.0132314 -0.0132815 -0.0132982 -0.0132815 -0.0132314 -0.0131479 -0.013031 -0.0128806 -0.0126969 -0.0124797 -0.0122292 -0.0119528 -0.011658 -0.011345 -0.0110136 -0.0106639 -0.0102959 -0.0099096 -0.00950498 -0.00908993 -0.00867232 -0.00825216 -0.00782944 -0.00740418 -0.00697636 -0.00654599 -0.00611307 -0.0056832 -0.005262 -0.00484945 -0.00444555 -0.00405032 -0.00366375 -0.00328583 -0.00291658 -0.00256134 -0.0022255 -0.00190904 -0.00161197 -0.00133429 -0.00107599 -0.000837082 -0.000617561 -0.000419639 -0.000245528 -9.52281e-05 3.12606e-05 0.000133938 0.000212805 0.000267861 0.000299105 0.000314294 0.000321184 0.000319774 0.000310065 0.000292056 0.000265747 0.000231139 0.000188231 0.000144114 0.00010588 7.35276e-05 4.70577e-05 2.64699e-05 1.17644e-05 2.9411e-06 0 0 3.61154e-06 1.44462e-05 3.25039e-05 5.77846e-05 9.02885e-05 0.000130015 0.000176965 0.000231139 0.000283615 0.000325476 0.000356721 0.000377351 0.000387365 0.000386763 0.000375545 0.000353711 0.000311725 0.000240051 0.000138687 7.63522e-06 -0.000153106 -0.000343535 -0.000563653 -0.00081346 -0.00109002 -0.00139039 -0.00171457 -0.00206256 -0.00243437 -0.00282999 -0.00324942 -0.00369266 -0.0041531 -0.00462412 -0.00510572 -0.00559791 -0.00610067 -0.00661402 -0.00713794 -0.00767245 -0.00821078 -0.00874617 -0.00927863 -0.00980815 -0.0103347 -0.0108584 -0.0113791 -0.0118969 -0.0124019 -0.0128842 -0.013344 -0.0137811 -0.0141955 -0.0145874 -0.0149566 -0.0153032 -0.0156176 -0.01589 -0.0161205 -0.0163091 -0.0164558 -0.0165605 -0.0166234 -0.0166444 -0.0166234 -0.0165605 -0.0164558 -0.0163091 -0.0161205 -0.01589 -0.0156176 -0.0153032 -0.0149566 -0.0145874 -0.0141955 -0.0137811 -0.013344 -0.0128842 -0.0124019 -0.0118969 -0.0113791 -0.0108584 -0.0103347 -0.00980815 -0.00927863 -0.00874617 -0.00821078 -0.00767245 -0.00713794 -0.00661402 -0.00610067 -0.00559791 -0.00510572 -0.00462412 -0.0041531 -0.00369266 -0.00324942 -0.00282999 -0.00243437 -0.00206256 -0.00171457 -0.00139039 -0.00109002 -0.00081346 -0.000563653 -0.000343535 -0.000153106 7.63527e-06 0.000138687 0.000240051 0.000311725 0.000353711 0.000375545 0.000386763 0.000387365 0.000377351 0.000356721 0.000325476 0.000283615 0.000231139 0.000176965 0.000130015 9.02885e-05 5.77846e-05 3.25039e-05 1.44462e-05 3.61154e-06 0 0 4.15229e-06 1.66092e-05 3.73706e-05 6.64367e-05 0.000103807 0.000149483 0.000203462 0.000265747 0.000325476 0.000371791 0.000404692 0.000424178 0.000430249 0.000422906 0.000402148 0.000367976 0.000309389 0.000215385 8.59651e-05 -7.88712e-05 -0.000279124 -0.000514793 -0.000785878 -0.00109238 -0.00143029 -0.00179558 -0.00218828 -0.00260836 -0.00305584 -0.00353071 -0.00403297 -0.00456263 -0.00511199 -0.00567338 -0.00624677 -0.00683219 -0.00742963 -0.00803908 -0.00866055 -0.00929404 -0.00993213 -0.0105674 -0.0111999 -0.0118295 -0.0124564 -0.0130804 -0.0137016 -0.01432 -0.0149238 -0.0155012 -0.0160522 -0.0165767 -0.0170748 -0.0175466 -0.0179919 -0.0184108 -0.0187911 -0.0191208 -0.0193997 -0.0196279 -0.0198054 -0.0199322 -0.0200082 -0.0200336 -0.0200082 -0.0199322 -0.0198054 -0.0196279 -0.0193997 -0.0191208 -0.0187911 -0.0184108 -0.0179919 -0.0175466 -0.0170748 -0.0165767 -0.0160522 -0.0155012 -0.0149238 -0.01432 -0.0137016 -0.0130804 -0.0124564 -0.0118295 -0.0111999 -0.0105674 -0.00993213 -0.00929404 -0.00866055 -0.00803908 -0.00742963 -0.00683219 -0.00624677 -0.00567338 -0.00511199 -0.00456263 -0.00403297 -0.00353071 -0.00305584 -0.00260836 -0.00218828 -0.00179558 -0.00143029 -0.00109238 -0.000785878 -0.000514793 -0.000279124 -7.88711e-05 8.59652e-05 0.000215385 0.000309389 0.000367976 0.000402148 0.000422906 0.000430249 0.000424178 0.000404692 0.000371791 0.000325476 0.000265747 0.000203462 0.000149483 0.000103807 6.64367e-05 3.73706e-05 1.66092e-05 4.15229e-06 0 0 4.56337e-06 1.82535e-05 4.10703e-05 7.30139e-05 0.000114084 0.000164281 0.000223605 0.000292055 0.000356721 0.000404692 0.000435966 0.000450545 0.000448427 0.000429614 0.000394106 0.000341901 0.000260852 0.000138809 -2.42282e-05 -0.000228259 -0.000473283 -0.0007593 -0.00108631 -0.00145432 -0.00185788 -0.00229158 -0.00275541 -0.00324936 -0.00377345 -0.00432766 -0.00491201 -0.00552648 -0.00616251 -0.00681151 -0.00747347 -0.00814841 -0.00883631 -0.00953719 -0.010251 -0.0109779 -0.0117101 -0.0124401 -0.0131679 -0.0138936 -0.0146171 -0.0153384 -0.0160575 -0.0167744 -0.0174755 -0.0181468 -0.0187885 -0.0194005 -0.0199828 -0.0205355 -0.0210585 -0.0215519 -0.0220005 -0.0223893 -0.0227182 -0.0229874 -0.0231967 -0.0233463 -0.023436 -0.0234659 -0.023436 -0.0233463 -0.0231967 -0.0229874 -0.0227182 -0.0223893 -0.0220005 -0.0215519 -0.0210585 -0.0205355 -0.0199828 -0.0194005 -0.0187885 -0.0181468 -0.0174755 -0.0167744 -0.0160575 -0.0153384 -0.0146171 -0.0138936 -0.0131679 -0.0124401 -0.0117101 -0.0109779 -0.010251 -0.00953719 -0.00883631 -0.00814841 -0.00747347 -0.00681151 -0.00616251 -0.00552648 -0.00491201 -0.00432766 -0.00377345 -0.00324936 -0.00275541 -0.00229158 -0.00185788 -0.00145432 -0.00108631 -0.0007593 -0.000473283 -0.000228258 -2.42281e-05 0.000138809 0.000260852 0.000341901 0.000394106 0.000429614 0.000448427 0.000450545 0.000435966 0.000404692 0.000356721 0.000292056 0.000223605 0.000164281 0.000114084 7.30139e-05 4.10703e-05 1.82535e-05 4.56337e-06 0 0 4.84476e-06 1.9379e-05 4.36028e-05 7.75161e-05 0.000121119 0.000174411 0.000237393 0.000310065 0.000377351 0.000424178 0.000450545 0.000456452 0.0004419 0.000406888 0.000351416 0.000275485 0.000166113 1.03208e-05 -0.000191893 -0.000440527 -0.000735582 -0.00107706 -0.00146496 -0.00189927 -0.00237281 -0.00287838 -0.00341596 -0.00398557 -0.0045872 -0.00522085 -0.00588652 -0.00658422 -0.00730465 -0.00803851 -0.00878581 -0.00954655 -0.0103207 -0.0111083 -0.0119094 -0.0127239 -0.0135446 -0.0143642 -0.0151828 -0.0160004 -0.0168169 -0.0176323 -0.0184468 -0.0192602 -0.0200568 -0.0208211 -0.021553 -0.0222525 -0.0229195 -0.0235542 -0.0241565 -0.0247265 -0.0252456 -0.0256955 -0.0260761 -0.0263876 -0.0266299 -0.0268029 -0.0269067 -0.0269413 -0.0269067 -0.0268029 -0.0266299 -0.0263876 -0.0260761 -0.0256955 -0.0252456 -0.0247265 -0.0241565 -0.0235542 -0.0229195 -0.0222525 -0.021553 -0.0208211 -0.0200568 -0.0192602 -0.0184468 -0.0176323 -0.0168169 -0.0160004 -0.0151828 -0.0143642 -0.0135446 -0.0127239 -0.0119094 -0.0111083 -0.0103207 -0.00954655 -0.00878581 -0.00803851 -0.00730465 -0.00658422 -0.00588652 -0.00522085 -0.0045872 -0.00398557 -0.00341596 -0.00287838 -0.00237281 -0.00189927 -0.00146496 -0.00107706 -0.000735582 -0.000440527 -0.000191893 1.03209e-05 0.000166113 0.000275485 0.000351416 0.000406888 0.0004419 0.000456452 0.000450545 0.000424178 0.000377351 0.000310065 0.000237393 0.000174411 0.000121119 7.75162e-05 4.36028e-05 1.9379e-05 4.84476e-06 0 0 4.99647e-06 1.99859e-05 4.49682e-05 7.99435e-05 0.000124912 0.000179873 0.000244827 0.000319774 0.000387365 0.000430249 0.000448427 0.0004419 0.000410666 0.000354726 0.00027408 0.000168728 2.5174e-05 -0.000170078 -0.000417028 -0.000715676 -0.00106602 -0.00146807 -0.00192181 -0.00242725 -0.00297507 -0.00355597 -0.00416994 -0.00481698 -0.00549709 -0.00621027 -0.00695652 -0.00773584 -0.00853841 -0.00935439 -0.0101838 -0.0110266 -0.0118829 -0.0127525 -0.0136356 -0.0145321 -0.0154356 -0.0163398 -0.0172445 -0.0181498 -0.0190557 -0.0199623 -0.0208694 -0.0217771 -0.0226679 -0.023524 -0.0243456 -0.0251326 -0.025885 -0.0266027 -0.027286 -0.0279346 -0.0285264 -0.0290394 -0.0294734 -0.0298285 -0.0301047 -0.030302 -0.0304204 -0.0304599 -0.0304204 -0.030302 -0.0301047 -0.0298285 -0.0294734 -0.0290394 -0.0285264 -0.0279346 -0.027286 -0.0266027 -0.025885 -0.0251326 -0.0243456 -0.023524 -0.0226679 -0.0217771 -0.0208694 -0.0199623 -0.0190557 -0.0181498 -0.0172445 -0.0163398 -0.0154356 -0.0145321 -0.0136356 -0.0127525 -0.0118829 -0.0110266 -0.0101838 -0.00935439 -0.00853841 -0.00773584 -0.00695652 -0.00621027 -0.00549709 -0.00481698 -0.00416994 -0.00355597 -0.00297507 -0.00242725 -0.00192181 -0.00146807 -0.00106602 -0.000715676 -0.000417028 -0.000170078 2.51741e-05 0.000168728 0.00027408 0.000354726 0.000410666 0.0004419 0.000448427 0.000430249 0.000387365 0.000319774 0.000244827 0.000179873 0.000124912 7.99435e-05 4.49682e-05 1.99859e-05 4.99647e-06 0 0 5.0185e-06 2.0074e-05 4.51665e-05 8.0296e-05 0.000125463 0.000180666 0.000245907 0.000321184 0.000386763 0.000422906 0.000429614 0.000406888 0.000354726 0.000273129 0.000162097 2.16307e-05 -0.000161966 -0.000402388 -0.000699635 -0.00105371 -0.0014646 -0.00193233 -0.00245687 -0.00303824 -0.00366467 -0.00432436 -0.00501734 -0.00574359 -0.00650311 -0.00729591 -0.00812199 -0.00898134 -0.00986379 -0.0107592 -0.0116674 -0.0125886 -0.0135227 -0.0144698 -0.0154297 -0.0164026 -0.0173833 -0.0183667 -0.019353 -0.0203419 -0.0213336 -0.0223281 -0.0233254 -0.0243254 -0.0253086 -0.0262556 -0.0271664 -0.0280408 -0.0288791 -0.029681 -0.0304467 -0.0311762 -0.0318431 -0.032421 -0.03291 -0.0333102 -0.0336214 -0.0338437 -0.033977 -0.0340215 -0.033977 -0.0338437 -0.0336214 -0.0333102 -0.03291 -0.032421 -0.0318431 -0.0311762 -0.0304467 -0.029681 -0.0288791 -0.0280408 -0.0271664 -0.0262556 -0.0253086 -0.0243254 -0.0233254 -0.0223281 -0.0213336 -0.0203419 -0.019353 -0.0183667 -0.0173833 -0.0164026 -0.0154297 -0.0144698 -0.0135227 -0.0125886 -0.0116674 -0.0107592 -0.00986379 -0.00898134 -0.00812199 -0.00729591 -0.00650311 -0.00574359 -0.00501734 -0.00432436 -0.00366467 -0.00303824 -0.00245687 -0.00193233 -0.0014646 -0.00105371 -0.000699635 -0.000402388 -0.000161966 2.16308e-05 0.000162098 0.000273129 0.000354726 0.000406888 0.000429614 0.000422906 0.000386763 0.000321184 0.000245907 0.000180666 0.000125463 8.0296e-05 4.51665e-05 2.0074e-05 5.0185e-06 0 0 4.91085e-06 1.96434e-05 4.41976e-05 7.85736e-05 0.000122771 0.000176791 0.000240632 0.000314294 0.000375545 0.000402148 0.000394106 0.000351416 0.00027408 0.000162097 1.54683e-05 -0.000165807 -0.000395307 -0.000686609 -0.00103971 -0.00145462 -0.00193133 -0.00246983 -0.00307015 -0.00373226 -0.00444159 -0.00518356 -0.00595816 -0.0067654 -0.00760528 -0.00847779 -0.00938294 -0.0103207 -0.0112808 -0.0122528 -0.0132367 -0.0142326 -0.0152403 -0.0162601 -0.0172917 -0.0183353 -0.0193875 -0.0204452 -0.0215082 -0.0225767 -0.0236506 -0.02473 -0.0258147 -0.0269049 -0.0279791 -0.0290159 -0.0300153 -0.0309773 -0.0319019 -0.0327891 -0.0336389 -0.0344513 -0.0351954 -0.0358403 -0.036386 -0.0368325 -0.0371798 -0.0374278 -0.0375766 -0.0376262 -0.0375766 -0.0374278 -0.0371798 -0.0368325 -0.036386 -0.0358403 -0.0351954 -0.0344513 -0.0336389 -0.0327891 -0.0319019 -0.0309773 -0.0300153 -0.0290159 -0.0279791 -0.0269049 -0.0258147 -0.02473 -0.0236506 -0.0225767 -0.0215082 -0.0204452 -0.0193875 -0.0183353 -0.0172917 -0.0162601 -0.0152403 -0.0142326 -0.0132367 -0.0122528 -0.0112808 -0.0103207 -0.00938294 -0.00847779 -0.00760528 -0.0067654 -0.00595816 -0.00518356 -0.00444159 -0.00373226 -0.00307015 -0.00246983 -0.00193133 -0.00145462 -0.00103971 -0.000686609 -0.000395307 -0.000165807 1.54684e-05 0.000162098 0.00027408 0.000351416 0.000394106 0.000402148 0.000375545 0.000314294 0.000240632 0.000176791 0.000122771 7.85736e-05 4.41976e-05 1.96434e-05 4.91085e-06 0 0 4.67352e-06 1.86941e-05 4.20617e-05 7.47763e-05 0.000116838 0.000168247 0.000229002 0.000299105 0.000353711 0.000367976 0.000341901 0.000275485 0.000168728 2.16307e-05 -0.000165807 -0.000393586 -0.00067485 -0.00102274 -0.00143726 -0.00191841 -0.00246619 -0.00308059 -0.00376163 -0.00450929 -0.00530584 -0.00613355 -0.00699241 -0.00788242 -0.00880359 -0.0097559 -0.0107394 -0.011754 -0.0127894 -0.0138353 -0.0148916 -0.0159584 -0.0170357 -0.0181234 -0.0192215 -0.0203302 -0.0214483 -0.022575 -0.0237103 -0.0248542 -0.0260067 -0.0271678 -0.0283374 -0.0295157 -0.0306792 -0.0318048 -0.0328923 -0.0339419 -0.0349534 -0.0359269 -0.0368624 -0.03776 -0.0385836 -0.0392974 -0.0399014 -0.0403955 -0.0407799 -0.0410544 -0.0412192 -0.0412741 -0.0412192 -0.0410544 -0.0407799 -0.0403955 -0.0399014 -0.0392974 -0.0385836 -0.03776 -0.0368624 -0.0359269 -0.0349534 -0.0339419 -0.0328923 -0.0318048 -0.0306792 -0.0295157 -0.0283374 -0.0271678 -0.0260067 -0.0248542 -0.0237103 -0.022575 -0.0214483 -0.0203302 -0.0192215 -0.0181234 -0.0170357 -0.0159584 -0.0148916 -0.0138353 -0.0127894 -0.011754 -0.0107394 -0.0097559 -0.00880359 -0.00788242 -0.00699241 -0.00613355 -0.00530584 -0.00450929 -0.00376163 -0.00308059 -0.00246619 -0.00191841 -0.00143726 -0.00102274 -0.000674849 -0.000393586 -0.000165807 2.16308e-05 0.000168728 0.000275485 0.000341901 0.000367976 0.000353711 0.000299105 0.000229002 0.000168247 0.000116838 7.47763e-05 4.20617e-05 1.86941e-05 4.67352e-06 0 0 4.18532e-06 1.67413e-05 3.76679e-05 6.69651e-05 0.000104633 0.000150672 0.000205081 0.000267861 0.000311725 0.000309389 0.000260852 0.000166113 2.5174e-05 -0.000161966 -0.000395307 -0.00067485 -0.00101243 -0.00141989 -0.00189723 -0.00244445 -0.00306154 -0.00374852 -0.00450537 -0.0053321 -0.00620725 -0.00710935 -0.0080384 -0.0089944 -0.00997736 -0.0109873 -0.0120241 -0.0130879 -0.0141689 -0.0152574 -0.0163533 -0.0174566 -0.0185674 -0.0196856 -0.0208112 -0.0219443 -0.0230875 -0.0242437 -0.0254127 -0.0265946 -0.0277893 -0.028997 -0.0302175 -0.0314509 -0.0326726 -0.033858 -0.0350071 -0.03612 -0.0371965 -0.0382368 -0.0392407 -0.0402084 -0.0410986 -0.0418701 -0.0425229 -0.043057 -0.0434724 -0.0437691 -0.0439472 -0.0440065 -0.0439472 -0.0437691 -0.0434724 -0.043057 -0.0425229 -0.0418701 -0.0410986 -0.0402084 -0.0392407 -0.0382368 -0.0371965 -0.03612 -0.0350071 -0.033858 -0.0326726 -0.0314509 -0.0302175 -0.028997 -0.0277893 -0.0265946 -0.0254127 -0.0242437 -0.0230875 -0.0219443 -0.0208112 -0.0196856 -0.0185674 -0.0174566 -0.0163533 -0.0152574 -0.0141689 -0.0130879 -0.0120241 -0.0109873 -0.00997736 -0.0089944 -0.0080384 -0.00710935 -0.00620725 -0.0053321 -0.00450537 -0.00374852 -0.00306154 -0.00244445 -0.00189723 -0.00141989 -0.00101243 -0.000674849 -0.000395307 -0.000161966 2.51741e-05 0.000166113 0.000260852 0.000309389 0.000311725 0.000267861 0.000205081 0.000150672 0.000104633 6.69651e-05 3.76679e-05 1.67413e-05 4.18532e-06 0 0 3.32508e-06 1.33003e-05 2.99257e-05 5.32012e-05 8.31269e-05 0.000119703 0.000162929 0.000212805 0.000240051 0.000215385 0.000138809 1.03208e-05 -0.000170078 -0.000402388 -0.000686609 -0.00102274 -0.00141989 -0.00188717 -0.00242457 -0.0030321 -0.00370975 -0.00445752 -0.00527543 -0.00616346 -0.00709563 -0.00804596 -0.00901445 -0.0100011 -0.0110059 -0.0120289 -0.01307 -0.0141293 -0.0151986 -0.0162697 -0.0173427 -0.0184174 -0.019494 -0.0205724 -0.0216527 -0.0227347 -0.0238272 -0.0249385 -0.0260688 -0.0272179 -0.028386 -0.029573 -0.0307789 -0.0320037 -0.0332227 -0.0344112 -0.0355693 -0.036697 -0.0377941 -0.0388609 -0.0398971 -0.0409029 -0.0418315 -0.0426364 -0.0433174 -0.0438745 -0.0443079 -0.0446175 -0.0448032 -0.0448651 -0.0448032 -0.0446175 -0.0443079 -0.0438745 -0.0433174 -0.0426364 -0.0418315 -0.0409029 -0.0398971 -0.0388609 -0.0377941 -0.036697 -0.0355693 -0.0344112 -0.0332227 -0.0320037 -0.0307789 -0.029573 -0.028386 -0.0272179 -0.0260688 -0.0249385 -0.0238272 -0.0227347 -0.0216527 -0.0205724 -0.019494 -0.0184174 -0.0173427 -0.0162697 -0.0151986 -0.0141293 -0.01307 -0.0120289 -0.0110059 -0.0100011 -0.00901445 -0.00804596 -0.00709563 -0.00616346 -0.00527543 -0.00445752 -0.00370975 -0.0030321 -0.00242457 -0.00188717 -0.00141989 -0.00102274 -0.000686609 -0.000402388 -0.000170078 1.03209e-05 0.000138809 0.000215385 0.000240051 0.000212805 0.000162929 0.000119703 8.31269e-05 5.32012e-05 2.99257e-05 1.33003e-05 3.32508e-06 0 0 2.09279e-06 8.37114e-06 1.88351e-05 3.34846e-05 5.23197e-05 7.53403e-05 0.000102547 0.000133938 0.000138687 8.59652e-05 -2.42281e-05 -0.000191893 -0.000417028 -0.000699635 -0.00103971 -0.00143726 -0.00189723 -0.00242457 -0.00301928 -0.00368135 -0.0044108 -0.00520761 -0.00607179 -0.00700335 -0.00797097 -0.00894338 -0.00992056 -0.0109025 -0.0118893 -0.0128808 -0.0138771 -0.0148782 -0.0158784 -0.0168723 -0.0178598 -0.0188409 -0.0198156 -0.020784 -0.0217459 -0.0227015 -0.0236672 -0.0246595 -0.0256786 -0.0267243 -0.0277967 -0.0288958 -0.0300216 -0.031174 -0.0323295 -0.0334645 -0.0345789 -0.0356729 -0.0367463 -0.0377992 -0.0388316 -0.0398434 -0.0407824 -0.0415962 -0.0422848 -0.0428482 -0.0432864 -0.0435994 -0.0437872 -0.0438498 -0.0437872 -0.0435994 -0.0432864 -0.0428482 -0.0422848 -0.0415962 -0.0407824 -0.0398434 -0.0388316 -0.0377992 -0.0367463 -0.0356729 -0.0345789 -0.0334645 -0.0323295 -0.031174 -0.0300216 -0.0288958 -0.0277967 -0.0267243 -0.0256786 -0.0246595 -0.0236672 -0.0227015 -0.0217459 -0.020784 -0.0198156 -0.0188409 -0.0178598 -0.0168723 -0.0158784 -0.0148782 -0.0138771 -0.0128808 -0.0118893 -0.0109025 -0.00992056 -0.00894338 -0.00797097 -0.00700335 -0.00607179 -0.00520761 -0.0044108 -0.00368135 -0.00301928 -0.00242457 -0.00189723 -0.00143726 -0.00103971 -0.000699635 -0.000417028 -0.000191893 -2.42282e-05 8.59651e-05 0.000138687 0.000133938 0.000102546 7.53403e-05 5.23196e-05 3.34846e-05 1.88351e-05 8.37114e-06 2.09279e-06 0 0 4.88448e-07 1.95379e-06 4.39603e-06 7.81516e-06 1.22112e-05 1.75841e-05 2.39339e-05 3.12607e-05 7.63531e-06 -7.88711e-05 -0.000228258 -0.000440527 -0.000715676 -0.00105371 -0.00145462 -0.00191841 -0.00244445 -0.0030321 -0.00368135 -0.00439222 -0.00516469 -0.00599878 -0.00689447 -0.00785178 -0.00883329 -0.00980161 -0.0107567 -0.0116987 -0.0126274 -0.0135429 -0.0144453 -0.0153344 -0.0162084 -0.0170652 -0.0179047 -0.0187271 -0.0195322 -0.0203202 -0.0210909 -0.0218445 -0.0226075 -0.0234068 -0.0242422 -0.0251137 -0.0260215 -0.0269654 -0.0279456 -0.0289618 -0.029993 -0.0310177 -0.0320359 -0.0330477 -0.0340529 -0.0350518 -0.0360441 -0.03703 -0.0379512 -0.0387497 -0.0394252 -0.039978 -0.0404079 -0.040715 -0.0408992 -0.0409606 -0.0408992 -0.040715 -0.0404079 -0.039978 -0.0394252 -0.0387497 -0.0379512 -0.03703 -0.0360441 -0.0350518 -0.0340529 -0.0330477 -0.0320359 -0.0310177 -0.029993 -0.0289618 -0.0279456 -0.0269654 -0.0260215 -0.0251137 -0.0242422 -0.0234068 -0.0226075 -0.0218445 -0.0210909 -0.0203202 -0.0195322 -0.0187271 -0.0179047 -0.0170652 