<?xml version="1.0"?> 
<VTKFile type="StructuredGrid" version="0.1"> 
<StructuredGrid WholeExtent="0 128 0 128 0 0"> 
<Piece Extent="0 128 0 128 0 0"> 
<PointData>
<DataArray type="Float32" Name="u" format="ascii" NumberOfComponents="1"> 
0 0 0 0 0 0 0 0 0 0 0 0 0 0 0 0 0 0 0 0 0 0 0 0 0 0 0 0 0 0 0 0 0 0 0 0 0 0 0 0 0 0 0 0 0 0 0 0 0 0 0 0 0 0 0 0 0 0 0 0 0 0 0 0 0 0 0 0 0 0 0 0 0 0 0 0 0 0 0 0 0 0 0 0 0 0 0 0 0 0 0 0 0 0 0 0 0 0 0 0 0 0 0 0 0 0 0 0 0 0 0 0 0 0 0 0 0 0 0 0 0 0 0 0 0 0 0 0 0 0 -6.32464e-08 -2.52986e-07 -5.69218e-07 -1.01194e-06 -1.58116e-06 -2.27687e-06 -3.09907e-06 -4.04777e-06 -5.14104e-06 -6.39698e-06 -7.81558e-06 -9.39684e-06 -1.11408e-05 -1.30473e-05 -1.51166e-05 -1.73485e-05 -1.96343e-05 -2.18653e-05 -2.40415e-05 -2.61628e-05 -2.82293e-05 -3.0241e-05 -3.21978e-05 -3.40998e-05 -3.58772e-05 -3.74602e-05 -3.88488e-05 -4.00431e-05 -4.1043e-05 -4.18484e-05 -4.24595e-05 -4.28763e-05 -4.30876e-05 -4.30826e-05 -4.28611e-05 -4.24233e-05 -4.1769e-05 -4.08984e-05 -3.98114e-05 -3.8508e-05 -3.70393e-05 -3.54564e-05 -3.37592e-05 -3.19478e-05 -3.00222e-05 -2.79824e-05 -2.58283e-05 -2.35601e-05 -2.12701e-05 -1.90509e-05 -1.69024e-05 -1.48247e-05 -1.28178e-05 -1.08816e-05 -9.01617e-06 -7.22152e-06 -5.57221e-06 -4.1428e-06 -2.93331e-06 -1.94372e-06 -1.17404e-06 -6.2427e-07 -2.94408e-07 -1.84454e-07 -2.94408e-07 -6.2427e-07 -1.17404e-06 -1.94372e-06 -2.93331e-06 -4.1428e-06 -5.5722e-06 -7.22152e-06 -9.01616e-06 -1.08816e-05 -1.28178e-05 -1.48247e-05 -1.69024e-05 -1.90509e-05 -2.12701e-05 -2.35601e-05 -2.58283e-05 -2.79824e-05 -3.00222e-05 -3.19478e-05 -3.37592e-05 -3.54564e-05 -3.70393e-05 -3.8508e-05 -3.98114e-05 -4.08984e-05 -4.1769e-05 -4.24233e-05 -4.28611e-05 -4.30826e-05 -4.30876e-05 -4.28763e-05 -4.24596e-05 -4.18484e-05 -4.1043e-05 -4.00431e-05 -3.88488e-05 -3.74602e-05 -3.58772e-05 -3.40998e-05 -3.21978e-05 -3.0241e-05 -2.82293e-05 -2.61628e-05 -2.40415e-05 -2.18653e-05 -1.96343e-05 -1.73485e-05 -1.51166e-05 -1.30474e-05 -1.11408e-05 -9.39685e-06 -7.81558e-06 -6.39698e-06 -5.14105e-06 -4.04777e-06 -3.09908e-06 -2.27687e-06 -1.58116e-06 -1.01194e-06 -5.69218e-07 -2.52986e-07 -6.32465e-08 0 0 -2.52986e-07 -1.01194e-06 -2.27687e-06 -4.04777e-06 -6.32464e-06 -9.10748e-06 -1.23963e-05 -1.61911e-05 -2.05642e-05 -2.55879e-05 -3.12623e-05 -3.75874e-05 -4.4563e-05 -5.21894e-05 -6.04664e-05 -6.9394e-05 -7.85373e-05 -8.74613e-05 -9.61659e-05 -0.000104651 -0.000112917 -0.000120964 -0.000128791 -0.000136399 -0.000143509 -0.000149841 -0.000155395 -0.000160172 -0.000164172 -0.000167394 -0.000169838 -0.000171505 -0.00017235 -0.00017233 -0.000171444 -0.000169693 -0.000167076 -0.000163594 -0.000159246 -0.000154032 -0.000148157 -0.000141825 -0.000135037 -0.000127791 -0.000120089 -0.00011193 -0.000103313 -9.42403e-05 -8.50804e-05 -7.62034e-05 -6.76096e-05 -5.92988e-05 -5.1271e-05 -4.35263e-05 -3.60647e-05 -2.88861e-05 -2.22888e-05 -1.65712e-05 -1.17332e-05 -7.77488e-06 -4.69616e-06 -2.49708e-06 -1.17763e-06 -7.37815e-07 -1.17763e-06 -2.49708e-06 -4.69616e-06 -7.77488e-06 -1.17332e-05 -1.65712e-05 -2.22888e-05 -2.88861e-05 -3.60647e-05 -4.35263e-05 -5.1271e-05 -5.92988e-05 -6.76096e-05 -7.62034e-05 -8.50804e-05 -9.42403e-05 -0.000103313 -0.00011193 -0.000120089 -0.000127791 -0.000135037 -0.000141825 -0.000148157 -0.000154032 -0.000159246 -0.000163594 -0.000167076 -0.000169693 -0.000171444 -0.00017233 -0.00017235 -0.000171505 -0.000169838 -0.000167394 -0.000164172 -0.000160172 -0.000155395 -0.000149841 -0.000143509 -0.000136399 -0.000128791 -0.000120964 -0.000112917 -0.000104651 -9.6166e-05 -8.74613e-05 -7.85374e-05 -6.93941e-05 -6.04664e-05 -5.21894e-05 -4.45631e-05 -3.75874e-05 -3.12623e-05 -2.55879e-05 -2.05642e-05 -1.61911e-05 -1.23963e-05 -9.10749e-06 -6.32465e-06 -4.04777e-06 -2.27687e-06 -1.01194e-06 -2.52986e-07 0 0 -5.69218e-07 -2.27687e-06 -5.12296e-06 -9.10748e-06 -1.42304e-05 -2.04918e-05 -2.78917e-05 -3.64299e-05 -4.62694e-05 -5.75728e-05 -7.03402e-05 -8.45715e-05 -0.000100267 -0.000117426 -0.000136049 -0.000156137 -0.000176709 -0.000196788 -0.000216373 -0.000235465 -0.000254064 -0.000272169 -0.00028978 -0.000306898 -0.000322895 -0.000337142 -0.00034964 -0.000360388 -0.000369387 -0.000376636 -0.000382136 -0.000385886 -0.000387789 -0.000387743 -0.00038575 -0.000381809 -0.000375921 -0.000368086 -0.000358303 -0.000346572 -0.000333354 -0.000319107 -0.000303833 -0.00028753 -0.0002702 -0.000251842 -0.000232455 -0.000212041 -0.000191431 -0.000171458 -0.000152122 -0.000133422 -0.00011536 -9.79342e-05 -8.11455e-05 -6.49937e-05 -5.01499e-05 -3.72852e-05 -2.63998e-05 -1.74935e-05 -1.05664e-05 -5.61843e-06 -2.64967e-06 -1.66008e-06 -2.64967e-06 -5.61843e-06 -1.05664e-05 -1.74935e-05 -2.63998e-05 -3.72852e-05 -5.01498e-05 -6.49936e-05 -8.11455e-05 -9.79342e-05 -0.00011536 -0.000133422 -0.000152122 -0.000171458 -0.000191431 -0.000212041 -0.000232455 -0.000251842 -0.0002702 -0.00028753 -0.000303833 -0.000319107 -0.000333354 -0.000346572 -0.000358303 -0.000368086 -0.000375921 -0.000381809 -0.00038575 -0.000387743 -0.000387789 -0.000385886 -0.000382136 -0.000376636 -0.000369387 -0.000360388 -0.00034964 -0.000337142 -0.000322895 -0.000306898 -0.00028978 -0.000272169 -0.000254064 -0.000235465 -0.000216373 -0.000196788 -0.000176709 -0.000156137 -0.000136049 -0.000117426 -0.000100267 -8.45716e-05 -7.03403e-05 -5.75729e-05 -4.62694e-05 -3.643e-05 -2.78917e-05 -2.04919e-05 -1.42305e-05 -9.10749e-06 -5.12296e-06 -2.27687e-06 -5.69218e-07 0 0 -1.01194e-06 -4.04777e-06 -9.10748e-06 -1.61911e-05 -2.52986e-05 -3.64299e-05 -4.95852e-05 -6.47643e-05 -8.22567e-05 -0.000102352 -0.000125049 -0.000150349 -0.000178252 -0.000208758 -0.000241866 -0.000277576 -0.000314149 -0.000349845 -0.000384664 -0.000418605 -0.000451669 -0.000483856 -0.000515165 -0.000545597 -0.000574035 -0.000599363 -0.000621581 -0.000640689 -0.000656687 -0.000669575 -0.000679353 -0.00068602 -0.000689402 -0.000689321 -0.000685778 -0.000678772 -0.000668305 -0.000654375 -0.000636983 -0.000616128 -0.000592629 -0.000567302 -0.000540147 -0.000511165 -0.000480355 -0.000447718 -0.000413254 -0.000376961 -0.000340321 -0.000304814 -0.000270438 -0.000237195 -0.000205084 -0.000174105 -0.000144259 -0.000115544 -8.91553e-05 -6.62848e-05 -4.69329e-05 -3.10995e-05 -1.87847e-05 -9.98833e-06 -4.71053e-06 -2.95126e-06 -4.71053e-06 -9.98832e-06 -1.87846e-05 -3.10995e-05 -4.69329e-05 -6.62848e-05 -8.91553e-05 -0.000115544 -0.000144259 -0.000174105 -0.000205084 -0.000237195 -0.000270438 -0.000304814 -0.000340321 -0.000376961 -0.000413254 -0.000447718 -0.000480355 -0.000511165 -0.000540147 -0.000567302 -0.000592629 -0.000616128 -0.000636983 -0.000654375 -0.000668305 -0.000678772 -0.000685778 -0.000689321 -0.000689402 -0.00068602 -0.000679353 -0.000669575 -0.000656687 -0.000640689 -0.000621581 -0.000599363 -0.000574035 -0.000545597 -0.000515165 -0.000483856 -0.000451669 -0.000418605 -0.000384664 -0.000349845 -0.000314149 -0.000277576 -0.000241866 -0.000208758 -0.000178252 -0.00015035 -0.000125049 -0.000102352 -8.22568e-05 -6.47644e-05 -4.95852e-05 -3.643e-05 -2.52986e-05 -1.61911e-05 -9.10749e-06 -4.04777e-06 -1.01194e-06 0 0 -1.58116e-06 -6.32464e-06 -1.42304e-05 -2.52986e-05 -3.9529e-05 -5.69218e-05 -7.74768e-05 -0.000101194 -0.000128526 -0.000159924 -0.000195389 -0.000234921 -0.000278519 -0.000326184 -0.000377915 -0.000433713 -0.000490858 -0.000546633 -0.000601037 -0.00065407 -0.000705733 -0.000756024 -0.000804945 -0.000852495 -0.00089693 -0.000936505 -0.000971221 -0.00100108 -0.00102607 -0.00104621 -0.00106149 -0.00107191 -0.00107719 -0.00107706 -0.00107153 -0.00106058 -0.00104423 -0.00102246 -0.000995285 -0.0009627 -0.000925982 -0.000886409 -0.00084398 -0.000798695 -0.000750555 -0.00069956 -0.000645709 -0.000589002 -0.000531752 -0.000476272 -0.00042256 -0.000370617 -0.000320444 -0.000272039 -0.000225404 -0.000180538 -0.000139305 -0.00010357 -7.33327e-05 -4.8593e-05 -2.9351e-05 -1.56068e-05 -7.3602e-06 -4.61135e-06 -7.3602e-06 -1.56068e-05 -2.9351e-05 -4.8593e-05 -7.33327e-05 -0.00010357 -0.000139305 -0.000180538 -0.000225404 -0.000272039 -0.000320444 -0.000370617 -0.00042256 -0.000476271 -0.000531752 -0.000589002 -0.000645709 -0.00069956 -0.000750555 -0.000798695 -0.00084398 -0.000886409 -0.000925982 -0.0009627 -0.000995285 -0.00102246 -0.00104423 -0.00106058 -0.00107153 -0.00107706 -0.00107719 -0.00107191 -0.00106149 -0.00104621 -0.00102607 -0.00100108 -0.000971221 -0.000936505 -0.00089693 -0.000852495 -0.000804945 -0.000756025 -0.000705733 -0.000654071 -0.000601037 -0.000546633 -0.000490859 -0.000433713 -0.000377915 -0.000326184 -0.000278519 -0.000234921 -0.00019539 -0.000159925 -0.000128526 -0.000101194 -7.74769e-05 -5.69218e-05 -3.9529e-05 -2.52986e-05 -1.42305e-05 -6.32465e-06 -1.58116e-06 0 0 -2.27687e-06 -9.10748e-06 -2.04918e-05 -3.64299e-05 -5.69218e-05 -8.19673e-05 -0.000111567 -0.00014572 -0.000185078 -0.000230291 -0.000281361 -0.000338286 -0.000401067 -0.000469705 -0.000544197 -0.000624546 -0.000706836 -0.000787152 -0.000865494 -0.000941861 -0.00101626 -0.00108868 -0.00115912 -0.00122759 -0.00129158 -0.00134857 -0.00139856 -0.00144155 -0.00147755 -0.00150654 -0.00152854 -0.00154355 -0.00155115 -0.00155097 -0.001543 -0.00152724 -0.00150369 -0.00147234 -0.00143321 -0.00138629 -0.00133341 -0.00127643 -0.00121533 -0.00115012 -0.0010808 -0.00100737 -0.000929821 -0.000848163 -0.000765723 -0.000685831 -0.000608486 -0.000533689 -0.000461439 -0.000391737 -0.000324582 -0.000259975 -0.000200599 -0.000149141 -0.000105599 -6.99739e-05 -4.22655e-05 -2.24737e-05 -1.05987e-05 -6.64034e-06 -1.05987e-05 -2.24737e-05 -4.22655e-05 -6.99739e-05 -0.000105599 -0.000149141 -0.000200599 -0.000259975 -0.000324582 -0.000391737 -0.000461439 -0.000533689 -0.000608486 -0.000685831 -0.000765723 -0.000848163 -0.000929821 -0.00100737 -0.0010808 -0.00115012 -0.00121533 -0.00127643 -0.00133341 -0.00138629 -0.00143321 -0.00147234 -0.00150369 -0.00152724 -0.001543 -0.00155097 -0.00155115 -0.00154355 -0.00152854 -0.00150654 -0.00147755 -0.00144155 -0.00139856 -0.00134857 -0.00129158 -0.00122759 -0.00115912 -0.00108868 -0.00101626 -0.000941862 -0.000865494 -0.000787152 -0.000706836 -0.000624547 -0.000544198 -0.000469705 -0.000401068 -0.000338286 -0.000281361 -0.000230291 -0.000185078 -0.00014572 -0.000111567 -8.19674e-05 -5.69218e-05 -3.643e-05 -2.04919e-05 -9.10749e-06 -2.27687e-06 0 0 -3.09907e-06 -1.23963e-05 -2.78917e-05 -4.95852e-05 -7.74768e-05 -0.000111567 -0.000151855 -0.000198341 -0.000251911 -0.000313452 -0.000382963 -0.000460445 -0.000545897 -0.00063932 -0.000740713 -0.000850077 -0.000962082 -0.0010714 -0.00117803 -0.00128198 -0.00138324 -0.00148181 -0.00157769 -0.00167089 -0.00175798 -0.00183555 -0.00190359 -0.00196211 -0.0020111 -0.00205057 -0.00208052 -0.00210094 -0.00211129 -0.00211105 -0.00210019 -0.00207874 -0.00204668 -0.00200402 -0.00195076 -0.00188689 -0.00181493 -0.00173736 -0.0016542 -0.00156544 -0.00147109 -0.00137114 -0.00126559 -0.00115444 -0.00104223 -0.000933492 -0.000828217 -0.00072641 -0.00062807 -0.000533197 -0.000441792 -0.000353854 -0.000273038 -0.000202997 -0.000143732 -9.52423e-05 -5.7528e-05 -3.05893e-05 -1.4426e-05 -9.03824e-06 -1.4426e-05 -3.05892e-05 -5.7528e-05 -9.52422e-05 -0.000143732 -0.000202997 -0.000273038 -0.000353854 -0.000441792 -0.000533197 -0.00062807 -0.00072641 -0.000828217 -0.000933492 -0.00104223 -0.00115444 -0.00126559 -0.00137114 -0.00147109 -0.00156544 -0.0016542 -0.00173736 -0.00181493 -0.00188689 -0.00195076 -0.00200402 -0.00204668 -0.00207874 -0.00210019 -0.00211105 -0.00211129 -0.00210094 -0.00208052 -0.00205057 -0.0020111 -0.00196211 -0.00190359 -0.00183555 -0.00175798 -0.00167089 -0.00157769 -0.00148181 -0.00138324 -0.00128198 -0.00117803 -0.0010714 -0.000962083 -0.000850077 -0.000740714 -0.00063932 -0.000545898 -0.000460445 -0.000382964 -0.000313452 -0.000251911 -0.000198341 -0.000151855 -0.000111567 -7.74769e-05 -4.95852e-05 -2.78917e-05 -1.23963e-05 -3.09908e-06 0 0 -4.04777e-06 -1.61911e-05 -3.64299e-05 -6.47643e-05 -0.000101194 -0.00014572 -0.000198341 -0.000259057 -0.000329027 -0.000409407 -0.000500197 -0.000601398 -0.000713009 -0.00083503 -0.000967462 -0.0011103 -0.0012566 -0.00139938 -0.00153866 -0.00167442 -0.00180668 -0.00193542 -0.00206066 -0.00218239 -0.00229614 -0.00239745 -0.00248633 -0.00256276 -0.00262675 -0.0026783 -0.00271741 -0.00274408 -0.00275761 -0.00275728 -0.00274311 -0.00271509 -0.00267322 -0.0026175 -0.00254793 -0.00246451 -0.00237051 -0.00226921 -0.00216059 -0.00204466 -0.00192142 -0.00179087 -0.00165301 -0.00150785 -0.00136129 -0.00121926 -0.00108175 -0.00094878 -0.000820336 -0.000696421 -0.000577035 -0.000462177 -0.000356621 -0.000265139 -0.000187732 -0.000124398 -7.51386e-05 -3.99533e-05 -1.88421e-05 -1.1805e-05 -1.88421e-05 -3.99533e-05 -7.51386e-05 -0.000124398 -0.000187732 -0.000265139 -0.000356621 -0.000462177 -0.000577034 -0.000696421 -0.000820336 -0.00094878 -0.00108175 -0.00121925 -0.00136129 -0.00150785 -0.00165301 -0.00179087 -0.00192142 -0.00204466 -0.00216059 -0.00226921 -0.00237051 -0.00246451 -0.00254793 -0.0026175 -0.00267322 -0.00271509 -0.00274311 -0.00275728 -0.00275761 -0.00274408 -0.00271741 -0.0026783 -0.00262675 -0.00256276 -0.00248633 -0.00239745 -0.00229614 -0.00218239 -0.00206066 -0.00193542 -0.00180668 -0.00167442 -0.00153866 -0.00139938 -0.0012566 -0.00111031 -0.000967463 -0.000835031 -0.000713009 -0.000601398 -0.000500197 -0.000409407 -0.000329027 -0.000259057 -0.000198341 -0.00014572 -0.000101194 -6.47644e-05 -3.643e-05 -1.61911e-05 -4.04777e-06 0 0 -5.14104e-06 -2.05642e-05 -4.62694e-05 -8.22567e-05 -0.000128526 -0.000185078 -0.000251911 -0.000329027 -0.000417799 -0.000519602 -0.000634435 -0.0007623 -0.000903195 -0.00105712 -0.00122408 -0.00140406 -0.00158821 -0.00176763 -0.00194233 -0.0021123 -0.00227756 -0.00243809 -0.00259391 -0.002745 -0.00288568 -0.00301028 -0.00311878 -0.00321118 -0.0032875 -0.00334772 -0.00339184 -0.00341988 -0.00343096 -0.00342423 -0.00339969 -0.00335733 -0.00329716 -0.00321918 -0.00312338 -0.00300977 -0.00288262 -0.0027462 -0.00260052 -0.00244556 -0.00228134 -0.00210785 -0.00192509 -0.00173307 -0.00153946 -0.00135196 -0.00117057 -0.000995282 -0.0008261 -0.000663023 -0.000506051 -0.000355186 -0.000216612 -9.65138e-05 5.10737e-06 8.8252e-05 0.00015292 0.000199111 0.000226826 0.000236065 0.000226826 0.000199112 0.00015292 8.8252e-05 5.10744e-06 -9.65137e-05 -0.000216611 -0.000355186 -0.000506051 -0.000663023 -0.0008261 -0.000995282 -0.00117057 -0.00135196 -0.00153946 -0.00173307 -0.00192509 -0.00210785 -0.00228134 -0.00244556 -0.00260052 -0.0027462 -0.00288262 -0.00300977 -0.00312338 -0.00321918 -0.00329716 -0.00335733 -0.00339969 -0.00342423 -0.00343096 -0.00341988 -0.00339184 -0.00334772 -0.0032875 -0.00321118 -0.00311878 -0.00301028 -0.00288568 -0.002745 -0.00259391 -0.0024381 -0.00227756 -0.0021123 -0.00194233 -0.00176763 -0.00158821 -0.00140407 -0.00122408 -0.00105712 -0.000903195 -0.0007623 -0.000634436 -0.000519602 -0.000417799 -0.000329027 -0.000251911 -0.000185078 -0.000128526 -8.22568e-05 -4.62694e-05 -2.05642e-05 -5.14105e-06 0 0 -6.39698e-06 -2.55879e-05 -5.75728e-05 -0.000102352 -0.000159924 -0.000230291 -0.000313452 -0.000409407 -0.000519602 -0.000645483 -0.000787052 -0.000944307 -0.00111725 -0.00130588 -0.00151019 -0.00173019 -0.00195474 -0.00217268 -0.00238401 -0.00258875 -0.00278687 -0.0029784 -0.00316332 -0.00334164 -0.00350624 -0.00365002 -0.00377296 -0.00387507 -0.00395636 -0.00401681 -0.00405644 -0.00407523 -0.00407222 -0.00404643 -0.00399786 -0.00392651 -0.00383238 -0.00371546 -0.00357577 -0.00341329 -0.00323368 -0.00304258 -0.00284 -0.00262594 -0.00240039 -0.00216335 -0.00191483 -0.00165482 -0.00139336 -0.00114047 -0.000896147 -0.000660398 -0.000433222 -0.000214617 -4.58469e-06 0.000196876 0.000381728 0.000541932 0.00067749 0.000788401 0.000874665 0.000936282 0.000973253 0.000985576 0.000973253 0.000936283 0.000874665 0.000788401 0.00067749 0.000541933 0.000381728 0.000196876 -4.58456e-06 -0.000214617 -0.000433222 -0.000660398 -0.000896147 -0.00114047 -0.00139336 -0.00165482 -0.00191483 -0.00216335 -0.00240039 -0.00262594 -0.00284 -0.00304258 -0.00323368 -0.00341329 -0.00357577 -0.00371546 -0.00383238 -0.00392651 -0.00399786 -0.00404643 -0.00407222 -0.00407523 -0.00405644 -0.00401681 -0.00395636 -0.00387508 -0.00377296 -0.00365002 -0.00350625 -0.00334164 -0.00316332 -0.0029784 -0.00278688 -0.00258875 -0.00238401 -0.00217268 -0.00195474 -0.00173019 -0.00151019 -0.00130588 -0.00111725 -0.000944307 -0.000787052 -0.000645484 -0.000519602 -0.000409407 -0.000313452 -0.000230291 -0.000159925 -0.000102352 -5.75729e-05 -2.55879e-05 -6.39698e-06 0 0 -7.81558e-06 -3.12623e-05 -7.03402e-05 -0.000125049 -0.000195389 -0.000281361 -0.000382963 -0.000500197 -0.000634435 -0.000787052 -0.000958046 -0.00114742 -0.00135517 -0.0015813 -0.0018258 -0.00208869 -0.00235619 -0.00261453 -0.00286371 -0.00310374 -0.00333462 -0.00355634 -0.00376891 -0.00397232 -0.00415782 -0.00431668 -0.00444888 -0.00455444 -0.00463334 -0.00468559 -0.00471119 -0.00471014 -0.00468139 -0.00462389 -0.00453763 -0.00442263 -0.00427886 -0.00410635 -0.00390509 -0.00367507 -0.00342369 -0.00315835 -0.00287905 -0.00258579 -0.00227856 -0.00195737 -0.00162222 -0.0012731 -0.000922968 -0.000584761 -0.000258481 5.58713e-05 0.000358297 0.000648795 0.000927366 0.00119401 0.0014384 0.0016502 0.00182942 0.00197605 0.0020901 0.00217156 0.00222044 0.00223673 0.00222044 0.00217156 0.0020901 0.00197605 0.00182942 0.0016502 0.0014384 0.00119401 0.000927366 0.000648795 0.000358297 5.58715e-05 -0.000258481 -0.000584761 -0.000922968 -0.0012731 -0.00162222 -0.00195737 -0.00227856 -0.00258579 -0.00287905 -0.00315835 -0.00342369 -0.00367507 -0.00390509 -0.00410635 -0.00427886 -0.00442263 -0.00453763 -0.00462389 -0.00468139 -0.00471015 -0.00471119 -0.00468559 -0.00463334 -0.00455444 -0.00444888 -0.00431668 -0.00415782 -0.00397232 -0.00376891 -0.00355634 -0.00333462 -0.00310375 -0.00286371 -0.00261453 -0.00235619 -0.00208869 -0.00182581 -0.0015813 -0.00135517 -0.00114742 -0.000958047 -0.000787052 -0.000634436 -0.000500197 -0.000382964 -0.000281361 -0.00019539 -0.000125049 -7.03403e-05 -3.12623e-05 -7.81558e-06 0 0 -9.39684e-06 -3.75874e-05 -8.45715e-05 -0.000150349 -0.000234921 -0.000338286 -0.000460445 -0.000601398 -0.0007623 -0.000944307 -0.00114742 -0.00137164 -0.00161696 -0.00188338 -0.00217092 -0.00247955 -0.00279256 -0.00309318 -0.00338143 -0.0036573 -0.0039208 -0.00417191 -0.00441065 -0.00463702 -0.00484042 -0.00501026 -0.00514654 -0.00524927 -0.00531844 -0.00535405 -0.00535611 -0.00532461 -0.00525847 -0.0051566 -0.005019 -0.00484568 -0.00463663 -0.00439185 -0.00411134 -0.00379511 -0.00345266 -0.00309351 -0.00271766 -0.00232511 -0.00191586 -0.00148991 -0.00104726 -0.000587909 -0.000128292 0.000315153 0.000742426 0.00115353 0.00154846 0.00192721 0.0022898 0.00263621 0.0029534 0.00322829 0.00346089 0.0036512 0.00379922 0.00390494 0.00396838 0.00398953 0.00396838 0.00390494 0.00379922 0.0036512 0.00346089 0.00322829 0.0029534 0.00263621 0.0022898 0.00192721 0.00154846 0.00115353 0.000742426 0.000315153 -0.000128292 -0.000587908 -0.00104726 -0.00148991 -0.00191586 -0.00232511 -0.00271766 -0.00309351 -0.00345266 -0.00379511 -0.00411134 -0.00439185 -0.00463663 -0.00484568 -0.005019 -0.0051566 -0.00525847 -0.00532461 -0.00535611 -0.00535406 -0.00531844 -0.00524927 -0.00514654 -0.00501026 -0.00484042 -0.00463702 -0.00441066 -0.00417191 -0.0039208 -0.0036573 -0.00338143 -0.00309318 -0.00279256 -0.00247956 -0.00217092 -0.00188339 -0.00161696 -0.00137164 -0.00114742 -0.000944307 -0.0007623 -0.000601398 -0.000460445 -0.000338286 -0.000234921 -0.00015035 -8.45716e-05 -3.75874e-05 -9.39685e-06 0 0 -1.11408e-05 -4.4563e-05 -0.000100267 -0.000178252 -0.000278519 -0.000401067 -0.000545897 -0.000713009 -0.000903195 -0.00111725 -0.00135517 -0.00161696 -0.00190261 -0.00221214 -0.00254553 -0.00290279 -0.00326385 -0.00360864 -0.00393716 -0.00424941 -0.0045454 -0.00482512 -0.00508857 -0.00533575 -0.00555403 -0.00573076 -0.00586594 -0.00595957 -0.00601166 -0.0060222 -0.00599119 -0.00591863 -0.00580345 -0.00564456 -0.00544197 -0.00519567 -0.00490566 -0.00457195 -0.00419453 -0.00377341 -0.00332058 -0.00284806 -0.00235583 -0.00184391 -0.00131229 -0.000760974 -0.000189957 0.000400758 0.000990669 0.00155927 0.00210657 0.00263257 0.00313726 0.00362064 0.00408272 0.00452349 0.00492672 0.0052762 0.0055719 0.00581384 0.00600202 0.00613643 0.00621708 0.00624396 0.00621708 0.00613643 0.00600202 0.00581384 0.0055719 0.0052762 0.00492672 0.00452349 0.00408272 0.00362064 0.00313726 0.00263257 0.00210657 0.00155927 0.000990669 0.000400758 -0.000189957 -0.000760974 -0.00131229 -0.00184391 -0.00235583 -0.00284806 -0.00332058 -0.00377341 -0.00419453 -0.00457195 -0.00490566 -0.00519567 -0.00544197 -0.00564456 -0.00580345 -0.00591863 -0.00599119 -0.0060222 -0.00601166 -0.00595957 -0.00586594 -0.00573076 -0.00555403 -0.00533576 -0.00508857 -0.00482512 -0.0045454 -0.00424942 -0.00393716 -0.00360864 -0.00326385 -0.00290279 -0.00254553 -0.00221214 -0.00190262 -0.00161696 -0.00135517 -0.00111725 -0.000903195 -0.000713009 -0.000545898 -0.000401068 -0.000278519 -0.000178252 -0.000100267 -4.45631e-05 -1.11408e-05 0 0 -1.30473e-05 -5.21894e-05 -0.000117426 -0.000208758 -0.000326184 -0.000469704 -0.00063932 -0.00083503 -0.00105712 -0.00130588 -0.0015813 -0.00188338 -0.00221214 -0.00256756 -0.00294964 -0.00335839 -0.00377006 -0.0041609 -0.0045309 -0.00488009 -0.00520844 -0.00551596 -0.00580265 -0.00606852 -0.00629866 -0.00647818 -0.00660707 -0.00668534 -0.00671299 -0.00669002 -0.00661643 -0.00649221 -0.00631634 -0.00608778 -0.00580653 -0.0054726 -0.00508597 -0.00464666 -0.00415466 -0.00360997 -0.00302746 -0.00242199 -0.00179357 -0.00114219 -0.000467849 0.000229443 0.000949692 0.0016929 0.00243391 0.0031476 0.00383396 0.004493 0.0051247 0.00572907 0.00630612 0.00685583 0.00735838 0.00779393 0.00816246 0.00846399 0.00869851 0.00886603 0.00896654 0.00900004 0.00896654 0.00886603 0.00869851 0.00846399 0.00816246 0.00779393 0.00735838 0.00685583 0.00630612 0.00572907 0.0051247 0.004493 0.00383396 0.0031476 0.00243392 0.0016929 0.000949692 0.000229444 -0.000467849 -0.00114219 -0.00179357 -0.00242199 -0.00302746 -0.00360997 -0.00415466 -0.00464666 -0.00508597 -0.0054726 -0.00580653 -0.00608778 -0.00631634 -0.00649221 -0.00661643 -0.00669002 -0.00671299 -0.00668534 -0.00660707 -0.00647818 -0.00629866 -0.00606852 -0.00580266 -0.00551596 -0.00520844 -0.00488009 -0.00453091 -0.0041609 -0.00377006 -0.00335839 -0.00294964 -0.00256756 -0.00221214 -0.00188339 -0.0015813 -0.00130588 -0.00105712 -0.000835031 -0.000639321 -0.000469705 -0.000326184 -0.000208758 -0.000117426 -5.21894e-05 -1.30474e-05 0 0 -1.51166e-05 -6.04664e-05 -0.000136049 -0.000241866 -0.000377915 -0.000544197 -0.000740713 -0.000967462 -0.00122408 -0.00151019 -0.0018258 -0.00217092 -0.00254553 -0.00294964 -0.00338325 -0.00384636 -0.00431119 -0.00474996 -0.00516267 -0.00554931 -0.0059099 -0.00624443 -0.0065529 -0.00683531 -0.0070743 -0.00725251 -0.00736994 -0.00742658 -0.00742245 -0.00735753 -0.00723183 -0.00704535 -0.00679714 -0.00648625 -0.0061127 -0.00567646 -0.00517756 -0.00461598 -0.00399172 -0.00330479 -0.00257329 -0.00181531 -0.00103086 -0.000219932 0.000617467 0.00148134 0.00237169 0.00328851 0.00420145 0.00508014 0.0059246 0.00673481 0.00751078 0.00825251 0.00896 0.00963325 0.0102484 0.0107815 0.0112326 0.0116016 0.0118887 0.0120937 0.0122168 0.0122578 0.0122168 0.0120937 0.0118887 0.0116016 0.0112326 0.0107815 0.0102484 0.00963325 0.00896 0.00825251 0.00751078 0.00673481 0.0059246 0.00508014 0.00420145 0.00328851 0.00237169 0.00148134 0.000617467 -0.000219932 -0.00103086 -0.00181531 -0.00257329 -0.00330479 -0.00399172 -0.00461598 -0.00517756 -0.00567646 -0.0061127 -0.00648625 -0.00679714 -0.00704535 -0.00723183 -0.00735753 -0.00742245 -0.00742658 -0.00736994 -0.00725251 -0.00707431 -0.00683532 -0.00655291 -0.00624444 -0.00590991 -0.00554932 -0.00516267 -0.00474996 -0.00431119 -0.00384636 -0.00338325 -0.00294964 -0.00254553 -0.00217092 -0.00182581 -0.00151019 -0.00122408 -0.000967463 -0.000740714 -0.000544198 -0.000377915 -0.000241866 -0.000136049 -6.04664e-05 -1.51166e-05 0 0 -1.73485e-05 -6.9394e-05 -0.000156137 -0.000277576 -0.000433713 -0.000624546 -0.000850077 -0.0011103 -0.00140406 -0.00173019 -0.00208869 -0.00247955 -0.00290279 -0.00335839 -0.00384636 -0.0043667 -0.00488724 -0.00537582 -0.00583244 -0.0062571 -0.0066498 -0.00701054 -0.00733932 -0.00763614 -0.00788097 -0.00805377 -0.00815454 -0.00818329 -0.00814002 -0.00802472 -0.00783739 -0.00757804 -0.00724584 -0.00683998 -0.00636046 -0.00580727 -0.00518041 -0.0044799 -0.00370572 -0.00285787 -0.00195807 -0.00102802 -6.77107e-05 0.000922847 0.00194366 0.00299472 0.00407603 0.00518759 0.00629326 0.00735689 0.00837847 0.00935801 0.0102955 0.011191 0.0120444 0.0128557 0.0135967 0.0142388 0.0147822 0.0152268 0.0155726 0.0158195 0.0159677 0.0160171 0.0159677 0.0158195 0.0155726 0.0152268 0.0147822 0.0142388 0.0135967 0.0128557 0.0120444 0.011191 0.0102955 0.00935801 0.00837847 0.00735689 0.00629326 0.00518759 0.00407603 0.00299472 0.00194366 0.000922847 -6.77107e-05 -0.00102802 -0.00195807 -0.00285787 -0.00370572 -0.0044799 -0.00518041 -0.00580727 -0.00636046 -0.00683998 -0.00724584 -0.00757804 -0.00783739 -0.00802472 -0.00814002 -0.0081833 -0.00815455 -0.00805377 -0.00788097 -0.00763614 -0.00733932 -0.00701054 -0.0066498 -0.0062571 -0.00583244 -0.00537582 -0.00488724 -0.0043667 -0.00384636 -0.00335839 -0.00290279 -0.00247956 -0.00208869 -0.00173019 -0.00140407 -0.00111031 -0.000850077 -0.000624547 -0.000433713 -0.000277576 -0.000156137 -6.93941e-05 -1.73485e-05 0 0 -1.96343e-05 -7.85373e-05 -0.000176709 -0.000314149 -0.000490858 -0.000706836 -0.000962082 -0.0012566 -0.00158821 -0.00195474 -0.00235619 -0.00279256 -0.00326385 -0.00377006 -0.00431119 -0.00488724 -0.00546131 -0.00599652 -0.00649285 -0.00695031 -0.0073689 -0.00774862 -0.00808947 -0.00839145 -0.00863165 -0.00878716 -0.00885799 -0.00884414 -0.00874561 -0.00856239 -0.00829449 -0.0079419 -0.00750406 -0.00698036 -0.00637083 -0.00567544 -0.00489422 -0.00402715 -0.00307423 -0.00203547 -0.000936719 0.000196181 0.00136323 0.00256442 0.00379975 0.00506923 0.00637286 0.00771063 0.00903985 0.0103178 0.0115445 0.0127199 0.0138441 0.014917 0.0159387 0.0169091 0.0177948 0.0185624 0.0192119 0.0197434 0.0201567 0.0204519 0.0206291 0.0206881 0.0206291 0.0204519 0.0201567 0.0197434 0.0192119 0.0185624 0.0177948 0.0169091 0.0159387 0.014917 0.0138441 0.0127199 0.0115445 0.0103178 0.00903985 0.00771063 0.00637286 0.00506923 0.00379975 0.00256442 0.00136323 0.000196181 -0.000936719 -0.00203547 -0.00307423 -0.00402715 -0.00489422 -0.00567544 -0.00637083 -0.00698036 -0.00750406 -0.00794191 -0.00829449 -0.00856239 -0.00874561 -0.00884414 -0.008858 -0.00878716 -0.00863165 -0.00839145 -0.00808947 -0.00774862 -0.0073689 -0.00695031 -0.00649285 -0.00599652 -0.00546132 -0.00488724 -0.00431119 -0.00377006 -0.00326385 -0.00279256 -0.00235619 -0.00195474 -0.00158821 -0.0012566 -0.000962083 -0.000706836 -0.000490859 -0.00031415 -0.000176709 -7.85374e-05 -1.96343e-05 0 0 -2.18653e-05 -8.74613e-05 -0.000196788 -0.000349845 -0.000546633 -0.000787152 -0.0010714 -0.00139938 -0.00176763 -0.00217268 -0.00261453 -0.00309318 -0.00360864 -0.00416089 -0.00474996 -0.00537582 -0.00599652 -0.00657008 -0.00709651 -0.00757581 -0.00800798 -0.00839301 -0.00873091 -0.00902168 -0.00923934 -0.00935791 -0.0093774 -0.0092978 -0.00911912 -0.00884135 -0.0084645 -0.00798857 -0.00741339 -0.00673881 -0.00596482 -0.00509143 -0.00411864 -0.00304645 -0.00187485 -0.00060385 0.000735857 0.00211357 0.0035293 0.00498304 0.00647479 0.00800456 0.00957233 0.0111781 0.0127717 0.0143029 0.0157716 0.0171779 0.0185218 0.0198033 0.0210224 0.022179 0.0232341 0.0241485 0.0249222 0.0255553 0.0260477 0.0263994 0.0266104 0.0266807 0.0266104 0.0263994 0.0260477 0.0255553 0.0249222 0.0241485 0.0232341 0.022179 0.0210224 0.0198033 0.0185218 0.0171779 0.0157716 0.0143029 0.0127717 0.0111781 0.00957233 0.00800456 0.0064748 0.00498304 0.0035293 0.00211357 0.000735857 -0.000603851 -0.00187485 -0.00304645 -0.00411864 -0.00509143 -0.00596482 -0.00673881 -0.00741339 -0.00798857 -0.00846451 -0.00884136 -0.00911912 -0.0092978 -0.0093774 -0.00935791 -0.00923934 -0.00902168 -0.00873091 -0.00839301 -0.00800798 -0.00757582 -0.00709652 -0.00657008 -0.00599652 -0.00537582 -0.00474996 -0.0041609 -0.00360864 -0.00309318 -0.00261453 -0.00217268 -0.00176763 -0.00139938 -0.0010714 -0.000787152 -0.000546633 -0.000349845 -0.000196788 -8.74614e-05 -2.18653e-05 0 0 -2.40415e-05 -9.61659e-05 -0.000216373 -0.000384664 -0.000601037 -0.000865493 -0.00117803 -0.00153865 -0.00194233 -0.00238401 -0.00286371 -0.00338143 -0.00393716 -0.0045309 -0.00516266 -0.00583244 -0.00649285 -0.00709651 -0.00764343 -0.0081336 -0.00856703 -0.00894371 -0.00926365 -0.00952684 -0.00970404 -0.00976601 -0.00971276 -0.00954427 -0.00926055 -0.00886161 -0.00834743 -0.00771803 -0.00697384 -0.00611531 -0.00514244 -0.00405523 -0.00285369 -0.0015378 -0.000107571 0.001437 0.00305966 0.00472416 0.00643052 0.00817873 0.00996878 0.0118007 0.0136744 0.01559 0.0174888 0.019312 0.0210598 0.022732 0.0243286 0.0258498 0.0272954 0.0286655 0.0299146 0.0309972 0.0319132 0.0326626 0.0332455 0.0336619 0.0339117 0.033995 0.0339117 0.0336619 0.0332455 0.0326626 0.0319132 0.0309972 0.0299146 0.0286655 0.0272954 0.0258498 0.0243286 0.022732 0.0210598 0.019312 0.0174888 0.01559 0.0136744 0.0118007 0.00996878 0.00817873 0.00643052 0.00472416 0.00305966 0.001437 -0.000107571 -0.0015378 -0.00285369 -0.00405523 -0.00514244 -0.00611531 -0.00697384 -0.00771803 -0.00834744 -0.00886161 -0.00926056 -0.00954427 -0.00971276 -0.00976602 -0.00970404 -0.00952684 -0.00926365 -0.00894372 -0.00856703 -0.00813361 -0.00764343 -0.00709652 -0.00649285 -0.00583244 -0.00516267 -0.00453091 -0.00393716 -0.00338143 -0.00286371 -0.00238401 -0.00194233 -0.00153866 -0.00117803 -0.000865494 -0.000601037 -0.000384664 -0.000216373 -9.6166e-05 -2.40415e-05 0 0 -2.61628e-05 -0.000104651 -0.000235465 -0.000418605 -0.00065407 -0.000941861 -0.00128198 -0.00167442 -0.0021123 -0.00258874 -0.00310374 -0.0036573