<?xml version="1.0"?> 
<VTKFile type="StructuredGrid" version="0.1"> 
<StructuredGrid WholeExtent="0 64 0 64 0 0"> 
<Piece Extent="0 64 0 64 0 0"> 
<PointData>
<DataArray type="Float32" Name="u" format="ascii" NumberOfComponents="1"> 
0.881083 0.917909 0.954736 0.991562 1.02839 0.904284 0.780179 0.656074 0.531969 0.628005 0.724041 0.820076 0.916112 0.83933 0.762547 0.685765 0.608983 0.496812 0.384641 0.27247 0.1603 0.171975 0.183651 0.195326 0.207002 0.260627 0.314252 0.367876 0.421501 0.509992 0.598483 0.686975 0.775466 0.795372 0.815278 0.835184 0.855091 0.845868 0.836646 0.827423 0.818201 0.696125 0.574049 0.451972 0.329896 0.385722 0.441548 0.497374 0.553201 0.438147 0.323093 0.20804 0.0929861 0.0988317 0.104677 0.110523 0.116369 0.121942 0.127515 0.133089 0.138662 0.282058 0.425454 0.568849 0.712245 0.789815 0.797766 0.805716 0.813667 0.821617 0.74833 0.675044 0.601758 0.528471 0.577893 0.627314 0.676735 0.726157 0.662475 0.598793 0.535112 0.47143 0.439184 0.406938 0.374692 0.342446 0.332269 0.322091 0.311913 0.301736 0.366075 0.430415 0.494754 0.559094 0.610306 0.661518 0.712731 0.763943 0.77145 0.778958 0.786465 0.793972 0.802234 0.810497 0.818759 0.827021 0.739547 0.652073 0.564599 0.477125 0.526203 0.575281 0.624359 0.673437 0.522551 0.371664 0.220778 0.069891 0.130782 0.191674 0.252565 0.313457 0.300968 0.28848 0.275991 0.263503 0.39638 0.529257 0.662134 0.795011 0.698548 0.677622 0.656696 0.635771 0.614845 0.592377 0.569909 0.547441 0.524973 0.52778 0.530587 0.533394 0.536202 0.485621 0.435039 0.384458 0.333877 0.381556 0.429235 0.476914 0.524593 0.492562 0.460531 0.4285 0.39647 0.471524 0.546578 0.621633 0.696687 0.71062 0.724554 0.738487 0.75242 0.747529 0.742637 0.737745 0.732853 0.7586 0.784347 0.810094 0.835841 0.782969 0.730097 0.677226 0.624354 0.666684 0.709014 0.751344 0.793674 0.606954 0.420235 0.233515 0.0467959 0.162733 0.27867 0.394607 0.510544 0.479994 0.449444 0.418893 0.388343 0.510701 0.63306 0.755418 0.877776 0.60728 0.557478 0.507677 0.457875 0.408074 0.436424 0.464774 0.493124 0.521475 0.477668 0.43386 0.390053 0.346246 0.308766 0.271286 0.233805 0.196325 0.323928 0.451532 0.579136 0.706739 0.652855 0.598971 0.545087 0.491203 0.576973 0.662742 0.748511 0.83428 0.810934 0.787589 0.764243 0.740898 0.723607 0.706316 0.689025 0.671735 0.714966 0.758198 0.801429 0.844661 0.826391 0.808122 0.789852 0.771583 0.807165 0.842747 0.878329 0.91391 0.691358 0.468806 0.246253 0.0237008 0.194684 0.365667 0.536649 0.707632 0.65902 0.610408 0.561796 0.513184 0.625023 0.736863 0.848702 0.960542 0.516012 0.437335 0.358657 0.27998 0.201302 0.280471 0.359639 0.438808 0.517976 0.427555 0.337134 0.246713 0.156291 0.131911 0.107532 0.0831518 0.0587719 0.2663 0.473829 0.681358 0.888886 0.813149 0.737412 0.661674 0.585937 0.682421 0.778905 0.875389 0.971873 0.911248 0.850624 0.789999 0.729375 0.699685 0.669995 0.640306 0.610616 0.671332 0.732048 0.792764 0.853481 0.869813 0.886146 0.902479 0.918812 0.947646 0.976479 1.00531 1.03415 0.775762 0.517376 0.258991 0.000605669 0.226634 0.452663 0.678692 0.90472 0.838046 0.771372 0.704698 0.638024 0.739345 0.840666 0.941987 1.04331 0.523434 0.461665 0.399896 0.338127 0.276359 0.356658 0.436957 0.517256 0.597555 0.492315 0.387075 0.281836 0.176596 0.175957 0.175317 0.174678 0.174039 0.355995 0.537951 0.719908 0.901864 0.823766 0.745668 0.66757 0.589472 0.679485 0.769499 0.859512 0.949526 0.89709 0.844654 0.792217 0.739781 0.707546 0.675311 0.643076 0.61084 0.634233 0.657627 0.68102 0.704413 0.744076 0.783739 0.823402 0.863065 0.846632 0.8302 0.813768 0.797336 0.638963 0.480591 0.322219 0.163846 0.335696 0.507547 0.679397 0.851247 0.805561 0.759875 0.714189 0.668503 0.755621 0.842739 0.929856 1.01697 0.530856 0.485996 0.441135 0.396275 0.351415 0.432844 0.514274 0.595703 0.677133 0.557075 0.437017 0.316959 0.196901 0.220002 0.243103 0.266204 0.289305 0.44569 0.602074 0.758458 0.914843 0.834383 0.753924 0.673465 0.593006 0.676549 0.760093 0.843636 0.92718 0.882932 0.838684 0.794435 0.750187 0.715407 0.680626 0.645845 0.611065 0.597135 0.583205 0.569275 0.555345 0.618338 0.681331 0.744325 0.807318 0.745619 0.683921 0.622222 0.560524 0.502165 0.443805 0.385446 0.327087 0.444759 0.56243 0.680102 0.797774 0.773076 0.748378 0.72368 0.698982 0.771897 0.844811 0.917726 0.99064 0.538278 0.510326 0.482375 0.454423 0.426471 0.509031 0.591591 0.674151 0.756711 0.621835 0.486958 0.352082 0.217206 0.264047 0.310889 0.35773 0.404572 0.535384 0.666196 0.797009 0.927821 0.845001 0.76218 0.67936 0.59654 0.673613 0.750687 0.82776 0.904833 0.868773 0.832713 0.796654 0.760594 0.723268 0.685941 0.648615 0.611289 0.560036 0.508783 0.45753 0.406277 0.492601 0.578924 0.665247 0.751571 0.644606 0.537642 0.430677 0.323712 0.365366 0.40702 0.448674 0.490327 0.553821 0.617314 0.680807 0.744301 0.740591 0.736881 0.733171 0.729461 0.788173 0.846884 0.905595 0.964307 0.5457 0.534657 0.523614 0.512571 0.501528 0.585218 0.668908 0.752599 0.836289 0.686595 0.5369 0.387205 0.237511 0.308093 0.378675 0.449257 0.519839 0.625079 0.730319 0.835559 0.940799 0.855618 0.770437 0.685255 0.600074 0.670677 0.74128 0.811884 0.882487 0.854615 0.826743 0.798872 0.771 0.731128 0.691257 0.651385 0.611514 0.522938 0.434362 0.345786 0.25721 0.366863 0.476517 0.58617 0.695824 0.543593 0.391362 0.239132 0.0869009 0.228568 0.370235 0.511901 0.653568 0.662883 0.672198 0.681513 0.690828 0.708106 0.725384 0.742662 0.75994 0.804448 0.848957 0.893465 0.937973 0.663684 0.642152 0.62062 0.599088 0.577556 0.627894 0.678232 0.72857 0.778908 0.689332 0.599756 0.51018 0.420603 0.450793 0.480982 0.511171 0.54136 0.583531 0.625702 0.667872 0.710043 0.652938 0.595832 0.538727 0.481621 0.583002 0.684383 0.785764 0.887145 0.841543 0.795941 0.750339 0.704736 0.69837 0.692003 0.685637 0.679271 0.571357 0.463444 0.355531 0.247618 0.352236 0.456854 0.561472 0.66609 0.556985 0.447879 0.338773 0.229668 0.296884 0.3641 0.431315 0.498531 0.543559 0.588586 0.633613 0.67864 0.675122 0.671603 0.668084 0.664566 0.677558 0.69055 0.703542 0.716534 0.781669 0.749648 0.717627 0.685606 0.653584 0.67057 0.687556 0.704542 0.721528 0.69207 0.662612 0.633154 0.603696 0.593492 0.583289 0.573086 0.562882 0.541984 0.521085 0.500186 0.479287 0.450257 0.421227 0.392198 0.363168 0.495327 0.627486 0.759645 0.891804 0.828471 0.765138 0.701805 0.638473 0.665611 0.69275 0.719889 0.747028 0.619777 0.492527 0.365277 0.238027 0.337609 0.437192 0.536774 0.636357 0.570376 0.504396 0.438415 0.372435 0.3652 0.357965 0.350729 0.343494 0.424234 0.504974 0.585713 0.666453 0.642137 0.617822 0.593506 0.569191 0.550667 0.532143 0.513619 0.495095 0.899653 0.857143 0.814633 0.772123 0.729613 0.713246 0.69688 0.680513 0.664147 0.694807 0.725468 0.756128 0.786788 0.736192 0.685596 0.635 0.584404 0.500436 0.416468 0.332499 0.248531 0.247577 0.246623 0.245669 0.244714 0.407651 0.570588 0.733525 0.896462 0.815399 0.734336 0.653272 0.572209 0.632853 0.693497 0.754141 0.814785 0.668197 0.52161 0.375023 0.228435 0.322982 0.417529 0.512076 0.606623 0.583768 0.560912 0.538057 0.515202 0.433516 0.35183 0.270144 0.188458 0.30491 0.421362 0.537814 0.654266 0.609153 0.564041 0.518929 0.473816 0.423776 0.373736 0.323696 0.273656 1.01764 0.964639 0.911639 0.85864 0.805641 0.755922 0.706204 0.656485 0.606766 0.697545 0.788323 0.879102 0.969881 0.878892 0.787904 0.696915 0.605926 0.458888 0.311851 0.164813 0.0177753 0.0448968 0.0720183 0.0991398 0.126261 0.319976 0.513691 0.707406 0.901121 0.802327 0.703533 0.604739 0.505945 0.600094 0.694243 0.788393 0.882542 0.716617 0.550693 0.384768 0.218844 0.308355 0.397867 0.487378 0.57689 0.597159 0.617429 0.637699 0.657969 0.501832 0.345695 0.189558 0.0334207 0.185585 0.33775 0.489914 0.642078 0.576169 0.51026 0.444351 0.378442 0.296886 0.215329 0.133773 0.052217 0.88998 0.831178 0.772377 0.713575 0.654773 0.612862 0.570952 0.529041 0.48713 0.560617 0.634104 0.707591 0.781078 0.708981 0.636884 0.564786 0.492689 0.385192 0.277695 0.170197 0.0627 0.0734826 0.0842652 0.0950477 0.10583 0.289796 0.473762 0.657728 0.841693 0.744532 0.647371 0.55021 0.453049 0.540419 0.62779 0.71516 0.80253 0.688308 0.574085 0.459862 0.345639 0.399976 0.454312 0.508649 0.562986 0.580585 0.598185 0.615784 0.633384 0.510355 0.387327 0.264299 0.141271 0.234466 0.327661 0.420857 0.514052 0.48838 0.462709 0.437037 0.411365 0.374463 0.337561 0.300659 0.263757 0.762323 0.697718 0.633114 0.56851 0.503905 0.469803 0.4357 0.401597 0.367495 0.42369 0.479885 0.53608 0.592275 0.539069 0.485864 0.432658 0.379452 0.311495 0.243538 0.175582 0.107625 0.102068 0.096512 0.0909557 0.0853994 0.259616 0.433832 0.608049 0.782266 0.686737 0.591209 0.495681 0.400153 0.480744 0.561336 0.641927 0.722519 0.659998 0.597477 0.534956 0.472435 0.491596 0.510758 0.52992 0.549082 0.564011 0.57894 0.593869 0.608798 0.518879 0.428959 0.33904 0.24912 0.283347 0.317573 0.3518 0.386026 0.400592 0.415157 0.429723 0.444288 0.45204 0.459793 0.467545 0.475298 0.634665 0.564258 0.493851 0.423444 0.353037 0.326743 0.300448 0.274154 0.247859 0.286762 0.325666 0.364569 0.403472 0.369158 0.334844 0.300529 0.266215 0.237799 0.209382 0.180966 0.152549 0.130654 0.108759 0.0868637 0.0649684 0.229436 0.393903 0.558371 0.722838 0.628943 0.535047 0.441152 0.347257 0.421069 0.494882 0.568695 0.642507 0.631688 0.620869 0.610049 0.59923 0.583217 0.567204 0.551191 0.535178 0.547437 0.559695 0.571954 0.584213 0.527403 0.470592 0.413781 0.35697 0.332228 0.307485 0.282742 0.258 0.312803 0.367606 0.422408 0.477211 0.529618 0.582025 0.634431 0.686838 0.507008 0.430798 0.354588 0.278379 0.202169 0.183683 0.165196 0.14671 0.128223 0.149835 0.171447 0.193058 0.21467 0.199247 0.183824 0.168401 0.152978 0.164102 0.175226 0.18635 0.197474 0.15924 0.121006 0.0827716 0.0445375 0.199256 0.353974 0.508692 0.66341 0.571148 0.478885 0.386623 0.29436 0.361394 0.428428 0.495462 0.562496 0.603378 0.644261 0.685143 0.726025 0.674838 0.62365 0.572462 0.521274 0.530862 0.540451 0.55004 0.559628 0.535926 0.512224 0.488522 0.46482 0.381108 0.297397 0.213685 0.129974 0.225014 0.320054 0.415094 0.510134 0.607195 0.704256 0.801317 0.898378 0.606551 0.510592 0.414633 0.318674 0.222715 0.204653 0.18659 0.168527 0.150464 0.189989 0.229514 0.269039 0.308564 0.301902 0.295241 0.288579 0.281918 0.275688 0.269459 0.263229 0.256999 0.214546 0.172092 0.129639 0.0871854 0.251658 0.41613 0.580602 0.745075 0.619356 0.493638 0.36792 0.242202 0.294021 0.345839 0.397658 0.449476 0.48251 0.515543 0.548577 0.581611 0.544813 0.508015 0.471217 0.434419 0.471281 0.508144 0.545007 0.58187 0.560999 0.540128 0.519257 0.498386 0.401588 0.30479 0.207992 0.111193 0.239725 0.368257 0.496788 0.62532 0.685401 0.745482 0.805563 0.865644 0.706093 0.590386 0.474678 0.35897 0.243262 0.225623 0.207983 0.190344 0.172705 0.230143 0.287581 0.34502 0.402458 0.404558 0.406658 0.408758 0.410858 0.387274 0.363691 0.340108 0.316525 0.269852 0.223179 0.176506 0.129833 0.30406 0.478286 0.652513 0.826739 0.667565 0.508391 0.349218 0.190044 0.226647 0.26325 0.299853 0.336456 0.361641 0.386826 0.412011 0.437196 0.414788 0.39238 0.369972 0.347564 0.411701 0.475838 0.539975 0.604112 0.586072 0.568032 0.549992 0.531953 0.422068 0.312183 0.202298 0.092413 0.254436 0.416459 0.578482 0.740505 0.763607 0.786708 0.809809 0.83291 0.805636 0.670179 0.534722 0.399265 0.263808 0.246593 0.229377 0.212161 0.194946 0.270297 0.345649 0.421 0.496352 0.507213 0.518075 0.528936 0.539797 0.49886 0.457924 0.416987 0.37605 0.325158 0.274266 0.223373 0.172481 0.356462 0.540442 0.724423 0.908403 0.715774 0.523145 0.330515 0.137886 0.159274 0.180661 0.202049 0.223437 0.240773 0.258109 0.275445 0.292781 0.284763 0.276745 0.268727 0.260708 0.35212 0.443531 0.534942 0.626354 0.611145 0.595936 0.580728 0.565519 0.442547 0.319576 0.196604 0.0736327 0.269147 0.464662 0.660177 0.855691 0.841812 0.827933 0.814055 0.800176 0.905179 0.749973 0.594767 0.439561 0.284355 0.267563 0.250771 0.233979 0.217187 0.310451 0.403716 0.496981 0.590246 0.609869 0.629491 0.649114 0.668737 0.610447 0.552156 0.493866 0.435575 0.380464 0.325352 0.270241 0.215129 0.408864 0.602598 0.796333 0.990068 0.763983 0.537898 0.311813 0.0857277 0.0918999 0.0980722 0.104245 0.110417 0.119904 0.129391 0.138878 0.148366 0.154738 0.16111 0.167482 0.173853 0.292539 0.411224 0.52991 0.648595 0.636218 0.62384 0.611463 0.599085 0.463027 0.326969 0.190911 0.0548524 0.283858 0.512865 0.741871 0.970877 0.920018 0.869159 0.8183 0.767442 0.869937 0.710015 0.550094 0.390173 0.230251 0.26955 0.308848 0.348146 0.387445 0.462258 0.537071 0.611884 0.686698 0.704669 0.722639 0.74061 0.758581 0.706676 0.654771 0.602867 0.550962 0.504837 0.458713 0.412589 0.366464 0.493998 0.621532 0.749065 0.876599 0.685116 0.493634 0.302152 0.110669 0.129724 0.148778 0.167833 0.186888 0.176727 0.166566 0.156406 0.146245 0.144297 0.142349 0.140402 0.138454 0.286758 0.435063 0.583367 0.731671 0.680746 0.62982 0.578894 0.527968 0.425571 0.323174 0.220777 0.11838 0.292489 0.466598 0.640707 0.814816 0.785753 0.756689 0.727625 0.698562 0.834694 0.670057 0.505421 0.340784 0.176147 0.271536 0.366925 0.462314 0.557703 0.614064 0.670426 0.726788 0.78315 0.799468 0.815787 0.832106 0.848425 0.802906 0.757387 0.711867 0.666348 0.629211 0.592074 0.554936 0.517799 0.579132 0.640465 0.701797 0.76313 0.60625 0.44937 0.29249 0.13561 0.167548 0.199485 0.231422 0.263359 0.23355 0.203742 0.173933 0.144124 0.133857 0.123589 0.113322 0.103055 0.280978 0.458901 0.636824 0.814747 0.725273 0.635799 0.546326 0.456852 0.388116 0.319379 0.250643 0.181907 0.301119 0.420331 0.539543 0.658755 0.651487 0.644219 0.636951 0.629682 0.799452 0.6301 0.460748 0.291396 0.122044 0.273523 0.425002 0.576481 0.72796 0.765871 0.803781 0.841691 0.879602 0.894268 0.908935 0.923602 0.938269 0.899135 0.860002 0.820868 0.781735 0.753584 0.725434 0.697284 0.669134 0.664266 0.659398 0.65453 0.649661 0.527384 0.405107 0.282829 0.160552 0.205371 0.250191 0.29501 0.33983 0.290373 0.240917 0.19146 0.142003 0.123416 0.104829 0.0862422 0.0676551 0.275197 0.482739 0.690281 0.897823 0.769801 0.641779 0.513757 0.385735 0.35066 0.315585 0.28051 0.245435 0.30975 0.374065 0.43838 0.502695 0.517222 0.531749 0.546276 0.560803 0.764209 0.590142 0.416074 0.242007 0.0679399 0.27551 0.483079 0.690649 0.898218 0.917677 0.937136 0.956595 0.976054 0.989068 1.00208 1.0151 1.02811 0.995365 0.962617 0.929869 0.897121 0.877958 0.858795 0.839632 0.820469 0.7494 0.678331 0.607262 0.536193 0.448518 0.360843 0.273168 0.185493 0.243195 0.300897 0.358599 0.416301 0.347196 0.278092 0.208987 0.139883 0.112976 0.0860691 0.0591624 0.0322557 0.269417 0.506578 0.743738 0.980899 0.814329 0.647759 0.481188 0.314618 0.313204 0.31179 0.310376 0.308962 0.31838 0.327798 0.337216 0.346634 0.382956 0.419279 0.455601 0.491923 0.740999 0.570229 0.399459 0.22869 0.0579203 0.266808 0.475696 0.684584 0.893472 0.889613 0.885754 0.881896 0.878037 0.907051 0.936065 0.965078 0.994092 0.936489 0.878885 0.821281 0.763678 0.755712 0.747745 0.739779 0.731813 0.652937 0.57406 0.495184 0.416307 0.358572 0.300836 0.2431 0.185365 0.260347 0.335328 0.41031 0.485292 0.411793 0.338294 0.264795 0.191296 0.20817 0.225045 0.241919 0.258793 0.385729 0.512665 0.639601 0.766538 0.698405 0.630273 0.56214 0.494008 0.463724 0.433441 0.403158 0.372874 0.390649 0.408423 0.426198 0.443972 0.491007 0.538042 0.585077 0.632112 0.717788 0.550316 0.382844 0.215373 0.0479006 0.258107 0.468313 0.678519 0.888725 0.861549 0.834373 0.807196 0.78002 0.825033 0.870046 0.915059 0.960071 0.877612 0.795153 0.712694 0.630234 0.633465 0.636696 0.639927 0.643158 0.556474 0.46979 0.383106 0.296422 0.268625 0.240829 0.213033 0.185236 0.277498 0.36976 0.462021 0.554283 0.47639 0.398496 0.320603 0.242709 0.303365 0.36402 0.424675 0.485331 0.502042 0.518753 0.535464 0.552176 0.582481 0.612787 0.643092 0.673398 0.614245 0.555092 0.495939 0.436786 0.462917 0.489048 0.515179 0.54131 0.599058 0.656806 0.714554 0.772302 0.694578 0.530404 0.366229 0.202055 0.037881 0.249405 0.46093 0.672454 0.883979 0.833485 0.782991 0.732497 0.682004 0.743015 0.804027 0.865039 0.926051 0.818736 0.711421 0.604106 0.496791 0.511219 0.525647 0.540075 0.554503 0.460011 0.36552 0.271028 0.176536 0.178679 0.180822 0.182965 0.185108 0.294649 0.404191 0.513733 0.623274 0.540986 0.458698 0.37641 0.294123 0.398559 0.502995 0.607432 0.711868 0.618355 0.524841 0.431327 0.337814 0.466557 0.595301 0.724044 0.852788 0.764765 0.676743 0.588721 0.500698 0.535186 0.569673 0.60416 0.638648 0.707109 0.77557 0.84403 0.912491 0.671367 0.510491 0.349614 0.188738 0.0278614 0.240704 0.453547 0.66639 0.879232 0.805421 0.73161 0.657798 0.583987 0.660998 0.738008 0.815019 0.89203 0.75986 0.627689 0.495518 0.363348 0.388973 0.414598 0.440223 0.465847 0.363548 0.261249 0.15895 0.0566509 0.088733 0.120815 0.152897 0.184979 0.311801 0.438622 0.565444 0.692265 0.605583 0.5189 0.432218 0.345536 0.493753 0.641971 0.790188 0.938406 0.734667 0.530929 0.32719 0.123452 0.350633 0.577815 0.804996 1.03218 0.915286 0.798394 0.681502 0.56461 0.607454 0.650298 0.693142 0.735986 0.815159 0.894333 0.973507 1.05268 0.57806 0.46587 0.35368 0.24149 0.1293 0.292164 0.455027 0.61789 0.780754 0.744935 0.709117 0.673298 0.63748 0.698775 0.76007 0.821366 0.882661 0.736666 0.590671 0.444676 0.298681 0.322984 0.347287 0.37159 0.395894 0.331018 0.266143 0.201268 0.136393 0.14068 0.144967 0.149254 0.153541 0.279023 0.404505 0.529987 0.655469 0.578313 0.501157 0.424002 0.346846 0.447552 0.548258 0.648965 0.749671 0.599042 0.448414 0.297786 0.147158 0.362978 0.578799 0.794619 1.01044 0.907818 0.805197 0.702575 0.599953 0.618409 0.636864 0.65532 0.673775 0.762751 0.851727 0.940703 1.02968 0.484752 0.421249 0.357746 0.294242 0.230739 0.343623 0.456507 0.569391 0.682276 0.68445 0.686624 0.688798 0.690972 0.736552 0.782132 0.827712 0.873292 0.713473 0.553653 0.393833 0.234014 0.256995 0.279977 0.302958 0.32594 0.298489 0.271037 0.243586 0.216135 0.192626 0.169118 0.14561 0.122102 0.246245 0.370387 0.49453 0.618672 0.551043 0.483414 0.415786 0.348157 0.401352 0.454546 0.507741 0.560935 0.463417 0.365899 0.268381 0.170863 0.375323 0.579783 0.784243 0.988702 0.900351 0.811999 0.723648 0.635296 0.629363 0.62343 0.617498 0.611565 0.710343 0.809121 0.907899 1.00668 0.391445 0.376628 0.361811 0.346994 0.332178 0.395082 0.457987 0.520892 0.583797 0.623964 0.664131 0.704298 0.744465 0.77433 0.804194 0.834059 0.863923 0.690279 0.516635 0.342991 0.169346 0.191006 0.212666 0.234326 0.255986 0.265959 0.275931 0.285904 0.295876 0.244573 0.19327 0.141967 0.0906635 0.213466 0.336269 0.459072 0.581875 0.523773 0.465671 0.407569 0.349467 0.355151 0.360834 0.366517 0.3722 0.327792 0.283384 0.238977 0.194569 0.387668 0.580767 0.773866 0.966965 0.892883 0.818802 0.744721 0.670639 0.640318 0.609997 0.579676 0.549355 0.657935 0.766515 0.875095 0.983675 0.298137 0.332007 0.365877 0.399747 0.433616 0.446542 0.459468 0.472393 0.485319 0.563479 0.641638 0.719798 0.797958 0.812107 0.826256 0.840405 0.854555 0.667086 0.479617 0.292148 0.104679 0.125017 0.145356 0.165694 0.186032 0.233429 0.280825 0.328222 0.375618 0.29652 0.217422 0.138323 0.0592249 0.180688 0.302152 0.423615 0.545079 0.496504 0.447928 0.399353 0.350778 0.30895 0.267122 0.225293 0.183465 0.192167 0.20087 0.209572 0.218274 0.400012 0.581751 0.763489 0.945227 0.885416 0.825605 0.765793 0.705982 0.651273 0.596563 0.541854 0.487144 0.605526 0.723908 0.84229 0.960673 0.250535 0.317887 0.385239 0.452591 0.519943 0.529012 0.538081 0.547151 0.55622 0.60346 0.6507 0.697941 0.745181 0.731138 0.717095 0.703052 0.68901 0.575369 0.461729 0.348088 0.234448 0.230296 0.226144 0.221992 0.217841 0.242564 0.267288 0.292011 0.316735 0.262534 0.208333 0.154132 0.0999311 0.23557 0.37121 0.506849 0.642488 0.552301 0.462114 0.371927 0.281741 0.261534 0.241327 0.221121 0.200914 0.195121 0.189329 0.183536 0.177744 0.33937 0.500997 0.662624 0.824251 0.751434 0.678618 0.605802 0.532986 0.549617 0.566247 0.582878 0.599509 0.642703 0.685897 0.729091 0.772285 0.202933 0.303767 0.404601 0.505435 0.606269 0.611482 0.616695 0.621908 0.627122 0.643442 0.659763 0.676083 0.692404 0.650169 0.607934 0.565699 0.523465 0.483653 0.443841 0.404029 0.364217 0.335575 0.306933 0.278291 0.249649 0.2517 0.25375 0.2558 0.257851 0.228548 0.199244 0.169941 0.140637 0.290452 0.440267 0.590082 0.739897 0.608099 0.4763 0.344502 0.212703 0.214118 0.215533 0.216948 0.218363 0.198075 0.177788 0.157501 0.137213 0.278728 0.420243 0.561758 0.703274 0.617453 0.531632 0.445811 0.35999 0.447961 0.535932 0.623902 0.711873 0.67988 0.647886 0.615892 0.583898 0.155331 0.289647 0.423963 0.55828 0.692596 0.693952 0.695309 0.696666 0.698023 0.683424 0.668825 0.654226 0.639626 0.5692 0.498773 0.428346 0.35792 0.391936 0.425953 0.459969 0.493985 0.440853 0.387721 0.33459 0.281458 0.260835 0.240212 0.21959 0.198967 0.194561 0.190155 0.18575 0.181344 0.345334 0.509325 0.673316 0.837306 0.663896 0.490486 0.317076 0.143666 0.166702 0.189739 0.212775 0.235812 0.201029 0.166247 0.131465 0.0966825 0.218086 0.33949 0.460893 0.582297 0.483471 0.384645 0.285819 0.186994 0.346305 0.505616 0.664927 0.824238 0.717056 0.609874 0.502692 0.395511 0.107729 0.275527 0.443326 0.611124 0.778922 0.776423 0.773923 0.771424 0.768924 0.723406 0.677887 0.632368 0.586849 0.488231 0.389612 0.290994 0.192375 0.30022 0.408064 0.515909 0.623754 0.546132 0.46851 0.390888 0.313266 0.26997 0.226675 0.183379 0.140084 0.160575 0.181067 0.201558 0.22205 0.400216 0.578383 0.756549 0.934715 0.719694 0.504672 0.28965 0.0746285 0.119287 0.163945 0.208603 0.253261 0.203983 0.154706 0.105429 0.0561519 0.157444 0.258736 0.360028 0.46132 0.349489 0.237659 0.125828 0.0139974 0.244649 0.4753 0.705951 0.936603 0.754233 0.571863 0.389493 0.207123 0.104974 0.244856 0.384739 0.524621 0.664504 0.672318 0.680132 0.687946 0.69576 0.638492 0.581224 0.523956 0.466688 0.451063 0.435438 0.419813 0.404188 0.441773 0.479358 0.516944 0.554529 0.494045 0.43356 0.373075 0.312591 0.264759 0.216927 0.169095 0.121264 0.152051 0.182838 0.213625 0.244412 0.361594 0.478776 0.595958 0.713139 0.581841 0.450542 0.319244 0.187945 0.238149 0.288352 0.338556 0.38876 0.343296 0.297832 0.252368 0.206904 0.247534 0.288164 0.328794 0.369424 0.285007 0.200589 0.116172 0.0317546 0.250033 0.46831 0.686588 0.904866 0.777067 0.649267 0.521468 0.393668 0.102219 0.214185 0.326152 0.438118 0.550085 0.568213 0.586341 0.604469 0.622596 0.553579 0.484562 0.415544 0.346527 0.413895 0.481264 0.548632 0.616001 0.583327 0.550652 0.517978 0.485304 0.441957 0.39861 0.355262 0.311915 0.259547 0.207179 0.154812 0.102444 0.143527 0.184609 0.225692 0.266775 0.322972 0.379169 0.435366 0.491563 0.443988 0.396413 0.348837 0.301262 0.357011 0.41276 0.468509 0.524258 0.482608 0.440957 0.399306 0.357655 0.337624 0.317592 0.29756 0.277528 0.220524 0.16352 0.106516 0.0495119 0.255416 0.461321 0.667225 0.87313 0.799901 0.726672 0.653443 0.580213 0.0994635 0.183514 0.267565 0.351616 0.435666 0.464108 0.492549 0.520991 0.549432 0.468666 0.387899 0.307132 0.226366 0.376728 0.52709 0.677451 0.827813 0.72488 0.621946 0.519013 0.41608 0.38987 0.36366 0.33745 0.31124 0.254336 0.197432 0.140528 0.0836239 0.135002 0.186381 0.237759 0.289137 0.28435 0.279562 0.274774 0.269987 0.306135 0.342283 0.378431 0.414579 0.475874 0.537168 0.598463 0.659757 0.62192 0.584082 0.546245 0.508407 0.427713 0.34702 0.266326 0.185632 0.156041 0.126451 0.0968598 0.0672692 0.2608 0.454331 0.647862 0.841393 0.822735 0.804076 0.785417 0.766758 0.0967083 0.152843 0.208978 0.265113 0.321248 0.360003 0.398758 0.437513 0.476269 0.383752 0.291236 0.19872 0.106204 0.33956 0.572915 0.806271 1.03963 0.866433 0.69324 0.520048 0.346855 0.337782 0.328709 0.319637 0.310564 0.249124 0.187684 0.126244 0.064804 0.126478 0.188152 0.249826 0.3115 0.245728 0.179955 0.114183 0.0484106 0.168282 0.288153 0.408025 0.527896 0.594736 0.661576 0.728416 0.795256 0.761232 0.727208 0.693183 0.659159 0.517803 0.376447 0.235092 0.0937359 0.0915586 0.0893812 0.0872038 0.0850264 0.266184 0.447342 0.628499 0.809657 0.845569 0.88148 0.917392 0.953304 0.210743 0.225494 0.240244 0.254995 0.269746 0.345495 0.421245 0.496995 0.572745 0.471548 0.37035 0.269153 0.167956 0.340085 0.512213 0.684342 0.856471 0.756106 0.655741 0.555376 0.455012 0.400164 0.345315 0.290467 0.235619 0.192027 0.148436 0.104844 0.061252 0.147945 0.234638 0.321331 0.408024 0.354488 0.300952 0.247416 0.19388 0.278733 0.363586 0.448438 0.533291 0.596712 0.660133 0.723554 0.786974 0.759992 0.73301 0.706028 0.679046 0.57786 0.476674 0.375488 0.274303 0.24049 0.206677 0.172864 0.139051 0.301224 0.463397 0.625569 0.787742 0.806194 0.824646 0.843098 0.86155 0.324778 0.298144 0.271511 0.244877 0.218243 0.330988 0.443732 0.556477 0.669221 0.559343 0.449464 0.339586 0.229707 0.340609 0.451511 0.562413 0.673315 0.645779 0.618242 0.590705 0.563169 0.462545 0.361922 0.261298 0.160674 0.134931 0.109187 0.0834437 0.0577001 0.169412 0.281124 0.392836 0.504548 0.463249 0.421949 0.380649 0.339349 0.389183 0.439018 0.488852 0.538687 0.598688 0.658689 0.718691 0.778692 0.758752 0.738812 0.718872 0.698932 0.637917 0.576901 0.515885 0.454869 0.389421 0.323973 0.258524 0.193076 0.336264 0.479451 0.622639 0.765827 0.766819 0.767812 0.768804 0.769797 0.438813 0.370795 0.302777 0.234759 0.166741 0.31648 0.466219 0.615959 0.765698 0.647138 0.528578 0.410018 0.291459 0.341134 0.390809 0.440485 0.49016 0.535451 0.580743 0.626034 0.671325 0.524926 0.378528 0.232129 0.0857297 0.0778343 0.0699389 0.0620435 0.0541481 0.190879 0.32761 0.464342 0.601073 0.572009 0.542945 0.513882 0.484818 0.499634 0.51445 0.529266 0.544082 0.600664 0.657246 0.713828 0.77041 0.757512 0.744615 0.731717 0.718819 0.697973 0.677127 0.656282 0.635436 0.538352 0.441268 0.344185 0.247101 0.371304 0.495506 0.619709 0.743911 0.727444 0.710977 0.69451 0.678043 0.552848 0.443446 0.334043 0.224641 0.115239 0.301973 0.488707 0.675441 0.862174 0.734933 0.607692 0.480451 0.35321 0.341659 0.330107 0.318556 0.307004 0.425124 0.543243 0.661363 0.779482 0.587308 0.395134 0.202959 0.010785 0.0207378 0.0306905 0.0406433 0.0505961 0.212346 0.374097 0.535847 0.697597 0.680769 0.663942 0.647114 0.630287 0.610085 0.589882 0.56968 0.549478 0.60264 0.655803 0.708965 0.762128 0.756272 0.750417 0.744561 0.738706 0.75803 0.777354 0.796678 0.816002 0.687283 0.558564 0.429845 0.301126 0.406343 0.511561 0.616779 0.721996 0.68807 0.654143 0.620216 0.58629 0.517311 0.413671 0.310032 0.206392 0.102753 0.289635 0.476518 0.663401 0.850283 0.725981 0.601679 0.477376 0.353074 0.36205 0.371026 0.380002 0.388978 0.486276 0.583573 0.68087 0.778168 0.592492 0.406816 0.221141 0.035465 0.0444349 0.0534048 0.0623747 0.0713447 0.220181 0.369018 0.517855 0.666692 0.649872 0.633053 0.616234 0.599414 0.610718 0.622022 0.633325 0.644629 0.678526 0.712422 0.746319 0.780216 0.771609 0.763002 0.754395 0.745788 0.715685 0.685583 0.655481 0.625378 0.530284 0.43519 0.340096 0.245002 0.324788 0.404575 0.484362 0.564148 0.585594 0.607039 0.628485 0.64993 0.481774 0.383897 0.28602 0.188143 0.0902663 0.277298 0.464329 0.651361 0.838392 0.717029 0.595665 0.474301 0.352938 0.382441 0.411945 0.441448 0.470952 0.547427 0.623903 0.700378 0.776853 0.597676 0.418499 0.239322 0.060145 0.068132 0.0761191 0.0841062 0.0920932 0.228017 0.36394 0.499863 0.635786 0.618975 0.602164 0.585353 0.568541 0.611351 0.654161 0.696971 0.739781 0.754411 0.769042 0.783673 0.798303 0.786945 0.775586 0.764228 0.75287 0.673341 0.593812 0.514283 0.434754 0.373285 0.311816 0.250347 0.188877 0.243233 0.297589 0.351945 0.406301 0.483118 0.559935 0.636753 0.71357 0.446238 0.354123 0.262009 0.169894 0.0777801 0.26496 0.452141 0.639321 0.826501 0.708076 0.589651 0.471226 0.352802 0.402833 0.452864 0.502895 0.552926 0.608579 0.664232 0.719886 0.775539 0.60286 0.430182 0.257503 0.084825 0.0918292 0.0988334 0.105838 0.112842 0.235852 0.358861 0.481871 0.604881 0.588078 0.571275 0.554472 0.537668 0.611984 0.6863 0.760616 0.834932 0.830297 0.825662 0.821026 0.816391 0.802281 0.788171 0.774061 0.759952 0.630996 0.502041 0.373086 0.24413 0.216286 0.188442 0.160597 0.132753 0.161678 0.190603 0.219528 0.248453 0.380642 0.512832 0.645021 0.777211 0.410701 0.324349 0.237997 0.151646 0.0652939 0.252623 0.439952 0.627281 0.81461 0.699124 0.583638 0.468152 0.352665 0.423224 0.493783 0.564341 0.6349 0.669731 0.704562 0.739393 0.774224 0.608045 0.441865 0.275685 0.109505 0.115526 0.121548 0.127569 0.13359 0.243687 0.353783 0.463879 0.573976 0.557181 0.540386 0.523591 0.506795 0.612618 0.71844 0.824262 0.930084 0.906183 0.882281 0.85838 0.834478 0.817617 0.800756 0.783895 0.767034 0.588652 0.41027 0.231888 0.0535065 0.059287 0.0650675 0.0708481 0.0766286 0.0801227 0.0836167 0.0871108 0.0906048 0.278166 0.465728 0.653289 0.840851 0.552197 0.471149 0.390102 0.309054 0.228007 0.332328 0.436649 0.540969 0.64529 0.597277 0.549264 0.501251 0.453239 0.466165 0.479092 0.492018 0.504945 0.531541 0.558137 0.584733 0.611329 0.520845 0.430362 0.339878 0.249394 0.233554 0.217714 0.201873 0.186033 0.289822 0.39361 0.497399 0.601188 0.594816 0.588444 0.582073 0.575701 0.644229 0.712756 0.781283 0.849811 0.842126 0.834441 0.826756 0.819071 0.773446 0.727822 0.682198 0.636573 0.535431 0.434289 0.333147 0.232005 0.251733 0.271462 0.29119 0.310918 0.306751 0.302584 0.298416 0.294249 0.38402 0.47379 0.56356 0.65333 0.693692 0.617949 0.542206 0.466463 0.39072 0.412033 0.433345 0.454658 0.475971 0.495431 0.514891 0.534351 0.553812 0.509106 0.464401 0.419696 0.37499 0.393351 0.411712 0.430073 0.448434 0.433646 0.418858 0.404071 0.389283 0.351581 0.313879 0.276178 0.238476 0.335957 0.433438 0.530919 0.628399 0.632451 0.636503 0.640555 0.644607 0.67584 0.707072 0.738305 0.769537 0.778069 0.7866 0.795132 0.803663 0.729275 0.654888 0.5805 0.506113 0.482211 0.458308 0.434406 0.410504 0.44418 0.477855 0.511531 0.545207 0.533378 0.52155 0.509722 0.497894 0.489873 0.481852 0.473831 0.465809 0.835188 0.764749 0.69431 0.623872 0.553433 0.491737 0.430042 0.368347 0.306651 0.393585 0.480518 0.567451 0.654385 0.552047 0.44971 0.347373 0.245036 0.255161 0.265287 0.275413 0.285539 0.3464