<?xml version="1.0"?> 
<VTKFile type="StructuredGrid" version="0.1"> 
<StructuredGrid WholeExtent="0 128 0 128 0 0"> 
<Piece Extent="0 128 0 128 0 0"> 
<PointData>
<DataArray type="Float32" Name="u" format="ascii" NumberOfComponents="1"> 
0 0 0 0 0 0 0 0 0 0 0 0 0 0 0 0 0 0 0 0 0 0 0 0 0 0 0 0 0 0 0 0 0 0 0 0 0 0 0 0 0 0 0 0 0 0 0 0 0 0 0 0 0 0 0 0 0 0 0 0 0 0 0 0 0 0 0 0 0 0 0 0 0 0 0 0 0 0 0 0 0 0 0 0 0 0 0 0 0 0 0 0 0 0 0 0 0 0 0 0 0 0 0 0 0 0 0 0 0 0 0 0 0 0 0 0 0 0 0 0 0 0 0 0 0 0 0 0 0 0 -6.35431e-08 -2.54173e-07 -5.71888e-07 -1.01669e-06 -1.58858e-06 -2.28755e-06 -3.11361e-06 -4.06676e-06 -5.17199e-06 -6.45428e-06 -7.91365e-06 -9.55008e-06 -1.13636e-05 -1.33542e-05 -1.55218e-05 -1.78665e-05 -2.02858e-05 -2.2677e-05 -2.50403e-05 -2.73756e-05 -2.96829e-05 -3.19621e-05 -3.42134e-05 -3.64367e-05 -3.85683e-05 -4.05443e-05 -4.23648e-05 -4.40299e-05 -4.55394e-05 -4.68935e-05 -4.8092e-05 -4.91351e-05 -5.00132e-05 -5.07167e-05 -5.12457e-05 -5.16002e-05 -5.17802e-05 -5.17857e-05 -5.16167e-05 -5.12732e-05 -5.07924e-05 -5.02116e-05 -4.95307e-05 -4.87498e-05 -4.78688e-05 -4.68878e-05 -4.58068e-05 -4.46257e-05 -4.34083e-05 -4.22181e-05 -4.10553e-05 -3.99198e-05 -3.88116e-05 -3.77308e-05 -3.66772e-05 -3.5651e-05 -3.47017e-05 -3.3879e-05 -3.31828e-05 -3.26132e-05 -3.21702e-05 -3.18538e-05 -3.16639e-05 -3.16007e-05 -3.16639e-05 -3.18538e-05 -3.21702e-05 -3.26132e-05 -3.31828e-05 -3.3879e-05 -3.47017e-05 -3.5651e-05 -3.66772e-05 -3.77308e-05 -3.88116e-05 -3.99198e-05 -4.10553e-05 -4.22181e-05 -4.34083e-05 -4.46257e-05 -4.58068e-05 -4.68878e-05 -4.78688e-05 -4.87498e-05 -4.95307e-05 -5.02116e-05 -5.07924e-05 -5.12732e-05 -5.16167e-05 -5.17857e-05 -5.17802e-05 -5.16002e-05 -5.12457e-05 -5.07167e-05 -5.00132e-05 -4.91351e-05 -4.80921e-05 -4.68935e-05 -4.55395e-05 -4.40299e-05 -4.23649e-05 -4.05443e-05 -3.85683e-05 -3.64367e-05 -3.42134e-05 -3.19621e-05 -2.96829e-05 -2.73756e-05 -2.50403e-05 -2.26771e-05 -2.02858e-05 -1.78665e-05 -1.55218e-05 -1.33542e-05 -1.13636e-05 -9.55009e-06 -7.91365e-06 -6.45429e-06 -5.17199e-06 -4.06676e-06 -3.11362e-06 -2.28756e-06 -1.58858e-06 -1.01669e-06 -5.71889e-07 -2.54173e-07 -6.35432e-08 0 0 -2.54173e-07 -1.01669e-06 -2.28755e-06 -4.06676e-06 -6.35431e-06 -9.15021e-06 -1.24545e-05 -1.6267e-05 -2.06879e-05 -2.58171e-05 -3.16546e-05 -3.82003e-05 -4.54544e-05 -5.34167e-05 -6.20873e-05 -7.14661e-05 -8.11431e-05 -9.07082e-05 -0.000100161 -0.000109502 -0.000118731 -0.000127849 -0.000136854 -0.000145747 -0.000154273 -0.000162177 -0.000169459 -0.00017612 -0.000182158 -0.000187574 -0.000192368 -0.00019654 -0.000200053 -0.000202867 -0.000204983 -0.000206401 -0.000207121 -0.000207143 -0.000206467 -0.000205093 -0.00020317 -0.000200846 -0.000198123 -0.000194999 -0.000191475 -0.000187551 -0.000183227 -0.000178503 -0.000173633 -0.000168873 -0.000164221 -0.000159679 -0.000155247 -0.000150923 -0.000146709 -0.000142604 -0.000138807 -0.000135516 -0.000132731 -0.000130453 -0.000128681 -0.000127415 -0.000126656 -0.000126403 -0.000126656 -0.000127415 -0.000128681 -0.000130453 -0.000132731 -0.000135516 -0.000138807 -0.000142604 -0.000146709 -0.000150923 -0.000155247 -0.000159679 -0.000164221 -0.000168873 -0.000173633 -0.000178503 -0.000183227 -0.000187551 -0.000191475 -0.000194999 -0.000198123 -0.000200846 -0.00020317 -0.000205093 -0.000206467 -0.000207143 -0.000207121 -0.000206401 -0.000204983 -0.000202867 -0.000200053 -0.00019654 -0.000192368 -0.000187574 -0.000182158 -0.00017612 -0.000169459 -0.000162177 -0.000154273 -0.000145747 -0.000136854 -0.000127849 -0.000118731 -0.000109502 -0.000100161 -9.07082e-05 -8.11432e-05 -7.14662e-05 -6.20873e-05 -5.34167e-05 -4.54544e-05 -3.82004e-05 -3.16546e-05 -2.58172e-05 -2.0688e-05 -1.62671e-05 -1.24545e-05 -9.15022e-06 -6.35432e-06 -4.06676e-06 -2.28756e-06 -1.01669e-06 -2.54173e-07 0 0 -5.71888e-07 -2.28755e-06 -5.14699e-06 -9.15021e-06 -1.42972e-05 -2.0588e-05 -2.80225e-05 -3.66008e-05 -4.65479e-05 -5.80885e-05 -7.12228e-05 -8.59508e-05 -0.000102272 -0.000120188 -0.000139696 -0.000160799 -0.000182572 -0.000204093 -0.000225363 -0.00024638 -0.000267146 -0.000287659 -0.000307921 -0.00032793 -0.000347114 -0.000364899 -0.000381284 -0.000396269 -0.000409855 -0.000422041 -0.000432828 -0.000442216 -0.000450118 -0.00045645 -0.000461211 -0.000464402 -0.000466022 -0.000466072 -0.000464551 -0.000461459 -0.000457132 -0.000451904 -0.000445776 -0.000438748 -0.00043082 -0.000421991 -0.000412261 -0.000401631 -0.000390674 -0.000379963 -0.000369498 -0.000359278 -0.000349305 -0.000339577 -0.000330095 -0.000320859 -0.000312315 -0.000304911 -0.000298645 -0.000293519 -0.000289532 -0.000286684 -0.000284975 -0.000284406 -0.000284975 -0.000286684 -0.000289532 -0.000293519 -0.000298645 -0.000304911 -0.000312315 -0.000320859 -0.000330095 -0.000339577 -0.000349305 -0.000359278 -0.000369498 -0.000379963 -0.000390674 -0.000401631 -0.000412261 -0.000421991 -0.00043082 -0.000438748 -0.000445776 -0.000451904 -0.000457132 -0.000461459 -0.000464551 -0.000466072 -0.000466022 -0.000464402 -0.000461211 -0.00045645 -0.000450118 -0.000442216 -0.000432828 -0.000422042 -0.000409855 -0.000396269 -0.000381284 -0.000364899 -0.000347114 -0.000327931 -0.000307921 -0.000287659 -0.000267146 -0.00024638 -0.000225363 -0.000204094 -0.000182572 -0.000160799 -0.000139696 -0.000120188 -0.000102272 -8.59508e-05 -7.12229e-05 -5.80886e-05 -4.65479e-05 -3.66009e-05 -2.80226e-05 -2.0588e-05 -1.42972e-05 -9.15022e-06 -5.147e-06 -2.28756e-06 -5.71889e-07 0 0 -1.01669e-06 -4.06676e-06 -9.15021e-06 -1.6267e-05 -2.54173e-05 -3.66008e-05 -4.98178e-05 -6.50682e-05 -8.27518e-05 -0.000103269 -0.000126618 -0.000152801 -0.000181817 -0.000213667 -0.000248349 -0.000285865 -0.000324573 -0.000362833 -0.000400645 -0.000438009 -0.000474926 -0.000511394 -0.000547415 -0.000582987 -0.000617092 -0.000648709 -0.000677838 -0.000704478 -0.000728631 -0.000750296 -0.000769473 -0.000786162 -0.00080021 -0.000811467 -0.000819932 -0.000825604 -0.000828484 -0.000828572 -0.000825868 -0.000820372 -0.000812679 -0.000803385 -0.000792491 -0.000779997 -0.000765901 -0.000750205 -0.000732909 -0.000714011 -0.000694532 -0.00067549 -0.000656885 -0.000638717 -0.000620986 -0.000603692 -0.000586835 -0.000570416 -0.000555227 -0.000542063 -0.000530925 -0.000521812 -0.000514724 -0.000509661 -0.000506623 -0.00050561 -0.000506623 -0.000509661 -0.000514724 -0.000521812 -0.000530925 -0.000542063 -0.000555227 -0.000570416 -0.000586835 -0.000603692 -0.000620986 -0.000638717 -0.000656885 -0.00067549 -0.000694532 -0.000714011 -0.000732909 -0.000750205 -0.000765901 -0.000779997 -0.000792491 -0.000803385 -0.000812679 -0.000820372 -0.000825868 -0.000828572 -0.000828484 -0.000825604 -0.000819932 -0.000811467 -0.00080021 -0.000786162 -0.000769473 -0.000750296 -0.000728631 -0.000704478 -0.000677838 -0.000648709 -0.000617092 -0.000582988 -0.000547415 -0.000511394 -0.000474926 -0.000438009 -0.000400645 -0.000362833 -0.000324573 -0.000285865 -0.000248349 -0.000213667 -0.000181818 -0.000152801 -0.000126618 -0.000103269 -8.27519e-05 -6.50682e-05 -4.98179e-05 -3.66009e-05 -2.54173e-05 -1.62671e-05 -9.15022e-06 -4.06676e-06 -1.01669e-06 0 0 -1.58858e-06 -6.35431e-06 -1.42972e-05 -2.54173e-05 -3.97145e-05 -5.71888e-05 -7.78403e-05 -0.000101669 -0.0001293 -0.000161357 -0.000197841 -0.000238752 -0.00028409 -0.000333854 -0.000388045 -0.000446663 -0.000507145 -0.000566926 -0.000626008 -0.00068439 -0.000742071 -0.000799053 -0.000855336 -0.000910918 -0.000964206 -0.00101361 -0.00105912 -0.00110075 -0.00113849 -0.00117234 -0.0012023 -0.00122838 -0.00125033 -0.00126792 -0.00128114 -0.00129001 -0.00129451 -0.00129464 -0.00129042 -0.00128183 -0.00126981 -0.00125529 -0.00123827 -0.00121874 -0.00119672 -0.0011722 -0.00114517 -0.00111564 -0.00108521 -0.00105545 -0.00102638 -0.000997996 -0.000970291 -0.000943269 -0.00091693 -0.000891274 -0.000867542 -0.000846974 -0.00082957 -0.000815331 -0.000804256 -0.000796345 -0.000791599 -0.000790016 -0.000791599 -0.000796345 -0.000804256 -0.000815331 -0.00082957 -0.000846974 -0.000867542 -0.000891274 -0.00091693 -0.000943269 -0.000970291 -0.000997995 -0.00102638 -0.00105545 -0.00108521 -0.00111564 -0.00114517 -0.0011722 -0.00119672 -0.00121874 -0.00123827 -0.00125529 -0.00126981 -0.00128183 -0.00129042 -0.00129464 -0.00129451 -0.00129001 -0.00128114 -0.00126792 -0.00125033 -0.00122838 -0.0012023 -0.00117234 -0.00113849 -0.00110075 -0.00105912 -0.00101361 -0.000964207 -0.000910918 -0.000855336 -0.000799054 -0.000742072 -0.00068439 -0.000626008 -0.000566926 -0.000507145 -0.000446664 -0.000388046 -0.000333854 -0.00028409 -0.000238752 -0.000197841 -0.000161357 -0.0001293 -0.000101669 -7.78404e-05 -5.71889e-05 -3.97145e-05 -2.54173e-05 -1.42972e-05 -6.35432e-06 -1.58858e-06 0 0 -2.28755e-06 -9.15021e-06 -2.0588e-05 -3.66008e-05 -5.71888e-05 -8.23519e-05 -0.00011209 -0.000146403 -0.000186191 -0.000232354 -0.000284891 -0.000343803 -0.000409089 -0.00048075 -0.000558785 -0.000643195 -0.000730288 -0.000816374 -0.000901451 -0.000985521 -0.00106858 -0.00115064 -0.00123168 -0.00131172 -0.00138846 -0.00145959 -0.00152513 -0.00158508 -0.00163942 -0.00168817 -0.00173131 -0.00176886 -0.00180047 -0.0018258 -0.00184485 -0.00185761 -0.00186409 -0.00186429 -0.0018582 -0.00184584 -0.00182853 -0.00180762 -0.00178311 -0.00175499 -0.00172328 -0.00168796 -0.00164904 -0.00160653 -0.0015627 -0.00151985 -0.00147799 -0.00143711 -0.00139722 -0.00135831 -0.00132038 -0.00128344 -0.00124926 -0.00121964 -0.00119458 -0.00117408 -0.00115813 -0.00114674 -0.0011399 -0.00113762 -0.0011399 -0.00114674 -0.00115813 -0.00117408 -0.00119458 -0.00121964 -0.00124926 -0.00128344 -0.00132038 -0.00135831 -0.00139722 -0.00143711 -0.00147799 -0.00151985 -0.0015627 -0.00160653 -0.00164904 -0.00168796 -0.00172328 -0.00175499 -0.00178311 -0.00180762 -0.00182853 -0.00184584 -0.0018582 -0.00186429 -0.00186409 -0.00185761 -0.00184485 -0.0018258 -0.00180047 -0.00176886 -0.00173131 -0.00168817 -0.00163942 -0.00158508 -0.00152513 -0.0014596 -0.00138846 -0.00131172 -0.00123168 -0.00115064 -0.00106858 -0.000985521 -0.000901452 -0.000816374 -0.000730289 -0.000643195 -0.000558786 -0.00048075 -0.00040909 -0.000343803 -0.000284892 -0.000232354 -0.000186192 -0.000146404 -0.00011209 -8.2352e-05 -5.71889e-05 -3.66009e-05 -2.0588e-05 -9.15022e-06 -2.28756e-06 0 0 -3.11361e-06 -1.24545e-05 -2.80225e-05 -4.98178e-05 -7.78403e-05 -0.00011209 -0.000152567 -0.000199271 -0.000253427 -0.00031626 -0.000387769 -0.000467954 -0.000556816 -0.000654354 -0.000760569 -0.00087546 -0.000994004 -0.00111118 -0.00122698 -0.0013414 -0.00145446 -0.00156614 -0.00167646 -0.0017854 -0.00188984 -0.00198667 -0.00207588 -0.00215746 -0.00223143 -0.00229778 -0.00235651 -0.00240762 -0.00245064 -0.00248512 -0.00251104 -0.00252841 -0.00253723 -0.0025375 -0.00252922 -0.00251239 -0.00248883 -0.00246037 -0.00242701 -0.00238874 -0.00234557 -0.0022975 -0.00224453 -0.00218666 -0.00212701 -0.00206869 -0.00201171 -0.00195607 -0.00190177 -0.00184881 -0.00179718 -0.0017469 -0.00170038 -0.00166007 -0.00162596 -0.00159805 -0.00157634 -0.00156084 -0.00155153 -0.00154843 -0.00155153 -0.00156084 -0.00157634 -0.00159805 -0.00162596 -0.00166007 -0.00170038 -0.0017469 -0.00179718 -0.00184881 -0.00190177 -0.00195607 -0.00201171 -0.00206869 -0.00212701 -0.00218666 -0.00224453 -0.0022975 -0.00234557 -0.00238874 -0.00242701 -0.00246037 -0.00248883 -0.00251239 -0.00252922 -0.0025375 -0.00253723 -0.00252841 -0.00251104 -0.00248512 -0.00245064 -0.00240762 -0.00235651 -0.00229778 -0.00223143 -0.00215747 -0.00207588 -0.00198667 -0.00188985 -0.0017854 -0.00167646 -0.00156615 -0.00145446 -0.0013414 -0.00122698 -0.00111118 -0.000994004 -0.000875461 -0.000760569 -0.000654355 -0.000556816 -0.000467954 -0.000387769 -0.00031626 -0.000253428 -0.000199271 -0.000152567 -0.00011209 -7.78404e-05 -4.98179e-05 -2.80226e-05 -1.24545e-05 -3.11362e-06 0 0 -4.06676e-06 -1.6267e-05 -3.66008e-05 -6.50682e-05 -0.000101669 -0.000146403 -0.000199271 -0.000260273 -0.000331007 -0.000413074 -0.000506473 -0.000611205 -0.00072727 -0.000854667 -0.000993396 -0.00114346 -0.00129829 -0.00145133 -0.00160258 -0.00175204 -0.0018997 -0.00204558 -0.00218966 -0.00233195 -0.00246837 -0.00259484 -0.00271135 -0.00281791 -0.00291452 -0.00300118 -0.00307789 -0.00314465 -0.00320084 -0.00324587 -0.00327973 -0.00330242 -0.00331394 -0.00331429 -0.00330347 -0.00328149 -0.00325072 -0.00321354 -0.00316997 -0.00311999 -0.00306361 -0.00300082 -0.00293163 -0.00285605 -0.00277813 -0.00270196 -0.00262754 -0.00255487 -0.00248394 -0.00241477 -0.00234734 -0.00228166 -0.00222091 -0.00216825 -0.0021237 -0.00208725 -0.00205889 -0.00203864 -0.00202649 -0.00202244 -0.00202649 -0.00203864 -0.00205889 -0.00208725 -0.0021237 -0.00216825 -0.00222091 -0.00228166 -0.00234734 -0.00241477 -0.00248394 -0.00255487 -0.00262754 -0.00270196 -0.00277813 -0.00285605 -0.00293163 -0.00300082 -0.00306361 -0.00311999 -0.00316997 -0.00321354 -0.00325072 -0.00328149 -0.00330347 -0.00331429 -0.00331394 -0.00330242 -0.00327973 -0.00324587 -0.00320084 -0.00314465 -0.00307789 -0.00300118 -0.00291452 -0.00281791 -0.00271135 -0.00259484 -0.00246837 -0.00233195 -0.00218966 -0.00204558 -0.0018997 -0.00175204 -0.00160258 -0.00145133 -0.00129829 -0.00114346 -0.000993397 -0.000854667 -0.00072727 -0.000611206 -0.000506474 -0.000413074 -0.000331007 -0.000260273 -0.000199271 -0.000146404 -0.000101669 -6.50682e-05 -3.66009e-05 -1.62671e-05 -4.06676e-06 0 0 -5.17199e-06 -2.06879e-05 -4.65479e-05 -8.27518e-05 -0.0001293 -0.000186191 -0.000253427 -0.000331007 -0.000420859 -0.000524909 -0.00064316 -0.000775609 -0.000922259 -0.00108311 -0.00125816 -0.0014474 -0.00164246 -0.00183494 -0.00202485 -0.00221218 -0.00239693 -0.00257911 -0.00275871 -0.00293574 -0.00310498 -0.00326124 -0.00340452 -0.00353481 -0.00365213 -0.00375645 -0.0038478 -0.00392616 -0.00399081 -0.004041 -0.00407675 -0.00409805 -0.00410489 -0.00409729 -0.00407524 -0.00403874 -0.00399096 -0.00393505 -0.00387103 -0.00379889 -0.00371863 -0.00363026 -0.00353376 -0.00342914 -0.00332178 -0.00321703 -0.0031149 -0.00301539 -0.0029185 -0.00282423 -0.00273257 -0.00264353 -0.00256128 -0.00249 -0.00242969 -0.00238034 -0.00234196 -0.00231455 -0.0022981 -0.00229261 -0.0022981 -0.00231455 -0.00234196 -0.00238034 -0.00242969 -0.00249 -0.00256128 -0.00264353 -0.00273257 -0.00282423 -0.0029185 -0.00301539 -0.0031149 -0.00321703 -0.00332178 -0.00342914 -0.00353376 -0.00363025 -0.00371863 -0.00379889 -0.00387103 -0.00393505 -0.00399096 -0.00403874 -0.00407524 -0.00409729 -0.00410489 -0.00409805 -0.00407675 -0.004041 -0.00399081 -0.00392616 -0.0038478 -0.00375645 -0.00365213 -0.00353481 -0.00340452 -0.00326124 -0.00310498 -0.00293574 -0.00275871 -0.00257911 -0.00239693 -0.00221218 -0.00202485 -0.00183494 -0.00164246 -0.0014474 -0.00125816 -0.00108311 -0.000922259 -0.00077561 -0.00064316 -0.00052491 -0.000420859 -0.000331007 -0.000253428 -0.000186192 -0.0001293 -8.27519e-05 -4.65479e-05 -2.0688e-05 -5.17199e-06 0 0 -6.45428e-06 -2.58171e-05 -5.80885e-05 -0.000103269 -0.000161357 -0.000232354 -0.00031626 -0.000413074 -0.000524909 -0.000653879 -0.000799982 -0.000963219 -0.00114359 -0.00134109 -0.00155573 -0.00178751 -0.00202583 -0.00226012 -0.00249037 -0.00271659 -0.00293877 -0.00315692 -0.00337104 -0.00358112 -0.00378063 -0.00396304 -0.00412835 -0.00427656 -0.00440767 -0.00452167 -0.00461858 -0.00469838 -0.00476028 -0.00480347 -0.00482796 -0.00483373 -0.0048208 -0.00478916 -0.00473882 -0.00466976 -0.00458632 -0.00449282 -0.00438925 -0.00427561 -0.00415191 -0.00401814 -0.00387431 -0.00372042 -0.00356366 -0.00341127 -0.00326322 -0.00311953 -0.00298019 -0.00284521 -0.00271458 -0.0025883 -0.00247196 -0.00237113 -0.00228581 -0.002216 -0.00216171 -0.00212293 -0.00209966 -0.0020919 -0.00209966 -0.00212293 -0.00216171 -0.002216 -0.00228581 -0.00237113 -0.00247196 -0.0025883 -0.00271458 -0.00284521 -0.00298019 -0.00311953 -0.00326322 -0.00341127 -0.00356366 -0.00372042 -0.00387431 -0.00401814 -0.00415191 -0.00427561 -0.00438925 -0.00449282 -0.00458632 -0.00466976 -0.00473882 -0.00478916 -0.0048208 -0.00483373 -0.00482796 -0.00480347 -0.00476028 -0.00469838 -0.00461858 -0.00452167 -0.00440767 -0.00427656 -0.00412835 -0.00396304 -0.00378063 -0.00358112 -0.00337104 -0.00315692 -0.00293877 -0.00271659 -0.00249037 -0.00226012 -0.00202583 -0.00178751 -0.00155573 -0.0013411 -0.00114359 -0.00096322 -0.000799983 -0.000653879 -0.00052491 -0.000413074 -0.00031626 -0.000232354 -0.000161357 -0.000103269 -5.80886e-05 -2.58172e-05 -6.45429e-06 0 0 -7.91365e-06 -3.16546e-05 -7.12228e-05 -0.000126618 -0.000197841 -0.000284891 -0.000387769 -0.000506473 -0.00064316 -0.000799982 -0.00097694 -0.00117403 -0.00139126 -0.00162863 -0.00188613 -0.00216377 -0.00244839 -0.00272685 -0.00299914 -0.00326526 -0.00352522 -0.00377901 -0.00402664 -0.0042681 -0.00449532 -0.00470024 -0.00488285 -0.00504315 -0.00518115 -0.00529684 -0.00539023 -0.00546131 -0.00550927 -0.00553328 -0.00553335 -0.00550948 -0.00546166 -0.0053899 -0.0052942 -0.00517455 -0.00503681 -0.00488683 -0.00472461 -0.00455015 -0.00436344 -0.00416449 -0.0039533 -0.00372986 -0.00350378 -0.00328466 -0.00307249 -0.00286728 -0.00266902 -0.00247772 -0.00229337 -0.00211598 -0.00195293 -0.00181163 -0.00169206 -0.00159423 -0.00151815 -0.0014638 -0.00143119 -0.00142032 -0.00143119 -0.0014638 -0.00151814 -0.00159423 -0.00169206 -0.00181163 -0.00195293 -0.00211598 -0.00229337 -0.00247772 -0.00266902 -0.00286728 -0.00307249 -0.00328466 -0.00350378 -0.00372986 -0.0039533 -0.00416449 -0.00436344 -0.00455015 -0.00472461 -0.00488683 -0.00503681 -0.00517455 -0.0052942 -0.0053899 -0.00546166 -0.00550948 -0.00553335 -0.00553328 -0.00550927 -0.00546131 -0.00539023 -0.00529684 -0.00518115 -0.00504315 -0.00488285 -0.00470024 -0.00449532 -0.0042681 -0.00402664 -0.00377901 -0.00352522 -0.00326526 -0.00299914 -0.00272685 -0.00244839 -0.00216377 -0.00188613 -0.00162863 -0.00139127 -0.00117404 -0.000976941 -0.000799983 -0.00064316 -0.000506474 -0.000387769 -0.000284892 -0.000197841 -0.000126618 -7.12229e-05 -3.16546e-05 -7.91366e-06 0 0 -9.55008e-06 -3.82003e-05 -8.59507e-05 -0.000152801 -0.000238752 -0.000343803 -0.000467954 -0.000611205 -0.000775609 -0.000963219 -0.00117403 -0.00140805 -0.00166528 -0.00194571 -0.00224935 -0.00257619 -0.00291015 -0.00323514 -0.00355116 -0.0038582 -0.00415628 -0.00444538 -0.00472551 -0.00499667 -0.00524905 -0.00547283 -0.00566801 -0.00583459 -0.00597257 -0.00608196 -0.00616275 -0.00621495 -0.00623776 -0.00623042 -0.00619293 -0.00612528 -0.00602747 -0.0058995 -0.00574139 -0.00555311 -0.00534243 -0.0051171 -0.00487712 -0.0046225 -0.00435322 -0.00406929 -0.00377071 -0.00345748 -0.00314214 -0.00283722 -0.00254272 -0.00225865 -0.00198499 -0.00172176 -0.00146895 -0.00122656 -0.00100421 -0.0008115 -0.000648441 -0.000515029 -0.000411264 -0.000337146 -0.000292675 -0.000277851 -0.000292675 -0.000337146 -0.000411264 -0.000515029 -0.000648441 -0.0008115 -0.00100421 -0.00122656 -0.00146895 -0.00172176 -0.00198499 -0.00225865 -0.00254272 -0.00283722 -0.00314214 -0.00345748 -0.00377071 -0.00406929 -0.00435322 -0.0046225 -0.00487712 -0.0051171 -0.00534243 -0.00555311 -0.00574139 -0.0058995 -0.00602747 -0.00612528 -0.00619293 -0.00623042 -0.00623776 -0.00621495 -0.00616275 -0.00608196 -0.00597258 -0.00583459 -0.00566801 -0.00547283 -0.00524905 -0.00499667 -0.00472551 -0.00444538 -0.00415628 -0.00385821 -0.00355116 -0.00323514 -0.00291015 -0.00257619 -0.00224935 -0.00194571 -0.00166528 -0.00140806 -0.00117404 -0.00096322 -0.00077561 -0.000611206 -0.000467955 -0.000343803 -0.000238752 -0.000152801 -8.59508e-05 -3.82004e-05 -9.55009e-06 0 0 -1.13636e-05 -4.54544e-05 -0.000102272 -0.000181817 -0.00028409 -0.000409089 -0.000556816 -0.00072727 -0.000922258 -0.00114359 -0.00139126 -0.00166528 -0.00196564 -0.00229234 -0.00264539 -0.00302478 -0.00341111 -0.00378499 -0.00414643 -0.00449541 -0.00483194 -0.00515603 -0.00546766 -0.00576684 -0.00604181 -0.00628081 -0.00648383 -0.00665087 -0.00678194 -0.00687703 -0.00693615 -0.00695929 -0.00694577 -0.0068949 -0.00680669 -0.00668113 -0.00651823 -0.00631797 -0.00608038 -0.00580543 -0.00550317 -0.00518362 -0.00484679 -0.00449266 -0.00412125 -0.00373255 -0.00332656 -0.00290328 -0.00247873 -0.00206894 -0.00167391 -0.00129362 -0.000928098 -0.000577326 -0.000241309 7.99536e-05 0.000374221 0.000629252 0.000845048 0.00102161 0.00115893 0.00125702 0.00131588 0.00133549 0.00131588 0.00125702 0.00115893 0.00102161 0.000845049 0.000629253 0.000374221 7.99539e-05 -0.000241309 -0.000577326 -0.000928097 -0.00129362 -0.00167391 -0.00206894 -0.00247873 -0.00290328 -0.00332656 -0.00373255 -0.00412125 -0.00449266 -0.00484679 -0.00518362 -0.00550317 -0.00580543 -0.00608038 -0.00631797 -0.00651823 -0.00668113 -0.00680669 -0.0068949 -0.00694577 -0.00695929 -0.00693615 -0.00687703 -0.00678194 -0.00665087 -0.00648383 -0.00628081 -0.00604182 -0.00576685 -0.00546766 -0.00515603 -0.00483195 -0.00449541 -0.00414643 -0.003785 -0.00341111 -0.00302478 -0.00264539 -0.00229234 -0.00196564 -0.00166528 -0.00139127 -0.00114359 -0.000922259 -0.00072727 -0.000556816 -0.00040909 -0.00028409 -0.000181818 -0.000102272 -4.54544e-05 -1.13636e-05 0 0 -1.33542e-05 -5.34167e-05 -0.000120187 -0.000213667 -0.000333854 -0.00048075 -0.000654354 -0.000854667 -0.00108311 -0.00134109 -0.00162863 -0.00194571 -0.00229234 -0.00266852 -0.00307425 -0.00350952 -0.00395126 -0.00437641 -0.00478495 -0.00517688 -0.00555222 -0.00591095 -0.00625308 -0.00657861 -0.00687362 -0.00712419 -0.00733031 -0.007492 -0.00760924 -0.00768205 -0.00771041 -0.00769434 -0.00763328 -0.00752672 -0.00737463 -0.00717704 -0.00693393 -0.00664531 -0.00631117 -0.00593152 -0.00551904 -0.0050864 -0.0046336 -0.00416064 -0.00366753 -0.00315426 -0.00262083 -0.00206725 -0.00151356 -0.000979825 -0.000466044 2.77837e-05 0.000501658 0.00095558 0.00138955 0.00180356 0.00218235 0.00251063 0.00278841 0.00301568 0.00319245 0.00331871 0.00339447 0.00341972 0.00339447 0.00331871 0.00319245 0.00301568 0.00278841 0.00251063 0.00218235 0.00180356 0.00138955 0.00095558 0.000501659 2.77841e-05 -0.000466044 -0.000979824 -0.00151356 -0.00206725 -0.00262083 -0.00315426 -0.00366753 -0.00416064 -0.0046336 -0.0050864 -0.00551904 -0.00593152 -0.00631117 -0.00664531 -0.00693393 -0.00717704 -0.00737463 -0.00752672 -0.00763328 -0.00769434 -0.00771041 -0.00768205 -0.00760924 -0.007492 -0.00733031 -0.00712419 -0.00687362 -0.00657861 -0.00625309 -0.00591095 -0.00555222 -0.00517689 -0.00478495 -0.00437641 -0.00395126 -0.00350952 -0.00307425 -0.00266852 -0.00229234 -0.00194571 -0.00162863 -0.0013411 -0.00108311 -0.000854667 -0.000654355 -0.00048075 -0.000333854 -0.000213667 -0.000120188 -5.34167e-05 -1.33542e-05 0 0 -1.55218e-05 -6.20872e-05 -0.000139696 -0.000248349 -0.000388045 -0.000558785 -0.000760569 -0.000993396 -0.00125815 -0.00155573 -0.00188613 -0.00224935 -0.00264539 -0.00307425 -0.00353592 -0.00403042 -0.00453061 -0.00500938 -0.00546671 -0.00590262 -0.0063171 -0.00671016 -0.00708178 -0.00743198 -0.00774446 -0.00800296 -0.00820746 -0.00835797 -0.00845449 -0.00849702 -0.00848555 -0.00842009 -0.00830031 -0.00812587 -0.00789676 -0.00761301 -0.00727459 -0.00688151 -0.00643378 -0.00593138 -0.00539003 -0.00482542 -0.00423756 -0.00362644 -0.00299206 -0.00233443 -0.00165354 -0.000949388 -0.000246621 0.000430129 0.00108086 0.00170558 0.00230428 0.00287696 0.00342362 0.00394427 0.00442018 0.00483264 0.00518164 0.00546718 0.00568928 0.00584791 0.00594309 0.00597482 0.00594309 0.00584791 0.00568928 0.00546718 0.00518164 0.00483264 0.00442018 0.00394427 0.00342362 0.00287696 0.00230428 0.00170558 0.00108086 0.00043013 -0.00024662 -0.000949388 -0.00165354 -0.00233443 -0.00299206 -0.00362644 -0.00423756 -0.00482542 -0.00539003 -0.00593138 -0.00643378 -0.00688151 -0.00727459 -0.00761301 -0.00789676 -0.00812587 -0.00830031 -0.00842009 -0.00848555 -0.00849702 -0.00845449 -0.00835797 -0.00820746 -0.00800296 -0.00774447 -0.00743198 -0.00708178 -0.00671016 -0.00631711 -0.00590263 -0.00546672 -0.00500938 -0.00453062 -0.00403042 -0.00353592 -0.00307425 -0.00264539 -0.00224935 -0.00188613 -0.00155573 -0.00125816 -0.000993397 -0.00076057 -0.000558786 -0.000388046 -0.000248349 -0.000139696 -6.20873e-05 -1.55218e-05 0 0 -1.78665e-05 -7.14661e-05 -0.000160799 -0.000285864 -0.000446663 -0.000643195 -0.00087546 -0.00114346 -0.0014474 -0.00178751 -0.00216377 -0.00257619 -0.00302478 -0.00350952 -0.00403042 -0.00458748 -0.00514916 -0.00568391 -0.00619173 -0.00667263 -0.0071266 -0.00755364 -0.00795375 -0.00832694 -0.00865435 -0.00891713 -0.00911527 -0.00924879 -0.00931768 -0.00932193 -0.00926156 -0.00913655 -0.00894684 -0.00869235 -0.00837308 -0.00798903 -0.00754019 -0.00702658 -0.00644818 -0.00580501 -0.00511615 -0.0044007 -0.00365867 -0.00289005 -0.00209484 -0.00127305 -0.000424671 0.000450295 0.00132208 0.00216092 0.00296681 0.00373976 0.00447976 0.00518681 0.00586091 0.00650207 0.00708771 0.00759527 0.00802474 0.00837612 0.00864942 0.00884463 0.00896176 0.0090008 0.00896176 0.00884463 0.00864942 0.00837612 0.00802474 0.00759527 0.00708771 0.00650207 0.00586091 0.00518681 0.00447976 0.00373976 0.00296681 0.00216092 0.00132208 0.000450296 -0.000424671 -0.00127305 -0.00209484 -0.00289005 -0.00365867 -0.0044007 -0.00511615 -0.00580501 -0.00644818 -0.00702658 -0.00754019 -0.00798903 -0.00837308 -0.00869235 -0.00894684 -0.00913655 -0.00926156 -0.00932193 -0.00931768 -0.00924879 -0.00911527 -0.00891713 -0.00865435 -0.00832694 -0.00795376 -0.00755364 -0.0071266 -0.00667263 -0.00619174 -0.00568391 -0.00514916 -0.00458748 -0.00403042 -0.00350952 -0.00302478 -0.00257619 -0.00216377 -0.00178751 -0.0014474 -0.00114346 -0.000875461 -0.000643196 -0.000446664 -0.000285865 -0.000160799 -7.14662e-05 -1.78665e-05 0 0 -2.02858e-05 -8.11431e-05 -0.000182572 -0.000324573 -0.000507145 -0.000730288 -0.000994003 -0.00129829 -0.00164246 -0.00202583 -0.00244839 -0.00291015 -0.00341111 -0.00395126 -0.00453061 -0.00514916 -0.00577054 -0.0063584 -0.00691274 -0.00743356 -0.00792085 -0.00837462 -0.00879486 -0.00918159 -0.00951315 -0.0097679 -0.00994586 -0.010047 -0.0100714 -0.0100189 -0.00988965 -0.0096836 -0.00940105 -0.00904235 -0.00860748 -0.00809644 -0.00750924 -0.00684587 -0.00610634 -0.00529065 -0.00442187 -0.00352308 -0.00259427 -0.00163546 -0.000646631 0.000372205 0.00142105 0.00249991 0.00357308 0.00460487 0.00559528 0.00654431 0.00745195 0.00831821 0.00914309 0.00992659 0.0106417 0.0112615 0.0117859 0.012215 0.0125487 0.0127871 0.0129301 0.0129778 0.0129301 0.0127871 0.0125487 0.012215 0.0117859 0.0112615 0.0106417 0.00992659 0.00914309 0.00831821 0.00745195 0.00654431 0.00559528 0.00460487 0.00357308 0.00249991 0.00142105 0.000372205 -0.000646631 -0.00163546 -0.00259427 -0.00352307 -0.00442187 -0.00529065 -0.00610634 -0.00684587 -0.00750924 -0.00809644 -0.00860748 -0.00904235 -0.00940105 -0.0096836 -0.00988965 -0.0100189 -0.0100714 -0.010047 -0.00994586 -0.00976791 -0.00951315 -0.00918159 -0.00879487 -0.00837462 -0.00792085 -0.00743356 -0.00691274 -0.00635841 -0.00577055 -0.00514916 -0.00453062 -0.00395127 -0.00341111 -0.00291015 -0.00244839 -0.00202583 -0.00164246 -0.00129829 -0.000994004 -0.000730289 -0.000507145 -0.000324573 -0.000182572 -8.11432e-05 -2.02858e-05 0 0 -2.2677e-05 -9.07082e-05 -0.000204093 -0.000362833 -0.000566926 -0.000816373 -0.00111118 -0.00145133 -0.00183494 -0.00226012 -0.00272685 -0.00323514 -0.00378499 -0.00437641 -0.00500938 -0.00568391 -0.0063584 -0.00699126 -0.00758248 -0.00813206 -0.00864 -0.00910631 -0.00953097 -0.00991401 -0.0102307 -0.0104565 -0.0105913 -0.0106352 -0.0105881 -0.0104501 -0.0102211 -0.00990109 -0.00949111 -0.00899203 -0.00840385 -0.00772658 -0.00696022 -0.00610476 -0.0051602 -0.00412656 -0.00303166 -0.00190338 -0.000741705 0.000453363 0.00168182 0.00294368 0.00423892 0.00556756 0.00688691 0.0081543 0.00936973 0.0105332 0.0116447 0.0127042 0.0137118 0.0146675 0.015539 0.0162943 0.0169334 0.0174564 0.0178631 0.0181536 0.0183279 0.018386 0.0183279 0.0181536 0.0178631 0.0174564 0.0169334 0.0162943 0.015539 0.0146675 0.0137118 0.0127042 0.0116447 0.0105332 0.00936973 0.00815431 0.00688691 0.00556756 0.00423892 0.00294368 0.00168182 0.000453364 -0.000741705 -0.00190338 -0.00303166 -0.00412656 -0.0051602 -0.00610476 -0.00696022 -0.00772658 -0.00840385 -0.00899203 -0.00949111 -0.00990109 -0.0102211 -0.0104501 -0.0105881 -0.0106352 -0.0105913 -0.0104565 -0.0102307 -0.00991401 -0.00953098 -0.00910631 -0.00864 -0.00813206 -0.00758248 -0.00699126 -0.00635841 -0.00568391 -0.00500938 -0.00437641 -0.003785 -0.00323514 -0.00272685 -0.00226012 -0.00183494 -0.00145133 -0.00111118 -0.000816374 -0.000566927 -0.000362833 -0.000204094 -9.07083e-05 -2.26771e-05 0 0 -2.50403e-05 -0.000100161 -0.000225363 -0.000400645 -0.000626008 -0.000901451 -0.00122697 -0.00160258 -0.00202485 -0.00249037 -0.00299914 -0.00355116 -0.00414643 -0.00478495 -0.00546671 -0.00619173 -0.00691274 -0.00758248 -0.00820094 -0.00876814 -0.00928406 -0.00974871 -0.0101621 -0.0105242 -0.0108071 -0.010983 -0.0110517 -0.0110134 -0.0108679 -0.0106154 -0.0102558 -0.00978905 -0.009217 -0.00854139 -0.0077622 -0.00687945 -0.00589312 -0.00480323 -0.00360976 -0.00231273 -0.000945538 0.00045838 0.00189903 0.00337641 0.00489052 0.00644137 0.00802894 0.00965325 0.0112636 0.0128092 0.0142902 0.0157064 0.017058 0.0183449 0.0195671 0.0207247 0.0217795 0.0226937 0.0234673 0.0241002 0.0245925 0.0249441 0.025155 0.0252254 0.025155 0.0249441 0.0245925 0.0241002 0.0234673 0.0226937 0.0217795 0.0207247 0.0195671 0.0183449 0.017058 0.0157064 0.0142902 0.0128092 0.0112636 0.00965325 0.00802894 0.00644137 0.00489052 0.00337641 0.00189903 0.00045838 -0.000945538 -0.00231273 -0.00360976 -0.00480323 -0.00589312 -0.00687945 -0.0077622 -0.00854139 -0.009217 -0.00978905 -0.0102558 -0.0106154 -0.0108679 -0.0110134 -0.0110517 -0.010983 -0.0108071 -0.0105242 -0.0101621 -0.00974871 -0.00928406 -0.00876814 -0.00820095 -0.00758248 -0.00691274 -0.00619174 -0.00546672 -0.00478495 -0.00414643 -0.00355116 -0.00299914 -0.00249037 -0.00202485 -0.00160258 -0.00122698 -0.000901452 -0.000626008 -0.000400645 -0.000225363 -0.000100161 -2.50403e-05 0 0 -2.73756e-05 -0.000109502 -0.00024638 -0.000438009 -0.000684389 -0.000985521 -0.0013414 -0.0