<?xml version="1.0"?> 
<VTKFile type="StructuredGrid" version="0.1"> 
<StructuredGrid WholeExtent="0 128 0 128 0 0"> 
<Piece Extent="0 128 0 128 0 0"> 
<PointData>
<DataArray type="Float32" Name="u" format="ascii" NumberOfComponents="1"> 
0 0 0 0 0 0 0 0 0 0 0 0 0 0 0 0 0 0 0 0 0 0 0 0 0 0 0 0 0 0 0 0 0 0 0 0 0 0 0 0 0 0 0 0 0 0 0 0 0 0 0 0 0 0 0 0 0 0 0 0 0 0 0 0 0 0 0 0 0 0 0 0 0 0 0 0 0 0 0 0 0 0 0 0 0 0 0 0 0 0 0 0 0 0 0 0 0 0 0 0 0 0 0 0 0 0 0 0 0 0 0 0 0 0 0 0 0 0 0 0 0 0 0 0 0 0 0 0 0 0 -6.2818e-08 -2.51272e-07 -5.65362e-07 -1.00509e-06 -1.57045e-06 -2.26145e-06 -3.07808e-06 -4.02035e-06 -5.10466e-06 -6.34742e-06 -7.74862e-06 -9.30827e-06 -1.10264e-05 -1.29029e-05 -1.49379e-05 -1.71313e-05 -1.93738e-05 -2.15559e-05 -2.36777e-05 -2.57391e-05 -2.77402e-05 -2.9681e-05 -3.15614e-05 -3.33814e-05 -3.50708e-05 -3.65591e-05 -3.78464e-05 -3.89327e-05 -3.9818e-05 -4.05022e-05 -4.09854e-05 -4.12676e-05 -4.13378e-05 -4.1185e-05 -4.08093e-05 -4.02107e-05 -3.93892e-05 -3.83447e-05 -3.70773e-05 -3.55869e-05 -3.39273e-05 -3.21519e-05 -3.02608e-05 -2.82541e-05 -2.61316e-05 -2.38934e-05 -2.15396e-05 -1.907e-05 -1.65822e-05 -1.41735e-05 -1.18441e-05 -9.59374e-06 -7.4226e-06 -5.33063e-06 -3.31784e-06 -1.38422e-06 3.9144e-07 1.93034e-06 3.23249e-06 4.29789e-06 5.12653e-06 5.71842e-06 6.07355e-06 6.19192e-06 6.07355e-06 5.71842e-06 5.12653e-06 4.29789e-06 3.23249e-06 1.93034e-06 3.91441e-07 -1.38422e-06 -3.31784e-06 -5.33063e-06 -7.4226e-06 -9.59374e-06 -1.1844e-05 -1.41735e-05 -1.65822e-05 -1.907e-05 -2.15396e-05 -2.38934e-05 -2.61316e-05 -2.82541e-05 -3.02608e-05 -3.21519e-05 -3.39273e-05 -3.55869e-05 -3.70773e-05 -3.83447e-05 -3.93892e-05 -4.02107e-05 -4.08093e-05 -4.1185e-05 -4.13378e-05 -4.12676e-05 -4.09854e-05 -4.05022e-05 -3.9818e-05 -3.89327e-05 -3.78464e-05 -3.65591e-05 -3.50708e-05 -3.33814e-05 -3.15614e-05 -2.9681e-05 -2.77402e-05 -2.57391e-05 -2.36777e-05 -2.15559e-05 -1.93738e-05 -1.71313e-05 -1.49379e-05 -1.29029e-05 -1.10264e-05 -9.30827e-06 -7.74863e-06 -6.34743e-06 -5.10467e-06 -4.02036e-06 -3.07809e-06 -2.26145e-06 -1.57045e-06 -1.00509e-06 -5.65363e-07 -2.51272e-07 -6.28181e-08 0 0 -2.51272e-07 -1.00509e-06 -2.26145e-06 -4.02035e-06 -6.2818e-06 -9.0458e-06 -1.23123e-05 -1.60814e-05 -2.04187e-05 -2.53897e-05 -3.09945e-05 -3.72331e-05 -4.41054e-05 -5.16116e-05 -5.97515e-05 -6.85252e-05 -7.74951e-05 -8.62236e-05 -9.47107e-05 -0.000102956 -0.000110961 -0.000118724 -0.000126245 -0.000133526 -0.000140283 -0.000146236 -0.000151386 -0.000155731 -0.000159272 -0.000162009 -0.000163942 -0.00016507 -0.000165351 -0.00016474 -0.000163237 -0.000160843 -0.000157557 -0.000153379 -0.000148309 -0.000142348 -0.000135709 -0.000128608 -0.000121043 -0.000113016 -0.000104526 -9.55738e-05 -8.61583e-05 -7.62801e-05 -6.63288e-05 -5.66941e-05 -4.73762e-05 -3.8375e-05 -2.96904e-05 -2.13225e-05 -1.32714e-05 -5.53687e-06 1.56576e-06 7.72137e-06 1.293e-05 1.71916e-05 2.05061e-05 2.28737e-05 2.42942e-05 2.47677e-05 2.42942e-05 2.28737e-05 2.05061e-05 1.71916e-05 1.293e-05 7.72138e-06 1.56576e-06 -5.53687e-06 -1.32714e-05 -2.13225e-05 -2.96904e-05 -3.8375e-05 -4.73762e-05 -5.66941e-05 -6.63288e-05 -7.62801e-05 -8.61583e-05 -9.55738e-05 -0.000104526 -0.000113016 -0.000121043 -0.000128608 -0.000135709 -0.000142348 -0.000148309 -0.000153379 -0.000157557 -0.000160843 -0.000163237 -0.00016474 -0.000165351 -0.00016507 -0.000163942 -0.000162009 -0.000159272 -0.000155731 -0.000151386 -0.000146237 -0.000140283 -0.000133526 -0.000126245 -0.000118724 -0.000110961 -0.000102957 -9.47108e-05 -8.62236e-05 -7.74951e-05 -6.85252e-05 -5.97515e-05 -5.16116e-05 -4.41055e-05 -3.72331e-05 -3.09945e-05 -2.53897e-05 -2.04187e-05 -1.60814e-05 -1.23123e-05 -9.0458e-06 -6.28181e-06 -4.02036e-06 -2.26145e-06 -1.00509e-06 -2.51272e-07 0 0 -5.65362e-07 -2.26145e-06 -5.08826e-06 -9.0458e-06 -1.41341e-05 -2.0353e-05 -2.77027e-05 -3.61832e-05 -4.5942e-05 -5.71268e-05 -6.97376e-05 -8.37744e-05 -9.92372e-05 -0.000116126 -0.000134441 -0.000154182 -0.000174364 -0.000194003 -0.000213099 -0.000231652 -0.000249662 -0.000267129 -0.000284052 -0.000300433 -0.000315637 -0.000329032 -0.000340618 -0.000350394 -0.000358362 -0.00036452 -0.000368869 -0.000371408 -0.00037204 -0.000370665 -0.000367284 -0.000361896 -0.000354503 -0.000345102 -0.000333695 -0.000320282 -0.000305345 -0.000289367 -0.000272348 -0.000254287 -0.000235184 -0.000215041 -0.000193856 -0.00017163 -0.00014924 -0.000127562 -0.000106596 -8.63437e-05 -6.68034e-05 -4.79757e-05 -2.98606e-05 -1.2458e-05 3.52296e-06 1.73731e-05 2.90924e-05 3.8681e-05 4.61388e-05 5.14657e-05 5.46619e-05 5.57273e-05 5.46619e-05 5.14657e-05 4.61388e-05 3.8681e-05 2.90924e-05 1.73731e-05 3.52297e-06 -1.2458e-05 -2.98606e-05 -4.79757e-05 -6.68034e-05 -8.63436e-05 -0.000106596 -0.000127562 -0.00014924 -0.00017163 -0.000193856 -0.000215041 -0.000235184 -0.000254287 -0.000272348 -0.000289367 -0.000305345 -0.000320282 -0.000333695 -0.000345102 -0.000354503 -0.000361896 -0.000367284 -0.000370665 -0.00037204 -0.000371408 -0.000368869 -0.00036452 -0.000358362 -0.000350394 -0.000340618 -0.000329032 -0.000315637 -0.000300433 -0.000284052 -0.000267129 -0.000249662 -0.000231652 -0.000213099 -0.000194003 -0.000174364 -0.000154182 -0.000134441 -0.000116126 -9.92373e-05 -8.37745e-05 -6.97376e-05 -5.71268e-05 -4.5942e-05 -3.61832e-05 -2.77028e-05 -2.03531e-05 -1.41341e-05 -9.0458e-06 -5.08826e-06 -2.26145e-06 -5.65363e-07 0 0 -1.00509e-06 -4.02035e-06 -9.0458e-06 -1.60814e-05 -2.51272e-05 -3.61832e-05 -4.92493e-05 -6.43257e-05 -8.16746e-05 -0.000101559 -0.000123978 -0.000148932 -0.000176422 -0.000206446 -0.000239006 -0.000274101 -0.00030998 -0.000344894 -0.000378843 -0.000411826 -0.000443843 -0.000474895 -0.000504982 -0.000534103 -0.000561133 -0.000584946 -0.000605543 -0.000622923 -0.000637088 -0.000648035 -0.000655766 -0.000660281 -0.000661404 -0.00065896 -0.000652949 -0.000643371 -0.000630227 -0.000613515 -0.000593236 -0.000569391 -0.000542836 -0.00051443 -0.000484173 -0.000452065 -0.000418106 -0.000382295 -0.000344633 -0.00030512 -0.000265315 -0.000226777 -0.000189505 -0.0001535 -0.000118762 -8.52902e-05 -5.30854e-05 -2.21475e-05 6.26304e-06 3.08855e-05 5.17199e-05 6.87662e-05 8.20245e-05 9.14946e-05 9.71768e-05 9.90708e-05 9.71768e-05 9.14946e-05 8.20245e-05 6.87662e-05 5.17199e-05 3.08855e-05 6.26305e-06 -2.21475e-05 -5.30854e-05 -8.52901e-05 -0.000118762 -0.0001535 -0.000189505 -0.000226777 -0.000265315 -0.00030512 -0.000344633 -0.000382295 -0.000418106 -0.000452065 -0.000484173 -0.00051443 -0.000542836 -0.000569391 -0.000593236 -0.000613515 -0.000630227 -0.000643371 -0.000652949 -0.00065896 -0.000661404 -0.000660281 -0.000655766 -0.000648035 -0.000637088 -0.000622924 -0.000605543 -0.000584946 -0.000561133 -0.000534103 -0.000504982 -0.000474895 -0.000443844 -0.000411826 -0.000378843 -0.000344895 -0.00030998 -0.000274101 -0.000239006 -0.000206446 -0.000176422 -0.000148932 -0.000123978 -0.000101559 -8.16747e-05 -6.43257e-05 -4.92494e-05 -3.61832e-05 -2.51272e-05 -1.60814e-05 -9.0458e-06 -4.02036e-06 -1.00509e-06 0 0 -1.57045e-06 -6.2818e-06 -1.41341e-05 -2.51272e-05 -3.92613e-05 -5.65362e-05 -7.69521e-05 -0.000100509 -0.000127617 -0.000158685 -0.000193716 -0.000232707 -0.000275659 -0.000322572 -0.000373447 -0.000428282 -0.000484344 -0.000538897 -0.000591942 -0.000643478 -0.000693505 -0.000742024 -0.000789034 -0.000834535 -0.00087677 -0.000913978 -0.000946161 -0.000973318 -0.000995449 -0.00101255 -0.00102463 -0.00103169 -0.00103344 -0.00102963 -0.00102023 -0.00100527 -0.000984729 -0.000958617 -0.000926932 -0.000889673 -0.000848182 -0.000803798 -0.000756521 -0.000706352 -0.00065329 -0.000597336 -0.00053849 -0.00047675 -0.000414555 -0.000354338 -0.000296101 -0.000239843 -0.000185565 -0.000133266 -8.2946e-05 -3.46055e-05 9.78599e-06 4.82586e-05 8.08123e-05 0.000107447 0.000128163 0.00014296 0.000151839 0.000154798 0.000151839 0.00014296 0.000128163 0.000107447 8.08123e-05 4.82586e-05 9.78602e-06 -3.46054e-05 -8.2946e-05 -0.000133266 -0.000185565 -0.000239843 -0.000296101 -0.000354338 -0.000414555 -0.00047675 -0.000538489 -0.000597336 -0.00065329 -0.000706352 -0.000756521 -0.000803798 -0.000848182 -0.000889673 -0.000926932 -0.000958617 -0.000984729 -0.00100527 -0.00102023 -0.00102963 -0.00103344 -0.00103169 -0.00102463 -0.00101256 -0.000995449 -0.000973318 -0.000946161 -0.000913978 -0.00087677 -0.000834536 -0.000789034 -0.000742024 -0.000693505 -0.000643478 -0.000591942 -0.000538898 -0.000484344 -0.000428283 -0.000373447 -0.000322572 -0.000275659 -0.000232707 -0.000193716 -0.000158686 -0.000127617 -0.000100509 -7.69521e-05 -5.65363e-05 -3.92613e-05 -2.51272e-05 -1.41341e-05 -6.28181e-06 -1.57045e-06 0 0 -2.26145e-06 -9.0458e-06 -2.0353e-05 -3.61832e-05 -5.65362e-05 -8.14122e-05 -0.000110811 -0.000144733 -0.000183768 -0.000228507 -0.00027895 -0.000335098 -0.000396949 -0.000464504 -0.000537763 -0.000616727 -0.000697456 -0.000776012 -0.000852397 -0.000926608 -0.000998648 -0.00106851 -0.00113621 -0.00120173 -0.00126255 -0.00131613 -0.00136247 -0.00140158 -0.00143345 -0.00145808 -0.00147547 -0.00148563 -0.00148816 -0.00148266 -0.00146914 -0.00144759 -0.00141801 -0.00138041 -0.00133478 -0.00128113 -0.00122138 -0.00115747 -0.00108939 -0.00101715 -0.000940738 -0.000860164 -0.000775425 -0.000686521 -0.000596959 -0.000510247 -0.000426386 -0.000345375 -0.000267214 -0.000191903 -0.000119442 -4.98319e-05 1.40918e-05 6.94924e-05 0.00011637 0.000154724 0.000184555 0.000205863 0.000218648 0.000222909 0.000218648 0.000205863 0.000184555 0.000154724 0.00011637 6.94924e-05 1.40919e-05 -4.98318e-05 -0.000119442 -0.000191903 -0.000267214 -0.000345375 -0.000426386 -0.000510247 -0.000596959 -0.000686521 -0.000775425 -0.000860164 -0.000940738 -0.00101715 -0.00108939 -0.00115747 -0.00122138 -0.00128113 -0.00133478 -0.00138041 -0.00141801 -0.00144759 -0.00146914 -0.00148266 -0.00148816 -0.00148563 -0.00147547 -0.00145808 -0.00143345 -0.00140158 -0.00136247 -0.00131613 -0.00126255 -0.00120173 -0.00113621 -0.00106851 -0.000998648 -0.000926609 -0.000852397 -0.000776013 -0.000697456 -0.000616727 -0.000537764 -0.000464504 -0.000396949 -0.000335098 -0.000278951 -0.000228507 -0.000183768 -0.000144733 -0.000110811 -8.14122e-05 -5.65363e-05 -3.61832e-05 -2.03531e-05 -9.0458e-06 -2.26145e-06 0 0 -3.07808e-06 -1.23123e-05 -2.77027e-05 -4.92493e-05 -7.69521e-05 -0.000110811 -0.000150826 -0.000196997 -0.000250129 -0.000311024 -0.000379682 -0.000456105 -0.000540291 -0.000632242 -0.000731956 -0.000839433 -0.000949315 -0.00105624 -0.00116021 -0.00126122 -0.00135927 -0.00145437 -0.00154651 -0.00163569 -0.00171847 -0.0017914 -0.00185448 -0.0019077 -0.00195108 -0.00198461 -0.00200828 -0.00202211 -0.00202555 -0.00201807 -0.00199966 -0.00197033 -0.00193007 -0.00187889 -0.00181679 -0.00174376 -0.00166244 -0.00157544 -0.00148278 -0.00138445 -0.00128045 -0.00117078 -0.00105544 -0.000934431 -0.000812527 -0.000694503 -0.000580358 -0.000470093 -0.000363707 -0.000261201 -0.000162574 -6.78267e-05 1.91805e-05 9.45868e-05 0.000158392 0.000210597 0.0002512 0.000280202 0.000297604 0.000303404 0.000297604 0.000280202 0.0002512 0.000210597 0.000158392 9.45869e-05 1.91806e-05 -6.78267e-05 -0.000162574 -0.000261201 -0.000363707 -0.000470093 -0.000580358 -0.000694503 -0.000812527 -0.000934431 -0.00105544 -0.00117078 -0.00128045 -0.00138445 -0.00148278 -0.00157544 -0.00166244 -0.00174376 -0.00181679 -0.00187889 -0.00193007 -0.00197033 -0.00199966 -0.00201807 -0.00202555 -0.00202211 -0.00200828 -0.00198461 -0.00195108 -0.0019077 -0.00185448 -0.0017914 -0.00171847 -0.00163569 -0.00154651 -0.00145437 -0.00135927 -0.00126122 -0.00116021 -0.00105624 -0.000949315 -0.000839434 -0.000731956 -0.000632242 -0.000540292 -0.000456105 -0.000379683 -0.000311024 -0.000250129 -0.000196998 -0.000150826 -0.000110811 -7.69521e-05 -4.92494e-05 -2.77028e-05 -1.23123e-05 -3.07809e-06 0 0 -4.02035e-06 -1.60814e-05 -3.61832e-05 -6.43257e-05 -0.000100509 -0.000144733 -0.000196997 -0.000257303 -0.000326699 -0.000406235 -0.000495912 -0.000595729 -0.000705687 -0.000825785 -0.000956024 -0.0010964 -0.00123992 -0.00137958 -0.00151537 -0.0016473 -0.00177537 -0.00189958 -0.00201993 -0.00213641 -0.00224453 -0.00233978 -0.00242217 -0.00249169 -0.00254835 -0.00259214 -0.00262307 -0.00264112 -0.00264562 -0.00263584 -0.0026118 -0.00257349 -0.00252091 -0.00245406 -0.00237295 -0.00227756 -0.00217134 -0.00205772 -0.00193669 -0.00180826 -0.00167242 -0.00152918 -0.00137853 -0.00122048 -0.00106126 -0.000907106 -0.000758019 -0.000613999 -0.000475046 -0.000341161 -0.000212342 -8.859e-05 2.50521e-05 0.000123542 0.00020688 0.000275065 0.000328098 0.000365979 0.000388707 0.000396283 0.000388707 0.000365979 0.000328098 0.000275065 0.00020688 0.000123542 2.50522e-05 -8.85899e-05 -0.000212342 -0.000341161 -0.000475046 -0.000613999 -0.000758019 -0.000907106 -0.00106126 -0.00122048 -0.00137853 -0.00152918 -0.00167242 -0.00180826 -0.00193669 -0.00205772 -0.00217134 -0.00227756 -0.00237295 -0.00245406 -0.00252091 -0.00257349 -0.0026118 -0.00263584 -0.00264562 -0.00264112 -0.00262307 -0.00259214 -0.00254835 -0.00249169 -0.00242217 -0.00233978 -0.00224453 -0.00213641 -0.00201993 -0.00189958 -0.00177537 -0.0016473 -0.00151537 -0.00137958 -0.00123992 -0.0010964 -0.000956024 -0.000825786 -0.000705687 -0.000595729 -0.000495912 -0.000406235 -0.000326699 -0.000257303 -0.000196998 -0.000144733 -0.000100509 -6.43257e-05 -3.61832e-05 -1.60814e-05 -4.02036e-06 0 0 -5.10466e-06 -2.04187e-05 -4.5942e-05 -8.16746e-05 -0.000127617 -0.000183768 -0.000250129 -0.000326699 -0.000414718 -0.000515426 -0.000628822 -0.000754908 -0.000893683 -0.00104515 -0.0012093 -0.00138614 -0.00156675 -0.00174219 -0.00191247 -0.00207759 -0.00223755 -0.00239235 -0.00254198 -0.00268645 -0.00282003 -0.00293699 -0.00303733 -0.00312104 -0.00318814 -0.00323861 -0.00327246 -0.00328968 -0.00328943 -0.00327084 -0.00323391 -0.00317865 -0.00310506 -0.00301312 -0.00290285 -0.00277425 -0.00263178 -0.00247993 -0.00231869 -0.00214806 -0.00196804 -0.00177864 -0.00157986 -0.00137168 -0.0011622 -0.000959502 -0.000763582 -0.000574442 -0.000392082 -0.000216501 -4.77005e-05 0.000114321 0.000263038 0.000391926 0.000500985 0.000590215 0.000659617 0.000709189 0.000738932 0.000748847 0.000738932 0.000709189 0.000659617 0.000590215 0.000500985 0.000391926 0.000263038 0.000114321 -4.77004e-05 -0.000216501 -0.000392082 -0.000574442 -0.000763582 -0.000959502 -0.0011622 -0.00137168 -0.00157985 -0.00177864 -0.00196804 -0.00214806 -0.00231869 -0.00247993 -0.00263178 -0.00277425 -0.00290285 -0.00301312 -0.00310506 -0.00317865 -0.00323391 -0.00327084 -0.00328943 -0.00328968 -0.00327246 -0.00323861 -0.00318814 -0.00312105 -0.00303733 -0.00293699 -0.00282003 -0.00268645 -0.00254198 -0.00239235 -0.00223755 -0.00207759 -0.00191247 -0.00174219 -0.00156675 -0.00138614 -0.0012093 -0.00104515 -0.000893684 -0.000754909 -0.000628823 -0.000515426 -0.000414718 -0.000326699 -0.000250129 -0.000183768 -0.000127617 -8.16747e-05 -4.5942e-05 -2.04187e-05 -5.10467e-06 0 0 -6.34742e-06 -2.53897e-05 -5.71268e-05 -0.000101559 -0.000158685 -0.000228507 -0.000311024 -0.000406235 -0.000515426 -0.00063988 -0.000779599 -0.000934582 -0.00110483 -0.00129034 -0.00149111 -0.00170715 -0.00192726 -0.00214023 -0.00234608 -0.0025448 -0.00273639 -0.00292085 -0.00309818 -0.00326838 -0.00342428 -0.00355873 -0.00367172 -0.00376325 -0.00383332 -0.00388194 -0.00390909 -0.00391479 -0.00389806 -0.00385792 -0.00379437 -0.00370741 -0.00359705 -0.00346328 -0.0033061 -0.00312552 -0.00292742 -0.00271768 -0.00249632 -0.00226332 -0.0020187 -0.00176244 -0.00149455 -0.00121504 -0.000934394 -0.000663136 -0.000401262 -0.000148772 9.43344e-05 0.000328056 0.000552394 0.000767349 0.000964469 0.00113531 0.00127986 0.00139813 0.00149012 0.00155583 0.00159526 0.0016084 0.00159526 0.00155583 0.00149012 0.00139813 0.00127986 0.00113531 0.000964469 0.000767349 0.000552395 0.000328057 9.43345e-05 -0.000148772 -0.000401262 -0.000663136 -0.000934394 -0.00121504 -0.00149455 -0.00176244 -0.0020187 -0.00226332 -0.00249632 -0.00271768 -0.00292742 -0.00312552 -0.0033061 -0.00346328 -0.00359705 -0.00370741 -0.00379437 -0.00385792 -0.00389806 -0.00391479 -0.0039091 -0.00388194 -0.00383332 -0.00376325 -0.00367172 -0.00355873 -0.00342428 -0.00326838 -0.00309818 -0.00292085 -0.00273639 -0.0025448 -0.00234608 -0.00214024 -0.00192726 -0.00170715 -0.00149111 -0.00129034 -0.00110483 -0.000934582 -0.0007796 -0.000639881 -0.000515426 -0.000406235 -0.000311024 -0.000228507 -0.000158686 -0.000101559 -5.71268e-05 -2.53897e-05 -6.34743e-06 0 0 -7.74862e-06 -3.09945e-05 -6.97376e-05 -0.000123978 -0.000193716 -0.00027895 -0.000379682 -0.000495912 -0.000628822 -0.000779599 -0.000948241 -0.00113475 -0.00133912 -0.00156136 -0.00180147 -0.00205944 -0.00232146 -0.00257371 -0.0028162 -0.00304893 -0.00327189 -0.00348508 -0.00368851 -0.00388218 -0.00405727 -0.00420499 -0.00432534 -0.00441831 -0.00448391 -0.00452213 -0.00453298 -0.00451646 -0.0044715 -0.00439707 -0.00429316 -0.00415976 -0.00399689 -0.00380453 -0.00358269 -0.00333138 -0.00305825 -0.00277099 -0.00246959 -0.00215406 -0.00182438 -0.00148058 -0.00112263 -0.000750548 -0.000377838 -1.80078e-05 0.000328942 0.000663013 0.000984203 0.00129251 0.00158794 0.00187049 0.00212935 0.00235369 0.00254351 0.00269882 0.00281962 0.00290591 0.00295768 0.00297493 0.00295768 0.00290591 0.00281962 0.00269882 0.00254351 0.00235369 0.00212935 0.00187049 0.00158794 0.00129251 0.000984203 0.000663013 0.000328943 -1.80077e-05 -0.000377838 -0.000750548 -0.00112263 -0.00148058 -0.00182438 -0.00215406 -0.00246959 -0.00277099 -0.00305825 -0.00333138 -0.00358269 -0.00380453 -0.00399689 -0.00415976 -0.00429316 -0.00439707 -0.0044715 -0.00451646 -0.00453298 -0.00452213 -0.00448391 -0.00441831 -0.00432534 -0.004205 -0.00405727 -0.00388218 -0.00368852 -0.00348509 -0.00327189 -0.00304893 -0.0028162 -0.00257371 -0.00232146 -0.00205944 -0.00180147 -0.00156136 -0.00133912 -0.00113475 -0.000948242 -0.0007796 -0.000628823 -0.000495912 -0.000379683 -0.000278951 -0.000193716 -0.000123978 -6.97376e-05 -3.09945e-05 -7.74863e-06 0 0 -9.30827e-06 -3.72331e-05 -8.37744e-05 -0.000148932 -0.000232707 -0.000335098 -0.000456105 -0.000595729 -0.000754908 -0.000934582 -0.00113475 -0.00135541 -0.00159657 -0.00185821 -0.00214036 -0.002443 -0.00274935 -0.00304263 -0.00332284 -0.00358998 -0.00384406 -0.00408506 -0.004313 -0.00452786 -0.00471901 -0.00487579 -0.00499819 -0.00508623 -0.0051399 -0.00515919 -0.00514412 -0.00509467 -0.00500977 -0.0048883 -0.00473028 -0.0045357 -0.00430457 -0.00403688 -0.00373263 -0.00339182 -0.00302429 -0.00263985 -0.0022385 -0.00182026 -0.0013851 -0.000933045 -0.000464084 2.17818e-05 0.000507466 0.000975882 0.00142703 0.00186091 0.00227752 0.00267687 0.00305894 0.00342375 0.00375767 0.00404706 0.00429193 0.00449228 0.00464811 0.00475941 0.00482619 0.00484845 0.00482619 0.00475941 0.00464811 0.00449228 0.00429193 0.00404706 0.00375767 0.00342375 0.00305895 0.00267687 0.00227752 0.00186091 0.00142703 0.000975882 0.000507466 2.17819e-05 -0.000464084 -0.000933045 -0.0013851 -0.00182026 -0.0022385 -0.00263985 -0.00302429 -0.00339182 -0.00373263 -0.00403688 -0.00430457 -0.0045357 -0.00473028 -0.0048883 -0.00500977 -0.00509467 -0.00514412 -0.00515919 -0.0051399 -0.00508623 -0.00499819 -0.00487579 -0.00471901 -0.00452786 -0.004313 -0.00408506 -0.00384406 -0.00358998 -0.00332284 -0.00304263 -0.00274935 -0.002443 -0.00214036 -0.00185822 -0.00159657 -0.00135541 -0.00113475 -0.000934582 -0.000754909 -0.000595729 -0.000456105 -0.000335098 -0.000232707 -0.000148932 -8.37745e-05 -3.72331e-05 -9.30827e-06 0 0 -1.10264e-05 -4.41054e-05 -9.92372e-05 -0.000176422 -0.000275659 -0.000396949 -0.000540291 -0.000705687 -0.000893683 -0.00110483 -0.00133912 -0.00159657 -0.00187716 -0.0021809 -0.00250779 -0.00285783 -0.00321092 -0.00354697 -0.00386598 -0.00416796 -0.00445288 -0.00472077 -0.00497162 -0.00520543 -0.00540949 -0.0055711 -0.00569028 -0.005767 -0.00580128 -0.00579311 -0.0057425 -0.00564944 -0.00551285 -0.00533161 -0.00510574 -0.00483524 -0.0045201 -0.00416032 -0.00375591 -0.00330686 -0.00282552 -0.00232426 -0.00180306 -0.00126192 -0.000700853 -0.000119851 0.000481085 0.00110195 0.00172152 0.00231853 0.002893 0.00344492 0.0039743 0.00448112 0.0049654 0.00542713 0.00584944 0.00621543 0.00652512 0.0067785 0.00697558 0.00711635 0.00720081 0.00722896 0.00720081 0.00711635 0.00697558 0.0067785 0.00652512 0.00621543 0.00584944 0.00542713 0.0049654 0.00448112 0.0039743 0.00344492 0.002893 0.00231853 0.00172152 0.00110196 0.000481085 -0.000119851 -0.000700853 -0.00126192 -0.00180306 -0.00232426 -0.00282552 -0.00330686 -0.00375591 -0.00416032 -0.0045201 -0.00483524 -0.00510574 -0.00533161 -0.00551285 -0.00564945 -0.0057425 -0.00579312 -0.00580128 -0.005767 -0.00569028 -0.00557111 -0.00540949 -0.00520543 -0.00497162 -0.00472077 -0.00445289 -0.00416796 -0.00386599 -0.00354698 -0.00321092 -0.00285783 -0.00250779 -0.0021809 -0.00187716 -0.00159657 -0.00133912 -0.00110483 -0.000893684 -0.000705687 -0.000540292 -0.000396949 -0.000275659 -0.000176422 -9.92373e-05 -4.41055e-05 -1.10264e-05 0 0 -1.29029e-05 -5.16116e-05 -0.000116126 -0.000206446 -0.000322572 -0.000464504 -0.000632242 -0.000825785 -0.00104515 -0.00129034 -0.00156136 -0.00185821 -0.0021809 -0.00252941 -0.00290376 -0.00330393 -0.00370619 -0.00408675 -0.00444564 -0.00478285 -0.00509838 -0.00539222 -0.00566439 -0.00591487 -0.00612871 -0.00629095 -0.00640159 -0.00646063 -0.00646807 -0.0064239 -0.00632814 -0.00618077 -0.00598074 -0.005727 -0.00541954 -0.00505836 -0.00464347 -0.00417485 -0.00365252 -0.00307648 -0.00246196 -0.00182422 -0.00116325 -0.000479053 0.000228365 0.000959009 0.00171288 0.00248997 0.00326432 0.00400995 0.00472686 0.00541505 0.00607452 0.00670527 0.00730731 0.00788063 0.00840465 0.0088588 0.00924309 0.0095575 0.00980204 0.00997672 0.0100815 0.0101165 0.0100815 0.00997672 0.00980204 0.0095575 0.00924309 0.0088588 0.00840465 0.00788063 0.00730731 0.00670527 0.00607452 0.00541505 0.00472686 0.00400995 0.00326432 0.00248997 0.00171288 0.000959009 0.000228365 -0.000479053 -0.00116325 -0.00182422 -0.00246196 -0.00307648 -0.00365252 -0.00417485 -0.00464347 -0.00505836 -0.00541954 -0.005727 -0.00598074 -0.00618077 -0.00632814 -0.0064239 -0.00646807 -0.00646063 -0.00640159 -0.00629095 -0.00612871 -0.00591487 -0.00566439 -0.00539222 -0.00509838 -0.00478285 -0.00444564 -0.00408676 -0.00370619 -0.00330394 -0.00290376 -0.00252941 -0.0021809 -0.00185822 -0.00156136 -0.00129034 -0.00104515 -0.000825786 -0.000632242 -0.000464504 -0.000322572 -0.000206446 -0.000116126 -5.16116e-05 -1.29029e-05 0 0 -1.49379e-05 -5.97515e-05 -0.000134441 -0.000239006 -0.000373447 -0.000537763 -0.000731956 -0.000956024 -0.0012093 -0.00149111 -0.00180147 -0.00214036 -0.00250779 -0.00290376 -0.00332827 -0.00378131 -0.00423514 -0.00466197 -0.00506181 -0.00543467 -0.00578053 -0.00609941 -0.0063913 -0.00665619 -0.00687668 -0.00703532 -0.00713214 -0.00716711 -0.00714025 -0.00705155 -0.00690102 -0.00668865 -0.00641346 -0.00607446 -0.00567167 -0.00520508 -0.00467468 -0.00408048 -0.00342248 -0.00270068 -0.00193359 -0.00113972 -0.000319078 0.000528347 0.00140255 0.00230353 0.00323129 0.00418583 0.00513587 0.00605012 0.00692859 0.00777129 0.0085782 0.00934933 0.0100847 0.0107842 0.0114233 0.0119772 0.0124458 0.0128293 0.0131275 0.0133405 0.0134683 0.0135109 0.0134683 0.0133405 0.0131275 0.0128293 0.0124458 0.0119772 0.0114233 0.0107842 0.0100847 0.00934933 0.0085782 0.00777129 0.0069286 0.00605012 0.00513587 0.00418583 0.00323129 0.00230353 0.00140255 0.000528347 -0.000319078 -0.00113972 -0.00193359 -0.00270068 -0.00342248 -0.00408048 -0.00467468 -0.00520508 -0.00567167 -0.00607447 -0.00641346 -0.00668865 -0.00690102 -0.00705155 -0.00714025 -0.00716711 -0.00713214 -0.00703533 -0.00687668 -0.00665619 -0.0063913 -0.00609941 -0.00578053 -0.00543467 -0.00506182 -0.00466197 -0.00423514 -0.00378132 -0.00332827 -0.00290376 -0.00250779 -0.00214036 -0.00180147 -0.00149111 -0.0012093 -0.000956024 -0.000731956 -0.000537764 -0.000373447 -0.000239006 -0.000134441 -5.97515e-05 -1.49379e-05 0 0 -1.71313e-05 -6.85252e-05 -0.000154182 -0.000274101 -0.000428282 -0.000616727 -0.000839433 -0.0010964 -0.00138614 -0.00170715 -0.00205944 -0.002443 -0.00285783 -0.00330393 -0.00378131 -0.00428997 -0.00479778 -0.00527262 -0.0057145 -0.00612341 -0.00649935 -0.00684233 -0.00715235 -0.0074294 -0.00765339 -0.00780423 -0.00788191 -0.00788645 -0.00781783 -0.00767607 -0.00746115 -0.00717308 -0.00681099 -0.00637401 -0.00586214 -0.00527538 -0.00461374 -0.00387721 -0.00306579 -0.00217948 -0.00124043 -0.000270785 0.000729452 0.00176028 0.0028217 0.00391372 0.00503633 0.00618953 0.00733616 0.00843906 0.00949822 0.0105136 0.0114853 0.0124133 0.0132975 0.014138 0.0149054 0.0155705 0.0161333 0.0165938 0.0169519 0.0172078 0.0173612 0.0174124 0.0173612 0.0172078 0.0169519 0.0165938 0.0161333 0.0155705 0.0149054 0.014138 0.0132975 0.0124133 0.0114853 0.0105136 0.00949822 0.00843906 0.00733616 0.00618953 0.00503633 0.00391372 0.0028217 0.00176028 0.000729452 -0.000270785 -0.00124043 -0.00217948 -0.00306579 -0.00387721 -0.00461374 -0.00527539 -0.00586214 -0.00637401 -0.00681099 -0.00717308 -0.00746115 -0.00767607 -0.00781783 -0.00788645 -0.00788191 -0.00780423 -0.00765339 -0.0074294 -0.00715235 -0.00684233 -0.00649935 -0.00612341 -0.0057145 -0.00527262 -0.00479778 -0.00428997 -0.00378132 -0.00330394 -0.00285783 -0.002443 -0.00205944 -0.00170715 -0.00138614 -0.0010964 -0.000839434 -0.000616727 -0.000428283 -0.000274101 -0.000154182 -6.85252e-05 -1.71313e-05 0 0 -1.93738e-05 -7.74951e-05 -0.000174364 -0.00030998 -0.000484344 -0.000697456 -0.000949315 -0.00123992 -0.00156675 -0.00192726 -0.00232146 -0.00274935 -0.00321092 -0.00370619 -0.00423514 -0.00479778 -0.00535729 -0.00587688 -0.00635653 -0.00679625 -0.00719603 -0.00755588 -0.0078758 -0.00815578 -0.00837288 -0.00850412 -0.00854951 -0.00850904 -0.00838272 -0.00817056 -0.00787254 -0.00748866 -0.00701829 -0.00646077 -0.00581611 -0.0050843 -0.00426534 -0.00335924 -0.00236599 -0.00128559 -0.000144357 0.0010314 0.00224168 0.00348649 0.00476583 0.00607969 0.00742808 0.00881099 0.0101846 0.0115052 0.0127726 0.013987 0.0151483 0.0162565 0.0173116 0.0183137 0.0192282 0.0200208 0.0206914 0.0212401 0.0216669 0.0219718 0.0221547 0.0222156 0.0221547 0.0219718 0.0216669 0.0212401 0.0206914 0.0200208 0.0192282 0.0183137 0.0173116 0.0162565 0.0151483 0.013987 0.0127726 0.0115052 0.0101846 0.00881099 0.00742808 0.00607969 0.00476583 0.00348649 0.00224168 0.0010314 -0.000144357 -0.00128559 -0.00236599 -0.00335924 -0.00426534 -0.0050843 -0.00581611 -0.00646077 -0.00701829 -0.00748866 -0.00787254 -0.00817056 -0.00838273 -0.00850904 -0.00854951 -0.00850412 -0.00837288 -0.00815579 -0.0078758 -0.00755588 -0.00719603 -0.00679625 -0.00635653 -0.00587688 -0.0053573 -0.00479778 -0.00423514 -0.00370619 -0.00321092 -0.00274935 -0.00232146 -0.00192726 -0.00156675 -0.00123992 -0.000949315 -0.000697456 -0.000484345 -0.00030998 -0.000174364 -7.74951e-05 -1.93738e-05 0 0 -2.15559e-05 -8.62236e-05 -0.000194003 -0.000344894 -0.000538897 -0.000776012 -0.00105624 -0.00137958 -0.00174219 -0.00214023 -0.00257371 -0.00304263 -0.00354697 -0.00408675 -0.00466197 -0.00527262 -0.00587688 -0.00643292 -0.00694075 -0.00740036 -0.00781176 -0.00817494 -0.00848991 -0.00875666 -0.00894918 -0.00904146 -0.0090335 -0.00892529 -0.00871683 -0.00840814 -0.00799919 -0.00749001 -0.00688033 -0.00616991 -0.00535874 -0.00444683 -0.00343417 -0.00232078 -0.00110663 0.000208252 0.00159273 0.00301563 0.00447696 0.00597673 0.00751493 0.00909155 0.0107066 0.0123601 0.0140006 0.0155769 0.0170887 0.0185363 0.0199195 0.0212384 0.0224929 0.0236832 0.0247688 0.0257098 0.0265059 0.0271573 0.027664 0.0280259 0.028243 0.0283154 0.028243 0.0280259 0.027664 0.0271573 0.0265059 0.0257098 0.0247688 0.0236832 0.0224929 0.0212384 0.0199195 0.0185363 0.0170887 0.0155769 0.0140006 0.0123601 0.0107066 0.00909155 0.00751493 0.00597673 0.00447696 0.00301563 0.00159273 0.000208252 -0.00110663 -0.00232078 -0.00343417 -0.00444683 -0.00535874 -0.00616991 -0.00688033 -0.00749001 -0.0079992 -0.00840814 -0.00871684 -0.00892529 -0.0090335 -0.00904146 -0.00894919 -0.00875666 -0.00848991 -0.00817494 -0.00781176 -0.00740036 -0.00694075 -0.00643292 -0.00587688 -0.00527262 -0.00466197 -0.00408676 -0.00354698 -0.00304263 -0.00257371 -0.00214024 -0.00174219 -0.00137958 -0.00105624 -0.000776013 -0.000538898 -0.000344895 -0.000194003 -8.62236e-05 -2.15559e-05 0 0 -2.36777e-05 -9.47107e-05 -0.000213099 -0.000378843 -0.000591942 -0.000852396 -0.00116021 -0.00151537 -0.00191247 -0.00234608 -0.0028162 -0.00332284 -0.00386598 -0.00444564 -0.00506181 -0.0057145 -0.00635653 -0.00694075 -0.00746716 -0.00793575 -0.00834654 -0.00869951 -0.00899468 -0.00923203 -0.00938231 -0.00941626 -0.00933389 -0.00913519 -0.00882016 -0.00838881 -0.00784112 -0.00717711 -0.0063971 -0.00550141 -0.00449003 -0.00336298 -0.00212024 -0.000761826 0.00071227 0.00230205 0.00397082 0.0056819 0.00743529 0.00923099 0.011069 0.0129493 0.0148719 0.0168369 0.0187842 0.0206541 0.0224465 0.0241615 0.0257989 0.0273589 0.0288414 0.0302465 0.0315274 0.0326375 0.0335768 0.0343454 0.0349431 0.0353701 0.0356263 0.0357117 0.0356263 0.0353701 0.0349431 0.0343454 0.0335768 0.0326375 0.0315274 0.0302465 0.0288414 0.0273589 0.0257989 0.0241615 0.0224465 0.0206541 0.0187842 0.0168369 0.0148719 0.0129493 0.011069 0.00923099 0.00743529 0.0056819 0.00397082 0.00230205 0.00071227 -0.000761827 -0.00212024 -0.00336298 -0.00449003 -0.00550141 -0.0063971 -0.00717712 -0.00784113 -0.00838881 -0.00882016 -0.00913519 -0.00933389 -0.00941627 -0.00938231 -0.00923203 -0.00899468 -0.00869952 -0.00834654 -0.00793576 -0.00746716 -0.00694075 -0.00635653 -0.0057145 -0.00506182 -0.00444565 -0.00386599 -0.00332284 -0.00281621 -0.00234608 -0.00191247 -0.00151537 -0.00116021 -0.000852397 -0.000591942 -0.000378843 -0.000213099 -9.47108e-05 -2.36777e-05 0 0 -2.57391e-05 -0.000102956 -0.000231652 -0.000411826 -0.000643478 -0.000926608 -0.00126122 -0.0016473 -0.00207759 -0.0025448 -0.00304893 -0.00358998 -0.00416795 -0.00478285 -0.00543467 -0.00612341 -0.00679625 -0.00740036 -0.00793575 -0.00840243 -0.