<?xml version="1.0"?> 
<VTKFile type="StructuredGrid" version="0.1"> 
<StructuredGrid WholeExtent="0 128 0 128 0 0"> 
<Piece Extent="0 128 0 128 0 0"> 
<PointData>
<DataArray type="Float32" Name="u" format="ascii" NumberOfComponents="1"> 
0 0 0 0 0 0 0 0 0 0 0 0 0 0 0 0 0 0 0 0 0 0 0 0 0 0 0 0 0 0 0 0 0 0 0 0 0 0 0 0 0 0 0 0 0 0 0 0 0 0 0 0 0 0 0 0 0 0 0 0 0 0 0 0 0 0 0 0 0 0 0 0 0 0 0 0 0 0 0 0 0 0 0 0 0 0 0 0 0 0 0 0 0 0 0 0 0 0 0 0 0 0 0 0 0 0 0 0 0 0 0 0 0 0 0 0 0 0 0 0 0 0 0 0 0 0 0 0 0 0 -6.36551e-08 -2.5462e-07 -5.72896e-07 -1.01848e-06 -1.59138e-06 -2.29158e-06 -3.1191e-06 -4.07393e-06 -5.17718e-06 -6.44999e-06 -7.89235e-06 -9.50426e-06 -1.12857e-05 -1.32367e-05 -1.53573e-05 -1.76474e-05 -2.00004e-05 -2.23095e-05 -2.45749e-05 -2.67965e-05 -2.89742e-05 -3.11081e-05 -3.31983e-05 -3.52446e-05 -3.71793e-05 -3.89346e-05 -4.05104e-05 -4.19069e-05 -4.31239e-05 -4.41616e-05 -4.50198e-05 -4.56986e-05 -4.61873e-05 -4.64753e-05 -4.65625e-05 -4.6449e-05 -4.61348e-05 -4.56198e-05 -4.49041e-05 -4.39876e-05 -4.29161e-05 -4.1735e-05 -4.04445e-05 -3.90444e-05 -3.75349e-05 -3.59159e-05 -3.41874e-05 -3.23494e-05 -3.04833e-05 -2.86705e-05 -2.69109e-05 -2.52047e-05 -2.35518e-05 -2.19521e-05 -2.04057e-05 -1.89126e-05 -1.75378e-05 -1.63463e-05 -1.53381e-05 -1.45133e-05 -1.38717e-05 -1.34134e-05 -1.31385e-05 -1.30468e-05 -1.31385e-05 -1.34134e-05 -1.38717e-05 -1.45133e-05 -1.53381e-05 -1.63463e-05 -1.75378e-05 -1.89126e-05 -2.04057e-05 -2.19521e-05 -2.35518e-05 -2.52047e-05 -2.69109e-05 -2.86705e-05 -3.04833e-05 -3.23494e-05 -3.41874e-05 -3.59159e-05 -3.75349e-05 -3.90444e-05 -4.04445e-05 -4.1735e-05 -4.29161e-05 -4.39876e-05 -4.49041e-05 -4.56198e-05 -4.61348e-05 -4.6449e-05 -4.65625e-05 -4.64753e-05 -4.61873e-05 -4.56986e-05 -4.50198e-05 -4.41616e-05 -4.3124e-05 -4.19069e-05 -4.05105e-05 -3.89346e-05 -3.71793e-05 -3.52446e-05 -3.31983e-05 -3.11081e-05 -2.89742e-05 -2.67965e-05 -2.45749e-05 -2.23096e-05 -2.00004e-05 -1.76474e-05 -1.53573e-05 -1.32367e-05 -1.12857e-05 -9.50426e-06 -7.89235e-06 -6.45e-06 -5.17719e-06 -4.07393e-06 -3.1191e-06 -2.29159e-06 -1.59138e-06 -1.01848e-06 -5.72896e-07 -2.54621e-07 -6.36552e-08 0 0 -2.5462e-07 -1.01848e-06 -2.29158e-06 -4.07393e-06 -6.36551e-06 -9.16633e-06 -1.24764e-05 -1.62957e-05 -2.07087e-05 -2.58e-05 -3.15694e-05 -3.8017e-05 -4.51429e-05 -5.29469e-05 -6.14291e-05 -7.05896e-05 -8.00015e-05 -8.92382e-05 -9.82996e-05 -0.000107186 -0.000115897 -0.000124433 -0.000132793 -0.000140978 -0.000148717 -0.000155738 -0.000162042 -0.000167628 -0.000172496 -0.000176646 -0.000180079 -0.000182794 -0.000184749 -0.000185901 -0.00018625 -0.000185796 -0.000184539 -0.000182479 -0.000179616 -0.000175951 -0.000171664 -0.00016694 -0.000161778 -0.000156178 -0.00015014 -0.000143664 -0.00013675 -0.000129398 -0.000121933 -0.000114682 -0.000107644 -0.000100819 -9.4207e-05 -8.78084e-05 -8.16229e-05 -7.56505e-05 -7.01513e-05 -6.53853e-05 -6.13526e-05 -5.80531e-05 -5.54868e-05 -5.36537e-05 -5.25539e-05 -5.21873e-05 -5.25539e-05 -5.36537e-05 -5.54868e-05 -5.80531e-05 -6.13526e-05 -6.53853e-05 -7.01513e-05 -7.56505e-05 -8.16228e-05 -8.78084e-05 -9.4207e-05 -0.000100819 -0.000107644 -0.000114682 -0.000121933 -0.000129398 -0.000136749 -0.000143664 -0.00015014 -0.000156178 -0.000161778 -0.00016694 -0.000171664 -0.000175951 -0.000179616 -0.000182479 -0.000184539 -0.000185796 -0.00018625 -0.000185901 -0.000184749 -0.000182794 -0.000180079 -0.000176646 -0.000172496 -0.000167628 -0.000162042 -0.000155738 -0.000148717 -0.000140978 -0.000132793 -0.000124433 -0.000115897 -0.000107186 -9.82997e-05 -8.92382e-05 -8.00015e-05 -7.05896e-05 -6.14292e-05 -5.29469e-05 -4.51429e-05 -3.80171e-05 -3.15694e-05 -2.58e-05 -2.07088e-05 -1.62957e-05 -1.24764e-05 -9.16634e-06 -6.36552e-06 -4.07393e-06 -2.29159e-06 -1.01848e-06 -2.54621e-07 0 0 -5.72896e-07 -2.29158e-06 -5.15606e-06 -9.16633e-06 -1.43224e-05 -2.06243e-05 -2.80719e-05 -3.66653e-05 -4.65946e-05 -5.80499e-05 -7.10311e-05 -8.55383e-05 -0.000101571 -0.000119131 -0.000138216 -0.000158827 -0.000180003 -0.000200786 -0.000221174 -0.000241168 -0.000260768 -0.000279973 -0.000298784 -0.000317201 -0.000334614 -0.000350411 -0.000364594 -0.000377162 -0.000388116 -0.000397454 -0.000405178 -0.000411287 -0.000415686 -0.000418278 -0.000419063 -0.000418041 -0.000415213 -0.000410578 -0.000404137 -0.000395889 -0.000386245 -0.000375615 -0.000364 -0.0003514 -0.000337814 -0.000323243 -0.000307686 -0.000291144 -0.00027435 -0.000258034 -0.000242199 -0.000226842 -0.000211966 -0.000197569 -0.000183651 -0.000170214 -0.00015784 -0.000147117 -0.000138043 -0.000130619 -0.000124845 -0.000120721 -0.000118246 -0.000117421 -0.000118246 -0.000120721 -0.000124845 -0.000130619 -0.000138043 -0.000147117 -0.00015784 -0.000170214 -0.000183651 -0.000197569 -0.000211966 -0.000226842 -0.000242199 -0.000258034 -0.00027435 -0.000291144 -0.000307686 -0.000323243 -0.000337814 -0.0003514 -0.000364 -0.000375615 -0.000386245 -0.000395889 -0.000404137 -0.000410578 -0.000415213 -0.000418041 -0.000419063 -0.000418278 -0.000415686 -0.000411287 -0.000405178 -0.000397454 -0.000388116 -0.000377162 -0.000364594 -0.000350411 -0.000334614 -0.000317201 -0.000298784 -0.000279973 -0.000260768 -0.000241168 -0.000221174 -0.000200786 -0.000180003 -0.000158827 -0.000138216 -0.000119131 -0.000101572 -8.55384e-05 -7.10312e-05 -5.805e-05 -4.65947e-05 -3.66654e-05 -2.80719e-05 -2.06243e-05 -1.43224e-05 -9.16634e-06 -5.15607e-06 -2.29159e-06 -5.72896e-07 0 0 -1.01848e-06 -4.07393e-06 -9.16633e-06 -1.62957e-05 -2.5462e-05 -3.66653e-05 -4.99056e-05 -6.51828e-05 -8.28349e-05 -0.0001032 -0.000126278 -0.000152068 -0.000180571 -0.000211788 -0.000245717 -0.000282358 -0.000320006 -0.000356953 -0.000393198 -0.000428743 -0.000463587 -0.00049773 -0.000531172 -0.000563913 -0.000594869 -0.000622953 -0.000648167 -0.000670511 -0.000689983 -0.000706585 -0.000720317 -0.000731177 -0.000738997 -0.000743605 -0.000745 -0.000743184 -0.000738157 -0.000729917 -0.000718465 -0.000703802 -0.000686657 -0.00066776 -0.000647111 -0.000624711 -0.000600558 -0.000574654 -0.000546998 -0.00051759 -0.000487733 -0.000458728 -0.000430575 -0.000403275 -0.000376828 -0.000351233 -0.000326491 -0.000302602 -0.000280605 -0.000261541 -0.00024541 -0.000232212 -0.000221947 -0.000214615 -0.000210216 -0.000208749 -0.000210215 -0.000214615 -0.000221947 -0.000232212 -0.00024541 -0.000261541 -0.000280605 -0.000302602 -0.000326491 -0.000351233 -0.000376828 -0.000403275 -0.000430575 -0.000458728 -0.000487733 -0.00051759 -0.000546998 -0.000574654 -0.000600558 -0.000624711 -0.000647111 -0.00066776 -0.000686657 -0.000703802 -0.000718465 -0.000729917 -0.000738157 -0.000743184 -0.000745 -0.000743605 -0.000738997 -0.000731177 -0.000720317 -0.000706585 -0.000689983 -0.000670511 -0.000648167 -0.000622953 -0.000594869 -0.000563913 -0.000531172 -0.00049773 -0.000463587 -0.000428743 -0.000393199 -0.000356953 -0.000320006 -0.000282358 -0.000245717 -0.000211788 -0.000180572 -0.000152068 -0.000126278 -0.0001032 -8.2835e-05 -6.51829e-05 -4.99056e-05 -3.66654e-05 -2.54621e-05 -1.62957e-05 -9.16634e-06 -4.07393e-06 -1.01848e-06 0 0 -1.59138e-06 -6.36551e-06 -1.43224e-05 -2.5462e-05 -3.97844e-05 -5.72896e-05 -7.79775e-05 -0.000101848 -0.00012943 -0.00016125 -0.000197309 -0.000237606 -0.000282143 -0.000330918 -0.000383932 -0.000441185 -0.000500009 -0.000557739 -0.000614373 -0.000669911 -0.000724355 -0.000777703 -0.000829957 -0.000881115 -0.000929482 -0.000973364 -0.00101276 -0.00104767 -0.0010781 -0.00110404 -0.00112549 -0.00114246 -0.00115468 -0.00116188 -0.00116406 -0.00116123 -0.00115337 -0.0011405 -0.0011226 -0.00109969 -0.0010729 -0.00104338 -0.00101111 -0.000976111 -0.000938372 -0.000897897 -0.000854684 -0.000808735 -0.000762082 -0.000716762 -0.000672774 -0.000630118 -0.000588794 -0.000548802 -0.000510143 -0.000472815 -0.000438446 -0.000408658 -0.000383454 -0.000362832 -0.000346792 -0.000335336 -0.000328462 -0.00032617 -0.000328462 -0.000335336 -0.000346792 -0.000362832 -0.000383454 -0.000408658 -0.000438446 -0.000472815 -0.000510143 -0.000548802 -0.000588794 -0.000630118 -0.000672774 -0.000716762 -0.000762082 -0.000808734 -0.000854684 -0.000897897 -0.000938372 -0.000976111 -0.00101111 -0.00104338 -0.0010729 -0.00109969 -0.0011226 -0.0011405 -0.00115337 -0.00116123 -0.00116406 -0.00116188 -0.00115468 -0.00114246 -0.00112549 -0.00110404 -0.0010781 -0.00104767 -0.00101276 -0.000973365 -0.000929482 -0.000881115 -0.000829957 -0.000777704 -0.000724355 -0.000669912 -0.000614373 -0.000557739 -0.00050001 -0.000441185 -0.000383932 -0.000330918 -0.000282143 -0.000237607 -0.000197309 -0.00016125 -0.00012943 -0.000101848 -7.79776e-05 -5.72896e-05 -3.97845e-05 -2.54621e-05 -1.43224e-05 -6.36552e-06 -1.59138e-06 0 0 -2.29158e-06 -9.16633e-06 -2.06243e-05 -3.66653e-05 -5.72896e-05 -8.2497e-05 -0.000112288 -0.000146661 -0.000186379 -0.0002322 -0.000284125 -0.000342153 -0.000406286 -0.000476522 -0.000552862 -0.000635306 -0.000720013 -0.000803144 -0.000884697 -0.000964672 -0.00104307 -0.00111989 -0.00119514 -0.0012688 -0.00133845 -0.00140164 -0.00145838 -0.00150865 -0.00155246 -0.00158982 -0.00162071 -0.00164515 -0.00166274 -0.00167311 -0.00167625 -0.00167216 -0.00166085 -0.00164231 -0.00161655 -0.00158355 -0.00154498 -0.00150246 -0.001456 -0.0014056 -0.00135126 -0.00129297 -0.00123075 -0.00116458 -0.0010974 -0.00103214 -0.000968794 -0.00090737 -0.000847863 -0.000790275 -0.000734606 -0.000680854 -0.000631362 -0.000588468 -0.000552173 -0.000522478 -0.000499381 -0.000482883 -0.000472985 -0.000469685 -0.000472985 -0.000482883 -0.000499381 -0.000522478 -0.000552173 -0.000588468 -0.000631362 -0.000680854 -0.000734606 -0.000790275 -0.000847863 -0.00090737 -0.000968794 -0.00103214 -0.0010974 -0.00116458 -0.00123075 -0.00129297 -0.00135126 -0.0014056 -0.001456 -0.00150246 -0.00154498 -0.00158355 -0.00161655 -0.00164231 -0.00166085 -0.00167216 -0.00167625 -0.00167311 -0.00166274 -0.00164515 -0.00162071 -0.00158982 -0.00155246 -0.00150865 -0.00145838 -0.00140164 -0.00133845 -0.00126881 -0.00119514 -0.00111989 -0.00104307 -0.000964673 -0.000884697 -0.000803144 -0.000720014 -0.000635306 -0.000552862 -0.000476522 -0.000406286 -0.000342153 -0.000284125 -0.0002322 -0.000186379 -0.000146662 -0.000112288 -8.24971e-05 -5.72896e-05 -3.66654e-05 -2.06243e-05 -9.16634e-06 -2.29159e-06 0 0 -3.1191e-06 -1.24764e-05 -2.80719e-05 -4.99056e-05 -7.79775e-05 -0.000112288 -0.000152836 -0.000199622 -0.000253682 -0.00031605 -0.000386725 -0.000465709 -0.000553 -0.000648599 -0.000752507 -0.000864722 -0.000980018 -0.00109317 -0.00120417 -0.00131303 -0.00141974 -0.0015243 -0.00162671 -0.00172698 -0.00182179 -0.00190779 -0.00198501 -0.00205344 -0.00211307 -0.00216392 -0.00220597 -0.00223923 -0.00226318 -0.00227729 -0.00228156 -0.002276 -0.0022606 -0.00223537 -0.0022003 -0.00215539 -0.00210289 -0.00204502 -0.00198178 -0.00191318 -0.00183921 -0.00175988 -0.00167518 -0.00158512 -0.00149368 -0.00140485 -0.00131864 -0.00123503 -0.00115404 -0.00107565 -0.00099988 -0.000926718 -0.000859353 -0.00080097 -0.000751569 -0.00071115 -0.000679713 -0.000657258 -0.000643785 -0.000639294 -0.000643785 -0.000657258 -0.000679713 -0.00071115 -0.000751569 -0.00080097 -0.000859353 -0.000926718 -0.00099988 -0.00107565 -0.00115404 -0.00123503 -0.00131864 -0.00140485 -0.00149368 -0.00158512 -0.00167518 -0.00175988 -0.00183921 -0.00191318 -0.00198178 -0.00204502 -0.00210289 -0.00215539 -0.0022003 -0.00223537 -0.0022606 -0.002276 -0.00228156 -0.00227729 -0.00226318 -0.00223923 -0.00220597 -0.00216392 -0.00211307 -0.00205344 -0.00198501 -0.00190779 -0.00182179 -0.00172698 -0.00162672 -0.0015243 -0.00141974 -0.00131303 -0.00120417 -0.00109317 -0.000980019 -0.000864723 -0.000752507 -0.0006486 -0.000553 -0.000465709 -0.000386725 -0.00031605 -0.000253682 -0.000199623 -0.000152836 -0.000112288 -7.79776e-05 -4.99056e-05 -2.80719e-05 -1.24764e-05 -3.1191e-06 0 0 -4.07393e-06 -1.62957e-05 -3.66653e-05 -6.51828e-05 -0.000101848 -0.000146661 -0.000199622 -0.000260731 -0.00033134 -0.000412799 -0.00050511 -0.000608272 -0.000722286 -0.00084715 -0.000982866 -0.00112943 -0.00128002 -0.00142781 -0.00157279 -0.00171497 -0.00185435 -0.00199092 -0.00212469 -0.00225565 -0.00237947 -0.00249181 -0.00259267 -0.00268204 -0.00275993 -0.00282634 -0.00288127 -0.00292471 -0.00295599 -0.00297442 -0.00298 -0.00297274 -0.00295263 -0.00291967 -0.00287386 -0.00281521 -0.00274663 -0.00267104 -0.00258845 -0.00249884 -0.00240223 -0.00229862 -0.00218799 -0.00207036 -0.00195093 -0.00183491 -0.0017223 -0.0016131 -0.00150731 -0.00140493 -0.00130597 -0.00121041 -0.00112242 -0.00104617 -0.000981641 -0.000928849 -0.000887788 -0.000858459 -0.000840862 -0.000834996 -0.000840862 -0.000858459 -0.000887788 -0.000928849 -0.000981641 -0.00104617 -0.00112242 -0.00121041 -0.00130597 -0.00140493 -0.00150731 -0.0016131 -0.0017223 -0.00183491 -0.00195093 -0.00207036 -0.00218799 -0.00229862 -0.00240223 -0.00249884 -0.00258845 -0.00267104 -0.00274663 -0.00281521 -0.00287386 -0.00291967 -0.00295263 -0.00297274 -0.00298 -0.00297442 -0.00295599 -0.00292471 -0.00288127 -0.00282634 -0.00275993 -0.00268204 -0.00259267 -0.00249181 -0.00237947 -0.00225565 -0.00212469 -0.00199092 -0.00185435 -0.00171497 -0.00157279 -0.00142781 -0.00128002 -0.00112943 -0.000982867 -0.000847151 -0.000722286 -0.000608273 -0.000505111 -0.0004128 -0.00033134 -0.000260732 -0.000199623 -0.000146662 -0.000101848 -6.51829e-05 -3.66654e-05 -1.62957e-05 -4.07393e-06 0 0 -5.17718e-06 -2.07087e-05 -4.65946e-05 -8.28349e-05 -0.00012943 -0.000186379 -0.000253682 -0.00033134 -0.000420969 -0.000524188 -0.000640996 -0.000771394 -0.000915381 -0.00107296 -0.00124412 -0.00142888 -0.00161851 -0.0018043 -0.00198624 -0.00216435 -0.00233862 -0.00250904 -0.00267563 -0.00283838 -0.00299175 -0.00313023 -0.00325381 -0.00336249 -0.00345628 -0.00353517 -0.00359916 -0.00364825 -0.00368162 -0.00369843 -0.00369868 -0.00368237 -0.0036495 -0.00360008 -0.0035341 -0.00345155 -0.00335629 -0.00325215 -0.00313911 -0.0030172 -0.0028864 -0.00274671 -0.00259814 -0.00244068 -0.00228114 -0.00212629 -0.00197615 -0.00183072 -0.00168998 -0.00155395 -0.00142263 -0.00129601 -0.0011795 -0.00107853 -0.000993097 -0.000923195 -0.000868826 -0.000829992 -0.000806691 -0.000798924 -0.000806691 -0.000829992 -0.000868826 -0.000923195 -0.000993097 -0.00107853 -0.0011795 -0.00129601 -0.00142263 -0.00155395 -0.00168998 -0.00183072 -0.00197615 -0.00212629 -0.00228114 -0.00244068 -0.00259814 -0.00274671 -0.0028864 -0.0030172 -0.00313911 -0.00325215 -0.00335629 -0.00345155 -0.0035341 -0.00360008 -0.0036495 -0.00368237 -0.00369868 -0.00369843 -0.00368162 -0.00364825 -0.00359916 -0.00353517 -0.00345628 -0.0033625 -0.00325381 -0.00313023 -0.00299175 -0.00283838 -0.00267563 -0.00250905 -0.00233862 -0.00216435 -0.00198624 -0.0018043 -0.00161851 -0.00142888 -0.00124412 -0.00107296 -0.000915382 -0.000771395 -0.000640997 -0.000524189 -0.00042097 -0.00033134 -0.000253682 -0.000186379 -0.00012943 -8.2835e-05 -4.65947e-05 -2.07088e-05 -5.17719e-06 0 0 -6.44999e-06 -2.58e-05 -5.80499e-05 -0.0001032 -0.00016125 -0.0002322 -0.00031605 -0.000412799 -0.000524188 -0.000651955 -0.0007961 -0.000956623 -0.00113352 -0.0013268 -0.00153646 -0.0017625 -0.00199394 -0.00221985 -0.0024402 -0.002655 -0.00286425 -0.00306795 -0.00326611 -0.00345871 -0.00363885 -0.00379957 -0.0039409 -0.00406283 -0.00416536 -0.00424848 -0.00431221 -0.00435653 -0.00438052 -0.00438325 -0.0043647 -0.00432489 -0.00426382 -0.00418147 -0.00407786 -0.00395299 -0.00381197 -0.00365994 -0.0034969 -0.00332284 -0.00313777 -0.00294168 -0.00273458 -0.00251647 -0.00229629 -0.00208299 -0.00187656 -0.00167701 -0.00148434 -0.00129855 -0.00111964 -0.000947599 -0.000789539 -0.000652554 -0.000536643 -0.000441807 -0.000368046 -0.000315359 -0.000283747 -0.00027321 -0.000283747 -0.000315359 -0.000368046 -0.000441807 -0.000536643 -0.000652554 -0.000789539 -0.000947599 -0.00111964 -0.00129855 -0.00148434 -0.00167701 -0.00187656 -0.00208298 -0.00229629 -0.00251647 -0.00273458 -0.00294168 -0.00313777 -0.00332284 -0.0034969 -0.00365994 -0.00381197 -0.00395299 -0.00407786 -0.00418147 -0.00426382 -0.00432489 -0.0043647 -0.00438325 -0.00438052 -0.00435653 -0.00431221 -0.00424848 -0.00416536 -0.00406283 -0.0039409 -0.00379958 -0.00363885 -0.00345872 -0.00326611 -0.00306796 -0.00286425 -0.002655 -0.0024402 -0.00221985 -0.00199395 -0.0017625 -0.00153646 -0.0013268 -0.00113352 -0.000956624 -0.000796101 -0.000651956 -0.000524189 -0.0004128 -0.00031605 -0.0002322 -0.00016125 -0.0001032 -5.805e-05 -2.58e-05 -6.45e-06 0 0 -7.89235e-06 -3.15694e-05 -7.10311e-05 -0.000126278 -0.000197309 -0.000284125 -0.000386725 -0.00050511 -0.000640996 -0.0007961 -0.000970421 -0.00116396 -0.00137671 -0.00160869 -0.00185988 -0.00213029 -0.00240634 -0.00267446 -0.00293465 -0.00318691 -0.00343125 -0.00366765 -0.00389613 -0.00411667 -0.00432076 -0.00449985 -0.00465395 -0.00478305 -0.00488716 -0.00496628 -0.00502041 -0.00504954 -0.0050527 -0.00502887 -0.00497808 -0.00490031 -0.00479557 -0.00466386 -0.00450517 -0.00431951 -0.00411367 -0.00389443 -0.0036618 -0.00341577 -0.00315635 -0.00288354 -0.00259733 -0.00229772 -0.00199639 -0.00170499 -0.00142352 -0.00115199 -0.000890386 -0.000638719 -0.000396985 -0.000165186 4.74704e-05 0.000231772 0.00038772 0.000515314 0.000614553 0.000685438 0.00072797 0.000742147 0.00072797 0.000685439 0.000614553 0.000515314 0.00038772 0.000231772 4.74706e-05 -0.000165185 -0.000396985 -0.000638719 -0.000890385 -0.00115199 -0.00142352 -0.00170499 -0.00199639 -0.00229772 -0.00259733 -0.00288354 -0.00315635 -0.00341577 -0.0036618 -0.00389443 -0.00411367 -0.00431951 -0.00450517 -0.00466386 -0.00479557 -0.00490031 -0.00497808 -0.00502887 -0.0050527 -0.00504954 -0.00502041 -0.00496628 -0.00488716 -0.00478305 -0.00465395 -0.00449985 -0.00432076 -0.00411667 -0.00389613 -0.00366765 -0.00343125 -0.00318692 -0.00293465 -0.00267446 -0.00240634 -0.00213029 -0.00185988 -0.00160869 -0.00137672 -0.00116396 -0.000970422 -0.000796101 -0.000640997 -0.000505111 -0.000386725 -0.000284125 -0.000197309 -0.000126278 -7.10312e-05 -3.15694e-05 -7.89236e-06 0 0 -9.50426e-06 -3.8017e-05 -8.55383e-05 -0.000152068 -0.000237606 -0.000342153 -0.000465708 -0.000608272 -0.000771394 -0.000956623 -0.00116396 -0.0013934 -0.00164495 -0.00191861 -0.00221438 -0.00253225 -0.00285568 -0.00316814 -0.00346961 -0.0037601 -0.00403961 -0.00430814 -0.00456568 -0.00481225 -0.00503748 -0.00523105 -0.00539294 -0.00552316 -0.0056217 -0.00568857 -0.00572377 -0.00572729 -0.00569814 -0.00563531 -0.00553881 -0.00540862 -0.00524476 -0.00504723 -0.00481601 -0.00455112 -0.00426138 -0.00395561 -0.00363381 -0.00329599 -0.00294214 -0.00257227 -0.00218637 -0.00178444 -0.00138143 -0.000992299 -0.000617034 -0.00025564 9.1884e-05 0.000425538 0.000745321 0.00105123 0.00133153 0.00157445 0.00177999 0.00194817 0.00207897 0.0021724 0.00222846 0.00224715 0.00222846 0.0021724 0.00207897 0.00194817 0.00177999 0.00157445 0.00133153 0.00105123 0.000745321 0.000425538 9.18842e-05 -0.00025564 -0.000617034 -0.000992299 -0.00138143 -0.00178444 -0.00218637 -0.00257227 -0.00294214 -0.00329599 -0.00363381 -0.00395561 -0.00426138 -0.00455112 -0.00481601 -0.00504723 -0.00524476 -0.00540862 -0.00553881 -0.00563531 -0.00569814 -0.00572729 -0.00572377 -0.00568857 -0.0056217 -0.00552316 -0.00539294 -0.00523105 -0.00503748 -0.00481225 -0.00456568 -0.00430814 -0.00403961 -0.0037601 -0.00346961 -0.00316814 -0.00285568 -0.00253225 -0.00221438 -0.00191861 -0.00164495 -0.0013934 -0.00116396 -0.000956624 -0.000771395 -0.000608273 -0.000465709 -0.000342154 -0.000237607 -0.000152068 -8.55384e-05 -3.80171e-05 -9.50426e-06 0 0 -1.12857e-05 -4.51429e-05 -0.000101571 -0.000180571 -0.000282143 -0.000406286 -0.000553 -0.000722286 -0.000915381 -0.00113352 -0.00137671 -0.00164495 -0.00193824 -0.00225657 -0.00259995 -0.00296838 -0.00334198 -0.00370088 -0.00404507 -0.00437455 -0.00468933 -0.00498941 -0.00527478 -0.00554544 -0.00578903 -0.00599318 -0.00615788 -0.00628314 -0.00636896 -0.00641534 -0.00642228 -0.00638977 -0.00631685 -0.00620256 -0.00604688 -0.00584983 -0.00561139 -0.00533158 -0.00501039 -0.00464782 -0.0042551 -0.00384348 -0.00341294 -0.0029635 -0.00249514 -0.00200788 -0.0015017 -0.000976621 -0.000451427 5.50793e-05 0.000542897 0.00101203 0.00146247 0.00189422 0.00230728 0.00270166 0.00306263 0.00337547 0.00364017 0.00385675 0.00402521 0.00414553 0.00421772 0.00424179 0.00421772 0.00414553 0.00402521 0.00385676 0.00364017 0.00337547 0.00306263 0.00270166 0.00230728 0.00189422 0.00146247 0.00101203 0.000542897 5.50796e-05 -0.000451426 -0.000976621 -0.0015017 -0.00200788 -0.00249514 -0.0029635 -0.00341294 -0.00384348 -0.0042551 -0.00464782 -0.00501039 -0.00533158 -0.00561139 -0.00584983 -0.00604688 -0.00620256 -0.00631686 -0.00638977 -0.00642228 -0.00641534 -0.00636896 -0.00628314 -0.00615788 -0.00599318 -0.00578903 -0.00554544 -0.00527478 -0.00498941 -0.00468934 -0.00437456 -0.00404507 -0.00370088 -0.00334199 -0.00296839 -0.00259996 -0.00225657 -0.00193824 -0.00164495 -0.00137672 -0.00113352 -0.000915382 -0.000722286 -0.000553 -0.000406286 -0.000282143 -0.000180572 -0.000101572 -4.51429e-05 -1.12857e-05 0 0 -1.32367e-05 -5.29469e-05 -0.00011913 -0.000211788 -0.000330918 -0.000476522 -0.000648599 -0.00084715 -0.00107296 -0.0013268 -0.00160869 -0.00191861 -0.00225657 -0.00262257 -0.00301661 -0.00343869 -0.00386524 -0.00427269 -0.00466103 -0.00503028 -0.00538042 -0.00571147 -0.00602341 -0.00631625 -0.00657539 -0.00678623 -0.00694877 -0.00706302 -0.00712896 -0.0071466 -0.00711594 -0.00703699 -0.00690884 -0.00673061 -0.00650231 -0.00622393 -0.00589546 -0.00551692 -0.0050883 -0.0046096 -0.00409484 -0.00355804 -0.00299919 -0.00241829 -0.00181535 -0.00119037 -0.000543341 0.000125732 0.000793634 0.00143715 0.00205627 0.00265101 0.00322136 0.00376733 0.0042889 0.00478609 0.00524077 0.00563483 0.00596827 0.00624108 0.00645326 0.00660482 0.00669576 0.00672607 0.00669576 0.00660482 0.00645326 0.00624108 0.00596827 0.00563483 0.00524077 0.00478609 0.0042889 0.00376733 0.00322136 0.00265101 0.00205627 0.00143715 0.000793634 0.000125733 -0.00054334 -0.00119037 -0.00181535 -0.00241829 -0.00299919 -0.00355804 -0.00409484 -0.0046096 -0.0050883 -0.00551692 -0.00589547 -0.00622393 -0.00650231 -0.00673062 -0.00690884 -0.00703699 -0.00711594 -0.0071466 -0.00712896 -0.00706302 -0.00694877 -0.00678623 -0.00657539 -0.00631625 -0.00602341 -0.00571147 -0.00538042 -0.00503028 -0.00466103 -0.00427269 -0.00386524 -0.00343869 -0.00301662 -0.00262258 -0.00225657 -0.00191861 -0.00160869 -0.0013268 -0.00107296 -0.000847151 -0.0006486 -0.000476522 -0.000330918 -0.000211788 -0.000119131 -5.29469e-05 -1.32367e-05 0 0 -1.53573e-05 -6.14291e-05 -0.000138216 -0.000245716 -0.000383932 -0.000552862 -0.000752507 -0.000982866 -0.00124412 -0.00153646 -0.00185988 -0.00221438 -0.00259995 -0.00301661 -0.00346435 -0.00394317 -0.00442545 -0.00488356 -0.0053175 -0.00572727 -0.00611287 -0.00647431 -0.00681158 -0.00712468 -0.00739657 -0.00761022 -0.00776562 -0.00786277 -0.00790168 -0.00788234 -0.00780476 -0.00766893 -0.0074741 -0.00721948 -0.00690509 -0.00653092 -0.00609697 -0.00560325 -0.00504975 -0.00443648 -0.0037806 -0.00309929 -0.00239255 -0.00166038 -0.000902773 -0.000119739 0.000688726 0.00152262 0.00235375 0.00315391 0.0039231 0.00466132 0.00536857 0.00604486 0.00669018 0.00730453 0.00786597 0.00835255 0.00876427 0.00910113 0.00936313 0.00955028 0.00966257 0.0097 0.00966257 0.00955028 0.00936313 0.00910113 0.00876427 0.00835255 0.00786597 0.00730453 0.00669018 0.00604486 0.00536858 0.00466132 0.0039231 0.00315391 0.00235375 0.00152262 0.000688726 -0.000119739 -0.000902773 -0.00166038 -0.00239255 -0.00309929 -0.0037806 -0.00443648 -0.00504975 -0.00560325 -0.00609697 -0.00653092 -0.00690509 -0.00721948 -0.0074741 -0.00766894 -0.00780476 -0.00788235 -0.00790168 -0.00786277 -0.00776562 -0.00761022 -0.00739657 -0.00712468 -0.00681158 -0.00647431 -0.00611288 -0.00572727 -0.0053175 -0.00488356 -0.00442545 -0.00394318 -0.00346436 -0.00301662 -0.00259996 -0.00221438 -0.00185988 -0.00153646 -0.00124412 -0.000982867 -0.000752507 -0.000552863 -0.000383932 -0.000245717 -0.000138216 -6.14292e-05 -1.53573e-05 0 0 -1.76474e-05 -7.05896e-05 -0.000158826 -0.000282358 -0.000441185 -0.000635306 -0.000864722 -0.00112943 -0.00142888 -0.00176249 -0.00213029 -0.00253225 -0.00296838 -0.00343869 -0.00394317 -0.00448183 -0.00502262 -0.0055335 -0.00601447 -0.00646553 -0.00688669 -0.00727794 -0.00763929 -0.00797072 -0.00825256 -0.00846513 -0.00860841 -0.00868241 -0.00868713 -0.00862257 -0.00848874 -0.00828562 -0.00801262 -0.00766916 -0.00725522 -0.00677081 -0.00621592 -0.00559057 -0.00489474 -0.00412844 -0.00331237 -0.00246723 -0.00159302 -0.000689747 0.000242598 0.00120401 0.00219449 0.00321404 0.00422892 0.00520536 0.00614337 0.00704295 0.0079041 0.00872682 0.00951111 0.010257 0.0109382 0.0115286 0.0120282 0.0124369 0.0127548 0.0129819 0.0131181 0.0131636 0.0131181 0.0129819 0.0127548 0.0124369 0.0120282 0.0115286 0.0109382 0.010257 0.00951111 0.00872682 0.0079041 0.00704295 0.00614337 0.00520536 0.00422892 0.00321405 0.00219449 0.00120401 0.000242599 -0.000689746 -0.00159302 -0.00246723 -0.00331237 -0.00412844 -0.00489474 -0.00559057 -0.00621592 -0.00677081 -0.00725522 -0.00766916 -0.00801262 -0.00828562 -0.00848874 -0.00862258 -0.00868713 -0.00868241 -0.00860841 -0.00846513 -0.00825257 -0.00797072 -0.00763929 -0.00727794 -0.00688669 -0.00646554 -0.00601447 -0.0055335 -0.00502262 -0.00448183 -0.00394318 -0.00343869 -0.00296839 -0.00253225 -0.00213029 -0.0017625 -0.00142888 -0.00112943 -0.000864723 -0.000635307 -0.000441185 -0.000282358 -0.000158827 -7.05896e-05 -1.76474e-05 0 0 -2.00004e-05 -8.00015e-05 -0.000180003 -0.000320006 -0.000500009 -0.000720013 -0.000980018 -0.00128002 -0.00161851 -0.00199394 -0.00240634 -0.00285568 -0.00334198 -0.00386524 -0.00442545 -0.00502262 -0.00561991 -0.00618051 -0.00670442 -0.00719164 -0.00764217 -0.008056 -0.00843314 -0.00877359 -0.0090548 -0.00925423 -0.00937187 -0.00940774 -0.00936183 -0.00923414 -0.00902466 -0.00873341 -0.00836007 -0.00790433 -0.00736621 -0.00674569 -0.00604278 -0.00525748 -0.00438979 -0.00343971 -0.00243202 -0.00139152 -0.000318197 0.00078794 0.00192689 0.00309866 0.00430325 0.00554065 0.00677078 0.00795357 0.00908902 0.0101771 0.0112179 0.0122113 0.0131573 0.014056 0.0148764 0.0155874 0.016189 0.0166812 0.017064 0.0173375 0.0175015 0.0175562 0.0175015 0.0173375 0.017064 0.0166812 0.016189 0.0155874 0.0148764 0.014056 0.0131573 0.0122113 0.0112179 0.0101771 0.00908902 0.00795357 0.00677078 0.00554065 0.00430325 0.00309866 0.00192689 0.00078794 -0.000318196 -0.00139152 -0.00243202 -0.00343971 -0.00438979 -0.00525748 -0.00604278 -0.00674569 -0.00736621 -0.00790433 -0.00836007 -0.00873341 -0.00902466 -0.00923414 -0.00936183 -0.00940774 -0.00937188 -0.00925423 -0.0090548 -0.00877359 -0.00843314 -0.008056 -0.00764217 -0.00719164 -0.00670443 -0.00618052 -0.00561991 -0.00502262 -0.00442545 -0.00386524 -0.00334199 -0.00285569 -0.00240634 -0.00199395 -0.00161851 -0.00128002 -0.000980019 -0.000720014 -0.00050001 -0.000320006 -0.000180003 -8.00015e-05 -2.00004e-05 0 0 -2.23095e-05 -8.92381e-05 -0.000200786 -0.000356953 -0.000557738 -0.000803143 -0.00109317 -0.00142781 -0.0018043 -0.00221984 -0.00267446 -0.00316814 -0.00370088 -0.00427269 -0.00488356 -0.00553349 -0.00618051 -0.00678263 -0.00733985 -0.00785218 -0.0083196 -0.00874212 -0.00911975 -0.00945247 -0.00971468 -0.00988077 -0.00995073 -0.00992457 -0.00980229 -0.00958388 -0.00926934 -0.00885868 -0.00835208 -0.00774971 -0.00705158 -0.00625769 -0.00536804 -0.00438262 -0.00330145 -0.00212451 -0.00088142 0.000398198 0.00171435 0.00306703 0.00445624 0.00588199 0.00734426 0.00884307 0.010331 0.0117606 0.013132 0.014445 0.0156998 0.0168963 0.0180345 0.0191144 0.0200994 0.0209532 0.0216756 0.0222666 0.0227263 0.0230547 0.0232517 0.0233174 0.0232517 0.0230547 0.0227263 0.0222666 0.0216756 0.0209532 0.0200994 0.0191144 0.0180345 0.0168963 0.0156998 0.014445 0.013132 0.0117606 0.010331 0.00884307 0.00734426 0.00588199 0.00445624 0.00306703 0.00171435 0.000398198 -0.00088142 -0.00212451 -0.00330145 -0.00438262 -0.00536804 -0.00625769 -0.00705158 -0.00774971 -0.00835208 -0.00885868 -0.00926934 -0.00958388 -0.00980229 -0.00992458 -0.00995074 -0.00988077 -0.00971469 -0.00945247 -0.00911975 -0.00874212 -0.0083196 -0.00785218 -0.00733986 -0.00678264 -0.00618052 -0.0055335 -0.00488356 -0.00427269 -0.00370088 -0.00316814 -0.00267446 -0.00221985 -0.0018043 -0.00142781 -0.00109317 -0.000803144 -0.000557739 -0.000356953 -0.000200786 -8.92382e-05 -2.23096e-05 0 0 -2.45749e-05 -9.82996e-05 -0.000221174 -0.000393198 -0.000614372 -0.000884696 -0.00120417 -0.00157279 -0.00198624 -0.0024402 -0.00293465 -0.00346961 -0.00404507 -0.00466103 -0.0053175 -0.00601447 -0.00670442 -0.00733985 -0.00792076 -0.00844713 -0.00891898 -0.00933631 -0.0096991 -0.0100074 -0.0102322 -0.0103448 -0.010345 -0.0102329 -0.0100085 -0.00967179 -0.00922277 -0.00866143 -0.00798865 -0.00720528 -0.00631133 -0.0053068 -0.00419168 -0.00296598 -0.0016297 -0.000182832 0.00133943 0.00290191 0.00450461 0.00614752 0.00783065 0.00955399 0.0113175 0.0131213 0.0149096 0.0166265 0.0182723 0.0198467 0.0213499 0.0227819 0.0241425 0.0254319 0.0266074 0.0276261 0.028488 0.0291933 0.0297418 0.0301336 0.0303687 0.0304471 0.0303687 0.0301336 0.0297418 0.0291933 0.028488 0.0276261 0.0266074 0.0254319 0.0241425 0.0227819 0.0213499 0.0198467 0.0182723 0.0166265 0.0149096 0.0131213 0.0113175 0.00955399 0.00783065 0.00614752 0.00450461 0.00290191 0.00133943 -0.000182832 -0.0016297 -0.00296598 -0.00419168 -0.0053068 -0.00631133 -0.00720528 -0.00798865 -0.00866143 -0.00922277 -0.0096718 -0.0100085 -0.0102329 -0.010345 -0.0103448 -0.0102322 -0.0100074 -0.00969911 -0.00933631 -0.00891899 -0.00844714 -0.00792076 -0.00733986 -0.00670443 -0.00601447 -0.0053175 -0.00466104 -0.00404507 -0.00346961 -0.00293465 -0.0024402 -0.00198624 -0.00157279 -0.00120417 -0.000884697 -0.000614373 -0.000393199 -0.000221174 -9.82997e-05 -2.45749e-05 0 0 -2.67965e-05 -0.000107186 -0.000241168 -0.000428743 -0.000669911 -0.000964672 -0.00131303 -0.00171497 -0.00216435 -0.002655 -0.00318691 -0.0037601 -0.004374