<?xml version="1.0"?> 
<VTKFile type="StructuredGrid" version="0.1"> 
<StructuredGrid WholeExtent="0 128 0 128 0 0"> 
<Piece Extent="0 128 0 128 0 0"> 
<PointData>
<DataArray type="Float32" Name="u" format="ascii" NumberOfComponents="1"> 
0 0 0 0 0 0 0 0 0 0 0 0 0 0 0 0 0 0 0 0 0 0 0 0 0 0 0 0 0 0 0 0 0 0 0 0 0 0 0 0 0 0 0 0 0 0 0 0 0 0 0 0 0 0 0 0 0 0 0 0 0 0 0 0 0 0 0 0 0 0 0 0 0 0 0 0 0 0 0 0 0 0 0 0 0 0 0 0 0 0 0 0 0 0 0 0 0 0 0 0 0 0 0 0 0 0 0 0 0 0 0 0 0 0 0 0 0 0 0 0 0 0 0 0 0 0 0 0 0 0 -6.36509e-08 -2.54604e-07 -5.72858e-07 -1.01841e-06 -1.59127e-06 -2.29143e-06 -3.11889e-06 -4.07366e-06 -5.17954e-06 -6.46035e-06 -7.91609e-06 -9.54676e-06 -1.13524e-05 -1.33329e-05 -1.54884e-05 -1.78188e-05 -2.02201e-05 -2.25885e-05 -2.49239e-05 -2.72263e-05 -2.94958e-05 -3.17322e-05 -3.39356e-05 -3.61061e-05 -3.81784e-05 -4.00875e-05 -4.18333e-05 -4.34159e-05 -4.48352e-05 -4.60912e-05 -4.7184e-05 -4.81135e-05 -4.88698e-05 -4.94431e-05 -4.98332e-05 -5.00401e-05 -5.0064e-05 -4.99048e-05 -4.95624e-05 -4.9037e-05 -4.83683e-05 -4.75964e-05 -4.67213e-05 -4.57428e-05 -4.46611e-05 -4.34762e-05 -4.2188e-05 -4.07965e-05 -3.93712e-05 -3.79815e-05 -3.66273e-05 -3.53087e-05 -3.40257e-05 -3.27782e-05 -3.15663e-05 -3.039e-05 -2.93039e-05 -2.83626e-05 -2.75661e-05 -2.69144e-05 -2.64076e-05 -2.60455e-05 -2.58283e-05 -2.57559e-05 -2.58283e-05 -2.60455e-05 -2.64076e-05 -2.69144e-05 -2.75661e-05 -2.83626e-05 -2.93039e-05 -3.039e-05 -3.15663e-05 -3.27782e-05 -3.40257e-05 -3.53087e-05 -3.66273e-05 -3.79815e-05 -3.93712e-05 -4.07965e-05 -4.2188e-05 -4.34762e-05 -4.46611e-05 -4.57428e-05 -4.67213e-05 -4.75964e-05 -4.83683e-05 -4.9037e-05 -4.95624e-05 -4.99048e-05 -5.0064e-05 -5.00401e-05 -4.98332e-05 -4.94431e-05 -4.88698e-05 -4.81135e-05 -4.7184e-05 -4.60912e-05 -4.48352e-05 -4.34159e-05 -4.18334e-05 -4.00875e-05 -3.81785e-05 -3.61061e-05 -3.39357e-05 -3.17322e-05 -2.94958e-05 -2.72263e-05 -2.49239e-05 -2.25885e-05 -2.02201e-05 -1.78188e-05 -1.54884e-05 -1.33329e-05 -1.13524e-05 -9.54677e-06 -7.9161e-06 -6.46035e-06 -5.17954e-06 -4.07366e-06 -3.1189e-06 -2.29143e-06 -1.59127e-06 -1.01842e-06 -5.72858e-07 -2.54604e-07 -6.36509e-08 0 0 -2.54604e-07 -1.01841e-06 -2.29143e-06 -4.07366e-06 -6.36509e-06 -9.16573e-06 -1.24756e-05 -1.62946e-05 -2.07181e-05 -2.58414e-05 -3.16644e-05 -3.8187e-05 -4.54095e-05 -5.33316e-05 -6.19535e-05 -7.12751e-05 -8.08805e-05 -9.03541e-05 -9.96957e-05 -0.000108905 -0.000117983 -0.000126929 -0.000135743 -0.000144424 -0.000152714 -0.00016035 -0.000167333 -0.000173664 -0.000179341 -0.000184365 -0.000188736 -0.000192454 -0.000195479 -0.000197772 -0.000199333 -0.000200161 -0.000200256 -0.000199619 -0.00019825 -0.000196148 -0.000193473 -0.000190386 -0.000186885 -0.000182971 -0.000178645 -0.000173905 -0.000168752 -0.000163186 -0.000157485 -0.000151926 -0.000146509 -0.000141235 -0.000136103 -0.000131113 -0.000126265 -0.00012156 -0.000117216 -0.00011345 -0.000110264 -0.000107658 -0.00010563 -0.000104182 -0.000103313 -0.000103024 -0.000103313 -0.000104182 -0.00010563 -0.000107658 -0.000110264 -0.00011345 -0.000117216 -0.00012156 -0.000126265 -0.000131113 -0.000136103 -0.000141235 -0.000146509 -0.000151926 -0.000157485 -0.000163186 -0.000168752 -0.000173905 -0.000178645 -0.000182971 -0.000186885 -0.000190386 -0.000193473 -0.000196148 -0.00019825 -0.000199619 -0.000200256 -0.000200161 -0.000199333 -0.000197772 -0.000195479 -0.000192454 -0.000188736 -0.000184365 -0.000179341 -0.000173664 -0.000167333 -0.00016035 -0.000152714 -0.000144424 -0.000135743 -0.000126929 -0.000117983 -0.000108905 -9.96957e-05 -9.03541e-05 -8.08806e-05 -7.12751e-05 -6.19535e-05 -5.33316e-05 -4.54095e-05 -3.81871e-05 -3.16644e-05 -2.58414e-05 -2.07182e-05 -1.62946e-05 -1.24756e-05 -9.16574e-06 -6.36509e-06 -4.07366e-06 -2.29143e-06 -1.01842e-06 -2.54604e-07 0 0 -5.72858e-07 -2.29143e-06 -5.15572e-06 -9.16573e-06 -1.43214e-05 -2.06229e-05 -2.807e-05 -3.66629e-05 -4.66158e-05 -5.81431e-05 -7.12448e-05 -8.59209e-05 -0.000102171 -0.000119996 -0.000139395 -0.000160369 -0.000181981 -0.000203297 -0.000224315 -0.000245037 -0.000265462 -0.00028559 -0.000305421 -0.000324955 -0.000343606 -0.000360788 -0.0003765 -0.000390743 -0.000403517 -0.000414821 -0.000424656 -0.000433022 -0.000439829 -0.000444988 -0.000448498 -0.000450361 -0.000450576 -0.000449143 -0.000446062 -0.000441333 -0.000435315 -0.000428368 -0.000420491 -0.000411685 -0.00040195 -0.000391286 -0.000379692 -0.000367169 -0.000354341 -0.000341833 -0.000329646 -0.000317778 -0.000306231 -0.000295004 -0.000284097 -0.00027351 -0.000263735 -0.000255263 -0.000248095 -0.00024223 -0.000237668 -0.00023441 -0.000232455 -0.000231803 -0.000232455 -0.00023441 -0.000237668 -0.00024223 -0.000248095 -0.000255263 -0.000263735 -0.00027351 -0.000284097 -0.000295004 -0.000306231 -0.000317778 -0.000329646 -0.000341833 -0.000354341 -0.000367169 -0.000379692 -0.000391286 -0.00040195 -0.000411685 -0.000420491 -0.000428368 -0.000435315 -0.000441333 -0.000446062 -0.000449143 -0.000450576 -0.000450361 -0.000448498 -0.000444988 -0.000439829 -0.000433022 -0.000424656 -0.000414821 -0.000403517 -0.000390743 -0.0003765 -0.000360788 -0.000343606 -0.000324955 -0.000305421 -0.00028559 -0.000265462 -0.000245037 -0.000224315 -0.000203297 -0.000181981 -0.000160369 -0.000139395 -0.000119996 -0.000102171 -8.59209e-05 -7.12449e-05 -5.81432e-05 -4.66159e-05 -3.66629e-05 -2.80701e-05 -2.06229e-05 -1.43215e-05 -9.16574e-06 -5.15573e-06 -2.29143e-06 -5.72858e-07 0 0 -1.01841e-06 -4.07366e-06 -9.16573e-06 -1.62946e-05 -2.54604e-05 -3.66629e-05 -4.99023e-05 -6.51785e-05 -8.28726e-05 -0.000103366 -0.000126657 -0.000152748 -0.000181638 -0.000213326 -0.000247814 -0.0002851 -0.000323522 -0.000361416 -0.000398783 -0.000435621 -0.000471932 -0.000507715 -0.00054297 -0.000577698 -0.000610855 -0.0006414 -0.000669334 -0.000694655 -0.000717363 -0.00073746 -0.000754944 -0.000769816 -0.000781918 -0.000791089 -0.000797331 -0.000800642 -0.000801024 -0.000798477 -0.000792999 -0.000784592 -0.000773893 -0.000761543 -0.00074754 -0.000731885 -0.000714578 -0.000695619 -0.000675008 -0.000652744 -0.00062994 -0.000607704 -0.000586037 -0.000564939 -0.000544411 -0.000524452 -0.000505061 -0.00048624 -0.000468862 -0.000453801 -0.000441058 -0.000430631 -0.000422521 -0.000416728 -0.000413253 -0.000412094 -0.000413253 -0.000416728 -0.000422521 -0.000430631 -0.000441058 -0.000453801 -0.000468862 -0.00048624 -0.000505061 -0.000524452 -0.000544411 -0.000564939 -0.000586037 -0.000607704 -0.00062994 -0.000652744 -0.000675008 -0.000695619 -0.000714578 -0.000731885 -0.00074754 -0.000761543 -0.000773893 -0.000784592 -0.000792999 -0.000798477 -0.000801024 -0.000800642 -0.000797331 -0.000791089 -0.000781918 -0.000769816 -0.000754944 -0.00073746 -0.000717363 -0.000694655 -0.000669334 -0.000641401 -0.000610855 -0.000577698 -0.00054297 -0.000507715 -0.000471932 -0.000435621 -0.000398783 -0.000361416 -0.000323522 -0.0002851 -0.000247814 -0.000213327 -0.000181638 -0.000152748 -0.000126658 -0.000103366 -8.28727e-05 -6.51786e-05 -4.99023e-05 -3.66629e-05 -2.54604e-05 -1.62946e-05 -9.16574e-06 -4.07366e-06 -1.01842e-06 0 0 -1.59127e-06 -6.36509e-06 -1.43214e-05 -2.54604e-05 -3.97818e-05 -5.72858e-05 -7.79723e-05 -0.000101841 -0.000129488 -0.000161509 -0.000197902 -0.000238669 -0.000283809 -0.000333323 -0.000387209 -0.000445469 -0.000505503 -0.000564713 -0.000623098 -0.000680658 -0.000737394 -0.000793305 -0.000848391 -0.000902653 -0.000954461 -0.00100219 -0.00104583 -0.0010854 -0.00112088 -0.00115228 -0.0011796 -0.00120284 -0.00122175 -0.00123608 -0.00124583 -0.001251 -0.0012516 -0.00124762 -0.00123906 -0.00122592 -0.00120921 -0.00118991 -0.00116803 -0.00114357 -0.00111653 -0.0010869 -0.0010547 -0.00101991 -0.000984281 -0.000949537 -0.000915683 -0.000882718 -0.000850642 -0.000819456 -0.000789159 -0.000759751 -0.000732597 -0.000709065 -0.000689152 -0.000672861 -0.000660189 -0.000651138 -0.000645707 -0.000643897 -0.000645707 -0.000651138 -0.000660189 -0.000672861 -0.000689152 -0.000709065 -0.000732597 -0.000759751 -0.000789158 -0.000819456 -0.000850642 -0.000882718 -0.000915683 -0.000949537 -0.00098428 -0.00101991 -0.0010547 -0.0010869 -0.00111653 -0.00114357 -0.00116803 -0.00118991 -0.00120921 -0.00122592 -0.00123906 -0.00124762 -0.0012516 -0.001251 -0.00124583 -0.00123608 -0.00122175 -0.00120284 -0.0011796 -0.00115228 -0.00112088 -0.0010854 -0.00104583 -0.00100219 -0.000954461 -0.000902653 -0.000848391 -0.000793305 -0.000737394 -0.000680658 -0.000623098 -0.000564713 -0.000505504 -0.000445469 -0.000387209 -0.000333323 -0.000283809 -0.000238669 -0.000197902 -0.000161509 -0.000129489 -0.000101842 -7.79724e-05 -5.72858e-05 -3.97818e-05 -2.54604e-05 -1.43215e-05 -6.36509e-06 -1.59127e-06 0 0 -2.29143e-06 -9.16573e-06 -2.06229e-05 -3.66629e-05 -5.72858e-05 -8.24915e-05 -0.00011228 -0.000146652 -0.000186463 -0.000232572 -0.000284979 -0.000343683 -0.000408685 -0.000479984 -0.000557581 -0.000641476 -0.000727925 -0.000813187 -0.000897261 -0.000980148 -0.00106185 -0.00114236 -0.00122168 -0.00129982 -0.00137442 -0.00144315 -0.001506 -0.00156297 -0.00161407 -0.00165928 -0.00169862 -0.00173209 -0.00175931 -0.00177995 -0.00179399 -0.00180145 -0.0018023 -0.00179657 -0.00178425 -0.00176533 -0.00174126 -0.00171347 -0.00168197 -0.00164674 -0.0016078 -0.00156514 -0.00151877 -0.00146868 -0.00141736 -0.00136733 -0.00131858 -0.00127111 -0.00122492 -0.00118002 -0.00113639 -0.00109404 -0.00105494 -0.00102105 -0.000992379 -0.000968919 -0.000950672 -0.000937639 -0.000929819 -0.000927212 -0.000929819 -0.000937639 -0.000950672 -0.000968919 -0.000992379 -0.00102105 -0.00105494 -0.00109404 -0.00113639 -0.00118002 -0.00122492 -0.00127111 -0.00131858 -0.00136733 -0.00141736 -0.00146867 -0.00151877 -0.00156514 -0.0016078 -0.00164674 -0.00168197 -0.00171347 -0.00174126 -0.00176533 -0.00178425 -0.00179657 -0.0018023 -0.00180145 -0.00179399 -0.00177995 -0.00175931 -0.00173209 -0.00169862 -0.00165928 -0.00161407 -0.00156297 -0.001506 -0.00144315 -0.00137442 -0.00129982 -0.00122168 -0.00114236 -0.00106185 -0.000980148 -0.000897261 -0.000813187 -0.000727925 -0.000641476 -0.000557582 -0.000479985 -0.000408685 -0.000343684 -0.000284979 -0.000232573 -0.000186463 -0.000146652 -0.00011228 -8.24916e-05 -5.72858e-05 -3.66629e-05 -2.06229e-05 -9.16574e-06 -2.29143e-06 0 0 -3.11889e-06 -1.24756e-05 -2.807e-05 -4.99023e-05 -7.79723e-05 -0.00011228 -0.000152826 -0.000199609 -0.000253797 -0.000316557 -0.000387888 -0.000467791 -0.000556266 -0.000653312 -0.00075893 -0.000873119 -0.000990787 -0.00110684 -0.00122127 -0.00133409 -0.00144529 -0.00155488 -0.00166285 -0.0017692 -0.00187074 -0.00196429 -0.00204983 -0.00212738 -0.00219692 -0.00225847 -0.00231202 -0.00235756 -0.00239462 -0.00242271 -0.00244182 -0.00245197 -0.00245314 -0.00244533 -0.00242856 -0.00240281 -0.00237005 -0.00233222 -0.00228934 -0.0022414 -0.0021884 -0.00213033 -0.00206721 -0.00199903 -0.00192919 -0.00186109 -0.00179474 -0.00173013 -0.00166726 -0.00160613 -0.00154675 -0.00148911 -0.00143589 -0.00138977 -0.00135074 -0.00131881 -0.00129397 -0.00127623 -0.00126559 -0.00126204 -0.00126559 -0.00127623 -0.00129397 -0.00131881 -0.00135074 -0.00138977 -0.00143589 -0.00148911 -0.00154675 -0.00160613 -0.00166726 -0.00173013 -0.00179474 -0.00186109 -0.00192919 -0.00199903 -0.00206721 -0.00213033 -0.0021884 -0.0022414 -0.00228934 -0.00233222 -0.00237005 -0.00240281 -0.00242856 -0.00244533 -0.00245314 -0.00245197 -0.00244182 -0.00242271 -0.00239462 -0.00235756 -0.00231202 -0.00225847 -0.00219693 -0.00212738 -0.00204983 -0.00196429 -0.00187074 -0.0017692 -0.00166285 -0.00155488 -0.00144529 -0.00133409 -0.00122127 -0.00110684 -0.000990787 -0.00087312 -0.00075893 -0.000653313 -0.000556266 -0.000467792 -0.000387889 -0.000316557 -0.000253798 -0.000199609 -0.000152826 -0.00011228 -7.79724e-05 -4.99023e-05 -2.80701e-05 -1.24756e-05 -3.1189e-06 0 0 -4.07366e-06 -1.62946e-05 -3.66629e-05 -6.51785e-05 -0.000101841 -0.000146652 -0.000199609 -0.000260714 -0.00033149 -0.000413462 -0.00050663 -0.000610993 -0.000726551 -0.000853306 -0.000991255 -0.0011404 -0.00129409 -0.00144567 -0.00159513 -0.00174248 -0.00188773 -0.00203086 -0.00217188 -0.00231079 -0.00244342 -0.0025656 -0.00267733 -0.00277862 -0.00286945 -0.00294984 -0.00301978 -0.00307927 -0.00312767 -0.00316436 -0.00318932 -0.00320257 -0.0032041 -0.00319391 -0.003172 -0.00313837 -0.00309557 -0.00304617 -0.00299016 -0.00292754 -0.00285831 -0.00278248 -0.00270003 -0.00261098 -0.00251976 -0.00243081 -0.00234415 -0.00225976 -0.00217764 -0.00209781 -0.00202025 -0.00194496 -0.00187545 -0.00181521 -0.00176423 -0.00172252 -0.00169008 -0.00166691 -0.00165301 -0.00164838 -0.00165301 -0.00166691 -0.00169008 -0.00172252 -0.00176423 -0.00181521 -0.00187545 -0.00194496 -0.00202025 -0.00209781 -0.00217764 -0.00225976 -0.00234415 -0.00243081 -0.00251976 -0.00261098 -0.00270003 -0.00278248 -0.00285831 -0.00292754 -0.00299016 -0.00304617 -0.00309557 -0.00313837 -0.003172 -0.00319391 -0.0032041 -0.00320257 -0.00318932 -0.00316436 -0.00312767 -0.00307927 -0.00301978 -0.00294984 -0.00286945 -0.00277862 -0.00267733 -0.0025656 -0.00244342 -0.00231079 -0.00217188 -0.00203086 -0.00188773 -0.00174249 -0.00159513 -0.00144567 -0.00129409 -0.0011404 -0.000991256 -0.000853306 -0.000726552 -0.000610993 -0.00050663 -0.000413463 -0.000331491 -0.000260714 -0.000199609 -0.000146652 -0.000101842 -6.51786e-05 -3.66629e-05 -1.62946e-05 -4.07366e-06 0 0 -5.17954e-06 -2.07181e-05 -4.66158e-05 -8.28726e-05 -0.000129488 -0.000186463 -0.000253797 -0.00033149 -0.000421376 -0.000525287 -0.000643224 -0.000775187 -0.000921176 -0.00108119 -0.00125523 -0.0014433 -0.00163689 -0.00182751 -0.00201515 -0.00219981 -0.0023815 -0.00256022 -0.00273596 -0.00290872 -0.00307319 -0.00322406 -0.00336133 -0.00348498 -0.00359504 -0.00369149 -0.00377433 -0.00384357 -0.00389844 -0.00393816 -0.00396275 -0.00397219 -0.00396649 -0.00394565 -0.00390966 -0.00385854 -0.00379566 -0.00372439 -0.00364475 -0.00355672 -0.00346032 -0.00335553 -0.00324237 -0.00312083 -0.00299674 -0.00287592 -0.00275839 -0.00264414 -0.00253318 -0.00242549 -0.00232108 -0.00221996 -0.00212669 -0.00204586 -0.00197746 -0.0019215 -0.00187798 -0.00184689 -0.00182824 -0.00182202 -0.00182824 -0.00184689 -0.00187798 -0.0019215 -0.00197746 -0.00204586 -0.00212669 -0.00221996 -0.00232108 -0.00242549 -0.00253318 -0.00264414 -0.00275839 -0.00287592 -0.00299674 -0.00312083 -0.00324237 -0.00335553 -0.00346032 -0.00355672 -0.00364475 -0.00372439 -0.00379565 -0.00385854 -0.00390966 -0.00394565 -0.00396649 -0.00397219 -0.00396275 -0.00393816 -0.00389844 -0.00384357 -0.00377433 -0.00369149 -0.00359504 -0.00348498 -0.00336133 -0.00322406 -0.00307319 -0.00290872 -0.00273596 -0.00256022 -0.0023815 -0.00219981 -0.00201515 -0.00182751 -0.00163689 -0.0014433 -0.00125523 -0.00108119 -0.000921177 -0.000775188 -0.000643225 -0.000525288 -0.000421376 -0.000331491 -0.000253798 -0.000186463 -0.000129489 -8.28727e-05 -4.66159e-05 -2.07182e-05 -5.17954e-06 0 0 -6.46035e-06 -2.58414e-05 -5.81431e-05 -0.000103366 -0.000161509 -0.000232572 -0.000316557 -0.000413462 -0.000525287 -0.000654031 -0.000799693 -0.000962275 -0.00114177 -0.00133819 -0.00155153 -0.00178179 -0.00201825 -0.00225019 -0.00247763 -0.00270055 -0.00291896 -0.00313285 -0.00334224 -0.00354711 -0.0037408 -0.00391664 -0.00407463 -0.00421477 -0.00433707 -0.00444151 -0.00452811 -0.00459686 -0.0046469 -0.0046774 -0.00468835 -0.00467976 -0.00465161 -0.00460391 -0.00453667 -0.00444988 -0.00434811 -0.00423596 -0.00411342 -0.0039805 -0.00383718 -0.00368347 -0.00351937 -0.00334489 -0.00316779 -0.00299584 -0.00282905 -0.00266742 -0.00251095 -0.00235963 -0.00221347 -0.00207246 -0.00194269 -0.00183021 -0.00173505 -0.00165718 -0.00159662 -0.00155336 -0.00152741 -0.00151875 -0.00152741 -0.00155336 -0.00159662 -0.00165718 -0.00173505 -0.00183021 -0.00194269 -0.00207246 -0.00221347 -0.00235963 -0.00251095 -0.00266742 -0.00282905 -0.00299584 -0.00316779 -0.00334489 -0.00351937 -0.00368347 -0.00383718 -0.00398049 -0.00411342 -0.00423596 -0.00434811 -0.00444988 -0.00453667 -0.00460391 -0.00465161 -0.00467976 -0.00468835 -0.0046774 -0.0046469 -0.00459686 -0.00452811 -0.00444151 -0.00433707 -0.00421478 -0.00407463 -0.00391664 -0.0037408 -0.00354711 -0.00334224 -0.00313286 -0.00291896 -0.00270055 -0.00247763 -0.0022502 -0.00201825 -0.00178179 -0.00155153 -0.00133819 -0.00114178 -0.000962275 -0.000799694 -0.000654031 -0.000525288 -0.000413463 -0.000316557 -0.000232573 -0.000161509 -0.000103366 -5.81432e-05 -2.58414e-05 -6.46035e-06 0 0 -7.91609e-06 -3.16644e-05 -7.12448e-05 -0.000126657 -0.000197902 -0.000284979 -0.000387888 -0.00050663 -0.000643224 -0.000799693 -0.000976037 -0.00117225 -0.00138835 -0.00162431 -0.00188016 -0.00215587 -0.00243816 -0.00271373 -0.00298258 -0.0032447 -0.0035001 -0.00374878 -0.00399073 -0.00422596 -0.00444624 -0.00464334 -0.00481725 -0.00496799 -0.00509554 -0.00519992 -0.00528111 -0.00533912 -0.00537307 -0.00538208 -0.00536615 -0.00532528 -0.00525946 -0.00516871 -0.00505301 -0.00491238 -0.00475295 -0.00458089 -0.00439619 -0.00419886 -0.00398889 -0.00376628 -0.00353104 -0.00328316 -0.00303292 -0.00279057 -0.00255613 -0.0023296 -0.00211096 -0.00190023 -0.0016974 -0.00150248 -0.00132344 -0.00116827 -0.00103698 -0.000929556 -0.000846005 -0.000786326 -0.000750519 -0.000738583 -0.000750519 -0.000786326 -0.000846005 -0.000929556 -0.00103698 -0.00116827 -0.00132344 -0.00150248 -0.0016974 -0.00190023 -0.00211096 -0.0023296 -0.00255613 -0.00279057 -0.00303292 -0.00328316 -0.00353104 -0.00376628 -0.00398889 -0.00419886 -0.00439619 -0.00458089 -0.00475295 -0.00491238 -0.00505301 -0.00516871 -0.00525946 -0.00532528 -0.00536615 -0.00538208 -0.00537307 -0.00533912 -0.00528111 -0.00519992 -0.00509554 -0.00496799 -0.00481725 -0.00464334 -0.00444624 -0.00422596 -0.00399073 -0.00374878 -0.0035001 -0.0032447 -0.00298258 -0.00271373 -0.00243816 -0.00215587 -0.00188016 -0.00162432 -0.00138835 -0.00117226 -0.000976038 -0.000799694 -0.000643225 -0.00050663 -0.000387889 -0.000284979 -0.000197902 -0.000126658 -7.12449e-05 -3.16644e-05 -7.9161e-06 0 0 -9.54676e-06 -3.8187e-05 -8.59208e-05 -0.000152748 -0.000238669 -0.000343683 -0.000467791 -0.000610993 -0.000775187 -0.000962275 -0.00117225 -0.00140513 -0.00166089 -0.00193955 -0.0022411 -0.00256555 -0.00289663 -0.00321812 -0.00352999 -0.00383226 -0.00412492 -0.00440798 -0.00468143 -0.00494527 -0.00518951 -0.00540415 -0.00558919 -0.00574463 -0.00587046 -0.0059667 -0.00603333 -0.00607037 -0.00607694 -0.00605219 -0.00599613 -0.00590875 -0.00579005 -0.00564003 -0.0054587 -0.00524604 -0.00501017 -0.00475917 -0.00449306 -0.00421182 -0.00391546 -0.00360397 -0.00327737 -0.00293564 -0.00259212 -0.00226011 -0.00193963 -0.00163066 -0.00133322 -0.00104729 -0.000772887 -0.000510003 -0.000268949 -6.00356e-05 0.000116737 0.00026137 0.000373861 0.000454213 0.000502423 0.000518494 0.000502424 0.000454213 0.000373861 0.00026137 0.000116737 -6.00354e-05 -0.000268949 -0.000510003 -0.000772887 -0.00104729 -0.00133322 -0.00163066 -0.00193963 -0.00226011 -0.00259212 -0.00293564 -0.00327737 -0.00360397 -0.00391546 -0.00421182 -0.00449305 -0.00475917 -0.00501017 -0.00524604 -0.0054587 -0.00564003 -0.00579005 -0.00590875 -0.00599613 -0.00605219 -0.00607694 -0.00607037 -0.00603333 -0.0059667 -0.00587046 -0.00574463 -0.00558919 -0.00540415 -0.00518951 -0.00494527 -0.00468143 -0.00440798 -0.00412492 -0.00383226 -0.00352999 -0.00321812 -0.00289664 -0.00256555 -0.0022411 -0.00193955 -0.00166089 -0.00140513 -0.00117226 -0.000962275 -0.000775188 -0.000610993 -0.000467792 -0.000343684 -0.000238669 -0.000152748 -8.59209e-05 -3.81871e-05 -9.54677e-06 0 0 -1.13524e-05 -4.54095e-05 -0.000102171 -0.000181638 -0.000283809 -0.000408685 -0.000556266 -0.000726551 -0.000921176 -0.00114177 -0.00138835 -0.00166089 -0.00195941 -0.00228391 -0.00263438 -0.00301082 -0.00339366 -0.00376335 -0.00411987 -0.00446323 -0.00479343 -0.00511046 -0.00541434 -0.00570505 -0.00597062 -0.00619909 -0.00639044 -0.00654469 -0.00666183 -0.00674186 -0.00678478 -0.00679059 -0.0067585 -0.00668774 -0.0065783 -0.00643017 -0.00624337 -0.00601788 -0.00575372 -0.00545087 -0.00511976 -0.00477081 -0.00440401 -0.00401936 -0.00361688 -0.00319654 -0.00275836 -0.00230234 -0.0018454 -0.00140446 -0.000979537 -0.000570621 -0.000177712 0.000199188 0.000560079 0.000904962 0.00122079 0.0014945 0.0017261 0.0019156 0.00206298 0.00216826 0.00223142 0.00225248 0.00223142 0.00216826 0.00206298 0.0019156 0.0017261 0.0014945 0.00122079 0.000904962 0.000560079 0.000199188 -0.000177712 -0.00057062 -0.000979537 -0.00140446 -0.0018454 -0.00230234 -0.00275836 -0.00319654 -0.00361688 -0.00401936 -0.00440401 -0.00477081 -0.00511976 -0.00545087 -0.00575372 -0.00601788 -0.00624337 -0.00643017 -0.0065783 -0.00668774 -0.00675851 -0.00679059 -0.00678478 -0.00674186 -0.00666183 -0.00654469 -0.00639044 -0.00619909 -0.00597062 -0.00570505 -0.00541434 -0.00511047 -0.00479343 -0.00446323 -0.00411987 -0.00376335 -0.00339367 -0.00301082 -0.00263438 -0.00228391 -0.00195941 -0.00166089 -0.00138835 -0.00114178 -0.000921177 -0.000726552 -0.000556266 -0.000408686 -0.000283809 -0.000181638 -0.000102171 -4.54095e-05 -1.13524e-05 0 0 -1.33329e-05 -5.33316e-05 -0.000119996 -0.000213326 -0.000333322 -0.000479984 -0.000653312 -0.000853306 -0.00108119 -0.00133819 -0.00162431 -0.00193955 -0.00228391 -0.00265738 -0.00305997 -0.00349168 -0.00392925 -0.00434943 -0.00475222 -0.00513761 -0.00550562 -0.00585623 -0.00618945 -0.00650528 -0.00678956 -0.00702814 -0.00722101 -0.00736818 -0.00746964 -0.00752539 -0.00753544 -0.00749979 -0.00741777 -0.00728872 -0.00711265 -0.00688955 -0.00661942 -0.00630226 -0.00593807 -0.00552686 -0.00508173 -0.0046158 -0.00412905 -0.0036215 -0.00309315 -0.00254399 -0.00197402 -0.00138324 -0.00079275 -0.000223623 0.000324136 0.000850527 0.00135555 0.00183921 0.0023015 0.00274242 0.00314576 0.00349533 0.00379112 0.00403313 0.00422136 0.00435581 0.00443647 0.00446336 0.00443647 0.00435581 0.00422136 0.00403313 0.00379112 0.00349533 0.00314576 0.00274242 0.0023015 0.00183921 0.00135555 0.000850528 0.000324136 -0.000223623 -0.00079275 -0.00138324 -0.00197402 -0.00254399 -0.00309315 -0.0036215 -0.00412905 -0.0046158 -0.00508173 -0.00552686 -0.00593807 -0.00630226 -0.00661942 -0.00688955 -0.00711265 -0.00728872 -0.00741777 -0.00749979 -0.00753545 -0.00752539 -0.00746964 -0.00736818 -0.00722101 -0.00702814 -0.00678956 -0.00650528 -0.00618945 -0.00585623 -0.00550562 -0.00513762 -0.00475222 -0.00434943 -0.00392925 -0.00349168 -0.00305997 -0.00265738 -0.00228391 -0.00193955 -0.00162432 -0.00133819 -0.00108119 -0.000853306 -0.000653313 -0.000479985 -0.000333323 -0.000213327 -0.000119996 -5.33316e-05 -1.33329e-05 0 0 -1.54884e-05 -6.19535e-05 -0.000139395 -0.000247814 -0.000387209 -0.000557581 -0.00075893 -0.000991255 -0.00125523 -0.00155153 -0.00188016 -0.0022411 -0.00263438 -0.00305997 -0.00351789 -0.00400814 -0.00450339 -0.00497636 -0.00542703 -0.00585541 -0.00626149 -0.00664528 -0.00700678 -0.00734598 -0.00764634 -0.00789131 -0.00808089 -0.00821509 -0.00829389 -0.00831731 -0.00828533 -0.00819797 -0.00805474 -0.00785514 -0.00759919 -0.00728687 -0.0069182 -0.00649316 -0.00601177 -0.00547402 -0.00489608 -0.00429414 -0.00366819 -0.00301824 -0.00234428 -0.00164631 -0.000924339 -0.000178361 0.000565821 0.00128241 0.00197139 0.00263278 0.00326657 0.00387277 0.00445136 0.00500236 0.00550599 0.00594246 0.00631178 0.00661396 0.00684898 0.00701686 0.00711758 0.00715116 0.00711758 0.00701686 0.00684898 0.00661396 0.00631178 0.00594246 0.00550599 0.00500236 0.00445136 0.00387277 0.00326657 0.00263278 0.00197139 0.00128241 0.000565822 -0.00017836 -0.000924339 -0.00164631 -0.00234428 -0.00301824 -0.00366819 -0.00429414 -0.00489608 -0.00547402 -0.00601177 -0.00649316 -0.0069182 -0.00728687 -0.00759919 -0.00785514 -0.00805474 -0.00819797 -0.00828534 -0.00831731 -0.00829389 -0.00821509 -0.00808089 -0.00789131 -0.00764634 -0.00734598 -0.00700678 -0.00664528 -0.00626149 -0.00585541 -0.00542703 -0.00497636 -0.0045034 -0.00400814 -0.00351789 -0.00305997 -0.00263438 -0.0022411 -0.00188016 -0.00155153 -0.00125523 -0.000991256 -0.000758931 -0.000557582 -0.000387209 -0.000247814 -0.000139395 -6.19535e-05 -1.54884e-05 0 0 -1.78188e-05 -7.1275e-05 -0.000160369 -0.0002851 -0.000445469 -0.000641475 -0.000873119 -0.0011404 -0.0014433 -0.00178179 -0.00215587 -0.00256555 -0.00301082 -0.00349168 -0.00400814 -0.00456018 -0.0051161 -0.00564414 -0.00614431 -0.00661661 -0.00706105 -0.00747761 -0.00786631 -0.00822714 -0.00854095 -0.0087886 -0.00897009 -0.00908542 -0.00913459 -0.0091176 -0.00903445 -0.00888513 -0.0086694 -0.00838699 -0.00803791 -0.00762215 -0.00713971 -0.00659059 -0.0059748 -0.00529233 -0.00456281 -0.00380583 -0.00302142 -0.00220956 -0.00137026 -0.000503512 0.000390678 0.00131231 0.00223032 0.00311362 0.00396223 0.00477614 0.00555535 0.00629987 0.00700968 0.0076848 0.00830145 0.00883589 0.0092881 0.00965809 0.00994587 0.0101514 0.0102747 0.0103159 0.0102747 0.0101514 0.00994587 0.00965809 0.0092881 0.00883589 0.00830145 0.0076848 0.00700968 0.00629987 0.00555535 0.00477614 0.00396223 0.00311362 0.00223032 0.00131231 0.000390678 -0.000503511 -0.00137026 -0.00220956 -0.00302142 -0.00380583 -0.00456281 -0.00529233 -0.0059748 -0.00659059 -0.00713971 -0.00762215 -0.00803791 -0.00838699 -0.0086694 -0.00888513 -0.00903445 -0.0091176 -0.00913459 -0.00908542 -0.00897009 -0.0087886 -0.00854095 -0.00822714 -0.00786631 -0.00747762 -0.00706105 -0.00661662 -0.00614431 -0.00564414 -0.0051161 -0.00456019 -0.00400814 -0.00349168 -0.00301082 -0.00256555 -0.00215587 -0.00178179 -0.0014433 -0.0011404 -0.00087312 -0.000641476 -0.000445469 -0.0002851 -0.000160369 -7.12751e-05 -1.78188e-05 0 0 -2.02201e-05 -8.08805e-05 -0.000181981 -0.000323522 -0.000505503 -0.000727925 -0.000990786 -0.00129409 -0.00163689 -0.00201825 -0.00243816 -0.00289663 -0.00339366 -0.00392925 -0.00450339 -0.0051161 -0.00573081 -0.00631101 -0.00685667 -0.00736781 -0.00784443 -0.00828652 -0.00869409 -0.00906713 -0.00938369 -0.0096218 -0.00978146 -0.00986268 -0.00986545 -0.00978978 -0.00963566 -0.0094031 -0.00909219 -0.00870304 -0.00823564 -0.00768999 -0.00706611 -0.00636397 -0.0055836 -0.00472497 -0.00381174 -0.00286752 -0.00189233 -0.000886148 0.00015101 0.00121915 0.00231827 0.00344837 0.00457232 0.00565298 0.00669034 0.00768442 0.00863521 0.00954271 0.0104069 0.0112278 0.0119772 0.0126266 0.0131761 0.0136257 0.0139754 0.0142251 0.014375 0.014425 0.014375 0.0142251 0.0139754 0.0136257 0.0131761 0.0126266 0.0119772 0.0112278 0.0104069 0.00954271 0.00863521 0.00768442 0.00669035 0.00565298 0.00457232 0.00344837 0.00231827 0.00121915 0.000151011 -0.000886148 -0.00189233 -0.00286752 -0.00381174 -0.00472497 -0.0055836 -0.00636397 -0.00706611 -0.00768999 -0.00823564 -0.00870304 -0.00909219 -0.0094031 -0.00963566 -0.00978978 -0.00986546 -0.00986268 -0.00978146 -0.0096218 -0.00938369 -0.00906713 -0.00869409 -0.00828653 -0.00784443 -0.00736782 -0.00685668 -0.00631101 -0.00573082 -0.0051161 -0.0045034 -0.00392925 -0.00339367 -0.00289664 -0.00243816 -0.00201825 -0.00163689 -0.00129409 -0.000990787 -0.000727925 -0.000505504 -0.000323522 -0.000181981 -8.08806e-05 -2.02201e-05 0 0 -2.25885e-05 -9.0354e-05 -0.000203297 -0.000361416 -0.000564713 -0.000813186 -0.00110684 -0.00144566 -0.00182751 -0.00225019 -0.00271373 -0.00321812 -0.00376335 -0.00434943 -0.00497636 -0.00564414 -0.00631101 -0.0069352 -0.00751673 -0.00805559 -0.00855178 -0.0090053 -0.00941615 -0.00978433 -0.0100848 -0.0102927 -0.0104079 -0.0104304 -0.0103602 -0.0101974 -0.00994187 -0.00959369 -0.00915352 -0.00862202 -0.00799919 -0.00728503 -0.00647954 -0.00558272 -0.00459457 -0.00351509 -0.0023727 -0.00119584 1.55035e-05 0.00126133 0.00254163 0.00385641 0.00520568 0.00658942 0.00796341 0.0092834 0.0105494 0.0117614 0.0129195 0.0140235 0.0150736 0.0160696 0.0169781 0.0177655 0.0184318 0.0189769 0.0194008 0.0197037 0.0198854 0.0199459 0.0198854 0.0197037 0.0194008 0.0189769 0.0184318 0.0177655 0.0169781 0.0160696 0.0150736 0.0140235 0.0129195 0.0117614 0.0105494 0.00928341 0.00796341 0.00658942 0.00520568 0.00385641 0.00254163 0.00126133 1.55038e-05 -0.00119584 -0.0023727 -0.00351509 -0.00459457 -0.00558272 -0.00647954 -0.00728503 -0.00799919 -0.00862202 -0.00915352 -0.0095937 -0.00994187 -0.0101974 -0.0103602 -0.0104304 -0.0104079 -0.0102927 -0.0100848 -0.00978434 -0.00941616 -0.0090053 -0.00855178 -0.00805559 -0.00751674 -0.00693521 -0.00631101 -0.00564414 -0.00497636 -0.00434943 -0.00376335 -0.00321812 -0.00271373 -0.0022502 -0.00182751 -0.00144567 -0.00110684 -0.000813187 -0.000564713 -0.000361417 -0.000203297 -9.03541e-05 -2.25885e-05 0 0 -2.49239e-05 -9.96956e-05 -0.000224315 -0.000398783 -0.000623098 -0.000897261 -0.00122127 -0.00159513 -0.00201515 -0.00247763 -0.00298258 -0.00352999 -0.00411987 -0.00475222 -0.00542703 -0.00614431 -0.00685667 -0.00751673 -0.00812449 -0.00867995 -0.0091831 -0.00963395 -0.0100325 -0.0103787 -0.0106444 -0.0108013 -0.0108493 -0.0107885 -0.0106188 -0.0103404 -0.00995306 -0.00945692 -0.0088534 -0.00814395 -0.00732857 -0.00640725 -0.00538001 -0.00424683 -0.00300772 -0.00166268 -0.000245703 0.00120921 0.00270207 0.00423287 0.0058016 0.00740828 0.00905289 0.0107355 0.0124036 0.0140049 0.0155394 0.0170072 0.0184081 0.0197423 0.0210096 0.0222102 0.0233044 0.0242527 0.0250551 0.0257116 0.0262223 0.026587 0.0268058 0.0268788 0.0268058 0.026587 0.0262223 0.0257116 0.0250551 0.0242527 0.0233044 0.0222102 0.0210096 0.0197423 0.0184081 0.0170072 0.0155394 0.0140049 0.0124036 0.0107355 0.0090529 0.00740828 0.0058016 0.00423287 0.00270207 0.00120921 -0.000245703 -0.00166268 -0.00300772 -0.00424683 -0.00538001 -0.00640725 -0.00732857 -0.00814395 -0.0088534 -0.00945692 -0.00995306 -0.0103404 -0.0106188 -0.0107885 -0.0108493 -0.0108013 -0.0106444 -0.0103788 -0.0100325 -0.00963395 -0.0091831 -0.00867995 -0.00812449 -0.00751674 -0.00685668 -0.00614431 -0.00542703 -0.00475222 -0.00411987 -0.00352999 -0.00298258 -0.00247763 -0.00201515 -0.00159513 -0.00122127 -0.000897262 -0.000623098 -0.000398783 -0.000224315 -9.96957e-05 -2.49239e-05 0 0 -2.72263e-05 -0.000108905 -0.000245037 -0.000435621 -0.000680658 -0.000980147 -0.00133409 -0.00