<?xml version="1.0"?> 
<VTKFile type="StructuredGrid" version="0.1"> 
<StructuredGrid WholeExtent="0 128 0 128 0 0"> 
<Piece Extent="0 128 0 128 0 0"> 
<PointData>
<DataArray type="Float32" Name="u" format="ascii" NumberOfComponents="1"> 
0 0 0 0 0 0 0 0 0 0 0 0 0 0 0 0 0 0 0 0 0 0 0 0 0 0 0 0 0 0 0 0 0 0 0 0 0 0 0 0 0 0 0 0 0 0 0 0 0 0 0 0 0 0 0 0 0 0 0 0 0 0 0 0 0 0 0 0 0 0 0 0 0 0 0 0 0 0 0 0 0 0 0 0 0 0 0 0 0 0 0 0 0 0 0 0 0 0 0 0 0 0 0 0 0 0 0 0 0 0 0 0 0 0 0 0 0 0 0 0 0 0 0 0 0 0 0 0 0 0 6.01e-08 2.404e-07 5.409e-07 9.616e-07 1.5025e-06 2.1636e-06 2.9449e-06 3.8464e-06 4.89517e-06 6.11828e-06 7.51574e-06 9.08754e-06 1.08337e-05 1.27542e-05 1.4849e-05 1.71182e-05 1.9513e-05 2.19848e-05 2.45335e-05 2.71592e-05 2.98619e-05 3.26415e-05 3.54981e-05 3.84316e-05 4.13905e-05 4.43231e-05 4.72295e-05 5.01097e-05 5.29636e-05 5.57912e-05 5.85927e-05 6.13678e-05 6.4086e-05 6.67165e-05 6.92592e-05 7.17142e-05 7.40814e-05 7.6361e-05 7.85528e-05 8.06568e-05 8.26604e-05 8.45505e-05 8.63273e-05 8.79906e-05 8.95406e-05 9.09772e-05 9.23005e-05 9.35103e-05 9.46062e-05 9.55875e-05 9.64541e-05 9.72062e-05 9.78437e-05 9.83666e-05 9.87748e-05 9.90685e-05 9.92536e-05 9.93361e-05 9.93161e-05 9.91935e-05 9.89683e-05 9.86406e-05 9.82103e-05 9.76774e-05 9.70505e-05 9.63379e-05 9.55397e-05 9.4656e-05 9.36866e-05 9.26316e-05 9.1491e-05 9.02648e-05 8.8962e-05 8.75918e-05 8.61542e-05 8.46491e-05 8.30766e-05 8.14367e-05 7.97293e-05 7.79544e-05 7.61224e-05 7.42433e-05 7.23172e-05 7.03441e-05 6.8324e-05 6.62569e-05 6.41428e-05 6.19817e-05 5.97872e-05 5.7573e-05 5.5339e-05 5.30853e-05 5.08118e-05 4.85186e-05 4.62057e-05 4.3873e-05 4.15407e-05 3.92289e-05 3.69377e-05 3.4667e-05 3.24169e-05 3.01873e-05 2.79782e-05 2.57897e-05 2.36503e-05 2.15886e-05 1.96046e-05 1.76982e-05 1.58696e-05 1.41186e-05 1.24453e-05 1.08497e-05 9.35407e-06 7.98084e-06 6.72999e-06 5.6015e-06 4.59539e-06 3.71164e-06 2.95027e-06 2.31127e-06 1.76957e-06 1.30009e-06 9.02839e-07 5.77817e-07 3.25022e-07 1.44454e-07 3.61136e-08 0 0 2.404e-07 9.616e-07 2.1636e-06 3.8464e-06 6.01e-06 8.6544e-06 1.17796e-05 1.53856e-05 1.95807e-05 2.44731e-05 3.0063e-05 3.63502e-05 4.33347e-05 5.10167e-05 5.9396e-05 6.84727e-05 7.8052e-05 8.79391e-05 9.81341e-05 0.000108637 0.000119448 0.000130566 0.000141992 0.000153726 0.000165562 0.000177293 0.000188918 0.000200439 0.000211854 0.000223165 0.000234371 0.000245471 0.000256344 0.000266866 0.000277037 0.000286857 0.000296326 0.000305444 0.000314211 0.000322627 0.000330641 0.000338202 0.000345309 0.000351963 0.000358163 0.000363909 0.000369202 0.000374041 0.000378425 0.00038235 0.000385817 0.000388825 0.000391375 0.000393466 0.000395099 0.000396274 0.000397014 0.000397344 0.000397264 0.000396774 0.000395873 0.000394562 0.000392841 0.00039071 0.000388202 0.000385352 0.000382159 0.000378624 0.000374746 0.000370526 0.000365964 0.000361059 0.000355848 0.000350367 0.000344617 0.000338597 0.000332307 0.000325747 0.000318917 0.000311818 0.000304489 0.000296973 0.000289269 0.000281376 0.000273296 0.000265028 0.000256571 0.000247927 0.000239149 0.000230292 0.000221356 0.000212341 0.000203247 0.000194074 0.000184823 0.000175492 0.000166163 0.000156916 0.000147751 0.000138668 0.000129668 0.000120749 0.000111913 0.000103159 9.46014e-05 8.63545e-05 7.84184e-05 7.0793e-05 6.34783e-05 5.64743e-05 4.97811e-05 4.33986e-05 3.74163e-05 3.19234e-05 2.69199e-05 2.2406e-05 1.83816e-05 1.48466e-05 1.18011e-05 9.24508e-06 7.07826e-06 5.20036e-06 3.61136e-06 2.31127e-06 1.30009e-06 5.77817e-07 1.44454e-07 0 0 5.409e-07 2.1636e-06 4.8681e-06 8.6544e-06 1.35225e-05 1.94724e-05 2.65041e-05 3.46176e-05 4.40565e-05 5.50646e-05 6.76417e-05 8.17879e-05 9.75032e-05 0.000114788 0.000133641 0.000154064 0.000175617 0.000197863 0.000220802 0.000244433 0.000268757 0.000293773 0.000319483 0.000345884 0.000372514 0.000398908 0.000425066 0.000450987 0.000476672 0.000502121 0.000527334 0.00055231 0.000576774 0.000600448 0.000623333 0.000645427 0.000666733 0.000687249 0.000706975 0.000725912 0.000743943 0.000760954 0.000776945 0.000791916 0.000805866 0.000818795 0.000830704 0.000841593 0.000851456 0.000860287 0.000868087 0.000874856 0.000880593 0.000885299 0.000888973 0.000891617 0.000893282 0.000894025 0.000893845 0.000892741 0.000890715 0.000887765 0.000883892 0.000879097 0.000873454 0.000867041 0.000859858 0.000851904 0.000843179 0.000833684 0.000823419 0.000812383 0.000800658 0.000788327 0.000775388 0.000761842 0.00074769 0.00073293 0.000717563 0.00070159 0.000685101 0.000668189 0.000650855 0.000633097 0.000614916 0.000596312 0.000577285 0.000557835 0.000538085 0.000518157 0.000498051 0.000477768 0.000457306 0.000436668 0.000415851 0.000394857 0.000373866 0.00035306 0.000332439 0.000312003 0.000291752 0.000271686 0.000251804 0.000232108 0.000212853 0.000194298 0.000176441 0.000159284 0.000142826 0.000127067 0.000112008 9.76469e-05 8.41866e-05 7.18276e-05 6.05699e-05 5.04135e-05 4.13585e-05 3.34048e-05 2.65524e-05 2.08014e-05 1.59261e-05 1.17008e-05 8.12555e-06 5.20036e-06 2.9252e-06 1.30009e-06 3.25022e-07 0 0 9.616e-07 3.8464e-06 8.6544e-06 1.53856e-05 2.404e-05 3.46176e-05 4.71184e-05 6.15424e-05 7.83227e-05 9.78925e-05 0.000120252 0.000145401 0.000173339 0.000204067 0.000237584 0.000273891 0.000312208 0.000351757 0.000392536 0.000434548 0.00047779 0.000522264 0.000567969 0.000614906 0.000662248 0.00070917 0.000755672 0.000801755 0.000847417 0.00089266 0.000937482 0.000981885 0.00102538 0.00106746 0.00110815 0.00114743 0.0011853 0.00122178 0.00125684 0.00129051 0.00132257 0.00135281 0.00138124 0.00140785 0.00143265 0.00145564 0.00147681 0.00149617 0.0015137 0.0015294 0.00154327 0.0015553 0.0015655 0.00157386 0.0015804 0.0015851 0.00158806 0.00158938 0.00158906 0.0015871 0.00158349 0.00157825 0.00157136 0.00156284 0.00155281 0.00154141 0.00152864 0.0015145 0.00149899 0.00148211 0.00146386 0.00144424 0.00142339 0.00140147 0.00137847 0.00135439 0.00132923 0.00130299 0.00127567 0.00124727 0.00121796 0.00118789 0.00115708 0.00112551 0.00109318 0.00106011 0.00102628 0.000991707 0.000956596 0.000921168 0.000885424 0.000849365 0.000812989 0.000776298 0.000739291 0.000701968 0.000664651 0.000627663 0.000591003 0.000554672 0.00051867 0.000482997 0.000447652 0.000412636 0.000378405 0.000345418 0.000313673 0.000283172 0.000253913 0.000225897 0.000199125 0.000173595 0.000149665 0.000127693 0.00010768 8.9624e-05 7.35262e-05 5.93863e-05 4.72043e-05 3.69803e-05 2.8313e-05 2.08014e-05 1.44454e-05 9.24508e-06 5.20036e-06 2.31127e-06 5.77817e-07 0 0 1.5025e-06 6.01e-06 1.35225e-05 2.404e-05 3.75625e-05 5.409e-05 7.36225e-05 9.616e-05 0.000122379 0.000152957 0.000187894 0.000227189 0.000270842 0.000318854 0.000371225 0.000427954 0.000487825 0.00054962 0.000613338 0.000678981 0.000746547 0.000816037 0.000887452 0.00096079 0.00103476 0.00110808 0.00118074 0.00125274 0.00132409 0.00139478 0.00146482 0.0015342 0.00160215 0.00166791 0.00173148 0.00179285 0.00185204 0.00190902 0.00196382 0.00201642 0.00206651 0.00211376 0.00215818 0.00219977 0.00223852 0.00227443 0.00230751 0.00233776 0.00236516 0.00238969 0.00241135 0.00243016 0.00244609 0.00245916 0.00246937 0.00247671 0.00248134 0.0024834 0.0024829 0.00247984 0.00247421 0.00246601 0.00245526 0.00244194 0.00242626 0.00240845 0.00238849 0.0023664 0.00234216 0.00231579 0.00228727 0.00225662 0.00222405 0.0021898 0.00215386 0.00211623 0.00207692 0.00203592 0.00199323 0.00194886 0.00190306 0.00185608 0.00180793 0.0017586 0.0017081 0.00165642 0.00160357 0.00154954 0.00149468 0.00143932 0.00138348 0.00132713 0.0012703 0.00121297 0.00115514 0.00109682 0.00103852 0.000980723 0.000923442 0.000866675 0.000810422 0.000754682 0.000699456 0.000644743 0.000591258 0.000539716 0.000490115 0.000442456 0.000396739 0.000352965 0.000311132 0.000271242 0.000233852 0.000199521 0.00016825 0.000140038 0.000114885 9.27911e-05 7.37568e-05 5.77817e-05 4.42391e-05 3.25022e-05 2.2571e-05 1.44454e-05 8.12555e-06 3.61136e-06 9.02839e-07 0 0 2.1636e-06 8.6544e-06 1.94724e-05 3.46176e-05 5.409e-05 7.78896e-05 0.000106016 0.00013847 0.000176226 0.000220258 0.000270567 0.000327152 0.000390013 0.00045915 0.000534564 0.000616254 0.000702468 0.000791452 0.000883207 0.000977732 0.00107503 0.00117509 0.00127793 0.00138354 0.00149006 0.00159563 0.00170026 0.00180395 0.00190669 0.00200848 0.00210934 0.00220924 0.0023071 0.00240179 0.00249333 0.00258171 0.00266693 0.00274899 0.0028279 0.00290365 0.00297577 0.00304382 0.00310778 0.00316766 0.00322346 0.00327518 0.00332282 0.00336637 0.00340582 0.00344115 0.00347235 0.00349942 0.00352237 0.0035412 0.00355589 0.00356647 0.00357313 0.0035761 0.00357538 0.00357097 0.00356286 0.00355106 0.00353557 0.00351639 0.00349382 0.00346816 0.00343943 0.00340761 0.00337272 0.00333474 0.00329368 0.00324953 0.00320263 0.00315331 0.00310155 0.00304737 0.00299076 0.00293172 0.00287025 0.00280636 0.0027404 0.00267276 0.00260342 0.00253239 0.00245966 0.00238525 0.00230914 0.00223134 0.00215234 0.00207263 0.0019922 0.00191107 0.00182923 0.00174667 0.0016634 0.00157943 0.00149546 0.00141224 0.00132976 0.00124801 0.00116701 0.00108674 0.00100722 0.00092843 0.000851412 0.00077719 0.000705765 0.000637137 0.000571305 0.000508269 0.00044803 0.000390588 0.000336746 0.00028731 0.000242279 0.000201654 0.000165434 0.000133619 0.00010621 8.32057e-05 6.37044e-05 4.68032e-05 3.25022e-05 2.08014e-05 1.17008e-05 5.20036e-06 1.30009e-06 0 0 2.9449e-06 1.17796e-05 2.65041e-05 4.71184e-05 7.36225e-05 0.000106016 0.0001443 0.000188474 0.000239863 0.000299796 0.000368271 0.00044529 0.000530851 0.000624954 0.000727601 0.000838791 0.000956137 0.00107725 0.00120214 0.0013308 0.00146323 0.00159943 0.00173941 0.00188315 0.00202813 0.00217183 0.00231425 0.00245537 0.00259522 0.00273377 0.00287104 0.00300702 0.00314021 0.00326911 0.0033937 0.00351399 0.00362999 0.00374169 0.00384909 0.00395218 0.00405036 0.00414297 0.00423004 0.00431154 0.00438749 0.00445789 0.00452272 0.00458201 0.0046357 0.00468379 0.00472625 0.0047631 0.00479434 0.00481996 0.00483997 0.00485436 0.00486343 0.00486747 0.00486649 0.00486048 0.00484945 0.00483339 0.0048123 0.00478619 0.00475547 0.00472056 0.00468145 0.00463814 0.00459064 0.00453895 0.00448306 0.00442297 0.00435914 0.004292 0.00422156 0.00414781 0.00407075 0.0039904 0.00390673 0.00381977 0.00373 0.00363792 0.00354354 0.00344686 0.00334788 0.00324659 0.003143 0.0030371 0.00292957 0.00282108 0.00271161 0.00260118 0.00248978 0.00237741 0.00226408 0.00214978 0.00203549 0.00192222 0.00180995 0.00169868 0.00158843 0.00147918 0.00137093 0.0012637 0.00115887 0.00105784 0.000960625 0.000867214 0.000777609 0.000691811 0.000609819 0.000531633 0.000458349 0.000391061 0.000329769 0.000274474 0.000225174 0.000181871 0.000144563 0.000113252 8.67087e-05 6.37044e-05 4.42391e-05 2.8313e-05 1.59261e-05 7.07826e-06 1.76957e-06 0 0 3.8464e-06 1.53856e-05 3.46176e-05 6.15424e-05 9.616e-05 0.00013847 0.000188474 0.000246169 0.000313291 0.00039157 0.000481007 0.000581603 0.000693356 0.000816267 0.000950336 0.00109556 0.00124883 0.00140703 0.00157015 0.00173819 0.00191116 0.00208906 0.00227188 0.00245962 0.00264899 0.00283668 0.00302269 0.00320702 0.00338967 0.00357064 0.00374993 0.00392754 0.0041015 0.00426985 0.00443259 0.00458971 0.00474121 0.0048871 0.00502738 0.00516204 0.00529026 0.00541123 0.00552494 0.0056314 0.0057306 0.00582254 0.00590723 0.00598466 0.0060548 0.0061176 0.00617307 0.0062212 0.006262 0.00629546 0.00632159 0.00634038 0.00635223 0.00635751 0.00635623 0.00634838 0.00633397 0.006313 0.00628546 0.00625135 0.00621123 0.00616563 0.00611454 0.00605798 0.00599594 0.00592842 0.00585542 0.00577694 0.00569357 0.00560588 0.00551387 0.00541755 0.0053169 0.00521195 0.00510267 0.00498908 0.00487183 0.00475157 0.0046283 0.00450202 0.00437274 0.00424044 0.00410514 0.00396683 0.00382638 0.00368467 0.0035417 0.00339746 0.00325196 0.00310519 0.00295716 0.00280787 0.0026586 0.00251065 0.00236401 0.00221869 0.00207468 0.00193199 0.00179061 0.00165054 0.00151362 0.00138167 0.00125469 0.00113269 0.00101565 0.00090359 0.000796498 0.000694378 0.00059866 0.000510774 0.000430719 0.000358496 0.000294105 0.000237545 0.000188817 0.000147921 0.000113252 8.32057e-05 5.77817e-05 3.69803e-05 2.08014e-05 9.24508e-06 2.31127e-06 0 0 4.89786e-06 1.95914e-05 4.40808e-05 7.83658e-05 0.000122447 0.000176323 0.000239995 0.000313463 0.000398869 0.000498355 0.000611921 0.000739567 0.000881293 0.0010371 0.00120698 0.00139095 0.00158506 0.00178537 0.00199187 0.00220458 0.00242349 0.00264861 0.00287992 0.00311743 0.00335698 0.00359441 0.00382972 0.0040629 0.00429395 0.00452288 0.00474969 0.00497437 0.00519444 0.00540742 0.0056133 0.00581209 0.00600379 0.00618839 0.00636589 0.0065363 0.00669858 0.00685167 0.0069956 0.00713035 0.00725592 0.00737232 0.00747955 0.0075776 0.00766642 0.00774596 0.00781622 0.0078772 0.00792891 0.00797133 0.00800447 0.00802833 0.0080434 0.00805015 0.0080486 0.00803874 0.00802056 0.00799408 0.00795928 0.00791618 0.00786545 0.00780778 0.00774318 0.00767163 0.00759315 0.00750772 0.00741536 0.00731606 0.00721056 0.00709959 0.00698316 0.00686126 0.0067339 0.00660107 0.00646277 0.00631901 0.00617061 0.0060184 0.00586239 0.00570257 0.00553895 0.00537151 0.00520027 0.00502522 0.00484747 0.00466812 0.00448718 0.00430463 0.00412049 0.00393475 0.00374742 0.00355848 0.00336958 0.00318234 0.00299675 0.00281283 0.00263057 0.00244996 0.00227102 0.00209373 0.00192042 0.00175336 0.00159258 0.00143807 0.00128982 0.00114785 0.00101214 0.000882703 0.000761344 0.000649874 0.000548294 0.000456605 0.000374805 0.000302894 0.000240874 0.000188743 0.000144506 0.000106168 7.37278e-05 4.71858e-05 2.6542e-05 1.17964e-05 2.94911e-06 0 0 6.12905e-06 2.45162e-05 5.51615e-05 9.80649e-05 0.000153226 0.000220646 0.000300324 0.000392259 0.000498958 0.000622924 0.000764157 0.000922657 0.00109843 0.00129146 0.00150176 0.00172933 0.00196932 0.00221687 0.00247199 0.00273467 0.00300492 0.00328273 0.00356811 0.00386105 0.00415647 0.00444927 0.00473945 0.00502702 0.00531196 0.00559429 0.005874 0.00615109 0.00642251 0.0066852 0.00693916 0.0071844 0.00742091 0.00764869 0.00786774 0.00807807 0.00827838 0.00846739 0.00864509 0.0088115 0.00896659 0.00911039 0.00924288 0.00936407 0.00947388 0.00957225 0.00965916 0.00973462 0.00979864 0.0098512 0.00989232 0.00992198 0.00994079 0.00994933 0.0099476 0.00993561 0.00991335 0.00988082 0.00983803 0.00978497 0.00972249 0.00965144 0.0095718 0.00948359 0.00938679 0.00928142 0.00916747 0.00904495 0.00891476 0.00877781 0.0086341 0.00848364 0.00832643 0.00816245 0.00799173 0.00781425 0.00763104 0.00744313 0.00725052 0.00705321 0.0068512 0.00664449 0.00643309 0.00621698 0.00599754 0.00577614 0.00555276 0.00532742 0.00510011 0.00487084 0.00463959 0.00440638 0.0041732 0.00394207 0.00371297 0.0034859 0.00326088 0.00303789 0.00281695 0.00259804 0.00238399 0.00217761 0.0019789 0.00178787 0.00160451 0.00142883 0.00126082 0.00110049 0.000950064 0.000811788 0.000685661 0.000571682 0.000469851 0.000380169 0.000302634 0.000237248 0.000181643 0.000133452 9.26751e-05 5.9312e-05 3.3363e-05 1.4828e-05 3.707e-06 0 0 7.53997e-06 3.01599e-05 6.78598e-05 0.00012064 0.000188499 0.000271439 0.000369459 0.000482558 0.000613558 0.000765277 0.000937716 0.00113087 0.00134475 0.00157935 0.00183467 0.00211071 0.00240161 0.00270154 0.00301048 0.00332845 0.00365543 0.00399143 0.00433645 0.00469048 0.00504745 0.00540125 0.0057519 0.00609938 0.0064437 0.00678486 0.00712286 0.0074577 0.0077857 0.00810319 0.00841016 0.00870663 0.00899258 0.00926801 0.00953294 0.00978735 0.0100297 0.0102584 0.0104734 0.0106748 0.0108626 0.0110367 0.0111972 0.0113441 0.0114772 0.0115965 0.0117019 0.0117935 0.0118712 0.0119351 0.0119851 0.0120213 0.0120444 0.012055 0.0120532 0.012039 0.0120123 0.0119732 0.0119217 0.0118577 0.0117824 0.0116966 0.0116004 0.0114938 0.0113769 0.0112495 0.0111118 0.0109636 0.0108061 0.0106405 0.0104667 0.0102847 0.0100945 0.00989611 0.00968954 0.00947479 0.00925311 0.00902573 0.00879268 0.00855393 0.00830951 0.00805939 0.0078036 0.00754211 0.0072766 0.00700872 0.00673846 0.00646583 0.00619082 0.00591344 0.00563369 0.00535157 0.00506948 0.00478984 0.00451265 0.00423791 0.00396562 0.00369578 0.00342839 0.00316345 0.00290433 0.0026544 0.00241365 0.00218209 0.00195972 0.00174654 0.00154254 0.00134773 0.00116482 0.000996516 0.000842819 0.000703729 0.000579245 0.000469369 0.000374099 0.000293436 0.000224662 0.000165058 0.000114624 7.33591e-05 4.12645e-05 1.83398e-05 4.58494e-06 0 0 9.13062e-06 3.65225e-05 8.21756e-05 0.00014609 0.000228266 0.000328702 0.0004474 0.00058436 0.000742668 0.000925414 0.0011326 0.00136422 0.00162028 0.00190077 0.00220571 0.00253508 0.00288194 0.00323937 0.00360736 0.00398592 0.00437503 0.0047747 0.00518493 0.00560572 0.00602992 0.00645036 0.00686705 0.00727999 0.00768917 0.0080946 0.00849627 0.0088942 0.00928402 0.00966139 0.0100263 0.0103788 0.0107188 0.0110464 0.0113615 0.0116641 0.0119525 0.0122246 0.0124806 0.0127204 0.012944 0.0131514 0.0133426 0.0135176 0.0136763 0.0138186 0.0139444 0.0140537 0.0141466 0.014223 0.0142829 0.0143264 0.0143542 0.0143673 0.0143655 0.0143489 0.0143175 0.0142713 0.0142103 0.0141345 0.0140451 0.0139432 0.013829 0.0137024 0.0135634 0.013412 0.0132482 0.013072 0.0128847 0.0126877 0.0124809 0.0122644 0.0120381 0.011802 0.0115562 0.0113007 0.0110368 0.0107662 0.0104889 0.0102047 0.00991386 0.00961621 0.00931179 0.00900061 0.00868465 0.00836586 0.00804426 0.00771985 0.00739262 0.00706257 0.00672971 0.00639404 0.0060584 0.00572566 0.00539581 0.00506886 0.0047448 0.00442363 0.00410536 0.00378998 0.00348146 0.00318374 0.00289683 0.00262073 0.00235545 0.00210097 0.0018573 0.00162444 0.00140561 0.00120406 0.00101977 0.000852744 0.000702986 0.000570494 0.000455268 0.000357308 0.000273564 0.000200986 0.000139573 8.9327e-05 5.02464e-05 2.23317e-05 5.58294e-06 0 0 1.0901e-05 4.3604e-05 9.8109e-05 0.000174416 0.000272525 0.000392436 0.000534149 0.000697664 0.00088629 0.00110334 0.0013488 0.00162269 0.001925 0.00225572 0.00261487 0.00300244 0.00341031 0.00383037 0.00426263 0.00470708 0.00516371 0.00563254 0.00611356 0.00660677 0.00710388 0.00759659 0.00808491 0.00856884 0.00904836 0.0095235 0.00999424 0.0104606 0.0109175 0.0113598 0.0117876 0.0122008 0.0125996 0.0129837 0.0133533 0.0137084 0.0140468 0.0143662 0.0146666 0.0149481 0.0152107 0.0154543 0.015679 0.0158847 0.0160713 0.0162387 0.0163867 0.0165154 0.0166248 0.0167149 0.0167857 0.0168371 0.0168703 0.016886 0.0168844 0.0168653 0.0168289 0.0167751 0.0167038 0.0166152 0.0165106 0.0163914 0.0162576 0.0161093 0.0159464 0.0157689 0.0155768 0.0153702 0.0151505 0.0149194 0.0146768 0.0144228 0.0141572 0.0138802 0.0135918 0.0132918 0.0129822 0.0126646 0.0123391 0.0120056 0.0116643 0.0113149 0.0109577 0.0105925 0.0102217 0.00984757 0.00947017 0.00908949 0.0087055 0.00831823 0.00792766 0.0075338 0.00713998 0.00674953 0.00636245 0.00597874 0.0055984 0.00522144 0.00484784 0.00447762 0.00411536 0.00376563 0.00342844 0.00310379 0.00279169 0.00249212 0.00220509 0.0019306 0.00167245 0.00143441 0.00121651 0.00101873 0.000841074 0.000683545 0.000546141 0.000428863 0.000328348 0.000241235 0.000167524 0.000107216 6.03088e-05 2.68039e-05 6.70098e-06 0 0 1.28511e-05 5.14044e-05 0.00011566 0.000205618 0.000321278 0.00046264 0.000629704 0.00082247 0.00104442 0.00129904 0.00158633 0.00190629 0.00225891 0.0026442 0.00306216 0.00351279 0.00398671 0.00447454 0.00497628 0.00549193 0.00602149 0.00656496 0.00712234 0.00769363 0.00826933 0.00883995 0.00940548 0.00996593 0.0105213 0.0110716 0.0116168 0.0121569 0.012686 0.0131984 0.013694 0.0141728 0.0146349 0.0150801 0.0155086 0.0159202 0.0163125 0.016683 0.0170315 0.0173581 0.0176627 0.0179455 0.0182064 0.0184454 0.0186622 0.0188566 0.0190287 0.0191784 0.0193058 0.0194108 0.0194934 0.0195536 0.0195926 0.0196113 0.0196099 0.0195883 0.0195465 0.0194845 0.0194023 0.0192999 0.0191789 0.019041 0.0188862 0.0187145 0.0185258 0.0183202 0.0180976 0.0178581 0.0176035 0.0173356 0.0170544 0.0167598 0.0164519 0.0161307 0.0157961 0.0154483 0.0150892 0.0147209 0.0143434 0.0139566 0.0135607 0.0131556 0.0127413 0.0123177 0.0118877 0.0114538 0.0110162 0.0105747 0.0101295 0.00968041 0.00922753 0.00877085 0.0083142 0.00786143 0.00741255 0.00696755 0.00652643 0.0060892 0.00565585 0.00522637 0.00480603 0.00440007 0.00400848 0.00363128 0.00326845 0.00291999 0.00258592 0.00226623 0.00196531 0.00168758 0.00143304 0.00120168 0.000993509 0.000808521 0.000646718 0.0005081 0.000389014 0.000285807 0.000198477 0.000127025 7.14516e-05 3.17563e-05 7.93907e-06 0 0 1.49809e-05 5.99237e-05 0.000134828 0.000239695 0.000374523 0.000539314 0.000734066 0.00095878 0.00121707 0.00151253 0.00184518 0.00221501 0.00262202 0.00306621 0.00354759 0.00406614 0.00461115 0.00517187 0.00574831 0.00634047 0.00694835 0.00757195 0.00821126 0.0088663 0.00952628 0.0101804 0.0108288 0.0114713 0.0121079 0.0127388 0.0133638 0.013983 0.0145897 0.0151773 0.0157456 0.0162947 0.0168247 0.0173355 0.0178271 0.0182995 0.0187498 0.019175 0.0195752 0.0199502 0.0203002 0.020625 0.0209248 0.0211995 0.0214489 0.0216725 0.0218706 0.0220429 0.0221896 0.0223107 0.022406 0.0224758 0.0225211 0.0225431 0.022542 0.0225177 0.0224702 0.0223995 0.0223056 0.0221885 0.0220501 0.0218922 0.0217148 0.021518 0.0213016 0.0210659 0.0208106 0.0205359 0.0202437 0.0199363 0.0196135 0.0192755 0.0189221 0.0185534 0.0181694 0.0177701 0.0173578 0.016935 0.0165016 0.0160577 0.0156032 0.0151381 0.0146625 0.0141763 0.0136827 0.0131847 0.0126823 0.0121756 0.0116645 0.0111491 0.0106293 0.0101052 0.00958107 0.00906139 0.00854613 0.0080353 0.0075289 0.00702692 0.00652936 0.00603624 0.00555349 0.00508706 0.00463695 0.00420318 0.00378572 0.00338459 0.00299979 0.00263131 0.00228422 0.00196357 0.00166936 0.0014016 0.00116029 0.000945423 0.000756999 0.000595021 0.000455563 0.0003347 0.00023243 0.000148755 8.36749e-05 3.71888e-05 9.29721e-06 0 0 1.72905e-05 6.9162e-05 0.000155614 0.000276648 0.000432262 0.000622458 0.000847234 0.00110659 0.00140422 0.00174381 0.00212535 0.00254886 0.00301433 0.00352175 0.00407114 0.00466249 0.00528362 0.00592237 0.00657873 0.00725271 0.0079443 0.00865351 0.00938034 0.0101248 0.0108747 0.011618 0.0123547 0.0130848 0.0138083 0.0145252 0.0152354 0.0159391 0.0166286 0.0172963 0.0179423 0.0185666 0.0191691 0.0197499 0.020309 0.0208463 0.0213586 0.0218424 0.0222977 0.0227245 0.0231229 0.0234928 0.0238343 0.0241472 0.0244314 0.0246864 0.0249122 0.0251088 0.0252763 0.0254146 0.0255237 0.0256036 0.0256558 0.0256815 0.0256808 0.0256537 0.0256002 0.0255203 0.0254139 0.0252812 0.0251241 0.0249448 0.0247434 0.0245198 0.0242739 0.0240059 0.0237157 0.0234033 0.0230711 0.0227215 0.0223544 0.0219698 0.0215678 0.0211484 0.0207115 0.0202572 0.0197881 0.0193071 0.018814 0.0183089 0.0177918 0.0172626 0.0167215 0.0161683 0.0156067 0.0150401 0.0144686 0.0138921 0.0133107 0.0127243 0.012133 0.0115368 0.0109406 0.0103494 0.00976319 0.00918199 0.00860579 0.0080346 0.0074684 0.00690721 0.00635771 0.0058266 0.00531386 0.0048195 0.00434352 0.00388592 0.0034467 0.00302586 0.00262916 0.00226236 0.00192548 0.0016185 0.00134142 0.00109425 0.000876985 0.000689626 0.000527995 0.000387914 0.000269385 0.000172406 9.69786e-05 4.31016e-05 1.07754e-05 0 0 1.97327e-05 7.89309e-05 0.000177595 0.000315724 0.000493318 0.000710378 0.000966903 0.00126289 0.00160208 0.00198818 0.00242119 0.00290113 0.00342798 0.00400175 0.00462244 0.00529004 0.00599089 0.00671128 0.00745123 0.00821073 0.00898979 0.0097884 0.0106066 0.0114443 0.0122881 0.0131244 0.0139533 0.0147747 0.0155887 0.0163953 0.0171944 0.0179861 0.0187618 0.0195132 0.0202402 0.0209428 0.021621 0.0222749 0.0229043 0.0235094 0.0240863 0.0246312 0.0251442 0.0256251 0.0260741 0.026491 0.026876 0.027229 0.0275495 0.0278373 0.0280922 0.0283142 0.0285034 0.0286598 0.0287834 0.0288741 0.0289334 0.0289631 0.0289629 0.028933 0.0288733 0.0287838 0.0286645 0.0285155 0.0283391 0.0281376 0.0279111 0.0276596 0.027383 0.0270814 0.0267548 0.0264031 0.0260291 0.0256354 0.025222 0.024789 0.0243363 0.0238639 0.0233718 0.0228601 0.0223317 0.0217899 0.0212344 0.0206655 0.020083 0.019487 0.0188775 0.0182544 0.0176218 0.0169836 0.0163399 0.0156906 0.0150358 0.0143754 0.0137095 0.013038 0.0123665 0.0117006 0.0110403 0.0103856 0.00973654 0.00909303 0.00845512 0.0078228 0.00720352 0.00660474 0.00602646 0.00546867 0.00493137 0.00441457 0.00391827 0.00344245 0.00299364 0.00257834 0.00219654 0.00184824 0.00153345 0.00125216 0.00100438 0.000790101 0.000604921 0.000444432 0.000308633 0.000197525 0.000111108 4.93813e-05 1.23453e-05 0 0 2.22606e-05 8.90423e-05 0.000200345 0.000356169 0.000556514 0.00080138 0.00109077 0.00142468 0.00180683 0.00224095 0.00272704 0.00326511 0.00385514 0.00449713 0.0051911 0.00593704 0.00671971 0.00752386 0.0083495 0.00919664 0.0100653 0.0109554 0.011867 0.0128 0.0137397 0.0146711 0.0155942 0.0165089 0.0174154 0.0183135 0.0192034 0.0200849 0.0209488 0.0217856 0.0225953 0.0233779 0.0241334 0.0248619 0.0255632 0.0262375 0.0268805 0.0274879 0.0280597 0.028596 0.0290966 0.0295617 0.0299913 0.0303852 0.0307431 0.0310643 0.0313491 0.0315972 0.0318087 0.0319837 0.0321221 0.0322239 0.0322908 0.0323245 0.032325 0.0322923 0.0322264 0.0321272 0.0319949 0.0318293 0.0316331 0.031409 0.031157 0.030877 0.0305691 0.0302333 0.0298694 0.0294777 0.029061 0.0286223 0.0281617 0.0276791 0.0271746 0.0266481 0.0260996 0.0255292 0.0249403 0.0243363 0.0237172 0.023083 0.0224337 0.0217694 0.0210899 0.0203954 0.0196902 0.0189789 0.0182614 0.0175377 0.0168078 0.0160717 0.0153294 0.014581 0.0138326 0.0130903 0.0123542 0.0116243 0.0109006 0.010183 0.00947167 0.00876649 0.00807572 0.00740756 0.00676203 0.00613912 0.00553883 0.00496116 0.00440612 0.0038737 0.00337119 0.00290585 0.00247769 0.00208672 0.00173293 0.00141632 0.00113689 0.000894636 0.000684956 0.000503233 0.000349467 0.000223659 0.000125808 5.59148e-05 1.39787e-05 0 0 2.4874e-05 9.94961e-05 0.000223866 0.000397984 0.00062185 0.000895465 0.00121883 0.00159194 0.00201848 0.00250213 0.0030429 0.00364079 0.00429579 0.0050079 0.00577713 0.00660347 0.00747008 0.00836011 0.00927356 0.0102104 0.0111707 0.0121544 0.0131615 0.0141921 0.0152297 0.0162582 0.0172774 0.0182875 0.0192883 0.02028 0.0212625 0.0222358 0.0231895 0.0241134 0.0250075 0.0258718 0.0267063 0.0275109 0.0282857 0.0290307 0.0297411 0.0304124 0.0310444 0.0316371 0.0321907 0.032705 0.0331801 0.0336159 0.034012 0.0343676 0.0346829 0.0349577 0.0351922 0.0353862 0.0355399 0.0356532 0.0357279 0.0357659 0.0357671 0.0357317 0.0356595 0.0355506 0.0354049 0.0352225 0.0350063 0.0347592 0.0344812 0.0341722 0.0338323 0.0334615 0.0330598 0.0326271 0.0321668 0.0316823 0.0311734 0.0306402 0.0300828 0.029501 0.028895 0.0282647 0.0276138 0.0269463 0.0262622 0.0255613 0.0248438 0.0241096 0.0233588 0.0225913 0.021812 0.0210259 0.020233 0.0194332 0.0186266 0.0178132 0.0169929 0.0161658 0.0153387 0.0145184 0.0137048 0.012898 0.0120979 0.0113046 0.0105181 0.0097383 0.00897429 0.00823504 0.00752056 0.00683084 0.00616589 0.0055257 0.00491027 0.0043196 0.00376178 0.0032449 0.00276895 0.00233394 0.00193986 0.00158672 0.00127451 0.00100323 0.000768099 0.000564317 0.000391887 0.000250808 0.000141079 6.27019e-05 1.56755e-05 0 0 2.75731e-05 0.000110292 0.000248158 0.000441169 0.000689327 0.000992631 0.00135108 0.00176468 0.00223702 0.00277172 0.00336878 0.00402818 0.00474994 0.00553406 0.00638052 0.00728934 0.00824201 0.00922003 0.0102234 0.0112521 0.0123061 0.0133855 0.0144903 0.0156203 0.016758 0.0178856 0.0190031 0.0201104 0.0212076 0.0222947 0.0233716 0.0244385 0.025484 0.0264968 0.027477 0.0284246 0.0293396 0.030222 0.0310718 0.0318889 0.0326682 0.0334046 0.0340981 0.0347486 0.0353561 0.0359208 0.0364424 0.0369211 0.0373562 0.0377471 0.0380936 0.0383958 0.0386538 0.0388674 0.0390368 0.0391619 0.0392447 0.0392871 0.0392893 0.0392511 0.0391726 0.0390538 0.0388947 0.0386953 0.0384587 0.0381881 0.0378836 0.0375451 0.0371726 0.0367661 0.0363257 0.0358513 0.0353466 0.0348152 0.0342571 0.0336723 0.0330609 0.0324227 0.0317579 0.0310663 0.0303523 0.02962 0.0288694 0.0281005 0.0273133 0.0265078 0.0256841 0.024842 0.023987 0.0231246 0.0222546 0.0213772 0.0204923 0.0195998 0.0186999 0.0177925 0.016885 0.0159849 0.0150921 0.0142066 0.0133285 0.0124577 0.0115943 0.0107382 0.00989925 0.0090872 0.00830207 0.00754385 0.00681255 0.00610817 0.0054307 0.00478015 0.00416544 0.00359549 0.00307031 0.00258989 0.00215424 0.00176336 0.00141724 0.00111588 0.000854349 0.000627685 0.000435892 0.000278971 0.000156921 6.97428e-05 1.74357e-05 0 0 3.03578e-05 0.000121431 0.00027322 0.000485724 0.000758944 0.00109288 0.00148753 0.0019429 0.00246246 0.00304972 0.00370466 0.00442728 0.0052176 0.00607559 0.00700128 0.00799465 0.0090355 0.0101036 0.011199 0.0123216 0.0134715 0.0146487 0.0158532 0.0170849 0.0183247 0.0195534 0.020771 0.0219776 0.0231731 0.0243575 0.0255309 0.0266931 0.0278321 0.0289357 0.0300037 0.0310363 0.0320335 0.0329951 0.0339214 0.0348121 0.0356618 0.0364647 0.0372209 0.0379303 0.038593 0.0392091 0.0397783 0.0403009 0.0407759 0.0412027 0.0415812 0.0419115 0.0421935 0.0424273 0.0426128 0.04275 0.0428412 0.0428883 0.0428915 0.0428506 0.0427658 0.042637 0.0424642 0.0422474 0.0419901 0.0416957 0.0413642 0.0409956 0.0405899 0.0401472 0.0396673 0.0391504 0.0386003 0.0380212 0.0374128 0.0367754 0.0361088 0.0354131 0.0346883 0.0339343 0.0331558 0.0323573 0.0315389 0.0307006 0.0298422 0.028964 0.0280658 0.0271476 0.0262154 0.025275 0.0243264 0.0233697 0.0224048 0.0214317 0.0204505 0.019461 0.0184715 0.0174898 0.0165161 0.0155503 0.0145924 0.0136424 0.0127004 0.0117662 0.0108506 0.00996402 0.00910654 0.00827814 0.00747882 0.00670858 0.00596742 0.00525534 0.00458214 0.00395762 0.00338176 0.00285458 0.00237608 0.00194624 0.00156508 0.0012326 0.000943708 0.000693336 0.000481484 0.00030815 0.000173334 7.70374e-05 1.92593e-05 0 0 3.3228e-05 0.000132912 0.000299052 0.000531649 0.000830701 0.00119621 0.00162817 0.00212659 0.0026948 0.00333612 0.00405055 0.00483809 0.00569875 0.00663252 0.0076394 0.0087194 0.00985054 0.0110109 0.0122004 0.0134191 0.0146669 0.015944 0.0172502 0.0185857 0.0199296 0.0212616 0.0225814 0.0238892 0.0251849 0.0264686 0.0277402 0.02