<?xml version="1.0"?> 
<VTKFile type="StructuredGrid" version="0.1"> 
<StructuredGrid WholeExtent="0 128 0 128 0 0"> 
<Piece Extent="0 128 0 128 0 0"> 
<PointData>
<DataArray type="Float32" Name="u" format="ascii" NumberOfComponents="1"> 
0 0 0 0 0 0 0 0 0 0 0 0 0 0 0 0 0 0 0 0 0 0 0 0 0 0 0 0 0 0 0 0 0 0 0 0 0 0 0 0 0 0 0 0 0 0 0 0 0 0 0 0 0 0 0 0 0 0 0 0 0 0 0 0 0 0 0 0 0 0 0 0 0 0 0 0 0 0 0 0 0 0 0 0 0 0 0 0 0 0 0 0 0 0 0 0 0 0 0 0 0 0 0 0 0 0 0 0 0 0 0 0 0 0 0 0 0 0 0 0 0 0 0 0 0 0 0 0 0 0 6.29486e-08 2.51794e-07 5.66538e-07 1.00718e-06 1.57372e-06 2.26615e-06 3.08448e-06 4.02871e-06 5.12576e-06 6.40256e-06 7.85911e-06 9.4954e-06 1.13114e-05 1.33072e-05 1.54828e-05 1.78381e-05 2.03187e-05 2.28702e-05 2.54926e-05 2.81859e-05 3.09501e-05 3.37852e-05 3.66912e-05 3.96681e-05 4.26605e-05 4.5613e-05 4.85255e-05 5.13981e-05 5.42308e-05 5.70236e-05 5.97764e-05 6.24894e-05 6.51332e-05 6.76787e-05 7.0126e-05 7.24749e-05 7.47257e-05 7.68781e-05 7.89323e-05 8.08881e-05 8.27386e-05 8.44764e-05 8.61016e-05 8.76142e-05 8.90142e-05 9.03015e-05 9.14763e-05 9.25384e-05 9.34935e-05 9.43472e-05 9.50995e-05 9.57504e-05 9.62998e-05 9.67479e-05 9.70945e-05 9.73398e-05 9.74927e-05 9.75623e-05 9.75487e-05 9.74519e-05 9.72719e-05 9.70086e-05 9.6662e-05 9.62322e-05 9.57256e-05 9.51486e-05 9.45013e-05 9.37835e-05 9.29954e-05 9.2137e-05 9.12081e-05 9.02089e-05 8.9142e-05 8.80101e-05 8.68134e-05 8.55516e-05 8.4225e-05 8.28334e-05 8.13768e-05 7.98553e-05 7.82716e-05 7.66282e-05 7.49253e-05 7.31629e-05 7.13409e-05 6.94593e-05 6.75181e-05 6.55174e-05 6.3466e-05 6.1373e-05 5.92382e-05 5.70617e-05 5.48436e-05 5.25837e-05 5.02821e-05 4.79388e-05 4.55751e-05 4.32123e-05 4.08504e-05 3.84894e-05 3.61292e-05 3.377e-05 3.14116e-05 2.90541e-05 2.67337e-05 2.44864e-05 2.23123e-05 2.02113e-05 1.81835e-05 1.62289e-05 1.43474e-05 1.25391e-05 1.08355e-05 9.2682e-06 7.83717e-06 6.54241e-06 5.38392e-06 4.36171e-06 3.47577e-06 2.72611e-06 2.08718e-06 1.53343e-06 1.06489e-06 6.81527e-07 3.83359e-07 1.70382e-07 4.25954e-08 0 0 2.51794e-07 1.00718e-06 2.26615e-06 4.02871e-06 6.29486e-06 9.0646e-06 1.23379e-05 1.61148e-05 2.05031e-05 2.56102e-05 3.14364e-05 3.79816e-05 4.52458e-05 5.32289e-05 6.19311e-05 7.13522e-05 8.12746e-05 9.14807e-05 0.00010197 0.000112744 0.0001238 0.000135141 0.000146765 0.000158672 0.000170642 0.000182452 0.000194102 0.000205593 0.000216923 0.000228094 0.000239106 0.000249957 0.000260533 0.000270715 0.000280504 0.0002899 0.000298903 0.000307512 0.000315729 0.000323553 0.000330954 0.000337906 0.000344406 0.000350457 0.000356057 0.000361206 0.000365905 0.000370154 0.000373974 0.000377389 0.000380398 0.000383001 0.000385199 0.000386992 0.000388378 0.000389359 0.000389971 0.000390249 0.000390195 0.000389808 0.000389087 0.000388034 0.000386648 0.000384929 0.000382902 0.000380595 0.000378005 0.000375134 0.000371982 0.000368548 0.000364832 0.000360835 0.000356568 0.000352041 0.000347253 0.000342207 0.0003369 0.000331333 0.000325507 0.000319421 0.000313086 0.000306513 0.000299701 0.000292652 0.000285363 0.000277837 0.000270072 0.00026207 0.000253864 0.000245492 0.000236953 0.000228247 0.000219374 0.000210335 0.000201128 0.000191755 0.000182301 0.000172849 0.000163402 0.000153958 0.000144517 0.00013508 0.000125646 0.000116217 0.000106935 9.79455e-05 8.9249e-05 8.08452e-05 7.2734e-05 6.49154e-05 5.73896e-05 5.01564e-05 4.3342e-05 3.70728e-05 3.13487e-05 2.61696e-05 2.15357e-05 1.74468e-05 1.39031e-05 1.09044e-05 8.3487e-06 6.13374e-06 4.25954e-06 2.72611e-06 1.53343e-06 6.81527e-07 1.70382e-07 0 0 5.66538e-07 2.26615e-06 5.09884e-06 9.0646e-06 1.41634e-05 2.03954e-05 2.77603e-05 3.62584e-05 4.61319e-05 5.76231e-05 7.0732e-05 8.54586e-05 0.000101803 0.000119765 0.000139345 0.000160542 0.000182868 0.000205831 0.000229433 0.000253673 0.000278551 0.000304067 0.000330221 0.000357013 0.000383945 0.000410517 0.00043673 0.000462583 0.000488078 0.000513212 0.000537988 0.000562404 0.000586198 0.000609108 0.000631134 0.000652275 0.000672531 0.000691903 0.00071039 0.000727993 0.000744647 0.000760288 0.000774914 0.000788528 0.000801128 0.000812714 0.000823286 0.000832845 0.000841441 0.000849125 0.000855895 0.000861753 0.000866698 0.000870731 0.000873851 0.000876058 0.000877434 0.000878061 0.000877939 0.000877067 0.000875447 0.000873077 0.000869958 0.00086609 0.00086153 0.000856338 0.000850511 0.000844052 0.000836959 0.000829233 0.000820873 0.00081188 0.000802278 0.000792091 0.00078132 0.000769965 0.000758025 0.0007455 0.000732391 0.000718698 0.000704444 0.000689654 0.000674328 0.000658466 0.000642068 0.000625133 0.000607663 0.000589657 0.000571194 0.000552357 0.000533144 0.000513556 0.000493592 0.000473253 0.000452539 0.000431449 0.000410176 0.000388911 0.000367654 0.000346404 0.000325163 0.00030393 0.000282705 0.000261487 0.000240603 0.000220377 0.00020081 0.000181902 0.000163651 0.00014606 0.000129127 0.000112852 9.75196e-05 8.34138e-05 7.05345e-05 5.88816e-05 4.84553e-05 3.92554e-05 3.12819e-05 2.4535e-05 1.87846e-05 1.38009e-05 9.58397e-06 6.13374e-06 3.45023e-06 1.53343e-06 3.83359e-07 0 0 1.00718e-06 4.02871e-06 9.0646e-06 1.61148e-05 2.51794e-05 3.62584e-05 4.93517e-05 6.44594e-05 8.20122e-05 0.000102441 0.000125746 0.000151926 0.000180983 0.000212916 0.000247724 0.000285409 0.000325099 0.000365923 0.000407881 0.000450974 0.000495201 0.000540563 0.000587059 0.00063469 0.000682568 0.000729808 0.000776408 0.00082237 0.000867693 0.000912378 0.000956423 0.00099983 0.00104213 0.00108286 0.00112202 0.0011596 0.00119561 0.00123005 0.00126292 0.00129421 0.00132382 0.00135162 0.00137763 0.00140183 0.00142423 0.00144482 0.00146362 0.00148061 0.0014959 0.00150956 0.00152159 0.00153201 0.0015408 0.00154797 0.00155351 0.00155744 0.00155988 0.001561 0.00156078 0.00155923 0.00155635 0.00155214 0.00154659 0.00153972 0.00153161 0.00152238 0.00151202 0.00150054 0.00148793 0.00147419 0.00145933 0.00144334 0.00142627 0.00140816 0.00138901 0.00136883 0.0013476 0.00132533 0.00130203 0.00127768 0.00125234 0.00122605 0.00119881 0.00117061 0.00114145 0.00111135 0.00108029 0.00104828 0.00101546 0.000981967 0.000947811 0.000912988 0.000877497 0.000841339 0.000804514 0.000767021 0.000729202 0.000691397 0.000653607 0.00061583 0.000578068 0.00054032 0.000502586 0.000464866 0.000427739 0.000391782 0.000356996 0.000323381 0.000290936 0.000259662 0.000229558 0.000200625 0.000173368 0.000148291 0.000125395 0.000104678 8.61427e-05 6.97873e-05 5.56123e-05 4.36177e-05 3.33948e-05 2.4535e-05 1.70382e-05 1.09044e-05 6.13374e-06 2.72611e-06 6.81527e-07 0 0 1.57372e-06 6.29486e-06 1.41634e-05 2.51794e-05 3.93429e-05 5.66538e-05 7.71121e-05 0.000100718 0.000128144 0.000160064 0.000196478 0.000237385 0.000282786 0.000332681 0.000387069 0.000445951 0.000507966 0.000571754 0.000637314 0.000704647 0.000773752 0.00084463 0.00091728 0.000991703 0.00106651 0.00114032 0.00121314 0.00128495 0.00135577 0.00142559 0.00149441 0.00156223 0.00162833 0.00169197 0.00175315 0.00181187 0.00186814 0.00192195 0.00197331 0.0020222 0.00206846 0.00211191 0.00215254 0.00219035 0.00222535 0.00225754 0.00228691 0.00231346 0.00233734 0.00235868 0.00237749 0.00239376 0.0024075 0.0024187 0.00242736 0.00243349 0.00243732 0.00243906 0.00243872 0.0024363 0.0024318 0.00242521 0.00241655 0.00240581 0.00239314 0.00237872 0.00236253 0.00234459 0.00232489 0.00230342 0.0022802 0.00225522 0.00222855 0.00220025 0.00217033 0.00213879 0.00210562 0.00207083 0.00203442 0.00199638 0.00195679 0.00191571 0.00187313 0.00182907 0.00178352 0.00173648 0.00168795 0.00163793 0.00158665 0.00153432 0.00148095 0.00142654 0.00137109 0.00131459 0.00125705 0.00119847 0.00113938 0.00108031 0.00102126 0.000962235 0.000903231 0.00084425 0.00078529 0.000726353 0.000668342 0.000612159 0.000557806 0.000505282 0.000454587 0.000405721 0.000358685 0.000313477 0.000270888 0.000231705 0.000195929 0.00016356 0.000134598 0.000109043 8.68942e-05 6.81527e-05 5.21794e-05 3.83359e-05 2.66221e-05 1.70382e-05 9.58397e-06 4.25954e-06 1.06489e-06 0 0 2.26615e-06 9.0646e-06 2.03954e-05 3.62584e-05 5.66538e-05 8.15814e-05 0.000111041 0.000145034 0.000184527 0.000230492 0.000282928 0.000341834 0.000407212 0.00047906 0.00055738 0.00064217 0.000731472 0.000823326 0.000917733 0.00101469 0.0011142 0.00121627 0.00132088 0.00142805 0.00153578 0.00164207 0.00174692 0.00185033 0.00195231 0.00205285 0.00215195 0.00224962 0.00234479 0.00243643 0.00252453 0.0026091 0.00269012 0.00276761 0.00284156 0.00291197 0.00297859 0.00304115 0.00309966 0.00315411 0.00320451 0.00325085 0.00329315 0.00333138 0.00336577 0.0033965 0.00342358 0.00344701 0.00346679 0.00348292 0.0034954 0.00350423 0.00350974 0.00351224 0.00351175 0.00350827 0.00350179 0.00349231 0.00347983 0.00346436 0.00344612 0.00342535 0.00340205 0.00337621 0.00334784 0.00331693 0.00328349 0.00324752 0.00320911 0.00316836 0.00312528 0.00307986 0.0030321 0.002982 0.00292956 0.00287479 0.00281778 0.00275862 0.00269731 0.00263386 0.00256827 0.00250053 0.00243065 0.00235863 0.00228478 0.00220943 0.00213258 0.00205422 0.00197437 0.00189301 0.00181016 0.0017258 0.0016407 0.00155564 0.00147061 0.00138562 0.00130065 0.00121572 0.00113082 0.00104595 0.000962412 0.00088151 0.000803241 0.000727606 0.000654606 0.000584239 0.000516506 0.000451407 0.000390078 0.000333655 0.000282138 0.000235527 0.000193821 0.000157021 0.000125128 9.81398e-05 7.51383e-05 5.52037e-05 3.83359e-05 2.4535e-05 1.38009e-05 6.13374e-06 1.53343e-06 0 0 3.08448e-06 1.23379e-05 2.77603e-05 4.93517e-05 7.71121e-05 0.000111041 0.00015114 0.000197407 0.000251162 0.000313726 0.000385096 0.000465275 0.000554261 0.000652054 0.000758656 0.000874065 0.000995614 0.00112064 0.00124914 0.00138111 0.00151655 0.00165547 0.00179787 0.00194374 0.00209037 0.00223504 0.00237775 0.00251851 0.00265731 0.00279416 0.00292905 0.00306198 0.00319153 0.00331626 0.00343617 0.00355127 0.00366156 0.00376703 0.00386768 0.00396352 0.00405419 0.00413934 0.00421898 0.0042931 0.00436169 0.00442477 0.00448234 0.00453438 0.00458118 0.00462301 0.00465987 0.00469177 0.00471869 0.00474065 0.00475763 0.00476965 0.00477714 0.00478055 0.00477989 0.00477514 0.00476632 0.00475342 0.00473644 0.00471538 0.00469055 0.00466228 0.00463056 0.00459539 0.00455678 0.00451471 0.0044692 0.00442023 0.00436796 0.0043125 0.00425385 0.00419203 0.00412702 0.00405883 0.00398746 0.00391291 0.00383531 0.00375478 0.00367134 0.00358498 0.0034957 0.0034035 0.00330839 0.00321035 0.00310984 0.00300728 0.00290267 0.00279602 0.00268733 0.0025766 0.00246382 0.002349 0.00223318 0.0021174 0.00200167 0.00188598 0.00177033 0.00165473 0.00153917 0.00142365 0.00130995 0.00119983 0.0010933 0.000990353 0.000890991 0.000795214 0.000703022 0.000614415 0.00053094 0.000454142 0.000384021 0.000320578 0.000263812 0.000213724 0.000170313 0.000133579 0.000102272 7.51383e-05 5.21794e-05 3.33948e-05 1.87846e-05 8.3487e-06 2.08718e-06 0 0 4.02871e-06 1.61148e-05 3.62584e-05 6.44594e-05 0.000100718 0.000145034 0.000197407 0.000257838 0.000328049 0.000409764 0.000502983 0.000607706 0.000723932 0.000851663 0.000990897 0.00114164 0.00130039 0.00146369 0.00163152 0.0018039 0.00198081 0.00216225 0.00234824 0.00253876 0.00273027 0.00291923 0.00310563 0.00328948 0.00347077 0.00364951 0.00382569 0.00399932 0.00416852 0.00433144 0.00448806 0.0046384 0.00478244 0.0049202 0.00505166 0.00517684 0.00529527 0.00540649 0.0055105 0.00560731 0.00569691 0.0057793 0.00585448 0.00592246 0.00598358 0.00603822 0.00608637 0.00612802 0.00616319 0.00619186 0.00621405 0.00622974 0.00623953 0.00624399 0.00624312 0.00623692 0.0062254 0.00620855 0.00618637 0.00615886 0.00612644 0.00608951 0.00604808 0.00600215 0.00595171 0.00589676 0.00583732 0.00577337 0.00570509 0.00563265 0.00555605 0.0054753 0.0053904 0.00530133 0.00520812 0.00511074 0.00500938 0.00490421 0.00479522 0.00468243 0.00456582 0.00444539 0.00432116 0.00419311 0.00406183 0.00392787 0.00379124 0.00365195 0.00350999 0.00336536 0.00321805 0.00306808 0.00291681 0.00276559 0.00261443 0.00246332 0.00231227 0.00216128 0.00201034 0.00185946 0.00171096 0.00156713 0.00142798 0.00129352 0.00116374 0.00103865 0.000918233 0.000802502 0.000693473 0.000593165 0.000501579 0.000418714 0.000344571 0.000279149 0.000222449 0.000174471 0.000133579 9.81398e-05 6.81527e-05 4.36177e-05 2.4535e-05 1.09044e-05 2.72611e-06 0 0 5.13318e-06 2.05327e-05 4.61986e-05 8.21309e-05 0.00012833 0.000184795 0.000251526 0.000328524 0.000417915 0.000521827 0.000640259 0.000773212 0.000920685 0.00108268 0.00125919 0.00145023 0.00165138 0.00185824 0.00207082 0.0022891 0.0025131 0.00274281 0.00297823 0.00321937 0.00346174 0.00370089 0.0039368 0.00416949 0.00439895 0.00462517 0.00484817 0.00506794 0.00528211 0.00548834 0.00568663 0.00587696 0.00605935 0.00623379 0.00640028 0.00655882 0.00670883 0.00684972 0.0069815 0.00710416 0.0072177 0.00732213 0.00741744 0.00750363 0.00758116 0.00765047 0.00771155 0.00776442 0.00780907 0.0078455 0.00787371 0.0078937 0.00790621 0.00791196 0.00791095 0.00790319 0.00788868 0.00786741 0.00783938 0.0078046 0.00776359 0.00771686 0.00766442 0.00760627 0.0075424 0.00747282 0.00739753 0.00731652 0.00723002 0.00713826 0.00704122 0.00693892 0.00683135 0.00671851 0.00660041 0.00647704 0.00634862 0.00621537 0.0060773 0.00593441 0.0057867 0.00563415 0.00547679 0.0053146 0.00514831 0.00497865 0.00480562 0.00462921 0.00444943 0.00426628 0.00407976 0.00388987 0.00369833 0.00350685 0.00331546 0.00312413 0.00293287 0.00274169 0.00255058 0.00235954 0.00217149 0.00198934 0.00181309 0.00164275 0.00147831 0.00131977 0.00116714 0.00102041 0.000882134 0.000754877 0.000638634 0.000533406 0.000439194 0.000355995 0.000283812 0.000222644 0.000170462 0.000125237 8.69703e-05 5.5661e-05 3.13093e-05 1.39152e-05 3.47881e-06 0 0 6.43224e-06 2.5729e-05 5.78902e-05 0.000102916 0.000160806 0.000231561 0.00031518 0.000411664 0.000523489 0.000653133 0.000800595 0.000965876 0.00114898 0.00134989 0.00156863 0.00180519 0.00205413 0.00231005 0.00257293 0.00284277 0.00311958 0.00340336 0.0036941 0.00399181 0.00429101 0.00458624 0.00487749 0.00516477 0.00544807 0.0057274 0.00600275 0.00627413 0.00653863 0.00679335 0.00703829 0.00727346 0.00749884 0.00771445 0.00792028 0.00811633 0.00830187 0.00847617 0.00863923 0.00879105 0.00893163 0.00906097 0.00917907 0.00928593 0.0093821 0.0094681 0.00954393 0.00960961 0.00966513 0.00971048 0.00974568 0.00977071 0.00978648 0.00979387 0.00979289 0.00978354 0.00976581 0.00973972 0.00970524 0.0096624 0.00961182 0.00955416 0.0094894 0.00941756 0.00933863 0.0092526 0.00915949 0.00905929 0.00895229 0.00883875 0.0087187 0.00859212 0.00845901 0.00831939 0.00817323 0.00802055 0.00786164 0.00769677 0.00752594 0.00734916 0.00716643 0.00697774 0.00678309 0.0065825 0.00637685 0.00616705 0.00595311 0.00573502 0.00551278 0.0052864 0.00505586 0.00482118 0.00458448 0.00434786 0.00411133 0.00387489 0.00363854 0.00340228 0.00316611 0.00293003 0.0026976 0.0024724 0.00225442 0.00204367 0.00184013 0.00164382 0.00145474 0.00127287 0.00110138 0.000943431 0.000799012 0.000668127 0.000550776 0.000446959 0.000356676 0.000279928 0.00021432 0.000157459 0.000109347 6.99819e-05 3.93648e-05 1.74955e-05 4.37387e-06 0 0 7.92589e-06 3.17036e-05 7.1333e-05 0.000126814 0.000198147 0.000285332 0.000388369 0.000507257 0.00064477 0.000803682 0.000983992 0.0011857 0.00140881 0.00165331 0.00191921 0.00220651 0.00250866 0.00281911 0.00313786 0.00346491 0.00380025 0.0041439 0.00449584 0.00485609 0.00521809 0.00557529 0.00592771 0.00627533 0.00661816 0.0069562 0.00728944 0.0076179 0.00793806 0.00824645 0.00854306 0.00882788 0.00910092 0.00936219 0.00961167 0.00984937 0.0100744 0.0102858 0.0104837 0.010668 0.0108387 0.0109958 0.0111394 0.0112694 0.0113864 0.0114911 0.0115835 0.0116636 0.0117314 0.0117868 0.0118299 0.0118608 0.0118803 0.0118897 0.0118889 0.011878 0.0118568 0.0118255 0.0117839 0.0117322 0.0116711 0.0116014 0.011523 0.011436 0.0113404 0.0112361 0.0111232 0.0110017 0.0108719 0.0107341 0.0105885 0.0104349 0.0102734 0.0101039 0.00992658 0.0097413 0.00954844 0.00934839 0.00914113 0.00892667 0.00870501 0.00847614 0.00824008 0.00799681 0.00774744 0.00749308 0.00723372 0.00696937 0.00670003 0.00642569 0.00614636 0.00586203 0.00557526 0.0052886 0.00500205 0.00471561 0.00442927 0.00414305 0.00385694 0.00357094 0.00328931 0.00301632 0.00275198 0.00249628 0.00224922 0.0020108 0.00178103 0.00155989 0.00135122 0.00115883 0.000982712 0.000822876 0.000679319 0.000552041 0.000441042 0.000346322 0.000265153 0.000194806 0.000135282 8.65805e-05 4.87015e-05 2.16451e-05 5.41128e-06 0 0 9.61413e-06 3.84565e-05 8.65271e-05 0.000153826 0.000240353 0.000346109 0.000471092 0.000615304 0.00078176 0.000973475 0.00119045 0.00143268 0.00170017 0.00199293 0.00231094 0.00265421 0.00301496 0.00338543 0.00376561 0.0041555 0.00455511 0.00496443 0.00538346 0.0058122 0.00624296 0.00666804 0.00708744 0.00750116 0.0079092 0.00831156 0.00870824 0.00909924 0.00948042 0.00984765 0.0102009 0.0105402 0.0108656 0.011177 0.0114744 0.0117579 0.0120264 0.0122787 0.0125149 0.012735 0.0129389 0.0131267 0.0132984 0.0134539 0.013594 0.0137195 0.0138303 0.0139264 0.0140078 0.0140745 0.0141265 0.0141639 0.0141878 0.0141995 0.0141991 0.0141865 0.0141617 0.0141247 0.0140755 0.0140141 0.0139415 0.0138586 0.0137653 0.0136617 0.0135477 0.0134234 0.0132887 0.0131437 0.0129888 0.0128244 0.0126506 0.0124673 0.0122745 0.0120722 0.0118605 0.0116393 0.011409 0.0111702 0.0109229 0.0106669 0.0104024 0.0101294 0.00984774 0.00955753 0.00926009 0.00895673 0.00864746 0.00833227 0.00801117 0.00768416 0.00735124 0.0070124 0.00667067 0.00632908 0.00598761 0.00564628 0.00530507 0.004964 0.00462307 0.00428226 0.0039466 0.0036211 0.00330576 0.00300058 0.00270556 0.00242071 0.00214601 0.00188147 0.00163164 0.00140106 0.00118973 0.000997652 0.000824821 0.00067124 0.000536909 0.000421827 0.000322961 0.000237278 0.000164776 0.000105457 5.93194e-05 2.63642e-05 6.59105e-06 0 0 1.1497e-05 4.59878e-05 0.000103473 0.000183951 0.000287424 0.00041389 0.000563351 0.000735805 0.000934457 0.00116251 0.00141997 0.00170682 0.00202308 0.00236874 0.0027438 0.00314827 0.00357303 0.00400901 0.00445618 0.00491457 0.00538415 0.00586495 0.00635695 0.00686015 0.00736564 0.00786449 0.0083567 0.00884227 0.0093212 0.00979349 0.0102591 0.0107182 0.0111657 0.0115969 0.0120119 0.0124105 0.0127929 0.0131589 0.0135086 0.013842 0.0141579 0.0144548 0.0147328 0.014992 0.0152322 0.0154536 0.015656 0.0158396 0.0160051 0.0161533 0.0162842 0.0163979 0.0164943 0.0165735 0.0166354 0.01668 0.0167088 0.0167233 0.0167234 0.016709 0.0166804 0.0166373 0.0165799 0.0165081 0.016423 0.0163257 0.0162162 0.0160945 0.0159605 0.0158143 0.0156559 0.0154853 0.015303 0.0151096 0.014905 0.0146892 0.0144623 0.0142241 0.0139749 0.0137144 0.0134434 0.0131623 0.0128712 0.01257 0.0122587 0.0119374 0.0116061 0.0112647 0.0109148 0.010558 0.0101943 0.00982372 0.00944622 0.00906182 0.00867051 0.0082723 0.00787072 0.00746929 0.00706802 0.0066669 0.00626594 0.00586514 0.00546449 0.005064 0.00466947 0.00428673 0.00391576 0.00355657 0.00320917 0.00287354 0.00254969 0.00223761 0.00194266 0.00167014 0.00142008 0.00119246 0.000987284 0.000804557 0.000644277 0.000506443 0.000387745 0.000284874 0.000197829 0.000126611 7.12185e-05 3.16527e-05 7.91317e-06 0 0 1.35744e-05 5.42975e-05 0.000122169 0.00021719 0.000339359 0.000488677 0.000665144 0.000868759 0.00110286 0.00137079 0.00167254 0.00200812 0.00237753 0.00278076 0.00321781 0.00368869 0.00418288 0.00468984 0.00520958 0.00574209 0.00628739 0.00684546 0.00741631 0.00799994 0.00858612 0.00916463 0.00973547 0.0102986 0.0108542 0.011402 0.0119422 0.0124747 0.0129939 0.0134943 0.0139759 0.0144387 0.0148827 0.0153079 0.0157142 0.0161017 0.0164688 0.0168141 0.0171375 0.0174391 0.0177187 0.0179765 0.0182124 0.0184264 0.0186194 0.0187924 0.0189454 0.0190783 0.0191911 0.0192839 0.0193566 0.0194092 0.0194435 0.019461 0.0194617 0.0194457 0.0194129 0.0193634 0.0192971 0.0192141 0.0191156 0.0190028 0.0188757 0.0187344 0.0185789 0.018409 0.0182249 0.0180266 0.0178146 0.0175897 0.0173517 0.0171007 0.0168368 0.0165598 0.0162698 0.0159669 0.0156516 0.0153246 0.014986 0.0146358 0.0142739 0.0139003 0.0135151 0.0131182 0.0127115 0.0122969 0.0118743 0.0114437 0.0110052 0.0105587 0.0101042 0.00964173 0.0091754 0.00870924 0.00824327 0.00777748 0.00731188 0.00684645 0.00638121 0.00591615 0.00545794 0.00501321 0.00458199 0.00416426 0.00376003 0.00336929 0.00299206 0.00262831 0.00228425 0.00196606 0.00167374 0.00140729 0.00116671 0.000951992 0.000763146 0.000600169 0.000459505 0.000337595 0.000234441 0.000150042 8.43988e-05 3.75106e-05 9.37765e-06 0 0 1.58464e-05 6.33855e-05 0.000142617 0.000253542 0.000396159 0.000570469 0.000776472 0.00101417 0.00128697 0.00159831 0.00194818 0.00233658 0.00276351 0.00322897 0.00373297 0.00427549 0.00484449 0.00542792 0.00602579 0.00663808 0.00726481 0.00790596 0.00856154 0.00923156 0.0099044 0.0105685 0.0112238 0.0118703 0.0125081 0.0131371 0.0137573 0.0143687 0.014965 0.0155398 0.0160931 0.0166249 0.0171351 0.0176239 0.0180911 0.0185369 0.0189593 0.0193567 0.0197289 0.0200762 0.0203983 0.0206954 0.0209674 0.0212143 0.0214372 0.021637 0.0218137 0.0219674 0.022098 0.0222056 0.02229 0.0223515 0.0223917 0.0224126 0.0224142 0.0223964 0.0223594 0.022303 0.0222272 0.0221322 0.0220192 0.0218898 0.0217439 0.0215816 0.0214027 0.0212075 0.0209957 0.0207675 0.0205235 0.0202646 0.0199907 0.0197018 0.019398 0.0190791 0.0187453 0.0183965 0.0180335 0.0176572 0.0172674 0.0168643 0.0164479 0.016018 0.0155748 0.0151182 0.0146504 0.0141734 0.0136874 0.0131922 0.012688 0.0121747 0.0116522 0.0111207 0.0105847 0.0100489 0.00951337 0.00897802 0.00844288 0.00790795 0.00737323 0.00683873 0.00631198 0.00580055 0.00530444 0.00482364 0.00435815 0.00390798 0.00347312 0.00305357 0.00265644 0.00228883 0.00195073 0.00164215 0.00136309 0.00111354 0.000893517 0.000703007 0.000538239 0.000395441 0.000274612 0.000175752 9.88603e-05 4.39379e-05 1.09845e-05 0 0 1.8313e-05 7.32518e-05 0.000164817 0.000293007 0.000457824 0.000659266 0.000897335 0.00117203 0.0014868 0.00184508 0.00224688 0.0026922 0.00318103 0.00371339 0.00428926 0.00490865 0.00555788 0.00622327 0.00690482 0.00760254 0.00831641 0.00904645 0.00979265 0.010555 0.0113205 0.012076 0.0128216 0.0135572 0.0142829 0.0149987 0.0157045 0.0164004 0.0170791 0.0177334 0.0183634 0.018969 0.0195502 0.020107 0.0206395 0.0211476 0.0216292 0.0220824 0.0225071 0.0229033 0.023271 0.0236103 0.0239211 0.0242034 0.0244583 0.0246869 0.0248892 0.0250653 0.0252151 0.0253386 0.0254358 0.0255068 0.0255535 0.0255782 0.0255808 0.0255613 0.0255196 0.025456 0.0253702 0.0252623 0.0251339 0.0249868 0.0248207 0.0246359 0.0244322 0.0242096 0.0239682 0.023708 0.0234298 0.0231345 0.022822 0.0224925 0.0221459 0.0217821 0.0214013 0.0210033 0.0205892 0.0201599 0.0197154 0.0192556 0.0187807 0.0182905 0.0177852 0.0172646 0.0167312 0.0161876 0.0156336 0.0150693 0.0144948 0.0139099 0.0133147 0.0127092 0.0120986 0.0114884 0.0108783 0.0102685 0.00965894 0.00904962 0.00844055 0.00783171 0.00723162 0.00664875 0.00608311 0.00553471 0.00500353 0.00448959 0.00399287 0.00351339 0.00305921 0.00263843 0.00225104 0.00189704 0.00157643 0.00128921 0.00103539 0.000814954 0.00062395 0.000458412 0.000318342 0.000203739 0.000114603 5.09347e-05 1.27337e-05 0 0 2.09285e-05 8.37139e-05 0.000188356 0.000334856 0.000523212 0.000753425 0.0010255 0.00133942 0.00169863 0.00210654 0.00256315 0.00306847 0.00362248 0.00422521 0.00487663 0.00557675 0.0063102 0.00706157 0.00783088 0.00861812 0.00942329 0.0102464 0.0110874 0.0119464 0.0128087 0.0136599 0.0144999 0.0153287 0.0161464 0.0169529 0.0177482 0.0185323 0.0192972 0.0200347 0.0207449 0.0214277 0.0220832 0.0227113 0.0233121 0.0238855 0.0244292 0.0249409 0.0254205 0.0258681 0.0262837 0.0266672 0.0270187 0.0273382 0.0276268 0.0278857 0.028115 0.0283147 0.0284847 0.0286251 0.0287358 0.0288168 0.0288706 0.0288993 0.0289031 0.0288818 0.0288356 0.0287644 0.0286681 0.0285469 0.0284025 0.0282368 0.0280497 0.0278413 0.0276116 0.0273605 0.027088 0.0267943 0.0264801 0.0261467 0.0257939 0.0254218 0.0250303 0.0246195 0.0241894 0.0237399 0.0232722 0.0227874 0.0222854 0.0217663 0.0212301 0.0206767 0.0201062 0.0195186 0.0189166 0.018303 0.0176779 0.0170413 0.016393 0.0157332 0.0150619 0.0143789 0.0136903 0.013002 0.012314 0.0116262 0.0109387 0.0102515 0.00956454 0.00887785 0.00820089 0.00754313 0.00690458 0.00628523 0.00568509 0.00510414 0.0045424 0.00399986 0.00348564 0.00300885 0.00256948 0.00216754 0.00180303 0.00147594 0.00118629 0.000934058 0.000715138 0.000525408 0.000364867 0.000233515 0.000131352 5.83786e-05 1.45947e-05 0 0 2.36472e-05 9.4589e-05 0.000212825 0.000378356 0.000591181 0.000851301 0.00115872 0.00151342 0.00191878 0.00237814 0.00289151 0.00345888 0.00408025 0.00475562 0.005485 0.00626838 0.00708862 0.00792854 0.00878817 0.00966749 0.0105665 0.0114852 0.0124236 0.0133817 0.0143435 0.0152928 0.0162296 0.0171541 0.018066 0.0189656 0.0198527 0.0207273 0.0215806 0.0224034 0.0231959 0.023958 0.0246896 0.0253909 0.0260618 0.0267023 0.0273098 0.0278816 0.0284177 0.0289182 0.029383 0.0298121 0.0302056 0.0305633 0.0308867 0.031177 0.0314342 0.0316582 0.0318492 0.0320071 0.0321318 0.0322234 0.0322845 0.0323176 0.0323227 0.0322998 0.032249 0.0321701 0.0320633 0.0319285 0.0317677 0.031583 0.0313744 0.0311418 0.0308854 0.030605 0.0303007 0.0299725 0.0296215 0.0292488 0.0288546 0.0284387 0.0280011 0.0275419 0.0270611 0.0265587 0.0260359 0.0254939 0.0249329 0.0243528 0.0237536 0.0231353 0.0224979 0.0218414 0.0211689 0.0204835 0.0197853 0.0190743 0.0183504 0.0176137 0.0168641 0.0161017 0.0153329 0.0145645 0.0137964 0.0130285 0.0122609 0.0114936 0.0107266 0.00995985 0.00920385 0.00846904 0.00775541 0.00706297 0.00639172 0.00574166 0.00511279 0.0045051 0.00392879 0.00339404 0.00290085 0.00244923 0.00203917 0.00167067 0.00134374 0.00105836 0.00081031 0.000595329 0.000413423 0.000264591 0.000148832 6.61477e-05 1.65369e-05 0 0 2.64693e-05 0.000105877 0.000238224 0.000423509 0.000661732 0.000952895 0.001297 0.00169403 0.00214725 0.00265989 0.00323195 0.00386343 0.00455432 0.00530464 0.00611438 0.00698353 0.00789313 0.00882418 0.00977669 0.0107507 0.0117461 0.012763 0.0138013 0.0148611 0.0159248 0.0169747 0.0180108 0.0190332 0.0200419 0.0210368 0.022018 0.0229854 0.0239292 0.0248395 0.0257163 0.0265597 0.0273695 0.0281459 0.0288887 0.0295981 0.030271 0.0309046 0.0314988 0.0320536 0.032569 0.033045 0.0334816 0.0338789 0.0342381 0.0345607 0.0348467 0.0350959 0.0353086 0.0354845 0.0356239 0.0357265 0.0357953 0.035833 0.0358397 0.0358153 0.0357598 0.0356733 0.0355557 0.035407 0.0352295 0.0350254 0.0347947 0.0345375 0.0342536 0.0339432 0.0336062 0.0332426 0.0328538 0.0324409 0.032004 0.0315431 0.0310583 0.0305494 0.0300165 0.0294596 0.0288802 0.0282797 0.027658 0.0270152 0.0263513 0.0256663 0.0249602 0.024233 0.0234881 0.022729 0.0219558 0.0211685 0.0203669 0.0195512 0.0187214 0.0178774 0.0170264 0.0161758 0.0153254 0.0144753 0.0136255 0.0127759 0.0119267 0.0110777 0.0102405 0.00942646 0.0086356 0.00786793 0.00712345 0.00640215 0.00570403 0.0050291 0.00438866 0.00379401 0.00324516 0.00274211 0.00228486 0.0018734 0.00150774 0.00118787 0.000909463 0.000668177 0.000464012 0.000296967 0.000167044 7.42419e-05 1.85605e-05 0 0 2.93946e-05 0.000117578 0.000264551 0.000470314 0.000734865 0.00105821 0.00144034 0.00188125 0.00238404 0.00295178 0.00358448 0.00428212 0.00504471 0.00587226 0.00676476 0.00772221 0.00872374 0.00974848 0.0107964 0.0118676 0.012962 0.0140796 0.0152204 0.0163845 0.0175526 0.0187056 0.0198435 0.0209663 0.022074 0.0231666 0.0242441 0.0253065 0.0263431 0.027343 0.0283062 0.0292328 0.0301228 0.0309761 0.0317928 0.0325728 0.0333129 0.0340098 0.0346636 0.0352742 0.0358416 0.0363658 0.0368469 0.0372848 0.037681 0.0380369 0.0383525 0.0386278 0.0388628 0.0390575 0.039212 0.0393261 0.039403 0.0394456 0.039454 0.0394282 0.0393681 0.0392738 0.0391453 0.0389825 0.0387879 0.038564 0.0383108 0.0380282 0.0377163 0.0373751 0.0370046 0.0366047 0.036177 0.0357228 0.0352423 0.0347352 0.0342018 0.0336419 0.0330556 0.0324428 0.0318053 0.0311445 0.0304606 0.0297535 0.0290233 0.0282698 0.0274932 0.0266934 0.0258742 0.0250396 0.0241894 0.0233237 0.0224426 0.0215459 0.0206337 0.0197061 0.0187708 0.0178358 0.016901 0.0159666 0.0150324 0.0140985 0.0131648 0.0122315 0.0113108 0.0104154 0.00954516 0.00870011 0.00788026 0.00708559 0.00631613 0.00557186 0.00486524 0.00420876 0.00360241 0.00304619 0.00254009 0.00208412 0.00167829 0.00132258 0.0010126 0.00074395 0.000516632 0.000330644 0.000185987 8.26611e-05 2.06653e-05 0 0 3.24232e-05 0.000129693 0.000291809 0.000518771 0.000810579 0.00116723 0.00158874 0.00207508 0.00262915 0.00325382 0.00394909 0.00471495 0.00555142 0.00645848 0.00743614 0.0084844 0.00958044 0.0107015 0.0118474 0.0130184 0.0142143 0.0154352 0.016681 0.0179518 0.0192269 0.0204854 0.0217275 0.0229531 0.0241623 0.0253549 0.026531 0.0276907 0.0288222 0.0299138 0.0309656 0.0319775 0.0329495 0.0338817 0.034774 0.0356264 0.0364354 0.0371973 0.0379122 0.0385801 0.0392009 0.0397747 0.0403014 0.0407811 0.0412153 0.0416055 0.0419516 0.0422538 0.0425119 0.042726 0.0428961 0.0430222 0.0431075 0.0431554 0.0431657 0.0431385 0.0430739 0.0429717 0.0428321 0.0426549 0.0424429 0.0421988 0.0419225 0.041614 0.0412734 0.0409007 0.0404958 0.0400588 0.0395912 0.0390947 0.0385693 0.0380149 0.0374316 0.0368194 0.0361783 0.0355082 0.034811 0.0340885 0.0333408 0.0325677 0.0317694 0.0309457 0.0300968 0.0292226 0.0283273 0.0274151 0.0264861 0.0255401 0.0245774 0.0235977 0.0226012 0.0215878 0.020566 0.0195446 0.0185234 0.0175024 0.0164817 0.0154612 0.014441 0.0134211 0.0124149 0.0114359 0.0104841 0.0095595 0.00866215 0.00779201 0.00694908 0.00613337 0.00535855 0.00463829 0.00397259 0.00336145 0.00280487 0.00230285 0.00185539 0.00146249 0.00111972 0.000822649 0.000571284 0.000365622 0.000205662 9.14054e-05 2.28514e-05 0 0 3.5555e-05 0.00014222 0.000319995 0.00056888 0.000888875 0.00127998 0.0017422 0.00227552 0.00288258 0.003566 0.00432579 0.00516193 0.00607443 0.0070633 0.00812853 0.00927012 0.0104632 0.0116831 0.0129296 0.0142029 0.0155029 0.0168296 0.018183 0.0195632 0.0209477 0.0223143 0.023663 0.0249938 0.026