<?xml version="1.0"?> 
<VTKFile type="StructuredGrid" version="0.1"> 
<StructuredGrid WholeExtent="0 128 0 128 0 0"> 
<Piece Extent="0 128 0 128 0 0"> 
<PointData>
<DataArray type="Float32" Name="u" format="ascii" NumberOfComponents="1"> 
0 0 0 0 0 0 0 0 0 0 0 0 0 0 0 0 0 0 0 0 0 0 0 0 0 0 0 0 0 0 0 0 0 0 0 0 0 0 0 0 0 0 0 0 0 0 0 0 0 0 0 0 0 0 0 0 0 0 0 0 0 0 0 0 0 0 0 0 0 0 0 0 0 0 0 0 0 0 0 0 0 0 0 0 0 0 0 0 0 0 0 0 0 0 0 0 0 0 0 0 0 0 0 0 0 0 0 0 0 0 0 0 0 0 0 0 0 0 0 0 0 0 0 0 0 0 0 0 0 0 6.24398e-08 2.49759e-07 5.61958e-07 9.99036e-07 1.56099e-06 2.24783e-06 3.05955e-06 3.99615e-06 5.08467e-06 6.35219e-06 7.79868e-06 9.42416e-06 1.12286e-05 1.32121e-05 1.53745e-05 1.77159e-05 2.01835e-05 2.27246e-05 2.5339e-05 2.80269e-05 3.07882e-05 3.36229e-05 3.65311e-05 3.95126e-05 4.25133e-05 4.54786e-05 4.84087e-05 5.13035e-05 5.41631e-05 5.69873e-05 5.97763e-05 6.253e-05 6.52186e-05 6.78123e-05 7.0311e-05 7.27147e-05 7.50235e-05 7.72374e-05 7.93564e-05 8.13803e-05 8.33002e-05 8.51067e-05 8.68e-05 8.83799e-05 8.98464e-05 9.11997e-05 9.24396e-05 9.35663e-05 9.4583e-05 9.54931e-05 9.62968e-05 9.69939e-05 9.75845e-05 9.80686e-05 9.84461e-05 9.87171e-05 9.88895e-05 9.89714e-05 9.89625e-05 9.88631e-05 9.8673e-05 9.83923e-05 9.8021e-05 9.75591e-05 9.70136e-05 9.63916e-05 9.56932e-05 9.49182e-05 9.40668e-05 9.3139e-05 9.21346e-05 9.10538e-05 8.99014e-05 8.86822e-05 8.73964e-05 8.60439e-05 8.46246e-05 8.31387e-05 8.15861e-05 7.99667e-05 7.8286e-05 7.65492e-05 7.47564e-05 7.29075e-05 7.10025e-05 6.90415e-05 6.70245e-05 6.49514e-05 6.28329e-05 6.06797e-05 5.84918e-05 5.62691e-05 5.40118e-05 5.17197e-05 4.9393e-05 4.70315e-05 4.46564e-05 4.22888e-05 3.99288e-05 3.75762e-05 3.52312e-05 3.28937e-05 3.05637e-05 2.82412e-05 2.59601e-05 2.37543e-05 2.16238e-05 1.95685e-05 1.75885e-05 1.56837e-05 1.38542e-05 1.21e-05 1.04499e-05 8.93248e-06 7.54789e-06 6.2961e-06 5.1771e-06 4.1909e-06 3.33749e-06 2.61687e-06 2.00354e-06 1.47199e-06 1.02222e-06 6.54218e-07 3.67998e-07 1.63555e-07 4.08886e-08 0 0 2.49759e-07 9.99036e-07 2.24783e-06 3.99615e-06 6.24398e-06 8.99133e-06 1.22382e-05 1.59846e-05 2.03387e-05 2.54087e-05 3.11947e-05 3.76966e-05 4.49145e-05 5.28483e-05 6.1498e-05 7.08637e-05 8.07342e-05 9.08983e-05 0.000101356 0.000112108 0.000123153 0.000134492 0.000146124 0.000158051 0.000170053 0.000181915 0.000193635 0.000205214 0.000216652 0.000227949 0.000239105 0.00025012 0.000260874 0.000271249 0.000281244 0.000290859 0.000300094 0.00030895 0.000317425 0.000325521 0.000333201 0.000340427 0.0003472 0.000353519 0.000359386 0.000364799 0.000369759 0.000374265 0.000378332 0.000381973 0.000385187 0.000387976 0.000390338 0.000392274 0.000393784 0.000394868 0.000395558 0.000395885 0.00039585 0.000395452 0.000394692 0.000393569 0.000392084 0.000390236 0.000388054 0.000385566 0.000382773 0.000379673 0.000376267 0.000372556 0.000368538 0.000364215 0.000359605 0.000354729 0.000349586 0.000344175 0.000338499 0.000332555 0.000326344 0.000319867 0.000313144 0.000306197 0.000299025 0.00029163 0.00028401 0.000276166 0.000268098 0.000259805 0.000251331 0.000242719 0.000233967 0.000225076 0.000216047 0.000206879 0.000197572 0.000188126 0.000178626 0.000169155 0.000159715 0.000150305 0.000140925 0.000131575 0.000122255 0.000112965 0.000103841 9.50172e-05 8.6495e-05 7.82739e-05 7.03538e-05 6.27349e-05 5.5417e-05 4.84001e-05 4.17994e-05 3.57299e-05 3.01916e-05 2.51844e-05 2.07084e-05 1.67636e-05 1.335e-05 1.04675e-05 8.01417e-06 5.88796e-06 4.08886e-06 2.61687e-06 1.47199e-06 6.54218e-07 1.63555e-07 0 0 5.61958e-07 2.24783e-06 5.05762e-06 8.99133e-06 1.40489e-05 2.02305e-05 2.75359e-05 3.59653e-05 4.57621e-05 5.71697e-05 7.01881e-05 8.48175e-05 0.000101058 0.000118909 0.000138371 0.000159443 0.000181652 0.000204521 0.000228051 0.000252242 0.000277094 0.000302606 0.00032878 0.000355614 0.00038262 0.000409308 0.000435679 0.000461732 0.000487468 0.000512886 0.000537987 0.00056277 0.000586967 0.00061031 0.000632799 0.000654433 0.000675212 0.000695137 0.000714207 0.000732423 0.000749702 0.000765961 0.0007812 0.000795419 0.000808618 0.000820797 0.000831957 0.000842096 0.000851247 0.000859438 0.000866671 0.000872945 0.000878261 0.000882617 0.000886015 0.000888454 0.000890006 0.000890742 0.000890663 0.000889768 0.000888057 0.000885531 0.000882189 0.000878032 0.000873122 0.000867525 0.000861239 0.000854264 0.000846602 0.000838251 0.000829212 0.000819484 0.000809112 0.00079814 0.000786568 0.000774395 0.000761622 0.000748248 0.000734274 0.0007197 0.000704574 0.000688943 0.000672807 0.000656167 0.000639023 0.000621374 0.00060322 0.000584562 0.000565496 0.000546117 0.000526426 0.000506422 0.000486106 0.000465478 0.000444537 0.000423283 0.000401908 0.000380599 0.000359359 0.000338186 0.000317081 0.000296043 0.000275073 0.000254171 0.000233641 0.000213789 0.000194614 0.000176116 0.000158296 0.000141153 0.000124688 0.0001089 9.40487e-05 8.03923e-05 6.7931e-05 5.66649e-05 4.65939e-05 3.77181e-05 3.00374e-05 2.35519e-05 1.80319e-05 1.32479e-05 9.19994e-06 5.88796e-06 3.31198e-06 1.47199e-06 3.67998e-07 0 0 9.99036e-07 3.99615e-06 8.99133e-06 1.59846e-05 2.49759e-05 3.59653e-05 4.89528e-05 6.39383e-05 8.13548e-05 0.000101635 0.000124779 0.000150787 0.000179658 0.000211393 0.000245992 0.000283455 0.000322937 0.000363593 0.000405425 0.000448431 0.000492611 0.000537967 0.000584497 0.000632202 0.000680213 0.000727658 0.00077454 0.000820857 0.000866609 0.000911797 0.000956421 0.00100048 0.0010435 0.001085 0.00112498 0.00116344 0.00120038 0.0012358 0.0012697 0.00130209 0.0013328 0.00136171 0.0013888 0.00141408 0.00143754 0.0014592 0.00147903 0.00149706 0.00151333 0.00152789 0.00154075 0.0015519 0.00156135 0.0015691 0.00157514 0.00157947 0.00158223 0.00158354 0.0015834 0.00158181 0.00157877 0.00157428 0.00156834 0.00156095 0.00155222 0.00154227 0.00153109 0.00151869 0.00150507 0.00149022 0.00147415 0.00145686 0.00143842 0.00141892 0.00139834 0.0013767 0.00135399 0.00133022 0.00130538 0.00127947 0.00125258 0.00122479 0.0011961 0.00116652 0.00113604 0.00110466 0.00107239 0.00103922 0.00100533 0.000970875 0.000935868 0.000900306 0.000864188 0.000827516 0.000790287 0.000752504 0.000714502 0.000676621 0.00063886 0.00060122 0.000563699 0.000526299 0.000489019 0.00045186 0.000415362 0.000380069 0.00034598 0.000313096 0.000281415 0.000250939 0.000221668 0.000193601 0.000167198 0.00014292 0.000120766 0.000100738 8.28336e-05 6.70544e-05 5.33998e-05 4.187e-05 3.20567e-05 2.35519e-05 1.63555e-05 1.04675e-05 5.88796e-06 2.61687e-06 6.54218e-07 0 0 1.56099e-06 6.24398e-06 1.40489e-05 2.49759e-05 3.90249e-05 5.61958e-05 7.64887e-05 9.99036e-05 0.000127117 0.000158805 0.000194967 0.000235604 0.000280716 0.000330302 0.000384363 0.000442898 0.000504588 0.000568114 0.000633476 0.000700673 0.000769705 0.000840574 0.000913277 0.000987816 0.00106283 0.00113697 0.00121022 0.00128259 0.00135408 0.00142468 0.00149441 0.00156325 0.00163047 0.00169531 0.00175777 0.00181787 0.00187559 0.00193094 0.00198391 0.00203451 0.0020825 0.00212767 0.00217 0.0022095 0.00224616 0.00227999 0.00231099 0.00233916 0.00236457 0.00238733 0.00240742 0.00242485 0.00243961 0.00245171 0.00246115 0.00246793 0.00247224 0.00247428 0.00247406 0.00247158 0.00246683 0.00245981 0.00245053 0.00243898 0.00242534 0.00240979 0.00239233 0.00237296 0.00235167 0.00232847 0.00230337 0.00227634 0.00224753 0.00221706 0.00218491 0.0021511 0.00211562 0.00207847 0.00203965 0.00199917 0.00195715 0.00191373 0.00186891 0.00182269 0.00177506 0.00172604 0.00167561 0.00162378 0.00157082 0.00151699 0.00146229 0.00140673 0.00135029 0.00129299 0.00123482 0.00117579 0.00111641 0.00105722 0.000998219 0.000939406 0.00088078 0.000822343 0.000764093 0.000706031 0.000649003 0.000593858 0.000540594 0.000489212 0.000439712 0.000392093 0.000346356 0.000302501 0.000261246 0.000223312 0.000188697 0.000157403 0.000129428 0.000104772 8.34372e-05 6.54218e-05 5.00886e-05 3.67998e-05 2.55554e-05 1.63555e-05 9.19994e-06 4.08886e-06 1.02222e-06 0 0 2.24783e-06 8.99133e-06 2.02305e-05 3.59653e-05 5.61958e-05 8.09219e-05 0.000110144 0.000143861 0.000183048 0.000228679 0.000280753 0.00033927 0.000404231 0.000475635 0.000553482 0.000637773 0.000726607 0.000818085 0.000912205 0.00100897 0.00110838 0.00121043 0.00131512 0.00142246 0.00153048 0.00163723 0.00174271 0.00184693 0.00194987 0.00205154 0.00215195 0.00225108 0.00234787 0.00244124 0.00253119 0.00261773 0.00270085 0.00278055 0.00285683 0.00292969 0.00299881 0.00306384 0.0031248 0.00318167 0.00323447 0.00328319 0.00332783 0.00336839 0.00340499 0.00343775 0.00346668 0.00349178 0.00351304 0.00353047 0.00354406 0.00355382 0.00356002 0.00356297 0.00356265 0.00355907 0.00355223 0.00354212 0.00352876 0.00351213 0.00349249 0.0034701 0.00344495 0.00341706 0.00338641 0.003353 0.00331685 0.00327794 0.00323645 0.00319256 0.00314627 0.00309758 0.00304649 0.00299299 0.0029371 0.0028788 0.0028183 0.00275577 0.00269123 0.00262467 0.00255609 0.0024855 0.00241288 0.00233825 0.00226198 0.00218447 0.0021057 0.00202569 0.00194442 0.00186191 0.00177815 0.00169313 0.00160763 0.0015224 0.00143744 0.00135274 0.00126832 0.00118417 0.00110029 0.00101668 0.000934565 0.000855155 0.000778455 0.000704465 0.000633185 0.000564614 0.000498753 0.000435601 0.000376195 0.000321569 0.000271724 0.00022666 0.000186376 0.000150872 0.00012015 9.42074e-05 7.21276e-05 5.29917e-05 3.67998e-05 2.35519e-05 1.32479e-05 5.88796e-06 1.47199e-06 0 0 3.05955e-06 1.22382e-05 2.75359e-05 4.89528e-05 7.64887e-05 0.000110144 0.000149918 0.000195811 0.000249149 0.000311257 0.000382135 0.000461784 0.000550203 0.000647392 0.000753351 0.00086808 0.000988993 0.0011135 0.00124161 0.00137332 0.00150862 0.00164752 0.00179002 0.00193612 0.00208315 0.00222845 0.00237203 0.00251387 0.00265399 0.00279238 0.00292904 0.00306397 0.00319571 0.0033228 0.00344524 0.00356302 0.00367615 0.00378463 0.00388846 0.00398764 0.00408171 0.00417023 0.0042532 0.00433061 0.00440248 0.00446879 0.00452954 0.00458475 0.00463457 0.00467916 0.00471854 0.0047527 0.00478164 0.00480536 0.00482386 0.00483714 0.00484559 0.0048496 0.00484916 0.00484429 0.00483498 0.00482122 0.00480303 0.00478039 0.00475367 0.00472319 0.00468897 0.00465099 0.00460928 0.00456381 0.0045146 0.00446164 0.00440517 0.00434543 0.00428242 0.00421615 0.00414661 0.0040738 0.00399772 0.00391837 0.00383601 0.00375091 0.00366306 0.00357247 0.00347912 0.00338303 0.0032842 0.00318262 0.00307881 0.0029733 0.0028661 0.00275719 0.00264658 0.00253427 0.00242025 0.00230454 0.00218816 0.00207215 0.00195651 0.00184124 0.00172633 0.00161179 0.00149762 0.00138382 0.00127205 0.00116396 0.00105956 0.000958855 0.000861835 0.000768502 0.000678858 0.000592902 0.000512043 0.000437691 0.000369847 0.000308509 0.000253678 0.000205354 0.000163537 0.000128227 9.81736e-05 7.21276e-05 5.00886e-05 3.20567e-05 1.80319e-05 8.01417e-06 2.00354e-06 0 0 3.99615e-06 1.59846e-05 3.59653e-05 6.39383e-05 9.99036e-05 0.000143861 0.000195811 0.000255753 0.000325419 0.00040654 0.000499116 0.000603146 0.000718632 0.000845573 0.000983968 0.00113382 0.00129175 0.00145437 0.0016217 0.00179372 0.00197045 0.00215187 0.00233799 0.00252881 0.00272085 0.00291063 0.00309816 0.00328343 0.00346644 0.00364719 0.00382568 0.00400192 0.00417399 0.00433998 0.0044999 0.00465374 0.00480151 0.00494319 0.00507881 0.00520834 0.00533121 0.00544683 0.0055552 0.00565631 0.00575017 0.00583678 0.00591614 0.00598824 0.00605331 0.00611156 0.00616299 0.00620761 0.00624541 0.00627639 0.00630055 0.0063179 0.00632893 0.00633417 0.0063336 0.00632724 0.00631507 0.00629711 0.00627335 0.00624378 0.00620887 0.00616906 0.00612436 0.00607477 0.00602028 0.00596089 0.00589662 0.00582744 0.00575369 0.00567566 0.00559337 0.00550681 0.00541598 0.00532088 0.00522151 0.00511787 0.0050103 0.00489915 0.00478441 0.00466608 0.00454416 0.00441866 0.00428957 0.00415689 0.0040213 0.0038835 0.00374347 0.00360122 0.00345675 0.00331006 0.00316115 0.00301001 0.00285801 0.00270648 0.00255544 0.00240488 0.0022548 0.0021052 0.00195608 0.00180744 0.00166145 0.00152028 0.00138392 0.00125238 0.00112566 0.00100376 0.000886671 0.000774402 0.000668791 0.000571679 0.000483065 0.00040295 0.000331335 0.000268217 0.000213599 0.00016748 0.000128227 9.42074e-05 6.54218e-05 4.187e-05 2.35519e-05 1.04675e-05 2.61687e-06 0 0 5.09034e-06 2.03614e-05 4.58131e-05 8.14455e-05 0.000127259 0.000183252 0.000249427 0.000325782 0.000414456 0.000517587 0.000635176 0.000767221 0.000913724 0.00107468 0.0012501 0.00143998 0.00164004 0.00184601 0.0020579 0.00227571 0.00249943 0.00272907 0.00296462 0.00320609 0.00344909 0.00368923 0.00392652 0.00416096 0.00439254 0.00462127 0.00484715 0.00507017 0.00528793 0.005498 0.0057004 0.00589512 0.00608216 0.00626153 0.00643321 0.00659722 0.0067528 0.00689921 0.00703645 0.00716452 0.00728341 0.00739313 0.00749368 0.00758506 0.00766754 0.00774138 0.0078066 0.00786318 0.00791113 0.00795045 0.00798114 0.0080032 0.00801727 0.00802399 0.00802336 0.00801538 0.00800005 0.00797738 0.00794735 0.00790997 0.00786582 0.00781547 0.0077589 0.00769614 0.00762717 0.00755199 0.00747061 0.00738303 0.00728964 0.00719084 0.00708664 0.00697702 0.006862 0.00674156 0.00661572 0.00648447 0.00634825 0.00620748 0.00606218 0.00591233 0.00575795 0.00559903 0.00543556 0.00526756 0.00509588 0.0049214 0.00474411 0.00456401 0.00438111 0.0041954 0.00400688 0.00381555 0.00362313 0.00343131 0.0032401 0.00304949 0.0028595 0.00267011 0.00248133 0.00229315 0.00210832 0.00192956 0.00175687 0.00159026 0.00142971 0.00127525 0.00112685 0.000984529 0.00085061 0.000727424 0.00061497 0.000513249 0.000422261 0.000342006 0.000272483 0.000213693 0.000163609 0.000120203 8.3474e-05 5.34233e-05 3.00506e-05 1.33558e-05 3.33896e-06 0 0 6.37487e-06 2.54995e-05 5.73738e-05 0.000101998 0.000159372 0.000229495 0.000312369 0.000407992 0.000518858 0.00064746 0.000793799 0.000957874 0.00113969 0.00133923 0.00155652 0.00179154 0.00203903 0.00229374 0.00255567 0.00282481 0.00310117 0.00338474 0.00367552 0.00397352 0.00427338 0.00456971 0.00486254 0.00515185 0.00543765 0.00571993 0.0059987 0.00627396 0.00654273 0.00680206 0.00705195 0.00729239 0.00752338 0.00774493 0.00795703 0.00815969 0.00835197 0.00853294 0.00870262 0.00886098 0.00900804 0.0091438 0.00926825 0.0093814 0.00948356 0.00957506 0.0096559 0.00972608 0.00978559 0.00983445 0.00987264 0.00990017 0.00991782 0.00992638 0.00992584 0.0099162 0.00989746 0.00986963 0.00983269 0.00978667 0.00973225 0.00967014 0.00960035 0.00952287 0.0094377 0.00934485 0.0092443 0.00913608 0.00902066 0.00889855 0.00876975 0.00863425 0.00849206 0.00834318 0.00818761 0.00802534 0.00785692 0.0076829 0.00750328 0.00731806 0.00712723 0.0069308 0.00672877 0.00652114 0.00630898 0.00609336 0.00587429 0.00565177 0.0054258 0.00519637 0.00496349 0.00472715 0.00448947 0.00425253 0.00401634 0.00378089 0.00354619 0.00331224 0.00307903 0.00284657 0.0026182 0.00239726 0.00218376 0.00197768 0.00177904 0.00158783 0.00140405 0.00122771 0.00106167 0.000908819 0.000769152 0.00064267 0.000529373 0.000429261 0.000342335 0.000268594 0.000205642 0.000151084 0.00010492 6.71485e-05 3.7771e-05 1.67871e-05 4.19678e-06 0 0 7.84972e-06 3.13989e-05 7.06474e-05 0.000125595 0.000196243 0.00028259 0.000384636 0.000502382 0.000638623 0.000796158 0.000974984 0.0011751 0.00139651 0.00163922 0.00190321 0.0021885 0.00248874 0.00279757 0.003115 0.00344102 0.00377565 0.00411887 0.00447069 0.00483111 0.00519371 0.00555208 0.0059062 0.00625609 0.00660174 0.00694316 0.00728034 0.00761328 0.00793842 0.00825217 0.00855455 0.00884554 0.00912516 0.0093934 0.00965026 0.00989574 0.0101287 0.010348 0.0105537 0.0107457 0.0109241 0.0110888 0.0112398 0.0113772 0.0115014 0.0116126 0.0117109 0.0117963 0.0118688 0.0119284 0.011975 0.0120088 0.0120306 0.0120413 0.012041 0.0120297 0.0120073 0.0119739 0.0119294 0.0118739 0.0118081 0.0117331 0.0116487 0.011555 0.0114519 0.0113394 0.0112177 0.0110866 0.0109467 0.0107988 0.0106427 0.0104785 0.0103062 0.0101257 0.00993717 0.00974048 0.00953634 0.00932542 0.00910773 0.00888326 0.00865201 0.00841399 0.00816919 0.00791762 0.00766058 0.00739938 0.00713402 0.0068645 0.00659082 0.00631298 0.00603098 0.00574483 0.00545704 0.00517015 0.00488416 0.00459907 0.00431488 0.00403159 0.00374919 0.0034677 0.0031911 0.0029234 0.00266459 0.00241467 0.00217365 0.00194152 0.00171828 0.00150394 0.00130197 0.00111586 0.00094561 0.000791212 0.00065267 0.000529985 0.000423155 0.000332182 0.000254327 0.000186852 0.000129758 8.30454e-05 4.6713e-05 2.07614e-05 5.19034e-06 0 0 9.51489e-06 3.80596e-05 8.5634e-05 0.000152238 0.000237872 0.000342536 0.00046623 0.000608953 0.000773754 0.00096368 0.00117873 0.00141891 0.00168421 0.00197464 0.00229019 0.00263087 0.00298915 0.00335748 0.00373589 0.00412435 0.00452288 0.00493148 0.00535013 0.00577886 0.0062101 0.00663632 0.00705751 0.00747369 0.00788484 0.00829096 0.00869206 0.00908814 0.00947497 0.00984832 0.0102082 0.0105546 0.0108875 0.0112069 0.0115129 0.0118054 0.012083 0.0123445 0.0125897 0.0128187 0.0130315 0.0132281 0.0134085 0.0135726 0.013721 0.013854 0.0139716 0.0140739 0.0141607 0.0142322 0.0142884 0.0143291 0.0143556 0.0143689 0.0143689 0.0143558 0.0143295 0.0142901 0.0142374 0.0141715 0.0140935 0.0140043 0.0139039 0.0137924 0.0136697 0.0135358 0.0133908 0.0132345 0.0130679 0.0128916 0.0127055 0.0125098 0.0123043 0.0120892 0.0118644 0.0116299 0.0113865 0.011135 0.0108755 0.0106079 0.0103323 0.0100486 0.00975682 0.009457 0.00915069 0.00883945 0.00852328 0.00820219 0.00787617 0.00754523 0.00720936 0.00686856 0.00652584 0.00618417 0.00584358 0.00550404 0.00516557 0.00482816 0.00449182 0.00415654 0.00382702 0.00350796 0.00319935 0.00290121 0.00261353 0.0023363 0.00206953 0.00181323 0.00157152 0.00134856 0.00114435 0.000958877 0.000792154 0.000644176 0.000514943 0.000404456 0.000309662 0.000227507 0.000157991 0.000101114 5.68767e-05 2.52785e-05 6.31963e-06 0 0 1.13704e-05 4.54815e-05 0.000102333 0.000181926 0.00028426 0.000409334 0.000557149 0.000727705 0.000924248 0.00115003 0.00140504 0.00168929 0.00200278 0.0023455 0.00271746 0.00311865 0.00354026 0.00397349 0.00441834 0.00487479 0.00534286 0.00582255 0.00631385 0.00681676 0.00732254 0.00782244 0.00831648 0.00880464 0.00928692 0.00976334 0.0102339 0.0106985 0.0111524 0.0115905 0.0120129 0.0124195 0.0128104 0.0131856 0.013545 0.0138886 0.0142149 0.0145222 0.0148106 0.0150799 0.0153303 0.0155617 0.0157741 0.0159675 0.0161424 0.0162993 0.016438 0.0165588 0.0166614 0.016746 0.0168126 0.0168611 0.0168928 0.0169089 0.0169096 0.0168947 0.0168642 0.0168183 0.0167568 0.0166797 0.0165883 0.0164838 0.0163661 0.0162352 0.0160911 0.0159339 0.0157635 0.01558 0.0153841 0.0151768 0.0149582 0.0147281 0.0144866 0.0142336 0.0139693 0.0136936 0.0134074 0.0131117 0.0128066 0.0124921 0.0121681 0.0118346 0.0114917 0.0111393 0.0107793 0.0104136 0.0100421 0.00966485 0.00928186 0.00889311 0.00849862 0.00809837 0.00769586 0.0072946 0.00689458 0.00649579 0.00609825 0.00570195 0.0053069 0.00491308 0.00452594 0.00415094 0.00378806 0.00343731 0.00309868 0.00277218 0.00245781 0.00215556 0.00187031 0.00160691 0.00136536 0.00114566 0.000947822 0.000771834 0.0006177 0.000485418 0.000371648 0.000273048 0.000189617 0.000121355 6.82619e-05 3.03386e-05 7.58466e-06 0 0 1.34162e-05 5.36648e-05 0.000120746 0.000214659 0.000335405 0.000482983 0.000657394 0.000858637 0.00109011 0.0013552 0.00165392 0.00198625 0.00235221 0.00275179 0.003185 0.00365183 0.00414209 0.00464559 0.00516235 0.00569235 0.00623559 0.00679209 0.00736182 0.00794481 0.00853102 0.00911045 0.00968309 0.0102489 0.010808 0.0113603 0.0119058 0.0124445 0.0129707 0.0134788 0.0139686 0.0144403 0.0148939 0.0153292 0.0157464 0.0161454 0.0165244 0.0168814 0.0172164 0.0175294 0.0178205 0.0180896 0.0183367 0.0185619 0.0187656 0.0189484 0.0191102 0.019251 0.0193709 0.0194698 0.0195477 0.0196047 0.0196422 0.0196616 0.0196629 0.0196462 0.0196113 0.0195584 0.0194875 0.0193984 0.0192927 0.0191716 0.0190351 0.0188833 0.0187162 0.0185338 0.018336 0.0181228 0.0178954 0.0176547 0.0174007 0.0171334 0.0168528 0.016559 0.0162519 0.0159315 0.015599 0.0152555 0.0149011 0.0145357 0.0141593 0.013772 0.0133737 0.0129645 0.0125464 0.0121218 0.0116904 0.0112525 0.0108079 0.0103566 0.00989876 0.00943424 0.00896711 0.00850142 0.00803716 0.00757433 0.00711293 0.00665297 0.00619443 0.00573733 0.00528789 0.00485235 0.0044307 0.00402296 0.00362911 0.00324916 0.00288311 0.00253095 0.00219834 0.0018909 0.00160865 0.00135157 0.00111968 0.00091296 0.000731424 0.000575067 0.000440286 0.000323475 0.000224636 0.000143767 8.08688e-05 3.59417e-05 8.98542e-06 0 0 1.56524e-05 6.26094e-05 0.000140871 0.000250438 0.000391309 0.000563485 0.000766965 0.00100175 0.00127133 0.0015792 0.00192535 0.00230979 0.00273252 0.00319353 0.00369282 0.00423041 0.00479462 0.00537379 0.00596792 0.00657701 0.00720107 0.00784009 0.00849407 0.00916302 0.00983556 0.0105003 0.0111574 0.0118066 0.0124481 0.0130818 0.0137078 0.014326 0.0149299 0.015513 0.0160754 0.016617 0.0171379 0.017638 0.0181173 0.0185758 0.0190114 0.0194218 0.0198071 0.0201672 0.0205021 0.0208118 0.0210964 0.0213558 0.0215906 0.0218013 0.021988 0.0221505 0.022289 0.0224034 0.0224938 0.02256 0.0226038 0.0226268 0.022629 0.0226103 0.0225709 0.0225106 0.0224295 0.0223276 0.0222064 0.0220676 0.0219111 0.0217369 0.021545 0.0213354 0.0211081 0.0208632 0.0206017 0.020325 0.020033 0.0197257 0.0194031 0.0190653 0.0187121 0.0183437 0.0179613 0.0175664 0.0171589 0.0167388 0.0163061 0.0158608 0.015403 0.0149326 0.0144521 0.013964 0.0134683 0.0129651 0.0124542 0.0119358 0.0114098 0.0108762 0.0103396 0.00980465 0.00927133 0.00873966 0.00820961 0.0076812 0.00715443 0.00662929 0.00611285 0.00561218 0.00512729 0.00465816 0.00420482 0.00376724 0.00334543 0.0029394 0.00255561 0.00220055 0.00187421 0.0015766 0.00130772 0.00106755 0.000856116 0.000673403 0.000515574 0.000378789 0.000263048 0.000168351 9.46973e-05 4.20877e-05 1.05219e-05 0 0 1.80788e-05 7.23153e-05 0.000162709 0.000289261 0.000451971 0.000650838 0.000885862 0.00115704 0.00146792 0.00182202 0.00221935 0.0026599 0.00314369 0.0036707 0.00424093 0.0048544 0.00549785 0.00615807 0.00683505 0.0075288 0.0082393 0.00896657 0.00971059 0.0104714 0.0112361 0.0119921 0.0127393 0.0134776 0.0142072 0.0149279 0.0156398 0.016343 0.0170299 0.0176934 0.0183333 0.0189496 0.0195425 0.0201118 0.0206576 0.0211798 0.021676 0.0221437 0.0225827 0.0229932 0.0233751 0.0237284 0.0240531 0.0243493 0.0246174 0.0248582 0.0250715 0.0252574 0.0254159 0.025547 0.0256507 0.025727 0.0257777 0.0258046 0.0258077 0.0257872 0.0257428 0.0256747 0.0255829 0.0254673 0.0253297 0.0251719 0.0249939 0.0247957 0.0245773 0.0243387 0.02408 0.023801 0.0235032 0.0231879 0.0228552 0.0225051 0.0221375 0.0217525 0.0213501 0.0209302 0.0204944 0.0200444 0.01958 0.0191013 0.0186083 0.0181011 0.0175795 0.0170436 0.0164962 0.0159403 0.0153758 0.0148026 0.0142209 0.0136306 0.0130317 0.0124242 0.0118133 0.0112043 0.0105971 0.00999176 0.00938829 0.00878666 0.00818688 0.00758895 0.00700082 0.00643044 0.00587781 0.00534293 0.0048258 0.00432641 0.00384478 0.00338089 0.00294213 0.00253585 0.00216206 0.00182076 0.00151194 0.00123562 0.000991777 0.000780426 0.000597514 0.00043899 0.000304854 0.000195107 0.000109747 4.87766e-05 1.21942e-05 0 0 2.06489e-05 8.25957e-05 0.00018584 0.000330383 0.000516223 0.000743361 0.0010118 0.00132153 0.00167609 0.00207902 0.0025303 0.00302994 0.00357794 0.00417431 0.00481903 0.00551211 0.00623867 0.00698384 0.0077476 0.00852996 0.00933093 0.0101505 0.0109887 0.0118454 0.0127065 0.0135578 0.0143991 0.0152305 0.016052 0.0168637 0.0176654 0.0184573 0.019231 0.0199782 0.0206991 0.0213936 0.0220617 0.0227034 0.0233187 0.0239076 0.0244672 0.0249947 0.02549 0.0259532 0.0263843 0.0267833 0.0271501 0.0274848 0.027788 0.0280602 0.0283016 0.0285121 0.0286916 0.0288403 0.0289581 0.0290449 0.0291029 0.0291341 0.0291384 0.0291159 0.0290666 0.0289904 0.0288874 0.0287575 0.0286028 0.0284253 0.0282249 0.0280017 0.0277556 0.0274867 0.027195 0.0268804 0.0265445 0.026189 0.0258137 0.0254188 0.0250041 0.0245698 0.0241158 0.023642 0.0231504 0.0226427 0.0221188 0.0215789 0.0210228 0.0204506 0.0198623 0.0192579 0.0186407 0.0180138 0.0173772 0.016731 0.0160751 0.0154097 0.0147345 0.0140497 0.0133612 0.0126747 0.0119902 0.0113078 0.0106275 0.0099493 0.00927314 0.00859903 0.00793586 0.00729246 0.00666886 0.00606503 0.00548099 0.00491674 0.00437226 0.00384757 0.00335098 0.00289079 0.00246701 0.00207964 0.00172867 0.0014141 0.00113595 0.000894194 0.000684617 0.000502984 0.000349295 0.000223549 0.000125746 5.58871e-05 1.39718e-05 0 0 2.3316e-05 9.32639e-05 0.000209844 0.000373056 0.000582899 0.000839375 0.00114248 0.00149222 0.00189208 0.00234553 0.00285259 0.00341325 0.00402751 0.00469536 0.00541682 0.00619188 0.00700396 0.00783647 0.00868941 0.00956279 0.0104566 0.0113709 0.0123055 0.0132607 0.0142205 0.0151693 0.0161071 0.0170338 0.0179495 0.0188542 0.0197479 0.0206306 0.0214931 0.0223262 0.02313 0.0239045 0.0246497 0.0253655 0.026052 0.0267092 0.0273338 0.0279227 0.0284758 0.0289932 0.0294747 0.0299206 0.0303306 0.0307049 0.0310441 0.0313488 0.0316191 0.0318549 0.0320562 0.032223 0.0323554 0.0324533 0.0325189 0.0325546 0.0325602 0.0325359 0.0324815 0.0323972 0.0322828 0.0321384 0.0319663 0.0317686 0.0315453 0.0312965 0.0310221 0.0307222 0.0303967 0.0300456 0.0296708 0.0292739 0.028855 0.0284141 0.0279512 0.0274663 0.0269594 0.0264304 0.0258815 0.0253146 0.0247297 0.0241269 0.0235062 0.0228675 0.0222108 0.0215362 0.0208472 0.0201475 0.0194371 0.018716 0.0179841 0.0172416 0.0164883 0.0157243 0.0149561 0.0141901 0.0134265 0.0126651 0.011906 0.0111491 0.0103945 0.00964225 0.00890201 0.00818359 0.00748701 0.00681226 0.00615934 0.00552826 0.004919 0.00433157 0.00377527 0.00325938 0.00278391 0.00234885 0.00195421 0.00159998 0.00128616 0.00101276 0.000775398 0.00056968 0.000395611 0.000253191 0.00014242 6.32978e-05 1.58245e-05 0 0 2.608e-05 0.00010432 0.00023472 0.000417279 0.000651999 0.000938879 0.00127792 0.00166912 0.00211587 0.00262157 0.00318622 0.00380982 0.00449237 0.00523386 0.00603431 0.0068937 0.0077937 0.00871596 0.00966049 0.0106273 0.0116163 0.0126277 0.0136612 0.0147171 0.015778 0.0168267 0.0178632 0.0188875 0.0198996 0.0208996 0.0218873 0.0228629 0.0238162 0.0247372 0.0256259 0.0264823 0.0273064 0.0280981 0.0288576 0.0295847 0.0302759 0.0309277 0.03154 0.0321129 0.0326463 0.0331402 0.0335947 0.0340097 0.0343859 0.034724 0.035024 0.0352858 0.0355095 0.0356951 0.0358426 0.0359519 0.0360256 0.036066 0.0360731 0.036047 0.0359876 0.035895 0.0357691 0.03561 0.0354201 0.0352018 0.0349552 0.0346802 0.0343768 0.0340451 0.0336851 0.0332966 0.0328819 0.0324427 0.0319791 0.0314911 0.0309788 0.030442 0.0298808 0.0292953 0.0286876 0.0280601 0.0274127 0.0267455 0.0260585 0.0253516 0.0246248 0.0238782 0.0231158 0.0223416 0.0215555 0.0207576 0.0199479 0.0191264 0.0182931 0.0174479 0.0165981 0.0157507 0.0149059 0.0140635 0.0132235 0.0123861 0.0115511 0.0107186 0.00989927 0.00910383 0.00833228 0.00758462 0.00686085 0.00616098 0.00548499 0.00483289 0.00421499 0.00364161 0.00311275 0.0026284 0.00218856 0.00179324 0.00144243 0.00113614 0.000869856 0.000639078 0.000443804 0.000284035 0.000159769 7.10086e-05 1.77522e-05 0 0 2.89409e-05 0.000115764 0.000260468 0.000463054 0.000723522 0.00104187 0.0014181 0.00185222 0.00234747 0.00290713 0.0035312 0.00421966 0.00497254 0.00578981 0.00667149 0.00761757 0.0086079 0.00962232 0.0106608 0.0117234 0.0128101 0.0139209 0.0150558 0.0162147 0.017379 0.0185299 0.0196675 0.0207916 0.0219024 0.0229997 0.0240837 0.0251543 0.0262005 0.0272113 0.0281868 0.029127 0.0300318 0.0309012 0.0317353 0.0325341 0.0332936 0.0340098 0.0346828 0.0353125 0.035899 0.0364423 0.0369423 0.0373991 0.0378134 0.0381858 0.0385163 0.0388049 0.0390517 0.0392567 0.0394197 0.0395409 0.0396229 0.0396683 0.0396771 0.0396493 0.0395849 0.0394839 0.0393464 0.0391723 0.0389642 0.0387249 0.0384544 0.0381527 0.0378197 0.0374555 0.0370601 0.0366335 0.0361778 0.0356953 0.035186 0.0346498 0.0340868 0.0334969 0.0328802 0.0322367 0.0315688 0.0308792 0.0301678 0.0294347 0.0286797 0.027903 0.0271044 0.0262841 0.0254465 0.0245959 0.0237324 0.0228559 0.0219665 0.0210641 0.0201488 0.0192206 0.0182872 0.0173565 0.0164284 0.015503 0.0145803 0.0136602 0.0127428 0.0118281 0.0109276 0.0100532 0.00920466 0.00838211 0.00758552 0.00681489 0.00607023 0.00535152 0.00467015 0.00403749 0.00345353 0.00291827 0.00243173 0.00199388 0.00160475 0.00126431 0.000967991 0.000711177 0.000493873 0.000316079 0.000177794 7.90196e-05 1.97549e-05 0 0 3.18988e-05 0.000127595 0.000287089 0.00051038 0.000797469 0.00114836 0.00156304 0.00204152 0.00258688 0.00320221 0.00388751 0.00464278 0.00546801 0.0063632 0.00732837 0.0083635 0.00944657 0.0105555 0.0116904 0.0128512 0.014038 0.0152506 0.0164891 0.0177535 0.0190236 0.0202791 0.0215199 0.0227461 0.0239577 0.0251546 0.0263369 0.0275046 0.0286458 0.0297485 0.0308127 0.0318386 0.0328259 0.0337749 0.0346853 0.0355574 0.0363866 0.0371688 0.0379039 0.038592 0.0392329 0.0398267 0.0403735 0.0408732 0.0413265 0.0417341 0.042096 0.0424122 0.0426827 0.0429076 0.0430868 0.0432203 0.0433109 0.0433615 0.0433722 0.0433428 0.0432734 0.043164 0.0430146 0.0428252 0.0425986 0.042338 0.0420431 0.0417141 0.0413508 0.0409534 0.0405219 0.0400561 0.0395586 0.0390318 0.0384756 0.0378901 0.0372752 0.036631 0.0359575 0.0352546 0.0345252 0.033772 0.032995 0.0321943 0.0313698 0.0305216 0.0296496 0.0287539 0.0278393 0.0269105 0.0259677 0.0250108 0.0240398 0.0230547 0.0220555 0.0210422 0.0200233 0.0190073 0.0179941 0.0169837 0.0159762 0.0149715 0.0139697 0.0129707 0.0119871 0.0110316 0.0101041 0.00920472 0.00833334 0.00749001 0.00667472 0.00588748 0.00514075 0.00444701 0.00380625 0.00321849 0.00268371 0.00220191 0.00177311 0.00139729 0.0010698 0.000785977 0.000545818 0.000349323 0.000196494 8.73308e-05 2.18327e-05 0 0 3.49536e-05 0.000139814 0.000314582 0.000559257 0.000873839 0.00125833 0.00171273 0.00223703 0.0028341 0.00350682 0.00425517 0.00507916 0.00597878 0.00695404 0.00800494 0.00913148 0.0103097 0.0115156 0.0127493 0.0140107 0.0152998 0.0166167 0.0179613 0.0193336 0.0207118 0.0220741 0.0234205 0.024751 0.0260656 0.0273643 0