<?xml version="1.0"?> 
<VTKFile type="StructuredGrid" version="0.1"> 
<StructuredGrid WholeExtent="0 128 0 128 0 0"> 
<Piece Extent="0 128 0 128 0 0"> 
<PointData>
<DataArray type="Float32" Name="u" format="ascii" NumberOfComponents="1"> 
0 0 0 0 0 0 0 0 0 0 0 0 0 0 0 0 0 0 0 0 0 0 0 0 0 0 0 0 0 0 0 0 0 0 0 0 0 0 0 0 0 0 0 0 0 0 0 0 0 0 0 0 0 0 0 0 0 0 0 0 0 0 0 0 0 0 0 0 0 0 0 0 0 0 0 0 0 0 0 0 0 0 0 0 0 0 0 0 0 0 0 0 0 0 0 0 0 0 0 0 0 0 0 0 0 0 0 0 0 0 0 0 0 0 0 0 0 0 0 0 0 0 0 0 0 0 0 0 0 0 6.28127e-08 2.51251e-07 5.65314e-07 1.005e-06 1.57032e-06 2.26126e-06 3.07782e-06 4.02001e-06 5.11454e-06 6.38813e-06 7.84078e-06 9.47249e-06 1.12833e-05 1.32731e-05 1.5442e-05 1.77899e-05 2.026e-05 2.27955e-05 2.53962e-05 2.80622e-05 3.07934e-05 3.359e-05 3.64519e-05 3.93791e-05 4.23144e-05 4.52009e-05 4.80384e-05 5.0827e-05 5.35668e-05 5.62576e-05 5.88995e-05 6.14926e-05 6.4009e-05 6.6421e-05 6.87287e-05 7.0932e-05 7.30309e-05 7.50255e-05 7.69158e-05 7.87016e-05 8.03801e-05 8.19481e-05 8.34057e-05 8.47528e-05 8.59895e-05 8.71158e-05 8.81315e-05 8.90369e-05 8.9842e-05 9.0557e-05 9.1182e-05 9.1717e-05 9.21619e-05 9.25168e-05 9.27816e-05 9.29564e-05 9.30528e-05 9.30822e-05 9.30448e-05 9.29404e-05 9.27692e-05 9.25311e-05 9.22261e-05 9.18542e-05 9.14207e-05 9.09309e-05 9.03848e-05 8.97824e-05 8.91237e-05 8.84086e-05 8.76373e-05 8.68096e-05 8.5924e-05 8.49788e-05 8.3974e-05 8.29096e-05 8.17855e-05 8.06019e-05 7.93586e-05 7.80558e-05 7.66905e-05 7.52602e-05 7.37648e-05 7.22042e-05 7.05786e-05 6.88879e-05 6.71321e-05 6.53111e-05 6.34303e-05 6.14949e-05 5.95047e-05 5.746e-05 5.53605e-05 5.32064e-05 5.09976e-05 4.87342e-05 4.64374e-05 4.41286e-05 4.18078e-05 3.94749e-05 3.713e-05 3.47731e-05 3.24041e-05 3.00231e-05 2.76702e-05 2.53853e-05 2.31685e-05 2.10197e-05 1.89391e-05 1.69265e-05 1.4982e-05 1.31056e-05 1.13336e-05 9.70218e-06 8.21148e-06 6.86145e-06 5.65209e-06 4.5834e-06 3.65539e-06 2.86804e-06 2.19584e-06 1.61327e-06 1.12033e-06 7.1701e-07 4.03318e-07 1.79253e-07 4.48132e-08 0 0 2.51251e-07 1.005e-06 2.26126e-06 4.02001e-06 6.28127e-06 9.04502e-06 1.23113e-05 1.608e-05 2.04582e-05 2.55525e-05 3.13631e-05 3.789e-05 4.5133e-05 5.30924e-05 6.17679e-05 7.11597e-05 8.10402e-05 9.11818e-05 0.000101585 0.000112249 0.000123174 0.00013436 0.000145808 0.000157516 0.000169258 0.000180803 0.000192154 0.000203308 0.000214267 0.00022503 0.000235598 0.00024597 0.000256036 0.000265684 0.000274915 0.000283728 0.000292124 0.000300102 0.000307663 0.000314807 0.00032152 0.000327793 0.000333623 0.000339011 0.000343958 0.000348463 0.000352526 0.000356147 0.000359368 0.000362228 0.000364728 0.000366868 0.000368648 0.000370067 0.000371126 0.000371826 0.000372211 0.000372329 0.000372179 0.000371762 0.000371077 0.000370124 0.000368904 0.000367417 0.000365683 0.000363724 0.000361539 0.000359129 0.000356495 0.000353634 0.000350549 0.000347239 0.000343696 0.000339915 0.000335896 0.000331638 0.000327142 0.000322408 0.000317434 0.000312223 0.000306762 0.000301041 0.000295059 0.000288817 0.000282314 0.000275552 0.000268528 0.000261245 0.000253721 0.000245979 0.000238019 0.00022984 0.000221442 0.000212826 0.00020399 0.000194937 0.00018575 0.000176514 0.000167231 0.0001579 0.00014852 0.000139092 0.000129616 0.000120092 0.000110681 0.000101541 9.26739e-05 8.40789e-05 7.57563e-05 6.7706e-05 5.99281e-05 5.24224e-05 4.53342e-05 3.88087e-05 3.28459e-05 2.74458e-05 2.26084e-05 1.83336e-05 1.46216e-05 1.14722e-05 8.78338e-06 6.45309e-06 4.48132e-06 2.86804e-06 1.61327e-06 7.1701e-07 1.79253e-07 0 0 5.65314e-07 2.26126e-06 5.08782e-06 9.04502e-06 1.41328e-05 2.03513e-05 2.77004e-05 3.61801e-05 4.60309e-05 5.74932e-05 7.05671e-05 8.52524e-05 0.000101549 0.000119458 0.000138978 0.000160109 0.00018234 0.000205159 0.000228565 0.000252559 0.000277141 0.00030231 0.000328067 0.000354412 0.00038083 0.000406808 0.000432346 0.000457443 0.000482101 0.000506319 0.000530096 0.000553433 0.000576081 0.000597789 0.000618558 0.000638388 0.000657278 0.00067523 0.000692242 0.000708315 0.000723421 0.000737533 0.000750651 0.000762776 0.000773906 0.000784042 0.000793184 0.000801332 0.000808578 0.000815013 0.000820638 0.000825453 0.000829457 0.000832651 0.000835035 0.000836608 0.000837475 0.00083774 0.000837403 0.000836464 0.000834923 0.00083278 0.000830035 0.000826688 0.000822786 0.000818378 0.000813463 0.000808041 0.000802113 0.000795678 0.000788736 0.000781287 0.000773316 0.000764809 0.000755766 0.000746186 0.00073607 0.000725417 0.000714228 0.000702502 0.000690215 0.000677342 0.000663883 0.000649838 0.000635208 0.000619991 0.000604189 0.0005878 0.000570873 0.000553454 0.000535543 0.00051714 0.000498245 0.000478858 0.000458979 0.000438608 0.000417937 0.000397157 0.00037627 0.000355274 0.00033417 0.000312958 0.000291637 0.000270208 0.000249031 0.000228467 0.000208516 0.000189178 0.000170452 0.000152339 0.000134838 0.00011795 0.000102002 8.73196e-05 7.39033e-05 6.17531e-05 5.08688e-05 4.12506e-05 3.28985e-05 2.58124e-05 1.97626e-05 1.45195e-05 1.0083e-05 6.45309e-06 3.62987e-06 1.61327e-06 4.03318e-07 0 0 1.005e-06 4.02001e-06 9.04502e-06 1.608e-05 2.51251e-05 3.61801e-05 4.92451e-05 6.43202e-05 8.18327e-05 0.00010221 0.000125453 0.00015156 0.000180532 0.000212369 0.000247072 0.000284639 0.000324161 0.000364727 0.000406339 0.000448995 0.000492695 0.00053744 0.00058323 0.000630065 0.000677031 0.000723214 0.000768615 0.000813233 0.000857069 0.000900122 0.000942393 0.000983881 0.00102414 0.00106274 0.00109966 0.00113491 0.0011685 0.00120041 0.00123065 0.00125923 0.00128608 0.00131117 0.00133449 0.00135605 0.00137583 0.00139385 0.0014101 0.00142459 0.00143747 0.00144891 0.00145891 0.00146747 0.00147459 0.00148027 0.00148451 0.0014873 0.00148884 0.00148932 0.00148872 0.00148705 0.00148431 0.0014805 0.00147562 0.00146967 0.00146273 0.00145489 0.00144616 0.00143652 0.00142598 0.00141454 0.0014022 0.00138895 0.00137478 0.00135966 0.00134358 0.00132655 0.00130857 0.00128963 0.00126974 0.00124889 0.00122705 0.00120416 0.00118024 0.00115527 0.00112926 0.00110221 0.00107411 0.00104498 0.00101489 0.000983918 0.000952076 0.000919359 0.000885768 0.000851302 0.000815962 0.000779747 0.000742999 0.000706058 0.000668924 0.000631598 0.00059408 0.000556369 0.000518466 0.00048037 0.000442723 0.000406164 0.000370695 0.000336316 0.000303025 0.000270824 0.000239712 0.00020969 0.000181337 0.000155235 0.000131384 0.000109783 9.04335e-05 7.33345e-05 5.84862e-05 4.58887e-05 3.51335e-05 2.58124e-05 1.79253e-05 1.14722e-05 6.45309e-06 2.86804e-06 7.1701e-07 0 0 1.57032e-06 6.28127e-06 1.41328e-05 2.51251e-05 3.92579e-05 5.65314e-05 7.69455e-05 0.0001005 0.000127864 0.000159703 0.00019602 0.000236812 0.000282082 0.000331827 0.000386049 0.000444748 0.000506501 0.000569886 0.000634904 0.000701554 0.000769836 0.000839751 0.000911297 0.000984476 0.00105786 0.00113002 0.00120096 0.00127068 0.00133917 0.00140644 0.00147249 0.00153731 0.00160022 0.00166053 0.00171822 0.0017733 0.00182577 0.00187564 0.00192289 0.00196754 0.0020095 0.0020487 0.00208514 0.00211882 0.00214974 0.00217789 0.00220329 0.00222592 0.00224605 0.00226393 0.00227955 0.00229292 0.00230405 0.00231292 0.00231954 0.00232391 0.00232632 0.00232706 0.00232612 0.00232351 0.00231923 0.00231328 0.00230565 0.00229635 0.00228552 0.00227327 0.00225962 0.00224456 0.00222809 0.00221022 0.00219093 0.00217024 0.0021481 0.00212447 0.00209935 0.00207274 0.00204464 0.00201505 0.00198397 0.00195139 0.00191726 0.00188151 0.00184412 0.00180511 0.00176447 0.0017222 0.0016783 0.00163278 0.00158576 0.00153737 0.00148762 0.0014365 0.00138401 0.00133016 0.00127494 0.00121835 0.00116094 0.00110322 0.00104519 0.000986872 0.00092825 0.000869327 0.000810103 0.000750578 0.000691754 0.000634632 0.000579212 0.000525493 0.000473477 0.000423163 0.00037455 0.00032764 0.000283339 0.000242555 0.000205287 0.000171536 0.000141302 0.000114585 9.13847e-05 7.1701e-05 5.48961e-05 4.03318e-05 2.80082e-05 1.79253e-05 1.0083e-05 4.48132e-06 1.12033e-06 0 0 2.26126e-06 9.04502e-06 2.03513e-05 3.61801e-05 5.65314e-05 8.14052e-05 0.000110802 0.00014472 0.000184123 0.000229973 0.000282268 0.00034101 0.000406197 0.000477831 0.000555911 0.000640437 0.000729362 0.000820637 0.000914262 0.00101024 0.00110856 0.00120924 0.00131227 0.00141765 0.00152332 0.00162723 0.00172938 0.00182977 0.0019284 0.00202527 0.00212038 0.00221373 0.00230432 0.00239116 0.00247423 0.00255355 0.00262911 0.00270092 0.00276897 0.00283326 0.00289368 0.00295013 0.00300261 0.0030511 0.00309562 0.00313617 0.00317274 0.00320533 0.00323431 0.00326005 0.00328255 0.00330181 0.00331783 0.0033306 0.00334014 0.00334643 0.0033499 0.00335096 0.00334961 0.00334586 0.00333969 0.00333112 0.00332014 0.00330675 0.00329114 0.00327351 0.00325385 0.00323217 0.00320845 0.00318271 0.00315494 0.00312515 0.00309327 0.00305924 0.00302306 0.00298474 0.00294428 0.00290167 0.00285691 0.00281001 0.00276086 0.00270937 0.00265553 0.00259935 0.00254083 0.00247996 0.00241675 0.0023512 0.00228349 0.00221382 0.00214217 0.00206856 0.00199298 0.00191543 0.00183591 0.00175443 0.00167175 0.00158863 0.00150508 0.0014211 0.00133668 0.00125183 0.00116655 0.00108083 0.000996126 0.00091387 0.000834065 0.00075671 0.000681807 0.000609354 0.000539352 0.000471801 0.000408008 0.000349279 0.000295613 0.000247012 0.000203475 0.000165003 0.000131594 0.00010325 7.90504e-05 5.80778e-05 4.03318e-05 2.58124e-05 1.45195e-05 6.45309e-06 1.61327e-06 0 0 3.07782e-06 1.23113e-05 2.77004e-05 4.92451e-05 7.69455e-05 0.000110802 0.000150813 0.00019698 0.000250613 0.000313019 0.000384198 0.000464152 0.00055288 0.000650381 0.000756657 0.000871706 0.000992742 0.00111698 0.00124441 0.00137505 0.00150888 0.00164591 0.00178614 0.00192957 0.00207341 0.00221484 0.00235388 0.00249053 0.00262477 0.00275662 0.00288608 0.00301314 0.00313644 0.00325463 0.00336771 0.00347567 0.00357852 0.00367625 0.00376887 0.00385638 0.00393863 0.00401546 0.00408688 0.00415289 0.00421349 0.00426867 0.00431845 0.00436281 0.00440226 0.00443729 0.00446792 0.00449413 0.00451593 0.00453332 0.0045463 0.00455486 0.00455959 0.00456103 0.00455919 0.00455408 0.00454569 0.00453402 0.00451908 0.00450086 0.00447961 0.00445561 0.00442885 0.00439934 0.00436706 0.00433202 0.00429423 0.00425367 0.00421028 0.00416396 0.00411473 0.00406257 0.00400749 0.00394949 0.00388857 0.00382473 0.00375784 0.00368775 0.00361447 0.00353801 0.00345835 0.00337551 0.00328947 0.00320025 0.00310809 0.00301325 0.00291573 0.00281554 0.00271266 0.00260711 0.00249888 0.00238798 0.00227543 0.0021623 0.00204858 0.00193427 0.00181937 0.00170388 0.0015878 0.00147113 0.00135584 0.00124388 0.00113525 0.00102997 0.000928015 0.000829399 0.000734119 0.000642174 0.000555344 0.000475407 0.000402363 0.000336211 0.000276953 0.000224587 0.000179114 0.000140534 0.000107596 7.90504e-05 5.48961e-05 3.51335e-05 1.97626e-05 8.78338e-06 2.19584e-06 0 0 4.02001e-06 1.608e-05 3.61801e-05 6.43202e-05 0.0001005 0.00014472 0.00019698 0.000257281 0.000327331 0.000408841 0.00050181 0.00060624 0.000722129 0.000849478 0.000988287 0.00113856 0.00129664 0.00145891 0.00162535 0.00179598 0.00197078 0.00214976 0.00233292 0.00252026 0.00270812 0.00289286 0.00307446 0.00325293 0.00342827 0.00360049 0.00376957 0.00393552 0.00409657 0.00425094 0.00439864 0.00453965 0.00467398 0.00480163 0.00492261 0.00503691 0.00514433 0.00524468 0.00533797 0.00542418 0.00550333 0.00557541 0.00564042 0.00569836 0.00574989 0.00579565 0.00583565 0.00586989 0.00589836 0.00592107 0.00593802 0.00594921 0.00595538 0.00595726 0.00595486 0.00594819 0.00593723 0.00592199 0.00590247 0.00587867 0.00585092 0.00581958 0.00578463 0.00574607 0.00570391 0.00565815 0.00560879 0.00555582 0.00549914 0.00543865 0.00537434 0.00530621 0.00523427 0.00515852 0.00507895 0.00499557 0.00490819 0.00481665 0.00472095 0.00462107 0.00451703 0.00440883 0.00429645 0.00417991 0.00405954 0.00393567 0.0038083 0.00367744 0.00354307 0.00340521 0.00326385 0.00311899 0.00297199 0.00282423 0.0026757 0.00252639 0.00237632 0.00222548 0.00207386 0.00192148 0.00177089 0.00162466 0.00148278 0.00134526 0.0012121 0.0010833 0.000958849 0.000838758 0.000725347 0.00062094 0.000525535 0.000439133 0.000361734 0.000293338 0.000233945 0.000183555 0.000140534 0.00010325 7.1701e-05 4.58887e-05 2.58124e-05 1.14722e-05 2.86804e-06 0 0 5.12588e-06 2.05035e-05 4.61329e-05 8.20141e-05 0.000128147 0.000184532 0.000251168 0.000328056 0.000417305 0.000521023 0.00063921 0.000771867 0.000918993 0.00108059 0.00125665 0.00144719 0.00164758 0.00185324 0.00206416 0.00228033 0.00250177 0.00272846 0.00296041 0.00319762 0.00343549 0.0036694 0.00389935 0.00412534 0.00434739 0.00456547 0.0047796 0.00498977 0.00519375 0.00538928 0.00557637 0.00575502 0.00592523 0.006087 0.00624033 0.00638522 0.00652141 0.00664866 0.00676697 0.00687633 0.00697675 0.00706822 0.00715075 0.00722434 0.0072898 0.00734796 0.00739881 0.00744236 0.0074786 0.00750754 0.00752918 0.00754351 0.00755147 0.007554 0.00755108 0.00754273 0.00752894 0.00750971 0.00748504 0.00745493 0.00741982 0.00738013 0.00733585 0.00728699 0.00723356 0.00717554 0.00711294 0.00704576 0.00697387 0.00689714 0.00681557 0.00672916 0.00663791 0.00654182 0.00644089 0.00633512 0.00622429 0.00610819 0.00598681 0.00586016 0.00572824 0.00559105 0.00544858 0.00530084 0.00514825 0.00499124 0.00482982 0.00466397 0.0044937 0.00431901 0.00413991 0.00395638 0.00377016 0.00358296 0.00339479 0.00320566 0.00301555 0.00282446 0.00263241 0.00243938 0.00224862 0.00206335 0.00188357 0.00170928 0.00154048 0.00137717 0.00121936 0.00106704 0.000923149 0.000790633 0.00066949 0.000559719 0.000461322 0.000374298 0.000298646 0.000234368 0.000179438 0.000131832 9.155e-05 5.8592e-05 3.2958e-05 1.4648e-05 3.662e-06 0 0 6.43349e-06 2.5734e-05 5.79014e-05 0.000102936 0.000160837 0.000231606 0.000315241 0.000411743 0.000523563 0.000653151 0.000800506 0.000965629 0.00114852 0.00134918 0.0015676 0.0018038 0.00205208 0.00230678 0.00256788 0.0028354 0.00310933 0.00338967 0.00367642 0.00396959 0.00426352 0.00455259 0.00483679 0.00511612 0.00539058 0.00566017 0.0059249 0.00618475 0.00643698 0.00667882 0.00691027 0.00713133 0.00734201 0.00754229 0.00773219 0.0079117 0.0080805 0.00823826 0.00838499 0.00852068 0.00864534 0.00875896 0.00886155 0.0089531 0.0090346 0.00910706 0.00917048 0.00922484 0.00927015 0.00930642 0.00933364 0.00935181 0.00936207 0.00936557 0.00936229 0.00935225 0.00933544 0.00931186 0.00928151 0.0092444 0.00920105 0.00915198 0.00909721 0.00903672 0.00897053 0.00889862 0.00882101 0.00873768 0.0086485 0.0085533 0.0084521 0.00834489 0.00823168 0.00811245 0.00798722 0.00785598 0.00771847 0.00757446 0.00742394 0.00726691 0.00710336 0.00693331 0.00675674 0.00657366 0.00638461 0.00619012 0.0059902 0.00578484 0.00557405 0.00535782 0.00513616 0.00490906 0.00467864 0.00444704 0.00421424 0.00398025 0.00374506 0.00350869 0.00327112 0.00303236 0.00279636 0.00256709 0.00234453 0.00212868 0.00191956 0.00171715 0.00152147 0.0013325 0.00115388 0.000989243 0.000838587 0.000701913 0.00057922 0.000470509 0.000375779 0.00029503 0.000225883 0.000165955 0.000115246 7.37576e-05 4.14887e-05 1.84394e-05 4.60985e-06 0 0 7.94284e-06 3.17714e-05 7.14855e-05 0.000127085 0.000198571 0.000285942 0.000389199 0.000508342 0.000646105 0.000805223 0.000985697 0.00118753 0.00141071 0.00165525 0.00192114 0.0022084 0.00251014 0.00281952 0.00313654 0.00346119 0.00379348 0.0041334 0.00448096 0.00483615 0.00519223 0.00554244 0.00588678 0.00622525 0.00655786 0.0068846 0.00720547 0.00752047 0.00782627 0.00811956 0.00840033 0.00866857 0.0089243 0.00916751 0.00939819 0.00961636 0.00982159 0.0100135 0.010192 0.0103572 0.0105091 0.0106476 0.0107728 0.0108846 0.0109843 0.011073 0.0111506 0.0112173 0.011273 0.0113177 0.0113514 0.0113741 0.0113872 0.011392 0.0113885 0.0113768 0.0113567 0.0113285 0.0112919 0.0112471 0.0111946 0.0111351 0.0110687 0.0109953 0.0109148 0.0108274 0.010733 0.0106316 0.010523 0.0104071 0.0102839 0.0101534 0.0100156 0.00987042 0.00971794 0.00955815 0.00939075 0.00921548 0.00903233 0.0088413 0.00864239 0.0084356 0.00822093 0.00799838 0.00776862 0.00753231 0.00728946 0.00704007 0.00678412 0.00652164 0.0062526 0.00597702 0.00569745 0.00541646 0.00513403 0.00485016 0.00456487 0.00427815 0.00398999 0.00370041 0.00341412 0.00313587 0.00286566 0.00260349 0.00234935 0.00210324 0.00186517 0.00163514 0.00141754 0.00121677 0.00103283 0.000865713 0.000715427 0.00058197 0.000465342 0.000365542 0.000279868 0.000205617 0.00014279 9.13855e-05 5.14044e-05 2.28464e-05 5.7116e-06 0 0 9.65392e-06 3.86157e-05 8.68853e-05 0.000154463 0.000241348 0.000347541 0.000473042 0.000617851 0.00078493 0.00097724 0.00119478 0.00143756 0.00170556 0.0019988 0.00231727 0.00266097 0.00302176 0.00339147 0.00377012 0.0041577 0.0045542 0.00495964 0.00537401 0.00579732 0.00622161 0.00663894 0.00704932 0.00745275 0.00784922 0.00823874 0.0086213 0.00899691 0.00936163 0.0097115 0.0100465 0.0103667 0.0106721 0.0109626 0.0112383 0.0114992 0.0117447 0.0119743 0.0121881 0.012386 0.012568 0.0127342 0.0128845 0.0130189 0.0131389 0.0132457 0.0133393 0.0134198 0.0134872 0.0135414 0.0135825 0.0136104 0.0136268 0.0136332 0.0136297 0.0136163 0.0135928 0.0135595 0.0135162 0.0134629 0.0134005 0.0133296 0.0132503 0.0131626 0.0130665 0.0129619 0.0128489 0.0127275 0.0125974 0.0124586 0.0123111 0.0121547 0.0119896 0.0118157 0.0116331 0.0114416 0.0112411 0.0110312 0.010812 0.0105833 0.0103453 0.0100979 0.00984115 0.00957499 0.00930028 0.00901781 0.0087276 0.00842963 0.00812392 0.00781045 0.00748924 0.00716028 0.00682659 0.00649122 0.00615416 0.00581541 0.00547497 0.00513284 0.00478903 0.00444352 0.0041019 0.00376971 0.00344698 0.00313368 0.00282984 0.00253543 0.00225048 0.00197496 0.00171413 0.00147321 0.00125221 0.00105112 0.000869944 0.000708683 0.000567336 0.000445903 0.000341394 0.00025082 0.000174181 0.000111476 6.27051e-05 2.78689e-05 6.96723e-06 0 0 1.15667e-05 4.6267e-05 0.000104101 0.000185068 0.000289169 0.000416403 0.000566771 0.000740272 0.000940038 0.0011692 0.00142776 0.00171572 0.00203308 0.00237984 0.00275599 0.00316154 0.00358693 0.00402263 0.00446863 0.00492492 0.00539151 0.0058684 0.00635559 0.00685308 0.00735165 0.0078421 0.00832442 0.00879861 0.00926467 0.0097226 0.0101724 0.0106141 0.011043 0.0114546 0.0118489 0.0122258 0.0125854 0.0129277 0.0132526 0.0135602 0.0138498 0.0141208 0.0143732 0.014607 0.0148221 0.0150187 0.0151967 0.015356 0.0154983 0.0156252 0.0157365 0.0158323 0.0159126 0.0159775 0.0160268 0.0160607 0.0160809 0.0160893 0.0160859 0.0160707 0.0160437 0.016005 0.0159544 0.015892 0.0158187 0.0157354 0.0156421 0.0155387 0.0154254 0.0153021 0.0151687 0.0150253 0.0148717 0.0147078 0.0145335 0.0143488 0.0141538 0.0139484 0.0137326 0.0135064 0.0132696 0.0130217 0.0127629 0.012493 0.0122122 0.0119203 0.0116174 0.0113035 0.0109796 0.0106466 0.0103046 0.00995354 0.00959343 0.00922427 0.00884607 0.00845882 0.00806606 0.00767133 0.00727464 0.00687599 0.00647536 0.00607278 0.00566823 0.00526171 0.00485968 0.0044686 0.00408846 0.00371927 0.00336103 0.00301373 0.00267738 0.00235197 0.00204365 0.00175857 0.00149673 0.00125813 0.00104277 0.000850646 0.000681761 0.000536113 0.000410462 0.000301564 0.000209419 0.000134028 7.53909e-05 3.35071e-05 8.37677e-06 0 0 1.36813e-05 5.47252e-05 0.000123132 0.000218901 0.000342033 0.000492527 0.000670384 0.000875604 0.00111143 0.00138111 0.00168464 0.00202203 0.00239326 0.00279835 0.00323729 0.00371008 0.00420567 0.004713 0.00523206 0.00576286 0.0063054 0.00685968 0.00742569 0.00800344 0.00858237 0.00915191 0.00971206 0.0102628 0.0108042 0.0113362 0.0118588 0.012372 0.0128705 0.013349 0.0138074 0.0142459 0.0146643 0.0150627 0.015441 0.0157994 0.0161369 0.0164529 0.0167473 0.0170201 0.0172714 0.0175012 0.0177093 0.0178959 0.0180627 0.0182114 0.0183421 0.0184548 0.0185494 0.018626 0.0186845 0.018725 0.0187495 0.0187602 0.0187571 0.0187402 0.0187094 0.0186649 0.0186065 0.0185343 0.0184492 0.0183525 0.018244 0.0181237 0.0179917 0.0178479 0.0176924 0.0175251 0.0173459 0.0171546 0.0169512 0.0167357 0.0165081 0.0162683 0.0160165 0.0157525 0.0154761 0.015187 0.0148851 0.0145704 0.0142429 0.0139027 0.0135497 0.0131839 0.0128065 0.0124187 0.0120205 0.0116118 0.0111927 0.0107631 0.0103231 0.00987264 0.00941584 0.00895679 0.00849547 0.00803189 0.00756605 0.00709795 0.00662759 0.00615497 0.00568748 0.00523254 0.00479013 0.00436026 0.00394293 0.00353813 0.00314587 0.00276615 0.0024061 0.00207285 0.0017664 0.00148675 0.00123391 0.00100786 0.000808616 0.000636172 0.000487069 0.000357847 0.000248505 0.000159043 8.94617e-05 3.97608e-05 9.94019e-06 0 0 1.59976e-05 6.39904e-05 0.000143978 0.000255962 0.00039994 0.000575914 0.000783883 0.00102385 0.00129911 0.00161296 0.00196541 0.00235646 0.0027861 0.00325434 0.00376118 0.00430661 0.00487796 0.00546257 0.00606042 0.00667152 0.00729587 0.00793346 0.00858431 0.00924841 0.00991376 0.0105684 0.0112123 0.0118454 0.0124678 0.0130795 0.0136804 0.0142706 0.014844 0.0153945 0.0159221 0.0164268 0.0169087 0.0173676 0.0178036 0.0182167 0.018606 0.0189706 0.0193104 0.0196255 0.0199159 0.0201815 0.0204224 0.0206386 0.0208319 0.0210045 0.0211563 0.0212873 0.0213975 0.0214869 0.0215555 0.0216033 0.0216326 0.021646 0.0216433 0.0216246 0.0215899 0.0215392 0.0214725 0.0213897 0.0212921 0.0211809 0.021056 0.0209175 0.0207653 0.0205995 0.02042 0.020227 0.02002 0.0197991 0.0195643 0.0193154 0.0190525 0.0187756 0.0184848 0.01818 0.0178608 0.017527 0.0171785 0.0168154 0.0164376 0.0160451 0.015638 0.0152162 0.0147811 0.0143342 0.0138752 0.0134044 0.0129216 0.0124269 0.0119203 0.0114018 0.010876 0.0103476 0.00981664 0.00928312 0.00874702 0.00820835 0.00766711 0.00712329 0.0065853 0.00606153 0.00555197 0.00505664 0.00457553 0.00410864 0.00365597 0.00321752 0.00280148 0.00241604 0.00206121 0.00173698 0.00144335 0.00118033 0.000947902 0.000746081 0.000571218 0.00041967 0.000291438 0.00018652 0.000104918 4.663e-05 1.16575e-05 0 0 1.85156e-05 7.40626e-05 0.000166641 0.00029625 0.000462891 0.000666563 0.000907267 0.001185 0.00150307 0.00186476 0.00227008 0.00271903 0.00321161 0.00374782 0.00432766 0.00495112 0.00560382 0.00627134 0.0069537 0.00765089 0.00836291 0.00908977 0.00983145 0.010588 0.0113458 0.0120915 0.012825 0.0135463 0.0142555 0.0149525 0.0156374 0.01631 0.0169636 0.0175913 0.018193 0.0187687 0.0193185 0.0198424 0.0203403 0.0208122 0.0212571 0.0216739 0.0220626 0.0224231 0.0227555 0.0230598 0.0233359 0.023584 0.0238061 0.0240044 0.024179 0.0243298 0.0244569 0.0245602 0.0246397 0.0246955 0.0247303 0.0247466 0.0247445 0.0247241 0.0246852 0.024628 0.0245524 0.0244584 0.0243473 0.0242206 0.0240782 0.02392 0.0237462 0.0235568 0.0233516 0.0231307 0.022894 0.0226413 0.0223726 0.0220878 0.0217871 0.0214703 0.0211375 0.0207887 0.0204235 0.0200417 0.0196432 0.019228 0.0187961 0.0183476 0.0178823 0.0174004 0.0169034 0.0163929 0.0158689 0.0153313 0.0147803 0.0142158 0.0136377 0.0130462 0.0124464 0.0118437 0.0112382 0.0106297 0.0100183 0.009404 0.0087868 0.00816669 0.00755313 0.00695556 0.00637399 0.00580842 0.00525884 0.00472525 0.00420766 0.00370607 0.00322979 0.00278816 0.00238116 0.00200881 0.00167111 0.00136804 0.00109962 0.000865838 0.000662908 0.000487034 0.000338218 0.00021646 0.000121759 5.41149e-05 1.35287e-05 0 0 2.11933e-05 8.47732e-05 0.00019074 0.000339093 0.000529832 0.000762959 0.00103847 0.00135637 0.0017199 0.0021323 0.00259358 0.00310373 0.00366275 0.00427064 0.00492741 0.00563304 0.00637134 0.00712609 0.00789729 0.00868493 0.00948903 0.0103096 0.0111466 0.012 0.0128548 0.013696 0.0145235 0.0153373 0.0161374 0.0169239 0.0176967 0.0184559 0.0191936 0.0199022 0.0205817 0.021232 0.0218532 0.0224453 0.0230082 0.023542 0.0240454 0.0245171 0.0249572 0.0253655 0.0257423 0.0260873 0.0264007 0.0266825 0.0269349 0.0271605 0.0273593 0.0275311 0.0276761 0.0277943 0.0278856 0.02795 0.0279905 0.0280102 0.0280089 0.0279868 0.0279437 0.0278797 0.0277949 0.0276891 0.027564 0.0274211 0.0272602 0.0270816 0.026885 0.0266707 0.0264384 0.0261883 0.0259203 0.025634 0.0253297 0.0250071 0.0246665 0.0243076 0.0239307 0.0235355 0.0231219 0.0226895 0.0222384 0.0217684 0.0212796 0.020772 0.0202457 0.0197005 0.0191384 0.0185611 0.0179686 0.017361 0.0167383 0.0161004 0.0154473 0.0147791 0.0141017 0.013421 0.0127371 0.0120499 0.0113595 0.0106658 0.00996882 0.00926861 0.00857567 0.00790057 0.00724328 0.00660381 0.00598217 0.00537835 0.00479235 0.00422418 0.00368434 0.00318337 0.00272125 0.002298 0.0019136 0.00156806 0.00126138 0.00099356 0.000760695 0.000558878 0.00038811 0.00024839 0.000139719 6.20975e-05 1.55244e-05 0 0 2.39884e-05 9.59538e-05 0.000215896 0.000383815 0.000599711 0.000863584 0.00117543 0.00153526 0.0019462 0.00241139 0.00293083 0.00350453 0.00413247 0.00481467 0.00555111 0.00634181 0.00716866 0.00801357 0.00887655 0.00975759 0.0106567 0.0115738 0.0125091 0.0134623 0.0144171 0.0153565 0.0162808 0.0171899 0.0180837 0.0189623 0.0198257 0.0206739 0.0214983 0.0222903 0.0230499 0.0237771 0.0244719 0.0251343 0.0257644 0.026362 0.0269258 0.0274544 0.0279476 0.0284055 0.0288281 0.0292155 0.0295675 0.0298843 0.0301683 0.0304223 0.0306462 0.0308401 0.0310039 0.0311376 0.0312412 0.0313148 0.0313616 0.0313849 0.0313846 0.0313609 0.0313137 0.031243 0.0311487 0.031031 0.0308914 0.0307318 0.030552 0.0303521 0.0301322 0.0298921 0.0296319 0.0293516 0.0290511 0.0287302 0.0283889 0.0280273 0.0276454 0.027243 0.0268203 0.0263773 0.0259136 0.0254289 0.0249232 0.0243966 0.023849 0.0232805 0.0226909 0.0220804 0.0214511 0.0208048 0.0201417 0.0194618 0.0187651 0.0180515 0.0173211 0.0165739 0.0158164 0.0150553 0.0142905 0.0135222 0.0127502 0.0119746 0.0111953 0.0104125 0.00963763 0.00888245 0.00814693 0.00743106 0.00673487 0.00605833 0.00540146 0.00476424 0.00415846 0.00359587 0.00307647 0.00260026 0.00216725 0.00177743 0.0014308 0.00112736 0.000863136 0.000634141 0.000440376 0.00028184 0.000158535 7.04601e-05 1.7615e-05 0 0 2.69011e-05 0.000107604 0.00024211 0.000430418 0.000672527 0.000968439 0.00131815 0.00172167 0.00218197 0.00270203 0.00328185 0.00392144 0.00462079 0.0053799 0.00619878 0.00707741 0.00799577 0.00893379 0.00989149 0.0108689 0.0118659 0.0128826 0.013919 0.014975 0.0160325 0.0170732 0.018097 0.0191041 0.0200943 0.0210677 0.0220243 0.0229641 0.0238776 0.0247554 0.0255975 0.0264039 0.0271746 0.0279096 0.0286088 0.0292724 0.0298985 0.0304857 0.0310338 0.031543 0.0320131 0.0324442 0.0328363 0.0331894 0.0335063 0.0337898 0.0340399 0.0342566 0.03444 0.03459 0.0347067 0.0347899 0.0348434 0.0348707 0.0348717 0.0348466 0.0347952 0.0347176 0.0346138 0.0344838 0.0343295 0.0341527 0.0339535 0.0337318 0.0334877 0.0332211 0.032932 0.0326205 0.0322865 0.0319298 0.0315504 0.0311484 0.0307238 0.0302765 0.0298066 0.029314 0.0287985 0.0282597 0.0276978 0.0271127 0.0265044 0.0258729 0.0252182 0.0245403 0.0238415 0.0231242 0.0223883 0.0216338 0.0208608 0.0200692 0.0192591 0.0184304 0.0175905 0.0167465 0.0158985 0.0150465 0.0141905 0.0133304 0.0124664 0.0115983 0.010739 0.00990121 0.00908493 0.00829017 0.00751692 0.00676518 0.00603497 0.00532626 0.00465214 0.00402566 0.00344682 0.00291562 0.00243206 0.00199615 0.00160787 0.00126724 0.000970232 0.000712824 0.000495017 0.000316811 0.000178206 7.92026e-05 1.98007e-05 0 0 2.99312e-05 0.000119725 0.000269381 0.0004789 0.000748281 0.00107752 0.00146663 0.0019156 0.0024272 0.00300422 0.00364664 0.00435446 0.0051277 0.00596634 0.0068704 0.00783986 0.00885266 0.00988674 0.0109421 0.0120187 0.0131166 0.0142358 0.0153763 0.016538 0.0177012 0.0188459 0.0199721 0.0210799 0.0221692 0.0232401 0.0242925 0.0253265 0.0263317 0.0272977 0.0282247 0.0291126 0.0299613 0.030771 0.0315415 0.032273 0.0329635 0.0336111 0.034216 0.034778 0.0352972 0.0357735 0.0362071 0.0365978 0.0369487 0.0372629 0.0375403 0.0377808 0.0379847 0.0381517 0.038282 0.0383754 0.038436 0.0384676 0.0384702 0.0384437 0.0383882 0.0383038 0.0381903 0.0380478 0.0378783 0.037684 0.0374647 0.0372206 0.0369516 0.0366576 0.0363388 0.0359951 0.0356265 0.0352328 0.0348141 0.0343704 0.0339017 0.033408 0.0328893 0.0323456 0.0317766 0.0311821 0.0305621 0.0299167 0.0292457 0.0285493 0.0278274 0.02708 0.0263097 0.0255191 0.0247081 0.0238769 0.0230253 0.0221535 0.0212613 0.0203488 0.0194239 0.0184946 0.0175609 0.0166228 0.0156803 0.0147333 0.0137819 0.0128261 0.0118798 0.0109569 0.0100573 0.00918112 0.00832833 0.00749891 0.00669288 0.00591023 0.00516538 0.00447273 0.00383229 0.00324406 0.00270804 0.00222422 0.00179261 0.0014132 0.00108198 0.000794926 0.000552032 0.000353301 0.000198732 8.83251e-05 2.20813e-05 0 0 3.30789e-05 0.000132316 0.00029771 0.000529262 0.000826972 0.00119084 0.00162086 0.00211705 0.0026819 0.00331795 0.00402518 0.0048036 0.0056532 0.00657399 0.00756597 0.00862914 0.00973934 0.0108724 0.0120284 0.0132072 0.0144089 0.0156335 0.016881 0.0181514 0.0194231 0.0206747 0.0219061 0.0231174 0.0243085 0.0254795 0.0266304 0.0277611 0.0288604 0.0299172 0.0309314 0.031903 0.0328321 0.0337186 0.0345625 0.0353639 0.0361206 0.0368306 0.0374939 0.0381105 0.0386803 0.0392035 0.0396799 0.0401096 0.0404958 0.0408417 0.0411473 0.0414127 0.0416377 0.0418225 0.0419671 0.0420713 0.0421394 0.0421756 0.0421799 0.0421523 0.0420928 0.0420014 0.041878 0.0417227 0.0415378 0.0413254 0.0410856 0.0408184 0.0405238 0.0402017 0.0398523 0.0394754 0.039071 0.0386393 0.03818 0.0376933 0.0371792 0.0366376 0.0360686 0.0354721 0.0348479 0.0341959 0.0335161 0.0328085 0.032073 0.0313097 0.0305186 0.0296996 0.0288556 0.0279896 0.0271014 0.0261911 0.0252587 0.0243043 0.0233277 0.022329 0.0213168 0.0202997 0.0192779 0.0182512 0.0172196 0.0161832 0.015142 0.0140959 0.01306 0.0120494 0.011064 0.0101039 0.00916909 0.00825952 0.00737521 0.00651616 0.00569818 0.0049371 0.0042329 0.00358559 0.00299517 0.00246164 0.001985 0.00156524 0.00119839 0.000880448 0.000611423 0.00039131 0.000220112 9.78276e-05 2.44569e-05 0 0 3.6344e-05 0.000145376 0.000327096 0.000581504 0.0009086 0.00130838 0.00178086 0.00232602 0.00294607 0.00364323 0.00441748 0.00526884 0.00619729 0.00720285 0.00828551 0.00944527 0.0106558 0.0118908 0.0131503 0.0144343 0.0157428 0.0170757 0.0184331 0.019815 0.0211982 0.0225595 0.023899 0.0252165 0.0265122 0.0277859 0.0290378 0.0302678 0.0314639 0.0326138 0.0337176 0.034775