<?xml version="1.0"?> 
<VTKFile type="StructuredGrid" version="0.1"> 
<StructuredGrid WholeExtent="0 128 0 128 0 0"> 
<Piece Extent="0 128 0 128 0 0"> 
<PointData>
<DataArray type="Float32" Name="u" format="ascii" NumberOfComponents="1"> 
0 0 0 0 0 0 0 0 0 0 0 0 0 0 0 0 0 0 0 0 0 0 0 0 0 0 0 0 0 0 0 0 0 0 0 0 0 0 0 0 0 0 0 0 0 0 0 0 0 0 0 0 0 0 0 0 0 0 0 0 0 0 0 0 0 0 0 0 0 0 0 0 0 0 0 0 0 0 0 0 0 0 0 0 0 0 0 0 0 0 0 0 0 0 0 0 0 0 0 0 0 0 0 0 0 0 0 0 0 0 0 0 0 0 0 0 0 0 0 0 0 0 0 0 0 0 0 0 0 0 6.03023e-08 2.41209e-07 5.42721e-07 9.64837e-07 1.50756e-06 2.17088e-06 2.95481e-06 3.85935e-06 4.91158e-06 6.13859e-06 7.54038e-06 9.11695e-06 1.08683e-05 1.27944e-05 1.48954e-05 1.71711e-05 1.95726e-05 2.20509e-05 2.46061e-05 2.72381e-05 2.99469e-05 3.27326e-05 3.55951e-05 3.85344e-05 4.14988e-05 4.44363e-05 4.73472e-05 5.02312e-05 5.30885e-05 5.5919e-05 5.87228e-05 6.14998e-05 6.42193e-05 6.68506e-05 6.93937e-05 7.18486e-05 7.42154e-05 7.64939e-05 7.86843e-05 8.07865e-05 8.27878e-05 8.46757e-05 8.64501e-05 8.81111e-05 8.96587e-05 9.10928e-05 9.24134e-05 9.36206e-05 9.4714e-05 9.56931e-05 9.65581e-05 9.73087e-05 9.79452e-05 9.84674e-05 9.88754e-05 9.91691e-05 9.93548e-05 9.94385e-05 9.94201e-05 9.92998e-05 9.90775e-05 9.87532e-05 9.83269e-05 9.77986e-05 9.71767e-05 9.64695e-05 9.56772e-05 9.47997e-05 9.38369e-05 9.27889e-05 9.16557e-05 9.04373e-05 8.91425e-05 8.77802e-05 8.63503e-05 8.48529e-05 8.32879e-05 8.16555e-05 7.99554e-05 7.81879e-05 7.63627e-05 7.44899e-05 7.25694e-05 7.06013e-05 6.85855e-05 6.65221e-05 6.4411e-05 6.22523e-05 6.00594e-05 5.78458e-05 5.56115e-05 5.33565e-05 5.10809e-05 4.87845e-05 4.64674e-05 4.41297e-05 4.17915e-05 3.9473e-05 3.71744e-05 3.48955e-05 3.26364e-05 3.0397e-05 2.81775e-05 2.59777e-05 2.38266e-05 2.17531e-05 1.97573e-05 1.78391e-05 1.59986e-05 1.42357e-05 1.25504e-05 1.09428e-05 9.43554e-06 8.05148e-06 6.79059e-06 5.65288e-06 4.63833e-06 3.74696e-06 2.97877e-06 2.33375e-06 1.78677e-06 1.31273e-06 9.11619e-07 5.83436e-07 3.28183e-07 1.45859e-07 3.64648e-08 0 0 2.41209e-07 9.64837e-07 2.17088e-06 3.85935e-06 6.03023e-06 8.68353e-06 1.18193e-05 1.54374e-05 1.96463e-05 2.45543e-05 3.01615e-05 3.64678e-05 4.34732e-05 5.11778e-05 5.95814e-05 6.86842e-05 7.82903e-05 8.82036e-05 9.84243e-05 0.000108952 0.000119788 0.00013093 0.00014238 0.000154138 0.000165995 0.000177745 0.000189389 0.000200925 0.000212354 0.000223676 0.000234891 0.000245999 0.000256877 0.000267402 0.000277575 0.000287395 0.000296862 0.000305976 0.000314737 0.000323146 0.000331151 0.000338703 0.000345801 0.000352445 0.000358635 0.000364371 0.000369654 0.000374483 0.000378856 0.000382773 0.000386232 0.000389235 0.000391781 0.00039387 0.000395502 0.000396677 0.000397419 0.000397754 0.00039768 0.000397199 0.00039631 0.000395013 0.000393307 0.000391194 0.000388707 0.000385878 0.000382709 0.000379199 0.000375348 0.000371156 0.000366623 0.000361749 0.00035657 0.000351121 0.000345401 0.000339412 0.000333152 0.000326622 0.000319822 0.000312751 0.000305451 0.00029796 0.000290278 0.000282405 0.000274342 0.000266088 0.000257644 0.000249009 0.000240238 0.000231383 0.000222446 0.000213426 0.000204323 0.000195138 0.00018587 0.000176519 0.000167166 0.000157892 0.000148697 0.000139582 0.000130545 0.000121588 0.00011271 0.000103911 9.53063e-05 8.70125e-05 7.90293e-05 7.13566e-05 6.39944e-05 5.69428e-05 5.02017e-05 4.37711e-05 3.77422e-05 3.22059e-05 2.71624e-05 2.26115e-05 1.85533e-05 1.49879e-05 1.19151e-05 9.33498e-06 7.1471e-06 5.25093e-06 3.64648e-06 2.33375e-06 1.31273e-06 5.83436e-07 1.45859e-07 0 0 5.42721e-07 2.17088e-06 4.88449e-06 8.68353e-06 1.3568e-05 1.95379e-05 2.65933e-05 3.47341e-05 4.42042e-05 5.52473e-05 6.78634e-05 8.20525e-05 9.78147e-05 0.00011515 0.000134058 0.00015454 0.000176153 0.000198458 0.000221455 0.000245143 0.000269522 0.000294593 0.000320356 0.00034681 0.000373489 0.000399927 0.000426125 0.000452081 0.000477797 0.000503271 0.000528505 0.000553498 0.000577974 0.000601655 0.000624543 0.000646638 0.000667938 0.000688445 0.000708159 0.000727078 0.00074509 0.000762081 0.000778051 0.000793 0.000806928 0.000819835 0.000831721 0.000842586 0.000852426 0.000861238 0.000869022 0.000875779 0.000881507 0.000886207 0.000889878 0.000892522 0.000894193 0.000894946 0.000894781 0.000893698 0.000891697 0.000888778 0.000884942 0.000880187 0.00087459 0.000868226 0.000861095 0.000853197 0.000844532 0.0008351 0.000824901 0.000813936 0.000802283 0.000790022 0.000777153 0.000763676 0.000749592 0.000734899 0.000719599 0.000703691 0.000687264 0.000670409 0.000653125 0.000635412 0.00061727 0.000598699 0.000579699 0.000560271 0.000540535 0.000520612 0.000500504 0.000480209 0.000459728 0.00043906 0.000418207 0.000397167 0.000376123 0.000355257 0.000334569 0.000314059 0.000293727 0.000273573 0.000253597 0.000233799 0.000214439 0.000195778 0.000177816 0.000160552 0.000143987 0.000128121 0.000112954 9.8485e-05 8.49199e-05 7.24633e-05 6.11153e-05 5.08759e-05 4.1745e-05 3.37227e-05 2.68089e-05 2.10037e-05 1.6081e-05 1.18146e-05 8.20457e-06 5.25093e-06 2.95365e-06 1.31273e-06 3.28183e-07 0 0 9.64837e-07 3.85935e-06 8.68353e-06 1.54374e-05 2.41209e-05 3.47341e-05 4.7277e-05 6.17496e-05 7.85852e-05 9.82174e-05 0.000120646 0.000145871 0.000173893 0.000204711 0.000238326 0.000274737 0.000313161 0.000352814 0.000393697 0.000435809 0.000479151 0.000523721 0.000569521 0.00061655 0.00066398 0.000710982 0.000757555 0.0008037 0.000849416 0.000894705 0.000939565 0.000983996 0.00102751 0.00106961 0.0011103 0.00114958 0.00118745 0.0012239 0.00125895 0.00129258 0.0013246 0.00135481 0.0013832 0.00140978 0.00143454 0.00145748 0.00147862 0.00149793 0.00151542 0.00153109 0.00154493 0.00155694 0.00156712 0.00157548 0.00158201 0.00158671 0.00158968 0.00159102 0.00159072 0.0015888 0.00158524 0.00158005 0.00157323 0.00156478 0.00155483 0.00154351 0.00153084 0.00151679 0.00150139 0.00148462 0.00146649 0.001447 0.00142628 0.00140448 0.0013816 0.00135765 0.00133261 0.00130649 0.00127929 0.00125101 0.0012218 0.00119184 0.00116111 0.00112962 0.00109737 0.00106435 0.00103058 0.000996037 0.00096095 0.000925533 0.000889784 0.000853704 0.000817294 0.000780552 0.000743479 0.000706075 0.000668663 0.000631568 0.00059479 0.000558328 0.000522182 0.000486352 0.000450839 0.000415643 0.000381225 0.00034805 0.000316117 0.000285426 0.000255978 0.000227771 0.000200807 0.000175084 0.000150969 0.000128824 0.000108649 9.0446e-05 7.42133e-05 5.99514e-05 4.76603e-05 3.73399e-05 2.85884e-05 2.10037e-05 1.45859e-05 9.33498e-06 5.25093e-06 2.33375e-06 5.83436e-07 0 0 1.50756e-06 6.03023e-06 1.3568e-05 2.41209e-05 3.76889e-05 5.42721e-05 7.38703e-05 9.64837e-05 0.000122789 0.000153465 0.000188509 0.000227924 0.000271708 0.000319861 0.000372384 0.000429276 0.000489314 0.000551273 0.000615152 0.000680952 0.000748673 0.000818314 0.000889877 0.00096336 0.00103747 0.00111091 0.00118368 0.00125578 0.00132721 0.00139798 0.00146807 0.00153749 0.00160548 0.00167126 0.00173484 0.00179622 0.00185538 0.00191235 0.00196711 0.00201966 0.0020697 0.00211689 0.00216125 0.00220278 0.00224147 0.00227732 0.00231034 0.00234052 0.00236785 0.00239233 0.00241395 0.00243272 0.00244863 0.00246168 0.00247188 0.00247923 0.00248387 0.00248596 0.0024855 0.00248249 0.00247694 0.00246883 0.00245817 0.00244496 0.00242942 0.00241174 0.00239193 0.00236999 0.00234592 0.00231972 0.00229139 0.00226093 0.00222856 0.0021945 0.00215876 0.00212132 0.0020822 0.00204139 0.00199889 0.0019547 0.00190907 0.00186225 0.00181424 0.00176503 0.00171464 0.00166305 0.00161028 0.00155631 0.00150148 0.00144614 0.00139029 0.00133391 0.00127702 0.00121961 0.00116169 0.00110324 0.00104479 0.000986826 0.000929359 0.000872387 0.000815909 0.000759926 0.000704436 0.000649442 0.000595665 0.000543828 0.000493933 0.000445979 0.000399965 0.000355892 0.00031376 0.000273569 0.000235889 0.000201287 0.000169765 0.000141322 0.000115958 9.36741e-05 7.44692e-05 5.83436e-05 4.46693e-05 3.28183e-05 2.27905e-05 1.45859e-05 8.20457e-06 3.64648e-06 9.11619e-07 0 0 2.17088e-06 8.68353e-06 1.95379e-05 3.47341e-05 5.42721e-05 7.81518e-05 0.000106373 0.000138937 0.000176817 0.000220989 0.000271454 0.00032821 0.000391259 0.0004606 0.000536233 0.000618158 0.000704612 0.000793833 0.000885819 0.000980571 0.00107809 0.00117837 0.00128142 0.00138724 0.00149396 0.00159971 0.0017045 0.00180832 0.00191119 0.00201309 0.00211402 0.00221399 0.00231189 0.00240662 0.00249817 0.00258655 0.00267175 0.00275378 0.00283263 0.00290831 0.00298036 0.00304833 0.00311221 0.003172 0.00322771 0.00327934 0.00332688 0.00337034 0.0034097 0.00344495 0.00347609 0.00350311 0.00352603 0.00354483 0.00355951 0.00357009 0.00357677 0.00357978 0.00357912 0.00357479 0.00356679 0.00355511 0.00353977 0.00352075 0.00349836 0.0034729 0.00344438 0.00341279 0.00337813 0.0033404 0.00329961 0.00325574 0.00320913 0.00316009 0.00310861 0.0030547 0.00299837 0.0029396 0.0028784 0.00281476 0.00274906 0.00268164 0.0026125 0.00254165 0.00246908 0.0023948 0.0023188 0.00224108 0.00216214 0.00208245 0.00200201 0.00192084 0.00183891 0.00175624 0.00167283 0.00158867 0.00150449 0.00142103 0.00133828 0.00125624 0.00117491 0.00109429 0.00101439 0.000935196 0.000857757 0.000783113 0.000711264 0.000642209 0.00057595 0.000512485 0.000451815 0.00039394 0.00033968 0.000289853 0.000244461 0.000203504 0.00016698 0.000134891 0.000107236 8.40148e-05 6.43239e-05 4.72583e-05 3.28183e-05 2.10037e-05 1.18146e-05 5.25093e-06 1.31273e-06 0 0 2.95481e-06 1.18193e-05 2.65933e-05 4.7277e-05 7.38703e-05 0.000106373 0.000144786 0.000189108 0.000240667 0.000300791 0.000369478 0.000446731 0.000532547 0.000626928 0.000729873 0.000841382 0.000959056 0.00108049 0.0012057 0.00133467 0.0014674 0.0016039 0.00174416 0.00188819 0.00203344 0.00217738 0.00232001 0.00246133 0.00260134 0.00274003 0.00287742 0.00301349 0.00314674 0.00327568 0.00340029 0.00352058 0.00363655 0.0037482 0.00385553 0.00395854 0.0040566 0.00414911 0.00423606 0.00431745 0.00439328 0.00446355 0.00452826 0.00458741 0.00464099 0.00468896 0.00473134 0.00476813 0.00479931 0.0048249 0.00484489 0.00485929 0.00486838 0.00487248 0.00487159 0.00486569 0.0048548 0.0048389 0.00481802 0.00479213 0.00476166 0.00472701 0.00468818 0.00464518 0.00459801 0.00454666 0.00449113 0.00443143 0.00436798 0.00430123 0.00423117 0.00415779 0.00408111 0.00400112 0.00391782 0.00383121 0.00374177 0.00365 0.0035559 0.00345946 0.00336069 0.00325958 0.00315614 0.00305036 0.00294291 0.00283444 0.00272496 0.00261447 0.00250296 0.00239044 0.0022769 0.00216235 0.00204778 0.00193418 0.00182154 0.00170988 0.00159918 0.00148945 0.0013807 0.00127291 0.0011675 0.0010659 0.000968109 0.000874118 0.000783931 0.000697549 0.00061497 0.000536196 0.000462342 0.000394523 0.000332739 0.000276991 0.000227278 0.000183601 0.00014596 0.000114354 8.75519e-05 6.43239e-05 4.46693e-05 2.85884e-05 1.6081e-05 7.1471e-06 1.78677e-06 0 0 3.85935e-06 1.54374e-05 3.47341e-05 6.17496e-05 9.64837e-05 0.000138937 0.000189108 0.000246998 0.000314341 0.000392869 0.000482584 0.000583485 0.000695571 0.000818844 0.000953303 0.00109895 0.00125264 0.00141126 0.00157479 0.00174324 0.0019166 0.00209488 0.00227808 0.0024662 0.00265592 0.00284393 0.00303022 0.0032148 0.00339767 0.00357882 0.00375826 0.00393599 0.00411003 0.00427844 0.0044412 0.00459831 0.00474978 0.00489561 0.00503579 0.00517033 0.00529842 0.00541924 0.00553281 0.00563911 0.00573816 0.00582994 0.00591446 0.00599172 0.0060617 0.00612436 0.00617972 0.00622776 0.00626849 0.00630191 0.00632802 0.00634683 0.00635871 0.00636406 0.00636289 0.00635519 0.00634096 0.0063202 0.00629292 0.00625911 0.00621931 0.00617405 0.00612334 0.00606718 0.00600556 0.00593849 0.00586597 0.00578799 0.00570512 0.00561793 0.00552642 0.00543059 0.00533043 0.00522595 0.00511715 0.00500402 0.00488721 0.00476735 0.00464444 0.00451848 0.00438947 0.00425741 0.00412231 0.00398415 0.0038438 0.00370213 0.00355914 0.00341482 0.00326917 0.00312221 0.00297392 0.0028243 0.00267465 0.00252627 0.00237916 0.00223331 0.00208873 0.00194541 0.00180336 0.00166257 0.0015249 0.0013922 0.00126447 0.00114171 0.00102391 0.000911084 0.000803227 0.000700338 0.000603875 0.000515295 0.000434598 0.000361784 0.000296853 0.000239806 0.000190641 0.00014936 0.000114354 8.40148e-05 5.83436e-05 3.73399e-05 2.10037e-05 9.33498e-06 2.33375e-06 0 0 4.91443e-06 1.96577e-05 4.42298e-05 7.86308e-05 0.000122861 0.000176919 0.000240807 0.000314523 0.000400212 0.000500016 0.000613936 0.000741971 0.000884122 0.00104039 0.00121077 0.00139527 0.00158992 0.00179076 0.00199779 0.00221102 0.00243043 0.00265603 0.00288783 0.00312582 0.00336581 0.00360365 0.00383931 0.00407281 0.00430414 0.00453331 0.00476031 0.00498514 0.00520533 0.00541838 0.0056243 0.00582309 0.00601474 0.00619927 0.00637666 0.00654692 0.00670902 0.00686194 0.00700568 0.00714024 0.00726562 0.00738182 0.00748884 0.00758668 0.0076753 0.00775467 0.0078248 0.00788567 0.00793729 0.00797966 0.00801278 0.00803665 0.00805177 0.00805862 0.0080572 0.00804752 0.00802958 0.00800337 0.0079689 0.00792616 0.00787584 0.00781861 0.00775448 0.00768343 0.00760548 0.00752063 0.00742886 0.00733019 0.00722533 0.007115 0.00699919 0.00687791 0.00675115 0.00661892 0.00648122 0.00633804 0.0061902 0.00603849 0.00588293 0.00572351 0.00556023 0.00539309 0.00522209 0.00504723 0.0048696 0.0046903 0.00450932 0.00432667 0.00414235 0.00395635 0.00376868 0.00357933 0.00338995 0.00320216 0.00301597 0.00283138 0.00264839 0.002467 0.0022872 0.002109 0.00193473 0.00176673 0.00160499 0.00144952 0.00130031 0.00115737 0.00102069 0.000890277 0.000767973 0.000655623 0.000553229 0.000460789 0.000378304 0.000305773 0.000243197 0.000190576 0.00014591 0.000107199 7.44437e-05 4.7644e-05 2.67997e-05 1.1911e-05 2.97775e-06 0 0 6.14999e-06 2.46e-05 5.53499e-05 9.83998e-05 0.00015375 0.0002214 0.000301349 0.000393599 0.000500655 0.000625021 0.000766699 0.000925688 0.00110199 0.0012956 0.00150652 0.00173475 0.00197542 0.00222364 0.00247941 0.00274273 0.00301361 0.00329204 0.00357802 0.00387156 0.00416754 0.00446084 0.00475148 0.00503945 0.00532474 0.00560737 0.00588733 0.00616462 0.00643619 0.00669898 0.006953 0.00719825 0.00743472 0.00766242 0.00788134 0.0080915 0.00829161 0.00848041 0.0086579 0.00882408 0.00897895 0.00912251 0.00925476 0.00937569 0.00948527 0.00958343 0.00967018 0.00974552 0.00980944 0.00986195 0.00990304 0.00993272 0.00995159 0.00996025 0.00995869 0.00994693 0.00992496 0.00989277 0.00985038 0.00979777 0.00973579 0.00966527 0.00958621 0.00949861 0.00940247 0.00929779 0.00918457 0.00906281 0.0089334 0.00879722 0.00865428 0.00850457 0.0083481 0.00818485 0.00801485 0.00783807 0.00765554 0.00746824 0.00727617 0.00707934 0.00687775 0.00667139 0.00646027 0.00624439 0.00602509 0.00580373 0.00558031 0.00535483 0.00512729 0.00489768 0.00466602 0.00443229 0.00419851 0.0039667 0.00373684 0.00350895 0.00328302 0.00305905 0.00283705 0.00261701 0.00240178 0.00219422 0.00199433 0.00180211 0.00161756 0.00144068 0.00127147 0.00110992 0.000958329 0.000818962 0.000691823 0.000576911 0.000474228 0.000383772 0.000305544 0.000239544 0.000183401 0.000134744 9.3572e-05 5.9886e-05 3.36859e-05 1.49715e-05 3.74288e-06 0 0 7.56603e-06 3.02641e-05 6.80943e-05 0.000121057 0.000189151 0.000272377 0.000370736 0.000484226 0.000615669 0.000767885 0.000940873 0.00113463 0.00134917 0.00158448 0.00184056 0.00211741 0.00240915 0.00270989 0.00301964 0.00333839 0.00366615 0.0040029 0.00434866 0.00470343 0.00506108 0.00541551 0.00576672 0.00611471 0.00645947 0.00680101 0.00713932 0.00747442 0.00780261 0.00812024 0.0084273 0.00872379 0.00900972 0.00928507 0.00954986 0.00980408 0.0100462 0.0102746 0.0104895 0.0106906 0.0108781 0.011052 0.0112122 0.0113588 0.0114916 0.0116106 0.0117159 0.0118073 0.0118849 0.0119488 0.0119988 0.012035 0.0120582 0.012069 0.0120674 0.0120534 0.0120271 0.0119884 0.0119374 0.0118739 0.0117992 0.011714 0.0116186 0.0115127 0.0113965 0.01127 0.0111331 0.0109859 0.0108293 0.0106646 0.0104917 0.0103106 0.0101213 0.00992375 0.00971804 0.00950413 0.00928324 0.00905658 0.00882417 0.00858599 0.00834204 0.00809234 0.00783687 0.00757564 0.00731028 0.00704244 0.00677211 0.00649929 0.00622399 0.0059462 0.00566592 0.00538316 0.00510034 0.00481987 0.00454176 0.00426601 0.00399262 0.00372158 0.00345291 0.00318659 0.00292604 0.00267467 0.00243249 0.00219948 0.00197566 0.00176102 0.00155556 0.00135928 0.00117494 0.00100531 0.00085038 0.000710151 0.000584626 0.000473803 0.000377682 0.000296265 0.000226828 0.000166649 0.000115728 7.40662e-05 4.16622e-05 1.85166e-05 4.62914e-06 0 0 9.16256e-06 3.66503e-05 8.24631e-05 0.000146601 0.000229064 0.000329852 0.000448966 0.000586404 0.000745255 0.000928607 0.00113646 0.00136881 0.00162567 0.00190702 0.00221287 0.00254323 0.0028911 0.00324952 0.00361848 0.00399799 0.00438803 0.00478862 0.00519975 0.00562143 0.00604646 0.00646766 0.00688504 0.00729859 0.00770832 0.00811422 0.00851629 0.00891453 0.00930461 0.00968217 0.0100472 0.0103997 0.0107397 0.0110672 0.0113822 0.0116847 0.0119728 0.0122447 0.0125004 0.0127399 0.0129632 0.0131703 0.0133612 0.0135359 0.0136943 0.0138363 0.0139619 0.014071 0.0141638 0.0142401 0.0143001 0.0143436 0.0143715 0.0143847 0.0143832 0.014367 0.014336 0.0142903 0.0142298 0.0141547 0.0140659 0.0139649 0.0138515 0.0137257 0.0135876 0.0134372 0.0132744 0.0130993 0.0129131 0.0127172 0.0125114 0.0122959 0.0120707 0.0118356 0.0115908 0.0113362 0.0110733 0.0108035 0.0105269 0.0102434 0.00995311 0.00965592 0.00935187 0.00904097 0.00872516 0.00840641 0.0080847 0.00776005 0.00743245 0.0071019 0.0067684 0.00643196 0.00609543 0.00576169 0.00543073 0.00510256 0.00477718 0.00445458 0.00413477 0.00381774 0.00350751 0.00320808 0.00291946 0.00264163 0.00237461 0.00211838 0.00187296 0.00163835 0.00141782 0.00121467 0.0010289 0.000860509 0.000709497 0.000575865 0.000459612 0.000360738 0.00027619 0.000202915 0.000140913 9.01845e-05 5.07288e-05 2.25461e-05 5.63653e-06 0 0 1.09396e-05 4.37583e-05 9.84562e-05 0.000175033 0.000273489 0.000393825 0.000536039 0.000700133 0.000889413 0.00110719 0.00135346 0.00162822 0.00193148 0.00226323 0.00262348 0.00301222 0.00342129 0.00384253 0.00427594 0.00472152 0.00517928 0.0056492 0.00613129 0.00662555 0.00712366 0.00761729 0.00810644 0.0085911 0.00907129 0.009547 0.0100182 0.010485 0.0109422 0.0113848 0.0118127 0.0122261 0.0126248 0.0130089 0.0133784 0.0137332 0.0140713 0.0143904 0.0146906 0.0149718 0.0152341 0.0154774 0.0157017 0.0159071 0.0160934 0.0162604 0.0164082 0.0165367 0.016646 0.016736 0.0168068 0.0168584 0.0168916 0.0169076 0.0169063 0.0168876 0.0168517 0.0167984 0.0167278 0.0166399 0.0165362 0.0164178 0.016285 0.0161377 0.0159758 0.0157995 0.0156086 0.0154032 0.0151848 0.0149549 0.0147135 0.0144606 0.0141963 0.0139205 0.0136331 0.0133343 0.0130257 0.0127091 0.0123844 0.0120517 0.0117109 0.0113621 0.0110053 0.0106404 0.0102697 0.00989565 0.00951811 0.00913712 0.00875268 0.00836479 0.00797346 0.00757867 0.00718379 0.00679215 0.00640375 0.0060186 0.0056367 0.00525805 0.00488264 0.00451047 0.0041462 0.00379445 0.00345524 0.00312855 0.0028144 0.00251278 0.00222368 0.00194712 0.00168695 0.00144704 0.00122738 0.00102798 0.000848843 0.000689959 0.000551333 0.000432963 0.000331487 0.000243542 0.000169126 0.000108241 6.08854e-05 2.70602e-05 6.76505e-06 0 0 1.28971e-05 5.15883e-05 0.000116074 0.000206353 0.000322427 0.000464295 0.000631956 0.000825413 0.00104814 0.00130363 0.00159187 0.00191286 0.0022666 0.00265311 0.00307236 0.00352437 0.0039997 0.00448891 0.00499201 0.005509 0.00603987 0.00658463 0.00714328 0.00771581 0.00829269 0.00886439 0.00943091 0.00999224 0.0105484 0.0110994 0.0116451 0.0121857 0.0127153 0.013228 0.0137238 0.0142028 0.0146648 0.01511 0.0155384 0.0159498 0.0163419 0.016712 0.0170602 0.0173865 0.0176908 0.0179732 0.0182337 0.0184723 0.0186888 0.0188829 0.0190548 0.0192043 0.0193315 0.0194365 0.0195191 0.0195794 0.0196185 0.0196376 0.0196365 0.0196153 0.0195741 0.0195127 0.0194313 0.0193298 0.0192098 0.0190729 0.0189192 0.0187486 0.0185611 0.0183567 0.0181355 0.0178975 0.0176443 0.0173778 0.0170979 0.0168047 0.0164981 0.0161782 0.015845 0.0154984 0.0151405 0.0147733 0.0143967 0.0140108 0.0136155 0.013211 0.0127971 0.0123739 0.011944 0.0115102 0.0110723 0.0106305 0.0101847 0.00973487 0.00928108 0.00882331 0.00836541 0.00791125 0.00746083 0.00701414 0.00657119 0.00613198 0.00569651 0.00526478 0.0048421 0.00443378 0.00403984 0.00366026 0.00329504 0.0029442 0.00260772 0.0022856 0.00198234 0.00170242 0.00144583 0.00121258 0.00100266 0.000816085 0.000652844 0.000512941 0.00039272 0.000288529 0.000200368 0.000128235 7.21323e-05 3.20588e-05 8.0147e-06 0 0 1.5035e-05 6.01402e-05 0.000135315 0.000240561 0.000375876 0.000541262 0.000736717 0.000962243 0.00122144 0.00151792 0.00185169 0.00222273 0.00263105 0.00307665 0.00355953 0.00407969 0.00462633 0.00518867 0.0057667 0.00636042 0.00696982 0.00759492 0.00823571 0.00889219 0.00955355 0.010209 0.0108585 0.011502 0.0121396 0.0127713 0.013397 0.0140168 0.014624 0.0152119 0.0157805 0.0163299 0.0168599 0.0173707 0.0178622 0.0183344 0.0187844 0.0192093 0.0196091 0.0199838 0.0203334 0.0206579 0.0209573 0.0212316 0.0214806 0.0217039 0.0219017 0.0220739 0.0222205 0.0223415 0.0224369 0.0225067 0.0225522 0.0225746 0.0225739 0.0225501 0.0225033 0.0224333 0.0223403 0.0222242 0.0220868 0.0219301 0.0217539 0.0215584 0.0213434 0.0211091 0.0208553 0.0205822 0.0202917 0.0199858 0.0196646 0.0193281 0.0189762 0.018609 0.0182265 0.0178286 0.0174176 0.016996 0.0165637 0.0161207 0.0156669 0.0152025 0.0147273 0.0142415 0.013748 0.0132499 0.0127473 0.0122402 0.0117284 0.0112121 0.0106913 0.0101659 0.00964029 0.00911899 0.00860195 0.00808917 0.00758065 0.00707639 0.0065764 0.00608066 0.00559521 0.00512608 0.00467325 0.00423674 0.00381653 0.00341264 0.00302506 0.00265379 0.00230399 0.0019808 0.00168424 0.00141429 0.00117096 0.000954242 0.000764147 0.000600671 0.000459889 0.000337877 0.000234637 0.000150168 8.44693e-05 3.75419e-05 9.38548e-06 0 0 1.73535e-05 6.9414e-05 0.000156182 0.000277656 0.000433838 0.000624726 0.000850322 0.00111062 0.00140932 0.00175008 0.00213292 0.00255782 0.0030248 0.00353386 0.00408498 0.00467818 0.0053012 0.00594181 0.0066 0.00727577 0.00796913 0.00868007 0.00940859 0.0101547 0.0109062 0.011651 0.0123891 0.0131204 0.0138449 0.0145628 0.0152739 0.0159782 0.0166683 0.0173365 0.0179828 0.0186074 0.01921 0.0197909 0.0203498 0.020887 0.0213989 0.0218824 0.0223374 0.0227639 0.0231619 0.0235314 0.0238724 0.024185 0.0244687 0.0247234 0.0249489 0.0251454 0.0253127 0.025451 0.0255601 0.0256402 0.0256926 0.0257187 0.0257185 0.025692 0.0256392 0.0255601 0.0254548 0.0253231 0.0251673 0.0249893 0.0247892 0.0245671 0.0243228 0.0240564 0.0237679 0.0234573 0.0231269 0.022779 0.0224137 0.0220308 0.0216305 0.0212127 0.0207775 0.0203247 0.0198571 0.0193774 0.0188855 0.0183813 0.0178651 0.0173366 0.016796 0.0162431 0.0156816 0.015115 0.0145431 0.0139661 0.0133839 0.0127966 0.012204 0.0116063 0.0110084 0.0104154 0.00982713 0.00924369 0.00866507 0.00809127 0.00752229 0.00695812 0.00640554 0.00587133 0.00535548 0.00485799 0.00437887 0.00391812 0.00347572 0.00305169 0.0026519 0.0022822 0.00194261 0.00163311 0.00135372 0.00110443 0.000885242 0.000696153 0.000532992 0.000391586 0.000271935 0.000174038 9.78965e-05 4.35096e-05 1.08774e-05 0 0 1.98053e-05 7.92214e-05 0.000178248 0.000316886 0.000495134 0.000712992 0.000970462 0.00126754 0.00160795 0.0019954 0.0024299 0.00291144 0.00344002 0.00401565 0.00463832 0.00530804 0.00601104 0.00673355 0.00747559 0.00823714 0.00901821 0.00981881 0.0106389 0.0114785 0.0123241 0.0131621 0.0139926 0.0148154 0.0156307 0.0164383 0.0172384 0.0180309 0.0188074 0.0195593 0.0202868 0.0209897 0.0216681 0.022322 0.0229514 0.0235563 0.0241329 0.0246775 0.0251901 0.0256707 0.0261193 0.0265358 0.0269204 0.0272729 0.027593 0.0278804 0.028135 0.0283569 0.028546 0.0287024 0.028826 0.0289169 0.0289765 0.0290066 0.029007 0.0289777 0.0289189 0.0288303 0.0287122 0.0285644 0.0283893 0.0281893 0.0279643 0.0277144 0.0274396 0.0271398 0.026815 0.0264654 0.0260934 0.0257016 0.0252902 0.024859 0.0244082 0.0239376 0.0234473 0.0229373 0.0224106 0.0218702 0.021316 0.0207481 0.0201666 0.0195713 0.0189623 0.0183395 0.0177071 0.0170688 0.0164247 0.0157747 0.015119 0.0144574 0.0137901 0.0131169 0.0124435 0.0117755 0.0111129 0.0104556 0.00980379 0.00915733 0.00851625 0.00788056 0.0072578 0.00665552 0.00607372 0.00551239 0.00497154 0.00445117 0.00395127 0.00347185 0.00301953 0.00260094 0.00221606 0.00186492 0.00154749 0.00126379 0.00101382 0.000797563 0.000610634 0.000448629 0.000311548 0.000199391 0.000112157 4.98477e-05 1.24619e-05 0 0 2.23434e-05 8.93738e-05 0.000201091 0.000357495 0.000558586 0.000804364 0.00109483 0.00142998 0.00181353 0.00224919 0.00273696 0.00327685 0.00386884 0.00451295 0.00520916 0.00595749 0.00674259 0.00754915 0.00837715 0.00922661 0.0100975 0.0109899 0.0119037 0.0128389 0.0137807 0.0147139 0.0156388 0.0165551 0.017463 0.0183625 0.0192535 0.020136 0.0210006 0.0218381 0.0226483 0.0234313 0.0241871 0.0249157 0.0256171 0.0262912 0.0269339 0.027541 0.0281125 0.0286484 0.0291487 0.0296133 0.0300424 0.0304359 0.0307933 0.0311142 0.0313987 0.0316466 0.0318581 0.0320331 0.0321716 0.0322736 0.0323408 0.032375 0.0323761 0.0323442 0.0322792 0.0321811 0.03205 0.0318858 0.0316911 0.0314686 0.0312183 0.0309401 0.030634 0.0303002 0.0299384 0.0295489 0.0291344 0.0286979 0.0282394 0.0277588 0.0272563 0.0267318 0.0261853 0.0256168 0.0250296 0.0244271 0.0238094 0.0231763 0.022528 0.0218644 0.0211855 0.0204913 0.0197863 0.0190748 0.0183568 0.0176323 0.0169013 0.0161639 0.0154201 0.0146697 0.0139191 0.0131744 0.0124357 0.0117029 0.0109761 0.0102553 0.00954037 0.00883141 0.00813673 0.00746465 0.00681517 0.00618829 0.00558402 0.00500235 0.00444328 0.00390682 0.00340036 0.00293133 0.00249973 0.00210555 0.00174879 0.00142946 0.00114756 0.000903077 0.000691418 0.000507981 0.000352764 0.000225769 0.000126995 5.64423e-05 1.41106e-05 0 0 2.49678e-05 9.98712e-05 0.00022471 0.000399485 0.000624195 0.000898841 0.00122342 0.00159794 0.00202606 0.00251145 0.00305412 0.00365405 0.00431126 0.00502574 0.0057975 0.00662652 0.00749587 0.0083886 0.0093047 0.0102442 0.011207 0.0121932 0.0132029 0.0142358 0.0152758 0.0163064 0.0173277 0.0183395 0.019342 0.0203352 0.0213189 0.0222933 0.0232481 0.0241728 0.0250675 0.0259323 0.0267671 0.0275719 0.0283467 0.0290916 0.0298018 0.0304727 0.0311044 0.0316969 0.03225 0.0327639 0.0332385 0.0336739 0.0340695 0.0344248 0.0347398 0.0350145 0.0352489 0.035443 0.0355968 0.0357103 0.0357854 0.0358239 0.0358259 0.0357913 0.0357201 0.0356124 0.0354681 0.0352872 0.0350727 0.0348273 0.0345511 0.0342441 0.0339062 0.0335376 0.0331381 0.0327078 0.0322499 0.0317677 0.0312611 0.0307302 0.0301749 0.0295953 0.0289914 0.0283631 0.0277141 0.0270483 0.0263656 0.025666 0.0249495 0.024216 0.0234657 0.0226986 0.0219193 0.021133 0.0203395 0.0195388 0.018731 0.0179161 0.017094 0.0162648 0.0154352 0.0146122 0.0137956 0.0129856 0.0121821 0.0113851 0.0105946 0.00981066 0.00904231 0.0082987 0.00757983 0.0068857 0.00621631 0.00557166 0.00495176 0.00435659 0.00379439 0.00327339 0.0027936 0.00235501 0.00195763 0.00160145 0.00128647 0.00101269 0.000775344 0.000569641 0.000395584 0.000253174 0.00014241 6.32934e-05 1.58233e-05 0 0 2.76784e-05 0.000110714 0.000249106 0.000442855 0.00069196 0.000996423 0.00135624 0.00177142 0.00224554 0.00278218 0.00338136 0.00404306 0.00476729 0.00555405 0.00640333 0.00731514 0.00827087 0.00925189 0.0102582 0.0112898 0.0123467 0.013429 0.0145365 0.0156693 0.0168096 0.0179396 0.0190592 0.0201686 0.0212677 0.0223564 0.0234349 0.024503 0.0255496 0.0265634 0.0275444 0.0284926 0.029408 0.0302906 0.0311405 0.0319575 0.0327367 0.0334728 0.034166 0.0348162 0.0354234 0.0359876 0.0365088 0.036987 0.0374217 0.0378122 0.0381584 0.0384605 0.0387185 0.0389322 0.0391018 0.0392271 0.0393103 0.0393534 0.0393563 0.0393191 0.0392417 0.0391242 0.0389666 0.0387688 0.038534 0.0382653 0.0379628 0.0376264 0.0372561 0.036852 0.036414 0.0359422 0.0354401 0.0349112 0.0343556 0.0337732 0.0331641 0.0325282 0.0318656 0.0311762 0.0304642 0.0297337 0.0289846 0.028217 0.0274308 0.0266261 0.0258029 0.0249612 0.0241062 0.0232434 0.0223728 0.0214943 0.020608 0.0197139 0.0188119 0.0179021 0.0169919 0.0160887 0.0151927 0.0143037 0.0134217 0.0125469 0.011679 0.0108183 0.00997455 0.00915768 0.00836771 0.00760462 0.00686842 0.00615911 0.00547669 0.00482116 0.00420161 0.00362712 0.00309768 0.00261331 0.002174 0.00177974 0.00143055 0.00112642 0.000862412 0.000633609 0.000440006 0.000281604 0.000158402 7.0401e-05 1.76002e-05 0 0 3.04753e-05 0.000121901 0.000274278 0.000487605 0.000761882 0.00109711 0.00149329 0.00195042 0.00247196 0.00306138 0.00371868 0.00444386 0.00523692 0.00609785 0.00702666 0.00802335 0.00906759 0.010139 0.0112377 0.0123636 0.0135167 0.014697 0.0159045 0.0171392 0.018382 0.0196134 0.0208335 0.0220424 0.02324 0.0244263 0.0256013 0.026765 0.0279053 0.0290099 0.0300789 0.0311122 0.0321099 0.0330719 0.0339983 0.034889 0.0357385 0.0365412 0.0372971 0.0380063 0.0386687 0.0392843 0.0398532 0.0403752 0.0408498 0.0412763 0.0416546 0.0419848 0.0422668 0.0425007 0.0426864 0.042824 0.0429156 0.0429634 0.0429674 0.0429276 0.042844 0.0427166 0.0425454 0.0423304 0.042075 0.0417827 0.0414533 0.041087 0.0406837 0.0402435 0.0397662 0.039252 0.0387048 0.0381283 0.0375226 0.0368877 0.0362236 0.0355304 0.0348079 0.0340562 0.0332799 0.0324833 0.0316665 0.0308294 0.0299722 0.0290947 0.028197 0.0272791 0.0263469 0.025406 0.0244567 0.0234988 0.0225323 0.0215573 0.0205737 0.0195816 0.0185891 0.0176041 0.0166268 0.0156571 0.014695 0.0137405 0.0127936 0.0118544 0.0109335 0.0100416 0.00917879 0.00834503 0.00754033 0.00676469 0.00601809 0.00530055 0.00462203 0.0039925 0.00341197 0.00288044 0.0023979 0.00196435 0.0015798 0.00124424 0.000952621 0.000699885 0.000486031 0.00031106 0.000174971 7.7765e-05 1.94412e-05 0 0 3.33584e-05 0.000133434 0.000300226 0.000533735 0.000833961 0.0012009 0.00163456 0.00213494 0.00270534 0.00334905 0.0040661 0.00485646 0.00572015 0.00665716 0.00766749 0.00875114 0.00988602 0.01105 0.0122432 0.0134654 0.0147168 0.0159973 0.017307 0.0186458 0.019993 0.0213279 0.0226505 0