<?xml version="1.0"?> 
<VTKFile type="StructuredGrid" version="0.1"> 
<StructuredGrid WholeExtent="0 128 0 128 0 0"> 
<Piece Extent="0 128 0 128 0 0"> 
<PointData>
<DataArray type="Float32" Name="u" format="ascii" NumberOfComponents="1"> 
0 0 0 0 0 0 0 0 0 0 0 0 0 0 0 0 0 0 0 0 0 0 0 0 0 0 0 0 0 0 0 0 0 0 0 0 0 0 0 0 0 0 0 0 0 0 0 0 0 0 0 0 0 0 0 0 0 0 0 0 0 0 0 0 0 0 0 0 0 0 0 0 0 0 0 0 0 0 0 0 0 0 0 0 0 0 0 0 0 0 0 0 0 0 0 0 0 0 0 0 0 0 0 0 0 0 0 0 0 0 0 0 0 0 0 0 0 0 0 0 0 0 0 0 0 0 0 0 0 0 6.30585e-08 2.52234e-07 5.67527e-07 1.00894e-06 1.57646e-06 2.27011e-06 3.08987e-06 4.03575e-06 5.13453e-06 6.413e-06 7.87116e-06 9.509e-06 1.13265e-05 1.33238e-05 1.55007e-05 1.78573e-05 2.03376e-05 2.28858e-05 2.55017e-05 2.81855e-05 3.09371e-05 3.37564e-05 3.66436e-05 3.95986e-05 4.2565e-05 4.54863e-05 4.83626e-05 5.11938e-05 5.398e-05 5.67212e-05 5.94174e-05 6.20685e-05 6.46461e-05 6.71221e-05 6.94962e-05 7.17685e-05 7.39391e-05 7.60079e-05 7.79749e-05 7.98402e-05 8.15988e-05 8.32459e-05 8.47815e-05 8.62056e-05 8.75182e-05 8.87193e-05 8.98089e-05 9.0787e-05 9.16618e-05 9.24414e-05 9.31258e-05 9.3715e-05 9.4209e-05 9.46079e-05 9.49115e-05 9.512e-05 9.52437e-05 9.52931e-05 9.52683e-05 9.51691e-05 9.49956e-05 9.47479e-05 9.44258e-05 9.40295e-05 9.35646e-05 9.30369e-05 9.24465e-05 9.17934e-05 9.10775e-05 9.02988e-05 8.94574e-05 8.85532e-05 8.75866e-05 8.65577e-05 8.54667e-05 8.43134e-05 8.30979e-05 8.18202e-05 8.04803e-05 7.90781e-05 7.76135e-05 7.60859e-05 7.44955e-05 7.28422e-05 7.1126e-05 6.93469e-05 6.7505e-05 6.56001e-05 6.36393e-05 6.16293e-05 5.95702e-05 5.7462e-05 5.53047e-05 5.30982e-05 5.08426e-05 4.85379e-05 4.62054e-05 4.38665e-05 4.15211e-05 3.91693e-05 3.68111e-05 3.44465e-05 3.20754e-05 2.96979e-05 2.73524e-05 2.50773e-05 2.28726e-05 2.07383e-05 1.86745e-05 1.6681e-05 1.4758e-05 1.29054e-05 1.11575e-05 9.5488e-06 8.07918e-06 6.74868e-06 5.55731e-06 4.50504e-06 3.5919e-06 2.81787e-06 2.15743e-06 1.58505e-06 1.10073e-06 7.04468e-07 3.96263e-07 1.76117e-07 4.40292e-08 0 0 2.52234e-07 1.00894e-06 2.27011e-06 4.03575e-06 6.30585e-06 9.08043e-06 1.23595e-05 1.6143e-05 2.05381e-05 2.5652e-05 3.14846e-05 3.8036e-05 4.53062e-05 5.32951e-05 6.20027e-05 7.14291e-05 8.13505e-05 9.15431e-05 0.000102007 0.000112742 0.000123748 0.000135026 0.000146574 0.000158394 0.00017026 0.000181945 0.00019345 0.000204775 0.00021592 0.000226885 0.000237669 0.000248274 0.000258585 0.000268488 0.000277985 0.000287074 0.000295756 0.000304032 0.0003119 0.000319361 0.000326395 0.000332984 0.000339126 0.000344822 0.000350073 0.000354877 0.000359236 0.000363148 0.000366647 0.000369766 0.000372503 0.00037486 0.000376836 0.000378431 0.000379646 0.00038048 0.000380975 0.000381173 0.000381073 0.000380676 0.000379983 0.000378992 0.000377703 0.000376118 0.000374258 0.000372148 0.000369786 0.000367174 0.00036431 0.000361195 0.00035783 0.000354213 0.000350346 0.000346231 0.000341867 0.000337253 0.000332392 0.000327281 0.000321921 0.000316313 0.000310454 0.000304344 0.000297982 0.000291369 0.000284504 0.000277388 0.00027002 0.0002624 0.000254557 0.000246517 0.000238281 0.000229848 0.000221219 0.000212393 0.00020337 0.000194152 0.000184822 0.000175466 0.000166085 0.000156677 0.000147245 0.000137786 0.000128302 0.000118792 0.00010941 0.000100309 9.14904e-05 8.29533e-05 7.46979e-05 6.67241e-05 5.9032e-05 5.16215e-05 4.46301e-05 3.81952e-05 3.23167e-05 2.69947e-05 2.22292e-05 1.80202e-05 1.43676e-05 1.12715e-05 8.62973e-06 6.34021e-06 4.40292e-06 2.81787e-06 1.58505e-06 7.04468e-07 1.76117e-07 0 0 5.67527e-07 2.27011e-06 5.10774e-06 9.08043e-06 1.41882e-05 2.0431e-05 2.78088e-05 3.63217e-05 4.62107e-05 5.7717e-05 7.08404e-05 8.5581e-05 0.000101939 0.000119914 0.000139506 0.000160716 0.000183039 0.000205972 0.000229516 0.00025367 0.000278434 0.000303808 0.000329793 0.000356387 0.000383085 0.000409377 0.000435263 0.000460745 0.00048582 0.000510491 0.000534756 0.000558616 0.000581815 0.000604098 0.000625466 0.000645917 0.000665452 0.000684071 0.000701774 0.000718562 0.000734389 0.000749213 0.000763033 0.00077585 0.000787664 0.000798474 0.00080828 0.000817083 0.000824956 0.000831972 0.000838132 0.000843435 0.000847881 0.000851471 0.000854204 0.00085608 0.000857193 0.000857638 0.000857414 0.000856522 0.000854961 0.000852731 0.000849832 0.000846265 0.000842081 0.000837332 0.000832019 0.000826141 0.000819697 0.000812689 0.000805117 0.000796979 0.000788279 0.00077902 0.0007692 0.00075882 0.000747881 0.000736382 0.000724322 0.000711703 0.000698521 0.000684773 0.000670459 0.00065558 0.000640134 0.000624122 0.000607545 0.000590401 0.000572753 0.000554664 0.000536132 0.000517158 0.000497742 0.000477884 0.000457583 0.000436841 0.000415849 0.000394798 0.00037369 0.000352524 0.0003313 0.000310018 0.000288679 0.000267281 0.000246172 0.000225696 0.000205853 0.000186645 0.00016807 0.000150129 0.000132822 0.000116148 0.000100418 8.59392e-05 7.27126e-05 6.07382e-05 5.00157e-05 4.05454e-05 3.23271e-05 2.53608e-05 1.94169e-05 1.42655e-05 9.90658e-06 6.34021e-06 3.56637e-06 1.58505e-06 3.96263e-07 0 0 1.00894e-06 4.03575e-06 9.08043e-06 1.6143e-05 2.52234e-05 3.63217e-05 4.94379e-05 6.45719e-05 8.21524e-05 0.000102608 0.000125938 0.000152144 0.000181225 0.00021318 0.000248011 0.000285716 0.000325402 0.000366172 0.000408028 0.000450968 0.000494993 0.000540103 0.000586298 0.000633578 0.00068104 0.000727781 0.000773801 0.000819101 0.000863681 0.00090754 0.000950678 0.000993095 0.00103434 0.00107395 0.00111194 0.0011483 0.00118303 0.00121613 0.0012476 0.00127744 0.00130558 0.00133193 0.0013565 0.00137929 0.00140029 0.00141951 0.00143694 0.00145259 0.00146659 0.00147906 0.00149001 0.00149944 0.00150734 0.00151373 0.00151858 0.00152192 0.0015239 0.00152469 0.00152429 0.00152271 0.00151993 0.00151597 0.00151081 0.00150447 0.00149703 0.00148859 0.00147914 0.00146869 0.00145724 0.00144478 0.00143132 0.00141685 0.00140139 0.00138492 0.00136747 0.00134901 0.00132957 0.00130912 0.00128768 0.00126525 0.00124182 0.00121737 0.00119193 0.00116547 0.00113802 0.00110955 0.00108008 0.0010496 0.00101823 0.000986069 0.000953123 0.000919392 0.000884875 0.000849571 0.000813482 0.000776606 0.000739286 0.000701864 0.000664338 0.00062671 0.000588978 0.000551144 0.000513207 0.000475166 0.000437638 0.000401237 0.000365962 0.000331813 0.000298792 0.000266896 0.000236128 0.000206486 0.00017852 0.000152781 0.000129267 0.000107979 8.89169e-05 7.20807e-05 5.74704e-05 4.5086e-05 3.45189e-05 2.53608e-05 1.76117e-05 1.12715e-05 6.34021e-06 2.81787e-06 7.04468e-07 0 0 1.57646e-06 6.30585e-06 1.41882e-05 2.52234e-05 3.94116e-05 5.67527e-05 7.72467e-05 0.000100894 0.000128363 0.000160325 0.000196779 0.000237725 0.000283163 0.000333094 0.000387517 0.000446432 0.000508441 0.000572145 0.000637543 0.000704638 0.000773427 0.000843911 0.000916091 0.000989965 0.00106412 0.00113716 0.00120906 0.00127985 0.0013495 0.00141803 0.00148543 0.00155171 0.00161615 0.00167805 0.0017374 0.00179421 0.00184848 0.0019002 0.00194937 0.001996 0.00203997 0.00208115 0.00211954 0.00215514 0.00218796 0.00221798 0.00224522 0.00226968 0.00229155 0.00231103 0.00232814 0.00234287 0.00235523 0.0023652 0.00237279 0.002378 0.00238109 0.00238233 0.00238171 0.00237923 0.00237489 0.0023687 0.00236065 0.00235074 0.00233911 0.00232592 0.00231116 0.00229483 0.00227694 0.00225747 0.00223644 0.00221383 0.00218966 0.00216394 0.00213667 0.00210783 0.00207745 0.0020455 0.00201201 0.00197695 0.00194034 0.00190215 0.00186239 0.00182105 0.00177815 0.00173367 0.00168762 0.00164 0.00159098 0.00154073 0.00148926 0.00143655 0.00138262 0.00132745 0.00127107 0.00121345 0.00115514 0.00109666 0.00103803 0.000979234 0.000920278 0.000861162 0.000801885 0.000742448 0.00068381 0.000626932 0.000571815 0.000518458 0.000466862 0.000417026 0.00036895 0.000322635 0.000278938 0.00023872 0.00020198 0.000168717 0.000138933 0.000112626 8.97975e-05 7.04468e-05 5.39358e-05 3.96263e-05 2.75183e-05 1.76117e-05 9.90658e-06 4.40292e-06 1.10073e-06 0 0 2.27011e-06 9.08043e-06 2.0431e-05 3.63217e-05 5.67527e-05 8.17239e-05 0.000111235 0.000145287 0.000184843 0.000230868 0.000283362 0.000342324 0.000407755 0.000479655 0.000558024 0.000642862 0.000732155 0.000823888 0.000918063 0.00101468 0.00111373 0.00121523 0.00131917 0.00142555 0.00153234 0.00163751 0.00174105 0.00184298 0.00194328 0.00204196 0.00213902 0.00223446 0.00232726 0.00241639 0.00250186 0.00258367 0.00266181 0.00273628 0.0028071 0.00287425 0.00293756 0.00299685 0.00305213 0.0031034 0.00315066 0.0031939 0.00323312 0.00326833 0.00329982 0.00332789 0.00335253 0.00337374 0.00339152 0.00340588 0.00341681 0.00342432 0.00342877 0.00343055 0.00342966 0.00342609 0.00341984 0.00341092 0.00339933 0.00338506 0.00336832 0.00334933 0.00332808 0.00330456 0.00327879 0.00325076 0.00322047 0.00318792 0.00315312 0.00311608 0.0030768 0.00303528 0.00299152 0.00294553 0.00289729 0.00284681 0.00279408 0.00273909 0.00268184 0.00262232 0.00256054 0.00249649 0.00243018 0.0023616 0.00229101 0.00221866 0.00214453 0.00206863 0.00199097 0.00191154 0.00183033 0.00174736 0.00166339 0.00157919 0.00149476 0.0014101 0.0013252 0.00124007 0.00115471 0.00106912 0.000984686 0.000902782 0.000823414 0.00074658 0.000672281 0.000600517 0.000531288 0.000464594 0.000401671 0.000343757 0.000290851 0.000242953 0.000200063 0.000162182 0.000129308 0.000101443 7.76676e-05 5.70619e-05 3.96263e-05 2.53608e-05 1.42655e-05 6.34021e-06 1.58505e-06 0 0 3.08987e-06 1.23595e-05 2.78088e-05 4.94379e-05 7.72467e-05 0.000111235 0.000151404 0.000197752 0.000251592 0.000314237 0.000385687 0.000465941 0.000555 0.000652864 0.000759533 0.000875007 0.000996544 0.0011214 0.00124959 0.00138109 0.00151592 0.00165407 0.00179554 0.00194033 0.00208568 0.00222883 0.00236977 0.0025085 0.00264502 0.00277934 0.00291145 0.00304135 0.00316766 0.00328898 0.00340531 0.00351666 0.00362302 0.00372439 0.00382077 0.00391217 0.00399834 0.00407905 0.00415429 0.00422407 0.00428839 0.00434725 0.00440064 0.00444856 0.00449143 0.00452963 0.00456316 0.00459203 0.00461624 0.00463579 0.00465066 0.00466088 0.00466694 0.00466936 0.00466815 0.00466329 0.00465479 0.00464265 0.00462687 0.00460744 0.00458466 0.00455881 0.00452988 0.00449788 0.0044628 0.00442464 0.00438341 0.00433911 0.00429174 0.00424133 0.00418787 0.00413136 0.0040718 0.00400919 0.00394353 0.00387483 0.00380306 0.00372821 0.00365028 0.00356927 0.00348517 0.003398 0.00330774 0.00321441 0.00311832 0.00301984 0.00291894 0.00281564 0.00270993 0.00260181 0.00249129 0.00237836 0.00226406 0.00214946 0.00203454 0.0019193 0.00180375 0.00168788 0.0015717 0.0014552 0.00134027 0.00122879 0.00112076 0.00101618 0.000915049 0.00081737 0.000723142 0.000632364 0.000546719 0.000467891 0.00039588 0.000330686 0.000272308 0.000220747 0.000176003 0.000138076 0.000105714 7.76676e-05 5.39358e-05 3.45189e-05 1.94169e-05 8.62973e-06 2.15743e-06 0 0 4.03575e-06 1.6143e-05 3.63217e-05 6.45719e-05 0.000100894 0.000145287 0.000197752 0.000258288 0.00032861 0.000410432 0.000503754 0.000608576 0.000724898 0.000852721 0.000992043 0.00114287 0.00130161 0.00146469 0.00163211 0.00180387 0.00197997 0.00216041 0.00234519 0.00253431 0.00272416 0.00291112 0.00309521 0.00327641 0.00345472 0.00363016 0.00380271 0.00397238 0.00413735 0.00429581 0.00444776 0.00459319 0.0047321 0.00486451 0.0049904 0.00510977 0.00522232 0.00532774 0.00542602 0.00551716 0.00560117 0.00567804 0.00574777 0.00581037 0.00586636 0.00591625 0.00596005 0.00599776 0.00602938 0.0060549 0.00607434 0.00608768 0.0060956 0.00609876 0.00609717 0.00609082 0.00607972 0.00606386 0.00604325 0.00601789 0.00598813 0.00595436 0.00591658 0.00587478 0.00582896 0.00577913 0.00572527 0.00566741 0.00560554 0.00553969 0.00546987 0.00539606 0.00531826 0.00523649 0.00515074 0.005061 0.00496726 0.0048695 0.00476771 0.0046619 0.00455206 0.0044382 0.00432032 0.00419841 0.00407291 0.00394428 0.00381249 0.00367757 0.0035395 0.00339828 0.00325393 0.00310643 0.00295715 0.00280745 0.00265735 0.00250684 0.00235591 0.00220458 0.00205283 0.00190067 0.00175055 0.00160495 0.00146385 0.00132725 0.00119517 0.00106759 0.000944512 0.000825944 0.000714082 0.000611123 0.000517068 0.000431916 0.000355668 0.000288323 0.000229882 0.000180344 0.000138076 0.000101443 7.04468e-05 4.5086e-05 2.53608e-05 1.12715e-05 2.81787e-06 0 0 5.14408e-06 2.05763e-05 4.62967e-05 8.23053e-05 0.000128602 0.000185187 0.00025206 0.000329221 0.000418785 0.000522868 0.000641468 0.000774586 0.000922223 0.00108438 0.00126105 0.00145224 0.00165342 0.00186006 0.00207217 0.00228973 0.00251276 0.00274125 0.00297521 0.00321462 0.00345495 0.00369163 0.00392466 0.00415406 0.00437981 0.00460192 0.00482039 0.00503521 0.0052441 0.00544475 0.00563717 0.00582136 0.00599732 0.00616504 0.00632454 0.0064758 0.00661843 0.00675204 0.00687662 0.00699217 0.00709869 0.00719618 0.00728465 0.00736409 0.00743516 0.00749851 0.00755413 0.00760205 0.00764224 0.00767471 0.00769947 0.00771651 0.00772667 0.0077308 0.00772889 0.00772095 0.00770697 0.00768696 0.00766091 0.00762883 0.00759119 0.00754844 0.00750059 0.00744765 0.0073896 0.00732645 0.00725821 0.00718486 0.00710644 0.00702297 0.00693445 0.00684089 0.00674227 0.00663861 0.00652989 0.00641613 0.0062973 0.00617337 0.00604435 0.00591024 0.00577103 0.00562673 0.00547734 0.00532286 0.00516384 0.00500085 0.00483388 0.00466295 0.00448804 0.00430916 0.00412631 0.00393949 0.00375042 0.00356083 0.00337072 0.0031801 0.00298895 0.00279729 0.0026051 0.0024124 0.00222227 0.00203783 0.00185907 0.00168599 0.00151859 0.00135687 0.00120083 0.00105047 0.000908577 0.000777928 0.000658525 0.000550368 0.000453457 0.000367792 0.000293373 0.0002302 0.000176247 0.000129487 8.99218e-05 5.755e-05 3.23719e-05 1.43875e-05 3.59687e-06 0 0 6.45121e-06 2.58048e-05 5.80608e-05 0.000103219 0.00016128 0.000232243 0.000316109 0.000412877 0.000525007 0.000654959 0.000802733 0.000968329 0.00115175 0.00135299 0.00157205 0.00180893 0.00205805 0.00231384 0.00257628 0.00284539 0.00312115 0.00340357 0.00369266 0.0039884 0.00428523 0.00457758 0.00486544 0.00514882 0.00542772 0.00570213 0.00597206 0.00623751 0.00649565 0.00674366 0.00698154 0.00720929 0.00742691 0.00763441 0.00783177 0.00801901 0.00819561 0.00836108 0.00851542 0.00865862 0.00879068 0.00891161 0.00902141 0.00912007 0.00920839 0.00928715 0.00935636 0.00941603 0.00946614 0.0095067 0.0095377 0.00955916 0.00957209 0.00957752 0.00957547 0.00956591 0.00954886 0.00952432 0.00949228 0.00945274 0.00940629 0.00935349 0.00929435 0.00922887 0.00915705 0.00907888 0.00899437 0.00890352 0.00880637 0.00870296 0.00859328 0.00847735 0.00835516 0.00822671 0.00809199 0.00795102 0.00780377 0.00765024 0.00749041 0.00732431 0.00715191 0.00697323 0.00678826 0.006597 0.00640015 0.00619842 0.00599181 0.00578031 0.00556393 0.00534266 0.00511651 0.00488547 0.00465167 0.00441723 0.00418216 0.00394645 0.00371011 0.00347313 0.00323551 0.00299726 0.00276216 0.00253402 0.00231282 0.00209857 0.00189128 0.00169093 0.00149753 0.00131108 0.00113502 0.000972781 0.000824362 0.000689766 0.000568991 0.000462037 0.000368906 0.000289596 0.000221722 0.000162898 0.000113123 7.2399e-05 4.07244e-05 1.80997e-05 4.52494e-06 0 0 7.95712e-06 3.18285e-05 7.16141e-05 0.000127314 0.000198928 0.000286456 0.000389899 0.000509256 0.000647276 0.000806707 0.00098755 0.0011898 0.00141347 0.00165855 0.00192504 0.00221294 0.00251551 0.00282602 0.00314445 0.00347083 0.00380513 0.00414737 0.00449754 0.00485564 0.00521501 0.00556897 0.00591753 0.00626069 0.00659844 0.00693079 0.00725773 0.00757927 0.007892 0.00819253 0.00848086 0.00875697 0.00902089 0.00927259 0.0095121 0.00973939 0.00995386 0.0101549 0.0103424 0.0105165 0.0106771 0.0108243 0.010958 0.0110783 0.011186 0.0112822 0.0113667 0.0114397 0.0115011 0.0115508 0.011589 0.0116156 0.0116319 0.0116389 0.0116369 0.0116257 0.0116054 0.0115759 0.0115373 0.0114896 0.0114334 0.0113695 0.0112978 0.0112184 0.0111313 0.0110364 0.0109338 0.0108234 0.0107053 0.0105796 0.0104464 0.0103054 0.0101569 0.0100008 0.00983703 0.00966566 0.00948668 0.0093001 0.0091059 0.0089041 0.00869469 0.00847768 0.00825306 0.00802083 0.00778186 0.00753701 0.00728627 0.00702965 0.00676715 0.00649877 0.00622451 0.00594436 0.00566089 0.00537666 0.00509167 0.00480591 0.00451939 0.00423211 0.00394406 0.00365525 0.00337022 0.0030935 0.00282509 0.002565 0.00231322 0.00206976 0.00183461 0.00160778 0.00139341 0.00119568 0.00101458 0.00085011 0.000702269 0.00057106 0.000456481 0.000358532 0.000274501 0.000201674 0.000140052 8.96331e-05 5.04186e-05 2.24083e-05 5.60207e-06 0 0 9.66184e-06 3.86473e-05 8.69565e-05 0.000154589 0.000241546 0.000347826 0.00047343 0.000618357 0.00078559 0.00097811 0.00119592 0.00143901 0.00170739 0.00200106 0.00232002 0.00266426 0.00302579 0.00339659 0.00377668 0.00416605 0.00456471 0.00497264 0.00538985 0.00581635 0.00624428 0.00666581 0.00708094 0.00748966 0.00789198 0.00828789 0.0086774 0.0090605 0.00943317 0.00979138 0.0101351 0.0104644 0.0107792 0.0110796 0.0113655 0.011637 0.0118932 0.0121334 0.0123576 0.0125658 0.0127581 0.0129343 0.0130945 0.0132388 0.0133681 0.0134836 0.0135853 0.0136731 0.013747 0.0138072 0.0138535 0.0138859 0.013906 0.0139151 0.0139132 0.0139004 0.0138766 0.0138418 0.0137961 0.0137394 0.0136726 0.0135965 0.0135111 0.0134164 0.0133123 0.013199 0.0130764 0.0129445 0.0128033 0.012653 0.0124937 0.0123252 0.0121476 0.0119609 0.011765 0.0115601 0.011346 0.0111229 0.0108908 0.0106496 0.0103994 0.0101401 0.00987175 0.00959436 0.00930896 0.0090166 0.00871727 0.00841098 0.00809772 0.0077775 0.00745032 0.00711617 0.00677809 0.00643911 0.00609924 0.00575846 0.00541679 0.00507422 0.00473074 0.00438637 0.00404644 0.00371628 0.00339589 0.00308528 0.00278444 0.00249337 0.00221208 0.00194055 0.00168376 0.00144663 0.00122918 0.0010314 0.000853293 0.000694859 0.000556097 0.000437009 0.000334585 0.000245817 0.000170707 0.000109252 6.14544e-05 2.7313e-05 6.82826e-06 0 0 1.15653e-05 4.62614e-05 0.000104088 0.000185045 0.000289133 0.000416352 0.000566702 0.000740182 0.000939951 0.00116917 0.00142784 0.00171595 0.00203352 0.00238053 0.00275699 0.0031629 0.00358888 0.00402557 0.00447297 0.00493107 0.00539988 0.00587939 0.0063696 0.00687052 0.00737305 0.0078681 0.00835566 0.00883574 0.00930833 0.00977344 0.0102311 0.0106812 0.0111191 0.0115402 0.0119444 0.0123316 0.012702 0.0130554 0.013392 0.0137117 0.0140135 0.0142966 0.014561 0.0148066 0.0150335 0.0152416 0.0154309 0.0156015 0.0157546 0.0158914 0.0160119 0.0161161 0.016204 0.0162757 0.016331 0.01637 0.0163944 0.0164059 0.0164043 0.0163898 0.0163624 0.0163219 0.0162686 0.0162022 0.0161238 0.0160345 0.0159341 0.0158226 0.0157002 0.0155667 0.0154222 0.0152667 0.0151003 0.0149232 0.0147352 0.0145365 0.0143271 0.0141069 0.0138759 0.0136342 0.0133818 0.0131188 0.0128451 0.0125609 0.012266 0.0119605 0.0116443 0.0113176 0.0109815 0.0106372 0.0102848 0.00992428 0.00955563 0.00917885 0.00879394 0.00840089 0.00800327 0.00760459 0.00720488 0.00680411 0.00640231 0.00599946 0.00559556 0.00519062 0.00479083 0.00440236 0.00402522 0.0036594 0.00330491 0.00296175 0.00262992 0.00230942 0.00200605 0.00172563 0.00146816 0.00123364 0.00102206 0.000833434 0.000667756 0.000525025 0.000401973 0.000295327 0.000205088 0.000131256 7.38317e-05 3.28141e-05 8.20352e-06 0 0 1.36676e-05 5.46705e-05 0.000123009 0.000218682 0.000341691 0.000492035 0.000669714 0.000874729 0.00111036 0.00137988 0.00168331 0.00202062 0.00239184 0.00279695 0.00323595 0.00370885 0.0042048 0.00471296 0.00523331 0.00576588 0.00631064 0.00686761 0.00743679 0.00801816 0.00860132 0.00917583 0.0097417 0.0102989 0.0108475 0.0113874 0.0119187 0.0124414 0.0129499 0.013439 0.0139085 0.0143586 0.0147891 0.0152001 0.0155916 0.0159636 0.016315 0.0166446 0.0169526 0.0172388 0.0175033 0.0177461 0.0179672 0.0181665 0.0183456 0.0185056 0.0186467 0.0187689 0.0188721 0.0189563 0.0190216 0.0190679 0.0190972 0.0191114 0.0191103 0.0190941 0.0190628 0.0190163 0.0189547 0.0188779 0.0187871 0.0186834 0.0185668 0.0184373 0.0182949 0.0181395 0.0179713 0.0177902 0.0175964 0.01739 0.017171 0.0169395 0.0166955 0.0164389 0.0161698 0.0158882 0.0155941 0.0152876 0.0149689 0.0146379 0.0142945 0.0139388 0.0135708 0.0131905 0.0127993 0.0123988 0.0119889 0.0115696 0.0111409 0.0107028 0.0102554 0.00979853 0.00933642 0.0088731 0.00840858 0.00794287 0.00747595 0.00700783 0.00653852 0.00606801 0.00560338 0.00515173 0.00471306 0.00428737 0.00387465 0.00347491 0.00308815 0.00271436 0.00236029 0.00203268 0.00173152 0.00145682 0.00120857 0.000986786 0.000791456 0.000622582 0.000476664 0.000350202 0.000243196 0.000155646 8.75506e-05 3.89114e-05 9.72784e-06 0 0 1.59687e-05 6.38749e-05 0.000143719 0.0002555 0.000399218 0.000574874 0.000782468 0.001022 0.00129681 0.00161026 0.00196233 0.00235303 0.00278236 0.00325032 0.00375691 0.00430212 0.00487354 0.00545874 0.00605772 0.00667047 0.007297 0.00793731 0.0085914 0.00925927 0.00992908 0.010589 0.0112391 0.0118792 0.0125095 0.0131299 0.0137404 0.014341 0.0149255 0.0154877 0.0160277 0.0165453 0.0170406 0.0175136 0.0179643 0.0183927 0.0187975 0.0191774 0.0195324 0.0198625 0.0201676 0.0204479 0.0207033 0.0209338 0.0211409 0.0213262 0.0214897 0.0216313 0.0217512 0.0218492 0.0219253 0.0219797 0.0220144 0.0220315 0.0220312 0.0220133 0.0219779 0.021925 0.0218546 0.0217666 0.0216624 0.0215433 0.0214093 0.0212603 0.0210963 0.0209174 0.0207236 0.0205149 0.0202914 0.0200535 0.0198011 0.0195342 0.0192528 0.018957 0.0186466 0.0183218 0.0179827 0.0176295 0.0172621 0.0168806 0.0164849 0.0160751 0.0156512 0.0152131 0.0147626 0.0143014 0.0138295 0.0133468 0.0128535 0.0123494 0.0118346 0.0113091 0.0107775 0.0102446 0.00971035 0.00917471 0.00863771 0.00809934 0.00755961 0.00701852 0.0064841 0.00596441 0.00545944 0.00496918 0.00449365 0.00403284 0.00358675 0.00315539 0.00274648 0.00236777 0.00201926 0.00170095 0.00141283 0.00115492 0.000927198 0.000729679 0.00055866 0.000410444 0.000285031 0.00018242 0.000102611 4.56049e-05 1.14012e-05 0 0 1.84686e-05 7.38744e-05 0.000166217 0.000295498 0.000461715 0.00066487 0.000904962 0.00118199 0.00149931 0.00186028 0.0022649 0.00271317 0.00320508 0.00374064 0.00431985 0.00494271 0.0055951 0.00626293 0.00694618 0.00764485 0.00835896 0.00908849 0.00983345 0.0105938 0.0113563 0.0121076 0.0128477 0.0135766 0.0142943 0.0150008 0.015696 0.0163801 0.0170459 0.0176865 0.0183017 0.0188917 0.0194564 0.0199959 0.0205101 0.0209989 0.0214611 0.0218949 0.0223003 0.0226775 0.0230264 0.023347 0.0236393 0.0239033 0.0241407 0.0243532 0.0245408 0.0247035 0.0248413 0.0249542 0.0250422 0.0251053 0.0251459 0.0251664 0.0251669 0.0251473 0.0251076 0.0250479 0.0249681 0.0248683 0.0247498 0.0246142 0.0244615 0.0242916 0.0241046 0.0239005 0.0236792 0.0234408 0.0231855 0.0229137 0.0226254 0.0223205 0.021999 0.021661 0.0213064 0.0209353 0.0205478 0.0201443 0.0197247 0.019289 0.0188372 0.0183694 0.0178854 0.0173854 0.0168713 0.016345 0.0158066 0.0152561 0.0146934 0.0141186 0.0135316 0.0129326 0.0123266 0.0117192 0.0111102 0.0104997 0.00988759 0.00927399 0.00865884 0.00804216 0.00743299 0.00684038 0.00626433 0.00570485 0.00516192 0.00463555 0.00412574 0.0036325 0.00316462 0.00273091 0.00233138 0.00196602 0.00163483 0.00133782 0.00107498 0.000846316 0.000647961 0.000476053 0.000330592 0.000211579 0.000119013 5.28947e-05 1.32237e-05 0 0 2.11234e-05 8.44935e-05 0.00019011 0.000337974 0.000528084 0.000760441 0.00103505 0.0013519 0.00171431 0.00212559 0.00258574 0.00309477 0.00365267 0.00425945 0.00491509 0.00561961 0.00635712 0.00711174 0.00788348 0.00867233 0.00947829 0.0103014 0.0111416 0.0119989 0.0128584 0.0137054 0.0145398 0.0153616 0.0161708 0.0169674 0.0177515 0.0185229 0.0192739 0.0199965 0.0206907 0.0213566 0.0219941 0.0226032 0.023184 0.0237363 0.0242586 0.024749 0.0252076 0.0256343 0.0260292 0.0263922 0.0267233 0.0270227 0.027292 0.0275332 0.0277462 0.0279312 0.028088 0.0282167 0.0283173 0.0283897 0.0284367 0.028461 0.0284625 0.0284412 0.0283972 0.0283305 0.0282409 0.0281287 0.0279953 0.0278425 0.0276702 0.0274784 0.0272672 0.0270366 0.0267865 0.026517 0.0262283 0.0259209 0.0255948 0.0252499 0.0248863 0.024504 0.0241029 0.0236831 0.0232449 0.0227886 0.0223141 0.0218215 0.0213108 0.020782 0.020235 0.01967 0.019089 0.0184945 0.0178863 0.0172646 0.0166292 0.0159802 0.0153176 0.0146414 0.0139575 0.0132719 0.0125845 0.0118955 0.0112047 0.0105122 0.00981792 0.00912196 0.00843436 0.00776522 0.00711453 0.0064823 0.00586852 0.00527319 0.00469632 0.0041379 0.00360786 0.00311615 0.00266275 0.00224768 0.00187092 0.00153248 0.00123236 0.000970562 0.000743087 0.000545941 0.000379126 0.000242641 0.000136485 6.06601e-05 1.5165e-05 0 0 2.38891e-05 9.55563e-05 0.000215002 0.000382225 0.000597227 0.000860007 0.00117057 0.0015289 0.00193824 0.0024018 0.00291958 0.00349158 0.00411781 0.00479826 0.00553293 0.00632183 0.00714723 0.00799143 0.00885442 0.0097362 0.0106368 0.0115562 0.0124943 0.0134513 0.0144106 0.015356 0.0162873 0.0172046 0.0181079 0.0189972 0.0198725 0.0207337 0.0215722 0.0223792 0.0231546 0.0238985 0.0246109 0.0252917 0.025941 0.0265588 0.0271431 0.0276918 0.0282051 0.028683 0.0291253 0.0295321 0.0299035 0.0302394 0.0305418 0.0308127 0.0310523 0.0312603 0.031437 0.0315822 0.0316959 0.0317782 0.031832 0.0318603 0.031863 0.0318402 0.0317919 0.031718 0.0316186 0.0314937 0.031345 0.0311745 0.0309822 0.030768 0.0305319 0.030274 0.0299942 0.0296925 0.0293694 0.0290254 0.0286603 0.0282742 0.0278672 0.0274392 0.0269901 0.0265201 0.0260295 0.0255186 0.0249876 0.0244364 0.0238649 0.0232732 0.0226614 0.0220293 0.0213796 0.0207147 0.0200347 0.0193396 0.0186294 0.017904 0.0171636 0.0164079 0.0156438 0.0148777 0.0141098 0.0133398 0.012568 0.0117942 0.0110185 0.0102409 0.00947252 0.00872448 0.0079968 0.00728948 0.00660252 0.00593591 0.00528967 0.00466379 0.00406937 0.00351753 0.00300825 0.00254156 0.00211743 0.00173588 0.00139689 0.00110049 0.00084256 0.000619024 0.000429878 0.000275122 0.000154756 6.87804e-05 1.71951e-05 0 0 2.67658e-05 0.000107063 0.000240892 0.000428252 0.000669144 0.000963567 0.00131152 0.00171301 0.00217111 0.00268891 0.00326641 0.0039036 0.00460049 0.00535708 0.00617337 0.00704936 0.00796543 0.00890197 0.00985899 0.0108365 0.0118344 0.0128529 0.0138918 0.0149511 0.016013 0.0170594 0.0180903 0.0191057 0.0201056 0.0210901 0.022059 0.0230125 0.0239409 0.0248345 0.0256934 0.0265175 0.0273068 0.0280614 0.0287812 0.0294663 0.0301144 0.0307233 0.031293 0.0318235 0.0323148 0.0327669 0.0331798 0.0335535 0.0338901 0.0341919 0.0344589 0.034691 0.0348882 0.0350505 0.0351781 0.0352707 0.0353317 0.0353643 0.0353685 0.0353443 0.0352916 0.0352106 0.0351011 0.0349633 0.034799 0.0346104 0.0343975 0.0341602 0.0338985 0.0336125 0.0333022 0.0329674 0.0326089 0.032227 0.0318219 0.0313934 0.0309415 0.0304664 0.0299679 0.0294461 0.0289015 0.0283346 0.0277453 0.0271336 0.0264996 0.0258432 0.0251645 0.0244635 0.0237429 0.0230057 0.0222518 0.0214812 0.020694 0.0198901 0.0190695 0.0182323 0.0173856 0.0165368 0.0156859 0.0148328 0.0139776 0.0131202 0.0122607 0.0113991 0.0105475 0.00971817 0.00891114 0.00812639 0.00736392 0.00662373 0.00590581 0.00521017 0.00454914 0.00393504 0.00336788 0.00284765 0.00237436 0.001948 0.00156858 0.00123609 0.000946381 0.0006953 0.000482847 0.000309022 0.000173825 7.72556e-05 1.93139e-05 0 0 2.97534e-05 0.000119014 0.000267781 0.000476054 0.000743835 0.00107112 0.00145792 0.00190422 0.00241292 0.00298692 0.00362622 0.00433082 0.00510072 0.00593592 0.00683641 0.00780221 0.00881172 0.00984338 0.0108972 0.0119731 0.0130712 0.0141915 0.0153339 0.0164984 0.0176655 0.0188156 0.0199487 0.0210648 0.0221639 0.0232461 0.0243112 0.0253593 0.0263799 0.0273625 0.028307 0.0292135 0.0300819 0.0309123 0.0317046 0.0324589 0.0331727 0.0338434 0.0344712 0.0350559 0.0355977 0.0360964 0.0365522 0.0369649 0.037337 0.0376707 0.037966 0.038223 0.0384416 0.0386218 0.0387637 0.0388672 0.0389358 0.0389731 0.0389789 0.0389534 0.0388965 0.0388082 0.0386885 0.0385375 0.0383572 0.0381501 0.037916 0.037655 0.0373671 0.0370523 0.0367105 0.0363418 0.0359467 0.035526 0.0350795 0.0346073 0.0341094 0.0335857 0.0330364 0.0324613 0.0318611 0.0312363 0.030587 0.0299132 0.0292148 0.0284919 0.0277445 0.0269725 0.0261791 0.0253674 0.0245375 0.0236894 0.022823 0.0219384 0.0210355 0.0201144 0.019183 0.0182491 0.017313 0.0163744 0.0154335 0.0144901 0.0135445 0.0125964 0.0116592 0.0107463 0.00985756 0.00899304 0.00815273 0.00733662 0.00654473 0.00577705 0.00504717 0.0043687 0.00374164 0.00316598 0.00264172 0.00216886 0.00174742 0.00137737 0.00105455 0.000774771 0.000538035 0.000344343 0.000193693 8.60857e-05 2.15214e-05 0 0 3.2852e-05 0.000131408 0.000295668 0.000525632 0.0008213 0.00118267 0.00160975 0.00210253 0.00266367 0.00329584 0.00399903 0.00477325 0.00561849 0.00653476 0.00752205 0.00858037 0.00968611 0.0108157 0.011969 0.0131462 0.0143472 0.015572 0.0168206 0.0180931 0.0193681 0.0206246 0.0218626 0.023082 0.0242829 0.0254652 0.0266289 0.0277741 0.0288893 0.0299631 0.0309955 0.0319866 0.0329362 0.0338444 0.0347112 0.0355366 0.0363178 0.0370522 0.0377397 0.0383803 0.038974 0.0395208 0.0400207 0.0404738 0.0408824 0.0412491 0.0415738 0.0418565 0.0420972 0.042296 0.0424528 0.0425677 0.0426443 0.0426865 0.0426942 0.0426675 0.0426064 0.0425108 0.0423807 0.0422162 0.0420197 0.0417936 0.0415379 0.0412526 0.0409377 0.0405932 0.0402191 0.0398155 0.0393829 0.0389221 0.0384332 0.037916 0.0373707 0.0367972 0.0361954 0.0355655 0.0349081 0.0342239 0.033513 0.0327752 0.0320106 0.0312193 0.0304012 0.0295562 0.028688 0.0277999 0.0268919 0.0259641 0.0250164 0.0240489 0.0230615 0.0220543 0.0210358 0.0200147 0.0189909 0.0179646 0.0169356 0.015904 0.0148697 0.0138329 0.0128078 0.0118088 0.010836 0.00988941 0.00896893 0.00807461 0.00720644 0.00636442 0.00556347 0.0048185 0.00412952 0.00349652 0.0029195 0.00239846 0.0019334 0.00152433 0.00116707 0.000857436 0.000595441 0.000381082 0.000214359 9.52706e-05 2.38177e-05 0 0 3.60615e-05 0.000144246 0.000324554 0.000576985 0.000901538 0.00129822 0.00176702 0.00230794 0.00292336 0.00361566 0.00438483 0.00523088 0.00615381 0.00715361 0.00823029 0.00938385 0.0105886 0.0118188 0.0130745 0.0143557 0.0156623 0.0169944 0.0183521 0.0197352 0.0211209 0.0224865 0.023832 0.0251572 0.0264624 0.0277474 0.029