<?xml version="1.0"?> 
<VTKFile type="StructuredGrid" version="0.1"> 
<StructuredGrid WholeExtent="0 128 0 128 0 0"> 
<Piece Extent="0 128 0 128 0 0"> 
<PointData>
<DataArray type="Float32" Name="u" format="ascii" NumberOfComponents="1"> 
0 0 0 0 0 0 0 0 0 0 0 0 0 0 0 0 0 0 0 0 0 0 0 0 0 0 0 0 0 0 0 0 0 0 0 0 0 0 0 0 0 0 0 0 0 0 0 0 0 0 0 0 0 0 0 0 0 0 0 0 0 0 0 0 0 0 0 0 0 0 0 0 0 0 0 0 0 0 0 0 0 0 0 0 0 0 0 0 0 0 0 0 0 0 0 0 0 0 0 0 0 0 0 0 0 0 0 0 0 0 0 0 0 0 0 0 0 0 0 0 0 0 0 0 0 0 0 0 0 0 -2.65638e-08 -1.06255e-07 -2.39074e-07 -4.25021e-07 -6.64096e-07 -9.56298e-07 -1.30163e-06 -1.70009e-06 -2.07082e-06 -2.333e-06 -2.48661e-06 -2.53166e-06 -2.46814e-06 -2.29606e-06 -2.01542e-06 -1.62621e-06 -1.1172e-06 -4.77147e-07 2.93947e-07 1.19608e-06 2.22926e-06 3.39348e-06 4.68874e-06 6.11504e-06 7.59458e-06 9.04955e-06 1.04799e-05 1.18858e-05 1.3267e-05 1.46237e-05 1.59558e-05 1.72633e-05 1.84709e-05 1.9503e-05 2.03597e-05 2.10409e-05 2.15467e-05 2.18771e-05 2.2032e-05 2.20116e-05 2.18201e-05 2.1462e-05 2.09373e-05 2.02459e-05 1.9388e-05 1.83635e-05 1.71724e-05 1.58147e-05 1.43748e-05 1.29373e-05 1.15021e-05 1.00692e-05 8.63864e-06 7.21041e-06 5.78451e-06 4.36094e-06 3.02345e-06 1.85582e-06 8.58037e-07 3.01095e-08 -6.27965e-07 -1.11619e-06 -1.43456e-06 -1.58307e-06 -1.56108e-06 -1.36791e-06 -1.00358e-06 -4.68068e-07 2.38611e-07 1.11646e-06 2.16548e-06 3.38567e-06 4.69535e-06 6.01283e-06 7.33812e-06 8.67122e-06 1.00121e-05 1.13608e-05 1.27173e-05 1.40817e-05 1.53718e-05 1.65059e-05 1.74839e-05 1.83059e-05 1.89717e-05 1.94815e-05 1.98352e-05 2.00328e-05 2.00699e-05 1.99423e-05 1.965e-05 1.91929e-05 1.8571e-05 1.77843e-05 1.68329e-05 1.57168e-05 1.45072e-05 1.32755e-05 1.20218e-05 1.0746e-05 9.44817e-06 8.12827e-06 6.7863e-06 5.42227e-06 4.10854e-06 2.91747e-06 1.84907e-06 9.03333e-07 8.02618e-08 -6.20145e-07 -1.19789e-06 -1.65296e-06 -1.99688e-06 -2.24114e-06 -2.38575e-06 -2.4307e-06 -2.376e-06 -2.22164e-06 -1.96763e-06 -1.61397e-06 -1.2357e-06 -9.07858e-07 -6.30457e-07 -4.03492e-07 -2.26964e-07 -1.00873e-07 -2.52183e-08 0 0 -1.06255e-07 -4.25021e-07 -9.56298e-07 -1.70009e-06 -2.65638e-06 -3.82519e-06 -5.20651e-06 -6.80034e-06 -8.2833e-06 -9.332e-06 -9.94645e-06 -1.01266e-05 -9.87257e-06 -9.18425e-06 -8.06167e-06 -6.50484e-06 -4.4688e-06 -1.90859e-06 1.17579e-06 4.78433e-06 8.91704e-06 1.35739e-05 1.8755e-05 2.44602e-05 3.03783e-05 3.61982e-05 4.19198e-05 4.75431e-05 5.30681e-05 5.84948e-05 6.38232e-05 6.90534e-05 7.38835e-05 7.8012e-05 8.14387e-05 8.41636e-05 8.61869e-05 8.75084e-05 8.81282e-05 8.80463e-05 8.72803e-05 8.58478e-05 8.3749e-05 8.09838e-05 7.75521e-05 7.34541e-05 6.86896e-05 6.32587e-05 5.74993e-05 5.17491e-05 4.60083e-05 4.02768e-05 3.45546e-05 2.88417e-05 2.31381e-05 1.74437e-05 1.20938e-05 7.42327e-06 3.43215e-06 1.20438e-07 -2.51186e-06 -4.46475e-06 -5.73823e-06 -6.33229e-06 -6.24431e-06 -5.47165e-06 -4.0143e-06 -1.87227e-06 9.54442e-07 4.46584e-06 8.66192e-06 1.35427e-05 1.87814e-05 2.40513e-05 2.93525e-05 3.46849e-05 4.00485e-05 4.54433e-05 5.08693e-05 5.63266e-05 6.14873e-05 6.60237e-05 6.99357e-05 7.32235e-05 7.58869e-05 7.79259e-05 7.93406e-05 8.0131e-05 8.02797e-05 7.97694e-05 7.86e-05 7.67715e-05 7.4284e-05 7.11374e-05 6.73317e-05 6.2867e-05 5.80287e-05 5.31021e-05 4.80872e-05 4.29841e-05 3.77927e-05 3.25131e-05 2.71452e-05 2.16891e-05 1.64341e-05 1.16699e-05 7.39628e-06 3.61333e-06 3.21047e-07 -2.48058e-06 -4.79154e-06 -6.61185e-06 -7.98752e-06 -8.96456e-06 -9.543e-06 -9.72281e-06 -9.504e-06 -8.88658e-06 -7.87054e-06 -6.45588e-06 -4.94278e-06 -3.63143e-06 -2.52183e-06 -1.61397e-06 -9.07858e-07 -4.03492e-07 -1.00873e-07 0 0 -2.39074e-07 -9.56298e-07 -2.15167e-06 -3.82519e-06 -5.97686e-06 -8.60668e-06 -1.17146e-05 -1.53008e-05 -1.86374e-05 -2.0997e-05 -2.23795e-05 -2.27849e-05 -2.22133e-05 -2.06646e-05 -1.81388e-05 -1.46359e-05 -1.00548e-05 -4.29433e-06 2.64552e-06 1.07647e-05 2.00633e-05 3.05413e-05 4.21987e-05 5.50354e-05 6.83512e-05 8.14459e-05 9.43195e-05 0.000106972 0.000119403 0.000131613 0.000143602 0.00015537 0.000166238 0.000175527 0.000183237 0.000189368 0.00019392 0.000196894 0.000198288 0.000198104 0.000196381 0.000193158 0.000188435 0.000182214 0.000174492 0.000165272 0.000154552 0.000142332 0.000129373 0.000116436 0.000103519 9.06228e-05 7.77478e-05 6.48937e-05 5.20606e-05 3.92484e-05 2.72111e-05 1.67024e-05 7.72233e-06 2.70985e-07 -5.65169e-06 -1.00457e-05 -1.2911e-05 -1.42477e-05 -1.40497e-05 -1.23112e-05 -9.03218e-06 -4.21261e-06 2.1475e-06 1.00481e-05 1.94893e-05 3.0471e-05 4.22581e-05 5.41155e-05 6.60431e-05 7.8041e-05 9.01091e-05 0.000102247 0.000114456 0.000126735 0.000138346 0.000148553 0.000157355 0.000164753 0.000170745 0.000175333 0.000178516 0.000180295 0.000180629 0.000179481 0.00017685 0.000172736 0.000167139 0.000160059 0.000151496 0.000141451 0.000130564 0.00011948 0.000108196 9.67142e-05 8.50336e-05 7.31544e-05 6.10767e-05 4.88004e-05 3.69768e-05 2.62572e-05 1.66416e-05 8.13e-06 7.22356e-07 -5.5813e-06 -1.0781e-05 -1.48767e-05 -1.79719e-05 -2.01703e-05 -2.14717e-05 -2.18763e-05 -2.1384e-05 -1.99948e-05 -1.77087e-05 -1.45257e-05 -1.11213e-05 -8.17072e-06 -5.67411e-06 -3.63143e-06 -2.04268e-06 -9.07858e-07 -2.26964e-07 0 0 -4.25021e-07 -1.70009e-06 -3.82519e-06 -6.80034e-06 -1.06255e-05 -1.53008e-05 -2.0826e-05 -2.72014e-05 -3.31332e-05 -3.7328e-05 -3.97858e-05 -4.05065e-05 -3.94903e-05 -3.6737e-05 -3.22467e-05 -2.60194e-05 -1.78752e-05 -7.63436e-06 4.70315e-06 1.91373e-05 3.56682e-05 5.42957e-05 7.50198e-05 9.78407e-05 0.000121513 0.000144793 0.000167679 0.000190172 0.000212272 0.000233979 0.000255293 0.000276214 0.000295534 0.000312048 0.000325755 0.000336655 0.000344748 0.000350034 0.000352513 0.000352185 0.000349121 0.000343391 0.000334996 0.000323935 0.000310209 0.000293816 0.000274758 0.000253035 0.000229997 0.000206997 0.000184033 0.000161107 0.000138218 0.000115367 9.25522e-05 6.9775e-05 4.83752e-05 2.96931e-05 1.37286e-05 4.81752e-07 -1.00474e-05 -1.7859e-05 -2.29529e-05 -2.53292e-05 -2.49773e-05 -2.18866e-05 -1.60572e-05 -7.48908e-06 3.81777e-06 1.78634e-05 3.46477e-05 5.41707e-05 7.51256e-05 9.62053e-05 0.00011741 0.000138739 0.000160194 0.000181773 0.000203477 0.000225306 0.000245949 0.000264095 0.000279743 0.000292894 0.000303547 0.000311704 0.000317363 0.000320524 0.000321119 0.000319078 0.0003144 0.000307086 0.000297136 0.00028455 0.000269327 0.000251468 0.000232115 0.000212408 0.000192349 0.000171936 0.000151171 0.000130052 0.000108581 8.67563e-05 6.57366e-05 4.66795e-05 2.95851e-05 1.44533e-05 1.28419e-06 -9.92231e-06 -1.91662e-05 -2.64474e-05 -3.19501e-05 -3.58583e-05 -3.8172e-05 -3.88912e-05 -3.8016e-05 -3.55463e-05 -3.14821e-05 -2.58235e-05 -1.97711e-05 -1.45257e-05 -1.00873e-05 -6.45588e-06 -3.63143e-06 -1.61397e-06 -4.03492e-07 0 0 -6.64096e-07 -2.65638e-06 -5.97686e-06 -1.06255e-05 -1.66024e-05 -2.39074e-05 -3.25407e-05 -4.25021e-05 -5.17706e-05 -5.8325e-05 -6.21653e-05 -6.32915e-05 -6.17036e-05 -5.74016e-05 -5.03855e-05 -4.06553e-05 -2.793e-05 -1.19287e-05 7.34867e-06 2.99021e-05 5.57315e-05 8.4837e-05 0.000117218 0.000152876 0.000189864 0.000226239 0.000261999 0.000297144 0.000331675 0.000365592 0.000398895 0.000431584 0.000461772 0.000487575 0.000508992 0.000526023 0.000538668 0.000546928 0.000550801 0.000550289 0.000545502 0.000536549 0.000523431 0.000506149 0.000484701 0.000459088 0.00042931 0.000395367 0.00035937 0.000323432 0.000287552 0.00025173 0.000215966 0.00018026 0.000144613 0.000109023 7.55863e-05 4.63954e-05 2.14509e-05 7.52737e-07 -1.56991e-05 -2.79047e-05 -3.58639e-05 -3.95768e-05 -3.9027e-05 -3.41978e-05 -2.50894e-05 -1.17017e-05 5.96526e-06 2.79115e-05 5.4137e-05 8.46418e-05 0.000117384 0.000150321 0.000183453 0.00021678 0.000250303 0.000284021 0.000317933 0.000352041 0.000384296 0.000412648 0.000437098 0.000457647 0.000474293 0.000487037 0.000495879 0.000500819 0.000501748 0.000498559 0.00049125 0.000479822 0.000464275 0.000444609 0.000420823 0.000392919 0.000362679 0.000331888 0.000300545 0.00026865 0.000236204 0.000203207 0.000169657 0.000135557 0.000102713 7.29368e-05 4.62267e-05 2.25833e-05 2.00655e-06 -1.55036e-05 -2.99471e-05 -4.13241e-05 -4.9922e-05 -5.60285e-05 -5.96437e-05 -6.07675e-05 -5.94e-05 -5.55411e-05 -4.91909e-05 -4.03492e-05 -3.08924e-05 -2.26964e-05 -1.57614e-05 -1.00873e-05 -5.67411e-06 -2.52183e-06 -6.30457e-07 0 0 -9.56298e-07 -3.82519e-06 -8.60668e-06 -1.53008e-05 -2.39074e-05 -3.44267e-05 -4.68586e-05 -6.12031e-05 -7.45497e-05 -8.3988e-05 -8.9518e-05 -9.11397e-05 -8.88531e-05 -8.26583e-05 -7.25551e-05 -5.85436e-05 -4.02192e-05 -1.71773e-05 1.05821e-05 4.3059e-05 8.02534e-05 0.000122165 0.000168795 0.000220142 0.000273405 0.000325784 0.000377278 0.000427888 0.000477613 0.000526453 0.000574409 0.000621481 0.000664952 0.000702108 0.000732948 0.000757473 0.000775682 0.000787576 0.000793154 0.000792416 0.000785522 0.000772631 0.000753741 0.000728854 0.000697969 0.000661087 0.000618206 0.000569328 0.000517493 0.000465742 0.000414075 0.000362491 0.000310991 0.000259575 0.000208242 0.000156994 0.000108844 6.68094e-05 3.08893e-05 1.08394e-06 -2.26068e-05 -4.01828e-05 -5.1644e-05 -5.69906e-05 -5.61988e-05 -4.92448e-05 -3.61287e-05 -1.68504e-05 8.58998e-06 4.01925e-05 7.79573e-05 0.000121884 0.000169033 0.000216462 0.000264172 0.000312164 0.000360436 0.00040899 0.000457824 0.000506939 0.000553386 0.000594213 0.000629422 0.000659011 0.000682982 0.000701333 0.000714066 0.000721179 0.000722518 0.000717924 0.0007074 0.000690943 0.000668556 0.000640236 0.000605986 0.000565803 0.000522258 0.000477918 0.000432785 0.000386857 0.000340134 0.000292618 0.000244307 0.000195202 0.000147907 0.000105029 6.65665e-05 3.252e-05 2.88942e-06 -2.23252e-05 -4.31239e-05 -5.95066e-05 -7.18876e-05 -8.06811e-05 -8.5887e-05 -8.75053e-05 -8.5536e-05 -7.99792e-05 -7.08348e-05 -5.81029e-05 -4.4485e-05 -3.26829e-05 -2.26964e-05 -1.45257e-05 -8.17072e-06 -3.63143e-06 -9.07858e-07 0 0 -1.30163e-06 -5.20651e-06 -1.17146e-05 -2.0826e-05 -3.25407e-05 -4.68586e-05 -6.37798e-05 -8.33042e-05 -0.00010147 -0.000114317 -0.000121844 -0.000124051 -0.000120939 -0.000112507 -9.87555e-05 -7.96843e-05 -5.47428e-05 -2.33802e-05 1.44034e-05 5.8608e-05 0.000109234 0.00016628 0.000229748 0.000299637 0.000372134 0.000443428 0.000513517 0.000582402 0.000650084 0.000716561 0.000781835 0.000845904 0.000905073 0.000955647 0.000997624 0.001031 0.00105579 0.00107198 0.00107957 0.00107857 0.00106918 0.00105164 0.00102593 0.000992051 0.000950014 0.000899812 0.000841448 0.000774919 0.000704366 0.000633927 0.000563602 0.000493391 0.000423294 0.00035331 0.000283441 0.000213686 0.000148149 9.09351e-05 4.20438e-05 1.47537e-06 -3.07703e-05 -5.46932e-05 -7.02933e-05 -7.75706e-05 -7.64928e-05 -6.70277e-05 -4.91752e-05 -2.29353e-05 1.16919e-05 5.47065e-05 0.000106108 0.000165898 0.000230072 0.000294629 0.000359568 0.00042489 0.000490594 0.00055668 0.000623149 0.000690001 0.00075322 0.00080879 0.000856713 0.000896987 0.000929614 0.000954592 0.000971923 0.000981605 0.000983427 0.000977175 0.00096285 0.000940451 0.000909979 0.000871433 0.000824814 0.000770121 0.000710851 0.0006505 0.000589068 0.000526555 0.000462961 0.000398285 0.000332529 0.000265691 0.000201318 0.000142956 9.06044e-05 4.42633e-05 3.93283e-06 -3.03871e-05 -5.86964e-05 -8.09952e-05 -9.78471e-05 -0.000109816 -0.000116902 -0.000119104 -0.000116424 -0.000108861 -9.64141e-05 -7.90845e-05 -6.05491e-05 -4.4485e-05 -3.08924e-05 -1.97711e-05 -1.11213e-05 -4.94278e-06 -1.2357e-06 0 0 -1.70009e-06 -6.80034e-06 -1.53008e-05 -2.72014e-05 -4.25021e-05 -6.12031e-05 -8.33042e-05 -0.000108805 -0.000132533 -0.000149312 -0.000159143 -0.000162026 -0.000157961 -0.000146948 -0.000128987 -0.000104077 -7.15008e-05 -3.05374e-05 1.88126e-05 7.65493e-05 0.000142673 0.000217183 0.000300079 0.000391363 0.000486053 0.000579171 0.000670716 0.000760689 0.000849089 0.000935917 0.00102117 0.00110485 0.00118214 0.00124819 0.00130302 0.00134662 0.00137899 0.00140013 0.00141005 0.00140874 0.00139648 0.00137357 0.00133998 0.00129574 0.00124083 0.00117527 0.00109903 0.00101214 0.000919988 0.000827986 0.000736133 0.000644429 0.000552873 0.000461467 0.000370209 0.0002791 0.000193501 0.000118772 5.49144e-05 1.92701e-06 -4.01898e-05 -7.1436e-05 -9.18116e-05 -0.000101317 -9.9909e-05 -8.75464e-05 -6.42288e-05 -2.99563e-05 1.52711e-05 7.14534e-05 0.000138591 0.000216683 0.000300502 0.000384821 0.00046964 0.000554958 0.000640776 0.000727093 0.000813909 0.000901226 0.000983797 0.00105638 0.00111897 0.00117158 0.00121419 0.00124681 0.00126945 0.0012821 0.00128448 0.00127631 0.0012576 0.00122834 0.00118854 0.0011382 0.00107731 0.00100587 0.000928459 0.000849633 0.000769395 0.000687745 0.000604683 0.000520209 0.000434323 0.000347025 0.000262946 0.000186718 0.00011834 5.78133e-05 5.13676e-06 -3.96892e-05 -7.66647e-05 -0.00010579 -0.0001278 -0.000143433 -0.000152688 -0.000155565 -0.000152064 -0.000142185 -0.000125929 -0.000103294 -7.90845e-05 -5.81029e-05 -4.03492e-05 -2.58235e-05 -1.45257e-05 -6.45588e-06 -1.61397e-06 0 0 -2.03457e-06 -8.13829e-06 -1.83111e-05 -3.25532e-05 -5.08643e-05 -7.32446e-05 -9.9694e-05 -0.000130213 -0.000158327 -0.000177563 -0.000187921 -0.000189401 -0.000182003 -0.000165727 -0.000140573 -0.000106541 -6.27953e-05 -8.49985e-06 5.63452e-05 0.00013174 0.000217684 0.000314178 0.000421221 0.000538814 0.000660658 0.000780453 0.000898199 0.0010139 0.00112755 0.00123915 0.0013487 0.0014562 0.00155557 0.00164072 0.00171164 0.00176834 0.00181081 0.00183906 0.00185309 0.0018529 0.00183884 0.00181128 0.00177021 0.00171563 0.00164755 0.00156596 0.00147086 0.00136226 0.00124697 0.0011318 0.00101675 0.000901829 0.000787032 0.000672358 0.000557808 0.000443382 0.000335837 0.000241932 0.000161665 9.50375e-05 4.2049e-05 2.69953e-06 -2.3011e-05 -3.50824e-05 -3.34601e-05 -1.80894e-05 1.10298e-05 5.38975e-05 0.000110514 0.000180878 0.000264991 0.000362853 0.000467876 0.000573473 0.000679644 0.00078639 0.000893711 0.00100161 0.00111007 0.00121912 0.00132213 0.00141249 0.0014902 0.00155527 0.0016077 0.00164748 0.00167461 0.0016891 0.00169059 0.00167873 0.00165352 0.00161496 0.00156305 0.00149779 0.00141919 0.00132723 0.00122768 0.0011263 0.00102308 0.000918034 0.00081115 0.000702433 0.000591882 0.000479496 0.000371135 0.000272655 0.000184056 0.000105339 3.65022e-05 -2.24529e-05 -7.15268e-05 -0.000110719 -0.000140895 -0.000162919 -0.00017679 -0.000182509 -0.000180076 -0.000169491 -0.000150753 -0.000123864 -9.48331e-05 -6.96733e-05 -4.83842e-05 -3.09659e-05 -1.74183e-05 -7.74148e-06 -1.93537e-06 0 0 -2.18799e-06 -8.75196e-06 -1.96919e-05 -3.50078e-05 -5.46998e-05 -7.87677e-05 -0.000107212 -0.000140031 -0.000169442 -0.00018766 -0.000194683 -0.000190513 -0.000175148 -0.00014859 -0.000110839 -6.18932e-05 -9.28332e-07 7.28816e-05 0.000159537 0.000259037 0.000371382 0.000496572 0.000634607 0.000785487 0.000941445 0.00109471 0.00124529 0.00139318 0.00153837 0.00168088 0.00182069 0.00195782 0.0020848 0.00219419 0.00228598 0.00236018 0.00241678 0.00245579 0.0024772 0.00248101 0.00246767 0.00243763 0.00239088 0.00232743 0.00224727 0.0021504 0.00203683 0.00190655 0.0017679 0.00162923 0.00149054 0.00135182 0.00121307 0.0010743 0.000935501 0.000796677 0.000666096 0.000552023 0.00045446 0.000373406 0.00030886 0.000260824 0.000229297 0.000214279 0.000215841 0.000234055 0.00026892 0.000320437 0.000388606 0.000473426 0.000574897 0.000693021 0.000819744 0.000947017 0.00107484 0.00120321 0.00133213 0.0014616 0.00159161 0.00172218 0.00184521 0.00195262 0.00204441 0.00212058 0.00218113 0.00222606 0.00225536 0.00226905 0.00226668 0.00224782 0.00221247 0.00216063 0.0020923 0.00200748 0.00190617 0.00178836 0.00166112 0.00153148 0.00139945 0.00126503 0.00112821 0.000988999 0.000847395 0.000703398 0.000564228 0.000437107 0.000322033 0.000219008 0.00012803 4.91007e-05 -1.77806e-05 -7.26139e-05 -0.00011628 -0.00014966 -0.000172753 -0.00018556 -0.000188081 -0.000180315 -0.000162264 -0.000133925 -0.000102537 -7.5333e-05 -5.23146e-05 -3.34814e-05 -1.88333e-05 -8.37034e-06 -2.09258e-06 0 0 -2.16034e-06 -8.64136e-06 -1.94431e-05 -3.45654e-05 -5.40085e-05 -7.77722e-05 -0.000105857 -0.000138262 -0.00016588 -0.000179602 -0.000179429 -0.000165361 -0.000137397 -9.5538e-05 -3.97836e-05 2.98661e-05 0.0001141 0.000213607 0.000328387 0.00045844 0.000603766 0.000764365 0.000940237 0.00113138 0.00132841 0.00152195 0.00171199 0.00189853 0.00208157 0.00226111 0.00243716 0.00260971 0.00276984 0.00290862 0.00302606 0.00312215 0.0031969 0.0032503 0.00328236 0.00329307 0.00328298 0.00325262 0.00320201 0.00313113 0.00303999 0.00292859 0.00279693 0.00264501 0.0024828 0.0023203 0.0021575 0.00199439 0.00183099 0.00166729 0.00150329 0.00133899 0.00118428 0.00104905 0.000933299 0.000837031 0.000760244 0.000702938 0.000665112 0.000646767 0.000647994 0.000668886 0.000709442 0.000769662 0.000849547 0.000949096 0.00106831 0.00120719 0.00135611 0.00150545 0.00165522 0.00180541 0.00195603 0.00210707 0.00225853 0.00241042 0.00255306 0.00267678 0.0027816 0.0028675 0.00293448 0.00298255 0.00301171 0.00302195 0.00301276 0.00298359 0.00293446 0.00286536 0.00277629 0.00266725 0.00253825 0.00238927 0.00222877 0.00206518 0.0018985 0.00172872 0.00155586 0.00137991 0.00120086 0.00101873 0.000842226 0.000680073 0.000532271 0.00039882 0.000279721 0.000174972 8.45738e-05 8.5269e-06 -5.39544e-05 -0.000103656 -0.000140577 -0.000164717 -0.000176078 -0.000174659 -0.000160459 -0.000133479 -0.000102195 -7.50821e-05 -5.21404e-05 -3.33698e-05 -1.87705e-05 -8.34246e-06 -2.08562e-06 0 0 -1.95162e-06 -7.80649e-06 -1.75646e-05 -3.12259e-05 -4.87905e-05 -7.02584e-05 -9.56294e-05 -0.000124904 -0.000147638 -0.00015339 -0.000142159 -0.000113945 -6.8749e-05 -6.56978e-06 7.25922e-05 0.000168737 0.00028229 0.000413676 0.000562896 0.000729949 0.000914836 0.00111756 0.00133811 0.0015765 0.00182157 0.00206216 0.00229829 0.00252995 0.00275713 0.00297985 0.00319809 0.00341186 0.00361067 0.003784 0.00393186 0.00405424 0.00415116 0.0042226 0.00426858 0.00428908 0.00428475 0.00425626 0.00420359 0.00412675 0.00402573 0.00390054 0.00375117 0.00357764 0.00339166 0.00320499 0.00301762 0.00282955 0.00264079 0.00245133 0.00226117 0.00207031 0.00189038 0.001733 0.00159818 0.00148591 0.0013962 0.00132904 0.00128443 0.00126238 0.001263 0.0012864 0.0013326 0.00140157 0.00149334 0.00160789 0.00174523 0.00190535 0.00207697 0.00224878 0.00242079 0.002593 0.00276541 0.00293802 0.00311082 0.00328382 0.00344566 0.00358497 0.00370176 0.00379602 0.00386776 0.00391697 0.00394365 0.00394781 0.00392882 0.00388604 0.00381948 0.00372914 0.00361502 0.00347712 0.00331543 0.00312996 0.00293064 0.00272739 0.00252022 0.00230913 0.0020941 0.00187516 0.00165229 0.00142549 0.00120513 0.00100155 0.00081477 0.000644777 0.000491573 0.00035516 0.000235536 0.000132703 4.60813e-05 -2.49066e-05 -8.02608e-05 -0.000119981 -0.000144068 -0.000152521 -0.00014534 -0.000122526 -9.38086e-05 -6.89206e-05 -4.78615e-05 -3.06314e-05 -1.72302e-05 -7.65785e-06 -1.91446e-06 0 0 -1.56183e-06 -6.24734e-06 -1.40565e-05 -2.49893e-05 -3.90458e-05 -5.6226e-05 -7.65299e-05 -9.99574e-05 -0.000114719 -0.000109024 -8.28735e-05 -3.62669e-05 3.07957e-05 0.000118314 0.000226289 0.000354719 0.000503641 0.000673089 0.000863064 0.00107357 0.00130459 0.00155615 0.00182823 0.00212084 0.0024209 0.00271536 0.0030042 0.00328744 0.00356507 0.00383709 0.00410349 0.00436429 0.0046073 0.00482033 0.00500338 0.00515646 0.00527957 0.0053727 0.00543585 0.00546903 0.00547301 0.00544854 0.00539562 0.00531427 0.00520447 0.00506624 0.00489956 0.00470443 0.00449448 0.00428331 0.00407092 0.0038573 0.00364247 0.00342642 0.00320914 0.00299065 0.00278441 0.00260389 0.00244911 0.00232006 0.00221673 0.00213913 0.00208726 0.00206112 0.00206086 0.00208661 0.00213838 0.00221617 0.00231998 0.0024498 0.00260565 0.00278751 0.00298232 0.003177 0.00337156 0.00356598 0.00376028 0.00395445 0.00414849 0.0043424 0.00452302 0.00467719 0.0048049 0.00490616 0.00498096 0.0050293 0.00505119 0.00504662 0.00501486 0.00495517 0.00486754 0.00475199 0.00460849 0.00443707 0.00423772 0.00401043 0.00376672 0.00351812 0.00326463 0.00300623 0.00274294 0.00247475 0.00220167 0.00192368 0.00165293 0.00140155 0.00116953 0.000956877 0.000763589 0.000589665 0.000435107 0.000299914 0.000183827 8.65873e-05 8.19451e-06 -5.13513e-05 -9.205e-05 -0.000113902 -0.000116906 -0.000101064 -7.7377e-05 -5.68484e-05 -3.94781e-05 -2.5266e-05 -1.42121e-05 -6.31649e-06 -1.57912e-06 0 0 -9.90978e-07 -3.96391e-06 -8.9188e-06 -1.58556e-05 -2.47744e-05 -3.56752e-05 -4.85579e-05 -6.34226e-05 -6.71207e-05 -4.65038e-05 -1.5719e-06 6.7675e-05 0.000161237 0.000279114 0.000421306 0.000587813 0.000778154 0.000991846 0.00122889 0.00148929 0.00177304 0.00208014 0.00241059 0.00276439 0.00312642 0.00348153 0.00382972 0.004171 0.00450537 0.00483282 0.00515336 0.00546699 0.00575973 0.00601761 0.00624064 0.00642881 0.00658213 0.00670059 0.00678419 0.00683294 0.00684773 0.00682945 0.00677811 0.0066937 0.00657622 0.00642568 0.00624208 0.0060254 0.00579126 0.00555526 0.00531738 0.00507764 0.00483603 0.00459255 0.00434721 0.0041 0.00386635 0.00366171 0.00348608 0.00333945 0.00322183 0.00313321 0.0030736 0.00304299 0.00304157 0.0030695 0.0031268 0.00321345 0.00332947 0.00347484 0.00364958 0.00385367 0.00407217 0.00429012 0.00450751 0.00472434 0.00494063 0.00515636 0.00537153 0.00558615 0.00578514 0.00595343 0.00609102 0.0061979 0.00627408 0.00631955 0.00633432 0.00631839 0.00627089 0.00619097 0.00607864 0.00593388 0.00575671 0.00554712 0.0053051 0.00503067 0.00473702 0.00443737 0.00413171 0.00382004 0.00350237 0.00317869 0.002849 0.0025133 0.00218564 0.00188006 0.00159655 0.00133512 0.00109577 0.000878488 0.000683286 0.000510161 0.000359283 0.000230826 0.000124789 4.11722e-05 -2.00246e-05 -5.88013e-05 -7.51579e-05 -6.90944e-05 -5.29004e-05 -3.88656e-05 -2.699e-05 -1.72736e-05 -9.7164e-06 -4.3184e-06 -1.0796e-06 0 0 -2.39053e-07 -9.56213e-07 -2.15148e-06 -3.82485e-06 -5.97633e-06 -8.60592e-06 -1.17136e-05 -1.52994e-05 -4.84431e-06 3.41707e-05 0.000101746 0.00019788 0.000322575 0.00047583 0.000657644 0.000868018 0.00110583 0.00136995 0.00166038 0.00197712 0.00232017 0.00268953 0.0030852 0.00350718 0.00393812 0.00436068 0.00477485 0.00518064 0.00557804 0.00596707 0.0063477 0.00671995 0.00706796 0.00737585 0.00764362 0.00787128 0.00805883 0.00820627 0.00831359 0.0083808 0.00840893 0.00839901 0.00835105 0.00826504 0.00814098 0.00797888 0.00777873 0.00754054 0.007282 0.00702083 0.00675702 0.00649056 0.00622147 0.00594974 0.00567537 0.00539836 0.00513622 0.00490647 0.0047091 0.00454411 0.0044115 0.00431128 0.00424344 0.00420799 0.00420513 0.00423508 0.00429785 0.00439342 0.00452181 0.004683 0.00487701 0.00510383 0.00534652 0.00558812 0.00582865 0.00606809 0.00630646 0.00654374 0.00677995 0.00701507 0.00723202 0.0074137 0.00756011 0.00767125 0.00774712 0.00778772 0.00779304 0.0077631 0.0076969 0.00759346 0.00745277 0.00727484 0.00705967 0.00680725 0.00651759 0.00619069 0.00584154 0.00548513 0.00512147 0.00475056 0.00437239 0.00398697 0.00359429 0.00319436 0.00280326 0.00243709 0.00209584 0.00177951 0.00148811 0.00122163 0.000980074 0.000763443 0.00057245 0.00040781 0.000269523 0.000157589 7.20083e-05 1.27802e-05 -2.00949e-05 -2.66171e-05 -2.03787e-05 -1.49721e-05 -1.03973e-05 -6.65427e-06 -3.74303e-06 -1.66357e-06 -4.15892e-07 0 0 6.9394e-07 2.77576e-06 6.24546e-06 1.1103e-05 1.73485e-05 2.49818e-05 3.40031e-05 4.44122e-05 7.21105e-05 0.000132999 0.000227079 0.000354349 0.00051481 0.000708461 0.000935303 0.00119534 0.00148666 0.00180739 0.00215752 0.00253705 0.00294598 0.00338431 0.00385204 0.00434918 0.004856 0.0053528 0.00583958 0.00631635 0.00678309 0.00723981 0.00768651 0.00812319 0.00853198 0.00889503 0.00921233 0.00948388 0.00970969 0.00988974 0.010024 0.0101126 0.0101566 0.0101572 0.0101144 0.0100283 0.00989875 0.00972583 0.00950953 0.00924985 0.00896671 0.00868003 0.00838982 0.00809607 0.00779879 0.00749798 0.00719362 0.00688574 0.00659402 0.00633816 0.00611816 0.00593402 0.00578575 0.00567334 0.0055968 0.00555611 0.00555154 0.00558335 0.00565153 0.00575608 0.005897 0.00607429 0.00628795 0.00653799 0.00680536 0.00707102 0.00733498 0.00759723 0.00785777 0.00811661 0.00837374 0.00862917 0.00886366 0.009058 0.00921218 0.00932621 0.00940008 0.0094338 0.00942736 0.00938077 0.00929289 0.00916262 0.00898994 0.00877485 0.00851737 0.00821748 0.00787518 0.00749049 0.00708027 0.00666141 0.00623391 0.00579778 0.005353 0.00489959 0.00443753 0.00396684 0.00350578 0.00307263 0.00266738 0.00229004 0.00194061 0.00161909 0.00132547 0.00105976 0.000823326 0.000617539 0.000442397 0.0002979 0.000184049 0.000100843 4.82828e-05 2.6368e-05 2.0188e-05 1.4832e-05 1.03e-05 6.592e-06 3.708e-06 1.648e-06 4.12e-07 0 0 1.89263e-06 7.57053e-06 1.70337e-05 3.02821e-05 4.73158e-05 6.81348e-05 9.2739e-05 0.000121129 0.000170527 0.000258159 0.000384024 0.000548122 0.000750454 0.000991018 0.00126982 0.00158685 0.00193927 0.00232425 0.00274179 0.00319188 0.00367453 0.00418973 0.00473748 0.0053178 0.00590846 0.00648728 0.00705425 0.00760937 0.00815265 0.00868407 0.00920365 0.00971138 0.0101873 0.0106116 0.0109841 0.0113049 0.0115739 0.0117913 0.0119569 0.0120709 0.0121344 0.0121489 0.0121144 0.0120308 0.0118982 0.0117165 0.0114858 0.0112061 0.0108996 0.0105884 0.0102726 0.00995228 0.00962731 0.00929773 0.00896355 0.00862477 0.00830333 0.00802121 0.0077784 0.00757489 0.0074107 0.00728581 0.00720023 0.00715397 0.00714731 0.00718056 0.00725372 0.00736679 0.00751977 0.00771265 0.00794545 0.00821815 0.00850957 0.0087985 0.00908496 0.00936893 0.00965043 0.00992944 0.010206 0.01048 0.0107302 0.010935 0.0110945 0.0112087 0.0112776 0.0113011 0.0112793 0.0112122 0.0110986 0.010937 0.0107276 0.0104704 0.0101653 0.0098123 0.00941148 0.00896281 0.00848513 0.00799726 0.00749921 0.00699098 0.00647258 0.00594399 0.00540522 0.00485627 0.00431771 0.00381012 0.0033335 0.00288785 0.00247316 0.00208944 0.00173669 0.00141491 0.00112627 0.000872951 0.000654959 0.000472291 0.000324946 0.000212924 0.000136226 9.48513e-05 7.26205e-05 5.33539e-05 3.70513e-05 2.37128e-05 1.33385e-05 5.92821e-06 1.48205e-06 0 0 3.44166e-06 1.37666e-05 3.09749e-05 5.50665e-05 8.60414e-05 0.0001239 0.000168641 0.000220266 0.000297189 0.000417827 0.000582177 0.000790242 0.00104202 0.00133751 0.00167672 0.00205964 0.00248227 0.0029406 0.00343464 0.00396439 0.00452984 0.00513099 0.00576786 0.00644042 0.0071239 0.00779348 0.00844917 0.00909097 0.00971887 0.0103329 0.010933 0.0115192 0.0120695 0.0125618 0.0129962 0.0133725 0.0136909 0.0139512 0.0141536 0.014298 0.014386 0.0144189 0.0143969 0.0143199 0.0141879 0.014001 0.013759 0.0134621 0.0131348 0.0128015 0.0124623 0.0121173 0.0117663 0.0114095 0.0110467 0.0106781 0.0103278 0.0100201 0.00975494 0.00953241 0.00935246 0.00921511 0.00912034 0.00906816 0.00905892 0.00909297 0.00917031 0.00929094 0.00945485 0.00966205 0.00991254 0.0102063 0.01052 0.0108303 0.0111371 0.0114404 0.0117403 0.0120367 0.0123297 0.0126192 0.0128817 0.0130934 0.0132544 0.0133646 0.0134242 0.013433 0.013391 0.0132984 0.0131535 0.0129552 0.0127033 0.0123978 0.0120388 0.0116262 0.0111601 0.0106404 0.010088 0.00952373 0.00894754 0.00835946 0.00775948 0.0071476 0.00652383 0.00588816 0.00526357 0.00467302 0.00411652 0.00359406 0.00310565 0.00265128 0.00223096 0.00184468 0.00149562 0.00118699 0.000918761 0.000690948 0.000503548 0.00035656 0.000249985 0.000183823 0.00014074 0.0001034 7.18059e-05 4.59558e-05 2.58501e-05 1.14889e-05 2.87224e-06 0 0 5.34101e-06 2.1364e-05 4.80691e-05 8.54562e-05 0.000133525 0.000192276 0.00026171 0.000341825 0.000452097 0.000612002 0.000821538 0.00108071 0.00138951 0.00174794 0.00215601 0.00261371 0.00311565 0.00365644 0.00423608 0.00485457 0.00551192 0.00620811 0.00694316 0.00771706 0.00850231 0.0092714 0.0100243 0.0107611 0.0114818 0.0121862 0.0128746 0.0135467 0.0141785 0.0147458 0.0152486 0.0156868 0.0160604 0.0163696 0.0166141 0.0167942 0.0169113 0.0169673 0.0169621 0.0168956 0.016768 0.0165791 0.0163291 0.0160178 0.0156723 0.0153193 0.0149589 0.0145911 0.0142159 0.0138332 0.0134432 0.0130457 0.0126674 0.0123347 0.0120478 0.0118066 0.0116111 0.0114612 0.0113571 0.0112987 0.0112864 0.0113206 0.0114013 0.0115285 0.0117022 0.0119225 0.0121892 0.0125025 0.0128367 0.0131663 0.0134913 0.0138116 0.0141273 0.0144385 0.0147449 0.0150468 0.0153182 0.0155332 0.0156918 0.015794 0.0158399 0.0158293 0.0157624 0.0156391 0.0154579 0.0152172 0.0149169 0.0145572 0.014138 0.0136593 0.013121 0.0125233 0.011889 0.0112408 0.0105789 0.0099032 0.0092137 0.00851043 0.00779337 0.00706252 0.00634335 0.00566132 0.00501643 0.00440868 0.00383807 0.0033046 0.00280826 0.00234907 0.0019314 0.00155964 0.0012338 0.000953872 0.000719855 0.000531751 0.000389561 0.000293283 0.000224545 0.000164972 0.000114564 7.33209e-05 4.1243e-05 1.83302e-05 4.58255e-06 0 0 7.5907e-06 3.03628e-05 6.83163e-05 0.000121451 0.000189767 0.000273265 0.000371944 0.000485805 0.00063525 0.000840684 0.00110211 0.00141952 0.00179292 0.00222231 0.00270769 0.00324905 0.00383941 0.00447176 0.0051461 0.00586244 0.00662077 0.00742109 0.0082634 0.00914771 0.0100437 0.010921 0.0117798 0.0126199 0.0134413 0.0142441 0.0150283 0.0157939 0.0165144 0.0171636 0.0177413 0.0182477 0.0186827 0.0190463 0.0193384 0.0195592 0.0197105 0.019794 0.0198099 0.019758 0.0196384 0.0194511 0.019196 0.0188733 0.0185122 0.0181418 0.0177624 0.0173737 0.0169759 0.016569 0.0161529 0.0157276 0.0153221 0.0149652 0.014657 0.0143974 0.0141865 0.0140242 0.0139105 0.0138456 0.0138297 0.0138634 0.0139467 0.0140795 0.014262 0.014494 0.0147755 0.0151067 0.0154596 0.0158066 0.0161476 0.0164826 0.0168116 0.0171346 0.0174517 0.0177628 0.0180397 0.0182544 0.0184067 0.0184969 0.0185247 0.0184903 0.0183935 0.0182345 0.0180116 0.0177229 0.0173686 0.0169485 0.0164628 0.0159114 0.0152943 0.0146115 0.0138879 0.0131485 0.0123933 0.0116222 0.0108353 0.0100325 0.00921383 0.00837934 0.00755706 0.00677503 0.00603324 0.00533171 0.00467043 0.0040494 0.00346862 0.00292809 0.00243359 0.00199092 0.00160008 0.00126106 0.000973867 0.000738498 0.000554953 0.000423232 0.000324037 0.000238068 0.000165325 0.000105808 5.9517e-05 2.6452e-05 6.613e-06 0 0 1.01907e-05 4.07629e-05 9.17164e-05 0.000163051 0.000