<?xml version="1.0"?> 
<VTKFile type="StructuredGrid" version="0.1"> 
<StructuredGrid WholeExtent="0 128 0 128 0 0"> 
<Piece Extent="0 128 0 128 0 0"> 
<PointData>
<DataArray type="Float32" Name="u" format="ascii" NumberOfComponents="1"> 
0 0 0 0 0 0 0 0 0 0 0 0 0 0 0 0 0 0 0 0 0 0 0 0 0 0 0 0 0 0 0 0 0 0 0 0 0 0 0 0 0 0 0 0 0 0 0 0 0 0 0 0 0 0 0 0 0 0 0 0 0 0 0 0 0 0 0 0 0 0 0 0 0 0 0 0 0 0 0 0 0 0 0 0 0 0 0 0 0 0 0 0 0 0 0 0 0 0 0 0 0 0 0 0 0 0 0 0 0 0 0 0 0 0 0 0 0 0 0 0 0 0 0 0 0 0 0 0 0 0 6.30486e-08 2.52195e-07 5.67438e-07 1.00878e-06 1.57622e-06 2.26975e-06 3.08938e-06 4.03511e-06 5.13372e-06 6.41198e-06 7.86989e-06 9.50745e-06 1.13247e-05 1.33215e-05 1.54981e-05 1.78542e-05 2.0334e-05 2.28814e-05 2.54964e-05 2.81789e-05 3.09291e-05 3.37468e-05 3.66321e-05 3.9585e-05 4.2549e-05 4.54676e-05 4.83408e-05 5.11687e-05 5.39511e-05 5.66882e-05 5.93799e-05 6.20262e-05 6.45988e-05 6.70694e-05 6.9438e-05 7.17046e-05 7.38692e-05 7.59317e-05 7.78923e-05 7.97508e-05 8.15026e-05 8.31431e-05 8.46721e-05 8.60897e-05 8.73958e-05 8.85906e-05 8.9674e-05 9.06459e-05 9.15148e-05 9.22889e-05 9.29683e-05 9.35529e-05 9.40428e-05 9.4438e-05 9.47384e-05 9.49441e-05 9.50655e-05 9.51133e-05 9.50875e-05 9.4988e-05 9.48148e-05 9.4568e-05 9.42475e-05 9.38533e-05 9.33913e-05 9.2867e-05 9.22805e-05 9.16318e-05 9.09209e-05 9.01478e-05 8.93125e-05 8.8415e-05 8.74553e-05 8.64337e-05 8.53501e-05 8.42045e-05 8.29969e-05 8.17273e-05 8.03957e-05 7.90021e-05 7.7546e-05 7.60268e-05 7.44445e-05 7.27991e-05 7.10906e-05 6.9319e-05 6.74844e-05 6.55866e-05 6.36325e-05 6.16288e-05 5.95754e-05 5.74725e-05 5.53199e-05 5.31177e-05 5.08658e-05 4.85644e-05 4.62347e-05 4.3898e-05 4.15544e-05 3.92039e-05 3.68465e-05 3.44821e-05 3.21108e-05 2.97326e-05 2.7386e-05 2.51097e-05 2.29035e-05 2.07676e-05 1.87019e-05 1.67063e-05 1.47811e-05 1.2926e-05 1.11756e-05 9.56458e-06 8.0928e-06 6.76029e-06 5.56707e-06 4.51311e-06 3.59844e-06 2.82304e-06 2.16139e-06 1.58796e-06 1.10275e-06 7.0576e-07 3.9699e-07 1.7644e-07 4.411e-08 0 0 2.52195e-07 1.00878e-06 2.26975e-06 4.03511e-06 6.30486e-06 9.079e-06 1.23575e-05 1.61405e-05 2.05349e-05 2.56479e-05 3.14795e-05 3.80298e-05 4.52987e-05 5.32861e-05 6.19922e-05 7.14169e-05 8.13361e-05 9.15256e-05 0.000101986 0.000112716 0.000123716 0.000134987 0.000146528 0.00015834 0.000170196 0.00018187 0.000193363 0.000204675 0.000215805 0.000226753 0.00023752 0.000248105 0.000258395 0.000268278 0.000277752 0.000286818 0.000295477 0.000303727 0.000311569 0.000319003 0.000326011 0.000332572 0.000338688 0.000344359 0.000349583 0.000354362 0.000358696 0.000362584 0.000366059 0.000369156 0.000371873 0.000374212 0.000376171 0.000377752 0.000378954 0.000379776 0.000380262 0.000380453 0.00038035 0.000379952 0.000379259 0.000378272 0.00037699 0.000375413 0.000373565 0.000371468 0.000369122 0.000366527 0.000363684 0.000360591 0.00035725 0.00035366 0.000349821 0.000345735 0.000341401 0.000336818 0.000331988 0.000326909 0.000321583 0.000316009 0.000310184 0.000304107 0.000297778 0.000291196 0.000284362 0.000277276 0.000269937 0.000262346 0.00025453 0.000246515 0.000238302 0.00022989 0.000221279 0.000212471 0.000203463 0.000194258 0.000184939 0.000175592 0.000166218 0.000156816 0.000147386 0.000137928 0.000128443 0.00011893 0.000109544 0.000100439 9.16141e-05 8.30703e-05 7.48074e-05 6.68254e-05 5.91242e-05 5.17039e-05 4.47026e-05 3.82583e-05 3.23712e-05 2.70412e-05 2.22683e-05 1.80525e-05 1.43938e-05 1.12922e-05 8.64556e-06 6.35184e-06 4.411e-06 2.82304e-06 1.58796e-06 7.0576e-07 1.7644e-07 0 0 5.67438e-07 2.26975e-06 5.10694e-06 9.079e-06 1.41859e-05 2.04278e-05 2.78045e-05 3.6316e-05 4.62035e-05 5.77078e-05 7.0829e-05 8.5567e-05 0.000101922 0.000119894 0.000139483 0.000160688 0.000183006 0.000205933 0.000229467 0.00025361 0.000278362 0.000303721 0.000329689 0.000356265 0.000382941 0.000409208 0.000435067 0.000460518 0.00048556 0.000510194 0.000534419 0.000558236 0.000581389 0.000603625 0.000624942 0.000645341 0.000664822 0.000683386 0.00070103 0.000717757 0.000733524 0.000748288 0.000762049 0.000774807 0.000786563 0.000797315 0.000807066 0.000815813 0.000823633 0.0008306 0.000836714 0.000841976 0.000846385 0.000849942 0.000852645 0.000854497 0.00085559 0.00085602 0.000855787 0.000854892 0.000853333 0.000851112 0.000848227 0.00084468 0.000840521 0.000835803 0.000830524 0.000824686 0.000818288 0.00081133 0.000803812 0.000795735 0.000787098 0.000777904 0.000768151 0.000757841 0.000746972 0.000735546 0.000723562 0.000711019 0.000697914 0.000684241 0.00067 0.000655192 0.000639815 0.000623871 0.000607359 0.000590279 0.000572693 0.000554659 0.000536179 0.000517252 0.000497879 0.000478059 0.000457793 0.000437079 0.000416112 0.000395082 0.00037399 0.000352835 0.000331618 0.000310339 0.000288997 0.000267593 0.000246474 0.000225987 0.000206132 0.000186908 0.000168317 0.000150357 0.000133029 0.000116334 0.000100581 8.60812e-05 7.28352e-05 6.08426e-05 5.01036e-05 4.0618e-05 3.23859e-05 2.54074e-05 1.94525e-05 1.42916e-05 9.92475e-06 6.35184e-06 3.57291e-06 1.58796e-06 3.9699e-07 0 0 1.00878e-06 4.03511e-06 9.079e-06 1.61405e-05 2.52195e-05 3.6316e-05 4.94301e-05 6.45618e-05 8.21395e-05 0.000102592 0.000125918 0.000152119 0.000181195 0.000213145 0.000247969 0.000285668 0.000325344 0.000366103 0.000407942 0.000450863 0.000494865 0.000539949 0.000586114 0.00063336 0.000680784 0.000727482 0.000773453 0.000818699 0.000863218 0.000907011 0.000950078 0.000992419 0.00103358 0.00107311 0.00111101 0.00114727 0.00118191 0.00121491 0.00124628 0.00127601 0.00130404 0.00133029 0.00135475 0.00137743 0.00139833 0.00141745 0.00143478 0.00145033 0.00146424 0.00147662 0.00148749 0.00149685 0.00150469 0.00151101 0.00151581 0.0015191 0.00152105 0.00152181 0.0015214 0.00151981 0.00151704 0.00151309 0.00150796 0.00150165 0.00149426 0.00148587 0.00147649 0.00146611 0.00145473 0.00144236 0.001429 0.00141464 0.00139929 0.00138294 0.0013656 0.00134727 0.00132795 0.00130764 0.00128633 0.00126403 0.00124074 0.00121643 0.00119111 0.00116479 0.00113745 0.0011091 0.00107975 0.00104939 0.00101812 0.00098606 0.000953207 0.000919559 0.000885118 0.000849883 0.000813853 0.00077703 0.000739755 0.000702368 0.000664871 0.000627263 0.000589544 0.000551714 0.000513773 0.000475722 0.000438176 0.000401755 0.000366456 0.000332281 0.00029923 0.000267302 0.000236497 0.000206816 0.00017881 0.000153033 0.000129485 0.000108165 8.9073e-05 7.22098e-05 5.7575e-05 4.51686e-05 3.45822e-05 2.54074e-05 1.7644e-05 1.12922e-05 6.35184e-06 2.82304e-06 7.0576e-07 0 0 1.57622e-06 6.30486e-06 1.41859e-05 2.52195e-05 3.94054e-05 5.67438e-05 7.72346e-05 0.000100878 0.000128343 0.000160299 0.000196747 0.000237686 0.000283117 0.000333038 0.000387451 0.000446356 0.000508351 0.000572035 0.000637409 0.000704473 0.000773227 0.00084367 0.000915802 0.000989625 0.00106372 0.00113669 0.00120852 0.00127922 0.00134878 0.00141721 0.0014845 0.00155066 0.00161497 0.00167674 0.00173595 0.00179261 0.00184673 0.00189829 0.00194731 0.00199377 0.00203757 0.00207858 0.0021168 0.00215224 0.0021849 0.00221477 0.00224185 0.00226615 0.00228787 0.00230722 0.00232421 0.00233882 0.00235107 0.00236095 0.00236846 0.0023736 0.00237664 0.00237783 0.00237719 0.0023747 0.00237037 0.0023642 0.00235619 0.00234633 0.00233478 0.00232167 0.00230701 0.00229079 0.00227302 0.00225369 0.00223281 0.00221037 0.00218638 0.00216084 0.00213375 0.00210511 0.00207492 0.00204318 0.00200989 0.00197505 0.00193865 0.00190067 0.00186111 0.00181998 0.00177727 0.00173298 0.00168711 0.00163967 0.00159081 0.00154072 0.00148939 0.00143681 0.001383 0.00132794 0.00127165 0.00121411 0.00115587 0.00109745 0.00103886 0.000980098 0.000921162 0.000862053 0.000802771 0.000743315 0.000684651 0.000627742 0.000572588 0.000519189 0.000467546 0.000417659 0.000369526 0.000323149 0.000279391 0.000239115 0.00020232 0.000169007 0.000139177 0.000112828 8.9961e-05 7.0576e-05 5.40347e-05 3.9699e-05 2.75687e-05 1.7644e-05 9.92475e-06 4.411e-06 1.10275e-06 0 0 2.26975e-06 9.079e-06 2.04278e-05 3.6316e-05 5.67438e-05 8.1711e-05 0.000111218 0.000145264 0.000184814 0.000230831 0.000283316 0.000342268 0.000407688 0.000479575 0.00055793 0.000642752 0.000732025 0.000823731 0.00091787 0.00101444 0.00111345 0.00121488 0.00131876 0.00142506 0.00153176 0.00163683 0.00174027 0.00184207 0.00194224 0.00204078 0.00213768 0.00223294 0.00232556 0.0024145 0.00249977 0.00258137 0.00265929 0.00273354 0.00280412 0.00287103 0.0029341 0.00299315 0.00304819 0.00309923 0.00314625 0.00318926 0.00322826 0.00326325 0.00329453 0.0033224 0.00334686 0.0033679 0.00338554 0.00339977 0.00341058 0.00341799 0.00342236 0.00342408 0.00342315 0.00341957 0.00341333 0.00340445 0.00339291 0.00337872 0.00336209 0.00334321 0.0033221 0.00329874 0.00327315 0.00324532 0.00321525 0.00318294 0.00314839 0.00311161 0.0030726 0.00303136 0.00298789 0.00294218 0.00289425 0.00284408 0.00279166 0.00273696 0.00268 0.00262077 0.00255926 0.00249548 0.00242944 0.00236112 0.00229077 0.00221864 0.00214472 0.00206901 0.00199152 0.00191224 0.00183117 0.00174832 0.00166445 0.00158033 0.00149596 0.00141134 0.00132647 0.00124136 0.00115599 0.00107037 0.000985897 0.000903948 0.000824527 0.000747633 0.000673267 0.000601429 0.000532118 0.000465335 0.000402323 0.000344325 0.000291341 0.000243371 0.000200414 0.000162472 0.000129544 0.000101629 7.781e-05 5.71666e-05 3.9699e-05 2.54074e-05 1.42916e-05 6.35184e-06 1.58796e-06 0 0 3.08938e-06 1.23575e-05 2.78045e-05 4.94301e-05 7.72346e-05 0.000111218 0.00015138 0.000197721 0.000251552 0.000314187 0.000385624 0.000465865 0.000554909 0.000652755 0.000759405 0.000874857 0.000996367 0.00112119 0.00124932 0.00138077 0.00151552 0.00165359 0.00179497 0.00193966 0.0020849 0.00222791 0.0023687 0.00250727 0.00264361 0.00277772 0.00290962 0.00303928 0.00316534 0.0032864 0.00340246 0.00351353 0.00361959 0.00372065 0.00381672 0.00390779 0.00399363 0.00407401 0.00414893 0.00421839 0.0042824 0.00434094 0.00439402 0.00444165 0.00448422 0.00452216 0.00455545 0.00458409 0.0046081 0.00462746 0.00464218 0.00465226 0.00465821 0.00466055 0.00465929 0.00465441 0.00464593 0.00463383 0.00461813 0.00459881 0.00457617 0.00455048 0.00452174 0.00448996 0.00445512 0.00441724 0.00437631 0.00433233 0.00428531 0.00423525 0.00418216 0.00412602 0.00406685 0.00400464 0.00393939 0.00387111 0.00379975 0.00372531 0.00364778 0.00356716 0.00348344 0.00339663 0.00330673 0.00321374 0.00311799 0.00301981 0.0029192 0.00281615 0.00271067 0.00260277 0.00249243 0.00237965 0.0022655 0.002151 0.00203617 0.00192099 0.00180548 0.00168962 0.00157343 0.0014569 0.00134192 0.00123037 0.00112227 0.00101761 0.000916391 0.000818611 0.000724272 0.000633373 0.000547606 0.000468664 0.000396547 0.000331254 0.000272786 0.000221143 0.000176323 0.000138329 0.000105908 7.781e-05 5.40347e-05 3.45822e-05 1.94525e-05 8.64556e-06 2.16139e-06 0 0 4.03511e-06 1.61405e-05 3.6316e-05 6.45618e-05 0.000100878 0.000145264 0.000197721 0.000258247 0.000328558 0.000410366 0.000503673 0.000608477 0.000724779 0.000852578 0.000991876 0.00114267 0.00130138 0.00146441 0.00163177 0.00180345 0.00197946 0.00215979 0.00234445 0.00253344 0.00272314 0.00290993 0.00309381 0.0032748 0.00345287 0.00362805 0.00380031 0.00396968 0.00413432 0.00429244 0.00444403 0.00458909 0.00472763 0.00485963 0.00498511 0.00510405 0.00521617 0.00532116 0.00541901 0.00550974 0.00559333 0.0056698 0.00573913 0.00580134 0.00585695 0.00590649 0.00594997 0.00598739 0.00601874 0.00604403 0.00606326 0.00607642 0.00608419 0.00608725 0.0060856 0.00607923 0.00606815 0.00605235 0.00603184 0.00600661 0.00597704 0.00594349 0.00590595 0.00586443 0.00581894 0.00576946 0.005716 0.00565856 0.00559714 0.00553176 0.00546241 0.00538909 0.0053118 0.00523055 0.00514533 0.00505614 0.00496294 0.00486571 0.00476445 0.00465914 0.0045498 0.00443642 0.004319 0.00419754 0.00407248 0.00394424 0.00381283 0.00367824 0.00354047 0.00339953 0.00325541 0.00310812 0.00295902 0.00280947 0.00265948 0.00250905 0.00235817 0.00220686 0.00205509 0.00190289 0.00175271 0.00160702 0.00146582 0.00132913 0.00119692 0.00106921 0.000945987 0.000827262 0.000715241 0.000612133 0.000517939 0.000432659 0.000356292 0.000288839 0.0002303 0.000180675 0.000138329 0.000101629 7.0576e-05 4.51686e-05 2.54074e-05 1.12922e-05 2.82304e-06 0 0 5.14342e-06 2.05737e-05 4.62908e-05 8.22948e-05 0.000128586 0.000185163 0.000252028 0.000329179 0.000418731 0.000522799 0.000641382 0.000774481 0.000922094 0.00108422 0.00126087 0.00145203 0.00165317 0.00185975 0.00207178 0.00228925 0.00251217 0.00274053 0.00297433 0.00321358 0.00345372 0.00369019 0.00392298 0.00415211 0.00437756 0.00459934 0.00481745 0.00503189 0.00524037 0.0054406 0.00563257 0.0058163 0.00599178 0.006159 0.00631798 0.0064687 0.00661079 0.00674386 0.0068679 0.00698293 0.00708894 0.00718592 0.00727389 0.00735283 0.00742342 0.00748633 0.00754156 0.0075891 0.00762896 0.00766114 0.00768564 0.00770245 0.00771243 0.00771643 0.00771444 0.00770647 0.00769252 0.00767258 0.00764667 0.00761476 0.00757734 0.00753487 0.00748733 0.00743475 0.0073771 0.0073144 0.00724665 0.00717384 0.00709599 0.0070131 0.00692519 0.00683224 0.00673426 0.00663124 0.0065232 0.00641013 0.00629198 0.00616872 0.00604036 0.00590688 0.0057683 0.0056246 0.00547579 0.00532188 0.0051634 0.00500091 0.00483441 0.0046639 0.00448937 0.00431083 0.00412828 0.00394172 0.00375287 0.00356346 0.00337349 0.00318296 0.00299188 0.00280023 0.00260803 0.00241526 0.00222505 0.0020405 0.00186162 0.0016884 0.00152085 0.00135896 0.00120273 0.00105217 0.00091007 0.00077923 0.000659649 0.000551326 0.000454263 0.000368459 0.000293914 0.000230627 0.000176574 0.000129728 9.00888e-05 5.76568e-05 3.2432e-05 1.44142e-05 3.60355e-06 0 0 6.4508e-06 2.58032e-05 5.80572e-05 0.000103213 0.00016127 0.000232229 0.000316089 0.000412851 0.000524973 0.000654914 0.000802675 0.000968254 0.00115165 0.00135287 0.00157191 0.00180876 0.00205784 0.00231357 0.00257593 0.00284492 0.00312056 0.00340284 0.00369175 0.0039873 0.00428391 0.004576 0.00486358 0.00514664 0.00542518 0.0056992 0.0059687 0.00623369 0.00649134 0.00673884 0.00697618 0.00720337 0.00742042 0.0076273 0.00782404 0.00801062 0.00818657 0.00835139 0.00850508 0.00864764 0.00877908 0.00889939 0.00900858 0.00910663 0.00919437 0.00927261 0.00934133 0.00940055 0.00945025 0.00949045 0.00952114 0.00954233 0.00955504 0.00956032 0.00955816 0.00954858 0.00953156 0.00950711 0.00947522 0.00943591 0.00938973 0.00933726 0.00927851 0.00921347 0.00914213 0.00906452 0.00898061 0.00889041 0.00879395 0.00869125 0.00858231 0.00846713 0.00834572 0.00821806 0.00808416 0.00794402 0.00779761 0.00764489 0.00748587 0.00732053 0.00714889 0.00697094 0.00678668 0.00659611 0.00639992 0.0061988 0.00599274 0.00578175 0.00556583 0.00534497 0.00511917 0.00488845 0.00465491 0.00442068 0.00418577 0.00395018 0.0037139 0.00347693 0.00323928 0.00300094 0.00276573 0.00253744 0.00231609 0.00210166 0.00189417 0.0016936 0.00149996 0.00131326 0.00113694 0.000974454 0.000825808 0.000691 0.00057003 0.000462898 0.000369604 0.000290148 0.000222145 0.000163208 0.000113339 7.25371e-05 4.08021e-05 1.81343e-05 4.53357e-06 0 0 7.95723e-06 3.18289e-05 7.16151e-05 0.000127316 0.000198931 0.00028646 0.000389904 0.000509263 0.000647283 0.000806712 0.00098755 0.0011898 0.00141345 0.00165852 0.00192499 0.00221287 0.00251541 0.00282586 0.00314421 0.00347047 0.00380464 0.00414671 0.0044967 0.00485458 0.0052137 0.00556738 0.00591561 0.00625839 0.00659573 0.00692762 0.00725407 0.00757507 0.00788723 0.00818716 0.00847485 0.00875031 0.00901354 0.00926453 0.00950329 0.00972982 0.0099435 0.0101437 0.0103305 0.0105039 0.0106638 0.0108102 0.0109432 0.0110628 0.0111698 0.0112653 0.0113493 0.0114217 0.0114826 0.011532 0.0115698 0.0115961 0.011612 0.0116189 0.0116168 0.0116055 0.0115853 0.0115559 0.0115175 0.01147 0.0114142 0.0113507 0.0112795 0.0112006 0.011114 0.0110198 0.0109179 0.0108083 0.010691 0.0105662 0.0104338 0.0102938 0.0101462 0.00999099 0.0098282 0.00965783 0.00947984 0.00929422 0.00910097 0.00890009 0.00869158 0.00847543 0.00825165 0.00802024 0.00778205 0.00753791 0.00728783 0.00703181 0.00676984 0.00650194 0.00622809 0.00594831 0.00566514 0.00538115 0.00509633 0.0048107 0.00452424 0.00423696 0.00394886 0.00365993 0.00337474 0.00309784 0.00282923 0.00256891 0.00231688 0.00207314 0.00183769 0.00161053 0.00139584 0.0011978 0.00101642 0.00085168 0.000703593 0.000572157 0.000457372 0.000359237 0.000275041 0.000202071 0.000140327 8.98093e-05 5.05178e-05 2.24523e-05 5.61308e-06 0 0 9.66273e-06 3.86509e-05 8.69646e-05 0.000154604 0.000241568 0.000347858 0.000473474 0.000618415 0.000785661 0.000978192 0.00119601 0.00143911 0.00170749 0.00200116 0.00232012 0.00266436 0.00302587 0.00339662 0.00377663 0.00416589 0.0045644 0.00497217 0.00538918 0.00581544 0.0062431 0.00666431 0.00707906 0.00748737 0.00788921 0.00828461 0.00867355 0.00905604 0.00942805 0.00978557 0.0101286 0.0104571 0.0107712 0.0110707 0.0113557 0.0116263 0.0118816 0.0121209 0.0123443 0.0125516 0.012743 0.0129184 0.0130778 0.0132212 0.0133497 0.0134645 0.0135654 0.0136526 0.0137261 0.0137857 0.0138315 0.0138636 0.0138834 0.0138923 0.0138903 0.0138774 0.0138536 0.013819 0.0137735 0.0137172 0.0136507 0.0135751 0.0134902 0.0133961 0.0132928 0.0131802 0.0130584 0.0129274 0.0127872 0.012638 0.0124796 0.0123122 0.0121356 0.01195 0.0117553 0.0115515 0.0113387 0.0111167 0.0108857 0.0106456 0.0103964 0.0101381 0.00987072 0.00959427 0.00930977 0.00901824 0.00871966 0.00841406 0.00810142 0.00778175 0.00745504 0.0071213 0.00678356 0.00644485 0.00610516 0.00576452 0.0054229 0.00508031 0.00473675 0.00439223 0.00405209 0.0037217 0.00340105 0.00309015 0.00278899 0.00249758 0.00221591 0.00194399 0.00168679 0.00144928 0.00123148 0.00103337 0.000854952 0.000696236 0.000557217 0.000437895 0.000335263 0.000246316 0.000171053 0.000109474 6.15789e-05 2.73684e-05 6.8421e-06 0 0 1.15673e-05 4.62692e-05 0.000104106 0.000185077 0.000289182 0.000416423 0.000566797 0.000740307 0.000940107 0.00116935 0.00142805 0.00171619 0.00203378 0.00238081 0.00275729 0.00316322 0.00358921 0.00402587 0.00447319 0.00493119 0.00539985 0.00587919 0.00636919 0.00686987 0.0073721 0.0078668 0.00835395 0.00883356 0.00930563 0.00977016 0.0102271 0.0106766 0.0111138 0.0115341 0.0119374 0.0123238 0.0126933 0.0130458 0.0133814 0.0137 0.0140008 0.0142829 0.0145463 0.0147909 0.0150167 0.0152239 0.0154123 0.0155819 0.0157341 0.0158701 0.0159898 0.0160933 0.0161806 0.0162516 0.0163064 0.016345 0.0163691 0.0163803 0.0163786 0.0163641 0.0163367 0.0162964 0.0162433 0.0161773 0.0160994 0.0160105 0.0159108 0.0158001 0.0156784 0.0155458 0.0154023 0.0152478 0.0150826 0.0149065 0.0147198 0.0145223 0.0143141 0.0140952 0.0138655 0.0136252 0.0133741 0.0131124 0.01284 0.0125569 0.0122632 0.0119589 0.0116439 0.0113182 0.0109831 0.0106398 0.0102883 0.00992851 0.00956056 0.00918439 0.00880002 0.00840743 0.00801017 0.00761178 0.00721227 0.00681164 0.00640987 0.00600698 0.00560297 0.00519783 0.00479777 0.00440901 0.00403154 0.00366537 0.00331049 0.00296691 0.00263462 0.00231363 0.00200977 0.00172889 0.00147098 0.00123606 0.00102411 0.000835134 0.000669139 0.00052612 0.000402811 0.000295943 0.000205516 0.00013153 7.39856e-05 3.28825e-05 8.22063e-06 0 0 1.36709e-05 5.46837e-05 0.000123038 0.000218735 0.000341773 0.000492153 0.000669875 0.000874939 0.00111062 0.0013802 0.00168367 0.00202104 0.0023923 0.00279746 0.00323652 0.00370946 0.00420544 0.00471358 0.00523389 0.00576636 0.00631099 0.00686778 0.00743674 0.00801786 0.00860071 0.00917484 0.00974027 0.010297 0.010845 0.0113843 0.0119149 0.0124367 0.0129445 0.0134326 0.0139013 0.0143503 0.0147798 0.0151898 0.0155802 0.015951 0.0163013 0.0166298 0.0169366 0.0172217 0.017485 0.0177267 0.0179467 0.018145 0.018323 0.0184821 0.0186223 0.0187437 0.0188461 0.0189297 0.0189945 0.0190403 0.0190692 0.0190831 0.0190819 0.0190657 0.0190344 0.0189881 0.0189268 0.0188504 0.0187601 0.018657 0.0185411 0.0184124 0.0182709 0.0181166 0.0179495 0.0177696 0.017577 0.0173719 0.0171543 0.0169242 0.0166816 0.0164265 0.0161588 0.0158787 0.0155861 0.0152812 0.0149639 0.0146342 0.0142922 0.0139378 0.0135711 0.013192 0.012802 0.0124025 0.0119936 0.0115752 0.0111473 0.0107099 0.010263 0.00980668 0.00934497 0.00888196 0.00841765 0.00795206 0.00748517 0.00701698 0.00654751 0.00607674 0.00561179 0.00515978 0.00472071 0.00429458 0.00388139 0.00348113 0.00309382 0.00271945 0.00236479 0.00203662 0.00173494 0.00145975 0.00121106 0.000988852 0.000793138 0.000623914 0.000477684 0.000350952 0.000243716 0.000155978 8.77379e-05 3.89946e-05 9.74865e-06 0 0 1.59736e-05 6.38944e-05 0.000143762 0.000255578 0.00039934 0.00057505 0.000782707 0.00102231 0.0012972 0.00161073 0.00196288 0.00235366 0.00278307 0.00325111 0.00375778 0.00430308 0.00487456 0.00545978 0.00605872 0.0066714 0.00729781 0.00793795 0.00859182 0.00925943 0.00992892 0.0105884 0.011238 0.0118776 0.0125073 0.013127 0.0137367 0.0143364 0.0149201 0.0154813 0.0160202 0.0165367 0.0170309 0.0175027 0.0179522 0.0183793 0.0187828 0.0191614 0.0195151 0.019844 0.0201479 0.0204269 0.0206811 0.0209104 0.0211163 0.0213005 0.021463 0.0216038 0.0217228 0.0218201 0.0218956 0.0219494 0.0219837 0.0220005 0.022 0.0219821 0.0219468 0.0218941 0.021824 0.0217365 0.0216329 0.0215145 0.0213812 0.0212332 0.0210703 0.0208925 0.0207 0.0204926 0.0202706 0.0200341 0.0197832 0.0195179 0.0192381 0.0189439 0.0186352 0.0183121 0.0179747 0.0176232 0.0172574 0.0168774 0.0164833 0.016075 0.0156525 0.0152158 0.0147666 0.0143065 0.0138357 0.013354 0.0128615 0.0123582 0.011844 0.0113191 0.010788 0.0102554 0.00972131 0.00918578 0.00864878 0.00811031 0.00757036 0.00702895 0.00649414 0.00597401 0.00546855 0.00497778 0.00450168 0.00404026 0.00359351 0.00316145 0.00275185 0.00237248 0.00202335 0.00170446 0.0014158 0.00115739 0.000929214 0.000731276 0.000559883 0.000411343 0.000285655 0.000182819 0.000102836 4.57047e-05 1.14262e-05 0 0 1.84754e-05 7.39014e-05 0.000166278 0.000295606 0.000461884 0.000665113 0.000905293 0.00118242 0.00149985 0.00186094 0.00226567 0.00271405 0.00320608 0.00374176 0.0043211 0.00494408 0.00559657 0.00626445 0.00694769 0.00764632 0.00836031 0.00908969 0.00983444 0.0105946 0.0113567 0.0121076 0.0128472 0.0135755 0.0142925 0.0149982 0.0156926 0.0163758 0.0170406 0.0176801 0.0182942 0.018883 0.0194465 0.0199846 0.0204974 0.0209849 0.0214455 0.0218779 0.022282 0.0226578 0.0230053 0.0233245 0.0236154 0.0238781 0.0241141 0.0243254 0.0245119 0.0246736 0.0248105 0.0249226 0.0250099 0.0250724 0.0251125 0.0251327 0.025133 0.0251134 0.0250738 0.0250143 0.0249349 0.0248356 0.0247178 0.024583 0.0244312 0.0242623 0.0240765 0.0238736 0.0236537 0.0234169 0.0231632 0.0228931 0.0226064 0.0223033 0.0219836 0.0216474 0.0212947 0.0209255 0.02054 0.0201383 0.0197205 0.0192865 0.0188365 0.0183702 0.0178879 0.0173894 0.0168767 0.0163517 0.0158145 0.0152651 0.0147033 0.0141293 0.0135431 0.0129446 0.0123391 0.011732 0.0111232 0.0105128 0.00990071 0.00928696 0.00867154 0.00805447 0.00744483 0.00685169 0.00627507 0.00571496 0.00517136 0.00464427 0.0041337 0.00363964 0.00317094 0.00273646 0.00233621 0.00197017 0.00163835 0.00134075 0.00107737 0.000848206 0.000649408 0.000477116 0.00033133 0.000212051 0.000119279 5.30129e-05 1.32532e-05 0 0 2.11324e-05 8.45296e-05 0.000190192 0.000338118 0.00052831 0.000760766 0.00103549 0.00135247 0.00171503 0.00212646 0.00258678 0.00309596 0.00365403 0.00426097 0.00491679 0.00562149 0.00635915 0.00711386 0.00788564 0.00867446 0.00948034 0.0103033 0.0111433 0.0120003 0.0128595 0.0137061 0.01454 0.0153611 0.0161696 0.0169655 0.0177486 0.018519 0.0192689 0.0199904 0.0206834 0.0213479 0.0219841 0.0225918 0.023171 0.0237218 0.0242425 0.0247314 0.0251884 0.0256135 0.0260069 0.0263684 0.026698 0.0269958 0.0272637 0.0275036 0.0277155 0.0278993 0.0280552 0.028183 0.0282828 0.0283546 0.0284011 0.0284249 0.0284262 0.0284049 0.028361 0.0282945 0.0282054 0.0280938 0.0279611 0.0278092 0.0276379 0.0274473 0.0272374 0.0270082 0.0267596 0.0264918 0.0262049 0.0258994 0.0255751 0.0252322 0.0248706 0.0244903 0.0240913 0.0236736 0.0232375 0.0227832 0.0223107 0.02182 0.0213112 0.0207842 0.020239 0.0196756 0.0190962 0.0185031 0.0178963 0.0172757 0.0166413 0.0159932 0.0153313 0.0146557 0.0139723 0.0132871 0.0125999 0.0119109 0.0112201 0.0105274 0.00983278 0.00913635 0.00844819 0.00777842 0.00712706 0.00649409 0.00587953 0.00528336 0.00470559 0.00414622 0.00361524 0.00312263 0.00266839 0.00225253 0.00187503 0.00153591 0.00123516 0.000972776 0.000744782 0.000547187 0.000379991 0.000243194 0.000136797 6.07985e-05 1.51996e-05 0 0 2.3901e-05 9.56038e-05 0.000215109 0.000382415 0.000597524 0.000860434 0.00117115 0.00152966 0.00193919 0.00240295 0.00292094 0.00349316 0.00411961 0.00480029 0.0055352 0.00632434 0.00714996 0.0079943 0.00885738 0.00973919 0.0106397 0.011559 0.012497 0.0134537 0.0144128 0.0153577 0.0162885 0.0172051 0.0181077 0.0189961 0.0198705 0.0207306 0.021568 0.0223737 0.0231478 0.0238903 0.0246012 0.0252805 0.0259282 0.0265443 0.0271268 0.0276739 0.0281855 0.0286617 0.0291023 0.0295075 0.0298773 0.0302115 0.0305124 0.0307819 0.0310201 0.031227 0.0314026 0.0315468 0.0316597 0.0317413 0.0317945 0.0318224 0.0318249 0.0318021 0.0317538 0.0316803 0.0315813 0.0314571 0.0313092 0.0311397 0.0309484 0.0307355 0.0305008 0.0302445 0.0299664 0.0296666 0.0293455 0.0290034 0.0286404 0.0282565 0.0278516 0.0274257 0.026979 0.0265113 0.026023 0.0255144 0.0249855 0.0244364 0.0238669 0.0232772 0.0226673 0.022037 0.021389 0.0207257 0.0200471 0.0193532 0.0186441 0.0179197 0.01718 0.016425 0.0156613 0.0148956 0.0141278 0.0133579 0.012586 0.0118119 0.0110358 0.0102576 0.00948857 0.00873979 0.00801131 0.00730314 0.00661526 0.00594768 0.00530041 0.00467343 0.00407792 0.00352504 0.00301479 0.00254718 0.0021222 0.00173985 0.00140014 0.00110306 0.00084453 0.000620471 0.000430883 0.000275765 0.000155118 6.89412e-05 1.72353e-05 0 0 2.6781e-05 0.000107124 0.000241029 0.000428496 0.000669526 0.000964117 0.00131227 0.00171399 0.00217234 0.0026904 0.00326816 0.00390564 0.00460283 0.00535972 0.00617632 0.00705263 0.007969 0.00890577 0.00986294 0.0108405 0.0118385 0.0128569 0.0138956 0.0149548 0.0160164 0.0170624 0.0180927 0.0191075 0.0201067 0.0210903 0.0220582 0.0230106 0.0239378 0.0248301 0.0256875 0.0265102 0.027298 0.0280509 0.028769 0.0294523 0.0300985 0.0307056 0.0312735 0.0318022 0.0322917 0.032742 0.0331531 0.0335251 0.0338601 0.0341603 0.0344259 0.0346567 0.0348527 0.0350141 0.0351407 0.0352325 0.0352929 0.0353251 0.0353291 0.0353048 0.0352523 0.0351716 0.0350627 0.0349255 0.0347621 0.0345746 0.0343628 0.0341269 0.0338668 0.0335825 0.033274 0.0329413 0.0325849 0.0322052 0.0318023 0.0313761 0.0309266 0.0304538 0.0299578 0.0294386 0.0288964 0.0283319 0.0277449 0.0271355 0.0265037 0.0258494 0.0251728 0.0244737 0.0237549 0.0230194 0.022267 0.0214977 0.0207116 0.0199087 0.019089 0.0182524 0.0174062 0.0165577 0.0157069 0.0148538 0.0139984 0.0131407 0.0122807 0.0114183 0.010566 0.0097358 0.00892784 0.0081421 0.00737857 0.00663725 0.00591814 0.00522125 0.00455897 0.00394369 0.00337541 0.00285413 0.00237986 0.00195259 0.00157232 0.00123905 0.000948651 0.000696968 0.000484006 0.000309764 0.000174242 7.74409e-05 1.93602e-05 0 0 2.97726e-05 0.00011909 0.000267953 0.000476362 0.000744315 0.00107181 0.00145886 0.00190545 0.00241447 0.0029888 0.00362844 0.0043334 0.00510367 0.00593926 0.00684016 0.00780637 0.00881628 0.00984825 0.0109023 0.0119784 0.0130766 0.0141968 0.0153392 0.0165035 0.0176704 0.0188201 0.0199528 0.0210682 0.0221666 0.0232478 0.0243119 0.0253589 0.0263783 0.0273595 0.0283025 0.0292075 0.0300743 0.0309029 0.0316934 0.0324458 0.0331576 0.0338264 0.0344522 0.035035 0.0355749 0.0360718 0.0365256 0.0369365 0.0373068 0.0376389 0.0379327 0.0381883 0.0384056 0.0385848 0.0387257 0.0388283 0.0388963 0.0389331 0.0389387 0.0389131 0.0388564 0.0387685 0.0386494 0.0384991 0.0383198 0.0381138 0.0378811 0.0376215 0.0373353 0.0370223 0.0366825 0.0363159 0.0359232 0.0355048 0.0350607 0.034591 0.0340956 0.0335745 0.0330278 0.0324554 0.0318579 0.0312357 0.0305889 0.0299175 0.0292215 0.0285008 0.0277555 0.0269856 0.0261941 0.0253842 0.0245559 0.0237092 0.022844 0.0219604 0.0210583 0.0201378 0.0192069 0.0182733 0.0173373 0.0163986 0.0154574 0.0145136 0.0135673 0.0126185 0.0116804 0.0107664 0.00987663 0.00901097 0.00816944 0.00735205 0.0065588 0.00578969 0.00505839 0.00437857 0.00375023 0.00317338 0.002648 0.00217411 0.00175169 0.00138076 0.00105715 0.000776679 0.00053936 0.000345191 0.00019417 8.62977e-05 2.15744e-05 0 0 3.28757e-05 0.000131503 0.000295881 0.000526011 0.000821892 0.00118353 0.00161091 0.00210404 0.00266558 0.00329816 0.00400178 0.00477645 0.00562216 0.00653891 0.00752672 0.00858556 0.0096918 0.0108218 0.0119755 0.0131529 0.0143541 0.015579 0.0168276 0.0181 0.0193748 0.020631 0.0218685 0.0230873 0.0242874 0.0254688 0.0266315 0.0277756 0.0288895 0.0299619 0.0309928 0.0319822 0.0329301 0.0338365 0.0347014 0.0355248 0.036304 0.0370363 0.0377217 0.0383603 0.038952 0.0394968 0.0399948 0.0404459 0.0408526 0.0412175 0.0415406 0.0418219 0.0420613 0.0422589 0.0424147 0.0425287 0.0426046 0.0426463 0.0426538 0.0426271 0.0425661 0.0424709 0.0423415 0.0421778 0.0419823 0.0417574 0.0415031 0.0412194 0.0409063 0.0405638 0.0401918 0.0397905 0.0393604 0.0389021 0.0384157 0.0379012 0.0373586 0.0367878 0.0361889 0.0355619 0.0349073 0.0342259 0.0335176 0.0327824 0.0320203 0.0312313 0.0304155 0.0295727 0.0287065 0.0278202 0.0269139 0.0259875 0.0250411 0.0240746 0.023088 0.0220814 0.0210634 0.0200425 0.0190188 0.0179923 0.0169629 0.0159308 0.0148958 0.013858 0.0128318 0.0118317 0.0108577 0.00990975 0.00898788 0.00809209 0.00722238 0.00637875 0.00557619 0.00482969 0.00413927 0.00350492 0.00292663 0.00240441 0.00193826 0.00152818 0.00117002 0.000859603 0.000596946 0.000382046 0.000214901 9.55114e-05 2.38779e-05 0 0 3.60903e-05 0.000144361 0.000324813 0.000577445 0.000902258 0.00129925 0.00176843 0.00230978 0.00292568 0.00361847 0.00438817 0.00523477 0.00615828 0.00715868 0.00823598 0.00939019 0.0105955 0.0118263 0.0130824 0.014364 0.0156709 0.0170032 0.0183609 0.019744 0.0211297 0.022495 0.02384 0.0251648 0.0264692 0.0277533 0.0290171 0.0302606 0.0314714 0.0