<?xml version="1.0"?> 
<VTKFile type="StructuredGrid" version="0.1"> 
<StructuredGrid WholeExtent="0 128 0 128 0 0"> 
<Piece Extent="0 128 0 128 0 0"> 
<PointData>
<DataArray type="Float32" Name="u" format="ascii" NumberOfComponents="1"> 
0 0 0 0 0 0 0 0 0 0 0 0 0 0 0 0 0 0 0 0 0 0 0 0 0 0 0 0 0 0 0 0 0 0 0 0 0 0 0 0 0 0 0 0 0 0 0 0 0 0 0 0 0 0 0 0 0 0 0 0 0 0 0 0 0 0 0 0 0 0 0 0 0 0 0 0 0 0 0 0 0 0 0 0 0 0 0 0 0 0 0 0 0 0 0 0 0 0 0 0 0 0 0 0 0 0 0 0 0 0 0 0 0 0 0 0 0 0 0 0 0 0 0 0 0 0 0 0 0 0 6.28838e-08 2.51535e-07 5.65955e-07 1.00614e-06 1.5721e-06 2.26382e-06 3.08131e-06 4.02457e-06 5.12032e-06 6.39529e-06 7.84948e-06 9.48289e-06 1.12955e-05 1.32874e-05 1.54584e-05 1.78087e-05 2.02815e-05 2.28201e-05 2.54245e-05 2.80946e-05 3.08306e-05 3.36323e-05 3.64998e-05 3.94331e-05 4.23752e-05 4.52691e-05 4.81149e-05 5.09125e-05 5.3662e-05 5.63633e-05 5.90164e-05 6.16214e-05 6.41504e-05 6.65755e-05 6.88967e-05 7.11141e-05 7.32276e-05 7.52372e-05 7.7143e-05 7.89449e-05 8.06395e-05 8.22235e-05 8.36968e-05 8.50595e-05 8.63115e-05 8.74528e-05 8.84835e-05 8.94035e-05 9.02226e-05 9.09507e-05 9.15877e-05 9.21336e-05 9.25885e-05 9.29524e-05 9.32251e-05 9.34068e-05 9.35088e-05 9.35424e-05 9.35077e-05 9.34046e-05 9.32331e-05 9.29932e-05 9.2685e-05 9.23085e-05 9.18689e-05 9.13718e-05 9.0817e-05 9.02047e-05 8.95347e-05 8.88072e-05 8.80221e-05 8.71793e-05 8.62777e-05 8.53159e-05 8.4294e-05 8.3212e-05 8.20698e-05 8.08674e-05 7.96049e-05 7.82823e-05 7.68972e-05 7.54475e-05 7.39331e-05 7.23539e-05 7.07101e-05 6.90016e-05 6.72284e-05 6.53905e-05 6.34935e-05 6.15429e-05 5.95387e-05 5.74809e-05 5.53694e-05 5.32044e-05 5.09858e-05 4.87136e-05 4.64092e-05 4.40938e-05 4.17674e-05 3.94301e-05 3.70818e-05 3.47226e-05 3.23525e-05 2.99714e-05 2.76191e-05 2.53354e-05 2.31202e-05 2.09735e-05 1.88954e-05 1.68858e-05 1.49448e-05 1.30723e-05 1.13043e-05 9.67669e-06 8.18951e-06 6.84273e-06 5.63636e-06 4.5704e-06 3.64486e-06 2.85972e-06 2.18947e-06 1.60859e-06 1.11708e-06 7.14931e-07 4.02148e-07 1.78733e-07 4.46832e-08 0 0 2.51535e-07 1.00614e-06 2.26382e-06 4.02457e-06 6.28838e-06 9.05527e-06 1.23252e-05 1.60983e-05 2.04813e-05 2.55812e-05 3.13979e-05 3.79316e-05 4.51821e-05 5.31495e-05 6.18338e-05 7.12349e-05 8.11261e-05 9.12804e-05 0.000101698 0.000112378 0.000123322 0.000134529 0.000145999 0.000157732 0.000169501 0.000181076 0.00019246 0.00020365 0.000214648 0.000225453 0.000236066 0.000246486 0.000256601 0.000266302 0.000275587 0.000284456 0.00029291 0.000300949 0.000308572 0.00031578 0.000322558 0.000328894 0.000334787 0.000340238 0.000345246 0.000349811 0.000353934 0.000357614 0.00036089 0.000363803 0.000366351 0.000368535 0.000370354 0.000371809 0.0003729 0.000373627 0.000374035 0.00037417 0.000374031 0.000373618 0.000372932 0.000371973 0.00037074 0.000369234 0.000367476 0.000365487 0.000363268 0.000360819 0.000358139 0.000355229 0.000352088 0.000348717 0.000345111 0.000341264 0.000337176 0.000332848 0.000328279 0.00032347 0.00031842 0.000313129 0.000307589 0.00030179 0.000295732 0.000289416 0.00028284 0.000276006 0.000268914 0.000261562 0.000253974 0.000246172 0.000238155 0.000229923 0.000221478 0.000212818 0.000203943 0.000194855 0.000185637 0.000176375 0.00016707 0.00015772 0.000148327 0.000138891 0.00012941 0.000119886 0.000110476 0.000101341 9.24807e-05 8.3894e-05 7.55816e-05 6.75433e-05 5.97791e-05 5.22892e-05 4.52172e-05 3.87068e-05 3.2758e-05 2.73709e-05 2.25454e-05 1.82816e-05 1.45794e-05 1.14389e-05 8.7579e-06 6.43437e-06 4.46832e-06 2.85972e-06 1.60859e-06 7.14931e-07 1.78733e-07 0 0 5.65955e-07 2.26382e-06 5.09359e-06 9.05527e-06 1.41489e-05 2.03744e-05 2.77318e-05 3.62211e-05 4.60829e-05 5.75576e-05 7.06453e-05 8.5346e-05 0.00010166 0.000119586 0.000139126 0.000160279 0.000182534 0.000205381 0.00022882 0.000252852 0.000277475 0.00030269 0.000328498 0.000354898 0.000381376 0.000407422 0.000433034 0.000458213 0.000482958 0.000507269 0.000531148 0.000554592 0.000577353 0.000599179 0.00062007 0.000640027 0.000659048 0.000677135 0.000694287 0.000710504 0.000725756 0.000740012 0.000753271 0.000765535 0.000776803 0.000787075 0.000796351 0.000804631 0.000812003 0.000818556 0.000824289 0.000829203 0.000833297 0.000836571 0.000839026 0.000840661 0.000841579 0.000841882 0.000841569 0.000840641 0.000839098 0.000836939 0.000834165 0.000830776 0.00082682 0.000822346 0.000817353 0.000811842 0.000805813 0.000799265 0.000792199 0.000784614 0.000776499 0.000767844 0.000758646 0.000748908 0.000738628 0.000727807 0.000716444 0.000704541 0.000692075 0.000679027 0.000665397 0.000651185 0.000636391 0.000621014 0.000605056 0.000588515 0.000571442 0.000553886 0.000535848 0.000517328 0.000498325 0.00047884 0.000458873 0.000438423 0.000417683 0.000396844 0.000375907 0.000354871 0.000333737 0.000312504 0.000291172 0.000269743 0.000248572 0.000228018 0.000208082 0.000188762 0.000170059 0.000151972 0.000134503 0.000117651 0.000101739 8.70902e-05 7.37055e-05 6.15846e-05 5.07272e-05 4.11336e-05 3.28037e-05 2.57375e-05 1.97053e-05 1.44773e-05 1.00537e-05 6.43437e-06 3.61934e-06 1.60859e-06 4.02148e-07 0 0 1.00614e-06 4.02457e-06 9.05527e-06 1.60983e-05 2.51535e-05 3.62211e-05 4.93009e-05 6.4393e-05 8.19251e-05 0.000102325 0.000125592 0.000151726 0.000180728 0.000212598 0.000247335 0.00028494 0.000324504 0.000365122 0.000406792 0.000449514 0.000493289 0.000538116 0.000583996 0.000630929 0.000678003 0.000724306 0.000769838 0.0008146 0.000858591 0.000901812 0.000944262 0.000985942 0.00102641 0.00106521 0.00110235 0.00113782 0.00117164 0.0012038 0.00123429 0.00126312 0.00129023 0.00131558 0.00133915 0.00136095 0.00138098 0.00139924 0.00141574 0.00143046 0.00144356 0.00145521 0.0014654 0.00147414 0.00148142 0.00148724 0.0014916 0.00149451 0.00149614 0.00149668 0.00149612 0.00149447 0.00149173 0.00148789 0.00148296 0.00147694 0.0014699 0.00146195 0.00145307 0.00144328 0.00143256 0.00142092 0.00140835 0.00139487 0.00138044 0.00136506 0.0013487 0.00133139 0.00131312 0.00129388 0.00127368 0.00125252 0.00123036 0.00120716 0.00118293 0.00115766 0.00113136 0.00110403 0.00107565 0.00104625 0.0010159 0.000984686 0.000952619 0.000919694 0.000885911 0.000851271 0.000815773 0.000779418 0.000742547 0.0007055 0.000668278 0.000630881 0.000593309 0.000555562 0.00051764 0.000479543 0.000441906 0.000405366 0.000369923 0.000335576 0.000302326 0.000270173 0.000239117 0.000209157 0.000180869 0.000154827 0.000131032 0.000109484 9.01818e-05 7.31265e-05 5.83177e-05 4.57556e-05 3.50316e-05 2.57375e-05 1.78733e-05 1.14389e-05 6.43437e-06 2.85972e-06 7.14931e-07 0 0 1.5721e-06 6.28838e-06 1.41489e-05 2.51535e-05 3.93024e-05 5.65955e-05 7.70327e-05 0.000100614 0.000128008 0.000159882 0.000196237 0.000237072 0.000282388 0.000332184 0.000386461 0.000445218 0.000507038 0.000570503 0.000635612 0.000702366 0.000770764 0.000840807 0.000912494 0.000985827 0.00105938 0.00113173 0.00120287 0.00127281 0.00134155 0.00140908 0.00147541 0.00154053 0.00160376 0.00166439 0.00172242 0.00177785 0.00183069 0.00188093 0.00192857 0.00197362 0.00201599 0.00205559 0.00209242 0.00212649 0.00215779 0.00218632 0.00221209 0.00223509 0.00225557 0.00227377 0.00228969 0.00230334 0.00231471 0.00232381 0.00233063 0.00233517 0.00233772 0.00233856 0.00233769 0.00233511 0.00233083 0.00232483 0.00231713 0.00230771 0.00229672 0.00228429 0.00227043 0.00225512 0.00223837 0.00222018 0.00220055 0.00217948 0.00215694 0.0021329 0.00210735 0.0020803 0.00205174 0.00202169 0.00199012 0.00195706 0.00192243 0.00188619 0.00184833 0.00180885 0.00176775 0.00172504 0.00168071 0.00163476 0.00158734 0.00153857 0.00148847 0.00143702 0.00138424 0.00133011 0.00127465 0.00121784 0.00116023 0.00110234 0.00104418 0.000985752 0.000927046 0.000868066 0.000808812 0.000749285 0.000690478 0.000633384 0.000578004 0.000524338 0.000472385 0.000422145 0.00037362 0.000326808 0.000282607 0.000241917 0.000204738 0.000171068 0.000140909 0.00011426 9.11214e-05 7.14931e-05 5.47369e-05 4.02148e-05 2.7927e-05 1.78733e-05 1.00537e-05 4.46832e-06 1.11708e-06 0 0 2.26382e-06 9.05527e-06 2.03744e-05 3.62211e-05 5.65955e-05 8.14975e-05 0.000110927 0.000144884 0.000184331 0.00023023 0.000282581 0.000341384 0.000406639 0.000478345 0.000556504 0.000641115 0.000730135 0.000821524 0.000915281 0.00101141 0.0011099 0.00121076 0.00131399 0.00141959 0.00152551 0.00162969 0.00173214 0.00183285 0.00193183 0.00202908 0.00212459 0.00221837 0.00230941 0.00239672 0.00248028 0.00256011 0.00263619 0.00270854 0.00277715 0.00284202 0.00290302 0.00296005 0.00301309 0.00306214 0.00310721 0.0031483 0.0031854 0.00321852 0.00324801 0.00327422 0.00329716 0.00331681 0.00333319 0.00334628 0.0033561 0.00336265 0.00336632 0.00336753 0.00336628 0.00336256 0.00335639 0.00334776 0.00333666 0.00332311 0.00330728 0.00328938 0.00326941 0.00324737 0.00322325 0.00319706 0.00316879 0.00313846 0.003106 0.00307137 0.00303459 0.00299563 0.00295451 0.00291123 0.00286578 0.00281816 0.0027683 0.00271611 0.00266159 0.00260474 0.00254556 0.00248406 0.00242022 0.00235406 0.00228577 0.00221554 0.00214339 0.00206931 0.0019933 0.00191536 0.00183549 0.00175369 0.00167073 0.00158738 0.00150363 0.00141948 0.00133495 0.00125002 0.00116469 0.00107897 0.000994288 0.000912073 0.000832326 0.000755046 0.000680234 0.000607889 0.000538012 0.000470603 0.000406955 0.000348361 0.000294822 0.000246338 0.000202909 0.000164535 0.000131215 0.00010295 7.88211e-05 5.79094e-05 4.02148e-05 2.57375e-05 1.44773e-05 6.43437e-06 1.60859e-06 0 0 3.08131e-06 1.23252e-05 2.77318e-05 4.93009e-05 7.70327e-05 0.000110927 0.000150984 0.000197204 0.000250896 0.000313369 0.000384625 0.000464662 0.000553481 0.000651081 0.000757464 0.000872628 0.000993795 0.00111819 0.0012458 0.00137664 0.0015107 0.00164798 0.00178849 0.00193222 0.00207638 0.00221819 0.00235763 0.00249471 0.00262944 0.0027618 0.0028918 0.00301945 0.00314337 0.0032622 0.00337594 0.00348459 0.00358815 0.00368662 0.00378001 0.0038683 0.00395134 0.00402895 0.00410114 0.00416791 0.00422926 0.00428519 0.00433569 0.00438077 0.00442091 0.00445658 0.0044878 0.00451455 0.00453684 0.00455467 0.00456803 0.00457693 0.00458193 0.00458358 0.00458188 0.00457682 0.00456842 0.00455667 0.00454157 0.00452312 0.00450158 0.00447722 0.00445003 0.00442003 0.0043872 0.00435155 0.00431308 0.00427179 0.00422761 0.00418048 0.00413041 0.00407739 0.00402142 0.0039625 0.00390064 0.00383583 0.00376796 0.00369693 0.00362272 0.00354534 0.0034648 0.00338108 0.00329419 0.00320414 0.00311118 0.0030156 0.00291739 0.00281656 0.0027131 0.00260702 0.00249831 0.00238697 0.00227405 0.00216059 0.0020466 0.00193207 0.00181701 0.00170141 0.00158527 0.0014686 0.00135334 0.00124143 0.00113289 0.0010277 0.000925874 0.000827405 0.000732295 0.000640543 0.00055391 0.000474158 0.000401286 0.000335294 0.000276182 0.00022395 0.000178598 0.000140126 0.000107284 7.88211e-05 5.47369e-05 3.50316e-05 1.97053e-05 8.7579e-06 2.18947e-06 0 0 4.02457e-06 1.60983e-05 3.62211e-05 6.4393e-05 0.000100614 0.000144884 0.000197204 0.000257572 0.0003277 0.000409298 0.000502367 0.000606905 0.000722913 0.000850392 0.00098934 0.00113976 0.00129802 0.00146049 0.00162717 0.00179806 0.00197316 0.00215247 0.00233599 0.00252372 0.00271201 0.00289722 0.00307935 0.0032584 0.00343437 0.00360725 0.00377705 0.00394377 0.00410562 0.00426083 0.00440939 0.0045513 0.00468656 0.00481518 0.00493715 0.00505247 0.00516093 0.0052623 0.0053566 0.00544381 0.00552393 0.00559698 0.00566294 0.00572182 0.00577425 0.00582084 0.00586161 0.00589655 0.00592567 0.00594895 0.00596641 0.00597804 0.00598456 0.00598671 0.00598449 0.00597789 0.00596692 0.00595157 0.00593184 0.00590774 0.00587961 0.00584779 0.00581229 0.0057731 0.00573022 0.00568366 0.00563341 0.00557948 0.00552177 0.00546022 0.00539482 0.00532557 0.00525247 0.00517552 0.00509472 0.00501007 0.00492142 0.00482864 0.00473172 0.00463065 0.00452545 0.0044161 0.00430262 0.00418499 0.00406358 0.00393874 0.00381047 0.00367877 0.00354364 0.00340508 0.00326309 0.00311767 0.00297019 0.002822 0.00267311 0.00252353 0.00237324 0.00222225 0.00207056 0.00191817 0.00176762 0.00162146 0.00147969 0.0013423 0.0012093 0.00108069 0.000956466 0.000836627 0.000723475 0.000619308 0.000524128 0.000437935 0.000360727 0.000292506 0.000233271 0.000183022 0.000140126 0.00010295 7.14931e-05 4.57556e-05 2.57375e-05 1.14389e-05 2.85972e-06 0 0 5.1313e-06 2.05252e-05 4.61817e-05 8.21008e-05 0.000128282 0.000184727 0.000251434 0.000328403 0.000417745 0.000521568 0.000639874 0.000772661 0.00091993 0.00108168 0.00125791 0.00144863 0.00164923 0.00185514 0.00206634 0.00228284 0.00250464 0.00273174 0.00296414 0.00320184 0.00344024 0.00367474 0.00390535 0.00413206 0.00435488 0.0045738 0.00478883 0.00499996 0.00520494 0.00540152 0.0055897 0.00576948 0.00594086 0.00610384 0.00625841 0.00640459 0.00654208 0.00667061 0.00679019 0.0069008 0.00700245 0.00709513 0.00717886 0.00725363 0.00732022 0.00737942 0.00743124 0.00747567 0.00751272 0.00754238 0.00756465 0.00757954 0.00758795 0.00759081 0.00758811 0.00757986 0.00756604 0.00754667 0.00752175 0.00749127 0.00745566 0.00741538 0.00737041 0.00732075 0.00726641 0.00720738 0.00714367 0.00707527 0.00700209 0.00692403 0.00684108 0.00675325 0.00666054 0.00656294 0.00646046 0.0063531 0.00624068 0.00612301 0.00600011 0.00587196 0.00573858 0.00559995 0.00545609 0.00530699 0.00515309 0.00499487 0.00483231 0.00466542 0.00449419 0.00431863 0.00413874 0.00395451 0.00376767 0.00357995 0.00339135 0.00320186 0.00301149 0.00282023 0.00262809 0.00243506 0.00224436 0.00205919 0.00187954 0.00170543 0.00153685 0.00137379 0.00121627 0.00106427 0.000920715 0.000788511 0.000667659 0.000558159 0.00046001 0.000373213 0.000297767 0.000233673 0.000178906 0.000131441 9.12785e-05 5.84182e-05 3.28603e-05 1.46046e-05 3.65114e-06 0 0 6.43922e-06 2.57569e-05 5.79529e-05 0.000103027 0.00016098 0.000231812 0.000315522 0.00041211 0.000524028 0.000653729 0.000801211 0.000966476 0.00114952 0.00135035 0.00156896 0.00180535 0.00205387 0.00230884 0.00257027 0.00283817 0.00311252 0.00339334 0.00368061 0.00397435 0.00426892 0.00455869 0.00484367 0.00512385 0.00539924 0.00566984 0.00593564 0.00619665 0.00645009 0.00669319 0.00692596 0.00714838 0.00736047 0.00756222 0.00775363 0.0079347 0.00810507 0.00826439 0.00841265 0.00854986 0.00867601 0.00879111 0.00889514 0.00898813 0.00907101 0.00914474 0.00920933 0.00926476 0.00931105 0.00934819 0.00937618 0.00939503 0.00940584 0.00940974 0.00940673 0.0093968 0.00937996 0.00935621 0.00932555 0.00928797 0.00924402 0.00919423 0.0091386 0.00907714 0.00900984 0.00893671 0.00885773 0.00877292 0.00868216 0.00858535 0.00848247 0.00837353 0.00825853 0.00813747 0.00801035 0.00787717 0.00773772 0.00759181 0.00743942 0.00728057 0.00711525 0.00694346 0.0067652 0.00658046 0.00638983 0.00619387 0.00599258 0.00578596 0.00557402 0.00535674 0.00513413 0.00490619 0.00467504 0.00444281 0.0042095 0.0039751 0.00373962 0.00350305 0.0032654 0.00302666 0.00279076 0.00256163 0.00233926 0.00212366 0.00191482 0.00171274 0.00151743 0.00132889 0.0011507 0.000986466 0.000836188 0.000699864 0.000577495 0.00046908 0.00037462 0.000294114 0.000225181 0.000165439 0.000114888 7.35286e-05 4.13598e-05 1.83821e-05 4.59553e-06 0 0 7.94832e-06 3.17933e-05 7.15349e-05 0.000127173 0.000198708 0.000286139 0.000389468 0.000508692 0.000646551 0.00080578 0.000986379 0.00118835 0.00141169 0.0016564 0.00192248 0.00220994 0.00251192 0.0028216 0.00313897 0.00346404 0.0037968 0.00413725 0.0044854 0.00484124 0.00519804 0.00554906 0.0058943 0.00623377 0.00656745 0.00689536 0.00721749 0.00753384 0.00784107 0.00813584 0.00841815 0.008688 0.00894539 0.00919032 0.00942279 0.0096428 0.0098499 0.0100436 0.010224 0.010391 0.0105446 0.0106849 0.0108118 0.0109253 0.0110266 0.0111168 0.0111959 0.0112638 0.0113207 0.0113664 0.011401 0.0114245 0.0114382 0.0114435 0.0114403 0.0114287 0.0114087 0.0113802 0.0113432 0.0112979 0.0112447 0.0111844 0.0111169 0.0110423 0.0109605 0.0108716 0.0107756 0.0106724 0.010562 0.0104442 0.010319 0.0101864 0.0100464 0.00989909 0.00974437 0.00958227 0.00941256 0.00923503 0.00904967 0.00885648 0.00865546 0.00844661 0.00822993 0.00800543 0.0077738 0.00753576 0.00729129 0.00704041 0.00678311 0.0065194 0.00624926 0.00597271 0.0056923 0.00541058 0.00512756 0.00484325 0.00455763 0.00427071 0.00398248 0.00369296 0.00340683 0.00312879 0.00285884 0.00259698 0.00234322 0.00209755 0.00185996 0.00163047 0.00141342 0.00121317 0.00102971 0.000863051 0.000713182 0.000580109 0.00046383 0.000364346 0.000278952 0.000204945 0.000142323 9.10865e-05 5.12361e-05 2.27716e-05 5.69291e-06 0 0 9.6586e-06 3.86344e-05 8.69274e-05 0.000154538 0.000241465 0.00034771 0.000473272 0.000618151 0.000785312 0.000977721 0.00119538 0.00143828 0.00170643 0.00199983 0.00231848 0.00266238 0.0030234 0.00339341 0.00377243 0.00416045 0.00455747 0.00496349 0.00537851 0.00580252 0.00622762 0.00664586 0.00705726 0.00746181 0.00785951 0.00825036 0.00863437 0.00901152 0.00937787 0.00972945 0.0100663 0.0103883 0.0106956 0.0109881 0.0112659 0.0115289 0.0117766 0.0120083 0.0122242 0.0124242 0.0126083 0.0127765 0.0129288 0.0130652 0.013187 0.0132956 0.0133909 0.0134728 0.0135415 0.013597 0.0136391 0.013668 0.0136851 0.0136921 0.013689 0.0136756 0.0136522 0.0136186 0.0135748 0.0135209 0.0134576 0.0133857 0.0133053 0.0132162 0.0131185 0.0130122 0.0128973 0.0127738 0.0126416 0.0125005 0.0123506 0.0121918 0.0120242 0.0118478 0.0116625 0.0114684 0.0112652 0.0110527 0.0108308 0.0105997 0.0103592 0.0101094 0.00985031 0.00958188 0.009305 0.00902052 0.00872844 0.00842876 0.00812148 0.00780661 0.00748414 0.00715407 0.00681943 0.00648325 0.00614554 0.0058063 0.00546552 0.0051232 0.00477935 0.00443396 0.00409255 0.00376066 0.00343828 0.00312541 0.00282205 0.0025282 0.00224386 0.00196903 0.00170889 0.00146863 0.00124824 0.00104772 0.000867072 0.000706298 0.000565396 0.000444368 0.000340219 0.000249957 0.000173581 0.000111092 6.24893e-05 2.7773e-05 6.94325e-06 0 0 1.15701e-05 4.62803e-05 0.000104131 0.000185121 0.000289252 0.000416523 0.000566934 0.000740485 0.000940312 0.00116955 0.00142821 0.00171627 0.00203375 0.00238065 0.00275695 0.00316267 0.00358829 0.00402428 0.00447066 0.00492741 0.00539453 0.00587204 0.00635993 0.00685819 0.00735764 0.00784909 0.00833254 0.00880798 0.00927541 0.00973485 0.0101863 0.0106297 0.0110605 0.011474 0.0118703 0.0122494 0.0126112 0.0129557 0.013283 0.013593 0.0138851 0.0141585 0.0144133 0.0146495 0.014867 0.0150659 0.0152462 0.0154078 0.0155523 0.0156811 0.0157943 0.0158918 0.0159737 0.0160399 0.0160905 0.0161254 0.0161465 0.0161555 0.0161526 0.0161375 0.0161105 0.0160714 0.0160203 0.0159572 0.0158829 0.0157984 0.0157037 0.0155988 0.0154837 0.0153583 0.0152228 0.015077 0.0149209 0.0147543 0.0145773 0.0143899 0.014192 0.0139836 0.0137648 0.0135356 0.0132956 0.0130447 0.0127829 0.0125102 0.0122265 0.0119319 0.0116263 0.0113098 0.0109834 0.0106482 0.010304 0.00995101 0.00958913 0.00921838 0.00883876 0.00845026 0.00805644 0.00766083 0.00726344 0.00686426 0.00646329 0.00606053 0.00565599 0.00524966 0.00484795 0.00445726 0.00407759 0.00370894 0.00335131 0.00300471 0.00266913 0.00234456 0.00203711 0.00175284 0.00149176 0.00125387 0.00103916 0.000847647 0.00067932 0.000534181 0.000408982 0.000300477 0.000208664 0.000133545 7.51192e-05 3.33863e-05 8.34657e-06 0 0 1.36827e-05 5.47309e-05 0.000123145 0.000218924 0.000342068 0.000492578 0.000670454 0.000875694 0.00111155 0.00138128 0.00168487 0.00202233 0.00239365 0.00279884 0.0032379 0.00371083 0.0042066 0.00471421 0.00523364 0.0057649 0.00630799 0.00686292 0.00742967 0.00800825 0.00858812 0.00915875 0.00972013 0.0102723 0.0108152 0.0113488 0.0118732 0.0123884 0.012889 0.0133696 0.0138303 0.0142711 0.014692 0.015093 0.015474 0.0158351 0.0161754 0.0164942 0.0167913 0.0170669 0.0173208 0.0175532 0.0177639 0.0179531 0.0181224 0.0182734 0.0184062 0.0185208 0.0186171 0.0186953 0.0187552 0.0187969 0.0188224 0.0188338 0.0188312 0.0188144 0.0187836 0.0187387 0.0186797 0.0186066 0.0185204 0.0184223 0.0183122 0.0181902 0.0180561 0.0179101 0.0177521 0.0175821 0.0174 0.0172057 0.0169992 0.0167805 0.0165496 0.0163065 0.0160513 0.0157838 0.0155038 0.0152112 0.014906 0.014588 0.0142573 0.013914 0.013558 0.0131892 0.0128091 0.0124187 0.012018 0.0116072 0.0111861 0.0107547 0.0103131 0.0098613 0.00940334 0.00894332 0.00848125 0.00801712 0.00755094 0.0070827 0.00661241 0.00614006 0.005673 0.00521856 0.00477675 0.00434757 0.003931 0.00352707 0.00313575 0.00275707 0.00239806 0.0020658 0.00176028 0.0014815 0.00122946 0.00100416 0.0008056 0.000633784 0.000485241 0.000356503 0.000247572 0.000158446 8.91258e-05 3.96115e-05 9.90287e-06 0 0 1.59966e-05 6.39863e-05 0.000143969 0.000255945 0.000399914 0.000575876 0.000783832 0.00102378 0.00129903 0.00161289 0.00196536 0.00235644 0.00278612 0.00325442 0.00376132 0.00430684 0.00487834 0.00546319 0.00606139 0.00667294 0.00729785 0.00793611 0.00858772 0.00925269 0.00991905 0.0105748 0.01122 0.0118547 0.0124788 0.0130923 0.0136952 0.0142876 0.0148632 0.0154162 0.0159463 0.0164536 0.0169382 0.0174 0.0178389 0.0182552 0.0186476 0.0190153 0.0193582 0.0196763 0.0199696 0.0202382 0.020482 0.0207011 0.0208973 0.0210724 0.0212266 0.0213597 0.0214719 0.021563 0.0216331 0.0216823 0.0217128 0.0217269 0.0217248 0.0217063 0.0216715 0.0216204 0.0215529 0.0214692 0.0213703 0.0212575 0.0211309 0.0209903 0.0208358 0.0206674 0.0204852 0.020289 0.0200788 0.0198545 0.0196162 0.0193637 0.0190972 0.0188165 0.0185218 0.018213 0.0178899 0.0175522 0.0171999 0.0168331 0.0164517 0.0160557 0.0156452 0.0152202 0.014782 0.0143321 0.0138705 0.0133972 0.0129122 0.0124156 0.0119072 0.0113872 0.0108601 0.0103307 0.00979897 0.00926489 0.00872847 0.00818971 0.00764861 0.00710517 0.00656772 0.00604459 0.00553578 0.00504129 0.00456113 0.00409528 0.00364375 0.00320654 0.00279176 0.00240751 0.00205379 0.00173061 0.00143795 0.00117583 0.000944237 0.000743177 0.000568995 0.000418037 0.000290304 0.000185794 0.000104509 4.64486e-05 1.16121e-05 0 0 1.85116e-05 7.40463e-05 0.000166604 0.000296185 0.00046279 0.000666417 0.000907068 0.00118474 0.00150275 0.00186439 0.00226968 0.0027186 0.00321117 0.00374738 0.00432722 0.00495071 0.00560349 0.00627122 0.0069539 0.00765152 0.0083641 0.00909162 0.0098341 0.0105915 0.0113504 0.0120973 0.0128323 0.0135552 0.0142662 0.0149652 0.0156522 0.0163272 0.0169834 0.0176137 0.0182182 0.0187968 0.0193497 0.0198767 0.0203779 0.0208532 0.0213016 0.0217218 0.0221139 0.0224778 0.0228135 0.0231211 0.0234005 0.0236518 0.023877 0.0240782 0.0242554 0.0244086 0.0245379 0.0246431 0.0247244 0.0247817 0.0248176 0.0248349 0.0248334 0.0248131 0.0247742 0.0247165 0.0246401 0.0245449 0.0244325 0.024304 0.0241596 0.0239992 0.0238228 0.0236304 0.0234221 0.0231978 0.0229574 0.0227009 0.0224283 0.0221395 0.0218347 0.0215137 0.0211765 0.0208233 0.0204537 0.0200675 0.0196648 0.0192455 0.0188096 0.0183571 0.0178881 0.0174026 0.0169021 0.0163883 0.0158614 0.0153212 0.0147677 0.014201 0.0136211 0.0130279 0.0124268 0.011823 0.0112166 0.0106076 0.00999588 0.00938155 0.00876459 0.00814498 0.0075321 0.00693533 0.00635467 0.00579012 0.00524168 0.00470934 0.00419311 0.00369299 0.0032182 0.00277798 0.00237231 0.0020012 0.00166465 0.00136266 0.00109523 0.000862361 0.000660245 0.000485078 0.00033686 0.00021559 0.00012127 5.38976e-05 1.34744e-05 0 0 2.11853e-05 8.47411e-05 0.000190668 0.000338965 0.000529632 0.00076267 0.00103808 0.00135586 0.00171926 0.00213155 0.00259272 0.00310277 0.0036617 0.00426951 0.0049262 0.00563177 0.00637008 0.00712496 0.00789642 0.00868446 0.00948908 0.0103103 0.0111481 0.0120024 0.0128583 0.0137008 0.0145298 0.0153453 0.0161474 0.016936 0.0177111 0.0184728 0.0192133 0.0199248 0.0206073 0.0212608 0.0218853 0.0224808 0.0230474 0.0235849 0.0240921 0.0245676 0.0250114 0.0254235 0.0258039 0.0261526 0.0264696 0.0267549 0.0270107 0.0272395 0.0274411 0.0276157 0.0277631 0.0278834 0.0279766 0.0280426 0.0280845 0.0281051 0.0281045 0.0280826 0.0280394 0.0279749 0.0278892 0.0277822 0.0276555 0.0275106 0.0273475 0.0271663 0.0269669 0.0267493 0.0265136 0.0262597 0.0259875 0.0256971 0.0253884 0.0250615 0.0247162 0.0243527 0.023971 0.0235709 0.0231524 0.0227152 0.0222594 0.0217849 0.0212917 0.0207798 0.0202493 0.0197001 0.0191342 0.0185534 0.0179577 0.0173472 0.0167218 0.0160816 0.0154265 0.0147565 0.0140777 0.0133959 0.0127111 0.0120234 0.0113327 0.010639 0.00994241 0.00924284 0.00855076 0.00787663 0.00722045 0.00658221 0.00596193 0.00535959 0.0047752 0.00420876 0.00367067 0.00317135 0.00271079 0.00228899 0.00190596 0.00156169 0.00125618 0.00098944 0.00075754 0.00055656 0.0003865 0.00024736 0.00013914 6.184e-05 1.546e-05 0 0 2.39752e-05 9.59007e-05 0.000215777 0.000383603 0.000599379 0.000863106 0.00117478 0.00153441 0.00194514 0.00241013 0.00292936 0.00350286 0.0041306 0.00481261 0.00554886 0.00633937 0.00716611 0.00801106 0.00887421 0.00975556 0.0106551 0.0115729 0.0125089 0.013463 0.0144188 0.0153596 0.0162854 0.0171963 0.0180921 0.018973 0.0198389 0.0206898 0.0215171 0.0223121 0.023075 0.0238056 0.024504 0.0251702 0.0258041 0.0264059 0.0269738 0.0275064 0.0280037 0.0284657 0.0288923 0.0292836 0.0296395 0.0299601 0.0302479 0.0305053 0.0307324 0.0309291 0.0310955 0.0312316 0.0313373 0.0314127 0.0314609 0.0314852 0.0314857 0.0314622 0.0314148 0.0313435 0.0312483 0.0311292 0.0309879 0.0308261 0.0306439 0.0304412 0.0302181 0.0299745 0.0297105 0.029426 0.029121 0.0287955 0.0284495 0.0280831 0.0276961 0.0272887 0.0268608 0.0264123 0.0259433 0.0254533 0.0249426 0.0244111 0.0238587 0.0232855 0.0226914 0.0220766 0.021443 0.020793 0.0201265 0.0194434 0.0187439 0.0180278 0.0172952 0.0165462 0.0157872 0.0150249 0.0142594 0.0134905 0.0127183 0.0119429 0.0111641 0.0103821 0.0096083 0.00885431 0.00812012 0.00740573 0.00671114 0.00603635 0.00538137 0.00474618 0.00414243 0.00358177 0.00306419 0.00258969 0.00215827 0.00176994 0.00142469 0.00112252 0.000859427 0.000631416 0.000438483 0.000280629 0.000157854 7.01573e-05 1.75393e-05 0 0 2.68812e-05 0.000107525 0.000241931 0.0004301 0.000672031 0.000967724 0.00131718 0.0017204 0.00218038 0.00270012 0.00327962 0.00391887 0.00461789 0.00537667 0.00619521 0.0070735 0.00799159 0.00892951 0.00988726 0.0108648 0.0118622 0.0128795 0.0139165 0.0149734 0.0160319 0.0170739 0.0180993 0.0191082 0.0201005 0.0210762 0.0220354 0.0229781 0.0238946 0.0247757 0.0256213 0.0264313 0.0272058 0.0279447 0.0286481 0.029316 0.0299467 0.0305382 0.0310907 0.0316042 0.0320786 0.0325139 0.0329102 0.0332675 0.0335883 0.0338755 0.0341291 0.034349 0.0345352 0.0346877 0.0348066 0.0348917 0.0349468 0.0349752 0.0349769 0.034952 0.0349005 0.0348223 0.0347174 0.0345859 0.0344297 0.0342506 0.0340487 0.033824 0.0335764 0.033306 0.0330127 0.0326967 0.0323578 0.0319961 0.0316116 0.0312044 0.0307743 0.0303215 0.0298459 0.0293475 0.0288262 0.0282818 0.0277144 0.027124 0.0265105 0.025874 0.0252144 0.0245318 0.0238286 0.0231072 0.0223676 0.0216098 0.0208339 0.0200397 0.0192273 0.0183968 0.0175553 0.0167102 0.0158614 0.015009 0.0141529 0.0132932 0.0124298 0.0115628 0.0107047 0.00986838 0.00905369 0.00826067 0.00748932 0.00673963 0.00601161 0.00530526 0.0046335 0.00400925 0.00343252 0.00290331 0.00242161 0.00198742 0.00160075 0.00126159 0.000965908 0.000709646 0.00049281 0.000315398 0.000177412 7.88496e-05 1.97124e-05 0 0 2.99035e-05 0.000119614 0.000269131 0.000478456 0.000747587 0.00107653 0.00146527 0.00191382 0.00242498 0.00300153 0.00364348 0.00435082 0.00512356 0.0059617 0.00686524 0.00783417 0.00884652 0.00988032 0.0109356 0.0120123 0.0131104 0.01423 0.015371 0.0165335 0.0176976 0.0188436 0.0199714 0.021081 0.0221724 0.0232457 0.0243008 0.0253377 0.026346 0.0273155 0.0282461 0.0291378 0.0299905 0.0308044 0.0315794 0.0323155 0.0330107 0.033663 0.0342725 0.0348391 0.0353628 0.0358437 0.0362818 0.0366769 0.0370321 0.0373502 0.0376312 0.0378752 0.038082 0.0382517 0.0383844 0.0384799 0.0385422 0.0385749 0.0385782 0.038552 0.0384964 0.0384112 0.0382965 0.0381524 0.0379809 0.037784 0.0375619 0.0373145 0.0370418 0.0367437 0.0364204 0.0360718 0.0356979 0.0352989 0.0348747 0.0344253 0.0339508 0.0334512 0.0329264 0.0323764 0.0318012 0.0312006 0.0305748 0.0299237 0.0292472 0.0285454 0.0278184 0.027066 0.026291 0.0254961 0.0246812 0.0238465 0.0229918 0.0221173 0.0212228 0.0203084 0.019382 0.0184516 0.0175172 0.0165788 0.0156363 0.0146899 0.0137394 0.0127848 0.0118401 0.0109188 0.0100212 0.00914704 0.00829646 0.00746943 0.00666594 0.005886 0.00514387 0.0044538 0.00381578 0.00322984 0.00269595 0.00221413 0.00178437 0.00140667 0.00107698 0.000791251 0.00054948 0.000351667 0.000197813 8.79168e-05 2.19792e-05 0 0 3.30419e-05 0.000132168 0.000297377 0.00052867 0.000826047 0.00118951 0.00161905 0.00211468 0.00267893 0.00331435 0.00402094 0.00479869 0.00564761 0.0065677 0.00755895 0.00862137 0.0097309 0.0108635 0.0120191 0.0131979 0.0143997 0.0156245 0.0168724 0.0181434 0.019416 0.0206687 0.0219016 0.0231147 0.0243079 0.0254813 0.0266349 0.0277686 0.0288713 0.0299316 0.0309495 0.0319251 0.0328584 0.0337493 0.0345979 0.0354041 0.0361658 0.0368807 0.0375489 0.0381704 0.038745 0.0392729 0.0397541 0.0401885 0.0405793 0.0409294 0.0412389 0.0415078 0.041736 0.0419237 0.0420707 0.0421771 0.0422471 0.0422845 0.0422896 0.0422622 0.0422025 0.0421103 0.0419857 0.0418286 0.0416415 0.0414264 0.0411835 0.0409128 0.0406142 0.0402877 0.0399334 0.0395513 0.0391413 0.0387038 0.0382387 0.037746 0.0372257 0.0366777 0.0361022 0.035499 0.0348682 0.0342098 0.0335238 0.0328101 0.0320688 0.0312998 0.0305032 0.029679 0.0288301 0.0279595 0.0270673 0.0261534 0.0252178 0.0242605 0.0232816 0.022281 0.0212674 0.0202493 0.0192268 0.0182 0.0171687 0.0161329 0.0150928 0.0140483 0.0130143 0.0120057 0.0110225 0.0100648 0.00913257 0.00822574 0.00734435 0.0064884 0.00567354 0.00491539 0.00421397 0.00356928 0.00298131 0.00245006 0.00197554 0.00155774 0.00119265 0.00087623 0.000608493 0.000389436 0.000219058 9.73589e-05 2.43397e-05 0 0 3.62965e-05 0.000145186 0.000326668 0.000580744 0.000907412 0.00130667 0.00177853 0.00232298 0.00294225 0.0036386 0.00441201 0.00526249 0.00619004 0.00719466 0.00827634 0.0094351 0.0106447 0.011879 0.013138 0.0144216 0.01573 0.017063 0.0184206 0.019803 0.0211869 0.0225492 0.0238901 0.0252093 0.0265071 0.0277832 0.02