<?xml version="1.0"?> 
<VTKFile type="StructuredGrid" version="0.1"> 
<StructuredGrid WholeExtent="0 128 0 128 0 0"> 
<Piece Extent="0 128 0 128 0 0"> 
<PointData>
<DataArray type="Float32" Name="u" format="ascii" NumberOfComponents="1"> 
0 0 0 0 0 0 0 0 0 0 0 0 0 0 0 0 0 0 0 0 0 0 0 0 0 0 0 0 0 0 0 0 0 0 0 0 0 0 0 0 0 0 0 0 0 0 0 0 0 0 0 0 0 0 0 0 0 0 0 0 0 0 0 0 0 0 0 0 0 0 0 0 0 0 0 0 0 0 0 0 0 0 0 0 0 0 0 0 0 0 0 0 0 0 0 0 0 0 0 0 0 0 0 0 0 0 0 0 0 0 0 0 0 0 0 0 0 0 0 0 0 0 0 0 0 0 0 0 0 0 5.12134e-08 2.04854e-07 4.60921e-07 8.19415e-07 1.28034e-06 1.84368e-06 2.50946e-06 3.27766e-06 4.17837e-06 5.24167e-06 6.46756e-06 7.85605e-06 9.40712e-06 1.11208e-05 1.2997e-05 1.50359e-05 1.71822e-05 1.9381e-05 2.16322e-05 2.39357e-05 2.62917e-05 2.87001e-05 3.11609e-05 3.36741e-05 3.61793e-05 3.8616e-05 4.09842e-05 4.3284e-05 4.55153e-05 4.76781e-05 4.97725e-05 5.17983e-05 5.37297e-05 5.55407e-05 5.72311e-05 5.88011e-05 6.02506e-05 6.15796e-05 6.27882e-05 6.38763e-05 6.48523e-05 6.57245e-05 6.64931e-05 6.71579e-05 6.7719e-05 6.81764e-05 6.85301e-05 6.87801e-05 6.89532e-05 6.90762e-05 6.91492e-05 6.91721e-05 6.91449e-05 6.90676e-05 6.89403e-05 6.87629e-05 6.85583e-05 6.83494e-05 6.81362e-05 6.79186e-05 6.76967e-05 6.74705e-05 6.72399e-05 6.7005e-05 6.67686e-05 6.65333e-05 6.62992e-05 6.60663e-05 6.58346e-05 6.56041e-05 6.53747e-05 6.51465e-05 6.49022e-05 6.46245e-05 6.43133e-05 6.39687e-05 6.35907e-05 6.31792e-05 6.27342e-05 6.22559e-05 6.17222e-05 6.11113e-05 6.04232e-05 5.9658e-05 5.88156e-05 5.7896e-05 5.68992e-05 5.58252e-05 5.46679e-05 5.34209e-05 5.20845e-05 5.06584e-05 4.91428e-05 4.75376e-05 4.58428e-05 4.40585e-05 4.2207e-05 4.03109e-05 3.837e-05 3.63843e-05 3.4354e-05 3.2279e-05 3.01592e-05 2.79947e-05 2.58349e-05 2.3729e-05 2.16771e-05 1.96791e-05 1.77351e-05 1.58451e-05 1.4009e-05 1.22269e-05 1.05408e-05 8.99274e-06 7.58272e-06 6.31074e-06 5.1768e-06 4.1809e-06 3.32304e-06 2.60321e-06 1.99308e-06 1.46431e-06 1.01688e-06 6.50803e-07 3.66077e-07 1.62701e-07 4.06752e-08 0 0 2.04854e-07 8.19415e-07 1.84368e-06 3.27766e-06 5.12134e-06 7.37473e-06 1.00378e-05 1.31106e-05 1.67135e-05 2.09667e-05 2.58703e-05 3.14242e-05 3.76285e-05 4.44832e-05 5.19882e-05 6.01436e-05 6.8729e-05 7.7524e-05 8.65287e-05 9.5743e-05 0.000105167 0.0001148 0.000124644 0.000134696 0.000144717 0.000154464 0.000163937 0.000173136 0.000182061 0.000190712 0.00019909 0.000207193 0.000214919 0.000222163 0.000228925 0.000235204 0.000241002 0.000246319 0.000251153 0.000255505 0.000259409 0.000262898 0.000265972 0.000268632 0.000270876 0.000272706 0.000274121 0.00027512 0.000275813 0.000276305 0.000276597 0.000276688 0.00027658 0.000276271 0.000275761 0.000275052 0.000274233 0.000273398 0.000272545 0.000271674 0.000270787 0.000269882 0.00026896 0.00026802 0.000267074 0.000266133 0.000265197 0.000264265 0.000263338 0.000262416 0.000261499 0.000260586 0.000259609 0.000258498 0.000257253 0.000255875 0.000254363 0.000252717 0.000250937 0.000249023 0.000246889 0.000244445 0.000241693 0.000238632 0.000235262 0.000231584 0.000227597 0.000223301 0.000218671 0.000213684 0.000208338 0.000202634 0.000196571 0.00019015 0.000183371 0.000176234 0.000168828 0.000161243 0.00015348 0.000145537 0.000137416 0.000129116 0.000120637 0.000111979 0.000103339 9.49159e-05 8.67082e-05 7.87164e-05 7.09404e-05 6.33803e-05 5.6036e-05 4.89076e-05 4.21632e-05 3.5971e-05 3.03309e-05 2.5243e-05 2.07072e-05 1.67236e-05 1.32921e-05 1.04128e-05 7.97234e-06 5.85723e-06 4.06752e-06 2.60321e-06 1.46431e-06 6.50803e-07 1.62701e-07 0 0 4.60921e-07 1.84368e-06 4.14829e-06 7.37473e-06 1.1523e-05 1.65931e-05 2.25851e-05 2.94989e-05 3.76053e-05 4.7175e-05 5.82081e-05 7.07044e-05 8.46641e-05 0.000100087 0.000116973 0.000135323 0.00015464 0.000174429 0.00019469 0.000215422 0.000236626 0.000258301 0.000280448 0.000303067 0.000325614 0.000347544 0.000368858 0.000389556 0.000409638 0.000429103 0.000447952 0.000466185 0.000483568 0.000499866 0.00051508 0.00052921 0.000542255 0.000554217 0.000565094 0.000574886 0.00058367 0.000591521 0.000598438 0.000604421 0.000609471 0.000613588 0.000616771 0.000619021 0.000620579 0.000621686 0.000622343 0.000622549 0.000622304 0.000621609 0.000620463 0.000618866 0.000617025 0.000615145 0.000613226 0.000611268 0.00060927 0.000607234 0.000605159 0.000603045 0.000600917 0.0005988 0.000596693 0.000594597 0.000592511 0.000590436 0.000588372 0.000586319 0.00058412 0.000581621 0.00057882 0.000575719 0.000572316 0.000568613 0.000564608 0.000560303 0.0005555 0.000550002 0.000543809 0.000536922 0.00052934 0.000521064 0.000512093 0.000502427 0.000492011 0.000480788 0.00046876 0.000455926 0.000442285 0.000427838 0.000412585 0.000396527 0.000379863 0.000362798 0.00034533 0.000327459 0.000309186 0.000290511 0.000271433 0.000251953 0.000232514 0.000213561 0.000195093 0.000177112 0.000159616 0.000142606 0.000126081 0.000110042 9.48672e-05 8.09347e-05 6.82445e-05 5.67967e-05 4.65912e-05 3.76281e-05 2.99073e-05 2.34289e-05 1.79378e-05 1.31788e-05 9.15192e-06 5.85723e-06 3.29469e-06 1.46431e-06 3.66077e-07 0 0 8.19415e-07 3.27766e-06 7.37473e-06 1.31106e-05 2.04854e-05 2.94989e-05 4.01513e-05 5.24425e-05 6.68539e-05 8.38667e-05 0.000103481 0.000125697 0.000150514 0.000177933 0.000207953 0.000240574 0.000274916 0.000310096 0.000346115 0.000382972 0.000420668 0.000459202 0.000498575 0.000538786 0.000578869 0.000617856 0.000655748 0.000692544 0.000728244 0.00076285 0.000796359 0.000828773 0.000859676 0.000888651 0.000915698 0.000940818 0.00096401 0.000985274 0.00100461 0.00102202 0.00103764 0.00105159 0.00106389 0.00107453 0.0010835 0.00109082 0.00109648 0.00110048 0.00110325 0.00110522 0.00110639 0.00110675 0.00110632 0.00110508 0.00110305 0.00110021 0.00109693 0.00109359 0.00109018 0.0010867 0.00108315 0.00107953 0.00107584 0.00107208 0.0010683 0.00106453 0.00106079 0.00105706 0.00105335 0.00104966 0.001046 0.00104234 0.00103844 0.00103399 0.00102901 0.0010235 0.00101745 0.00101087 0.00100375 0.000996094 0.000987555 0.000977781 0.000966772 0.000954528 0.000941049 0.000926336 0.000910387 0.000893203 0.000874686 0.000854735 0.000833351 0.000810534 0.000786284 0.000760601 0.000733485 0.000704936 0.000675313 0.000644974 0.000613919 0.00058215 0.000549664 0.000516463 0.000482547 0.000447916 0.000413358 0.000379664 0.000346833 0.000314865 0.000283762 0.000253521 0.000224144 0.00019563 0.000168653 0.000143884 0.000121324 0.000100972 8.28288e-05 6.68944e-05 5.31686e-05 4.16514e-05 3.18894e-05 2.34289e-05 1.62701e-05 1.04128e-05 5.85723e-06 2.60321e-06 6.50803e-07 0 0 1.28034e-06 5.12134e-06 1.1523e-05 2.04854e-05 3.20084e-05 4.60921e-05 6.27364e-05 8.19415e-05 0.000104459 0.000131042 0.000161689 0.000196401 0.000235178 0.00027802 0.000324926 0.000375897 0.000429556 0.000484525 0.000540804 0.000598394 0.000657293 0.000717503 0.000779023 0.000841853 0.000904482 0.0009654 0.00102461 0.0010821 0.00113788 0.00119195 0.00124431 0.00129496 0.00134324 0.00138852 0.00143078 0.00147003 0.00150627 0.00153949 0.0015697 0.00159691 0.00162131 0.00164311 0.00166233 0.00167895 0.00169298 0.00170441 0.00171325 0.0017195 0.00172383 0.00172691 0.00172873 0.0017293 0.00172862 0.00172669 0.00172351 0.00171907 0.00171396 0.00170874 0.0017034 0.00169797 0.00169242 0.00168676 0.001681 0.00167513 0.00166921 0.00166333 0.00165748 0.00165166 0.00164586 0.0016401 0.00163437 0.00162866 0.00162256 0.00161561 0.00160783 0.00159922 0.00158977 0.00157948 0.00156836 0.0015564 0.00154305 0.00152778 0.00151058 0.00149145 0.00147039 0.0014474 0.00142248 0.00139563 0.0013667 0.00133552 0.00130211 0.00126646 0.00122857 0.00118844 0.00114607 0.00110146 0.00105518 0.00100777 0.000959249 0.000909609 0.00085885 0.000806974 0.00075398 0.000699868 0.000645872 0.000593224 0.000541926 0.000491977 0.000443377 0.000396127 0.000350225 0.000305672 0.00026352 0.000224819 0.000189568 0.000157769 0.00012942 0.000104522 8.30759e-05 6.50803e-05 4.98271e-05 3.66077e-05 2.5422e-05 1.62701e-05 9.15192e-06 4.06752e-06 1.01688e-06 0 0 1.84368e-06 7.37473e-06 1.65931e-05 2.94989e-05 4.60921e-05 6.63726e-05 9.03405e-05 0.000117996 0.000150421 0.0001887 0.000232832 0.000282818 0.000338656 0.000400348 0.000467894 0.000541292 0.000618561 0.000697716 0.000778758 0.000861687 0.000946502 0.0010332 0.00112179 0.00121227 0.00130245 0.00139018 0.00147543 0.00155822 0.00163855 0.00171641 0.00179181 0.00186474 0.00193427 0.00199946 0.00206032 0.00211684 0.00216902 0.00221687 0.00226037 0.00229955 0.00233468 0.00236608 0.00239375 0.00241768 0.00243789 0.00245435 0.00246709 0.00247608 0.00248232 0.00248674 0.00248937 0.00249019 0.00248922 0.00248643 0.00248185 0.00247547 0.0024681 0.00246058 0.0024529 0.00244507 0.00243708 0.00242894 0.00242064 0.00241218 0.00240367 0.0023952 0.00238677 0.00237839 0.00237005 0.00236175 0.00235349 0.00234528 0.00233648 0.00232648 0.00231528 0.00230287 0.00228926 0.00227445 0.00225843 0.00224121 0.002222 0.00220001 0.00217524 0.00214769 0.00211736 0.00208425 0.00204837 0.00200971 0.00196804 0.00192315 0.00187504 0.0018237 0.00176914 0.00171135 0.00165034 0.00158611 0.00151945 0.00145119 0.00138132 0.00130984 0.00123674 0.00116204 0.00108573 0.00100781 0.000930055 0.000854243 0.000780374 0.000708447 0.000638463 0.000570422 0.000504324 0.000440168 0.000379469 0.000323739 0.000272978 0.000227187 0.000186365 0.000150512 0.000119629 9.37156e-05 7.1751e-05 5.27151e-05 3.66077e-05 2.34289e-05 1.31788e-05 5.85723e-06 1.46431e-06 0 0 2.50946e-06 1.00378e-05 2.25851e-05 4.01513e-05 6.27364e-05 9.03405e-05 0.000122963 0.000160605 0.00020474 0.000256842 0.000316911 0.000384946 0.000460949 0.000544919 0.000636855 0.000736759 0.00084193 0.000949669 0.00105998 0.00117285 0.00128829 0.00140631 0.00152688 0.00165003 0.00177279 0.00189218 0.00200823 0.00212092 0.00223025 0.00233623 0.00243885 0.00253812 0.00263276 0.00272149 0.00280433 0.00288125 0.00295228 0.0030174 0.00307662 0.00312994 0.00317776 0.0032205 0.00325816 0.00329074 0.00331823 0.00334065 0.00335798 0.00337023 0.00337871 0.00338474 0.00338831 0.00338943 0.0033881 0.00338431 0.00337808 0.00336938 0.00335936 0.00334912 0.00333867 0.00332801 0.00331714 0.00330605 0.00329476 0.00328325 0.00327166 0.00326013 0.00324866 0.00323725 0.00322589 0.0032146 0.00320336 0.00319218 0.00318021 0.0031666 0.00315135 0.00313447 0.00311594 0.00309578 0.00307398 0.00305054 0.00302439 0.00299445 0.00296074 0.00292324 0.00288196 0.0028369 0.00278806 0.00273544 0.00267872 0.00261763 0.00255214 0.00248226 0.002408 0.00232934 0.0022463 0.00215887 0.00206814 0.00197523 0.00188013 0.00178283 0.00168335 0.00158167 0.0014778 0.00137174 0.00126591 0.00116272 0.00106218 0.000964276 0.00086902 0.000776408 0.000686441 0.000599118 0.000516499 0.000440644 0.000371553 0.000309226 0.000253663 0.000204864 0.000162829 0.000127557 9.76611e-05 7.1751e-05 4.98271e-05 3.18894e-05 1.79378e-05 7.97234e-06 1.99308e-06 0 0 3.27766e-06 1.31106e-05 2.94989e-05 5.24425e-05 8.19415e-05 0.000117996 0.000160605 0.00020977 0.000267416 0.000335467 0.000413924 0.000502787 0.000602056 0.000711731 0.000831811 0.000962297 0.00109966 0.00124038 0.00138446 0.00153189 0.00168267 0.00183681 0.0019943 0.00215514 0.00231547 0.00247142 0.00262299 0.00277018 0.00291298 0.0030514 0.00318544 0.00331509 0.0034387 0.0035546 0.00366279 0.00376327 0.00385604 0.0039411 0.00401844 0.00408808 0.00415054 0.00420637 0.00425556 0.00429811 0.00433402 0.00436329 0.00438593 0.00440193 0.00441301 0.00442088 0.00442555 0.00442701 0.00442527 0.00442033 0.00441218 0.00440083 0.00438773 0.00437436 0.00436072 0.00434679 0.00433259 0.00431811 0.00430336 0.00428832 0.00427319 0.00425813 0.00424315 0.00422824 0.00421341 0.00419866 0.00418398 0.00416938 0.00415374 0.00413597 0.00411605 0.004094 0.0040698 0.00404347 0.00401499 0.00398437 0.00395022 0.00391112 0.00386709 0.00381811 0.0037642 0.00370534 0.00364155 0.00357281 0.00349874 0.00341894 0.0033334 0.00324214 0.00314514 0.00304241 0.00293394 0.00281974 0.00270125 0.00257989 0.00245568 0.0023286 0.00219866 0.00206585 0.00193019 0.00179166 0.00165343 0.00151865 0.00138733 0.00125946 0.00113505 0.00101408 0.000896576 0.000782522 0.000674611 0.000575535 0.000485294 0.000403887 0.000331315 0.000267577 0.000212674 0.000166606 0.000127557 9.37156e-05 6.50803e-05 4.16514e-05 2.34289e-05 1.04128e-05 2.60321e-06 0 0 4.20448e-06 1.68179e-05 3.78403e-05 6.72717e-05 0.000105112 0.000151361 0.00020602 0.000269087 0.00034294 0.000429956 0.000530134 0.000643475 0.000769979 0.000909646 0.00106247 0.00122847 0.00140315 0.00158205 0.00176517 0.00195251 0.00214406 0.00233983 0.00253983 0.00274404 0.00294758 0.00314558 0.00333804 0.00352495 0.00370632 0.00388214 0.00405242 0.00421715 0.00437423 0.00452157 0.00465914 0.00478697 0.00490504 0.00501336 0.00511193 0.00520075 0.00528048 0.00535181 0.00541472 0.00546922 0.00551532 0.005553 0.00558227 0.00560313 0.00561774 0.00562827 0.0056347 0.00563705 0.00563531 0.00562948 0.00561956 0.00560555 0.0055893 0.00557265 0.00555561 0.00553816 0.00552031 0.00550206 0.00548342 0.00546437 0.00544515 0.00542598 0.00540685 0.00538778 0.00536875 0.00534977 0.00533084 0.00531196 0.00529174 0.00526877 0.00524307 0.00521463 0.00518345 0.00514954 0.00511288 0.00507349 0.0050296 0.00497945 0.00492304 0.00486038 0.00479145 0.00471627 0.00463483 0.00454713 0.00445268 0.00435099 0.00424205 0.00412586 0.00400242 0.00387174 0.00373381 0.00358863 0.00343802 0.0032838 0.00312595 0.00296449 0.00279941 0.00263071 0.00245839 0.00228245 0.00210689 0.00193567 0.0017688 0.00160628 0.00144812 0.00129431 0.00114484 0.000999734 0.000862388 0.000736222 0.000621236 0.000517429 0.000424801 0.000343353 0.000273085 0.000213996 0.000163841 0.000120373 8.35923e-05 5.34991e-05 3.00932e-05 1.33748e-05 3.34369e-06 0 0 5.34612e-06 2.13845e-05 4.8115e-05 8.55379e-05 0.000133653 0.00019246 0.00026196 0.000342151 0.000435804 0.000545688 0.000671802 0.000814146 0.00097272 0.00114753 0.00133856 0.00154583 0.00176377 0.00198685 0.00221507 0.00244842 0.0026869 0.00293051 0.00317926 0.00343314 0.00368617 0.00393235 0.0041717 0.0044042 0.00462986 0.00484867 0.00506065 0.00526578 0.00546148 0.00564515 0.0058168 0.00597643 0.00612404 0.00625962 0.00638318 0.00649471 0.00659503 0.00668494 0.00676444 0.00683353 0.0068922 0.00694047 0.00697833 0.00700578 0.00702546 0.00703999 0.00704939 0.00705365 0.00705278 0.00704676 0.00703561 0.00701932 0.00700014 0.00698034 0.00695991 0.00693886 0.00691717 0.00689486 0.00687192 0.00684835 0.00682443 0.00680044 0.00677638 0.00675225 0.00672805 0.00670378 0.00667944 0.00665502 0.00662884 0.0065992 0.00656609 0.00652953 0.0064895 0.00644601 0.00639906 0.00634864 0.00629262 0.00622886 0.00615736 0.00607811 0.00599112 0.00589639 0.00579391 0.00568369 0.00556514 0.00543766 0.00530126 0.00515594 0.0050017 0.00483853 0.00466643 0.00448542 0.00429771 0.00410555 0.00390893 0.00370786 0.00350233 0.00329234 0.0030779 0.002859 0.00264053 0.00242738 0.00221954 0.00201702 0.00181982 0.00162793 0.00144136 0.00126011 0.00108841 0.000930515 0.000786413 0.000656109 0.000539602 0.000436893 0.00034798 0.000272865 0.000208913 0.000153487 0.000106588 6.82164e-05 3.83717e-05 1.70541e-05 4.26352e-06 0 0 6.70257e-06 2.68103e-05 6.03231e-05 0.000107241 0.000167564 0.000241292 0.000328426 0.000428964 0.00054601 0.000682664 0.000838927 0.0010148 0.00121028 0.00142537 0.00166007 0.00191438 0.00218154 0.0024548 0.00273416 0.00301962 0.00331118 0.00360884 0.0039126 0.00422246 0.00453124 0.00483174 0.00512396 0.00540791 0.00568359 0.00595099 0.00621012 0.00646097 0.00670043 0.00692536 0.00713577 0.00733166 0.00751302 0.00767986 0.00783218 0.00796997 0.00809419 0.00820576 0.00830471 0.00839101 0.00846468 0.00852571 0.00857411 0.00860987 0.00863614 0.00865605 0.00866962 0.00867682 0.00867768 0.00867218 0.00866032 0.00864212 0.00862026 0.00859743 0.00857364 0.00854889 0.00852318 0.0084965 0.00846886 0.00844026 0.00841104 0.00838153 0.00835174 0.00832167 0.00829132 0.00826068 0.00822976 0.00819856 0.00816506 0.00812725 0.00808512 0.00803869 0.00798794 0.00793288 0.00787351 0.00780983 0.0077393 0.00765937 0.00757004 0.00747132 0.00736321 0.00724569 0.00711879 0.00698249 0.00683611 0.00667897 0.00651106 0.0063324 0.00614297 0.00594278 0.00573182 0.00551011 0.00528032 0.00504516 0.00480463 0.00455871 0.00430742 0.00405076 0.00378872 0.0035213 0.00325437 0.00299378 0.00273955 0.00249167 0.00225014 0.00201496 0.00178613 0.00156365 0.00135269 0.00115841 0.000980827 0.000819929 0.000675718 0.000548195 0.00043736 0.000343213 0.000262773 0.000193057 0.000134068 8.58033e-05 4.82644e-05 2.14508e-05 5.36271e-06 0 0 8.27383e-06 3.30953e-05 7.44645e-05 0.000132381 0.000206846 0.000297858 0.000405418 0.000529525 0.000673555 0.000840884 0.00103151 0.00124544 0.00148266 0.00174318 0.002027 0.00233412 0.00265644 0.00298588 0.00332244 0.00366612 0.00401691 0.00437482 0.00473985 0.005112 0.00548278 0.00584373 0.00619483 0.00653609 0.00686751 0.0071891 0.00750084 0.00780274 0.0080911 0.0083622 0.00861605 0.00885265 0.009072 0.00927409 0.00945894 0.00962653 0.00977795 0.00991428 0.0100355 0.0101417 0.0102327 0.0103087 0.0103696 0.0104154 0.0104498 0.0104765 0.0104954 0.0105066 0.01051 0.0105057 0.0104937 0.010474 0.0104496 0.0104239 0.0103968 0.0103683 0.0103383 0.010307 0.0102742 0.0102401 0.010205 0.0101692 0.0101329 0.010096 0.0100586 0.0100205 0.00998182 0.00994257 0.00990039 0.00985292 0.00980016 0.00974212 0.00967878 0.00961016 0.00953626 0.00945706 0.00936962 0.00927096 0.00916109 0.00904 0.0089077 0.00876419 0.00860946 0.00844352 0.00826559 0.0080749 0.00787144 0.00765522 0.00742623 0.00718448 0.00692997 0.0066627 0.00638585 0.00610263 0.00581303 0.00551705 0.00521469 0.00490595 0.00459084 0.00426935 0.00394839 0.00363489 0.00332884 0.00303024 0.00273909 0.00245539 0.00217915 0.00191035 0.00165521 0.00141992 0.00120448 0.00100889 0.000833149 0.000677261 0.000541225 0.00042504 0.000325421 0.000239085 0.000166031 0.00010626 5.97712e-05 2.6565e-05 6.64124e-06 0 0 1.00599e-05 4.02396e-05 9.05392e-05 0.000160959 0.000251498 0.000362157 0.000492935 0.000643834 0.000818442 0.00102035 0.00124955 0.00150605 0.00178985 0.00210095 0.00243935 0.00280505 0.00318848 0.00358011 0.00397991 0.00438791 0.00480409 0.00522846 0.00566101 0.00610175 0.00654081 0.00696833 0.0073843 0.00778874 0.00818164 0.00856299 0.0089328 0.00929108 0.00963347 0.00995566 0.0102576 0.0105394 0.010801 0.0110423 0.0112634 0.0114644 0.0116463 0.0118105 0.0119569 0.0120855 0.0121964 0.0122895 0.0123648 0.0124224 0.0124664 0.0125012 0.0125267 0.0125429 0.0125498 0.0125474 0.0125358 0.0125148 0.0124883 0.0124598 0.0124294 0.012397 0.0123626 0.0123263 0.0122881 0.0122479 0.0122062 0.0121636 0.01212 0.0120753 0.0120297 0.0119832 0.0119356 0.0118871 0.0118348 0.0117762 0.0117112 0.0116398 0.011562 0.0114778 0.0113873 0.0112903 0.0111836 0.0110636 0.0109305 0.0107842 0.0106246 0.0104519 0.0102659 0.0100668 0.00985358 0.00962545 0.00938239 0.00912441 0.00885149 0.00856365 0.00826088 0.00794319 0.0076143 0.00727795 0.00693413 0.00658286 0.00622413 0.00585793 0.00548427 0.00510315 0.00472261 0.00435069 0.00398739 0.00363272 0.00328666 0.00294923 0.00262041 0.00230022 0.00199598 0.00171503 0.00145736 0.00122299 0.00101189 0.000824091 0.000659574 0.000518344 0.000396857 0.000291569 0.000202478 0.000129586 7.28922e-05 3.23965e-05 8.09913e-06 0 0 1.20608e-05 4.82432e-05 0.000108547 0.000192973 0.00030152 0.000434189 0.000590979 0.000771891 0.000980668 0.00122105 0.00149305 0.00179666 0.00213187 0.00249869 0.00289712 0.00332717 0.00377766 0.00423747 0.00470658 0.00518499 0.00567271 0.00616974 0.00667607 0.00719171 0.00770531 0.00820553 0.00869238 0.00916586 0.00962595 0.0100727 0.010506 0.010926 0.0113276 0.0117057 0.0120605 0.0123919 0.0126999 0.0129845 0.0132457 0.0134835 0.0136993 0.0138944 0.0140688 0.0142226 0.0143556 0.014468 0.0145598 0.0146308 0.014686 0.0147303 0.0147635 0.0147857 0.014797 0.0147972 0.0147865 0.0147648 0.0147362 0.0147051 0.0146713 0.014635 0.0145961 0.0145545 0.0145104 0.0144636 0.0144148 0.0143645 0.0143128 0.0142596 0.0142049 0.0141488 0.0140911 0.014032 0.0139684 0.0138971 0.0138183 0.0137318 0.0136377 0.0135359 0.0134266 0.0133096 0.0131812 0.0130374 0.0128783 0.0127038 0.0125139 0.0123087 0.0120882 0.0118523 0.0116001 0.0113306 0.0110439 0.01074 0.0104187 0.0100803 0.00972456 0.00935158 0.00896567 0.00857112 0.00816795 0.00775616 0.00733573 0.00690669 0.00646901 0.00602271 0.00557702 0.00514119 0.00471522 0.00429911 0.00389286 0.00349646 0.00310993 0.00273325 0.002375 0.00204374 0.00173949 0.00146222 0.00121195 0.000988683 0.000792408 0.000623128 0.000477082 0.000350509 0.000243409 0.000155782 8.76273e-05 3.89455e-05 9.73637e-06 0 0 1.42765e-05 5.7106e-05 0.000128489 0.000228424 0.000356913 0.000513954 0.000699549 0.000913696 0.00116024 0.00144301 0.00176201 0.00211724 0.0025087 0.0029364 0.00340032 0.00390047 0.00442398 0.00495797 0.00550243 0.00605737 0.00662278 0.00719867 0.00778504 0.00838188 0.00897629 0.00955535 0.0101191 0.0106674 0.0112005 0.0117181 0.0122205 0.0127075 0.0131734 0.0136125 0.0140247 0.0144102 0.0147689 0.0151007 0.0154057 0.015684 0.0159369 0.016166 0.0163713 0.0165528 0.0167105 0.0168444 0.0169544 0.0170407 0.0171086 0.0171637 0.0172059 0.0172352 0.0172516 0.0172552 0.0172459 0.0172237 0.0171934 0.0171598 0.0171227 0.0170824 0.0170386 0.0169915 0.0169411 0.0168872 0.0168307 0.0167721 0.0167115 0.0166488 0.016584 0.0165172 0.0164484 0.0163775 0.0163011 0.0162157 0.0161213 0.016018 0.0159057 0.0157844 0.0156542 0.015515 0.0153625 0.0151923 0.0150044 0.0147989 0.0145757 0.0143348 0.0140762 0.0138 0.0135051 0.0131904 0.012856 0.0125019 0.012128 0.0117344 0.011321 0.0108879 0.0104399 0.00998215 0.00951448 0.00903693 0.00854952 0.00805222 0.00754506 0.00702802 0.00651162 0.00600639 0.00551232 0.00502942 0.00455768 0.0040971 0.00364769 0.00320944 0.00279227 0.00240607 0.00205084 0.0017266 0.00143333 0.00117104 0.000939726 0.00073939 0.000566095 0.000415907 0.000288824 0.000184847 0.000103977 4.62119e-05 1.1553e-05 0 0 1.6707e-05 6.68281e-05 0.000150363 0.000267312 0.000417676 0.000601453 0.000818644 0.00106925 0.00135714 0.0016862 0.00205642 0.00246781 0.00292035 0.00341406 0.00394894 0.00452497 0.00512744 0.00574161 0.00636747 0.00700504 0.0076543 0.00831526 0.00898792 0.00967227 0.0103538 0.0110178 0.0116644 0.0122935 0.0129052 0.0134994 0.0140762 0.0146355 0.0151709 0.0156758 0.0161502 0.0165942 0.0170078 0.0173909 0.0177435 0.0180657 0.0183591 0.0186253 0.0188643 0.0190762 0.0192609 0.0194184 0.0195488 0.019652 0.0197342 0.0198014 0.0198538 0.0198912 0.0199137 0.0199213 0.0199139 0.0198917 0.0198599 0.0198238 0.0197836 0.0197391 0.0196903 0.0196374 0.0195802 0.0195188 0.0194539 0.0193863 0.019316 0.0192429 0.0191671 0.0190886 0.0190074 0.0189234 0.0188328 0.0187318 0.0186204 0.0184985 0.0183661 0.0182233 0.0180701 0.0179064 0.0177274 0.0175282 0.0173089 0.0170694 0.0168098 0.01653 0.0162301 0.01591 0.0155686 0.0152049 0.0148187 0.0144102 0.0139792 0.0135259 0.0130502 0.0125521 0.0120372 0.011511 0.0109737 0.0104252 0.00986547 0.00929454 0.00871241 0.00811908 0.00752641 0.00694629 0.0063787 0.00582364 0.00528113 0.00475115 0.00423371 0.0037288 0.00324778 0.00280199 0.00239144 0.00201611 0.00167602 0.00137116 0.00110153 0.00086713 0.000663896 0.000487761 0.000338723 0.000216783 0.00012194 5.41956e-05 1.35489e-05 0 0 1.93353e-05 7.73414e-05 0.000174018 0.000309366 0.000483384 0.000696072 0.000947432 0.00123746 0.00157001 0.00194891 0.00237417 0.00284579 0.00336377 0.00392811 0.00453881 0.00519586 0.00588257 0.00658222 0.00729481 0.00802035 0.00875884 0.00951026 0.0102746 0.011052 0.0118259 0.0125802 0.0133148 0.0140298 0.0147251 0.0154007 0.0160567 0.016693 0.0173023 0.0178774 0.0184182 0.0189247 0.0193969 0.0198349 0.0202386 0.020608 0.0209449 0.0212511 0.0215266 0.0217714 0.0219855 0.0221689 0.0223216 0.0224436 0.0225416 0.0226226 0.0226864 0.0227332 0.0227628 0.0227753 0.0227707 0.0227489 0.0227161 0.022678 0.0226346 0.0225861 0.0225324 0.0224734 0.0224093 0.0223399 0.0222661 0.0221889 0.0221081 0.0220238 0.021936 0.0218447 0.0217499 0.0216516 0.0215455 0.0214274 0.0212972 0.0211549 0.0210006 0.0208343 0.0206559 0.0204655 0.0202576 0.020027 0.0197736 0.0194974 0.0191985 0.0188767 0.0185322 0.018165 0.0177737 0.0173573 0.0169157 0.016449 0.015957 0.01544 0.0148977 0.0143303 0.013744 0.0131452 0.0125337 0.0119096 0.0112729 0.0106237 0.0099618 0.00928733 0.00861354 0.00795371 0.00730783 0.0066759 0.00605792 0.0054539 0.00486383 0.00428771 0.00373843 0.00322886 0.00275902 0.00232889 0.00193848 0.00158779 0.00127682 0.00100557 0.000769889 0.000565633 0.000392801 0.000251392 0.000141408 6.28481e-05 1.5712e-05 0 0 2.21445e-05 8.85779e-05 0.0001993 0.000354311 0.000553612 0.000797201 0.00108508 0.00141725 0.00179744 0.00222941 0.00271314 0.00324864 0.00383591 0.00447495 0.00516575 0.00590833 0.00668388 0.00747362 0.00827755 0.00909566 0.00992796 0.0107745 0.0116351 0.01251 0.013381 0.01423 0.015057 0.0158621 0.0166452 0.0174064 0.0181456 0.0188628 0.0195499 0.0201989 0.0208096 0.0213821 0.0219164 0.0224125 0.0228703 0.02329 0.0236734 0.0240223 0.0243369 0.0246172 0.024863 0.0250744 0.0252515 0.0253942 0.0255099 0.0256063 0.0256831 0.0257405 0.0257785 0.025797 0.0257961 0.0257757 0.0257424 0.0257028 0.0256568 0.0256045 0.0255459 0.0254809 0.0254096 0.025332 0.0252489 0.0251615 0.0250696 0.0249733 0.0248726 0.0247675 0.0246579 0.0245439 0.0244209 0.024284 0.0241334 0.0239691 0.0237909 0.023599 0.0233934 0.023174 0.0229349 0.0226703 0.0223803 0.0220647 0.0217237 0.0213572 0.0209651 0.0205476 0.0201033 0.019631 0.0191307 0.0186023 0.018046 0.0174616 0.0168492 0.0162088 0.0155474 0.0148719 0.0141824 0.0134788 0.0127612 0.0120296 0.0112839 0.0105242 0.00976516 0.0090215 0.00829321 0.00758031 0.0068828 0.00620067 0.00553392 0.00488255 0.00426108 0.003684 0.00315133 0.00266305 0.00221917 0.00181969 0.00146461 0.00115393 0.000883476 0.000649085 0.000450753 0.000288482 0.000162271 7.21205e-05 1.80301e-05 0 0 2.51344e-05 0.000100538 0.000226209 0.00040215 0.000628359 0.000904838 0.00123158 0.0016086 0.00203945 0.00252769 0.00307332 0.00367635 0.00433677 0.00505458 0.00582978 0.00666238 0.00753139 0.00841582 0.00931569 0.010231 0.0111617 0.0121078 0.0130694 0.0140464 0.0150189 0.0159671 0.0168909 0.0177904 0.0186656 0.0195164 0.0203428 0.0211449 0.0219137 0.0226402 0.0233245 0.0239665 0.0245662 0.0251237 0.0256389 0.0261118 0.0265445 0.026939 0.0272953 0.0276134 0.0278933 0.028135 0.0283385 0.0285038 0.0286391 0.0287524 0.0288438 0.0289133 0.0289608 0.0289864 0.0289901 0.0289719 0.0289389 0.0288982 0.02885 0.0287942 0.0287308 0.0286598 0.0285813 0.0284951 0.0284023 0.0283042 0.0282005 0.0280914 0.0279769 0.0278568 0.0277313 0.0276004 0.0274589 0.0273018 0.0271292 0.0269409 0.026737 0.0265176 0.0262825 0.0260318 0.0257592 0.0254583 0.025129 0.0247714 0.0243855 0.0239713 0.0235288 0.0230579 0.0225574 0.022026 0.0214636 0.0208703 0.020246 0.0195908 0.0189047 0.0181875 0.0174472 0.0166913 0.0159199 0.0151329 0.0143304 0.0135124 0.0126788 0.0118297 0.0109813 0.0101496 0.00933485 0.00853689 0.00775575 0.00699145 0.00624397 0.00551333 0.00481574 0.00416742 0.00356837 0.00301859 0.00251809 0.00206685 0.00166489 0.00131221 0.00100466 0.000738116 0.000512581 0.000328052 0.000184529 8.20129e-05 2.05032e-05 0 0 2.83051e-05 0.00011322 0.000254746 0.000452881 0.000707627 0.00101898 0.00138695 0.00181153 0.00229602 0.00284375 0.00345472 0.00412891 0.00486634 0.005667 0.00653089 0.00745802 0.00842509 0.00940882 0.0104092 0.0114263 0.01246 0.0135104 0.0145774 0.0156611 0.0167398 0.0177916 0.0188166 0.0198148 0.0207861 0.0217307 0.0226484 0.0235394 0.0243936 0.0252015 0.0259629 0.0266779 0.0273464 0.0279685 0.0285441 0.0290733 0.0295583 0.030001 0.0304016 0.0307601 0.0310764 0.0313506 0.0315827 0.0317726 0.0319291 0.0320611 0.0321685 0.0322514 0.0323098 0.0323436 0.0323528 0.0323375 0.0323055 0.0322644 0.0322144 0.0321553 0.0320873 0.0320102 0.0319242 0.0318292 0.0317264 0.0316169 0.0315008 0.0313781 0.0312488 0.0311128 0.0309702 0.030821 0.0306596 0.0304808 0.0302844 0.0300704 0.0298389 0.0295898 0.0293232 0.0290391 0.0287305 0.0283907 0.0280197 0.0276174 0.0271839 0.0267192 0.0262232 0.025696 0.0251361 0.0245423 0.0239146 0.0232529 0.0225572 0.0218276 0.021064 0.0202665 0.0194434 0.0186033 0.0177461 0.0168718 0.0159804 0.015072 0.0141465 0.0132039 0.0122619 0.0113382 0.0104327 0.00954561 0.00867678 0.00782624 0.006994 0.00618004 0.0054024 0.0046791 0.00401014 0.00339552 0.00283523 0.00232928 0.00187767 0.0014804 0.00113343 0.000832727 0.000578283 0.000370101 0.000208182 9.25253e-05 2.31313e-05 0 0 3.16566e-05 0.000126626 0.000284909 0.000506506 0.000791415 0.00113964 0.00155117 0.00202602 0.00256717 0.00317761 0.00385733 0.00460634 0.00542463 0.00631221 0.00726908 0.00829523 0.00936498 0.0104526 0.0115582 0.0126816 0.0138229 0.0149821 0.0161592 0.0173543 0.0185435 0.0197034 0.020834 0.0219351 0.0230069 0.0240494 0.0250624 0.0260461 0.0269898 0.0278827 0.0287248 0.0295163 0.030257 0.0309469 0.0315862 0.0321747 0.0327147 0.0332085 0.033656 0.0340573 0.0344124 0.0347213 0.0349839 0.0352003 0.03538 0.0355323 0.0356573 0.035755 0.0358254 0.0358685 0.0358842 0.0358727 0.0358423 0.0358013 0.0357498 0.0356877 0.0356152 0.0355321 0.0354385 0.0353344 0.035221 0.0350997 0.0349705 0.0348334 0.0346883 0.0345354 0.0343745 0.0342056 0.034023 0.0338208 0.033599 0.0333576 0.0330965 0.0328159 0.0325156 0.0321957 0.0318489 0.0314678 0.0310524 0.0306028 0.0301189 0.0296008 0.0290484 0.0284617 0.0278394 0.02718 0.0264835 0.0257501 0.0249795 0.024172 0.0233274 0.0224457 0.0215362 0.020608 0.0196611 0.0186955 0.0177113 0.0167084 0.0156869 0.0146466 0.0136069 0.012587 0.0115869 0.0106065 0.00964589 0.00870505 0.00778399 0.00688269 0.00602108 0.00521906 0.00447664 0.00379382 0.0031706 0.00260698 0.00210295 0.00165852 0.00126981 0.000932918 0.00064786 0.00041463 0.00023323 0.000103658 2.59144e-05 0 0 3.51889e-05 0.000140756 0.0003167 0.000563022 0.000879722 0.0012668 0.00172426 0.00225209 0.00285289 0.00352924 0.00428115 0.00510862 0.00601164 0.00699022 0.00804435 0.00917403 0.0103511 0.0115472 0.0127625 0.0139969 0.0152504 0.0165231 0.0