<?xml version="1.0"?> 
<VTKFile type="StructuredGrid" version="0.1"> 
<StructuredGrid WholeExtent="0 128 0 128 0 0"> 
<Piece Extent="0 128 0 128 0 0"> 
<PointData>
<DataArray type="Float32" Name="u" format="ascii" NumberOfComponents="1"> 
0 0 0 0 0 0 0 0 0 0 0 0 0 0 0 0 0 0 0 0 0 0 0 0 0 0 0 0 0 0 0 0 0 0 0 0 0 0 0 0 0 0 0 0 0 0 0 0 0 0 0 0 0 0 0 0 0 0 0 0 0 0 0 0 0 0 0 0 0 0 0 0 0 0 0 0 0 0 0 0 0 0 0 0 0 0 0 0 0 0 0 0 0 0 0 0 0 0 0 0 0 0 0 0 0 0 0 0 0 0 0 0 0 0 0 0 0 0 0 0 0 0 0 0 0 0 0 0 0 0 3.87279e-08 1.54912e-07 3.48551e-07 6.19647e-07 9.68198e-07 1.39421e-06 1.89767e-06 2.47859e-06 3.17325e-06 4.01793e-06 5.01264e-06 6.15737e-06 7.45213e-06 8.89692e-06 1.04917e-05 1.22366e-05 1.40844e-05 1.59882e-05 1.79481e-05 1.99639e-05 2.20357e-05 2.41636e-05 2.63474e-05 2.85872e-05 3.08206e-05 3.29851e-05 3.50807e-05 3.71074e-05 3.90652e-05 4.09541e-05 4.27741e-05 4.45253e-05 4.61775e-05 4.77007e-05 4.90949e-05 5.03601e-05 5.14963e-05 5.25035e-05 5.33817e-05 5.4131e-05 5.47624e-05 5.52873e-05 5.57057e-05 5.60175e-05 5.62227e-05 5.63214e-05 5.63136e-05 5.61991e-05 5.60151e-05 5.57985e-05 5.55493e-05 5.52674e-05 5.49529e-05 5.46058e-05 5.4226e-05 5.38137e-05 5.34006e-05 5.30187e-05 5.26681e-05 5.23487e-05 5.20605e-05 5.18035e-05 5.15777e-05 5.13832e-05 5.12219e-05 5.10959e-05 5.10053e-05 5.095e-05 5.093e-05 5.09453e-05 5.09959e-05 5.10819e-05 5.11755e-05 5.12492e-05 5.13028e-05 5.13365e-05 5.13502e-05 5.13439e-05 5.13176e-05 5.12714e-05 5.11721e-05 5.09869e-05 5.07157e-05 5.03585e-05 4.99153e-05 4.93861e-05 4.87709e-05 4.80698e-05 4.72731e-05 4.63713e-05 4.53644e-05 4.42524e-05 4.30353e-05 4.17131e-05 4.02858e-05 3.87535e-05 3.71429e-05 3.5481e-05 3.37677e-05 3.20031e-05 3.01872e-05 2.832e-05 2.64014e-05 2.44315e-05 2.24638e-05 2.05516e-05 1.8695e-05 1.68941e-05 1.51487e-05 1.34589e-05 1.18247e-05 1.02461e-05 8.76066e-06 7.40589e-06 6.18179e-06 5.08837e-06 4.12563e-06 3.29356e-06 2.59218e-06 2.02147e-06 1.54769e-06 1.13708e-06 7.89637e-07 5.05368e-07 2.84269e-07 1.26342e-07 3.15855e-08 0 0 1.54912e-07 6.19647e-07 1.39421e-06 2.47859e-06 3.87279e-06 5.57682e-06 7.59067e-06 9.91435e-06 1.2693e-05 1.60717e-05 2.00506e-05 2.46295e-05 2.98085e-05 3.55877e-05 4.19669e-05 4.89462e-05 5.63376e-05 6.3953e-05 7.17923e-05 7.98557e-05 8.8143e-05 9.66543e-05 0.00010539 0.000114349 0.000123282 0.00013194 0.000140323 0.000148429 0.000156261 0.000163816 0.000171096 0.000178101 0.00018471 0.000190803 0.000196379 0.00020144 0.000205985 0.000210014 0.000213527 0.000216524 0.00021905 0.000221149 0.000222823 0.00022407 0.000224891 0.000225286 0.000225254 0.000224797 0.000224061 0.000223194 0.000222197 0.00022107 0.000219812 0.000218423 0.000216904 0.000215255 0.000213602 0.000212075 0.000210672 0.000209395 0.000208242 0.000207214 0.000206311 0.000205533 0.000204888 0.000204384 0.000204021 0.0002038 0.00020372 0.000203781 0.000203984 0.000204328 0.000204702 0.000204997 0.000205211 0.000205346 0.000205401 0.000205376 0.000205271 0.000205085 0.000204689 0.000203948 0.000202863 0.000201434 0.000199661 0.000197544 0.000195084 0.000192279 0.000189092 0.000185485 0.000181457 0.00017701 0.000172141 0.000166852 0.000161143 0.000155014 0.000148571 0.000141924 0.000135071 0.000128013 0.000120749 0.00011328 0.000105606 9.77261e-05 8.98551e-05 8.22064e-05 7.47802e-05 6.75763e-05 6.05947e-05 5.38356e-05 4.72989e-05 4.09845e-05 3.50427e-05 2.96235e-05 2.47272e-05 2.03535e-05 1.65025e-05 1.31742e-05 1.03687e-05 8.08588e-06 6.19075e-06 4.54831e-06 3.15855e-06 2.02147e-06 1.13708e-06 5.05368e-07 1.26342e-07 0 0 3.48551e-07 1.39421e-06 3.13696e-06 5.57682e-06 8.71378e-06 1.25478e-05 1.7079e-05 2.23073e-05 2.85592e-05 3.61614e-05 4.51138e-05 5.54164e-05 6.70692e-05 8.00723e-05 9.44255e-05 0.000110129 0.00012676 0.000143894 0.000161533 0.000179675 0.000198322 0.000217472 0.000237127 0.000257285 0.000277385 0.000296866 0.000315726 0.000333966 0.000351587 0.000368587 0.000384967 0.000400727 0.000415597 0.000429306 0.000441854 0.000453241 0.000463467 0.000472532 0.000480436 0.000487179 0.000492862 0.000497586 0.000501351 0.000504157 0.000506004 0.000506893 0.000506822 0.000505792 0.000504136 0.000502187 0.000499943 0.000497407 0.000494576 0.000491452 0.000488034 0.000484323 0.000480605 0.000477169 0.000474013 0.000471138 0.000468544 0.000466231 0.0004642 0.000462449 0.000460997 0.000459863 0.000459048 0.00045855 0.00045837 0.000458507 0.000458963 0.000459737 0.00046058 0.000461242 0.000461725 0.000462028 0.000462152 0.000462095 0.000461859 0.000461442 0.000460549 0.000458882 0.000456441 0.000453226 0.000449237 0.000444475 0.000438938 0.000432628 0.000425458 0.000417341 0.000408279 0.000398271 0.000387318 0.000375418 0.000362573 0.000348781 0.000334286 0.000319329 0.000303909 0.000288028 0.000271685 0.00025488 0.000237613 0.000219884 0.000202174 0.000184964 0.000168255 0.000152047 0.000136338 0.00012113 0.000106422 9.22151e-05 7.8846e-05 6.6653e-05 5.56361e-05 4.57953e-05 3.71306e-05 2.96421e-05 2.33296e-05 1.81932e-05 1.39292e-05 1.02337e-05 7.10673e-06 4.54831e-06 2.55842e-06 1.13708e-06 2.84269e-07 0 0 6.19647e-07 2.47859e-06 5.57682e-06 9.91435e-06 1.54912e-05 2.23073e-05 3.03627e-05 3.96574e-05 5.07719e-05 6.42869e-05 8.02022e-05 9.8518e-05 0.000119234 0.000142351 0.000167868 0.000195785 0.000225351 0.000255812 0.000287169 0.000319423 0.000352572 0.000386617 0.000421558 0.000457395 0.000493129 0.000527761 0.000561291 0.000593718 0.000625043 0.000655265 0.000684386 0.000712404 0.000738839 0.00076321 0.000785518 0.000805761 0.000823941 0.000840056 0.000854108 0.000866095 0.000876199 0.000884597 0.000891291 0.000896279 0.000899563 0.000901143 0.000901017 0.000899186 0.000896242 0.000892776 0.000888788 0.000884279 0.000879247 0.000873693 0.000867617 0.000861019 0.00085441 0.0008483 0.00084269 0.000837579 0.000832968 0.000828856 0.000825244 0.000822131 0.00081955 0.000817535 0.000816084 0.000815199 0.000814879 0.000815124 0.000815935 0.00081731 0.000818808 0.000819987 0.000820845 0.000821384 0.000821603 0.000821502 0.000821082 0.000820342 0.000818754 0.00081579 0.000811451 0.000805736 0.000798644 0.000790177 0.000780335 0.000769116 0.000756369 0.00074194 0.00072583 0.000708038 0.000688565 0.00066741 0.000644573 0.000620055 0.000594286 0.000567695 0.000540283 0.00051205 0.000482996 0.00045312 0.000422423 0.000390905 0.00035942 0.000328826 0.000299121 0.000270305 0.000242379 0.000215342 0.000189195 0.000163938 0.000140171 0.000118494 9.89086e-05 8.14139e-05 6.601e-05 5.2697e-05 4.14748e-05 3.23435e-05 2.4763e-05 1.81932e-05 1.26342e-05 8.08588e-06 4.54831e-06 2.02147e-06 5.05368e-07 0 0 9.68198e-07 3.87279e-06 8.71378e-06 1.54912e-05 2.4205e-05 3.48551e-05 4.74417e-05 6.19647e-05 7.93312e-05 0.000100448 0.000125316 0.000153934 0.000186303 0.000222423 0.000262293 0.000305914 0.00035211 0.000399706 0.000448702 0.000499098 0.000550894 0.000604089 0.000658685 0.00071468 0.000770515 0.000824627 0.000877017 0.000927684 0.000976629 0.00102385 0.00106935 0.00111313 0.00115444 0.00119252 0.00122737 0.001259 0.00128741 0.00131259 0.00133454 0.00135327 0.00136906 0.00138218 0.00139264 0.00140044 0.00140557 0.00140804 0.00140784 0.00140498 0.00140038 0.00139496 0.00138873 0.00138169 0.00137382 0.00136514 0.00135565 0.00134534 0.00133502 0.00132547 0.0013167 0.00130872 0.00130151 0.00129509 0.00128944 0.00128458 0.00128055 0.0012774 0.00127513 0.00127375 0.00127325 0.00127363 0.0012749 0.00127705 0.00127939 0.00128123 0.00128257 0.00128341 0.00128375 0.0012836 0.00128294 0.00128178 0.0012793 0.00127467 0.00126789 0.00125896 0.00124788 0.00123465 0.00121927 0.00120174 0.00118183 0.00115928 0.00113411 0.00110631 0.00107588 0.00104283 0.00100715 0.000968836 0.000928572 0.000887024 0.000844193 0.000800078 0.000754681 0.000708 0.000660036 0.000610788 0.000561594 0.00051379 0.000467376 0.000422352 0.000378717 0.000336473 0.000295618 0.000256153 0.000219017 0.000185147 0.000154545 0.000127209 0.000103141 8.2339e-05 6.48044e-05 5.05368e-05 3.86922e-05 2.84269e-05 1.97409e-05 1.26342e-05 7.10673e-06 3.15855e-06 7.89637e-07 0 0 1.39421e-06 5.57682e-06 1.25478e-05 2.23073e-05 3.48551e-05 5.01914e-05 6.83161e-05 8.92291e-05 0.000114237 0.000144646 0.000180455 0.000221665 0.000268277 0.000320289 0.000377702 0.000440516 0.000507039 0.000575577 0.000646131 0.000718701 0.000793287 0.000869889 0.000948506 0.00102914 0.00110954 0.00118746 0.0012629 0.00133587 0.00140635 0.00147435 0.00153987 0.00160291 0.00166239 0.00171722 0.00176741 0.00181296 0.00185387 0.00189013 0.00192174 0.00194871 0.00197145 0.00199034 0.0020054 0.00201663 0.00202402 0.00202757 0.00202729 0.00202317 0.00201655 0.00200875 0.00199977 0.00198963 0.0019783 0.00196581 0.00195214 0.00193729 0.00192242 0.00190867 0.00189605 0.00188455 0.00187418 0.00186493 0.0018568 0.00184979 0.00184399 0.00183945 0.00183619 0.0018342 0.00183348 0.00183403 0.00183585 0.00183895 0.00184232 0.00184497 0.0018469 0.00184811 0.00184861 0.00184838 0.00184743 0.00184577 0.0018422 0.00183553 0.00182576 0.0018129 0.00179695 0.0017779 0.00175575 0.00173051 0.00170183 0.00166937 0.00163312 0.00159309 0.00154927 0.00150167 0.00145029 0.00139512 0.00133714 0.00127731 0.00121564 0.00115211 0.00108674 0.00101952 0.000950451 0.000879535 0.000808696 0.000739858 0.000673021 0.000608186 0.000545353 0.00048452 0.00042569 0.00036886 0.000315384 0.000266612 0.000222544 0.000183181 0.000148523 0.000118568 9.33184e-05 7.27729e-05 5.57168e-05 4.09348e-05 2.84269e-05 1.81932e-05 1.02337e-05 4.54831e-06 1.13708e-06 0 0 1.89767e-06 7.59067e-06 1.7079e-05 3.03627e-05 4.74417e-05 6.83161e-05 9.29857e-05 0.000121451 0.000155489 0.000196879 0.000245619 0.000301711 0.000365155 0.000435949 0.000514095 0.000599592 0.000690136 0.000783424 0.000879456 0.000978232 0.00107975 0.00118402 0.00129102 0.00140077 0.00151021 0.00161627 0.00171895 0.00181826 0.00191419 0.00200675 0.00209593 0.00218174 0.0022627 0.00233733 0.00240565 0.00246764 0.00252332 0.00257267 0.0026157 0.00265242 0.00268336 0.00270908 0.00272958 0.00274486 0.00275491 0.00275975 0.00275936 0.00275376 0.00274474 0.00273413 0.00272191 0.0027081 0.00269269 0.00267568 0.00265708 0.00263687 0.00261663 0.00259792 0.00258074 0.00256509 0.00255096 0.00253837 0.00252731 0.00251778 0.00250987 0.0025037 0.00249926 0.00249655 0.00249557 0.00249632 0.0024988 0.00250301 0.0025076 0.00251121 0.00251384 0.00251549 0.00251616 0.00251585 0.00251456 0.0025123 0.00250743 0.00249836 0.00248507 0.00246756 0.00244585 0.00241992 0.00238978 0.00235542 0.00231638 0.00227219 0.00222285 0.00216837 0.00210873 0.00204394 0.00197401 0.00189892 0.00182 0.00173857 0.00165462 0.00156815 0.00147917 0.00138768 0.00129367 0.00119715 0.00110072 0.00100703 0.000916057 0.000827809 0.000742286 0.000659486 0.000579411 0.00050206 0.000429273 0.000362888 0.000302908 0.00024933 0.000202156 0.000161385 0.000127017 9.9052e-05 7.58367e-05 5.57168e-05 3.86922e-05 2.4763e-05 1.39292e-05 6.19075e-06 1.54769e-06 0 0 2.47859e-06 9.91435e-06 2.23073e-05 3.96574e-05 6.19647e-05 8.92291e-05 0.000121451 0.00015863 0.000203088 0.000257148 0.000320809 0.000394072 0.000476937 0.000569403 0.000671471 0.00078314 0.000901402 0.00102325 0.00114868 0.00127769 0.00141029 0.00154647 0.00168623 0.00182958 0.00197252 0.00211104 0.00224516 0.00237487 0.00250017 0.00262106 0.00273754 0.00284962 0.00295536 0.00305284 0.00314207 0.00322304 0.00329576 0.00336022 0.00341643 0.00346438 0.00350479 0.00353839 0.00356516 0.00358512 0.00359825 0.00360457 0.00360407 0.00359675 0.00358497 0.00357111 0.00355515 0.00353711 0.00351699 0.00349477 0.00347047 0.00344408 0.00341764 0.0033932 0.00337076 0.00335032 0.00333187 0.00331542 0.00330097 0.00328852 0.0032782 0.00327014 0.00326434 0.0032608 0.00325952 0.0032605 0.00326374 0.00326924 0.00327523 0.00327995 0.00328338 0.00328554 0.00328641 0.00328601 0.00328433 0.00328137 0.00327502 0.00326316 0.0032458 0.00322294 0.00319458 0.00316071 0.00312134 0.00307646 0.00302548 0.00296776 0.00290332 0.00283215 0.00275426 0.00266964 0.00257829 0.00248022 0.00237714 0.00227078 0.00216113 0.0020482 0.00193198 0.00181248 0.00168969 0.00156362 0.00143768 0.0013153 0.00119648 0.00108122 0.000969516 0.00086137 0.000756782 0.000655752 0.000560683 0.000473977 0.000395634 0.000325656 0.00026404 0.000210788 0.000165899 0.000129374 9.9052e-05 7.27729e-05 5.05368e-05 3.23435e-05 1.81932e-05 8.08588e-06 2.02147e-06 0 0 3.20564e-06 1.28226e-05 2.88508e-05 5.12902e-05 8.0141e-05 0.000115403 0.000157076 0.000205161 0.000262533 0.000332069 0.000413769 0.000507632 0.000613659 0.00073185 0.000862205 0.00100472 0.00115558 0.00131093 0.0014708 0.00163517 0.00180404 0.00197742 0.00215531 0.0023377 0.00251955 0.00269581 0.00286649 0.00303158 0.00319108 0.00334499 0.00349332 0.00363606 0.00377078 0.00389506 0.00400889 0.00411227 0.0042052 0.00428769 0.00435973 0.00442133 0.00447338 0.00451678 0.00455154 0.00457766 0.00459513 0.00460395 0.00460414 0.00459568 0.00458155 0.00456474 0.00454524 0.00452306 0.00449819 0.00447064 0.0044404 0.00440747 0.00437444 0.00434387 0.00431576 0.00429011 0.00426693 0.00424622 0.00422796 0.00421217 0.00419901 0.00418865 0.00418109 0.00417632 0.00417436 0.00417518 0.00417881 0.00418524 0.00419223 0.00419757 0.00420125 0.00420328 0.00420364 0.00420235 0.00419941 0.0041948 0.00418588 0.00416999 0.00414713 0.00411729 0.00408047 0.00403669 0.00398593 0.0039282 0.00386272 0.00378874 0.00370626 0.00361527 0.00351577 0.00340777 0.00329126 0.00316625 0.0030349 0.00289939 0.00275973 0.0026159 0.00246792 0.00231577 0.00215947 0.00199901 0.0018387 0.00168288 0.00153154 0.00138468 0.0012423 0.0011044 0.00097098 0.000842041 0.000720642 0.000609842 0.000509641 0.000420039 0.000341037 0.000272633 0.000214829 0.000167623 0.000128336 9.4288e-05 6.54778e-05 4.19058e-05 2.3572e-05 1.04764e-05 2.61911e-06 0 0 4.1475e-06 1.659e-05 3.73275e-05 6.636e-05 0.000103688 0.00014931 0.000203228 0.00026544 0.000339325 0.000428259 0.000532243 0.000651276 0.000785359 0.000934491 0.00109867 0.0012779 0.0014674 0.00166237 0.00186282 0.00206875 0.00228016 0.00249705 0.00271941 0.00294726 0.00317438 0.00339459 0.00360788 0.00381425 0.00401371 0.00420625 0.00439187 0.00457057 0.00473937 0.00489528 0.00503829 0.00516841 0.00528564 0.00538998 0.00548142 0.00555997 0.00562672 0.00568276 0.00572809 0.00576271 0.00578662 0.00579982 0.00580231 0.0057941 0.00577881 0.00576008 0.00573792 0.00571233 0.00568331 0.00565085 0.00561496 0.00557563 0.00553602 0.00549927 0.00546538 0.00543435 0.00540619 0.00538089 0.00535844 0.00533886 0.00532236 0.00530913 0.00529917 0.0052925 0.00528911 0.005289 0.00529216 0.00529861 0.00530562 0.00531047 0.00531318 0.00531373 0.00531213 0.00530838 0.00530248 0.00529443 0.00528098 0.0052589 0.00522819 0.00518885 0.00514087 0.00508427 0.00501903 0.00494516 0.00486173 0.00476782 0.00466342 0.00454855 0.00442319 0.00428735 0.00414102 0.00398421 0.00381959 0.00364984 0.00347494 0.0032949 0.00310973 0.00291941 0.00272395 0.00252336 0.00232293 0.00212797 0.00193847 0.00175445 0.00157589 0.0014028 0.00123518 0.00107303 0.000920178 0.000780449 0.000653843 0.000540362 0.000440006 0.000352774 0.000278666 0.000217683 0.000166664 0.000122447 8.50326e-05 5.44208e-05 3.06117e-05 1.36052e-05 3.4013e-06 0 0 5.30417e-06 2.12167e-05 4.77376e-05 8.48668e-05 0.000132604 0.00019095 0.000259905 0.000339467 0.000433463 0.000545718 0.000676232 0.000825004 0.000992035 0.00117732 0.00138087 0.00160268 0.00183687 0.00207756 0.00232475 0.00257845 0.00283865 0.00310535 0.00337855 0.00365826 0.00393702 0.00420738 0.00446934 0.0047229 0.00496806 0.00520483 0.00543319 0.00565316 0.00586113 0.00605351 0.00623029 0.00639148 0.00653708 0.00666709 0.0067815 0.00688032 0.00696483 0.00703633 0.00709482 0.00714029 0.00717274 0.00719218 0.0071986 0.007192 0.00717674 0.00715714 0.0071332 0.00710494 0.00707234 0.00703541 0.00699414 0.00694855 0.00690238 0.0068594 0.00681962 0.00678303 0.00674963 0.00671943 0.00669242 0.0066686 0.00664822 0.00663156 0.00661859 0.00660934 0.00660378 0.00660193 0.00660379 0.00660935 0.00661538 0.00661865 0.00661916 0.0066169 0.00661188 0.00660409 0.00659354 0.00658023 0.0065603 0.00652989 0.006489 0.00643763 0.00637578 0.00630345 0.00622064 0.00612735 0.00602249 0.00590498 0.00577481 0.00563198 0.0054765 0.00530836 0.00512757 0.00493412 0.00473123 0.00452211 0.00430677 0.0040852 0.00385741 0.00362339 0.00338315 0.00313668 0.00289035 0.00265056 0.00241728 0.00219052 0.00197029 0.00175658 0.00154939 0.00134873 0.00115929 0.000985797 0.000828241 0.000686625 0.000560948 0.000451211 0.000357413 0.000279555 0.000214034 0.000157249 0.000109201 6.98887e-05 3.93124e-05 1.74722e-05 4.36804e-06 0 0 6.67566e-06 2.67026e-05 6.00809e-05 0.000106811 0.000166891 0.000240324 0.000327107 0.000427242 0.000544948 0.000684446 0.000845735 0.00102882 0.00123369 0.00146035 0.00170881 0.00197905 0.00226398 0.00255649 0.00285658 0.00316425 0.00347949 0.00380232 0.00413272 0.0044707 0.00480746 0.00513418 0.00545087 0.00575752 0.00605415 0.00634074 0.00661729 0.00688382 0.00713606 0.00736974 0.00758488 0.00778148 0.00795952 0.00811902 0.00825996 0.00838237 0.00848771 0.0085775 0.00865172 0.00871038 0.00875348 0.00878101 0.00879299 0.0087894 0.00877534 0.0087559 0.00873108 0.00870087 0.00866528 0.00862431 0.00857796 0.00852622 0.00847352 0.00842427 0.00837849 0.00833615 0.00829727 0.00826185 0.00822988 0.00820137 0.00817662 0.00815594 0.00813935 0.00812682 0.00811837 0.008114 0.00811369 0.00811747 0.00812153 0.00812211 0.00811919 0.00811278 0.00810288 0.00808949 0.0080726 0.00805223 0.00802385 0.00798296 0.00792955 0.00786362 0.00778518 0.00769423 0.00759076 0.00747477 0.00734501 0.00720022 0.00704041 0.00686558 0.00667571 0.00647082 0.00625091 0.00601597 0.0057698 0.00551622 0.00525522 0.00498681 0.00471097 0.00442772 0.00413705 0.00383896 0.00354098 0.00325065 0.00296796 0.00269291 0.0024255 0.00216573 0.00191361 0.00166912 0.00143798 0.00122589 0.00103284 0.000858827 0.000703864 0.000567944 0.000451068 0.000353237 0.000270447 0.000198696 0.000137983 8.83093e-05 4.9674e-05 2.20773e-05 5.51933e-06 0 0 8.26195e-06 3.30478e-05 7.43576e-05 0.000132191 0.000206549 0.00029743 0.000404836 0.000528765 0.00067378 0.000844443 0.00104075 0.00126271 0.00151032 0.00178357 0.00208247 0.00240702 0.00274875 0.00309918 0.00345832 0.00382616 0.00420271 0.00458796 0.00498192 0.00538459 0.0057857 0.00617499 0.00655246 0.00691812 0.00727195 0.00761397 0.00794417 0.00826256 0.00856415 0.00884399 0.00910207 0.00933839 0.00955296 0.00974577 0.00991682 0.0100661 0.0101954 0.0103062 0.0103988 0.010473 0.0105288 0.0105663 0.0105855 0.0105863 0.0105746 0.0105564 0.0105315 0.0105001 0.0104621 0.0104176 0.0103664 0.0103087 0.0102494 0.0101939 0.010142 0.0100937 0.0100491 0.0100081 0.00997083 0.00993718 0.00990754 0.00988229 0.00986143 0.00984496 0.00983288 0.00982518 0.00982188 0.00982296 0.00982407 0.00982084 0.00981327 0.00980137 0.00978514 0.00976456 0.00973966 0.00971041 0.00967163 0.0096181 0.00954984 0.00946684 0.00936909 0.00925661 0.00912938 0.00898742 0.00882929 0.00865356 0.00846024 0.00824933 0.00802083 0.00777473 0.00751104 0.00722975 0.00693532 0.00663216 0.00632029 0.00599971 0.00567041 0.00533239 0.00498566 0.00463021 0.00427482 0.00392825 0.00359051 0.0032616 0.00294152 0.00263026 0.00232783 0.00203422 0.00175625 0.00150072 0.00126762 0.00105697 0.000868752 0.000702973 0.000559632 0.000438731 0.000335903 0.000246786 0.000171379 0.000109683 6.16965e-05 2.74207e-05 6.85517e-06 0 0 1.00631e-05 4.02522e-05 9.05675e-05 0.000161009 0.000251576 0.00036227 0.00049309 0.000644035 0.000819958 0.00102571 0.00126129 0.00152669 0.00182192 0.00214698 0.00250187 0.00288659 0.00329116 0.00370562 0.00412996 0.00456418 0.00500829 0.00546228 0.00592616 0.00639992 0.00687174 0.00732981 0.00777412 0.00820468 0.00862149 0.00902453 0.00941383 0.00978936 0.0101454 0.0104762 0.0107818 0.0110622 0.0113174 0.0115473 0.0117521 0.0119316 0.0120878 0.0122226 0.012336 0.0124281 0.0124988 0.0125481 0.0125761 0.0125827 0.0125746 0.0125586 0.0125346 0.0125027 0.0124629 0.0124152 0.0123595 0.0122958 0.0122301 0.0121682 0.0121101 0.0120557 0.0120051 0.0119583 0.0119153 0.011876 0.011841 0.0118106 0.0117849 0.0117638 0.0117473 0.0117355 0.0117283 0.0117258 0.011723 0.0117148 0.0117014 0.0116827 0.0116587 0.0116293 0.0115947 0.0115548 0.0115036 0.0114353 0.0113499 0.0112473 0.0111275 0.0109906 0.0108365 0.0106653 0.0104753 0.010265 0.0100343 0.00978324 0.00951184 0.00922008 0.00890796 0.00857548 0.00822777 0.00786994 0.00750198 0.00712391 0.00673572 0.00633741 0.00592898 0.00551042 0.00509185 0.00468336 0.00428494 0.0038966 0.00351834 0.00315016 0.00279205 0.00244402 0.0021141 0.00181029 0.00153261 0.00128105 0.00105561 0.000856298 0.000683105 0.000536035 0.000410402 0.00030152 0.000209389 0.000134009 7.538e-05 3.35022e-05 8.37555e-06 0 0 1.2079e-05 4.83159e-05 0.000108711 0.000193263 0.000301974 0.000434843 0.000591869 0.000773054 0.000983483 0.00122824 0.00150733 0.00182076 0.00216851 0.00255059 0.00296701 0.00341775 0.00389122 0.0043758 0.0048715 0.00537831 0.00589623 0.00642527 0.00696542 0.00751669 0.00806559 0.00859864 0.00911585 0.00961722 0.0101027 0.0105724 0.0110263 0.0114642 0.0118798 0.0122665 0.0126242 0.012953 0.0132528 0.0135237 0.0137657 0.0139787 0.0141649 0.0143265 0.0144635 0.0145758 0.0146634 0.0147264 0.0147648 0.0147785 0.0147752 0.0147625 0.0147403 0.0147087 0.0146676 0.0146171 0.0145572 0.0144878 0.0144156 0.0143473 0.0142828 0.0142221 0.0141653 0.0141124 0.0140632 0.0140179 0.013977 0.0139409 0.0139096 0.0138832 0.0138616 0.0138449 0.0138331 0.0138261 0.0138183 0.0138041 0.0137836 0.0137567 0.0137234 0.0136838 0.0136377 0.0135853 0.0135199 0.0134346 0.0133297 0.0132049 0.0130604 0.0128962 0.0127122 0.0125084 0.0122831 0.0120345 0.0117626 0.0114673 0.0111488 0.0108069 0.0104417 0.0100532 0.00964716 0.00922954 0.00880029 0.00835942 0.00790691 0.00744277 0.006967 0.0064796 0.00599209 0.00551597 0.00505124 0.00459791 0.00415597 0.00372543 0.00330628 0.00289853 0.00251152 0.00215461 0.00182779 0.00153107 0.00126445 0.00102792 0.000821487 0.000645151 0.000493944 0.000362897 0.000252012 0.000161288 9.07244e-05 4.03219e-05 1.00805e-05 0 0 1.43097e-05 5.72388e-05 0.000128787 0.000228955 0.000357742 0.000515149 0.000701175 0.00091582 0.00116435 0.00145205 0.0017789 0.0021449 0.00255007 0.00299439 0.00347787 0.00400051 0.00454893 0.00510974 0.00568294 0.00626854 0.00686654 0.00747693 0.00809972 0.0087349 0.00936723 0.00998149 0.0105777 0.0111557 0.0117157 0.0122576 0.0127815 0.0132872 0.0137674 0.0142148 0.0146292 0.0150107 0.0153593 0.0156749 0.0159577 0.0162076 0.0164269 0.016618 0.0167811 0.0169159 0.0170226 0.0171012 0.0171516 0.0171739 0.0171765 0.0171681 0.0171485 0.0171179 0.0170762 0.0170234 0.0169595 0.0168845 0.0168059 0.0167311 0.0166601 0.016593 0.0165297 0.0164703 0.0164146 0.0163629 0.0163155 0.0162731 0.0162357 0.0162033 0.0161759 0.0161535 0.0161361 0.0161237 0.01611 0.0160887 0.0160598 0.0160234 0.0159795 0.0159279 0.0158688 0.0158021 0.0157203 0.015616 0.0154892 0.0153398 0.0151678 0.0149734 0.0147563 0.0145167 0.0142527 0.0139621 0.0136451 0.0133015 0.0129316 0.0125351 0.0121122 0.0116628 0.0111935 0.010711 0.0102152 0.00970622 0.00918397 0.00864848 0.00809974 0.00753775 0.00697553 0.00642609 0.00588942 0.00536553 0.00485442 0.00435608 0.00387052 0.00339774 0.00294852 0.00253366 0.00215317 0.00180703 0.00149525 0.00121784 0.000974777 0.000766078 0.000586528 0.000430919 0.000299249 0.000191519 0.00010773 4.78799e-05 1.197e-05 0 0 1.67577e-05 6.70308e-05 0.000150819 0.000268123 0.000418942 0.000603277 0.000821127 0.00107249 0.00136275 0.00169729 0.00207611 0.00249921 0.00296658 0.00347824 0.00403417 0.00463438 0.00526357 0.00590647 0.00656307 0.00723336 0.00791736 0.00861505 0.00932645 0.0100515 0.0107733 0.0114745 0.0121553 0.0128156 0.0134555 0.0140749 0.0146739 0.0152524 0.0158022 0.0163148 0.0167904 0.0172288 0.0176302 0.0179945 0.0183217 0.0186118 0.0188674 0.0190912 0.0192831 0.0194432 0.0195714 0.0196677 0.0197322 0.0197648 0.019775 0.0197724 0.0197568 0.0197283 0.019687 0.0196327 0.0195655 0.0194855 0.0194008 0.0193199 0.0192426 0.0191691 0.0190993 0.0190332 0.0189708 0.0189122 0.0188579 0.0188086 0.0187644 0.0187253 0.0186911 0.018662 0.018638 0.018619 0.0185981 0.0185683 0.0185296 0.0184819 0.0184255 0.0183601 0.0182858 0.0182026 0.0181022 0.0179764 0.017825 0.0176482 0.0174458 0.017218 0.0169647 0.0166858 0.0163794 0.0160431 0.0156771 0.0152812 0.0148556 0.0144002 0.0139151 0.0134001 0.0128628 0.0123105 0.0117433 0.0111611 0.010564 0.00995189 0.00932486 0.00868287 0.00804052 0.00741236 0.0067984 0.00619864 0.00561307 0.00504171 0.00448455 0.00394158 0.00342516 0.00294763 0.00250898 0.00210922 0.00174835 0.00142637 0.00114327 0.00089906 0.000688343 0.000505721 0.000351195 0.000224765 0.00012643 5.61913e-05 1.40478e-05 0 0 1.94254e-05 7.77018e-05 0.000174829 0.000310807 0.000485636 0.000699316 0.000951847 0.00124323 0.00157887 0.00196417 0.00239913 0.00288375 0.00341804 0.00400198 0.00463559 0.00531886 0.00603446 0.00676506 0.00751065 0.00827125 0.00904684 0.00983742 0.010643 0.0114636 0.0122802 0.0130739 0.0138446 0.0145924 0.0153172 0.0160191 0.0166981 0.0173541 0.0179779 0.0185604 0.0191014 0.019601 0.0200591 0.0204759 0.0208512 0.0211852 0.0214805 0.0217401 0.021964 0.0221522 0.0223046 0.0224213 0.0225022 0.0225474 0.0225673 0.0225724 0.0225625 0.0225378 0.0224982 0.0224438 0.0223744 0.0222902 0.0222003 0.0221138 0.0220308 0.0219512 0.021875 0.0218023 0.021733 0.0216672 0.0216056 0.0215489 0.0214971 0.0214503 0.0214084 0.0213715 0.0213395 0.0213124 0.0212827 0.0212426 0.0211921 0.0211313 0.0210601 0.0209786 0.0208868 0.0207845 0.0206629 0.0205126 0.0203338 0.0201264 0.0198905 0.0196259 0.0193328 0.0190111 0.0186586 0.0182728 0.0178538 0.0174017 0.0169163 0.0163977 0.015846 0.015261 0.014651 0.0140244 0.013381 0.0127208 0.012044 0.0113504 0.01064 0.00991299 0.00918539 0.00847343 0.0077771 0.00709641 0.00643135 0.00578193 0.00514815 0.00453 0.0039415 0.00339666 0.00289546 0.00243793 0.00202405 0.00165383 0.00132726 0.00104434 0.000799575 0.000587443 0.000407946 0.000261086 0.000146861 6.52714e-05 1.63179e-05 0 0 2.23129e-05 8.92518e-05 0.000200817 0.000357007 0.000557824 0.000803266 0.00109333 0.00142803 0.00181269 0.00225266 0.00274794 0.00329853 0.00390442 0.00456563 0.00528214 0.00605396 0.00686158 0.00768549 0.0085257 0.00938219 0.010255 0.011144 0.0120494 0.0129711 0.0138881 0.0147796 0.0156455 0.016486 0.0173008 0.0180902 0.018854 0.0195922 0.0202948 0.0209515 0.0215622 0.0221271 0.0226461 0.0231192 0.0235464 0.0239277 0.0242661 0.0245648 0.0248237 0.0250429 0.0252222 0.0253618 0.0254617 0.0255217 0.0255534 0.025568 0.0255656 0.0255463 0.0255099 0.0254565 0.0253861 0.0252987 0.0252043 0.0251129 0.0250246 0.0249392 0.0248569 0.0247776 0.0247012 0.0246279 0.0245585 0.0244938 0.0244337 0.0243784 0.0243277 0.0242818 0.0242405 0.0242039 0.0241638 0.0241116 0.0240475 0.0239715 0.0238835 0.0237836 0.0236717 0.0235479 0.0234022 0.0232247 0.0230155 0.0227745 0.0225017 0.0221971 0.0218608 0.0214927 0.0210903 0.0206513 0.0201754 0.0196629 0.0191136 0.0185276 0.0179049 0.0172454 0.0165583 0.0158526 0.0151283 0.0143854 0.0136239 0.0128439 0.0120453 0.0112281 0.0104102 0.0096093 0.00882553 0.00805885 0.00730925 0.00657675 0.00586133 0.005163 0.00449754 0.00388075 0.00331262 0.00279316 0.00232235 0.00190021 0.00152674 0.00120193 0.000920224 0.000676083 0.000469502 0.000300481 0.000169021 7.51203e-05 1.87801e-05 0 0 2.54202e-05 0.000101681 0.000228782 0.000406723 0.000635505 0.000915127 0.00124559 0.00162689 0.00206423 0.00256278 0.00312255 0.00374354 0.00442574 0.00516917 0.00597381 0.00683968 0.00774494 0.00866778 0.0096082 0.0105662 0.0115418 0.0125349 0.0135456 0.0145739 0.0155969 0.0165916 0.0175581 0.0184964 0.0194064 0.0202881 0.0211416 0.0219669 0.0227527 0.0234881 0.0241729 0.0248072 0.025391 0.0259243 0.026407 0.0268392 0.0272242 0.0275652 0.0278622 0.0281153 0.0283243 0.0284894 0.0286105 0.0286877 0.0287331 0.0287593 0.0287662 0.0287538 0.028722 0.028671 0.0286006 0.028511 0.0284129 0.0283172 0.028224 0.0281332 0.0280449 0.027959 0.0278755 0.0277944 0.0277167 0.0276434 0.0275743 0.0275095 0.0274491 0.0273929 0.0273411 0.0272935 0.0272413 0.0271754 0.0270958 0.0270025 0.0268956 0.026775 0.0266406 0.0264926 0.0263202 0.0261127 0.0258701 0.0255924 0.0252796 0.0249317 0.0245486 0.0241305 0.0236746 0.0231784 0.0226418 0.0220648 0.0214475 0.0207898 0.0200918 0.0193533 0.0185845 0.0177951 0.0169852 0.0161548 0.0153039 0.0144325 0.0135406 0.0126282 0.0117148 0.01082 0.00994369 0.00908596 0.00824678 0.00742616 0.00662409 0.00584057 0.00509329 0.00439991 0.00376045 0.0031749 0.00264326 0.00216553 0.00174172 0.00137181 0.00105029 0.000771642 0.000535862 0.000342952 0.00019291 8.5738e-05 2.14345e-05 0 0 2.87472e-05 0.000114989 0.000258725 0.000459955 0.00071868 0.0010349 0.00140861 0.00183982 0.00233347 0.00289452 0.00352295 0.00421878 0.004982 0.00581261 0.00671062 0.00767601 0.00868454 0.00971192 0.0107582 0.0118233 0.0129072 0.01401 0.0151317 0.0162722 0.0174067 0.01851 0.0195824 0.0206236 0.0216338 0.0226129 0.0235609 0.0244779 0.0253517 0.0261702 0.0269334 0.0276413 0.0282939 0.0288912 0.0294332 0.0299199 0.0303548 0.0307414 0.0310795 0.0313694 0.0316109 0.031804 0.0319488 0.0320453 0.0321067 0.0321463 0.0321642 0.0321603 0.0321346 0.0320872 0.032018 0.031927 0.031826 0.0317267 0.0316291 0.0315332 0.031439 0.0313465 0.0312557 0.0311666 0.0310802 0.0309976 0.0309188 0.0308437 0.0307725 0.0307049 0.0306412 0.0305812 0.0305154 0.0304339 0.030337 0.0302244 0.0300963 0.0299527 0.0297935 0.0296188 0.029417 0.0291766 0.0288977 0.0285802 0.0282241 0.0278295 0.0273963 0.0269246 0.0264115 0.0258543 0.025253 0.0246076 0.023918 0.0231844 0.0224066 0.0215848 0.0207296 0.019852 0.0189518 0.0180291 0.0170839 0.0161162 0.015126 0.0141133 0.0130994 0.0121054 0.0111316 0.0101777 0.00924392 0.00833015 0.00743642 0.00656272 0.00572873 0.00495415 0.00423896 0.00358317 0.00298678 0.00244978 0.00197219 0.00155399 0.00118977 0.00087412 0.000607028 0.000388498 0.00021853 9.71244e-05 2.42811e-05 0 0 3.22939e-05 0.000129176 0.000290645 0.000516703 0.00080734