<?xml version="1.0"?> 
<VTKFile type="StructuredGrid" version="0.1"> 
<StructuredGrid WholeExtent="0 128 0 128 0 0"> 
<Piece Extent="0 128 0 128 0 0"> 
<PointData>
<DataArray type="Float32" Name="u" format="ascii" NumberOfComponents="1"> 
0 0 0 0 0 0 0 0 0 0 0 0 0 0 0 0 0 0 0 0 0 0 0 0 0 0 0 0 0 0 0 0 0 0 0 0 0 0 0 0 0 0 0 0 0 0 0 0 0 0 0 0 0 0 0 0 0 0 0 0 0 0 0 0 0 0 0 0 0 0 0 0 0 0 0 0 0 0 0 0 0 0 0 0 0 0 0 0 0 0 0 0 0 0 0 0 0 0 0 0 0 0 0 0 0 0 0 0 0 0 0 0 0 0 0 0 0 0 0 0 0 0 0 0 0 0 0 0 0 0 5.58703e-08 2.23481e-07 5.02833e-07 8.93925e-07 1.39676e-06 2.01133e-06 2.73765e-06 3.5757e-06 4.55377e-06 5.70013e-06 7.01478e-06 8.49772e-06 1.01489e-05 1.19685e-05 1.39563e-05 1.61124e-05 1.83795e-05 2.07004e-05 2.30751e-05 2.55036e-05 2.79859e-05 3.05219e-05 3.31118e-05 3.57554e-05 3.83931e-05 4.09653e-05 4.34719e-05 4.59129e-05 4.82883e-05 5.05982e-05 5.28425e-05 5.50212e-05 5.71088e-05 5.90798e-05 6.09342e-05 6.2672e-05 6.42932e-05 6.57978e-05 6.71858e-05 6.84571e-05 6.9618e-05 7.06743e-05 7.16262e-05 7.24736e-05 7.32165e-05 7.38549e-05 7.43889e-05 7.48183e-05 7.51655e-05 7.54528e-05 7.56801e-05 7.58475e-05 7.59549e-05 7.60023e-05 7.59898e-05 7.59173e-05 7.58042e-05 7.56698e-05 7.55141e-05 7.5337e-05 7.51386e-05 7.49189e-05 7.46779e-05 7.44156e-05 7.41352e-05 7.38399e-05 7.35299e-05 7.32049e-05 7.28652e-05 7.25106e-05 7.21411e-05 7.17569e-05 7.13448e-05 7.08922e-05 7.03989e-05 6.9865e-05 6.92904e-05 6.86752e-05 6.80193e-05 6.73229e-05 6.6569e-05 6.57411e-05 6.48391e-05 6.3863e-05 6.28128e-05 6.16886e-05 6.04902e-05 5.92178e-05 5.78676e-05 5.64359e-05 5.49227e-05 5.3328e-05 5.16519e-05 4.98942e-05 4.80551e-05 4.61345e-05 4.41538e-05 4.21347e-05 4.00771e-05 3.7981e-05 3.58464e-05 3.36732e-05 3.14616e-05 2.92115e-05 2.69702e-05 2.47849e-05 2.26557e-05 2.05825e-05 1.85654e-05 1.66043e-05 1.46993e-05 1.28504e-05 1.10998e-05 9.48978e-06 8.02045e-06 6.69175e-06 5.50369e-06 4.45626e-06 3.54948e-06 2.78333e-06 2.13098e-06 1.56562e-06 1.08724e-06 6.95831e-07 3.91405e-07 1.73958e-07 4.34895e-08 0 0 2.23481e-07 8.93925e-07 2.01133e-06 3.5757e-06 5.58703e-06 8.04533e-06 1.09506e-05 1.43028e-05 1.82151e-05 2.28005e-05 2.80591e-05 3.39909e-05 4.05958e-05 4.78738e-05 5.58251e-05 6.44495e-05 7.3518e-05 8.28017e-05 9.23005e-05 0.000102014 0.000111944 0.000122088 0.000132447 0.000143022 0.000153573 0.000163861 0.000173888 0.000183652 0.000193153 0.000202393 0.00021137 0.000220085 0.000228435 0.000236319 0.000243737 0.000250688 0.000257173 0.000263191 0.000268743 0.000273829 0.000278472 0.000282697 0.000286505 0.000289894 0.000292866 0.00029542 0.000297555 0.000299273 0.000300662 0.000301811 0.00030272 0.00030339 0.000303819 0.000304009 0.000303959 0.000303669 0.000303217 0.000302679 0.000302056 0.000301348 0.000300554 0.000299676 0.000298712 0.000297662 0.000296541 0.00029536 0.000294119 0.00029282 0.000291461 0.000290042 0.000288565 0.000287027 0.000285379 0.000283569 0.000281596 0.00027946 0.000277162 0.000274701 0.000272077 0.000269291 0.000266276 0.000262964 0.000259356 0.000255452 0.000251251 0.000246754 0.000241961 0.000236871 0.00023147 0.000225744 0.000219691 0.000213312 0.000206607 0.000199577 0.00019222 0.000184538 0.000176615 0.000168539 0.000160308 0.000151924 0.000143385 0.000134693 0.000125847 0.000116846 0.000107881 9.91396e-05 9.06227e-05 8.233e-05 7.42616e-05 6.64173e-05 5.87973e-05 5.14014e-05 4.4399e-05 3.79591e-05 3.20818e-05 2.6767e-05 2.20147e-05 1.7825e-05 1.41979e-05 1.11333e-05 8.52393e-06 6.26248e-06 4.34895e-06 2.78333e-06 1.56562e-06 6.95831e-07 1.73958e-07 0 0 5.02833e-07 2.01133e-06 4.5255e-06 8.04533e-06 1.25708e-05 1.8102e-05 2.46388e-05 3.21813e-05 4.09839e-05 5.13012e-05 6.3133e-05 7.64795e-05 9.13405e-05 0.000107716 0.000125606 0.000145011 0.000165415 0.000186304 0.000207676 0.000229532 0.000251873 0.000274697 0.000298006 0.000321799 0.000345538 0.000368688 0.000391247 0.000413216 0.000434595 0.000455384 0.000475582 0.00049519 0.000513979 0.000531718 0.000548408 0.000564048 0.000578639 0.00059218 0.000604672 0.000616114 0.000626562 0.000636069 0.000644636 0.000652262 0.000658949 0.000664694 0.0006695 0.000673365 0.00067649 0.000679075 0.000681121 0.000682627 0.000683594 0.000684021 0.000683908 0.000683256 0.000682238 0.000681028 0.000679627 0.000678033 0.000676248 0.00067427 0.000672101 0.00066974 0.000667217 0.000664559 0.000661769 0.000658844 0.000655787 0.000652595 0.00064927 0.000645812 0.000642104 0.00063803 0.00063359 0.000628785 0.000623614 0.000618077 0.000612174 0.000605906 0.000599121 0.00059167 0.000583552 0.000574767 0.000565315 0.000555197 0.000544412 0.00053296 0.000520808 0.000507923 0.000494304 0.000479952 0.000464867 0.000449048 0.000432496 0.00041521 0.000397385 0.000379212 0.000360694 0.000341829 0.000322617 0.000303059 0.000283155 0.000262904 0.000242732 0.000223064 0.000203901 0.000185243 0.000167089 0.000149439 0.000132294 0.000115653 9.98978e-05 8.5408e-05 7.2184e-05 6.02257e-05 4.95332e-05 4.01064e-05 3.19453e-05 2.50499e-05 1.91789e-05 1.40906e-05 9.78513e-06 6.26248e-06 3.52265e-06 1.56562e-06 3.91405e-07 0 0 8.93925e-07 3.5757e-06 8.04533e-06 1.43028e-05 2.23481e-05 3.21813e-05 4.38023e-05 5.72112e-05 7.28604e-05 9.12021e-05 0.000112236 0.000135963 0.000162383 0.000191495 0.0002233 0.000257798 0.000294072 0.000331207 0.000369202 0.000408058 0.000447774 0.000488351 0.000529789 0.000572087 0.00061429 0.000655445 0.00069555 0.000734606 0.000772613 0.000809571 0.000845479 0.000880339 0.00091374 0.000945276 0.000974947 0.00100275 0.00102869 0.00105276 0.00107497 0.00109531 0.00111389 0.00113079 0.00114602 0.00115958 0.00117146 0.00118168 0.00119022 0.00119709 0.00120265 0.00120724 0.00121088 0.00121356 0.00121528 0.00121604 0.00121584 0.00121468 0.00121287 0.00121072 0.00120822 0.00120539 0.00120222 0.0011987 0.00119485 0.00119065 0.00118616 0.00118144 0.00117648 0.00117128 0.00116584 0.00116017 0.00115426 0.00114811 0.00114152 0.00113427 0.00112638 0.00111784 0.00110865 0.0010988 0.00108831 0.00107717 0.0010651 0.00105186 0.00103743 0.00102181 0.00100501 0.000987017 0.000967844 0.000947485 0.000925881 0.000902974 0.000878763 0.000853249 0.00082643 0.000798308 0.000768881 0.000738151 0.000706461 0.000674155 0.000641234 0.000607696 0.000573542 0.000538772 0.000503386 0.000467384 0.000431523 0.000396558 0.000362491 0.00032932 0.000297046 0.000265669 0.000235189 0.000205606 0.000177596 0.000151836 0.000128327 0.000107068 8.8059e-05 7.13002e-05 5.67916e-05 4.45332e-05 3.40957e-05 2.50499e-05 1.73958e-05 1.11333e-05 6.26248e-06 2.78333e-06 6.95831e-07 0 0 1.39676e-06 5.58703e-06 1.25708e-05 2.23481e-05 3.4919e-05 5.02833e-05 6.84412e-05 8.93925e-05 0.000113844 0.000142503 0.00017537 0.000212443 0.000253724 0.000299212 0.000348907 0.000402809 0.000459487 0.00051751 0.000576878 0.00063759 0.000699647 0.000763048 0.000827795 0.000893885 0.000959829 0.00102413 0.0010868 0.00114782 0.00120721 0.00126495 0.00132106 0.00137553 0.00142772 0.00147699 0.00152335 0.0015668 0.00160733 0.00164494 0.00167964 0.00171143 0.00174045 0.00176686 0.00179066 0.00181184 0.00183041 0.00184637 0.00185972 0.00187046 0.00187914 0.00188632 0.001892 0.00189619 0.00189887 0.00190006 0.00189975 0.00189793 0.00189511 0.00189175 0.00188785 0.00188342 0.00187847 0.00187297 0.00186695 0.00186039 0.00185338 0.001846 0.00183825 0.00183012 0.00182163 0.00181276 0.00180353 0.00179392 0.00178362 0.0017723 0.00175997 0.00174662 0.00173226 0.00171688 0.00170048 0.00168307 0.00166423 0.00164353 0.00162098 0.00159657 0.00157032 0.00154221 0.00151226 0.00148045 0.00144669 0.0014109 0.00137307 0.0013332 0.0012913 0.00124736 0.00120138 0.00115336 0.00110385 0.00105337 0.00100193 0.000949524 0.000896159 0.000841831 0.000786541 0.000730288 0.000674255 0.000619623 0.000566392 0.000514563 0.000464135 0.000415108 0.000367483 0.000321259 0.000277494 0.000237245 0.000200511 0.000167294 0.000137592 0.000111407 8.87369e-05 6.95831e-05 5.32746e-05 3.91405e-05 2.71809e-05 1.73958e-05 9.78513e-06 4.34895e-06 1.08724e-06 0 0 2.01133e-06 8.04533e-06 1.8102e-05 3.21813e-05 5.02833e-05 7.2408e-05 9.85553e-05 0.000128725 0.000163936 0.000205205 0.000252532 0.000305918 0.000365362 0.000430865 0.000502426 0.000580045 0.000661662 0.000745215 0.000830704 0.00091813 0.00100749 0.00109879 0.00119202 0.00128719 0.00138215 0.00147475 0.00156499 0.00165286 0.00173838 0.00182153 0.00190233 0.00198076 0.00205592 0.00212687 0.00219363 0.00225619 0.00231455 0.00236872 0.00241869 0.00246446 0.00250625 0.00254428 0.00257854 0.00260905 0.00263579 0.00265878 0.002678 0.00269346 0.00270596 0.0027163 0.00272448 0.00273051 0.00273438 0.00273608 0.00273563 0.00273302 0.00272895 0.00272411 0.00271851 0.00271213 0.00270499 0.00269708 0.00268841 0.00267896 0.00266887 0.00265824 0.00264707 0.00263538 0.00262315 0.00261038 0.00259708 0.00258325 0.00256841 0.00255212 0.00253436 0.00251514 0.00249445 0.00247231 0.0024487 0.00242362 0.00239648 0.00236668 0.00233421 0.00229907 0.00226126 0.00222079 0.00217765 0.00213184 0.00208323 0.00203169 0.00197722 0.00191981 0.00185947 0.00179619 0.00172998 0.00166084 0.00158954 0.00151685 0.00144278 0.00136732 0.00129047 0.00121224 0.00113262 0.00105161 0.000970927 0.000892257 0.000815604 0.00074097 0.000668354 0.000597756 0.000529175 0.000462613 0.000399591 0.000341632 0.000288736 0.000240903 0.000198133 0.000160425 0.000127781 0.0001002 7.67154e-05 5.63623e-05 3.91405e-05 2.50499e-05 1.40906e-05 6.26248e-06 1.56562e-06 0 0 2.73765e-06 1.09506e-05 2.46388e-05 4.38023e-05 6.84412e-05 9.85553e-05 0.000134145 0.000175209 0.000223135 0.000279306 0.000343724 0.000416388 0.000497298 0.000586455 0.000683857 0.000789506 0.000900595 0.00101432 0.00113068 0.00124968 0.00137131 0.00149558 0.00162248 0.00175202 0.00188126 0.0020073 0.00213012 0.00224973 0.00236613 0.00247931 0.00258928 0.00269604 0.00279833 0.00289491 0.00298577 0.00307093 0.00315037 0.00322409 0.0032921 0.0033544 0.00341128 0.00346304 0.00350968 0.00355121 0.00358761 0.00361889 0.00364505 0.0036661 0.00368311 0.00369719 0.00370833 0.00371653 0.00372179 0.00372411 0.0037235 0.00371995 0.00371441 0.00370782 0.00370019 0.00369151 0.00368179 0.00367103 0.00365922 0.00364636 0.00363262 0.00361816 0.00360296 0.00358704 0.00357039 0.00355302 0.00353492 0.00351609 0.0034959 0.00347372 0.00344955 0.00342338 0.00339523 0.00336508 0.00333295 0.00329882 0.00326188 0.00322131 0.00317712 0.00312929 0.00307783 0.00302274 0.00296402 0.00290167 0.00283551 0.00276536 0.00269121 0.00261307 0.00253094 0.00244482 0.0023547 0.00226059 0.00216354 0.0020646 0.00196378 0.00186107 0.00175647 0.00164999 0.00154162 0.00143136 0.00132154 0.00121446 0.00111013 0.00100854 0.000909704 0.000813612 0.000720267 0.000629668 0.000543888 0.000464999 0.000393002 0.000327896 0.000269681 0.000218357 0.000173924 0.000136383 0.000104418 7.67154e-05 5.32746e-05 3.40957e-05 1.91789e-05 8.52393e-06 2.13098e-06 0 0 3.5757e-06 1.43028e-05 3.21813e-05 5.72112e-05 8.93925e-05 0.000128725 0.000175209 0.000228845 0.000291441 0.000364808 0.000448946 0.000543854 0.000649533 0.000765982 0.000893201 0.00103119 0.00117629 0.00132483 0.00147681 0.00163223 0.0017911 0.0019534 0.00211915 0.00228835 0.00245716 0.00262178 0.0027822 0.00293843 0.00309045 0.00323828 0.00338192 0.00352135 0.00365496 0.00378111 0.00389979 0.00401101 0.00411476 0.00421106 0.00429989 0.00438126 0.00445555 0.00452316 0.00458408 0.00463831 0.00468586 0.00472672 0.00476089 0.00478837 0.00481059 0.00482898 0.00484353 0.00485424 0.00486111 0.00486415 0.00486335 0.00485871 0.00485147 0.00484287 0.0048329 0.00482157 0.00480887 0.00479481 0.00477939 0.0047626 0.00474465 0.00472576 0.00470591 0.00468512 0.00466337 0.00464068 0.00461703 0.00459244 0.00456607 0.0045371 0.00450553 0.00447136 0.00443459 0.00439521 0.00435324 0.00430866 0.00426042 0.00420743 0.0041497 0.00408723 0.00402002 0.00394807 0.00387137 0.00378994 0.00370353 0.0036119 0.00351505 0.00341299 0.00330572 0.00319323 0.00307553 0.00295261 0.00282585 0.00269662 0.00256493 0.00243078 0.00229417 0.00215509 0.00201354 0.00186954 0.00172609 0.00158623 0.00144996 0.00131728 0.00118818 0.00106268 0.000940756 0.000822423 0.000710384 0.000607346 0.000513308 0.000428272 0.000352236 0.000285201 0.000227166 0.000178133 0.000136383 0.0001002 6.95831e-05 4.45332e-05 2.50499e-05 1.11333e-05 2.78333e-06 0 0 4.57615e-06 1.83046e-05 4.11853e-05 7.32184e-05 0.000114404 0.000164741 0.000224231 0.000292874 0.0003729 0.000466542 0.000573799 0.000694673 0.000829161 0.000977266 0.00113899 0.00131432 0.00149863 0.00168727 0.00188024 0.00207754 0.00227917 0.00248513 0.00269542 0.00291003 0.00312416 0.00333299 0.0035365 0.00373471 0.00392761 0.0041152 0.00429748 0.00447445 0.00464406 0.00480422 0.00495495 0.00509624 0.0052281 0.00535052 0.0054635 0.00556704 0.00566164 0.00574776 0.00582541 0.00589459 0.0059553 0.00600754 0.00605131 0.00608661 0.00611524 0.00613898 0.00615784 0.00617181 0.0061809 0.0061851 0.00618443 0.00617886 0.00616998 0.00615932 0.0061469 0.00613271 0.00611675 0.00609902 0.00607953 0.00605827 0.00603551 0.0060115 0.00598625 0.00595976 0.00593203 0.00590305 0.00587284 0.00584138 0.00580764 0.00577059 0.00573022 0.00568654 0.00563954 0.00558922 0.00553558 0.00547863 0.00541702 0.0053494 0.00527578 0.00519615 0.00511052 0.00501888 0.00492123 0.00481759 0.00470764 0.0045911 0.00446797 0.00433824 0.00420193 0.00405902 0.00390953 0.00375344 0.00359249 0.00342844 0.00326127 0.00309099 0.00291759 0.00274108 0.00256146 0.00237872 0.00219669 0.00201917 0.00184618 0.00167771 0.00151376 0.00135433 0.00119942 0.00104903 0.000906591 0.000775537 0.000655865 0.000547577 0.000450672 0.00036515 0.000291011 0.000228256 0.000174758 0.000128394 8.91624e-05 5.7064e-05 3.20985e-05 1.4266e-05 3.5665e-06 0 0 5.78964e-06 2.31586e-05 5.21067e-05 9.26342e-05 0.000144741 0.000208427 0.000283692 0.000370537 0.000471554 0.000589337 0.000723886 0.000875201 0.00104328 0.00122813 0.00142974 0.00164812 0.00187752 0.00211219 0.00235213 0.00259735 0.00284783 0.00310359 0.00336462 0.00363093 0.00389659 0.00415572 0.0044083 0.00465434 0.00489384 0.0051268 0.00535321 0.00557308 0.00578386 0.00598302 0.00617055 0.00634645 0.00651072 0.00666337 0.00680439 0.00693377 0.00705211 0.00715997 0.00725736 0.00734427 0.0074207 0.00748666 0.00754215 0.00758716 0.00762387 0.00765449 0.007679 0.0076974 0.0077097 0.0077159 0.00771599 0.00770997 0.00769976 0.00768725 0.00767244 0.00765534 0.00763595 0.00761426 0.00759027 0.00756399 0.00753574 0.00750585 0.00747431 0.00744113 0.00740631 0.00736985 0.00733174 0.00729199 0.00724933 0.00720252 0.00715154 0.0070964 0.00703709 0.00697363 0.00690599 0.0068342 0.00675661 0.0066716 0.00657916 0.00647929 0.006372 0.00625728 0.00613513 0.00600555 0.00586821 0.00572275 0.00556918 0.0054075 0.0052377 0.00505979 0.00487376 0.00467962 0.00447951 0.00427557 0.0040678 0.0038562 0.00364077 0.00342151 0.00319842 0.0029715 0.00274543 0.00252488 0.00230986 0.00210036 0.00189639 0.00169795 0.00150503 0.00131764 0.00114002 0.000976436 0.000826882 0.000691357 0.000569862 0.000462398 0.000368963 0.000289559 0.000221693 0.000162877 0.000113109 7.23896e-05 4.07192e-05 1.80974e-05 4.52435e-06 0 0 7.21617e-06 2.88647e-05 6.49455e-05 0.000115459 0.000180404 0.000259782 0.000353592 0.000461835 0.000587404 0.000733195 0.000899207 0.00108544 0.00129189 0.00151857 0.00176547 0.00203259 0.00231295 0.00259958 0.00289248 0.00319165 0.00349709 0.0038088 0.00412677 0.00445102 0.00477445 0.00508998 0.00539761 0.00569733 0.00598916 0.00627308 0.00654911 0.00681723 0.00707438 0.0073175 0.00754658 0.00776163 0.00796264 0.00814961 0.00832255 0.00848145 0.00862698 0.0087598 0.00887993 0.00898735 0.00908207 0.00916408 0.00923339 0.00929 0.0093365 0.00937551 0.00940701 0.00943102 0.00944752 0.00945653 0.00945803 0.00945203 0.00944082 0.00942665 0.00940953 0.00938947 0.00936646 0.00934051 0.00931161 0.00927976 0.00924535 0.0092088 0.00917009 0.00912923 0.00908622 0.00904105 0.00899373 0.00894426 0.00889114 0.00883288 0.00876948 0.00870094 0.00862726 0.00854844 0.00846448 0.00837538 0.0082792 0.00817403 0.00805984 0.00793665 0.00780446 0.00766326 0.00751306 0.00735385 0.00718524 0.00700686 0.0068187 0.00662075 0.00641303 0.00619552 0.00596824 0.00573117 0.00548691 0.00523803 0.00498454 0.00472644 0.00446372 0.00419638 0.00392444 0.00364788 0.00337231 0.00310335 0.00284099 0.00258523 0.00233608 0.00209353 0.00185758 0.00162824 0.00141067 0.00121004 0.00102636 0.000859611 0.000709807 0.000576944 0.000461022 0.000362041 0.000277188 0.000203648 0.000141422 9.05102e-05 5.0912e-05 2.26276e-05 5.65689e-06 0 0 8.85575e-06 3.5423e-05 7.97017e-05 0.000141692 0.000221394 0.000318807 0.000433932 0.000566768 0.000720451 0.000898115 0.00109976 0.00132539 0.001575 0.00184859 0.00214616 0.00246772 0.00280492 0.00314945 0.00350129 0.00386046 0.00422694 0.00460075 0.00498187 0.00537032 0.00575773 0.00613576 0.00650441 0.00686367 0.00721355 0.00755405 0.00788517 0.0082069 0.00851562 0.00880766 0.00908305 0.00934178 0.00958384 0.00980925 0.010018 0.0102101 0.0103862 0.0105473 0.0106931 0.0108238 0.0109394 0.0110398 0.011125 0.0111951 0.0112531 0.011302 0.0113419 0.0113727 0.0113944 0.011407 0.0114106 0.0114051 0.0113931 0.0113775 0.0113582 0.0113351 0.0113083 0.0112778 0.0112435 0.0112056 0.0111644 0.0111204 0.0110736 0.0110241 0.0109718 0.0109167 0.0108588 0.0107982 0.0107331 0.0106617 0.010584 0.0105002 0.01041 0.0103137 0.010211 0.0101022 0.00998479 0.00985668 0.00971783 0.00956824 0.00940791 0.00923683 0.00905502 0.00886246 0.00865874 0.00844342 0.00821651 0.00797801 0.00772792 0.00746623 0.00719295 0.00690808 0.00661468 0.00631581 0.00601148 0.00570168 0.00538642 0.0050657 0.00473951 0.00440785 0.00407734 0.00375458 0.00343957 0.00313232 0.00283282 0.00254108 0.00225709 0.00198085 0.00171855 0.00147636 0.00125429 0.00105234 0.000870506 0.000708788 0.000567187 0.000445703 0.000341241 0.000250708 0.000174103 0.000111426 6.2677e-05 2.78564e-05 6.96411e-06 0 0 1.07084e-05 4.28335e-05 9.63753e-05 0.000171334 0.000267709 0.000385501 0.00052471 0.000685335 0.000870693 0.0010841 0.00132555 0.00159505 0.00189259 0.00221819 0.00257183 0.00295352 0.00335344 0.00376179 0.00417856 0.00460376 0.00503739 0.00547944 0.00592992 0.00638882 0.00684644 0.00729307 0.00772871 0.00815337 0.00856703 0.00896971 0.0093614 0.0097421 0.0101076 0.0104535 0.01078 0.0110869 0.0113743 0.0116423 0.0118907 0.0121196 0.0123299 0.0125223 0.0126969 0.0128537 0.0129927 0.0131138 0.0132171 0.0133026 0.0133737 0.0134341 0.0134836 0.0135223 0.0135502 0.0135673 0.0135736 0.013569 0.0135568 0.0135399 0.0135184 0.0134922 0.0134615 0.0134261 0.0133861 0.0133414 0.0132927 0.0132405 0.0131848 0.0131256 0.0130629 0.0129967 0.012927 0.0128538 0.0127751 0.0126889 0.0125952 0.0124941 0.0123854 0.0122693 0.0121456 0.0120145 0.0118734 0.0117196 0.0115531 0.011374 0.0111823 0.010978 0.010761 0.0105314 0.0102887 0.0100324 0.00976263 0.00947927 0.00918236 0.00887191 0.0085479 0.00821034 0.00786282 0.00750891 0.00714862 0.00678195 0.00640889 0.00602945 0.00564363 0.00525142 0.00486051 0.00447857 0.00410561 0.00374163 0.00338662 0.00304059 0.00270353 0.00237545 0.00206364 0.00177539 0.00151069 0.00126954 0.00105196 0.000857931 0.000687459 0.000540545 0.000413854 0.000304056 0.00021115 0.000135136 7.60141e-05 3.3784e-05 8.44601e-06 0 0 1.2774e-05 5.10961e-05 0.000114966 0.000204384 0.000319351 0.000459865 0.000625927 0.000817538 0.00103813 0.00129114 0.00157657 0.00189442 0.00224468 0.00262736 0.00304246 0.00348998 0.0039585 0.00443661 0.0049243 0.00542157 0.00592843 0.00644488 0.00697091 0.00750652 0.00804057 0.0085619 0.00907052 0.00956641 0.0100496 0.0105201 0.0109778 0.0114228 0.0118502 0.012255 0.0126373 0.012997 0.0133341 0.0136487 0.0139407 0.0142101 0.0144579 0.014685 0.0148914 0.015077 0.0152419 0.0153861 0.0155096 0.0156123 0.0156983 0.0157716 0.0158322 0.01588 0.0159151 0.0159374 0.0159471 0.0159439 0.0159316 0.0159137 0.0158901 0.0158608 0.0158259 0.0157854 0.0157392 0.0156873 0.0156305 0.0155693 0.0155038 0.0154339 0.0153597 0.0152812 0.0151983 0.0151111 0.0150172 0.0149146 0.014803 0.0146826 0.0145534 0.0144153 0.0142683 0.0141125 0.0139449 0.0137627 0.0135657 0.0133541 0.0131277 0.0128867 0.012631 0.0123607 0.0120751 0.0117739 0.011457 0.0111245 0.0107764 0.0104126 0.0100331 0.00963797 0.00923133 0.00881733 0.00839596 0.00796723 0.00753112 0.00708764 0.0066368 0.00617858 0.00572182 0.00527533 0.00483911 0.00441316 0.00399748 0.00359207 0.00319693 0.00281206 0.00244596 0.00210712 0.00179554 0.00151122 0.00125417 0.00102437 0.000821838 0.000646566 0.000495027 0.000363693 0.000252565 0.000161641 9.09233e-05 4.04104e-05 1.01026e-05 0 0 1.50527e-05 6.02109e-05 0.000135475 0.000240844 0.000376318 0.000541898 0.000737584 0.000963375 0.00122277 0.00151925 0.00185283 0.0022235 0.00263126 0.00307612 0.00355807 0.00407711 0.00462011 0.0051739 0.00573849 0.00631388 0.00690006 0.00749705 0.00810484 0.00872343 0.00934013 0.00994226 0.0105298 0.0111028 0.0116612 0.0122051 0.0127344 0.0132491 0.0137436 0.0142122 0.0146551 0.015072 0.0154632 0.0158285 0.016168 0.0164816 0.0167704 0.0170353 0.0172764 0.0174937 0.0176871 0.0178567 0.0180024 0.0181244 0.0182269 0.0183147 0.0183876 0.0184457 0.018489 0.0185174 0.018531 0.0185298 0.0185178 0.018499 0.0184734 0.0184409 0.0184017 0.0183557 0.0183029 0.0182433 0.0181776 0.0181067 0.0180304 0.0179489 0.0178621 0.01777 0.0176727 0.01757 0.0174595 0.0173387 0.0172075 0.0170659 0.016914 0.0167517 0.0165791 0.0163961 0.0161995 0.015986 0.0157556 0.0155083 0.0152441 0.0149631 0.0146651 0.0143502 0.014018 0.0136678 0.0132998 0.0129138 0.0125099 0.0120882 0.0116485 0.0111909 0.0107202 0.0102411 0.00975351 0.00925752 0.00875311 0.00824027 0.00771902 0.00718935 0.00666128 0.00614485 0.00564006 0.00514691 0.00466539 0.00419551 0.00373727 0.00329067 0.0028655 0.00247156 0.00210885 0.00177738 0.00147713 0.00120811 0.000970324 0.000763767 0.000584759 0.000429619 0.000298346 0.000190942 0.000107405 4.77354e-05 1.19339e-05 0 0 1.75445e-05 7.01779e-05 0.0001579 0.000280712 0.000438612 0.000631601 0.000859679 0.00112285 0.0014246 0.00176842 0.00215432 0.00258229 0.00305233 0.00356445 0.00411865 0.00471491 0.00533825 0.00597366 0.00662114 0.00728068 0.00795229 0.00863597 0.00933172 0.0100395 0.0107451 0.0114341 0.0121066 0.0127626 0.013402 0.0140248 0.0146311 0.0152208 0.0157877 0.0163251 0.0168333 0.0173121 0.0177616 0.0181817 0.0185725 0.018934 0.0192672 0.0195732 0.0198521 0.0201038 0.0203283 0.0205256 0.0206957 0.0208387 0.0209595 0.0210632 0.0211499 0.0212194 0.0212719 0.0213072 0.0213255 0.0213267 0.0213152 0.0212958 0.0212682 0.0212326 0.0211888 0.0211371 0.0210772 0.0210093 0.0209341 0.0208527 0.0207648 0.0206707 0.0205702 0.0204633 0.0203501 0.0202306 0.0201019 0.0199612 0.0198085 0.0196438 0.0194672 0.0192785 0.0190779 0.0188653 0.0186371 0.0183896 0.0181228 0.0178368 0.0175315 0.017207 0.0168632 0.0165001 0.0161173 0.0157142 0.0152908 0.0148471 0.0143831 0.0138988 0.0133942 0.0128693 0.0123295 0.0117801 0.0112213 0.0106528 0.0100749 0.00948735 0.0088903 0.00828371 0.00767888 0.00708714 0.00650847 0.00594287 0.00539036 0.00485092 0.00432456 0.00381128 0.00332226 0.00286871 0.00245063 0.002068 0.00172084 0.00140915 0.00113292 0.000892147 0.00068305 0.000501833 0.000348495 0.000223037 0.000125458 5.57592e-05 1.39398e-05 0 0 2.0224e-05 8.08958e-05 0.000182016 0.000323583 0.000505599 0.000728063 0.000990974 0.00129433 0.00164157 0.00203611 0.00247795 0.00296709 0.00350354 0.00408729 0.00471835 0.0053967 0.00610539 0.00682745 0.00756286 0.00831164 0.00907378 0.00984929 0.0106382 0.0114404 0.01224 0.013021 0.0137833 0.0145271 0.0152522 0.0159587 0.0166465 0.0173158 0.0179592 0.0185697 0.0191471 0.0196916 0.0202031 0.0206816 0.0211271 0.0215397 0.0219204 0.0222704 0.0225897 0.0228783 0.0231362 0.0233634 0.02356 0.0237258 0.0238665 0.0239878 0.0240895 0.0241717 0.0242344 0.0242776 0.0243012 0.0243054 0.024295 0.0242752 0.0242459 0.0242071 0.0241589 0.0241012 0.024034 0.0239574 0.0238722 0.0237796 0.0236794 0.0235717 0.0234565 0.0233338 0.0232036 0.0230658 0.0229174 0.0227553 0.0225795 0.0223899 0.0221866 0.0219696 0.0217388 0.0214943 0.021232 0.020948 0.0206422 0.0203147 0.0199655 0.0195945 0.0192017 0.0187872 0.0183505 0.0178909 0.0174086 0.0169034 0.0163755 0.0158247 0.0152512 0.0146549 0.0140418 0.013418 0.0127835 0.0121383 0.0114824 0.0108158 0.0101384 0.00945032 0.00876418 0.00809259 0.00743556 0.00679309 0.00616518 0.00555184 0.00495305 0.00436883 0.00381184 0.00329476 0.0028176 0.00238036 0.00198303 0.00162561 0.00130811 0.00103052 0.000788992 0.000579668 0.000402547 0.00025763 0.000144917 6.44075e-05 1.61019e-05 0 0 2.30659e-05 9.22635e-05 0.000207593 0.000369054 0.000576647 0.000830372 0.00113023 0.00147622 0.00187163 0.00231977 0.00282064 0.00337422 0.00398053 0.00463957 0.00535133 0.00611581 0.00691398 0.00772681 0.00855429 0.00939642 0.0102532 0.0111247 0.0120108 0.0129115 0.0138092 0.0146861 0.0155423 0.0163777 0.0171923 0.0179861 0.0187592 0.0195115 0.0202351 0.0209219 0.0215719 0.0221852 0.0227618 0.0233016 0.0238047 0.024271 0.0247018 0.0250983 0.0254604 0.0257882 0.0260817 0.0263409 0.0265657 0.0267562 0.0269185 0.0270587 0.0271769 0.027273 0.0273471 0.0273991 0.027429 0.0274369 0.0274282 0.0274085 0.0273779 0.0273362 0.0272835 0.0272199 0.0271452 0.0270596 0.026964 0.0268596 0.0267465 0.0266245 0.0264938 0.0263542 0.0262058 0.0260486 0.0258793 0.0256943 0.0254938 0.0252776 0.0250459 0.0247986 0.0245357 0.0242571 0.0239587 0.0236359 0.0232888 0.0229173 0.0225216 0.0221015 0.0216571 0.0211884 0.0206948 0.0201758 0.0196315 0.0190619 0.0184669 0.0178465 0.0172008 0.0165297 0.01584 0.0151383 0.0144247 0.0136992 0.0129618 0.0122124 0.0114511 0.0106779 0.00990671 0.00915161 0.00841257 0.00768959 0.00698267 0.0062918 0.005617 0.00495826 0.00432981 0.0037459 0.00320652 0.00271169 0.00226138 0.00185562 0.00149439 0.0011777 0.000901675 0.000662455 0.000460038 0.000294424 0.000165614 7.36061e-05 1.84015e-05 0 0 2.60702e-05 0.000104281 0.000234632 0.000417124 0.000651756 0.000938528 0.00127744 0.00166849 0.00211479 0.00261941 0.00318238 0.00380368 0.00448331 0.00522128 0.00601759 0.00687223 0.00776401 0.00867174 0.00959541 0.010535 0.0114906 0.0124621 0.0134495 0.0144529 0.0154528 0.0164296 0.0173835 0.0183144 0.0192223 0.0201072 0.0209691 0.0218081 0.0226152 0.0233817 0.0241076 0.0247929 0.0254376 0.0260417 0.0266052 0.027128 0.0276116 0.028057 0.0284643 0.0288336 0.0291648 0.0294579 0.0297129 0.0299298 0.0301153 0.0302761 0.0304121 0.0305234 0.0306099 0.0306717 0.0307088 0.0307211 0.0307148 0.0306957 0.0306641 0.0306197 0.0305627 0.0304931 0.0304108 0.0303159 0.0302095 0.0300929 0.0299661 0.0298292 0.0296819 0.0295245 0.0293569 0.0291791 0.0289874 0.0287781 0.0285513 0.0283069 0.028045 0.0277656 0.0274685 0.027154 0.0268171 0.0264533 0.0260625 0.0256447 0.0251999 0.0247281 0.0242293 0.0237035 0.0231503 0.022569 0.0219598 0.0213225 0.0206573 0.0199641 0.0192429 0.0184937 0.0177239 0.0169409 0.0161448 0.0153354 0.0145129 0.0136772 0.0128284 0.0119663 0.0111065 0.0102642 0.00943949 0.00863236 0.0078428 0.00707082 0.00631641 0.00557957 0.00487618 0.00422212 0.00361739 0.00306199 0.00255592 0.00209918 0.00169177 0.00133368 0.0010211 0.000750195 0.000520969 0.00033342 0.000187549 8.3355e-05 2.08388e-05 0 0 2.9237e-05 0.000116948 0.000263133 0.000467792 0.000730925 0.00105253 0.00143261 0.00187117 0.00237103 0.00293503 0.00356317 0.00425545 0.00501187 0.00583243 0.00671713 0.00766597 0.00865549 0.00966224 0.0106862 0.0117274 0.0127859 0.0138615 0.0149544 0.0160646 0.0171707 0.0182515 0.019307 0.0203373 0.0213422 0.0223219 0.0232763 0.0242054 0.0250996 0.0259492 0.0267542 0.0275147 0.0282305 0.0289018 0.0295286 0.0301107 0.0306496 0.0311465 0.0316014 0.0320144 0.0323854 0.0327145 0.0330016 0.0332467 0.033457 0.0336399 0.0337951 0.0339228 0.034023 0.0340956 0.0341407 0.0341582 0.0341547 0.0341368 0.0341045 0.0340577 0.0339965 0.0339209 0.0338308 0.0337263 0.0336087 0.0334794 0.0333384 0.0331856 0.0330211 0.0328448 0.0326569 0.0324571 0.0322417 0.0320067 0.0317521 0.0314779 0.031184 0.0308705 0.0305374 0.0301847 0.0298073 0.0294002 0.0289633 0.0284967 0.0280003 0.0274742 0.0269183 0.0263327 0.0257169 0.0250704 0.0243932 0.0236853 0.0229467 0.0221774 0.0213775 0.0205468 0.0196936 0.0188259 0.0179437 0.017047 0.0161359 0.0152103 0.0142702 0.0133157 0.0123635 0.0114304 0.0105163 0.00962141 0.00874559 0.00788888 0.00705127 0.00623276 0.00545095 0.00472343 0.00405021 0.00343128 0.00286663 0.00235629 0.00190023 0.00149847 0.00114726 0.000842888 0.000585339 0.000374617 0.000210722 9.36542e-05 2.34136e-05 0 0 3.25662e-05 0.000130265 0.000293096 0.00052106 0.000814156 0.00117238 0.00159575 0.00208424 0.00264037 0.00326663 0.00396302 0.00472955 0.00556622 0.00647302 0.00744995 0.00849702 0.00958841 0.0106983 0.0118267 0.0129737 0.0141391 0.0153231 0.0165255 0.0177465 0.0189629 0.0201517 0.0213128 0.0224463 0.0235521 0.0246302 0.0256807 0.0267036 0.0276883 0.0286243 0.0295117 0.0303505 0.0311406 0.0318821 0.0325749 0.033219 0.0338159 0.0343668 0.0348717 0.0353307 0.0357437 0.0361107 0.0364317 0.0367068 0.0369437 0.0371501 0.0373259 0.0374713 0.0375862 0.0376707 0.0377246 0.0377481 0.0377481 0.0377318 0.0376992 0.0376502 0.0375849 0.0375032 0.0374052 0.0372909 0.0371617 0.0370191 0.0368632 0.0366938 0.0365112 0.0363151 0.0361056 0.0358828 0.0356424 0.0353802 0.0350962 0.0347904 0.0344628 0.0341135 0.0337423 0.0333494 0.0329292 0.0324765 0.0319912 0.0314733 0.0309229 0.0303398 0.0297242 0.029076 0.0283947 0.02768 0.0269318 0.0261502 0.0253351 0.0244866 0.0236046 0.0226892 0.0217491 0.0207932 0.0198215 0.018834 0.0178307 0.0168116 0.0157767 0.014726 0.0136777 0.0126501 0.0116431 0.0106567 0.00969104 0.00874599 0.00782159 0.00691784 0.00605412 0.00524983 0.00450497 0.00381953 0.00319353 0.00262694 0.00211979 0.00167206 0.00128017 0.000940534 0.000653148 0.000418015 0.000235133 0.000104504 2.61259e-05 0 0 3.60579e-05 0.000144232 0.000324521 0.000576926 0.000901447 0.00129808 0.00176684 0.00230771 0.00292279 0.0036142 0.00438193 0.00522598 0.00614635 0.00714304 0.00821605 0.00936538 0.0105628 0.01178 0.0130169 0.0142737 0.0155503 0.0168466 