<?xml version="1.0"?> 
<VTKFile type="StructuredGrid" version="0.1"> 
<StructuredGrid WholeExtent="0 128 0 128 0 0"> 
<Piece Extent="0 128 0 128 0 0"> 
<PointData>
<DataArray type="Float32" Name="u" format="ascii" NumberOfComponents="1"> 
0 0 0 0 0 0 0 0 0 0 0 0 0 0 0 0 0 0 0 0 0 0 0 0 0 0 0 0 0 0 0 0 0 0 0 0 0 0 0 0 0 0 0 0 0 0 0 0 0 0 0 0 0 0 0 0 0 0 0 0 0 0 0 0 0 0 0 0 0 0 0 0 0 0 0 0 0 0 0 0 0 0 0 0 0 0 0 0 0 0 0 0 0 0 0 0 0 0 0 0 0 0 0 0 0 0 0 0 0 0 0 0 0 0 0 0 0 0 0 0 0 0 0 0 0 0 0 0 0 0 -3.14771e-08 -1.25909e-07 -2.83294e-07 -5.03634e-07 -7.86928e-07 -1.13318e-06 -1.54238e-06 -2.01454e-06 -2.63486e-06 -3.48856e-06 -4.57564e-06 -5.8961e-06 -7.44994e-06 -9.23716e-06 -1.12578e-05 -1.35117e-05 -1.59243e-05 -1.84209e-05 -2.10014e-05 -2.36657e-05 -2.6414e-05 -2.92462e-05 -3.21624e-05 -3.51624e-05 -3.81198e-05 -4.09078e-05 -4.35265e-05 -4.59758e-05 -4.82558e-05 -5.03665e-05 -5.23078e-05 -5.40798e-05 -5.56764e-05 -5.70912e-05 -5.83244e-05 -5.9376e-05 -6.02458e-05 -6.09341e-05 -6.14406e-05 -6.17655e-05 -6.19948e-05 -6.22145e-05 -6.24246e-05 -6.26251e-05 -6.28161e-05 -6.29974e-05 -6.31692e-05 -6.33314e-05 -6.35075e-05 -6.37209e-05 -6.39718e-05 -6.426e-05 -6.45856e-05 -6.49485e-05 -6.53489e-05 -6.57866e-05 -6.62126e-05 -6.65777e-05 -6.68819e-05 -6.71253e-05 -6.73078e-05 -6.74295e-05 -6.74902e-05 -6.74902e-05 -6.743e-05 -6.73106e-05 -6.71318e-05 -6.68938e-05 -6.65965e-05 -6.62399e-05 -6.5824e-05 -6.53488e-05 -6.4864e-05 -6.44193e-05 -6.40148e-05 -6.36503e-05 -6.3326e-05 -6.30418e-05 -6.27978e-05 -6.25938e-05 -6.24062e-05 -6.22111e-05 -6.20086e-05 -6.17987e-05 -6.15812e-05 -6.13563e-05 -6.1124e-05 -6.08842e-05 -6.05513e-05 -6.00398e-05 -5.93495e-05 -5.84805e-05 -5.74329e-05 -5.62065e-05 -5.48014e-05 -5.32176e-05 -5.14616e-05 -4.95397e-05 -4.74519e-05 -4.51984e-05 -4.27789e-05 -4.01937e-05 -3.74426e-05 -3.45256e-05 -3.15678e-05 -2.86941e-05 -2.59045e-05 -2.31991e-05 -2.05777e-05 -1.80405e-05 -1.55874e-05 -1.32184e-05 -1.10064e-05 -9.02407e-06 -7.27155e-06 -5.74878e-06 -4.45578e-06 -3.39254e-06 -2.55906e-06 -1.95534e-06 -1.49706e-06 -1.09988e-06 -7.63806e-07 -4.88836e-07 -2.7497e-07 -1.22209e-07 -3.05522e-08 0 0 -1.25909e-07 -5.03634e-07 -1.13318e-06 -2.01454e-06 -3.14771e-06 -4.53271e-06 -6.16952e-06 -8.05815e-06 -1.05394e-05 -1.39542e-05 -1.83026e-05 -2.35844e-05 -2.97998e-05 -3.69486e-05 -4.5031e-05 -5.40469e-05 -6.36974e-05 -7.36836e-05 -8.40054e-05 -9.46629e-05 -0.000105656 -0.000116985 -0.000128649 -0.00014065 -0.000152479 -0.000163631 -0.000174106 -0.000183903 -0.000193023 -0.000201466 -0.000209231 -0.000216319 -0.000222705 -0.000228365 -0.000233298 -0.000237504 -0.000240983 -0.000243736 -0.000245762 -0.000247062 -0.000247979 -0.000248858 -0.000249698 -0.000250501 -0.000251264 -0.00025199 -0.000252677 -0.000253326 -0.00025403 -0.000254884 -0.000255887 -0.00025704 -0.000258342 -0.000259794 -0.000261395 -0.000263146 -0.00026485 -0.000266311 -0.000267528 -0.000268501 -0.000269231 -0.000269718 -0.000269961 -0.000269961 -0.00026972 -0.000269242 -0.000268527 -0.000267575 -0.000266386 -0.00026496 -0.000263296 -0.000261395 -0.000259456 -0.000257677 -0.000256059 -0.000254601 -0.000253304 -0.000252167 -0.000251191 -0.000250375 -0.000249625 -0.000248845 -0.000248035 -0.000247195 -0.000246325 -0.000245425 -0.000244496 -0.000243537 -0.000242205 -0.000240159 -0.000237398 -0.000233922 -0.000229731 -0.000224826 -0.000219206 -0.00021287 -0.000205846 -0.000198159 -0.000189808 -0.000180793 -0.000171116 -0.000160775 -0.00014977 -0.000138102 -0.000126271 -0.000114776 -0.000103618 -9.27963e-05 -8.2311e-05 -7.21621e-05 -6.23496e-05 -5.28737e-05 -4.40255e-05 -3.60963e-05 -2.90862e-05 -2.29951e-05 -1.78231e-05 -1.35702e-05 -1.02362e-05 -7.82137e-06 -5.98824e-06 -4.39952e-06 -3.05522e-06 -1.95534e-06 -1.09988e-06 -4.88836e-07 -1.22209e-07 0 0 -2.83294e-07 -1.13318e-06 -2.54965e-06 -4.53271e-06 -7.08235e-06 -1.01986e-05 -1.38814e-05 -1.81308e-05 -2.37137e-05 -3.13971e-05 -4.11808e-05 -5.30649e-05 -6.70495e-05 -8.31344e-05 -0.00010132 -0.000121606 -0.000143319 -0.000165788 -0.000189012 -0.000212992 -0.000237726 -0.000263216 -0.000289461 -0.000316462 -0.000343078 -0.00036817 -0.000391738 -0.000413782 -0.000434302 -0.000453298 -0.000470771 -0.000486719 -0.000501087 -0.000513821 -0.00052492 -0.000534384 -0.000542213 -0.000548407 -0.000552966 -0.00055589 -0.000557953 -0.000559931 -0.000561822 -0.000563626 -0.000565345 -0.000566977 -0.000568523 -0.000569983 -0.000571567 -0.000573488 -0.000575746 -0.00057834 -0.00058127 -0.000584537 -0.00058814 -0.000592079 -0.000595913 -0.000599199 -0.000601937 -0.000604128 -0.00060577 -0.000606865 -0.000607412 -0.000607412 -0.00060687 -0.000605795 -0.000604187 -0.000602044 -0.000599368 -0.000596159 -0.000592416 -0.000588139 -0.000583776 -0.000579774 -0.000576133 -0.000572853 -0.000569934 -0.000567377 -0.00056518 -0.000563344 -0.000561656 -0.0005599 -0.000558078 -0.000556188 -0.000554231 -0.000552207 -0.000550116 -0.000547958 -0.000544962 -0.000540358 -0.000534146 -0.000526325 -0.000516896 -0.000505858 -0.000493213 -0.000478959 -0.000463154 -0.000445857 -0.000427067 -0.000406785 -0.00038501 -0.000361743 -0.000336983 -0.000310731 -0.00028411 -0.000258247 -0.000233141 -0.000208792 -0.0001852 -0.000162365 -0.000140287 -0.000118966 -9.90573e-05 -8.12167e-05 -6.54439e-05 -5.1739e-05 -4.0102e-05 -3.05329e-05 -2.30315e-05 -1.75981e-05 -1.34735e-05 -9.89893e-06 -6.87425e-06 -4.39952e-06 -2.47473e-06 -1.09988e-06 -2.7497e-07 0 0 -5.03634e-07 -2.01454e-06 -4.53271e-06 -8.05815e-06 -1.25909e-05 -1.81308e-05 -2.46781e-05 -3.22326e-05 -4.21578e-05 -5.5817e-05 -7.32103e-05 -9.43376e-05 -0.000119199 -0.000147795 -0.000180124 -0.000216188 -0.00025479 -0.000294734 -0.000336022 -0.000378652 -0.000422624 -0.00046794 -0.000514598 -0.000562599 -0.000609916 -0.000654525 -0.000696423 -0.000735613 -0.000772093 -0.000805864 -0.000836925 -0.000865278 -0.000890822 -0.00091346 -0.000933191 -0.000950015 -0.000963933 -0.000974945 -0.00098305 -0.000988248 -0.000991917 -0.000995432 -0.000998794 -0.001002 -0.00100506 -0.00100796 -0.00101071 -0.0010133 -0.00101612 -0.00101954 -0.00102355 -0.00102816 -0.00103337 -0.00103918 -0.00104558 -0.00105259 -0.0010594 -0.00106524 -0.00107011 -0.001074 -0.00107692 -0.00107887 -0.00107984 -0.00107984 -0.00107888 -0.00107697 -0.00107411 -0.0010703 -0.00106554 -0.00105984 -0.00105318 -0.00104558 -0.00103782 -0.00103071 -0.00102424 -0.00101841 -0.00101322 -0.00100867 -0.00100476 -0.0010015 -0.000998499 -0.000995378 -0.000992138 -0.000988778 -0.0009853 -0.000981701 -0.000977984 -0.000974147 -0.000968821 -0.000960636 -0.000949592 -0.000935688 -0.000918926 -0.000899304 -0.000876822 -0.000851482 -0.000823385 -0.000792635 -0.000759231 -0.000723174 -0.000684463 -0.000643099 -0.000599081 -0.00055241 -0.000505085 -0.000459106 -0.000414473 -0.000371185 -0.000329244 -0.000288648 -0.000249398 -0.000211495 -0.000176102 -0.000144385 -0.000116345 -9.19805e-05 -7.12925e-05 -5.42806e-05 -4.0945e-05 -3.12855e-05 -2.3953e-05 -1.75981e-05 -1.22209e-05 -7.82137e-06 -4.39952e-06 -1.95534e-06 -4.88836e-07 0 0 -7.86928e-07 -3.14771e-06 -7.08235e-06 -1.25909e-05 -1.96732e-05 -2.83294e-05 -3.85595e-05 -5.03634e-05 -6.58715e-05 -8.7214e-05 -0.000114391 -0.000147403 -0.000186249 -0.000230929 -0.000281444 -0.000337793 -0.000398109 -0.000460522 -0.000525034 -0.000591643 -0.000660351 -0.000731156 -0.000804059 -0.000879061 -0.000952994 -0.00102269 -0.00108816 -0.0011494 -0.0012064 -0.00125916 -0.0013077 -0.001352 -0.00139191 -0.00142728 -0.00145811 -0.0014844 -0.00150615 -0.00152335 -0.00153602 -0.00154414 -0.00154987 -0.00155536 -0.00156062 -0.00156563 -0.0015704 -0.00157494 -0.00157923 -0.00158329 -0.00158769 -0.00159302 -0.00159929 -0.0016065 -0.00161464 -0.00162371 -0.00163372 -0.00164466 -0.00165531 -0.00166444 -0.00167205 -0.00167813 -0.0016827 -0.00168574 -0.00168726 -0.00168725 -0.00168575 -0.00168276 -0.0016783 -0.00167235 -0.00166491 -0.001656 -0.0016456 -0.00163372 -0.0016216 -0.00161048 -0.00160037 -0.00159126 -0.00158315 -0.00157605 -0.00156994 -0.00156485 -0.00156016 -0.00155528 -0.00155022 -0.00154497 -0.00153953 -0.00153391 -0.0015281 -0.00152211 -0.00151378 -0.00150099 -0.00148374 -0.00146201 -0.00143582 -0.00140516 -0.00137004 -0.00133044 -0.00128654 -0.00123849 -0.0011863 -0.00112996 -0.00106947 -0.00100484 -0.000936064 -0.000863141 -0.000789195 -0.000717353 -0.000647614 -0.000579977 -0.000514443 -0.000451013 -0.000389685 -0.00033046 -0.000275159 -0.000225602 -0.000181789 -0.00014372 -0.000111394 -8.48135e-05 -6.39765e-05 -4.88836e-05 -3.74265e-05 -2.7497e-05 -1.90951e-05 -1.22209e-05 -6.87425e-06 -3.05522e-06 -7.63806e-07 0 0 -1.13318e-06 -4.53271e-06 -1.01986e-05 -1.81308e-05 -2.83294e-05 -4.07944e-05 -5.55257e-05 -7.25233e-05 -9.4855e-05 -0.000125588 -0.000164723 -0.00021226 -0.000268198 -0.000332538 -0.000405279 -0.000486422 -0.000573277 -0.000663152 -0.000756049 -0.000851966 -0.000950905 -0.00105286 -0.00115785 -0.00126585 -0.00137231 -0.00147268 -0.00156695 -0.00165513 -0.00173721 -0.00181319 -0.00188308 -0.00194687 -0.00200435 -0.00205528 -0.00209968 -0.00213753 -0.00216885 -0.00219363 -0.00221186 -0.00222356 -0.00223181 -0.00223972 -0.00224729 -0.00225451 -0.00226138 -0.00226791 -0.00227409 -0.00227993 -0.00228627 -0.00229395 -0.00230298 -0.00231336 -0.00232508 -0.00233815 -0.00235256 -0.00236832 -0.00238365 -0.0023968 -0.00240775 -0.00241651 -0.00242308 -0.00242746 -0.00242965 -0.00242965 -0.00242748 -0.00242318 -0.00241675 -0.00240818 -0.00239747 -0.00238464 -0.00236966 -0.00235256 -0.0023351 -0.0023191 -0.00230453 -0.00229141 -0.00227974 -0.00226951 -0.00226072 -0.00225338 -0.00224662 -0.0022396 -0.00223231 -0.00222475 -0.00221692 -0.00220883 -0.00220046 -0.00219183 -0.00217985 -0.00216143 -0.00213658 -0.0021053 -0.00206758 -0.00202343 -0.00197285 -0.00191583 -0.00185262 -0.00178343 -0.00170827 -0.00162714 -0.00154004 -0.00144697 -0.00134793 -0.00124292 -0.00113644 -0.00103299 -0.000932563 -0.000835167 -0.000740799 -0.000649458 -0.000561147 -0.000475863 -0.000396229 -0.000324867 -0.000261776 -0.000206956 -0.000160408 -0.000122131 -9.21262e-05 -7.03924e-05 -5.38942e-05 -3.95957e-05 -2.7497e-05 -1.75981e-05 -9.89893e-06 -4.39952e-06 -1.09988e-06 0 0 -1.54238e-06 -6.16952e-06 -1.38814e-05 -2.46781e-05 -3.85595e-05 -5.55257e-05 -7.55766e-05 -9.87123e-05 -0.000129108 -0.00017094 -0.000224206 -0.000288909 -0.000365047 -0.000452621 -0.00055163 -0.000662075 -0.000780293 -0.000902624 -0.00102907 -0.00115962 -0.00129429 -0.00143307 -0.00157596 -0.00172296 -0.00186787 -0.00200448 -0.0021328 -0.00225281 -0.00236454 -0.00246796 -0.00256308 -0.00264991 -0.00272814 -0.00279747 -0.0028579 -0.00290942 -0.00295205 -0.00298577 -0.00301059 -0.00302651 -0.00303775 -0.00304851 -0.00305881 -0.00306863 -0.00307799 -0.00308687 -0.00309529 -0.00310324 -0.00311187 -0.00312233 -0.00313462 -0.00314874 -0.00316469 -0.00318248 -0.00320209 -0.00322354 -0.00324442 -0.00326231 -0.00327721 -0.00328914 -0.00329808 -0.00330404 -0.00330702 -0.00330702 -0.00330407 -0.00329822 -0.00328946 -0.0032778 -0.00326323 -0.00324575 -0.00322537 -0.00320209 -0.00317834 -0.00315655 -0.00313672 -0.00311887 -0.00310298 -0.00308905 -0.00307709 -0.0030671 -0.0030579 -0.00304835 -0.00303842 -0.00302813 -0.00301748 -0.00300646 -0.00299508 -0.00298333 -0.00296702 -0.00294195 -0.00290813 -0.00286555 -0.00281421 -0.00275412 -0.00268527 -0.00260766 -0.00252162 -0.00242744 -0.00232515 -0.00221472 -0.00209617 -0.00196949 -0.00183469 -0.00169176 -0.00154682 -0.00140601 -0.00126932 -0.00113675 -0.00100831 -0.000883985 -0.000763783 -0.000647702 -0.000539312 -0.00044218 -0.000356306 -0.00028169 -0.000218333 -0.000166234 -0.000125394 -9.58118e-05 -7.33559e-05 -5.38942e-05 -3.74265e-05 -2.3953e-05 -1.34735e-05 -5.98824e-06 -1.49706e-06 0 0 -2.01454e-06 -8.05815e-06 -1.81308e-05 -3.22326e-05 -5.03634e-05 -7.25233e-05 -9.87123e-05 -0.00012893 -0.000168631 -0.000223268 -0.000292841 -0.000377351 -0.000476796 -0.000591178 -0.000720496 -0.00086475 -0.00101916 -0.00117894 -0.00134409 -0.00151461 -0.0016905 -0.00187176 -0.00205839 -0.0022504 -0.00243967 -0.0026181 -0.00278569 -0.00294245 -0.00308837 -0.00322346 -0.0033477 -0.00346111 -0.00356329 -0.00365384 -0.00373276 -0.00380006 -0.00385573 -0.00389978 -0.0039322 -0.00395299 -0.00396767 -0.00398173 -0.00399518 -0.00400801 -0.00402023 -0.00403184 -0.00404283 -0.00405321 -0.00406448 -0.00407814 -0.00409419 -0.00411264 -0.00413348 -0.00415671 -0.00418233 -0.00421034 -0.0042376 -0.00426097 -0.00428044 -0.00429602 -0.0043077 -0.00431549 -0.00431938 -0.00431937 -0.00431552 -0.00430788 -0.00429644 -0.0042812 -0.00426218 -0.00423935 -0.00421273 -0.00418232 -0.0041513 -0.00412284 -0.00409695 -0.00407362 -0.00405287 -0.00403468 -0.00401906 -0.00400601 -0.003994 -0.00398151 -0.00396855 -0.00395511 -0.0039412 -0.00392681 -0.00391194 -0.00389659 -0.00387529 -0.00384255 -0.00379837 -0.00374275 -0.0036757 -0.00359721 -0.00350729 -0.00340593 -0.00329354 -0.00317054 -0.00303692 -0.0028927 -0.00273785 -0.0025724 -0.00239632 -0.00220964 -0.00202034 -0.00183642 -0.00165789 -0.00148474 -0.00131698 -0.00115459 -0.000997594 -0.000845979 -0.000704407 -0.000577541 -0.000465379 -0.000367922 -0.00028517 -0.000217122 -0.00016378 -0.000125142 -9.58118e-05 -7.03924e-05 -4.88836e-05 -3.12855e-05 -1.75981e-05 -7.82137e-06 -1.95534e-06 0 0 -2.67036e-06 -1.06814e-05 -2.40333e-05 -4.27258e-05 -6.6759e-05 -9.6133e-05 -0.000130848 -0.000170903 -0.000222868 -0.000293312 -0.000382234 -0.000489634 -0.000615513 -0.00075987 -0.000922706 -0.00110402 -0.00129762 -0.0014973 -0.00170307 -0.00191492 -0.00213286 -0.00235689 -0.00258701 -0.00282321 -0.00305552 -0.00327398 -0.00347858 -0.00366932 -0.00384621 -0.00400924 -0.00415842 -0.00429374 -0.00441514 -0.00452256 -0.004616 -0.00469546 -0.00476094 -0.00481244 -0.00484996 -0.0048735 -0.00489013 -0.00490694 -0.00492391 -0.00494105 -0.00495836 -0.00497584 -0.00499349 -0.00501131 -0.00503081 -0.00505348 -0.00507934 -0.00510838 -0.0051406 -0.00517601 -0.00521459 -0.00525636 -0.00529685 -0.00533163 -0.00536068 -0.005384 -0.00540161 -0.00541349 -0.00541965 -0.00542008 -0.00541486 -0.00540404 -0.00538763 -0.00536562 -0.00533802 -0.00530482 -0.00526603 -0.00522165 -0.00517617 -0.00513409 -0.00509541 -0.00506013 -0.00502826 -0.00499979 -0.00497471 -0.00495304 -0.00493324 -0.00491377 -0.00489463 -0.00487582 -0.00485735 -0.0048392 -0.00482139 -0.0048039 -0.00477971 -0.00474176 -0.00469006 -0.00462461 -0.0045454 -0.00445244 -0.00434573 -0.00422526 -0.00409113 -0.00394342 -0.00378214 -0.00360728 -0.00341885 -0.00321684 -0.00300125 -0.00277209 -0.0025392 -0.00231242 -0.00209175 -0.0018772 -0.00166876 -0.00146643 -0.00127022 -0.00108012 -0.000902167 -0.000742413 -0.000600853 -0.000477488 -0.000372316 -0.000285339 -0.000216556 -0.000165967 -0.000127069 -9.33565e-05 -6.48309e-05 -4.14918e-05 -2.33391e-05 -1.03729e-05 -2.59324e-06 0 0 -3.63057e-06 -1.45223e-05 -3.26751e-05 -5.80891e-05 -9.07642e-05 -0.000130701 -0.000177898 -0.000232356 -0.000301264 -0.000391809 -0.00050399 -0.000637809 -0.000793264 -0.000970357 -0.00116909 -0.00138945 -0.00162341 -0.00186292 -0.00210797 -0.00235857 -0.00261472 -0.00287641 -0.00314365 -0.00341644 -0.00368325 -0.00393257 -0.00416439 -0.00437872 -0.00457555 -0.00475488 -0.00491672 -0.00506107 -0.00518905 -0.0053018 -0.00539933 -0.00548162 -0.00554869 -0.00560053 -0.00563713 -0.00565851 -0.00567369 -0.00569169 -0.00571252 -0.00573617 -0.00576264 -0.00579194 -0.00582407 -0.00585902 -0.00589755 -0.00594045 -0.00598769 -0.00603929 -0.00609525 -0.00615556 -0.00622022 -0.00628924 -0.0063558 -0.00641311 -0.00646115 -0.00649995 -0.00652948 -0.00654975 -0.00656077 -0.00656253 -0.00655511 -0.0065386 -0.00651298 -0.00647827 -0.00643447 -0.00638157 -0.00631957 -0.00624847 -0.00617513 -0.00610642 -0.00604233 -0.00598285 -0.005928 -0.00587777 -0.00583215 -0.00579116 -0.00575398 -0.00571979 -0.00568859 -0.0056604 -0.00563519 -0.00561298 -0.00559377 -0.00557755 -0.00555534 -0.00551814 -0.00546596 -0.0053988 -0.00531665 -0.00521952 -0.0051074 -0.0049803 -0.00483713 -0.0046768 -0.00449933 -0.00430469 -0.00409291 -0.00386397 -0.00361787 -0.00335463 -0.00308561 -0.0028222 -0.0025644 -0.0023122 -0.00206562 -0.00182465 -0.00158929 -0.00135954 -0.00114324 -0.00094826 -0.000774587 -0.000622224 -0.000491171 -0.000381428 -0.000292995 -0.000225872 -0.000172933 -0.000127053 -8.82312e-05 -5.6468e-05 -3.17632e-05 -1.4117e-05 -3.52925e-06 0 0 -4.89516e-06 -1.95806e-05 -4.40564e-05 -7.83226e-05 -0.000122379 -0.000176226 -0.000239863 -0.00031329 -0.000403819 -0.000518759 -0.000658111 -0.000821875 -0.00101005 -0.00122264 -0.00145964 -0.00172105 -0.00199654 -0.00227579 -0.00255879 -0.00284554 -0.00313605 -0.00343031 -0.00372832 -0.00403009 -0.00432286 -0.00459387 -0.00484312 -0.00507063 -0.00527638 -0.00546037 -0.00562261 -0.0057631 -0.00588502 -0.00599157 -0.00608275 -0.00615855 -0.00621898 -0.00626404 -0.00629373 -0.00630804 -0.00631834 -0.006336 -0.006361 -0.00639336 -0.00643308 -0.00648014 -0.00653455 -0.00659632 -0.00666472 -0.00673903 -0.00681925 -0.00690537 -0.00699741 -0.00709535 -0.00719921 -0.00730897 -0.00741444 -0.00750541 -0.00758188 -0.00764385 -0.00769131 -0.00772428 -0.00774275 -0.00774671 -0.00773628 -0.00771154 -0.0076725 -0.00761916 -0.00755152 -0.00746957 -0.00737333 -0.00726278 -0.0071482 -0.00703984 -0.0069377 -0.00684178 -0.00675209 -0.00666862 -0.00659138 -0.00652036 -0.0064562 -0.00639956 -0.00635044 -0.00630883 -0.00627473 -0.00624815 -0.00622909 -0.00621753 -0.00620217 -0.00617168 -0.00612607 -0.00606532 -0.00598944 -0.00589844 -0.0057923 -0.00567104 -0.00553153 -0.00537068 -0.00518848 -0.00498493 -0.00476003 -0.00451379 -0.00424619 -0.00395724 -0.00365956 -0.00336575 -0.00307582 -0.00278976 -0.00250757 -0.00222925 -0.00195481 -0.00168424 -0.00142763 -0.00119508 -0.000986579 -0.00080213 -0.000641733 -0.000505389 -0.000393096 -0.000304856 -0.000233405 -0.000171482 -0.000119084 -7.6214e-05 -4.28704e-05 -1.90535e-05 -4.76338e-06 0 0 -6.46413e-06 -2.58565e-05 -5.81772e-05 -0.000103426 -0.000161603 -0.000232709 -0.000316743 -0.000413705 -0.000530532 -0.000674163 -0.000844597 -0.00104183 -0.00126587 -0.00151672 -0.00179436 -0.00209881 -0.00241701 -0.00273592 -0.00305553 -0.00337585 -0.00369687 -0.0040186 -0.00434103 -0.00466416 -0.00497434 -0.00525788 -0.00551478 -0.00574506 -0.0059487 -0.00612571 -0.00627608 -0.00639983 -0.00650305 -0.00659186 -0.00666626 -0.00672625 -0.00677182 -0.00680298 -0.00681974 -0.00682208 -0.00682409 -0.00683985 -0.00686937 -0.00691264 -0.00696966 -0.00704043 -0.00712495 -0.00722323 -0.0073323 -0.00744923 -0.007574 -0.00770662 -0.00784709 -0.0079954 -0.00815156 -0.00831558 -0.00847279 -0.00860854 -0.00872285 -0.00881571 -0.00888712 -0.00893707 -0.00896558 -0.00897263 -0.00895836 -0.00892287 -0.00886618 -0.00878828 -0.00868917 -0.00856885 -0.00842733 -0.00826459 -0.00809536 -0.00793434 -0.00778152 -0.00763692 -0.00750053 -0.00737235 -0.00725238 -0.00714063 -0.00703992 -0.0069531 -0.00688017 -0.00682113 -0.00677597 -0.00674471 -0.00672733 -0.00672385 -0.00672021 -0.00670239 -0.00667037 -0.00662417 -0.00656378 -0.0064892 -0.00640043 -0.00629748 -0.00617435 -0.00602506 -0.0058496 -0.00564799 -0.00542022 -0.00516629 -0.0048862 -0.00457995 -0.00426107 -0.00394309 -0.00362602 -0.00330985 -0.00299459 -0.00268023 -0.00236678 -0.00205423 -0.00175534 -0.00148288 -0.00123683 -0.00101721 -0.000824004 -0.000657221 -0.00051686 -0.00040292 -0.000308485 -0.000226642 -0.00015739 -0.00010073 -5.66606e-05 -2.51825e-05 -6.29562e-06 0 0 -8.33749e-06 -3.335e-05 -7.50374e-05 -0.0001334 -0.000208437 -0.00030015 -0.000408537 -0.000533599 -0.000681405 -0.00085802 -0.00106345 -0.00129768 -0.00156073 -0.00185259 -0.00217326 -0.00252273 -0.00288482 -0.0032433 -0.00359819 -0.00394948 -0.00429717 -0.00464127 -0.00498176 -0.00531866 -0.00563769 -0.0059246 -0.00617937 -0.00640201 -0.00659252 -0.0067509 -0.00687714 -0.00697126 -0.00704314 -0.00710267 -0.00714986 -0.0071847 -0.0072072 -0.00721736 -0.00721517 -0.00720063 -0.00719093 -0.00720326 -0.00723761 -0.00729399 -0.00737239 -0.00747281 -0.00759526 -0.00773974 -0.00790031 -0.00807105 -0.00825195 -0.00844303 -0.00864428 -0.0088557 -0.00907728 -0.00930904 -0.00953082 -0.0097225 -0.00988407 -0.0100155 -0.0101169 -0.0101881 -0.0102293 -0.0102403 -0.0102213 -0.0101726 -0.010094 -0.00998563 -0.00984742 -0.0096794 -0.00948155 -0.00925389 -0.00901661 -0.00878992 -0.0085738 -0.00836827 -0.00817332 -0.00798896 -0.00781517 -0.00765197 -0.00750512 -0.00738039 -0.00727778 -0.00719729 -0.00713891 -0.00710265 -0.00708852 -0.0070965 -0.00710946 -0.00711025 -0.00709889 -0.00707536 -0.00703967 -0.00699182 -0.0069318 -0.00685962 -0.00676557 -0.00663993 -0.0064827 -0.00629388 -0.00607348 -0.00582148 -0.0055379 -0.00522273 -0.00489012 -0.00455421 -0.004215 -0.0038725 -0.0035267 -0.0031776 -0.0028252 -0.0024695 -0.00212637 -0.00181165 -0.00152534 -0.00126745 -0.00103798 -0.000836926 -0.000664286 -0.000520063 -0.000398173 -0.000292535 -0.000203149 -0.000130016 -7.31338e-05 -3.25039e-05 -8.12598e-06 0 0 -1.05152e-05 -4.20609e-05 -9.46371e-05 -0.000168244 -0.000262881 -0.000378548 -0.000515246 -0.000672975 -0.000856436 -0.00107033 -0.00131466 -0.00158942 -0.00189462 -0.00223025 -0.00259632 -0.00299282 -0.00339996 -0.00379795 -0.00418677 -0.00456645 -0.00493696 -0.00529832 -0.00565053 -0.00599358 -0.00631293 -0.00659403 -0.00683688 -0.00704148 -0.00720783 -0.00733593 -0.00742579 -0.00747739 -0.00750529 -0.00752401 -0.00753356 -0.00753393 -0.00752513 -0.00750716 -0.00748001 -0.00744369 -0.00741887 -0.00742621 -0.00746573 -0.00753741 -0.00764127 -0.00777729 -0.00794548 -0.00814584 -0.00836873 -0.00860448 -0.00885311 -0.00911461 -0.00938899 -0.00967624 -0.00997637 -0.0102894 -0.0105886 -0.0108473 -0.0110655 -0.0112433 -0.0113806 -0.0114774 -0.0115338 -0.0115497 -0.0115253 -0.0114607 -0.011356 -0.0112112 -0.0110263 -0.0108012 -0.010536 -0.0102307 -0.00991197 -0.00960658 -0.00931454 -0.00903583 -0.00877046 -0.00851844 -0.00827975 -0.0080544 -0.00785182 -0.00768145 -0.00754327 -0.00743731 -0.00736355 -0.00732199 -0.00731263 -0.00733548 -0.00736991 -0.00739528 -0.00741161 -0.00741888 -0.0074171 -0.00740627 -0.0073864 -0.00735747 -0.0073052 -0.0072153 -0.00708776 -0.00692259 -0.00671979 -0.00647936 -0.0062013 -0.0058856 -0.00554672 -0.00519911 -0.00484277 -0.00447769 -0.00410388 -0.00372134 -0.00333007 -0.00293006 -0.00254071 -0.00218139 -0.00185211 -0.00155287 -0.00128367 -0.0010445 -0.000835375 -0.000656285 -0.000502468 -0.00036916 -0.000256361 -0.000164071 -9.22901e-05 -4.10178e-05 -1.02545e-05 0 0 -1.29974e-05 -5.19894e-05 -0.000116976 -0.000207958 -0.000324934 -0.000467905 -0.00063687 -0.000831831 -0.00105563 -0.00131109 -0.00159824 -0.00191706 -0.00226755 -0.00264972 -0.00306356 -0.00350907 -0.00396244 -0.00439984 -0.00482127 -0.00522674 -0.00561624 -0.00598977 -0.00634733 -0.00668892 -0.00700004 -0.00726617 -0.00748731 -0.00766346 -0.00779463 -0.00788082 -0.00792202 -0.00791823 -0.00788949 -0.00785587 -0.00781734 -0.00777392 -0.0077256 -0.00767239 -0.00761427 -0.00755126 -0.0075079 -0.00750872 -0.00755373 -0.00764292 -0.0077763 -0.00795386 -0.00817562 -0.00844155 -0.00873756 -0.00904954 -0.00937747 -0.00972136 -0.0100812 -0.010457 -0.0108488 -0.0112565 -0.011646 -0.0119829 -0.0122672 -0.012499 -0.0126783 -0.012805 -0.0128792 -0.0129008 -0.0128701 -0.0127872 -0.0126522 -0.012465 -0.0122257 -0.0119343 -0.0115907 -0.011195 -0.0107814 -0.0103843 -0.0100037 -0.0096396 -0.00929196 -0.00896079 -0.00864611 -0.0083479 -0.00808001 -0.00785626 -0.00767665 -0.00754119 -0.00744988 -0.00740271 -0.00739968 -0.0074408 -0.00750156 -0.00755747 -0.00760853 -0.00765473 -0.00769608 -0.00773258 -0.00776423 -0.00779102 -0.00779324 -0.00775116 -0.00766479 -0.00753413 -0.00735918 -0.00713993 -0.00687639 -0.00656855 -0.00623087 -0.00587779 -0.00550931 -0.00512543 -0.00472615 -0.00431146 -0.00388138 -0.0034359 -0.00299836 -0.00259211 -0.00221714 -0.00187346 -0.00156106 -0.00127995 -0.00103013 -0.000811587 -0.000621371 -0.000456518 -0.000317026 -0.000202897 -0.000114129 -5.07242e-05 -1.2681e-05 0 0 -1.57839e-05 -6.31354e-05 -0.000142055 -0.000252542 -0.000394596 -0.000568219 -0.000773409 -0.00101017 -0.00127897 -0.00158031 -0.00191418 -0.00228058 -0.00267951 -0.00311097 -0.00357496 -0.00407149 -0.00457226 -0.00504899 -0.0055017 -0.00593036 -0.00633499 -0.00671559 -0.00707215 -0.00740468 -0.00769902 -0.00794102 -0.00813067 -0.00826797 -0.00835294 -0.00838555 -0.00836583 -0.00829376 -0.00819576 -0.00809825 -0.00800122 -0.00790468 -0.00780862 -0.00771304 -0.00761795 -0.00752335 -0.00745802 -0.00745077 -0.0075016 -0.0076105 -0.00777748 -0.00800253 -0.00828566 -0.00862686 -0.00900682 -0.00940621 -0.00982503 -0.0102633 -0.010721 -0.0111981 -0.0116946 -0.0122106 -0.0127031 -0.0131293 -0.0134892 -0.0137827 -0.01401 -0.0141709 -0.0142654 -0.0142937 -0.0142558 -0.0141521 -0.0139825 -0.0137471 -0.0134458 -0.0130786 -0.0126456 -0.0121468 -0.011625 -0.0111232 -0.0106414 -0.0101796 -0.0097378 -0.00931602 -0.00891425 -0.00853248 -0.00818968 -0.00790483 -0.00767791 -0.00750894 -0.00739791 -0.00734481 -0.00734966 -0.00741245 -0.00750442 -0.00759682 -0.00768966 -0.00778292 -0.00787661 -0.00797073 -0.00806529 -0.00816027 -0.00822968 -0.00824752 -0.00821379 -0.00812849 -0.00799162 -0.00780318 -0.00756317 -0.00727159 -0.00694257 -0.00659025 -0.00621463 -0.00581571 -0.00539349 -0.00494797 -0.00447915 -0.00398703 -0.00349933 -0.0030438 -0.00262043 -0.00222922 -0.00187017 -0.00154327 -0.00124854 -0.000985969 -0.000754882 -0.000554607 -0.000385144 -0.000246492 -0.000138652 -6.1623e-05 -1.54058e-05 0 0 -1.88466e-05 -7.53865e-05 -0.00016962 -0.000301546 -0.000471166 -0.000678478 -0.000923484 -0.00120618 -0.00152395 -0.00187417 -0.00225683 -0.00267193 -0.00311949 -0.00359948 -0.00411193 -0.00465682 -0.00520091 -0.00571094 -0.00618693 -0.00662887 -0.00703675 -0.00741059 -0.00775038 -0.00805611 -0.00831464 -0.00851279 -0.00865058 -0.008728 -0.00874505 -0.00870172 -0.00859803 -0.00843397 -0.00824364 -0.00806112 -0.00788643 -0.00771955 -0.0075605 -0.00740926 -0.00726585 -0.00713025 -0.007036 -0.00701662 -0.00707212 -0.00720248 -0.00740772 -0.00768782 -0.0080428 -0.00847264 -0.00895168 -0.00945421 -0.00998025 -0.0105298 -0.0111028 -0.0116994 -0.0123194 -0.0129629 -0.013577 -0.0141084 -0.0145574 -0.0149237 -0.0152076 -0.0154089 -0.0155276 -0.0155638 -0.0155177 -0.0153896 -0.0151795 -0.0148874 -0.0145133 -0.0140571 -0.013519 -0.0128988 -0.0122497 -0.0116248 -0.0110239 -0.0104472 -0.00989459 -0.00936612 -0.00886178 -0.00838156 -0.00795071 -0.00759447 -0.00731284 -0.00710582 -0.00697342 -0.00691562 -0.00693243 -0.00702386 -0.0071564 -0.00729658 -0.00744439 -0.00759982 -0.00776289 -0.00793359 -0.00811192 -0.00829788 -0.00845789 -0.00855839 -0.00859937 -0.00858083 -0.00850277 -0.0083652 -0.0081681 -0.00791149 -0.00760856 -0.00727251 -0.00690334 -0.00650105 -0.00606564 -0.00559711 -0.00509546 -0.00456069 -0.00402542 -0.00352226 -0.00305122 -0.00261229 -0.00220547 -0.00183076 -0.00148817 -0.00117769 -0.000901669 -0.000662451 -0.000460035 -0.000294423 -0.000165613 -7.36057e-05 -1.84014e-05 0 0 -2.21575e-05 -8.86301e-05 -0.000199418 -0.00035452 -0.000553938 -0.000797671 -0.00108572 -0.00141808 -0.00178803 -0.00218885 -0.00262052 -0.00308306 -0.00357646 -0.00410071 -0.00465584 -0.00524182 -0.00581988 -0.00635123 -0.00683587 -0.00727381 -0.00766503 -0.00800955 -0.00830736 -0.00855846 -0.00875164 -0.00887572 -0.00893069 -0.00891654 -0.00883328 -0.00868091 -0.00845943 -0.00816884 -0.00785267 -0.00755446 -0.0072742 -0.0070119 -0.00676756 -0.00654118 -0.00633276 -0.00614229 -0.0060086 -0.00597052 -0.00602805 -0.00618118 -0.00642991 -0.00677426 -0.0072142 -0.00774976 -0.00834731 -0.00897325 -0.00962757 -0.0103103 -0.0110214 -0.0117609 -0.0125288 -0.013325 -0.0140845 -0.0147421 -0.0152977 -0.0157514 -0.0161031 -0.0163529 -0.0165008 -0.0165467 -0.0164911 -0.016334 -0.0160757 -0.015716 -0.015255 -0.0146927 -0.014029 -0.013264 -0.0124629 -0.0116908 -0.0109478 -0.0102338 -0.00954894 -0.00889309 -0.0082663 -0.00766856 -0.00713294 -0.00669249 -0.00634722 -0.00609712 -0.00594219 -0.00588244 -0.00591786 -0.00604846 -0.00623543 -0.00643999 -0.00666212 -0.00690184 -0.00715913 -0.00743401 -0.00772646 -0.0080365 -0.00832123 -0.00853777 -0.00868612 -0.00876629 -0.00877826 -0.00872204 -0.00859763 -0.00840504 -0.00815558 -0.00786057 -0.00752002 -0.00713393 -0.0067023 -0.00622513 -0.00570241 -0.00513415 -0.00455842 -0.00401328 -0.00349875 -0.00301481 -0.00256146 -0.00213872 -0.00174657 -0.00138501 -0.0010604 -0.000779071 -0.000541021 -0.000346254 -0.000194768 -8.65634e-05 -2.16409e-05 0 0 -2.57166e-05 -0.000102866 -0.000231449 -0.000411465 -0.000642914 -0.000925796 -0.00126011 -0.00164586 -0.00207121 -0.00252435 -0.00300526 -0.00351395 -0.00405042 -0.00461466 -0.00520669 -0.00582649 -0.00642918 -0.00696986 -0.00744853 -0.00786518 -0.00821983 -0.00851247 -0.0087431 -0.00891171 -0.00901004 -0.0090298 -0.00897098 -0.0088336 -0.00861765 -0.00832312 -0.00795003 -0.00749836 -0.00702286 -0.00657825 -0.00616454 -0.00578173 -0.00542982 -0.0051088 -0.00481868 -0.00455945 -0.00437582 -0.00431246 -0.00436939 -0.00454659 -0.00484408 -0.00526184 -0.00579989 -0.00645821 -0.00719372 -0.00796332 -0.00876701 -0.0096048 -0.0104767 -0.0113826 -0.0123227 -0.0132969 -0.0142258 -0.0150303 -0.0157102 -0.0162657 -0.0166966 -0.0170031 -0.017185 -0.0172425 -0.0171758 -0.0169853 -0.016671 -0.0162329 -0.0156709 -0.0149852 -0.0141756 -0.0132423 -0.0122644 -0.0113213 -0.010413 -0.00953953 -0.00870083 -0.00789692 -0.00712781 -0.00639349 -0.00573638 -0.0051989 -0.00478105 -0.00448283 -0.00430424 -0.00424528 -0.00430595 -0.00448625 -0.00474151 -0.00502704 -0.00534286 -0.00568895 -0.00606533 -0.00647198 -0.00690891 -0.00737613 -0.00781969 -0.00818566 -0.00847405 -0.00868486 -0.00881808 -0.00887372 -0.00885177 -0.00875224 -0.00858362 -0.00835445 -0.0080647 -0.00771438 -0.00730349 -0.00683203 -0.0063 -0.00570741 -0.00509833 -0.00451687 -0.00396302 -0.00343678 -0.00293815 -0.00246714 -0.00202373 -0.00160794 -0.00123108 -0.000904467 -0.000628102 -0.000401985 -0.000226117 -0.000100496 -2.51241e-05 0 0 -2.95237e-05 -0.000118095 -0.000265714 -0.00047238 