<?xml version="1.0"?> 
<VTKFile type="StructuredGrid" version="0.1"> 
<StructuredGrid WholeExtent="0 128 0 128 0 0"> 
<Piece Extent="0 128 0 128 0 0"> 
<PointData>
<DataArray type="Float32" Name="u" format="ascii" NumberOfComponents="1"> 
0 0 0 0 0 0 0 0 0 0 0 0 0 0 0 0 0 0 0 0 0 0 0 0 0 0 0 0 0 0 0 0 0 0 0 0 0 0 0 0 0 0 0 0 0 0 0 0 0 0 0 0 0 0 0 0 0 0 0 0 0 0 0 0 0 0 0 0 0 0 0 0 0 0 0 0 0 0 0 0 0 0 0 0 0 0 0 0 0 0 0 0 0 0 0 0 0 0 0 0 0 0 0 0 0 0 0 0 0 0 0 0 0 0 0 0 0 0 0 0 0 0 0 0 0 0 0 0 0 0 -7.53266e-08 -3.01306e-07 -6.77939e-07 -1.20523e-06 -1.88316e-06 -2.71176e-06 -3.691e-06 -4.8209e-06 -5.98435e-06 -7.06426e-06 -8.06061e-06 -8.97342e-06 -9.80269e-06 -1.05484e-05 -1.12106e-05 -1.17892e-05 -1.22227e-05 -1.24493e-05 -1.24693e-05 -1.22824e-05 -1.18888e-05 -1.12885e-05 -1.04813e-05 -9.46742e-06 -8.33686e-06 -7.17973e-06 -5.99604e-06 -4.7858e-06 -3.54899e-06 -2.28563e-06 -9.95708e-07 3.20774e-07 1.54508e-06 2.55847e-06 3.36095e-06 3.95252e-06 4.33317e-06 4.50291e-06 4.46174e-06 4.20965e-06 3.73769e-06 3.03688e-06 2.10722e-06 9.48724e-07 -4.3862e-07 -2.05481e-06 -3.89984e-06 -5.97372e-06 -8.15719e-06 -1.0331e-05 -1.24952e-05 -1.46497e-05 -1.67945e-05 -1.89297e-05 -2.10552e-05 -2.31711e-05 -2.51515e-05 -2.68708e-05 -2.83289e-05 -2.95258e-05 -3.04616e-05 -3.11361e-05 -3.15495e-05 -3.17018e-05 -3.15929e-05 -3.12231e-05 -3.05924e-05 -2.97007e-05 -2.85481e-05 -2.71345e-05 -2.546e-05 -2.35245e-05 -2.14526e-05 -1.93688e-05 -1.72731e-05 -1.51655e-05 -1.3046e-05 -1.09146e-05 -8.77128e-06 -6.61608e-06 -4.56561e-06 -2.73651e-06 -1.12878e-06 2.57595e-07 1.4226e-06 2.36624e-06 3.08851e-06 3.58942e-06 3.8778e-06 3.96247e-06 3.84345e-06 3.52073e-06 2.99432e-06 2.2642e-06 1.33038e-06 1.92871e-07 -1.0345e-06 -2.23788e-06 -3.41728e-06 -4.5727e-06 -5.70413e-06 -6.81157e-06 -7.89503e-06 -8.9545e-06 -9.90465e-06 -1.06601e-05 -1.12209e-05 -1.15871e-05 -1.17586e-05 -1.17354e-05 -1.15175e-05 -1.1105e-05 -1.05562e-05 -9.92946e-06 -9.22481e-06 -8.44225e-06 -7.58176e-06 -6.64336e-06 -5.62703e-06 -4.53279e-06 -3.47042e-06 -2.5497e-06 -1.77062e-06 -1.1332e-06 -6.37424e-07 -2.833e-07 -7.08249e-08 0 0 -3.01306e-07 -1.20523e-06 -2.71176e-06 -4.8209e-06 -7.53266e-06 -1.0847e-05 -1.4764e-05 -1.92836e-05 -2.39374e-05 -2.8257e-05 -3.22425e-05 -3.58937e-05 -3.92107e-05 -4.21936e-05 -4.48423e-05 -4.71568e-05 -4.88906e-05 -4.97974e-05 -4.98771e-05 -4.91298e-05 -4.75553e-05 -4.51539e-05 -4.19253e-05 -3.78697e-05 -3.33474e-05 -2.87189e-05 -2.39842e-05 -1.91432e-05 -1.4196e-05 -9.14252e-06 -3.98283e-06 1.28309e-06 6.18032e-06 1.02339e-05 1.34438e-05 1.58101e-05 1.73327e-05 1.80116e-05 1.78469e-05 1.68386e-05 1.49507e-05 1.21475e-05 8.42889e-06 3.79489e-06 -1.75448e-06 -8.21924e-06 -1.55994e-05 -2.38949e-05 -3.26288e-05 -4.1324e-05 -4.99806e-05 -5.85986e-05 -6.7178e-05 -7.57187e-05 -8.42208e-05 -9.26843e-05 -0.000100606 -0.000107483 -0.000113316 -0.000118103 -0.000121846 -0.000124545 -0.000126198 -0.000126807 -0.000126372 -0.000124893 -0.00012237 -0.000118803 -0.000114192 -0.000108538 -0.00010184 -9.40979e-05 -8.58103e-05 -7.74751e-05 -6.90923e-05 -6.06619e-05 -5.21839e-05 -4.36583e-05 -3.50851e-05 -2.64643e-05 -1.82625e-05 -1.0946e-05 -4.5151e-06 1.03038e-06 5.6904e-06 9.46496e-06 1.23541e-05 1.43577e-05 1.55112e-05 1.58499e-05 1.53738e-05 1.40829e-05 1.19773e-05 9.0568e-06 5.32154e-06 7.71483e-07 -4.138e-06 -8.95154e-06 -1.36691e-05 -1.82908e-05 -2.28165e-05 -2.72463e-05 -3.15801e-05 -3.5818e-05 -3.96186e-05 -4.26405e-05 -4.48838e-05 -4.63484e-05 -4.70343e-05 -4.69415e-05 -4.60701e-05 -4.442e-05 -4.22248e-05 -3.97179e-05 -3.68993e-05 -3.3769e-05 -3.0327e-05 -2.65734e-05 -2.25081e-05 -1.81312e-05 -1.38817e-05 -1.01988e-05 -7.08249e-06 -4.53279e-06 -2.5497e-06 -1.1332e-06 -2.833e-07 0 0 -6.77939e-07 -2.71176e-06 -6.10145e-06 -1.0847e-05 -1.69485e-05 -2.44058e-05 -3.3219e-05 -4.33881e-05 -5.38592e-05 -6.35783e-05 -7.25455e-05 -8.07608e-05 -8.82242e-05 -9.49356e-05 -0.000100895 -0.000106103 -0.000110004 -0.000112044 -0.000112223 -0.000110542 -0.000107 -0.000101596 -9.43319e-05 -8.52068e-05 -7.50317e-05 -6.46176e-05 -5.39644e-05 -4.30722e-05 -3.1941e-05 -2.05707e-05 -8.96138e-06 2.88696e-06 1.39057e-05 2.30262e-05 3.02486e-05 3.55727e-05 3.89985e-05 4.05262e-05 4.01556e-05 3.78869e-05 3.36392e-05 2.73319e-05 1.8965e-05 8.53851e-06 -3.94758e-06 -1.84933e-05 -3.50986e-05 -5.37635e-05 -7.34147e-05 -9.2979e-05 -0.000112456 -0.000131847 -0.00015115 -0.000170367 -0.000189497 -0.00020854 -0.000226364 -0.000241837 -0.00025496 -0.000265732 -0.000274154 -0.000280225 -0.000283946 -0.000285316 -0.000284336 -0.000281008 -0.000275332 -0.000267306 -0.000256933 -0.00024421 -0.00022914 -0.00021172 -0.000193073 -0.000174319 -0.000155458 -0.000136489 -0.000117414 -9.82312e-05 -7.89415e-05 -5.95447e-05 -4.10905e-05 -2.46286e-05 -1.0159e-05 2.31835e-06 1.28034e-05 2.12961e-05 2.77966e-05 3.23048e-05 3.49002e-05 3.56623e-05 3.45911e-05 3.16866e-05 2.69488e-05 2.03778e-05 1.19735e-05 1.73584e-06 -9.3105e-06 -2.0141e-05 -3.07556e-05 -4.11543e-05 -5.13372e-05 -6.13041e-05 -7.10553e-05 -8.05905e-05 -8.91419e-05 -9.59412e-05 -0.000100988 -0.000104284 -0.000105827 -0.000105618 -0.000103658 -9.99451e-05 -9.50057e-05 -8.93652e-05 -8.30233e-05 -7.59802e-05 -6.82358e-05 -5.97902e-05 -5.06433e-05 -4.07952e-05 -3.12338e-05 -2.29473e-05 -1.59356e-05 -1.01988e-05 -5.73682e-06 -2.5497e-06 -6.37424e-07 0 0 -1.20523e-06 -4.8209e-06 -1.0847e-05 -1.92836e-05 -3.01306e-05 -4.33881e-05 -5.9056e-05 -7.71344e-05 -9.57497e-05 -0.000113028 -0.00012897 -0.000143575 -0.000156843 -0.000168774 -0.000179369 -0.000188627 -0.000195562 -0.00019919 -0.000199508 -0.000196519 -0.000190221 -0.000180615 -0.000167701 -0.000151479 -0.00013339 -0.000114876 -9.59367e-05 -7.65728e-05 -5.67839e-05 -3.65701e-05 -1.59313e-05 5.13238e-06 2.47213e-05 4.09355e-05 5.37752e-05 6.32403e-05 6.93307e-05 7.20466e-05 7.13878e-05 6.73544e-05 5.9803e-05 4.859e-05 3.37156e-05 1.51796e-05 -7.01792e-06 -3.28769e-05 -6.23975e-05 -9.55795e-05 -0.000130515 -0.000165296 -0.000199923 -0.000234395 -0.000268712 -0.000302875 -0.000336883 -0.000370737 -0.000402424 -0.000429933 -0.000453262 -0.000472413 -0.000487385 -0.000498178 -0.000504792 -0.000507228 -0.000505487 -0.00049957 -0.000489478 -0.000475211 -0.000456769 -0.000434152 -0.000407359 -0.000376392 -0.000343241 -0.000309901 -0.000276369 -0.000242648 -0.000208736 -0.000174633 -0.00014034 -0.000105857 -7.30498e-05 -4.37842e-05 -1.80604e-05 4.12152e-06 2.27616e-05 3.78598e-05 4.94162e-05 5.74307e-05 6.20447e-05 6.33996e-05 6.14953e-05 5.63317e-05 4.79091e-05 3.62272e-05 2.12861e-05 3.08593e-06 -1.6552e-05 -3.58062e-05 -5.46765e-05 -7.31632e-05 -9.1266e-05 -0.000108985 -0.00012632 -0.000143272 -0.000158474 -0.000170562 -0.000179535 -0.000185393 -0.000188137 -0.000187766 -0.00018428 -0.00017768 -0.000168899 -0.000158871 -0.000147597 -0.000135076 -0.000121308 -0.000106294 -9.00326e-05 -7.25247e-05 -5.55267e-05 -4.07952e-05 -2.833e-05 -1.81312e-05 -1.01988e-05 -4.53279e-06 -1.1332e-06 0 0 -1.88316e-06 -7.53266e-06 -1.69485e-05 -3.01306e-05 -4.70791e-05 -6.77939e-05 -9.22751e-05 -0.000120523 -0.000149609 -0.000176606 -0.000201515 -0.000224336 -0.000245067 -0.00026371 -0.000280264 -0.00029473 -0.000305566 -0.000311234 -0.000311732 -0.000307061 -0.000297221 -0.000282212 -0.000262033 -0.000236686 -0.000208421 -0.000179493 -0.000149901 -0.000119645 -8.87249e-05 -5.71408e-05 -2.48927e-05 8.01934e-06 3.8627e-05 6.39618e-05 8.40238e-05 9.88129e-05 0.000108329 0.000112573 0.000111543 0.000105241 9.34422e-05 7.59219e-05 5.26806e-05 2.37181e-05 -1.09655e-05 -5.13702e-05 -9.74961e-05 -0.000149343 -0.00020393 -0.000258275 -0.000312379 -0.000366241 -0.000419862 -0.000473242 -0.00052638 -0.000579277 -0.000628788 -0.00067177 -0.000708222 -0.000738145 -0.000761539 -0.000778403 -0.000788738 -0.000792544 -0.000789823 -0.000780578 -0.00076481 -0.000742518 -0.000713702 -0.000678362 -0.000636499 -0.000588112 -0.000536315 -0.00048422 -0.000431827 -0.000379137 -0.000326149 -0.000272864 -0.000219282 -0.000165402 -0.00011414 -6.84128e-05 -2.82194e-05 6.43987e-06 3.5565e-05 5.9156e-05 7.72128e-05 8.97355e-05 9.69449e-05 9.90619e-05 9.60863e-05 8.80184e-05 7.48579e-05 5.6605e-05 3.32596e-05 4.82177e-06 -2.58625e-05 -5.59471e-05 -8.54321e-05 -0.000114317 -0.000142603 -0.000170289 -0.000197376 -0.000223863 -0.000247616 -0.000266503 -0.000280524 -0.000289677 -0.000293964 -0.000293385 -0.000287938 -0.000277625 -0.000263905 -0.000248237 -0.00023062 -0.000211056 -0.000189544 -0.000166084 -0.000140676 -0.00011332 -8.67605e-05 -6.37424e-05 -4.42656e-05 -2.833e-05 -1.59356e-05 -7.08249e-06 -1.77062e-06 0 0 -2.71176e-06 -1.0847e-05 -2.44058e-05 -4.33881e-05 -6.77939e-05 -9.76233e-05 -0.000132876 -0.000173552 -0.000215437 -0.000254313 -0.000290182 -0.000323043 -0.000352897 -0.000379742 -0.00040358 -0.000424411 -0.000440015 -0.000448176 -0.000448894 -0.000442168 -0.000427998 -0.000406385 -0.000377328 -0.000340827 -0.000300127 -0.00025847 -0.000215858 -0.000172289 -0.000127764 -8.22827e-05 -3.58455e-05 1.15479e-05 5.56228e-05 9.2105e-05 0.000120994 0.000142291 0.000155994 0.000162105 0.000160623 0.000151547 0.000134557 0.000109328 7.586e-05 3.4154e-05 -1.57903e-05 -7.39731e-05 -0.000140394 -0.000215054 -0.000293659 -0.000371916 -0.000449826 -0.000527388 -0.000604602 -0.000681468 -0.000757987 -0.000834158 -0.000905454 -0.000967348 -0.00101984 -0.00106293 -0.00109662 -0.0011209 -0.00113578 -0.00114126 -0.00113734 -0.00112403 -0.00110133 -0.00106923 -0.00102773 -0.000976842 -0.000916559 -0.000846882 -0.000772293 -0.000697276 -0.000621831 -0.000545957 -0.000469655 -0.000392925 -0.000315766 -0.000238179 -0.000164362 -9.85144e-05 -4.06359e-05 9.27342e-06 5.12136e-05 8.51846e-05 0.000111186 0.000129219 0.000139601 0.000142649 0.000138364 0.000126746 0.000107795 8.15112e-05 4.78938e-05 6.94335e-06 -3.7242e-05 -8.05638e-05 -0.000123022 -0.000164617 -0.000205349 -0.000245217 -0.000284221 -0.000322362 -0.000356567 -0.000383765 -0.000403954 -0.000417135 -0.000423309 -0.000422474 -0.000414631 -0.00039978 -0.000380023 -0.000357461 -0.000332093 -0.000303921 -0.000272943 -0.000239161 -0.000202573 -0.000163181 -0.000124935 -9.17891e-05 -6.37424e-05 -4.07952e-05 -2.29473e-05 -1.01988e-05 -2.5497e-06 0 0 -3.691e-06 -1.4764e-05 -3.3219e-05 -5.9056e-05 -9.22751e-05 -0.000132876 -0.000180859 -0.000236224 -0.000293233 -0.000346149 -0.00039497 -0.000439698 -0.000480332 -0.000516872 -0.000549318 -0.00057767 -0.00059891 -0.000610018 -0.000610995 -0.000601839 -0.000582553 -0.000553135 -0.000513585 -0.000463904 -0.000408506 -0.000351807 -0.000293806 -0.000234504 -0.000173901 -0.000111996 -4.87897e-05 1.57179e-05 7.57089e-05 0.000125365 0.000164687 0.000193673 0.000212325 0.000220643 0.000218625 0.000206273 0.000183147 0.000148807 0.000103254 4.64875e-05 -2.14924e-05 -0.000100686 -0.000191092 -0.000292712 -0.000399702 -0.000506219 -0.000612263 -0.000717833 -0.00082293 -0.000927554 -0.0010317 -0.00113538 -0.00123242 -0.00131667 -0.00138812 -0.00144676 -0.00149262 -0.00152567 -0.00154593 -0.00155339 -0.00154805 -0.00152993 -0.00149903 -0.00145533 -0.00139886 -0.00132959 -0.00124754 -0.0011527 -0.00105118 -0.00094907 -0.000846381 -0.000743109 -0.000639253 -0.000534814 -0.000429793 -0.000324188 -0.000223715 -0.000134089 -5.531e-05 1.26221e-05 6.97074e-05 0.000115946 0.000151337 0.000175882 0.000190012 0.000194161 0.000188329 0.000172516 0.000146721 0.000110946 6.51888e-05 9.45067e-06 -5.06905e-05 -0.000109656 -0.000167447 -0.000224062 -0.000279502 -0.000333767 -0.000386856 -0.000438771 -0.000485328 -0.000522346 -0.000549826 -0.000567767 -0.00057617 -0.000575034 -0.000564359 -0.000544145 -0.000517254 -0.000486544 -0.000452016 -0.00041367 -0.000371506 -0.000325524 -0.000275725 -0.000222107 -0.000170051 -0.000124935 -8.67605e-05 -5.55267e-05 -3.12338e-05 -1.38817e-05 -3.47042e-06 0 0 -4.8209e-06 -1.92836e-05 -4.33881e-05 -7.71344e-05 -0.000120523 -0.000173552 -0.000236224 -0.000308538 -0.000382999 -0.000452112 -0.000515879 -0.000574299 -0.000627372 -0.000675098 -0.000717476 -0.000754508 -0.00078225 -0.000796758 -0.000798034 -0.000786076 -0.000760885 -0.000722462 -0.000670805 -0.000605915 -0.000533559 -0.000459503 -0.000383747 -0.000306291 -0.000227136 -0.00014628 -6.37253e-05 2.05295e-05 9.88851e-05 0.000163742 0.000215101 0.000252961 0.000277323 0.000288186 0.000285551 0.000269418 0.000239212 0.00019436 0.000134862 6.07183e-05 -2.80717e-05 -0.000131508 -0.00024959 -0.000382318 -0.00052206 -0.000661184 -0.00079969 -0.000937578 -0.00107485 -0.0012115 -0.00134753 -0.00148295 -0.0016097 -0.00171973 -0.00181305 -0.00188965 -0.00194954 -0.00199271 -0.00201917 -0.00202891 -0.00202195 -0.00199828 -0.00195791 -0.00190085 -0.00182708 -0.00173661 -0.00162944 -0.00150557 -0.00137297 -0.0012396 -0.00110548 -0.000970591 -0.000834943 -0.000698533 -0.000561362 -0.000423429 -0.000292199 -0.000175137 -7.22416e-05 1.64861e-05 9.10464e-05 0.000151439 0.000197665 0.000229723 0.000248179 0.000253598 0.000245981 0.000225327 0.000191636 0.000144909 8.51446e-05 1.23437e-05 -6.6208e-05 -0.000143225 -0.000218706 -0.000292653 -0.000365064 -0.000435941 -0.000505282 -0.000573088 -0.000633898 -0.000682248 -0.00071814 -0.000741574 -0.000752549 -0.000751065 -0.000737122 -0.000710721 -0.000675596 -0.000635486 -0.000590388 -0.000540304 -0.000485233 -0.000425175 -0.00036013 -0.000290099 -0.000222107 -0.000163181 -0.00011332 -7.25247e-05 -4.07952e-05 -1.81312e-05 -4.53279e-06 0 0 -5.95895e-06 -2.38358e-05 -5.36305e-05 -9.53432e-05 -0.000148974 -0.000214522 -0.000291989 -0.000381373 -0.000473264 -0.000558252 -0.000636336 -0.000707516 -0.000771793 -0.000829166 -0.000879635 -0.0009232 -0.000954981 -0.000970095 -0.000968544 -0.000950326 -0.000915441 -0.000863891 -0.000795674 -0.000710791 -0.000616548 -0.000520251 -0.0004219 -0.000321495 -0.000219036 -0.000114523 -7.95537e-06 0.000100666 0.000201755 0.000285725 0.000352577 0.000402311 0.000434926 0.000450422 0.0004488 0.00043006 0.000393483 0.000338355 0.000264673 0.00017244 6.16531e-05 -6.76859e-05 -0.000215577 -0.000382022 -0.000557386 -0.00073204 -0.000905981 -0.00107921 -0.00125173 -0.00142354 -0.00159463 -0.00176502 -0.00192453 -0.00206303 -0.00218051 -0.00227697 -0.0023524 -0.00240682 -0.00244021 -0.00245259 -0.00244395 -0.00241431 -0.00236366 -0.00229201 -0.00219935 -0.00208568 -0.00195101 -0.00179534 -0.00162871 -0.00146118 -0.00129275 -0.00112342 -0.000953183 -0.00078205 -0.000610015 -0.00043708 -0.000272663 -0.000126183 2.35942e-06 0.000112964 0.000205632 0.000280362 0.000337154 0.000376009 0.000397633 0.000402734 0.000391311 0.000363364 0.000318893 0.000257899 0.00018038 8.63385e-05 -1.50363e-05 -0.000114553 -0.000212211 -0.000308012 -0.000401954 -0.000494038 -0.000584264 -0.000672631 -0.000752222 -0.000816116 -0.000864313 -0.000896814 -0.000913618 -0.000914726 -0.000900138 -0.000869853 -0.000828499 -0.000780704 -0.000726467 -0.000665788 -0.000598669 -0.000525107 -0.000445104 -0.00035866 -0.000274599 -0.000201746 -0.000140102 -8.9665e-05 -5.04366e-05 -2.24163e-05 -5.60407e-06 0 0 -6.96264e-06 -2.78506e-05 -6.26638e-05 -0.000111402 -0.000174066 -0.000250655 -0.00034117 -0.000445609 -0.000552561 -0.000650614 -0.000739766 -0.000820017 -0.000891369 -0.000953821 -0.00100737 -0.00105202 -0.00108205 -0.00109173 -0.00108106 -0.00105004 -0.000998666 -0.000926947 -0.000834879 -0.000722462 -0.000598737 -0.000472745 -0.000344486 -0.000213961 -8.11682e-05 5.38911e-05 0.000191217 0.00033081 0.000460922 0.000569804 0.000657456 0.000723879 0.000769073 0.000793037 0.000795771 0.000777276 0.000736692 0.000673158 0.000586676 0.000477244 0.000344863 0.000189534 1.12547e-05 -0.000189973 -0.000402334 -0.000614013 -0.000825009 -0.00103532 -0.00124495 -0.0014539 -0.00166216 -0.00186975 -0.0020642 -0.00223307 -0.00237637 -0.00249408 -0.00258622 -0.00265278 -0.00269376 -0.00270916 -0.00269899 -0.00266325 -0.00260194 -0.00251506 -0.00240262 -0.0022646 -0.00210101 -0.00191186 -0.00170945 -0.0015061 -0.00130182 -0.0010966 -0.000890434 -0.000683334 -0.000475295 -0.000266318 -6.79535e-05 0.000108247 0.000262283 0.000394156 0.000503864 0.000591409 0.000656789 0.000700006 0.000721907 0.000723342 0.00070431 0.000664811 0.000604846 0.000524414 0.000423516 0.000302151 0.000171583 4.30742e-05 -8.33742e-05 -0.000207763 -0.000330091 -0.00045036 -0.000568568 -0.000684717 -0.000790245 -0.000876593 -0.000943761 -0.000991748 -0.00102055 -0.00103018 -0.00102063 -0.000991891 -0.000949409 -0.000898615 -0.000839509 -0.000772091 -0.00069636 -0.000612317 -0.000519962 -0.000419295 -0.000321023 -0.000235853 -0.000163787 -0.000104824 -5.89633e-05 -2.62059e-05 -6.55148e-06 0 0 -7.83198e-06 -3.13279e-05 -7.04878e-05 -0.000125312 -0.0001958 -0.000281951 -0.000383767 -0.000501247 -0.00062089 -0.000729198 -0.000826168 -0.000911803 -0.000986101 -0.00104906 -0.00110069 -0.00114098 -0.00116346 -0.00116166 -0.00113557 -0.00108521 -0.00101056 -0.000911631 -0.00078842 -0.000640928 -0.000480125 -0.000316985 -0.000151506 1.63116e-05 0.000186467 0.000358961 0.000533792 0.000710962 0.000876386 0.00101598 0.00112974 0.00121767 0.00127976 0.00131603 0.00132646 0.00131107 0.00126884 0.00119877 0.00110087 0.000975132 0.000821559 0.000640151 0.000430907 0.000193827 -5.69045e-05 -0.000307105 -0.000556773 -0.00080591 -0.00105451 -0.00130259 -0.00155013 -0.00179714 -0.00202869 -0.00222985 -0.00240062 -0.002541 -0.00265099 -0.0027306 -0.00277981 -0.00279863 -0.00278707 -0.00274511 -0.00267276 -0.00257002 -0.00243689 -0.00227336 -0.00207945 -0.00185514 -0.0016152 -0.00137438 -0.00113269 -0.000890131 -0.000646695 -0.000402385 -0.000157201 8.8857e-05 0.000321928 0.000528153 0.00070753 0.000860061 0.000985744 0.00108458 0.00115657 0.00120171 0.001221 0.00121542 0.00118498 0.00112967 0.00104949 0.000944455 0.000814551 0.000659781 0.000493649 0.000329657 0.000167806 8.09472e-06 -0.000149476 -0.000304906 -0.000458196 -0.000609345 -0.000747968 -0.000863681 -0.000956483 -0.00102637 -0.00107336 -0.00109743 -0.00109858 -0.00107683 -0.00103833 -0.00098922 -0.000929515 -0.000859211 -0.000778308 -0.000686805 -0.000584703 -0.000472002 -0.000361377 -0.000265501 -0.000184376 -0.000118001 -6.63753e-05 -2.95002e-05 -7.37504e-06 0 0 -8.56697e-06 -3.42679e-05 -7.71027e-05 -0.000137071 -0.000214174 -0.000308411 -0.000419781 -0.000548286 -0.000678251 -0.000794004 -0.000895545 -0.000982873 -0.00105599 -0.00111489 -0.00115958 -0.00119006 -0.0011992 -0.00117988 -0.00113209 -0.00105584 -0.000951123 -0.000817942 -0.000656297 -0.000466188 -0.000260713 -5.29695e-05 0.000157042 0.000369322 0.00058387 0.000800686 0.00101977 0.00124112 0.00144815 0.00162425 0.00176942 0.00188367 0.001967 0.0020194 0.00204088 0.00203143 0.00198992 0.00191519 0.00180725 0.0016661 0.00149174 0.00128417 0.00104338 0.000769379 0.000478903 0.000188686 -0.000101274 -0.000390975 -0.000680417 -0.000969602 -0.00125853 -0.0015472 -0.00181801 -0.00205337 -0.00225327 -0.00241772 -0.00254672 -0.00264027 -0.00269836 -0.002721 -0.00270818 -0.00265989 -0.00257612 -0.00245687 -0.00230216 -0.00211197 -0.00188631 -0.00162517 -0.00134594 -0.00106601 -0.00078537 -0.000504022 -0.000221966 6.07968e-05 0.000344267 0.000628445 0.000896983 0.00113353 0.0013381 0.00151068 0.00165127 0.00175988 0.0018365 0.00188113 0.00189491 0.00187897 0.00183331 0.00175794 0.00165284 0.00151802 0.00135348 0.00115923 0.000951162 0.000745195 0.000541328 0.00033956 0.000139892 -5.76764e-05 -0.000253145 -0.000446515 -0.000625391 -0.00077738 -0.000902481 -0.0010007 -0.00107202 -0.00111646 -0.00113401 -0.00112468 -0.00109525 -0.00105252 -0.000996485 -0.000927149 -0.000844511 -0.000748571 -0.000639328 -0.000516783 -0.000395662 -0.000290691 -0.000201869 -0.000129196 -7.26727e-05 -3.2299e-05 -8.07474e-06 0 0 -9.1676e-06 -3.66704e-05 -8.25084e-05 -0.000146682 -0.00022919 -0.000330033 -0.000449212 -0.000586726 -0.000724644 -0.000845033 -0.000947894 -0.00103323 -0.00110103 -0.00115131 -0.00118406 -0.00119928 -0.00118929 -0.0011464 -0.00107061 -0.000961932 -0.000820354 -0.00064588 -0.00043851 -0.000198243 5.95e-05 0.0003193 0.000581157 0.00084507 0.00111104 0.00137907 0.00164915 0.00192129 0.00217621 0.00239461 0.00257651 0.0027219 0.00283078 0.00290315 0.00293902 0.00293838 0.00289994 0.00282242 0.00270583 0.00255016 0.00235541 0.00212158 0.00184867 0.00153668 0.00120509 0.000873358 0.000541489 0.000209483 -0.00012266 -0.000454941 -0.000787359 -0.00111991 -0.00143215 -0.00170362 -0.00193432 -0.00212425 -0.00227341 -0.0023818 -0.00244942 -0.00247627 -0.00246233 -0.00240758 -0.00231201 -0.00217562 -0.00199843 -0.00178042 -0.00152159 -0.00122196 -0.000901692 -0.000580989 -0.000259848 6.17333e-05 0.000383753 0.000706212 0.00102911 0.00135245 0.00165721 0.00192439 0.00215399 0.00234601 0.00250045 0.0026173 0.00269657 0.00273826 0.00274364 0.002714 0.00264932 0.00254961 0.00241488 0.00224511 0.00204032 0.00180049 0.00154412 0.00128969 0.00103719 0.000786634 0.000538013 0.000291329 4.6582e-05 -0.000196227 -0.000422513 -0.000617688 -0.000781754 -0.00091471 -0.00101656 -0.00108729 -0.00112692 -0.00113543 -0.00112018 -0.00108851 -0.00104042 -0.000975905 -0.00089497 -0.000797614 -0.000683836 -0.000553638 -0.000423879 -0.000311421 -0.000216265 -0.000138409 -7.78553e-05 -3.46023e-05 -8.65059e-06 0 0 -9.63387e-06 -3.85355e-05 -8.67048e-05 -0.000154142 -0.000240847 -0.000346819 -0.00047206 -0.000616568 -0.000760068 -0.000882284 -0.000983217 -0.00106287 -0.00112123 -0.00115831 -0.00117411 -0.00116862 -0.00113371 -0.00106121 -0.000951138 -0.000803486 -0.000618255 -0.000395446 -0.000135059 0.000162907 0.000480513 0.000799824 0.00112084 0.00144356 0.00176798 0.0020941 0.00242193 0.00275147 0.00306056 0.00332707 0.003551 0.00373234 0.00387111 0.00396728 0.00402088 0.00403189 0.0039989 0.00392046 0.0037966 0.0036273 0.00341256 0.00315239 0.00284678 0.00249574 0.00212165 0.00174691 0.00137151 0.000995463 0.000618756 0.000241395 -0.000136622 -0.000515294 -0.000871123 -0.00118061 -0.00144377 -0.00166058 -0.00183105 -0.00195518 -0.00203298 -0.00206444 -0.00204952 -0.00198818 -0.00188043 -0.00172627 -0.0015257 -0.00127871 -0.000985312 -0.000645498 -0.000282443 8.06809e-05 0.000443873 0.000807133 0.00117046 0.00153386 0.00189732 0.00226086 0.00260261 0.00290073 0.00315521 0.00336606 0.00353327 0.00365685 0.00373679 0.0037731 0.00376719 0.00372049 0.003633 0.0035047 0.00333562 0.00312573 0.00287505 0.00258358 0.00227253 0.00196314 0.0016554 0.00134932 0.00104489 0.000742109 0.000440987 0.000141518 -0.000139334 -0.000384607 -0.000594302 -0.000768417 -0.000906954 -0.00100991 -0.00107729 -0.00110909 -0.00111312 -0.0010972 -0.00106132 -0.00100548 -0.000929685 -0.000833934 -0.000718228 -0.000582565 -0.000446026 -0.000327693 -0.000227564 -0.000145641 -8.19232e-05 -3.64103e-05 -9.10258e-06 0 0 -9.96579e-06 -3.98632e-05 -8.96921e-05 -0.000159453 -0.000249145 -0.000358769 -0.000488324 -0.000637811 -0.000784524 -0.000905758 -0.00100151 -0.00107179 -0.00111659 -0.0011359 -0.00112974 -0.0010981 -0.00103247 -0.000924321 -0.000773666 -0.0005805 -0.000344825 -6.66392e-05 0.000254056 0.000617262 0.00100233 0.0013886 0.00177609 0.00216478 0.00255468 0.0029458 0.00333812 0.00373165 0.00410121 0.00442163 0.00469289 0.00491501 0.00508797 0.00521179 0.00528646 0.00531198 0.00528679 0.00520931 0.00507956 0.00489752 0.0046632 0.0043766 0.00403771 0.00364655 0.0032286 0.00280935 0.0023888 0.00196697 0.00154383 0.0011194 0.000693682 0.000266664 -0.000134921 -0.000484345 -0.000781607 -0.00102671 -0.00121965 -0.00136043 -0.00144904 -0.0014855 -0.00146974 -0.0014017 -0.0012814 -0.00110882 -0.000883972 -0.000606851 -0.000277458 0.000104207 0.000511806 0.000919 0.00132579 0.00173218 0.00213816 0.00254374 0.00294891 0.00335369 0.00373318 0.00406254 0.00434175 0.00457081 0.00474974 0.00487852 0.00495716 0.00498565 0.00496556 0.00489846 0.00478434 0.0046232 0.00441505 0.00415987 0.00385768 0.00350848 0.00313639 0.00276554 0.00239595 0.00202761 0.00166051 0.00129467 0.000930069 0.000566721 0.000224145 -7.81369e-05 -0.000340125 -0.000561818 -0.000743218 -0.000884323 -0.000985134 -0.00104565 -0.00107407 -0.00107858 -0.00105918 -0.00101587 -0.000948655 -0.000857533 -0.000742503 -0.000603565 -0.000462105 -0.000339506 -0.000235768 -0.000150891 -8.48764e-05 -3.77228e-05 -9.43071e-06 0 0 -1.01634e-05 -4.06534e-05 -9.14702e-05 -0.000162614 -0.000254084 -0.000365881 -0.000498005 -0.000650455 -0.000798012 -0.000915454 -0.00100278 -0.00106 -0.0010871 -0.00108408 -0.00105095 -0.000987709 -0.000885563 -0.000735725 -0.000538196 -0.000292976 -6.34161e-08 0.00034054 0.000728836 0.00116482 0.00162494 0.00208564 0.0025469 0.00300874 0.00347116 0.00393415 0.00439771 0.00486184 0.00529816 0.00567828 0.00600219 0.00626989 0.00648139 0.00663668 0.00673577 0.00677865 0.00676362 0.00668897 0.00655471 0.00636082 0.00610732 0.0057942 0.00542146 0.00498911 0.00452592 0.00406066 0.00359336 0.00312399 0.00265257 0.00217909 0.00170355 0.00122596 0.000776454 0.000385186 5.21544e-05 -0.000222641 -0.000439199 -0.000597522 -0.000697607 -0.000739457 -0.000722993 -0.00064814 -0.000514897 -0.000323265 -7.32439e-05 0.000235167 0.000601967 0.00102716 0.00148105 0.00193397 0.00238591 0.00283687 0.00328685 0.00373585 0.00418388 0.00463092 0.00504893 0.00540982 0.00571361 0.00596029 0.00614986 0.00628232 0.00635767 0.00637591 0.00633875 0.0062479 0.00610335 0.00590511 0.00565317 0.00534754 0.00498822 0.0045752 0.00413569 0.0036969 0.00325884 0.0028215 0.00238489 0.001949 0.00151383 0.00107938 0.000667925 0.000301723 -1.92225e-05 -0.000294913 -0.000525347 -0.000710526 -0.00085045 -0.000945118 -0.00100302 -0.00103265 -0.001034 -0.00100708 -0.000951881 -0.000868409 -0.000756661 -0.000616639 -0.000472114 -0.00034686 -0.000240875 -0.00015416 -8.67149e-05 -3.85399e-05 -9.63499e-06 0 0 -1.00892e-05 -4.03568e-05 -9.08028e-05 -0.000161427 -0.00025223 -0.000363211 -0.000494371 -0.000645709 -0.00078951 -0.000898061 -0.000971361 -0.00100941 -0.00101221 -0.000979755 -0.000912051 -0.000809096 -0.000662004 -0.000461888 -0.00020875 9.74121e-05 0.000456597 0.000868806 0.00133404 0.00185229 0.00239692 0.00294129 0.00348538 0.0040292 0.00457275 0.00511603 0.00565905 0.00620179 0.00671253 0.00715955 0.00754284 0.0078624 0.00811823 0.00831034 0.00843872 0.00850337 0.00850246 0.00843413 0.0082984 0.00809526 0.00782471 0.00748675 0.00708138 0.0066086 0.00610061 0.00558962 0.00507561 0.0045586 0.00403858 0.00351556 0.00298952 0.00246048 0.00196213 0.00152817 0.00115859 0.000853409 0.000612616 0.000436212 0.000324199 0.000276574 0.000293441 0.000374901 0.000520955 0.000731601 0.00100684 0.00134667 0.0017511 0.00222012 0.00272057 0.00321931 0.00371633 0.00421164 0.00470523 0.0051971 0.00568725 0.00617569 0.00663103 0.00702187 0.00734822 0.00761009 0.00780746 0.00794035 0.00800874 0.00801264 0.0079539 0.00783437 0.00765404 0.00741291 0.00711099 0.00674828 0.00632477 0.00584046 0.00532576 0.00481109 0.00429643 0.0037818 0.00326718 0.00275258 0.00223801 0.00172345 0.00123409 0.000795104 0.000406493 6.82566e-05 -0.000219605 -0.000457093 -0.000644206 -0.000780945 -0.000875937 -0.000937811 -0.000966567 -0.000962205 -0.000924725 -0.000854127 -0.00075041 -0.000613575 -0.000469769 -0.000345136 -0.000239678 -0.000153394 -8.6284e-05 -3.83485e-05 -9.58711e-06 0 0 -9.60594e-06 -3.84238e-05 -8.64535e-05 -0.000153695 -0.000240149 -0.000345814 -0.000470691 -0.00061478 -0.000748 -0.000840269 -0.000891586 -0.000901953 -0.000871369 -0.000799833 -0.000687347 -0.00053391 -0.000330794 -6.92728e-05 0.000250654 0.000628987 0.00106573 0.00156087 0.00211442 0.00272638 0.00336684 0.00400592 0.00464361 0.00527991 0.00591482 0.00654834 0.00718048 0.00781123 0.00840544 0.00892796 0.00937879 0.00975794 0.0100654 0.0103012 0.0104652 0.0105576 0.0105764 0.0105195 0.010387 0.0101789 0.00989513 0.00953577 0.0091008 0.0085902 0.00803969 0.00748496 0.00692602 0.00636286 0.0057955 0.00522392 0.00464812 0.00406811 0.00352122 0.00304478 0.00263878 0.00230323 0.00203812 0.00184346 0.00171925 0.00166548 0.00168229 0.00176982 0.00192805 0.00215699 0.00245664 0.002827 0.00326807 0.00377984 0.00432564 0.00486875 0.00540918 0.00594693 0.00648199 0.00701438 0.00754408 0.0080711 0.00856066 0.00897796 0.00932302 0.00959583 0.0097964 0.00992471 0.00998078 0.0099646 0.00987816 0.00972342 0.0095004 0.00920909 0.0088495 0.00842162 0.00792545 0.00736099 0.00676193 0.00616196 0.00556107 0.00495926 0.00435654 0.0037529 0.00314835 0.00254287 0.00196472 0.00144214 0.000975111 0.000563647 0.000207746 -9.2594e-05 -0.000337372 -0.000526587 -0.000668774 -0.000772463 -0.000837655 -0.000864351 -0.000852549 -0.000802251 -0.000713455 -0.000586163 -0.000448781 -0.000329717 -0.00022897 -0.000146541 -8.24292e-05 -3.66352e-05 -9.1588e-06 0 0 -8.71359e-06 -3.48544e-05 -7.84223e-05 -0.000139417 -0.00021784 -0.000313689 -0.000426966 -0.00055767 -0.00067348 -0.000742076 -0.000763458 -0.000737625 -0.000664578 -0.000544317 -0.000376841 -0.000162151 0.000108066 0.000442121 0.000840016 0.00130175 0.00182732 0.00241673 0.00306998 0.00378707 0.00453469 0.00527953 0.00602159 0.00676086 0.00749736 0.00823108 0.00896201 0.00969016 0.0103769 0.0109835 0.0115101 0.0119565 0.0123229 0.0126091 0.0128153 0.0129414 0.0129854 0.012945 0.0128205 0.0126117 0.0123186 0.0119413 0.0114797 0.0109339 0.0103431 0.00974669 0.00914457 0.00853677 0.00792331 0.00730417 0.00667935 0.00604886 0.00545374 0.00493503 0.00449272 0.00412682 0.00383732 0.00362423 0.00348755 0.00342727 0.00344357 0.0035366 0.00370638 0.00395289 0.00427614 0.00467614 0.00515287 0.00570634 0.00629625 0.00688228 0.00746444 0.00804273 0.00861715 0.00918769 0.00975435 0.0103171 0.0108378 0.0112781 0.011638 0.0119175 0.0121167 0.0122354 0.0122738 0.0122318 0.0121115 0.0119151 0.0116424 0.0112936 0.0108687 0.0103676 0.00979026 0.0091368 0.0084442 0.00774952 0.00705276 0.00635391 0.00565297 0.00494995 0.00424485 0.00353765 0.00285983 0.00224282 0.00168663 0.00119126 0.000756706 0.000382971 7.00536e-05 -0.000182045 -0.000381529 -0.000536602 -0.000647264 -0.000713514 -0.000735353 -0.000712781 -0.000645797 -0.000534402 -0.000409152 -0.000300601 -0.000208751 -0.000133601 -7.51503e-05 -3.34001e-05 -8.35003e-06 0 0 -7.41214e-06 -2.96486e-05 -6.67093e-05 -0.000118594 -0.000185304 -0.000266837 -0.00036319