<?xml version="1.0"?> 
<VTKFile type="StructuredGrid" version="0.1"> 
<StructuredGrid WholeExtent="0 128 0 128 0 0"> 
<Piece Extent="0 128 0 128 0 0"> 
<PointData>
<DataArray type="Float32" Name="u" format="ascii" NumberOfComponents="1"> 
0 0 0 0 0 0 0 0 0 0 0 0 0 0 0 0 0 0 0 0 0 0 0 0 0 0 0 0 0 0 0 0 0 0 0 0 0 0 0 0 0 0 0 0 0 0 0 0 0 0 0 0 0 0 0 0 0 0 0 0 0 0 0 0 0 0 0 0 0 0 0 0 0 0 0 0 0 0 0 0 0 0 0 0 0 0 0 0 0 0 0 0 0 0 0 0 0 0 0 0 0 0 0 0 0 0 0 0 0 0 0 0 0 0 0 0 0 0 0 0 0 0 0 0 0 0 0 0 0 0 6.25572e-08 2.50229e-07 5.63015e-07 1.00092e-06 1.56393e-06 2.25206e-06 3.0653e-06 4.00366e-06 5.09417e-06 6.36385e-06 7.81271e-06 9.44076e-06 1.1248e-05 1.32344e-05 1.54e-05 1.77447e-05 2.02156e-05 2.27594e-05 2.53763e-05 2.80661e-05 3.0829e-05 3.36649e-05 3.65738e-05 3.95557e-05 4.2556e-05 4.55203e-05 4.84485e-05 5.13406e-05 5.41966e-05 5.70165e-05 5.98003e-05 6.25481e-05 6.523e-05 6.78164e-05 7.03072e-05 7.27026e-05 7.50023e-05 7.72066e-05 7.93153e-05 8.13285e-05 8.32373e-05 8.50328e-05 8.67152e-05 8.82843e-05 8.97402e-05 9.10829e-05 9.23124e-05 9.34286e-05 9.44354e-05 9.53366e-05 9.6132e-05 9.68218e-05 9.74059e-05 9.78843e-05 9.82571e-05 9.85241e-05 9.86937e-05 9.87738e-05 9.87646e-05 9.8666e-05 9.8478e-05 9.82006e-05 9.78338e-05 9.73776e-05 9.6839e-05 9.62249e-05 9.55353e-05 9.47703e-05 9.39298e-05 9.30138e-05 9.20224e-05 9.09554e-05 8.98176e-05 8.86132e-05 8.73425e-05 8.60052e-05 8.46015e-05 8.31314e-05 8.15948e-05 7.99918e-05 7.83272e-05 7.66059e-05 7.48278e-05 7.29931e-05 7.11017e-05 6.91535e-05 6.71486e-05 6.50871e-05 6.29792e-05 6.08353e-05 5.86555e-05 5.64397e-05 5.4188e-05 5.19003e-05 4.95767e-05 4.72171e-05 4.48428e-05 4.24747e-05 4.01131e-05 3.77578e-05 3.54088e-05 3.30662e-05 3.073e-05 2.84001e-05 2.61109e-05 2.38966e-05 2.17573e-05 1.96928e-05 1.77034e-05 1.57888e-05 1.39492e-05 1.21845e-05 1.0524e-05 8.997e-06 7.60346e-06 6.34339e-06 5.21679e-06 4.22366e-06 3.364e-06 2.63781e-06 2.01958e-06 1.48377e-06 1.0304e-06 6.59453e-07 3.70942e-07 1.64863e-07 4.12158e-08 0 0 2.50229e-07 1.00092e-06 2.25206e-06 4.00366e-06 6.25572e-06 9.00824e-06 1.22612e-05 1.60146e-05 2.03767e-05 2.54554e-05 3.12509e-05 3.7763e-05 4.49919e-05 5.29375e-05 6.15998e-05 7.09788e-05 8.08622e-05 9.10376e-05 0.000101505 0.000112265 0.000123316 0.00013466 0.000146295 0.000158223 0.000170224 0.000182081 0.000193794 0.000205362 0.000216786 0.000228066 0.000239201 0.000250192 0.00026092 0.000271266 0.000281229 0.00029081 0.000300009 0.000308826 0.000317261 0.000325314 0.000332949 0.000340131 0.000346861 0.000353137 0.000358961 0.000364332 0.00036925 0.000373715 0.000377742 0.000381346 0.000384528 0.000387287 0.000389624 0.000391537 0.000393028 0.000394097 0.000394775 0.000395095 0.000395058 0.000394664 0.000393912 0.000392802 0.000391335 0.00038951 0.000387356 0.000384899 0.000382141 0.000379081 0.000375719 0.000372055 0.000368089 0.000363822 0.00035927 0.000354453 0.00034937 0.000344021 0.000338406 0.000332526 0.000326379 0.000319967 0.000313309 0.000306423 0.000299311 0.000291972 0.000284407 0.000276614 0.000268595 0.000260348 0.000251917 0.000243341 0.000234622 0.000225759 0.000216752 0.000207601 0.000198307 0.000188869 0.000179371 0.000169899 0.000160452 0.000151031 0.000141635 0.000132265 0.00012292 0.000113601 0.000104444 9.55865e-05 8.70291e-05 7.87714e-05 7.08134e-05 6.31552e-05 5.57967e-05 4.8738e-05 4.20961e-05 3.5988e-05 3.04138e-05 2.53736e-05 2.08672e-05 1.68946e-05 1.3456e-05 1.05512e-05 8.0783e-06 5.93508e-06 4.12158e-06 2.63781e-06 1.48377e-06 6.59453e-07 1.64863e-07 0 0 5.63015e-07 2.25206e-06 5.06714e-06 9.00824e-06 1.40754e-05 2.02685e-05 2.75877e-05 3.6033e-05 4.58475e-05 5.72747e-05 7.03144e-05 8.49668e-05 0.000101232 0.000119109 0.0001386 0.000159702 0.00018194 0.000204835 0.000228386 0.000252595 0.000277461 0.000302984 0.000329164 0.000356001 0.000383004 0.000409683 0.000436036 0.000462065 0.000487769 0.000513148 0.000538203 0.000562932 0.00058707 0.000610347 0.000632765 0.000654323 0.000675021 0.000694859 0.000713838 0.000731956 0.000749135 0.000765296 0.000780437 0.000794559 0.000807662 0.000819746 0.000830812 0.000840858 0.000849919 0.000858029 0.000865188 0.000871396 0.000876653 0.000880959 0.000884314 0.000886717 0.000888243 0.000888964 0.000888881 0.000887994 0.000886302 0.000883805 0.000880504 0.000876398 0.000871551 0.000866024 0.000859818 0.000852933 0.000845368 0.000837124 0.000828201 0.000818599 0.000808358 0.000797519 0.000786082 0.000774047 0.000761414 0.000748183 0.000734354 0.000719926 0.000704945 0.000689453 0.000673451 0.000656938 0.000639915 0.000622382 0.000604338 0.000585784 0.000566812 0.000547518 0.000527899 0.000507958 0.000487692 0.000467103 0.00044619 0.000424954 0.000403585 0.000382273 0.000361018 0.00033982 0.000318679 0.000297596 0.00027657 0.000255601 0.000234998 0.00021507 0.000195815 0.000177236 0.00015933 0.000142099 0.000125543 0.000109661 9.47162e-05 8.0973e-05 6.84312e-05 5.70905e-05 4.69511e-05 3.80129e-05 3.0276e-05 2.37403e-05 1.81762e-05 1.33539e-05 9.27356e-06 5.93508e-06 3.33848e-06 1.48377e-06 3.70942e-07 0 0 1.00092e-06 4.00366e-06 9.00824e-06 1.60146e-05 2.50229e-05 3.6033e-05 4.90449e-05 6.40586e-05 8.15067e-05 0.000101822 0.000125003 0.000151052 0.000179968 0.00021175 0.000246399 0.000283915 0.000323449 0.000364151 0.00040602 0.000449058 0.000493264 0.000538638 0.00058518 0.000632891 0.000680896 0.000728325 0.000775175 0.000821449 0.000867145 0.000912264 0.000956805 0.00100077 0.00104368 0.00108506 0.00112492 0.00116324 0.00120004 0.00123531 0.00126904 0.00130126 0.0013318 0.00136053 0.00138744 0.00141255 0.00143584 0.00145733 0.001477 0.00149486 0.00151097 0.00152538 0.00153811 0.00154915 0.00155849 0.00156615 0.00157211 0.00157639 0.0015791 0.00158038 0.00158023 0.00157866 0.00157565 0.00157121 0.00156534 0.00155804 0.00154942 0.0015396 0.00152856 0.00151632 0.00150288 0.00148822 0.00147236 0.00145529 0.00143708 0.00141781 0.00139748 0.00137608 0.00135362 0.0013301 0.00130552 0.00127987 0.00125324 0.00122569 0.00119725 0.00116789 0.00113763 0.00110646 0.00107438 0.00104139 0.00100767 0.000973365 0.000938488 0.000903036 0.000867008 0.000830406 0.000793227 0.000755474 0.000717484 0.000679596 0.000641809 0.000604124 0.000566541 0.00052906 0.00049168 0.000454402 0.000417775 0.000382346 0.000348116 0.000315086 0.000283254 0.000252621 0.000223187 0.000194952 0.000168384 0.000143952 0.000121655 0.000101494 8.34686e-05 6.75786e-05 5.3824e-05 4.2205e-05 3.23132e-05 2.37403e-05 1.64863e-05 1.05512e-05 5.93508e-06 2.63781e-06 6.59453e-07 0 0 1.56393e-06 6.25572e-06 1.40754e-05 2.50229e-05 3.90983e-05 5.63015e-05 7.66326e-05 0.000100092 0.000127354 0.000159096 0.000195318 0.000236019 0.000281199 0.000330859 0.000384999 0.000443618 0.000505389 0.000568985 0.000634407 0.000701653 0.000770725 0.000841622 0.000914344 0.000988892 0.0010639 0.00113801 0.00121121 0.00128351 0.00135491 0.00142541 0.00149501 0.0015637 0.00163075 0.00169541 0.00175768 0.00181756 0.00187506 0.00193016 0.00198288 0.00203321 0.00208093 0.00212582 0.00216788 0.00220711 0.00224351 0.00227707 0.00230781 0.00233572 0.00236089 0.00238341 0.0024033 0.00242054 0.00243515 0.00244711 0.00245643 0.0024631 0.00246734 0.00246935 0.00246911 0.00246665 0.00246195 0.00245501 0.00244584 0.00243444 0.00242097 0.00240562 0.00238838 0.00236926 0.00234824 0.00232535 0.00230056 0.00227389 0.00224544 0.00221533 0.00218356 0.00215013 0.00211504 0.00207829 0.00203987 0.0019998 0.00195818 0.00191515 0.0018707 0.00182483 0.00177754 0.00172884 0.00167872 0.00162718 0.00157448 0.00152088 0.00146639 0.00141099 0.0013547 0.00129751 0.00123942 0.00118043 0.00112107 0.00106187 0.00100283 0.000943944 0.000885221 0.000826656 0.00076825 0.000710004 0.000652773 0.000597416 0.000543932 0.000492321 0.000442584 0.00039472 0.00034873 0.000304613 0.0002631 0.000224925 0.000190087 0.000158585 0.00013042 0.000105591 8.41e-05 6.59453e-05 5.04894e-05 3.70942e-05 2.57599e-05 1.64863e-05 9.27356e-06 4.12158e-06 1.0304e-06 0 0 2.25206e-06 9.00824e-06 2.02685e-05 3.6033e-05 5.63015e-05 8.10742e-05 0.000110351 0.000144132 0.00018339 0.000229099 0.000281258 0.000339867 0.000404927 0.000476437 0.000554398 0.000638809 0.00072776 0.000819339 0.000913546 0.00101038 0.00110984 0.00121194 0.00131666 0.001424 0.00153202 0.00163873 0.00174414 0.00184826 0.00195108 0.00205259 0.00215281 0.00225173 0.00234828 0.00244139 0.00253106 0.00261729 0.00270008 0.00277944 0.00285535 0.00292783 0.00299654 0.00306118 0.00312175 0.00317824 0.00323065 0.00327899 0.00332325 0.00336343 0.00339968 0.00343212 0.00346075 0.00348558 0.00350661 0.00352384 0.00353725 0.00354687 0.00355297 0.00355586 0.00355553 0.00355197 0.00354521 0.00353522 0.00352202 0.00350559 0.0034862 0.0034641 0.00343927 0.00341173 0.00338147 0.0033485 0.00331281 0.0032744 0.00323343 0.00319008 0.00314433 0.00309619 0.00304566 0.00299273 0.00293741 0.0028797 0.00281978 0.00275781 0.0026938 0.00262775 0.00255966 0.00248953 0.00241735 0.00234313 0.00226725 0.00219007 0.0021116 0.00203183 0.00195077 0.00186841 0.00178476 0.00169982 0.00161434 0.00152909 0.00144407 0.00135928 0.00127472 0.00119038 0.00110628 0.00102241 0.000939993 0.000860279 0.000783262 0.000708943 0.000637321 0.000568397 0.000502171 0.000438642 0.000378865 0.000323892 0.000273725 0.000228362 0.000187804 0.000152052 0.000121104 9.49612e-05 7.27047e-05 5.34157e-05 3.70942e-05 2.37403e-05 1.33539e-05 5.93508e-06 1.48377e-06 0 0 3.0653e-06 1.22612e-05 2.75877e-05 4.90449e-05 7.66326e-05 0.000110351 0.0001502 0.000196179 0.000249614 0.000311829 0.000382823 0.000462597 0.000551151 0.000648484 0.000754598 0.000869491 0.000990562 0.00111521 0.00124344 0.00137524 0.00151062 0.00164958 0.00179212 0.00193823 0.00208524 0.00223049 0.00237397 0.00251569 0.00265563 0.00279381 0.00293021 0.00306485 0.00319627 0.003323 0.00344505 0.00356243 0.00367511 0.00378312 0.00388645 0.0039851 0.00407863 0.00416661 0.00424904 0.00432593 0.00439727 0.00446306 0.00452331 0.004578 0.00462734 0.00467149 0.00471047 0.00474427 0.00477289 0.00479633 0.0048146 0.00482768 0.00483599 0.00483992 0.00483947 0.00483463 0.00482542 0.00481183 0.00479385 0.0047715 0.00474511 0.00471502 0.00468123 0.00464374 0.00460256 0.00455768 0.0045091 0.00445682 0.00440106 0.00434205 0.00427978 0.00421426 0.00414548 0.00407344 0.00399815 0.0039196 0.00383803 0.00375369 0.00366656 0.00357666 0.00348398 0.00338852 0.00329028 0.00318927 0.00308598 0.00298093 0.00287412 0.00276555 0.00265521 0.00254312 0.00242926 0.00231364 0.0021973 0.00208126 0.00196554 0.00185013 0.00173503 0.00162025 0.00150577 0.00139161 0.00127943 0.00117093 0.00106611 0.00096495 0.000867465 0.000773652 0.00068351 0.000597041 0.000515677 0.000440853 0.00037257 0.000310826 0.000255623 0.000206959 0.000164836 0.000129253 9.89592e-05 7.27047e-05 5.04894e-05 3.23132e-05 1.81762e-05 8.0783e-06 2.01958e-06 0 0 4.00366e-06 1.60146e-05 3.6033e-05 6.40586e-05 0.000100092 0.000144132 0.000196179 0.000256234 0.000326027 0.000407286 0.000500014 0.000604208 0.00071987 0.000847 0.000985597 0.00113566 0.0012938 0.0014566 0.00162408 0.00179623 0.00197306 0.00215455 0.00234072 0.00253156 0.00272359 0.0029133 0.0031007 0.0032858 0.00346858 0.00364905 0.00382722 0.00400308 0.00417472 0.00434025 0.00449966 0.00465296 0.00480015 0.00494122 0.00507618 0.00520502 0.00532719 0.0054421 0.00554977 0.0056502 0.00574337 0.00582931 0.00590799 0.00597943 0.00604387 0.00610154 0.00615245 0.00619659 0.00623398 0.0062646 0.00628845 0.00630554 0.0063164 0.00632153 0.00632093 0.00631462 0.00630259 0.00628484 0.00626136 0.00623216 0.00619769 0.00615839 0.00611426 0.0060653 0.00601151 0.00595288 0.00588943 0.00582115 0.00574832 0.00567125 0.00558992 0.00550433 0.0054145 0.00532041 0.00522207 0.00511948 0.00501294 0.00490278 0.00478898 0.00467156 0.00455051 0.00442582 0.00429751 0.00416557 0.00403067 0.00389346 0.00375395 0.00361214 0.00346803 0.00332162 0.00317291 0.0030219 0.00286994 0.00271838 0.00256724 0.0024165 0.00226616 0.00211624 0.00196672 0.00181761 0.0016711 0.00152938 0.00139247 0.00126034 0.00113302 0.00101048 0.000892748 0.000779808 0.000673537 0.000575808 0.000486622 0.000405977 0.000333875 0.000270314 0.000215296 0.00016882 0.000129253 9.49612e-05 6.59453e-05 4.2205e-05 2.37403e-05 1.05512e-05 2.63781e-06 0 0 5.10013e-06 2.04005e-05 4.59012e-05 8.16021e-05 0.000127503 0.000183605 0.000249906 0.000326408 0.000415247 0.000518559 0.000636344 0.000768602 0.000915334 0.00107654 0.00125222 0.00144237 0.0016427 0.00184891 0.002061 0.00227897 0.00250283 0.00273257 0.00296818 0.00320969 0.00345267 0.00369273 0.00392988 0.0041641 0.00439541 0.00462379 0.00484926 0.0050718 0.00528903 0.00549853 0.0057003 0.00589434 0.00608066 0.00625925 0.00643012 0.00659326 0.00674796 0.00689349 0.00702985 0.00715705 0.00727509 0.00738396 0.00748367 0.00757421 0.00765589 0.00772901 0.00779357 0.00784956 0.00789699 0.00793586 0.00796617 0.00798791 0.00800175 0.00800834 0.00800768 0.00799977 0.0079846 0.00796219 0.00793253 0.00789562 0.00785202 0.0078023 0.00774646 0.00768449 0.0076164 0.00754218 0.00746185 0.00737538 0.00728317 0.00718556 0.00708256 0.00697418 0.00686041 0.00674125 0.0066167 0.00648676 0.00635184 0.00621231 0.0060682 0.0059195 0.0057662 0.00560831 0.00544582 0.00527875 0.00510792 0.00493419 0.00475754 0.00457799 0.00439554 0.00421017 0.0040219 0.00383072 0.00363835 0.00344649 0.00325514 0.0030643 0.00287399 0.00268418 0.00249489 0.00230611 0.00212062 0.00194116 0.00176776 0.0016004 0.00143909 0.00128382 0.0011346 0.000991423 0.000856665 0.000732694 0.00061951 0.000517114 0.000425506 0.000344686 0.000274652 0.000215407 0.000164921 0.000121166 8.41433e-05 5.38517e-05 3.02916e-05 1.34629e-05 3.36573e-06 0 0 6.38771e-06 2.55508e-05 5.74894e-05 0.000102203 0.000159693 0.000229957 0.000312998 0.000408813 0.000519895 0.000648733 0.000795328 0.00095968 0.00114179 0.00134165 0.00155928 0.00179465 0.0020425 0.00229752 0.00255971 0.00282907 0.00310561 0.00338933 0.00368021 0.00397827 0.00427813 0.00457438 0.00486705 0.00515612 0.00544159 0.00572347 0.00600176 0.00627645 0.0065446 0.00680324 0.00705237 0.007292 0.00752212 0.00774274 0.00795386 0.00815547 0.00834667 0.00852659 0.0086952 0.00885252 0.00899855 0.00913327 0.00925671 0.00936884 0.00947004 0.00956066 0.0096407 0.00971017 0.00976906 0.00981736 0.00985509 0.00988224 0.00989962 0.00990802 0.00990744 0.00989788 0.00987935 0.00985185 0.00981537 0.00976991 0.00971617 0.00965484 0.00958592 0.00950942 0.00942532 0.00933364 0.00923437 0.00912751 0.00901353 0.00889287 0.00876555 0.00863155 0.00849089 0.00834356 0.00818956 0.00802889 0.00786205 0.00768955 0.00751137 0.00732753 0.00713802 0.00694284 0.006742 0.00653548 0.00632434 0.00610963 0.00589134 0.00566948 0.00544404 0.00521502 0.00498242 0.00474625 0.00450861 0.0042716 0.00403522 0.00379948 0.00356436 0.00332988 0.00309603 0.00286282 0.00263361 0.00241181 0.00219741 0.0019904 0.00179079 0.00159859 0.00141378 0.00123636 0.00106928 0.000915446 0.000774866 0.000647538 0.000533464 0.000432642 0.000345074 0.000270758 0.000207299 0.000152301 0.000105765 6.76895e-05 3.80753e-05 1.69224e-05 4.23059e-06 0 0 7.86639e-06 3.14656e-05 7.07975e-05 0.000125862 0.00019666 0.00028319 0.000385453 0.000503449 0.00063997 0.000797809 0.000976966 0.00117744 0.00139923 0.00164235 0.00190677 0.00219252 0.0024932 0.00280243 0.00312021 0.00344654 0.00378141 0.00412484 0.00447681 0.00483733 0.00519996 0.00555825 0.00591222 0.00626185 0.00660714 0.0069481 0.00728473 0.00761703 0.00794143 0.00825438 0.00855588 0.00884594 0.00912454 0.00939169 0.00964739 0.00989164 0.0101233 0.0103414 0.0105458 0.0107366 0.0109137 0.0110772 0.0112271 0.0113633 0.0114863 0.0115965 0.0116939 0.0117784 0.0118502 0.0119091 0.0119552 0.0119885 0.01201 0.0120206 0.0120202 0.012009 0.0119868 0.0119538 0.0119099 0.011855 0.0117901 0.011716 0.0116327 0.0115401 0.0114383 0.0113273 0.011207 0.0110775 0.0109394 0.0107932 0.0106389 0.0104765 0.0103059 0.0101273 0.00994064 0.00974585 0.00954359 0.00933447 0.00911849 0.00889566 0.00866597 0.00842943 0.00818603 0.00793578 0.00767994 0.0074198 0.00715535 0.00688659 0.00661353 0.00633616 0.00605448 0.00576849 0.00548073 0.00519373 0.00490749 0.00462202 0.0043373 0.00405335 0.00377015 0.00348772 0.0032101 0.00294133 0.00268141 0.00243035 0.00218814 0.00195478 0.00173028 0.00151463 0.00131138 0.00112406 0.000952688 0.000797249 0.000657748 0.000534185 0.00042656 0.000334873 0.000256387 0.000188366 0.00013081 8.37181e-05 4.70915e-05 2.09295e-05 5.23238e-06 0 0 9.53618e-06 3.81447e-05 8.58256e-05 0.000152579 0.000238404 0.000343302 0.000467273 0.000610315 0.000775473 0.000965787 0.00118126 0.00142189 0.00168767 0.00197861 0.00229471 0.00263597 0.00299481 0.00336365 0.0037425 0.00413136 0.00453022 0.00493909 0.00535797 0.00578685 0.00621816 0.00664434 0.00706538 0.00748129 0.00789205 0.00829768 0.00869817 0.00909352 0.00947952 0.00985196 0.0102108 0.0105561 0.0108879 0.0112061 0.0115107 0.0118018 0.012078 0.0123379 0.0125817 0.0128093 0.0130207 0.0132159 0.0133949 0.0135576 0.0137047 0.0138365 0.013953 0.0140543 0.0141403 0.0142111 0.0142666 0.0143068 0.0143329 0.014346 0.014346 0.014333 0.0143071 0.014268 0.014216 0.014151 0.0140739 0.0139858 0.0138866 0.0137765 0.0136553 0.013523 0.0133798 0.0132255 0.0130608 0.0128865 0.0127025 0.0125089 0.0123056 0.0120926 0.01187 0.0116377 0.0113964 0.0111471 0.0108896 0.0106239 0.0103501 0.0100681 0.00977793 0.00947964 0.00917471 0.00886469 0.00854957 0.00822934 0.00790401 0.00757359 0.00723806 0.00689743 0.0065547 0.00621287 0.00587195 0.00553192 0.0051928 0.00485457 0.00451725 0.00418083 0.00385007 0.00352971 0.00321977 0.00292024 0.00263112 0.00235241 0.00208411 0.00182623 0.00158297 0.00135855 0.00115298 0.000966245 0.000798358 0.000649313 0.000519111 0.000407751 0.000312185 0.00022936 0.000159278 0.000101938 5.734e-05 2.54845e-05 6.37111e-06 0 0 1.13971e-05 4.55883e-05 0.000102574 0.000182353 0.000284927 0.000410295 0.000558456 0.000729412 0.000926403 0.00115267 0.0014082 0.00169302 0.0020071 0.00235046 0.00272309 0.003125 0.00354732 0.00398118 0.00442659 0.00488355 0.00535205 0.0058321 0.00632369 0.00682683 0.00733275 0.00783265 0.00832655 0.00881444 0.00929632 0.0097722 0.0102421 0.0107059 0.0111589 0.011596 0.0120172 0.0124226 0.0128122 0.0131859 0.0135438 0.0138859 0.0142105 0.0145162 0.0148029 0.0150706 0.0153194 0.0155491 0.01576 0.0159518 0.0161252 0.0162807 0.0164182 0.0165378 0.0166395 0.0167233 0.0167891 0.016837 0.0168683 0.0168842 0.0168848 0.0168701 0.01684 0.0167946 0.0167338 0.0166577 0.0165675 0.0164642 0.0163479 0.0162186 0.0160763 0.015921 0.0157526 0.0155713 0.0153777 0.0151728 0.0149565 0.0147288 0.0144898 0.0142393 0.0139775 0.0137043 0.0134206 0.0131274 0.0128246 0.0125122 0.0121903 0.0118588 0.0115177 0.0111671 0.0108087 0.0104443 0.010074 0.00969772 0.00931549 0.00892731 0.00853317 0.00813307 0.00773053 0.00732903 0.00692858 0.00652919 0.00613085 0.00573356 0.00533732 0.00494214 0.00455352 0.00417696 0.00381248 0.00346007 0.00311973 0.00279147 0.00247527 0.00217115 0.00188404 0.0016189 0.00137573 0.00115453 0.000955294 0.000778026 0.000622726 0.000489394 0.000374692 0.000275284 0.000191169 0.000122348 6.8821e-05 3.05871e-05 7.64678e-06 0 0 1.34491e-05 5.37963e-05 0.000121042 0.000215185 0.000336227 0.000484167 0.000659004 0.000860741 0.00109276 0.00135845 0.0016578 0.00199083 0.00235752 0.00275788 0.00319191 0.00365961 0.00415073 0.00465502 0.00517247 0.0057031 0.00624689 0.00680385 0.00737398 0.00795729 0.0085437 0.00912317 0.00969571 0.0102613 0.01082 0.0113717 0.0119164 0.0124543 0.0129795 0.0134864 0.013975 0.0144454 0.0148975 0.0153312 0.0157467 0.0161439 0.016521 0.0168761 0.0172093 0.0175205 0.0178098 0.0180771 0.0183224 0.0185458 0.0187478 0.018929 0.0190894 0.019229 0.0193478 0.0194457 0.0195229 0.0195792 0.0196162 0.0196354 0.0196367 0.0196201 0.0195857 0.0195334 0.0194633 0.0193754 0.0192709 0.0191512 0.0190164 0.0188665 0.0187013 0.0185211 0.0183256 0.018115 0.0178902 0.0176521 0.0174008 0.0171363 0.0168585 0.0165675 0.0162633 0.0159458 0.0156161 0.0152754 0.0149235 0.0145606 0.0141866 0.0138015 0.0134053 0.012998 0.0125818 0.0121586 0.0117286 0.0112917 0.010848 0.0103973 0.00993981 0.00947542 0.0090082 0.0085422 0.00807741 0.00761383 0.00715146 0.00669031 0.00623037 0.00577165 0.00532045 0.00488308 0.00445955 0.00404985 0.00365399 0.00327195 0.00290376 0.00254939 0.0022146 0.00190512 0.00162095 0.0013621 0.00112856 0.000920325 0.000737407 0.0005798 0.00044391 0.000326138 0.000226485 0.00014495 8.15344e-05 3.62375e-05 9.05938e-06 0 0 1.56922e-05 6.27687e-05 0.00014123 0.000251075 0.000392304 0.000564918 0.000768917 0.0010043 0.00127454 0.00158313 0.00193006 0.00231533 0.00273893 0.00320088 0.00370117 0.0042398 0.00480504 0.00538516 0.00598014 0.00659001 0.00721474 0.00785435 0.00850884 0.0091782 0.00985103 0.0105159 0.0111729 0.0118219 0.0124629 0.0130961 0.0137213 0.0143385 0.0149414 0.0155233 0.0160843 0.0166244 0.0171437 0.017642 0.0181194 0.018576 0.0190095 0.0194178 0.019801 0.0201591 0.020492 0.0207997 0.0210823 0.0213397 0.0215726 0.0217816 0.0219666 0.0221278 0.022265 0.0223784 0.0224678 0.0225334 0.0225766 0.0225994 0.0226015 0.0225831 0.0225441 0.0224846 0.0224045 0.0223038 0.0221841 0.0220469 0.0218922 0.0217201 0.0215304 0.0213233 0.0210987 0.0208566 0.0205981 0.0203244 0.0200355 0.0197313 0.0194119 0.0190772 0.0187273 0.0183621 0.0179829 0.0175911 0.0171865 0.0167691 0.0163391 0.0158963 0.0154408 0.0149726 0.0144941 0.0140077 0.0135135 0.0130114 0.0125014 0.0119836 0.011458 0.0109245 0.0103877 0.00985238 0.00931841 0.00878583 0.00825463 0.00772482 0.0071964 0.00666936 0.00615087 0.00564807 0.00516097 0.00468957 0.00423387 0.00379387 0.00336957 0.00296096 0.00257465 0.00221721 0.00188864 0.00158895 0.00131814 0.00107621 0.000863152 0.000678971 0.000519837 0.000381921 0.000265223 0.000169743 9.54803e-05 4.24357e-05 1.06089e-05 0 0 1.81264e-05 7.25056e-05 0.000163138 0.000290022 0.00045316 0.00065255 0.000888193 0.00116009 0.00147176 0.00182672 0.00222497 0.00266651 0.00315134 0.00367946 0.00425087 0.00486558 0.00551026 0.0061716 0.00684961 0.00754428 0.00825561 0.00898361 0.00972826 0.0104896 0.0112547 0.0120109 0.012758 0.0134962 0.0142253 0.0149454 0.0156566 0.0163587 0.0170445 0.0177066 0.018345 0.0189598 0.0195508 0.0201182 0.0206619 0.021182 0.0216759 0.0221412 0.022578 0.0229862 0.0233659 0.0237169 0.0240394 0.0243334 0.0245994 0.0248383 0.0250499 0.0252342 0.0253914 0.0255213 0.025624 0.0256995 0.0257496 0.0257762 0.0257794 0.0257591 0.0257153 0.025648 0.0255573 0.0254431 0.0253071 0.0251512 0.0249753 0.0247794 0.0245635 0.0243277 0.0240719 0.0237961 0.0235016 0.0231898 0.0228605 0.0225138 0.0221498 0.0217683 0.0213695 0.0209533 0.0205211 0.0200744 0.0196133 0.0191377 0.0186477 0.0181432 0.0176242 0.0170907 0.0165455 0.0159915 0.0154285 0.0148566 0.0142759 0.0136862 0.0130877 0.0124802 0.0118691 0.0112596 0.0106516 0.0100452 0.00944036 0.00883709 0.0082354 0.00763527 0.00704477 0.00647193 0.00591675 0.00537924 0.0048594 0.00435722 0.00387271 0.00340586 0.00296418 0.00255516 0.0021788 0.0018351 0.00152406 0.00124568 0.000999962 0.000786905 0.000602474 0.000442634 0.000307385 0.000196726 0.000110659 4.91816e-05 1.22954e-05 0 0 2.07052e-05 8.28206e-05 0.000186346 0.000331283 0.000517629 0.000745386 0.00101455 0.00132513 0.00168063 0.00208456 0.00253693 0.00303774 0.00358697 0.00418464 0.00483075 0.00552529 0.00625329 0.00699979 0.00776477 0.00854824 0.0093502 0.0101707 0.0110096 0.011867 0.0127287 0.0135802 0.0144215 0.0152528 0.0160739 0.016885 0.0176859 0.0184767 0.0192491 0.019995 0.0207143 0.0214071 0.0220732 0.0227128 0.0233259 0.0239123 0.0244694 0.0249944 0.0254873 0.025948 0.0263767 0.0267732 0.0271376 0.0274698 0.0277707 0.0280408 0.0282803 0.0284891 0.0286672 0.0288145 0.0289312 0.0290172 0.0290746 0.0291055 0.0291098 0.0290877 0.0290389 0.0289637 0.0288619 0.0287336 0.0285807 0.0284053 0.0282072 0.0279866 0.0277433 0.0274775 0.027189 0.026878 0.0265458 0.026194 0.0258225 0.0254314 0.0250207 0.0245903 0.0241403 0.0236706 0.0231829 0.0226789 0.0221587 0.0216221 0.0210693 0.0205001 0.0199147 0.0193129 0.018698 0.0180731 0.0174383 0.0167934 0.0161386 0.0154738 0.014799 0.0141142 0.0134253 0.0127381 0.0120527 0.0113691 0.0106872 0.0100071 0.00932871 0.00865209 0.00798618 0.00733997 0.00671345 0.00610662 0.00551948 0.00495203 0.00440427 0.0038762 0.00337628 0.00291296 0.00248624 0.00209612 0.0017426 0.00142569 0.00114537 0.000901657 0.000690331 0.000507182 0.00035221 0.000225414 0.000126795 5.63535e-05 1.40884e-05 0 0 2.33819e-05 9.35278e-05 0.000210437 0.000374111 0.000584548 0.00084175 0.00114572 0.00149644 0.0018974 0.00235204 0.00286037 0.00342238 0.00403808 0.00470747 0.00543054 0.0062073 0.00702106 0.00785514 0.00870952 0.00958422 0.0104792 0.0113946 0.0123302 0.0132861 0.0142466 0.0151958 0.0161338 0.0170604 0.0179758 0.0188799 0.0197728 0.0206544 0.0215156 0.0223472 0.0231494 0.023922 0.0246651 0.0253787 0.0260628 0.0267174 0.0273393 0.0279255 0.028476 0.0289906 0.0294696 0.0299127 0.0303202 0.0306918 0.0310285 0.031331 0.0315991 0.0318331 0.0320328 0.0321982 0.0323295 0.0324264 0.0324914 0.0325268 0.0325325 0.0325085 0.0324548 0.0323715 0.0322585 0.0321159 0.0319457 0.0317503 0.0315296 0.0312836 0.0310123 0.0307157 0.0303939 0.0300467 0.0296759 0.0292831 0.0288684 0.0284317 0.0279731 0.0274925 0.0269899 0.0264653 0.0259207 0.025358 0.024777 0.0241779 0.0235606 0.0229252 0.0222716 0.0215998 0.0209134 0.0202159 0.0195073 0.0187876 0.0180568 0.0173149 0.0165619 0.0157979 0.0150292 0.0142624 0.0134976 0.0127347 0.0119738 0.0112148 0.0104577 0.00970249 0.00895915 0.00823753 0.00753764 0.00685948 0.00620305 0.00556834 0.00495536 0.00436411 0.00380404 0.0032846 0.0028058 0.00236763 0.00197009 0.00161319 0.00129692 0.00102128 0.000781917 0.000574469 0.000398937 0.00025532 0.000143617 6.38299e-05 1.59575e-05 0 0 2.61567e-05 0.000104627 0.000235411 0.000418508 0.000653918 0.000941642 0.00128168 0.00167403 0.00212206 0.00262914 0.00319527 0.00382044 0.00450466 0.00524793 0.00605025 0.00691162 0.00781357 0.00873766 0.00968388 0.0106522 0.0116427 0.0126553 0.0136901 0.0147469 0.0158086 0.0168579 0.0178947 0.018919 0.0199309 0.0209303 0.0219173 0.0228917 0.0238438 0.0247632 0.0256502 0.0265046 0.0273266 0.028116 0.0288729 0.0295972 0.0302856 0.0309345 0.031544 0.032114 0.0326445 0.0331356 0.0335873 0.0339995 0.034373 0.0347086 0.0350064 0.0352663 0.0354883 0.0356724 0.0358186 0.035927 0.0359999 0.03604 0.0360472 0.0360215 0.0359629 0.0358715 0.0357471 0.0355899 0.0354021 0.0351863 0.0349425 0.0346706 0.0343706 0.0340425 0.0336864 0.0333022 0.0328919 0.0324571 0.0319981 0.0315147 0.0310069 0.0304748 0.0299184 0.0293376 0.0287346 0.0281115 0.0274684 0.0268052 0.0261218 0.0254184 0.024695 0.0239514 0.0231917 0.0224198 0.0216356 0.0208392 0.0200305 0.0192097 0.0183765 0.0175312 0.0166808 0.0158325 0.0149862 0.0141421 0.0133001 0.0124601 0.0116223 0.0107865 0.00996366 0.00916461 0.00838933 0.00763783 0.0069101 0.00620615 0.00552598 0.00486958 0.00424745 0.00367008 0.00313746 0.00264961 0.00220651 0.00180817 0.00145459 0.00114577 0.000877231 0.000644496 0.000447567 0.000286443 0.000161124 7.16107e-05 1.79027e-05 0 0 2.90295e-05 0.000116118 0.000261266 0.000464472 0.000725738 0.00104506 0.00142245 0.00185789 0.00235462 0.00291587 0.00354164 0.00423192 0.00498672 0.00580604 0.00668988 0.00763823 0.00863082 0.00964735 0.0106878 0.0117522 0.0128406 0.0139529 0.0150892 0.0162494 0.0174147 0.0185664 0.0197043 0.0208286 0.0219392 0.0230361 0.0241193 0.0251888 0.0262337 0.027243 0.0282168 0.0291549 0.0300575 0.0309245 0.0317559 0.0325518 0.0333082 0.0340214 0.0346914 0.0353181 0.0359016 0.0364419 0.0369389 0.0373927 0.0378041 0.0381739 0.038502 0.0387886 0.0390336 0.039237 0.0393987 0.0395189 0.0396002 0.0396452 0.0396541 0.0396268 0.0395633 0.0394636 0.0393277 0.0391556 0.0389499 0.0387133 0.0384458 0.0381474 0.0378181 0.0374579 0.0370667 0.0366446 0.0361937 0.035716 0.0352115 0.0346802 0.0341222 0.0335373 0.0329257 0.0322873 0.0316245 0.0309396 0.0302327 0.0295038 0.0287528 0.0279798 0.0271848 0.0263677 0.0255329 0.0246847 0.0238231 0.0229481 0.0220598 0.021158 0.0202428 0.0193143 0.0183801 0.0174482 0.0165186 0.0155912 0.0146661 0.0137432 0.0128225 0.0119041 0.0109997 0.0101212 0.0092685 0.00844165 0.00764063 0.00686545 0.00611611 0.00539261 0.00470651 0.00406939 0.00348124 0.00294207 0.00245187 0.00201065 0.00161841 0.00127513 0.000976274 0.000717263 0.000498099 0.000318784 0.000179316 7.96959e-05 1.9924e-05 0 0 3.20003e-05 0.000128001 0.000288003 0.000512005 0.000800008 0.00115201 0.00156802 0.00204802 0.00259507 0.00321222 0.00389947 0.00465681 0.00548425 0.00638178 0.00734942 0.00838714 0.0094728 0.0105842 0.0117214 0.0128843 0.014073 0.0152874 0.0165276 0.0177935 0.0190648 0.0203212 0.0215627 0.0227892 0.0240007 0.0251973 0.0263789 0.0275456 0.0286855 0.0297866 0.0308491 0.0318729 0.032858 0.0338044 0.0347121 0.035581 0.0364072 0.0371862 0.0379181 0.038603 0.0392407 0.0398314 0.040375 0.0408715 0.0413218 0.0417266 0.0420861 0.0424001 0.0426688 0.042892 0.0430698 0.0432022 0.0432921 0.0433424 0.0433532 0.0433243 0.0432559 0.0431478 0.0430002 0.042813 0.042589 0.0423313 0.0420396 0.0417142 0.0413549 0.0409617 0.0405347 0.0400739 0.0395815 0.0390598 0.0385088 0.0379285 0.0373189 0.0366801 0.0360119 0.0353145 0.0345904 0.0338423 0.0330701 0.0322739 0.0314537 0.0306094 0.029741 0.0288487 0.027937 0.0270107 0.0260699 0.0251145 0.0241445 0.0231599 0.0221607 0.021147 0.0201272 0.0191097 0.0180947 0.017082 0.0160718 0.0150639 0.0140584 0.0130553 0.0120673 0.0111073 0.0101752 0.00927096 0.00839465 0.00754626 0.00672577 0.0059332 0.00518123 0.00448254 0.00383713 0.00324501 0.00270617 0.00222062 0.00178835 0.00140937 0.00107905 0.000792769 0.000550534 0.000352342 0.000198192 8.80855e-05 2.20214e-05 0 0 3.50691e-05 0.000140277 0.000315622 0.000561106 0.000876728 0.00126249 0.00171839 0.00224442 0.00284342 0.0035182 0.00426877 0.00509512 0.00599725 0.00697517 0.00802887 0.00915836 0.0103395 0.0115482 0.0127845 0.0140483 0.0153397 0.0166587 0.0180052 0.0193793 0.020759 0.0221225 0.0234697 0.0248007 0.0261154 0.0274139 0.0286961 0.0