<?xml version="1.0"?> 
<VTKFile type="StructuredGrid" version="0.1"> 
<StructuredGrid WholeExtent="0 128 0 128 0 0"> 
<Piece Extent="0 128 0 128 0 0"> 
<PointData>
<DataArray type="Float32" Name="u" format="ascii" NumberOfComponents="1"> 
0 0 0 0 0 0 0 0 0 0 0 0 0 0 0 0 0 0 0 0 0 0 0 0 0 0 0 0 0 0 0 0 0 0 0 0 0 0 0 0 0 0 0 0 0 0 0 0 0 0 0 0 0 0 0 0 0 0 0 0 0 0 0 0 0 0 0 0 0 0 0 0 0 0 0 0 0 0 0 0 0 0 0 0 0 0 0 0 0 0 0 0 0 0 0 0 0 0 0 0 0 0 0 0 0 0 0 0 0 0 0 0 0 0 0 0 0 0 0 0 0 0 0 0 0 0 0 0 0 0 1.86963e-08 7.47851e-08 1.68266e-07 2.9914e-07 4.67407e-07 6.73066e-07 9.16117e-07 1.19656e-06 1.56295e-06 2.06384e-06 2.69924e-06 3.46913e-06 4.37353e-06 5.41243e-06 6.58582e-06 7.89372e-06 9.30518e-06 1.07892e-05 1.23459e-05 1.39752e-05 1.56771e-05 1.74516e-05 1.92987e-05 2.12184e-05 2.31443e-05 2.50099e-05 2.68153e-05 2.85605e-05 3.02455e-05 3.18702e-05 3.34346e-05 3.49388e-05 3.63418e-05 3.76023e-05 3.87205e-05 3.96964e-05 4.05298e-05 4.12209e-05 4.17697e-05 4.21761e-05 4.24516e-05 4.26076e-05 4.26441e-05 4.25611e-05 4.23587e-05 4.20368e-05 4.15954e-05 4.10345e-05 4.04059e-05 3.97612e-05 3.91004e-05 3.84235e-05 3.77306e-05 3.70216e-05 3.62965e-05 3.55553e-05 3.4845e-05 3.42124e-05 3.36577e-05 3.31807e-05 3.27815e-05 3.24601e-05 3.22165e-05 3.20507e-05 3.19642e-05 3.19584e-05 3.20333e-05 3.21889e-05 3.24252e-05 3.27423e-05 3.31401e-05 3.36186e-05 3.41342e-05 3.46431e-05 3.51453e-05 3.56409e-05 3.61298e-05 3.66121e-05 3.70876e-05 3.75566e-05 3.79702e-05 3.82801e-05 3.84862e-05 3.85885e-05 3.8587e-05 3.84816e-05 3.82725e-05 3.79596e-05 3.75323e-05 3.69803e-05 3.63036e-05 3.5502e-05 3.45757e-05 3.35247e-05 3.23488e-05 3.10482e-05 2.96606e-05 2.82239e-05 2.67381e-05 2.5203e-05 2.36189e-05 2.19856e-05 2.03031e-05 1.85715e-05 1.68499e-05 1.51978e-05 1.36149e-05 1.21014e-05 1.06572e-05 9.28243e-06 7.97694e-06 6.7408e-06 5.5993e-06 4.57776e-06 3.67616e-06 2.89452e-06 2.23283e-06 1.69109e-06 1.2693e-06 9.67456e-07 7.40709e-07 5.44194e-07 3.77913e-07 2.41864e-07 1.36049e-07 6.0466e-08 1.51165e-08 0 0 7.47851e-08 2.9914e-07 6.73066e-07 1.19656e-06 1.86963e-06 2.69226e-06 3.66447e-06 4.78625e-06 6.25181e-06 8.25538e-06 1.0797e-05 1.38765e-05 1.74941e-05 2.16497e-05 2.63433e-05 3.15749e-05 3.72207e-05 4.3157e-05 4.93836e-05 5.59008e-05 6.27083e-05 6.98063e-05 7.71947e-05 8.48735e-05 9.25771e-05 0.00010004 0.000107261 0.000114242 0.000120982 0.000127481 0.000133738 0.000139755 0.000145367 0.000150409 0.000154882 0.000158785 0.000162119 0.000164884 0.000167079 0.000168704 0.000169806 0.00017043 0.000170576 0.000170244 0.000169435 0.000168147 0.000166382 0.000164138 0.000161624 0.000159045 0.000156402 0.000153694 0.000150922 0.000148086 0.000145186 0.000142221 0.00013938 0.00013685 0.000134631 0.000132723 0.000131126 0.000129841 0.000128866 0.000128203 0.000127857 0.000127833 0.000128133 0.000128756 0.000129701 0.000130969 0.00013256 0.000134475 0.000136537 0.000138572 0.000140581 0.000142564 0.000144519 0.000146448 0.000148351 0.000150226 0.000151881 0.000153121 0.000153945 0.000154354 0.000154348 0.000153927 0.00015309 0.000151838 0.000150129 0.000147921 0.000145214 0.000142008 0.000138303 0.000134099 0.000129395 0.000124193 0.000118643 0.000112896 0.000106952 0.000100812 9.44755e-05 8.79422e-05 8.12123e-05 7.42859e-05 6.73998e-05 6.0791e-05 5.44597e-05 4.84056e-05 4.2629e-05 3.71297e-05 3.19078e-05 2.69632e-05 2.23972e-05 1.8311e-05 1.47047e-05 1.15781e-05 8.93131e-06 6.76434e-06 5.07718e-06 3.86982e-06 2.96283e-06 2.17678e-06 1.51165e-06 9.67456e-07 5.44194e-07 2.41864e-07 6.0466e-08 0 0 1.68266e-07 6.73066e-07 1.5144e-06 2.69226e-06 4.20666e-06 6.05759e-06 8.24505e-06 1.07691e-05 1.40666e-05 1.85746e-05 2.42931e-05 3.12222e-05 3.93618e-05 4.87118e-05 5.92724e-05 7.10435e-05 8.37466e-05 9.71032e-05 0.000111113 0.000125777 0.000141094 0.000157064 0.000173688 0.000190965 0.000208298 0.000225089 0.000241338 0.000257045 0.000272209 0.000286831 0.000300912 0.00031445 0.000327076 0.000338421 0.000348485 0.000357267 0.000364768 0.000370988 0.000375927 0.000379585 0.000382064 0.000383468 0.000383797 0.00038305 0.000381228 0.000378331 0.000374359 0.000369311 0.000363653 0.000357851 0.000351904 0.000345812 0.000339575 0.000333194 0.000326668 0.000319998 0.000313605 0.000307912 0.000302919 0.000298626 0.000295034 0.000292141 0.000289949 0.000288457 0.000287678 0.000287625 0.000288299 0.0002897 0.000291827 0.000294681 0.000298261 0.000302568 0.000307208 0.000311788 0.000316308 0.000320768 0.000325168 0.000329508 0.000333789 0.000338009 0.000341732 0.000344521 0.000346376 0.000347296 0.000347283 0.000346335 0.000344452 0.000341636 0.000337791 0.000332823 0.000326732 0.000319518 0.000311182 0.000301722 0.000291139 0.000279434 0.000266946 0.000254015 0.000240643 0.000226827 0.00021257 0.00019787 0.000182728 0.000167143 0.000151649 0.00013678 0.000122534 0.000108913 9.59152e-05 8.35418e-05 7.17925e-05 6.06672e-05 5.03937e-05 4.11998e-05 3.30855e-05 2.60507e-05 2.00954e-05 1.52198e-05 1.14237e-05 8.7071e-06 6.66638e-06 4.89775e-06 3.40121e-06 2.17678e-06 1.22444e-06 5.44194e-07 1.36049e-07 0 0 2.9914e-07 1.19656e-06 2.69226e-06 4.78625e-06 7.47851e-06 1.07691e-05 1.46579e-05 1.9145e-05 2.50072e-05 3.30215e-05 4.31878e-05 5.55061e-05 6.99765e-05 8.65988e-05 0.000105373 0.0001263 0.000148883 0.000172628 0.000197535 0.000223603 0.000250833 0.000279225 0.000308779 0.000339494 0.000370308 0.000400159 0.000429045 0.000456968 0.000483927 0.000509923 0.000534954 0.000559021 0.000581468 0.000601637 0.000619528 0.000635142 0.000648477 0.000659535 0.000668315 0.000674817 0.000679225 0.000681721 0.000682305 0.000680978 0.000677739 0.000672588 0.000665526 0.000656553 0.000646494 0.000636179 0.000625606 0.000614777 0.000603689 0.000592345 0.000580743 0.000568885 0.000557519 0.000547399 0.000538523 0.000530891 0.000524505 0.000519362 0.000515465 0.000512812 0.000511427 0.000511334 0.000512532 0.000515022 0.000518804 0.000523877 0.000530242 0.000537898 0.000546147 0.000554289 0.000562325 0.000570254 0.000578077 0.000585793 0.000593402 0.000600905 0.000607524 0.000612482 0.000615779 0.000617416 0.000617391 0.000615706 0.00061236 0.000607353 0.000600517 0.000591685 0.000580857 0.000568033 0.000553212 0.000536395 0.000517581 0.000496771 0.00047457 0.000451583 0.000427809 0.000403249 0.000377902 0.000351769 0.000324849 0.000297143 0.000269599 0.000243164 0.000217839 0.000193623 0.000170516 0.000148519 0.000127631 0.000107853 8.95889e-05 7.32441e-05 5.88186e-05 4.63123e-05 3.57252e-05 2.70574e-05 2.03087e-05 1.54793e-05 1.18513e-05 8.7071e-06 6.0466e-06 3.86982e-06 2.17678e-06 9.67456e-07 2.41864e-07 0 0 4.67407e-07 1.86963e-06 4.20666e-06 7.47851e-06 1.16852e-05 1.68266e-05 2.29029e-05 2.9914e-05 3.90738e-05 5.15961e-05 6.74809e-05 8.67283e-05 0.000109338 0.000135311 0.000164646 0.000197343 0.000232629 0.000269731 0.000308648 0.00034938 0.000391927 0.000436289 0.000482467 0.000530459 0.000578607 0.000625248 0.000670384 0.000714013 0.000756136 0.000796754 0.000835865 0.000873471 0.000908544 0.000940058 0.000968013 0.000992409 0.00101325 0.00103052 0.00104424 0.0010544 0.00106129 0.00106519 0.0010661 0.00106403 0.00105897 0.00105092 0.00103988 0.00102586 0.00101015 0.00099403 0.00097751 0.000960588 0.000943265 0.000925539 0.000907412 0.000888882 0.000871124 0.000855311 0.000841442 0.000829518 0.000819538 0.000811504 0.000805414 0.000801268 0.000799105 0.000798959 0.000800831 0.000804722 0.000810631 0.000818558 0.000828503 0.000840466 0.000853355 0.000866077 0.000878633 0.000891022 0.000903245 0.000915301 0.000927191 0.000938914 0.000949256 0.000957003 0.000962155 0.000964712 0.000964674 0.000962041 0.000956812 0.000948989 0.000938308 0.000924508 0.000907589 0.000887551 0.000864393 0.000838117 0.000808721 0.000776205 0.000741516 0.000705598 0.000668451 0.000630076 0.000590472 0.000549639 0.000507577 0.000464287 0.000421249 0.000379944 0.000340373 0.000302535 0.000266431 0.000232061 0.000199424 0.00016852 0.000139983 0.000114444 9.19041e-05 7.2363e-05 5.58207e-05 4.22772e-05 3.17324e-05 2.41864e-05 1.85177e-05 1.36049e-05 9.44781e-06 6.0466e-06 3.40121e-06 1.51165e-06 3.77913e-07 0 0 6.73066e-07 2.69226e-06 6.05759e-06 1.07691e-05 1.68266e-05 2.42304e-05 3.29802e-05 4.30762e-05 5.62663e-05 7.42984e-05 9.71726e-05 0.000124889 0.000157447 0.000194847 0.00023709 0.000284174 0.000334986 0.000388413 0.000444453 0.000503107 0.000564375 0.000628256 0.000694752 0.000763862 0.000833194 0.000900357 0.000965352 0.00102818 0.00108884 0.00114733 0.00120365 0.0012578 0.0013083 0.00135368 0.00139394 0.00142907 0.00145907 0.00148395 0.00150371 0.00151834 0.00152826 0.00153387 0.00153519 0.0015322 0.00152491 0.00151332 0.00149743 0.00147724 0.00145461 0.0014314 0.00140761 0.00138325 0.0013583 0.00133278 0.00130667 0.00127999 0.00125442 0.00123165 0.00121168 0.00119451 0.00118014 0.00116857 0.0011598 0.00115383 0.00115071 0.0011505 0.0011532 0.0011588 0.00116731 0.00117872 0.00119304 0.00121027 0.00122883 0.00124715 0.00126523 0.00128307 0.00130067 0.00131803 0.00133515 0.00135204 0.00136693 0.00137808 0.0013855 0.00138919 0.00138913 0.00138534 0.00137781 0.00136654 0.00135116 0.00133129 0.00130693 0.00127807 0.00124473 0.00120689 0.00116456 0.00111774 0.00106778 0.00101606 0.00096257 0.000907309 0.000850279 0.00079148 0.000730911 0.000668573 0.000606598 0.000547119 0.000490137 0.000435651 0.000383661 0.000334167 0.00028717 0.000242669 0.000201575 0.000164799 0.000132342 0.000104203 8.03818e-05 6.08791e-05 4.56946e-05 3.48284e-05 2.66655e-05 1.9591e-05 1.36049e-05 8.7071e-06 4.89775e-06 2.17678e-06 5.44194e-07 0 0 9.16117e-07 3.66447e-06 8.24505e-06 1.46579e-05 2.29029e-05 3.29802e-05 4.48897e-05 5.86315e-05 7.65847e-05 0.000101128 0.000132263 0.000169988 0.000214303 0.000265209 0.000322705 0.000386793 0.000455954 0.000528673 0.00060495 0.000684784 0.000768177 0.000855127 0.000945635 0.0010397 0.00113407 0.00122549 0.00131395 0.00139947 0.00148203 0.00156164 0.0016383 0.001712 0.00178075 0.00184251 0.00189731 0.00194512 0.00198596 0.00201983 0.00204671 0.00206663 0.00208013 0.00208777 0.00208956 0.00208549 0.00207558 0.0020598 0.00203817 0.00201069 0.00197989 0.0019483 0.00191592 0.00188275 0.0018488 0.00181406 0.00177853 0.00174221 0.0017074 0.00167641 0.00164923 0.00162585 0.0016063 0.00159055 0.00157861 0.00157049 0.00156624 0.00156596 0.00156963 0.00157725 0.00158884 0.00160437 0.00162387 0.00164731 0.00167258 0.00169751 0.00172212 0.0017464 0.00177036 0.00179399 0.00181729 0.00184027 0.00186054 0.00187573 0.00188582 0.00189084 0.00189076 0.0018856 0.00187535 0.00186002 0.00183908 0.00181204 0.00177887 0.0017396 0.00169421 0.00164271 0.00158509 0.00152136 0.00145337 0.00138297 0.00131016 0.00123495 0.00115732 0.00107729 0.000994851 0.000910002 0.000825647 0.00074469 0.000667131 0.000592969 0.000522205 0.000454839 0.00039087 0.000330299 0.000274366 0.00022431 0.000180132 0.000141831 0.000109409 8.28632e-05 6.21955e-05 4.74053e-05 3.62947e-05 2.66655e-05 1.85177e-05 1.18513e-05 6.66638e-06 2.96283e-06 7.40709e-07 0 0 1.19656e-06 4.78625e-06 1.07691e-05 1.9145e-05 2.9914e-05 4.30762e-05 5.86315e-05 7.65799e-05 0.000100029 0.000132086 0.000172751 0.000222024 0.000279906 0.000346395 0.000421493 0.000505198 0.000595531 0.000690511 0.000790138 0.000894412 0.00100333 0.0011169 0.00123511 0.00135798 0.00148123 0.00160064 0.00171618 0.00182787 0.00193571 0.00203969 0.00213982 0.00223609 0.00232587 0.00240655 0.00247811 0.00254057 0.00259391 0.00263814 0.00267326 0.00269927 0.0027169 0.00272688 0.00272922 0.00272391 0.00271096 0.00269035 0.00266211 0.00262621 0.00258598 0.00254472 0.00250243 0.00245911 0.00241476 0.00236938 0.00232297 0.00227554 0.00223008 0.00218959 0.00215409 0.00212357 0.00209802 0.00207745 0.00206186 0.00205125 0.00204571 0.00204533 0.00205013 0.00206009 0.00207521 0.00209551 0.00212097 0.00215159 0.00218459 0.00221716 0.0022493 0.00228102 0.00231231 0.00234317 0.00237361 0.00240362 0.0024301 0.00244993 0.00246312 0.00246966 0.00246957 0.00246282 0.00244944 0.00242941 0.00240207 0.00236674 0.00232343 0.00227213 0.00221285 0.00214558 0.00207032 0.00198709 0.00189828 0.00180633 0.00171124 0.00161299 0.00151161 0.00140708 0.0012994 0.00118857 0.0010784 0.000972657 0.000871355 0.00077449 0.000682064 0.000594075 0.000510524 0.000431411 0.000358355 0.000292977 0.000235274 0.000185249 0.000142901 0.00010823 8.12349e-05 6.19172e-05 4.74053e-05 3.48284e-05 2.41864e-05 1.54793e-05 8.7071e-06 3.86982e-06 9.67456e-07 0 0 1.59998e-06 6.39993e-06 1.43999e-05 2.55997e-05 3.99996e-05 5.75994e-05 7.83992e-05 0.000102399 0.000133464 0.000175461 0.000228389 0.000292248 0.000367038 0.000452759 0.000549412 0.000656996 0.000772966 0.000894777 0.00102243 0.00115593 0.00129526 0.00144044 0.00159146 0.00174832 0.00190565 0.00205808 0.00220561 0.00234823 0.00248596 0.00261878 0.0027467 0.00286973 0.00298453 0.0030878 0.00317953 0.00325973 0.0033284 0.00338553 0.00343112 0.00346519 0.00348863 0.00350239 0.00350645 0.00350082 0.0034855 0.00346049 0.00342578 0.00338138 0.00333146 0.00328018 0.00322755 0.00317356 0.00311822 0.00306153 0.00300347 0.00294407 0.00288709 0.00283633 0.00279178 0.00275345 0.00272134 0.00269544 0.00267575 0.00266228 0.00265515 0.00265447 0.00266025 0.00267248 0.00269117 0.00271631 0.00274791 0.00278597 0.00282696 0.00286736 0.00290718 0.00294641 0.00298505 0.0030231 0.00306057 0.00309745 0.00312983 0.00315379 0.00316934 0.00317647 0.00317519 0.00316548 0.00314737 0.00312083 0.00308504 0.00303914 0.00298315 0.00291705 0.00284084 0.00275454 0.00265813 0.00255163 0.00243807 0.00232052 0.00219897 0.00207343 0.00194389 0.00181036 0.00167283 0.00153131 0.00139058 0.00125544 0.00112589 0.00100192 0.000883534 0.000770735 0.000663521 0.000561893 0.000467933 0.000383726 0.000309271 0.000244567 0.000189616 0.000144417 0.00010897 8.32754e-05 6.37577e-05 4.68424e-05 3.25295e-05 2.08188e-05 1.17106e-05 5.20471e-06 1.30118e-06 0 0 2.21197e-06 8.84788e-06 1.99077e-05 3.53915e-05 5.52993e-05 7.96309e-05 0.000108387 0.000141566 0.000183756 0.000239542 0.000308925 0.000391905 0.000488481 0.000598653 0.000722422 0.000859788 0.0010075 0.00116232 0.00132424 0.00149326 0.00166938 0.0018526 0.00204293 0.00224036 0.00243828 0.00263009 0.00281579 0.00299538 0.00316885 0.00333621 0.00349746 0.0036526 0.00379756 0.00392827 0.00404473 0.00414694 0.00423491 0.00430862 0.00436808 0.0044133 0.00444539 0.00446547 0.00447354 0.00446961 0.00445367 0.00442572 0.00438576 0.0043338 0.00427492 0.00421423 0.00415172 0.00408739 0.00402124 0.00395327 0.00388348 0.00381188 0.00374308 0.00368173 0.00362781 0.00358132 0.00354228 0.00351067 0.0034865 0.00346976 0.00346062 0.00345921 0.00346555 0.00347962 0.00350143 0.00353098 0.00356827 0.00361331 0.00366178 0.0037094 0.00375616 0.00380207 0.00384712 0.00389131 0.00393465 0.00397714 0.00401399 0.00404043 0.00405645 0.00406206 0.00405726 0.00404205 0.00401643 0.00398039 0.00393291 0.00387298 0.00380058 0.00371573 0.00361841 0.00350863 0.0033864 0.0032517 0.00310829 0.00295991 0.00280655 0.00264823 0.00248494 0.00231667 0.00214344 0.00196524 0.00178795 0.00161748 0.00145381 0.00129696 0.00114691 0.00100368 0.000867249 0.000737632 0.000617489 0.000509486 0.000413622 0.000329897 0.000258312 0.000198866 0.000151559 0.000116391 8.91122e-05 6.54702e-05 4.54654e-05 2.90979e-05 1.63675e-05 7.27447e-06 1.81862e-06 0 0 3.03252e-06 1.21301e-05 2.72927e-05 4.85203e-05 7.5813e-05 0.000109171 0.000148594 0.000194081 0.000250904 0.00032433 0.000414361 0.000520995 0.000644234 0.000784077 0.000940524 0.00111358 0.00129914 0.00149314 0.00169556 0.00190641 0.00212569 0.0023534 0.00258953 0.00283409 0.00307913 0.00331667 0.00354673 0.0037693 0.00398439 0.00419199 0.0043921 0.00458472 0.00476497 0.00492797 0.00507371 0.0052022 0.00531344 0.00540742 0.00548414 0.00554361 0.00558716 0.00561612 0.00563048 0.00563026 0.00561544 0.00558604 0.00554204 0.00548346 0.00541636 0.00534685 0.00527492 0.00520057 0.0051238 0.00504461 0.00496301 0.00487898 0.00479806 0.00472579 0.00466217 0.00460718 0.00456085 0.00452315 0.0044941 0.00447369 0.00446212 0.00445956 0.00446602 0.0044815 0.004506 0.00453951 0.00458205 0.0046336 0.00468905 0.00474326 0.00479624 0.00484799 0.00489851 0.0049478 0.00499585 0.00504268 0.00508257 0.00510983 0.00512445 0.00512644 0.0051158 0.00509253 0.00505662 0.00500808 0.00494569 0.00486825 0.00477574 0.00466817 0.00454555 0.00440786 0.00425512 0.00408731 0.00390894 0.0037245 0.00353398 0.0033374 0.00313474 0.00292602 0.00271122 0.00249035 0.0022705 0.00205876 0.00185513 0.00165961 0.0014722 0.0012929 0.00112171 0.000958629 0.000807024 0.000670257 0.000548329 0.000441239 0.000348988 0.000271575 0.000209001 0.000161265 0.000123469 9.07117e-05 6.29943e-05 4.03163e-05 2.26779e-05 1.00791e-05 2.51977e-06 0 0 4.06164e-06 1.62465e-05 3.65547e-05 6.49862e-05 0.000101541 0.000146219 0.00019902 0.000259945 0.000334908 0.000429825 0.000544696 0.00067952 0.000834299 0.00100903 0.00120372 0.00141836 0.00164788 0.00188723 0.0021364 0.00239538 0.00266419 0.00294282 0.00323126 0.00352953 0.00382819 0.00411782 0.00439843 0.00467001 0.00493257 0.0051861 0.0054306 0.00566607 0.00588676 0.00608689 0.00626647 0.00642551 0.00656399 0.00668192 0.00677929 0.00685612 0.00691395 0.00695434 0.00697728 0.00698278 0.00697084 0.00694145 0.00689463 0.00683035 0.00675578 0.00667805 0.00659717 0.00651312 0.00642592 0.00633556 0.00624204 0.00614537 0.00605203 0.00596853 0.00589486 0.00583103 0.00577704 0.00573288 0.00569856 0.00567407 0.00565964 0.00565551 0.00566167 0.00567812 0.00570487 0.0057419 0.00578923 0.00584685 0.00590876 0.00596896 0.00602743 0.00608419 0.00613924 0.00619256 0.00624418 0.00629407 0.00633557 0.00636199 0.00637334 0.00636961 0.0063508 0.00631691 0.00626795 0.00620391 0.00612338 0.00602495 0.00590862 0.00577439 0.00562225 0.00545222 0.00526429 0.00505846 0.00484002 0.00461429 0.00438127 0.00414094 0.00389331 0.00363839 0.00337617 0.00310665 0.00283822 0.00257928 0.00232983 0.00208987 0.00185939 0.0016384 0.0014269 0.00122488 0.00103654 0.000866038 0.00071339 0.000578592 0.000461644 0.000362545 0.000281296 0.000217897 0.000166827 0.000122567 8.5116e-05 5.44743e-05 3.06418e-05 1.36186e-05 3.40464e-06 0 0 5.29931e-06 2.11973e-05 4.76938e-05 8.4789e-05 0.000132483 0.000190775 0.000259666 0.000339156 0.000435768 0.000556026 0.000699929 0.000867479 0.00105867 0.00127352 0.001512 0.00177413 0.00205373 0.0023446 0.00264675 0.00296018 0.00328488 0.00362086 0.00396812 0.00432666 0.00468546 0.00503354 0.00537089 0.00569751 0.00601339 0.00631855 0.00661297 0.00689666 0.00716292 0.00740504 0.00762302 0.00781686 0.00798656 0.00813212 0.00825355 0.00835083 0.00842576 0.00848013 0.00851393 0.00852717 0.00851985 0.00849196 0.00844351 0.0083745 0.00829318 0.00820783 0.00811845 0.00802503 0.00792759 0.0078261 0.00772059 0.00761104 0.00750498 0.00740993 0.00732589 0.00725287 0.00719086 0.00713985 0.00709987 0.00707089 0.0070532 0.00704707 0.0070525 0.00706949 0.00709804 0.00713816 0.00718983 0.00725306 0.00732093 0.00738648 0.00744972 0.00751066 0.00756929 0.00762561 0.00767962 0.00773132 0.007773 0.00779693 0.00780311 0.00779156 0.00776225 0.0077152 0.00765041 0.00756787 0.00746597 0.00734308 0.00719921 0.00703436 0.00684853 0.00664172 0.00641392 0.00616514 0.00590154 0.0056293 0.0053484 0.00505885 0.00476065 0.00445379 0.00413829 0.00381414 0.00349113 0.00317906 0.00287793 0.00258774 0.00230849 0.00204019 0.00178282 0.0015364 0.00130603 0.00109683 0.000908807 0.000741957 0.00059628 0.000471776 0.000368445 0.000286287 0.000219188 0.000161036 0.000111831 7.15716e-05 4.02591e-05 1.78929e-05 4.47323e-06 0 0 6.74556e-06 2.69822e-05 6.071e-05 0.000107929 0.000168639 0.00024284 0.000330532 0.000431716 0.000553485 0.000702934 0.000880062 0.00108487 0.00131736 0.00157753 0.00186538 0.00218091 0.00251668 0.00286525 0.00322662 0.00360079 0.00398776 0.00438753 0.00480011 0.00522548 0.00565096 0.00606383 0.00646411 0.00685178 0.00722686 0.00758934 0.00793921 0.00827649 0.00859346 0.00888241 0.00914334 0.00937626 0.00958115 0.00975803 0.00990689 0.0100277 0.0101226 0.0101935 0.0102404 0.0102634 0.0102625 0.0102376 0.0101887 0.0101159 0.0100286 0.00993619 0.00983877 0.00973631 0.0096288 0.00951625 0.00939865 0.009276 0.00915691 0.00905 0.00895526 0.00887269 0.0088023 0.00874408 0.00869803 0.00866416 0.00864278 0.00863423 0.0086385 0.0086556 0.00868552 0.00872827 0.00878384 0.00885224 0.00892554 0.00899583 0.00906312 0.0091274 0.00918867 0.00924693 0.00930218 0.00935442 0.00939485 0.00941463 0.00941378 0.00939229 0.00935016 0.0092874 0.009204 0.00909997 0.00897346 0.00882265 0.00864753 0.00844811 0.00822438 0.00797634 0.007704 0.00740736 0.00709349 0.0067695 0.00643538 0.00609112 0.00573674 0.00537223 0.00499758 0.00461281 0.00422921 0.00385808 0.00349942 0.00315322 0.0028195 0.00249825 0.00218947 0.00189316 0.00161549 0.00136263 0.00113458 0.000931334 0.000752896 0.000599267 0.000470447 0.000366434 0.000280551 0.000206119 0.000143138 9.16085e-05 5.15298e-05 2.29021e-05 5.72553e-06 0 0 8.40036e-06 3.36015e-05 7.56033e-05 0.000134406 0.000210009 0.000302413 0.000411618 0.000537623 0.000688057 0.000870548 0.00108509 0.0013317 0.00161036 0.00192107 0.00226385 0.00263867 0.00303673 0.00344917 0.003876 0.00431722 0.00477283 0.00524283 0.00572722 0.006226 0.00672466 0.00720869 0.00767808 0.00813284 0.00857297 0.00899846 0.00940933 0.00980556 0.0101784 0.010519 0.0108274 0.0111037 0.0113478 0.0115596 0.0117393 0.0118868 0.0120044 0.0120944 0.0121568 0.0121916 0.0121987 0.0121783 0.0121302 0.0120545 0.0119619 0.0118631 0.0117581 0.011647 0.0115296 0.011406 0.0112762 0.0111402 0.0110078 0.0108887 0.010783 0.0106905 0.0106114 0.0105455 0.0104931 0.0104539 0.0104284 0.010417 0.0104197 0.0104365 0.0104673 0.0105122 0.0105713 0.0106444 0.0107226 0.010797 0.0108676 0.0109344 0.0109974 0.0110565 0.0111119 0.0111634 0.0112011 0.0112151 0.0112053 0.0111718 0.0111145 0.0110335 0.0109287 0.0108002 0.0106459 0.0104636 0.0102536 0.0100156 0.00974979 0.0094561 0.00913454 0.00878511 0.00841588 0.00803491 0.00764221 0.00723777 0.0068216 0.00639369 0.00595405 0.00550268 0.00505247 0.00461634 0.00419429 0.00378632 0.00339242 0.0030126 0.00264686 0.00229519 0.00196494 0.00166345 0.00139071 0.00114672 0.000931493 0.00074502 0.000587302 0.000458339 0.000350916 0.000257816 0.000179039 0.000114585 6.44539e-05 2.86462e-05 7.16155e-06 0 0 1.02637e-05 4.10549e-05 9.23736e-05 0.00016422 0.000256593 0.000369494 0.000502923 0.000656879 0.000839486 0.00105887 0.00131503 0.00160796 0.00193767 0.00230415 0.00270741 0.00314744 0.00361388 0.00409637 0.0045949 0.00510947 0.00564009 0.00618676 0.00674947 0.00732822 0.00790658 0.00846811 0.00901282 0.00954068 0.0100517 0.0105459 0.0110233 0.0114839 0.0119177 0.0123148 0.0126753 0.0129992 0.0132864 0.013537 0.0137509 0.0139281 0.0140713 0.0141829 0.014263 0.0143116 0.0143286 0.014314 0.014268 0.0141904 0.0140932 0.0139886 0.0138765 0.013757 0.0136299 0.0134953 0.0133533 0.0132038 0.0130577 0.0129261 0.012809 0.0127063 0.0126181 0.0125443 0.0124849 0.01244 0.01241 0.0123954 0.012396 0.0124121 0.0124434 0.0124901 0.0125521 0.0126295 0.0127121 0.01279 0.0128632 0.0129317 0.0129954 0.0130544 0.0131087 0.0131582 0.0131918 0.0131983 0.0131778 0.0131301 0.0130554 0.0129535 0.0128246 0.0126686 0.0124832 0.0122661 0.0120173 0.0117369 0.0114248 0.011081 0.0107055 0.0102984 0.00986869 0.00942552 0.00896888 0.00849878 0.00801522 0.00751818 0.00700769 0.00648373 0.00596091 0.00545386 0.00496256 0.00448702 0.00402725 0.00358323 0.00315497 0.00274248 0.00235437 0.00199927 0.00167719 0.00138812 0.00113207 0.000909033 0.00071901 0.000562002 0.000430283 0.000316126 0.000219532 0.000140501 7.90316e-05 3.51251e-05 8.78128e-06 0 0 1.23656e-05 4.94624e-05 0.00011129 0.00019785 0.00030914 0.000445162 0.000605915 0.000791399 0.00101016 0.00127075 0.00157317 0.00191741 0.00230348 0.00273138 0.0032011 0.00371265 0.00425398 0.00481304 0.00538982 0.00598433 0.00659657 0.00722653 0.00787423 0.00853965 0.00920434 0.00984985 0.0104762 0.0110833 0.0116713 0.01224 0.0127896 0.01332 0.0138201 0.0142789 0.0146963 0.0150724 0.0154071 0.0157005 0.0159525 0.0161632 0.0163353 0.0164717 0.0165724 0.0166375 0.0166668 0.0166604 0.0166183 0.0165405 0.0164404 0.0163314 0.0162134 0.0160865 0.0159506 0.0158059 0.0156521 0.0154895 0.0153301 0.0151862 0.0150578 0.0149449 0.0148475 0.0147655 0.0146991 0.0146481 0.0146131 0.0145947 0.0145927 0.0146073 0.0146383 0.0146859 0.01475 0.0148306 0.0149165 0.0149967 0.015071 0.0151396 0.0152025 0.0152595 0.0153107 0.0153562 0.0153835 0.0153801 0.0153461 0.0152815 0.0151863 0.0150604 0.0149039 0.0147168 0.0144966 0.0142406 0.013949 0.0136217 0.0132588 0.0128601 0.0124258 0.0119558 0.0114604 0.0109496 0.0104234 0.00988202 0.00932528 0.00875323 0.00816587 0.0075632 0.00696161 0.00637752 0.0058109 0.00526178 0.00473014 0.00421599 0.00371932 0.00324014 0.0027885 0.00237443 0.00199794 0.00165904 0.00135771 0.00109396 0.00086779 0.0006792 0.000520013 0.00038205 0.000265313 0.0001698 9.55125e-05 4.245e-05 1.06125e-05 0 0 1.47359e-05 5.89436e-05 0.000132623 0.000235774 0.000368398 0.000530493 0.000722059 0.000943098 0.00120247 0.00150905 0.00186283 0.00226382 0.00271201 0.0032074 0.00374999 0.00433978 0.00496288 0.00560538 0.00626728 0.00694858 0.00764928 0.00836938 0.00910888 0.00986779 0.0106255 0.0113616 0.012076 0.0127687 0.0134397 0.014089 0.0147167 0.0153226 0.0158946 0.0164204 0.0168998 0.0173331 0.01772 0.0180608 0.0183552 0.0186034 0.0188085 0.0189735 0.0190984 0.0191833 0.0192281 0.0192328 0.0191975 0.0191221 0.0190214 0.0189101 0.0187882 0.0186558 0.0185127 0.0183592 0.018195 0.0180203 0.0178484 0.0176929 0.0175538 0.017431 0.0173246 0.0172346 0.0171609 0.0171035 0.0170631 0.0170402 0.0170349 0.017047 0.0170767 0.0171239 0.0171886 0.0172708 0.0173582 0.0174387 0.0175122 0.0175787 0.0176382 0.0176907 0.0177362 0.0177747 0.0177926 0.0177761 0.0177254 0.0176403 0.0175209 0.0173671 0.0171791 0.0169567 0.0166973 0.016398 0.0160589 0.01568 0.0152613 0.0148027 0.0143043 0.013766 0.0131993 0.0126152 0.0120139 0.0113953 0.0107595 0.0101064 0.00943598 0.00874833 0.00806167 0.00739423 0.00674601 0.00611702 0.00550726 0.00491672 0.00434541 0.00379332 0.00327207 0.00279326 0.00235689 0.00196297 0.00161149 0.00130245 0.00103586 0.000811711 0.000621466 0.000456587 0.000317075 0.000202928 0.000114147 5.07319e-05 1.2683e-05 0 0 1.73746e-05 6.94986e-05 0.000156372 0.000277994 0.000434366 0.000625487 0.000851357 0.00111198 0.00141642 0.00177377 0.00218402 0.00264718 0.00316324 0.0037322 0.00435406 0.00502883 0.00574058 0.00647339 0.00722727 0.00800222 0.00879822 0.0096153 0.0104534 0.0113126 0.0121702 0.0130034 0.0138123 0.0145969 0.0153571 0.016093 0.0168045 0.0174917 0.0181411 0.0187391 0.0192858 0.0197811 0.0202251 0.0206177 0.020959 0.021249 0.0214909 0.0216882 0.0218409 0.021949 0.0220124 0.0220313 0.0220054 0.021935 0.021836 0.0217246 0.0216009 0.0214647 0.0213162 0.0211552 0.0209819 0.0207961 0.0206127 0.0204463 0.020297 0.0201648 0.0200496 0.0199514 0.0198703 0.0198063 0.01976 0.019732 0.0197225 0.0197313 0.0197584 0.0198039 0.0198678 0.0199501 0.0200373 0.0201162 0.0201867 0.0202489 0.0203027 0.0203481 0.0203851 0.0204138 0.0204192 0.0203865 0.0203156 0.0202064 0.0200592 0.0198737 0.0196501 0.0193883 0.0190853 0.0187382 0.018347 0.0179117 0.0174322 0.0169086 0.0163409 0.015729 0.0150854 0.0144225 0.0137403 0.0130387 0.0123178 0.0115776 0.010818 0.0100391 0.00926106 0.00850398 0.00776788 0.00705275 0.0063586 0.00568542 0.00503323 0.004402 0.00380507 0.00325575 0.00275403 0.00229992 0.00189341 0.00153451 0.00122322 0.000959534 0.000734643 0.000539738 0.000374818 0.000239883 0.000134934 5.99708e-05 1.49927e-05 0 0 2.02818e-05 8.11272e-05 0.000182536 0.000324509 0.000507045 0.000730145 0.000993808 0.00129804 0.00165201 0.00206491 0.00253673 0.00306749 0.00365717 0.00430578 0.00501332 0.00577978 0.00658707 0.00741707 0.0082698 0.00914524 0.0100434 0.0109643 0.0119079 0.0128742 0.0138383 0.0147753 0.0156851 0.0165678 0.0174234 0.0182518 0.0190531 0.0198273 0.0205596 0.0212352 0.0218542 0.0224166 0.0229223 0.0233714 0.0237639 0.0240997 0.0243826 0.024616 0.0248 0.0249347 0.0250199 0.0250557 0.0250422 0.0249792 0.0248844 0.0247751 0.0246515 0.0245134 0.0243609 0.024194 0.0240127 0.023817 0.0236229 0.0234464 0.0232874 0.0231461 0.0230223 0.0229161 0.0228275 0.0227565 0.0227038 0.0226701 0.0226555 0.02266 0.0226835 0.0227261 0.0227878 0.0228684 0.0229537 0.0230291 0.0230946 0.0231501 0.0231958 0.0232316 0.0232575 0.0232734 0.0232634 0.0232111 0.0231166 0.02298 0.0228012 0.0225801 0.0223169 0.0220115 0.0216607 0.0212613 0.0208133 0.0203167 0.0197716 0.0191779 0.0185356 0.0178447 0.0171188 0.0163714 0.0156025 0.0148121 0.0140002 0.0131668 0.012312 0.0114356 0.0105598 0.00970679 0.00887651 0.00806897 0.00728417 0.0065221 0.00578278 0.0050662 0.00438752 0.0037619 0.00318936 0.00266988 0.00220348 0.00179014 0.00142987 0.00112267 0.000859543 0.000631501 0.000438542 0.000280667 0.000157875 7.01668e-05 1.75417e-05 0 0 2.34574e-05 9.38296e-05 0.000211117 0.000375318 0.000586435 0.000844466 0.00114941 0.00150127 0.00190923 0.00238246 0.00292097 0.00352475 0.00419381 0.00492815 0.00572776 0.00659265 0.00750236 0.00843643 0.00939486 0.0103777 0.0113848 0.0124163 0.0134722 0.0145525 0.0156299 0.0166772 0.0176944 0.0186816 0.0196386 0.0205656 0.0214625 0.0223293 0.02315 0.0239086 0.0246051 0.0252395 0.0258117 0.0263219 0.0267699 0.0271558 0.0274834 0.0277567 0.0279756 0.0281402 0.0282504 0.0283063 0.0283078 0.0282549 0.0281665 0.0280616 0.02794 0.0278018 0.027647 0.0274756 0.0272876 0.027083 0.0268791 0.0266931 0.026525 0.0263749 0.0262428 0.0261286 0.0260323 0.025954 0.0258944 0.0258545 0.0258341 0.0258333 0.0258521 0.0258904 0.0259484 0.0260259 0.0261075 0.0261774 0.0262358 0.0262825 0.0263177 0.0263412 0.0263532 0.0263536 0.026325 0.02625 0.0261287 0.0259609 0.0257468 0.0254864 0.0251795 0.0248263 0.0244233 0.0239671 0.0234578 0.0228952 0.0222795 0.0216106 0.0208885 0.0201132 0.0192995 0.018462 0.0176007 0.0167156 0.0158068 0.0148742 0.0139178 0.0129377 0.0119579 0.0110026 0.0100719 0.00916568 0.00828396 0.00742676 0.00659407 0.0057859 0.0050194 0.00431172 0.003