<?xml version="1.0"?> 
<VTKFile type="StructuredGrid" version="0.1"> 
<StructuredGrid WholeExtent="0 128 0 128 0 0"> 
<Piece Extent="0 128 0 128 0 0"> 
<PointData>
<DataArray type="Float32" Name="u" format="ascii" NumberOfComponents="1"> 
0 0 0 0 0 0 0 0 0 0 0 0 0 0 0 0 0 0 0 0 0 0 0 0 0 0 0 0 0 0 0 0 0 0 0 0 0 0 0 0 0 0 0 0 0 0 0 0 0 0 0 0 0 0 0 0 0 0 0 0 0 0 0 0 0 0 0 0 0 0 0 0 0 0 0 0 0 0 0 0 0 0 0 0 0 0 0 0 0 0 0 0 0 0 0 0 0 0 0 0 0 0 0 0 0 0 0 0 0 0 0 0 0 0 0 0 0 0 0 0 0 0 0 0 0 0 0 0 0 0 6.28918e-08 2.51567e-07 5.66027e-07 1.00627e-06 1.5723e-06 2.26411e-06 3.0817e-06 4.02508e-06 5.12097e-06 6.39609e-06 7.85046e-06 9.48406e-06 1.12969e-05 1.3289e-05 1.54603e-05 1.78109e-05 2.0284e-05 2.28229e-05 2.54277e-05 2.80983e-05 3.08348e-05 3.36372e-05 3.65053e-05 3.94394e-05 4.23823e-05 4.52771e-05 4.81239e-05 5.09226e-05 5.36732e-05 5.63758e-05 5.90303e-05 6.16367e-05 6.41672e-05 6.65939e-05 6.89168e-05 7.11359e-05 7.32512e-05 7.52627e-05 7.71703e-05 7.89742e-05 8.06708e-05 8.22568e-05 8.3732e-05 8.50966e-05 8.63504e-05 8.74936e-05 8.85261e-05 8.94479e-05 9.02688e-05 9.09984e-05 9.16369e-05 9.21842e-05 9.26403e-05 9.30052e-05 9.32789e-05 9.34615e-05 9.35642e-05 9.35983e-05 9.35639e-05 9.34609e-05 9.32894e-05 9.30493e-05 9.27407e-05 9.23636e-05 9.19233e-05 9.14252e-05 9.08694e-05 9.02558e-05 8.95845e-05 8.88554e-05 8.80686e-05 8.7224e-05 8.63204e-05 8.53566e-05 8.43326e-05 8.32484e-05 8.21039e-05 8.08993e-05 7.96344e-05 7.83094e-05 7.69219e-05 7.54697e-05 7.3953e-05 7.23716e-05 7.07255e-05 6.90148e-05 6.72395e-05 6.53996e-05 6.35006e-05 6.15481e-05 5.95422e-05 5.74828e-05 5.53699e-05 5.32036e-05 5.09838e-05 4.87105e-05 4.64051e-05 4.40889e-05 4.17619e-05 3.94241e-05 3.70754e-05 3.4716e-05 3.23457e-05 2.99646e-05 2.76124e-05 2.53289e-05 2.31139e-05 2.09675e-05 1.88897e-05 1.68806e-05 1.494e-05 1.3068e-05 1.13005e-05 9.6734e-06 8.18666e-06 6.84031e-06 5.63433e-06 4.56872e-06 3.64349e-06 2.85865e-06 2.18865e-06 1.60799e-06 1.11666e-06 7.14661e-07 4.01997e-07 1.78665e-07 4.46663e-08 0 0 2.51567e-07 1.00627e-06 2.26411e-06 4.02508e-06 6.28918e-06 9.05642e-06 1.23268e-05 1.61003e-05 2.04839e-05 2.55844e-05 3.14018e-05 3.79363e-05 4.51876e-05 5.3156e-05 6.18412e-05 7.12435e-05 8.11359e-05 9.12917e-05 0.000101711 0.000112393 0.000123339 0.000134549 0.000146021 0.000157757 0.000169529 0.000181108 0.000192496 0.00020369 0.000214693 0.000225503 0.000236121 0.000246547 0.000256669 0.000266376 0.000275667 0.000284544 0.000293005 0.000301051 0.000308681 0.000315897 0.000322683 0.000329027 0.000334928 0.000340386 0.000345402 0.000349974 0.000354104 0.000357792 0.000361075 0.000363994 0.000366548 0.000368737 0.000370561 0.000372021 0.000373116 0.000373846 0.000374257 0.000374393 0.000374255 0.000373844 0.000373158 0.000372197 0.000370963 0.000369454 0.000367693 0.000365701 0.000363478 0.000361023 0.000358338 0.000355422 0.000352274 0.000348896 0.000345282 0.000341426 0.00033733 0.000332994 0.000328416 0.000323597 0.000318538 0.000313237 0.000307688 0.000301879 0.000295812 0.000289486 0.000282902 0.000276059 0.000268958 0.000261598 0.000254002 0.000246192 0.000238169 0.000229931 0.00022148 0.000212814 0.000203935 0.000194842 0.00018562 0.000176356 0.000167048 0.000157696 0.000148302 0.000138864 0.000129383 0.000119859 0.00011045 0.000101315 9.24556e-05 8.387e-05 7.55589e-05 6.75222e-05 5.97599e-05 5.2272e-05 4.5202e-05 3.86936e-05 3.27467e-05 2.73612e-05 2.25373e-05 1.82749e-05 1.4574e-05 1.14346e-05 8.7546e-06 6.43195e-06 4.46663e-06 2.85865e-06 1.60799e-06 7.14661e-07 1.78665e-07 0 0 5.66027e-07 2.26411e-06 5.09424e-06 9.05642e-06 1.41507e-05 2.0377e-05 2.77353e-05 3.62257e-05 4.60887e-05 5.75648e-05 7.06541e-05 8.53566e-05 0.000101672 0.000119601 0.000139143 0.000160298 0.000182556 0.000205406 0.000228849 0.000252885 0.000277513 0.000302734 0.000328548 0.000354954 0.00038144 0.000407494 0.000433115 0.000458303 0.000483059 0.000507382 0.000531273 0.000554731 0.000577505 0.000599345 0.000620251 0.000640223 0.000659261 0.000677364 0.000694533 0.000710768 0.000726038 0.000740311 0.000753588 0.000765869 0.000777154 0.000787443 0.000796735 0.000805031 0.000812419 0.000818986 0.000824732 0.000829658 0.000833763 0.000837047 0.00083951 0.000841153 0.000842077 0.000842384 0.000842075 0.000841148 0.000839604 0.000837444 0.000834667 0.000831272 0.00082731 0.000822827 0.000817825 0.000812303 0.000806261 0.000799699 0.000792617 0.000785016 0.000776884 0.000768209 0.000758993 0.000749235 0.000738936 0.000728094 0.00071671 0.000704784 0.000692297 0.000679228 0.000665577 0.000651344 0.00063653 0.000621134 0.000605156 0.000588596 0.000571505 0.000553933 0.000535879 0.000517345 0.000498329 0.000478832 0.000458854 0.000438395 0.000417646 0.0003968 0.000375857 0.000354817 0.000333679 0.000312444 0.000291111 0.000269682 0.000248512 0.00022796 0.000208025 0.000188708 0.000170008 0.000151925 0.00013446 0.000117612 0.000101705 8.70606e-05 7.368e-05 6.15627e-05 5.07089e-05 4.11185e-05 3.27915e-05 2.57278e-05 1.96979e-05 1.44719e-05 1.00499e-05 6.43195e-06 3.61797e-06 1.60799e-06 4.01997e-07 0 0 1.00627e-06 4.02508e-06 9.05642e-06 1.61003e-05 2.51567e-05 3.62257e-05 4.93072e-05 6.44012e-05 8.19355e-05 0.000102337 0.000125607 0.000151745 0.000180751 0.000212624 0.000247365 0.000284974 0.000324543 0.000365167 0.000406843 0.000449574 0.000493357 0.000538195 0.000584085 0.00063103 0.000678116 0.000724434 0.000769982 0.000814761 0.000858772 0.000902013 0.000944485 0.000986188 0.00102668 0.0010655 0.00110267 0.00113817 0.00117202 0.0012042 0.00123473 0.00126359 0.00129073 0.00131611 0.00133971 0.00136155 0.00138161 0.0013999 0.00141642 0.00143117 0.0014443 0.00145597 0.00146619 0.00147495 0.00148224 0.00148808 0.00149246 0.00149538 0.00149703 0.00149757 0.00149702 0.00149537 0.00149263 0.00148879 0.00148385 0.00147782 0.00147077 0.0014628 0.00145391 0.00144409 0.00143335 0.00142169 0.0014091 0.00139558 0.00138113 0.00136571 0.00134932 0.00133197 0.00131366 0.00129439 0.00127415 0.00125295 0.00123075 0.00120752 0.00118325 0.00115795 0.00113161 0.00110424 0.00107583 0.00104639 0.00101601 0.000984769 0.000952674 0.000919724 0.000885918 0.000851257 0.00081574 0.000779368 0.000742482 0.000705423 0.00066819 0.000630785 0.000593207 0.000555456 0.000517531 0.000479434 0.000441799 0.000405262 0.000369822 0.00033548 0.000302236 0.000270089 0.00023904 0.000209088 0.000180808 0.000154774 0.000130987 0.000109445 9.01492e-05 7.30995e-05 5.82959e-05 4.57383e-05 3.50184e-05 2.57278e-05 1.78665e-05 1.14346e-05 6.43195e-06 2.85865e-06 7.14661e-07 0 0 1.5723e-06 6.28918e-06 1.41507e-05 2.51567e-05 3.93074e-05 5.66027e-05 7.70425e-05 0.000100627 0.000128024 0.000159902 0.000196261 0.000237102 0.000282423 0.000332225 0.000386508 0.000445272 0.000507099 0.000570573 0.000635693 0.000702459 0.000770871 0.000840929 0.000912633 0.000985984 0.00105956 0.00113193 0.0012031 0.00127306 0.00134183 0.0014094 0.00147576 0.00154092 0.00160418 0.00166485 0.00172292 0.0017784 0.00183128 0.00188157 0.00192926 0.00197436 0.00201677 0.00205642 0.0020933 0.00212741 0.00215876 0.00218734 0.00221315 0.0022362 0.00225672 0.00227496 0.00229092 0.0023046 0.00231601 0.00232513 0.00233197 0.00233654 0.0023391 0.00233996 0.0023391 0.00233652 0.00233223 0.00232623 0.00231852 0.00230909 0.00229808 0.00228563 0.00227174 0.0022564 0.00223961 0.00222139 0.00220171 0.0021806 0.00215801 0.00213392 0.00210831 0.00208121 0.0020526 0.00202248 0.00199086 0.00195773 0.00192305 0.00188674 0.00184882 0.00180929 0.00176814 0.00172537 0.00168099 0.00163499 0.00158751 0.0015387 0.00148855 0.00143707 0.00138425 0.00133009 0.00127459 0.00121776 0.00116013 0.00110222 0.00104405 0.000985602 0.000926886 0.000867899 0.000808643 0.000749116 0.000690311 0.000633222 0.000577847 0.000524188 0.000472243 0.000422014 0.000373499 0.0003267 0.000282513 0.000241835 0.000204667 0.000171008 0.000140858 0.000114218 9.10874e-05 7.14661e-05 5.47163e-05 4.01997e-05 2.79165e-05 1.78665e-05 1.00499e-05 4.46663e-06 1.11666e-06 0 0 2.26411e-06 9.05642e-06 2.0377e-05 3.62257e-05 5.66027e-05 8.15078e-05 0.000110941 0.000144903 0.000184355 0.000230259 0.000282617 0.000341426 0.000406689 0.000478404 0.000556571 0.000641191 0.000730223 0.000821625 0.000915397 0.00101154 0.00111005 0.00121094 0.00131419 0.00141982 0.00152576 0.00162998 0.00173246 0.00183321 0.00193224 0.00202953 0.00212509 0.00221892 0.00231002 0.00239738 0.00248101 0.00256089 0.00263704 0.00270946 0.00277813 0.00284307 0.00290415 0.00296124 0.00301435 0.00306348 0.00310862 0.00314977 0.00318694 0.00322012 0.00324968 0.00327594 0.00329893 0.00331863 0.00333505 0.00334819 0.00335804 0.00336461 0.00336831 0.00336954 0.0033683 0.00336459 0.00335842 0.00334978 0.00333867 0.00332509 0.00330924 0.00329131 0.0032713 0.00324921 0.00322504 0.0031988 0.00317047 0.00314006 0.00310753 0.00307284 0.00303597 0.00299694 0.00295574 0.00291237 0.00286684 0.00281914 0.00276919 0.00271691 0.00266231 0.00260538 0.00254612 0.00248453 0.00242062 0.00235438 0.00228602 0.00221573 0.00214352 0.00206938 0.00199332 0.00191533 0.00183542 0.00175358 0.00167058 0.0015872 0.00150343 0.00141927 0.00133472 0.00124978 0.00116445 0.00107873 0.000994048 0.000911839 0.0008321 0.00075483 0.00068003 0.0006077 0.000537839 0.000470448 0.000406818 0.000348242 0.00029472 0.000246251 0.000202836 0.000164474 0.000131166 0.000102911 7.87914e-05 5.78876e-05 4.01997e-05 2.57278e-05 1.44719e-05 6.43195e-06 1.60799e-06 0 0 3.0817e-06 1.23268e-05 2.77353e-05 4.93072e-05 7.70425e-05 0.000110941 0.000151003 0.000197229 0.000250927 0.000313409 0.000384673 0.000464719 0.000553548 0.00065116 0.000757555 0.000872732 0.000993914 0.00111832 0.00124596 0.00137682 0.00151091 0.00164822 0.00178876 0.00193253 0.00207673 0.00221858 0.00235807 0.00249521 0.00262999 0.00276241 0.00289248 0.0030202 0.00314419 0.0032631 0.00337692 0.00348566 0.00358931 0.00368787 0.00378135 0.00386974 0.00395287 0.00403058 0.00410287 0.00416973 0.00423117 0.00428719 0.00433778 0.00438295 0.00442317 0.00445892 0.00449021 0.00451703 0.00453937 0.00455726 0.00457067 0.00457961 0.00458464 0.00458632 0.00458463 0.00457958 0.00457118 0.00455942 0.0045443 0.00452582 0.00450424 0.00447984 0.0044526 0.00442254 0.00438964 0.00435392 0.00431536 0.00427398 0.0042297 0.00418247 0.0041323 0.00407917 0.00402309 0.00396407 0.00390209 0.00383716 0.00376917 0.00369802 0.0036237 0.00354621 0.00346555 0.00338173 0.00329474 0.00320458 0.00311153 0.00301586 0.00291757 0.00281665 0.00271312 0.00260697 0.0024982 0.00238682 0.00227385 0.00216036 0.00204633 0.00193178 0.0018167 0.00170108 0.00158494 0.00146827 0.00135301 0.00124111 0.00113258 0.00102741 0.000925597 0.000827147 0.000732059 0.000640332 0.000553725 0.000473996 0.000401146 0.000335175 0.000276082 0.000223867 0.000178531 0.000140074 0.000107244 7.87914e-05 5.47163e-05 3.50184e-05 1.96979e-05 8.7546e-06 2.18865e-06 0 0 4.02508e-06 1.61003e-05 3.62257e-05 6.44012e-05 0.000100627 0.000144903 0.000197229 0.000257605 0.000327742 0.00040935 0.000502429 0.00060698 0.000723002 0.000850495 0.00098946 0.0011399 0.00129817 0.00146067 0.00162737 0.00179829 0.00197343 0.00215278 0.00233634 0.00252412 0.00271247 0.00289774 0.00307993 0.00325905 0.00343509 0.00360805 0.00377794 0.00394475 0.0041067 0.00426201 0.00441068 0.0045527 0.00468808 0.00481681 0.0049389 0.00505435 0.00516293 0.00526443 0.00535885 0.00544618 0.00552643 0.00559959 0.00566567 0.00572467 0.0057772 0.0058239 0.00586476 0.00589979 0.00592898 0.00595233 0.00596985 0.00598153 0.00598811 0.00599029 0.00598809 0.0059815 0.00597052 0.00595516 0.00593541 0.00591127 0.00588309 0.00585121 0.00581564 0.00577637 0.00573341 0.00568675 0.00563639 0.00558234 0.00552451 0.00546282 0.00539729 0.0053279 0.00525465 0.00517756 0.0050966 0.0050118 0.004923 0.00483006 0.00473299 0.00463178 0.00452643 0.00441695 0.00430333 0.00418557 0.00406404 0.00393908 0.0038107 0.0036789 0.00354367 0.00340503 0.00326296 0.00311747 0.00296993 0.00282169 0.00267276 0.00252314 0.00237283 0.00222182 0.00207013 0.00191774 0.0017672 0.00162105 0.00147929 0.00134192 0.00120894 0.00108036 0.000956158 0.000836352 0.000723233 0.000619097 0.000523946 0.00043778 0.000360597 0.000292398 0.000233184 0.000182953 0.000140074 0.000102911 7.14661e-05 4.57383e-05 2.57278e-05 1.14346e-05 2.85865e-06 0 0 5.1319e-06 2.05276e-05 4.61871e-05 8.21105e-05 0.000128298 0.000184749 0.000251463 0.000328442 0.000417794 0.000521629 0.000639948 0.00077275 0.000920035 0.0010818 0.00125806 0.00144879 0.00164942 0.00185535 0.00206659 0.00228313 0.00250497 0.00273212 0.00296457 0.00320233 0.00344079 0.00367537 0.00390606 0.00413286 0.00435577 0.00457479 0.00478993 0.00500117 0.00520628 0.00540299 0.0055913 0.00577122 0.00594274 0.00610586 0.00626059 0.00640692 0.00654458 0.00667327 0.00679299 0.00690375 0.00700555 0.00709839 0.00718227 0.00725718 0.00732391 0.00738324 0.00743518 0.00747972 0.00751686 0.00754661 0.00756896 0.00758391 0.00759238 0.00759528 0.00759261 0.00758436 0.00757055 0.00755116 0.0075262 0.00749567 0.00746001 0.00741965 0.00737459 0.00732484 0.00727038 0.00721123 0.00714738 0.00707884 0.0070055 0.00692727 0.00684416 0.00675615 0.00666326 0.00656548 0.00646281 0.00635525 0.00624263 0.00612477 0.00600168 0.00587335 0.00573979 0.00560099 0.00545695 0.00530768 0.00515363 0.00499526 0.00483256 0.00466554 0.0044942 0.00431853 0.00413855 0.00395423 0.00376732 0.00357954 0.00339088 0.00320135 0.00301095 0.00281967 0.00262752 0.0024345 0.00224381 0.00205865 0.00187902 0.00170493 0.00153638 0.00137335 0.00121587 0.00106391 0.000920401 0.000788237 0.000667423 0.000557957 0.00045984 0.000373072 0.000297653 0.000233583 0.000178837 0.000131391 9.12434e-05 5.83958e-05 3.28476e-05 1.45989e-05 3.64974e-06 0 0 6.43985e-06 2.57594e-05 5.79586e-05 0.000103038 0.000160996 0.000231834 0.000315552 0.00041215 0.00052408 0.000653792 0.000801289 0.000966569 0.00114963 0.00135048 0.00156911 0.00180553 0.00205407 0.00230907 0.00257054 0.00283848 0.00311289 0.00339376 0.00368109 0.0039749 0.00426954 0.0045594 0.00484447 0.00512476 0.00540027 0.00567098 0.00593692 0.00619806 0.00645165 0.00669491 0.00692783 0.00715043 0.00736268 0.00756461 0.00775621 0.00793747 0.00810804 0.00826754 0.00841599 0.00855339 0.00867972 0.008795 0.00889921 0.00899237 0.00907542 0.00914931 0.00921404 0.00926961 0.00931601 0.00935326 0.00938135 0.00940027 0.00941115 0.0094151 0.00941212 0.00940221 0.00938537 0.00936159 0.00933089 0.00929325 0.00924923 0.00919935 0.00914362 0.00908204 0.0090146 0.00894131 0.00886217 0.00877718 0.00868623 0.00858921 0.00848612 0.00837697 0.00826175 0.00814047 0.00801312 0.0078797 0.00774001 0.00759387 0.00744125 0.00728218 0.00711664 0.00694463 0.00676616 0.00658123 0.00639041 0.00619427 0.00599281 0.00578604 0.00557395 0.00535654 0.00513382 0.00490578 0.00467454 0.00444224 0.00420886 0.00397442 0.0037389 0.00350231 0.00326465 0.00302592 0.00279003 0.00256092 0.00233858 0.00212301 0.00191421 0.00171217 0.00151691 0.00132842 0.00115029 0.000986108 0.000835879 0.0006996 0.000577273 0.000468896 0.000374471 0.000293996 0.000225091 0.000165373 0.000114842 7.34991e-05 4.13432e-05 1.83748e-05 4.59369e-06 0 0 7.9489e-06 3.17956e-05 7.15401e-05 0.000127182 0.000198723 0.000286161 0.000389496 0.00050873 0.000646598 0.000805839 0.000986453 0.00118844 0.0014118 0.00165653 0.00192263 0.0022101 0.00251212 0.00282183 0.00313924 0.00346436 0.00379717 0.00413769 0.00448591 0.00484183 0.00519871 0.00554983 0.00589518 0.00623477 0.00656858 0.00689663 0.00721891 0.00753542 0.00784283 0.00813778 0.00842028 0.00869032 0.00894792 0.00919306 0.00942575 0.00964599 0.00985331 0.0100473 0.0102279 0.0103951 0.0105489 0.0106894 0.0108165 0.0109303 0.0110317 0.0111221 0.0112013 0.0112695 0.0113264 0.0113723 0.011407 0.0114306 0.0114444 0.0114498 0.0114466 0.011435 0.011415 0.0113865 0.0113495 0.011304 0.0112507 0.0111903 0.0111227 0.011048 0.0109661 0.010877 0.0107808 0.0106774 0.0105667 0.0104486 0.0103232 0.0101904 0.0100501 0.00990252 0.00974753 0.00958514 0.00941515 0.00923734 0.00905171 0.00885825 0.00865698 0.00844788 0.00823096 0.00800621 0.00777436 0.0075361 0.00729144 0.00704038 0.00678291 0.00651905 0.00624878 0.00597211 0.00569159 0.00540979 0.00512671 0.00484234 0.00455668 0.00426974 0.00398151 0.00369199 0.00340588 0.00312787 0.00285796 0.00259615 0.00234243 0.00209681 0.00185929 0.00162987 0.0014129 0.00121271 0.00102931 0.000862709 0.000712894 0.00057987 0.000463636 0.000364192 0.000278835 0.000204858 0.000142263 9.10481e-05 5.12146e-05 2.2762e-05 5.69051e-06 0 0 9.65907e-06 3.86363e-05 8.69317e-05 0.000154545 0.000241477 0.000347727 0.000473295 0.000618181 0.000785351 0.00097777 0.00119544 0.00143836 0.00170652 0.00199994 0.00231861 0.00266252 0.00302357 0.00339362 0.00377268 0.00416075 0.00455783 0.00496392 0.00537901 0.00580312 0.00622831 0.00664666 0.00705818 0.00746287 0.00786072 0.00825173 0.00863591 0.00901325 0.0093798 0.00973159 0.0100686 0.0103909 0.0106984 0.0109912 0.0112692 0.0115325 0.0117804 0.0120124 0.0122286 0.0124288 0.0126132 0.0127816 0.0129342 0.0130708 0.0131929 0.0133016 0.0133971 0.0134793 0.0135481 0.0136037 0.013646 0.013675 0.0136922 0.0136992 0.0136961 0.0136828 0.0136594 0.0136257 0.0135819 0.0135279 0.0134646 0.0133925 0.0133119 0.0132226 0.0131248 0.0130183 0.0129031 0.0127794 0.0126469 0.0125055 0.0123553 0.0121963 0.0120284 0.0118516 0.011666 0.0114716 0.0112681 0.0110552 0.0108331 0.0106016 0.0103608 0.0101107 0.00985133 0.00958263 0.00930548 0.00902075 0.00872845 0.00842856 0.0081211 0.00780605 0.00748342 0.00715322 0.00681847 0.0064822 0.00614441 0.00580511 0.00546429 0.00512195 0.00477809 0.00443272 0.00409135 0.0037595 0.00343717 0.00312435 0.00282105 0.00252728 0.00224302 0.00196827 0.00170822 0.00146804 0.00124773 0.00104728 0.000866704 0.000705993 0.000565149 0.000444172 0.000340069 0.000249847 0.000173505 0.000111043 6.24617e-05 2.77607e-05 6.94018e-06 0 0 1.15704e-05 4.62814e-05 0.000104133 0.000185126 0.000289259 0.000416533 0.000566948 0.000740503 0.000940336 0.00116958 0.00142825 0.00171633 0.00203382 0.00238073 0.00275705 0.00316278 0.00358842 0.00402445 0.00447087 0.00492767 0.00539486 0.00587244 0.00636041 0.00685877 0.00735832 0.00784989 0.00833347 0.00880906 0.00927667 0.00973628 0.0101879 0.0106315 0.0110626 0.0114764 0.0118729 0.0122522 0.0126142 0.012959 0.0132866 0.0135969 0.0138893 0.0141631 0.0144182 0.0146546 0.0148725 0.0150716 0.0152522 0.0154141 0.0155588 0.0156879 0.0158013 0.015899 0.0159811 0.0160475 0.0160982 0.0161333 0.0161545 0.0161636 0.0161606 0.0161456 0.0161186 0.0160795 0.0160283 0.015965 0.0158907 0.015806 0.0157112 0.0156061 0.0154907 0.0153651 0.0152293 0.0150832 0.0149268 0.0147599 0.0145826 0.0143948 0.0141966 0.0139878 0.0137687 0.013539 0.0132987 0.0130475 0.0127853 0.0125122 0.0122281 0.0119332 0.0116273 0.0113105 0.0109838 0.0106482 0.0103038 0.00995059 0.0095885 0.00921755 0.00883776 0.00844912 0.00805517 0.00765945 0.00726198 0.00686273 0.00646172 0.00605895 0.00565441 0.00524811 0.00484644 0.0044558 0.00407619 0.00370762 0.00335007 0.00300356 0.00266807 0.00234362 0.00203627 0.00175211 0.00149112 0.00125332 0.0010387 0.000847265 0.000679009 0.000533934 0.000408793 0.000300338 0.000208568 0.000133484 7.50845e-05 3.33709e-05 8.34272e-06 0 0 1.36828e-05 5.4731e-05 0.000123145 0.000218924 0.000342069 0.000492579 0.000670455 0.000875697 0.00111156 0.00138128 0.00168488 0.00202234 0.00239368 0.00279888 0.00323795 0.00371089 0.00420668 0.00471432 0.00523379 0.00576511 0.00630826 0.00686326 0.0074301 0.00800878 0.00858876 0.00915952 0.00972105 0.0102734 0.0108164 0.0113503 0.0118749 0.0123903 0.0128911 0.0133721 0.0138331 0.0142741 0.0146953 0.0150966 0.0154779 0.0158394 0.01618 0.0164991 0.0167966 0.0170725 0.0173268 0.0175595 0.0177705 0.01796 0.0181296 0.0182809 0.018414 0.0185288 0.0186254 0.0187037 0.0187637 0.0188056 0.0188312 0.0188427 0.0188401 0.0188234 0.0187926 0.0187476 0.0186885 0.0186153 0.0185291 0.0184308 0.0183205 0.0181982 0.0180639 0.0179176 0.0177593 0.0175889 0.0174065 0.0172118 0.017005 0.0167859 0.0165546 0.0163111 0.0160554 0.0157875 0.0155071 0.0152141 0.0149084 0.01459 0.014259 0.0139152 0.0135588 0.0131898 0.0128093 0.0124185 0.0120176 0.0116065 0.0111851 0.0107536 0.0103118 0.0098598 0.0094017 0.00894156 0.0084794 0.00801521 0.00754899 0.00708074 0.00661046 0.00613815 0.00567115 0.00521678 0.00477505 0.00434595 0.00392949 0.00352566 0.00313447 0.00275591 0.00239704 0.0020649 0.0017595 0.00148083 0.00122889 0.00100369 0.000805217 0.00063348 0.000485008 0.000356333 0.000247453 0.00015837 8.90831e-05 3.95925e-05 9.89813e-06 0 0 1.59963e-05 6.39851e-05 0.000143967 0.00025594 0.000399907 0.000575866 0.000783818 0.00102376 0.00129901 0.00161286 0.00196533 0.00235641 0.0027861 0.0032544 0.00376131 0.00430683 0.00487834 0.00546322 0.00606146 0.00667306 0.00729804 0.00793637 0.00858808 0.00925315 0.00991962 0.0105755 0.0112209 0.0118557 0.01248 0.0130937 0.0136969 0.0142895 0.0148655 0.0154187 0.0159491 0.0164568 0.0169417 0.0174038 0.0178432 0.0182598 0.0186526 0.0190206 0.0193639 0.0196824 0.0199761 0.0202451 0.0204893 0.0207087 0.0209052 0.0210806 0.0212351 0.0213685 0.0214809 0.0215722 0.0216426 0.0216919 0.0217225 0.0217367 0.0217346 0.0217162 0.0216814 0.0216302 0.0215627 0.0214788 0.0213798 0.0212668 0.0211399 0.0209991 0.0208443 0.0206756 0.020493 0.0202965 0.0200859 0.0198612 0.0196224 0.0193695 0.0191025 0.0188214 0.0185262 0.0182169 0.0178933 0.0175551 0.0172024 0.0168351 0.0164533 0.0160569 0.015646 0.0152205 0.0147819 0.0143317 0.0138698 0.0133962 0.012911 0.0124141 0.0119055 0.0113853 0.0108581 0.0103285 0.00979669 0.00926254 0.00872609 0.00818732 0.00764624 0.00710285 0.00656548 0.00604243 0.00553372 0.00503934 0.0045593 0.00409358 0.0036422 0.00320515 0.00279053 0.00240643 0.00205285 0.0017298 0.00143727 0.00117526 0.000943772 0.000742809 0.000568713 0.00041783 0.00029016 0.000185702 0.000104457 4.64256e-05 1.16064e-05 0 0 1.85109e-05 7.40436e-05 0.000166598 0.000296175 0.000462773 0.000666393 0.000907035 0.0011847 0.00150269 0.00186433 0.00226961 0.00271853 0.00321109 0.00374729 0.00432713 0.00495062 0.0056034 0.00627115 0.00695387 0.00765154 0.00836418 0.00909178 0.00983435 0.0105919 0.0113509 0.012098 0.0128331 0.0135562 0.0142674 0.0149667 0.0156539 0.0163292 0.0169857 0.0176163 0.0182211 0.0188001 0.0193534 0.0198808 0.0203824 0.0208581 0.021307 0.0217276 0.0221201 0.0224844 0.0228205 0.0231285 0.0234083 0.02366 0.0238855 0.0240871 0.0242646 0.0244181 0.0245477 0.0246532 0.0247346 0.0247921 0.0248282 0.0248455 0.0248441 0.0248239 0.0247849 0.0247272 0.0246507 0.0245554 0.0244428 0.0243141 0.0241694 0.0240087 0.023832 0.0236393 0.0234306 0.0232058 0.022965 0.022708 0.0224349 0.0221457 0.0218403 0.0215188 0.0211812 0.0208274 0.0204572 0.0200705 0.0196672 0.0192474 0.0188111 0.0183582 0.0178887 0.0174027 0.0169017 0.0163876 0.0158603 0.0153198 0.014766 0.0141991 0.0136189 0.0130255 0.0124242 0.0118203 0.0112138 0.0106047 0.00999301 0.00937868 0.00876175 0.00814221 0.00752943 0.00693276 0.00635222 0.0057878 0.0052395 0.00470732 0.00419127 0.00369133 0.00321674 0.00277669 0.00237119 0.00200023 0.00166383 0.00136198 0.00109468 0.000861921 0.000659908 0.00048483 0.000336688 0.00021548 0.000121208 5.38701e-05 1.34675e-05 0 0 2.11841e-05 8.47364e-05 0.000190657 0.000338946 0.000529603 0.000762628 0.00103802 0.00135578 0.00171917 0.00213144 0.00259259 0.00310262 0.00366154 0.00426933 0.00492601 0.00563157 0.00636987 0.00712476 0.00789625 0.00868434 0.00948901 0.0103103 0.0111482 0.0120026 0.0128587 0.0137013 0.0145304 0.0153462 0.0161485 0.0169374 0.0177128 0.0184748 0.0192156 0.0199274 0.0206103 0.0212642 0.0218891 0.0224851 0.0230521 0.0235901 0.0240977 0.0245737 0.025018 0.0254305 0.0258114 0.0261605 0.0264779 0.0267636 0.0270199 0.027249 0.027451 0.0276259 0.0277736 0.0278942 0.0279876 0.0280539 0.0280959 0.0281166 0.028116 0.0280941 0.0280509 0.0279864 0.0279006 0.0277934 0.0276665 0.0275214 0.0273581 0.0271765 0.0269768 0.0267588 0.0265226 0.0262682 0.0259956 0.0257047 0.0253954 0.0250679 0.0247222 0.0243581 0.0239757 0.0235751 0.023156 0.0227182 0.0222618 0.0217867 0.021293 0.0207806 0.0202496 0.0196999 0.0191335 0.0185522 0.0179562 0.0173453 0.0167196 0.0160791 0.0154238 0.0147536 0.0140746 0.0133926 0.0127078 0.01202 0.0113292 0.0106356 0.00993905 0.00923956 0.00854759 0.00787359 0.00721755 0.00657948 0.00595936 0.00535721 0.00477303 0.0042068 0.00366894 0.00316982 0.00270946 0.00228785 0.00190499 0.00156088 0.00125552 0.000988919 0.000757141 0.000556267 0.000386296 0.00024723 0.000139067 6.18074e-05 1.54519e-05 0 0 2.39733e-05 9.58933e-05 0.00021576 0.000383573 0.000599333 0.00086304 0.00117469 0.00153429 0.00194499 0.00240995 0.00292916 0.00350262 0.00413034 0.00481231 0.00554854 0.00633902 0.00716574 0.00801069 0.00887385 0.00975524 0.0106549 0.0115727 0.0125087 0.013463 0.0144189 0.0153599 0.0162859 0.017197 0.0180931 0.0189742 0.0198404 0.0206916 0.0215192 0.0223147 0.0230779 0.023809 0.0245078 0.0251744 0.0258089 0.0264111 0.0269796 0.0275127 0.0280105 0.0284729 0.0289 0.0292918 0.0296482 0.0299693 0.0302575 0.0305153 0.0307428 0.0309399 0.0311066 0.0312429 0.0313489 0.0314245 0.0314729 0.0314974 0.0314979 0.0314744 0.031427 0.0313557 0.0312603 0.031141 0.0309995 0.0308375 0.030655 0.030452 0.0302285 0.0299844 0.0297199 0.0294349 0.0291294 0.0288033 0.0284568 0.0280897 0.0277022 0.0272941 0.0268655 0.0264164 0.0259467 0.0254561 0.0249448 0.0244126 0.0238596 0.0232859 0.0226913 0.0220759 0.0214418 0.0207913 0.0201244 0.019441 0.0187411 0.0180247 0.0172919 0.0165426 0.0157834 0.015021 0.0142554 0.0134865 0.0127143 0.0119389 0.0111602 0.0103782 0.00960459 0.00885075 0.00811673 0.00740253 0.00670814 0.00603358 0.00537883 0.0047439 0.00414041 0.00357999 0.00306264 0.00258836 0.00215714 0.001769 0.00142392 0.00112191 0.000858959 0.000631072 0.000438244 0.000280476 0.000157768 7.01191e-05 1.75298e-05 0 0 2.68786e-05 0.000107514 0.000241907 0.000430057 0.000671964 0.000967628 0.00131705 0.00172023 0.00218016 0.00269986 0.00327931 0.00391853 0.0046175 0.00537623 0.00619472 0.00707297 0.00799102 0.00892892 0.00988667 0.0108643 0.0118617 0.012879 0.0139161 0.0149731 0.0160318 0.0170739 0.0180995 0.0191086 0.0201011 0.0210771 0.0220366 0.0229796 0.0238966 0.0247781 0.025624 0.0264345 0.0272094 0.0279489 0.0286528 0.0293212 0.0299524 0.0305445 0.0310975 0.0316115 0.0320864 0.0325223 0.0329191 0.0332769 0.0335982 0.0338859 0.0341398 0.0343601 0.0345466 0.0346995 0.0348186 0.0349041 0.0349593 0.0349878 0.0349896 0.0349648 0.0349132 0.0348349 0.0347299 0.0345982 0.0344418 0.0342624 0.0340602 0.0338351 0.0335871 0.0333162 0.0330224 0.0327058 0.0323663 0.032004 0.0316189 0.031211 0.0307803 0.0303268 0.0298505 0.0293514 0.0288293 0.0282843 0.0277162 0.0271251 0.026511 0.0258739 0.0252138 0.0245306 0.0238268 0.0231049 0.0223649 0.0216067 0.0208304 0.0200359 0.0192232 0.0183925 0.0175508 0.0167056 0.0158567 0.0150042 0.0141481 0.0132884 0.0124252 0.0115583 0.0107004 0.00986423 0.00904975 0.00825695 0.00748584 0.00673641 0.00600867 0.00530261 0.00463115 0.00400719 0.00343072 0.00290176 0.00242029 0.00198632 0.00159985 0.00126088 0.000965363 0.000709246 0.000492532 0.00031522 0.000177312 7.88051e-05 1.97013e-05 0 0 2.98998e-05 0.000119599 0.000269098 0.000478397 0.000747495 0.00107639 0.00146509 0.00191359 0.00242468 0.00300117 0.00364306 0.00435034 0.00512301 0.00596108 0.00686455 0.00783341 0.0088457 0.00987946 0.0109347 0.0120114 0.0131096 0.0142292 0.0153703 0.0165329 0.0176971 0.0188432 0.0199712 0.021081 0.0221727 0.0232462 0.0243016 0.0253389 0.0263477 0.0273175 0.0282486 0.0291407 0.029994 0.0308084 0.0315839 0.0323205 0.0330163 0.0336692 0.0342792 0.0348464 0.0353707 0.0358521 0.0362907 0.0366865 0.0370422 0.0373608 0.0376422 0.0378865 0.0380937 0.0382638 0.0383967 0.0384925 0.038555 0.0385879 0.0385913 0.0385651 0.0385094 0.0384242 0.0383094 0.038165 0.0379932 0.0377961 0.0375736 0.0373258 0.0370526 0.0367541 0.0364302 0.0360809 0.0357064 0.0353067 0.0348819 0.0344318 0.0339566 0.0334562 0.0329307 0.0323799 0.0318039 0.0312027 0.0305761 0.0299243 0.0292471 0.0285447 0.027817 0.027064 0.0262884 0.025493 0.0246777 0.0238425 0.0229875 0.0221126 0.0212179 0.0203032 0.0193767 0.0184462 0.0175117 0.0165732 0.0156308 0.0146844 0.013734 0.0127796 0.011835 0.010914 0.0100166 0.00914275 0.00829245 0.00746572 0.00666255 0.00588295 0.00514116 0.00445141 0.00381371 0.00322805 0.00269443 0.00221286 0.00178333 0.00140585 0.00107635 0.000790789 0.000549159 0.000351462 0.000197697 8.78654e-05 2.19664e-05 0 0 3.30371e-05 0.000132148 0.000297334 0.000528593 0.000825927 0.00118934 0.00161882 0.00211437 0.00267855 0.00331389 0.00402039 0.00479805 0.00564688 0.00656687 0.00755803 0.00862035 0.00972979 0.0108623 0.0120179 0.0131966 0.0143984 0.0156233 0.0168712 0.0181423 0.019415 0.0206679 0.0219009 0.0231142 0.0243077 0.0254814 0.0266353 0.0277694 0.0288724 0.0299332 0.0309516 0.0319277 0.0328614 0.0337529 0.034602 0.0354089 0.0361712 0.0368867 0.0375555 0.0381775 0.0387528 0.0392813 0.039763 0.040198 0.0405893 0.0409399 0.0412499 0.0415192 0.0417479 0.0419359 0.0420832 0.0421899 0.04226 0.0422977 0.0423028 0.0422755 0.0422157 0.0421234 0.0419986 0.0418414 0.0416539 0.0414386 0.0411953 0.0409241 0.040625 0.040298 0.0399431 0.0395603 0.0391497 0.0387115 0.0382457 0.0377522 0.0372311 0.0366824 0.036106 0.0355021 0.0348705 0.0342113 0.0335245 0.03281 0.032068 0.0312983 0.0305011 0.0296762 0.0288267 0.0279556 0.0270628 0.0261485 0.0252125 0.0242549 0.0232757 0.0222749 0.0212611 0.0202429 0.0192204 0.0181935 0.0171622 0.0161266 0.0150866 0.0140423 0.0130085 0.0120002 0.0110173 0.0100599 0.00912798 0.0082215 0.00734048 0.00648492 0.00567044 0.00491267 0.0042116 0.00356723 0.00297957 0.00244861 0.00197435 0.0015568 0.00119193 0.0008757 0.000608125 0.0003892 0.000218925 9.73e-05 2.4325e-05 0 0 3.62904e-05 0.000145161 0.000326613 0.000580646 0.000907259 0.00130645 0.00177823 0.00232258 0.00294176 0.003638 0.00441131 0.00526167 0.00618911 0.0071936 0.00827516 0.00943378 0.0106433 0.0118775 0.0131364 0.01442 0.0157283 0.0170613 0.018419 0.0198014 0.0211854 0.0225478 0.0238888 0.0252083 0.0265063 0.