<?xml version="1.0"?> 
<VTKFile type="StructuredGrid" version="0.1"> 
<StructuredGrid WholeExtent="0 128 0 128 0 0"> 
<Piece Extent="0 128 0 128 0 0"> 
<PointData>
<DataArray type="Float32" Name="u" format="ascii" NumberOfComponents="1"> 
0 0 0 0 0 0 0 0 0 0 0 0 0 0 0 0 0 0 0 0 0 0 0 0 0 0 0 0 0 0 0 0 0 0 0 0 0 0 0 0 0 0 0 0 0 0 0 0 0 0 0 0 0 0 0 0 0 0 0 0 0 0 0 0 0 0 0 0 0 0 0 0 0 0 0 0 0 0 0 0 0 0 0 0 0 0 0 0 0 0 0 0 0 0 0 0 0 0 0 0 0 0 0 0 0 0 0 0 0 0 0 0 0 0 0 0 0 0 0 0 0 0 0 0 0 0 0 0 0 0 4.29984e-08 1.71994e-07 3.86986e-07 6.87975e-07 1.07496e-06 1.54794e-06 2.10692e-06 2.7519e-06 3.51687e-06 4.43581e-06 5.50874e-06 6.73565e-06 8.11654e-06 9.65141e-06 1.13403e-05 1.31831e-05 1.51299e-05 1.71306e-05 1.91852e-05 2.12938e-05 2.34563e-05 2.56727e-05 2.79431e-05 3.02674e-05 3.25839e-05 3.48308e-05 3.70082e-05 3.91162e-05 4.11546e-05 4.31234e-05 4.50228e-05 4.68526e-05 4.85846e-05 5.01903e-05 5.16699e-05 5.30234e-05 5.42506e-05 5.53516e-05 5.63265e-05 5.71751e-05 5.79082e-05 5.85363e-05 5.90595e-05 5.94776e-05 5.97908e-05 5.99991e-05 6.01024e-05 6.01007e-05 6.00276e-05 5.9917e-05 5.97687e-05 5.95828e-05 5.93593e-05 5.90981e-05 5.87993e-05 5.84629e-05 5.81176e-05 5.77924e-05 5.74872e-05 5.7202e-05 5.69368e-05 5.66916e-05 5.64665e-05 5.62614e-05 5.60785e-05 5.59202e-05 5.57863e-05 5.5677e-05 5.55921e-05 5.55317e-05 5.54959e-05 5.54845e-05 5.54734e-05 5.54384e-05 5.53795e-05 5.52966e-05 5.51898e-05 5.50591e-05 5.49044e-05 5.47258e-05 5.44938e-05 5.41791e-05 5.37815e-05 5.33012e-05 5.27381e-05 5.20922e-05 5.13635e-05 5.0552e-05 4.9649e-05 4.86456e-05 4.75419e-05 4.63379e-05 4.50336e-05 4.36289e-05 4.2124e-05 4.05187e-05 3.88382e-05 3.71076e-05 3.53268e-05 3.34959e-05 3.16149e-05 2.96837e-05 2.77024e-05 2.5671e-05 2.36416e-05 2.16664e-05 1.97454e-05 1.78786e-05 1.6066e-05 1.43075e-05 1.26033e-05 1.09532e-05 9.3968e-06 7.97357e-06 6.6835e-06 5.5266e-06 4.50286e-06 3.61229e-06 2.85488e-06 2.23064e-06 1.70783e-06 1.25473e-06 8.71344e-07 5.5766e-07 3.13684e-07 1.39415e-07 3.48537e-08 0 0 1.71994e-07 6.87975e-07 1.54794e-06 2.7519e-06 4.29984e-06 6.19178e-06 8.42769e-06 1.10076e-05 1.40675e-05 1.77433e-05 2.2035e-05 2.69426e-05 3.24662e-05 3.86057e-05 4.53611e-05 5.27324e-05 6.05196e-05 6.85224e-05 7.6741e-05 8.51753e-05 9.38253e-05 0.000102691 0.000111772 0.000121069 0.000130335 0.000139323 0.000148033 0.000156465 0.000164618 0.000172494 0.000180091 0.00018741 0.000194338 0.000200761 0.00020668 0.000212093 0.000217002 0.000221406 0.000225306 0.0002287 0.000231633 0.000234145 0.000236238 0.000237911 0.000239163 0.000239996 0.000240409 0.000240403 0.000240111 0.000239668 0.000239075 0.000238331 0.000237437 0.000236392 0.000235197 0.000233851 0.00023247 0.00023117 0.000229949 0.000228808 0.000227747 0.000226767 0.000225866 0.000225046 0.000224314 0.000223681 0.000223145 0.000222708 0.000222368 0.000222127 0.000221983 0.000221938 0.000221894 0.000221754 0.000221518 0.000221186 0.000220759 0.000220236 0.000219618 0.000218903 0.000217975 0.000216716 0.000215126 0.000213205 0.000210952 0.000208369 0.000205454 0.000202208 0.000198596 0.000194582 0.000190168 0.000185352 0.000180134 0.000174516 0.000168496 0.000162075 0.000155353 0.00014843 0.000141307 0.000133984 0.000126459 0.000118735 0.00011081 0.000102684 9.45665e-05 8.66658e-05 7.89817e-05 7.15144e-05 6.42639e-05 5.72301e-05 5.04131e-05 4.38128e-05 3.75872e-05 3.18943e-05 2.6734e-05 2.21064e-05 1.80114e-05 1.44492e-05 1.14195e-05 8.92256e-06 6.83133e-06 5.01894e-06 3.48537e-06 2.23064e-06 1.25473e-06 5.5766e-07 1.39415e-07 0 0 3.86986e-07 1.54794e-06 3.48287e-06 6.19178e-06 9.67465e-06 1.39315e-05 1.89623e-05 2.47671e-05 3.16518e-05 3.99223e-05 4.95787e-05 6.06209e-05 7.30489e-05 8.68627e-05 0.000102062 0.000118648 0.000136169 0.000154175 0.000172667 0.000191644 0.000211107 0.000231055 0.000251488 0.000272406 0.000293255 0.000313477 0.000333074 0.000352045 0.000370391 0.000388111 0.000405205 0.000421673 0.000437261 0.000451713 0.000465029 0.00047721 0.000488255 0.000498164 0.000506938 0.000514576 0.000521174 0.000526827 0.000531535 0.000535299 0.000538118 0.000539992 0.000540921 0.000540906 0.000540249 0.000539253 0.000537919 0.000536245 0.000534234 0.000531883 0.000529194 0.000526166 0.000523058 0.000520131 0.000517384 0.000514818 0.000512431 0.000510225 0.000508199 0.000506353 0.000504707 0.000503282 0.000502077 0.000501093 0.000500329 0.000499786 0.000499463 0.000499361 0.000499261 0.000498946 0.000498415 0.000497669 0.000496708 0.000495531 0.000494139 0.000492532 0.000490444 0.000487612 0.000484034 0.000479711 0.000474643 0.00046883 0.000462271 0.000454968 0.000446841 0.00043781 0.000427877 0.000417041 0.000405302 0.00039266 0.000379116 0.000364668 0.000349544 0.000333968 0.000317941 0.000301463 0.000284534 0.000267153 0.000249322 0.000231039 0.000212775 0.000194998 0.000177709 0.000160907 0.000144594 0.000128768 0.000113429 9.85788e-05 8.45712e-05 7.17621e-05 6.01515e-05 4.97394e-05 4.05258e-05 3.25106e-05 2.56939e-05 2.00758e-05 1.53705e-05 1.12926e-05 7.84209e-06 5.01894e-06 2.82315e-06 1.25473e-06 3.13684e-07 0 0 6.87975e-07 2.7519e-06 6.19178e-06 1.10076e-05 1.71994e-05 2.47671e-05 3.37108e-05 4.40304e-05 5.62699e-05 7.0973e-05 8.81399e-05 0.00010777 0.000129865 0.000154423 0.000181444 0.00021093 0.000242078 0.00027409 0.000306964 0.000340701 0.000375301 0.000410764 0.000447089 0.000484278 0.000521342 0.000557293 0.000592132 0.000625859 0.000658473 0.000689975 0.000720364 0.000749642 0.000777353 0.000803046 0.000826719 0.000848374 0.000868009 0.000885626 0.000901223 0.000914802 0.000926531 0.000936581 0.000944951 0.000951642 0.000956654 0.000959985 0.000961638 0.00096161 0.000960442 0.000958672 0.0009563 0.000953325 0.000949749 0.00094557 0.000940789 0.000935406 0.000929882 0.000924678 0.000919795 0.000915232 0.000910989 0.000907066 0.000903464 0.000900182 0.000897257 0.000894723 0.000892581 0.000890831 0.000889474 0.000888508 0.000887934 0.000887752 0.000887575 0.000887015 0.000886072 0.000884746 0.000883037 0.000880945 0.00087847 0.000875613 0.000871901 0.000866865 0.000860505 0.000852819 0.000843809 0.000833475 0.000821816 0.000808832 0.000794383 0.000778329 0.000760671 0.000741406 0.000720537 0.000698063 0.000673984 0.000648299 0.000621411 0.000593721 0.000565229 0.000535934 0.000505838 0.000474939 0.000443239 0.000410736 0.000378266 0.000346663 0.000315927 0.000286058 0.000257056 0.00022892 0.000201652 0.000175251 0.000150349 0.000127577 0.000106936 8.84256e-05 7.20458e-05 5.77966e-05 4.56781e-05 3.56902e-05 2.73253e-05 2.00758e-05 1.39415e-05 8.92256e-06 5.01894e-06 2.23064e-06 5.5766e-07 0 0 1.07496e-06 4.29984e-06 9.67465e-06 1.71994e-05 2.6874e-05 3.86986e-05 5.26731e-05 6.87975e-05 8.79216e-05 0.000110895 0.000137719 0.000168391 0.000202914 0.000241285 0.000283507 0.000329577 0.000378247 0.000428265 0.000479631 0.000532345 0.000586408 0.000641818 0.000698577 0.000756684 0.000814596 0.00087077 0.000925206 0.000977904 0.00102886 0.00107809 0.00112557 0.00117131 0.00121461 0.00125476 0.00129175 0.00132558 0.00135626 0.00138379 0.00140816 0.00142938 0.00144771 0.00146341 0.00147649 0.00148694 0.00149477 0.00149998 0.00150256 0.00150252 0.00150069 0.00149793 0.00149422 0.00148957 0.00148398 0.00147745 0.00146998 0.00146157 0.00145294 0.00144481 0.00143718 0.00143005 0.00142342 0.00141729 0.00141166 0.00140653 0.00140196 0.001398 0.00139466 0.00139192 0.0013898 0.00138829 0.0013874 0.00138711 0.00138684 0.00138596 0.00138449 0.00138241 0.00137974 0.00137648 0.00137261 0.00136814 0.00136235 0.00135448 0.00134454 0.00133253 0.00131845 0.0013023 0.00128409 0.0012638 0.00124122 0.00121614 0.00118855 0.00115845 0.00112584 0.00109072 0.0010531 0.00101297 0.000970955 0.000927689 0.00088317 0.000837397 0.000790372 0.000742093 0.000692561 0.000641776 0.000591041 0.000541661 0.000493636 0.000446965 0.000401649 0.000357688 0.000315082 0.00027383 0.00023492 0.000199339 0.000167088 0.000138165 0.000112572 9.03072e-05 7.13721e-05 5.5766e-05 4.26958e-05 3.13684e-05 2.17836e-05 1.39415e-05 7.84209e-06 3.48537e-06 8.71344e-07 0 0 1.54794e-06 6.19178e-06 1.39315e-05 2.47671e-05 3.86986e-05 5.5726e-05 7.58493e-05 9.90684e-05 0.000126607 0.000159689 0.000198315 0.000242483 0.000292195 0.000347451 0.00040825 0.000474592 0.000544676 0.000616702 0.000690669 0.000766577 0.000844427 0.000924219 0.00100595 0.00108963 0.00117302 0.00125391 0.0013323 0.00140818 0.00148156 0.00155244 0.00162082 0.00168669 0.00174904 0.00180685 0.00186012 0.00190884 0.00195302 0.00199266 0.00202775 0.0020583 0.0020847 0.00210731 0.00212614 0.00214119 0.00215247 0.00215997 0.00216368 0.00216362 0.002161 0.00215701 0.00215167 0.00214498 0.00213693 0.00212753 0.00211678 0.00210466 0.00209223 0.00208053 0.00206954 0.00205927 0.00204972 0.0020409 0.00203279 0.00202541 0.00201883 0.00201313 0.00200831 0.00200437 0.00200132 0.00199914 0.00199785 0.00199744 0.00199704 0.00199578 0.00199366 0.00199068 0.00198683 0.00198213 0.00197656 0.00197013 0.00196178 0.00195045 0.00193614 0.00191884 0.00189857 0.00187532 0.00184909 0.00181987 0.00178736 0.00175124 0.00171151 0.00166816 0.00162121 0.00157064 0.00151646 0.00145867 0.00139817 0.00133587 0.00127176 0.00120585 0.00113814 0.00106861 0.000997288 0.000924157 0.000851099 0.000779992 0.000710836 0.00064363 0.000578375 0.000515071 0.000453718 0.000394315 0.000338285 0.000287048 0.000240606 0.000198958 0.000162103 0.000130042 0.000102776 8.0303e-05 6.1482e-05 4.51705e-05 3.13684e-05 2.00758e-05 1.12926e-05 5.01894e-06 1.25473e-06 0 0 2.10692e-06 8.42769e-06 1.89623e-05 3.37108e-05 5.26731e-05 7.58493e-05 0.000103239 0.000134843 0.000172326 0.000217355 0.000269928 0.000330047 0.00039771 0.000472919 0.000555673 0.000645972 0.000741365 0.0008394 0.000940077 0.0010434 0.00114936 0.00125796 0.00136921 0.0014831 0.00159661 0.00170671 0.0018134 0.00191669 0.00201657 0.00211305 0.00220612 0.00229578 0.00238064 0.00245933 0.00253183 0.00259814 0.00265828 0.00271223 0.00276 0.00280158 0.0028375 0.00286828 0.00289391 0.0029144 0.00292975 0.00293996 0.00294502 0.00294493 0.00294135 0.00293593 0.00292867 0.00291956 0.00290861 0.00289581 0.00288117 0.00286468 0.00284776 0.00283183 0.00281687 0.0028029 0.0027899 0.00277789 0.00276686 0.00275681 0.00274785 0.00274009 0.00273353 0.00272817 0.00272401 0.00272105 0.0027193 0.00271874 0.0027182 0.00271648 0.00271359 0.00270953 0.0027043 0.00269789 0.00269031 0.00268156 0.0026702 0.00265477 0.0026353 0.00261176 0.00258417 0.00255252 0.00251681 0.00247705 0.0024328 0.00238363 0.00232955 0.00227056 0.00220665 0.00213782 0.00206407 0.00198542 0.00190307 0.00181827 0.00173101 0.0016413 0.00154913 0.0014545 0.00135742 0.00125788 0.00115844 0.00106166 0.000967526 0.000876052 0.000787233 0.000701069 0.00061756 0.000536707 0.000460443 0.000390705 0.000327492 0.000270803 0.00022064 0.000177002 0.000139889 0.000109301 8.36838e-05 6.1482e-05 4.26958e-05 2.73253e-05 1.53705e-05 6.83133e-06 1.70783e-06 0 0 2.7519e-06 1.10076e-05 2.47671e-05 4.40304e-05 6.87975e-05 9.90684e-05 0.000134843 0.000176122 0.000225079 0.000283892 0.000352559 0.000431082 0.000519459 0.00061769 0.000725777 0.000843718 0.000968313 0.00109636 0.00122786 0.0013628 0.0015012 0.00164306 0.00178836 0.00193711 0.00208537 0.00222917 0.00236853 0.00250343 0.00263389 0.0027599 0.00288146 0.00299857 0.00310941 0.00321218 0.00330688 0.00339349 0.00347204 0.0035425 0.00360489 0.00365921 0.00370612 0.00374632 0.00377981 0.00380657 0.00382661 0.00383994 0.00384655 0.00384644 0.00384177 0.00383469 0.0038252 0.0038133 0.00379899 0.00378228 0.00376316 0.00374162 0.00371953 0.00369871 0.00367918 0.00366093 0.00364395 0.00362826 0.00361386 0.00360073 0.00358903 0.00357889 0.00357032 0.00356333 0.00355789 0.00355403 0.00355174 0.00355101 0.0035503 0.00354806 0.00354429 0.00353898 0.00353215 0.00352378 0.00351388 0.00350245 0.0034876 0.00346746 0.00344202 0.00341128 0.00337524 0.0033339 0.00328726 0.00323533 0.00317753 0.00311332 0.00304268 0.00296563 0.00288215 0.00279225 0.00269593 0.0025932 0.00248564 0.00237488 0.00226091 0.00214374 0.00202335 0.00189976 0.00177296 0.00164295 0.00151306 0.00138665 0.00126371 0.00114423 0.00102822 0.000915682 0.000806609 0.000701004 0.000601395 0.000510308 0.000427744 0.000353702 0.000288183 0.000231187 0.000182712 0.000142761 0.000109301 8.0303e-05 5.5766e-05 3.56902e-05 2.00758e-05 8.92256e-06 2.23064e-06 0 0 3.54753e-06 1.41901e-05 3.19278e-05 5.67605e-05 8.86883e-05 0.000127711 0.000173829 0.000227042 0.000290042 0.00036552 0.000453476 0.00055391 0.000666822 0.000792213 0.000930081 0.00108043 0.00123918 0.00140228 0.00156971 0.00174149 0.0019176 0.00209805 0.00228284 0.00247197 0.00266046 0.0028433 0.00302052 0.00319209 0.00335803 0.00351834 0.00367301 0.00382205 0.00396315 0.00409404 0.00421472 0.00432517 0.00442541 0.00451542 0.00459522 0.00466481 0.00472502 0.00477672 0.00481991 0.00485458 0.00488073 0.00489837 0.00490749 0.0049081 0.00490291 0.00489463 0.00488326 0.0048688 0.00485125 0.00483062 0.0048069 0.00478009 0.00475251 0.0047265 0.00470205 0.00467916 0.00465783 0.00463807 0.00461986 0.00460322 0.00458832 0.00457535 0.0045643 0.00455518 0.00454799 0.00454272 0.00453938 0.00453796 0.00453652 0.00453311 0.00452772 0.00452036 0.00451102 0.00449971 0.00448643 0.00447117 0.00445156 0.00442525 0.00439222 0.00435247 0.00430601 0.00425284 0.00419296 0.00412636 0.00405234 0.00397021 0.00387995 0.00378158 0.00367509 0.00356048 0.00343775 0.00330691 0.00316997 0.00302898 0.00288392 0.0027348 0.00258163 0.00242439 0.0022631 0.00209774 0.00193254 0.00177171 0.00161524 0.00146314 0.00131541 0.00117205 0.00103305 0.000898424 0.000771378 0.000655127 0.000549671 0.000455011 0.000371146 0.000298077 0.000235803 0.000184324 0.000141123 0.000103682 7.20016e-05 4.6081e-05 2.59206e-05 1.15203e-05 2.88006e-06 0 0 4.55848e-06 1.82339e-05 4.10263e-05 7.29357e-05 0.000113962 0.000164105 0.000223365 0.000291743 0.000372389 0.000468456 0.000579944 0.000706853 0.000849183 0.00100693 0.00118011 0.0013687 0.00156764 0.00177186 0.00198136 0.00219613 0.00241618 0.00264151 0.00287212 0.00310801 0.00334305 0.00357112 0.00379222 0.00400635 0.00421352 0.00441371 0.00460694 0.0047932 0.00496968 0.00513354 0.0052848 0.00542345 0.0055495 0.00566294 0.00576377 0.005852 0.00592865 0.00599475 0.0060503 0.00609531 0.00612977 0.00615368 0.00616704 0.00616986 0.00616544 0.0061571 0.00614483 0.00612865 0.00610853 0.0060845 0.00605654 0.00602466 0.0059917 0.0059605 0.00593107 0.00590339 0.00587748 0.00585333 0.00583095 0.00581032 0.00579169 0.00577527 0.00576107 0.00574908 0.00573932 0.00573177 0.00572643 0.00572332 0.00572004 0.00571423 0.00570588 0.00569499 0.00568157 0.00566562 0.00564712 0.00562609 0.00559964 0.00556488 0.0055218 0.00547042 0.00541073 0.00534272 0.00526641 0.00518178 0.005088 0.00498421 0.00487042 0.00474663 0.00461284 0.00446904 0.00431524 0.00415144 0.00398013 0.00380381 0.00362248 0.00343614 0.00324478 0.00304842 0.00284705 0.00264066 0.00243444 0.00223354 0.00203798 0.00184776 0.00166287 0.0014833 0.00130908 0.00114018 0.000980629 0.000834429 0.000701582 0.000582087 0.000475945 0.000383155 0.000303718 0.000237633 0.000181938 0.000133669 9.28255e-05 5.94083e-05 3.34172e-05 1.48521e-05 3.71302e-06 0 0 5.78474e-06 2.3139e-05 5.20627e-05 9.25558e-05 0.000144619 0.000208251 0.000283452 0.000370223 0.000472121 0.000592701 0.000731965 0.000889912 0.00106654 0.00126186 0.00147585 0.00170853 0.00195368 0.0022051 0.00246279 0.00272674 0.00299696 0.00327344 0.00355619 0.00384521 0.00413313 0.00441261 0.00468363 0.00494621 0.00520034 0.00544602 0.00568325 0.00591204 0.00612897 0.00633067 0.00651713 0.00668834 0.00684431 0.00698505 0.00711054 0.00722079 0.00731701 0.00740041 0.007471 0.00752878 0.00757373 0.00760588 0.00762521 0.00763172 0.00762937 0.0076221 0.00760993 0.00759284 0.00757084 0.00754392 0.00751209 0.00747535 0.0074371 0.00740073 0.00736624 0.00733363 0.00730291 0.00727407 0.00724711 0.00722204 0.00719913 0.00717866 0.00716063 0.00714504 0.00713188 0.00712117 0.0071129 0.00710707 0.00710085 0.00709142 0.00707876 0.00706289 0.0070438 0.00702149 0.00699597 0.00696723 0.00693183 0.00688635 0.00683078 0.00676512 0.00668937 0.00660354 0.00650761 0.0064016 0.0062845 0.00615533 0.00601409 0.00586078 0.00569539 0.00551793 0.0053284 0.00512679 0.00491612 0.00469939 0.00447659 0.00424774 0.00401282 0.00377184 0.0035248 0.0032717 0.00301875 0.00277216 0.00253194 0.00229808 0.00207059 0.00184945 0.00163468 0.00142628 0.00122915 0.00104821 0.000883475 0.00073493 0.000602578 0.000486421 0.000386458 0.000302688 0.000231746 0.000170262 0.000118238 7.56721e-05 4.25656e-05 1.8918e-05 4.72951e-06 0 0 7.22632e-06 2.89053e-05 6.50368e-05 0.000115621 0.000180658 0.000260147 0.000354089 0.000462484 0.000589238 0.000738256 0.000909539 0.00110309 0.0013189 0.00155698 0.00181732 0.00209992 0.00239731 0.00270201 0.00301401 0.00333331 0.00365992 0.00399384 0.00433506 0.00468358 0.00503072 0.00536778 0.00569476 0.00601167 0.0063185 0.00661526 0.00690194 0.00717855 0.00744105 0.00768543 0.0079117 0.00811983 0.00830985 0.00848174 0.00863552 0.00877116 0.00889009 0.0089937 0.009082 0.00915497 0.00921262 0.00925496 0.00928198 0.00929368 0.00929469 0.00928964 0.00927854 0.00926138 0.00923816 0.00920888 0.00917355 0.00913216 0.0090887 0.00904717 0.00900756 0.00896987 0.00893411 0.00890028 0.00886836 0.00883838 0.00881065 0.00878551 0.00876298 0.00874304 0.00872569 0.00871094 0.00869879 0.00868923 0.00867896 0.00866467 0.00864637 0.00862404 0.0085977 0.00856734 0.00853297 0.00849457 0.00844814 0.00838967 0.00831914 0.00823657 0.00814195 0.00803529 0.00791657 0.00778581 0.00764185 0.00748357 0.00731096 0.00712402 0.00692275 0.00670715 0.00647723 0.00623297 0.00597794 0.00571571 0.00544626 0.0051696 0.00488573 0.00459465 0.00429636 0.00399086 0.00368548 0.00338757 0.00309711 0.00281411 0.00253857 0.00227049 0.00200987 0.00175671 0.00151694 0.00129648 0.00109535 0.000913539 0.000751046 0.000607874 0.000484022 0.000379489 0.000290547 0.000213463 0.000148238 9.48724e-05 5.33657e-05 2.37181e-05 5.92952e-06 0 0 8.88321e-06 3.55328e-05 7.99489e-05 0.000142131 0.00022208 0.000319795 0.000435277 0.000568525 0.000723739 0.000905119 0.00111266 0.00134638 0.00160625 0.00189229 0.0022045 0.00254288 0.00289853 0.00326258 0.00363502 0.00401585 0.00440508 0.0048027 0.00520871 0.00562312 0.0060358 0.00643663 0.0068256 0.00720273 0.00756801 0.00792143 0.00826301 0.00859273 0.00890591 0.00919783 0.00946851 0.00971793 0.00994611 0.010153 0.0103387 0.0105031 0.0106479 0.0107746 0.0108833 0.0109739 0.0110464 0.0111009 0.0111374 0.0111557 0.0111614 0.0111597 0.0111507 0.0111343 0.0111105 0.0110794 0.0110409 0.0109951 0.0109465 0.0108998 0.010855 0.0108121 0.0107711 0.0107319 0.0106947 0.0106593 0.0106262 0.0105958 0.0105681 0.0105431 0.0105207 0.0105011 0.0104841 0.0104698 0.0104544 0.010434 0.0104087 0.0103785 0.0103433 0.0103032 0.0102581 0.0102081 0.0101486 0.0100748 0.0099869 0.00988478 0.00976847 0.00963797 0.00949328 0.00933441 0.00916005 0.00896893 0.00876103 0.00853636 0.00829492 0.00803671 0.00776172 0.00746997 0.0071656 0.00685277 0.00653148 0.00620173 0.00586352 0.00551685 0.00516173 0.00479814 0.00443464 0.00407975 0.00373349 0.00339585 0.00306682 0.00274642 0.00243464 0.00213148 0.00184399 0.00157924 0.00133721 0.00111791 0.00092135 0.000747515 0.000596411 0.000468036 0.00035834 0.00026327 0.000182827 0.000117009 6.58176e-05 2.92523e-05 7.31307e-06 0 0 1.07554e-05 4.30216e-05 9.67987e-05 0.000172087 0.000268885 0.000387195 0.000527015 0.000688346 0.000875626 0.00109329 0.00134134 0.00161978 0.0019286 0.00226781 0.00263741 0.00303739 0.00345733 0.0038868 0.00432581 0.00477435 0.00523242 0.00570002 0.00617716 0.00666383 0.00714838 0.00761915 0.00807616 0.00851939 0.00894885 0.00936454 0.00976645 0.0101546 0.0105235 0.0108679 0.0111876 0.0114826 0.0117531 0.0119989 0.0122201 0.0124167 0.0125905 0.0127432 0.0128749 0.0129855 0.0130752 0.0131438 0.0131913 0.0132179 0.0132295 0.0132323 0.0132263 0.0132115 0.0131879 0.0131554 0.0131142 0.0130641 0.0130105 0.0129587 0.0129087 0.0128604 0.0128138 0.0127691 0.0127261 0.0126849 0.0126459 0.0126096 0.0125761 0.0125452 0.012517 0.0124916 0.0124688 0.0124487 0.0124271 0.0123994 0.0123658 0.0123261 0.0122805 0.012229 0.0121714 0.0121079 0.0120331 0.0119418 0.011834 0.0117097 0.0115689 0.0114116 0.0112378 0.0110474 0.0108391 0.0106114 0.0103643 0.0100978 0.00981189 0.00950659 0.00918189 0.00883779 0.00847908 0.00811057 0.00773225 0.00734412 0.00694619 0.00653845 0.0061209 0.00569355 0.00526621 0.00484872 0.00444108 0.00404329 0.00365534 0.00327724 0.00290899 0.00255058 0.00221032 0.00189647 0.00160905 0.00134806 0.00111349 0.000905344 0.000723624 0.000568329 0.000435127 0.000319685 0.000222004 0.000142082 7.99213e-05 3.55206e-05 8.88015e-06 0 0 1.28429e-05 5.13717e-05 0.000115586 0.000205487 0.000321073 0.000462345 0.000629304 0.000821948 0.0010449 0.00130277 0.00159557 0.0019233 0.00228595 0.00268353 0.00311604 0.00358346 0.00407372 0.00457469 0.00508639 0.00560881 0.00614195 0.00668582 0.0072404 0.00780571 0.00836846 0.00891536 0.00944643 0.00996165 0.010461 0.0109446 0.0114123 0.0118641 0.012294 0.0126955 0.0130689 0.0134139 0.0137308 0.0140194 0.0142798 0.0145119 0.0147177 0.0148994 0.0150568 0.0151899 0.0152988 0.0153835 0.0154439 0.0154801 0.015499 0.0155075 0.0155055 0.0154931 0.0154703 0.015437 0.0153933 0.0153393 0.0152807 0.0152238 0.0151684 0.0151146 0.0150624 0.0150117 0.0149626 0.0149151 0.0148696 0.0148269 0.0147868 0.0147493 0.0147145 0.0146824 0.0146529 0.0146261 0.0145971 0.0145609 0.0145175 0.0144671 0.0144095 0.0143447 0.0142729 0.0141939 0.0141018 0.0139907 0.0138606 0.0137114 0.0135433 0.0133561 0.01315 0.0129248 0.012679 0.012411 0.0121208 0.0118083 0.0114737 0.0111168 0.0107377 0.0103364 0.0099184 0.00948912 0.00904858 0.00859678 0.00813374 0.00765944 0.00717388 0.00667707 0.0061802 0.00569447 0.00521988 0.00475643 0.00430412 0.00386295 0.00343292 0.00301403 0.00261591 0.00224819 0.00191088 0.00160397 0.00132746 0.00108136 0.000865662 0.000680368 0.000520907 0.000382707 0.000265769 0.000170092 9.56768e-05 4.2523e-05 1.06308e-05 0 0 1.51458e-05 6.05831e-05 0.000136312 0.000242332 0.000378644 0.000545247 0.000742142 0.000969329 0.00123155 0.00153356 0.00187536 0.00225694 0.0026783 0.00313945 0.00364038 0.0041811 0.00474769 0.00532624 0.00591676 0.00651924 0.00713367 0.00776007 0.00839843 0.00904876 0.00969603 0.0103252 0.0109364 0.0115295 0.0121046 0.0126615 0.0132005 0.0137214 0.0142171 0.0146808 0.0151124 0.0155119 0.0158792 0.0162145 0.0165176 0.0167886 0.0170297 0.0172432 0.017429 0.017587 0.0177174 0.0178201 0.0178952 0.0179425 0.0179699 0.0179851 0.0179882 0.017979 0.0179577 0.0179241 0.0178784 0.0178205 0.0177572 0.0176951 0.0176343 0.0175749 0.0175167 0.0174598 0.0174042 0.0173499 0.0172975 0.0172476 0.0172003 0.0171555 0.0171133 0.0170736 0.0170365 0.0170019 0.0169643 0.0169184 0.016864 0.0168013 0.0167301 0.0166505 0.0165625 0.016466 0.0163546 0.0162214 0.0160665 0.0158899 0.0156916 0.0154716 0.01523 0.0149666 0.0146797 0.0143677 0.0140304 0.013668 0.0132803 0.0128674 0.0124292 0.0119659 0.0114836 0.0109884 0.0104805 0.00995971 0.00942616 0.00887981 0.00832067 0.00774872 0.00717661 0.00661701 0.0060699 0.00553529 0.00501317 0.00450355 0.00400643 0.00352181 0.00306077 0.00263439 0.00224268 0.00188564 0.00156327 0.00127556 0.00102252 0.000804153 0.00061568 0.000452336 0.000314122 0.000201038 0.000113084 5.02596e-05 1.25649e-05 0 0 1.766e-05 7.06401e-05 0.00015894 0.00028256 0.000441501 0.000635761 0.000865341 0.00113024 0.00143527 0.00178522 0.0021801 0.0026199 0.00310464 0.0036343 0.00420889 0.00482841 0.005477 0.00613882 0.00681386 0.00750213 0.00820362 0.00891833 0.00964627 0.0103874 0.011125 0.0118422 0.012539 0.0132153 0.0138713 0.0145069 0.0151221 0.0157169 0.0162834 0.0168137 0.0173079 0.0177659 0.0181877 0.0185734 0.0189228 0.0192362 0.0195157 0.019764 0.0199809 0.0201665 0.0203208 0.0204437 0.0205354 0.0205957 0.0206333 0.0206568 0.0206661 0.0206614 0.0206426 0.0206096 0.0205626 0.0205014 0.0204337 0.0203668 0.0203008 0.0202358 0.0201716 0.0201083 0.0200459 0.0199845 0.0199246 0.019867 0.0198118 0.0197589 0.0197084 0.0196601 0.0196142 0.0195706 0.0195233 0.0194661 0.0193992 0.0193224 0.0192358 0.0191393 0.0190331 0.0189171 0.0187838 0.0186261 0.0184438 0.0182369 0.0180055 0.0177496 0.0174692 0.0171642 0.0168328 0.016473 0.0160849 0.0156684 0.0152236 0.0147504 0.0142488 0.0137189 0.0131676 0.0126018 0.0120217 0.0114271 0.010818 0.0101946 0.00955667 0.00890435 0.00825176 0.00761307 0.00698827 0.00637736 0.00578035 0.00519724 0.00462801 0.00407269 0.0035439 0.0030543 0.00260389 0.00219265 0.00182061 0.00148775 0.00119408 0.000939586 0.000719371 0.000528517 0.000367026 0.000234897 0.000132129 5.87241e-05 1.4681e-05 0 0 2.03818e-05 8.15272e-05 0.000183436 0.000326109 0.000509545 0.000733745 0.000998709 0.00130444 0.0016557 0.00205729 0.0025092 0.00301142 0.00356396 0.00416682 0.00482 0.0055235 0.0062594 0.00700978 0.00777464 0.00855399 0.00934781 0.0101561 0.0109789 0.0118162 0.0126493 0.0134595 0.0142469 0.0150115 0.0157532 0.0164721 0.0171681 0.0178413 0.0184829 0.0190841 0.019645 0.0201655 0.0206456 0.0210853 0.0214847 0.0218437 0.0221649 0.0224511 0.0227021 0.022918 0.0230988 0.0232444 0.023355 0.0234304 0.0234802 0.0235138 0.0235312 0.0235324 0.0235175 0.0234863 0.023439 0.0233755 0.0233041 0.023233 0.0231623 0.0230919 0.0230219 0.0229523 0.022883 0.022814 0.0227463 0.0226805 0.0226166 0.0225548 0.0224949 0.0224369 0.022381 0.0223269 0.0222682 0.0221982 0.0221168 0.022024 0.0219199 0.0218045 0.0216777 0.0215395 0.0213819 0.0211969 0.0209843 0.0207443 0.0204767 0.0201817 0.0198592 0.0195092 0.0191297 0.0187185 0.0182758 0.0178015 0.0172955 0.016758 0.0161889 0.0155881 0.0149635 0.0143228 0.0136659 0.012993 0.0123039 0.0115986 0.0108773 0.0101398 0.00940196 0.00867939 0.00797212 0.00728017 0.00660352 0.00594218 0.00529615 0.00466543 0.00406432 0.00350714 0.00299389 0.00252457 0.00209918 0.00171771 0.00138018 0.00108657 0.000831905 0.000611196 0.000424442 0.000271643 0.000152799 6.79106e-05 1.69777e-05 0 0 2.33111e-05 9.32445e-05 0.0002098 0.000372978 0.000582778 0.000839201 0.00114225 0.00149191 0.00189287 0.00234978 0.00286266 0.00343149 0.00405627 0.00473702 0.00547372 0.00626638 0.00709489 0.00793913 0.00879911 0.00967482 0.0105663 0.0114734 0.0123964 0.013335 0.0142688 0.0151773 0.0160603 0.0169179 0.0177502 0.0185571 0.0193386 0.0200947 0.0208157 0.0214921 0.0221237 0.0227106 0.0232528 0.0237503 0.0242031 0.0246112 0.0249774 0.0253045 0.0255925 0.0258415 0.0260514 0.0262222 0.026354 0.0264467 0.0265107 0.0265562 0.0265833 0.026592 0.0265823 0.0265542 0.0265077 0.0264427 0.0263684 0.0262937 0.0262187 0.0261433 0.0260677 0.0259917 0.0259153 0.0258386 0.0257625 0.0256879 0.0256147 0.025543 0.0254728 0.025404 0.0253367 0.0252708 0.0251992 0.0251146 0.0250169 0.0249063 0.0247826 0.0246459 0.0244962 0.0243334 0.0241489 0.0239338 0.0236882 0.023412 0.0231052 0.0227679 0.0224 0.0220016 0.0215704 0.0211042 0.0206031 0.0200671 0.0194961 0.0188902 0.0182494 0.0175736 0.0168714 0.0161513 0.0154133 0.0146574 0.0138837 0.0130921 0.0122826 0.0114552 0.0106272 0.00981597 0.00902147 0.00824371 0.00748269 0.0067384 0.00601084 0.00530002 0.00462202 0.00399291 0.0034127 0.00288139 0.00239897 0.00196545 0.00158083 0.00124511 0.000953284 0.000700372 0.000486369 0.000311276 0.000175093 7.78191e-05 1.94548e-05 0 0 2.6448e-05 0.000105792 0.000238032 0.000423168 0.0006612 0.000952128 0.00129595 0.00169267 0.00214676 0.0026627 0.00324048 0.0038801 0.00458157 0.00534489 0.00617004 0.00705705 0.00798347 0.00892687 0.00988725 0.0108646 0.011859 0.0128703 0.0138986 0.0149439 0.0159837 0.0169954 0.0179791 0.0189347 0.0198624 0.0207619 0.0216335 0.022477 0.0232818 0.0240375 0.024744 0.0254013 0.0260095 0.0265684 0.0270781 0.0275386 0.027953 0.0283242 0.0286522 0.028937 0.0291787 0.0293771 0.0295324 0.0296446 0.0297247 0.029784 0.0298225 0.0298403 0.0298372 0.0298133 0.0297686 0.0297031 0.0296266 0.0295489 0.0294701 0.0293901 0.0293089 0.0292265 0.0291429 0.0290582 0.0289733 0.0288893 0.028806 0.0287236 0.0286421 0.0285613 0.0284814 0.0284023 0.0283162 0.0282153 0.0280996 0.0279691 0.0278237 0.0276636 0.0274886 0.0272988 0.0270848 0.0268369 0.0265554 0.0262401 0.025891 0.0255081 0.0250916 0.0246412 0.0241548 0.02363 0.0230669 0.0224653 0.0218254 0.0211471 0.0204304 0.0196753 0.0188911 0.0180873 0.0172638 0.0164205 0.0155575 0.0146749 0.0137725 0.0128504 0.0119275 0.0110228 0.0101363 0.00926799 0.00841784 0.00758587 0.00677208 0.00597647 0.00521699 0.00451161 0.00386031 0.00326311 0.00271999 0.00223097 0.00179603 0.00141519 0.00108351 0.000796045 0.000552809 0.000353798 0.000199011 8.84494e-05 2.21124e-05 0 0 2.97924e-05 0.000119169 0.000268131 0.000476678 0.000744809 0.00107253 0.00145983 0.00190671 0.00241738 0.00299603 0.00364266 0.00435727 0.00513985 0.00599042 0.00690897 0.0078955 0.00892513 0.00997299 0.0110391 0.0121234 0.0132259 0.0143467 0.0154857 0.0166429 0.0177938 0.0189139 0.0200033 0.0210619 0.0220896 0.0230866 0.0240528 0.0249882 0.0258813 0.0267205 0.027506 0.0282376 0.0289155 0.0295395 0.0301097 0.0306261 0.0310919 0.0315102 0.0318811 0.0322045 0.0324806 0.0327091 0.0328903 0.033024 0.0331223 0.0331972 0.0332488 0.0332771 0.033282 0.0332636 0.0332218 0.0331566 0.0330787 0.0329986 0.0329164 0.032832 0.0327455 0.0326568 0.0325659 0.0324728 0.0323787 0.0322847 0.0321906 0.0320967 0.0320028 0.0319089 0.0318151 0.0317213 0.0316192 0.0315004 0.0313648 0.0312124 0.0310434 0.0308575 0.030655 0.0304357 0.0301895 0.0299062 0.0295859 0.0292285 0.028834 0.0284025 0.0279339 0.0274282 0.0268831 0.026296 0.025667 0.0249961 0.0242833 0.0235285 0.0227318 0.0218932 0.0210228 0.0201309 0.0192173 0.0182821 0.0173253 0.016347 0.015347 0.0143254 0.0133029 0.0122999 0.0113167 0.010353 0.00940899 0.00848462 0.00757988 0.00669478 0.00584925 0.00506324 0.00433673 0.00366973 0.00306224 0.00251426 0.00202579 0.00159683 0.00122257 0.000898215 0.000623761 0.000399207 0.000224554 9.98017e-05 2.49504e-05 0 0 3.33443e-05 0.000133377 0.000300099 0.000533509 0.000833607 0.00120039 0.00163387 0.00213403 0.