<?xml version="1.0"?> 
<VTKFile type="StructuredGrid" version="0.1"> 
<StructuredGrid WholeExtent="0 128 0 128 0 0"> 
<Piece Extent="0 128 0 128 0 0"> 
<PointData>
<DataArray type="Float32" Name="u" format="ascii" NumberOfComponents="1"> 
0 0 0 0 0 0 0 0 0 0 0 0 0 0 0 0 0 0 0 0 0 0 0 0 0 0 0 0 0 0 0 0 0 0 0 0 0 0 0 0 0 0 0 0 0 0 0 0 0 0 0 0 0 0 0 0 0 0 0 0 0 0 0 0 0 0 0 0 0 0 0 0 0 0 0 0 0 0 0 0 0 0 0 0 0 0 0 0 0 0 0 0 0 0 0 0 0 0 0 0 0 0 0 0 0 0 0 0 0 0 0 0 0 0 0 0 0 0 0 0 0 0 0 0 0 0 0 0 0 0 5.73232e-08 2.29293e-07 5.15909e-07 9.17172e-07 1.43308e-06 2.06364e-06 2.80884e-06 3.66869e-06 4.67098e-06 5.84351e-06 7.18628e-06 8.69929e-06 1.03825e-05 1.2236e-05 1.42598e-05 1.64537e-05 1.87602e-05 2.11215e-05 2.35375e-05 2.60082e-05 2.85337e-05 3.1114e-05 3.37491e-05 3.64389e-05 3.91241e-05 4.17452e-05 4.43022e-05 4.67953e-05 4.92242e-05 5.15892e-05 5.389e-05 5.61269e-05 5.82741e-05 6.03062e-05 6.22231e-05 6.40249e-05 6.57115e-05 6.7283e-05 6.87393e-05 7.00805e-05 7.13116e-05 7.24377e-05 7.34587e-05 7.43746e-05 7.51855e-05 7.58913e-05 7.64921e-05 7.69879e-05 7.73992e-05 7.77467e-05 7.80304e-05 7.82502e-05 7.84063e-05 7.84985e-05 7.85269e-05 7.84915e-05 7.84104e-05 7.83018e-05 7.81656e-05 7.80018e-05 7.78105e-05 7.75916e-05 7.73451e-05 7.70711e-05 7.6773e-05 7.64542e-05 7.61148e-05 7.57547e-05 7.53739e-05 7.49724e-05 7.45503e-05 7.41076e-05 7.36328e-05 7.31147e-05 7.25532e-05 7.19484e-05 7.13003e-05 7.06088e-05 6.9874e-05 6.90958e-05 6.82595e-05 6.73501e-05 6.63677e-05 6.53123e-05 6.41839e-05 6.29824e-05 6.17079e-05 6.03604e-05 5.89372e-05 5.74357e-05 5.58559e-05 5.41977e-05 5.24612e-05 5.06463e-05 4.87531e-05 4.67816e-05 4.47531e-05 4.26889e-05 4.0589e-05 3.84533e-05 3.6282e-05 3.4075e-05 3.18322e-05 2.95538e-05 2.72862e-05 2.50757e-05 2.29225e-05 2.08266e-05 1.87879e-05 1.68064e-05 1.48821e-05 1.30151e-05 1.12474e-05 9.62102e-06 8.13597e-06 6.79226e-06 5.58988e-06 4.52884e-06 3.60914e-06 2.83078e-06 2.16732e-06 1.59231e-06 1.10577e-06 7.07695e-07 3.98078e-07 1.76924e-07 4.42309e-08 0 0 2.29293e-07 9.17172e-07 2.06364e-06 3.66869e-06 5.73232e-06 8.25454e-06 1.12354e-05 1.46747e-05 1.86839e-05 2.3374e-05 2.87451e-05 3.47972e-05 4.15302e-05 4.89442e-05 5.70391e-05 6.5815e-05 7.50409e-05 8.44858e-05 9.41498e-05 0.000104033 0.000114135 0.000124456 0.000134996 0.000145756 0.000156496 0.000166981 0.000177209 0.000187181 0.000196897 0.000206357 0.00021556 0.000224507 0.000233096 0.000241225 0.000248892 0.0002561 0.000262846 0.000269132 0.000274957 0.000280322 0.000285247 0.000289751 0.000293835 0.000297498 0.000300742 0.000303565 0.000305969 0.000307952 0.000309597 0.000310987 0.000312121 0.000313001 0.000313625 0.000313994 0.000314108 0.000313966 0.000313642 0.000313207 0.000312662 0.000312007 0.000311242 0.000310366 0.000309381 0.000308285 0.000307092 0.000305817 0.000304459 0.000303019 0.000301496 0.00029989 0.000298201 0.00029643 0.000294531 0.000292459 0.000290213 0.000287794 0.000285201 0.000282435 0.000279496 0.000276383 0.000273038 0.0002694 0.000265471 0.000261249 0.000256735 0.00025193 0.000246832 0.000241442 0.000235749 0.000229743 0.000223423 0.000216791 0.000209845 0.000202585 0.000195013 0.000187127 0.000179012 0.000170756 0.000162356 0.000153813 0.000145128 0.0001363 0.000127329 0.000118215 0.000109145 0.000100303 9.16901e-05 8.33063e-05 7.51514e-05 6.72255e-05 5.95285e-05 5.20605e-05 4.49896e-05 3.84841e-05 3.25439e-05 2.7169e-05 2.23595e-05 1.81154e-05 1.44366e-05 1.13231e-05 8.66926e-06 6.36926e-06 4.42309e-06 2.83078e-06 1.59231e-06 7.07695e-07 1.76924e-07 0 0 5.15909e-07 2.06364e-06 4.64318e-06 8.25454e-06 1.28977e-05 1.85727e-05 2.52795e-05 3.30182e-05 4.20388e-05 5.25916e-05 6.46765e-05 7.82937e-05 9.34429e-05 0.000110124 0.000128338 0.000148084 0.000168842 0.000190093 0.000211837 0.000234074 0.000256804 0.000280026 0.000303742 0.00032795 0.000352116 0.000375707 0.00039872 0.000421157 0.000443018 0.000464302 0.00048501 0.000505142 0.000524467 0.000542755 0.000560008 0.000576224 0.000591404 0.000605547 0.000618654 0.000630725 0.000641805 0.000651939 0.000661128 0.000669371 0.00067667 0.000683022 0.000688429 0.000692891 0.000696593 0.00069972 0.000702273 0.000704252 0.000705657 0.000706487 0.000706742 0.000706424 0.000705694 0.000704716 0.00070349 0.000702016 0.000700294 0.000698324 0.000696106 0.00069364 0.000690957 0.000688088 0.000685033 0.000681792 0.000678365 0.000674752 0.000670953 0.000666968 0.000662695 0.000658032 0.000652979 0.000647536 0.000641703 0.000635479 0.000628866 0.000621862 0.000614335 0.000606151 0.00059731 0.000587811 0.000577655 0.000566842 0.000555371 0.000543244 0.000530435 0.000516921 0.000502703 0.000487779 0.000472151 0.000455817 0.000438778 0.000421035 0.000402778 0.0003842 0.000365301 0.00034608 0.000326538 0.000306675 0.00028649 0.000265984 0.000245575 0.000225682 0.000206303 0.000187439 0.000169091 0.000151257 0.000133939 0.000117136 0.000101227 8.65892e-05 7.32237e-05 6.11303e-05 5.03089e-05 4.07596e-05 3.24823e-05 2.5477e-05 1.95058e-05 1.43308e-05 9.95196e-06 6.36926e-06 3.58271e-06 1.59231e-06 3.98078e-07 0 0 9.17172e-07 3.66869e-06 8.25454e-06 1.46747e-05 2.29293e-05 3.30182e-05 4.49414e-05 5.8699e-05 7.47356e-05 9.34962e-05 0.000114981 0.000139189 0.000166121 0.000195777 0.000228156 0.00026326 0.000300164 0.000337943 0.000376599 0.000416132 0.00045654 0.000497825 0.000539985 0.000583022 0.000625985 0.000667923 0.000708836 0.000748724 0.000787588 0.000825427 0.000862241 0.00089803 0.000932385 0.000964899 0.00099557 0.0010244 0.00105138 0.00107653 0.00109983 0.00112129 0.00114099 0.001159 0.00117534 0.00118999 0.00120297 0.00121426 0.00122387 0.00123181 0.00123839 0.00124395 0.00124849 0.001252 0.0012545 0.00125598 0.00125643 0.00125586 0.00125457 0.00125283 0.00125065 0.00124803 0.00124497 0.00124147 0.00123752 0.00123314 0.00122837 0.00122327 0.00121784 0.00121207 0.00120598 0.00119956 0.00119281 0.00118572 0.00117812 0.00116983 0.00116085 0.00115117 0.0011408 0.00112974 0.00111798 0.00110553 0.00109215 0.0010776 0.00106188 0.001045 0.00102694 0.00100772 0.000987327 0.000965767 0.000942996 0.000918971 0.000893694 0.000867163 0.000839379 0.000810341 0.00078005 0.000748506 0.00071605 0.000683022 0.000649423 0.000615253 0.000580512 0.0005452 0.000509316 0.000472861 0.000436578 0.000401212 0.000366761 0.000333225 0.000300606 0.000268902 0.000238114 0.000208242 0.000179958 0.000153936 0.000130175 0.000108676 8.94381e-05 7.24615e-05 5.77463e-05 4.52925e-05 3.46771e-05 2.5477e-05 1.76924e-05 1.13231e-05 6.36926e-06 2.83078e-06 7.07695e-07 0 0 1.43308e-06 5.73232e-06 1.28977e-05 2.29293e-05 3.5827e-05 5.15909e-05 7.02209e-05 9.17172e-05 0.000116774 0.000146088 0.000179657 0.000217482 0.000259564 0.000305901 0.000356494 0.000411344 0.000469006 0.000528037 0.000588437 0.000650206 0.000713344 0.000777851 0.000843727 0.000910972 0.000978101 0.00104363 0.00110756 0.00116988 0.00123061 0.00128973 0.00134725 0.00140317 0.00145685 0.00150765 0.00155558 0.00160062 0.00164279 0.00168208 0.00171848 0.00175201 0.00178279 0.00181094 0.00183647 0.00185937 0.00187964 0.00189728 0.0019123 0.0019247 0.00193498 0.00194367 0.00195076 0.00195626 0.00196016 0.00196246 0.00196317 0.00196229 0.00196026 0.00195754 0.00195414 0.00195005 0.00194526 0.00193979 0.00193363 0.00192678 0.00191933 0.00191136 0.00190287 0.00189387 0.00188435 0.00187431 0.00186376 0.00185269 0.00184082 0.00182787 0.00181383 0.00179871 0.00178251 0.00176522 0.00174685 0.0017274 0.00170649 0.00168375 0.00165919 0.00163281 0.0016046 0.00157456 0.0015427 0.00150901 0.00147343 0.00143589 0.0013964 0.00135494 0.00131153 0.00126616 0.00121883 0.00116954 0.00111883 0.00106722 0.00101472 0.000961333 0.00090705 0.000851874 0.000795806 0.000738845 0.000682154 0.000626893 0.000573063 0.000520665 0.000469697 0.00042016 0.000372053 0.000325378 0.000281185 0.000240525 0.000203399 0.000169806 0.000139747 0.000113221 9.02286e-05 7.07695e-05 5.41829e-05 3.98078e-05 2.76443e-05 1.76924e-05 9.95196e-06 4.42309e-06 1.10577e-06 0 0 2.06364e-06 8.25454e-06 1.85727e-05 3.30182e-05 5.15909e-05 7.42909e-05 0.000101118 0.000132073 0.000168155 0.000210366 0.000258706 0.000313175 0.000373772 0.000440497 0.000513352 0.000592335 0.000675368 0.000760373 0.000847349 0.000936296 0.00102721 0.00112011 0.00121497 0.0013118 0.00140847 0.00150283 0.00159488 0.00168463 0.00177207 0.00185721 0.00194004 0.00202057 0.00209787 0.00217102 0.00224003 0.0023049 0.00236561 0.00242219 0.00247462 0.0025229 0.00256722 0.00260776 0.00264451 0.00267749 0.00270668 0.00273209 0.00275372 0.00277156 0.00278637 0.00279888 0.00280909 0.00281701 0.00282263 0.00282595 0.00282697 0.0028257 0.00282278 0.00281886 0.00281396 0.00280807 0.00280118 0.0027933 0.00278443 0.00277456 0.00276383 0.00275235 0.00274013 0.00272717 0.00271346 0.00269901 0.00268381 0.00266787 0.00265078 0.00263213 0.00261192 0.00259014 0.00256681 0.00254192 0.00251546 0.00248745 0.00245734 0.0024246 0.00238924 0.00235124 0.00231062 0.00226737 0.00222149 0.00217298 0.00212174 0.00206769 0.00201081 0.00195112 0.0018886 0.00182327 0.00175511 0.00168414 0.00161111 0.0015368 0.0014612 0.00138432 0.00130615 0.0012267 0.00114596 0.00106394 0.000982301 0.000902726 0.000825211 0.000749757 0.000676363 0.00060503 0.000535757 0.000468545 0.000404907 0.000346357 0.000292895 0.000244521 0.000201236 0.000163038 0.000129929 0.000101908 7.80234e-05 5.73233e-05 3.98078e-05 2.5477e-05 1.43308e-05 6.36926e-06 1.59231e-06 0 0 2.80884e-06 1.12354e-05 2.52795e-05 4.49414e-05 7.02209e-05 0.000101118 0.000137633 0.000179766 0.000228878 0.000286332 0.000352128 0.000426265 0.000508745 0.000599566 0.000698729 0.000806234 0.000919251 0.00103495 0.00115334 0.0012744 0.00139815 0.00152459 0.0016537 0.00178551 0.00191708 0.00204551 0.00217081 0.00229297 0.00241199 0.00252787 0.00264061 0.00275022 0.00285543 0.002955 0.00304893 0.00313722 0.00321986 0.00329687 0.00336823 0.00343395 0.00349427 0.00354945 0.00359947 0.00364436 0.00368409 0.00371868 0.00374811 0.00377241 0.00379256 0.00380959 0.00382349 0.00383426 0.00384191 0.00384643 0.00384782 0.00384608 0.00384211 0.00383679 0.00383011 0.00382209 0.00381271 0.00380199 0.00378991 0.00377649 0.00376188 0.00374626 0.00372962 0.00371198 0.00369332 0.00367365 0.00365297 0.00363127 0.00360801 0.00358262 0.00355511 0.00352547 0.00349371 0.00345983 0.00342383 0.0033857 0.00334471 0.00330016 0.00325202 0.0032003 0.00314501 0.00308614 0.00302369 0.00295766 0.00288792 0.00281435 0.00273694 0.00265569 0.0025706 0.00248167 0.0023889 0.0022923 0.0021929 0.00209176 0.00198886 0.00188421 0.00177782 0.00166967 0.00155978 0.00144814 0.00133702 0.00122871 0.0011232 0.0010205 0.000920605 0.000823513 0.000729225 0.000637741 0.000551123 0.00047143 0.000398662 0.000332821 0.000273904 0.000221913 0.000176848 0.000138708 0.000106198 7.80234e-05 5.41829e-05 3.46771e-05 1.95058e-05 8.66926e-06 2.16732e-06 0 0 3.66869e-06 1.46747e-05 3.30182e-05 5.8699e-05 9.17172e-05 0.000132073 0.000179766 0.000234796 0.000298943 0.000373985 0.000459922 0.000556755 0.000664483 0.000783107 0.000912626 0.00105304 0.00120065 0.00135177 0.0015064 0.00166453 0.00182616 0.0019913 0.00215994 0.00233209 0.00250394 0.00267169 0.00283534 0.0029949 0.00315035 0.00330171 0.00344896 0.00359212 0.00372954 0.00385959 0.00398228 0.00409759 0.00420554 0.00430611 0.00439932 0.00448515 0.00456394 0.00463601 0.00470135 0.00475997 0.00481187 0.00485705 0.0048955 0.00492722 0.00495355 0.00497579 0.00499394 0.00500801 0.005018 0.0050239 0.00502572 0.00502346 0.00501827 0.00501131 0.0050026 0.00499212 0.00497987 0.00496586 0.00495009 0.00493255 0.00491347 0.00489307 0.00487135 0.0048483 0.00482393 0.00479824 0.00477122 0.00474288 0.0047125 0.00467934 0.00464341 0.0046047 0.00456322 0.00451896 0.00447194 0.00442213 0.00436861 0.00431041 0.00424753 0.00417999 0.00410777 0.00403087 0.00394931 0.00386307 0.00377198 0.00367589 0.00357478 0.00346865 0.00335751 0.00324136 0.0031202 0.00299402 0.0028642 0.00273209 0.00259769 0.00246101 0.00232205 0.0021808 0.00203726 0.00189144 0.00174631 0.00160485 0.00146704 0.0013329 0.00120242 0.00107561 0.000952457 0.000832968 0.000719834 0.000615745 0.000520702 0.000434704 0.000357752 0.000289846 0.000230985 0.00018117 0.000138708 0.000101908 7.07695e-05 4.52925e-05 2.5477e-05 1.13231e-05 2.83078e-06 0 0 4.6919e-06 1.87676e-05 4.22271e-05 7.50704e-05 0.000117297 0.000168908 0.000229903 0.000300281 0.000382237 0.000477964 0.000587461 0.000710729 0.000847767 0.000998577 0.00116316 0.00134151 0.00152895 0.0017208 0.00191706 0.00211772 0.0023228 0.00253229 0.00274618 0.00296449 0.0031824 0.00339514 0.00360269 0.00380505 0.00400223 0.00419423 0.00438105 0.00456268 0.00473706 0.00490213 0.00505787 0.0052043 0.00534141 0.0054692 0.00558767 0.00569682 0.00579706 0.00588878 0.00597199 0.00604669 0.00611286 0.00617053 0.00621968 0.00626031 0.00629409 0.00632268 0.00634607 0.00636427 0.00637728 0.00638509 0.0063877 0.00638512 0.00637881 0.00637023 0.00635938 0.00634626 0.00633086 0.0063132 0.00629327 0.00627107 0.00624687 0.00622097 0.00619335 0.00616402 0.00613299 0.00610024 0.00606578 0.00602961 0.00599082 0.00594849 0.00590263 0.00585324 0.00580032 0.00574386 0.00568386 0.00562034 0.00555208 0.00547791 0.00539782 0.00531181 0.00521988 0.00512204 0.00501827 0.00490858 0.00479277 0.00467062 0.00454214 0.00440732 0.00426616 0.00411867 0.00396484 0.00380468 0.0036399 0.00347224 0.00330169 0.00312826 0.00295193 0.00277273 0.00259063 0.00240565 0.00222153 0.00204203 0.00186714 0.00169687 0.00153122 0.00137018 0.00121376 0.00106196 0.000918179 0.000785839 0.000664936 0.00055547 0.000457443 0.000370852 0.0002957 0.000231985 0.000177613 0.000130491 9.06191e-05 5.79962e-05 3.26229e-05 1.44991e-05 3.62476e-06 0 0 5.92719e-06 2.37087e-05 5.33447e-05 9.4835e-05 0.00014818 0.000213379 0.000290432 0.00037934 0.000482649 0.000602908 0.000740116 0.000894273 0.00106538 0.00125343 0.00145844 0.00168039 0.0019135 0.00215198 0.00239584 0.00264506 0.00289965 0.00315961 0.00342493 0.00369563 0.00396582 0.00422963 0.00448704 0.00473807 0.00498271 0.00522096 0.00545283 0.00567831 0.00589486 0.00609992 0.00629351 0.00647562 0.00664625 0.00680539 0.00695306 0.00708925 0.00721444 0.00732909 0.00743323 0.00752683 0.00760991 0.00768245 0.00774448 0.00779597 0.00783896 0.00787547 0.00790549 0.00792904 0.0079461 0.00795668 0.00796078 0.00795839 0.00795131 0.00794132 0.00792843 0.00791262 0.00789391 0.00787229 0.00784776 0.00782033 0.00779033 0.00775812 0.00772369 0.00768705 0.0076482 0.00760713 0.00756385 0.00751835 0.00746953 0.00741629 0.00735862 0.00729652 0.00723 0.00715905 0.00708368 0.00700388 0.00691821 0.00682522 0.00672491 0.00661729 0.00650234 0.00638008 0.0062505 0.0061136 0.00596915 0.00581689 0.00565684 0.00548899 0.00531335 0.00512991 0.00493866 0.00473963 0.00453491 0.00432665 0.00411484 0.00389948 0.00368057 0.00345811 0.0032321 0.00300254 0.00277402 0.00255115 0.00233393 0.00212234 0.0019164 0.0017161 0.00152145 0.00133244 0.0011533 0.000988247 0.000837286 0.000700416 0.000577637 0.000468949 0.000374351 0.000293845 0.000224975 0.000165288 0.000114783 7.34612e-05 4.13219e-05 1.83653e-05 4.59132e-06 0 0 7.37455e-06 2.94982e-05 6.6371e-05 0.000117993 0.000184364 0.000265484 0.000361353 0.000471971 0.00060018 0.000748818 0.000917887 0.00110739 0.00131732 0.00154768 0.00179847 0.00206969 0.00235432 0.00264533 0.00294273 0.00324652 0.00355669 0.00387325 0.0041962 0.00452553 0.0048542 0.00517516 0.00548841 0.00579395 0.00609178 0.0063819 0.00666431 0.00693901 0.00720292 0.00745299 0.0076892 0.00791155 0.00812006 0.0083147 0.0084955 0.00866244 0.00881607 0.00895695 0.00908506 0.00920041 0.00930299 0.00939282 0.00946989 0.00953419 0.00958815 0.00963415 0.0096722 0.00970231 0.00972447 0.00973868 0.00974494 0.00974326 0.00973576 0.00972459 0.00970974 0.00969121 0.00966901 0.00964313 0.00961357 0.00958033 0.00954385 0.00950452 0.00946237 0.00941738 0.00936956 0.0093189 0.00926542 0.0092091 0.00914863 0.00908272 0.00901135 0.00893454 0.00885227 0.00876455 0.00867138 0.00857276 0.00846698 0.00835233 0.00822881 0.00809641 0.00795515 0.00780501 0.007646 0.00747812 0.00730111 0.00711469 0.00691889 0.00671368 0.00649907 0.00627507 0.00604167 0.00579887 0.00554923 0.00529533 0.00503714 0.00477468 0.00450795 0.00423695 0.00396167 0.00368211 0.00340379 0.00313222 0.00286739 0.0026093 0.00235797 0.00211337 0.00187552 0.00164442 0.00142519 0.00122297 0.00103775 0.000869542 0.000718336 0.000584135 0.00046694 0.00036675 0.000280793 0.000206297 0.000143262 9.16874e-05 5.15742e-05 2.29218e-05 5.73046e-06 0 0 9.034e-06 3.6136e-05 8.1306e-05 0.000144544 0.00022585 0.000325224 0.000442666 0.000578176 0.000734828 0.000915694 0.00112077 0.00135007 0.00160358 0.00188131 0.00218325 0.0025094 0.00285139 0.00320084 0.00355775 0.00392212 0.00429395 0.00467323 0.00505998 0.00545418 0.00584753 0.00623174 0.00660679 0.00697269 0.00732944 0.00767703 0.00801547 0.00834477 0.00866126 0.00896132 0.00924493 0.0095121 0.00976284 0.00999713 0.010215 0.0104164 0.010602 0.0107723 0.0109275 0.0110674 0.0111921 0.0113016 0.0113959 0.011475 0.0115416 0.0115987 0.0116462 0.0116841 0.0117124 0.0117311 0.0117402 0.0117397 0.0117322 0.01172 0.0117033 0.011682 0.0116562 0.0116257 0.0115907 0.0115511 0.0115074 0.0114602 0.0114094 0.011355 0.0112971 0.0112356 0.0111705 0.0111019 0.0110281 0.0109478 0.0108608 0.0107673 0.0106671 0.0105604 0.010447 0.010327 0.0101984 0.0100592 0.00990951 0.00974919 0.0095783 0.00939682 0.00920477 0.00900214 0.00878865 0.00856403 0.00832827 0.00808137 0.00782333 0.00755416 0.00727385 0.00698241 0.00668286 0.00637826 0.00606859 0.00575387 0.00543408 0.00510924 0.00477934 0.00444437 0.00411084 0.00378522 0.00346753 0.00315776 0.00285591 0.00256199 0.00227598 0.0019979 0.00173386 0.00149001 0.00126634 0.00106285 0.000879539 0.000716411 0.000573465 0.000450699 0.000345067 0.000253518 0.000176054 0.000112675 6.33796e-05 2.81687e-05 7.04218e-06 0 0 1.09055e-05 4.36221e-05 9.81497e-05 0.000174488 0.000272638 0.000392599 0.000534371 0.000697954 0.000886593 0.00110353 0.00134878 0.00162232 0.00192417 0.00225432 0.00261278 0.00299953 0.00340473 0.00381852 0.00424089 0.00467185 0.0051114 0.00555954 0.00601626 0.00648157 0.00694582 0.00739936 0.00784218 0.00827429 0.00869569 0.00910637 0.00950634 0.00989559 0.0102699 0.0106249 0.0109607 0.0112773 0.0115746 0.0118527 0.0121115 0.0123511 0.0125721 0.0127753 0.0129605 0.0131279 0.0132773 0.0134089 0.0135226 0.0136183 0.0136995 0.0137692 0.0138275 0.0138744 0.0139099 0.0139339 0.0139466 0.0139478 0.0139405 0.0139276 0.0139092 0.0138851 0.0138554 0.01382 0.0137791 0.0137326 0.0136811 0.0136251 0.0135647 0.0134999 0.0134307 0.0133571 0.0132791 0.0131966 0.013108 0.0130115 0.0129071 0.0127948 0.0126746 0.0125465 0.0124105 0.0122666 0.0121125 0.011946 0.011767 0.0115756 0.0113718 0.0111555 0.0109268 0.0106857 0.0104318 0.0101649 0.00988499 0.00959207 0.00928613 0.00896718 0.00863522 0.00829024 0.0079358 0.00757545 0.0072092 0.00683703 0.00645897 0.00607499 0.00568511 0.00528932 0.00489516 0.00451017 0.00413436 0.00376772 0.00341024 0.00306195 0.00272282 0.00239286 0.0020793 0.00178936 0.00152304 0.00128033 0.00106125 0.000865777 0.000693927 0.000545694 0.000417797 0.000306953 0.000213162 0.000136423 7.67382e-05 3.41059e-05 8.52647e-06 0 0 1.29891e-05 5.19565e-05 0.000116902 0.000207826 0.000324728 0.000467609 0.000636467 0.000831304 0.00105548 0.00131234 0.0016019 0.00192415 0.00227909 0.00266673 0.00308705 0.00354007 0.00401433 0.00449835 0.00499215 0.00549572 0.00600906 0.00653217 0.00706506 0.00760772 0.00814907 0.00867802 0.00919459 0.00969875 0.0101905 0.0106699 0.0111369 0.0115915 0.0120288 0.0124438 0.0128365 0.013207 0.0135553 0.0138813 0.0141851 0.0144666 0.0147265 0.0149657 0.0151841 0.0153817 0.0155586 0.0157146 0.0158498 0.0159643 0.0160616 0.0161455 0.0162161 0.0162732 0.0163169 0.0163472 0.016364 0.0163675 0.0163608 0.0163474 0.0163273 0.0163003 0.0162666 0.0162261 0.0161789 0.0161249 0.0160648 0.0159993 0.0159284 0.0158522 0.0157706 0.0156836 0.0155912 0.0154934 0.0153883 0.0152738 0.0151501 0.015017 0.0148746 0.0147229 0.0145618 0.0143915 0.0142092 0.0140125 0.0138013 0.0135757 0.0133356 0.0130811 0.0128121 0.0125287 0.0122305 0.0119173 0.0115891 0.0112458 0.0108875 0.0105141 0.0101258 0.00972237 0.00930804 0.0088869 0.00845895 0.00802418 0.00758259 0.00713419 0.00667898 0.00621695 0.00575676 0.00530706 0.00486786 0.00443916 0.00402096 0.00361325 0.00321604 0.00282933 0.00246152 0.00212103 0.00180786 0.001522 0.00126346 0.00103223 0.000828325 0.000651734 0.000498983 0.0003666 0.000254583 0.000162933 9.165e-05 4.07333e-05 1.01833e-05 0 0 1.52848e-05 6.11393e-05 0.000137563 0.000244557 0.00038212 0.000550253 0.000748956 0.000978228 0.00124148 0.00154211 0.00188014 0.00225554 0.00266834 0.00311852 0.00360608 0.00413103 0.00468018 0.00524035 0.00581153 0.00639372 0.00698692 0.00759114 0.00820637 0.00883262 0.00945727 0.0100677 0.010664 0.0112461 0.011814 0.0123677 0.0129071 0.0134324 0.0139379 0.0144179 0.0148724 0.0153014 0.015705 0.0160831 0.0164357 0.0167628 0.0170652 0.0173437 0.0175983 0.017829 0.0180358 0.0182187 0.0183777 0.0185128 0.0186281 0.0187278 0.0188119 0.0188805 0.0189334 0.0189708 0.0189926 0.0189987 0.0189931 0.0189794 0.0189576 0.0189278 0.0188899 0.018844 0.0187899 0.0187279 0.0186585 0.0185827 0.0185004 0.0184117 0.0183165 0.0182149 0.0181068 0.0179922 0.017869 0.0177348 0.0175898 0.017434 0.0172672 0.0170896 0.0169011 0.0167017 0.0164886 0.0162588 0.0160124 0.0157494 0.0154698 0.0151736 0.0148607 0.0145312 0.0141848 0.0138212 0.0134405 0.0130425 0.0126273 0.012195 0.0117455 0.0112788 0.0107996 0.0103126 0.00981785 0.00931531 0.00880497 0.00828685 0.00776095 0.00722726 0.00669563 0.00617589 0.00566805 0.00517211 0.00468806 0.0042159 0.00375565 0.00330729 0.00288051 0.00248501 0.00212079 0.00178784 0.00148617 0.00121578 0.000976661 0.000768818 0.000588626 0.00043246 0.00030032 0.000192205 0.000108115 4.80511e-05 1.20128e-05 0 0 1.77926e-05 7.11703e-05 0.000160133 0.000284681 0.000444814 0.000640533 0.000871836 0.00113872 0.0014446 0.00179285 0.00218349 0.00261651 0.00309191 0.00360969 0.00416986 0.00477241 0.0054023 0.00604451 0.00669902 0.00736585 0.00804499 0.00873644 0.00944019 0.0101563 0.0108704 0.0115685 0.0122504 0.0129163 0.013566 0.0141996 0.0148171 0.0154185 0.0159973 0.0165473 0.0170683 0.0175605 0.0180237 0.0184579 0.0188633 0.0192398 0.0195882 0.0199093 0.0202032 0.0204698 0.0207092 0.0209213 0.0211062 0.0212638 0.0213989 0.0215159 0.0216151 0.0216963 0.0217595 0.0218048 0.0218322 0.0218416 0.0218373 0.0218235 0.0218003 0.0217675 0.0217253 0.0216735 0.0216123 0.0215416 0.0214623 0.0213754 0.0212808 0.0211786 0.0210687 0.0209511 0.0208259 0.020693 0.02055 0.0203945 0.0202263 0.0200457 0.0198524 0.0196466 0.0194282 0.0191973 0.0189506 0.018685 0.0184004 0.0180968 0.0177744 0.0174329 0.0170726 0.0166932 0.0162947 0.0158767 0.0154392 0.0149822 0.0145058 0.0140098 0.0134944 0.0129595 0.0124105 0.0118526 0.0112859 0.0107104 0.0101261 0.00953297 0.00893102 0.00832026 0.00771178 0.00711666 0.00653492 0.00596654 0.00541154 0.0048699 0.00434164 0.00382674 0.00333628 0.00288131 0.00246184 0.00207787 0.00172939 0.00141641 0.00113893 0.000896947 0.000686725 0.000504533 0.00035037 0.000224237 0.000126133 5.60592e-05 1.40148e-05 0 0 2.04843e-05 8.19372e-05 0.000184359 0.000327749 0.000512107 0.000737435 0.00100373 0.00131099 0.00166255 0.00206174 0.00250854 0.00300296 0.00354501 0.00413468 0.00477197 0.00545688 0.00617242 0.00690159 0.0076444 0.00840085 0.00917092 0.00995464 0.010752 0.011563 0.0123717 0.0131623 0.0139348 0.0146892 0.0154254 0.0161435 0.0168435 0.0175254 0.0181819 0.0188059 0.0193975 0.0199565 0.020483 0.020977 0.0214384 0.0218674 0.0222648 0.0226313 0.0229672 0.0232722 0.0235465 0.0237901 0.0240029 0.0241849 0.0243413 0.0244773 0.0245928 0.0246879 0.0247625 0.0248167 0.0248504 0.0248637 0.0248612 0.0248476 0.0248231 0.0247875 0.0247408 0.0246832 0.0246145 0.0245347 0.024445 0.0243462 0.0242385 0.0241219 0.0239963 0.0238617 0.0237181 0.0235656 0.0234014 0.0232229 0.0230299 0.0228226 0.0226009 0.0223649 0.0221145 0.0218497 0.021567 0.021263 0.0209376 0.0205907 0.0202225 0.0198329 0.0194219 0.0189896 0.0185355 0.0180597 0.0175619 0.0170423 0.0165008 0.0159374 0.0153521 0.014745 0.0141219 0.013489 0.0128462 0.0121935 0.0115309 0.0108584 0.010176 0.00948368 0.00879388 0.00811897 0.00745895 0.00681381 0.00618357 0.00556821 0.00496774 0.00438216 0.00382398 0.00330574 0.00282743 0.00238904 0.00199059 0.00163206 0.00131347 0.0010348 0.00079227 0.000582076 0.00040422 0.000258701 0.000145519 6.46751e-05 1.61688e-05 0 0 2.33319e-05 9.33274e-05 0.000209987 0.00037331 0.000583296 0.000839947 0.00114326 0.00149324 0.00189307 0.00234595 0.00285187 0.00341083 0.00402284 0.00468789 0.00540599 0.00617713 0.00698227 0.00780237 0.00863742 0.00948743 0.0103524 0.0112323 0.0121272 0.013037 0.0139442 0.0148312 0.015698 0.0165446 0.017371 0.0181772 0.0189631 0.0197289 0.0204664 0.0211678 0.0218329 0.0224619 0.0230546 0.0236111 0.0241315 0.0246156 0.0250644 0.0254789 0.025859 0.0262047 0.0265159 0.0267929 0.0270354 0.0272435 0.0274229 0.0275793 0.0277125 0.0278226 0.0279097 0.0279737 0.0280146 0.0280324 0.0280323 0.0280195 0.027994 0.0279558 0.0279048 0.0278412 0.0277648 0.0276758 0.0275751 0.0274641 0.0273427 0.0272109 0.0270687 0.0269161 0.0267532 0.0265798 0.0263931 0.0261901 0.0259709 0.0257353 0.0254835 0.0252154 0.0249311 0.0246304 0.0243097 0.0239651 0.0235965 0.023204 0.0227876 0.0223473 0.0218831 0.021395 0.0208827 0.0203461 0.0197852 0.0192 0.0185904 0.0179565 0.0172982 0.0166156 0.0159154 0.0152041 0.0144818 0.0137485 0.0130042 0.0122489 0.0114826 0.0107053 0.00993062 0.00917241 0.00843062 0.00770525 0.0069963 0.00630378 0.00562768 0.004968 0.00433879 0.00375411 0.00321396 0.00271833 0.00226722 0.00186064 0.00149859 0.00118106 0.000904251 0.000664347 0.000461352 0.000295266 0.000166087 7.38164e-05 1.84541e-05 0 0 2.63353e-05 0.000105341 0.000237017 0.000421364 0.000658382 0.000948069 0.00129043 0.00168546 0.00213615 0.00264548 0.00321347 0.00384011 0.0045254 0.00526934 0.00607193 0.00693317 0.00783187 0.00874684 0.00967809 0.0106256 0.0115894 0.0125695 0.0135658 0.0145784 0.015588 0.0165752 0.0175401 0.0184826 0.0194028 0.0203005 0.021176 0.022029 0.0228509 0.0236328 0.0243747 0.0250766 0.0257386 0.0263605 0.0269424 0.0274843 0.0279872 0.0284519 0.0288786 0.029267 0.0296174 0.0299296 0.0302037 0.0304396 0.0306436 0.0308217 0.030974 0.0311005 0.0312011 0.0312758 0.0313247 0.0313478 0.0313507 0.0313391 0.031313 0.0312724 0.0312172 0.0311476 0.0310634 0.0309648 0.0308529 0.0307291 0.0305933 0.0304456 0.030286 0.0301145 0.029931 0.0297356 0.0295251 0.0292963 0.0290492 0.0287838 0.0285002 0.0281982 0.027878 0.0275395 0.0271786 0.0267911 0.0263772 0.0259367 0.0254697 0.0249761 0.0244561 0.0239095 0.0233362 0.0227361 0.0221091 0.0214553 0.0207746 0.0200671 0.0193327 0.0185715 0.0177908 0.0169978 0.0161928 0.0153755 0.0145462 0.0137046 0.0128509 0.011985 0.011122 0.010277 0.00944992 0.00864085 0.00784975 0.00707662 0.00632146 0.00558427 0.00488071 0.00422643 0.00362144 0.00306573 0.0025593 0.00210216 0.0016943 0.00133573 0.00102267 0.000751347 0.000521769 0.000333932 0.000187837 8.3483e-05 2.08707e-05 0 0 2.94945e-05 0.000117978 0.000265451 0.000471912 0.000737363 0.0010618 0.00144523 0.00188765 0.00239178 0.00296035 0.00359336 0.00429081 0.00505269 0.00587902 0.00676978 0.00772498 0.0087212 0.009735 0.0107664 0.0118154 0.012882 0.0139661 0.0150679 0.0161872 0.0173031 0.0183944 0.0194611 0.0205032 0.0215207 0.0225137 0.023482 0.0244258 0.0253354 0.0262011 0.0270229 0.0278008 0.0285348 0.029225 0.0298712 0.0304736 0.031033 0.0315505 0.0320259 0.0324594 0.0328509 0.0332003 0.0335078 0.0337733 0.0340034 0.0342048 0.0343775 0.0345214 0.0346366 0.0347231 0.0347809 0.03481 0.0348164 0.0348065 0.0347801 0.0347373 0.034678 0.0346024 0.0345102 0.0344017 0.0342782 0.034141 0.0339903 0.033826 0.0336481 0.0334567 0.0332516 0.033033 0.0327973 0.0325413 0.0322649 0.0319681 0.0316508 0.0313132 0.0309552 0.0305768 0.0301736 0.0297412 0.0292796 0.0287887 0.0282686 0.0277193 0.0271408 0.0265331 0.025896 0.0252296 0.0245336 0.0238083 0.0230535 0.0222693 0.0214556 0.0206125 0.0197481 0.0188702 0.0179791 0.0170745 0.0161566 0.0152254 0.0142808 0.0133228 0.012368 0.0114327 0.0105169 0.00962062 0.0087439 0.00788672 0.00704908 0.00623097 0.00544973 0.00472269 0.00404986 0.00343124 0.00286682 0.00235661 0.0019006 0.0014988 0.00114752 0.000843074 0.000585468 0.0003747 0.000210769 9.36749e-05 2.34187e-05 0 0 3.28096e-05 0.000131238 0.000295286 0.000524953 0.00082024 0.00118115 0.00160767 0.00209981 0.00265997 0.00329054 0.00399152 0.00476291 0.00560471 0.00651692 0.00749954 0.00855257 0.00965026 0.0107669 0.0119023 0.0130567 0.01423 0.0154223 0.0166334 0.0178634 0.0190894 0.0202886 0.0214609 0.0226063 0.0237248 0.0248165 0.0258813 0.0269193 0.0279199 0.0288726 0.0297774 0.0306344 0.0314434 0.0322047 0.032918 0.0335834 0.034202 0.0347745 0.0353011 0.0357817 0.0362164 0.036605 0.0369477 0.0372444 0.0375023 0.0377284 0.0379228 0.0380855 0.0382164 0.0383156 0.0383831 0.0384188 0.0384294 0.0384216 0.0383953 0.0383505 0.0382872 0.0382055 0.0381053 0.0379866 0.037851 0.0377001 0.0375338 0.0373521 0.0371551 0.0369427 0.036715 0.0364719 0.0362099 0.0359252 0.0356179 0.0352881 0.0349356 0.0345605 0.0341628 0.0337425 0.0332949 0.0328153 0.0323037 0.0317601 0.0311845 0.0305769 0.0299374 0.0292658 0.0285622 0.0278265 0.0270587 0.0262589 0.025427 0.024563 0.0236669 0.0227388 0.0217873 0.0208213 0.0198407 0.0188455 0.0178357 0.0168113 0.0157724 0.0147189 0.0136686 0.0126395 0.0116315 0.0106446 0.00967877 0.0087341 0.00781054 0.00690809 0.00604585 0.0052429 0.00449924 0.00381487 0.00318978 0.00262399 0.00211749 0.00167027 0.0012788 0.00093953 0.000652451 0.000417569 0.000234882 0.000104392 2.6098e-05 0 0 3.62805e-05 0.000145122 0.000326525 0.000580488 0.000907013 0.0013061 0.00177775 0.00232195 0.00294072 0.00363606 0.00440796 0.00525643 0.00618146 0.00718306 0.00826122 0.00941595 0.0106191 0.0118424 0.0130859 0.0143497 0.0156337 0.0169379 0.0182623 0.0196069 0.020947 0.022