<?xml version="1.0"?> 
<VTKFile type="StructuredGrid" version="0.1"> 
<StructuredGrid WholeExtent="0 128 0 128 0 0"> 
<Piece Extent="0 128 0 128 0 0"> 
<PointData>
<DataArray type="Float32" Name="u" format="ascii" NumberOfComponents="1"> 
0 0 0 0 0 0 0 0 0 0 0 0 0 0 0 0 0 0 0 0 0 0 0 0 0 0 0 0 0 0 0 0 0 0 0 0 0 0 0 0 0 0 0 0 0 0 0 0 0 0 0 0 0 0 0 0 0 0 0 0 0 0 0 0 0 0 0 0 0 0 0 0 0 0 0 0 0 0 0 0 0 0 0 0 0 0 0 0 0 0 0 0 0 0 0 0 0 0 0 0 0 0 0 0 0 0 0 0 0 0 0 0 0 0 0 0 0 0 0 0 0 0 0 0 0 0 0 0 0 0 -1.30728e-07 -5.2291e-07 -1.17655e-06 -2.09164e-06 -3.26819e-06 -4.70619e-06 -6.40565e-06 -8.36657e-06 -1.04392e-05 -1.24739e-05 -1.44706e-05 -1.64293e-05 -1.835e-05 -2.02327e-05 -2.20774e-05 -2.38842e-05 -2.55268e-05 -2.68791e-05 -2.79411e-05 -2.87128e-05 -2.91942e-05 -2.93854e-05 -2.92862e-05 -2.88967e-05 -2.83098e-05 -2.76183e-05 -2.68222e-05 -2.59215e-05 -2.49162e-05 -2.38063e-05 -2.25918e-05 -2.12728e-05 -2.00174e-05 -1.89939e-05 -1.82025e-05 -1.76429e-05 -1.73154e-05 -1.72198e-05 -1.73561e-05 -1.77245e-05 -1.8358e-05 -1.92901e-05 -2.05207e-05 -2.20498e-05 -2.38775e-05 -2.60036e-05 -2.84283e-05 -3.11515e-05 -3.40204e-05 -3.68822e-05 -3.97369e-05 -4.25846e-05 -4.54252e-05 -4.82587e-05 -5.10851e-05 -5.39044e-05 -5.65431e-05 -5.88278e-05 -6.07585e-05 -6.23351e-05 -6.35576e-05 -6.44261e-05 -6.49406e-05 -6.5101e-05 -6.49084e-05 -6.43638e-05 -6.34672e-05 -6.22187e-05 -6.06182e-05 -5.86657e-05 -5.63612e-05 -5.37048e-05 -5.08696e-05 -4.8029e-05 -4.51829e-05 -4.23313e-05 -3.94743e-05 -3.66117e-05 -3.37437e-05 -3.08703e-05 -2.81412e-05 -2.57065e-05 -2.3566e-05 -2.17199e-05 -2.0168e-05 -1.89105e-05 -1.79473e-05 -1.72783e-05 -1.68702e-05 -1.66894e-05 -1.67358e-05 -1.70096e-05 -1.75107e-05 -1.8239e-05 -1.91947e-05 -2.03777e-05 -2.16248e-05 -2.27728e-05 -2.38218e-05 -2.47717e-05 -2.56225e-05 -2.63742e-05 -2.70269e-05 -2.75805e-05 -2.79463e-05 -2.80354e-05 -2.78479e-05 -2.73838e-05 -2.66431e-05 -2.56258e-05 -2.43319e-05 -2.27614e-05 -2.10349e-05 -1.92732e-05 -1.74762e-05 -1.56441e-05 -1.37766e-05 -1.1874e-05 -9.9361e-06 -7.96298e-06 -6.09665e-06 -4.47917e-06 -3.11054e-06 -1.99074e-06 -1.11979e-06 -4.97686e-07 -1.24422e-07 0 0 -5.2291e-07 -2.09164e-06 -4.70619e-06 -8.36657e-06 -1.30728e-05 -1.88248e-05 -2.56226e-05 -3.34663e-05 -4.17569e-05 -4.98955e-05 -5.78822e-05 -6.5717e-05 -7.33998e-05 -8.09307e-05 -8.83097e-05 -9.55367e-05 -0.000102107 -0.000107516 -0.000111764 -0.000114851 -0.000116777 -0.000117541 -0.000117145 -0.000115587 -0.000113239 -0.000110473 -0.000107289 -0.000103686 -9.96648e-05 -9.52253e-05 -9.03674e-05 -8.50911e-05 -8.00695e-05 -7.59757e-05 -7.28098e-05 -7.05718e-05 -6.92615e-05 -6.88791e-05 -6.94246e-05 -7.08979e-05 -7.34321e-05 -7.71604e-05 -8.20828e-05 -8.81993e-05 -9.55098e-05 -0.000104014 -0.000113713 -0.000124606 -0.000136082 -0.000147529 -0.000158948 -0.000170338 -0.000181701 -0.000193035 -0.00020434 -0.000215617 -0.000226172 -0.000235311 -0.000243034 -0.00024934 -0.00025423 -0.000257704 -0.000259762 -0.000260404 -0.000259633 -0.000257455 -0.000253869 -0.000248875 -0.000242473 -0.000234663 -0.000225445 -0.000214819 -0.000203478 -0.000192116 -0.000180732 -0.000169325 -0.000157897 -0.000146447 -0.000134975 -0.000123481 -0.000112565 -0.000102826 -9.42641e-05 -8.68796e-05 -8.06722e-05 -7.5642e-05 -7.17891e-05 -6.91133e-05 -6.74808e-05 -6.67574e-05 -6.69433e-05 -6.80384e-05 -7.00427e-05 -7.29562e-05 -7.67789e-05 -8.15109e-05 -8.64992e-05 -9.10914e-05 -9.52872e-05 -9.90867e-05 -0.00010249 -0.000105497 -0.000108108 -0.000110322 -0.000111785 -0.000112142 -0.000111392 -0.000109535 -0.000106573 -0.000102503 -9.73276e-05 -9.10454e-05 -8.41395e-05 -7.70927e-05 -6.9905e-05 -6.25762e-05 -5.51066e-05 -4.7496e-05 -3.97444e-05 -3.18519e-05 -2.43866e-05 -1.79167e-05 -1.24422e-05 -7.96298e-06 -4.47917e-06 -1.99074e-06 -4.97686e-07 0 0 -1.17655e-06 -4.70619e-06 -1.05889e-05 -1.88248e-05 -2.94137e-05 -4.23557e-05 -5.76509e-05 -7.52991e-05 -9.39529e-05 -0.000112265 -0.000130235 -0.000147863 -0.00016515 -0.000182094 -0.000198697 -0.000214957 -0.000229741 -0.000241912 -0.00025147 -0.000258415 -0.000262748 -0.000264468 -0.000263576 -0.000260071 -0.000254788 -0.000248565 -0.0002414 -0.000233294 -0.000224246 -0.000214257 -0.000203327 -0.000191455 -0.000180156 -0.000170945 -0.000163822 -0.000158786 -0.000155838 -0.000154978 -0.000156205 -0.00015952 -0.000165222 -0.000173611 -0.000184686 -0.000198448 -0.000214897 -0.000234032 -0.000255855 -0.000280363 -0.000306183 -0.00033194 -0.000357633 -0.000383261 -0.000408827 -0.000434328 -0.000459766 -0.000485139 -0.000508888 -0.00052945 -0.000546826 -0.000561016 -0.000572019 -0.000579835 -0.000584465 -0.000585909 -0.000584175 -0.000579274 -0.000571205 -0.000559968 -0.000545564 -0.000527991 -0.000507251 -0.000483343 -0.000457827 -0.000432261 -0.000406646 -0.000380982 -0.000355268 -0.000329506 -0.000303694 -0.000277833 -0.000253271 -0.000231358 -0.000212094 -0.000195479 -0.000181512 -0.000170195 -0.000161525 -0.000155505 -0.000151832 -0.000150204 -0.000150622 -0.000153086 -0.000157596 -0.000164151 -0.000172753 -0.000183399 -0.000194623 -0.000204956 -0.000214396 -0.000222945 -0.000230602 -0.000237368 -0.000243242 -0.000248225 -0.000251516 -0.000252319 -0.000250631 -0.000246455 -0.000239788 -0.000230632 -0.000218987 -0.000204852 -0.000189314 -0.000173459 -0.000157286 -0.000140797 -0.00012399 -0.000106866 -8.94249e-05 -7.16668e-05 -5.48699e-05 -4.03126e-05 -2.79948e-05 -1.79167e-05 -1.00781e-05 -4.47917e-06 -1.11979e-06 0 0 -2.09164e-06 -8.36657e-06 -1.88248e-05 -3.34663e-05 -5.2291e-05 -7.52991e-05 -0.00010249 -0.000133865 -0.000167027 -0.000199582 -0.000231529 -0.000262868 -0.000293599 -0.000323723 -0.000353239 -0.000382147 -0.000408428 -0.000430065 -0.000447058 -0.000459405 -0.000467108 -0.000470166 -0.000468579 -0.000462348 -0.000452957 -0.000441893 -0.000429155 -0.000414744 -0.000398659 -0.000380901 -0.000361469 -0.000340364 -0.000320278 -0.000303903 -0.000291239 -0.000282287 -0.000277046 -0.000275517 -0.000277698 -0.000283591 -0.000293728 -0.000308642 -0.000328331 -0.000352797 -0.000382039 -0.000416058 -0.000454853 -0.000498424 -0.000544326 -0.000590115 -0.000635791 -0.000681354 -0.000726803 -0.000772139 -0.000817361 -0.00086247 -0.00090469 -0.000941245 -0.000972136 -0.000997361 -0.00101692 -0.00103082 -0.00103905 -0.00104162 -0.00103853 -0.00102982 -0.00101548 -0.000995499 -0.000969891 -0.000938651 -0.00090178 -0.000859277 -0.000813914 -0.000768464 -0.000722926 -0.000677301 -0.000631588 -0.000585788 -0.0005399 -0.000493924 -0.00045026 -0.000411304 -0.000377057 -0.000347518 -0.000322689 -0.000302568 -0.000287156 -0.000276453 -0.000269923 -0.00026703 -0.000267773 -0.000272154 -0.000280171 -0.000291825 -0.000307116 -0.000326043 -0.000345997 -0.000364365 -0.000381149 -0.000396347 -0.00040996 -0.000421988 -0.00043243 -0.000441288 -0.00044714 -0.000448566 -0.000445567 -0.000438141 -0.00042629 -0.000410013 -0.00038931 -0.000364182 -0.000336558 -0.000308371 -0.00027962 -0.000250305 -0.000220426 -0.000189984 -0.000158978 -0.000127408 -9.75465e-05 -7.16668e-05 -4.97686e-05 -3.18519e-05 -1.79167e-05 -7.96298e-06 -1.99074e-06 0 0 -3.26819e-06 -1.30728e-05 -2.94137e-05 -5.2291e-05 -8.17048e-05 -0.000117655 -0.000160141 -0.000209164 -0.00026098 -0.000311847 -0.000361764 -0.000410731 -0.000458749 -0.000505817 -0.000551935 -0.000597104 -0.000638169 -0.000671977 -0.000698528 -0.000717821 -0.000729856 -0.000734634 -0.000732155 -0.000722418 -0.000707745 -0.000690458 -0.000670555 -0.000648038 -0.000622905 -0.000595158 -0.000564796 -0.000531819 -0.000500434 -0.000474848 -0.000455061 -0.000441074 -0.000432885 -0.000430495 -0.000433904 -0.000443112 -0.000458951 -0.000482253 -0.000513018 -0.000551246 -0.000596936 -0.00065009 -0.000710707 -0.000778787 -0.00085051 -0.000922055 -0.000993424 -0.00106462 -0.00113563 -0.00120647 -0.00127713 -0.00134761 -0.00141358 -0.0014707 -0.00151896 -0.00155838 -0.00158894 -0.00161065 -0.00162351 -0.00162752 -0.00162271 -0.00160909 -0.00158668 -0.00155547 -0.00151545 -0.00146664 -0.00140903 -0.00134262 -0.00127174 -0.00120072 -0.00112957 -0.00105828 -0.000986856 -0.000915293 -0.000843594 -0.000771757 -0.000703531 -0.000642662 -0.000589151 -0.000542997 -0.000504201 -0.000472763 -0.000448682 -0.000431958 -0.000421755 -0.000417234 -0.000418396 -0.00042524 -0.000437767 -0.000455976 -0.000479868 -0.000509443 -0.00054062 -0.000569321 -0.000595545 -0.000619292 -0.000640562 -0.000659356 -0.000675673 -0.000689513 -0.000698656 -0.000700885 -0.000696198 -0.000684596 -0.000666079 -0.000640646 -0.000608297 -0.000569034 -0.000525872 -0.00048183 -0.000436906 -0.000391101 -0.000344416 -0.00029685 -0.000248403 -0.000199074 -0.000152416 -0.000111979 -7.77634e-05 -4.97686e-05 -2.79948e-05 -1.24422e-05 -3.11054e-06 0 0 -4.70619e-06 -1.88248e-05 -4.23557e-05 -7.52991e-05 -0.000117655 -0.000169423 -0.000230604 -0.000301196 -0.000375812 -0.00044906 -0.00052094 -0.000591453 -0.000660598 -0.000728376 -0.000794787 -0.00085983 -0.000918964 -0.000967647 -0.00100588 -0.00103366 -0.00105099 -0.00105787 -0.0010543 -0.00104028 -0.00101915 -0.000994259 -0.000965599 -0.000933174 -0.000896984 -0.000857028 -0.000813306 -0.000765819 -0.000720625 -0.000683782 -0.000655288 -0.000635146 -0.000623354 -0.000619912 -0.000624821 -0.000638081 -0.000660889 -0.000694444 -0.000738745 -0.000793794 -0.000859588 -0.00093613 -0.00102342 -0.00112145 -0.00122473 -0.00132776 -0.00143053 -0.00153305 -0.00163531 -0.00173731 -0.00183906 -0.00194056 -0.00203555 -0.0021178 -0.0021873 -0.00224406 -0.00228807 -0.00231934 -0.00233786 -0.00234364 -0.0023367 -0.0023171 -0.00228482 -0.00223987 -0.00218225 -0.00211196 -0.002029 -0.00193337 -0.00183131 -0.00172904 -0.00162658 -0.00152393 -0.00142107 -0.00131802 -0.00121477 -0.00111133 -0.00101308 -0.000925433 -0.000848377 -0.000781916 -0.00072605 -0.000680778 -0.000646101 -0.00062202 -0.000607327 -0.000600817 -0.00060249 -0.000612345 -0.000630384 -0.000656606 -0.00069101 -0.000733598 -0.000778493 -0.000819822 -0.000857585 -0.000891781 -0.00092241 -0.000949472 -0.000972969 -0.000992898 -0.00100607 -0.00100927 -0.00100253 -0.000985818 -0.000959153 -0.00092253 -0.000875948 -0.000819409 -0.000757256 -0.000693835 -0.000629145 -0.000563186 -0.000495959 -0.000427464 -0.0003577 -0.000286667 -0.00021948 -0.00016125 -0.000111979 -7.16668e-05 -4.03126e-05 -1.79167e-05 -4.47917e-06 0 0 -6.40565e-06 -2.56226e-05 -5.76509e-05 -0.00010249 -0.000160141 -0.000230604 -0.000313877 -0.000409962 -0.000511522 -0.00061122 -0.000709057 -0.000805033 -0.000899148 -0.000991401 -0.00108179 -0.00117032 -0.00125081 -0.00131708 -0.00136911 -0.00140693 -0.00143052 -0.00143988 -0.00143502 -0.00141594 -0.00138718 -0.0013533 -0.00131429 -0.00127015 -0.00122089 -0.00116651 -0.001107 -0.00104237 -0.000980851 -0.000930703 -0.00089192 -0.000864504 -0.000848454 -0.000843769 -0.000850451 -0.000868499 -0.000899543 -0.000945215 -0.00100551 -0.00108044 -0.00117 -0.00127418 -0.00139299 -0.00152642 -0.001667 -0.00180723 -0.00194711 -0.00208665 -0.00222583 -0.00236467 -0.00250317 -0.00264131 -0.00277061 -0.00288256 -0.00297716 -0.00305442 -0.00311432 -0.00315688 -0.00318209 -0.00318995 -0.00318051 -0.00315383 -0.00310989 -0.00304872 -0.00297029 -0.00287462 -0.0027617 -0.00263153 -0.00249261 -0.00235342 -0.00221396 -0.00207423 -0.00193424 -0.00179398 -0.00165344 -0.00151264 -0.00137892 -0.00125962 -0.00115474 -0.00106427 -0.000988234 -0.000926615 -0.000879416 -0.000846638 -0.000826639 -0.000817778 -0.000820055 -0.00083347 -0.000858023 -0.000893713 -0.000940542 -0.000998508 -0.00105962 -0.00111587 -0.00116727 -0.00121381 -0.0012555 -0.00129234 -0.00132432 -0.00135144 -0.00136937 -0.00137373 -0.00136455 -0.00134181 -0.00130551 -0.00125567 -0.00119226 -0.00111531 -0.00103071 -0.000944386 -0.000856336 -0.000766559 -0.000675056 -0.000581826 -0.000486869 -0.000390186 -0.000298736 -0.00021948 -0.000152416 -9.75465e-05 -5.48699e-05 -2.43866e-05 -6.09665e-06 0 0 -8.36657e-06 -3.34663e-05 -7.52991e-05 -0.000133865 -0.000209164 -0.000301196 -0.000409962 -0.00053546 -0.00066811 -0.000798328 -0.000926116 -0.00105147 -0.0011744 -0.00129489 -0.00141295 -0.00152859 -0.00163371 -0.00172026 -0.00178823 -0.00183762 -0.00186843 -0.00188066 -0.00187432 -0.00184939 -0.00181183 -0.00176757 -0.00171662 -0.00165898 -0.00159464 -0.0015236 -0.00144588 -0.00136146 -0.00128111 -0.00121561 -0.00116496 -0.00112915 -0.00110818 -0.00110207 -0.00111079 -0.00113437 -0.00117491 -0.00123457 -0.00131333 -0.00141119 -0.00152816 -0.00166423 -0.00181941 -0.00199369 -0.0021773 -0.00236046 -0.00254316 -0.00272541 -0.00290721 -0.00308855 -0.00326944 -0.00344988 -0.00361876 -0.00376498 -0.00388854 -0.00398944 -0.00406769 -0.00412327 -0.0041562 -0.00416646 -0.00415414 -0.00411928 -0.0040619 -0.003982 -0.00387956 -0.0037546 -0.00360712 -0.00343711 -0.00325566 -0.00307386 -0.0028917 -0.0027092 -0.00252635 -0.00234315 -0.0021596 -0.0019757 -0.00180104 -0.00164521 -0.00150823 -0.00139007 -0.00129075 -0.00121027 -0.00114862 -0.00110581 -0.00107969 -0.00106812 -0.00107109 -0.00108861 -0.00112068 -0.0011673 -0.00122846 -0.00130417 -0.00138399 -0.00145746 -0.00152459 -0.00158539 -0.00163984 -0.00168795 -0.00172972 -0.00176515 -0.00178856 -0.00179427 -0.00178227 -0.00175257 -0.00170516 -0.00164005 -0.00155724 -0.00145673 -0.00134623 -0.00123348 -0.00111848 -0.00100122 -0.000881705 -0.000759935 -0.000635911 -0.000509631 -0.000390186 -0.000286667 -0.000199074 -0.000127408 -7.16668e-05 -3.18519e-05 -7.96298e-06 0 0 -1.04393e-05 -4.17571e-05 -9.39536e-05 -0.000167029 -0.000260982 -0.000375814 -0.000511525 -0.000668114 -0.000833493 -0.000995571 -0.00115435 -0.00130983 -0.00146201 -0.00161088 -0.00175646 -0.00189874 -0.00202763 -0.00213306 -0.00221501 -0.00227349 -0.0023085 -0.00232003 -0.0023081 -0.0022727 -0.00222139 -0.00216175 -0.00209377 -0.00201745 -0.0019328 -0.00183982 -0.00173849 -0.00162883 -0.00152446 -0.00143899 -0.00137243 -0.00132477 -0.00129602 -0.00128617 -0.00129522 -0.00132318 -0.00137273 -0.00144653 -0.00154459 -0.00166692 -0.0018135 -0.00198434 -0.00217944 -0.00239881 -0.00263005 -0.00286079 -0.00309104 -0.00332078 -0.00355002 -0.00377877 -0.00400701 -0.00423475 -0.00444795 -0.00463256 -0.00478858 -0.00491601 -0.00501484 -0.00508509 -0.00512675 -0.00513981 -0.00512437 -0.0050805 -0.0050082 -0.00490748 -0.00477833 -0.00462075 -0.00443475 -0.00422032 -0.00399149 -0.00376228 -0.00353269 -0.00330273 -0.00307239 -0.00284166 -0.00261057 -0.00237909 -0.00215938 -0.00196357 -0.00179167 -0.00164369 -0.0015196 -0.00141943 -0.00134316 -0.00129081 -0.00125966 -0.00124703 -0.00125292 -0.00127732 -0.00132025 -0.00138168 -0.00146164 -0.00156011 -0.00166389 -0.00175977 -0.00184775 -0.00192783 -0.00200002 -0.0020643 -0.00212068 -0.00216916 -0.00220251 -0.00221348 -0.00220209 -0.00216833 -0.00211219 -0.00203369 -0.00193282 -0.00180957 -0.00167361 -0.00153458 -0.00139248 -0.00124731 -0.00109907 -0.000947759 -0.00079338 -0.000635932 -0.000486885 -0.000357712 -0.000248411 -0.000158983 -8.94279e-05 -3.97457e-05 -9.93643e-06 0 0 -1.24742e-05 -4.98966e-05 -0.000112267 -0.000199587 -0.000311854 -0.00044907 -0.000611234 -0.000798346 -0.000995587 -0.00118814 -0.00137599 -0.00155916 -0.00173764 -0.00191142 -0.00208051 -0.00224491 -0.00239254 -0.00251131 -0.00260122 -0.00266227 -0.00269447 -0.00269781 -0.00267229 -0.00261792 -0.00254416 -0.00246048 -0.00236689 -0.00226339 -0.00214998 -0.00202664 -0.0018934 -0.00175024 -0.00161395 -0.00150133 -0.00141236 -0.00134706 -0.00130542 -0.00128744 -0.00129311 -0.00132245 -0.00137871 -0.00146514 -0.00158174 -0.00172851 -0.00190545 -0.00211256 -0.00234984 -0.0026173 -0.00289963 -0.00318155 -0.00346307 -0.00374416 -0.00402485 -0.00430513 -0.00458499 -0.00486444 -0.00512616 -0.00535282 -0.00554442 -0.00570097 -0.00582247 -0.00590891 -0.00596029 -0.00597662 -0.00595799 -0.00590449 -0.00581614 -0.00569292 -0.00553483 -0.00534189 -0.00511408 -0.00485141 -0.00457116 -0.00429063 -0.00400981 -0.0037287 -0.00344731 -0.00316563 -0.00288366 -0.00260141 -0.00233387 -0.00209603 -0.00188791 -0.00170949 -0.00156078 -0.00144177 -0.00135247 -0.00129288 -0.00125972 -0.00124971 -0.00126285 -0.00129915 -0.00135859 -0.00144119 -0.00154694 -0.00167584 -0.00181161 -0.00193797 -0.00205493 -0.00216248 -0.00226062 -0.00234936 -0.00242869 -0.0024986 -0.00255006 -0.002574 -0.00257042 -0.00253932 -0.00248071 -0.00239457 -0.00228092 -0.00213975 -0.00198263 -0.00182113 -0.00165524 -0.00148496 -0.0013103 -0.00113126 -0.000947832 -0.00076002 -0.00058189 -0.000427511 -0.000296883 -0.000190005 -0.000106878 -4.75012e-05 -1.18753e-05 0 0 -1.44712e-05 -5.78848e-05 -0.000130241 -0.000231539 -0.00036178 -0.000520963 -0.000709088 -0.000926156 -0.00115439 -0.00137602 -0.00159105 -0.00179947 -0.00200128 -0.00219649 -0.0023851 -0.0025671 -0.00272842 -0.00285501 -0.00294687 -0.00300398 -0.00302635 -0.00301399 -0.00296689 -0.00288506 -0.00278013 -0.00266378 -0.002536 -0.0023968 -0.00224616 -0.00208409 -0.0019106 -0.00172567 -0.00154959 -0.00140262 -0.00128476 -0.00119602 -0.00113639 -0.00110587 -0.00110447 -0.00113218 -0.00119286 -0.00129039 -0.00142475 -0.00159596 -0.001804 -0.00204888 -0.0023306 -0.00264917 -0.00298605 -0.00332275 -0.00365925 -0.00399557 -0.0043317 -0.00466763 -0.00500338 -0.00533893 -0.00565337 -0.00592575 -0.00615607 -0.00634435 -0.00649056 -0.00659473 -0.00665684 -0.00667689 -0.006655 -0.00659128 -0.00648572 -0.00633832 -0.00614908 -0.00591801 -0.00564511 -0.00533036 -0.00499467 -0.00465889 -0.00432304 -0.00398712 -0.00365112 -0.00331504 -0.00297889 -0.00264266 -0.00232452 -0.0020426 -0.00179692 -0.00158748 -0.00141427 -0.00127729 -0.00117655 -0.00111204 -0.00107987 -0.00107616 -0.00110089 -0.00115408 -0.00123572 -0.00134581 -0.00148436 -0.00165135 -0.00182714 -0.00199207 -0.00214613 -0.00228933 -0.00242166 -0.00254314 -0.00265374 -0.00275349 -0.00283123 -0.00287582 -0.00288726 -0.00286556 -0.00281071 -0.00272271 -0.00260156 -0.00244727 -0.0022733 -0.00209313 -0.00190676 -0.00171418 -0.00151541 -0.00131044 -0.00109927 -0.000881894 -0.0006752 -0.000496066 -0.00034449 -0.000220474 -0.000124016 -5.51184e-05 -1.37796e-05 0 0 -1.64304e-05 -6.57215e-05 -0.000147873 -0.000262886 -0.000410759 -0.000591494 -0.000805088 -0.00105154 -0.00130991 -0.00155923 -0.00179951 -0.00203075 -0.00225295 -0.00246611 -0.00267023 -0.0028653 -0.00303529 -0.00316418 -0.00325195 -0.00329861 -0.00330415 -0.00326858 -0.0031919 -0.00307411 -0.00292932 -0.00277165 -0.0026011 -0.00241766 -0.00222135 -0.00201216 -0.00179008 -0.00155513 -0.00133137 -0.00114287 -0.000989625 -0.000871647 -0.000788931 -0.000741476 -0.000729283 -0.000752352 -0.000815184 -0.000922281 -0.00107364 -0.00126927 -0.00150916 -0.00179331 -0.00212173 -0.00249441 -0.00288931 -0.00328437 -0.0036796 -0.004075 -0.00447056 -0.00486629 -0.00526218 -0.00565824 -0.00602959 -0.00635135 -0.00662353 -0.00684612 -0.00701913 -0.00714255 -0.00721638 -0.00724063 -0.00721541 -0.00714085 -0.00701694 -0.00684368 -0.00662108 -0.00634913 -0.00602784 -0.0056572 -0.00526201 -0.00486708 -0.0044724 -0.00407798 -0.00368382 -0.00328991 -0.00289625 -0.00250285 -0.00213132 -0.00180328 -0.00151873 -0.00127766 -0.00108008 -0.000925993 -0.000815391 -0.000748277 -0.000720116 -0.000726371 -0.000767043 -0.000842132 -0.000951638 -0.00109556 -0.0012739 -0.00148666 -0.00171049 -0.00192205 -0.00212135 -0.00230837 -0.00248314 -0.00264563 -0.00279585 -0.00293381 -0.003046 -0.00311894 -0.00315261 -0.00314703 -0.00310219 -0.00301809 -0.00289473 -0.00273211 -0.0025456 -0.00235058 -0.00214703 -0.00193497 -0.00171439 -0.0014853 -0.00124769 -0.00100156 -0.000766817 -0.000563375 -0.000391233 -0.000250389 -0.000140844 -6.25973e-05 -1.56493e-05 0 0 -1.83517e-05 -7.34069e-05 -0.000165165 -0.000293627 -0.000458793 -0.000660662 -0.000899234 -0.00117451 -0.00146214 -0.00173776 -0.00200139 -0.00225302 -0.00249264 -0.00272027 -0.00293589 -0.00313952 -0.00331315 -0.0034388 -0.00351647 -0.00354615 -0.00352786 -0.00346158 -0.00334732 -0.00318508 -0.00299171 -0.00278407 -0.00256217 -0.002326 -0.00207555 -0.00181084 -0.00153186 -0.00123862 -0.000959288 -0.000722066 -0.000526952 -0.000373944 -0.000263042 -0.000194248 -0.000167561 -0.00018298 -0.000245676 -0.000360818 -0.000528406 -0.000748439 -0.00102092 -0.00134584 -0.00172322 -0.00215303 -0.0026094 -0.00306643 -0.00352411 -0.00398245 -0.00444144 -0.00490109 -0.00536139 -0.00582235 -0.00625482 -0.00662963 -0.00694679 -0.0072063 -0.00740816 -0.00755237 -0.00763893 -0.00766783 -0.00763921 -0.0075532 -0.0074098 -0.00720901 -0.00695082 -0.00663524 -0.00626227 -0.0058319 -0.00537319 -0.00491519 -0.00445789 -0.00400129 -0.0035454 -0.00309022 -0.00263574 -0.00218197 -0.00175428 -0.00137806 -0.00105331 -0.000780031 -0.000558219 -0.000387876 -0.000269002 -0.000201597 -0.00018045 -0.000200351 -0.000261299 -0.000363294 -0.000506337 -0.000690427 -0.000915564 -0.00118175 -0.00146165 -0.00172793 -0.00198058 -0.00221962 -0.00244504 -0.00265684 -0.00285501 -0.00303957 -0.00319439 -0.00330336 -0.00336648 -0.00338374 -0.00335515 -0.00328072 -0.00316043 -0.00299428 -0.00279955 -0.00259348 -0.00237607 -0.00214733 -0.00190725 -0.00165584 -0.00139309 -0.001119 -0.000856738 -0.00062944 -0.000437111 -0.000279751 -0.00015736 -6.99378e-05 -1.74845e-05 0 0 -2.02352e-05 -8.09409e-05 -0.000182117 -0.000323763 -0.00050588 -0.000728468 -0.000991526 -0.00129505 -0.00161108 -0.00191162 -0.00219668 -0.00246625 -0.00272035 -0.00295896 -0.0031821 -0.00338975 -0.00356199 -0.00367888 -0.00374042 -0.00374662 -0.00369748 -0.00359298 -0.00343315 -0.00321796 -0.00296731 -0.00270106 -0.00241922 -0.00212179 -0.00180877 -0.00148015 -0.00113594 -0.00077613 -0.000433352 -0.000140223 0.000103258 0.000297091 0.000441275 0.000535812 0.0005807 0.000575939 0.000515663 0.000394002 0.000210956 -3.34733e-05 -0.000339287 -0.000706486 -0.00113507 -0.00162504 -0.00214633 -0.00266891 -0.00319277 -0.00371791 -0.00424434 -0.00477204 -0.00530102 -0.00583128 -0.00632906 -0.00676058 -0.00712586 -0.00742489 -0.00765766 -0.00782419 -0.00792447 -0.00795849 -0.00792641 -0.00782835 -0.00766431 -0.00743429 -0.0071383 -0.00677634 -0.0063484 -0.00585448 -0.00532821 -0.00480322 -0.0042795 -0.00375705 -0.00323588 -0.00271598 -0.00219736 -0.00168002 -0.00119339 -0.000766949 -0.000400681 -9.45904e-05 0.000151323 0.00033706 0.000462619 0.000528001 0.000539123 0.000501902 0.000416338 0.000282431 0.00010018 -0.000130413 -0.00040935 -0.000736631 -0.00108062 -0.00140969 -0.00172384 -0.00202307 -0.00230738 -0.00257676 -0.00283122 -0.00307077 -0.00327639 -0.00342908 -0.00352885 -0.00357569 -0.0035696 -0.00351059 -0.00339865 -0.00323379 -0.00303514 -0.00282183 -0.00259386 -0.00235125 -0.00209398 -0.00182205 -0.00153547 -0.00123424 -0.000944965 -0.00069426 -0.000482125 -0.00030856 -0.000173565 -7.714e-05 -1.9285e-05 0 0 -2.20809e-05 -8.83235e-05 -0.000198728 -0.000353294 -0.000552022 -0.000794911 -0.00108196 -0.00141318 -0.00175673 -0.00208079 -0.00238537 -0.00267047 -0.00293608 -0.0031822 -0.00340884 -0.003616 -0.00378181 -0.00388441 -0.00392381 -0.00390001 -0.00381301 -0.0036628 -0.00344938 -0.00317276 -0.00285612 -0.00252262 -0.00217226 -0.00180505 -0.00142099 -0.00102007 -0.000602297 -0.00016767 0.00024644 0.000602665 0.000901004 0.00114146 0.00132402 0.0014487 0.0015155 0.00152441 0.00146883 0.00134218 0.00114444 0.000875632 0.000535739 0.000124768 -0.000357283 -0.000910414 -0.0015001 -0.00209183 -0.0026856 -0.0032814 -0.00387925 -0.00447913 -0.00508105 -0.00568501 -0.0062523 -0.00674421 -0.00716073 -0.00750188 -0.00776763 -0.00795801 -0.00807301 -0.00811262 -0.00807699 -0.00796627 -0.00778045 -0.00751954 -0.00718353 -0.00677243 -0.00628623 -0.00572493 -0.00512707 -0.00453117 -0.00393723 -0.00334526 -0.00275525 -0.0021672 -0.00158112 -0.000996996 -0.000448663 3.00572e-05 0.000439165 0.000778661 0.00104854 0.00124881 0.00137947 0.00144052 0.00143861 0.00138039 0.00126587 0.00109504 0.000867913 0.00058448 0.000244742 -0.0001513 -0.00056741 -0.000967348 -0.00135112 -0.00171872 -0.00207014 -0.0024054 -0.00272449 -0.0030274 -0.003292 -0.0034961 -0.00363973 -0.00372287 -0.00374554 -0.00370772 -0.00360941 -0.00345063 -0.00325237 -0.00303563 -0.00280042 -0.00254674 -0.00227458 -0.00198395 -0.00167484 -0.00134726 -0.0010315 -0.000757835 -0.000526275 -0.000336816 -0.000189459 -8.42039e-05 -2.1051e-05 0 0 -2.38887e-05 -9.55547e-05 -0.000214998 -0.000382219 -0.000597217 -0.000859992 -0.00117055 -0.00152888 -0.00189909 -0.00224529 -0.00256748 -0.00286566 -0.00313983 -0.00338998 -0.00361613 -0.00381826 -0.00397261 -0.0040554 -0.00406664 -0.00400632 -0.00387445 -0.00367101 -0.00339603 -0.00304948 -0.00265813 -0.00224873 -0.00182128 -0.00137578 -0.000912219 -0.000430611 6.90497e-05 0.000586762 0.00108009 0.0015066 0.00186629 0.00215915 0.0023852 0.00254443 0.00263683 0.00266242 0.00261383 0.00248371 0.00227206 0.00197888 0.00160416 0.00114792 0.000610138 -9.17044e-06 -0.00067071 -0.00133518 -0.00200258 -0.00267292 -0.00334618 -0.00402237 -0.0047015 -0.00538356 -0.00602456 -0.00658051 -0.00705141 -0.00743727 -0.00773808 -0.00795383 -0.00808455 -0.00813021 -0.00809097 -0.00796698 -0.00775824 -0.00746475 -0.0070865 -0.00662351 -0.00607576 -0.00544325 -0.00476976 -0.00409904 -0.00343109 -0.00276591 -0.0021035 -0.00144387 -0.000787001 -0.000132908 0.000479912 0.00101296 0.00146623 0.00183972 0.00213344 0.00234739 0.00248156 0.00253595 0.002518 0.00243511 0.00228729 0.00207454 0.00179686 0.00145425 0.00104671 0.000574241 7.79885e-05 -0.000400896 -0.000862413 -0.00130656 -0.00173334 -0.00214276 -0.0025348 -0.00290948 -0.00324121 -0.00350443 -0.00369912 -0.0038253 -0.00388295 -0.00387209 -0.0037927 -0.0036448 -0.00345124 -0.00323488 -0.00299573 -0.00273379 -0.00244905 -0.00214152 -0.00181119 -0.00145807 -0.00111634 -0.000820166 -0.00056956 -0.000364518 -0.000205041 -9.11295e-05 -2.27824e-05 0 0 -2.5469e-05 -0.000101876 -0.000229221 -0.000407504 -0.000636725 -0.000916883 -0.00124798 -0.00163001 -0.00202292 -0.00238664 -0.00272117 -0.00302651 -0.00330266 -0.00354961 -0.00376738 -0.00395596 -0.00408978 -0.0041433 -0.00411652 -0.00400942 -0.00382202 -0.00355431 -0.00320629 -0.00277797 -0.00229996 -0.00180287 -0.00128672 -0.000751504 -0.000197216 0.000376141 0.000968567 0.00158006 0.00216284 0.00266913 0.00309892 0.00345222 0.00372903 0.00392934 0.00405315 0.00410047 0.00406317 0.00393311 0.0037103 0.00339474 0.00298642 0.00248535 0.00189152 0.00120495 0.00046997 -0.000269047 -0.0010121 -0.0017592 -0.00251034 -0.00326551 -0.00402473 -0.00478799 -0.00550573 -0.00612839 -0.00665597 -0.00708848 -0.00742591 -0.00766826 -0.00781553 -0.00786772 -0.00782499 -0.00768748 -0.00745519 -0.00712811 -0.00670626 -0.00618963 -0.00557823 -0.00487204 -0.00412035 -0.00337244 -0.0026283 -0.00188793 -0.00115134 -0.000418527 0.000310513 0.00103578 0.00171382 0.00230119 0.00279789 0.00320392 0.00351928 0.00374397 0.00387799 0.00392134 0.00388223 0.00376886 0.00358123 0.00331935 0.00298321 0.00257281 0.00208816 0.00152925 0.000942421 0.000373997 -0.000176019 -0.000707628 -0.00122083 -0.00171562 -0.00219201 -0.00264998 -0.00306028 -0.00339363 -0.00365002 -0.00382946 -0.00393194 -0.00395748 -0.00390606 -0.00377768 -0.00359697 -0.0033885 -0.0031523 -0.00288835 -0.00259666 -0.00227723 -0.00193006 -0.00155515 -0.00119066 -0.000874769 -0.000607479 -0.000388786 -0.000218692 -9.71966e-05 -2.42992e-05 0 0 -2.66321e-05 -0.000106529 -0.000239689 -0.000426114 -0.000665803 -0.000958757 -0.00130497 -0.00170446 -0.00211299 -0.00248638 -0.00282461 -0.0031277 -0.00339562 -0.0036284 -0.00382603 -0.0039885 -0.00408871 -0.00409957 -0.00402106 -0.00385319 -0.00359595 -0.00324936 -0.0028134 -0.00228808 -0.00170818 -0.0011085 -0.000489033 0.000150223 0.000809267 0.0014881 0.00218672 0.00290512 0.00358994 0.00418781 0.00469873 0.0051227 0.00545972 0.00570978 0.00587289 0.00594905 0.00592936 0.0058049 0.00557568 0.00524171 0.00480297 0.00425947 0.00361121 0.00285818 0.00205006 0.00123648 0.00041746 -0.000407012 -0.00123693 -0.0020723 -0.00291312 -0.00375939 -0.00455572 -0.00524676 -0.0058325 -0.00631293 -0.00668806 -0.00695788 -0.00712241 -0.00718163 -0.00713569 -0.00698475 -0.00672879 -0.00636783 -0.00590185 -0.00533087 -0.00465488 -0.00387388 -0.00304289 -0.00221696 -0.00139608 -0.000580245 0.000230539 0.00103627 0.00183696 0.00263259 0.00337455 0.0040142 0.00455155 0.00498659 0.00531933 0.00554976 0.00567789 0.00570372 0.00563623 0.00548443 0.00524831 0.00492788 0.00452313 0.00403407 0.00346069 0.002803 0.00211274 0.00144166 0.000789772 0.000157067 -0.000456455 -0.00105079 -0.00162594 -0.00218191 -0.00268544 -0.00310327 -0.00343541 -0.00368185 -0.0038426 -0.00391765 -0.00390701 -0.00381067 -0.00365476 -0.00346541 -0.00324261 -0.00298637 -0.00269668 -0.00237355 -0.00201698 -0.00162696 -0.00124564 -0.000915165 -0.000635531 -0.00040674 -0.000228791 -0.000101685 -2.54212e-05 0 0 -2.73781e-05 -0.000109513 -0.000246403 -0.00043805 -0.000684453 -0.000985613 -0.00134153 -0.0017522 -0.0021693 -0.00254451 -0.00287781 -0.00316922 -0.00341874 -0.00362635 -0.00379207 -0.00391589 -0.0039694 -0.00392419 -0.00378026 -0.00353762 -0.00319625 -0.00275616 -0.00221735 -0.00157982 -0.000882821 -0.000165619 0.00057179 0.00132941 0.00210723 0.00290526 0.0037235 0.00456194 0.00536139 0.00606265 0.00666572 0.00717059 0.00757728 0.00788576 0.00809606 0.00820816 0.0082124 0.00809908 0.0078682 0.00751978 0.0070538 0.00647027 0.00576918 0.00495055 0.00406956 0.00318141 0.00228611 0.00138365 0.000474036 -0.000442735 -0.00136666 -0.00229774 -0.00317454 -0.00393562 -0.00458098 -0.00511061 -0.00552452 -0.00582271 -0.00600517 -0.00607191 -0.00602307 -0.00585879 -0.00557906 -0.00518389 -0.00467327 -0.00404722 -0.00330571 -0.00244876 -0.00153739 -0.000632617 0.000265563 0.00115715 0.00204214 0.00292053 0.00379233 0.00465753 0.0054621 0.00615199 0.0067272 0.00718773 0.00753358 0.00776476 0.00788126 0.00788308 0.00778 0.00758182 0.00728853 0.00690013 0.00641663 0.00583802 0.0051643 0.00439547 0.00358894 0.0028021 0.00203496 0.00128752 0.000559779 -0.000148266 -0.000836614 -0.00150526 -0.00211669 -0.00263337 -0.00305531 -0.00338249 -0.00361493 -0.00375262 -0.00379556 -0.00374375 -0.00362462 -0.00346559 -0.00326666 -0.00302783 -0.0027491 -0.00243047 -0.00207194 -0.00167351 -