<?xml version="1.0"?> 
<VTKFile type="StructuredGrid" version="0.1"> 
<StructuredGrid WholeExtent="0 128 0 128 0 0"> 
<Piece Extent="0 128 0 128 0 0"> 
<PointData>
<DataArray type="Float32" Name="u" format="ascii" NumberOfComponents="1"> 
0 0 0 0 0 0 0 0 0 0 0 0 0 0 0 0 0 0 0 0 0 0 0 0 0 0 0 0 0 0 0 0 0 0 0 0 0 0 0 0 0 0 0 0 0 0 0 0 0 0 0 0 0 0 0 0 0 0 0 0 0 0 0 0 0 0 0 0 0 0 0 0 0 0 0 0 0 0 0 0 0 0 0 0 0 0 0 0 0 0 0 0 0 0 0 0 0 0 0 0 0 0 0 0 0 0 0 0 0 0 0 0 0 0 0 0 0 0 0 0 0 0 0 0 0 0 0 0 0 0 6.13905e-08 2.45562e-07 5.52515e-07 9.82249e-07 1.53476e-06 2.21006e-06 3.00814e-06 3.92899e-06 4.99976e-06 6.24757e-06 7.67241e-06 9.27429e-06 1.10532e-05 1.30092e-05 1.51421e-05 1.74522e-05 1.98886e-05 2.24007e-05 2.49885e-05 2.76521e-05 3.03913e-05 3.32063e-05 3.60969e-05 3.90633e-05 4.20525e-05 4.50114e-05 4.79402e-05 5.08388e-05 5.37071e-05 5.65453e-05 5.93533e-05 6.21311e-05 6.48483e-05 6.74744e-05 7.00094e-05 7.24535e-05 7.48064e-05 7.70683e-05 7.92392e-05 8.1319e-05 8.32964e-05 8.51603e-05 8.69105e-05 8.8547e-05 9.00699e-05 9.14792e-05 9.27749e-05 9.39569e-05 9.50264e-05 9.59844e-05 9.6831e-05 9.75661e-05 9.81898e-05 9.8702e-05 9.91028e-05 9.93921e-05 9.95768e-05 9.96637e-05 9.96528e-05 9.9544e-05 9.93375e-05 9.90331e-05 9.86309e-05 9.81309e-05 9.75409e-05 9.68687e-05 9.61144e-05 9.52779e-05 9.43593e-05 9.33585e-05 9.22756e-05 9.11105e-05 8.98705e-05 8.85628e-05 8.71875e-05 8.57445e-05 8.42338e-05 8.26554e-05 8.10094e-05 7.92957e-05 7.75225e-05 7.56978e-05 7.38217e-05 7.18941e-05 6.99151e-05 6.78846e-05 6.58027e-05 6.36693e-05 6.1497e-05 5.9298e-05 5.70724e-05 5.48202e-05 5.25414e-05 5.0236e-05 4.7904e-05 4.55454e-05 4.31808e-05 4.08311e-05 3.84961e-05 3.6176e-05 3.38707e-05 3.15801e-05 2.93044e-05 2.70434e-05 2.48283e-05 2.26903e-05 2.06292e-05 1.86451e-05 1.6738e-05 1.49078e-05 1.31547e-05 1.14785e-05 9.90473e-06 8.45864e-06 7.14025e-06 5.94957e-06 4.8866e-06 3.95134e-06 3.14379e-06 2.46395e-06 1.88646e-06 1.38597e-06 9.6248e-07 6.15987e-07 3.46493e-07 1.53997e-07 3.84992e-08 0 0 2.45562e-07 9.82249e-07 2.21006e-06 3.92899e-06 6.13905e-06 8.84024e-06 1.20325e-05 1.5716e-05 1.9999e-05 2.49903e-05 3.06896e-05 3.70971e-05 4.42128e-05 5.20366e-05 6.05686e-05 6.98087e-05 7.95543e-05 8.96027e-05 9.9954e-05 0.000110608 0.000121565 0.000132825 0.000144388 0.000156253 0.00016821 0.000180046 0.000191761 0.000203355 0.000214829 0.000226181 0.000237413 0.000248524 0.000259393 0.000269898 0.000280038 0.000289814 0.000299226 0.000308273 0.000316957 0.000325276 0.000333186 0.000340641 0.000347642 0.000354188 0.00036028 0.000365917 0.000371099 0.000375828 0.000380105 0.000383938 0.000387324 0.000390264 0.000392759 0.000394808 0.000396411 0.000397569 0.000398307 0.000398655 0.000398611 0.000398176 0.00039735 0.000396132 0.000394524 0.000392523 0.000390163 0.000387475 0.000384458 0.000381112 0.000377437 0.000373434 0.000369102 0.000364442 0.000359482 0.000354251 0.00034875 0.000342978 0.000336935 0.000330622 0.000324038 0.000317183 0.00031009 0.000302791 0.000295287 0.000287576 0.00027966 0.000271538 0.000263211 0.000254677 0.000245988 0.000237192 0.00022829 0.000219281 0.000210166 0.000200944 0.000191616 0.000182181 0.000172723 0.000163324 0.000153985 0.000144704 0.000135483 0.00012632 0.000117217 0.000108174 9.93134e-05 9.07611e-05 8.25167e-05 7.45803e-05 6.69519e-05 5.96313e-05 5.26188e-05 4.59142e-05 3.96189e-05 3.38345e-05 2.8561e-05 2.37983e-05 1.95464e-05 1.58054e-05 1.25752e-05 9.8558e-06 7.54584e-06 5.54388e-06 3.84992e-06 2.46395e-06 1.38597e-06 6.15987e-07 1.53997e-07 0 0 5.52515e-07 2.21006e-06 4.97263e-06 8.84024e-06 1.38129e-05 1.98905e-05 2.70732e-05 3.5361e-05 4.49979e-05 5.62281e-05 6.90517e-05 8.34686e-05 9.94788e-05 0.000117082 0.000136279 0.00015707 0.000178997 0.000201606 0.000224897 0.000248868 0.000273522 0.000298856 0.000324872 0.00035157 0.000378472 0.000405103 0.000431462 0.000457549 0.000483364 0.000508908 0.00053418 0.00055918 0.000583634 0.000607269 0.000630085 0.000652081 0.000673258 0.000693615 0.000713153 0.000731871 0.000749668 0.000766442 0.000782194 0.000796923 0.000810629 0.000823313 0.000834974 0.000845612 0.000855237 0.00086386 0.000871479 0.000878095 0.000883708 0.000888318 0.000891925 0.000894529 0.000896192 0.000896973 0.000896875 0.000895896 0.000894037 0.000891298 0.000887678 0.000883178 0.000877868 0.000871818 0.00086503 0.000857501 0.000849234 0.000840227 0.00083048 0.000819995 0.000808835 0.000797066 0.000784687 0.0007717 0.000758104 0.000743899 0.000729085 0.000713662 0.000697702 0.00068128 0.000664395 0.000647047 0.000629236 0.000610961 0.000592224 0.000573024 0.000553473 0.000533682 0.000513652 0.000493382 0.000472873 0.000452124 0.000431136 0.000409908 0.000388627 0.00036748 0.000346465 0.000325584 0.000304836 0.000284221 0.000263739 0.000243391 0.000223455 0.000204212 0.000185663 0.000167806 0.000150642 0.000134171 0.000118392 0.000103307 8.91426e-05 7.61277e-05 6.42622e-05 5.35461e-05 4.39794e-05 3.55621e-05 2.82941e-05 2.21755e-05 1.69781e-05 1.24737e-05 8.66232e-06 5.54388e-06 3.11844e-06 1.38597e-06 3.46493e-07 0 0 9.82249e-07 3.92899e-06 8.84024e-06 1.5716e-05 2.45562e-05 3.5361e-05 4.81302e-05 6.28639e-05 7.99962e-05 9.99611e-05 0.000122759 0.000148389 0.000176851 0.000208146 0.000242274 0.000279235 0.000318217 0.000358411 0.000399816 0.000442433 0.000486261 0.0005313 0.000577551 0.000625013 0.00067284 0.000720183 0.000767043 0.00081342 0.000859314 0.000904725 0.000949653 0.000994098 0.00103757 0.00107959 0.00112015 0.00115926 0.0011969 0.00123309 0.00126783 0.0013011 0.00133274 0.00136256 0.00139057 0.00141675 0.00144112 0.00146367 0.0014844 0.00150331 0.00152042 0.00153575 0.0015493 0.00156106 0.00157104 0.00157923 0.00158564 0.00159027 0.00159323 0.00159462 0.00159444 0.0015927 0.0015894 0.00158453 0.00157809 0.00157009 0.00156065 0.0015499 0.00153783 0.00152445 0.00150975 0.00149374 0.00147641 0.00145777 0.00143793 0.00141701 0.001395 0.00137191 0.00134774 0.00132249 0.00129615 0.00126873 0.00124036 0.00121116 0.00118115 0.00115031 0.00111864 0.00108615 0.00105284 0.00101871 0.000983952 0.000948768 0.000913159 0.000877123 0.000840663 0.000803776 0.000766464 0.000728726 0.000690893 0.000653297 0.000615938 0.000578816 0.000541931 0.000505282 0.00046887 0.000432694 0.000397253 0.000363044 0.000330067 0.000298321 0.000267807 0.000238525 0.000210475 0.000183657 0.000158476 0.000135338 0.000114244 9.51931e-05 7.81856e-05 6.32215e-05 5.03006e-05 3.94232e-05 3.01834e-05 2.21755e-05 1.53997e-05 9.8558e-06 5.54388e-06 2.46395e-06 6.15987e-07 0 0 1.53476e-06 6.13905e-06 1.38129e-05 2.45562e-05 3.83691e-05 5.52515e-05 7.52034e-05 9.82249e-05 0.000124994 0.000156189 0.00019181 0.000231857 0.00027633 0.000325229 0.000378554 0.000436304 0.000497214 0.000560017 0.000624713 0.000691301 0.000759783 0.000830157 0.000902424 0.000976583 0.00105131 0.00112529 0.0011985 0.00127097 0.00134268 0.00141363 0.00148383 0.00155328 0.00162121 0.00168686 0.00175024 0.00181134 0.00187016 0.00192671 0.00198098 0.00203297 0.00208241 0.00212901 0.00217276 0.00221368 0.00225175 0.00228698 0.00231937 0.00234892 0.00237566 0.00239961 0.00242077 0.00243915 0.00245474 0.00246755 0.00247757 0.0024848 0.00248942 0.00249159 0.00249132 0.0024886 0.00248344 0.00247583 0.00246577 0.00245327 0.00243852 0.00242172 0.00240286 0.00238195 0.00235898 0.00233396 0.00230689 0.00227776 0.00224676 0.00221407 0.00217969 0.00214361 0.00210585 0.00206639 0.00202524 0.00198239 0.00193806 0.00189244 0.00184554 0.00179735 0.00174788 0.00169712 0.00164507 0.00159173 0.00153742 0.00148245 0.00142681 0.00137051 0.00131354 0.0012559 0.0011976 0.00113863 0.00107952 0.00102078 0.000962404 0.0009044 0.000846766 0.000789503 0.000732609 0.000676085 0.000620709 0.000567257 0.000515729 0.000466127 0.000418449 0.000372696 0.000328867 0.000286964 0.000247618 0.000211466 0.000178506 0.000148739 0.000122165 9.87835e-05 7.85948e-05 6.15987e-05 4.71615e-05 3.46493e-05 2.4062e-05 1.53997e-05 8.66232e-06 3.84992e-06 9.6248e-07 0 0 2.21006e-06 8.84024e-06 1.98905e-05 3.5361e-05 5.52515e-05 7.95621e-05 0.000108293 0.000141444 0.000179991 0.000224912 0.000276207 0.000333874 0.000397915 0.00046833 0.000545117 0.000628278 0.000715989 0.000806425 0.000899586 0.000995474 0.00109409 0.00119543 0.00129949 0.00140628 0.00151389 0.00162041 0.00172585 0.0018302 0.00193346 0.00203563 0.00213672 0.00223672 0.00233454 0.00242908 0.00252034 0.00260832 0.00269303 0.00277446 0.00285261 0.00292748 0.00299867 0.00306577 0.00312878 0.00318769 0.00324252 0.00329325 0.0033399 0.00338245 0.00342095 0.00345544 0.00348592 0.00351238 0.00353483 0.00355327 0.0035677 0.00357812 0.00358477 0.00358789 0.0035875 0.00358359 0.00357615 0.00356519 0.00355071 0.00353271 0.00351147 0.00348727 0.00346012 0.00343001 0.00339694 0.00336091 0.00332192 0.00327998 0.00323534 0.00318826 0.00313875 0.0030868 0.00303242 0.0029756 0.00291634 0.00285465 0.00279081 0.00272512 0.00265758 0.00258819 0.00251694 0.00244385 0.0023689 0.0022921 0.00221389 0.00213473 0.00205461 0.00197353 0.00189149 0.0018085 0.00172454 0.00163963 0.00155451 0.00146992 0.00138586 0.00130234 0.00121934 0.00113688 0.00105496 0.000973563 0.00089382 0.00081685 0.00074265 0.000671223 0.000602567 0.000536682 0.000473569 0.000413227 0.00035657 0.000304511 0.000257049 0.000214185 0.000175918 0.000142248 0.000113176 8.87022e-05 6.79126e-05 4.9895e-05 3.46493e-05 2.21755e-05 1.24737e-05 5.54388e-06 1.38597e-06 0 0 3.00814e-06 1.20325e-05 2.70732e-05 4.81302e-05 7.52034e-05 0.000108293 0.000147399 0.000192521 0.000244988 0.000306131 0.000375948 0.00045444 0.000541607 0.000637449 0.000741965 0.000855156 0.00097454 0.00109763 0.00122444 0.00135495 0.00148917 0.00162711 0.00176875 0.0019141 0.00206057 0.00220556 0.00234907 0.0024911 0.00263165 0.00277072 0.00290831 0.00304442 0.00317757 0.00330624 0.00343046 0.00355022 0.00366551 0.00377635 0.00388272 0.00398463 0.00408153 0.00417285 0.00425861 0.0043388 0.00441343 0.00448248 0.00454597 0.00460389 0.00465629 0.00470324 0.00474472 0.00478074 0.0048113 0.0048364 0.00485604 0.00487021 0.00487926 0.00488352 0.00488299 0.00487766 0.00486754 0.00485262 0.00483291 0.00480841 0.0047795 0.00474657 0.00470961 0.00466862 0.00462361 0.00457457 0.0045215 0.00446442 0.00440365 0.00433958 0.00427219 0.00420148 0.00412746 0.00405012 0.00396946 0.00388549 0.0037986 0.00370919 0.00361726 0.00352281 0.00342584 0.00332635 0.00322433 0.0031198 0.00301335 0.0029056 0.00279655 0.00268619 0.00257453 0.00246156 0.00234729 0.00223172 0.00211586 0.00200072 0.00188631 0.00177262 0.00165966 0.00154743 0.00143591 0.00132513 0.00121659 0.00111182 0.00101083 0.000913609 0.00082016 0.000730484 0.00064458 0.000562448 0.000485332 0.000414473 0.000349872 0.000291529 0.000239443 0.000193616 0.000154046 0.000120733 9.24366e-05 6.79126e-05 4.71615e-05 3.01834e-05 1.69781e-05 7.54584e-06 1.88646e-06 0 0 3.92899e-06 1.5716e-05 3.5361e-05 6.28639e-05 9.82249e-05 0.000141444 0.000192521 0.000251456 0.000319985 0.000399844 0.000491034 0.000593554 0.000707405 0.000832586 0.000969097 0.00111694 0.00127287 0.00143364 0.00159926 0.00176973 0.00194504 0.0021252 0.0023102 0.00250005 0.00269136 0.00288073 0.00306817 0.00325368 0.00343726 0.0036189 0.00379861 0.00397639 0.00415029 0.00431836 0.0044806 0.00463702 0.00478761 0.00493237 0.00507131 0.00520441 0.00533097 0.00545026 0.00556227 0.00566701 0.00576448 0.00585467 0.00593759 0.00601324 0.00608169 0.006143 0.00619718 0.00624423 0.00628415 0.00631693 0.00634258 0.0063611 0.00637292 0.00637848 0.00637778 0.00637082 0.0063576 0.00633812 0.00631238 0.00628038 0.00624262 0.0061996 0.00615132 0.00609779 0.006039 0.00597495 0.00590564 0.00583107 0.00575171 0.00566802 0.00558 0.00548765 0.00539096 0.00528995 0.0051846 0.00507493 0.00496144 0.00484466 0.00472459 0.00460122 0.00447456 0.00434461 0.00421137 0.00407484 0.00393581 0.00379507 0.00365263 0.00350849 0.00336265 0.0032151 0.00306585 0.0029149 0.00276357 0.00261319 0.00246375 0.00231526 0.00216772 0.00202113 0.00187548 0.00173078 0.00158901 0.00145218 0.00132027 0.00119328 0.00107123 0.000954101 0.0008419 0.000734627 0.000633903 0.000541353 0.000456976 0.000380773 0.000312743 0.000252886 0.000201203 0.000157693 0.000120733 8.87022e-05 6.15987e-05 3.94232e-05 2.21755e-05 9.8558e-06 2.46395e-06 0 0 5.00369e-06 2.00148e-05 4.50332e-05 8.00591e-05 0.000125092 0.000180133 0.000245181 0.000320236 0.000407445 0.000508952 0.000624757 0.000754861 0.000899263 0.00105796 0.00123096 0.00141826 0.00161576 0.00181936 0.00202905 0.00224485 0.00246675 0.00269475 0.00292885 0.00316905 0.00341108 0.00365066 0.0038878 0.0041225 0.00435476 0.00458457 0.00481194 0.00503686 0.00525689 0.00546955 0.00567484 0.00587277 0.00606334 0.00624655 0.00642239 0.00659087 0.00675107 0.00690207 0.00704387 0.00717648 0.00729989 0.00741411 0.00751913 0.00761495 0.00770167 0.00777935 0.00784801 0.00790764 0.00795824 0.00799982 0.00803237 0.0080559 0.00807094 0.00807806 0.00807725 0.00806851 0.00805185 0.00802725 0.00799473 0.00795428 0.00790653 0.00785213 0.00779106 0.00772333 0.00764894 0.00756789 0.00748017 0.0073858 0.00728535 0.00717942 0.007068 0.0069511 0.00682871 0.00670084 0.00656748 0.00642864 0.00628497 0.00613713 0.00598513 0.00582896 0.00566863 0.00550413 0.00533546 0.00516263 0.00498664 0.00480849 0.00462819 0.00444575 0.00426114 0.00407439 0.00388549 0.00369443 0.00350289 0.00331255 0.00312341 0.00293546 0.00274871 0.00256315 0.00237879 0.00219563 0.00201616 0.00184292 0.00167588 0.00151505 0.00136044 0.00121204 0.00106985 0.000933876 0.000806167 0.000688779 0.000581712 0.000484967 0.000398542 0.00032244 0.000256658 0.000201198 0.000154042 0.000113174 7.8593e-05 5.02995e-05 2.82935e-05 1.25749e-05 3.14372e-06 0 0 6.26329e-06 2.50532e-05 5.63696e-05 0.000100213 0.000156582 0.000225478 0.000306901 0.000400851 0.000509832 0.000636351 0.000780408 0.000942003 0.00112113 0.0013178 0.00153201 0.00176376 0.00200799 0.00225967 0.00251879 0.00278535 0.00305935 0.00334079 0.00362968 0.00392601 0.00422455 0.00452008 0.00481261 0.00510212 0.00538863 0.00567213 0.00595261 0.00623009 0.00650153 0.00676392 0.00701725 0.00726152 0.00749673 0.00772288 0.00793998 0.00814802 0.00834586 0.00853237 0.00870755 0.0088714 0.00902391 0.0091651 0.00929495 0.00941347 0.00952076 0.0096169 0.0097019 0.00977575 0.00983847 0.00989004 0.00993046 0.00995975 0.00997856 0.00998757 0.00998678 0.00997619 0.00995579 0.0099256 0.0098856 0.0098358 0.00977697 0.00970991 0.0096346 0.00955105 0.00945926 0.00935923 0.00925096 0.00913444 0.00901042 0.00887961 0.00874201 0.00859764 0.00844648 0.00828854 0.00812381 0.00795231 0.00777484 0.00759223 0.00740447 0.00721158 0.00701354 0.00681036 0.00660204 0.00638858 0.00617122 0.00595121 0.00572856 0.00550326 0.0052753 0.0050447 0.00481145 0.00457556 0.00433907 0.00410405 0.0038705 0.00363842 0.0034078 0.00317866 0.00295099 0.00272478 0.00250311 0.00228904 0.00208258 0.00188372 0.00169246 0.00150881 0.00133276 0.00116431 0.00100601 0.000860381 0.000727432 0.000607162 0.000499571 0.000404658 0.000322423 0.000252867 0.000193602 0.000142238 9.87763e-05 6.32168e-05 3.55595e-05 1.58042e-05 3.95105e-06 0 0 7.70779e-06 3.08312e-05 6.93701e-05 0.000123325 0.000192695 0.00027748 0.000377682 0.000493298 0.000627147 0.000782043 0.000957988 0.00115498 0.00137302 0.00161211 0.00187224 0.00215343 0.00244957 0.00275458 0.00306846 0.00339122 0.00372284 0.00406333 0.00441269 0.00477093 0.00513178 0.005489 0.00584259 0.00619255 0.00653887 0.00688157 0.00722064 0.00755607 0.00788423 0.00820149 0.00850783 0.00880326 0.00908778 0.00936138 0.00962408 0.00987586 0.0101154 0.0103412 0.0105533 0.0107518 0.0109365 0.0111076 0.0112651 0.0114088 0.011539 0.0116556 0.0117588 0.0118486 0.0119248 0.0119876 0.0120369 0.0120727 0.0120958 0.012107 0.0121064 0.0120938 0.0120694 0.0120332 0.011985 0.0119249 0.0118539 0.0117729 0.011682 0.011581 0.01147 0.011349 0.011218 0.011077 0.0109269 0.0107686 0.010602 0.0104273 0.0102443 0.010053 0.0098536 0.00964593 0.00943105 0.00920994 0.00898261 0.00874907 0.0085093 0.00826332 0.00801111 0.00775269 0.00748956 0.00722324 0.00695373 0.00668102 0.00640513 0.00612604 0.00584376 0.00555828 0.0052721 0.00498768 0.00470502 0.00442413 0.00414501 0.00386766 0.00359206 0.00331824 0.00304985 0.00279056 0.00254037 0.00229928 0.00206729 0.0018444 0.00163062 0.00142594 0.00123342 0.00105616 0.000894137 0.00074736 0.000615828 0.000499541 0.000398499 0.000312701 0.000239412 0.000175894 0.000122149 7.81752e-05 4.39736e-05 1.95438e-05 4.88595e-06 0 0 9.33718e-06 3.73487e-05 8.40347e-05 0.000149395 0.00023343 0.000336139 0.000457522 0.00059758 0.000759389 0.000946028 0.0011575 0.00139379 0.00165492 0.00194087 0.00225166 0.00258727 0.00294049 0.0033041 0.00367809 0.00406246 0.00445722 0.00486237 0.00527789 0.00570381 0.00613276 0.0065574 0.00697774 0.00739377 0.00780549 0.0082129 0.00861601 0.0090148 0.00940498 0.00978224 0.0101466 0.010498 0.0108365 0.011162 0.0114747 0.0117744 0.0120595 0.0123285 0.0125811 0.0128176 0.0130377 0.0132417 0.0134294 0.0136009 0.0137563 0.0138956 0.0140189 0.0141261 0.0142173 0.0142924 0.0143515 0.0143946 0.0144226 0.0144364 0.014436 0.0144215 0.0143928 0.0143499 0.0142929 0.0142217 0.0141374 0.0140412 0.0139331 0.0138131 0.0136811 0.0135371 0.0133813 0.0132135 0.0130348 0.0128463 0.0126481 0.01244 0.0122221 0.0119944 0.0117568 0.0115095 0.0112536 0.0109903 0.0107195 0.0104414 0.0101559 0.00986299 0.00956268 0.00925496 0.00894166 0.00862457 0.0083037 0.00797905 0.00765061 0.00731839 0.00698239 0.00664261 0.00630198 0.00596344 0.00562698 0.00529261 0.00496033 0.00463013 0.00430203 0.003976 0.00365638 0.00334746 0.00304924 0.00276173 0.00248493 0.00221883 0.00196343 0.00171874 0.00148842 0.00127611 0.00108183 0.000905559 0.000747314 0.000607088 0.000484883 0.000380699 0.000291472 0.000214143 0.00014871 9.51747e-05 5.35357e-05 2.37937e-05 5.94842e-06 0 0 1.11515e-05 4.46059e-05 0.000100363 0.000178424 0.000278787 0.000401453 0.000546423 0.000713695 0.000906559 0.00112831 0.00137893 0.00165844 0.00196683 0.0023041 0.00267026 0.00306529 0.00348076 0.00390821 0.00434766 0.00479908 0.0052625 0.0057379 0.00622528 0.00672465 0.0072275 0.0077253 0.00821807 0.00870579 0.00918848 0.00966612 0.0101387 0.0106063 0.0110638 0.0115062 0.0119335 0.0123457 0.0127428 0.0131249 0.0134918 0.0138436 0.0141784 0.0144942 0.014791 0.0150688 0.0153276 0.0155673 0.0157881 0.0159899 0.0161727 0.0163367 0.0164819 0.0166083 0.0167159 0.0168046 0.0168745 0.0169256 0.016959 0.0169757 0.0169757 0.0169591 0.0169258 0.0168759 0.0168093 0.016726 0.0166274 0.0165148 0.0163881 0.0162474 0.0160926 0.0159237 0.0157408 0.0155439 0.0153342 0.0151129 0.0148801 0.0146358 0.0143799 0.0141125 0.0138335 0.0135431 0.0132425 0.0129332 0.0126153 0.0122887 0.0119534 0.0116094 0.0112567 0.0108954 0.0105275 0.0101552 0.00977848 0.00939733 0.00901176 0.00862178 0.00822737 0.00782854 0.00742872 0.00703133 0.00663638 0.00624385 0.00585376 0.0054661 0.00508087 0.00469808 0.0043227 0.00395975 0.00360921 0.00327108 0.00294537 0.00263208 0.0023312 0.00204274 0.00177099 0.00152024 0.0012905 0.00108176 0.000894028 0.000727301 0.000581578 0.000456861 0.000349784 0.000256984 0.000178461 0.000114215 6.4246e-05 2.85538e-05 7.13845e-06 0 0 1.31507e-05 5.26027e-05 0.000118356 0.000210411 0.000328767 0.000473424 0.000644383 0.000841643 0.00106866 0.00132887 0.0016223 0.00194893 0.00230876 0.0027018 0.00312804 0.00358748 0.00407037 0.00456693 0.00507717 0.00560108 0.00613866 0.00668992 0.00725485 0.00783346 0.00841599 0.00899269 0.00956357 0.0101286 0.0106878 0.0112412 0.0117888 0.0123305 0.0128606 0.0133733 0.0138686 0.0143464 0.0148069 0.0152499 0.0156754 0.0160836 0.016472 0.0168385 0.017183 0.0175055 0.017806 0.0180845 0.018341 0.0185756 0.0187882 0.0189791 0.0191481 0.0192952 0.0194206 0.0195241 0.0196058 0.0196657 0.019705 0.0197249 0.0197255 0.0197067 0.0196686 0.0196111 0.0195342 0.019438 0.019324 0.0191936 0.0190469 0.0188838 0.0187044 0.0185087 0.0182966 0.0180682 0.0178249 0.0175682 0.0172981 0.0170146 0.0167177 0.0164074 0.0160837 0.0157466 0.0153977 0.0150388 0.0146698 0.0142908 0.0139017 0.0135025 0.0130933 0.012674 0.0122471 0.0118151 0.0113781 0.0109359 0.0104886 0.0100362 0.00957868 0.00911607 0.00865231 0.00819136 0.0077332 0.00727785 0.0068253 0.00637555 0.0059286 0.00548445 0.00504882 0.00462743 0.00422026 0.00382733 0.00344863 0.00308416 0.00273392 0.00239792 0.00208113 0.00178854 0.00152015 0.00127596 0.00105597 0.000860177 0.000688583 0.000541187 0.000414346 0.000304417 0.000211401 0.000135297 7.61044e-05 3.38242e-05 8.45604e-06 0 0 1.53348e-05 6.13391e-05 0.000138013 0.000245356 0.000383369 0.000552052 0.000751404 0.000981425 0.00124568 0.00154774 0.00188759 0.00226524 0.0026807 0.00313395 0.003625 0.00415385 0.00470933 0.00528025 0.00586663 0.00646845 0.00708572 0.00771844 0.00836661 0.00903023 0.00969824 0.0103596 0.0110142 0.0116622 0.0123036 0.0129382 0.0135662 0.0141875 0.0147955 0.0153836 0.0159518 0.0165001 0.0170285 0.017537 0.0180256 0.0184942 0.0189403 0.0193613 0.019757 0.0201276 0.020473 0.0207932 0.0210883 0.0213581 0.0216029 0.0218226 0.0220172 0.0221869 0.0223314 0.0224509 0.0225454 0.0226148 0.0226605 0.022684 0.0226853 0.0226643 0.022621 0.0225555 0.0224677 0.0223576 0.0222271 0.0220777 0.0219095 0.0217225 0.0215167 0.0212921 0.0210487 0.0207864 0.0205071 0.0202123 0.0199022 0.0195766 0.0192356 0.0188791 0.0185073 0.01812 0.0177193 0.017307 0.0168831 0.0164478 0.0160008 0.0155423 0.0150723 0.0145907 0.0141005 0.0136044 0.0131024 0.0125947 0.0120811 0.0115616 0.0110363 0.0105052 0.00997276 0.00944352 0.00891747 0.00839461 0.00787495 0.00735848 0.00684521 0.00633514 0.00583474 0.00535049 0.0048824 0.00443047 0.00399469 0.00357507 0.0031716 0.00278429 0.00241886 0.00208102 0.0017708 0.00148817 0.00123314 0.00100572 0.000805897 0.000633677 0.000485159 0.000356443 0.00024753 0.000158419 8.91108e-05 3.96048e-05 9.9012e-06 0 0 1.77038e-05 7.08151e-05 0.000159334 0.00028326 0.000442594 0.000637336 0.000867484 0.00113304 0.00143763 0.00178489 0.00217481 0.0026074 0.00308265 0.00360057 0.00416115 0.00476439 0.00539763 0.00604817 0.00671603 0.00740119 0.00810367 0.00882346 0.00956056 0.010315 0.0110742 0.011826 0.0125701 0.0133067 0.0140357 0.0147571 0.015471 0.0161773 0.0168685 0.0175372 0.0181833 0.0188068 0.0194079 0.0199863 0.0205422 0.0210756 0.0215833 0.0220625 0.0225131 0.0229352 0.0233286 0.0236935 0.0240298 0.0243375 0.0246166 0.0248673 0.0250895 0.0252832 0.0254484 0.0255851 0.0256933 0.025773 0.0258257 0.0258531 0.0258552 0.0258318 0.0257831 0.0257091 0.0256096 0.0254848 0.0253366 0.025167 0.0249759 0.0247633 0.0245293 0.0242739 0.0239969 0.0236986 0.0233807 0.0230453 0.0226922 0.0223216 0.0219334 0.0215277 0.0211044 0.0206634 0.0202072 0.0197378 0.0192553 0.0187596 0.0182508 0.0177289 0.0171938 0.0166457 0.0160876 0.0155229 0.0149516 0.0143737 0.0137892 0.0131981 0.0126003 0.0119959 0.0113901 0.0107878 0.0101892 0.00959413 0.00900271 0.0084149 0.00783071 0.00725013 0.00668044 0.00612894 0.00559563 0.0050805 0.00458356 0.0041048 0.00364423 0.00320184 0.00278415 0.00239768 0.00204242 0.00171837 0.00142554 0.00116392 0.000933521 0.000734331 0.000562222 0.000413061 0.000286848 0.000183583 0.000103265 4.58957e-05 1.14739e-05 0 0 2.02105e-05 8.08418e-05 0.000181894 0.000323367 0.000505261 0.000727576 0.000990312 0.00129347 0.00164069 0.00203563 0.00247829 0.00296866 0.00350675 0.00409255 0.00472607 0.0054073 0.006122 0.00685591 0.00760904 0.00838138 0.00917293 0.00998369 0.0108137 0.0116629 0.0125174 0.0133634 0.014201 0.01503 0.0158505 0.0166624 0.0174659 0.0182608 0.0190389 0.0197916 0.0205191 0.0212212 0.021898 0.0225495 0.0231757 0.0237766 0.0243488 0.0248889 0.0253968 0.0258726 0.0263163 0.0267279 0.0271073 0.0274546 0.0277698 0.028053 0.028304 0.0285229 0.0287097 0.0288645 0.0289871 0.0290777 0.0291379 0.0291695 0.0291724 0.0291468 0.0290925 0.0290096 0.0288981 0.028758 0.0285915 0.0284007 0.0281857 0.0279465 0.0276831 0.0273954 0.0270836 0.0267475 0.0263893 0.0260114 0.0256136 0.025196 0.0247585 0.0243013 0.0238241 0.0233272 0.0228129 0.0222839 0.02174 0.0211814 0.020608 0.0200198 0.0194168 0.018799 0.0181701 0.0175338 0.0168901 0.0162389 0.0155803 0.0149143 0.0142408 0.0135599 0.0128774 0.0121988 0.0115243 0.0108539 0.0101874 0.00952507 0.00886672 0.00821242 0.00757027 0.00694839 0.00634679 0.00576547 0.00520441 0.00466363 0.00414313 0.0036429 0.00317029 0.00273265 0.00232999 0.0019623 0.00162958 0.00133184 0.00106906 0.00084126 0.00064409 0.000473209 0.000328617 0.000210315 0.000118302 5.25788e-05 1.31447e-05 0 0 2.28076e-05 9.12306e-05 0.000205269 0.000364922 0.000570191 0.000821075 0.00111757 0.00145969 0.00185104 0.00229527 0.00279235 0.00334231 0.00394512 0.00460081 0.00530936 0.00607077 0.00686918 0.00768869 0.00852932 0.00939106 0.0102739 0.0111779 0.0121029 0.0130491 0.0140011 0.0149436 0.0158767 0.0168002 0.0177142 0.0186188 0.0195138 0.0203994 0.0212662 0.0221048 0.0229154 0.0236978 0.0244522 0.0251784 0.0258765 0.0265465 0.0271846 0.027787 0.0283536 0.0288845 0.0293796 0.029839 0.0302627 0.0306506 0.0310028 0.0313192 0.0315999 0.0318447 0.0320538 0.0322272 0.0323647 0.0324665 0.0325345 0.0325705 0.0325745 0.0325466 0.0324867 0.0323949 0.0322711 0.0321154 0.0319302 0.0317179 0.0314786 0.0312122 0.0309187 0.0305982 0.0302506 0.0298759 0.0294766 0.0290552 0.0286117 0.0281459 0.0276581 0.0271481 0.0266159 0.0260616 0.025488 0.0248979 0.0242913 0.0236683 0.0230287 0.0223727 0.0217002 0.0210112 0.0203098 0.0196002 0.0188823 0.0181561 0.0174217 0.016679 0.0159281 0.0151689 0.0144078 0.0136512 0.012899 0.0121513 0.011408 0.0106692 0.00993489 0.00920501 0.00848854 0.00779445 0.00712273 0.00647339 0.00584642 0.00524183 0.00465961 0.00409977 0.00357052 0.00308009 0.00262847 0.00221566 0.00184167 0.00150649 0.00121013 0.000952576 0.000729316 0.000535824 0.0003721 0.000238144 0.000133956 5.9536e-05 1.4884e-05 0 0 2.54953e-05 0.000101981 0.000229458 0.000407925 0.000637383 0.000917832 0.00124927 0.0016317 0.00206868 0.00256378 0.003117 0.00372833 0.00439777 0.00512533 0.00591101 0.0067548 0.00763916 0.00854651 0.00947688 0.0104302 0.0114066 0.012406 0.0134284 0.0144738 0.0155254 0.0165666 0.0175972 0.0186173 0.019627 0.0206261 0.0216148 0.0225929 0.0235503 0.0244767 0.0253722 0.0262368 0.0270703 0.0278729 0.0286446 0.0293852 0.0300907 0.0307568 0.0313834 0.0319707 0.0325185 0.0330269 0.0334959 0.0339254 0.0343155 0.0346661 0.0349771 0.0352487 0.0354807 0.0356731 0.0358261 0.0359395 0.0360154 0.0360561 0.0360613 0.0360312 0.0359657 0.0358649 0.0357287 0.0355571 0.0353529 0.0351187 0.0348545 0.0345603 0.0342362 0.033882 0.033498 0.0330839 0.0326425 0.0321767 0.0316863 0.0311715 0.0306321 0.0300681 0.0294797 0.0288667 0.0282324 0.0275799 0.0269091 0.0262201 0.0255129 0.0247875 0.0240439 0.0232821 0.0225066 0.0217219 0.0209282 0.0201254 0.0193134 0.0184923 0.0176621 0.0168228 0.0159814 0.0151449 0.0143132 0.0134864 0.0126645 0.0118474 0.0110352 0.0102279 0.00943526 0.00866711 0.00792345 0.00720427 0.00650959 0.00583939 0.00519368 0.00457246 0.00398486 0.00343999 0.00293786 0.00247846 0.00206181 0.00168789 0.00135672 0.00106828 0.0008179 0.000600906 0.000417296 0.000267069 0.000150227 6.67674e-05 1.66918e-05 0 0 2.82735e-05 0.000113094 0.000254462 0.000452376 0.000706838 0.00101785 0.0013854 0.0018095 0.00229361 0.00284119 0.00345223 0.00412673 0.0048647 0.00566613 0.00653103 0.00745939 0.00843194 0.00942937 0.0104517 0.0114989 0.012571 0.0136681 0.01479 0.0159368 0.0170903 0.0182322 0.0193626 0.0204814 0.0215887 0.0226845 0.0237687 0.0248413 0.0258913 0.0269074 0.0278896 0.028838 0.0297525 0.0306331 0.0314799 0.0322928 0.0330671 0.0337983 0.0344864 0.0351313 0.035733 0.0362915 0.0368069 0.0372791 0.037708 0.0380936 0.0384358 0.0387347 0.0389902 0.0392023 0.0393711 0.0394965 0.0395808 0.0396263 0.0396329 0.0396006 0.0395295 0.0394195 0.0392707 0.0390831 0.0388595 0.0386029 0.0383134 0.0379909 0.0376355 0.0372471 0.0368257 0.0363714 0.0358871 0.0353759 0.0348377 0.0342726 0.0336805 0.0330614 0.0324155 0.0317425 0.0310461 0.0303298 0.0295934 0.028837 0.0280607 0.0272643 0.026448 0.0256117 0.0247604 0.0238991 0.0230279 0.0221466 0.0212554 0.0203541 0.0194429 0.0185217 0.0175982 0.0166799 0.0157669 0.0148592 0.0139567 0.0130596 0.0121677 0.0112811 0.0104104 0.00956637 0.00874894 0.00795812 0.00719391 0.00645632 0.00574534 0.00506097 0.00441328 0.00381234 0.00325815 0.0027507 0.00229 0.00187604 0.00150883 0.00118837 0.000909842 0.000668456 0.000464205 0.000297091 0.000167114 7.42729e-05 1.85682e-05 0 0 3.11422e-05 0.000124569 0.00028028 0.000498275 0.000778555 0.00112112 0.00152597 0.0019931 0.00252583 0.00312748 0.00379804 0.00453751 0.0053459 0.0062232 0.00716941 0.00818454 0.00924752 0.0103373 0.0114538 0.0125971 0.0137672 0.0149641 0.0161877 0.0174381 0.0186957 0.0199405 0.0211728 0.0223924 0.0235994 0.0247938 0.0259756 0.0271447 0.0282892 0.0293968 0.0304675 0.0315015 0.0324986 0.0334589 0.0343824 0.0352691 0.0361138 0.0369116 0.0376624 0.0383662 0.039023 0.0396328 0.0401957 0.0407115 0.0411803 0.0416017 0.0419759 0.0423028 0.0425824 0.0428148 0.0429998 0.0431376 0.0432306 0.0432811 0.0432892 0.0432549 0.0431781 0.0430589 0.0428973 0.0426933 0.04245 0.0421707 0.0418554 0.0415041 0.0411167 0.0406933 0.0402339 0.0397385 0.0392103 0.0386527 0.0380657 0.0374492 0.0368033 0.036128 0.0354232 0.034689 0.0339292 0.0331476 0.0323442 0.031519 0.030672 0.0298031 0.0289125 0.0280001 0.0270714 0.0261318 0.0251813 0.0242199 0.0232476 0.0222645 0.0212704 0.0202655 0.019258 0.0182562 0.0172601 0.0162696 0.0152848 0.0143057 0.0133323 0.0123646 0.011414 0.0104922 0.0095992 0.00873492 0.00789939 0.00709261 0.00631458 0.0055653 0.00485581 0.00419716 0.00358935 0.00303237 0.00252623 0.00207093 0.00166647 0.00131284 0.00100514 0.000738472 0.000512828 0.00032821 0.000184618 8.20525e-05 2.05131e-05 0 0 3.41014e-05 0.000136405 0.000306912 0.000545622 0.000852534 0.00122765 0.00167097 0.00218249 0.00276534 0.00342266 0.00415443 0.00496067 0.00584137 0.00679654 0.00782617 0.00893025 0.0100859 0.0112702 0.0124832 0.0137248 0.0149951 0.016294 0.0176216 0.0189779 0.0203416 0.0216916 0.0230278 0.0243504 0.02565