<?xml version="1.0"?> 
<VTKFile type="StructuredGrid" version="0.1"> 
<StructuredGrid WholeExtent="0 128 0 128 0 0"> 
<Piece Extent="0 128 0 128 0 0"> 
<PointData>
<DataArray type="Float32" Name="u" format="ascii" NumberOfComponents="1"> 
0 0 0 0 0 0 0 0 0 0 0 0 0 0 0 0 0 0 0 0 0 0 0 0 0 0 0 0 0 0 0 0 0 0 0 0 0 0 0 0 0 0 0 0 0 0 0 0 0 0 0 0 0 0 0 0 0 0 0 0 0 0 0 0 0 0 0 0 0 0 0 0 0 0 0 0 0 0 0 0 0 0 0 0 0 0 0 0 0 0 0 0 0 0 0 0 0 0 0 0 0 0 0 0 0 0 0 0 0 0 0 0 0 0 0 0 0 0 0 0 0 0 0 0 0 0 0 0 0 0 6.29219e-08 2.51688e-07 5.66297e-07 1.00675e-06 1.57305e-06 2.26519e-06 3.08317e-06 4.027e-06 5.12341e-06 6.39912e-06 7.85415e-06 9.48848e-06 1.13021e-05 1.32951e-05 1.54673e-05 1.78189e-05 2.02932e-05 2.28335e-05 2.544e-05 2.81125e-05 3.08512e-05 3.36559e-05 3.65267e-05 3.94635e-05 4.24096e-05 4.5308e-05 4.81587e-05 5.09617e-05 5.37169e-05 5.64245e-05 5.90844e-05 6.16965e-05 6.42331e-05 6.66661e-05 6.89955e-05 7.12214e-05 7.33437e-05 7.53624e-05 7.72776e-05 7.90892e-05 8.07937e-05 8.23873e-05 8.38702e-05 8.52422e-05 8.65035e-05 8.7654e-05 8.86937e-05 8.96226e-05 9.04503e-05 9.11862e-05 9.18305e-05 9.23831e-05 9.2844e-05 9.32132e-05 9.34908e-05 9.36766e-05 9.3782e-05 9.38181e-05 9.3785e-05 9.36826e-05 9.35109e-05 9.327e-05 9.29598e-05 9.25803e-05 9.2137e-05 9.16354e-05 9.10753e-05 9.04569e-05 8.97801e-05 8.90449e-05 8.82513e-05 8.73993e-05 8.64879e-05 8.5516e-05 8.44837e-05 8.33909e-05 8.22376e-05 8.10239e-05 7.97497e-05 7.8415e-05 7.70178e-05 7.55563e-05 7.40303e-05 7.24399e-05 7.0785e-05 6.90657e-05 6.7282e-05 6.54338e-05 6.3527e-05 6.15672e-05 5.95545e-05 5.74888e-05 5.53702e-05 5.31987e-05 5.09742e-05 4.86968e-05 4.63878e-05 4.40685e-05 4.17389e-05 3.93991e-05 3.70489e-05 3.46885e-05 3.23178e-05 2.99369e-05 2.75852e-05 2.53023e-05 2.30883e-05 2.0943e-05 1.88667e-05 1.68591e-05 1.49204e-05 1.30505e-05 1.12851e-05 9.65998e-06 8.17509e-06 6.83044e-06 5.62604e-06 4.56187e-06 3.63794e-06 2.85426e-06 2.18529e-06 1.60552e-06 1.11495e-06 7.13565e-07 4.0138e-07 1.78391e-07 4.45978e-08 0 0 2.51688e-07 1.00675e-06 2.26519e-06 4.027e-06 6.29219e-06 9.06076e-06 1.23327e-05 1.6108e-05 2.04936e-05 2.55965e-05 3.14166e-05 3.79539e-05 4.52085e-05 5.31803e-05 6.18694e-05 7.12757e-05 8.11728e-05 9.13342e-05 0.00010176 0.00011245 0.000123405 0.000134623 0.000146107 0.000157854 0.000169638 0.000181232 0.000192635 0.000203847 0.000214868 0.000225698 0.000236338 0.000246786 0.000256932 0.000266664 0.000275982 0.000284885 0.000293375 0.00030145 0.00030911 0.000316357 0.000323175 0.000329549 0.000335481 0.000340969 0.000346014 0.000350616 0.000354775 0.00035849 0.000361801 0.000364745 0.000367322 0.000369532 0.000371376 0.000372853 0.000373963 0.000374707 0.000375128 0.000375273 0.00037514 0.00037473 0.000374044 0.00037308 0.000371839 0.000370321 0.000368548 0.000366541 0.000364301 0.000361828 0.00035912 0.000356179 0.000353005 0.000349597 0.000345952 0.000342064 0.000337935 0.000333564 0.00032895 0.000324096 0.000318999 0.00031366 0.000308071 0.000302225 0.000296121 0.000289759 0.00028314 0.000276263 0.000269128 0.000261735 0.000254108 0.000246269 0.000238218 0.000229955 0.000221481 0.000212795 0.000203897 0.000194787 0.000185551 0.000176274 0.000166956 0.000157596 0.000148196 0.000138754 0.000129271 0.000119747 0.000110341 0.000101209 9.2353e-05 8.37722e-05 7.54667e-05 6.74364e-05 5.96815e-05 5.22019e-05 4.51404e-05 3.86399e-05 3.27004e-05 2.73218e-05 2.25041e-05 1.82475e-05 1.45518e-05 1.1417e-05 8.74117e-06 6.42208e-06 4.45978e-06 2.85426e-06 1.60552e-06 7.13565e-07 1.78391e-07 0 0 5.66297e-07 2.26519e-06 5.09667e-06 9.06076e-06 1.41574e-05 2.03867e-05 2.77486e-05 3.6243e-05 4.61107e-05 5.75921e-05 7.06873e-05 8.53963e-05 0.000101719 0.000119656 0.000139206 0.00016037 0.000182639 0.000205502 0.00022896 0.000253013 0.00027766 0.000302903 0.00032874 0.000355172 0.000381687 0.000407772 0.000433428 0.000458655 0.000483452 0.000507821 0.000531759 0.000555269 0.000578098 0.000599995 0.000620959 0.000640992 0.000660093 0.000678262 0.000695498 0.000711803 0.000727143 0.000741486 0.000754832 0.00076718 0.000778532 0.000788886 0.000798243 0.000806603 0.000814052 0.000820676 0.000826475 0.000831448 0.000835596 0.000838919 0.000841417 0.00084309 0.000844038 0.000844363 0.000844065 0.000843143 0.000841598 0.00083943 0.000836638 0.000833223 0.000829233 0.000824718 0.000819678 0.000814112 0.000808021 0.000801404 0.000794261 0.000786594 0.000778391 0.000769644 0.000760353 0.000750518 0.000740139 0.000729215 0.000717747 0.000705735 0.000693161 0.000680007 0.000666273 0.000651959 0.000637065 0.000621591 0.000605538 0.000588904 0.000571743 0.000554105 0.00053599 0.000517399 0.000498332 0.000478788 0.000458768 0.000438271 0.00041749 0.000396616 0.00037565 0.000354592 0.00033344 0.000312197 0.00029086 0.000269432 0.000248266 0.000227721 0.000207794 0.000188487 0.0001698 0.000151732 0.000134283 0.000117454 0.000101566 8.69398e-05 7.35758e-05 6.1474e-05 5.06343e-05 4.10568e-05 3.27415e-05 2.56883e-05 1.96676e-05 1.44497e-05 1.00345e-05 6.42208e-06 3.61242e-06 1.60552e-06 4.0138e-07 0 0 1.00675e-06 4.027e-06 9.06076e-06 1.6108e-05 2.51688e-05 3.6243e-05 4.93308e-05 6.4432e-05 8.19745e-05 0.000102386 0.000125666 0.000151816 0.000180834 0.000212721 0.000247478 0.000285103 0.000324691 0.000365337 0.00040704 0.0004498 0.000493618 0.000538494 0.000584427 0.000631417 0.000678554 0.000724928 0.000770539 0.000815386 0.000859471 0.000902792 0.00094535 0.000987145 0.00102773 0.00106666 0.00110393 0.00113954 0.0011735 0.0012058 0.00123644 0.00126543 0.0012927 0.0013182 0.00134192 0.00136388 0.00138406 0.00140246 0.0014191 0.00143396 0.0014472 0.00145898 0.00146929 0.00147813 0.0014855 0.00149141 0.00149585 0.00149883 0.00150051 0.00150109 0.00150056 0.00149892 0.00149617 0.00149232 0.00148736 0.00148129 0.00147419 0.00146617 0.00145721 0.00144731 0.00143648 0.00142472 0.00141202 0.00139839 0.00138381 0.00136826 0.00135174 0.00133425 0.0013158 0.00129638 0.00127599 0.00125464 0.00123229 0.0012089 0.00118448 0.00115904 0.00113256 0.00110505 0.00107651 0.00104694 0.00101643 0.000985075 0.000952872 0.000919821 0.000885924 0.000851179 0.000815588 0.000779149 0.000742205 0.000705096 0.000667823 0.000630385 0.000592783 0.000555016 0.000517085 0.00047899 0.000441363 0.000404837 0.000369412 0.000335089 0.000301867 0.000269746 0.000238726 0.000208808 0.000180562 0.00015456 0.000130801 0.000109287 9.00166e-05 7.29899e-05 5.82071e-05 4.56681e-05 3.49647e-05 2.56883e-05 1.78391e-05 1.1417e-05 6.42208e-06 2.85426e-06 7.13565e-07 0 0 1.57305e-06 6.29219e-06 1.41574e-05 2.51688e-05 3.93262e-05 5.66297e-05 7.70793e-05 0.000100675 0.000128085 0.000159978 0.000196354 0.000237212 0.000282553 0.000332377 0.000386684 0.000445473 0.00050733 0.000570839 0.000636 0.000702813 0.000771279 0.000841397 0.000913166 0.000986589 0.00106024 0.0011327 0.00120397 0.00127404 0.00134292 0.00141061 0.00147711 0.00154241 0.00160583 0.00166665 0.00172489 0.00178053 0.00183359 0.00188406 0.00193194 0.00197723 0.00201984 0.00205968 0.00209675 0.00213106 0.00216259 0.00219135 0.00221734 0.00224056 0.00226126 0.00227966 0.00229576 0.00230958 0.0023211 0.00233033 0.00233727 0.00234192 0.00234455 0.00234545 0.00234462 0.00234206 0.00233777 0.00233175 0.00232399 0.00231451 0.00230343 0.00229088 0.00227688 0.00226142 0.0022445 0.00222612 0.00220628 0.00218498 0.0021622 0.0021379 0.00211209 0.00208477 0.00205594 0.0020256 0.00199374 0.00196037 0.00192545 0.00188891 0.00185076 0.001811 0.00176962 0.00172664 0.00168205 0.00163585 0.00158817 0.00153918 0.00148886 0.00143722 0.00138426 0.00132997 0.00127436 0.00121742 0.00115969 0.00110171 0.00104347 0.000984976 0.000926223 0.000867213 0.000807946 0.000748421 0.000689629 0.000632557 0.000577206 0.000523576 0.000471667 0.000421478 0.000373009 0.000326262 0.000282128 0.000241499 0.000204377 0.000170761 0.000140651 0.000114047 9.09486e-05 7.13565e-05 5.46323e-05 4.0138e-05 2.78736e-05 1.78391e-05 1.00345e-05 4.45978e-06 1.11495e-06 0 0 2.26519e-06 9.06076e-06 2.03867e-05 3.6243e-05 5.66297e-05 8.15468e-05 0.000110994 0.000144972 0.000184443 0.000230368 0.000282749 0.000341585 0.000406877 0.000478623 0.000556824 0.000641481 0.000730555 0.000822008 0.00091584 0.00101205 0.00111064 0.00121161 0.00131496 0.00142069 0.00152675 0.00163109 0.00173371 0.00183462 0.00193381 0.00203128 0.00212704 0.00222108 0.00231239 0.00239998 0.00248384 0.00256397 0.00264037 0.00271305 0.00278199 0.00284721 0.00290857 0.00296594 0.00301933 0.00306872 0.00311413 0.00315554 0.00319297 0.00322641 0.00325621 0.0032827 0.0033059 0.00332579 0.00334238 0.00335568 0.00336567 0.00337236 0.00337615 0.00337745 0.00337626 0.00337257 0.00336639 0.00335772 0.00334655 0.00333289 0.00331693 0.00329887 0.00327871 0.00325645 0.00323208 0.00320562 0.00317705 0.00314638 0.00311356 0.00307858 0.00304141 0.00300207 0.00296055 0.00291686 0.00287099 0.00282294 0.00277264 0.00272003 0.00266509 0.00260783 0.00254826 0.00248637 0.00242215 0.00235562 0.00228697 0.00221642 0.00214396 0.0020696 0.00199333 0.00191515 0.00183507 0.00175309 0.00166996 0.00158647 0.0015026 0.00141837 0.00133376 0.00124879 0.00116344 0.00107773 0.000993066 0.000910883 0.000831177 0.00075395 0.0006792 0.000606928 0.000537134 0.000469817 0.000406264 0.000347759 0.000294303 0.000245896 0.000202537 0.000164227 0.000130966 0.000102753 7.86705e-05 5.77988e-05 4.0138e-05 2.56883e-05 1.44497e-05 6.42208e-06 1.60552e-06 0 0 3.08317e-06 1.23327e-05 2.77486e-05 4.93308e-05 7.70793e-05 0.000110994 0.000151076 0.000197323 0.000251047 0.000313557 0.000384853 0.000464936 0.000553804 0.000651459 0.0007579 0.000873127 0.000994366 0.00111884 0.00124656 0.00137751 0.00151171 0.00164914 0.00178981 0.00193371 0.00207807 0.00222009 0.00235978 0.00249712 0.00263213 0.0027648 0.00289513 0.00302313 0.00314742 0.00326664 0.00338078 0.00348985 0.00359384 0.00369276 0.0037866 0.00387537 0.00395889 0.00403698 0.00410964 0.00417687 0.00423867 0.00429505 0.00434599 0.00439151 0.00443206 0.00446812 0.00449969 0.00452677 0.00454936 0.00456745 0.00458105 0.00459016 0.00459532 0.00459709 0.00459546 0.00459045 0.00458203 0.00457023 0.00455503 0.00453644 0.00451471 0.00449013 0.00446269 0.00443239 0.00439922 0.0043632 0.00432431 0.00428257 0.00423791 0.00419029 0.0041397 0.00408615 0.00402964 0.00397017 0.00390773 0.00384233 0.00377387 0.00370226 0.00362748 0.00354955 0.00346846 0.00338422 0.00329682 0.00320626 0.00311282 0.00301679 0.00291817 0.00281695 0.00271314 0.00260674 0.00249774 0.00238614 0.002273 0.00215936 0.00204521 0.00193055 0.0018154 0.00169974 0.00158357 0.00146691 0.00135167 0.00123981 0.00113132 0.00102621 0.000924466 0.000826096 0.000731098 0.000639473 0.00055297 0.000473339 0.000400579 0.000334692 0.000275676 0.000223532 0.000178259 0.000139859 0.000107079 7.86705e-05 5.46323e-05 3.49647e-05 1.96676e-05 8.74117e-06 2.18529e-06 0 0 4.027e-06 1.6108e-05 3.6243e-05 6.4432e-05 0.000100675 0.000144972 0.000197323 0.000257728 0.000327898 0.000409544 0.000502665 0.000607263 0.000723336 0.000850885 0.00098991 0.00114041 0.00129876 0.00146135 0.00162816 0.0017992 0.00197447 0.00215398 0.00233771 0.00252567 0.00271422 0.00289971 0.00308216 0.00326155 0.00343788 0.00361117 0.0037814 0.00394858 0.00411092 0.00426663 0.00441571 0.00455817 0.00469399 0.00482319 0.00494577 0.00506171 0.00517079 0.00527279 0.00536769 0.0054555 0.00553623 0.00560986 0.0056764 0.00573585 0.00578882 0.00583592 0.00587715 0.00591252 0.00594202 0.00596565 0.00598341 0.0059953 0.00600205 0.00600436 0.00600224 0.00599568 0.0059847 0.00596928 0.00594943 0.00592514 0.00589677 0.00586466 0.00582882 0.00578924 0.00574592 0.00569887 0.00564808 0.00559356 0.00553523 0.00547303 0.00540696 0.00533702 0.00526321 0.00518553 0.00510398 0.00501856 0.00492914 0.0048356 0.00473794 0.00463615 0.00453024 0.0044202 0.00430605 0.00418776 0.00406573 0.0039403 0.00381149 0.00367928 0.00354369 0.00340472 0.00326235 0.0031166 0.00296882 0.00282038 0.00267129 0.00252154 0.00237113 0.00222006 0.00206834 0.00191596 0.00176545 0.00161935 0.00147765 0.00134035 0.00120747 0.00107898 0.000954904 0.00083523 0.000722247 0.000618239 0.000523206 0.000437148 0.000360066 0.00029196 0.000232828 0.000182673 0.000139859 0.000102753 7.13565e-05 4.56681e-05 2.56883e-05 1.1417e-05 2.85426e-06 0 0 5.13417e-06 2.05367e-05 4.62076e-05 8.21468e-05 0.000128354 0.00018483 0.000251574 0.000328587 0.000417978 0.000521858 0.000640227 0.000773085 0.000920431 0.00108227 0.00125859 0.0014494 0.00165012 0.00185616 0.00206753 0.00228422 0.00250623 0.00273357 0.00296623 0.00320421 0.00344293 0.00367778 0.00390878 0.00413592 0.0043592 0.00457863 0.00479419 0.0050059 0.00521149 0.0054087 0.00559754 0.005778 0.00595008 0.00611379 0.00626912 0.00641608 0.00655436 0.00668367 0.00680401 0.00691537 0.00701777 0.00711119 0.00719565 0.00727113 0.00733841 0.00739825 0.00745065 0.00749562 0.00753315 0.00756324 0.0075859 0.00760112 0.00760981 0.00761286 0.00761029 0.00760209 0.00758826 0.00756881 0.00754372 0.00751301 0.0074771 0.00743645 0.00739105 0.0073409 0.00728601 0.00722636 0.00716197 0.00709283 0.00701886 0.00693998 0.0068562 0.0067675 0.0066739 0.00657538 0.00647196 0.00636363 0.00625023 0.00613161 0.00600778 0.00587873 0.00574445 0.00560496 0.00546025 0.00531032 0.00515564 0.00499668 0.00483344 0.00466592 0.00449412 0.00431803 0.00413767 0.00395303 0.00376583 0.0035778 0.00338894 0.00319925 0.00300873 0.00281738 0.0026252 0.00243219 0.00224154 0.00205644 0.00187689 0.0017029 0.00153446 0.00137158 0.00121424 0.00106246 0.000919122 0.000787123 0.000666461 0.000557137 0.000459151 0.000372502 0.000297191 0.000233218 0.000178557 0.000131185 9.11007e-05 5.83044e-05 3.27962e-05 1.45761e-05 3.64403e-06 0 0 6.44218e-06 2.57687e-05 5.79796e-05 0.000103075 0.000161055 0.000231919 0.000315667 0.0004123 0.000524269 0.000654029 0.000801579 0.000966918 0.00115005 0.00135097 0.00156968 0.00180617 0.00205481 0.00230994 0.00257156 0.00283967 0.00311427 0.00339536 0.00368294 0.00397701 0.00427195 0.00456214 0.00484758 0.00512828 0.00540422 0.00567542 0.00594187 0.00620357 0.00645774 0.00670161 0.00693516 0.00715841 0.00737135 0.00757399 0.00776631 0.00794833 0.00811966 0.00827992 0.00842911 0.00856724 0.00869429 0.00881028 0.0089152 0.00900905 0.00909277 0.00916727 0.00923257 0.00928866 0.00933553 0.0093732 0.00940166 0.00942091 0.00943205 0.00943619 0.00943334 0.00942348 0.00940662 0.00938276 0.00935189 0.00931403 0.00926971 0.00921948 0.00916333 0.00910126 0.00903329 0.0089594 0.00887959 0.00879388 0.00870216 0.00860435 0.00850044 0.00839045 0.00827436 0.00815218 0.00802391 0.00788955 0.00774892 0.00760185 0.00744834 0.00728838 0.00712198 0.00694913 0.00676984 0.00658411 0.00639252 0.00619567 0.00599356 0.00578618 0.00557353 0.00535563 0.00513245 0.00490402 0.00467244 0.00443984 0.00420623 0.0039716 0.00373595 0.00349928 0.00326159 0.00302289 0.00278707 0.00255804 0.00233581 0.00212037 0.00191172 0.00170986 0.0015148 0.00132653 0.00114863 0.000984656 0.000834624 0.000698529 0.000576371 0.000468149 0.000373865 0.000293517 0.000224724 0.000165103 0.000114655 7.33792e-05 4.12758e-05 1.83448e-05 4.5862e-06 0 0 7.95103e-06 3.18041e-05 7.15593e-05 0.000127216 0.000198776 0.000286237 0.0003896 0.000508866 0.000646772 0.000806057 0.000986721 0.00118876 0.00141219 0.00165699 0.00192317 0.00221072 0.00251284 0.00282268 0.00314025 0.00346555 0.00379859 0.00413935 0.00448784 0.00484406 0.00520128 0.00555278 0.00589856 0.00623861 0.00657294 0.00690155 0.00722443 0.00754159 0.00784968 0.00814534 0.00842859 0.00869941 0.0089578 0.00920378 0.00943733 0.00965846 0.00986669 0.0100615 0.010243 0.0104111 0.0105658 0.0107071 0.0108351 0.0109496 0.0110519 0.011143 0.0112229 0.0112916 0.0113492 0.0113955 0.0114307 0.0114547 0.0114688 0.0114744 0.0114714 0.0114598 0.0114398 0.0114111 0.0113739 0.0113282 0.0112746 0.0112137 0.0111457 0.0110703 0.0109878 0.010898 0.010801 0.0106967 0.0105851 0.0104661 0.0103397 0.0102059 0.0100646 0.00991593 0.00975984 0.00959633 0.00942522 0.00924631 0.00905961 0.0088651 0.00866281 0.00845271 0.00823482 0.00800913 0.00777637 0.00753727 0.00729184 0.00704006 0.00678195 0.00651749 0.0062467 0.00596957 0.00568866 0.00540652 0.00512317 0.00483859 0.00455279 0.00426577 0.00397753 0.00368806 0.00340204 0.00312415 0.00285439 0.00259275 0.00233924 0.00209385 0.00185658 0.00162745 0.00141076 0.00121084 0.00102769 0.000861324 0.000711726 0.000578901 0.000462849 0.00036357 0.000278358 0.000204508 0.00014202 9.08925e-05 5.11271e-05 2.27231e-05 5.68078e-06 0 0 9.66072e-06 3.86429e-05 8.69465e-05 0.000154571 0.000241518 0.000347786 0.000473375 0.000618286 0.000785485 0.000977941 0.00119565 0.00143862 0.00170684 0.00200032 0.00231906 0.00266305 0.0030242 0.00339438 0.0037736 0.00416187 0.00455918 0.00496553 0.00538093 0.00580536 0.00623093 0.00664971 0.00706171 0.00746693 0.00786536 0.00825701 0.00864188 0.00901997 0.0093873 0.00973991 0.0100778 0.010401 0.0107094 0.0110032 0.0112822 0.0115465 0.0117954 0.0120285 0.0122457 0.0124469 0.0126323 0.0128017 0.0129552 0.0130928 0.0132158 0.0133254 0.0134217 0.0135045 0.0135741 0.0136302 0.013673 0.0137024 0.01372 0.0137273 0.0137244 0.0137112 0.0136877 0.0136539 0.0136099 0.0135556 0.0134918 0.0134192 0.013338 0.0132481 0.0131495 0.0130421 0.0129261 0.0128013 0.0126677 0.0125253 0.0123739 0.0122137 0.0120446 0.0118666 0.0116797 0.011484 0.0112791 0.011065 0.0108416 0.0106089 0.0103669 0.0101157 0.00985518 0.00958538 0.00930718 0.00902148 0.00872828 0.00842757 0.00811936 0.00780364 0.00748041 0.00714969 0.00681448 0.00647784 0.00613976 0.00580023 0.00545926 0.00511685 0.004773 0.00442771 0.00408647 0.00375478 0.00343264 0.00312005 0.00281701 0.00252353 0.00223959 0.0019652 0.00170551 0.00146567 0.00124567 0.00104552 0.000865217 0.000704758 0.000564145 0.000443377 0.000339461 0.0002494 0.000173194 0.000110844 6.235e-05 2.77111e-05 6.92777e-06 0 0 1.15712e-05 4.6285e-05 0.000104141 0.00018514 0.000289281 0.000416565 0.000566991 0.00074056 0.00094041 0.00116968 0.00142838 0.00171649 0.00203403 0.00238098 0.00275736 0.00316316 0.00358889 0.00402504 0.00447162 0.00492862 0.00539606 0.00587392 0.00636221 0.00686092 0.00736089 0.00785293 0.00833704 0.00881322 0.00928148 0.00974181 0.0101942 0.0106387 0.0110706 0.0114853 0.0118828 0.0122631 0.0126262 0.0129722 0.0133009 0.0136124 0.0139059 0.0141809 0.0144371 0.0146748 0.0148937 0.015094 0.0152757 0.0154387 0.0155845 0.0157145 0.0158288 0.0159274 0.0160102 0.0160773 0.0161286 0.0161641 0.0161857 0.0161952 0.0161924 0.0161775 0.0161504 0.0161111 0.0160597 0.0159961 0.0159212 0.015836 0.0157404 0.0156346 0.0155183 0.0153918 0.0152549 0.0151076 0.01495 0.0147818 0.0146032 0.014414 0.0142144 0.0140043 0.0137836 0.0135525 0.0133106 0.0130579 0.0127943 0.0125198 0.0122344 0.0119381 0.0116309 0.0113129 0.010985 0.0106483 0.0103029 0.0099487 0.00958576 0.00921406 0.00883359 0.00844436 0.00804992 0.00765379 0.00725599 0.00685651 0.00645536 0.00605252 0.00564801 0.00524183 0.00484034 0.00444991 0.00407056 0.00370227 0.00334505 0.0029989 0.00266382 0.0023398 0.0020329 0.00174915 0.00148856 0.00125112 0.00103684 0.00084572 0.000677751 0.000532939 0.000408031 0.000299778 0.000208179 0.000133235 7.49445e-05 3.33087e-05 8.32717e-06 0 0 1.36826e-05 5.47304e-05 0.000123143 0.000218922 0.000342065 0.000492574 0.000670448 0.000875687 0.00111155 0.00138128 0.00168489 0.00202237 0.00239373 0.00279896 0.00323807 0.00371105 0.00420691 0.00471466 0.00523429 0.00576581 0.00630921 0.0068645 0.00743168 0.00801074 0.00859116 0.00916243 0.00972454 0.0102775 0.0108213 0.0113559 0.0118814 0.0123978 0.0128996 0.0133815 0.0138436 0.0142859 0.0147082 0.0151107 0.0154934 0.0158561 0.0161982 0.0165186 0.0168174 0.0170946 0.0173502 0.0175841 0.0177965 0.0179872 0.0181579 0.0183104 0.0184444 0.0185602 0.0186576 0.0187367 0.0187974 0.0188398 0.0188659 0.0188778 0.0188754 0.0188588 0.0188279 0.0187827 0.0187234 0.0186497 0.0185629 0.018464 0.0183529 0.0182297 0.0180944 0.017947 0.0177875 0.0176158 0.0174319 0.0172358 0.0170274 0.0168068 0.016574 0.0163288 0.0160715 0.0158018 0.0155198 0.015225 0.0149177 0.0145977 0.0142651 0.0139199 0.0135621 0.0131916 0.0128097 0.0124177 0.0120157 0.0116035 0.0111812 0.0107488 0.0103062 0.0098536 0.00939495 0.00893438 0.00847187 0.00800744 0.00754107 0.00707279 0.00660257 0.00613042 0.00566365 0.00520956 0.00476814 0.00433941 0.00392335 0.00351997 0.00312927 0.00275125 0.00239291 0.00206128 0.00175635 0.00147813 0.00122661 0.00100179 0.000803669 0.000632254 0.00048407 0.000355643 0.000246974 0.000158064 8.89107e-05 3.95159e-05 9.87897e-06 0 0 1.59948e-05 6.39792e-05 0.000143953 0.000255917 0.00039987 0.000575813 0.000783746 0.00102367 0.00129889 0.00161273 0.00196519 0.00235626 0.00278595 0.00325426 0.00376118 0.00430672 0.00487827 0.00546324 0.00606162 0.00667343 0.00729865 0.00793728 0.00858933 0.0092548 0.00992174 0.0105782 0.0112242 0.0118598 0.0124848 0.0130994 0.0137035 0.0142972 0.0148743 0.0154286 0.0159603 0.0164692 0.0169554 0.0174189 0.0178597 0.0182778 0.0186721 0.0190417 0.0193864 0.0197064 0.0200016 0.0202719 0.0205175 0.0207383 0.0209362 0.0211129 0.0212685 0.0214029 0.0215163 0.0216085 0.0216795 0.0217295 0.0217606 0.0217753 0.0217734 0.021755 0.0217202 0.0216688 0.0216009 0.0215166 0.0214169 0.0213032 0.0211754 0.0210336 0.0208777 0.0207078 0.0205238 0.0203257 0.0201135 0.0198872 0.0196467 0.0193921 0.0191233 0.0188404 0.0185433 0.018232 0.0179065 0.0175664 0.0172118 0.0168428 0.0164592 0.0160611 0.0156486 0.0152215 0.0147814 0.0143298 0.0138666 0.0133918 0.0129056 0.0124077 0.0118983 0.0113774 0.0108496 0.0103196 0.0097874 0.00925301 0.00871642 0.00817764 0.00763666 0.00709349 0.00655641 0.00603371 0.0055254 0.00503146 0.00455191 0.00408673 0.00363594 0.00319953 0.00278555 0.00240206 0.00204906 0.00172654 0.0014345 0.00117296 0.000941897 0.000741323 0.000567576 0.000416994 0.000289579 0.000185331 0.000104249 4.63327e-05 1.15832e-05 0 0 1.85079e-05 7.40314e-05 0.000166571 0.000296126 0.000462696 0.000666283 0.000906885 0.0011845 0.00150245 0.00186404 0.00226928 0.00271817 0.0032107 0.00374687 0.00432669 0.00495016 0.00560296 0.00627078 0.00695362 0.00765148 0.00836436 0.00909226 0.00983518 0.0105931 0.0113526 0.0121003 0.0128361 0.01356 0.014272 0.0149722 0.0156605 0.016337 0.0169946 0.0176265 0.0182327 0.0188131 0.0193678 0.0198967 0.0203999 0.0208773 0.0213278 0.0217501 0.0221443 0.0225102 0.0228479 0.0231575 0.0234389 0.0236921 0.0239192 0.0241221 0.0243009 0.0244556 0.0245862 0.0246926 0.0247749 0.0248331 0.0248698 0.0248876 0.0248864 0.0248663 0.0248272 0.0247693 0.0246924 0.0245965 0.0244832 0.0243537 0.024208 0.0240462 0.0238682 0.0236741 0.0234638 0.0232374 0.0229948 0.022736 0.022461 0.0221698 0.0218624 0.0215388 0.0211991 0.0208431 0.0204708 0.020082 0.0196767 0.0192549 0.0188166 0.0183618 0.0178905 0.0174027 0.0169001 0.0163844 0.0158557 0.0153139 0.014759 0.014191 0.0136099 0.0130158 0.0124138 0.0118094 0.0112026 0.0105932 0.00998139 0.00936708 0.00875029 0.00813103 0.00751862 0.00692238 0.00634232 0.00577843 0.00523073 0.00469919 0.00418384 0.00368466 0.00321082 0.00277149 0.00236667 0.00199635 0.00166054 0.00135923 0.00109244 0.000860147 0.00065855 0.000483833 0.000335995 0.000215037 0.000120958 5.37592e-05 1.34398e-05 0 0 2.1179e-05 8.4716e-05 0.000190611 0.000338864 0.000529475 0.000762444 0.00103777 0.00135546 0.00171876 0.00213095 0.00259203 0.00310199 0.00366083 0.00426856 0.00492517 0.00563067 0.00636894 0.00712386 0.00789545 0.0086837 0.0094886 0.0103102 0.0111484 0.0120033 0.0128598 0.013703 0.0145329 0.0153494 0.0161527 0.0169426 0.0177191 0.0184823 0.0192244 0.0199377 0.020622 0.0212774 0.0219039 0.0225016 0.0230703 0.0236101 0.0241196 0.0245974 0.0250435 0.0254578 0.0258404 0.0261913 0.0265105 0.0267979 0.0270559 0.0272865 0.0274899 0.027666 0.0278149 0.0279365 0.0280308 0.0280979 0.0281406 0.0281618 0.0281615 0.0281397 0.0280964 0.0280316 0.0279454 0.0278376 0.0277099 0.0275638 0.0273994 0.0272166 0.0270154 0.0267959 0.026558 0.0263017 0.0260271 0.0257342 0.0254228 0.0250932 0.0247452 0.0243788 0.0239942 0.0235911 0.0231696 0.0227295 0.0222708 0.0217936 0.0212977 0.0207833 0.0202502 0.0196986 0.0191303 0.0185474 0.0179498 0.0173375 0.0167106 0.0160689 0.0154126 0.0147417 0.014062 0.0133795 0.0126942 0.0120062 0.0113154 0.0106218 0.00992547 0.00922634 0.00853483 0.00786135 0.00720589 0.00656845 0.00594904 0.00534765 0.00476429 0.00419895 0.00366197 0.0031637 0.00270413 0.00228327 0.0019011 0.00155764 0.00125288 0.000986822 0.000755536 0.000555087 0.000385477 0.000246706 0.000138772 6.16764e-05 1.54191e-05 0 0 2.39655e-05 9.58622e-05 0.00021569 0.000383449 0.000599139 0.00086276 0.00117431 0.00153379 0.00194437 0.0024092 0.00292829 0.00350162 0.00412922 0.00481107 0.00554717 0.00633752 0.00716416 0.00800908 0.0088723 0.00975381 0.0106536 0.0115717 0.0125081 0.0134628 0.0144192 0.0153608 0.0162875 0.0171994 0.0180964 0.0189786 0.019846 0.0206985 0.0215276 0.0223245 0.0230893 0.023822 0.0245225 0.025191 0.0258273 0.0264315 0.027002 0.0275371 0.0280368 0.0285012 0.0289302 0.0293239 0.0296822 0.0300051 0.0302951 0.0305546 0.0307836 0.0309821 0.0311501 0.0312876 0.0313945 0.031471 0.0315201 0.0315451 0.0315459 0.0315225 0.031475 0.0314034 0.0313076 0.0311876 0.0310452 0.0308822 0.0306985 0.0304941 0.030269 0.0300233 0.0297568 0.0294698 0.0291621 0.0288338 0.0284849 0.0281155 0.0277255 0.027315 0.0268839 0.0264322 0.0259598 0.0254667 0.0249529 0.0244183 0.023863 0.023287 0.0226902 0.0220727 0.0214367 0.0207844 0.0201157 0.0194308 0.0187296 0.018012 0.0172782 0.0165281 0.0157682 0.0150053 0.0142393 0.0134701 0.0126979 0.0119226 0.0111442 0.0103627 0.00958961 0.0088364 0.00810307 0.00738963 0.00669608 0.00602241 0.00536862 0.00473472 0.00413227 0.00357283 0.0030564 0.00258299 0.00215259 0.00176519 0.00142082 0.00111945 0.000857077 0.000629689 0.000437284 0.000279862 0.000157422 6.99655e-05 1.74914e-05 0 0 2.68675e-05 0.00010747 0.000241807 0.000429879 0.000671686 0.000967229 0.00131651 0.00171952 0.00217927 0.00269879 0.00327806 0.00391708 0.00461586 0.00537439 0.00619268 0.00707073 0.00798861 0.00892642 0.00988416 0.0108618 0.0118594 0.0128769 0.0139143 0.0149717 0.0160308 0.0170735 0.0180999 0.0191098 0.0201033 0.0210805 0.0220412 0.0229856 0.023904 0.024787 0.0256346 0.0264468 0.0272236 0.027965 0.0286709 0.0293415 0.0299748 0.030569 0.0311242 0.0316402 0.0321172 0.0325551 0.032954 0.0333137 0.033637 0.0339265 0.0341821 0.0344038 0.0345917 0.0347458 0.034866 0.0349524 0.0350083 0.0350374 0.0350396 0.0350148 0.0349631 0.0348845 0.034779 0.0346466 0.0344892 0.0343087 0.0341051 0.0338785 0.0336288 0.0333561 0.0330603 0.0327414 0.0323996 0.0320349 0.0316473 0.0312368 0.0308035 0.0303473 0.0298682 0.0293663 0.0288414 0.0282936 0.0277229 0.0271292 0.0265126 0.025873 0.0252105 0.0245251 0.0238192 0.0230954 0.0223536 0.0215938 0.020816 0.0200203 0.0192066 0.0183749 0.0175326 0.0166868 0.0158376 0.014985 0.0141289 0.0132694 0.0124065 0.0115401 0.010683 0.00984754 0.00903388 0.00824198 0.00747184 0.00672346 0.00599684 0.00529197 0.00462171 0.00399888 0.00342348 0.00289552 0.002415 0.0019819 0.00159625 0.00125802 0.000963174 0.000707638 0.000491415 0.000314506 0.000176909 7.86264e-05 1.96566e-05 0 0 2.98848e-05 0.000119539 0.000268963 0.000478156 0.000747119 0.00107585 0.00146435 0.00191262 0.00242347 0.00299971 0.00364134 0.00434835 0.00512075 0.00595854 0.00686171 0.00783028 0.00884231 0.00987589 0.010931 0.0120077 0.013106 0.0142258 0.0153671 0.01653 0.0176947 0.0188413 0.01997 0.0210807 0.0221734 0.023248 0.0243047 0.0253434 0.0263537 0.0273252 0.028258 0.0291519 0.0300071 0.0308236 0.0316012 0.0323401 0.0330381 0.0336933 0.0343056 0.034875 0.0354015 0.0358851 0.0363259 0.0367237 0.0370815 0.037402 0.0376853 0.0379312 0.0381398 0.0383112 0.0384453 0.038542 0.0386053 0.0386388 0.0386425 0.0386165 0.0385606 0.038475 0.0383596 0.0382145 0.0380417 0.0378433 0.0376194 0.03737 0.037095 0.0367944 0.0364683 0.0361167 0.0357396 0.0353373 0.0349098 0.034457 0.033979 0.0334757 0.0329472 0.0323934 0.0318144 0.0312102 0.0305808 0.0299262 0.0292463 0.0285413 0.0278111 0.0270557 0.0262779 0.0254804 0.0246632 0.0238264 0.0229699 0.0220937 0.0211979 0.0202823 0.0193551 0.0184241 0.0174893 0.0165507 0.0156084 0.0146622 0.0137123 0.0127586 0.0118149 0.0108948 0.00999831 0.0091255 0.00827633 0.00745081 0.00664894 0.00587071 0.00513029 0.00444184 0.00380537 0.00322086 0.00268833 0.00220776 0.00177917 0.00140255 0.00107383 0.000788933 0.00054787 0.000350637 0.000197233 8.76592e-05 2.19148e-05 0 0 3.30174e-05 0.00013207 0.000297157 0.000528279 0.000825436 0.00118863 0.00161785 0.00211312 0.00267697 0.00331198 0.00401813 0.00479544 0.0056439 0.0065635 0.00755426 0.00861617 0.00972525 0.0108575 0.0120129 0.0131915 0.0143933 0.0156182 0.0168664 0.0181377 0.0194107 0.0206642 0.0218979 0.0231121 0.0243065 0.0254814 0.0266365 0.0277721 0.0288767 0.0299391 0.0309593 0.0319373 0.0328731 0.0337667 0.0346181 0.0354273 0.036192 0.0369099 0.037581 0.0382054 0.038783 0.0393138 0.0397979 0.0402352 0.0406286 0.0409813 0.0412931 0.0415642 0.0417944 0.0419837 0.0421323 0.04224 0.042311 0.0423492 0.0423547 0.0423275 0.0422676 0.0421749 0.0420495 0.0418914 0.0417028 0.0414862 0.0412414 0.0409685 0.0406674 0.0403383 0.039981 0.0395956 0.0391823 0.0387413 0.0382726 0.0377762 0.0372521 0.0367002 0.0361207 0.0355135 0.0348787 0.0342164 0.0335265 0.0328092 0.0320643 0.0312919 0.030492 0.0296646 0.0288127 0.0279394 0.0270448 0.0261287 0.0251912 0.0242323 0.023252 0.0222502 0.0212358 0.0202171 0.0191943 0.0181674 0.0171363 0.0161011 0.0150617 0.0140182 0.0129854 0.0119781 0.0109964 0.0100402 0.00910955 0.00820446 0.00732492 0.00647092 0.00565801 0.00490173 0.00420206 0.00355901 0.00297258 0.00244278 0.00196959 0.00155302 0.00118903 0.000873575 0.00060665 0.000388256 0.000218394 9.70639e-05 2.4266e-05 0 0 3.62655e-05 0.000145062 0.000326389 0.000580248 0.000906637 0.00130556 0.00177701 0.00232099 0.00293976 0.00363558 0.00440844 0.00525834 0.00618529 0.00718929 0.00827033 0.00942842 0.0106374 0.0118712 0.0131298 0.0144132 0.0157214 0.0170544 0.0184122 0.0197947 0.021179 0.022542 0.0238836 0.0252039 0.0265028 0.0277804 0.0290367 0.030