<?xml version="1.0"?> 
<VTKFile type="StructuredGrid" version="0.1"> 
<StructuredGrid WholeExtent="0 128 0 128 0 0"> 
<Piece Extent="0 128 0 128 0 0"> 
<PointData>
<DataArray type="Float32" Name="u" format="ascii" NumberOfComponents="1"> 
0 0 0 0 0 0 0 0 0 0 0 0 0 0 0 0 0 0 0 0 0 0 0 0 0 0 0 0 0 0 0 0 0 0 0 0 0 0 0 0 0 0 0 0 0 0 0 0 0 0 0 0 0 0 0 0 0 0 0 0 0 0 0 0 0 0 0 0 0 0 0 0 0 0 0 0 0 0 0 0 0 0 0 0 0 0 0 0 0 0 0 0 0 0 0 0 0 0 0 0 0 0 0 0 0 0 0 0 0 0 0 0 0 0 0 0 0 0 0 0 0 0 0 0 0 0 0 0 0 0 5.98935e-08 2.39574e-07 5.39042e-07 9.58297e-07 1.49734e-06 2.15617e-06 2.93478e-06 3.83319e-06 4.87847e-06 6.09773e-06 7.49097e-06 9.05819e-06 1.07994e-05 1.27146e-05 1.48037e-05 1.70668e-05 1.94457e-05 2.18822e-05 2.43762e-05 2.69277e-05 2.95368e-05 3.22035e-05 3.49277e-05 3.77095e-05 4.04901e-05 4.32106e-05 4.58711e-05 4.84716e-05 5.10122e-05 5.34926e-05 5.59131e-05 5.82736e-05 6.05481e-05 6.27107e-05 6.47614e-05 6.67001e-05 6.8527e-05 7.02419e-05 7.18449e-05 7.33359e-05 7.47177e-05 7.59929e-05 7.71615e-05 7.82234e-05 7.91788e-05 8.00275e-05 8.07696e-05 8.14051e-05 8.19511e-05 8.24248e-05 8.28262e-05 8.31553e-05 8.34122e-05 8.35967e-05 8.37089e-05 8.37488e-05 8.37323e-05 8.36749e-05 8.35768e-05 8.3438e-05 8.32584e-05 8.30381e-05 8.2777e-05 8.24751e-05 8.21365e-05 8.17651e-05 8.13608e-05 8.09236e-05 8.04537e-05 7.99509e-05 7.94152e-05 7.88468e-05 7.82374e-05 7.75789e-05 7.68714e-05 7.61149e-05 7.53093e-05 7.44547e-05 7.3551e-05 7.25983e-05 7.15857e-05 7.05023e-05 6.93482e-05 6.81233e-05 6.68277e-05 6.54613e-05 6.40241e-05 6.25162e-05 6.09373e-05 5.92871e-05 5.75657e-05 5.57732e-05 5.39093e-05 5.19743e-05 4.99681e-05 4.78906e-05 4.5763e-05 4.36066e-05 4.14212e-05 3.9207e-05 3.69638e-05 3.46917e-05 3.23908e-05 3.00609e-05 2.77467e-05 2.54929e-05 2.32995e-05 2.11663e-05 1.90935e-05 1.70811e-05 1.5129e-05 1.32372e-05 1.14467e-05 9.79841e-06 8.29236e-06 6.92852e-06 5.70691e-06 4.62751e-06 3.69033e-06 2.89538e-06 2.21677e-06 1.62865e-06 1.13101e-06 7.23845e-07 4.07163e-07 1.80961e-07 4.52403e-08 0 0 2.39574e-07 9.58297e-07 2.15617e-06 3.83319e-06 5.98935e-06 8.62467e-06 1.17391e-05 1.53327e-05 1.95139e-05 2.43909e-05 2.99639e-05 3.62328e-05 4.31975e-05 5.08582e-05 5.92148e-05 6.82673e-05 7.77829e-05 8.75287e-05 9.75047e-05 0.000107711 0.000118147 0.000128814 0.000139711 0.000150838 0.00016196 0.000172842 0.000183484 0.000193887 0.000204049 0.000213971 0.000223653 0.000233094 0.000242192 0.000250843 0.000259046 0.000266801 0.000274108 0.000280968 0.000287379 0.000293344 0.000298871 0.000303972 0.000308646 0.000312894 0.000316715 0.00032011 0.000323078 0.00032562 0.000327804 0.000329699 0.000331305 0.000332621 0.000333649 0.000334387 0.000334836 0.000334995 0.000334929 0.0003347 0.000334307 0.000333752 0.000333034 0.000332152 0.000331108 0.000329901 0.000328546 0.00032706 0.000325443 0.000323695 0.000321815 0.000319803 0.000317661 0.000315387 0.000312949 0.000310316 0.000307486 0.000304459 0.000301237 0.000297819 0.000294204 0.000290393 0.000286343 0.000282009 0.000277393 0.000272493 0.000267311 0.000261845 0.000256096 0.000250065 0.000243749 0.000237148 0.000230263 0.000223093 0.000215637 0.000207897 0.000199872 0.000191562 0.000183052 0.000174426 0.000165685 0.000156828 0.000147855 0.000138767 0.000129563 0.000120244 0.000110987 0.000101972 9.31978e-05 8.46653e-05 7.63741e-05 6.83243e-05 6.05159e-05 5.29487e-05 4.57868e-05 3.91937e-05 3.31694e-05 2.77141e-05 2.28276e-05 1.851e-05 1.47613e-05 1.15815e-05 8.8671e-06 6.5146e-06 4.52403e-06 2.89538e-06 1.62865e-06 7.23845e-07 1.80961e-07 0 0 5.39042e-07 2.15617e-06 4.85138e-06 8.62467e-06 1.3476e-05 1.94055e-05 2.64131e-05 3.44987e-05 4.39062e-05 5.48796e-05 6.74188e-05 8.15237e-05 9.71944e-05 0.000114431 0.000133233 0.000153601 0.000175011 0.000196939 0.000219385 0.000242349 0.000265832 0.000289832 0.00031435 0.000339386 0.00036441 0.000388895 0.00041284 0.000436245 0.000459109 0.000481434 0.000503218 0.000524463 0.000544933 0.000564396 0.000582852 0.000600301 0.000616743 0.000632177 0.000646604 0.000660023 0.00067246 0.000683936 0.000694453 0.000704011 0.000712609 0.000720247 0.000726926 0.000732646 0.00073756 0.000741823 0.000745436 0.000748398 0.00075071 0.00075237 0.00075338 0.00075374 0.00075359 0.000753074 0.000752191 0.000750942 0.000749325 0.000747342 0.000744993 0.000742276 0.000739229 0.000735885 0.000732247 0.000728313 0.000724083 0.000719558 0.000714737 0.000709621 0.000704136 0.00069821 0.000691843 0.000685034 0.000677784 0.000670092 0.000661959 0.000653385 0.000644271 0.000634521 0.000624134 0.00061311 0.000601449 0.000589151 0.000576217 0.000562646 0.000548435 0.000533584 0.000518092 0.000501958 0.000485184 0.000467769 0.000449712 0.000431015 0.000411867 0.000392459 0.000372791 0.000352863 0.000332674 0.000312226 0.000291517 0.000270548 0.000249721 0.000229436 0.000209695 0.000190497 0.000171842 0.00015373 0.000136161 0.000119135 0.00010302 8.81857e-05 7.46312e-05 6.23567e-05 5.13621e-05 4.16476e-05 3.3213e-05 2.60584e-05 1.9951e-05 1.46579e-05 1.01791e-05 6.5146e-06 3.66446e-06 1.62865e-06 4.07163e-07 0 0 9.58297e-07 3.83319e-06 8.62467e-06 1.53327e-05 2.39574e-05 3.44987e-05 4.69565e-05 6.1331e-05 7.80555e-05 9.75637e-05 0.000119856 0.000144931 0.00017279 0.000203433 0.000236859 0.000273069 0.000311131 0.000350115 0.000390019 0.000430844 0.000472589 0.000515256 0.000558844 0.000603352 0.000647841 0.00069137 0.000733938 0.000775546 0.000816194 0.000855882 0.00089461 0.000932378 0.00096877 0.00100337 0.00103618 0.0010672 0.00109643 0.00112387 0.00114952 0.00117337 0.00119548 0.00121589 0.00123458 0.00125157 0.00126686 0.00128044 0.00129231 0.00130248 0.00131122 0.0013188 0.00132522 0.00133049 0.00133459 0.00133755 0.00133934 0.00133998 0.00133972 0.0013388 0.00133723 0.00133501 0.00133213 0.00132861 0.00132443 0.0013196 0.00131418 0.00130824 0.00130177 0.00129478 0.00128726 0.00127921 0.00127064 0.00126155 0.0012518 0.00124126 0.00122994 0.00121784 0.00120495 0.00119127 0.00117682 0.00116157 0.00114537 0.00112804 0.00110957 0.00108997 0.00106924 0.00104738 0.00102439 0.00100026 0.000974996 0.000948594 0.000921052 0.000892371 0.00086255 0.000831589 0.000799489 0.000766249 0.000732208 0.000697705 0.000662739 0.000627311 0.000591421 0.000555068 0.000518252 0.000480974 0.000443948 0.000407887 0.000372791 0.000338661 0.000305497 0.000273297 0.000242063 0.000211795 0.000183147 0.000156775 0.000132678 0.000110856 9.13105e-05 7.40402e-05 5.90454e-05 4.63261e-05 3.54684e-05 2.60584e-05 1.80961e-05 1.15815e-05 6.5146e-06 2.89538e-06 7.23845e-07 0 0 1.49734e-06 5.98935e-06 1.3476e-05 2.39574e-05 3.74335e-05 5.39042e-05 7.33696e-05 9.58297e-05 0.000121962 0.000152443 0.000187274 0.000226455 0.000269985 0.000317864 0.000370093 0.000426671 0.000486143 0.000547054 0.000609404 0.000673193 0.000738421 0.000805088 0.000873193 0.000942738 0.00101225 0.00108026 0.00114678 0.00121179 0.0012753 0.00133732 0.00139783 0.00145684 0.0015137 0.00156777 0.00161903 0.0016675 0.00171317 0.00175605 0.00179612 0.0018334 0.00186794 0.00189982 0.00192904 0.00195559 0.00197947 0.00200069 0.00201924 0.00203513 0.00204878 0.00206062 0.00207066 0.00207888 0.0020853 0.00208992 0.00209272 0.00209372 0.00209331 0.00209187 0.00208942 0.00208595 0.00208146 0.00207595 0.00206942 0.00206188 0.00205341 0.00204413 0.00203402 0.00202309 0.00201134 0.00199877 0.00198538 0.00197117 0.00195593 0.00193947 0.00192179 0.00190287 0.00188273 0.00186137 0.00183878 0.00181496 0.00178964 0.00176256 0.0017337 0.00170308 0.00167069 0.00163653 0.0016006 0.0015629 0.00152343 0.00148218 0.00143914 0.00139433 0.00134773 0.00129936 0.0012492 0.00119726 0.00114408 0.00109016 0.00103553 0.000980174 0.000924095 0.000867293 0.000809769 0.000751522 0.000693669 0.000637323 0.000582487 0.000529158 0.000477338 0.000427027 0.000378224 0.00033093 0.000286167 0.00024496 0.000207309 0.000173213 0.000142673 0.000115688 9.22584e-05 7.23845e-05 5.54194e-05 4.07163e-05 2.82752e-05 1.80961e-05 1.01791e-05 4.52403e-06 1.13101e-06 0 0 2.15617e-06 8.62467e-06 1.94055e-05 3.44987e-05 5.39042e-05 7.7622e-05 0.000105652 0.000137995 0.000175625 0.000219518 0.000269675 0.000326095 0.000388778 0.000457724 0.000532933 0.000614406 0.000700046 0.000787758 0.000877542 0.000969398 0.00106333 0.00115933 0.0012574 0.00135754 0.00145764 0.00155558 0.00165136 0.00174498 0.00183644 0.00192574 0.00201287 0.00209785 0.00217973 0.00225759 0.00233141 0.0024012 0.00246697 0.00252871 0.00258642 0.00264009 0.00268984 0.00273575 0.00277781 0.00281604 0.00285044 0.00288099 0.0029077 0.00293058 0.00295024 0.00296729 0.00298174 0.00299359 0.00300284 0.00300948 0.00301352 0.00301496 0.00301436 0.0030123 0.00300877 0.00300377 0.0029973 0.00298937 0.00297997 0.0029691 0.00295691 0.00294354 0.00292899 0.00291325 0.00289633 0.00287823 0.00285895 0.00283848 0.00281654 0.00279284 0.00276737 0.00274014 0.00271113 0.00268037 0.00264784 0.00261354 0.00257708 0.00253808 0.00249653 0.00245244 0.0024058 0.00235661 0.00230487 0.00225058 0.00219374 0.00213434 0.00207237 0.00200783 0.00194074 0.00187108 0.00179885 0.00172406 0.00164747 0.00156984 0.00149116 0.00141145 0.0013307 0.0012489 0.00116607 0.00108219 0.000998883 0.000917746 0.000838781 0.000761988 0.000687367 0.000614919 0.000544643 0.000476539 0.000412081 0.000352743 0.000298525 0.000249427 0.000205449 0.00016659 0.000132852 0.000104234 7.98039e-05 5.86314e-05 4.07163e-05 2.60584e-05 1.46579e-05 6.5146e-06 1.62865e-06 0 0 2.93478e-06 1.17391e-05 2.64131e-05 4.69565e-05 7.33696e-05 0.000105652 0.000143804 0.000187826 0.000239045 0.000298789 0.000367058 0.000443851 0.00052917 0.000623013 0.000725381 0.000836274 0.00095284 0.00107223 0.00119443 0.00131946 0.0014473 0.00157797 0.00171146 0.00184777 0.00198401 0.00211732 0.00224769 0.00237511 0.0024996 0.00262114 0.00273974 0.00285541 0.00296686 0.00307283 0.00317331 0.00326831 0.00335782 0.00344185 0.0035204 0.00359346 0.00366117 0.00372365 0.00378091 0.00383295 0.00387976 0.00392135 0.00395771 0.00398885 0.0040156 0.00403882 0.00405848 0.00407461 0.0040872 0.00409624 0.00410174 0.00410369 0.00410288 0.00410007 0.00409526 0.00408846 0.00407966 0.00406886 0.00405607 0.00404128 0.00402469 0.00400649 0.00398668 0.00396526 0.00394223 0.00391759 0.00389135 0.00386349 0.00383363 0.00380137 0.0037667 0.00372963 0.00369016 0.00364828 0.003604 0.00355732 0.0035077 0.00345461 0.00339806 0.00333804 0.00327456 0.0032076 0.00313718 0.00306329 0.00298593 0.00290507 0.00282072 0.00273288 0.00264156 0.00254674 0.00244843 0.00234664 0.00224239 0.00213672 0.00202964 0.00192114 0.00181123 0.00169989 0.00158715 0.00147298 0.00135959 0.00124915 0.00114167 0.00103715 0.000935583 0.000836973 0.000741319 0.000648622 0.000560888 0.000480122 0.000406326 0.000339498 0.000279638 0.000226748 0.000180826 0.000141874 0.000108622 7.98039e-05 5.54194e-05 3.54684e-05 1.9951e-05 8.8671e-06 2.21677e-06 0 0 3.83319e-06 1.53327e-05 3.44987e-05 6.1331e-05 9.58297e-05 0.000137995 0.000187826 0.000245324 0.000312222 0.000390255 0.000479422 0.000579724 0.000691161 0.000813731 0.000947437 0.00109228 0.00124453 0.00140046 0.00156007 0.00172337 0.00189036 0.00206102 0.00223537 0.00241341 0.00259136 0.00276548 0.00293575 0.00310219 0.00326478 0.00342353 0.00357844 0.00372951 0.00387508 0.00401349 0.00414473 0.00426881 0.00438573 0.00449548 0.00459807 0.0046935 0.00478194 0.00486355 0.00493834 0.0050063 0.00506744 0.00512176 0.00516925 0.00520992 0.00524487 0.00527519 0.00530088 0.00532194 0.00533838 0.00535019 0.00535737 0.00535993 0.00535886 0.00535519 0.00534892 0.00534003 0.00532854 0.00531444 0.00529773 0.00527841 0.00525674 0.00523296 0.00520709 0.00517911 0.00514903 0.00511686 0.00508258 0.00504619 0.00500719 0.00496505 0.00491977 0.00487135 0.00481979 0.0047651 0.00470726 0.00464629 0.00458148 0.00451215 0.00443828 0.00435989 0.00427697 0.00418952 0.00409754 0.00400103 0.00389998 0.00379438 0.00368421 0.00356948 0.0034502 0.00332636 0.00319796 0.003065 0.00292883 0.00279082 0.00265096 0.00250924 0.00236568 0.00222027 0.00207301 0.0019239 0.00177579 0.00163155 0.00149117 0.00135464 0.00122199 0.00109319 0.000968254 0.00084718 0.000732588 0.000627098 0.000530711 0.000443425 0.000365242 0.000296161 0.000236181 0.000185304 0.000141874 0.000104234 7.23845e-05 4.63261e-05 2.60584e-05 1.15815e-05 2.89538e-06 0 0 4.89622e-06 1.95849e-05 4.40659e-05 7.83394e-05 0.000122405 0.000176264 0.000239915 0.000313358 0.000398731 0.000498172 0.00061168 0.000739255 0.000880898 0.00103661 0.00120639 0.00139023 0.00158343 0.00178126 0.00198373 0.00219083 0.00240256 0.00261893 0.00283994 0.00306558 0.0032911 0.00351178 0.0037276 0.00393856 0.00414467 0.00434592 0.00454231 0.00473386 0.00491844 0.00509397 0.00526045 0.00541786 0.00556623 0.00570554 0.00583579 0.00595699 0.00606934 0.00617305 0.00626812 0.00635456 0.00643235 0.00650151 0.00656202 0.0066139 0.00665852 0.00669726 0.00673013 0.00675712 0.00677823 0.00679347 0.00680283 0.00680631 0.00680519 0.00680073 0.00679295 0.00678183 0.00676738 0.00674959 0.00672847 0.00670403 0.00667657 0.00664641 0.00661357 0.00657804 0.00653981 0.0064989 0.00645529 0.006409 0.00635936 0.00630573 0.00624811 0.0061865 0.00612089 0.0060513 0.00597771 0.00590013 0.00581769 0.00572951 0.0056356 0.00553596 0.00543058 0.00531947 0.00520262 0.00508004 0.00495171 0.00481762 0.00467778 0.00453217 0.0043808 0.00422367 0.00406078 0.00389213 0.00371943 0.0035444 0.00336703 0.00318732 0.00300528 0.0028209 0.00263419 0.00244513 0.00225735 0.00207443 0.00189638 0.00172319 0.00155487 0.00139142 0.00123283 0.00107911 0.000933582 0.000799554 0.000677031 0.000566013 0.000466499 0.000378491 0.000301987 0.000236987 0.000181443 0.000133305 9.25732e-05 5.92469e-05 3.33264e-05 1.48117e-05 3.70293e-06 0 0 6.16871e-06 2.46748e-05 5.55184e-05 9.86994e-05 0.000154218 0.000222074 0.000302267 0.000394797 0.000502146 0.000626794 0.000768741 0.000927987 0.00110453 0.00129837 0.00150952 0.00173796 0.00197787 0.00222343 0.00247464 0.00273149 0.00299399 0.00326214 0.00353593 0.00381537 0.00409465 0.00436794 0.00463525 0.00489659 0.00515194 0.00540132 0.00564471 0.00588213 0.00611098 0.00632868 0.00653523 0.00673063 0.00691487 0.00708797 0.00724991 0.0074007 0.00754058 0.00766978 0.00778832 0.00789617 0.00799336 0.00807987 0.00815571 0.00822087 0.00827704 0.0083259 0.00836744 0.00840168 0.0084286 0.00844821 0.00846051 0.0084655 0.00846473 0.00845976 0.00845058 0.0084372 0.00841963 0.00839784 0.00837186 0.00834167 0.00830768 0.00827028 0.00822947 0.00818526 0.00813763 0.0080866 0.00803216 0.00797431 0.00791227 0.00784524 0.00777324 0.00769625 0.00761428 0.00752734 0.00743541 0.0073385 0.00723555 0.00712552 0.00700841 0.00688421 0.00675292 0.00661454 0.00646908 0.00631654 0.0061569 0.00599018 0.00581638 0.00563548 0.0054475 0.00525244 0.00505028 0.00484104 0.00462682 0.00440973 0.00418977 0.00396693 0.00374123 0.00351266 0.00328121 0.0030469 0.00281412 0.0025873 0.00236642 0.0021515 0.00194253 0.00173951 0.00154245 0.00135133 0.00117027 0.00100337 0.000850637 0.000712063 0.000587651 0.0004774 0.000381312 0.000299385 0.000229216 0.000168404 0.000116947 7.48461e-05 4.2101e-05 1.87115e-05 4.67788e-06 0 0 7.65067e-06 3.06027e-05 6.8856e-05 0.000122411 0.000191267 0.000275424 0.000374883 0.000489643 0.000622468 0.000776122 0.000950606 0.00114592 0.00136206 0.00159903 0.00185683 0.00213546 0.00242786 0.00272698 0.00303282 0.00334538 0.00366466 0.00399065 0.00432337 0.0046628 0.00500199 0.00533396 0.00565872 0.00597627 0.00628661 0.00658973 0.00688564 0.00717434 0.00745271 0.00771762 0.00796909 0.0082071 0.00843166 0.00864277 0.00884043 0.00902464 0.00919566 0.00935375 0.00949891 0.00963115 0.00975046 0.00985684 0.0099503 0.0100308 0.0101004 0.0101611 0.0102128 0.0102556 0.0102895 0.0103144 0.0103304 0.0103375 0.0103375 0.0103323 0.0103218 0.0103062 0.0102853 0.0102592 0.0102279 0.0101914 0.0101501 0.0101046 0.0100548 0.0100008 0.00994249 0.00987996 0.00981318 0.00974214 0.00966592 0.00958359 0.00949516 0.00940062 0.00929997 0.00919322 0.00908036 0.0089614 0.00883508 0.00870019 0.00855671 0.00840464 0.00824399 0.00807475 0.00789693 0.00771053 0.00751556 0.00731206 0.00710001 0.00687943 0.00665031 0.00641265 0.00616646 0.00591172 0.00565099 0.00538681 0.00511917 0.00484808 0.00457354 0.00429554 0.00401409 0.00372918 0.00344611 0.00317015 0.00290131 0.00263958 0.00238497 0.00213747 0.00189709 0.00166382 0.00144265 0.00123855 0.00105153 0.000881576 0.000728696 0.00059289 0.000474156 0.000372496 0.000285192 0.000209529 0.000145506 9.3124e-05 5.23822e-05 2.3281e-05 5.82025e-06 0 0 9.34209e-06 3.73684e-05 8.40788e-05 0.000149473 0.000233552 0.000336315 0.000457763 0.000597894 0.000759696 0.000946156 0.00115727 0.00139305 0.00165348 0.00193857 0.00224832 0.00258273 0.00293339 0.0032919 0.00365827 0.00403248 0.00441455 0.00480447 0.00520224 0.00560786 0.00601313 0.00640985 0.00679801 0.00717761 0.00754866 0.00791116 0.0082651 0.00861048 0.00894361 0.00926079 0.00956201 0.00984728 0.0101166 0.0103699 0.0106074 0.0108288 0.0110346 0.0112249 0.0113999 0.0115595 0.0117037 0.0118324 0.0119458 0.0120438 0.0121287 0.0122028 0.0122663 0.012319 0.0123609 0.0123921 0.0124126 0.0124223 0.0124235 0.0124182 0.0124067 0.0123887 0.0123644 0.0123336 0.0122965 0.0122531 0.0122038 0.0121493 0.0120895 0.0120246 0.0119544 0.011879 0.0117983 0.0117125 0.0116203 0.0115208 0.0114139 0.0112996 0.011178 0.0110489 0.0109126 0.0107688 0.0106163 0.0104535 0.0102805 0.0100973 0.00990379 0.0097001 0.00948617 0.00926201 0.00902768 0.00878324 0.00852868 0.00826401 0.00798922 0.00770432 0.00740931 0.00710418 0.00679195 0.00647564 0.00615524 0.00583076 0.00550219 0.00516955 0.00483281 0.00449199 0.00415331 0.00382299 0.00350103 0.00318743 0.00288218 0.00258529 0.00229677 0.0020166 0.00175073 0.0015051 0.00127971 0.00107455 0.000889636 0.000724959 0.000580521 0.000456321 0.000349371 0.000256681 0.00017825 0.00011408 6.41702e-05 2.85201e-05 7.13002e-06 0 0 1.1243e-05 4.49719e-05 0.000101187 0.000179888 0.000281075 0.000404747 0.000550906 0.000719551 0.000913831 0.0011369 0.00138875 0.00166938 0.0019788 0.00231701 0.002684 0.00307977 0.00349446 0.0039182 0.00435098 0.0047928 0.00524367 0.00570359 0.00617254 0.00665055 0.00712807 0.00759559 0.0080531 0.0085006 0.0089381 0.00936559 0.00978308 0.0101906 0.0105837 0.0109582 0.011314 0.0116512 0.0119697 0.0122695 0.0125507 0.0128132 0.0130573 0.0132834 0.0134913 0.0136812 0.013853 0.0140066 0.0141422 0.0142597 0.0143618 0.0144512 0.0145278 0.0145917 0.0146428 0.0146812 0.0147069 0.0147199 0.0147226 0.0147177 0.0147051 0.0146848 0.0146568 0.0146212 0.0145778 0.0145268 0.0144688 0.0144044 0.0143337 0.0142567 0.0141733 0.0140837 0.0139877 0.0138853 0.0137754 0.0136568 0.0135294 0.0133932 0.0132482 0.0130945 0.012932 0.0127608 0.0125791 0.0123855 0.0121798 0.0119621 0.0117323 0.0114906 0.0112368 0.010971 0.0106933 0.0104037 0.0101024 0.00978922 0.00946424 0.00912744 0.00877883 0.00841841 0.00804969 0.00767621 0.00729798 0.00691497 0.00652721 0.00613468 0.00573739 0.00533533 0.00493574 0.00454582 0.00416559 0.00379504 0.00343417 0.00308298 0.00274148 0.00240965 0.0020945 0.001803 0.00153517 0.00129099 0.00107047 0.000873608 0.000700405 0.000550861 0.000421753 0.000309859 0.00021518 0.000137715 7.74648e-05 3.44288e-05 8.6072e-06 0 0 1.33533e-05 5.34133e-05 0.00012018 0.000213653 0.000333833 0.00048072 0.000654314 0.000854614 0.00108487 0.00134834 0.00164502 0.00197491 0.00233802 0.00273433 0.00316385 0.00362659 0.00411108 0.00460586 0.00511095 0.00562634 0.00615202 0.00668801 0.00723429 0.00779087 0.00834682 0.0088912 0.00942401 0.00994525 0.0104549 0.010953 0.0114396 0.0119146 0.012373 0.0128098 0.0132251 0.0136188 0.0139909 0.0143414 0.0146704 0.0149778 0.0152639 0.015529 0.0157732 0.0159963 0.0161984 0.0163795 0.0165396 0.0166787 0.0167998 0.016906 0.0169973 0.0170738 0.0171353 0.0171818 0.0172135 0.0172303 0.0172351 0.0172307 0.0172172 0.0171945 0.0171627 0.0171218 0.0170717 0.0170126 0.016945 0.0168699 0.0167873 0.0166971 0.0165993 0.016494 0.0163811 0.0162607 0.0161313 0.0159916 0.0158417 0.0156814 0.0155108 0.0153299 0.0151388 0.0149373 0.0147237 0.0144961 0.0142546 0.0139991 0.0137296 0.0134462 0.0131488 0.0128375 0.0125123 0.0121735 0.0118211 0.0114551 0.0110754 0.010682 0.010275 0.00985441 0.00942422 0.00898854 0.00854738 0.00810072 0.00764857 0.00719094 0.00672781 0.00625919 0.00579337 0.00533864 0.00489499 0.00446242 0.00404093 0.00363054 0.00323122 0.00284299 0.00247396 0.00213227 0.00181791 0.00153089 0.0012712 0.00103884 0.000833809 0.000656114 0.000502337 0.000369064 0.000256295 0.000164029 9.2266e-05 4.10071e-05 1.02518e-05 0 0 1.56732e-05 6.26926e-05 0.000141058 0.000250771 0.000391829 0.000564234 0.000767985 0.00100308 0.00127282 0.00158049 0.0019261 0.00230965 0.00273112 0.00319054 0.00368789 0.00422317 0.00478323 0.0053549 0.00593819 0.00653309 0.0071396 0.00775773 0.00838747 0.00902882 0.00966936 0.0102967 0.0109107 0.0115116 0.0120991 0.0126735 0.0132346 0.0137825 0.0143114 0.0148157 0.0152952 0.0157501 0.0161802 0.0165857 0.0169665 0.0173226 0.0176544 0.0179619 0.0182454 0.0185047 0.0187399 0.0189509 0.0191378 0.0193006 0.0194427 0.0195675 0.019675 0.0197652 0.0198382 0.0198939 0.0199324 0.0199535 0.0199607 0.0199571 0.0199428 0.0199178 0.019882 0.0198355 0.0197783 0.0197104 0.0196326 0.0195459 0.0194503 0.0193458 0.0192323 0.01911 0.0189787 0.0188385 0.0186879 0.0185253 0.0183508 0.0181642 0.0179657 0.0177552 0.0175327 0.0172983 0.0170498 0.0167854 0.0165048 0.0162082 0.0158956 0.0155669 0.0152222 0.0148614 0.0144848 0.0140927 0.0136849 0.0132615 0.0128226 0.012368 0.0118979 0.0114122 0.0109155 0.0104126 0.00990344 0.009388 0.00886629 0.00833832 0.00780408 0.00726358 0.00672623 0.00620144 0.00568922 0.00518957 0.00470248 0.00422795 0.00376599 0.0033166 0.00288912 0.0024929 0.00212795 0.00179425 0.00149182 0.00122064 0.000980733 0.000772082 0.000591125 0.000434296 0.000301594 0.00019302 0.000108574 4.82551e-05 1.20638e-05 0 0 1.82024e-05 7.28098e-05 0.000163822 0.000291239 0.000455061 0.000655288 0.00089192 0.00116496 0.00147767 0.00183335 0.00223199 0.00267358 0.00315813 0.00368564 0.00425611 0.00486953 0.00551093 0.00616532 0.00683269 0.00751306 0.00820641 0.00891275 0.00963208 0.0103644 0.0110957 0.011812 0.0125133 0.0131995 0.0138708 0.014527 0.0151682 0.0157944 0.016399 0.0169757 0.0175244 0.0180451 0.0185377 0.0190024 0.0194391 0.0198477 0.0202286 0.0205821 0.020908 0.0212065 0.0214775 0.021721 0.021937 0.0221255 0.0222904 0.0224354 0.0225607 0.0226661 0.0227517 0.0228175 0.0228634 0.0228895 0.0228995 0.022897 0.0228821 0.0228546 0.0228147 0.0227624 0.0226975 0.0226202 0.0225314 0.0224323 0.0223227 0.0222028 0.0220724 0.0219316 0.0217805 0.0216189 0.0214453 0.0212578 0.0210566 0.0208416 0.0206129 0.0203703 0.020114 0.0198438 0.0195577 0.0192533 0.0189306 0.0185896 0.0182303 0.0178528 0.017457 0.0170429 0.0166108 0.0161611 0.0156937 0.0152086 0.0147059 0.0141855 0.0136474 0.0130917 0.0125236 0.0119484 0.0113662 0.0107768 0.0101804 0.00957683 0.0089662 0.00834849 0.0077343 0.00713423 0.00654829 0.00597648 0.00541879 0.00487523 0.0043458 0.0038305 0.00333998 0.0028849 0.00246527 0.00208108 0.00173233 0.00141903 0.00114118 0.000898763 0.000688116 0.000505554 0.000351079 0.000224691 0.000126389 5.61727e-05 1.40432e-05 0 0 2.09076e-05 8.36305e-05 0.000188169 0.000334522 0.00052269 0.000752674 0.00102447 0.00133809 0.00169672 0.00210356 0.00255861 0.00306188 0.00361336 0.00421306 0.00486097 0.00555709 0.00628452 0.00702633 0.00778254 0.00855315 0.00933814 0.0101375 0.0109513 0.0117795 0.0126064 0.0134165 0.0142096 0.0149859 0.0157453 0.0164878 0.0172135 0.0179222 0.0186068 0.0192599 0.0198816 0.0204718 0.0210305 0.0215578 0.0220536 0.0225179 0.022951 0.0233531 0.0237242 0.0240643 0.0243734 0.0246515 0.0248986 0.0251147 0.0253041 0.0254709 0.0256152 0.025737 0.0258363 0.025913 0.0259673 0.025999 0.0260123 0.0260112 0.0259958 0.025966 0.0259219 0.0258635 0.0257907 0.0257036 0.0256033 0.025491 0.0253667 0.0252304 0.0250821 0.0249218 0.0247494 0.0245651 0.0243669 0.0241531 0.0239235 0.0236782 0.0234172 0.0231405 0.0228481 0.02254 0.0222137 0.0218669 0.0214994 0.0211112 0.0207025 0.0202731 0.0198231 0.0193525 0.0188617 0.018351 0.0178205 0.0172702 0.0167001 0.0161101 0.0155003 0.0148707 0.0142271 0.0135757 0.0129162 0.0122489 0.0115736 0.0108903 0.0101991 0.00949989 0.00880462 0.00812507 0.00746127 0.00681319 0.00618086 0.00556425 0.00496338 0.00437825 0.0038209 0.00330338 0.00282568 0.00238781 0.00198976 0.00163155 0.00131316 0.0010346 0.000792112 0.00058196 0.000404139 0.000258649 0.00014549 6.46622e-05 1.61655e-05 0 0 2.37551e-05 9.50204e-05 0.000213796 0.000380082 0.000593877 0.000855184 0.001164 0.00152033 0.00192723 0.00238776 0.00290193 0.00346973 0.00409116 0.00476623 0.00549494 0.00627728 0.00709433 0.00792718 0.00877582 0.00964025 0.0105205 0.0114165 0.0123283 0.0132559 0.014182 0.0150893 0.0159778 0.0168475 0.0176984 0.0185304 0.0193437 0.0201382 0.0209057 0.0216382 0.0223357 0.0229982 0.0236257 0.0242182 0.0247756 0.025298 0.0257856 0.0262386 0.0266569 0.0270407 0.0273898 0.0277043 0.0279842 0.0282295 0.0284448 0.0286348 0.0287994 0.0289387 0.0290527 0.0291413 0.0292046 0.0292425 0.0292596 0.0292604 0.0292448 0.029213 0.0291647 0.0291002 0.0290193 0.0289221 0.0288099 0.028684 0.0285443 0.028391 0.0282239 0.0280431 0.0278486 0.0276404 0.0274165 0.0271748 0.0269155 0.0266384 0.0263436 0.026031 0.0257008 0.0253528 0.0249845 0.0245931 0.0241787 0.0237412 0.0232807 0.0227972 0.0222906 0.021761 0.0212089 0.0206347 0.0200385 0.0194202 0.0187798 0.0181175 0.017433 0.0167266 0.0160047 0.0152739 0.0145343 0.0137859 0.0130286 0.0122625 0.0114876 0.0107038 0.00992421 0.00916203 0.00841721 0.00768974 0.00697963 0.00628688 0.00561149 0.00495345 0.00432627 0.00374345 0.00320499 0.00271088 0.00226113 0.00185573 0.0014947 0.00117801 0.000901917 0.000662633 0.000460162 0.000294503 0.000165658 7.36258e-05 1.84065e-05 0 0 2.67449e-05 0.00010698 0.000240704 0.000427918 0.000668622 0.000962816 0.0013105 0.00171167 0.0021692 0.00268595 0.00326192 0.00389712 0.00459153 0.00534516 0.00615802 0.0070301 0.00794038 0.00886785 0.00981252 0.0107744 0.0117534 0.0127497 0.0137631 0.0147937 0.0158226 0.0168306 0.0178178 0.0187843 0.0197299 0.0206548 0.0215589 0.0224422 0.0232957 0.0241106 0.0248868 0.0256244 0.0263233 0.0269836 0.0276052 0.0281881 0.0287325 0.0292386 0.0297064 0.0301358 0.0305268 0.0308795 0.0311939 0.0314699 0.0317126 0.0319271 0.0321133 0.0322712 0.0324008 0.0325022 0.0325753 0.0326201 0.0326416 0.0326446 0.0326292 0.0325954 0.0325431 0.0324725 0.0323833 0.0322758 0.0321513 0.0320112 0.0318556 0.0316845 0.0314979 0.0312957 0.031078 0.0308448 0.0305939 0.0303231 0.0300326 0.0297222 0.029392 0.0290419 0.028672 0.0282823 0.02787 0.027432 0.0269686 0.0264796 0.0259651 0.0254251 0.0248595 0.0242684 0.0236524 0.0230121 0.0223474 0.0216585 0.0209452 0.0202076 0.0194457 0.0186595 0.0178562 0.0170432 0.0162204 0.0153879 0.0145456 0.0136935 0.0128317 0.0119601 0.0110931 0.0102451 0.00941612 0.00860612 0.00781512 0.00704312 0.00629011 0.0055561 0.0048561 0.00420513 0.0036032 0.0030503 0.00254643 0.00209159 0.00168579 0.00132902 0.00101753 0.000747573 0.000519148 0.000332255 0.000186893 8.30636e-05 2.07659e-05 0 0 2.9877e-05 0.000119508 0.000268893 0.000478032 0.000746925 0.00107557 0.00146397 0.00191213 0.00242265 0.00299814 0.00363861 0.00434405 0.00511446 0.00594985 0.00685021 0.00781554 0.00882266 0.00984836 0.0108927 0.0119555 0.013037 0.014137 0.0152557 0.0163929 0.017528 0.0186403 0.0197297 0.0207963 0.02184 0.0228609 0.023859 0.0248342 0.0257768 0.026677 0.0275349 0.0283503 0.0291233 0.029854 0.0305423 0.0311882 0.0317918 0.0323532 0.0328724 0.0333495 0.0337844 0.0341771 0.0345276 0.0348359 0.0351075 0.0353478 0.0355567 0.0357344 0.0358807 0.0359957 0.0360794 0.0361317 0.0361581 0.0361638 0.0361489 0.0361133 0.0360571 0.0359803 0.0358828 0.0357646 0.0356274 0.0354727 0.0353006 0.0351111 0.034904 0.0346796 0.0344376 0.0341783 0.0338992 0.033598 0.0332748 0.0329296 0.0325624 0.0321731 0.0317618 0.0313285 0.0308701 0.0303836 0.0298691 0.0293264 0.0287556 0.0281568 0.0275298 0.0268747 0.0261923 0.0254832 0.0247475 0.0239852 0.0231962 0.0223806 0.0215383 0.0206694 0.0197818 0.0188835 0.0179746 0.0170548 0.0161244 0.0151833 0.0142314 0.0132689 0.0123113 0.0113743 0.010458 0.00956234 0.00868733 0.00783297 0.00699925 0.00618619 0.00541037 0.00468841 0.00402031 0.00340606 0.00284566 0.00233912 0.00188644 0.00148761 0.00113895 0.00083678 0.000581097 0.000371902 0.000209195 9.29756e-05 2.32439e-05 0 0 3.31514e-05 0.000132606 0.000298363 0.000530423 0.000828786 0.00119345 0.00162442 0.00212169 0.00268756 0.00332432 0.00403197 0.00481052 0.00565996 0.00658028 0.00757151 0.00863362 0.00974117 0.0108687 0.0120162 0.0131837 0.0143712 0.0155786 0.016806 0.0180535 0.0192984 0.0205184 0.0217134 0.0228835 0.0240286 0.0251488 0.026244 0.0273143 0.028349 0.0293375 0.0302798 0.0311759 0.0320258 0.0328295 0.0335869 0.0342982 0.0349633 0.0355823 0.0361551 0.0366818 0.0371624 0.0375969 0.0379853 0.0383275 0.0386294 0.0388969 0.0391299 0.0393283 0.0394923 0.0396218 0.0397169 0.0397774 0.0398092 0.0398181 0.0398039 0.0397668 0.0397067 0.0396236 0.0395176 0.0393885 0.0392383 0.0390685 0.0388793 0.0386706 0.0384424 0.0381947 0.0379275 0.0376409 0.0373323 0.0369994 0.0366422 0.0362607 0.0358549 0.0354247 0.0349702 0.0344914 0.033985 0.0334479 0.0328801 0.0322815 0.0316522 0.0309922 0.0303014 0.0295799 0.0288285 0.0280481 0.0272386 0.0264002 0.0255328 0.0246363 0.0237108 0.0227563 0.0217815 0.0207949 0.0197967 0.0187868 0.0177651 0.0167318 0.0156868 0.0146301 0.0135787 0.0125496 0.0115428 0.0105584 0.00959625 0.00865642 0.00773892 0.00684372 0.0059891 0.0051933 0.00445632 0.00377816 0.00315883 0.00259833 0.00209665 0.00165379 0.00126618 0.000930255 0.000646011 0.000413447 0.000232564 0.000103362 2.58404e-05 0 0 3.65682e-05 0.000146273 0.000329113 0.00058509 0.000914204 0.00131645 0.00179184 0.00234036 0.00296394 0.0036645 0.00444203 0.00529653 0.00622802 0.00723648 0.00832191 0.00948432 0.0106959 0.0119289 0.0131832 0.0144589 0.015756 0.0170744 0.0184142 0.0197754 0.0211337 0.0224649 