<?xml version="1.0"?> 
<VTKFile type="StructuredGrid" version="0.1"> 
<StructuredGrid WholeExtent="0 128 0 128 0 0"> 
<Piece Extent="0 128 0 128 0 0"> 
<PointData>
<DataArray type="Float32" Name="u" format="ascii" NumberOfComponents="1"> 
0 0 0 0 0 0 0 0 0 0 0 0 0 0 0 0 0 0 0 0 0 0 0 0 0 0 0 0 0 0 0 0 0 0 0 0 0 0 0 0 0 0 0 0 0 0 0 0 0 0 0 0 0 0 0 0 0 0 0 0 0 0 0 0 0 0 0 0 0 0 0 0 0 0 0 0 0 0 0 0 0 0 0 0 0 0 0 0 0 0 0 0 0 0 0 0 0 0 0 0 0 0 0 0 0 0 0 0 0 0 0 0 0 0 0 0 0 0 0 0 0 0 0 0 0 0 0 0 0 0 6.30237e-08 2.52095e-07 5.67214e-07 1.00838e-06 1.57559e-06 2.26885e-06 3.08816e-06 4.03352e-06 5.13181e-06 6.40992e-06 7.86784e-06 9.50559e-06 1.13232e-05 1.33205e-05 1.54977e-05 1.78548e-05 2.03367e-05 2.28888e-05 2.5511e-05 2.82033e-05 3.09658e-05 3.37983e-05 3.67009e-05 3.96736e-05 4.26608e-05 4.56066e-05 4.85112e-05 5.13745e-05 5.41965e-05 5.69772e-05 5.97167e-05 6.24148e-05 6.50427e-05 6.75714e-05 7.00008e-05 7.23311e-05 7.45621e-05 7.66939e-05 7.87265e-05 8.06598e-05 8.24874e-05 8.42026e-05 8.58055e-05 8.7296e-05 8.86742e-05 8.994e-05 9.10934e-05 9.21346e-05 9.30696e-05 9.39048e-05 9.46402e-05 9.52757e-05 9.58115e-05 9.62474e-05 9.65836e-05 9.68199e-05 9.69658e-05 9.70307e-05 9.70148e-05 9.69178e-05 9.67399e-05 9.64811e-05 9.61413e-05 9.57205e-05 9.52251e-05 9.46612e-05 9.40289e-05 9.33281e-05 9.25589e-05 9.17212e-05 9.08151e-05 8.98405e-05 8.87996e-05 8.76944e-05 8.65249e-05 8.5291e-05 8.39929e-05 8.26305e-05 8.12038e-05 7.97128e-05 7.81594e-05 7.65456e-05 7.48712e-05 7.31363e-05 7.13409e-05 6.9485e-05 6.75686e-05 6.55918e-05 6.35628e-05 6.14901e-05 5.93738e-05 5.72137e-05 5.501e-05 5.27625e-05 5.04714e-05 4.81365e-05 4.57793e-05 4.34211e-05 4.10618e-05 3.87014e-05 3.634e-05 3.39775e-05 3.1614e-05 2.92494e-05 2.69205e-05 2.46642e-05 2.24802e-05 2.03688e-05 1.83298e-05 1.63633e-05 1.44693e-05 1.26478e-05 1.09311e-05 9.35143e-06 7.90894e-06 6.60356e-06 5.43531e-06 4.40418e-06 3.51018e-06 2.75329e-06 2.10799e-06 1.54873e-06 1.0755e-06 6.88323e-07 3.87182e-07 1.72081e-07 4.30202e-08 0 0 2.52095e-07 1.00838e-06 2.26885e-06 4.03352e-06 6.30237e-06 9.07542e-06 1.23527e-05 1.61341e-05 2.05272e-05 2.56397e-05 3.14714e-05 3.80224e-05 4.52926e-05 5.32822e-05 6.1991e-05 7.14191e-05 8.1347e-05 9.15554e-05 0.000102044 0.000112813 0.000123863 0.000135193 0.000146804 0.000158695 0.000170643 0.000182427 0.000194045 0.000205498 0.000216786 0.000227909 0.000238867 0.000249659 0.000260171 0.000270286 0.000280003 0.000289324 0.000298248 0.000306776 0.000314906 0.000322639 0.00032995 0.00033681 0.000343222 0.000349184 0.000354697 0.00035976 0.000364374 0.000368538 0.000372278 0.000375619 0.000378561 0.000381103 0.000383246 0.00038499 0.000386334 0.000387279 0.000387863 0.000388123 0.000388059 0.000387671 0.00038696 0.000385924 0.000384565 0.000382882 0.0003809 0.000378645 0.000376115 0.000373312 0.000370235 0.000366885 0.00036326 0.000359362 0.000355198 0.000350778 0.000346099 0.000341164 0.000335972 0.000330522 0.000324815 0.000318851 0.000312638 0.000306182 0.000299485 0.000292545 0.000285364 0.00027794 0.000270275 0.000262367 0.000254251 0.000245961 0.000237495 0.000228855 0.00022004 0.00021105 0.000201886 0.000192546 0.000183117 0.000173684 0.000164247 0.000154806 0.00014536 0.00013591 0.000126456 0.000116998 0.000107682 9.86566e-05 8.9921e-05 8.14752e-05 7.33194e-05 6.54534e-05 5.78773e-05 5.05912e-05 4.37242e-05 3.74057e-05 3.16357e-05 2.64143e-05 2.17412e-05 1.76167e-05 1.40407e-05 1.10132e-05 8.43196e-06 6.19491e-06 4.30202e-06 2.75329e-06 1.54873e-06 6.88323e-07 1.72081e-07 0 0 5.67214e-07 2.26885e-06 5.10492e-06 9.07542e-06 1.41803e-05 2.04197e-05 2.77935e-05 3.63017e-05 4.61863e-05 5.76893e-05 7.08106e-05 8.55503e-05 0.000101908 0.000119885 0.00013948 0.000160693 0.000183031 0.000206 0.000229599 0.00025383 0.000278692 0.000304184 0.000330308 0.000357063 0.000383947 0.00041046 0.000436601 0.000462371 0.000487769 0.000512795 0.00053745 0.000561733 0.000585384 0.000608142 0.000630007 0.00065098 0.000671059 0.000690245 0.000708538 0.000725938 0.000742387 0.000757824 0.000772249 0.000785664 0.000798068 0.00080946 0.000819841 0.000829211 0.000837626 0.000845143 0.000851762 0.000857482 0.000862304 0.000866227 0.000869252 0.000871379 0.000872692 0.000873277 0.000873133 0.00087226 0.000870659 0.00086833 0.000865272 0.000861485 0.000857026 0.000851951 0.00084626 0.000839953 0.00083303 0.000825491 0.000817336 0.000808565 0.000799196 0.000789249 0.000778724 0.000767619 0.000755936 0.000743675 0.000730835 0.000717416 0.000703435 0.00068891 0.000673841 0.000658227 0.000642068 0.000625365 0.000608118 0.000590326 0.000572065 0.000553411 0.000534364 0.000514923 0.00049509 0.000474863 0.000454242 0.000433229 0.000412014 0.00039079 0.000369556 0.000348313 0.00032706 0.000305798 0.000284526 0.000263245 0.000242285 0.000221977 0.000202322 0.000183319 0.000164969 0.00014727 0.000130224 0.00011383 9.83795e-05 8.41629e-05 7.11804e-05 5.94321e-05 4.89178e-05 3.96376e-05 3.15916e-05 2.47796e-05 1.89719e-05 1.39385e-05 9.67954e-06 6.19491e-06 3.48463e-06 1.54873e-06 3.87182e-07 0 0 1.00838e-06 4.03352e-06 9.07542e-06 1.61341e-05 2.52095e-05 3.63017e-05 4.94106e-05 6.45363e-05 8.21089e-05 0.000102559 0.000125886 0.000152089 0.00018117 0.000213129 0.000247964 0.000285676 0.000325388 0.000366221 0.000408177 0.000451254 0.000495452 0.000540772 0.000587214 0.000634778 0.000682572 0.000729706 0.000776179 0.000821992 0.000867144 0.000911636 0.000955466 0.000998637 0.00104068 0.00108114 0.00112001 0.0011573 0.00119299 0.0012271 0.00125962 0.00129056 0.0013198 0.00134724 0.00137289 0.00139674 0.00141879 0.00143904 0.0014575 0.00147415 0.00148911 0.00150248 0.00151424 0.00152441 0.00153298 0.00153996 0.00154534 0.00154912 0.00155145 0.00155249 0.00155224 0.00155069 0.00154784 0.0015437 0.00153826 0.00153153 0.0015236 0.00151458 0.00150446 0.00149325 0.00148094 0.00146754 0.00145304 0.00143745 0.00142079 0.00140311 0.0013844 0.00136466 0.00134389 0.00132209 0.00129926 0.00127541 0.00125055 0.00122473 0.00119794 0.00117018 0.00114145 0.00111176 0.0010811 0.00104947 0.001017 0.000983842 0.00094998 0.00091542 0.000880159 0.0008442 0.000807542 0.000770185 0.000732469 0.000694737 0.000656988 0.000619222 0.00058144 0.00054364 0.000505824 0.000467991 0.000430729 0.000394627 0.000359684 0.000325901 0.000293277 0.000261814 0.000231509 0.000202365 0.000174897 0.000149623 0.000126543 0.000105657 8.6965e-05 7.04669e-05 5.61628e-05 4.40527e-05 3.37278e-05 2.47796e-05 1.72081e-05 1.10132e-05 6.19491e-06 2.75329e-06 6.88323e-07 0 0 1.57559e-06 6.30237e-06 1.41803e-05 2.52095e-05 3.93898e-05 5.67214e-05 7.72041e-05 0.000100838 0.000128295 0.000160248 0.000196696 0.00023764 0.000283079 0.000333013 0.000387444 0.000446369 0.000508419 0.000572221 0.000637776 0.000705084 0.000774144 0.000844957 0.000917523 0.000991841 0.00106652 0.00114017 0.00121278 0.00128436 0.00135491 0.00142443 0.00149292 0.00156037 0.00162607 0.00168928 0.00175002 0.00180828 0.00186405 0.00191735 0.00196816 0.0020165 0.00206219 0.00210507 0.00214514 0.0021824 0.00221685 0.0022485 0.00227734 0.00230336 0.00232674 0.00234762 0.002366 0.00238189 0.00239529 0.00240619 0.00241459 0.0024205 0.00242414 0.00242577 0.00242537 0.00242295 0.0024185 0.00241203 0.00240353 0.00239301 0.00238063 0.00236653 0.00235072 0.0023332 0.00231397 0.00229303 0.00227038 0.00224601 0.00221999 0.00219236 0.00216312 0.00213228 0.00209982 0.00206576 0.0020301 0.00199282 0.00195399 0.00191364 0.00187178 0.00182841 0.00178352 0.00173713 0.00168922 0.00163979 0.00158907 0.00153725 0.00148434 0.00143034 0.00137525 0.00131906 0.00126178 0.00120341 0.00114448 0.00108553 0.00102654 0.000967535 0.000908499 0.000849438 0.00079035 0.000731235 0.000673014 0.000616604 0.000562006 0.00050922 0.000458246 0.000409084 0.000361733 0.000316195 0.000273276 0.000233786 0.000197723 0.000165089 0.000135883 0.000110105 8.77544e-05 6.88323e-05 5.26997e-05 3.87182e-05 2.68876e-05 1.72081e-05 9.67954e-06 4.30202e-06 1.0755e-06 0 0 2.26885e-06 9.07542e-06 2.04197e-05 3.63017e-05 5.67214e-05 8.16788e-05 0.000111174 0.000145207 0.000184745 0.000230757 0.000283242 0.000342201 0.000407634 0.000479539 0.000557919 0.000642772 0.000732123 0.000823998 0.000918397 0.00101532 0.00111477 0.00121674 0.00132123 0.00142825 0.00153579 0.00164184 0.0017464 0.00184948 0.00195107 0.00205118 0.0021498 0.00224693 0.00234154 0.00243257 0.00252003 0.00260392 0.00268424 0.00276098 0.00283415 0.00290375 0.00296955 0.00303129 0.003089 0.00314266 0.00319227 0.00323784 0.00327936 0.00331684 0.0033505 0.00338057 0.00340705 0.00342993 0.00344921 0.00346491 0.00347701 0.00348552 0.00349077 0.00349311 0.00349253 0.00348904 0.00348264 0.00347332 0.00346109 0.00344594 0.0034281 0.0034078 0.00338504 0.00335981 0.00333212 0.00330196 0.00326934 0.00323426 0.00319679 0.003157 0.00311489 0.00307048 0.00302375 0.0029747 0.00292334 0.00286966 0.00281374 0.00275564 0.00269536 0.00263291 0.00256827 0.00250146 0.00243247 0.0023613 0.00228826 0.00221364 0.00213746 0.00205969 0.00198036 0.00189945 0.00181697 0.00173292 0.00164806 0.00156316 0.00147822 0.00139325 0.00130824 0.00122319 0.0011381 0.00105298 0.00096914 0.00088791 0.000809289 0.000733277 0.000659874 0.000589081 0.000520896 0.000455321 0.000393518 0.000336652 0.000284722 0.000237728 0.000195671 0.000158551 0.000126366 9.91185e-05 7.58876e-05 5.57542e-05 3.87182e-05 2.47796e-05 1.39385e-05 6.19491e-06 1.54873e-06 0 0 3.08816e-06 1.23527e-05 2.77935e-05 4.94106e-05 7.72041e-05 0.000111174 0.00015132 0.000197642 0.000251459 0.000314086 0.000385524 0.000465774 0.000554835 0.000652706 0.000759389 0.000874883 0.000996501 0.00112155 0.00125004 0.00138196 0.00151732 0.00165612 0.00179834 0.00194401 0.00209038 0.00223473 0.00237705 0.00251735 0.00265563 0.00279188 0.00292612 0.00305833 0.00318709 0.003311 0.00343004 0.00354422 0.00365354 0.003758 0.0038576 0.00395233 0.00404188 0.00412593 0.00420447 0.0042775 0.00434503 0.00440706 0.00446358 0.00451459 0.00456041 0.00460133 0.00463737 0.00466851 0.00469476 0.00471612 0.00473259 0.00474417 0.00475132 0.00475451 0.00475372 0.00474897 0.00474026 0.00472757 0.00471092 0.00469031 0.00466603 0.0046384 0.00460741 0.00457308 0.00453538 0.00449434 0.00444994 0.00440219 0.00435118 0.00429702 0.00423972 0.00417926 0.00411565 0.0040489 0.00397899 0.00390593 0.00382981 0.00375073 0.00366869 0.00358368 0.0034957 0.00340477 0.00331086 0.003214 0.00311458 0.00301302 0.00290931 0.00280347 0.00269549 0.00258536 0.0024731 0.00235869 0.00224319 0.00212763 0.00201203 0.00189637 0.00178066 0.0016649 0.00154909 0.00143322 0.00131911 0.00120854 0.00110153 0.000998071 0.000898162 0.000801804 0.000708997 0.000619742 0.000535622 0.00045822 0.000387538 0.000323575 0.00026633 0.000215805 0.000171999 0.000134911 0.000103291 7.58876e-05 5.26997e-05 3.37278e-05 1.89719e-05 8.43196e-06 2.10799e-06 0 0 4.03352e-06 1.61341e-05 3.63017e-05 6.45363e-05 0.000100838 0.000145207 0.000197642 0.000258145 0.000328436 0.000410235 0.000503542 0.000608358 0.000724682 0.000852515 0.000991856 0.0011427 0.00130155 0.00146489 0.00163271 0.00180501 0.00198181 0.00216309 0.00234886 0.00253911 0.00273029 0.00291882 0.00310472 0.00328797 0.00346858 0.00364654 0.00382187 0.00399455 0.00416273 0.00432457 0.00448005 0.00462919 0.00477197 0.00490841 0.00503849 0.00516223 0.00527919 0.00538897 0.00549155 0.00558694 0.00567515 0.00575616 0.00582998 0.00589661 0.00595645 0.00600991 0.00605697 0.00609765 0.00613194 0.00615984 0.00618135 0.00619647 0.00620581 0.00620997 0.00620894 0.00620274 0.00619136 0.00617479 0.00615304 0.00612611 0.00609441 0.00605832 0.00601785 0.005973 0.00592377 0.00587016 0.00581217 0.00574979 0.00568317 0.00561244 0.00553759 0.00545863 0.00537555 0.00528835 0.00519705 0.00510162 0.0050022 0.00489892 0.00479176 0.00468072 0.00456582 0.00444704 0.00432439 0.00419787 0.00406802 0.00393537 0.00379992 0.00366168 0.00352064 0.0033768 0.00323017 0.00308074 0.00292988 0.00277895 0.00262795 0.00247689 0.00232576 0.00217456 0.0020233 0.00187196 0.00172291 0.00157851 0.00143874 0.0013036 0.00117311 0.00104725 0.000926037 0.000809459 0.000699587 0.000598492 0.000506172 0.000422628 0.00034786 0.000281868 0.000224651 0.000176211 0.000134911 9.91185e-05 6.88323e-05 4.40527e-05 2.47796e-05 1.10132e-05 2.75329e-06 0 0 5.13977e-06 2.05591e-05 4.6258e-05 8.22364e-05 0.000128494 0.000185032 0.000251849 0.000328945 0.000418445 0.000522472 0.000641025 0.000774106 0.000921713 0.00108385 0.00126051 0.0014517 0.00165297 0.00185989 0.00207246 0.00229068 0.00251455 0.00274406 0.00297922 0.00322003 0.003462 0.00370062 0.00393591 0.00416785 0.00439646 0.00462172 0.00484365 0.00506224 0.00527514 0.00548002 0.00567688 0.00586571 0.00604652 0.0062193 0.00638406 0.00654079 0.00668897 0.00682804 0.00695803 0.00707891 0.0071907 0.0072934 0.007387 0.00747151 0.00754742 0.00761524 0.00767497 0.00772661 0.00777015 0.00780561 0.00783297 0.00785225 0.00786419 0.00786957 0.00786837 0.0078606 0.00784626 0.00782535 0.00779788 0.00776383 0.00772371 0.00767804 0.00762681 0.00757003 0.00750768 0.00743978 0.00736632 0.0072873 0.00720289 0.00711327 0.00701843 0.00691838 0.00681311 0.00670263 0.00658692 0.00646601 0.00634003 0.00620916 0.00607338 0.00593271 0.00578713 0.00563666 0.00548128 0.00532101 0.00515652 0.0049885 0.00481694 0.00464185 0.00446322 0.00428107 0.00409538 0.00390616 0.00371512 0.00352401 0.00333281 0.00314152 0.00295015 0.0027587 0.00256716 0.00237553 0.00218679 0.00200389 0.00182685 0.00165564 0.00149029 0.00133078 0.00117712 0.00102931 0.000889964 0.0007617 0.00064452 0.000538424 0.000443412 0.000359483 0.000286638 0.000224877 0.000172172 0.000126493 8.78427e-05 5.62193e-05 3.16234e-05 1.40548e-05 3.51371e-06 0 0 6.44177e-06 2.57671e-05 5.7976e-05 0.000103068 0.000161044 0.000231904 0.000315647 0.000412273 0.000524256 0.000654066 0.000801704 0.00096717 0.00115046 0.00135159 0.00157054 0.00180731 0.00205645 0.00231247 0.00257538 0.00284518 0.00312186 0.00340544 0.0036959 0.00399324 0.00429198 0.0045866 0.00487712 0.00516352 0.00544582 0.005724 0.00599807 0.00626804 0.00653101 0.00678411 0.00702733 0.00726069 0.00748417 0.00769777 0.00790151 0.00809537 0.00827868 0.00845079 0.00861167 0.00876135 0.0088998 0.00902704 0.00914307 0.00924788 0.00934208 0.00942628 0.00950047 0.00956466 0.00961884 0.00966301 0.00969718 0.00972135 0.00973644 0.00974338 0.00974217 0.00973281 0.00971531 0.00968965 0.00965585 0.0096139 0.00956443 0.00950806 0.00944478 0.00937461 0.00929754 0.00921356 0.00912269 0.00902492 0.00892046 0.00880955 0.00869217 0.00856833 0.00843803 0.00830126 0.00815804 0.00800835 0.00785241 0.00769042 0.00752238 0.0073483 0.00716816 0.00698198 0.00678976 0.00659148 0.00638801 0.00618019 0.00596803 0.00575152 0.00553067 0.00530547 0.00507592 0.00484204 0.00460592 0.00436971 0.00413339 0.00389697 0.00366045 0.00342382 0.00318709 0.00295026 0.00271696 0.00249081 0.00227181 0.00205997 0.00185528 0.00165774 0.00146736 0.00128414 0.0011113 0.000952079 0.000806479 0.000674499 0.000556138 0.000451396 0.000360274 0.000282772 0.000216497 0.000159059 0.000110458 7.06929e-05 3.97648e-05 1.76732e-05 4.41831e-06 0 0 7.93952e-06 3.17581e-05 7.14557e-05 0.000127032 0.000198488 0.000285823 0.000389036 0.000508129 0.000645867 0.000805017 0.000985579 0.00118755 0.00141094 0.00165573 0.00192194 0.00220956 0.00251199 0.00282262 0.00314146 0.00346851 0.00380376 0.00414721 0.00449887 0.00485874 0.00522023 0.00557677 0.00592835 0.00627498 0.00661665 0.00695337 0.00728513 0.00761194 0.00793033 0.00823682 0.00853141 0.00881411 0.00908491 0.00934382 0.00959084 0.00982595 0.0100484 0.0102572 0.0104525 0.0106342 0.0108024 0.0109571 0.0110982 0.0112257 0.0113404 0.011443 0.0115335 0.0116118 0.011678 0.011732 0.011774 0.0118038 0.0118225 0.0118314 0.0118303 0.0118194 0.0117985 0.0117677 0.011727 0.0116763 0.0116166 0.0115484 0.0114718 0.0113867 0.0112933 0.0111915 0.0110813 0.0109626 0.0108359 0.0107013 0.0105588 0.0104085 0.0102503 0.0100843 0.00991039 0.00972865 0.00953934 0.0093427 0.00913876 0.00892749 0.00870891 0.00848302 0.00824981 0.00800928 0.00776249 0.00751045 0.00725319 0.00699069 0.00672296 0.00645 0.00617181 0.00588838 0.00560228 0.00531605 0.00502971 0.00474324 0.00445665 0.00416994 0.0038831 0.00359615 0.00331342 0.00303924 0.00277362 0.00251657 0.00226807 0.00202813 0.00179676 0.00157394 0.00136359 0.00116963 0.000992049 0.000830852 0.000686038 0.000557607 0.000445559 0.000349894 0.000267887 0.000196815 0.000136677 8.74735e-05 4.92038e-05 2.18684e-05 5.46709e-06 0 0 9.63301e-06 3.85321e-05 8.66971e-05 0.000154128 0.000240825 0.000346788 0.000472018 0.000616513 0.00078328 0.000975325 0.00119265 0.00143525 0.00170313 0.00199629 0.00231472 0.00265844 0.00301959 0.00339035 0.0037707 0.00416066 0.00456022 0.00496939 0.00538815 0.00581652 0.00624675 0.00667111 0.0070896 0.00750222 0.00790896 0.00830983 0.00870483 0.00909396 0.0094731 0.00983815 0.0101891 0.010526 0.0108488 0.0111575 0.011452 0.0117326 0.011998 0.0122473 0.0124805 0.0126976 0.0128986 0.0130835 0.0132524 0.0134051 0.0135425 0.0136655 0.013774 0.013868 0.0139476 0.0140127 0.0140633 0.0140995 0.0141225 0.0141336 0.0141329 0.0141203 0.0140958 0.0140595 0.0140112 0.0139512 0.0138801 0.013799 0.0137077 0.0136064 0.0134951 0.0133736 0.0132421 0.0131005 0.0129491 0.0127884 0.0126183 0.0124388 0.0122499 0.0120516 0.011844 0.0116269 0.0114008 0.011166 0.0109225 0.0106703 0.0104094 0.0101398 0.00986145 0.00957442 0.00927995 0.00897929 0.00867242 0.00835937 0.00804011 0.00771467 0.00738303 0.00704519 0.00670418 0.00636304 0.00602175 0.00568032 0.00533875 0.00499704 0.00465519 0.0043132 0.00397617 0.0036492 0.00333229 0.00302545 0.00272867 0.00244196 0.0021653 0.00189872 0.00164685 0.00141435 0.00120123 0.00100748 0.000833112 0.000678115 0.000542492 0.000426244 0.000326343 0.000239762 0.000166502 0.000106561 5.99405e-05 2.66402e-05 6.66006e-06 0 0 1.15223e-05 4.6089e-05 0.0001037 0.000184356 0.000288056 0.000414801 0.00056459 0.000737424 0.000936494 0.00116499 0.00142291 0.00171027 0.00202704 0.00237325 0.00274888 0.00315394 0.00357925 0.00401564 0.00446311 0.00492165 0.00539127 0.00587197 0.00636374 0.00686659 0.00737155 0.00786964 0.00836087 0.00884524 0.00932274 0.00979339 0.0102572 0.0107141 0.0111593 0.0115881 0.0120004 0.0123963 0.0127757 0.0131387 0.0134851 0.0138152 0.0141275 0.014421 0.0146957 0.0149514 0.0151883 0.0154064 0.0156056 0.0157859 0.0159483 0.0160937 0.016222 0.0163334 0.0164277 0.016505 0.0165653 0.0166086 0.0166363 0.0166501 0.0166498 0.0166355 0.0166073 0.016565 0.0165087 0.0164383 0.016355 0.0162598 0.0161527 0.0160337 0.0159028 0.0157599 0.0156051 0.0154384 0.0152603 0.015071 0.0148707 0.0146593 0.0144369 0.0142034 0.0139588 0.0137031 0.0134368 0.0131603 0.0128736 0.0125767 0.0122696 0.0119522 0.0116247 0.0112869 0.0109404 0.0105867 0.0102257 0.00985754 0.00948212 0.00909947 0.00870958 0.00831246 0.00791165 0.00751067 0.00710953 0.00670823 0.00630676 0.00590514 0.00550335 0.00510141 0.00470521 0.00432068 0.00394781 0.00358661 0.00323708 0.00289921 0.002573 0.00225847 0.00196106 0.00168624 0.00143402 0.00120439 0.00099736 0.00081292 0.000651074 0.000511822 0.000391863 0.0002879 0.00019993 0.000127955 7.19749e-05 3.19889e-05 7.99721e-06 0 0 1.36072e-05 5.4429e-05 0.000122465 0.000217716 0.000340181 0.000489861 0.000666755 0.000870864 0.00110551 0.00137401 0.00167638 0.0020126 0.00238268 0.00278662 0.00322442 0.00369607 0.00419098 0.00469851 0.00521867 0.00575146 0.00629689 0.00685494 0.00742563 0.00800895 0.00859461 0.00917235 0.00974217 0.0103041 0.010858 0.011404 0.0119421 0.0124723 0.012989 0.0134867 0.0139654 0.0144251 0.0148658 0.0152875 0.0156901 0.0160738 0.016437 0.0167784 0.017098 0.0173957 0.0176716 0.0179256 0.0181578 0.0183682 0.0185578 0.0187275 0.0188775 0.0190078 0.0191182 0.0192089 0.0192798 0.0193309 0.019364 0.0193807 0.0193811 0.0193652 0.0193329 0.0192842 0.0192192 0.0191379 0.0190414 0.018931 0.0188067 0.0186685 0.0185164 0.0183503 0.0181704 0.0179765 0.0177692 0.0175491 0.017316 0.0170701 0.0168112 0.0165395 0.0162548 0.0159573 0.0156474 0.0153257 0.0149921 0.0146467 0.0142895 0.0139204 0.0135395 0.0131467 0.0127439 0.0123327 0.0119131 0.0114852 0.011049 0.0106044 0.0101515 0.0096902 0.00922466 0.00875894 0.00829304 0.00782695 0.00736068 0.00689423 0.00642759 0.00596077 0.00550054 0.00505368 0.00462019 0.00420005 0.00379329 0.00339989 0.00301986 0.00265319 0.00230623 0.0019853 0.00169042 0.00142158 0.00117878 0.000962023 0.000771305 0.000606627 0.000464449 0.000341228 0.000236964 0.000151657 8.5307e-05 3.79142e-05 9.47855e-06 0 0 1.5888e-05 6.35519e-05 0.000142992 0.000254208 0.000397199 0.000571967 0.000778511 0.00101683 0.00129032 0.00160239 0.00195303 0.00234225 0.00277003 0.00323639 0.00374133 0.00428483 0.00485476 0.00543895 0.0060374 0.00665011 0.00727709 0.00791832 0.00857383 0.00924359 0.00991595 0.0105792 0.0112335 0.0118786 0.0125147 0.0131418 0.0137597 0.0143686 0.0149621 0.0155339 0.016084 0.0166123 0.0171189 0.0176038 0.018067 0.0185084 0.0189265 0.0193195 0.0196875 0.0200305 0.0203484 0.0206413 0.0209092 0.021152 0.0213709 0.0215671 0.0217406 0.0218913 0.0220192 0.0221244 0.0222069 0.0222666 0.0223056 0.0223256 0.0223268 0.0223091 0.0222726 0.0222172 0.0221429 0.0220498 0.0219392 0.0218125 0.0216697 0.0215109 0.0213359 0.0211449 0.0209379 0.0207147 0.0204761 0.0202226 0.0199542 0.019671 0.0193729 0.0190599 0.0187321 0.0183895 0.0180326 0.0176621 0.017278 0.0168803 0.0164691 0.0160443 0.0156059 0.0151539 0.0146903 0.0142172 0.0137346 0.0132424 0.0127407 0.0122295 0.0117087 0.0111784 0.0106432 0.0101079 0.00957227 0.00903649 0.0085005 0.0079643 0.0074279 0.0068913 0.00636217 0.00584821 0.00534941 0.00486578 0.00439731 0.00394401 0.00350587 0.00308289 0.00268236 0.00231154 0.00197044 0.00165905 0.00137738 0.00112542 0.000903184 0.000710661 0.0005441 0.000399747 0.000277602 0.000177665 9.99367e-05 4.44163e-05 1.11041e-05 0 0 1.83645e-05 7.34578e-05 0.00016528 0.000293831 0.000459111 0.000661121 0.000899859 0.00117533 0.00149094 0.00185013 0.00225289 0.00269921 0.00318911 0.00372258 0.00429962 0.00492022 0.0055706 0.00623696 0.00691928 0.00761758 0.00833186 0.0090621 0.00980833 0.0105705 0.0113356 0.0120903 0.0128348 0.013569 0.014293 0.0150066 0.01571 0.0164031 0.0170787 0.0177298 0.0183562 0.018958 0.0195352 0.0200878 0.0206157 0.0211191 0.0215959 0.0220443 0.0224642 0.0228557 0.0232187 0.0235533 0.0238595 0.0241373 0.0243878 0.0246124 0.0248111 0.0249839 0.0251307 0.0252516 0.0253466 0.0254157 0.025461 0.0254847 0.0254868 0.0254674 0.0254264 0.0253639 0.0252798 0.025174 0.0250483 0.0249042 0.0247417 0.0245608 0.0243615 0.0241437 0.0239076 0.023653 0.0233807 0.0230915 0.0227853 0.0224621 0.0221219 0.0217648 0.0213907 0.0209996 0.0205922 0.0201695 0.0197312 0.0192776 0.0188084 0.0183239 0.0178238 0.0173083 0.0167797 0.0162403 0.0156901 0.0151291 0.0145573 0.0139747 0.0133813 0.0127771 0.0121674 0.0115574 0.0109472 0.0103368 0.00972622 0.00911537 0.00850429 0.00789298 0.00729009 0.00670426 0.00613549 0.00558378 0.00504914 0.00453155 0.00403103 0.00354757 0.00308945 0.00266494 0.00227406 0.00191679 0.00159315 0.00130312 0.00104671 0.000823922 0.000630815 0.000463456 0.000321845 0.000205981 0.000115864 5.14951e-05 1.28738e-05 0 0 2.09914e-05 8.39657e-05 0.000188923 0.000335863 0.000524786 0.000755691 0.00102858 0.00134345 0.0017037 0.00211271 0.00257049 0.00307704 0.00363236 0.00423644 0.0048893 0.00559092 0.00632578 0.00707836 0.00784867 0.0086367 0.00944245 0.0102659 0.0111071 0.011966 0.012828 0.0136785 0.0145174 0.0153448 0.0161606 0.0169648 0.0177576 0.0185387 0.0193003 0.0200343 0.0207406 0.0214194 0.0220704 0.0226939 0.0232897 0.023858 0.0243964 0.0249028 0.0253772 0.0258196 0.02623 0.0266085 0.0269549 0.0272693 0.0275531 0.0278077 0.028033 0.028229 0.0283958 0.0285333 0.0286416 0.0287205 0.0287727 0.0288004 0.0288037 0.0287826 0.0287371 0.0286671 0.0285727 0.0284539 0.0283125 0.0281502 0.027967 0.027763 0.0275381 0.0272924 0.0270257 0.0267383 0.0264307 0.026104 0.0257581 0.025393 0.0250087 0.0246052 0.0241825 0.0237406 0.0232804 0.0228028 0.0223078 0.0217954 0.0212656 0.0207183 0.0201537 0.0195716 0.0189748 0.0183659 0.0177449 0.0171118 0.0164665 0.0158091 0.0151397 0.0144581 0.0137703 0.0130822 0.012394 0.0117054 0.0110166 0.0103275 0.00963819 0.0089486 0.00826839 0.0076072 0.00696502 0.00634185 0.0057377 0.00515256 0.00458644 0.00403933 0.00352057 0.0030395 0.00259611 0.00219041 0.00182239 0.00149206 0.00119942 0.000944459 0.000723101 0.000531258 0.000368929 0.000236115 0.000132815 5.90287e-05 1.47572e-05 0 0 2.37236e-05 9.48944e-05 0.000213513 0.000379578 0.00059309 0.00085405 0.00116246 0.00151831 0.00192493 0.00238563 0.00290042 0.00346929 0.00409224 0.00476927 0.00550039 0.00628559 0.00710756 0.007949 0.0088099 0.00969027 0.0105901 0.0115094 0.0124482 0.0134064 0.0143679 0.0153166 0.0162524 0.0171754 0.0180855 0.0189828 0.0198672 0.0207387 0.0215885 0.0224075 0.0231959 0.0239536 0.0246806 0.0253769 0.0260424 0.0266773 0.0272791 0.0278452 0.0283756 0.0288705 0.0293297 0.0297533 0.0301413 0.0304936 0.0308118 0.0310972 0.03135 0.0315702 0.0317576 0.0319124 0.0320344 0.0321238 0.0321832 0.0322152 0.0322199 0.0321972 0.0321471 0.0320697 0.0319649 0.0318327 0.0316752 0.0314943 0.03129 0.0310623 0.0308111 0.0305366 0.0302387 0.0299174 0.0295736 0.0292083 0.0288216 0.0284134 0.0279837 0.0275325 0.0270598 0.0265656 0.026051 0.025517 0.0249636 0.0243907 0.0237985 0.0231868 0.0225558 0.0219053 0.0212384 0.020558 0.0198642 0.0191569 0.0184362 0.017702 0.0169544 0.0161933 0.0154253 0.014657 0.0138884 0.0131195 0.0123503 0.0115808 0.010811 0.0100409 0.00928118 0.00854241 0.00782461 0.00712779 0.00645195 0.00579708 0.0051632 0.0045503 0.00396881 0.00342918 0.0029314 0.00247547 0.0020614 0.00168919 0.00135883 0.00107032 0.000819463 0.000602054 0.000418093 0.00026758 0.000150514 6.68949e-05 1.67237e-05 0 0 2.6561e-05 0.000106244 0.000239049 0.000424976 0.000664026 0.000956197 0.00130149 0.00169991 0.00215464 0.00266889 0.00324266 0.00387594 0.00456874 0.00532105 0.00613289 0.00700423 0.00791594 0.00884885 0.00980297 0.0107783 0.0117748 0.0127926 0.0138315 0.0148916 0.0159553 0.0170047 0.0180399 0.019061 0.0200678 0.0210604 0.0220388 0.023003 0.0239431 0.0248495 0.025722 0.0265607 0.0273656 0.0281366 0.0288738 0.0295772 0.030244 0.0308714 0.0314596 0.0320083 0.0325178 0.0329878 0.0334186 0.03381 0.0341636 0.034481 0.0347623 0.0350073 0.0352162 0.0353888 0.0355253 0.0356256 0.0356925 0.0357291 0.0357353 0.0357111 0.0356565 0.0355716 0.0354562 0.0353104 0.0351365 0.0349365 0.0347105 0.0344585 0.0341805 0.0338764 0.0335464 0.0331903 0.0328093 0.0324044 0.0319757 0.0315232 0.0310468 0.0305466 0.0300225 0.0294746 0.028904 0.028312 0.0276985 0.0270636 0.0264072 0.0257294 0.02503 0.0243093 0.0235704 0.0228166 0.022048 0.0212646 0.0204664 0.0196533 0.0188254 0.0179827 0.0171323 0.0162816 0.0154306 0.0145792 0.0137274 0.0128753 0.0120228 0.01117 0.0103285 0.00950987 0.00871425 0.00794158 0.00719187 0.00646511 0.00576131 0.00508047 0.00443416 0.00383398 0.00327993 0.00277199 0.00231019 0.0018945 0.00152494 0.0012015 0.0009199 0.000675845 0.000469337 0.000300376 0.000168961 7.50939e-05 1.87735e-05 0 0 2.95036e-05 0.000118015 0.000265533 0.000472058 0.000737591 0.00106213 0.00144568 0.00188823 0.00239283 0.00296249 0.00359721 0.00429701 0.00506187 0.0058918 0.0067868 0.00774686 0.00875093 0.00977794 0.0108279 0.0119008 0.0129966 0.0141154 0.0152571 0.0164217 0.01759 0.0187428 0.0198799 0.0210014 0.0221073 0.0231977 0.0242724 0.0253315 0.0263644 0.0273602 0.028319 0.0292407 0.0301255 0.0309732 0.0317839 0.0325575 0.0332911 0.0339816 0.0346289 0.0352331 0.0357942 0.0363121 0.0367869 0.0372185 0.0376087 0.0379591 0.0382697 0.0385405 0.0387715 0.0389627 0.0391141 0.0392257 0.0393006 0.0393421 0.03935 0.0393244 0.0392653 0.0391728 0.0390467 0.038887 0.0386963 0.0384769 0.0382287 0.0379518 0.0376462 0.0373119 0.0369488 0.0365571 0.0361378 0.0356923 0.0352205 0.0347224 0.0341981 0.0336475 0.0330707 0.0324675 0.0318395 0.0311879 0.0305127 0.029814 0.0290918 0.0283459 0.0275765 0.0267836 0.0259708 0.0251417 0.0242964 0.0234348 0.0225571 0.021663 0.0207528 0.0198263 0.0188915 0.0179562 0.0170205 0.0160844 0.0151479 0.0142109 0.0132736 0.0123358 0.0114102 0.0105096 0.00963394 0.00878323 0.00795746 0.00715664 0.00638077 0.00562984 0.00491663 0.00425392 0.0036417 0.00307997 0.00256874 0.002108 0.00169776 0.00133801 0.00102441 0.00075263 0.00052266 0.000334502 0.000188158 8.36256e-05 2.09064e-05 0 0 3.25515e-05 0.000130206 0.000292963 0.000520824 0.000813787 0.00117185 0.00159502 0.0020833 0.00263949 0.00326642 0.00396408 0.00473249 0.00557163 0.0064815 0.00746211 0.00851346 0.00961252 0.0107362 0.0118846 0.0130577 0.0142554 0.0154779 0.0167249 0.0179967 0.0192723 0.0205308 0.0217723 0.0229968 0.0242043 0.0253947 0.0265681 0.0277244 0.0288521 0.0299396 0.0309867 0.0319936 0.0329602 0.0338865 0.0347726 0.0356184 0.0364205 0.0371756 0.0378838 0.0385449 0.039159 0.0397261 0.0402462 0.0407193 0.0411471 0.0415314 0.0418723 0.0421697 0.0424235 0.0426339 0.0428008 0.0429242 0.0430075 0.0430541 0.043064 0.0430371 0.0429736 0.0428733 0.0427363 0.0425625 0.0423547 0.0421153 0.0418445 0.0415421 0.0412083 0.0408429 0.0404461 0.0400177 0.0395592 0.0390719 0.0385559 0.0380111 0.0374376 0.0368353 0.0362042 0.0355444 0.0348574 0.0341446 0.0334062 0.032642 0.0318521 0.0310365 0.0301953 0.0293283 0.0284396 0.0275332 0.0266092 0.0256675 0.0247082 0.0237312 0.0227365 0.0217241 0.0207027 0.0196807 0.0186582 0.0176352 0.0166117 0.0155878 0.0145632 0.0135382 0.0125264 0.0115416 0.0105837 0.00965274 0.00874874 0.00787168 0.00702158 0.00619842 0.00541621 0.00468898 0.00401671 0.0033994 0.00283706 0.00232969 0.00187728 0.00147984 0.001133 0.000832409 0.000578062 0.00036996 0.000208102 9.24899e-05 2.31225e-05 0 0 3.57046e-05 0.000142818 0.000321341 0.000571273 0.000892614 0.00128536 0.00174952 0.00228509 0.00289463 0.00358069 0.00434327 0.00518238 0.00609801 0.00709016 0.00815884 0.00930405 0.0105007 0.0117238 0.0129732 0.0142491 0.0155514 0.01688 0.0182351 0.0196165 0.0210019 0.0223688 0.0237172 0.0250471 0.0263585 0.0276514 0.0289257 0.0301816