<?xml version="1.0"?> 
<VTKFile type="StructuredGrid" version="0.1"> 
<StructuredGrid WholeExtent="0 128 0 128 0 0"> 
<Piece Extent="0 128 0 128 0 0"> 
<PointData>
<DataArray type="Float32" Name="u" format="ascii" NumberOfComponents="1"> 
0 0 0 0 0 0 0 0 0 0 0 0 0 0 0 0 0 0 0 0 0 0 0 0 0 0 0 0 0 0 0 0 0 0 0 0 0 0 0 0 0 0 0 0 0 0 0 0 0 0 0 0 0 0 0 0 0 0 0 0 0 0 0 0 0 0 0 0 0 0 0 0 0 0 0 0 0 0 0 0 0 0 0 0 0 0 0 0 0 0 0 0 0 0 0 0 0 0 0 0 0 0 0 0 0 0 0 0 0 0 0 0 0 0 0 0 0 0 0 0 0 0 0 0 0 0 0 0 0 0 -6.30172e-09 -2.52069e-08 -5.67155e-08 -1.00828e-07 -1.57543e-07 -2.26862e-07 -3.08784e-07 -4.0331e-07 -4.44509e-07 -3.66451e-07 -1.69135e-07 1.47437e-07 5.83268e-07 1.13836e-06 1.8127e-06 2.6063e-06 3.51083e-06 4.51794e-06 5.62764e-06 6.83992e-06 8.15479e-06 9.57225e-06 1.10923e-05 1.27149e-05 1.43677e-05 1.59781e-05 1.75462e-05 1.90719e-05 2.05553e-05 2.19963e-05 2.3395e-05 2.47514e-05 2.60065e-05 2.71013e-05 2.80358e-05 2.88101e-05 2.94241e-05 2.98778e-05 3.01713e-05 3.03046e-05 3.02859e-05 3.01238e-05 2.98183e-05 2.93693e-05 2.87768e-05 2.80408e-05 2.71614e-05 2.61385e-05 2.5042e-05 2.39415e-05 2.28371e-05 2.17289e-05 2.06167e-05 1.95006e-05 1.83806e-05 1.72567e-05 1.61958e-05 1.52648e-05 1.44636e-05 1.37922e-05 1.32507e-05 1.28391e-05 1.25573e-05 1.24053e-05 1.23842e-05 1.24949e-05 1.27374e-05 1.31118e-05 1.3618e-05 1.42561e-05 1.5026e-05 1.59277e-05 1.68968e-05 1.78691e-05 1.88445e-05 1.9823e-05 2.08045e-05 2.17892e-05 2.27769e-05 2.37678e-05 2.46946e-05 2.54903e-05 2.61549e-05 2.66883e-05 2.70905e-05 2.73616e-05 2.75016e-05 2.75104e-05 2.738e-05 2.71024e-05 2.66776e-05 2.61056e-05 2.53864e-05 2.452e-05 2.35064e-05 2.23455e-05 2.10927e-05 1.98033e-05 1.84772e-05 1.71144e-05 1.5715e-05 1.4279e-05 1.28062e-05 1.12969e-05 9.81729e-06 8.43401e-06 7.14701e-06 5.95629e-06 4.86186e-06 3.86372e-06 2.96185e-06 2.15628e-06 1.453e-06 8.58056e-07 3.71437e-07 -6.85296e-09 -2.76816e-07 -4.38451e-07 -4.91758e-07 -4.36737e-07 -3.34377e-07 -2.45665e-07 -1.70601e-07 -1.09184e-07 -6.14162e-08 -2.72961e-08 -6.82402e-09 0 0 -2.52069e-08 -1.00828e-07 -2.26862e-07 -4.0331e-07 -6.30172e-07 -9.07448e-07 -1.23514e-06 -1.61324e-06 -1.77804e-06 -1.4658e-06 -6.76542e-07 5.8975e-07 2.33307e-06 4.55342e-06 7.2508e-06 1.04252e-05 1.40433e-05 1.80717e-05 2.25105e-05 2.73597e-05 3.26192e-05 3.8289e-05 4.43692e-05 5.08597e-05 5.74708e-05 6.39124e-05 7.01847e-05 7.62876e-05 8.22212e-05 8.79854e-05 9.35802e-05 9.90056e-05 0.000104026 0.000108405 0.000112143 0.00011524 0.000117696 0.000119511 0.000120685 0.000121218 0.000121144 0.000120495 0.000119273 0.000117477 0.000115107 0.000112163 0.000108646 0.000104554 0.000100168 9.5766e-05 9.13485e-05 8.69154e-05 8.24667e-05 7.80024e-05 7.35225e-05 6.9027e-05 6.47834e-05 6.10591e-05 5.78543e-05 5.51689e-05 5.30029e-05 5.13562e-05 5.0229e-05 4.96212e-05 4.95367e-05 4.99796e-05 5.09498e-05 5.24473e-05 5.44722e-05 5.70243e-05 6.01038e-05 6.37107e-05 6.75874e-05 7.14765e-05 7.5378e-05 7.92918e-05 8.32181e-05 8.71568e-05 9.11078e-05 9.50712e-05 9.87786e-05 0.000101961 0.000104619 0.000106753 0.000108362 0.000109446 0.000110006 0.000110042 0.00010952 0.00010841 0.000106711 0.000104423 0.000101546 9.808e-05 9.40254e-05 8.9382e-05 8.43709e-05 7.92131e-05 7.39087e-05 6.84577e-05 6.28601e-05 5.71158e-05 5.12249e-05 4.51874e-05 3.92691e-05 3.3736e-05 2.8588e-05 2.38252e-05 1.94475e-05 1.54549e-05 1.18474e-05 8.6251e-06 5.81201e-06 3.43222e-06 1.48575e-06 -2.74119e-08 -1.10726e-06 -1.7538e-06 -1.96703e-06 -1.74695e-06 -1.33751e-06 -9.82659e-07 -6.82402e-07 -4.36737e-07 -2.45665e-07 -1.09184e-07 -2.72961e-08 0 0 -5.67155e-08 -2.26862e-07 -5.1044e-07 -9.07448e-07 -1.41789e-06 -2.04176e-06 -2.77906e-06 -3.62979e-06 -4.00058e-06 -3.29806e-06 -1.52222e-06 1.32694e-06 5.24941e-06 1.02452e-05 1.63143e-05 2.34567e-05 3.15974e-05 4.06614e-05 5.06487e-05 6.15593e-05 7.33931e-05 8.61503e-05 9.98307e-05 0.000114434 0.000129309 0.000143803 0.000157916 0.000171647 0.000184998 0.000197967 0.000210555 0.000222763 0.000234058 0.000243911 0.000252322 0.000259291 0.000264817 0.000268901 0.000271542 0.000272741 0.000272573 0.000271115 0.000268365 0.000264323 0.000258991 0.000252367 0.000244453 0.000235247 0.000225378 0.000215473 0.000205534 0.00019556 0.00018555 0.000175505 0.000165426 0.000155311 0.000145763 0.000137383 0.000130172 0.00012413 0.000119256 0.000115552 0.000113015 0.000111648 0.000111458 0.000112454 0.000114637 0.000118006 0.000122562 0.000128305 0.000135234 0.000143349 0.000152072 0.000160822 0.0001696 0.000178407 0.000187241 0.000196103 0.000204993 0.00021391 0.000222252 0.000229413 0.000235394 0.000240194 0.000243815 0.000246255 0.000247514 0.000247593 0.00024642 0.000243922 0.000240099 0.000234951 0.000228478 0.00022068 0.000211557 0.00020111 0.000189835 0.00017823 0.000166295 0.00015403 0.000141435 0.000128511 0.000115256 0.000101672 8.83556e-05 7.59061e-05 6.43231e-05 5.36066e-05 4.37568e-05 3.47735e-05 2.66567e-05 1.94065e-05 1.3077e-05 7.7225e-06 3.34294e-06 -6.16767e-08 -2.49134e-06 -3.94606e-06 -4.42582e-06 -3.93064e-06 -3.00939e-06 -2.21098e-06 -1.5354e-06 -9.82659e-07 -5.52746e-07 -2.45665e-07 -6.14162e-08 0 0 -1.00828e-07 -4.0331e-07 -9.07448e-07 -1.61324e-06 -2.52069e-06 -3.62979e-06 -4.94055e-06 -6.45297e-06 -7.11215e-06 -5.86322e-06 -2.70617e-06 2.359e-06 9.33228e-06 1.82137e-05 2.90032e-05 4.17008e-05 5.61732e-05 7.2287e-05 9.00422e-05 0.000109439 0.000130477 0.000153156 0.000177477 0.000203439 0.000229883 0.00025565 0.000280739 0.000305151 0.000328885 0.000351941 0.000374321 0.000396022 0.000416103 0.00043362 0.000448573 0.000460961 0.000470785 0.000478045 0.000482741 0.000484873 0.000484575 0.000481981 0.000477092 0.000469908 0.000460428 0.000448653 0.000434582 0.000418216 0.000400671 0.000383064 0.000365394 0.000347662 0.000329867 0.00031201 0.00029409 0.000276108 0.000259133 0.000244237 0.000231417 0.000220676 0.000212011 0.000205425 0.000200916 0.000198485 0.000198147 0.000199918 0.000203799 0.000209789 0.000217889 0.000228097 0.000240415 0.000254843 0.00027035 0.000285906 0.000301512 0.000317167 0.000332872 0.000348627 0.000364431 0.000380285 0.000395114 0.000407845 0.000418478 0.000427012 0.000433448 0.000437786 0.000440025 0.000440166 0.00043808 0.000433639 0.000426842 0.00041769 0.000406183 0.00039232 0.000376102 0.000357528 0.000337484 0.000316853 0.000295635 0.000273831 0.00025144 0.000228463 0.0002049 0.00018075 0.000157077 0.000134944 0.000114352 9.53007e-05 7.77898e-05 6.18195e-05 4.73897e-05 3.45004e-05 2.3248e-05 1.37289e-05 5.943e-06 -1.09647e-07 -4.42905e-06 -7.01521e-06 -7.86813e-06 -6.9878e-06 -5.35003e-06 -3.93064e-06 -2.72961e-06 -1.74695e-06 -9.82659e-07 -4.36737e-07 -1.09184e-07 0 0 -1.57543e-07 -6.30172e-07 -1.41789e-06 -2.52069e-06 -3.93858e-06 -5.67155e-06 -7.71961e-06 -1.00828e-05 -1.11127e-05 -9.16127e-06 -4.22838e-06 3.68594e-06 1.45817e-05 2.84589e-05 4.53175e-05 6.51575e-05 8.77706e-05 0.000112948 0.000140691 0.000170998 0.00020387 0.000239306 0.000277308 0.000317873 0.000359192 0.000399453 0.000438654 0.000476798 0.000513882 0.000549908 0.000584876 0.000618785 0.000650161 0.000677531 0.000700895 0.000720252 0.000735602 0.000746946 0.000754283 0.000757614 0.000757148 0.000753096 0.000745457 0.000734231 0.000719419 0.00070102 0.000679035 0.000653463 0.000626049 0.000598537 0.000570928 0.000543221 0.000515417 0.000487515 0.000459516 0.000431419 0.000404896 0.00038162 0.000361589 0.000344806 0.000331268 0.000320976 0.000313931 0.000310132 0.000309604 0.000312372 0.000318436 0.000327796 0.000340451 0.000356402 0.000375649 0.000398192 0.000422421 0.000446728 0.000471112 0.000495574 0.000520113 0.00054473 0.000569424 0.000594195 0.000617366 0.000637258 0.000653872 0.000667207 0.000677263 0.00068404 0.000687539 0.00068776 0.0006845 0.000677561 0.000666941 0.000652641 0.000634661 0.000613 0.000587659 0.000558638 0.000527318 0.000495082 0.00046193 0.000427861 0.000392876 0.000356974 0.000320156 0.000282421 0.000245432 0.00021085 0.000178675 0.000148907 0.000121547 9.65929e-05 7.40464e-05 5.39069e-05 3.6325e-05 2.14514e-05 9.28594e-06 -1.71324e-07 -6.92039e-06 -1.09613e-05 -1.22939e-05 -1.09184e-05 -8.35943e-06 -6.14162e-06 -4.26501e-06 -2.72961e-06 -1.5354e-06 -6.82402e-07 -1.70601e-07 0 0 -2.26862e-07 -9.07448e-07 -2.04176e-06 -3.62979e-06 -5.67155e-06 -8.16703e-06 -1.11162e-05 -1.45192e-05 -1.60023e-05 -1.31922e-05 -6.08887e-06 5.30775e-06 2.09976e-05 4.09808e-05 6.52572e-05 9.38269e-05 0.00012639 0.000162646 0.000202595 0.000246237 0.000293573 0.000344601 0.000399323 0.000457738 0.000517237 0.000575212 0.000631662 0.000686589 0.000739991 0.000791868 0.000842221 0.00089105 0.000936233 0.000975645 0.00100929 0.00103716 0.00105927 0.0010756 0.00108617 0.00109096 0.00109029 0.00108446 0.00107346 0.00105729 0.00103596 0.00100947 0.00097781 0.000940987 0.00090151 0.000861894 0.000822136 0.000782239 0.0007422 0.000702022 0.000661703 0.000621243 0.00058305 0.000549532 0.000520689 0.00049652 0.000477026 0.000462206 0.000452061 0.000446591 0.00044583 0.000449816 0.000458548 0.000472026 0.000490249 0.000513219 0.000540935 0.000573396 0.000608287 0.000643288 0.000678402 0.000713627 0.000748963 0.000784411 0.00081997 0.000855641 0.000889007 0.000917652 0.000941575 0.000960778 0.000975259 0.000985018 0.000990057 0.000990374 0.000985681 0.000975688 0.000960395 0.000939803 0.000913911 0.00088272 0.000846229 0.000804438 0.000759338 0.000712918 0.000665179 0.00061612 0.000565741 0.000514042 0.000461024 0.000406687 0.000353422 0.000303624 0.000257292 0.000214427 0.000175027 0.000139094 0.000106627 7.76259e-05 5.23081e-05 3.089e-05 1.33717e-05 -2.46707e-07 -9.96536e-06 -1.57842e-05 -1.77033e-05 -1.57225e-05 -1.20376e-05 -8.84393e-06 -6.14162e-06 -3.93064e-06 -2.21098e-06 -9.82659e-07 -2.45665e-07 0 0 -3.08784e-07 -1.23514e-06 -2.77906e-06 -4.94055e-06 -7.71961e-06 -1.11162e-05 -1.51304e-05 -1.97622e-05 -2.1781e-05 -1.79561e-05 -8.28763e-06 7.22444e-06 2.85801e-05 5.57794e-05 8.88223e-05 0.000127709 0.00017203 0.000221379 0.000275754 0.000335156 0.000399585 0.00046904 0.000543523 0.000623032 0.000704017 0.000782927 0.000859763 0.000934523 0.00100721 0.00107782 0.00114636 0.00121282 0.00127432 0.00132796 0.00137375 0.00141169 0.00144178 0.00146401 0.0014784 0.00148492 0.00148401 0.00147607 0.0014611 0.00143909 0.00141006 0.001374 0.00133091 0.00128079 0.00122706 0.00117313 0.00111902 0.00106471 0.00101022 0.00095553 0.000900651 0.000845581 0.000793596 0.000747975 0.000708715 0.000675819 0.000649285 0.000629114 0.000615305 0.000607859 0.000606825 0.00061225 0.000624135 0.000642479 0.000667284 0.000698548 0.000736272 0.000780456 0.000827946 0.000875587 0.00092338 0.000971325 0.00101942 0.00106767 0.00111607 0.00116462 0.00121004 0.00124903 0.00128159 0.00130773 0.00132744 0.00134072 0.00134758 0.00134801 0.00134162 0.00132802 0.0013072 0.00127918 0.00124394 0.00120148 0.00115181 0.00109493 0.00103354 0.000970361 0.000905382 0.000838607 0.000770036 0.000699669 0.000627505 0.000553546 0.000481047 0.000413266 0.000350203 0.000291858 0.000238231 0.000189322 0.000145131 0.000105657 7.11971e-05 4.20447e-05 1.82004e-05 -3.35795e-07 -1.3564e-05 -2.14841e-05 -2.40961e-05 -2.14001e-05 -1.63845e-05 -1.20376e-05 -8.35943e-06 -5.35003e-06 -3.00939e-06 -1.33751e-06 -3.34377e-07 0 0 -4.0331e-07 -1.61324e-06 -3.62979e-06 -6.45297e-06 -1.00828e-05 -1.45192e-05 -1.97622e-05 -2.58119e-05 -2.84486e-05 -2.34529e-05 -1.08247e-05 9.436e-06 3.73291e-05 7.28547e-05 0.000116013 0.000166803 0.000224693 0.000289148 0.000360169 0.000437755 0.000521907 0.000612624 0.000709907 0.000813756 0.000919532 0.0010226 0.00112296 0.0012206 0.00131554 0.00140777 0.00149728 0.00158409 0.00166441 0.00173448 0.00179429 0.00184384 0.00188314 0.00191218 0.00193097 0.00193949 0.0019383 0.00192793 0.00190837 0.00187963 0.00184171 0.00179461 0.00173833 0.00167287 0.00160269 0.00153226 0.00146158 0.00139065 0.00131947 0.00124804 0.00117636 0.00110443 0.00103653 0.000976946 0.000925669 0.000882702 0.000848046 0.0008217 0.000803664 0.000793939 0.000792587 0.000799673 0.000815196 0.000839157 0.000871554 0.000912389 0.000961662 0.00101937 0.0010814 0.00114362 0.00120605 0.00126867 0.00133149 0.00139451 0.00145772 0.00152114 0.00158046 0.00163138 0.00167391 0.00170805 0.00173379 0.00175114 0.0017601 0.00176066 0.00175232 0.00173456 0.00170737 0.00167076 0.00162473 0.00156928 0.00150441 0.00143011 0.00134993 0.00126741 0.00118254 0.00109532 0.00100576 0.000913853 0.000819599 0.000722999 0.000628306 0.000539776 0.000457409 0.000381203 0.000311159 0.000247278 0.000189559 0.000138002 9.29921e-05 5.49156e-05 2.3772e-05 -4.3859e-07 -1.77162e-05 -2.80608e-05 -3.14725e-05 -2.79512e-05 -2.14001e-05 -1.57225e-05 -1.09184e-05 -6.9878e-06 -3.93064e-06 -1.74695e-06 -4.36737e-07 0 0 -4.0653e-07 -1.62612e-06 -3.65877e-06 -6.50448e-06 -1.01632e-05 -1.46351e-05 -1.992e-05 -2.60179e-05 -2.76607e-05 -1.95799e-05 -1.77574e-06 2.57519e-05 6.3003e-05 0.000109978 0.000166676 0.000233097 0.000308508 0.000392175 0.000484098 0.000584277 0.000692712 0.000809402 0.000934348 0.00106755 0.00120314 0.00133527 0.00146392 0.0015891 0.00171081 0.00182904 0.00194381 0.0020551 0.00215816 0.00224823 0.00232532 0.00238941 0.00244052 0.00247863 0.00250376 0.00251589 0.00251572 0.00250391 0.00248047 0.00244539 0.00239868 0.00234034 0.00227036 0.00218875 0.00210113 0.00201314 0.00192477 0.00183602 0.0017469 0.0016574 0.00156753 0.00147728 0.00139204 0.00131722 0.00125281 0.00119882 0.00115523 0.00112206 0.0010993 0.00108695 0.00108509 0.00109381 0.0011131 0.00114297 0.00118342 0.00123444 0.00129603 0.0013682 0.00144575 0.0015235 0.00160145 0.0016796 0.00175794 0.00183648 0.00191521 0.00199414 0.00206786 0.00213095 0.00218341 0.00222524 0.00225644 0.00227702 0.00228697 0.00228629 0.00227433 0.00225045 0.00221464 0.00216692 0.00210727 0.00203569 0.00195219 0.00185677 0.00175389 0.001648 0.00153912 0.00142723 0.00131234 0.00119446 0.00107357 0.000949682 0.000828171 0.000714415 0.000608414 0.000510167 0.000419676 0.000336939 0.000261958 0.000194731 0.000135799 8.57028e-05 4.44418e-05 1.20161e-05 -1.15742e-05 -2.63293e-05 -3.22489e-05 -2.93333e-05 -2.24583e-05 -1.65e-05 -1.14583e-05 -7.33332e-06 -4.12499e-06 -1.83333e-06 -4.58332e-07 0 0 -2.14533e-07 -8.58134e-07 -1.9308e-06 -3.43254e-06 -5.36334e-06 -7.7232e-06 -1.05121e-05 -1.37301e-05 -1.10726e-05 3.76527e-06 3.07833e-05 6.99817e-05 0.00012136 0.000184919 0.000260658 0.000348577 0.000447609 0.000556684 0.000675803 0.000804966 0.000944173 0.00109342 0.00125272 0.00142206 0.00159422 0.00176197 0.00192533 0.00208428 0.00223884 0.00238899 0.00253473 0.00267608 0.0028072 0.00292225 0.00302125 0.00310419 0.00317107 0.00322189 0.00325665 0.00327535 0.00327882 0.0032679 0.00324257 0.00320285 0.00314873 0.0030802 0.00299728 0.00289996 0.00279513 0.00268966 0.00258356 0.00247683 0.00236947 0.00226148 0.00215285 0.0020436 0.00194031 0.00184958 0.00177141 0.00170581 0.00165276 0.00161228 0.00158436 0.001569 0.0015663 0.00157638 0.00159922 0.00163484 0.00168322 0.00174438 0.0018183 0.00190499 0.00199812 0.00209133 0.00218464 0.00227805 0.00237154 0.00246513 0.00255881 0.00265259 0.00273984 0.00281396 0.00287494 0.00292279 0.0029575 0.00297907 0.00298751 0.00298281 0.00296419 0.00293085 0.00288278 0.00282 0.0027425 0.00265028 0.00254334 0.00242169 0.00229078 0.00215607 0.00201758 0.00187529 0.00172921 0.00157935 0.00142569 0.00126823 0.00111361 0.000968442 0.000832725 0.000706459 0.000589646 0.000482284 0.000384375 0.000295918 0.000217724 0.000150607 9.45651e-05 4.95995e-05 1.57097e-05 -7.10407e-06 -1.8842e-05 -1.95039e-05 -1.49327e-05 -1.0971e-05 -7.61873e-06 -4.87599e-06 -2.74274e-06 -1.219e-06 -3.04749e-07 0 0 1.72679e-07 6.90716e-07 1.55411e-06 2.76286e-06 4.31698e-06 6.21645e-06 8.46127e-06 1.10515e-05 2.13157e-05 4.65828e-05 8.68526e-05 0.000142125 0.000212401 0.000297679 0.00039796 0.000513244 0.000641994 0.000782673 0.000935282 0.00109982 0.00127629 0.00146469 0.00166502 0.00187727 0.00209274 0.00230272 0.00250719 0.00270616 0.00289963 0.0030876 0.00327007 0.00344704 0.00361152 0.00375654 0.0038821 0.00398818 0.0040748 0.00414196 0.00418965 0.00421787 0.00422762 0.00421989 0.00419469 0.00415201 0.00409185 0.00401421 0.0039191 0.00380651 0.00368467 0.00356182 0.00343795 0.00331307 0.00318717 0.00306026 0.00293234 0.00280339 0.00268132 0.00257401 0.00248146 0.00240367 0.00234064 0.00229236 0.00225885 0.00224009 0.00223623 0.00224738 0.00227356 0.00231476 0.00237098 0.00244222 0.00252848 0.00262976 0.00273849 0.00284711 0.00295562 0.00306402 0.0031723 0.00328047 0.00338853 0.00349647 0.0035964 0.00368042 0.00374851 0.00380069 0.00383696 0.00385731 0.00386174 0.00385025 0.0038219 0.00377575 0.00371179 0.00363002 0.00353044 0.00341306 0.00327786 0.00312487 0.0029606 0.00279162 0.00261792 0.00243951 0.00225637 0.00206852 0.00187594 0.00167865 0.00148463 0.00130186 0.00113034 0.000970079 0.000821069 0.000683313 0.000556811 0.000441562 0.000338767 0.000249627 0.000174142 0.000112312 6.41358e-05 2.96147e-05 8.7484e-06 1.53682e-06 1.17663e-06 8.64462e-07 6.00321e-07 3.84206e-07 2.16116e-07 9.60514e-08 2.40128e-08 0 0 7.55108e-07 3.02043e-06 6.79597e-06 1.20817e-05 1.88777e-05 2.71839e-05 3.70003e-05 4.83269e-05 6.95042e-05 0.000108873 0.000166432 0.000242183 0.000336124 0.000448257 0.000578581 0.000727096 0.000891663 0.00107014 0.00126254 0.00146884 0.00168906 0.0019232 0.00217124 0.0024332 0.00269873 0.0029575 0.00320949 0.00345472 0.00369319 0.00392488 0.00414981 0.00436797 0.00457114 0.0047511 0.00490785 0.00504139 0.00515172 0.00523884 0.00530274 0.00534344 0.0053621 0.00535989 0.00533681 0.00529286 0.00522805 0.00514236 0.00503581 0.00490839 0.00476977 0.00462962 0.00448794 0.00434474 0.00420001 0.00405376 0.00390598 0.00375667 0.00361509 0.00349053 0.00338297 0.00329241 0.00321886 0.00316231 0.00312277 0.00310023 0.00309486 0.00310682 0.00313611 0.00318273 0.00324668 0.00332795 0.00342656 0.00354249 0.00366688 0.00379084 0.00391439 0.00403751 0.00416022 0.0042825 0.00440436 0.0045258 0.00463754 0.00473032 0.00480412 0.00485896 0.00489482 0.00491172 0.00490964 0.0048886 0.00484747 0.00478516 0.00470165 0.00459696 0.00447108 0.00432401 0.00415575 0.0039663 0.00376337 0.00355465 0.00334015 0.00311988 0.00289381 0.00266197 0.00242435 0.00218094 0.00194122 0.00171466 0.00150127 0.00130103 0.00111395 0.000940026 0.000779265 0.000631664 0.000498928 0.000382765 0.000283173 0.000200152 0.000133704 8.38271e-05 5.05222e-05 3.3789e-05 2.58697e-05 1.90063e-05 1.31988e-05 8.44725e-06 4.75158e-06 2.11181e-06 5.27953e-07 0 0 1.53275e-06 6.13101e-06 1.37948e-05 2.4524e-05 3.83188e-05 5.51791e-05 7.51049e-05 9.80961e-05 0.000133493 0.000190635 0.000269522 0.000370154 0.000492531 0.000636654 0.000802522 0.000990135 0.00119662 0.00141909 0.00165757 0.00191203 0.00218249 0.00246895 0.0027714 0.00308984 0.00341218 0.00372632 0.00403225 0.00432998 0.00461951 0.00490083 0.00517395 0.00543887 0.00568604 0.00590592 0.00609851 0.0062638 0.00640181 0.00651252 0.00659594 0.00665207 0.00668227 0.00668789 0.00666895 0.00662542 0.00655733 0.00646466 0.00634741 0.0062056 0.00605041 0.00589306 0.00573353 0.00557184 0.00540799 0.00524196 0.00507377 0.00490341 0.00474162 0.00459912 0.00447593 0.00437203 0.00428743 0.00422213 0.00417613 0.00414942 0.00414221 0.0041547 0.00418688 0.00423875 0.00431032 0.00440158 0.00451254 0.00464319 0.00478327 0.00492252 0.00506094 0.00519853 0.00533529 0.00547121 0.0056063 0.00574057 0.00586326 0.00596367 0.00604177 0.00609758 0.00613109 0.00614231 0.00613123 0.00609785 0.00604089 0.00595907 0.00585239 0.00572084 0.00556442 0.00538315 0.005177 0.004946 0.00469907 0.00444516 0.00418427 0.0039164 0.00364154 0.00335971 0.00307089 0.0027751 0.00248339 0.00220686 0.00194549 0.0016993 0.00146828 0.00125242 0.00105174 0.000866224 0.000698208 0.000550019 0.000421657 0.000313122 0.000224414 0.000155533 0.000106479 7.72526e-05 5.91465e-05 4.34546e-05 3.01768e-05 1.93132e-05 1.08636e-05 4.82829e-06 1.20707e-06 0 0 2.50561e-06 1.00225e-05 2.25505e-05 4.00898e-05 6.26403e-05 9.02021e-05 0.000122775 0.000160359 0.000213282 0.000291869 0.000396121 0.000526039 0.000681622 0.000862869 0.00106978 0.00130236 0.00155686 0.00182953 0.00212037 0.00242939 0.00275658 0.00310194 0.00346548 0.00384719 0.00423308 0.00460917 0.00497545 0.00533192 0.00567859 0.00601545 0.0063425 0.00665975 0.00695623 0.00722101 0.00745408 0.00765543 0.00782508 0.00796302 0.00806924 0.00814376 0.00818813 0.0082039 0.00819109 0.00814968 0.00807968 0.00798109 0.00785391 0.00769814 0.0075266 0.00735213 0.00717472 0.00699438 0.0068111 0.00662488 0.00643572 0.00624363 0.0060609 0.0058998 0.00576034 0.00564252 0.00554634 0.00547181 0.00541891 0.00538765 0.00537827 0.00539101 0.00542586 0.00548283 0.00556191 0.00566311 0.00578643 0.00593186 0.00608768 0.00624215 0.00639528 0.00654707 0.00669751 0.00684661 0.00699436 0.00714077 0.00727356 0.00738046 0.00746145 0.00751656 0.00754576 0.00754908 0.00752649 0.00747801 0.00740217 0.00729749 0.00716398 0.00700164 0.00681047 0.00659046 0.00634162 0.00606395 0.00576771 0.00546315 0.00515027 0.00482907 0.00449956 0.00416173 0.00381558 0.00346112 0.00311114 0.00277844 0.00246303 0.0021649 0.00188406 0.0016205 0.00137423 0.00114524 0.000936605 0.000751389 0.000589594 0.00045122 0.000336266 0.000244733 0.00017662 0.000131928 0.000101007 7.42093e-05 5.15342e-05 3.29819e-05 1.85523e-05 8.24548e-06 2.06137e-06 0 0 3.67369e-06 1.46948e-05 3.30632e-05 5.8779e-05 9.18422e-05 0.000132253 0.000180011 0.000235116 0.00030887 0.000412576 0.000546231 0.000709838 0.000903395 0.0011269 0.00138036 0.00166377 0.00197238 0.00230144 0.00265095 0.00302091 0.00341132 0.00382218 0.00425349 0.00470525 0.00516145 0.00560606 0.0060391 0.00646056 0.00687044 0.00726874 0.00765546 0.0080306 0.00838171 0.00869637 0.00897455 0.00921627 0.00942153 0.00959032 0.00972265 0.00981851 0.00987967 0.00990792 0.00990324 0.00986564 0.00979512 0.00969167 0.0095553 0.00938601 0.00919835 0.00900684 0.00881151 0.00861234 0.00840934 0.0082025 0.00799183 0.00777733 0.00757293 0.00739255 0.00723621 0.00710389 0.00699561 0.00691135 0.00685112 0.00681493 0.00680304 0.00681575 0.00685306 0.00691496 0.00700145 0.00711254 0.00724822 0.0074085 0.00758009 0.00774973 0.00791741 0.00808313 0.00824689 0.00840869 0.00856853 0.00872642 0.00886844 0.00898069 0.00906318 0.00911589 0.00913884 0.00913202 0.00909544 0.00902908 0.00893129 0.00880041 0.00863644 0.00843937 0.00820921 0.00794596 0.00764961 0.00732017 0.00696929 0.00660861 0.00623815 0.0058579 0.00546786 0.00506803 0.00465842 0.00423901 0.00382446 0.00342941 0.00305387 0.00269783 0.0023613 0.00204427 0.00174674 0.00146872 0.00121412 0.000986877 0.000786985 0.000614447 0.00046926 0.000351426 0.000260944 0.000197814 0.000151451 0.00011127 7.72711e-05 4.94535e-05 2.78176e-05 1.23634e-05 3.09085e-06 0 0 5.03698e-06 2.01479e-05 4.53328e-05 8.05917e-05 0.000125925 0.000181331 0.000246812 0.000322367 0.00042026 0.000552754 0.000719851 0.000921551 0.00115785 0.00142876 0.00173426 0.00207437 0.00244319 0.00283483 0.0032493 0.0036866 0.00414672 0.00462966 0.00513543 0.00566402 0.00619727 0.00671699 0.0072232 0.00771588 0.00819505 0.00866069 0.00911281 0.00955142 0.00996248 0.010332 0.0106599 0.0109463 0.0111912 0.0113944 0.0115562 0.0116763 0.0117569 0.0117999 0.0118054 0.0117733 0.0117036 0.0115964 0.0114516 0.0112692 0.0110656 0.0108572 0.0106439 0.0104257 0.0102027 0.00997484 0.0097421 0.0095045 0.00927771 0.00907739 0.00890353 0.00875614 0.00863521 0.00854076 0.00847277 0.00843125 0.00841652 0.00842893 0.00846847 0.00853513 0.00862893 0.00874986 0.00889792 0.0090731 0.00926052 0.00944526 0.00962732 0.00980671 0.00998342 0.0101575 0.0103288 0.0104975 0.0106479 0.0107644 0.0108469 0.0108956 0.0109103 0.0108911 0.0108381 0.0107511 0.0106283 0.0104678 0.0102698 0.010034 0.00976066 0.00944964 0.00910097 0.00871464 0.0083038 0.00788156 0.00744792 0.00700288 0.00654645 0.00607862 0.00559939 0.00510877 0.00462336 0.00415977 0.00371802 0.00329809 0.00289999 0.00252371 0.00216927 0.00183665 0.00153075 0.00125648 0.00101383 0.000802802 0.000623396 0.000475613 0.000359451 0.000274912 0.000210479 0.000154638 0.000107387 6.8728e-05 3.86595e-05 1.7182e-05 4.2955e-06 0 0 6.65651e-06 2.6626e-05 5.99086e-05 0.000106504 0.000166413 0.000239634 0.000326169 0.000426017 0.000552336 0.000718286 0.000923868 0.00116908 0.00145392 0.0017784 0.0021425 0.00254623 0.00298241 0.00344382 0.00393048 0.00444238 0.00497952 0.00554191 0.00612954 0.00674241 0.00736008 0.00796212 0.00854851 0.00911927 0.00967438 0.0102139 0.0107377 0.0112459 0.0117228 0.0121528 0.0125358 0.0128719 0.013161 0.0134032 0.0135984 0.0137467 0.0138503 0.0139114 0.01393 0.0139062 0.0138398 0.0137309 0.0135796 0.0133857 0.0131676 0.0129435 0.0127133 0.012477 0.0122347 0.0119863 0.0117319 0.0114714 0.0112223 0.011002 0.0108106 0.0106481 0.0105143 0.0104095 0.0103334 0.0102862 0.0102682 0.0102799 0.0103211 0.010392 0.0104925 0.0106226 0.0107823 0.0109716 0.0111739 0.0113727 0.011568 0.0117597 0.0119479 0.0121326 0.0123138 0.0124914 0.012648 0.0127664 0.0128465 0.0128883 0.0128918 0.012857 0.0127839 0.0126725 0.0125208 0.0123266 0.0120899 0.0118108 0.0114892 0.0111252 0.0107187 0.0102698 0.0097931 0.00930324 0.00880023 0.00828408 0.00775478 0.00721233 0.00665674 0.006088 0.00552479 0.00498579 0.004471 0.00398042 0.00351404 0.00307188 0.00265393 0.00226018 0.00189666 0.00156938 0.00127834 0.00102355 0.000805001 0.000622693 0.000476628 0.000366805 0.000280835 0.000206328 0.000143283 9.17013e-05 5.1582e-05 2.29253e-05 5.73133e-06 0 0 8.59329e-06 3.43732e-05 7.73396e-05 0.000137493 0.000214832 0.000309358 0.000421071 0.000549971 0.000709987 0.000915052 0.00116517 0.00146033 0.00180054 0.00218579 0.0026161 0.00309145 0.00360316 0.00414251 0.00470952 0.00530417 0.00592648 0.00657644 0.00725405 0.00795931 0.00866942 0.00936158 0.0100358 0.0106921 0.0113304 0.0119508 0.0125532 0.0131377 0.0136869 0.0141836 0.0146276 0.0150191 0.0153581 0.0156444 0.0158782 0.0160594 0.0161904 0.0162739 0.0163096 0.0162977 0.0162382 0.016131 0.0159761 0.0157736 0.0155435 0.015306 0.015061 0.0148085 0.0145486 0.0142813 0.0140064 0.0137242 0.0134537 0.0132142 0.0130058 0.0128285 0.0126821 0.0125669 0.0124826 0.0124294 0.0124077 0.0124179 0.0124601 0.0125342 0.0126402 0.0127781 0.012948 0.0131497 0.0133652 0.0135761 0.0137824 0.0139841 0.0141813 0.0143739 0.0145619 0.0147453 0.014905 0.0150218 0.0150958 0.0151268 0.015115 0.0150602 0.0149626 0.0148221 0.0146365 0.0144033 0.0141228 0.0137948 0.0134193 0.0129963 0.012526 0.0120081 0.011459 0.0108949 0.0103157 0.00972154 0.00911229 0.008488 0.00784867 0.0071943 0.00654571 0.00592373 0.00532834 0.00475956 0.00421738 0.0037018 0.00321282 0.00275045 0.00232199 0.00193475 0.00158874 0.00128396 0.0010204 0.000798067 0.00061696 0.000477078 0.000365263 0.000268356 0.000186358 0.000119269 6.7089e-05 2.98174e-05 7.45434e-06 0 0 1.08473e-05 4.33893e-05 9.76259e-05 0.000173557 0.000271183 0.000390504 0.000531519 0.000694229 0.000893213 0.00114305 0.00144374 0.00179529 0.00219769 0.00265095 0.00315506 0.00371002 0.00430544 0.0049309 0.00558642 0.00627198 0.00698759 0.00773325 0.00850896 0.00931472 0.0101253 0.0109154 0.0116851 0.0124343 0.0131631 0.0138715 0.0145594 0.0152268 0.0158548 0.0164244 0.0169355 0.0173882 0.0177823 0.0181181 0.0183954 0.0186142 0.0187773 0.0188872 0.0189442 0.018948 0.0188988 0.0187965 0.0186412 0.0184328 0.0181933 0.0179447 0.0176871 0.0174204 0.0171446 0.0168597 0.0165658 0.0162629 0.0159719 0.015714 0.0154891 0.0152973 0.0151386 0.015013 0.0149204 0.0148609 0.014835 0.0148431 0.0148853 0.0149616 0.015072 0.0152165 0.015395 0.0156077 0.0158344 0.0160554 0.0162706 0.0164799 0.0166835 0.0168813 0.0170732 0.0172594 0.0174188 0.0175306 0.0175946 0.017611 0.0175797 0.0175008 0.0173741 0.0171998 0.0169753 0.0166982 0.0163684 0.0159859 0.0155508 0.0150631 0.0145226 0.0139296 0.0133016 0.0126566 0.0119945 0.0113153 0.010619 0.00990564 0.0091752 0.00842768 0.00768613 0.00697358 0.00629004 0.00563551 0.00500999 0.00441347 0.00384596 0.00330746 0.00280674 0.0023526 0.00194503 0.00158403 0.0012696 0.00100174 0.000780447 0.000605729 0.000463762 0.000340723 0.000236613 0.000151432 8.51807e-05 3.78581e-05 9.46452e-06 0 0 1.34186e-05 5.36744e-05 0.000120767 0.000214698 0.000335465 0.00048307 0.000657512 0.000858791 0.00110201 0.00140228 0.00175961 0.00217398 0.00264539 0.00317386 0.00375938 0.00440195 0.00508926 0.005809 0.00656118 0.0073458 0.00816286 0.00901235 0.00989428 0.0108086 0.0117277 0.0126236 0.0134963 0.014346 0.0151725 0.0159759 0.0167561 0.0175133 0.0182266 0.0188753 0.0194594 0.0199789 0.0204339 0.0208242 0.02115 0.0214112 0.0216108 0.0217516 0.0218337 0.021857 0.0218217 0.0217276 0.0215748 0.0213632 0.0211169 0.0208596 0.0205915 0.0203125 0.0200226 0.0197218 0.0194101 0.0190875 0.0187769 0.0185012 0.0182605 0.0180547 0.0178838 0.0177478 0.0176467 0.0175806 0.01755 0.0175554 0.0175969 0.0176744 0.017788 0.0179377 0.0181235 0.0183453 0.0185816 0.0188106 0.0190324 0.0192471 0.0194545 0.0196547 0.0198477 0.0200336 0.0201894 0.0202926 0.0203431 0.020341 0.0202862 0.0201787 0.0200185 0.0198056 0.0195374 0.0192111 0.0188268 0.0183844 0.0178839 0.0173254 0.0167088 0.0160341 0.0153208 0.0145882 0.0138364 0.0130653 0.0122749 0.0114652 0.0106363 0.00978814 0.00894604 0.00813536 0.0073561 0.00660828 0.00589187 0.00520689 0.00455333 0.0039312 0.00335092 0.00282292 0.0023472 0.00192375 0.00155258 0.0012337 0.00096709 0.00075276 0.000576332 0.000423428 0.000294047 0.00018819 0.000105857 4.70475e-05 1.17619e-05 0 0 1.63072e-05 6.52286e-05 0.000146764 0.000260914 0.000407679 0.000587057 0.00079905 0.00104366 0.00133639 0.00169275 0.00211275 0.00259638 0.00314364 0.00375453 0.00442906 0.00516722 0.0059546 0.0067768 0.00763381 0.00852564 0.00945228 0.0104137 0.01141 0.0124411 0.0134766 0.0144861 0.0154696 0.0164271 0.0173586 0.0182641 0.0191436 0.0199971 0.0208021 0.0215362 0.0221993 0.0227914 0.0233126 0.0237628 0.0241421 0.0244504 0.0246909 0.0248668 0.0249781 0.0250247 0.0250068 0.0249241 0.0247769 0.024565 0.0243144 0.0240508 0.0237743 0.0234849 0.0231825 0.0228673 0.0225391 0.022198 0.0218687 0.0215761 0.02132 0.0211005 0.0209176 0.0207