<?xml version="1.0"?> 
<VTKFile type="StructuredGrid" version="0.1"> 
<StructuredGrid WholeExtent="0 128 0 128 0 0"> 
<Piece Extent="0 128 0 128 0 0"> 
<PointData>
<DataArray type="Float32" Name="u" format="ascii" NumberOfComponents="1"> 
0 0 0 0 0 0 0 0 0 0 0 0 0 0 0 0 0 0 0 0 0 0 0 0 0 0 0 0 0 0 0 0 0 0 0 0 0 0 0 0 0 0 0 0 0 0 0 0 0 0 0 0 0 0 0 0 0 0 0 0 0 0 0 0 0 0 0 0 0 0 0 0 0 0 0 0 0 0 0 0 0 0 0 0 0 0 0 0 0 0 0 0 0 0 0 0 0 0 0 0 0 0 0 0 0 0 0 0 0 0 0 0 0 0 0 0 0 0 0 0 0 0 0 0 0 0 0 0 0 0 -9.38978e-08 -3.75591e-07 -8.4508e-07 -1.50236e-06 -2.34744e-06 -3.38032e-06 -4.60099e-06 -6.00946e-06 -7.59326e-06 -9.33993e-06 -1.12495e-05 -1.33219e-05 -1.55572e-05 -1.79554e-05 -2.05164e-05 -2.32403e-05 -2.59967e-05 -2.86552e-05 -3.12158e-05 -3.36784e-05 -3.60432e-05 -3.83101e-05 -4.04791e-05 -4.25501e-05 -4.44727e-05 -4.61962e-05 -4.77205e-05 -4.90458e-05 -5.0172e-05 -5.10991e-05 -5.18271e-05 -5.23561e-05 -5.27745e-05 -5.31713e-05 -5.35462e-05 -5.38994e-05 -5.42307e-05 -5.45404e-05 -5.48282e-05 -5.50943e-05 -5.54274e-05 -5.59163e-05 -5.6561e-05 -5.73615e-05 -5.83178e-05 -5.94299e-05 -6.06979e-05 -6.21216e-05 -6.36401e-05 -6.51925e-05 -6.67788e-05 -6.83988e-05 -7.00527e-05 -7.17404e-05 -7.3462e-05 -7.52174e-05 -7.68766e-05 -7.83095e-05 -7.95163e-05 -8.04969e-05 -8.12513e-05 -8.17794e-05 -8.20814e-05 -8.21572e-05 -8.20079e-05 -8.16348e-05 -8.10379e-05 -8.02172e-05 -7.91726e-05 -7.79043e-05 -7.64121e-05 -7.46961e-05 -7.2887e-05 -7.11154e-05 -6.93815e-05 -6.76852e-05 -6.60265e-05 -6.44054e-05 -6.28219e-05 -6.1276e-05 -5.98274e-05 -5.85359e-05 -5.74016e-05 -5.64243e-05 -5.56041e-05 -5.49409e-05 -5.44349e-05 -5.4086e-05 -5.38053e-05 -5.35041e-05 -5.31823e-05 -5.284e-05 -5.24772e-05 -5.20938e-05 -5.16899e-05 -5.12655e-05 -5.07334e-05 -5.00068e-05 -4.90855e-05 -4.79697e-05 -4.66592e-05 -4.51541e-05 -4.34544e-05 -4.15601e-05 -3.95217e-05 -3.73896e-05 -3.51638e-05 -3.28442e-05 -3.0431e-05 -2.79242e-05 -2.53236e-05 -2.26293e-05 -1.99684e-05 -1.74678e-05 -1.51277e-05 -1.29479e-05 -1.09284e-05 -9.06939e-06 -7.37072e-06 -5.83243e-06 -4.46545e-06 -3.28074e-06 -2.27829e-06 -1.45811e-06 -8.20185e-07 -3.64527e-07 -9.11316e-08 0 0 -3.75591e-07 -1.50236e-06 -3.38032e-06 -6.00946e-06 -9.38978e-06 -1.35213e-05 -1.8404e-05 -2.40378e-05 -3.0373e-05 -3.73597e-05 -4.49979e-05 -5.32876e-05 -6.22288e-05 -7.18214e-05 -8.20656e-05 -9.29612e-05 -0.000103987 -0.000114621 -0.000124863 -0.000134714 -0.000144173 -0.00015324 -0.000161916 -0.000170201 -0.000177891 -0.000184785 -0.000190882 -0.000196183 -0.000200688 -0.000204397 -0.000207309 -0.000209424 -0.000211098 -0.000212685 -0.000214185 -0.000215597 -0.000216923 -0.000218161 -0.000219313 -0.000220377 -0.00022171 -0.000223665 -0.000226244 -0.000229446 -0.000233271 -0.00023772 -0.000242791 -0.000248486 -0.000254561 -0.00026077 -0.000267115 -0.000273595 -0.000280211 -0.000286962 -0.000293848 -0.000300869 -0.000307506 -0.000313238 -0.000318065 -0.000321988 -0.000325005 -0.000327118 -0.000328326 -0.000328629 -0.000328032 -0.000326539 -0.000324152 -0.000320869 -0.000316691 -0.000311617 -0.000305648 -0.000298784 -0.000291548 -0.000284462 -0.000277526 -0.000270741 -0.000264106 -0.000257622 -0.000251288 -0.000245104 -0.00023931 -0.000234144 -0.000229606 -0.000225697 -0.000222416 -0.000219764 -0.00021774 -0.000216344 -0.000215221 -0.000214016 -0.000212729 -0.00021136 -0.000209909 -0.000208375 -0.00020676 -0.000205062 -0.000202934 -0.000200027 -0.000196342 -0.000191879 -0.000186637 -0.000180616 -0.000173818 -0.000166241 -0.000158087 -0.000149558 -0.000140655 -0.000131377 -0.000121724 -0.000111697 -0.000101294 -9.05172e-05 -7.98735e-05 -6.98713e-05 -6.05106e-05 -5.17914e-05 -4.37137e-05 -3.62776e-05 -2.94829e-05 -2.33297e-05 -1.78618e-05 -1.3123e-05 -9.11316e-06 -5.83243e-06 -3.28074e-06 -1.45811e-06 -3.64527e-07 0 0 -8.4508e-07 -3.38032e-06 -7.60572e-06 -1.35213e-05 -2.1127e-05 -3.04229e-05 -4.14089e-05 -5.40851e-05 -6.83393e-05 -8.40594e-05 -0.000101245 -0.000119897 -0.000140015 -0.000161598 -0.000184647 -0.000209163 -0.00023397 -0.000257897 -0.000280942 -0.000303106 -0.000324389 -0.000344791 -0.000364312 -0.000382951 -0.000400254 -0.000415766 -0.000429485 -0.000441413 -0.000451548 -0.000459892 -0.000466444 -0.000471205 -0.000474971 -0.000478541 -0.000481916 -0.000485094 -0.000488077 -0.000490863 -0.000493454 -0.000495849 -0.000498846 -0.000503247 -0.000509049 -0.000516253 -0.00052486 -0.000534869 -0.000546281 -0.000559094 -0.000572761 -0.000586733 -0.000601009 -0.000615589 -0.000630474 -0.000645664 -0.000661158 -0.000676956 -0.000691889 -0.000704786 -0.000715647 -0.000724472 -0.000731262 -0.000736015 -0.000738733 -0.000739414 -0.000738071 -0.000734713 -0.000729341 -0.000721955 -0.000712554 -0.000701138 -0.000687709 -0.000672265 -0.000655983 -0.000640039 -0.000624434 -0.000609167 -0.000594238 -0.000579648 -0.000565397 -0.000551484 -0.000538447 -0.000526823 -0.000516614 -0.000507818 -0.000500437 -0.000494468 -0.000489914 -0.000486774 -0.000484248 -0.000481537 -0.000478641 -0.00047556 -0.000472295 -0.000468844 -0.000465209 -0.000461389 -0.000456601 -0.000450061 -0.00044177 -0.000431727 -0.000419933 -0.000406387 -0.00039109 -0.000374041 -0.000355695 -0.000336506 -0.000316474 -0.000295598 -0.000273879 -0.000251317 -0.000227912 -0.000203664 -0.000179715 -0.00015721 -0.000136149 -0.000116531 -9.83559e-05 -8.16245e-05 -6.63365e-05 -5.24918e-05 -4.01891e-05 -2.95267e-05 -2.05046e-05 -1.3123e-05 -7.38166e-06 -3.28074e-06 -8.20185e-07 0 0 -1.50236e-06 -6.00946e-06 -1.35213e-05 -2.40378e-05 -3.75591e-05 -5.40851e-05 -7.36159e-05 -9.61513e-05 -0.000121492 -0.000149439 -0.000179992 -0.00021315 -0.000248915 -0.000287286 -0.000328262 -0.000371845 -0.000415947 -0.000458483 -0.000499452 -0.000538855 -0.000576692 -0.000612962 -0.000647665 -0.000680802 -0.000711563 -0.000739139 -0.000763529 -0.000784733 -0.000802753 -0.000817586 -0.000829234 -0.000837697 -0.000844393 -0.00085074 -0.000856739 -0.00086239 -0.000867692 -0.000872646 -0.000877251 -0.000881509 -0.000886838 -0.000894661 -0.000904976 -0.000917784 -0.000933085 -0.000950879 -0.000971166 -0.000993946 -0.00101824 -0.00104308 -0.00106846 -0.00109438 -0.00112084 -0.00114785 -0.00117539 -0.00120348 -0.00123002 -0.00125295 -0.00127226 -0.00128795 -0.00130002 -0.00130847 -0.0013133 -0.00131451 -0.00131213 -0.00130616 -0.00129661 -0.00128347 -0.00126676 -0.00124647 -0.00122259 -0.00119514 -0.00116619 -0.00113785 -0.0011101 -0.00108296 -0.00105642 -0.00103049 -0.00100515 -0.000980416 -0.000957239 -0.000936575 -0.000918425 -0.000902788 -0.000889665 -0.000879055 -0.000870959 -0.000865376 -0.000860885 -0.000856065 -0.000850917 -0.000845441 -0.000839635 -0.000833501 -0.000827039 -0.000820247 -0.000811735 -0.000800108 -0.000785368 -0.000767515 -0.000746547 -0.000722466 -0.000695271 -0.000664962 -0.000632347 -0.000598233 -0.00056262 -0.000525508 -0.000486897 -0.000446786 -0.000405177 -0.000362069 -0.000319494 -0.000279485 -0.000242042 -0.000207166 -0.000174855 -0.00014511 -0.000117932 -9.33188e-05 -7.14472e-05 -5.24918e-05 -3.64527e-05 -2.33297e-05 -1.3123e-05 -5.83243e-06 -1.45811e-06 0 0 -2.34744e-06 -9.38978e-06 -2.1127e-05 -3.75591e-05 -5.86861e-05 -8.4508e-05 -0.000115025 -0.000150236 -0.000189831 -0.000233498 -0.000281237 -0.000333047 -0.00038893 -0.000448884 -0.00051291 -0.000581007 -0.000649917 -0.000716379 -0.000780394 -0.000841961 -0.000901081 -0.000957752 -0.00101198 -0.00106375 -0.00111182 -0.0011549 -0.00119301 -0.00122615 -0.0012543 -0.00127748 -0.00129568 -0.0013089 -0.00131936 -0.00132928 -0.00133865 -0.00134748 -0.00135577 -0.00136351 -0.00137071 -0.00137736 -0.00138568 -0.00139791 -0.00141402 -0.00143404 -0.00145795 -0.00148575 -0.00151745 -0.00155304 -0.001591 -0.00162981 -0.00166947 -0.00170997 -0.00175132 -0.00179351 -0.00183655 -0.00188043 -0.00192191 -0.00195774 -0.00198791 -0.00201242 -0.00203128 -0.00204449 -0.00205204 -0.00205393 -0.0020502 -0.00204087 -0.00202595 -0.00200543 -0.00197932 -0.00194761 -0.0019103 -0.0018674 -0.00182217 -0.00177789 -0.00173454 -0.00169213 -0.00165066 -0.00161013 -0.00157055 -0.0015319 -0.00149569 -0.0014634 -0.00143504 -0.00141061 -0.0013901 -0.00137352 -0.00136087 -0.00135215 -0.00134513 -0.0013376 -0.00132956 -0.001321 -0.00131193 -0.00130235 -0.00129225 -0.00128164 -0.00126834 -0.00125017 -0.00122714 -0.00119924 -0.00116648 -0.00112885 -0.00108636 -0.001039 -0.000988043 -0.000934739 -0.000879094 -0.000821106 -0.000760776 -0.000698104 -0.000633089 -0.000565733 -0.00049921 -0.000436696 -0.000378191 -0.000323696 -0.000273211 -0.000226735 -0.000184268 -0.000145811 -0.000111636 -8.20185e-05 -5.69573e-05 -3.64527e-05 -2.05046e-05 -9.11316e-06 -2.27829e-06 0 0 -3.38032e-06 -1.35213e-05 -3.04229e-05 -5.40851e-05 -8.4508e-05 -0.000121692 -0.000165636 -0.000216341 -0.000273357 -0.000336238 -0.000404981 -0.000479588 -0.000560059 -0.000646393 -0.00073859 -0.000836651 -0.000935881 -0.00103159 -0.00112377 -0.00121242 -0.00129756 -0.00137916 -0.00145725 -0.0015318 -0.00160102 -0.00166306 -0.00171794 -0.00176565 -0.00180619 -0.00183957 -0.00186578 -0.00188482 -0.00189988 -0.00191417 -0.00192766 -0.00194038 -0.00195231 -0.00196345 -0.00197382 -0.00198339 -0.00199539 -0.00201299 -0.0020362 -0.00206501 -0.00209944 -0.00213948 -0.00218512 -0.00223638 -0.00229105 -0.00234693 -0.00240404 -0.00246236 -0.0025219 -0.00258265 -0.00264463 -0.00270782 -0.00276756 -0.00281914 -0.00286259 -0.00289789 -0.00292505 -0.00294406 -0.00295493 -0.00295766 -0.00295228 -0.00293885 -0.00291736 -0.00288782 -0.00285021 -0.00280455 -0.00275083 -0.00268906 -0.00262393 -0.00256016 -0.00249773 -0.00243667 -0.00237695 -0.00231859 -0.00226159 -0.00220594 -0.00215379 -0.00210729 -0.00206646 -0.00203127 -0.00200175 -0.00197787 -0.00195966 -0.00194709 -0.00193699 -0.00192615 -0.00191456 -0.00190224 -0.00188918 -0.00187538 -0.00186084 -0.00184556 -0.0018264 -0.00180024 -0.00176708 -0.00172691 -0.00167973 -0.00162555 -0.00156436 -0.00149617 -0.00142278 -0.00134602 -0.0012659 -0.00118239 -0.00109552 -0.00100527 -0.000911649 -0.000814655 -0.000718862 -0.000628842 -0.000544596 -0.000466123 -0.000393424 -0.000326498 -0.000265346 -0.000209967 -0.000160756 -0.000118107 -8.20185e-05 -5.24918e-05 -2.95267e-05 -1.3123e-05 -3.28074e-06 0 0 -4.60099e-06 -1.8404e-05 -4.14089e-05 -7.36159e-05 -0.000115025 -0.000165636 -0.000225449 -0.000294463 -0.00037207 -0.000457657 -0.000551224 -0.000652773 -0.000762302 -0.000879812 -0.0010053 -0.00113877 -0.00127384 -0.0014041 -0.00152957 -0.00165024 -0.00176612 -0.00187719 -0.00198347 -0.00208496 -0.00217916 -0.00226361 -0.00233831 -0.00240325 -0.00245843 -0.00250386 -0.00253953 -0.00256545 -0.00258595 -0.00260539 -0.00262376 -0.00264107 -0.00265731 -0.00267248 -0.00268658 -0.00269962 -0.00271594 -0.0027399 -0.00277149 -0.00281071 -0.00285757 -0.00291207 -0.0029742 -0.00304396 -0.00311837 -0.00319443 -0.00327216 -0.00335154 -0.00343258 -0.00351528 -0.00359964 -0.00368565 -0.00376695 -0.00383717 -0.0038963 -0.00394435 -0.00398131 -0.00400719 -0.00402199 -0.0040257 -0.00401839 -0.00400011 -0.00397086 -0.00393064 -0.00387946 -0.00381731 -0.00374419 -0.00366011 -0.00357146 -0.00348466 -0.00339969 -0.00331658 -0.0032353 -0.00315586 -0.00307827 -0.00300252 -0.00293154 -0.00286826 -0.00281268 -0.00276479 -0.0027246 -0.00269211 -0.00266731 -0.00265021 -0.00263646 -0.0026217 -0.00260593 -0.00258916 -0.00257138 -0.0025526 -0.00253281 -0.00251201 -0.00248594 -0.00245033 -0.00240519 -0.00235051 -0.0022863 -0.00221255 -0.00212927 -0.00203645 -0.00193656 -0.00183209 -0.00172302 -0.00160937 -0.00149112 -0.00136828 -0.00124086 -0.00110884 -0.000978451 -0.000855924 -0.000741255 -0.000634445 -0.000535493 -0.0004444 -0.000361165 -0.000285789 -0.000218807 -0.000160756 -0.000111636 -7.14472e-05 -4.01891e-05 -1.78618e-05 -4.46545e-06 0 0 -6.00946e-06 -2.40378e-05 -5.40851e-05 -9.61513e-05 -0.000150236 -0.000216341 -0.000294463 -0.000384605 -0.000485969 -0.000597756 -0.000719967 -0.000852601 -0.00099566 -0.00114914 -0.00131305 -0.00148738 -0.00166379 -0.00183393 -0.00199781 -0.00215542 -0.00230677 -0.00245185 -0.00259066 -0.00272321 -0.00284625 -0.00295655 -0.00305412 -0.00313893 -0.00321101 -0.00327034 -0.00331694 -0.00335079 -0.00337757 -0.00340296 -0.00342696 -0.00344956 -0.00347077 -0.00349058 -0.00350901 -0.00352603 -0.00354735 -0.00357864 -0.0036199 -0.00367114 -0.00373234 -0.00380352 -0.00388466 -0.00397578 -0.00407297 -0.00417232 -0.00427384 -0.00437752 -0.00448337 -0.00459139 -0.00470157 -0.00481391 -0.0049201 -0.00501181 -0.00508905 -0.0051518 -0.00520008 -0.00523388 -0.00525321 -0.00525806 -0.00524851 -0.00522463 -0.00518643 -0.0051339 -0.00506705 -0.00498587 -0.00489037 -0.00478055 -0.00466477 -0.00455139 -0.00444042 -0.00433185 -0.0042257 -0.00412194 -0.0040206 -0.00392166 -0.00382895 -0.0037463 -0.0036737 -0.00361115 -0.00355866 -0.00351622 -0.00348383 -0.0034615 -0.00344354 -0.00342426 -0.00340367 -0.00338176 -0.00335854 -0.00333401 -0.00330815 -0.00328099 -0.00324694 -0.00320043 -0.00314147 -0.00307006 -0.00298619 -0.00288986 -0.00278108 -0.00265985 -0.00252939 -0.00239293 -0.00225048 -0.00210203 -0.00194759 -0.00178715 -0.00162071 -0.00144828 -0.00127798 -0.00111794 -0.00096817 -0.000828663 -0.00069942 -0.000580441 -0.000471726 -0.000373275 -0.000285789 -0.000209967 -0.000145811 -9.33188e-05 -5.24918e-05 -2.33297e-05 -5.83243e-06 0 0 -7.63373e-06 -3.05349e-05 -6.87036e-05 -0.00012214 -0.000190843 -0.000274814 -0.000374053 -0.000488559 -0.000617077 -0.000758352 -0.000912385 -0.00107917 -0.00125872 -0.00145103 -0.00165609 -0.00187391 -0.0020939 -0.00230547 -0.00250863 -0.00270338 -0.00288971 -0.00306762 -0.00323712 -0.00339821 -0.00354703 -0.00367975 -0.00379636 -0.00389686 -0.00398125 -0.00404953 -0.00410171 -0.00413778 -0.0041652 -0.00419145 -0.00421653 -0.00424043 -0.00426316 -0.00428471 -0.00430509 -0.00432429 -0.00434954 -0.00438805 -0.00443982 -0.00450485 -0.00458315 -0.00467472 -0.00477954 -0.00489763 -0.00502377 -0.00515275 -0.00528457 -0.00541923 -0.00555673 -0.00569707 -0.00584025 -0.00598628 -0.00612432 -0.00624356 -0.00634401 -0.00642565 -0.00648849 -0.00653254 -0.00655778 -0.00656423 -0.00655197 -0.00652111 -0.00647163 -0.00640356 -0.00631687 -0.00621158 -0.00608768 -0.00594517 -0.00579493 -0.00564783 -0.00550387 -0.00536305 -0.00522538 -0.00509084 -0.00495944 -0.00483119 -0.00471118 -0.00460453 -0.00451124 -0.0044313 -0.00436471 -0.00431148 -0.00427161 -0.00424509 -0.0042247 -0.00420323 -0.00418066 -0.00415701 -0.00413227 -0.00410645 -0.00407953 -0.00405153 -0.0040151 -0.00396293 -0.00389501 -0.00381134 -0.00371191 -0.00359674 -0.00346582 -0.00331916 -0.00316058 -0.00299394 -0.00281923 -0.00263645 -0.00244561 -0.00224671 -0.00203973 -0.0018247 -0.00161191 -0.00141169 -0.00122403 -0.00104893 -0.000886404 -0.00073644 -0.000599041 -0.000474207 -0.000363065 -0.000266741 -0.000185237 -0.000118552 -6.66853e-05 -2.96379e-05 -7.40948e-06 0 0 -9.50181e-06 -3.80072e-05 -8.55163e-05 -0.000152029 -0.000237545 -0.000342065 -0.000465589 -0.000608116 -0.000767418 -0.000941264 -0.00112966 -0.00133259 -0.00155008 -0.00178211 -0.00202868 -0.0022898 -0.00255232 -0.00280312 -0.00304219 -0.00326953 -0.00348515 -0.00368903 -0.00388118 -0.00406161 -0.00422625 -0.00437106 -0.00449603 -0.00460117 -0.00468647 -0.00475193 -0.00479756 -0.00482335 -0.00483931 -0.00485545 -0.00487177 -0.00488827 -0.00490494 -0.0049218 -0.00493883 -0.00495604 -0.00498241 -0.00502694 -0.00508961 -0.00517044 -0.00526942 -0.00538656 -0.00552184 -0.00567528 -0.00583968 -0.00600787 -0.00617983 -0.00635559 -0.00653512 -0.00671844 -0.00690554 -0.00709642 -0.00727693 -0.00743291 -0.00756437 -0.00767129 -0.00775369 -0.00781156 -0.0078449 -0.00785371 -0.00783812 -0.00779823 -0.00773405 -0.00764557 -0.00753281 -0.00739575 -0.0072344 -0.00704875 -0.00685303 -0.00666145 -0.00647402 -0.00629072 -0.00611156 -0.00593655 -0.00576567 -0.00559894 -0.00544339 -0.00530608 -0.005187 -0.00508615 -0.00500354 -0.00493916 -0.00489301 -0.00486509 -0.00484642 -0.00482799 -0.00480982 -0.00479188 -0.0047742 -0.00475677 -0.00473958 -0.00472264 -0.00469612 -0.0046502 -0.00458487 -0.00450014 -0.004396 -0.00427246 -0.00412951 -0.00396715 -0.00378945 -0.00360048 -0.00340023 -0.0031887 -0.0029659 -0.00273182 -0.00248646 -0.00222982 -0.00197472 -0.00173395 -0.00150751 -0.00129541 -0.00109765 -0.000914217 -0.000745123 -0.000590364 -0.000451998 -0.00033208 -0.000230611 -0.000147591 -8.302e-05 -3.68978e-05 -9.22444e-06 0 0 -1.16137e-05 -4.64548e-05 -0.000104523 -0.000185819 -0.000290343 -0.000418093 -0.000569072 -0.000743277 -0.000936991 -0.00114649 -0.00137178 -0.00161286 -0.00186973 -0.00214238 -0.00243082 -0.00273505 -0.00303907 -0.00332689 -0.00359849 -0.00385389 -0.00409308 -0.00431606 -0.00452284 -0.00471341 -0.00488391 -0.00503048 -0.00515313 -0.00525186 -0.00532666 -0.00537753 -0.00540448 -0.00540751 -0.0053999 -0.00539496 -0.00539268 -0.00539307 -0.00539613 -0.00540185 -0.00541023 -0.00542128 -0.00544598 -0.00549532 -0.00556929 -0.0056679 -0.00579115 -0.00593904 -0.00611157 -0.00630873 -0.0065207 -0.00673767 -0.00695964 -0.00718659 -0.00741854 -0.00765548 -0.00789742 -0.00814434 -0.00837794 -0.00857987 -0.00875013 -0.00888873 -0.00899567 -0.00907095 -0.00911456 -0.00912651 -0.00910694 -0.00905599 -0.00897366 -0.00885995 -0.00871486 -0.00853839 -0.00833053 -0.0080913 -0.00783908 -0.00759227 -0.00735086 -0.00711486 -0.00688426 -0.00665908 -0.00643929 -0.00622492 -0.00602559 -0.00585094 -0.00570099 -0.00557572 -0.00547514 -0.00539925 -0.00534804 -0.00532152 -0.00530869 -0.00529856 -0.00529112 -0.00528638 -0.00528432 -0.00528497 -0.0052883 -0.00529434 -0.00529 -0.00526225 -0.00521107 -0.00513647 -0.00503844 -0.004917 -0.00477213 -0.00460383 -0.00441601 -0.00421256 -0.00399349 -0.00375878 -0.00350844 -0.00324248 -0.00296088 -0.00266365 -0.0023664 -0.00208473 -0.00181862 -0.0015681 -0.00133315 -0.00111377 -0.000909972 -0.000721747 -0.000552588 -0.000405983 -0.000281933 -0.000180437 -0.000101496 -4.51092e-05 -1.12773e-05 0 0 -1.39694e-05 -5.58776e-05 -0.000125725 -0.000223511 -0.000349235 -0.000502899 -0.000684501 -0.000894042 -0.0011258 -0.00137404 -0.00163876 -0.00191997 -0.00221767 -0.00253185 -0.00286252 -0.00320967 -0.00355415 -0.00387677 -0.00417753 -0.00445645 -0.00471352 -0.00494873 -0.00516209 -0.0053536 -0.00552 -0.00565802 -0.00576766 -0.00584893 -0.00590182 -0.00592634 -0.00592248 -0.00589025 -0.00584697 -0.00580997 -0.00577926 -0.00575484 -0.0057367 -0.00572485 -0.00571929 -0.00572001 -0.00574024 -0.00579318 -0.00587885 -0.00599723 -0.00614834 -0.00633217 -0.00654871 -0.00679798 -0.00706684 -0.00734218 -0.00762398 -0.00791225 -0.00820699 -0.00850821 -0.00881589 -0.00913005 -0.00942733 -0.00968441 -0.00990129 -0.010078 -0.0102144 -0.0103107 -0.0103668 -0.0103826 -0.0103584 -0.0102944 -0.0101905 -0.0100467 -0.00986302 -0.00963949 -0.00937609 -0.00907281 -0.00875307 -0.00844027 -0.0081344 -0.00783547 -0.00754348 -0.00725842 -0.0069803 -0.00670912 -0.00645776 -0.00623912 -0.0060532 -0.0059 -0.00577952 -0.00569175 -0.0056367 -0.00561437 -0.00561152 -0.00561493 -0.00562458 -0.00564049 -0.00566264 -0.00569105 -0.0057257 -0.00576661 -0.00579674 -0.00579907 -0.0057736 -0.00572032 -0.00563925 -0.00553037 -0.00539369 -0.0052292 -0.00504026 -0.00483019 -0.004599 -0.00434668 -0.00407325 -0.00377868 -0.003463 -0.00312619 -0.00278696 -0.00246402 -0.00215736 -0.00186699 -0.00159291 -0.0013351 -0.00109359 -0.000868356 -0.000664835 -0.00048845 -0.000339202 -0.000217089 -0.000122113 -5.42723e-05 -1.35681e-05 0 0 -1.65689e-05 -6.62757e-05 -0.00014912 -0.000265103 -0.000414223 -0.000596481 -0.000811877 -0.00106041 -0.00133383 -0.00162389 -0.00193059 -0.00225393 -0.0025939 -0.00295052 -0.00332377 -0.00371366 -0.00409754 -0.00445276 -0.00477932 -0.00507721 -0.00534645 -0.00558702 -0.00579894 -0.00598219 -0.00613452 -0.00625367 -0.00633962 -0.00639239 -0.00641196 -0.00639835 -0.00635156 -0.00627157 -0.00618051 -0.00610049 -0.00603151 -0.00597358 -0.00592668 -0.00589082 -0.00586601 -0.00585224 -0.00586519 -0.00592053 -0.00601828 -0.00615843 -0.00634098 -0.00656593 -0.00683328 -0.00714303 -0.00747809 -0.00782137 -0.00817286 -0.00853256 -0.00890048 -0.00927661 -0.00966096 -0.0100535 -0.0104251 -0.0107466 -0.0110179 -0.011239 -0.01141 -0.0115308 -0.0116015 -0.0116221 -0.0115926 -0.0115134 -0.0113845 -0.0112058 -0.0109773 -0.0106991 -0.0103711 -0.00999329 -0.00959501 -0.00920545 -0.00882464 -0.00845255 -0.0080892 -0.00773458 -0.00738869 -0.00705154 -0.00673991 -0.00647061 -0.00624364 -0.00605899 -0.00591667 -0.00581667 -0.00575899 -0.00574364 -0.00575491 -0.0057771 -0.0058102 -0.00585422 -0.00590915 -0.00597501 -0.00605178 -0.00613946 -0.00621634 -0.00626067 -0.00627246 -0.0062517 -0.00619841 -0.00611257 -0.00599419 -0.00584326 -0.00566219 -0.00545336 -0.00521676 -0.00495241 -0.00466031 -0.00434044 -0.00399282 -0.00361743 -0.0032364 -0.00287184 -0.00252373 -0.0021921 -0.00187692 -0.00157821 -0.00129597 -0.00103019 -0.00078874 -0.000579482 -0.000402418 -0.000257548 -0.000144871 -6.43869e-05 -1.60967e-05 0 0 -1.94123e-05 -7.7649e-05 -0.00017471 -0.000310596 -0.000485306 -0.000698841 -0.000951201 -0.00124238 -0.0015611 -0.00189607 -0.00224728 -0.00261473 -0.00299843 -0.00339838 -0.00381457 -0.00424701 -0.00466925 -0.00505486 -0.00540384 -0.00571617 -0.00599188 -0.00623095 -0.00643338 -0.00659919 -0.00672749 -0.00681743 -0.00686901 -0.00688222 -0.00685708 -0.00679357 -0.00669171 -0.00655148 -0.00640053 -0.00626652 -0.00614943 -0.00604927 -0.00596605 -0.00589976 -0.00585039 -0.00581796 -0.00582083 -0.00587737 -0.0059876 -0.0061515 -0.00636908 -0.00664034 -0.00696528 -0.00734389 -0.00775446 -0.00817525 -0.00860627 -0.00904752 -0.00949899 -0.00996069 -0.0104326 -0.0109148 -0.0113713 -0.0117663 -0.0120998 -0.0123718 -0.0125823 -0.0127313 -0.0128188 -0.0128448 -0.0128095 -0.0127131 -0.0125557 -0.0123372 -0.0120577 -0.0117171 -0.0113155 -0.0108527 -0.0103649 -0.00988783 -0.00942157 -0.0089661 -0.00852143 -0.00808755 -0.00766447 -0.00725218 -0.00687205 -0.00654542 -0.0062723 -0.00605269 -0.00588659 -0.00577399 -0.00571491 -0.00570933 -0.00573885 -0.00578506 -0.00584797 -0.00592757 -0.00602386 -0.00613685 -0.00626653 -0.0064129 -0.00654879 -0.00664704 -0.00670765 -0.00673061 -0.00671593 -0.0066636 -0.00657363 -0.00644601 -0.0062818 -0.00608206 -0.00584679 -0.00557597 -0.00526963 -0.00492775 -0.00455033 -0.00413738 -0.00371472 -0.00330817 -0.00291773 -0.00254341 -0.0021852 -0.0018431 -0.00151712 -0.00120725 -0.000924301 -0.000679078 -0.000471582 -0.000301813 -0.00016977 -7.54532e-05 -1.88633e-05 0 0 -2.24994e-05 -8.99976e-05 -0.000202495 -0.00035999 -0.000562485 -0.000809978 -0.00110247 -0.00143996 -0.00180761 -0.00219056 -0.00258882 -0.00300238 -0.00343126 -0.00387544 -0.00433493 -0.00480972 -0.00526929 -0.00568308 -0.0060511 -0.00637334 -0.00664981 -0.0068805 -0.00706543 -0.00720457 -0.00729889 -0.0073493 -0.00735582 -0.00731845 -0.00723717 -0.007112 -0.00694293 -0.00672997 -0.00650703 -0.00630805 -0.00613302 -0.00598194 -0.00585482 -0.00575165 -0.00567243 -0.00561717 -0.00560716 -0.0056637 -0.0057868 -0.00597644 -0.00623264 -0.00655539 -0.00694469 -0.00740055 -0.00789593 -0.00840382 -0.00892422 -0.00945713 -0.0100025 -0.0105605 -0.0111309 -0.0117138 -0.0122659 -0.0127437 -0.0131472 -0.0134764 -0.0137314 -0.0139122 -0.0140186 -0.0140508 -0.014009 -0.0138935 -0.0137042 -0.0134411 -0.0131042 -0.0126936 -0.0122093 -0.0116511 -0.0110627 -0.0104874 -0.00992519 -0.00937612 -0.00884017 -0.00831734 -0.00780764 -0.00731105 -0.00685417 -0.00646355 -0.00613919 -0.00588111 -0.00568929 -0.00556374 -0.00550445 -0.00551144 -0.00556335 -0.00563883 -0.0057379 -0.00586054 -0.00600676 -0.00617657 -0.00636995 -0.00658691 -0.0067941 -0.00695819 -0.00707917 -0.00715704 -0.0071918 -0.00718346 -0.00713201 -0.00703745 -0.0068991 -0.00671631 -0.00648906 -0.00621736 -0.00590121 -0.0055406 -0.00513554 -0.00468603 -0.00422191 -0.00377301 -0.00333936 -0.00292093 -0.00251773 -0.00212977 -0.00175704 -0.00139954 -0.00107152 -0.000787239 -0.000546694 -0.000349884 -0.00019681 -8.7471e-05 -2.18678e-05 0 0 -2.58304e-05 -0.000103321 -0.000232473 -0.000413286 -0.000645759 -0.000929893 -0.00126569 -0.00165314 -0.00207334 -0.00250736 -0.00295521 -0.00341688 -0.00389237 -0.00438169 -0.00488484 -0.0054018 -0.00589765 -0.00633741 -0.00672109 -0.0070487 -0.00732023 -0.00753569 -0.00769506 -0.00779836 -0.00784872 -0.00784929 -0.00780007 -0.00770105 -0.00755224 -0.00735363 -0.00710523 -0.00680704 -0.00650001 -0.00622508 -0.00598227 -0.00577157 -0.00559298 -0.0054465 -0.00533213 -0.00524987 -0.00522418 -0.00527952 -0.00541587 -0.00563325 -0.00593166 -0.00631108 -0.00677153 -0.00731301 -0.00790252 -0.00850709 -0.00912671 -0.00976139 -0.0104111 -0.0110759 -0.0117557 -0.0124506 -0.0131088 -0.0136786 -0.0141599 -0.0145529 -0.0148573 -0.0150734 -0.015201 -0.0152402 -0.0151913 -0.0150545 -0.0148298 -0.0145172 -0.0141169 -0.0136286 -0.0130525 -0.0123885 -0.0116885 -0.0110041 -0.0103355 -0.00968261 -0.00904542 -0.00842395 -0.00781819 -0.00722815 -0.00668627 -0.00622498 -0.00584431 -0.00554423 -0.00532476 -0.00518589 -0.00512763 -0.00514997 -0.0052284 -0.0053384 -0.00547998 -0.00565313 -0.00585786 -0.00609417 -0.00636204 -0.0066615 -0.00695227 -0.00719411 -0.00738702 -0.007531 -0.00762604 -0.00767215 -0.00766933 -0.00761757 -0.00751409 -0.0073561 -0.00714359 -0.00687658 -0.00655505 -0.006179 -0.00574845 -0.00526338 -0.00475797 -0.00426638 -0.00378861 -0.00332466 -0.00287452 -0.00243821 -0.00201572 -0.00160705 -0.0012304 -0.000903965 -0.000627753 -0.000401762 -0.000225991 -0.000100441 -2.51101e-05 0 0 -2.92893e-05 -0.000117157 -0.000263604 -0.000468629 -0.000732233 -0.00105442 -0.00143518 -0.00187452 -0.00234883 -0.0028345 -0.00333153 -0.00383993 -0.00435968 -0.0048908 -0.00543328 -0.00598712 -0.00651268 -0.00697032 -0.00736005 -0.00768186 -0.00793575 -0.00812172 -0.00823977 -0.0082899 -0.00827809 -0.00821031 -0.00808655 -0.00790682 -0.00767112 -0.00737945 -0.0070318 -0.00662819 -0.00621756 -0.00584891 -0.00552221 -0.00523748 -0.00499472 -0.00479391 -0.00463508 -0.0045182 -0.00447115 -0.0045218 -0.00467013 -0.00491615 -0.00525986 -0.00570125 -0.00624034 -0.00687712 -0.00757175 -0.00828439 -0.00901504 -0.0097637 -0.0105304 -0.0113151 -0.0121178 -0.0129385 -0.013716 -0.0143892 -0.0149581 -0.0154227 -0.0157829 -0.0160388 -0.0161903 -0.0162375 -0.0161807 -0.0160202 -0.015756 -0.0153882 -0.0149166 -0.0143413 -0.0136623 -0.0128796 -0.0120545 -0.011248 -0.0104602 -0.0096912 -0.00894087 -0.00820924 -0.00749633 -0.00680212 -0.00616582 -0.00562662 -0.00518451 -0.00483951 -0.0045916 -0.00444079 -0.00438709 -0.00443048 -0.00454303 -0.00469681 -0.00489182 -0.00512806 -0.00540552 -0.00572421 -0.00608413 -0.00648527 -0.00687951 -0.0072187 -0.00750284 -0.00773193 -0.00790598 -0.00802498 -0.00808893 -0.00809783 -0.00804617 -0.00792843 -0.0077446 -0.0074947 -0.00717872 -0.00679665 -0.0063485 -0.00583427 -0.00529273 -0.00476264 -0.004244 -0.00373682 -0.00324108 -0.0027568 -0.00228398 -0.0018226 -0.00139543 -0.00102521 -0.000711953 -0.00045565 -0.000256303 -0.000113912 -2.84781e-05 0 0 -3.27606e-05 -0.000131042 -0.000294845 -0.000524169 -0.000819015 -0.00117938 -0.00160527 -0.00209668 -0.00262459 -0.00315999 -0.00370287 -0.00425323 -0.00481108 -0.00537642 -0.00594924 -0.00652954 -0.00707276 -0.0075343 -0.00791418 -0.00821239 -0.00842893 -0.00856381 -0.00861701 -0.00858855 -0.00848808 -0.00832526 -0.00810008 -0.00781255 -0.00746266 -0.00705042 -0.00657583 -0.00603889 -0.0054978 -0.00501079 -0.00457785 -0.00419899 -0.0038742 -0.00360349 -0.00338685 -0.00322428 -0.00314733 -0.00318752 -0.00334485 -0.00361934 -0.00401097 -0.00451974 -0.00514566 -0.00588873 -0.00670113 -0.00753506 -0.0083905 -0.00926747 -0.010166 -0.011086 -0.0120275 -0.0129906 -0.0139032 -0.0146936 -0.0153617 -0.0159074 -0.0163309 -0.016632 -0.0168109 -0.0168674 -0.016802 -0.016615 -0.0163064 -0.0158762 -0.0153243 -0.0146509 -0.0138559 -0.0129393 -0.011973 -0.0110289 -0.0101071 -0.00920752 -0.00833018 -0.00747509 -0.00664224 -0.00583163 -0.00509031 -0.00446532 -0.00395668 -0.00356437 -0.0032884 -0.00312877 -0.00308547 -0.00315851 -0.00331627 -0.0035271 -0.00379102 -0.00410802 -0.0044781 -0.00490127 -0.00537751 -0.00590684 -0.00643203 -0.00689583 -0.00729825 -0.0076393 -0.00791896 -0.00813725 -0.00829416 -0.00838968 -0.00841476 -0.00836031 -0.00822633 -0.00801282 -0.00771979 -0.00734723 -0.00689514 -0.00636353 -0.005796 -0.00523618 -0.00468405 -0.00413964 -0.00360293 -0.00307392 -0.00255261 -0.00203901 -0.00156111 -0.00114694 -0.000796487 -0.000509751 -0.000286735 -0.000127438 -3.18595e-05 0 0 -3.62441e-05 -0.000144976 -0.000326197 -0.000579906 -0.000906102 -0.00130479 -0.00177596 -0.00231962 -0.00290062 -0.00348382 -0.00406921 -0.0046568 -0.00524657 -0.00583855 -0.00643271 -0.00702907 -0.00757787 -0.00802934 -0.00838348 -0.0086403 -0.00879979 -0.00886195 -0.0088268 -0.00869431 -0.00847869 -0.00819414 -0.00784065 -0.00741822 -0.00692686 -0.00636655 -0.00573732 -0.00503914 -0.00434072 -0.00371073 -0.00314919 -0.0026561 -0.00223144 -0.00187522 -0.00158745 -0.00136812 -0.0012527 -0.00127668 -0.00144006 -0.00174282 -0.00218499 -0.00276654 -0.0034875 -0.00434784 -0.00529068 -0.0062591 -0.00725311 -0.00827271 -0.00931789 -0.0103887 -0.011485 -0.012607 -0.0136705 -0.0145917 -0.0153706 -0.0160072 -0.0165014 -0.0168532 -0.0170627 -0.0171299 -0.0170551 -0.0168387 -0.0164808 -0.0159813 -0.0153402 -0.0145575 -0.0136333 -0.0125675 -0.011444 -0.0103469 -0.00927607 -0.00823157 -0.00721337 -0.00622149 -0.00525592 -0.00431667 -0.00345973 -0.00274111 -0.0021608 -0.00171882 -0.00141516 -0.00124981 -0.00122279 -0.00133408 -0.00154811 -0.00182927 -0.00217758 -0.00259302 -0.00307561 -0.00362533 -0.0042422 -0.00492621 -0.00560982 -0.0062255 -0.00677326 -0.00725309 -0.00766499 -0.00800896 -0.00828501 -0.00849313 -0.00861986 -0.00865173 -0.00858876 -0.00843094 -0.00817826 -0.00783074 -0.00738836 -0.00685114 -0.00626777 -0.00568698 -0.00510876 -0.00453312 -0.00396004 -0.00338955 -0.00282162 -0.00225627 -0.00172745 -0.00126915 -0.000881354 -0.000564067 -0.000317287 -0.000141017 -3.52542e-05 0 0 -3.97399e-05 -0.000158959 -0.000357659 -0.000635838 -0.000993497 -0.00143064 -0.00194725 -0.00254335 -0.00317693 