<?xml version="1.0"?> 
<VTKFile type="StructuredGrid" version="0.1"> 
<StructuredGrid WholeExtent="0 128 0 128 0 0"> 
<Piece Extent="0 128 0 128 0 0"> 
<PointData>
<DataArray type="Float32" Name="u" format="ascii" NumberOfComponents="1"> 
0 0 0 0 0 0 0 0 0 0 0 0 0 0 0 0 0 0 0 0 0 0 0 0 0 0 0 0 0 0 0 0 0 0 0 0 0 0 0 0 0 0 0 0 0 0 0 0 0 0 0 0 0 0 0 0 0 0 0 0 0 0 0 0 0 0 0 0 0 0 0 0 0 0 0 0 0 0 0 0 0 0 0 0 0 0 0 0 0 0 0 0 0 0 0 0 0 0 0 0 0 0 0 0 0 0 0 0 0 0 0 0 0 0 0 0 0 0 0 0 0 0 0 0 0 0 0 0 0 0 4.87265e-08 1.94906e-07 4.38539e-07 7.79625e-07 1.21816e-06 1.75416e-06 2.3876e-06 3.1185e-06 3.97803e-06 4.99739e-06 6.17656e-06 7.51556e-06 9.01437e-06 1.0673e-05 1.24915e-05 1.44697e-05 1.65542e-05 1.8691e-05 2.08803e-05 2.3122e-05 2.54162e-05 2.77629e-05 3.01619e-05 3.26135e-05 3.50566e-05 3.74306e-05 3.97353e-05 4.19708e-05 4.41372e-05 4.62343e-05 4.82623e-05 5.02211e-05 5.20841e-05 5.38248e-05 5.54432e-05 5.69394e-05 5.83132e-05 5.95648e-05 6.06941e-05 6.17011e-05 6.25951e-05 6.33852e-05 6.40716e-05 6.46541e-05 6.51329e-05 6.55078e-05 6.5779e-05 6.59464e-05 6.60389e-05 6.60857e-05 6.60867e-05 6.60418e-05 6.59512e-05 6.58148e-05 6.56326e-05 6.54045e-05 6.51554e-05 6.49098e-05 6.46679e-05 6.44295e-05 6.41947e-05 6.39634e-05 6.37357e-05 6.35117e-05 6.32937e-05 6.30845e-05 6.2884e-05 6.26922e-05 6.25091e-05 6.23348e-05 6.21691e-05 6.20122e-05 6.18445e-05 6.16466e-05 6.14185e-05 6.11602e-05 6.08716e-05 6.05528e-05 6.02037e-05 5.98245e-05 5.93907e-05 5.88781e-05 5.82867e-05 5.76164e-05 5.68673e-05 5.60394e-05 5.51327e-05 5.41472e-05 5.30757e-05 5.1911e-05 5.06532e-05 4.93023e-05 4.78582e-05 4.6321e-05 4.46906e-05 4.29671e-05 4.11736e-05 3.93332e-05 3.74459e-05 3.55116e-05 3.35304e-05 3.15023e-05 2.94273e-05 2.73054e-05 2.51868e-05 2.31218e-05 2.11105e-05 1.91527e-05 1.72486e-05 1.5398e-05 1.36011e-05 1.18578e-05 1.02096e-05 8.69791e-06 7.32281e-06 6.08429e-06 4.98233e-06 4.01694e-06 3.18812e-06 2.49587e-06 1.9109e-06 1.40393e-06 9.7495e-07 6.23968e-07 3.50982e-07 1.55992e-07 3.8998e-08 0 0 1.94906e-07 7.79625e-07 1.75416e-06 3.1185e-06 4.87265e-06 7.01662e-06 9.5504e-06 1.2474e-05 1.59121e-05 1.99896e-05 2.47063e-05 3.00622e-05 3.60575e-05 4.2692e-05 4.99659e-05 5.7879e-05 6.62166e-05 7.4764e-05 8.35212e-05 9.24882e-05 0.000101665 0.000111051 0.000120648 0.000130454 0.000140226 0.000149722 0.000158941 0.000167883 0.000176549 0.000184937 0.000193049 0.000200884 0.000208336 0.000215299 0.000221773 0.000227758 0.000233253 0.000238259 0.000242776 0.000246804 0.00025038 0.000253541 0.000256286 0.000258617 0.000260532 0.000262031 0.000263116 0.000263785 0.000264156 0.000264343 0.000264347 0.000264167 0.000263805 0.000263259 0.00026253 0.000261618 0.000260622 0.000259639 0.000258671 0.000257718 0.000256779 0.000255854 0.000254943 0.000254047 0.000253175 0.000252338 0.000251536 0.000250769 0.000250037 0.000249339 0.000248677 0.000248049 0.000247378 0.000246587 0.000245674 0.000244641 0.000243486 0.000242211 0.000240815 0.000239298 0.000237563 0.000235512 0.000233147 0.000230466 0.000227469 0.000224158 0.000220531 0.000216589 0.000212303 0.000207644 0.000202613 0.000197209 0.000191433 0.000185284 0.000178763 0.000171869 0.000164695 0.000157333 0.000149783 0.000142046 0.000134122 0.000126009 0.000117709 0.000109222 0.000100747 9.24873e-05 8.44419e-05 7.66109e-05 6.89943e-05 6.15922e-05 5.44045e-05 4.74312e-05 4.08383e-05 3.47916e-05 2.92913e-05 2.43372e-05 1.99293e-05 1.60678e-05 1.27525e-05 9.98349e-06 7.64361e-06 5.61571e-06 3.8998e-06 2.49587e-06 1.40393e-06 6.23968e-07 1.55992e-07 0 0 4.38539e-07 1.75416e-06 3.94685e-06 7.01662e-06 1.09635e-05 1.57874e-05 2.14884e-05 2.80665e-05 3.58023e-05 4.49765e-05 5.55891e-05 6.764e-05 8.11294e-05 9.60571e-05 0.000112423 0.000130228 0.000148987 0.000168219 0.000187923 0.000208098 0.000228746 0.000249866 0.000271457 0.000293521 0.000315509 0.000336875 0.000357618 0.000377738 0.000397235 0.000416109 0.000434361 0.00045199 0.000468757 0.000484423 0.000498989 0.000512454 0.000524819 0.000536083 0.000546247 0.00055531 0.000563356 0.000570467 0.000576644 0.000581887 0.000586196 0.000589571 0.000592011 0.000593517 0.00059435 0.000594771 0.00059478 0.000594377 0.000593561 0.000592333 0.000590693 0.000588641 0.000586399 0.000584189 0.000582011 0.000579865 0.000577752 0.000575671 0.000573622 0.000571605 0.000569643 0.00056776 0.000565956 0.00056423 0.000562582 0.000561013 0.000559522 0.00055811 0.000556601 0.00055482 0.000552767 0.000550441 0.000547844 0.000544975 0.000541834 0.00053842 0.000534516 0.000529903 0.00052458 0.000518548 0.000511806 0.000504355 0.000496194 0.000487325 0.000477681 0.000467199 0.000455879 0.00044372 0.000430724 0.000416889 0.000402216 0.000386704 0.000370563 0.000353999 0.000337013 0.000319604 0.000301774 0.000283521 0.000264846 0.000245748 0.000226681 0.000208097 0.000189994 0.000172375 0.000155237 0.000138582 0.00012241 0.00010672 9.18861e-05 7.82812e-05 6.59053e-05 5.47586e-05 4.4841e-05 3.61525e-05 2.86931e-05 2.24628e-05 1.71981e-05 1.26354e-05 8.77455e-06 5.61571e-06 3.15884e-06 1.40393e-06 3.50982e-07 0 0 7.79625e-07 3.1185e-06 7.01662e-06 1.2474e-05 1.94906e-05 2.80665e-05 3.82016e-05 4.9896e-05 6.36485e-05 7.99582e-05 9.8825e-05 0.000120249 0.00014423 0.000170768 0.000199863 0.000231516 0.000264866 0.000299056 0.000334085 0.000369953 0.00040666 0.000444206 0.000482591 0.000521815 0.000560906 0.000598889 0.000635765 0.000671534 0.000706195 0.00073975 0.000772197 0.000803537 0.000833345 0.000861197 0.000887092 0.00091103 0.000933012 0.000953037 0.000971106 0.000987218 0.00100152 0.00101416 0.00102515 0.00103447 0.00104213 0.00104813 0.00105246 0.00105514 0.00105662 0.00105737 0.00105739 0.00105667 0.00105522 0.00105304 0.00105012 0.00104647 0.00104249 0.00103856 0.00103469 0.00103087 0.00102711 0.00102341 0.00101977 0.00101619 0.0010127 0.00100935 0.00100614 0.00100308 0.00100015 0.000997356 0.000994706 0.000992195 0.000989513 0.000986346 0.000982696 0.000978563 0.000973945 0.000968844 0.00096326 0.000957192 0.000950251 0.000942049 0.000932586 0.000921862 0.000909877 0.000896631 0.000882123 0.000866355 0.000849211 0.000830576 0.000810451 0.000788836 0.000765731 0.000741136 0.00071505 0.000687474 0.000658778 0.000629331 0.000599134 0.000568185 0.000536487 0.000504037 0.000470837 0.000436886 0.000402989 0.000369949 0.000337768 0.000306444 0.000275977 0.000246369 0.000217618 0.000189725 0.000163353 0.000139167 0.000117165 9.73486e-05 7.97173e-05 6.42711e-05 5.101e-05 3.99339e-05 3.05744e-05 2.24628e-05 1.55992e-05 9.98349e-06 5.61571e-06 2.49587e-06 6.23968e-07 0 0 1.21816e-06 4.87265e-06 1.09635e-05 1.94906e-05 3.04541e-05 4.38539e-05 5.969e-05 7.79625e-05 9.94508e-05 0.000124935 0.000154414 0.000187889 0.000225359 0.000266825 0.000312287 0.000361744 0.000413854 0.000467275 0.000522008 0.000578051 0.000635406 0.000694072 0.000754049 0.000815337 0.000876415 0.000935764 0.000993382 0.00104927 0.00110343 0.00115586 0.00120656 0.00125553 0.0013021 0.00134562 0.00138608 0.00142348 0.00145783 0.00148912 0.00151735 0.00154253 0.00156488 0.00158463 0.00160179 0.00161635 0.00162832 0.0016377 0.00164448 0.00164866 0.00165097 0.00165214 0.00165217 0.00165105 0.00164878 0.00164537 0.00164081 0.00163511 0.00162889 0.00162275 0.0016167 0.00161074 0.00160487 0.00159909 0.00159339 0.00158779 0.00158234 0.00157711 0.0015721 0.0015673 0.00156273 0.00155837 0.00155423 0.00155031 0.00154611 0.00154117 0.00153546 0.001529 0.00152179 0.00151382 0.00150509 0.00149561 0.00148477 0.00147195 0.00145717 0.00144041 0.00142168 0.00140099 0.00137832 0.00135368 0.00132689 0.00129777 0.00126633 0.00123256 0.00119645 0.00115802 0.00111727 0.00107418 0.00102934 0.00098333 0.000936146 0.00088779 0.00083826 0.000787558 0.000735683 0.000682635 0.00062967 0.000578046 0.000527762 0.000478818 0.000431214 0.000384951 0.000340028 0.000296445 0.000255239 0.000217448 0.00018307 0.000152107 0.000124558 0.000100424 7.97031e-05 6.23968e-05 4.77725e-05 3.50982e-05 2.43737e-05 1.55992e-05 8.77455e-06 3.8998e-06 9.7495e-07 0 0 1.75416e-06 7.01662e-06 1.57874e-05 2.80665e-05 4.38539e-05 6.31496e-05 8.59536e-05 0.000112266 0.000143209 0.000179906 0.000222356 0.00027056 0.000324517 0.000384228 0.000449693 0.000520911 0.000595949 0.000672876 0.000751691 0.000832394 0.000914984 0.000999463 0.00108583 0.00117408 0.00126204 0.0013475 0.00143047 0.00151095 0.00158894 0.00166444 0.00173744 0.00180796 0.00187503 0.00193769 0.00199596 0.00204982 0.00209928 0.00214433 0.00218499 0.00222124 0.00225342 0.00228187 0.00230658 0.00232755 0.00234478 0.00235828 0.00236804 0.00237407 0.0023774 0.00237909 0.00237912 0.00237751 0.00237424 0.00236933 0.00236277 0.00235456 0.00234559 0.00233675 0.00232804 0.00231946 0.00231101 0.00230268 0.00229449 0.00228642 0.00227857 0.00227104 0.00226382 0.00225692 0.00225033 0.00224405 0.00223809 0.00223244 0.0022264 0.00221928 0.00221107 0.00220177 0.00219138 0.0021799 0.00216733 0.00215368 0.00213806 0.00211961 0.00209832 0.00207419 0.00204722 0.00201742 0.00198478 0.0019493 0.00191072 0.0018688 0.00182352 0.00177488 0.0017229 0.00166756 0.00160886 0.00154682 0.00148225 0.001416 0.00134805 0.00127842 0.00120709 0.00113408 0.00105938 0.000982994 0.000906725 0.000832386 0.000759977 0.000689498 0.000620949 0.00055433 0.00048964 0.000426881 0.000367544 0.000313125 0.000263621 0.000219034 0.000179364 0.00014461 0.000114772 8.98514e-05 6.87925e-05 5.05414e-05 3.50982e-05 2.24628e-05 1.26354e-05 5.61571e-06 1.40393e-06 0 0 2.3876e-06 9.5504e-06 2.14884e-05 3.82016e-05 5.969e-05 8.59536e-05 0.000116992 0.000152806 0.000194924 0.000244872 0.000302652 0.000368262 0.000441704 0.000522978 0.000612082 0.000709017 0.000811153 0.000915859 0.00102313 0.00113298 0.0012454 0.00136038 0.00147794 0.00159806 0.00171777 0.0018341 0.00194703 0.00205657 0.00216272 0.00226548 0.00236485 0.00246083 0.00255212 0.00263741 0.00271672 0.00279003 0.00285735 0.00291868 0.00297401 0.00302335 0.00306716 0.00310588 0.00313951 0.00316805 0.00319151 0.00320988 0.00322317 0.00323137 0.00323591 0.0032382 0.00323825 0.00323605 0.00323161 0.00322492 0.003216 0.00320482 0.00319261 0.00318058 0.00316873 0.00315704 0.00314554 0.00313421 0.00312305 0.00311207 0.00310139 0.00309114 0.00308132 0.00307192 0.00306295 0.0030544 0.00304629 0.0030386 0.00303038 0.00302069 0.00300951 0.00299685 0.00298271 0.00296709 0.00294998 0.0029314 0.00291014 0.00288503 0.00285605 0.0028232 0.0027865 0.00274593 0.0027015 0.00265321 0.00260071 0.00254364 0.00248201 0.00241581 0.00234505 0.00226973 0.00218984 0.00210539 0.00201751 0.00192733 0.00183485 0.00174007 0.00164299 0.00154361 0.00144194 0.00133796 0.00123415 0.00113297 0.00103441 0.000938483 0.00084518 0.000754504 0.000666455 0.000581032 0.000500269 0.000426197 0.000358818 0.00029813 0.000244134 0.00019683 0.000156218 0.000122298 9.36342e-05 6.87925e-05 4.77725e-05 3.05744e-05 1.71981e-05 7.64361e-06 1.9109e-06 0 0 3.1185e-06 1.2474e-05 2.80665e-05 4.9896e-05 7.79625e-05 0.000112266 0.000152806 0.000199584 0.000254594 0.000319833 0.0003953 0.000480996 0.00057692 0.000683073 0.000799454 0.000926064 0.00105947 0.00119622 0.00133634 0.00147981 0.00162664 0.00177682 0.00193036 0.00208726 0.00224362 0.00239556 0.00254306 0.00268613 0.00282478 0.002959 0.00308879 0.00321415 0.00333338 0.00344479 0.00354837 0.00364412 0.00373205 0.00381215 0.00388442 0.00394887 0.00400608 0.00405665 0.00410058 0.00413786 0.0041685 0.0041925 0.00420986 0.00422057 0.00422649 0.00422948 0.00422955 0.00422668 0.00422088 0.00421215 0.00420048 0.00418589 0.00416995 0.00415423 0.00413874 0.00412349 0.00410846 0.00409366 0.00407909 0.00406475 0.0040508 0.00403741 0.00402458 0.0040123 0.00400058 0.00398943 0.00397882 0.00396878 0.00395805 0.00394539 0.00393078 0.00391425 0.00389578 0.00387538 0.00385304 0.00382877 0.003801 0.0037682 0.00373035 0.00368745 0.00363951 0.00358652 0.00352849 0.00346542 0.00339684 0.0033223 0.0032418 0.00315535 0.00306292 0.00296454 0.0028602 0.0027499 0.00263511 0.00251732 0.00239653 0.00227274 0.00214595 0.00201615 0.00188335 0.00174754 0.00161196 0.0014798 0.00135107 0.00122577 0.00110391 0.000985475 0.000870472 0.000758899 0.000653412 0.000556666 0.00046866 0.000389395 0.000318869 0.000257084 0.00020404 0.000159736 0.000122298 8.98514e-05 6.23968e-05 3.99339e-05 2.24628e-05 9.98349e-06 2.49587e-06 0 0 4.00574e-06 1.6023e-05 3.60516e-05 6.40918e-05 0.000100143 0.000144207 0.000196281 0.000256367 0.00032693 0.000410436 0.000506883 0.000616274 0.000738606 0.000873881 0.0010221 0.00118326 0.001353 0.00152696 0.00170514 0.00188755 0.00207417 0.00226502 0.00246008 0.00265937 0.00285796 0.00305095 0.00323833 0.00342011 0.00359629 0.00376685 0.00393181 0.00409117 0.00424277 0.00438448 0.00451628 0.00463818 0.00475019 0.00485229 0.00494449 0.00502679 0.00509994 0.00516466 0.00522097 0.00526885 0.00530832 0.00533937 0.005362 0.00537622 0.00538435 0.00538873 0.00538938 0.00538627 0.00537943 0.00536883 0.0053545 0.00533641 0.00531658 0.00529698 0.00527762 0.00525849 0.00523961 0.00522096 0.00520255 0.00518437 0.00516664 0.00514957 0.00513315 0.00511739 0.00510229 0.00508783 0.00507404 0.0050609 0.00504684 0.00503031 0.0050113 0.0049898 0.00496583 0.00493937 0.00491044 0.00487903 0.00484318 0.00480094 0.00475231 0.00469728 0.00463587 0.00456806 0.00449386 0.00441327 0.00432572 0.00423063 0.00412801 0.00401785 0.00390015 0.00377491 0.00364214 0.00350184 0.00335587 0.0032061 0.00305253 0.00289516 0.002734 0.00256904 0.00240029 0.00222774 0.00205544 0.00188748 0.00172383 0.0015645 0.0014095 0.00125882 0.00111246 0.000970427 0.000836083 0.000712803 0.000600587 0.000499435 0.000409346 0.000330321 0.00026236 0.000205462 0.000157307 0.000115573 8.02588e-05 5.13656e-05 2.88932e-05 1.28414e-05 3.21035e-06 0 0 5.10821e-06 2.04328e-05 4.59739e-05 8.17313e-05 0.000127705 0.000183895 0.000250302 0.000326925 0.000416641 0.000522327 0.000643983 0.000781609 0.000935204 0.00110477 0.0012903 0.00149181 0.00170387 0.00192106 0.00214339 0.00237085 0.00260345 0.00284118 0.00308405 0.00333206 0.00357917 0.00381936 0.00405263 0.00427898 0.00449841 0.00471092 0.0049165 0.00511517 0.00530427 0.00548116 0.00564584 0.00579831 0.00593858 0.00606664 0.00618248 0.00628612 0.00637845 0.00646035 0.00653183 0.00659288 0.00664352 0.00668373 0.00671351 0.00673288 0.00674467 0.00675174 0.00675409 0.00675172 0.00674463 0.00673282 0.00671629 0.00669504 0.0066715 0.00664811 0.00662486 0.00660177 0.00657883 0.00655603 0.00653338 0.00651088 0.00648879 0.00646736 0.00644661 0.00642652 0.0064071 0.00638835 0.00637026 0.00635285 0.00633419 0.00631239 0.00628743 0.00625933 0.00622808 0.00619368 0.00615613 0.00611543 0.0060692 0.00601506 0.00595301 0.00588305 0.00580519 0.00571941 0.00562572 0.00552413 0.00541394 0.00529446 0.00516571 0.00502767 0.00488035 0.00472375 0.00455787 0.00438271 0.00420057 0.00401375 0.00382224 0.00362606 0.0034252 0.00321966 0.00300944 0.00279453 0.00257993 0.00237061 0.00216657 0.00196781 0.00177433 0.00158612 0.0014032 0.00122556 0.00105739 0.000902881 0.000762038 0.000634858 0.000521342 0.000421489 0.0003353 0.000262774 0.000201187 0.000147811 0.000102646 6.56936e-05 3.69526e-05 1.64234e-05 4.10585e-06 0 0 6.4259e-06 2.57036e-05 5.78331e-05 0.000102814 0.000160648 0.000231333 0.000314869 0.000411258 0.000523728 0.000655508 0.0008066 0.000977002 0.00116671 0.00137574 0.00160407 0.00185172 0.00211207 0.00237852 0.00265107 0.00292972 0.00321448 0.00350533 0.00380228 0.00410533 0.00440725 0.00470079 0.00498595 0.00526274 0.00553115 0.00579119 0.00604285 0.00628613 0.00651785 0.00673482 0.00693704 0.00712451 0.00729723 0.00745519 0.0075984 0.00772687 0.00784162 0.00794373 0.00803317 0.00810996 0.00817409 0.00822557 0.00826439 0.00829055 0.00830746 0.0083185 0.00832369 0.00832302 0.00831649 0.00830411 0.00828586 0.00826176 0.00823471 0.00820762 0.00818049 0.00815332 0.00812611 0.00809887 0.00807159 0.00804427 0.00801722 0.00799078 0.00796493 0.00793968 0.00791502 0.00789096 0.0078675 0.00784464 0.0078201 0.00779162 0.0077592 0.00772284 0.00768253 0.00763828 0.0075901 0.00753796 0.00747906 0.00741056 0.00733246 0.00724477 0.00714747 0.00704057 0.00692408 0.00679798 0.00666149 0.0065138 0.00635491 0.00618483 0.00600354 0.00581107 0.00560739 0.00539252 0.00516922 0.00494027 0.00470568 0.00446543 0.00421953 0.00396799 0.00371079 0.00344794 0.00318542 0.00292921 0.00267929 0.00243569 0.00219838 0.00196738 0.00174269 0.0015243 0.00131733 0.0011269 0.000953012 0.000795664 0.000654856 0.000530588 0.00042286 0.000331672 0.000253936 0.000186565 0.000129559 8.29179e-05 4.66413e-05 2.07295e-05 5.18237e-06 0 0 7.95883e-06 3.18353e-05 7.16295e-05 0.000127341 0.000198971 0.000286518 0.000389983 0.000509365 0.000648189 0.000809978 0.000994733 0.00120245 0.00143314 0.00168679 0.0019634 0.00226298 0.00257761 0.00289934 0.00322819 0.00356416 0.00390725 0.00425744 0.00461476 0.00497919 0.00534219 0.00569523 0.00603829 0.00637139 0.00669451 0.00700767 0.00731085 0.00760407 0.00788354 0.00814548 0.00838989 0.00861677 0.00882613 0.00901795 0.00919225 0.00934902 0.00948946 0.00961479 0.00972499 0.00982008 0.00990005 0.0099649 0.0100146 0.0100492 0.0100727 0.010089 0.0100982 0.0101002 0.010095 0.0100827 0.0100632 0.0100366 0.0100062 0.00997551 0.00994448 0.00991314 0.00988147 0.00984948 0.00981717 0.00978453 0.00975196 0.00971982 0.00968812 0.00965687 0.00962606 0.00959568 0.00956575 0.00953626 0.00950456 0.00946801 0.00942659 0.00938032 0.00932919 0.0092732 0.00921235 0.00914664 0.00907278 0.00898745 0.00889066 0.00878242 0.00866271 0.00853155 0.00838892 0.00823483 0.00806838 0.00788864 0.00769561 0.00748931 0.00726972 0.00703685 0.00679069 0.00653126 0.00626182 0.00598568 0.00570283 0.00541327 0.00511701 0.00481403 0.00450435 0.00418796 0.00387191 0.00356326 0.003262 0.00296814 0.00268167 0.0024026 0.00213092 0.00186664 0.00161591 0.00138486 0.00117351 0.000981853 0.000809889 0.000657618 0.000525039 0.000412154 0.000315556 0.000231837 0.000160998 0.000103039 5.79592e-05 2.57596e-05 6.43991e-06 0 0 9.70699e-06 3.8828e-05 8.73629e-05 0.000155312 0.000242675 0.000349452 0.000475643 0.000621247 0.000790026 0.000985738 0.00120838 0.00145796 0.00173447 0.00203792 0.0023683 0.00272561 0.00310048 0.00348353 0.00387476 0.00427417 0.00468176 0.00509754 0.00552149 0.00595363 0.00638401 0.00680268 0.00720965 0.00760492 0.00798849 0.00836036 0.00872052 0.00906898 0.00940132 0.00971312 0.0100044 0.0102751 0.0105253 0.0107549 0.010964 0.0111526 0.011322 0.0114735 0.0116073 0.0117232 0.0118214 0.0119017 0.0119642 0.0120089 0.0120404 0.0120633 0.0120775 0.0120832 0.0120802 0.0120686 0.0120484 0.0120195 0.011986 0.0119518 0.0119169 0.0118812 0.0118449 0.0118079 0.0117701 0.0117317 0.011693 0.0116545 0.0116162 0.0115781 0.0115402 0.0115025 0.011465 0.0114277 0.0113876 0.0113415 0.0112896 0.0112318 0.011168 0.0110984 0.0110229 0.0109415 0.0108503 0.0107457 0.0106276 0.010496 0.0103509 0.0101923 0.0100203 0.00983469 0.0096346 0.00941898 0.00918782 0.00894112 0.00867888 0.0084011 0.00810778 0.00779893 0.00747838 0.00714997 0.00681371 0.00646959 0.00611762 0.0057578 0.00539012 0.00501458 0.0046394 0.00427277 0.00391469 0.00356516 0.00322419 0.00289177 0.00256791 0.00225259 0.00195312 0.00167676 0.00142353 0.00119343 0.000986441 0.000802578 0.000641839 0.000504222 0.000386045 0.000283625 0.000196962 0.000126056 7.09062e-05 3.15139e-05 7.87847e-06 0 0 1.16704e-05 4.66815e-05 0.000105033 0.000186726 0.000291759 0.000420134 0.000571848 0.000746904 0.000949238 0.00118279 0.00144755 0.00174353 0.00207072 0.00242913 0.00281875 0.00323959 0.00368068 0.00413107 0.00459076 0.00505974 0.00553803 0.0060256 0.00652248 0.00702865 0.00753269 0.00802315 0.00850004 0.00896335 0.00941309 0.00984925 0.0102718 0.0106809 0.0110712 0.0114378 0.0117805 0.0120995 0.0123947 0.0126661 0.0129137 0.0131375 0.0133391 0.01352 0.0136801 0.0138195 0.0139381 0.014036 0.0141132 0.0141696 0.0142106 0.0142413 0.0142618 0.014272 0.014272 0.0142618 0.0142413 0.0142105 0.0141741 0.0141364 0.0140976 0.0140576 0.0140164 0.013974 0.0139305 0.0138857 0.0138403 0.0137948 0.0137491 0.0137034 0.0136575 0.0136114 0.0135653 0.013519 0.0134692 0.0134122 0.0133483 0.0132772 0.0131991 0.0131139 0.0130217 0.0129224 0.0128117 0.0126854 0.0125433 0.0123855 0.0122121 0.0120229 0.0118181 0.0115975 0.0113602 0.0111048 0.0108315 0.0105403 0.010231 0.00990382 0.00955866 0.00919553 0.00881888 0.00843314 0.0080383 0.00763438 0.00722138 0.00679928 0.00636809 0.00592782 0.00548789 0.00505774 0.00463736 0.00422676 0.00382594 0.0034349 0.00305363 0.00268215 0.00232896 0.00200261 0.00170308 0.00143038 0.00118451 0.000965471 0.000773259 0.000607875 0.000465405 0.00034193 0.000237451 0.000151969 8.54825e-05 3.79922e-05 9.49805e-06 0 0 1.3849e-05 5.5396e-05 0.000124641 0.000221584 0.000346225 0.000498564 0.000678601 0.000886336 0.00112582 0.00140112 0.00171223 0.00205915 0.00244188 0.00286042 0.00331477 0.00380492 0.00431822 0.00484198 0.0053762 0.00592089 0.00647603 0.00704165 0.00761772 0.00820426 0.00878824 0.00935663 0.00990944 0.0104467 0.0109683 0.0114744 0.0119648 0.0124397 0.0128932 0.0133194 0.0137183 0.01409 0.0144344 0.0147515 0.0150413 0.0153039 0.0155409 0.0157541 0.0159433 0.0161087 0.0162502 0.0163678 0.0164615 0.0165314 0.0165833 0.0166231 0.0166509 0.0166667 0.0166705 0.0166623 0.016642 0.0166096 0.0165704 0.0165295 0.0164867 0.0164422 0.016396 0.0163479 0.0162982 0.0162466 0.0161939 0.0161407 0.0160869 0.0160327 0.0159778 0.0159225 0.0158666 0.0158102 0.0157493 0.0156801 0.0156025 0.0155166 0.0154224 0.0153198 0.0152088 0.0150895 0.014957 0.0148064 0.0146377 0.014451 0.0142462 0.0140233 0.0137824 0.0135234 0.0132451 0.0129462 0.0126267 0.0122867 0.0119261 0.011545 0.0111433 0.0107211 0.0102833 0.00983518 0.00937662 0.00890765 0.00842827 0.00793848 0.00743827 0.00692766 0.00641738 0.00591816 0.00543001 0.00495294 0.00448693 0.00403198 0.00358811 0.00315531 0.00274344 0.00236239 0.00201215 0.00169272 0.0014041 0.00114629 0.000919298 0.000723114 0.000553634 0.000406752 0.000282466 0.000180778 0.000101688 4.51946e-05 1.12987e-05 0 0 1.62428e-05 6.49714e-05 0.000146186 0.000259885 0.000406071 0.000584742 0.000795899 0.00103954 0.00131979 0.00164075 0.00200243 0.00240483 0.00284795 0.00333179 0.00385634 0.00442162 0.00501309 0.00561625 0.00623108 0.00685759 0.00749579 0.00814566 0.00880722 0.00948045 0.0101507 0.0108031 0.0114379 0.0120549 0.0126541 0.0132357 0.0137995 0.0143455 0.0148673 0.015358 0.0158177 0.0162465 0.0166443 0.0170111 0.0173469 0.0176517 0.0179274 0.0181759 0.0183971 0.018591 0.0187577 0.0188971 0.0190092 0.0190941 0.0191584 0.0192087 0.019245 0.0192673 0.0192757 0.01927 0.0192504 0.0192169 0.0191751 0.0191309 0.0190842 0.0190351 0.0189836 0.0189296 0.0188732 0.0188144 0.0187538 0.0186922 0.0186296 0.018566 0.0185013 0.0184356 0.0183689 0.0183011 0.018228 0.0181451 0.0180524 0.01795 0.0178378 0.0177159 0.0175842 0.0174427 0.0172861 0.0171088 0.0169109 0.0166924 0.0164533 0.0161936 0.0159132 0.0156122 0.0152893 0.014943 0.0145734 0.0141805 0.0137643 0.0133247 0.0128618 0.0123755 0.0118717 0.0113561 0.0108287 0.0102894 0.0097383 0.00917539 0.00860066 0.00801411 0.00742787 0.00685404 0.00629265 0.00574368 0.00520714 0.00468302 0.00417134 0.00367207 0.00319656 0.00275612 0.00235074 0.00198044 0.00164521 0.00134505 0.00107996 0.000849938 0.000650734 0.00047809 0.000332007 0.000212484 0.000119522 5.31211e-05 1.32803e-05 0 0 1.8839e-05 7.53561e-05 0.000169551 0.000301425 0.000470976 0.000678205 0.000923113 0.0012057 0.00153007 0.00190034 0.00231651 0.00277857 0.00328653 0.00384039 0.00444014 0.00508579 0.00576085 0.00644883 0.00714973 0.00786354 0.00859028 0.00932994 0.0100825 0.010848 0.01161 0.0123519 0.0130739 0.0137759 0.0144578 0.0151198 0.0157618 0.0163837 0.0169783 0.0175379 0.0180627 0.0185526 0.0190076 0.0194277 0.019813 0.0201634 0.0204809 0.0207676 0.0210235 0.0212486 0.0214428 0.0216062 0.0217388 0.0218405 0.0219189 0.0219811 0.0220272 0.0220573 0.0220713 0.0220692 0.022051 0.0220168 0.0219729 0.0219257 0.0218754 0.0218218 0.0217649 0.0217049 0.0216416 0.0215751 0.0215061 0.0214355 0.0213633 0.0212895 0.0212141 0.021137 0.0210583 0.0209779 0.0208911 0.020793 0.0206837 0.020563 0.020431 0.0202877 0.0201332 0.0199673 0.0197842 0.0195777 0.019348 0.0190949 0.0188185 0.0185189 0.0181959 0.0178496 0.0174786 0.0170814 0.0166579 0.0162082 0.0157323 0.0152301 0.0147018 0.0141472 0.0135728 0.0129852 0.0123843 0.01177 0.0111425 0.0105016 0.00984746 0.00918 0.00851281 0.00785944 0.0072199 0.00659418 0.00598229 0.00538422 0.00479998 0.00422957 0.00368585 0.0031817 0.00271712 0.00229211 0.00190668 0.00156081 0.00125451 0.000987778 0.000756267 0.000555625 0.000385851 0.000246944 0.000138906 6.17361e-05 1.5434e-05 0 0 2.16247e-05 8.64988e-05 0.000194622 0.000345995 0.000540617 0.000778489 0.00105961 0.00138398 0.00175563 0.00217857 0.00265282 0.00317836 0.00375521 0.00438336 0.00506281 0.00579356 0.00655703 0.00733467 0.00812646 0.0089324 0.0097525 0.0105868 0.0114352 0.0122977 0.0131562 0.0139923 0.0148061 0.0155975 0.0163666 0.0171133 0.0178376 0.0185396 0.019211 0.0198435 0.020437 0.0209917 0.0215075 0.0219844 0.0224223 0.0228214 0.0231838 0.0235116 0.0238049 0.0240637 0.0242879 0.0244776 0.0246328 0.0247534 0.0248476 0.0249235 0.024981 0.0250203 0.0250412 0.0250437 0.025028 0.0249939 0.0249485 0.0248991 0.0248454 0.0247876 0.0247256 0.0246594 0.0245891 0.0245146 0.0244369 0.0243568 0.0242743 0.0241895 0.0241023 0.0240127 0.0239208 0.0238265 0.0237246 0.0236097 0.0234819 0.0233411 0.0231874 0.0230207 0.0228411 0.0226485 0.0224364 0.0221982 0.021934 0.0216436 0.0213271 0.0209845 0.0206159 0.0202211 0.0197987 0.0193471 0.0188663 0.0183563 0.0178171 0.0172487 0.0166511 0.0160243 0.0153754 0.0147118 0.0140333 0.0133399 0.0126317 0.0119087 0.0111709 0.0104182 0.00966566 0.00892841 0.00820639 0.00749962 0.00680808 0.00613179 0.00547073 0.00482492 0.00420886 0.00363707 0.00310955 0.00262631 0.00218734 0.00179264 0.00144222 0.00113607 0.0008698 0.000639037 0.000443776 0.000284016 0.000159759 7.10041e-05 1.7751e-05 0 0 2.45998e-05 9.83993e-05 0.000221398 0.000393597 0.000614995 0.000885593 0.00120539 0.00157439 0.00199645 0.00247544 0.00301136 0.00360421 0.004254 0.00496071 0.00572435 0.00654492 0.00740165 0.00827377 0.00916127 0.0100642 0.0109825 0.0119161 0.0128652 0.0138296 0.0147894 0.0157243 0.0166345 0.0175198 0.0183804 0.0192161 0.0200271 0.0208132 0.0215655 0.0222747 0.0229408 0.0235639 0.0241439 0.0246809 0.0251749 0.0256258 0.026036 0.0264078 0.0267412 0.0270363 0.027293 0.0275112 0.0276911 0.0278327 0.0279446 0.0280359 0.0281064 0.0281562 0.0281853 0.0281937 0.0281813 0.0281482 0.0281022 0.0280509 0.0279943 0.0279326 0.0278655 0.0277933 0.0277158 0.027633 0.0275461 0.0274559 0.0273624 0.0272658 0.0271659 0.0270628 0.0269565 0.0268469 0.0267284 0.0265951 0.0264471 0.0262844 0.026107 0.0259148 0.0257079 0.0254863 0.0252428 0.0249704 0.0246689 0.0243385 0.023979 0.0235906 0.0231731 0.0227267 0.0222497 0.0217403 0.0211987 0.0206249 0.0200188 0.0193804 0.0187097 0.0180068 0.0172795 0.0165358 0.0157757 0.0149991 0.0142061 0.0133967 0.0125709 0.0117286 0.0108864 0.0100609 0.00925213 0.00845999 0.00768452 0.00692571 0.00618358 0.00545812 0.00476558 0.00412221 0.00352803 0.00298303 0.0024872 0.00204056 0.00164309 0.0012948 0.000991331 0.000728325 0.000505781 0.0003237 0.000182081 8.0925e-05 2.02313e-05 0 0 2.77644e-05 0.000111058 0.00024988 0.00044423 0.00069411 0.000999519 0.00136046 0.00177692 0.00225254 0.00279095 0.00339214 0.00405612 0.00478288 0.00557243 0.00642476 0.00733988 0.00829469 0.00926613 0.0102542 0.0112588 0.0122801 0.013318 0.0143726 0.0154437 0.0165095 0.0175479 0.018559 0.0195428 0.0204993 0.0214284 0.0223301 0.0232046 0.0240417 0.0248315 0.025574 0.0262691 0.0269169 0.0275175 0.0280707 0.0285765 0.0290376 0.0294562 0.0298325 0.0301664 0.030458 0.0307071 0.0309139 0.0310783 0.0312099 0.0313183 0.0314033 0.0314652 0.0315037 0.031519 0.031511 0.0314798 0.0314337 0.0313812 0.0313222 0.0312567 0.0311848 0.0311065 0.0310216 0.0309304 0.0308337 0.0307329 0.0306278 0.0305185 0.030405 0.0302872 0.0301653 0.0300391 0.0299024 0.0297492 0.0295793 0.0293929 0.0291897 0.02897 0.0287337 0.0284807 0.0282034 0.0278941 0.0275528 0.0271795 0.0267742 0.026337 0.0258677 0.0253664 0.0248314 0.024261 0.0236552 0.0230139 0.0223372 0.0216251 0.0208776 0.0200947 0.019285 0.0184573 0.0176115 0.0167476 0.0158656 0.0149656 0.0140475 0.0131113 0.0121751 0.0112571 0.0103571 0.0094753 0.00861159 0.007766 0.00693853 0.00612917 0.00535601 0.00463714 0.00397256 0.00336227 0.00280627 0.00230455 0.00185712 0.00146398 0.00112086 0.00082349 0.000571868 0.000365995 0.000205872 9.14989e-05 2.28747e-05 0 0 3.11185e-05 0.000124474 0.000280066 0.000497895 0.000777962 0.00112026 0.0015248 0.00199158 0.00252391 0.0031251 0.00379516 0.00453408 0.00534187 0.00621853 0.00716404 0.00817843 0.00923617 0.0103117 0.0114052 0.0125164 0.0136455 0.0147925 0.0159573 0.0171399 0.0183165 0.0194631 0.0205798 0.0216665 0.0227232 0.02375 0.0247468 0.0257136 0.0266396 0.0275139 0.0283365 0.0291074 0.0298265 0.0304939 0.0311097 0.0316736 0.0321885 0.0326569 0.0330788 0.0334541 0.033783 0.0340653 0.0343011 0.0344904 0.0346435 0.0347706 0.0348718 0.0349471 0.0349964 0.0350198 0.0350172 0.0349886 0.0349432 0.03489 0.034829 0.0347601 0.0346834 0.034599 0.0345067 0.0344065 0.0342999 0.0341878 0.0340704 0.0339476 0.0338195 0.033686 0.0335472 0.033403 0.0332469 0.033072 0.0328786 0.0326665 0.0324357 0.0321863 0.0319183 0.0316316 0.0313181 0.0309694 0.0305857 0.0301668 0.0297128 0.0292237 0.0286995 0.0281402 0.027544 0.0269091 0.0262356 0.0255234 0.0247725 0.023983 0.0231549 0.0222881 0.0213921 0.0204763 0.0195407 0.0185853 0.0176102 0.0166153 0.0156007 0.0145662 0.0135317 0.0125167 0.0115213 0.0105455 0.00958931 0.00865265 0.00773557 0.00683807 0.00598016 0.00518185 0.00444314 0.00376403 0.00314453 0.00258462 0.00208431 0.00164361 0.00125839 0.000924531 0.000642036 0.000410903 0.000231133 0.000102726 2.56814e-05 0 0 3.4662e-05 0.000138648 0.000311958 0.000554592 0.00086655 0.00124783 0.00169844 0.00221837 0.00281054 0.00347789 0.00422041 0.0050381 0.00593096 0.006899 0.0079422 0.00906058 0.01