<?xml version="1.0"?> 
<VTKFile type="StructuredGrid" version="0.1"> 
<StructuredGrid WholeExtent="0 128 0 128 0 0"> 
<Piece Extent="0 128 0 128 0 0"> 
<PointData>
<DataArray type="Float32" Name="u" format="ascii" NumberOfComponents="1"> 
0 0 0 0 0 0 0 0 0 0 0 0 0 0 0 0 0 0 0 0 0 0 0 0 0 0 0 0 0 0 0 0 0 0 0 0 0 0 0 0 0 0 0 0 0 0 0 0 0 0 0 0 0 0 0 0 0 0 0 0 0 0 0 0 0 0 0 0 0 0 0 0 0 0 0 0 0 0 0 0 0 0 0 0 0 0 0 0 0 0 0 0 0 0 0 0 0 0 0 0 0 0 0 0 0 0 0 0 0 0 0 0 0 0 0 0 0 0 0 0 0 0 0 0 0 0 0 0 0 0 6.06549e-08 2.4262e-07 5.45894e-07 9.70478e-07 1.51637e-06 2.18358e-06 2.97209e-06 3.88191e-06 4.93998e-06 6.17322e-06 7.58165e-06 9.16525e-06 1.0924e-05 1.2858e-05 1.49671e-05 1.72514e-05 1.96527e-05 2.21128e-05 2.46317e-05 2.72094e-05 2.98458e-05 3.25411e-05 3.52951e-05 3.81079e-05 4.0921e-05 4.36759e-05 4.63724e-05 4.90107e-05 5.15907e-05 5.41125e-05 5.65759e-05 5.89812e-05 6.13019e-05 6.3512e-05 6.56114e-05 6.76001e-05 6.94782e-05 7.12456e-05 7.29023e-05 7.44484e-05 7.58855e-05 7.72153e-05 7.84378e-05 7.95531e-05 8.0561e-05 8.14617e-05 8.22551e-05 8.29412e-05 8.3536e-05 8.40552e-05 8.4499e-05 8.48672e-05 8.516e-05 8.53773e-05 8.55191e-05 8.55854e-05 8.55912e-05 8.55514e-05 8.54661e-05 8.53352e-05 8.51587e-05 8.49367e-05 8.46692e-05 8.4356e-05 8.40015e-05 8.36098e-05 8.31808e-05 8.27146e-05 8.22112e-05 8.16705e-05 8.10926e-05 8.04775e-05 7.98183e-05 7.91079e-05 7.83465e-05 7.7534e-05 7.66703e-05 7.57556e-05 7.47898e-05 7.37729e-05 7.26955e-05 7.15483e-05 7.03311e-05 6.90441e-05 6.76872e-05 6.62604e-05 6.47637e-05 6.31972e-05 6.15615e-05 5.98573e-05 5.80847e-05 5.62436e-05 5.43341e-05 5.23561e-05 5.03097e-05 4.81948e-05 4.60326e-05 4.38443e-05 4.16299e-05 3.93893e-05 3.71226e-05 3.48298e-05 3.25108e-05 3.01657e-05 2.78384e-05 2.55727e-05 2.33686e-05 2.12262e-05 1.91454e-05 1.71263e-05 1.51688e-05 1.32729e-05 1.1479e-05 9.82746e-06 8.31819e-06 6.95122e-06 5.72656e-06 4.6442e-06 3.70414e-06 2.90639e-06 2.22521e-06 1.63485e-06 1.13531e-06 7.26598e-07 4.08712e-07 1.8165e-07 4.54124e-08 0 0 2.4262e-07 9.70478e-07 2.18358e-06 3.88191e-06 6.06549e-06 8.7343e-06 1.18884e-05 1.55276e-05 1.97599e-05 2.46929e-05 3.03266e-05 3.6661e-05 4.36961e-05 5.14319e-05 5.98685e-05 6.90057e-05 7.86109e-05 8.84512e-05 9.85267e-05 0.000108837 0.000119383 0.000130164 0.00014118 0.000152432 0.000163684 0.000174703 0.00018549 0.000196043 0.000206363 0.00021645 0.000226304 0.000235925 0.000245208 0.000254048 0.000262445 0.0002704 0.000277913 0.000284982 0.000291609 0.000297794 0.000303542 0.000308861 0.000313751 0.000318212 0.000322244 0.000325847 0.00032902 0.000331765 0.000334144 0.000336221 0.000337996 0.000339469 0.00034064 0.000341509 0.000342076 0.000342342 0.000342365 0.000342206 0.000341864 0.000341341 0.000340635 0.000339747 0.000338677 0.000337424 0.000336006 0.000334439 0.000332723 0.000330858 0.000328845 0.000326682 0.000324371 0.00032191 0.000319273 0.000316432 0.000313386 0.000310136 0.000306681 0.000303022 0.000299159 0.000295092 0.000290782 0.000286193 0.000281324 0.000276176 0.000270749 0.000265042 0.000259055 0.000252789 0.000246246 0.000239429 0.000232339 0.000224975 0.000217336 0.000209424 0.000201239 0.000192779 0.00018413 0.000175377 0.000166519 0.000157557 0.00014849 0.000139319 0.000130043 0.000120663 0.000111353 0.000102291 9.34744e-05 8.49047e-05 7.65816e-05 6.85051e-05 6.06751e-05 5.30917e-05 4.59162e-05 3.93099e-05 3.32728e-05 2.78049e-05 2.29062e-05 1.85768e-05 1.48166e-05 1.16256e-05 8.90083e-06 6.53939e-06 4.54124e-06 2.90639e-06 1.63485e-06 7.26598e-07 1.8165e-07 0 0 5.45894e-07 2.18358e-06 4.91305e-06 8.7343e-06 1.36473e-05 1.96522e-05 2.67488e-05 3.49372e-05 4.44598e-05 5.5559e-05 6.82348e-05 8.24872e-05 9.83162e-05 0.000115722 0.000134704 0.000155263 0.000176874 0.000199015 0.000221685 0.000244884 0.000268612 0.00029287 0.000317656 0.000342971 0.000368289 0.000393083 0.000417352 0.000441096 0.000464316 0.000487012 0.000509183 0.00053083 0.000551717 0.000571608 0.000590502 0.000608401 0.000625304 0.00064121 0.000656121 0.000670036 0.000682969 0.000694938 0.00070594 0.000715978 0.000725049 0.000733155 0.000740296 0.000746471 0.000751824 0.000756497 0.000760491 0.000763805 0.00076644 0.000768396 0.000769672 0.000770269 0.000770321 0.000769963 0.000769195 0.000768017 0.000766429 0.000764431 0.000762022 0.000759204 0.000756014 0.000752488 0.000748627 0.000744431 0.000739901 0.000735035 0.000729834 0.000724298 0.000718365 0.000711971 0.000705118 0.000697806 0.000690033 0.0006818 0.000673108 0.000663956 0.00065426 0.000643934 0.00063298 0.000621397 0.000609185 0.000596344 0.000582874 0.000568775 0.000554053 0.000538716 0.000522762 0.000506193 0.000489007 0.000471205 0.000452787 0.000433753 0.000414294 0.000394599 0.000374669 0.000354504 0.000334103 0.000313468 0.000292597 0.000271491 0.000250545 0.000230154 0.000210317 0.000191036 0.000172309 0.000154136 0.000136519 0.000119456 0.000103311 8.84472e-05 7.48637e-05 6.2561e-05 5.1539e-05 4.17978e-05 3.33373e-05 2.61575e-05 2.00269e-05 1.47136e-05 1.02178e-05 6.53939e-06 3.6784e-06 1.63485e-06 4.08712e-07 0 0 9.70478e-07 3.88191e-06 8.7343e-06 1.55276e-05 2.4262e-05 3.49372e-05 4.75534e-05 6.21106e-05 7.90397e-05 9.87716e-05 0.000121306 0.000146644 0.000174784 0.000205728 0.000239474 0.000276023 0.000314444 0.000353805 0.000394107 0.00043535 0.000477533 0.000520657 0.000564722 0.000609727 0.000654737 0.000698814 0.000741959 0.000784171 0.000825451 0.000865799 0.000905215 0.000943698 0.00098083 0.00101619 0.00104978 0.0010816 0.00111165 0.00113993 0.00116644 0.00119117 0.00121417 0.00123544 0.00125501 0.00127285 0.00128898 0.00130339 0.00131608 0.00132706 0.00133658 0.00134488 0.00135198 0.00135788 0.00136256 0.00136604 0.00136831 0.00136937 0.00136946 0.00136882 0.00136746 0.00136536 0.00136254 0.00135899 0.00135471 0.0013497 0.00134402 0.00133776 0.00133089 0.00132343 0.00131538 0.00130673 0.00129748 0.00128764 0.00127709 0.00126573 0.00125354 0.00124054 0.00122673 0.00121209 0.00119664 0.00118037 0.00116313 0.00114477 0.0011253 0.00110471 0.00108299 0.00106017 0.00103622 0.00101116 0.000984984 0.000957717 0.000929355 0.000899898 0.000869346 0.000837698 0.000804955 0.000771117 0.000736522 0.000701509 0.000666078 0.000630229 0.000593962 0.000557276 0.000520173 0.000482651 0.000445414 0.000409163 0.000373898 0.000339619 0.000306327 0.00027402 0.0002427 0.000212367 0.000183665 0.000157239 0.000133091 0.00011122 9.16249e-05 7.43072e-05 5.92663e-05 4.65023e-05 3.56033e-05 2.61575e-05 1.8165e-05 1.16256e-05 6.53939e-06 2.90639e-06 7.26598e-07 0 0 1.51637e-06 6.06549e-06 1.36473e-05 2.4262e-05 3.79093e-05 5.45894e-05 7.43022e-05 9.70478e-05 0.000123499 0.000154331 0.000189541 0.000229131 0.000273101 0.00032145 0.000374178 0.000431286 0.000491318 0.00055282 0.000615792 0.000680234 0.000746145 0.000813527 0.000882378 0.000952698 0.00102303 0.0010919 0.00115931 0.00122527 0.00128977 0.00135281 0.0014144 0.00147453 0.00153255 0.0015878 0.00164028 0.00169 0.00173695 0.00178114 0.00182256 0.00186121 0.00189714 0.00193038 0.00196095 0.00198883 0.00201403 0.00203654 0.00205638 0.00207353 0.0020884 0.00210138 0.00211247 0.00212168 0.002129 0.00213443 0.00213798 0.00213964 0.00213978 0.00213879 0.00213665 0.00213338 0.00212897 0.00212342 0.00211673 0.0021089 0.00210004 0.00209024 0.00207952 0.00206786 0.00205528 0.00204176 0.00202732 0.00201194 0.00199546 0.0019777 0.00195866 0.00193835 0.00191676 0.00189389 0.00186975 0.00184432 0.00181739 0.00178871 0.00175828 0.0017261 0.00169218 0.00165651 0.00161909 0.00157993 0.00153904 0.00149643 0.00145212 0.00140609 0.00135835 0.0013089 0.00125774 0.00120487 0.00115082 0.00109611 0.00104075 0.000984732 0.000928065 0.000870744 0.00081277 0.000754143 0.000695959 0.000639317 0.000584215 0.000530655 0.000478635 0.000428157 0.000379219 0.000331823 0.000286976 0.000245687 0.000207955 0.000173781 0.000143164 0.000116105 9.26036e-05 7.26598e-05 5.56302e-05 4.08712e-05 2.83827e-05 1.8165e-05 1.02178e-05 4.54124e-06 1.13531e-06 0 0 2.18358e-06 8.7343e-06 1.96522e-05 3.49372e-05 5.45894e-05 7.86087e-05 0.000106995 0.000139749 0.000177839 0.000222236 0.000272939 0.000329949 0.000393265 0.000462887 0.000538816 0.000621051 0.000707498 0.000796061 0.000886741 0.000979537 0.00107445 0.00117148 0.00127062 0.00137189 0.00147316 0.00157233 0.00166941 0.00176439 0.00185727 0.00194805 0.00203673 0.00212332 0.00220687 0.00228643 0.00236201 0.0024336 0.00250121 0.00256484 0.00262448 0.00268014 0.00273188 0.00277975 0.00282376 0.00286391 0.0029002 0.00293262 0.00296118 0.00298588 0.0030073 0.00302599 0.00304196 0.00305522 0.00306576 0.00307358 0.00307869 0.00308107 0.00308128 0.00307985 0.00307678 0.00307207 0.00306571 0.00305772 0.00304809 0.00303682 0.00302405 0.00300995 0.00299451 0.00297773 0.0029596 0.00294014 0.00291934 0.00289719 0.00287346 0.00284789 0.00282047 0.00279122 0.00276013 0.0027272 0.00269243 0.00265582 0.00261704 0.00257574 0.00253192 0.00248559 0.00243674 0.00238537 0.00233149 0.0022751 0.00221621 0.00215486 0.00209105 0.00202477 0.00195603 0.00188482 0.00181115 0.00173501 0.00165717 0.0015784 0.00149868 0.00141801 0.00133641 0.00125387 0.00117039 0.00108597 0.00100218 0.000920616 0.00084127 0.000764143 0.000689235 0.000616546 0.000546076 0.000477825 0.000413245 0.000353789 0.000299455 0.000250244 0.000206156 0.000167191 0.000133349 0.00010463 8.01075e-05 5.88545e-05 4.08712e-05 2.61575e-05 1.47136e-05 6.53939e-06 1.63485e-06 0 0 2.97209e-06 1.18884e-05 2.67488e-05 4.75534e-05 7.43022e-05 0.000106995 0.000145632 0.000190214 0.000242059 0.000302488 0.000371501 0.000449097 0.000535277 0.000630041 0.000733389 0.00084532 0.000962983 0.00108353 0.00120695 0.00133326 0.00146244 0.00159451 0.00172946 0.00186729 0.00200513 0.00214012 0.00227225 0.00240152 0.00252795 0.00265151 0.00277222 0.00289008 0.00300379 0.00311209 0.00321496 0.00331241 0.00340443 0.00349103 0.00357221 0.00364797 0.00371839 0.00378355 0.00384345 0.0038981 0.00394749 0.00399162 0.0040305 0.00406412 0.00409326 0.00411871 0.00414045 0.00415849 0.00417284 0.00418349 0.00419044 0.00419369 0.00419397 0.00419202 0.00418784 0.00418142 0.00417278 0.0041619 0.00414879 0.00413345 0.00411607 0.00409688 0.00407586 0.00405302 0.00402835 0.00400186 0.00397354 0.0039434 0.0039111 0.00387629 0.00383898 0.00379916 0.00375685 0.00371202 0.0036647 0.00361487 0.00356208 0.00350586 0.00344622 0.00338316 0.00331667 0.00324676 0.00317342 0.00309666 0.00301651 0.00293301 0.00284615 0.00275594 0.00266237 0.00256545 0.00246517 0.00236155 0.0022556 0.00214837 0.00203986 0.00193008 0.00181901 0.00170666 0.00159303 0.00147812 0.00136408 0.00125306 0.00114506 0.00104008 0.000938125 0.000839187 0.00074327 0.000650373 0.000562473 0.000481546 0.000407591 0.00034061 0.000280601 0.000227566 0.000181503 0.000142413 0.000109035 8.01075e-05 5.56302e-05 3.56033e-05 2.00269e-05 8.90083e-06 2.22521e-06 0 0 3.88191e-06 1.55276e-05 3.49372e-05 6.21106e-05 9.70478e-05 0.000139749 0.000190214 0.000248442 0.000316159 0.000395086 0.000485225 0.000586576 0.000699138 0.000822911 0.000957895 0.00110409 0.00125777 0.00141522 0.00157643 0.0017414 0.00191013 0.00208263 0.00225889 0.00243891 0.00261895 0.00279525 0.00296783 0.00313668 0.00330181 0.0034632 0.00362086 0.00377479 0.00392332 0.00406477 0.00419913 0.00432641 0.0044466 0.00455972 0.00466575 0.0047647 0.00485667 0.00494178 0.00502002 0.0050914 0.00515591 0.00521355 0.00526433 0.00530824 0.0053463 0.00537953 0.00540793 0.0054315 0.00545024 0.00546415 0.00547322 0.00547747 0.00547784 0.00547529 0.00546983 0.00546145 0.00545016 0.00543595 0.00541883 0.00539879 0.0053761 0.00535103 0.00532357 0.00529373 0.00526152 0.00522691 0.00518993 0.00515056 0.00510837 0.00506291 0.00501418 0.00496217 0.0049069 0.00484836 0.00478655 0.00472147 0.00465251 0.00457909 0.00450119 0.00441882 0.00433198 0.00424067 0.00414488 0.00404462 0.00393993 0.00383087 0.00371742 0.00359959 0.00347738 0.00335079 0.00321982 0.00308447 0.00294609 0.00280604 0.00266431 0.00252092 0.00237585 0.0022291 0.00208069 0.0019306 0.00178166 0.00163665 0.00149559 0.00135848 0.00122531 0.00109608 0.000970802 0.000849467 0.000734659 0.000628958 0.000532364 0.000444878 0.0003665 0.000297229 0.000237065 0.000186009 0.000142413 0.00010463 7.26598e-05 4.65023e-05 2.61575e-05 1.16256e-05 2.90639e-06 0 0 4.95655e-06 1.98262e-05 4.46089e-05 7.93047e-05 0.000123914 0.000178436 0.000242871 0.000317219 0.000403605 0.000504154 0.000618865 0.000747739 0.000890776 0.00104798 0.00121934 0.00140486 0.00159984 0.00179954 0.00200399 0.00221316 0.00242707 0.00264572 0.0028691 0.00309722 0.00332534 0.00354875 0.00376745 0.00398143 0.0041907 0.00439525 0.00459509 0.00479022 0.00497851 0.00515785 0.00532823 0.00548966 0.00564214 0.00578567 0.00592024 0.00604585 0.00616265 0.00627075 0.00637016 0.00646088 0.00654291 0.00661624 0.00668089 0.00673684 0.00678538 0.00682778 0.00686406 0.0068942 0.0069182 0.00693607 0.00694781 0.00695342 0.0069541 0.00695105 0.00694429 0.00693381 0.00691961 0.00690169 0.00688005 0.00685469 0.00682594 0.00679416 0.00675933 0.00672145 0.00668053 0.00663656 0.00658955 0.0065395 0.00648585 0.00642804 0.00636607 0.00629995 0.00622967 0.00615523 0.00607664 0.0059939 0.00590624 0.00581292 0.00571394 0.0056093 0.00549899 0.00538302 0.00526139 0.0051341 0.00500121 0.00486278 0.00471882 0.00456932 0.00441428 0.00425371 0.0040876 0.00391596 0.00374049 0.00356291 0.00338322 0.00320141 0.0030175 0.00283147 0.00264333 0.00245308 0.00226426 0.00208041 0.00190153 0.00172763 0.00155869 0.00139473 0.00123574 0.00108173 0.000935949 0.000801683 0.000678927 0.000567681 0.000467946 0.00037972 0.000303005 0.0002378 0.000182066 0.000133762 9.28906e-05 5.945e-05 3.34406e-05 1.48625e-05 3.71562e-06 0 0 6.23949e-06 2.4958e-05 5.61554e-05 9.98318e-05 0.000155987 0.000224622 0.000305735 0.000399327 0.000507864 0.000633813 0.000777172 0.000937942 0.00111612 0.00131171 0.00152472 0.00175513 0.00199714 0.00224491 0.00249845 0.00275776 0.00302284 0.00329368 0.0035703 0.00385269 0.00413505 0.00441162 0.00468237 0.00494733 0.00520648 0.00545982 0.00570736 0.0059491 0.00618242 0.00640471 0.00661599 0.00681623 0.00700546 0.00718365 0.00735083 0.00750698 0.00765225 0.00778678 0.00791058 0.00802364 0.00812596 0.00821755 0.0082984 0.00836852 0.00842946 0.00848277 0.00852846 0.00856652 0.00859696 0.00861978 0.00863497 0.00864254 0.00864396 0.0086407 0.00863277 0.00862016 0.00860288 0.00858093 0.0085543 0.008523 0.00848744 0.00844804 0.0084048 0.00835773 0.00830681 0.00825206 0.00819346 0.00813103 0.00806409 0.00799197 0.00791467 0.00783218 0.00774452 0.00765168 0.00755366 0.00745045 0.00734116 0.00722488 0.00710159 0.00697131 0.00683404 0.00668976 0.00653849 0.00638023 0.00621506 0.00604308 0.00586429 0.00567869 0.00548628 0.00528706 0.00508103 0.00486819 0.00465065 0.00443051 0.00420778 0.00398246 0.00375454 0.00352402 0.00329091 0.00305521 0.00282124 0.00259336 0.00237156 0.00215584 0.0019462 0.00174264 0.00154517 0.00135377 0.00117249 0.00100538 0.000852434 0.000713652 0.000589034 0.000478581 0.000382292 0.000300168 0.000229816 0.000168844 0.000117253 7.5042e-05 4.22111e-05 1.87605e-05 4.69012e-06 0 0 7.73074e-06 3.0923e-05 6.95767e-05 0.000123692 0.000193268 0.000278307 0.000378806 0.000494767 0.000628937 0.000784063 0.000960145 0.00115718 0.00137518 0.00161413 0.00187403 0.0021549 0.00244967 0.00275131 0.00305981 0.00337518 0.00369742 0.00402652 0.00436249 0.00470532 0.00504808 0.00538384 0.00571261 0.00603437 0.00634914 0.0066569 0.00695766 0.00725143 0.00753504 0.00780536 0.00806238 0.00830611 0.00853654 0.00875368 0.00895752 0.00914807 0.00932547 0.00948987 0.00964127 0.00977967 0.00990507 0.0100175 0.0101169 0.0102033 0.0102785 0.0103445 0.0104011 0.0104485 0.0104865 0.0105153 0.0105347 0.0105448 0.0105474 0.0105442 0.0105353 0.0105205 0.0105 0.0104737 0.0104416 0.0104037 0.0103606 0.0103127 0.01026 0.0102026 0.0101404 0.0100734 0.0100017 0.00992516 0.0098431 0.0097547 0.00965996 0.00955888 0.00945146 0.00933769 0.00921759 0.00909114 0.00895728 0.00881495 0.00866415 0.00850487 0.00833711 0.00816088 0.00797618 0.00778301 0.00758149 0.00737177 0.00715385 0.00692772 0.00669339 0.00645086 0.00620012 0.00594118 0.00567657 0.00540885 0.005138 0.00486404 0.00458696 0.00430675 0.00402343 0.00373698 0.00345261 0.00317551 0.00290568 0.00264312 0.00238784 0.00213982 0.00189907 0.00166559 0.00144429 0.00124005 0.00105288 0.000882789 0.000729764 0.00059381 0.000474926 0.000373113 0.000285664 0.000209876 0.000145747 9.32782e-05 5.2469e-05 2.33195e-05 5.82988e-06 0 0 9.4303e-06 3.77212e-05 8.48727e-05 0.000150885 0.000235758 0.000339491 0.000462085 0.000603539 0.000766823 0.000954905 0.00116779 0.00140546 0.00166794 0.00195522 0.00226729 0.00260416 0.00295744 0.00331875 0.00368808 0.00406544 0.00445082 0.00484423 0.00524566 0.00565511 0.00606443 0.00646544 0.00685816 0.00724257 0.00761868 0.00798649 0.008346 0.00869721 0.00903638 0.00935979 0.00966743 0.0099593 0.0102354 0.0104957 0.0107403 0.0109691 0.0111823 0.01138 0.0115622 0.011729 0.0118802 0.012016 0.0121363 0.0122411 0.0123326 0.0124129 0.0124821 0.0125401 0.0125869 0.0126225 0.012647 0.0126603 0.0126645 0.0126616 0.0126518 0.0126348 0.0126109 0.0125799 0.0125419 0.0124968 0.0124454 0.0123881 0.0123249 0.012256 0.0121812 0.0121006 0.0120141 0.0119219 0.0118229 0.0117162 0.011602 0.01148 0.0113505 0.0112133 0.0110684 0.010916 0.0107546 0.0105831 0.0104016 0.01021 0.0100082 0.00979639 0.00957446 0.00934243 0.0091005 0.00884885 0.00858749 0.00831641 0.00803561 0.00774509 0.00744486 0.00713491 0.00681826 0.00649791 0.00617388 0.00584617 0.00551476 0.00517966 0.00484088 0.00449841 0.00415836 0.00382685 0.00350389 0.00318947 0.00288359 0.00258625 0.00229746 0.0020172 0.00175133 0.00150569 0.00128028 0.00107509 0.000890137 0.000725408 0.000580907 0.000456634 0.000349611 0.000256857 0.000178373 0.000114159 6.42142e-05 2.85397e-05 7.13491e-06 0 0 1.13382e-05 4.53527e-05 0.000102044 0.000181411 0.000283454 0.000408174 0.00055557 0.000725643 0.000921522 0.00114634 0.00140009 0.00168278 0.00199441 0.00233498 0.00270448 0.00310292 0.00352045 0.00394723 0.00438326 0.00482853 0.00528304 0.0057468 0.00621981 0.00670207 0.00718409 0.0076564 0.00811901 0.00857191 0.00901511 0.00944859 0.00987237 0.0102864 0.0106864 0.011068 0.0114311 0.0117758 0.012102 0.0124099 0.0126992 0.0129701 0.0132228 0.0134572 0.0136735 0.0138715 0.0140514 0.0142132 0.0143567 0.014482 0.0145917 0.0146881 0.0147713 0.0148413 0.014898 0.0149416 0.0149718 0.0149889 0.0149951 0.0149929 0.0149823 0.0149632 0.0149356 0.0148997 0.0148552 0.0148024 0.0147418 0.0146742 0.0145996 0.0145179 0.0144293 0.0143336 0.0142309 0.0141212 0.0140034 0.0138766 0.0137407 0.0135957 0.0134416 0.0132784 0.0131062 0.0129249 0.0127331 0.0125295 0.012314 0.0120866 0.0118474 0.0115963 0.0113333 0.0110585 0.0107721 0.0104743 0.0101652 0.00984474 0.00951293 0.00916976 0.00881525 0.00844939 0.0080757 0.00769771 0.00731542 0.00692883 0.00653795 0.00614276 0.00574327 0.00533948 0.00493849 0.00454739 0.00416619 0.00379488 0.00343347 0.00308195 0.00274032 0.0024086 0.00209363 0.00180231 0.00153462 0.00129057 0.00107015 0.000873375 0.000700235 0.000550733 0.000421655 0.000309787 0.00021513 0.000137683 7.74469e-05 3.44208e-05 8.60521e-06 0 0 1.34544e-05 5.38174e-05 0.000121089 0.00021527 0.000336359 0.000484357 0.000659263 0.000861079 0.00109303 0.00135836 0.00165707 0.00198914 0.00235459 0.00275342 0.00318561 0.00365118 0.0041387 0.00463675 0.00514533 0.00566444 0.00619408 0.00673425 0.00728495 0.00784618 0.00840707 0.00895673 0.00949518 0.0100224 0.0105384 0.0110432 0.0115368 0.0120191 0.0124852 0.01293 0.0133535 0.0137556 0.0141365 0.014496 0.0148342 0.0151511 0.0154468 0.0157215 0.015975 0.0162074 0.0164187 0.0166089 0.016778 0.0169261 0.0170558 0.0171701 0.0172688 0.0173522 0.01742 0.0174724 0.0175093 0.0175307 0.0175394 0.0175381 0.0175268 0.0175055 0.0174742 0.0174329 0.0173816 0.0173203 0.0172499 0.0171711 0.0170839 0.0169885 0.0168846 0.0167725 0.0166519 0.0165231 0.0163847 0.0162357 0.0160761 0.0159058 0.0157248 0.0155332 0.0153309 0.015118 0.0148928 0.0146539 0.0144012 0.0141348 0.0138545 0.0135605 0.0132528 0.0129312 0.0125963 0.0122482 0.011887 0.0115127 0.0111254 0.0107249 0.0103113 0.00988461 0.0094489 0.00900824 0.00856262 0.00811204 0.00765652 0.00719603 0.0067306 0.0062602 0.005793 0.00533712 0.00489257 0.00445936 0.00403747 0.00362691 0.00322767 0.00283977 0.00247118 0.00212989 0.0018159 0.0015292 0.00126981 0.00103771 0.000832911 0.000655409 0.000501798 0.000368668 0.000256019 0.000163852 9.21669e-05 4.09631e-05 1.02408e-05 0 0 1.57788e-05 6.31154e-05 0.00014201 0.000252461 0.000394471 0.000568038 0.000773163 0.00100985 0.00128136 0.00159098 0.00193871 0.00232454 0.00274848 0.00321053 0.00371068 0.00424894 0.00481218 0.00538731 0.00597431 0.00657319 0.00718394 0.00780657 0.00844108 0.00908746 0.00973336 0.0103664 0.0109867 0.0115941 0.0121886 0.0127703 0.0133392 0.0138953 0.0144327 0.0149458 0.0154344 0.0158987 0.0163387 0.0167542 0.0171453 0.0175121 0.0178545 0.0181728 0.0184668 0.0187365 0.018982 0.0192033 0.0194003 0.0195731 0.0197249 0.0198587 0.0199746 0.0200727 0.0201528 0.020215 0.0202593 0.0202857 0.0202973 0.0202971 0.0202853 0.0202618 0.0202266 0.0201797 0.020121 0.0200507 0.0199696 0.0198787 0.019778 0.0196675 0.0195473 0.0194172 0.0192773 0.0191276 0.0189668 0.0187937 0.0186082 0.0184103 0.0182001 0.0179775 0.0177425 0.0174952 0.0172337 0.0169565 0.0166634 0.0163545 0.0160297 0.0156892 0.0153328 0.0149606 0.014573 0.0141704 0.0137529 0.0133204 0.0128729 0.0124104 0.011933 0.0114406 0.0109379 0.0104295 0.00991547 0.0093958 0.00887047 0.00833949 0.00780286 0.00726058 0.00672189 0.00619605 0.00568305 0.0051829 0.00469559 0.00422112 0.00375951 0.00331073 0.00288399 0.00248845 0.00212412 0.00179101 0.00148911 0.00121841 0.000978933 0.000770662 0.000590038 0.000433497 0.00030104 0.000192666 0.000108374 4.81664e-05 1.20416e-05 0 0 1.83116e-05 7.32466e-05 0.000164805 0.000292986 0.000457791 0.000659219 0.00089727 0.00117195 0.0014865 0.00184419 0.00224502 0.00268898 0.00317608 0.00370631 0.00427968 0.00489619 0.00554091 0.00619891 0.00687019 0.00755477 0.00825262 0.00896376 0.00968819 0.0104259 0.011163 0.0118855 0.0125934 0.0132868 0.0139657 0.01463 0.0152797 0.0159149 0.0165289 0.0171153 0.0176741 0.0182052 0.0187086 0.0191844 0.0196325 0.020053 0.0204459 0.0208111 0.0211488 0.0214589 0.0217414 0.0219963 0.0222236 0.0224233 0.022599 0.0227541 0.0228887 0.0230028 0.0230963 0.0231693 0.0232218 0.0232538 0.0232687 0.0232701 0.0232579 0.0232321 0.0231928 0.0231399 0.0230735 0.0229935 0.022901 0.0227971 0.0226818 0.0225552 0.0224171 0.0222677 0.0221069 0.0219347 0.0217497 0.0215504 0.021337 0.0211093 0.0208674 0.0206113 0.020341 0.0200565 0.0197558 0.0194371 0.0191004 0.0187457 0.018373 0.0179822 0.0175734 0.0171466 0.0167023 0.0162411 0.0157629 0.0152677 0.0147555 0.0142264 0.0136803 0.0131173 0.0125426 0.0119615 0.011374 0.0107801 0.0101798 0.00957313 0.00896006 0.0083406 0.00772516 0.00712417 0.00653761 0.0059655 0.00540783 0.0048646 0.00433582 0.00382148 0.00333204 0.00287798 0.00245929 0.00207598 0.00172805 0.00141549 0.0011383 0.000896492 0.000686377 0.000504277 0.000350192 0.000224123 0.000126069 5.60307e-05 1.40077e-05 0 0 2.10174e-05 8.40695e-05 0.000189156 0.000336278 0.000525434 0.000756625 0.00102985 0.00134511 0.00170559 0.00211446 0.00257172 0.00307738 0.00363143 0.00423387 0.00488471 0.00558395 0.00631474 0.00706026 0.0078205 0.00859546 0.00938515 0.0101896 0.0110087 0.0118425 0.0126756 0.0134923 0.0142926 0.0150765 0.0158441 0.0165953 0.0173302 0.0180487 0.0187435 0.0194072 0.0200398 0.0206414 0.0212119 0.0217514 0.0222597 0.022737 0.0231832 0.0235983 0.0239823 0.0243352 0.024657 0.0249477 0.0252072 0.0254357 0.0256369 0.0258149 0.0259695 0.0261009 0.0262089 0.0262937 0.0263551 0.0263933 0.026412 0.0264152 0.0264028 0.0263749 0.0263314 0.0262724 0.0261978 0.0261077 0.0260033 0.0258857 0.0257551 0.0256113 0.0254545 0.0252846 0.0251015 0.0249054 0.0246946 0.0244677 0.0242245 0.0239652 0.0236897 0.023398 0.0230902 0.0227661 0.0224238 0.0220612 0.0216783 0.021275 0.0208514 0.0204074 0.0199432 0.0194586 0.0189543 0.018431 0.0178887 0.0173273 0.0167469 0.0161475 0.015529 0.0148914 0.0142408 0.013583 0.012918 0.0122459 0.0115666 0.0108801 0.0101865 0.00948567 0.00878932 0.00810905 0.00744488 0.00679679 0.00616479 0.00554887 0.00494905 0.00436531 0.00380948 0.00329338 0.00281702 0.0023804 0.00198351 0.00162636 0.00130894 0.00103126 0.000789558 0.000580083 0.000402836 0.000257815 0.000145021 6.44537e-05 1.61134e-05 0 0 2.38606e-05 9.54425e-05 0.000214746 0.00038177 0.000596515 0.000858982 0.00116917 0.00152708 0.00193576 0.00239824 0.00291454 0.00348466 0.00410858 0.00478631 0.00551786 0.00630322 0.00712357 0.00796007 0.00881273 0.00968156 0.0105665 0.0114677 0.012385 0.0133184 0.0142509 0.0151651 0.016061 0.0169388 0.0177983 0.0186396 0.0194627 0.0202675 0.021046 0.0217899 0.0224992 0.0231739 0.0238141 0.0244197 0.0249908 0.0255272 0.0260291 0.0264961 0.0269285 0.0273261 0.0276891 0.0280172 0.0283107 0.0285694 0.0287977 0.0289998 0.0291757 0.0293254 0.0294489 0.0295462 0.0296174 0.0296623 0.0296854 0.0296908 0.0296785 0.0296486 0.0296011 0.0295359 0.029453 0.0293525 0.0292357 0.029104 0.0289574 0.0287959 0.0286195 0.0284281 0.0282219 0.0280007 0.027763 0.027507 0.0272328 0.0269404 0.0266297 0.0263008 0.0259537 0.0255883 0.0252025 0.0247939 0.0243626 0.0239087 0.023432 0.0229327 0.0224106 0.0218658 0.0212991 0.0207113 0.0201022 0.019472 0.0188207 0.0181482 0.0174545 0.0167396 0.0160102 0.0152729 0.0145275 0.0137742 0.0130129 0.0122436 0.0114664 0.0106812 0.00990086 0.00913829 0.00839346 0.00766638 0.00695705 0.00626546 0.00559162 0.00493553 0.00431042 0.00372956 0.00319293 0.00270054 0.00225238 0.00184846 0.00148877 0.00117332 0.000898325 0.000659994 0.000458329 0.000293331 0.000164999 7.33327e-05 1.83332e-05 0 0 2.68414e-05 0.000107366 0.000241573 0.000429463 0.000671035 0.000966291 0.00131523 0.00171785 0.00217701 0.00269555 0.00327349 0.00391082 0.00460753 0.00536363 0.00617913 0.00705401 0.00796739 0.00889835 0.00984691 0.0108131 0.0117968 0.0127981 0.013817 0.0148536 0.0158888 0.0169039 0.0178988 0.0188736 0.0198283 0.0207628 0.0216772 0.0225714 0.0234365 0.0242634 0.0250521 0.0258028 0.0265152 0.0271895 0.0278257 0.0284236 0.0289833 0.0295046 0.0299874 0.0304317 0.0308376 0.031205 0.031534 0.0318245 0.0320812 0.0323087 0.032507 0.0326762 0.0328162 0.0329269 0.0330085 0.0330609 0.0330888 0.0330968 0.033085 0.0330533 0.0330017 0.0329303 0.032839 0.0327278 0.0325983 0.032452 0.0322889 0.0321089 0.0319121 0.0316985 0.031468 0.0312207 0.0309548 0.0306686 0.0303619 0.0300349 0.0296875 0.0293197 0.0289315 0.028523 0.0280917 0.0276352 0.0271536 0.0266469 0.0261149 0.0255579 0.0249757 0.0243683 0.0237367 0.0230817 0.0224034 0.0217018 0.0209769 0.0202286 0.0194569 0.0186619 0.0178509 0.0170311 0.0162024 0.015365 0.0145187 0.0136637 0.0127998 0.0119271 0.0110598 0.0102119 0.00938336 0.00857427 0.00778461 0.00701436 0.00626354 0.00553214 0.00483488 0.00418651 0.00358701 0.00303639 0.00253465 0.00208178 0.00167779 0.00132268 0.00101268 0.00074401 0.000516673 0.000330671 0.000186002 8.26678e-05 2.06669e-05 0 0 2.99597e-05 0.000119839 0.000269638 0.000479356 0.000748993 0.00107855 0.00146803 0.00191742 0.00242934 0.00300639 0.00364856 0.00435586 0.00512828 0.00596583 0.00686851 0.00783632 0.0088462 0.0098751 0.010923 0.01199 0.0130759 0.0141809 0.0153049 0.0164479 0.0175894 0.0187088 0.019806 0.0208811 0.0219341 0.0229649 0.0239737 0.0249603 0.0259149 0.0268277 0.0276987 0.0285279 0.0293152 0.0300607 0.0307644 0.0314263 0.0320461 0.0326236 0.0331589 0.0336518 0.0341025 0.0345109 0.0348771 0.0352009 0.0354875 0.0357417 0.0359637 0.0361534 0.0363107 0.0364358 0.0365286 0.0365891 0.0366223 0.0366334 0.0366222 0.0365889 0.0365334 0.0364557 0.0363558 0.0362337 0.0360911 0.0359297 0.0357494 0.0355503 0.0353323 0.0350955 0.0348399 0.0345653 0.0342701 0.0339523 0.0336118 0.0332487 0.032863 0.0324547 0.0320238 0.0315702 0.0310916 0.0305852 0.0300512 0.0294895 0.0289001 0.0282831 0.0276384 0.026966 0.026267 0.0255425 0.0247924 0.0240167 0.0232154 0.0223886 0.0215363 0.0206583 0.0197628 0.0188576 0.0179427 0.0170182 0.016084 0.0151402 0.0141867 0.0132235 0.0122661 0.0113298 0.0104146 0.00952046 0.00864747 0.00779558 0.0069648 0.00615514 0.00538285 0.00466423 0.00399927 0.00338796 0.00283032 0.00232633 0.00187601 0.00147934 0.00113262 0.00083213 0.000577868 0.000369836 0.000208033 9.24589e-05 2.31147e-05 0 0 3.32156e-05 0.000132862 0.00029894 0.000531449 0.00083039 0.00119576 0.00162756 0.0021258 0.00269276 0.00333074 0.00403975 0.00481978 0.00567084 0.00659291 0.00758601 0.00865014 0.00976 0.0108903 0.0120411 0.0132123 0.0144039 0.015616 0.0168486 0.0181016 0.0193527 0.0205797 0.0217825 0.0229612 0.0241156 0.025246 0.0263522 0.0274342 0.0284813 0.0294829 0.0304388 0.0313492 0.0322141 0.0330333 0.033807 0.0345351 0.0352173 0.0358533 0.036443 0.0369866 0.0374839 0.0379351 0.03834 0.0386987 0.0390165 0.0392988 0.0395456 0.0397569 0.0399326 0.0400729 0.0401776 0.0402468 0.0402859 0.0403004 0.0402902 0.0402555 0.0401961 0.0401121 0.0400034 0.0398702 0.0397141 0.0395371 0.0393391 0.0391202 0.0388802 0.0386193 0.0383374 0.0380346 0.0377088 0.0373581 0.0369824 0.0365818 0.0361563 0.0357058 0.0352304 0.03473 0.034202 0.0336438 0.0330553 0.0324366 0.0317876 0.0311083 0.0303988 0.029659 0.0288901 0.0280935 0.0272689 0.0264166 0.0255364 0.0246284 0.0236925 0.0227288 0.0217459 0.0207525 0.0197485 0.0187339 0.0177089 0.0166733 0.0156271 0.0145704 0.0135198 0.012492 0.0114871 0.010505 0.00954563 0.00860912 0.00769542 0.00680453 0.00595434 0.00516273 0.0044297 0.00375525 0.00313939 0.00258211 0.00208341 0.0016433 0.00125815 0.000924355 0.000641913 0.000410824 0.000231089 0.000102706 2.56765e-05 0 0 3.6609e-05 0.000146436 0.000329481 0.000585744 0.000915224 0.00131792 0.00179384 0.00234297 0.00296726 0.00366862 0.00444706 0.00530259 0.00623519 0.00724487 0.00833163 0.00949547 0.0107088 0.011944 0.013201 0.01448 0.0157808 0.0171035 0.018448 0.0198144 0.0211787 0.0225166 0.0238283 0.0251138 0.026373 0.0276059