<?xml version="1.0"?> 
<VTKFile type="StructuredGrid" version="0.1"> 
<StructuredGrid WholeExtent="0 128 0 128 0 0"> 
<Piece Extent="0 128 0 128 0 0"> 
<PointData>
<DataArray type="Float32" Name="u" format="ascii" NumberOfComponents="1"> 
0 0 0 0 0 0 0 0 0 0 0 0 0 0 0 0 0 0 0 0 0 0 0 0 0 0 0 0 0 0 0 0 0 0 0 0 0 0 0 0 0 0 0 0 0 0 0 0 0 0 0 0 0 0 0 0 0 0 0 0 0 0 0 0 0 0 0 0 0 0 0 0 0 0 0 0 0 0 0 0 0 0 0 0 0 0 0 0 0 0 0 0 0 0 0 0 0 0 0 0 0 0 0 0 0 0 0 0 0 0 0 0 0 0 0 0 0 0 0 0 0 0 0 0 0 0 0 0 0 0 -4.39204e-08 -1.75682e-07 -3.95284e-07 -7.02726e-07 -1.09801e-06 -1.58113e-06 -2.1521e-06 -2.81091e-06 -3.4637e-06 -4.01664e-06 -4.46971e-06 -4.82292e-06 -5.07627e-06 -5.22976e-06 -5.28339e-06 -5.23716e-06 -5.0624e-06 -4.73043e-06 -4.24126e-06 -3.59489e-06 -2.79132e-06 -1.83055e-06 -7.12574e-07 5.62602e-07 1.91255e-06 3.25486e-06 4.58951e-06 5.91651e-06 7.23586e-06 8.54756e-06 9.85161e-06 1.1148e-05 1.23463e-05 1.33562e-05 1.41775e-05 1.48104e-05 1.52548e-05 1.55107e-05 1.55781e-05 1.5457e-05 1.51477e-05 1.46503e-05 1.39649e-05 1.30915e-05 1.203e-05 1.07805e-05 9.34295e-06 7.71737e-06 6.00076e-06 4.29013e-06 2.58547e-06 8.86794e-07 -8.05909e-07 -2.49264e-06 -4.17339e-06 -5.84816e-06 -7.4184e-06 -8.78553e-06 -9.94956e-06 -1.09105e-05 -1.16683e-05 -1.2223e-05 -1.25746e-05 -1.27231e-05 -1.26682e-05 -1.24093e-05 -1.19466e-05 -1.128e-05 -1.04095e-05 -9.3352e-06 -8.05699e-06 -6.57491e-06 -4.98576e-06 -3.38633e-06 -1.77663e-06 -1.56664e-07 1.47358e-06 3.11409e-06 4.76488e-06 6.42593e-06 8.00276e-06 9.40086e-06 1.06202e-05 1.16609e-05 1.25228e-05 1.3206e-05 1.37104e-05 1.40361e-05 1.41829e-05 1.41502e-05 1.39383e-05 1.3547e-05 1.29764e-05 1.22265e-05 1.12973e-05 1.01888e-05 8.9869e-06 7.77775e-06 6.5613e-06 5.33755e-06 4.10652e-06 2.86818e-06 1.62255e-06 3.6963e-07 -8.13293e-07 -1.84892e-06 -2.73724e-06 -3.47827e-06 -4.072e-06 -4.51843e-06 -4.81757e-06 -4.9694e-06 -5.00143e-06 -4.94116e-06 -4.78858e-06 -4.54369e-06 -4.2065e-06 -3.777e-06 -3.25519e-06 -2.64107e-06 -2.02207e-06 -1.4856e-06 -1.03167e-06 -6.60268e-07 -3.71401e-07 -1.65067e-07 -4.12668e-08 0 0 -1.75682e-07 -7.02726e-07 -1.58113e-06 -2.81091e-06 -4.39204e-06 -6.32454e-06 -8.6084e-06 -1.12436e-05 -1.38548e-05 -1.60665e-05 -1.78788e-05 -1.92917e-05 -2.03051e-05 -2.09191e-05 -2.11336e-05 -2.09486e-05 -2.02496e-05 -1.89217e-05 -1.69651e-05 -1.43796e-05 -1.11653e-05 -7.3222e-06 -2.8503e-06 2.25041e-06 7.65022e-06 1.30194e-05 1.8358e-05 2.3666e-05 2.89434e-05 3.41902e-05 3.94064e-05 4.4592e-05 4.93854e-05 5.34247e-05 5.67102e-05 5.92417e-05 6.10192e-05 6.20428e-05 6.23124e-05 6.18281e-05 6.05908e-05 5.86013e-05 5.58597e-05 5.23659e-05 4.812e-05 4.3122e-05 3.73718e-05 3.08695e-05 2.4003e-05 1.71605e-05 1.03419e-05 3.54718e-06 -3.22364e-06 -9.97055e-06 -1.66935e-05 -2.33926e-05 -2.96736e-05 -3.51421e-05 -3.97982e-05 -4.36419e-05 -4.66732e-05 -4.88921e-05 -5.02985e-05 -5.08926e-05 -5.06727e-05 -4.96373e-05 -4.77864e-05 -4.512e-05 -4.16382e-05 -3.73408e-05 -3.2228e-05 -2.62996e-05 -1.9943e-05 -1.35453e-05 -7.10653e-06 -6.26655e-07 5.89431e-06 1.24564e-05 1.90595e-05 2.57037e-05 3.2011e-05 3.76034e-05 4.24809e-05 4.66435e-05 5.00911e-05 5.28239e-05 5.48417e-05 5.61446e-05 5.67314e-05 5.66009e-05 5.57531e-05 5.41881e-05 5.19058e-05 4.89061e-05 4.51892e-05 4.0755e-05 3.59476e-05 3.1111e-05 2.62452e-05 2.13502e-05 1.64261e-05 1.14727e-05 6.49022e-06 1.47852e-06 -3.25317e-06 -7.39567e-06 -1.0949e-05 -1.39131e-05 -1.6288e-05 -1.80737e-05 -1.92703e-05 -1.98776e-05 -2.00057e-05 -1.97646e-05 -1.91543e-05 -1.81748e-05 -1.6826e-05 -1.5108e-05 -1.30207e-05 -1.05643e-05 -8.08829e-06 -5.94241e-06 -4.12668e-06 -2.64107e-06 -1.4856e-06 -6.60268e-07 -1.65067e-07 0 0 -3.95284e-07 -1.58113e-06 -3.55755e-06 -6.32454e-06 -9.88209e-06 -1.42302e-05 -1.93689e-05 -2.52982e-05 -3.11733e-05 -3.61497e-05 -4.02274e-05 -4.34063e-05 -4.56865e-05 -4.70679e-05 -4.75505e-05 -4.71344e-05 -4.55616e-05 -4.25739e-05 -3.81714e-05 -3.2354e-05 -2.51219e-05 -1.64749e-05 -6.41317e-06 5.06342e-06 1.7213e-05 2.92937e-05 4.13056e-05 5.32486e-05 6.51227e-05 7.69281e-05 8.86645e-05 0.000100332 0.000111117 0.000120206 0.000127598 0.000133294 0.000137293 0.000139596 0.000140203 0.000139113 0.000136329 0.000131853 0.000125684 0.000117823 0.00010827 9.70244e-05 8.40865e-05 6.94563e-05 5.40068e-05 3.86112e-05 2.32693e-05 7.98115e-06 -7.25318e-06 -2.24337e-05 -3.75605e-05 -5.26335e-05 -6.67656e-05 -7.90698e-05 -8.9546e-05 -9.81943e-05 -0.000105015 -0.000110007 -0.000113172 -0.000114508 -0.000114014 -0.000111684 -0.000107519 -0.00010152 -9.36858e-05 -8.40168e-05 -7.25129e-05 -5.91742e-05 -4.48718e-05 -3.0477e-05 -1.59897e-05 -1.40997e-06 1.32622e-05 2.80268e-05 4.28839e-05 5.78334e-05 7.20249e-05 8.46077e-05 9.55821e-05 0.000104948 0.000112705 0.000118854 0.000123394 0.000126325 0.000127646 0.000127352 0.000125445 0.000121923 0.000116788 0.000110039 0.000101676 9.16988e-05 8.08821e-05 6.99997e-05 5.90517e-05 4.8038e-05 3.69586e-05 2.58136e-05 1.4603e-05 3.32667e-06 -7.31964e-06 -1.66403e-05 -2.46352e-05 -3.13044e-05 -3.6648e-05 -4.06659e-05 -4.33581e-05 -4.47246e-05 -4.50129e-05 -4.44704e-05 -4.30972e-05 -4.08932e-05 -3.78585e-05 -3.3993e-05 -2.92967e-05 -2.37697e-05 -1.81986e-05 -1.33704e-05 -9.28502e-06 -5.94241e-06 -3.34261e-06 -1.4856e-06 -3.71401e-07 0 0 -7.02726e-07 -2.81091e-06 -6.32454e-06 -1.12436e-05 -1.75682e-05 -2.52982e-05 -3.44336e-05 -4.49745e-05 -5.54192e-05 -6.42662e-05 -7.15154e-05 -7.71668e-05 -8.12204e-05 -8.36762e-05 -8.45343e-05 -8.37946e-05 -8.09983e-05 -7.56869e-05 -6.78602e-05 -5.75183e-05 -4.46612e-05 -2.92888e-05 -1.14012e-05 9.00164e-06 3.06009e-05 5.20777e-05 7.34321e-05 9.46642e-05 0.000115774 0.000136761 0.000157626 0.000178368 0.000197541 0.000213699 0.000226841 0.000236967 0.000244077 0.000248171 0.00024925 0.000247313 0.000242363 0.000234405 0.000223439 0.000209464 0.00019248 0.000172488 0.000149487 0.000123478 9.60122e-05 6.86421e-05 4.13676e-05 1.41887e-05 -1.28945e-05 -3.98822e-05 -6.67742e-05 -9.35706e-05 -0.000118694 -0.000140568 -0.000159193 -0.000174568 -0.000186693 -0.000195568 -0.000201194 -0.00020357 -0.000202691 -0.000198549 -0.000191146 -0.00018048 -0.000166553 -0.000149363 -0.000128912 -0.000105199 -7.97721e-05 -5.41813e-05 -2.84261e-05 -2.50662e-06 2.35772e-05 4.98254e-05 7.6238e-05 0.000102815 0.000128044 0.000150414 0.000169924 0.000186574 0.000200365 0.000211296 0.000219367 0.000224578 0.000226926 0.000226404 0.000223013 0.000216752 0.000207623 0.000195625 0.000180757 0.00016302 0.00014379 0.000124444 0.000104981 8.54009e-05 6.57043e-05 4.58909e-05 2.59609e-05 5.91407e-06 -1.30127e-05 -2.95827e-05 -4.37959e-05 -5.56523e-05 -6.5152e-05 -7.22949e-05 -7.70811e-05 -7.95104e-05 -8.00229e-05 -7.90586e-05 -7.66173e-05 -7.26991e-05 -6.73039e-05 -6.04319e-05 -5.2083e-05 -4.22572e-05 -3.23531e-05 -2.37697e-05 -1.65067e-05 -1.05643e-05 -5.94241e-06 -2.64107e-06 -6.60268e-07 0 0 -1.09801e-06 -4.39204e-06 -9.88209e-06 -1.75682e-05 -2.74503e-05 -3.95284e-05 -5.38025e-05 -7.02726e-05 -8.65925e-05 -0.000100416 -0.000111743 -0.000120573 -0.000126907 -0.000130744 -0.000132085 -0.000130929 -0.00012656 -0.000118261 -0.000106032 -8.98723e-05 -6.97831e-05 -4.57637e-05 -1.78144e-05 1.40651e-05 4.78139e-05 8.13714e-05 0.000114738 0.000147913 0.000180897 0.000213689 0.00024629 0.0002787 0.000308659 0.000333905 0.000354439 0.00037026 0.00038137 0.000387767 0.000389453 0.000386426 0.000378692 0.000366258 0.000349123 0.000327287 0.00030075 0.000269512 0.000233574 0.000192934 0.000150019 0.000107253 6.46368e-05 2.21698e-05 -2.01477e-05 -6.23159e-05 -0.000104335 -0.000146204 -0.00018546 -0.000219638 -0.000248739 -0.000272762 -0.000291708 -0.000305575 -0.000314366 -0.000318079 -0.000316704 -0.000310233 -0.000298665 -0.000282 -0.000260238 -0.00023338 -0.000201425 -0.000164373 -0.000124644 -8.46583e-05 -4.44158e-05 -3.9166e-06 3.68394e-05 7.78523e-05 0.000119122 0.000160648 0.000200069 0.000235022 0.000265506 0.000291522 0.00031307 0.000330149 0.000342761 0.000350904 0.000354571 0.000353756 0.000348457 0.000338676 0.000324411 0.000305663 0.000282433 0.000254719 0.000224672 0.000194444 0.000164032 0.000133439 0.000102663 7.17046e-05 4.05638e-05 9.24074e-06 -2.03323e-05 -4.62229e-05 -6.84311e-05 -8.69568e-05 -0.0001018 -0.000112961 -0.000120439 -0.000124235 -0.000125036 -0.000123529 -0.000119714 -0.000113592 -0.000105162 -9.44249e-05 -8.13797e-05 -6.60268e-05 -5.05518e-05 -3.71401e-05 -2.57917e-05 -1.65067e-05 -9.28502e-06 -4.12668e-06 -1.03167e-06 0 0 -1.58113e-06 -6.32454e-06 -1.42302e-05 -2.52982e-05 -3.95284e-05 -5.69208e-05 -7.74756e-05 -0.000101193 -0.000124693 -0.000144599 -0.00016091 -0.000173625 -0.000182746 -0.000188271 -0.000190202 -0.000188538 -0.000182246 -0.000170296 -0.000152685 -0.000129416 -0.000100488 -6.58998e-05 -2.56527e-05 2.02537e-05 6.8852e-05 0.000117175 0.000165222 0.000212994 0.000260491 0.000307712 0.000354658 0.000401328 0.000444468 0.000480823 0.000510392 0.000533175 0.000549173 0.000558385 0.000560812 0.000556453 0.000545317 0.000527412 0.000502737 0.000471293 0.00043308 0.000388098 0.000336346 0.000277825 0.000216027 0.000154445 9.3077e-05 3.19246e-05 -2.90127e-05 -8.97349e-05 -0.000150242 -0.000210534 -0.000267062 -0.000316279 -0.000358184 -0.000392777 -0.000420059 -0.000440029 -0.000452687 -0.000458033 -0.000456054 -0.000446735 -0.000430077 -0.00040608 -0.000374743 -0.000336067 -0.000290052 -0.000236697 -0.000179487 -0.000121908 -6.39588e-05 -5.6399e-06 5.30488e-05 0.000112107 0.000171536 0.000231334 0.000288099 0.000338431 0.000382328 0.000419791 0.00045082 0.000475415 0.000493575 0.000505301 0.000510583 0.000509408 0.000501778 0.000487693 0.000467152 0.000440155 0.000406703 0.000366795 0.000323528 0.000279999 0.000236207 0.000192152 0.000147835 0.000103255 5.84119e-05 1.33067e-05 -2.92785e-05 -6.6561e-05 -9.85408e-05 -0.000125218 -0.000146592 -0.000162664 -0.000173432 -0.000178898 -0.000180052 -0.000177882 -0.000172389 -0.000163573 -0.000151434 -0.000135972 -0.000117187 -9.50786e-05 -7.27946e-05 -5.34817e-05 -3.71401e-05 -2.37697e-05 -1.33704e-05 -5.94241e-06 -1.4856e-06 0 0 -2.1521e-06 -8.6084e-06 -1.93689e-05 -3.44336e-05 -5.38025e-05 -7.74756e-05 -0.000105453 -0.000137734 -0.000169721 -0.000196815 -0.000219016 -0.000236323 -0.000248737 -0.000256258 -0.000258886 -0.000256621 -0.000248057 -0.000231791 -0.000207822 -0.00017615 -0.000136775 -8.96969e-05 -3.49161e-05 2.75675e-05 9.37152e-05 0.000159488 0.000224886 0.000289909 0.000354557 0.000418831 0.000482729 0.000546253 0.000604971 0.000654453 0.0006947 0.00072571 0.000747485 0.000760024 0.000763327 0.000757395 0.000742237 0.000717866 0.000684281 0.000641482 0.00058947 0.000528244 0.000457804 0.000378151 0.000294037 0.000210216 0.000126688 4.34529e-05 -3.94896e-05 -0.000122139 -0.000204496 -0.00028656 -0.000363501 -0.000430491 -0.000487528 -0.000534614 -0.000571747 -0.000598928 -0.000616157 -0.000623434 -0.00062074 -0.000608057 -0.000585383 -0.00055272 -0.000510067 -0.000457425 -0.000394793 -0.000322171 -0.000244302 -0.00016593 -8.7055e-05 -7.67653e-06 7.22053e-05 0.00015259 0.000233479 0.000314871 0.000392135 0.000460642 0.000520391 0.000571383 0.000613616 0.000647092 0.000671811 0.000687771 0.00069496 0.000693361 0.000682976 0.000663804 0.000635846 0.0005991 0.000553568 0.000499249 0.000440358 0.00038111 0.000321504 0.00026154 0.000201219 0.000140541 7.95051e-05 1.81119e-05 -3.98514e-05 -9.0597e-05 -0.000134125 -0.000170435 -0.000199528 -0.000221403 -0.000236061 -0.000243501 -0.00024507 -0.000242117 -0.00023464 -0.000222641 -0.000206118 -0.000185073 -0.000159504 -0.000129413 -9.90815e-05 -7.27946e-05 -5.05518e-05 -3.23531e-05 -1.81986e-05 -8.08829e-06 -2.02207e-06 0 0 -2.81091e-06 -1.12436e-05 -2.52982e-05 -4.49745e-05 -7.02726e-05 -0.000101193 -0.000137734 -0.000179898 -0.000221677 -0.000257065 -0.000286061 -0.000308667 -0.000324882 -0.000334705 -0.000338137 -0.000335178 -0.000323993 -0.000302748 -0.000271441 -0.000230073 -0.000178645 -0.000117155 -4.56048e-05 3.60065e-05 0.000122404 0.000208311 0.000293729 0.000378657 0.000463095 0.000547044 0.000630503 0.000713473 0.000790166 0.000854796 0.000907363 0.000947867 0.000976307 0.000992685 0.000996999 0.00098925 0.000969452 0.000937621 0.000893755 0.000837855 0.00076992 0.000689951 0.000597949 0.000493912 0.000384049 0.000274568 0.00016547 5.67548e-05 -5.15782e-05 -0.000159529 -0.000267097 -0.000374282 -0.000474777 -0.000562274 -0.000636772 -0.000698271 -0.000746771 -0.000782273 -0.000804777 -0.000814281 -0.000810763 -0.000794196 -0.000764582 -0.00072192 -0.00066621 -0.000597453 -0.000515647 -0.000420794 -0.000319088 -0.000216725 -0.000113705 -1.00265e-05 9.4309e-05 0.000199302 0.000304952 0.00041126 0.000512177 0.000601655 0.000679695 0.000746296 0.000801458 0.000845182 0.000877467 0.000898314 0.000907702 0.000905615 0.00089205 0.00086701 0.000830492 0.000782498 0.000723028 0.00065208 0.000575162 0.000497776 0.000419923 0.000341604 0.000262817 0.000183564 0.000103843 2.36563e-05 -5.20508e-05 -0.000118331 -0.000175184 -0.000222609 -0.000260608 -0.00028918 -0.000308324 -0.000318042 -0.000320092 -0.000316234 -0.000306469 -0.000290796 -0.000269216 -0.000241728 -0.000208332 -0.000169029 -0.000129413 -9.50786e-05 -6.60268e-05 -4.22572e-05 -2.37697e-05 -1.05643e-05 -2.64107e-06 0 0 -3.4303e-06 -1.37212e-05 -3.08727e-05 -5.48848e-05 -8.57574e-05 -0.000123491 -0.000168085 -0.000219539 -0.000270328 -0.000312927 -0.000347334 -0.000373551 -0.000391577 -0.000401412 -0.000403056 -0.000396509 -0.000379537 -0.000349904 -0.000307611 -0.000252658 -0.000185044 -0.00010477 -1.18355e-05 9.37592e-05 0.000205338 0.000316225 0.00042642 0.000535923 0.000644734 0.000752853 0.000860279 0.000967014 0.00106576 0.00114922 0.00121739 0.00127028 0.00130788 0.0013302 0.00133723 0.00132897 0.00130545 0.00126669 0.00121269 0.00114344 0.00105896 0.000959226 0.000844255 0.000714042 0.000576416 0.000439208 0.000302416 0.000166041 3.00827e-05 -0.000105459 -0.000240583 -0.000375291 -0.000501629 -0.000611642 -0.000705333 -0.000782699 -0.000843742 -0.000888461 -0.000916856 -0.000928927 -0.000924643 -0.000903969 -0.000866906 -0.000813455 -0.000743615 -0.000657386 -0.000554768 -0.000435761 -0.000308173 -0.000179814 -5.0683e-05 7.92199e-05 0.000209895 0.000341341 0.00047356 0.00060655 0.000732687 0.000844344 0.000941522 0.00102422 0.00109244 0.00114618 0.00118544 0.00121022 0.00122049 0.00121624 0.00119744 0.00116412 0.00111626 0.00105386 0.000976935 0.000885474 0.00078642 0.000686716 0.00058636 0.000485354 0.000383696 0.000281388 0.000178428 7.48168e-05 -2.31853e-05 -0.000109319 -0.000183584 -0.00024598 -0.000296508 -0.000335167 -0.000361958 -0.00037688 -0.000382081 -0.000379708 -0.000369761 -0.00035224 -0.000327145 -0.000294476 -0.000254233 -0.000206416 -0.000158037 -0.000116109 -8.06311e-05 -5.16039e-05 -2.90272e-05 -1.2901e-05 -3.22524e-06 0 0 -3.88302e-06 -1.55321e-05 -3.49472e-05 -6.21283e-05 -9.70754e-05 -0.000139789 -0.000190268 -0.000248513 -0.000305444 -0.00035198 -0.000388122 -0.00041387 -0.000429222 -0.00043418 -0.000428744 -0.000412913 -0.000384171 -0.00034 -0.000280401 -0.000205375 -0.00011492 -9.03668e-06 0.000112275 0.000249014 0.00039294 0.000535812 0.00067763 0.000818393 0.000958102 0.00109676 0.00123436 0.0013709 0.00149746 0.00160509 0.00169381 0.00176359 0.00181446 0.0018464 0.00185942 0.00185352 0.00182873 0.00178509 0.00172261 0.00164128 0.0015411 0.00142207 0.0012842 0.00112748 0.000961496 0.000795842 0.000630518 0.000465522 0.000300855 0.000136516 -2.74945e-05 -0.000191176 -0.000344794 -0.000478612 -0.00059263 -0.000686848 -0.000761267 -0.000815886 -0.000850706 -0.000865725 -0.000860901 -0.000836189 -0.000791588 -0.0007271 -0.000642723 -0.000538457 -0.000414304 -0.000270263 -0.000115884 3.92817e-05 0.000195234 0.000351972 0.000509497 0.000667809 0.000826907 0.000986792 0.00113813 0.00127158 0.00138716 0.00148485 0.00156465 0.00162658 0.00167062 0.00169678 0.00170502 0.00169529 0.00166759 0.00162193 0.0015583 0.0014767 0.00137714 0.00125961 0.00113262 0.00100465 0.000875711 0.000745803 0.000614925 0.000483077 0.000350259 0.00021647 8.94365e-05 -2.31178e-05 -0.000121193 -0.000204788 -0.000273904 -0.00032854 -0.000368697 -0.000394374 -0.000408002 -0.000412011 -0.000406401 -0.000391172 -0.000366323 -0.000331855 -0.000287768 -0.000234062 -0.000179204 -0.00013166 -9.14306e-05 -5.85156e-05 -3.2915e-05 -1.46289e-05 -3.65722e-06 0 0 -4.16907e-06 -1.66763e-05 -3.75216e-05 -6.67051e-05 -0.000104227 -0.000150086 -0.000204284 -0.00026682 -0.000327024 -0.000374226 -0.000408425 -0.000429623 -0.000437818 -0.000433011 -0.000415201 -0.00038439 -0.000337895 -0.000273036 -0.000189812 -8.82241e-05 3.17281e-05 0.000170045 0.000326725 0.000501771 0.00068521 0.000867072 0.00104736 0.00122607 0.0014032 0.00157876 0.00175274 0.00192514 0.00208527 0.00222242 0.0023366 0.00242781 0.00249604 0.00254129 0.00256358 0.00256289 0.00253928 0.00249283 0.00242352 0.00233137 0.00221636 0.00207849 0.00191778 0.00173422 0.00153929 0.00134447 0.00114978 0.000955198 0.000760737 0.000566395 0.00037217 0.000178062 -4.27274e-06 -0.000163181 -0.000298663 -0.000410719 -0.000499348 -0.00056455 -0.000606326 -0.000624675 -0.000619538 -0.000590856 -0.000538628 -0.000462854 -0.000363534 -0.000240668 -9.42572e-05 7.56997e-05 0.00025778 0.000440562 0.000624046 0.000808231 0.000993117 0.00117871 0.00136499 0.00155199 0.0017285 0.00188337 0.0020166 0.00212817 0.0022181 0.00228638 0.00233302 0.002358 0.00236128 0.00234278 0.0023025 0.00224045 0.00215663 0.00205103 0.00192365 0.0017745 0.00161375 0.00145157 0.00128797 0.00112295 0.000956504 0.000788632 0.000619337 0.000448617 0.000285815 0.000140272 1.19899e-05 -9.90327e-05 -0.000192795 -0.000269298 -0.000328541 -0.000370525 -0.000397856 -0.000413145 -0.00041639 -0.000407592 -0.000386751 -0.000353867 -0.000308939 -0.000251969 -0.000192914 -0.000141732 -9.84253e-05 -6.29922e-05 -3.54331e-05 -1.57481e-05 -3.93701e-06 0 0 -4.28844e-06 -1.71538e-05 -3.8596e-05 -6.86151e-05 -0.000107211 -0.000154384 -0.000210134 -0.00027446 -0.000335069 -0.000379663 -0.000408244 -0.00042081 -0.000417363 -0.000397902 -0.000362428 -0.000310939 -0.000240709 -0.00014901 -3.58426e-05 9.8794e-05 0.0002549 0.000432474 0.000631517 0.000852029 0.00108215 0.00131001 0.0015356 0.00175895 0.00198003 0.00219885 0.00241542 0.00262972 0.00282918 0.0030012 0.00314577 0.00326291 0.00335261 0.00341487 0.0034497 0.00345708 0.00343711 0.0033899 0.00331543 0.0032137 0.00308472 0.00292849 0.002745 0.00253426 0.00230979 0.0020851 0.00186019 0.00163507 0.00140973 0.00118418 0.000958409 0.000732425 0.000519934 0.000334649 0.000176567 4.56895e-05 -5.79835e-05 -0.000134452 -0.000183717 -0.000205777 -0.000200554 -0.00016797 -0.000108024 -2.07173e-05 9.39514e-05 0.000235982 0.000405373 0.000602126 0.000812819 0.00102403 0.00123575 0.001448 0.00166075 0.00187403 0.00208782 0.00230213 0.00250381 0.00267971 0.00282984 0.0029542 0.00305278 0.00312559 0.00317262 0.00319388 0.00318927 0.0031587 0.00310217 0.00301968 0.00291123 0.00277683 0.00261646 0.00243013 0.00222982 0.00202749 0.00182315 0.0016168 0.00140843 0.00119805 0.000985661 0.000771256 0.000565949 0.000380852 0.000215964 7.12856e-05 -5.31829e-05 -0.000157442 -0.000241491 -0.000305331 -0.000351642 -0.000383108 -0.000399728 -0.000401501 -0.000388429 -0.00036051 -0.000317746 -0.000260135 -0.000199166 -0.000146326 -0.000101615 -6.50337e-05 -3.65815e-05 -1.62584e-05 -4.06461e-06 0 0 -4.24115e-06 -1.69646e-05 -3.81704e-05 -6.78584e-05 -0.000106029 -0.000152681 -0.000207816 -0.000271434 -0.000329577 -0.000368292 -0.000387577 -0.000387432 -0.000367859 -0.000328855 -0.000270423 -0.000192561 -9.26137e-05 3.20756e-05 0.000181507 0.00035568 0.000554595 0.000778251 0.00102665 0.00129979 0.00158375 0.00186461 0.00214237 0.00241703 0.00268858 0.00295704 0.0032224 0.00348465 0.00372919 0.00394142 0.00412133 0.00426892 0.00438419 0.00446714 0.00451778 0.00453609 0.00452222 0.0044763 0.00439832 0.00428828 0.0041462 0.00397206 0.00376586 0.00352761 0.003273 0.00301772 0.00276176 0.00250513 0.00224784 0.00198987 0.00173122 0.00147191 0.00122783 0.00101488 0.000833061 0.000682377 0.000562826 0.000474407 0.000417122 0.000390969 0.000396051 0.000432468 0.000500221 0.000599309 0.000729733 0.000891492 0.00108459 0.00130902 0.00154923 0.00178968 0.00203036 0.00227127 0.00251241 0.00275378 0.00299539 0.00323723 0.00346405 0.00366061 0.0038269 0.00396293 0.0040687 0.0041442 0.00418944 0.00420441 0.00418899 0.00414306 0.0040666 0.00395962 0.00382212 0.00365411 0.00345557 0.00322651 0.00298082 0.0027324 0.00248124 0.00222734 0.00197071 0.00171134 0.00144923 0.00118439 0.00092984 0.00069862 0.000490729 0.000306167 0.000144934 7.02949e-06 -0.000107546 -0.000198793 -0.000269361 -0.000321901 -0.000356414 -0.000372899 -0.000371356 -0.000351786 -0.000314187 -0.000258561 -0.000197961 -0.00014544 -0.000101 -6.46402e-05 -3.63601e-05 -1.616e-05 -4.04001e-06 0 0 -4.02719e-06 -1.61087e-05 -3.62447e-05 -6.4435e-05 -0.00010068 -0.000144979 -0.000197332 -0.00025774 -0.00031055 -0.000340112 -0.000346425 -0.000329489 -0.000289304 -0.00022587 -0.000139188 -2.92562e-05 0.000106391 0.000270222 0.000462236 0.000682433 0.000930813 0.00120738 0.00151212 0.00184505 0.00219002 0.00253089 0.00286765 0.00320031 0.00352887 0.00385333 0.00417368 0.00448993 0.00478532 0.0050431 0.00526326 0.00544582 0.00559076 0.0056981 0.00576782 0.00579993 0.0057946 0.00575203 0.0056722 0.00555512 0.00540078 0.0052092 0.00498036 0.00471427 0.00442892 0.00414233 0.00385449 0.00356539 0.00327505 0.00298346 0.00269061 0.00239652 0.00211941 0.00187751 0.00167082 0.00149934 0.00136308 0.00126203 0.00119619 0.00116556 0.00117028 0.00121046 0.00128611 0.00139723 0.00154381 0.00172586 0.00194338 0.00219637 0.00246702 0.00273751 0.00300785 0.00327804 0.00354808 0.00381796 0.00408769 0.00435727 0.00460922 0.00482605 0.00500776 0.00515436 0.00526584 0.00534221 0.00538346 0.0053896 0.00536045 0.00529585 0.00519578 0.00506027 0.00488929 0.00468286 0.00444098 0.00416364 0.00386677 0.0035663 0.00326225 0.00295459 0.00264334 0.00232849 0.00201005 0.00168801 0.00137749 0.00109358 0.000836286 0.000605611 0.000401555 0.000224115 7.32937e-05 -5.09106e-05 -0.000151012 -0.000229525 -0.000286449 -0.000321786 -0.000335533 -0.000327693 -0.000298264 -0.000247246 -0.000189298 -0.000139076 -9.65806e-05 -6.18116e-05 -3.4769e-05 -1.54529e-05 -3.86322e-06 0 0 -3.64655e-06 -1.45862e-05 -3.2819e-05 -5.83448e-05 -9.11638e-05 -0.000131276 -0.000178681 -0.000233379 -0.000277988 -0.000295124 -0.000284788 -0.00024698 -0.0001817 -8.89467e-05 3.12785e-05 0.000178976 0.000356306 0.000565429 0.000806345 0.00107905 0.00138356 0.00171985 0.00208794 0.00248782 0.00290096 0.00330884 0.00371146 0.0041088 0.00450089 0.00488771 0.00526926 0.00564555 0.00599755 0.00630622 0.00657158 0.00679362 0.00697234 0.00710774 0.00719982 0.00724858 0.00725426 0.00721709 0.00713707 0.0070142 0.00684848 0.00663991 0.00638849 0.00609423 0.00577756 0.00545894 0.00513837 0.00481585 0.00449138 0.00416495 0.00383658 0.00350625 0.00319467 0.00292254 0.00268984 0.00249659 0.00234278 0.00222841 0.00215349 0.00211801 0.00212213 0.002166 0.00224964 0.00237303 0.00253619 0.0027391 0.00298177 0.00326419 0.00356618 0.00386753 0.00416825 0.00446832 0.00476777 0.00506657 0.00536474 0.00566227 0.00593932 0.00617604 0.00637243 0.00652849 0.00664422 0.00671963 0.0067547 0.00674944 0.00670364 0.00661707 0.00648973 0.00632162 0.00611274 0.0058631 0.00557269 0.00524151 0.00488765 0.0045292 0.00416616 0.00379853 0.00342632 0.00304951 0.00266812 0.00228213 0.00190889 0.00156572 0.00125263 0.000969619 0.00071668 0.000493816 0.000301028 0.000138316 3.40486e-06 -0.000105978 -0.000189833 -0.000248161 -0.00028096 -0.000288232 -0.000269975 -0.000226192 -0.000173178 -0.000127233 -8.83561e-05 -5.65479e-05 -3.18082e-05 -1.4137e-05 -3.53424e-06 0 0 -3.09924e-06 -1.2397e-05 -2.78932e-05 -4.95879e-05 -7.74811e-05 -0.000111573 -0.000151863 -0.000198352 -0.00023189 -0.000233328 -0.000202667 -0.000139906 -4.5045e-05 8.19154e-05 0.000240976 0.000432135 0.000657131 0.000917697 0.00121383 0.00154554 0.00191282 0.00231567 0.00275409 0.00322808 0.00371657 0.00419847 0.00467378 0.0051425 0.00560464 0.00606018 0.00650915 0.00695152 0.00736588 0.0077308 0.00804628 0.00831232 0.00852892 0.00869607 0.00881379 0.00888206 0.0089012 0.00887148 0.00879293 0.00866553 0.00848929 0.0082642 0.00799027 0.00766749 0.00731891 0.00696755 0.00661341 0.0062565 0.00589682 0.00553436 0.00516912 0.00480111 0.00445362 0.00414996 0.00389013 0.00367411 0.00350192 0.00337356 0.00328902 0.0032483 0.0032516 0.0032991 0.00339081 0.00352673 0.00370686 0.00393119 0.00419973 0.00451248 0.00484672 0.00517974 0.00551153 0.00584211 0.00617147 0.00649961 0.00682652 0.00715222 0.00745435 0.00771058 0.0079209 0.00808532 0.00820384 0.00827644 0.00830315 0.00828395 0.00821856 0.00810673 0.00794843 0.00774368 0.00749248 0.00719482 0.0068507 0.00646012 0.00604346 0.00562109 0.00519299 0.00475918 0.00431965 0.0038744 0.00342343 0.00296674 0.00252405 0.00211506 0.00173977 0.00139819 0.00109031 0.000816132 0.000575657 0.000368886 0.000193889 4.87387e-05 -6.65658e-05 -0.000152024 -0.000207636 -0.000233402 -0.000229323 -0.000195396 -0.0001496 -0.000109911 -7.63267e-05 -4.88491e-05 -2.74776e-05 -1.22123e-05 -3.05307e-06 0 0 -2.28125e-06 -9.12502e-06 -2.05313e-05 -3.65001e-05 -5.70314e-05 -8.21252e-05 -0.000111781 -0.000146 -0.000163916 -0.000144662 -8.82388e-05 5.35349e-06 0.000136115 0.000304046 0.000509146 0.000751415 0.00103199 0.001352 0.00171144 0.00211033 0.00254865 0.0030264 0.0035436 0.00410023 0.00467252 0.00523671 0.00579278 0.00634075 0.00688061 0.00741236 0.007936 0.00845153 0.00893504 0.00936261 0.00973424 0.0100499 0.0103097 0.0105135 0.0106614 0.0107533 0.0107897 0.0107708 0.0106968 0.0105676 0.0103832 0.0101435 0.0098487 0.00949867 0.00911915 0.00873585 0.00834878 0.00795793 0.0075633 0.00716489 0.00676271 0.00635675 0.005973 0.00563745 0.00535012 0.00511098 0.00492005 0.00477733 0.00468281 0.0046365 0.00463862 0.0046894 0.00478885 0.00493696 0.00513374 0.00537918 0.00567328 0.00601605 0.00638217 0.00674633 0.00710853 0.00746877 0.00782706 0.00818339 0.00853776 0.00889018 0.00921571 0.00948944 0.00971136 0.00988149 0.00999981 0.0100663 0.010081 0.010044 0.00995473 0.00981302 0.00961884 0.00937218 0.00907305 0.00872144 0.00831735 0.00786078 0.00737447 0.00688115 0.00638082 0.00587347 0.00535911 0.00483774 0.00430936 0.00377396 0.00325377 0.00277101 0.00232569 0.00191778 0.00154731 0.00121427 0.00091866 0.000660477 0.000438298 0.0002507 9.76825e-05 -2.07547e-05 -0.000104611 -0.000153888 -0.000168584 -0.000148699 -0.000113848 -8.36432e-05 -5.80856e-05 -3.71748e-05 -2.09108e-05 -9.29369e-06 -2.32342e-06 0 0 -1.08857e-06 -4.35427e-06 -9.79711e-06 -1.74171e-05 -2.72142e-05 -3.91884e-05 -5.33398e-05 -6.96683e-05 -6.57258e-05 -1.90641e-05 7.03169e-05 0.000202417 0.000377236 0.000594775 0.000855033 0.00115801 0.001504 0.0018933 0.00232591 0.00280183 0.00332106 0.0038836 0.00448945 0.00513861 0.00580449 0.0064605 0.00710664 0.00774291 0.00836931 0.00898583 0.00959249 0.0101893 0.0107497 0.0112474 0.0116823 0.0120545 0.0123638 0.0126104 0.0127942 0.0129153 0.012974 0.0129708 0.0129058 0.0127789 0.01259 0.0123394 0.0120268 0.0116524 0.0112445 0.0108316 0.0104136 0.00999071 0.00956276 0.00912979 0.00869181 0.00824881 0.00782953 0.00746267 0.00714825 0.00688627 0.00667672 0.0065196 0.00641492 0.00636267 0.00636313 0.00641656 0.00652298 0.00668237 0.00689474 0.00716009 0.00747841 0.00784972 0.00824606 0.00863951 0.00903004 0.00941768 0.00980241 0.0101842 0.0105632 0.0109392 0.0112848 0.0115724 0.011802 0.0119736 0.0120873 0.0121429 0.0121406 0.0120803 0.0119616 0.0117842 0.0115479 0.0112529 0.010899 0.0104864 0.010015 0.00948478 0.00892093 0.00834858 0.00776773 0.00717837 0.00658051 0.00597414 0.00535927 0.0047359 0.00412887 0.00356302 0.00303835 0.00255487 0.00211257 0.00171145 0.00135152 0.00103276 0.000754488 0.000515981 0.000317241 0.000158269 3.90657e-05 -4.03699e-05 -8.00376e-05 -7.99373e-05 -6.1202e-05 -4.49647e-05 -3.12255e-05 -1.99843e-05 -1.12412e-05 -4.99608e-06 -1.24902e-06 0 0 4.78816e-07 1.91526e-06 4.30934e-06 7.66105e-06 1.19704e-05 1.72374e-05 2.3462e-05 3.06442e-05 6.268e-05 0.000143465 0.000273 0.000451285 0.000678319 0.000954103 0.00127864 0.00165192 0.00207317 0.00254161 0.00305724 0.00362007 0.00423008 0.00488728 0.00559167 0.00634325 0.00711249 0.00786985 0.00861535 0.00934897 0.0100707 0.0107806 0.0114786 0.0121648 0.01281 0.0133853 0.0138906 0.014326 0.0146914 0.0149869 0.0152124 0.015368 0.0154541 0.0154714 0.0154198 0.0152993 0.01511 0.0148517 0.0145246 0.0141286 0.0136949 0.0132547 0.012808 0.0123548 0.0118952 0.0114291 0.0109564 0.0104773 0.0100232 0.00962562 0.00928454 0.00899997 0.00877191 0.00860037 0.00848533 0.00842681 0.00842512 0.00848058 0.00859319 0.00876295 0.00898986 0.00927392 0.00961514 0.0100135 0.0104384 0.0108593 0.0112761 0.0116888 0.0120975 0.0125022 0.0129027 0.0132993 0.0136615 0.0139594 0.0141928 0.0143617 0.0144662 0.0145063 0.0144819 0.014393 0.0142393 0.0140202 0.0137356 0.0133857 0.0129704 0.0124897 0.0119436 0.0113321 0.0106828 0.0100234 0.00935372 0.00867387 0.00798383 0.0072836 0.00657317 0.00585256 0.00514933 0.00449107 0.00387777 0.00330944 0.00278607 0.00230766 0.00187422 0.00148575 0.00114246 0.00084458 0.00059211 0.000385048 0.000223395 0.000107151 3.63155e-05 1.08889e-05 8.3368e-06 6.125e-06 4.25347e-06 2.72222e-06 1.53125e-06 6.80555e-07 1.70139e-07 0 0 2.4209e-06 9.68358e-06 2.17881e-05 3.87343e-05 6.05224e-05 8.71523e-05 0.000118624 0.000154937 0.000221302 0.000342927 0.000519812 0.000751957 0.00103936 0.00138203 0.00177996 0.00223314 0.0027395 0.00329693 0.00390544 0.00456502 0.00527568 0.00603742 0.00685024 0.00771413 0.0085965 0.00946476 0.0103189 0.0111589 0.0119849 0.0127967 0.0135944 0.014378 0.0151158 0.0157761 0.016359 0.0168644 0.0172923 0.0176428 0.0179158 0.0181114 0.0182301 0.0182726 0.0182389 0.018129 0.0179429 0.0176806 0.017342 0.0169273 0.0164703 0.0160052 0.0155319 0.0150503 0.0145606 0.0140627 0.0135566 0.0130422 0.0125541 0.0121263 0.011759 0.0114521 0.0112056 0.0110196 0.0108941 0.0108289 0.0108246 0.0108814 0.0109995 0.0111787 0.0114191 0.011720