<?xml version="1.0"?> 
<VTKFile type="StructuredGrid" version="0.1"> 
<StructuredGrid WholeExtent="0 128 0 128 0 0"> 
<Piece Extent="0 128 0 128 0 0"> 
<PointData>
<DataArray type="Float32" Name="u" format="ascii" NumberOfComponents="1"> 
0 0 0 0 0 0 0 0 0 0 0 0 0 0 0 0 0 0 0 0 0 0 0 0 0 0 0 0 0 0 0 0 0 0 0 0 0 0 0 0 0 0 0 0 0 0 0 0 0 0 0 0 0 0 0 0 0 0 0 0 0 0 0 0 0 0 0 0 0 0 0 0 0 0 0 0 0 0 0 0 0 0 0 0 0 0 0 0 0 0 0 0 0 0 0 0 0 0 0 0 0 0 0 0 0 0 0 0 0 0 0 0 0 0 0 0 0 0 0 0 0 0 0 0 0 0 0 0 0 0 -4.28276e-08 -1.7131e-07 -3.85448e-07 -6.85241e-07 -1.07069e-06 -1.54179e-06 -2.09855e-06 -2.74097e-06 -3.376e-06 -3.91064e-06 -4.34486e-06 -4.67868e-06 -4.91209e-06 -5.0451e-06 -5.0777e-06 -5.00989e-06 -4.81412e-06 -4.46283e-06 -3.95602e-06 -3.29369e-06 -2.47585e-06 -1.50248e-06 -3.73595e-07 9.10809e-07 2.26859e-06 3.61762e-06 4.95789e-06 6.2894e-06 7.61216e-06 8.92616e-06 1.02314e-05 1.15279e-05 1.27261e-05 1.37367e-05 1.45597e-05 1.51949e-05 1.56425e-05 1.59024e-05 1.59747e-05 1.58592e-05 1.55567e-05 1.50674e-05 1.43915e-05 1.3529e-05 1.24798e-05 1.12439e-05 9.82141e-06 8.21225e-06 6.51266e-06 4.81885e-06 3.13082e-06 1.44858e-06 -2.27873e-07 -1.89855e-06 -3.56343e-06 -5.22254e-06 -6.77823e-06 -8.13289e-06 -9.28652e-06 -1.02391e-05 -1.09907e-05 -1.15412e-05 -1.18907e-05 -1.20391e-05 -1.19862e-05 -1.17313e-05 -1.12747e-05 -1.06162e-05 -9.75585e-06 -8.69369e-06 -7.42968e-06 -5.96384e-06 -4.392e-06 -2.81001e-06 -1.21786e-06 3.84436e-07 1.99689e-06 3.61949e-06 5.25224e-06 6.89515e-06 8.4545e-06 9.83656e-06 1.10414e-05 1.20689e-05 1.29191e-05 1.35921e-05 1.40878e-05 1.44062e-05 1.45467e-05 1.45089e-05 1.42926e-05 1.38979e-05 1.33247e-05 1.25732e-05 1.16432e-05 1.05348e-05 9.33307e-06 8.12305e-06 6.90474e-06 5.67816e-06 4.4433e-06 3.20015e-06 1.94873e-06 6.89027e-07 -5.01963e-07 -1.54725e-06 -2.44683e-06 -3.2007e-06 -3.80887e-06 -4.27134e-06 -4.58809e-06 -4.75915e-06 -4.81096e-06 -4.77e-06 -4.63627e-06 -4.40976e-06 -4.09047e-06 -3.67842e-06 -3.17358e-06 -2.57598e-06 -1.97223e-06 -1.44899e-06 -1.00624e-06 -6.43994e-07 -3.62247e-07 -1.60999e-07 -4.02496e-08 0 0 -1.7131e-07 -6.85241e-07 -1.54179e-06 -2.74097e-06 -4.28276e-06 -6.16717e-06 -8.39421e-06 -1.09639e-05 -1.3504e-05 -1.56425e-05 -1.73794e-05 -1.87147e-05 -1.96484e-05 -2.01804e-05 -2.03108e-05 -2.00396e-05 -1.92565e-05 -1.78513e-05 -1.58241e-05 -1.31748e-05 -9.90339e-06 -6.00992e-06 -1.49438e-06 3.64324e-06 9.07438e-06 1.44705e-05 1.98316e-05 2.51576e-05 3.04486e-05 3.57046e-05 4.09256e-05 4.61115e-05 5.09046e-05 5.4947e-05 5.82387e-05 6.07797e-05 6.257e-05 6.36097e-05 6.38987e-05 6.3437e-05 6.22266e-05 6.02697e-05 5.75661e-05 5.41159e-05 4.99191e-05 4.49757e-05 3.92857e-05 3.2849e-05 2.60506e-05 1.92754e-05 1.25233e-05 5.79433e-06 -9.11494e-07 -7.59418e-06 -1.42537e-05 -2.08902e-05 -2.71129e-05 -3.25316e-05 -3.71461e-05 -4.09565e-05 -4.39627e-05 -4.61648e-05 -4.75627e-05 -4.81565e-05 -4.79446e-05 -4.69253e-05 -4.50987e-05 -4.24647e-05 -3.90234e-05 -3.47747e-05 -2.97187e-05 -2.38553e-05 -1.7568e-05 -1.124e-05 -4.87144e-06 1.53774e-06 7.98754e-06 1.44779e-05 2.1009e-05 2.75806e-05 3.3818e-05 3.93463e-05 4.41654e-05 4.82755e-05 5.16764e-05 5.43683e-05 5.6351e-05 5.76246e-05 5.81869e-05 5.80354e-05 5.71703e-05 5.55914e-05 5.32989e-05 5.02927e-05 4.65728e-05 4.21393e-05 3.73323e-05 3.24922e-05 2.7619e-05 2.27126e-05 1.77732e-05 1.28006e-05 7.79492e-06 2.75611e-06 -2.00785e-06 -6.18899e-06 -9.78731e-06 -1.28028e-05 -1.52355e-05 -1.70853e-05 -1.83524e-05 -1.90366e-05 -1.92438e-05 -1.908e-05 -1.85451e-05 -1.7639e-05 -1.63619e-05 -1.47137e-05 -1.26943e-05 -1.03039e-05 -7.88893e-06 -5.79595e-06 -4.02496e-06 -2.57598e-06 -1.44899e-06 -6.43994e-07 -1.60999e-07 0 0 -3.85448e-07 -1.54179e-06 -3.46903e-06 -6.16717e-06 -9.63621e-06 -1.38761e-05 -1.8887e-05 -2.46687e-05 -3.0384e-05 -3.51957e-05 -3.91037e-05 -4.21081e-05 -4.42088e-05 -4.54059e-05 -4.56993e-05 -4.5089e-05 -4.33271e-05 -4.01655e-05 -3.56042e-05 -2.96432e-05 -2.22826e-05 -1.35223e-05 -3.36236e-06 8.19728e-06 2.04174e-05 3.25586e-05 4.4621e-05 5.66046e-05 6.85094e-05 8.03354e-05 9.20826e-05 0.000103751 0.000114535 0.000123631 0.000131037 0.000136754 0.000140783 0.000143122 0.000143772 0.000142733 0.00014001 0.000135607 0.000129524 0.000121761 0.000112318 0.000101195 8.83927e-05 7.39103e-05 5.86139e-05 4.33697e-05 2.81774e-05 1.30373e-05 -2.05086e-06 -1.70869e-05 -3.20709e-05 -4.70028e-05 -6.10041e-05 -7.31961e-05 -8.35787e-05 -9.2152e-05 -9.8916e-05 -0.000103871 -0.000107016 -0.000108352 -0.000107875 -0.000105582 -0.000101472 -9.55457e-05 -8.78027e-05 -7.82432e-05 -6.68671e-05 -5.36745e-05 -3.9528e-05 -2.529e-05 -1.09608e-05 3.45992e-06 1.7972e-05 3.25754e-05 4.72702e-05 6.20563e-05 7.60905e-05 8.85291e-05 9.93722e-05 0.00010862 0.000116272 0.000122329 0.00012679 0.000129655 0.00013092 0.00013058 0.000128633 0.000125081 0.000119923 0.000113159 0.000104789 9.48133e-05 8.39976e-05 7.31074e-05 6.21427e-05 5.11034e-05 3.99897e-05 2.88014e-05 1.75386e-05 6.20124e-06 -4.51767e-06 -1.39252e-05 -2.20214e-05 -2.88063e-05 -3.42798e-05 -3.8442e-05 -4.12929e-05 -4.28323e-05 -4.32987e-05 -4.293e-05 -4.17264e-05 -3.96878e-05 -3.68143e-05 -3.31057e-05 -2.85623e-05 -2.31838e-05 -1.77501e-05 -1.30409e-05 -9.05617e-06 -5.79595e-06 -3.26022e-06 -1.44899e-06 -3.62247e-07 0 0 -6.85241e-07 -2.74097e-06 -6.16717e-06 -1.09639e-05 -1.7131e-05 -2.46687e-05 -3.35768e-05 -4.38555e-05 -5.40161e-05 -6.25702e-05 -6.95178e-05 -7.48589e-05 -7.85935e-05 -8.07216e-05 -8.12431e-05 -8.01582e-05 -7.70259e-05 -7.14053e-05 -6.32963e-05 -5.26991e-05 -3.96135e-05 -2.40397e-05 -5.97752e-06 1.45729e-05 3.62975e-05 5.7882e-05 7.93263e-05 0.00010063 0.000121795 0.000142819 0.000163702 0.000184446 0.000203618 0.000219788 0.000232955 0.000243119 0.00025028 0.000254439 0.000255595 0.000253748 0.000248906 0.000241079 0.000230264 0.000216464 0.000199676 0.000179903 0.000157143 0.000131396 0.000104203 7.71016e-05 5.00932e-05 2.31773e-05 -3.64597e-06 -3.03767e-05 -5.7015e-05 -8.35606e-05 -0.000108452 -0.000130126 -0.000148584 -0.000163826 -0.000175851 -0.000184659 -0.000190251 -0.000192626 -0.000191778 -0.000187701 -0.000180395 -0.000169859 -0.000156094 -0.000139099 -0.000118875 -9.54214e-05 -7.02719e-05 -4.49601e-05 -1.94858e-05 6.15097e-06 3.19502e-05 5.79118e-05 8.40359e-05 0.000110322 0.000135272 0.000157385 0.000176662 0.000193102 0.000206706 0.000217473 0.000225404 0.000230499 0.000232747 0.000232142 0.000228681 0.000222366 0.000213196 0.000201171 0.000186291 0.000168557 0.000149329 0.000129969 0.000110476 9.08505e-05 7.10927e-05 5.12024e-05 3.11797e-05 1.10244e-05 -8.03141e-06 -2.4756e-05 -3.91492e-05 -5.12112e-05 -6.09419e-05 -6.83414e-05 -7.34095e-05 -7.61464e-05 -7.69754e-05 -7.632e-05 -7.41803e-05 -7.05561e-05 -6.54476e-05 -5.88547e-05 -5.07773e-05 -4.12156e-05 -3.15557e-05 -2.31838e-05 -1.60999e-05 -1.03039e-05 -5.79595e-06 -2.57598e-06 -6.43994e-07 0 0 -1.07069e-06 -4.28276e-06 -9.63621e-06 -1.7131e-05 -2.67672e-05 -3.85448e-05 -5.24638e-05 -6.85241e-05 -8.44001e-05 -9.77659e-05 -0.000108622 -0.000116967 -0.000122802 -0.000126127 -0.000126942 -0.000125247 -0.000120353 -0.000111571 -9.89005e-05 -8.23423e-05 -6.18962e-05 -3.7562e-05 -9.33988e-06 2.27702e-05 5.67149e-05 9.04406e-05 0.000123947 0.000157235 0.000190304 0.000223154 0.000255785 0.000288197 0.000318154 0.000343419 0.000363992 0.000379873 0.000391063 0.000397561 0.000399367 0.000396481 0.000388916 0.000376685 0.000359788 0.000338224 0.000311994 0.000281098 0.000245535 0.000205306 0.000162816 0.000120471 7.82706e-05 3.62146e-05 -5.69683e-06 -4.74637e-05 -8.90859e-05 -0.000130563 -0.000169456 -0.000203322 -0.000232163 -0.000255978 -0.000274767 -0.00028853 -0.000297267 -0.000300978 -0.000299654 -0.000293283 -0.000281867 -0.000265405 -0.000243896 -0.000217342 -0.000185742 -0.000149096 -0.0001098 -7.02501e-05 -3.04465e-05 9.61089e-06 4.99221e-05 9.04872e-05 0.000131306 0.000172379 0.000211362 0.000245914 0.000276034 0.000301722 0.000322978 0.000339802 0.000352194 0.000360154 0.000363668 0.000362721 0.000357314 0.000347447 0.000333118 0.00031433 0.00029108 0.00026337 0.000233327 0.000203076 0.000172619 0.000141954 0.000111082 8.00038e-05 4.87182e-05 1.72257e-05 -1.25491e-05 -3.86812e-05 -6.11707e-05 -8.00176e-05 -9.52218e-05 -0.000106783 -0.000114702 -0.000118979 -0.000120274 -0.00011925 -0.000115907 -0.000110244 -0.000102262 -9.19604e-05 -7.93396e-05 -6.43994e-05 -4.93058e-05 -3.62247e-05 -2.5156e-05 -1.60999e-05 -9.05617e-06 -4.02496e-06 -1.00624e-06 0 0 -1.54179e-06 -6.16717e-06 -1.38761e-05 -2.46687e-05 -3.85448e-05 -5.55046e-05 -7.55479e-05 -9.86748e-05 -0.000121536 -0.000140783 -0.000156415 -0.000168432 -0.000176835 -0.000181624 -0.000182797 -0.000180356 -0.000173308 -0.000160662 -0.000142417 -0.000118573 -8.91305e-05 -5.40893e-05 -1.34494e-05 3.27891e-05 8.16694e-05 0.000130234 0.000178484 0.000226419 0.000274038 0.000321342 0.00036833 0.000415004 0.000458141 0.000494523 0.000524148 0.000547017 0.00056313 0.000572487 0.000575088 0.000570933 0.00056004 0.000542427 0.000518095 0.000487043 0.000449272 0.000404781 0.000353571 0.000295641 0.000234456 0.000173479 0.00011271 5.2149e-05 -8.20344e-06 -6.83477e-05 -0.000128284 -0.000188011 -0.000244016 -0.000292784 -0.000334315 -0.000368608 -0.000395664 -0.000415483 -0.000428065 -0.000433409 -0.000431502 -0.000422328 -0.000405888 -0.000382183 -0.000351211 -0.000312973 -0.000267468 -0.000214698 -0.000158112 -0.00010116 -4.3843e-05 1.38397e-05 7.18879e-05 0.000130302 0.000189081 0.000248225 0.000304362 0.000354116 0.000397489 0.000434479 0.000465088 0.000489314 0.000507159 0.000518622 0.000523682 0.000522319 0.000514532 0.000500323 0.00047969 0.000452635 0.000419156 0.000379253 0.000335991 0.00029243 0.000248571 0.000204414 0.000159959 0.000115205 7.01543e-05 2.4805e-05 -1.80707e-05 -5.57009e-05 -8.80858e-05 -0.000115225 -0.000137119 -0.000153768 -0.000165171 -0.000171329 -0.000173195 -0.00017172 -0.000166906 -0.000158751 -0.000147257 -0.000132423 -0.000114249 -9.27352e-05 -7.10004e-05 -5.21635e-05 -3.62247e-05 -2.31838e-05 -1.30409e-05 -5.79595e-06 -1.44899e-06 0 0 -2.09855e-06 -8.39421e-06 -1.8887e-05 -3.35768e-05 -5.24638e-05 -7.55479e-05 -0.000102829 -0.000134307 -0.000165424 -0.000191621 -0.000212898 -0.000229255 -0.000240692 -0.00024721 -0.000248807 -0.000245485 -0.000235892 -0.000218679 -0.000193845 -0.000161391 -0.000121316 -7.36215e-05 -1.83062e-05 4.46297e-05 0.000111161 0.000177263 0.000242937 0.000308181 0.000372996 0.000437382 0.000501338 0.000564866 0.000623581 0.0006731 0.000713424 0.000744551 0.000766483 0.000779219 0.000782759 0.000777103 0.000762276 0.000738303 0.000705184 0.00066292 0.000611509 0.000550952 0.000481249 0.0004024 0.00031912 0.000236124 0.00015341 7.09806e-05 -1.11658e-05 -9.30288e-05 -0.000174608 -0.000255904 -0.000332133 -0.000398512 -0.00045504 -0.000501717 -0.000538543 -0.000565518 -0.000582643 -0.000589918 -0.000587322 -0.000574835 -0.000552459 -0.000520193 -0.000478037 -0.000425991 -0.000364054 -0.000292228 -0.000215208 -0.00013769 -5.96752e-05 1.88373e-05 9.78474e-05 0.000177355 0.00025736 0.000337862 0.00041427 0.000481992 0.000541026 0.000591375 0.000633036 0.000666011 0.0006903 0.000705902 0.000712789 0.000710934 0.000700336 0.000680995 0.000652912 0.000616086 0.000570517 0.000516206 0.00045732 0.000398029 0.000338332 0.00027823 0.000217721 0.000156807 9.54878e-05 3.37623e-05 -2.45962e-05 -7.58151e-05 -0.000119895 -0.000156834 -0.000186635 -0.000209295 -0.000224817 -0.000233198 -0.000235737 -0.00023373 -0.000227177 -0.000216078 -0.000200433 -0.000180242 -0.000155506 -0.000126223 -9.66394e-05 -7.10004e-05 -4.93058e-05 -3.15557e-05 -1.77501e-05 -7.88893e-06 -1.97223e-06 0 0 -2.74097e-06 -1.09639e-05 -2.46687e-05 -4.38555e-05 -6.85241e-05 -9.86748e-05 -0.000134307 -0.000175422 -0.000216064 -0.000250281 -0.000278071 -0.000299435 -0.000314374 -0.000322886 -0.000324973 -0.000320633 -0.000308104 -0.000285621 -0.000253185 -0.000210796 -0.000158454 -9.61588e-05 -2.39101e-05 5.82918e-05 0.00014519 0.000231528 0.000317305 0.000402522 0.000487178 0.000571274 0.000654809 0.000737784 0.000814473 0.000879151 0.000931819 0.000972475 0.00100112 0.00101776 0.00102238 0.00101499 0.000995626 0.000964314 0.000921057 0.000865854 0.000798705 0.000719611 0.00062857 0.000525584 0.00041681 0.000308406 0.000200373 9.27093e-05 -1.45839e-05 -0.000121507 -0.00022806 -0.000334242 -0.000433807 -0.000520505 -0.000594337 -0.000655303 -0.000703403 -0.000738636 -0.000761004 -0.000770505 -0.000767114 -0.000750805 -0.000721579 -0.000679436 -0.000624375 -0.000556396 -0.000475499 -0.000381685 -0.000281088 -0.00017984 -7.79431e-05 2.46039e-05 0.000127801 0.000231647 0.000336144 0.00044129 0.000541088 0.00062954 0.000706647 0.000772408 0.000826823 0.000869892 0.000901616 0.000921994 0.00093099 0.000928567 0.000914724 0.000889463 0.000852783 0.000804684 0.000745165 0.000674228 0.000597317 0.000519875 0.000441904 0.000363402 0.000284371 0.00020481 0.000124719 4.40977e-05 -3.21256e-05 -9.90239e-05 -0.000156597 -0.000204845 -0.000243768 -0.000273365 -0.000293638 -0.000304585 -0.000307902 -0.00030528 -0.000296721 -0.000282224 -0.00026179 -0.000235419 -0.000203109 -0.000164862 -0.000126223 -9.27352e-05 -6.43994e-05 -4.12156e-05 -2.31838e-05 -1.03039e-05 -2.57598e-06 0 0 -3.34239e-06 -1.33695e-05 -3.00815e-05 -5.34782e-05 -8.35596e-05 -0.000120326 -0.000163777 -0.000213913 -0.000263274 -0.000304401 -0.000337295 -0.000361954 -0.00037838 -0.000386571 -0.000386529 -0.000378253 -0.000359598 -0.000328418 -0.000284713 -0.000228485 -0.000159731 -7.84532e-05 1.53492e-05 0.000121676 0.000233875 0.000345293 0.00045593 0.000565786 0.000674862 0.000783157 0.000890671 0.000997404 0.00109614 0.00117965 0.00124794 0.00130102 0.00133887 0.00136151 0.00136893 0.00136112 0.00133814 0.00130004 0.0012468 0.00117843 0.00109493 0.000996304 0.000882547 0.000753659 0.000617407 0.000481557 0.000346108 0.00021106 7.6414e-05 -5.78308e-05 -0.000191674 -0.000325116 -0.000450279 -0.000559286 -0.000652135 -0.000728829 -0.000789365 -0.000833745 -0.000861969 -0.000874036 -0.000869912 -0.000849564 -0.000812991 -0.000760194 -0.000691172 -0.000605926 -0.000504455 -0.00038676 -0.000260571 -0.00013362 -5.90703e-06 0.000122569 0.000251807 0.000381807 0.00051257 0.000644095 0.00076882 0.000879184 0.000975185 0.00105683 0.0011241 0.00117702 0.00121557 0.00123977 0.00124955 0.00124487 0.00122573 0.00119213 0.00114407 0.00108155 0.00100457 0.000913132 0.000814096 0.00071433 0.000613834 0.000512608 0.000410653 0.000307967 0.000204551 0.000100406 1.76483e-06 -8.51359e-05 -0.000160297 -0.000223717 -0.000275398 -0.000315339 -0.000343539 -0.00036 -0.000366785 -0.00036596 -0.000357524 -0.000341477 -0.000317819 -0.000286551 -0.000247672 -0.000201182 -0.00015403 -0.000113165 -7.85865e-05 -5.02954e-05 -2.82912e-05 -1.25738e-05 -3.14346e-06 0 0 -3.77616e-06 -1.51047e-05 -3.39855e-05 -6.04186e-05 -9.44041e-05 -0.000135942 -0.000185032 -0.000241674 -0.000296871 -0.000341622 -0.00037593 -0.000399792 -0.00041321 -0.000416184 -0.000408713 -0.000390797 -0.000360028 -0.000313997 -0.000252705 -0.000176151 -8.43349e-05 2.27427e-05 0.000145082 0.000282683 0.000427334 0.000570824 0.000713152 0.000854319 0.000994324 0.00113317 0.00127085 0.00140737 0.00153389 0.00164157 0.00173041 0.00180041 0.00185157 0.00188389 0.00189738 0.00189202 0.00186788 0.00182504 0.00176349 0.00168323 0.00158426 0.00146658 0.00133019 0.00117509 0.00101079 0.000846805 0.000683126 0.000519758 0.0003567 0.000193951 3.15125e-05 -0.000130616 -0.000282792 -0.000415374 -0.000528361 -0.000621753 -0.000695551 -0.000749754 -0.000784363 -0.000799377 -0.00079475 -0.000770437 -0.000726437 -0.000662751 -0.000579378 -0.000476319 -0.000353574 -0.000211142 -5.84786e-05 9.49595e-05 0.000249173 0.000404161 0.000559925 0.000716463 0.000873777 0.00103187 0.00118147 0.00131334 0.00142748 0.00152388 0.00160253 0.00166346 0.00170664 0.00173209 0.00173973 0.0017295 0.00170139 0.00165541 0.00159155 0.00150982 0.00141021 0.00129273 0.00116578 0.00103776 0.000908675 0.000778526 0.000647313 0.000515034 0.000381689 0.00024728 0.000119499 6.04009e-06 -9.30969e-05 -0.000177912 -0.000248405 -0.000304576 -0.000346425 -0.000373951 -0.000389486 -0.00039536 -0.000391572 -0.000378122 -0.000355011 -0.000322238 -0.000279803 -0.000227707 -0.000174338 -0.000128085 -8.89482e-05 -5.69269e-05 -3.20214e-05 -1.42317e-05 -3.55793e-06 0 0 -4.0423e-06 -1.61692e-05 -3.63807e-05 -6.46768e-05 -0.000101057 -0.000145523 -0.000198073 -0.000258707 -0.000316855 -0.000361944 -0.000393976 -0.00041295 -0.000418866 -0.000411723 -0.000391523 -0.000358264 -0.000309394 -0.00024236 -0.00015716 -5.37951e-05 6.77345e-05 0.000207429 0.000365289 0.000541313 0.000725569 0.000908122 0.00108897 0.00126812 0.00144556 0.00162131 0.00179535 0.00196768 0.00212773 0.00226491 0.00237922 0.00247065 0.00253922 0.00258491 0.00260773 0.00260768 0.00258485 0.00253933 0.00247114 0.00238025 0.00226669 0.00213044 0.0019715 0.00178988 0.00159697 0.00140415 0.00121143 0.0010188 0.000826273 0.000633839 0.0004415 0.000249258 6.86538e-05 -8.87702e-05 -0.000223014 -0.000334077 -0.00042196 -0.000486663 -0.000528185 -0.000546527 -0.000541627 -0.000513424 -0.000461917 -0.000387107 -0.000288993 -0.000167575 -2.28541e-05 0.00014517 0.000325191 0.0005059 0.000687296 0.000869381 0.00105215 0.00123562 0.00141977 0.0016046 0.00177905 0.00193202 0.00206353 0.00217356 0.00226212 0.0023292 0.00237482 0.00239896 0.00240154 0.00238245 0.00234171 0.00227929 0.00219522 0.00208948 0.00196208 0.00181302 0.00165236 0.00149016 0.00132642 0.00116116 0.00099435 0.00082601 0.000656133 0.000484721 0.000321077 0.000174504 4.50021e-05 -6.74286e-05 -0.000162788 -0.000241076 -0.000302293 -0.000346439 -0.000376004 -0.00039348 -0.000398865 -0.00039216 -0.000373365 -0.00034248 -0.000299505 -0.00024444 -0.000187149 -0.000137498 -9.54844e-05 -6.111e-05 -3.43744e-05 -1.52775e-05 -3.81938e-06 0 0 -4.14079e-06 -1.65632e-05 -3.72671e-05 -6.62526e-05 -0.00010352 -0.000149068 -0.000202899 -0.00026501 -0.000323226 -0.000365367 -0.000391434 -0.000401427 -0.000395346 -0.00037319 -0.00033496 -0.000280656 -0.000207697 -0.000113505 1.92183e-06 0.000138582 0.000296477 0.000475606 0.000675969 0.000897566 0.00112858 0.00135719 0.00158339 0.00180719 0.00202858 0.00224757 0.00246416 0.00267834 0.00287767 0.00304968 0.00319437 0.00331175 0.00340181 0.00346455 0.00349999 0.0035081 0.00348903 0.00344291 0.00336973 0.0032695 0.00314221 0.00298787 0.00280648 0.00259803 0.00237593 0.00215359 0.00193101 0.00170819 0.00148513 0.00126183 0.00103829 0.000814506 0.000604059 0.000420525 0.000263906 0.0001342 3.14073e-05 -4.44714e-05 -9.34364e-05 -0.000115488 -0.000110545 -7.85256e-05 -1.94311e-05 6.6739e-05 0.000179985 0.000320306 0.000487703 0.000682176 0.000890437 0.0010992 0.00130846 0.00151823 0.0017285 0.00193926 0.00215053 0.00236231 0.00256154 0.00273522 0.00288333 0.00300587 0.00310285 0.00317426 0.00322011 0.00324039 0.00323497 0.00320373 0.00314667 0.00306379 0.00295508 0.00282054 0.00266019 0.002474 0.00227384 0.00207153 0.00186708 0.0016605 0.00145177 0.0012409 0.00102788 0.000812729 0.000606499 0.000420256 0.000254 0.000107732 -1.85478e-05 -0.000124841 -0.000211146 -0.000277464 -0.000326339 -0.000360319 -0.000379403 -0.00038359 -0.000372882 -0.000347277 -0.000306776 -0.00025138 -0.000192463 -0.000141401 -9.81952e-05 -6.28449e-05 -3.53503e-05 -1.57112e-05 -3.92781e-06 0 0 -4.07164e-06 -1.62866e-05 -3.66447e-05 -6.51462e-05 -0.000101791 -0.000146579 -0.00019951 -0.000260585 -0.000315984 -0.000351891 -0.000368304 -0.000365224 -0.00034265 -0.000300584 -0.000239024 -0.000157971 -5.49361e-05 7.25674e-05 0.00022454 0.000400982 0.000601893 0.000827273 0.00107712 0.00135144 0.00163636 0.00191801 0.0021964 0.00247152 0.00274338 0.00301197 0.00327729 0.00353935 0.00378369 0.00399586 0.00417586 0.00432369 0.00443934 0.00452283 0.00457415 0.00459329 0.00458044 0.00453577 0.00445928 0.00435097 0.00421084 0.00403889 0.00383512 0.00359953 0.00334768 0.00309513 0.00284188 0.00258793 0.00233328 0.00207793 0.00182188 0.00156513 0.00132342 0.00111251 0.000932398 0.000783077 0.000664551 0.00057682 0.000519884 0.000493742 0.000498499 0.000534259 0.000601021 0.000698786 0.000827554 0.000987325 0.0011781 0.00139987 0.00163726 0.00187486 0.00211267 0.0023507 0.00258895 0.00282741 0.00306608 0.00330497 0.00352896 0.00372293 0.00388688 0.00402081 0.00412473 0.00419862 0.0042425 0.00425636 0.00424003 0.00419334 0.00411629 0.00400889 0.00387112 0.003703 0.00350452 0.00327568 0.00303022 0.00278188 0.00253065 0.00227655 0.00201956 0.00175969 0.00149694 0.0012313 0.000975764 0.000743296 0.000533898 0.000347571 0.000184316 4.41313e-05 -7.29821e-05 -0.000167025 -0.000240492 -0.000295879 -0.000333186 -0.000352414 -0.000353561 -0.000336629 -0.000301618 -0.000248526 -0.000190278 -0.000139796 -9.70805e-05 -6.21315e-05 -3.4949e-05 -1.55329e-05 -3.88322e-06 0 0 -3.83484e-06 -1.53394e-05 -3.45136e-05 -6.13575e-05 -9.58711e-05 -0.000138054 -0.000187907 -0.00024543 -0.00029513 -0.000321515 -0.000324585 -0.00030434 -0.00026078 -0.000193905 -0.000103714 9.79083e-06 0.000148889 0.000315857 0.000510695 0.000733403 0.000983982 0.00126243 0.00156875 0.00190294 0.00224892 0.00259061 0.00292801 0.00326113 0.00358996 0.00391449 0.00423474 0.00455071 0.0048458 0.00510347 0.00532369 0.00550648 0.00565182 0.00575974 0.00583021 0.00586325 0.00585907 0.00581792 0.00573978 0.00562467 0.00547257 0.0052835 0.00505744 0.0047944 0.00451223 0.00422877 0.00394404 0.00365802 0.00337072 0.00308214 0.00279227 0.00250112 0.00222675 0.00198719 0.00178246 0.00161256 0.00147747 0.00137721 0.00131178 0.00128116 0.0012855 0.00132493 0.00139944 0.00150903 0.00165372 0.00183348 0.00204833 0.00229827 0.00256566 0.00283288 0.00309993 0.00336681 0.00363351 0.00390005 0.00416641 0.00443261 0.0046813 0.00489516 0.00507419 0.00521839 0.00532776 0.0054023 0.005442 0.00544688 0.00541671 0.00535127 0.00525057 0.00511459 0.00494336 0.00473685 0.00449509 0.00421805 0.0039215 0.0036212 0.00331713 0.00300931 0.00269773 0.0023824 0.0020633 0.00174045 0.00142887 0.00114362 0.000884695 0.000652088 0.000445803 0.00026584 0.000112198 -1.51221e-05 -0.000118461 -0.000200158 -0.000260214 -0.00029863 -0.000315404 -0.000310537 -0.000284028 -0.000235879 -0.000180595 -0.000132682 -9.21403e-05 -5.89698e-05 -3.31705e-05 -1.47424e-05 -3.68561e-06 0 0 -3.43041e-06 -1.37216e-05 -3.08737e-05 -5.48865e-05 -8.57602e-05 -0.000123495 -0.00016809 -0.000219546 -0.000260663 -0.00027424 -0.000260277 -0.000218775 -0.000149734 -5.31526e-05 7.09681e-05 0.000222628 0.000403777 0.000616363 0.000860386 0.00113585 0.00144274 0.00178108 0.00215085 0.00255206 0.00296625 0.00337497 0.00377822 0.004176 0.00456831 0.00495515 0.00533651 0.00571241 0.00606401 0.00637249 0.00663786 0.00686012 0.00703925 0.00717527 0.00726818 0.00731797 0.00732493 0.00728935 0.00721124 0.00709059 0.0069274 0.00672168 0.00647342 0.00618262 0.00586956 0.00555451 0.00523747 0.00491845 0.00459744 0.00427445 0.00394946 0.00362249 0.00331403 0.00304456 0.0028141 0.00262263 0.00247017 0.0023567 0.00228224 0.00224677 0.00225047 0.00229348 0.00237582 0.00249748 0.00265847 0.00285877 0.0030984 0.00337735 0.00367563 0.00397326 0.00427023 0.00456654 0.00486219 0.00515719 0.00545153 0.00574521 0.00601856 0.00625191 0.00644525 0.0065986 0.00671194 0.00678528 0.00681862 0.00681195 0.00676501 0.00667753 0.00654949 0.00638091 0.00617178 0.00592211 0.00563188 0.00530111 0.00494769 0.00458949 0.00422652 0.00385879 0.00348628 0.00310901 0.00272697 0.00234015 0.00196583 0.00162124 0.00130639 0.00102128 0.000765913 0.000540284 0.000344394 0.000178244 3.97533e-05 -7.31572e-05 -0.000160488 -0.000222238 -0.000258408 -0.000268999 -0.000254009 -0.000213439 -0.000163414 -0.00012006 -8.33747e-05 -5.33598e-05 -3.00149e-05 -1.334e-05 -3.33499e-06 0 0 -2.85833e-06 -1.14333e-05 -2.57249e-05 -4.57332e-05 -7.14582e-05 -0.0001029 -0.000140058 -0.000182933 -0.000212583 -0.000210066 -0.000175382 -0.000108531 -9.5127e-06 0.000121672 0.000285024 0.000480542 0.000709729 0.000974087 0.00127361 0.00160831 0.00197818 0.00238322 0.00282343 0.0032988 0.00378836 0.0042711 0.00474703 0.00521614 0.00567844 0.00613393 0.0065826 0.00702446 0.0074383 0.00780294 0.00811838 0.0083846 0.00860163 0.00876944 0.00888805 0.00895745 0.008978 0.00895007 0.00887365 0.00874873 0.00857533 0.00835344 0.00808306 0.0077642 0.00741968 0.00707234 0.00672219 0.00636923 0.00601345 0.00565486 0.00529346 0.00492924 0.00458527 0.00428463 0.00402731 0.00381331 0.00364264 0.0035153 0.00343127 0.00339057 0.00339339 0.00343993 0.00353017 0.00366414 0.00384181 0.0040632 0.00432831 0.00463713 0.00496719 0.005296 0.00562357 0.0059499 0.00627498 0.00659882 0.00692142 0.00724277 0.00754074 0.00779317 0.00800007 0.00816144 0.00827727 0.00834757 0.00837234 0.00835157 0.00828494 0.00817211 0.00801307 0.00780783 0.00755639 0.00725875 0.00691491 0.00652487 0.00610877 0.00568675 0.00525882 0.00482497 0.00438521 0.00393953 0.00348794 0.00303043 0.00258662 0.00217614 0.00179899 0.00145515 0.00114465 0.000867465 0.000623607 0.000413073 0.00023415 8.51237e-05 -3.40061e-05 -0.000123239 -0.000182576 -0.000212016 -0.000211559 -0.000181206 -0.000138736 -0.000101928 -7.07836e-05 -4.53015e-05 -2.54821e-05 -1.13254e-05 -2.83135e-06 0 0 -2.01579e-06 -8.06317e-06 -1.81421e-05 -3.22527e-05 -5.03948e-05 -7.25685e-05 -9.87738e-05 -0.000129011 -0.000142646 -0.000119047 -5.82135e-05 3.98545e-05 0.000175157 0.000347694 0.000557465 0.000804471 0.00108959 0.0014137 0.00177679 0.00217888 0.00261995 0.00310001 0.00361907 0.00417711 0.00475047 0.00531547 0.00587211 0.0064204 0.00696033 0.00749191 0.00801512 0.00852998 0.00901283 0.00944001 0.00981152 0.0101274 0.0103875 0.010592 0.0107408 0.010834 0.0108719 0.010855 0.0107834 0.0106569 0.0104756 0.0102395 0.00994868 0.00960301 0.00922803 0.00884923 0.00846661 0.00808017 0.00768991 0.00729583 0.00689793 0.00649621 0.0061164 0.00578424 0.00549972 0.00526284 0.00507362 0.00493203 0.00483809 0.0047918 0.00479338 0.00484308 0.00494089 0.00508682 0.00528085 0.005523 0.00581326 0.00615164 0.00651308 0.00687253 0.00723001 0.0075855 0.00793901 0.00829054 0.00864009 0.00898765 0.00930853 0.00957803 0.00979615 0.00996288 0.0100782 0.0101422 0.0101548 0.010116 0.0100254 0.00988262 0.00968766 0.00944051 0.00914119 0.00878967 0.00838597 0.00793008 0.00744449 0.00695167 0.00645162 0.00594434 0.00542984 0.00490811 0.00437916 0.00384297 0.00332168 0.00283739 0.00239011 0.00197983 0.00160657 0.0012703 0.000971049 0.0007088 0.000482368 0.000290564 0.000133387 1.08367e-05 -7.7086e-05 -0.000130381 -0.00014905 -0.000133091 -0.000101898 -7.48635e-05 -5.19885e-05 -3.32727e-05 -1.87159e-05 -8.31817e-06 -2.07954e-06 0 0 -7.99987e-07 -3.19995e-06 -7.19988e-06 -1.27998e-05 -1.99997e-05 -2.87995e-05 -3.91993e-05 -5.11991e-05 -4.26091e-05 8.76072e-06 0.00010291 0.000239839 0.000419548 0.000642037 0.000907305 0.00121535 0.0015662 0.00195986 0.00239633 0.00287562 0.00339772 0.00396264 0.00457037 0.00522091 0.0058878 0.00654454 0.00719115 0.00782762 0.00845395 0.00907015 0.00967621 0.0102721 0.0108317 0.0113289 0.0117636 0.0121358 0.0124455 0.0126928 0.0128776 0.0129999 0.0130603 0.0130592 0.0129968 0.0128729 0.0126875 0.0124408 0.0121326 0.0117629 0.0113601 0.0109521 0.0105391 0.0101211 0.00969797 0.0092698 0.00883656 0.00839827 0.00798335 0.00762024 0.00730895 0.00704947 0.00684181 0.00668595 0.00658192 0.00652969 0.00652956 0.00658179 0.00668639 0.00684336 0.00705269 0.00731439 0.00762846 0.0079949 0.00838606 0.00877429 0.00915959 0.00954197 0.00992141 0.0102979 0.0106715 0.0110422 0.0113826 0.0116656 0.011891 0.0120589 0.0121693 0.0122222 0.0122175 0.0121554 0.0120352 0.0118567 0.0116196 0.0113241 0.0109701 0.0105577 0.0100868 0.00955751 0.00899458 0.00842291 0.00784251 0.00725337 0.0066555 0.0060489 0.00543356 0.00480948 0.0042014 0.00363404 0.00310738 0.00262145 0.00217623 0.00177172 0.00140793 0.00108486 0.000802046 0.000559042 0.000355847 0.00019246 6.88812e-05 -1.48889e-05 -5.88506e-05 -6.30039e-05 -4.82373e-05 -3.54397e-05 -2.46109e-05 -1.5751e-05 -8.85992e-06 -3.93774e-06 -9.84435e-07 0 0 7.89088e-07 3.15635e-06 7.10179e-06 1.26254e-05 1.97272e-05 2.84072e-05 3.86653e-05 5.05016e-05 8.75283e-05 0.000173358 0.00030799 0.000491424 0.000723662 0.0010047 0.00133454 0.00171319 0.00213956 0.00261257 0.00313223 0.00369854 0.00431149 0.00497109 0.00567733 0.00643022 0.00720035 0.00795832 0.00870414 0.0094378 0.0101593 0.0108687 0.0115658 0.0122509 0.012895 0.0134696 0.0139745 0.0144099 0.0147756 0.0150717 0.0152983 0.0154552 0.0155431 0.0155627 0.0155138 0.0153966 0.015211 0.0149571 0.0146347 0.014244 0.0138158 0.013381 0.0129398 0.012492 0.0120376 0.0115768 0.0111094 0.0106354 0.0101861 0.00979265 0.00945501 0.0091732 0.00894722 0.00877706 0.00866274 0.00860425 0.0086019 0.00865604 0.00876666 0.00893375 0.00915733 0.00943738 0.00977392 0.0101669 0.0105861 0.0110013 0.0114123 0.0118193 0.0122222 0.012621 0.0130157 0.0134064 0.013763 0.0140558 0.0142846 0.0144495 0.0145504 0.0145875 0.0145606 0.0144698 0.0143145 0.0140942 0.0138089 0.0134586 0.0130433 0.0125629 0.0120175 0.0114072 0.010759 0.0101005 0.00943148 0.00875205 0.00806219 0.00736188 0.00665114 0.00592997 0.0052258 0.00456608 0.00395081 0.00338 0.00285363 0.00237172 0.00193426 0.00154125 0.00119318 0.000890559 0.000633374 0.00042163 0.000255326 0.000134462 5.9038e-05 2.90543e-05 2.22447e-05 1.63431e-05 1.13493e-05 7.26358e-06 4.08577e-06 1.8159e-06 4.53974e-07 0 0 2.75143e-06 1.10057e-05 2.47629e-05 4.40229e-05 6.87858e-05 9.90515e-05 0.00013482 0.000176092 0.000247766 0.000374744 0.000557025 0.000794609 0.0010875 0.00143569 0.00183918 0.00229798 0.00280967 0.00337184 0.0039845 0.00464764 0.00536126 0.00612536 0.00693995 0.00780502 0.00868812 0.00955681 0.0104111 0.0112509 0.0120764 0.0128874 0.013684 0.0144663 0.0152027 0.0158621 0.0164444 0.0169496 0.0173778 0.0177289 0.0180029 0.0181998 0.0183204 0.0183653 0.0183346 0.0182282 0.0180462 0.0177885 0.0174551 0.0170461 0.0165952 0.016136 0.0156685 0.0151928 0.0147089 0.0142167 0.0137163 0.0132076 0.0127247 0.0123014 0.0119379 0.011634 0.0113898 0.0112054 0.0110806 0.0110155 0.0110104 0.0110658 0.0111817 0.011358 0.0115948 0.011892 0