<?xml version="1.0"?> 
<VTKFile type="StructuredGrid" version="0.1"> 
<StructuredGrid WholeExtent="0 128 0 128 0 0"> 
<Piece Extent="0 128 0 128 0 0"> 
<PointData>
<DataArray type="Float32" Name="u" format="ascii" NumberOfComponents="1"> 
0 0 0 0 0 0 0 0 0 0 0 0 0 0 0 0 0 0 0 0 0 0 0 0 0 0 0 0 0 0 0 0 0 0 0 0 0 0 0 0 0 0 0 0 0 0 0 0 0 0 0 0 0 0 0 0 0 0 0 0 0 0 0 0 0 0 0 0 0 0 0 0 0 0 0 0 0 0 0 0 0 0 0 0 0 0 0 0 0 0 0 0 0 0 0 0 0 0 0 0 0 0 0 0 0 0 0 0 0 0 0 0 0 0 0 0 0 0 0 0 0 0 0 0 0 0 0 0 0 0 6.06485e-08 2.42594e-07 5.45836e-07 9.70376e-07 1.51621e-06 2.18335e-06 2.97178e-06 3.8815e-06 4.93964e-06 6.17329e-06 7.58246e-06 9.16716e-06 1.09274e-05 1.28631e-05 1.49743e-05 1.72611e-05 1.96739e-05 2.21633e-05 2.47292e-05 2.73717e-05 3.00908e-05 3.28864e-05 3.57586e-05 3.87074e-05 4.16805e-05 4.46259e-05 4.75436e-05 5.04336e-05 5.32958e-05 5.61303e-05 5.89371e-05 6.17161e-05 6.44368e-05 6.70684e-05 6.9611e-05 7.20645e-05 7.44291e-05 7.67046e-05 7.88911e-05 8.09886e-05 8.29848e-05 8.48674e-05 8.66365e-05 8.8292e-05 8.9834e-05 9.12625e-05 9.25774e-05 9.37788e-05 9.48666e-05 9.5841e-05 9.67018e-05 9.74492e-05 9.8083e-05 9.86033e-05 9.90102e-05 9.93035e-05 9.94897e-05 9.95749e-05 9.95593e-05 9.94428e-05 9.92254e-05 9.89071e-05 9.8488e-05 9.79679e-05 9.73552e-05 9.66581e-05 9.58765e-05 9.50105e-05 9.40601e-05 9.30252e-05 9.19059e-05 9.07022e-05 8.94224e-05 8.8075e-05 8.66599e-05 8.51772e-05 8.36267e-05 8.20087e-05 8.0323e-05 7.85696e-05 7.6758e-05 7.48976e-05 7.29884e-05 7.10304e-05 6.90236e-05 6.6968e-05 6.48637e-05 6.27105e-05 6.05217e-05 5.83105e-05 5.60769e-05 5.38209e-05 5.15425e-05 4.92417e-05 4.69185e-05 4.45728e-05 4.22251e-05 3.98958e-05 3.75849e-05 3.52923e-05 3.30181e-05 3.07622e-05 2.85247e-05 2.63056e-05 2.41344e-05 2.20407e-05 2.00245e-05 1.80858e-05 1.62246e-05 1.4441e-05 1.27348e-05 1.11062e-05 9.57857e-06 8.17553e-06 6.89706e-06 5.74316e-06 4.71384e-06 3.80909e-06 3.02891e-06 2.3733e-06 1.81705e-06 1.33498e-06 9.27069e-07 5.93324e-07 3.33745e-07 1.48331e-07 3.70828e-08 0 0 2.42594e-07 9.70376e-07 2.18335e-06 3.8815e-06 6.06485e-06 8.73338e-06 1.18871e-05 1.5526e-05 1.97586e-05 2.46932e-05 3.03299e-05 3.66686e-05 4.37095e-05 5.14524e-05 5.98974e-05 6.90445e-05 7.86957e-05 8.86532e-05 9.89169e-05 0.000109487 0.000120363 0.000131546 0.000143034 0.000154829 0.000166722 0.000178504 0.000190175 0.000201734 0.000213183 0.000224521 0.000235748 0.000246864 0.000257747 0.000268273 0.000278444 0.000288258 0.000297716 0.000306818 0.000315564 0.000323954 0.000331939 0.00033947 0.000346546 0.000353168 0.000359336 0.00036505 0.00037031 0.000375115 0.000379467 0.000383364 0.000386807 0.000389797 0.000392332 0.000394413 0.000396041 0.000397214 0.000397959 0.0003983 0.000398237 0.000397771 0.000396902 0.000395628 0.000393952 0.000391872 0.000389421 0.000386632 0.000383506 0.000380042 0.00037624 0.000372101 0.000367624 0.000362809 0.00035769 0.0003523 0.00034664 0.000340709 0.000334507 0.000328035 0.000321292 0.000314278 0.000307032 0.00029959 0.000291954 0.000284122 0.000276094 0.000267872 0.000259455 0.000250842 0.000242087 0.000233242 0.000224308 0.000215284 0.00020617 0.000196967 0.000187674 0.000178291 0.000168901 0.000159583 0.00015034 0.000141169 0.000132072 0.000123049 0.000114099 0.000105222 9.65375e-05 8.81627e-05 8.0098e-05 7.23433e-05 6.48986e-05 5.77639e-05 5.09393e-05 4.44247e-05 3.83143e-05 3.27021e-05 2.75882e-05 2.29727e-05 1.88554e-05 1.52363e-05 1.21156e-05 9.49318e-06 7.26822e-06 5.33992e-06 3.70828e-06 2.3733e-06 1.33498e-06 5.93324e-07 1.48331e-07 0 0 5.45836e-07 2.18335e-06 4.91253e-06 8.73338e-06 1.36459e-05 1.96501e-05 2.6746e-05 3.49335e-05 4.44567e-05 5.55596e-05 6.82422e-05 8.25044e-05 9.83463e-05 0.000115768 0.000134769 0.00015535 0.000177065 0.00019947 0.000222563 0.000246346 0.000270817 0.000295978 0.000321827 0.000348366 0.000375125 0.000401634 0.000427893 0.000453902 0.000479662 0.000505173 0.000530434 0.000555445 0.000579931 0.000603615 0.000626499 0.000648581 0.000669862 0.000690341 0.00071002 0.000728897 0.000746863 0.000763807 0.000779728 0.000794628 0.000808506 0.000821363 0.000833197 0.000844009 0.0008538 0.000862569 0.000870316 0.000877043 0.000882747 0.00088743 0.000891092 0.000893732 0.000895407 0.000896174 0.000896034 0.000894985 0.000893029 0.000890164 0.000886392 0.000881711 0.000876197 0.000869923 0.000862889 0.000855095 0.000846541 0.000837227 0.000827153 0.00081632 0.000804802 0.000792675 0.000779939 0.000766594 0.000752641 0.000738078 0.000722907 0.000707126 0.000690822 0.000674078 0.000656895 0.000639273 0.000621212 0.000602712 0.000583773 0.000564394 0.000544695 0.000524795 0.000504692 0.000484388 0.000463883 0.000443175 0.000422266 0.000401155 0.000380026 0.000359062 0.000338264 0.000317631 0.000297163 0.00027686 0.000256722 0.00023675 0.000217209 0.000198366 0.00018022 0.000162772 0.000146022 0.000129969 0.000114613 9.99556e-05 8.62071e-05 7.35797e-05 6.20735e-05 5.16885e-05 4.24246e-05 3.42818e-05 2.72602e-05 2.13597e-05 1.63535e-05 1.20148e-05 8.34362e-06 5.33992e-06 3.0037e-06 1.33498e-06 3.33745e-07 0 0 9.70376e-07 3.8815e-06 8.73338e-06 1.5526e-05 2.42594e-05 3.49335e-05 4.75484e-05 6.2104e-05 7.90342e-05 9.87727e-05 0.000121319 0.000146675 0.000174838 0.00020581 0.00023959 0.000276178 0.000314783 0.000354613 0.000395668 0.000437948 0.000481453 0.000526183 0.000572138 0.000619318 0.000666888 0.000714015 0.000760698 0.000806938 0.000852733 0.000898085 0.000942993 0.000987458 0.00103099 0.00107309 0.00111378 0.00115303 0.00119087 0.00122727 0.00126226 0.00129582 0.00132776 0.00135788 0.00138618 0.00141267 0.00143734 0.0014602 0.00148124 0.00150046 0.00151787 0.00153346 0.00154723 0.00155919 0.00156933 0.00157765 0.00158416 0.00158886 0.00159183 0.0015932 0.00159295 0.00159108 0.00158761 0.00158251 0.00157581 0.00156749 0.00155768 0.00154653 0.00153402 0.00152017 0.00150496 0.0014884 0.00147049 0.00145124 0.00143076 0.0014092 0.00138656 0.00136283 0.00133803 0.00131214 0.00128517 0.00125711 0.00122813 0.00119836 0.00116781 0.00113649 0.00110438 0.00107149 0.00103782 0.00100337 0.000968347 0.000932969 0.000897231 0.000861135 0.00082468 0.000787867 0.000750695 0.000713165 0.000675602 0.000638333 0.000601358 0.000564677 0.000528289 0.000492195 0.000456395 0.000420889 0.00038615 0.000352651 0.000320392 0.000289373 0.000259594 0.000231056 0.000203757 0.000177699 0.000153257 0.000130808 0.000110353 9.18906e-05 7.54214e-05 6.09454e-05 4.84625e-05 3.79727e-05 2.90729e-05 2.13597e-05 1.48331e-05 9.49318e-06 5.33992e-06 2.3733e-06 5.93324e-07 0 0 1.51621e-06 6.06485e-06 1.36459e-05 2.42594e-05 3.79053e-05 5.45836e-05 7.42944e-05 9.70376e-05 0.000123491 0.000154332 0.000189562 0.000229179 0.000273184 0.000321577 0.000374359 0.000431528 0.000491848 0.000554082 0.000618231 0.000684293 0.00075227 0.00082216 0.000893965 0.000967684 0.00104201 0.00111565 0.00118859 0.00126084 0.0013324 0.00140326 0.00147343 0.0015429 0.00161092 0.00167671 0.00174027 0.00180161 0.00186073 0.00191762 0.00197228 0.00202471 0.00207462 0.00212168 0.00216591 0.0022073 0.00224585 0.00228156 0.00231444 0.00234447 0.00237167 0.00239602 0.00241755 0.00243623 0.00245208 0.00246508 0.00247525 0.00248259 0.00248724 0.00248937 0.00248898 0.00248607 0.00248063 0.00247268 0.0024622 0.0024492 0.00243388 0.00241645 0.00239691 0.00237526 0.0023515 0.00232563 0.00229765 0.00226755 0.00223556 0.00220187 0.0021665 0.00212943 0.00209067 0.00205022 0.00200807 0.00196424 0.00191895 0.00187244 0.00182471 0.00177576 0.00172559 0.0016742 0.00162159 0.00156776 0.00151304 0.00145776 0.00140192 0.00134552 0.00128856 0.00123104 0.00117296 0.00111432 0.00105563 0.000997396 0.000939622 0.000882307 0.000825452 0.000769055 0.000713118 0.000657639 0.000603359 0.000551017 0.000500612 0.000452145 0.000405616 0.000361025 0.000318371 0.000277654 0.000239464 0.000204388 0.000172426 0.000143579 0.000117846 9.52272e-05 7.57226e-05 5.93324e-05 4.54264e-05 3.33745e-05 2.31767e-05 1.48331e-05 8.34362e-06 3.70828e-06 9.27069e-07 0 0 2.18335e-06 8.73338e-06 1.96501e-05 3.49335e-05 5.45836e-05 7.86004e-05 0.000106984 0.000139734 0.000177827 0.000222239 0.000272969 0.000330018 0.000393385 0.000463072 0.000539076 0.0006214 0.000708261 0.000797879 0.000890252 0.000985382 0.00108327 0.00118391 0.00128731 0.00139346 0.0015005 0.00160653 0.00171157 0.00181561 0.00191865 0.00202069 0.00212174 0.00222178 0.00231972 0.00241446 0.00250599 0.00259432 0.00267945 0.00276137 0.00284008 0.00291559 0.00298745 0.00305523 0.00311891 0.00317851 0.00323403 0.00328545 0.00333279 0.00337604 0.0034152 0.00345028 0.00348127 0.00350817 0.00353099 0.00354972 0.00356437 0.00357493 0.00358163 0.0035847 0.00358413 0.00357994 0.00357211 0.00356066 0.00354557 0.00352684 0.00350479 0.00347969 0.00345155 0.00342038 0.00338616 0.00334891 0.00330861 0.00326528 0.00321921 0.0031707 0.00311976 0.00306638 0.00301056 0.00295231 0.00289163 0.0028285 0.00276329 0.00269631 0.00262758 0.00255709 0.00248485 0.00241085 0.00233509 0.00225758 0.00217878 0.00209918 0.00201877 0.00193755 0.00185553 0.0017727 0.00168906 0.00160462 0.00152011 0.00143625 0.00135306 0.00127052 0.00118865 0.00110744 0.00102689 0.000947001 0.000868838 0.000793465 0.000720882 0.000651089 0.000584087 0.000519875 0.000458454 0.000399822 0.000344828 0.000294319 0.000248294 0.000206754 0.000169698 0.000137127 0.000109041 8.54387e-05 6.5414e-05 4.80592e-05 3.33745e-05 2.13597e-05 1.20148e-05 5.33992e-06 1.33498e-06 0 0 2.97178e-06 1.18871e-05 2.6746e-05 4.75484e-05 7.42944e-05 0.000106984 0.000145617 0.000190194 0.000242042 0.000302491 0.000371541 0.000449191 0.000535441 0.000630292 0.000733743 0.000845795 0.000964022 0.001086 0.00121173 0.00134121 0.00147445 0.00161143 0.00175217 0.00189666 0.00204235 0.00218667 0.00232964 0.00247125 0.0026115 0.00275039 0.00288792 0.00302409 0.0031574 0.00328635 0.00341094 0.00353116 0.00364703 0.00375853 0.00386566 0.00396844 0.00406625 0.0041585 0.00424519 0.00432631 0.00440187 0.00447186 0.00453629 0.00459516 0.00464847 0.00469621 0.00473839 0.00477501 0.00480607 0.00483156 0.0048515 0.00486587 0.00487499 0.00487917 0.00487841 0.0048727 0.00486204 0.00484645 0.00482591 0.00480043 0.00477041 0.00473625 0.00469795 0.00465551 0.00460894 0.00455824 0.00450339 0.00444441 0.0043817 0.00431567 0.00424634 0.00417368 0.00409771 0.00401843 0.00393583 0.00384991 0.00376114 0.00366998 0.00357643 0.00348049 0.00338216 0.00328143 0.00317832 0.00307281 0.00296556 0.00285722 0.00274777 0.00263723 0.00252558 0.00241284 0.002299 0.00218407 0.00206903 0.0019549 0.00184166 0.00172932 0.00161789 0.00150735 0.00139771 0.00128897 0.00118258 0.00107999 0.0009812 0.000886205 0.000795008 0.000707608 0.000624006 0.000544203 0.00046935 0.000400601 0.000337956 0.000281415 0.000230978 0.000186645 0.000148416 0.000116292 8.90357e-05 6.5414e-05 4.54264e-05 2.90729e-05 1.63535e-05 7.26822e-06 1.81705e-06 0 0 3.8815e-06 1.5526e-05 3.49335e-05 6.2104e-05 9.70376e-05 0.000139734 0.000190194 0.000248416 0.000316137 0.000395091 0.000485278 0.000586698 0.000699352 0.000823238 0.000958358 0.00110471 0.00125913 0.00141845 0.00158267 0.00175179 0.00192581 0.00210473 0.00228855 0.00247727 0.00266755 0.00285606 0.00304279 0.00322775 0.00341093 0.00359234 0.00377197 0.00394983 0.00412395 0.00429238 0.0044551 0.00461213 0.00476346 0.00490909 0.00504903 0.00518327 0.00531102 0.00543151 0.00554474 0.00565069 0.00574938 0.0058408 0.00592495 0.00600184 0.00607146 0.00613382 0.00618892 0.00623675 0.00627731 0.00631061 0.00633665 0.00635543 0.00636734 0.0063728 0.0063718 0.00636434 0.00635043 0.00633006 0.00630323 0.00626995 0.00623073 0.00618612 0.0061361 0.00608067 0.00601984 0.00595361 0.00588198 0.00580494 0.00572303 0.0056368 0.00554623 0.00545134 0.00535211 0.00524856 0.00514067 0.00502845 0.00491251 0.00479344 0.00467126 0.00454594 0.00441751 0.00428595 0.00415127 0.00401347 0.00387339 0.00373187 0.00358892 0.00344454 0.00329872 0.00315147 0.00300278 0.00285266 0.00270241 0.00255333 0.00240543 0.00225871 0.00211316 0.00196878 0.00182558 0.00168356 0.0015446 0.0014106 0.00128157 0.00115749 0.00103838 0.000924223 0.000815029 0.000710795 0.000613028 0.000523234 0.000441412 0.000367563 0.000301686 0.000243782 0.00019385 0.000151891 0.000116292 8.54387e-05 5.93324e-05 3.79727e-05 2.13597e-05 9.49318e-06 2.3733e-06 0 0 4.94279e-06 1.97711e-05 4.44851e-05 7.90846e-05 0.00012357 0.00017794 0.000242197 0.000316338 0.000402511 0.000502858 0.000617381 0.000746079 0.000888953 0.001046 0.00121723 0.00140262 0.0015982 0.00179994 0.00200785 0.00222193 0.00244217 0.00266859 0.00290118 0.00313993 0.00338065 0.00361912 0.00385535 0.00408933 0.00432107 0.00455057 0.00477782 0.00500282 0.00522311 0.00543619 0.00564208 0.00584076 0.00603225 0.00621653 0.00639362 0.00656351 0.0067252 0.00687771 0.00702102 0.00715515 0.00728009 0.00739584 0.0075024 0.00759977 0.00768795 0.00776694 0.00783674 0.00789735 0.00794876 0.00799099 0.00802402 0.00804786 0.00806301 0.00806999 0.0080688 0.00805943 0.00804189 0.00801617 0.00798227 0.0079402 0.00789063 0.0078342 0.00777094 0.00770083 0.00762387 0.00754007 0.00744943 0.00735194 0.00724829 0.00713915 0.00702454 0.00690443 0.00677885 0.00664778 0.00651123 0.00636919 0.00622244 0.00607173 0.00591707 0.00575846 0.0055959 0.00542939 0.00525892 0.00508451 0.00490721 0.00472809 0.00454717 0.00436443 0.00417988 0.00399351 0.00380533 0.00361534 0.00342519 0.00323651 0.00304933 0.00286362 0.0026794 0.00249667 0.00231541 0.00213564 0.00195974 0.0017901 0.00162671 0.00146957 0.00131869 0.00117406 0.00103569 0.000903569 0.000779611 0.000665721 0.000561899 0.000468144 0.000384457 0.000310837 0.000247285 0.000193801 0.000148379 0.000109013 7.57036e-05 4.84503e-05 2.72533e-05 1.21126e-05 3.02814e-06 0 0 6.18588e-06 2.47435e-05 5.5673e-05 9.89742e-05 0.000154647 0.000222692 0.000303108 0.000395897 0.000503563 0.000628615 0.000771052 0.000930873 0.00110808 0.00130267 0.00151465 0.00174401 0.00198583 0.00223517 0.00249204 0.00275643 0.00302836 0.0033078 0.00359478 0.00388928 0.00418616 0.00448027 0.00477162 0.00506021 0.00534602 0.00562908 0.00590936 0.00618689 0.0064586 0.00672145 0.00697545 0.00722059 0.00745688 0.0076843 0.00790288 0.00811259 0.00831222 0.00850053 0.00867751 0.00884318 0.00899752 0.00914055 0.00927225 0.00939263 0.00950169 0.00959939 0.00968576 0.00976078 0.00982446 0.0098768 0.00991779 0.00994744 0.00996637 0.0099752 0.00997392 0.00996254 0.00994106 0.00990948 0.00986779 0.00981601 0.00975494 0.00968541 0.00960741 0.00952095 0.00942602 0.00932264 0.00921078 0.00909047 0.00896253 0.00882782 0.00868632 0.00853805 0.008383 0.00822117 0.00805256 0.00787717 0.00769596 0.00750986 0.00731889 0.00712304 0.00692232 0.00671671 0.00650623 0.00629087 0.00607196 0.00585081 0.00562743 0.00540182 0.00517398 0.0049439 0.0047116 0.00447706 0.00424231 0.00400939 0.00377829 0.00354901 0.00332156 0.00309593 0.00287211 0.00265013 0.00243288 0.00222328 0.00202134 0.00182706 0.00164044 0.00146147 0.00129015 0.00112649 0.000972847 0.000831567 0.000702654 0.000586107 0.000481927 0.000390113 0.000310667 0.000243587 0.000186496 0.000137018 9.51511e-05 6.08967e-05 3.42544e-05 1.52242e-05 3.80604e-06 0 0 7.6108e-06 3.04432e-05 6.84972e-05 0.000121773 0.00019027 0.000273989 0.000372929 0.000487091 0.000619295 0.000772361 0.00094629 0.00114108 0.00135673 0.00159325 0.00185063 0.00212887 0.00242202 0.00272415 0.00303525 0.00335532 0.00368436 0.00402237 0.00436936 0.00472531 0.00508408 0.00543952 0.00579161 0.00614037 0.00648579 0.00682787 0.00716661 0.00750202 0.00783042 0.00814815 0.00845522 0.00875162 0.00903734 0.00931241 0.0095768 0.00983052 0.0100721 0.0103 0.0105142 0.0107148 0.0109017 0.0110749 0.0112345 0.0113804 0.0115127 0.0116312 0.011736 0.011827 0.0119044 0.011968 0.012018 0.0120542 0.0120774 0.0120884 0.0120872 0.0120737 0.0120479 0.01201 0.0119598 0.0118974 0.0118237 0.0117397 0.0116455 0.011541 0.0114263 0.0113013 0.011166 0.0110205 0.0108658 0.0107028 0.0105316 0.0103522 0.0101646 0.00996873 0.00976467 0.0095524 0.00933308 0.00910785 0.00887672 0.00863969 0.00839676 0.00814793 0.0078932 0.00763257 0.00736765 0.00710003 0.00682972 0.00655672 0.00628103 0.00600265 0.00572157 0.00543781 0.00515379 0.00487197 0.00459233 0.00431488 0.00403963 0.00376656 0.00349569 0.003227 0.00296399 0.00271015 0.00246548 0.00222996 0.00200362 0.00178644 0.00157842 0.00137957 0.00119273 0.00102077 0.000863676 0.000721451 0.000594096 0.00048161 0.000383994 0.000301247 0.000230643 0.000169452 0.000117675 7.53119e-05 4.23629e-05 1.8828e-05 4.70699e-06 0 0 9.21753e-06 3.68701e-05 8.29578e-05 0.00014748 0.000230438 0.000331831 0.000451659 0.000589922 0.000749706 0.000934097 0.0011431 0.0013767 0.00163491 0.00191773 0.00222516 0.00255719 0.00290678 0.00326688 0.00363747 0.00401858 0.00441018 0.0048123 0.00522491 0.00564803 0.00607442 0.00649685 0.00691532 0.00732982 0.00774037 0.00814695 0.00854956 0.00894822 0.00933858 0.0097163 0.0100814 0.0104338 0.0107737 0.0111008 0.0114154 0.0117173 0.0120048 0.0122761 0.0125311 0.01277 0.0129926 0.013199 0.0133892 0.0135632 0.0137209 0.0138623 0.0139874 0.0140961 0.0141886 0.0142647 0.0143246 0.0143681 0.0143961 0.0144096 0.0144085 0.0143928 0.0143625 0.0143177 0.0142583 0.0141842 0.0140968 0.0139972 0.0138852 0.0137611 0.0136247 0.0134761 0.0133152 0.0131421 0.012958 0.0127641 0.0125604 0.0123469 0.0121235 0.0118905 0.0116476 0.0113949 0.0111338 0.0108657 0.0105905 0.0103084 0.0100192 0.00972304 0.00941983 0.00910961 0.00879427 0.00847575 0.00815403 0.00782913 0.00750103 0.00716974 0.00683526 0.00649759 0.00615962 0.00582423 0.00549144 0.00516123 0.00483361 0.00450858 0.00418613 0.00386627 0.0035531 0.00325071 0.0029591 0.00267828 0.00240823 0.00214897 0.00190049 0.00166279 0.00143927 0.00123333 0.00104497 0.000874177 0.000720964 0.000585328 0.000467267 0.000366783 0.000280818 0.000206316 0.000143275 9.16958e-05 5.15789e-05 2.2924e-05 5.73099e-06 0 0 1.10061e-05 4.40243e-05 9.90547e-05 0.000176097 0.000275152 0.000396219 0.000539298 0.000704389 0.000894796 0.00111382 0.00136147 0.00163773 0.00194262 0.00227612 0.00263825 0.00302899 0.00344011 0.00386335 0.00429872 0.00474621 0.00520583 0.00567757 0.00616144 0.00665744 0.00715718 0.00765228 0.00814274 0.00862857 0.00910976 0.00958631 0.0100582 0.0105255 0.0109831 0.0114259 0.011854 0.0122673 0.0126658 0.0130496 0.0134186 0.0137729 0.0141103 0.0144288 0.0147282 0.0150087 0.0152702 0.0155127 0.0157363 0.0159408 0.0161263 0.0162927 0.01644 0.0165681 0.016677 0.0167669 0.0168376 0.0168891 0.0169225 0.0169388 0.016938 0.01692 0.0168849 0.0168326 0.0167632 0.0166767 0.0165744 0.0164577 0.0163266 0.0161811 0.0160213 0.015847 0.0156583 0.0154552 0.0152392 0.0150117 0.0147726 0.014522 0.0142599 0.0139863 0.0137012 0.0134046 0.0130981 0.0127834 0.0124604 0.0121292 0.0117897 0.011442 0.0110861 0.010722 0.0103518 0.00997797 0.00960037 0.00921904 0.00883398 0.00844518 0.00805266 0.00765641 0.0072598 0.0068662 0.00647562 0.00608805 0.0057035 0.00532197 0.00494345 0.00456794 0.0042002 0.00384496 0.00350223 0.003172 0.00285428 0.00254907 0.00225637 0.00197617 0.00171247 0.00146925 0.00124653 0.00104429 0.000862532 0.000701266 0.000560486 0.000440194 0.000337024 0.000247609 0.000171951 0.000110049 6.19023e-05 2.75121e-05 6.87804e-06 0 0 1.29764e-05 5.19057e-05 0.000116788 0.000207623 0.000324411 0.000467152 0.000635845 0.000830492 0.00105456 0.00131154 0.00160141 0.00192418 0.00227985 0.00266842 0.00308989 0.00354426 0.004022 0.00451357 0.00501898 0.00553822 0.00607129 0.00661821 0.00717895 0.00775353 0.00833235 0.0089058 0.00947388 0.0100366 0.010594 0.0111459 0.0116926 0.0122338 0.0127639 0.0132769 0.0137729 0.0142519 0.0147138 0.0151587 0.0155866 0.0159974 0.0163887 0.0167581 0.0171055 0.017431 0.0177345 0.0180161 0.0182758 0.0185134 0.0187291 0.0189225 0.0190937 0.0192428 0.0193697 0.0194744 0.019557 0.0196173 0.0196566 0.019676 0.0196755 0.0196552 0.0196149 0.0195547 0.0194746 0.0193747 0.0192564 0.0191214 0.0189696 0.0188011 0.0186159 0.018414 0.0181953 0.0179599 0.0177094 0.0174456 0.0171683 0.0168777 0.0165738 0.0162564 0.0159257 0.0155816 0.015226 0.0148609 0.0144862 0.014102 0.0137082 0.0133049 0.0128921 0.0124697 0.0120403 0.0116067 0.0111687 0.0107265 0.0102799 0.00982898 0.00937377 0.00891426 0.00845432 0.00799786 0.00754487 0.00709535 0.00664931 0.00620673 0.00576763 0.005332 0.00490528 0.00449289 0.00409485 0.00371114 0.00334177 0.00298674 0.00264605 0.00231969 0.00201231 0.00172853 0.00146835 0.00123177 0.0010188 0.000829424 0.000663651 0.00052148 0.000399258 0.000293333 0.000203703 0.00013037 7.33332e-05 3.25925e-05 8.14813e-06 0 0 1.51286e-05 6.05144e-05 0.000136158 0.000242058 0.000378215 0.00054463 0.000741302 0.000968231 0.00122901 0.00152724 0.00186292 0.00223604 0.00264661 0.00309463 0.00358009 0.004103 0.00465245 0.00521754 0.00579825 0.0063946 0.00700658 0.00763419 0.00827743 0.00893631 0.00959993 0.0102574 0.0109087 0.0115539 0.012193 0.0128259 0.0134526 0.0140732 0.0146811 0.0152694 0.0158383 0.0163877 0.0169176 0.0174281 0.0179191 0.0183907 0.0188399 0.0192641 0.0196631 0.0200369 0.0203856 0.0207092 0.0210077 0.021281 0.021529 0.0217516 0.0219487 0.0221204 0.0222666 0.0223874 0.0224828 0.0225526 0.0225984 0.0226212 0.0226212 0.0225984 0.0225526 0.022484 0.0223925 0.0222782 0.0221428 0.0219881 0.0218142 0.0216211 0.0214087 0.0211771 0.0209262 0.020656 0.0203686 0.0200658 0.0197476 0.019414 0.019065 0.0187006 0.0183209 0.0179258 0.0175175 0.0170983 0.0166681 0.0162269 0.0157748 0.0153117 0.0148377 0.0143527 0.0138598 0.0133619 0.0128591 0.0123514 0.0118387 0.0113211 0.0107986 0.0102711 0.0097432 0.00921922 0.0086992 0.00818313 0.00767102 0.00716288 0.00665869 0.00615846 0.00566835 0.00519452 0.00473696 0.00429569 0.00387069 0.00346197 0.00306953 0.00269337 0.00233881 0.00201117 0.00171045 0.00143664 0.00118976 0.000969803 0.000776762 0.000610642 0.000467523 0.000343486 0.000238532 0.00015266 8.58715e-05 3.81651e-05 9.54128e-06 0 0 1.74626e-05 6.98504e-05 0.000157163 0.000279402 0.000436565 0.000628654 0.000855668 0.00111761 0.00141814 0.00176093 0.00214599 0.00257331 0.00304289 0.00355474 0.00410885 0.00470522 0.00533147 0.00597525 0.00663655 0.00731536 0.00801169 0.00872553 0.0094569 0.0102058 0.0109599 0.0117071 0.0124473 0.0131805 0.0139068 0.0146261 0.0153384 0.0160437 0.0167345 0.0174033 0.01805 0.0186747 0.0192773 0.0198579 0.0204164 0.0209528 0.021464 0.0219467 0.0224008 0.0228264 0.0232234 0.023592 0.023932 0.0242435 0.0245262 0.02478 0.0250049 0.0252008 0.0253678 0.0255059 0.025615 0.0256951 0.0257478 0.0257745 0.025775 0.0257496 0.0256981 0.0256205 0.0255169 0.0253873 0.0252336 0.025058 0.0248605 0.024641 0.0243996 0.0241363 0.023851 0.0235437 0.0232168 0.0228723 0.0225103 0.0221307 0.0217336 0.021319 0.0208869 0.0204373 0.0199726 0.0194955 0.0190059 0.0185039 0.0179894 0.0174624 0.016923 0.0163711 0.0158101 0.0152436 0.0146715 0.0140938 0.0135105 0.0129216 0.0123271 0.0117271 0.0111264 0.0105303 0.00993859 0.00935138 0.00876865 0.0081904 0.00761662 0.00704731 0.00648941 0.00594983 0.00542857 0.00492565 0.00444104 0.00397477 0.00352682 0.0030972 0.00269196 0.00231716 0.00197281 0.0016589 0.00137543 0.0011224 0.000899819 0.000707678 0.000541816 0.000398069 0.000276437 0.00017692 9.95173e-05 4.42299e-05 1.10575e-05 0 0 1.99312e-05 7.97249e-05 0.000179381 0.0003189 0.000498281 0.000717524 0.00097663 0.0012756 0.00161813 0.00200792 0.00244496 0.00292927 0.00346084 0.00403966 0.00466575 0.00533909 0.00604579 0.00677193 0.00751752 0.00828255 0.00906702 0.00987094 0.0106943 0.0115371 0.0123857 0.0132265 0.0140594 0.0148845 0.0157017 0.0165111 0.0173126 0.0181063 0.0188837 0.0196363 0.0203642 0.0210674 0.0217458 0.0223995 0.0230284 0.0236326 0.0242085 0.0247522 0.0252639 0.0257435 0.0261911 0.0266066 0.0269901 0.0273415 0.0276605 0.027947 0.028201 0.0284223 0.028611 0.0287672 0.0288908 0.0289818 0.0290418 0.0290725 0.0290738 0.0290457 0.0289883 0.0289015 0.0287853 0.0286397 0.0284671 0.0282697 0.0280476 0.0278007 0.0275291 0.0272326 0.0269115 0.0265655 0.0261973 0.0258093 0.0254016 0.0249741 0.0245268 0.0240597 0.0235729 0.0230663 0.0225428 0.0220053 0.0214537 0.0208881 0.0203084 0.0197148 0.019107 0.0184853 0.0178533 0.0172151 0.0165707 0.0159199 0.0152628 0.0145995 0.0139299 0.013254 0.0125775 0.0119059 0.0112394 0.0105779 0.00992137 0.00926985 0.00862334 0.00798183 0.00735304 0.00674468 0.00615676 0.00558927 0.00504221 0.00451559 0.0040094 0.00352365 0.00306516 0.00264078 0.00225051 0.00189434 0.00157228 0.00128433 0.00103048 0.000810745 0.000620726 0.000456044 0.000316697 0.000202686 0.000114011 5.06715e-05 1.26679e-05 0 0 2.24873e-05 8.99493e-05 0.000202386 0.000359797 0.000562183 0.000809543 0.00110188 0.00143919 0.00182516 0.00226349 0.00275416 0.00329719 0.00389257 0.00454031 0.00524039 0.00599283 0.00678213 0.00759279 0.00842483 0.00927823 0.010153 0.0110491 0.0119666 0.0129055 0.0138507 0.0147871 0.0157148 0.0166337 0.0175439 0.0184453 0.019338 0.0202219 0.0210877 0.021926 0.0227369 0.0235202 0.0242761 0.0250045 0.0257054 0.0263789 0.0270208 0.027627 0.0281976 0.0287325 0.0292318 0.0296954 0.0301233 0.0305156 0.0308719 0.0311919 0.0314756 0.031723 0.0319341 0.0321089 0.0322475 0.0323497 0.0324173 0.0324522 0.0324544 0.0324237 0.0323603 0.0322641 0.0321352 0.0319735 0.0317815 0.031562 0.0313148 0.0310399 0.0307374 0.0304072 0.0300494 0.0296639 0.0292536 0.0288212 0.0283667 0.0278902 0.0273915 0.0268709 0.0263281 0.0257633 0.0251796 0.0245803 0.0239653 0.0233347 0.0226885 0.0220266 0.021349 0.0206558 0.0199513 0.0192398 0.0185213 0.0177958 0.0170633 0.0163239 0.0155774 0.014824 0.0140698 0.0133211 0.012578 0.0118404 0.0111083 0.0103818 0.00966078 0.00894529 0.00824384 0.00756495 0.0069086 0.00627481 0.00566358 0.0050749 0.00450877 0.00396519 0.00345181 0.00297629 0.00253862 0.00213879 0.00177682 0.00145269 0.00116642 0.000917995 0.00070284 0.000516372 0.000358592 0.000229499 0.000129093 5.73747e-05 1.43437e-05 0 0 2.51309e-05 0.000100523 0.000226178 0.000402094 0.000628271 0.000904711 0.00123141 0.00160837 0.00203924 0.00252764 0.00307359 0.00367708 0.0043381 0.00505667 0.00583278 0.00666643 0.00754049 0.00843784 0.00935848 0.0103024 0.0112696 0.0122601 0.0132739 0.0143109 0.0153548 0.016389 0.0174134 0.0184282 0.0194333 0.0204288 0.0214145 0.0223905 0.0233466 0.0242724 0.0251679 0.0260332 0.0268682 0.0276729 0.0284474 0.0291916 0.029901 0.0305711 0.0312019 0.0317933 0.0323454 0.0328582 0.0333317 0.0337658 0.0341603 0.0345146 0.0348289 0.035103 0.0353371 0.0355311 0.0356849 0.0357987 0.0358743 0.0359136 0.0359167 0.0358836 0.0358142 0.0357085 0.0355666 0.0353885 0.0351769 0.0349347 0.0346619 0.0343585 0.0340245 0.0336599 0.0332647 0.0328389 0.0323855 0.0319077 0.0314056 0.0308789 0.0303279 0.0297524 0.0291525 0.0285282 0.0278831 0.0272206 0.0265409 0.0258438 0.0251295 0.0243979 0.0236489 0.0228827 0.022104 0.0213176 0.0205234 0.0197216 0.018912 0.0180947 0.0172697 0.0164369 0.0156034 0.0147759 0.0139544 0.013139 0.0123296 0.0115262 0.0107289 0.00993769 0.00916181 0.00841061 0.0076841 0.00698228 0.00630514 0.00565268 0.00502491 0.00442183 0.00385192 0.00332369 0.00283713 0.00239224 0.00198903 0.00162749 0.00130762 0.00102943 0.000788157 0.000579054 0.000402121 0.000257357 0.000144764 6.43394e-05 1.60848e-05 0 0 2.78619e-05 0.000111447 0.000250757 0.00044579 0.000696546 0.00100303 0.00136523 0.00178316 0.00226036 0.00280039 0.00340324 0.00406892 0.00479743 0.00558875 0.00644291 0.00735989 0.00832088 0.00930708 0.0103185 0.0113551 0.0124168 0.0135038 0.014616 0.0157534 0.0168981 0.0180321 0.0191554 0.0202681 0.0213701 0.0224615 0.0235422 0.0246123 0.0256604 0.0266755 0.0276575 0.0286063 0.0295221 0.0304048 0.0312543 0.0320708 0.0328491 0.0335844 0.0342767 0.0349259 0.0355321 0.0360952 0.0366152 0.0370922 0.0375257 0.0379152 0.0382608 0.0385623 0.0388199 0.0390336 0.0392032 0.0393289 0.0394127 0.0394567 0.0394609 0.0394253 0.0393499 0.0392346 0.0390796 0.0388848 0.0386532 0.038388 0.0380892 0.0377567 0.0373906 0.0369908 0.0365575 0.0360904 0.0355932 0.0350691 0.0345182 0.0339404 0.0333358 0.0327044 0.0320462 0.0313611 0.0306531 0.0299262 0.0291802 0.0284153 0.0276314 0.0268286 0.0260068 0.025166 0.0243115 0.0234485 0.022577 0.0216971 0.0208088 0.019912 0.0190067 0.0180929 0.0171782 0.0162701 0.0153685 0.0144735 0.0135851 0.0127032 0.0118278 0.010959 0.0101069 0.00928169 0.00848326 0.00771166 0.00696689 0.00624895 0.00555784 0.00489356 0.00426548 0.00368298 0.00314605 0.0026547 0.00220893 0.00180872 0.0014541 0.00114505 0.000876678 0.00064409 0.000447285 0.000286262 0.000161023 7.15656e-05 1.78914e-05 0 0 3.06803e-05 0.000122721 0.000276123 0.000490885 0.000767008 0.00110449 0.00150334 0.00196354 0.00248853 0.00308172 0.00374312 0.00447273 0.00527054 0.00613656 0.00707078 0.00807321 0.0091233 0.0102005 0.0113048 0.0124362 0.0135947 0.0147804 0.0159931 0.0172329 0.0184805 0.0197164 0.0209407 0.0221533 0.0233542 0.0245435 0.0257211 0.026887 0.0280292 0.0291353 0.0302055 0.0312396 0.0322378 0.0332 0.0341262 0.0350164 0.0358651 0.0366671 0.0374221 0.0381303 0.0387917 0.0394062 0.0399739 0.0404947 0.0409681 0.0413936 0.0417712 0.0421009 0.0423826 0.0426164 0.0428023 0.0429403 0.0430326 0.0430814 0.0430869 0.0430488 0.0429674 0.0428424 0.0426741 0.0424623 0.0422104 0.0419218 0.0415964 0.0412343 0.0408355 0.0404 0.0399277 0.0394186 0.0388766 0.0383052 0.0377046 0.0370746 0.0364154 0.0357269 0.035009 0.0342619 0.0334898 0.032697 0.0318835 0.0310493 0.0301944 0.0293188 0.0284225 0.0275056 0.0265736 0.0256325 0.0246821 0.0237225 0.0227537 0.0217757 0.0207884 0.0197919 0.0187944 0.0178039 0.0168205 0.0158441 0.0148748 0.0139126 0.0129574 0.0120093 0.0110792 0.0101782 0.00930607 0.00846296 0.00764884 0.0068637 0.00610755 0.00538039 0.00469249 0.00405416 0.00346538 0.00292616 0.0024365 0.00199639 0.00160584 0.00126485 0.000968403 0.00071148 0.000494083 0.000316213 0.00017787 7.90533e-05 1.97633e-05 0 0 3.35862e-05 0.000134345 0.000302276 0.00053738 0.000839656 0.0012091 0.00164572 0.00214952 0.00272374 0.00337164 0.00409323 0.0048885 0.00575745 0.00670008 0.00771639 0.00880639 0.00994773 0.0111181 0.0123175 0.0135458 0.0148032 0.0160897 0.0174051 0.0187495 0.0201021 0.02144