<?xml version="1.0"?> 
<VTKFile type="StructuredGrid" version="0.1"> 
<StructuredGrid WholeExtent="0 128 0 128 0 0"> 
<Piece Extent="0 128 0 128 0 0"> 
<PointData>
<DataArray type="Float32" Name="u" format="ascii" NumberOfComponents="1"> 
0 0 0 0 0 0 0 0 0 0 0 0 0 0 0 0 0 0 0 0 0 0 0 0 0 0 0 0 0 0 0 0 0 0 0 0 0 0 0 0 0 0 0 0 0 0 0 0 0 0 0 0 0 0 0 0 0 0 0 0 0 0 0 0 0 0 0 0 0 0 0 0 0 0 0 0 0 0 0 0 0 0 0 0 0 0 0 0 0 0 0 0 0 0 0 0 0 0 0 0 0 0 0 0 0 0 0 0 0 0 0 0 0 0 0 0 0 0 0 0 0 0 0 0 0 0 0 0 0 0 6.14885e-08 2.45954e-07 5.53396e-07 9.83815e-07 1.53721e-06 2.21358e-06 3.01293e-06 3.93526e-06 5.00769e-06 6.25735e-06 7.68424e-06 9.28836e-06 1.10697e-05 1.30283e-05 1.51641e-05 1.74771e-05 1.99166e-05 2.24316e-05 2.50222e-05 2.76883e-05 3.043e-05 3.32473e-05 3.61401e-05 3.91085e-05 4.20994e-05 4.50597e-05 4.79895e-05 5.08887e-05 5.37573e-05 5.65953e-05 5.94028e-05 6.21797e-05 6.48957e-05 6.75203e-05 7.00535e-05 7.24954e-05 7.4846e-05 7.71052e-05 7.9273e-05 8.13495e-05 8.33235e-05 8.51839e-05 8.69306e-05 8.85637e-05 9.00832e-05 9.1489e-05 9.27813e-05 9.39598e-05 9.5026e-05 9.59811e-05 9.68251e-05 9.7558e-05 9.81797e-05 9.86904e-05 9.90899e-05 9.93783e-05 9.95625e-05 9.96493e-05 9.96389e-05 9.95311e-05 9.9326e-05 9.90236e-05 9.86238e-05 9.81268e-05 9.75401e-05 9.68717e-05 9.61216e-05 9.52896e-05 9.43759e-05 9.33804e-05 9.23031e-05 9.1144e-05 8.99103e-05 8.86088e-05 8.72398e-05 8.58031e-05 8.42988e-05 8.27268e-05 8.10872e-05 7.93799e-05 7.76129e-05 7.57941e-05 7.39235e-05 7.20011e-05 7.00268e-05 6.80007e-05 6.59228e-05 6.37931e-05 6.16239e-05 5.94274e-05 5.72037e-05 5.49528e-05 5.26747e-05 5.03693e-05 4.80367e-05 4.56768e-05 4.33105e-05 4.09584e-05 3.86206e-05 3.62971e-05 3.39878e-05 3.16927e-05 2.94119e-05 2.71454e-05 2.49245e-05 2.27804e-05 2.07132e-05 1.87229e-05 1.68095e-05 1.4973e-05 1.32133e-05 1.15306e-05 9.95035e-06 8.49825e-06 7.1743e-06 5.97849e-06 4.91082e-06 3.9713e-06 3.15992e-06 2.47668e-06 1.89621e-06 1.39313e-06 9.67452e-07 6.19169e-07 3.48283e-07 1.54792e-07 3.86981e-08 0 0 2.45954e-07 9.83815e-07 2.21358e-06 3.93526e-06 6.14885e-06 8.85434e-06 1.20517e-05 1.5741e-05 2.00308e-05 2.50294e-05 3.0737e-05 3.71535e-05 4.42789e-05 5.21132e-05 6.06564e-05 6.99086e-05 7.96663e-05 8.97264e-05 0.000100089 0.000110753 0.00012172 0.000132989 0.00014456 0.000156434 0.000168398 0.000180239 0.000191958 0.000203555 0.000215029 0.000226381 0.000237611 0.000248719 0.000259583 0.000270081 0.000280214 0.000289982 0.000299384 0.000308421 0.000317092 0.000325398 0.000333294 0.000340736 0.000347722 0.000354255 0.000360333 0.000365956 0.000371125 0.000375839 0.000380104 0.000383925 0.0003873 0.000390232 0.000392719 0.000394761 0.00039636 0.000397513 0.00039825 0.000398597 0.000398556 0.000398124 0.000397304 0.000396094 0.000394495 0.000392507 0.000390161 0.000387487 0.000384486 0.000381158 0.000377504 0.000373522 0.000369212 0.000364576 0.000359641 0.000354435 0.000348959 0.000343212 0.000337195 0.000330907 0.000324349 0.00031752 0.000310452 0.000303177 0.000295694 0.000288004 0.000280107 0.000272003 0.000263691 0.000255173 0.000246496 0.00023771 0.000228815 0.000219811 0.000210699 0.000201477 0.000192147 0.000182707 0.000173242 0.000163834 0.000154482 0.000145188 0.000135951 0.000126771 0.000117648 0.000108582 9.96978e-05 9.11215e-05 8.28528e-05 7.48916e-05 6.7238e-05 5.98919e-05 5.28533e-05 4.61223e-05 3.98014e-05 3.3993e-05 2.86972e-05 2.3914e-05 1.96433e-05 1.58852e-05 1.26397e-05 9.9067e-06 7.58482e-06 5.57252e-06 3.86981e-06 2.47668e-06 1.39313e-06 6.19169e-07 1.54792e-07 0 0 5.53396e-07 2.21358e-06 4.98057e-06 8.85434e-06 1.38349e-05 1.99223e-05 2.71164e-05 3.54174e-05 4.50692e-05 5.63162e-05 6.91582e-05 8.35953e-05 9.96274e-05 0.000117255 0.000136477 0.000157294 0.000179249 0.000201884 0.000225199 0.000249195 0.00027387 0.000299225 0.000325261 0.000351976 0.000378894 0.000405537 0.000431905 0.000457998 0.000483815 0.000509358 0.000534625 0.000559618 0.000584061 0.000607683 0.000630482 0.000652459 0.000673614 0.000693947 0.000713457 0.000732146 0.000749912 0.000766655 0.000782376 0.000797074 0.000810749 0.000823401 0.000835031 0.000845639 0.000855234 0.00086383 0.000871426 0.000878022 0.000883618 0.000888213 0.000891809 0.000894405 0.000896062 0.000896844 0.00089675 0.00089578 0.000893934 0.000891212 0.000887614 0.000883141 0.000877861 0.000871846 0.000865094 0.000857607 0.000849383 0.000840423 0.000830728 0.000820296 0.000809192 0.00079748 0.000785158 0.000772228 0.000758689 0.000744541 0.000729785 0.000714419 0.000698516 0.000682147 0.000665312 0.00064801 0.000630241 0.000612007 0.000593306 0.000574138 0.000554615 0.000534847 0.000514834 0.000494575 0.000474072 0.000453323 0.00043233 0.000411091 0.000389795 0.000368626 0.000347586 0.000326674 0.00030589 0.000285235 0.000264707 0.000244309 0.00022432 0.000205023 0.000186419 0.000168506 0.000151285 0.000134757 0.00011892 0.000103775 8.95531e-05 7.64843e-05 6.45687e-05 5.38064e-05 4.41974e-05 3.57417e-05 2.84392e-05 2.22901e-05 1.70658e-05 1.25382e-05 8.70706e-06 5.57252e-06 3.13454e-06 1.39313e-06 3.48283e-07 0 0 9.83815e-07 3.93526e-06 8.85434e-06 1.5741e-05 2.45954e-05 3.54174e-05 4.8207e-05 6.29642e-05 8.01231e-05 0.000100118 0.000122948 0.000148614 0.000177115 0.000208453 0.000242626 0.000279634 0.000318665 0.000358905 0.000400355 0.000443013 0.00048688 0.000531956 0.000578241 0.000625736 0.00067359 0.000720955 0.000767831 0.000814218 0.000860116 0.000905525 0.000950445 0.000994876 0.00103833 0.00108032 0.00112086 0.00115993 0.00119754 0.00123368 0.00126837 0.00130159 0.00133318 0.00136294 0.00139089 0.00141702 0.00144133 0.00146382 0.0014845 0.00150336 0.00152042 0.0015357 0.0015492 0.00156093 0.00157088 0.00157905 0.00158544 0.00159005 0.001593 0.00159439 0.00159422 0.0015925 0.00158922 0.00158438 0.00157798 0.00157003 0.00156064 0.00154995 0.00153795 0.00152463 0.00151001 0.00149409 0.00147685 0.0014583 0.00143856 0.00141774 0.00139584 0.00137285 0.00134878 0.00132363 0.00129739 0.00127008 0.00124181 0.00121271 0.00118278 0.00115202 0.00112043 0.00108801 0.00105477 0.00102069 0.000985982 0.000950839 0.00091526 0.000879245 0.000842794 0.000805908 0.000768587 0.000730829 0.000692968 0.000655335 0.00061793 0.000580753 0.000543804 0.000507084 0.000470591 0.000434327 0.000398791 0.000364486 0.000331411 0.000299566 0.000268952 0.000239568 0.000211413 0.000184489 0.000159206 0.000135972 0.000114789 9.56559e-05 7.85732e-05 6.35408e-05 5.05587e-05 3.96268e-05 3.03393e-05 2.22901e-05 1.54792e-05 9.9067e-06 5.57252e-06 2.47668e-06 6.19169e-07 0 0 1.53721e-06 6.14885e-06 1.38349e-05 2.45954e-05 3.84303e-05 5.53396e-05 7.53234e-05 9.83815e-05 0.000125192 0.000156434 0.000192106 0.000232209 0.000276743 0.000325707 0.000379103 0.000436929 0.000497915 0.00056079 0.000625554 0.000692207 0.00076075 0.000831182 0.000903502 0.000977712 0.00105248 0.00112649 0.00119974 0.00127222 0.00134393 0.00141488 0.00148507 0.00155449 0.00162239 0.00168801 0.00175134 0.00181239 0.00187115 0.00192763 0.00198183 0.00203374 0.00208309 0.0021296 0.00217327 0.00221409 0.00225208 0.00228723 0.00231953 0.002349 0.00237565 0.00239953 0.00242063 0.00243895 0.00245449 0.00246726 0.00247725 0.00248446 0.00248906 0.00249123 0.00249097 0.00248828 0.00248315 0.00247559 0.0024656 0.00245317 0.0024385 0.00242179 0.00240304 0.00238224 0.0023594 0.00233451 0.00230758 0.0022786 0.00224776 0.00221522 0.00218099 0.00214508 0.00210747 0.00206817 0.00202718 0.0019845 0.00194032 0.00189485 0.00184809 0.00180003 0.00175067 0.00170002 0.00164807 0.00159483 0.0015406 0.00148569 0.00143009 0.00137382 0.00131687 0.00125923 0.00120092 0.00114192 0.00108276 0.00102396 0.000965516 0.000907427 0.000849694 0.000792318 0.000735299 0.000678635 0.000623111 0.00056951 0.00051783 0.000468073 0.000420237 0.000374324 0.000330333 0.000288265 0.000248759 0.000212456 0.000179358 0.000149462 0.000122771 9.92825e-05 7.89979e-05 6.19169e-05 4.74051e-05 3.48283e-05 2.41863e-05 1.54792e-05 8.70706e-06 3.86981e-06 9.67452e-07 0 0 2.21358e-06 8.85434e-06 1.99223e-05 3.54174e-05 5.53396e-05 7.9689e-05 0.000108466 0.000141669 0.000180277 0.000225265 0.000276633 0.000334381 0.00039851 0.000469019 0.000545908 0.000629177 0.000716997 0.000807537 0.000900798 0.000996779 0.00109548 0.0011969 0.00130104 0.00140791 0.00151558 0.00162215 0.00172762 0.00183199 0.00193526 0.00203743 0.0021385 0.00223847 0.00233624 0.00243073 0.00252193 0.00260984 0.00269446 0.00277579 0.00285383 0.00292858 0.00299965 0.00306662 0.0031295 0.00318829 0.003243 0.00329361 0.00334013 0.00338255 0.00342094 0.00345532 0.0034857 0.00351209 0.00353447 0.00355285 0.00356724 0.00357762 0.00358425 0.00358738 0.003587 0.00358312 0.00357574 0.00356485 0.00355046 0.00353256 0.00351144 0.00348738 0.00346038 0.00343043 0.00339753 0.00336169 0.00332291 0.00328118 0.00323677 0.00318992 0.00314063 0.00308891 0.00303476 0.00297816 0.00291914 0.00285768 0.00279407 0.00272859 0.00266125 0.00259204 0.00252097 0.00244803 0.00237322 0.00229655 0.00221846 0.00213939 0.00205933 0.0019783 0.00189629 0.00181329 0.00172932 0.00164437 0.00155918 0.0014745 0.00139034 0.00130669 0.00122356 0.00114094 0.00105883 0.000977235 0.00089728 0.000820094 0.000745675 0.000674025 0.000605142 0.000539027 0.00047568 0.000415101 0.000358212 0.000305937 0.000258275 0.000215226 0.00017679 0.000142967 0.000113757 8.91603e-05 6.82634e-05 5.01527e-05 3.48283e-05 2.22901e-05 1.25382e-05 5.57252e-06 1.39313e-06 0 0 3.01293e-06 1.20517e-05 2.71164e-05 4.8207e-05 7.53234e-05 0.000108466 0.000147634 0.000192828 0.000245377 0.00030661 0.000376528 0.00045513 0.000542416 0.000638386 0.000743041 0.00085638 0.000975913 0.00109915 0.00122609 0.00135673 0.00149107 0.00162912 0.00177086 0.00191632 0.00206287 0.00220793 0.00235148 0.00249354 0.00263411 0.00277317 0.00291074 0.00304681 0.00317989 0.00330849 0.00343262 0.00355228 0.00366745 0.00377815 0.00388438 0.00398613 0.00408285 0.00417401 0.0042596 0.00433962 0.00441408 0.00448296 0.00454628 0.00460403 0.00465628 0.00470308 0.00474443 0.00478034 0.00481081 0.00483583 0.0048554 0.00486954 0.00487856 0.00488282 0.00488231 0.00487702 0.00486697 0.00485215 0.00483257 0.00480821 0.00477947 0.00474672 0.00470996 0.00466919 0.00462442 0.00457564 0.00452285 0.00446606 0.0044056 0.00434183 0.00427475 0.00420435 0.00413064 0.00405361 0.00397327 0.00388962 0.00380303 0.00371391 0.00362225 0.00352805 0.00343131 0.00333204 0.00323022 0.00312586 0.00301957 0.00291194 0.00280298 0.00269269 0.00258106 0.00246809 0.0023538 0.00223816 0.00212221 0.00200696 0.00189241 0.00177856 0.0016654 0.00155294 0.00144119 0.00133013 0.0012213 0.00111624 0.00101495 0.000917422 0.000823665 0.000733676 0.000647453 0.000564999 0.000487567 0.000416414 0.000351541 0.000292946 0.00024063 0.000194594 0.000154836 0.000121357 9.29141e-05 6.82634e-05 4.74051e-05 3.03393e-05 1.70658e-05 7.58482e-06 1.89621e-06 0 0 3.93526e-06 1.5741e-05 3.54174e-05 6.29642e-05 9.83815e-05 0.000141669 0.000192828 0.000251857 0.000320492 0.000400471 0.000491792 0.000594455 0.000708462 0.000833811 0.000970503 0.00111854 0.00127466 0.00143562 0.00160142 0.00177205 0.00194752 0.00212782 0.00231297 0.00250294 0.00269436 0.00288382 0.00307133 0.00325687 0.00344047 0.0036221 0.00380178 0.0039795 0.00415332 0.0043213 0.00448343 0.00463971 0.00479014 0.00493473 0.00507347 0.00520637 0.0053327 0.00545177 0.00556356 0.00566808 0.00576532 0.0058553 0.005938 0.00601343 0.00608167 0.00614279 0.00619681 0.00624371 0.0062835 0.00631618 0.00634175 0.00636021 0.006372 0.00637756 0.00637689 0.00636999 0.00635686 0.00633751 0.00631192 0.00628011 0.00624257 0.00619979 0.00615178 0.00609854 0.00604006 0.00597634 0.0059074 0.00583322 0.00575426 0.00567097 0.00558335 0.0054914 0.00539512 0.00529451 0.00518958 0.00508031 0.00496723 0.00485082 0.0047311 0.00460807 0.00448172 0.00435205 0.00421906 0.00408276 0.00394393 0.00380336 0.00366104 0.00351698 0.00337118 0.00322363 0.00307435 0.00292332 0.00277187 0.00262134 0.00247172 0.00232301 0.00217522 0.00202833 0.00188236 0.00173731 0.00159517 0.00145794 0.00132564 0.00119827 0.00107581 0.00095827 0.000845653 0.000737957 0.000636822 0.000543888 0.000459155 0.000382623 0.000314293 0.000254163 0.000202235 0.000158507 0.000121357 8.91603e-05 6.19169e-05 3.96268e-05 2.22901e-05 9.9067e-06 2.47668e-06 0 0 5.01175e-06 2.0047e-05 4.51057e-05 8.01879e-05 0.000125294 0.000180423 0.000245576 0.000320752 0.000408097 0.000509756 0.000625729 0.000756017 0.000900619 0.00105953 0.00123276 0.00142031 0.00161805 0.00182189 0.00203181 0.00224782 0.00246992 0.00269811 0.00293239 0.00317275 0.00341492 0.00365462 0.00389185 0.0041266 0.00435888 0.00458868 0.00481601 0.00504087 0.0052608 0.00547334 0.00567849 0.00587625 0.00606663 0.00624962 0.00642522 0.00659343 0.00675336 0.00690408 0.00704561 0.00717794 0.00730108 0.00741502 0.00751977 0.00761531 0.00770176 0.00777921 0.00784766 0.00790711 0.00795756 0.00799901 0.00803146 0.00805491 0.00806992 0.00807704 0.00807626 0.0080676 0.00805106 0.00802662 0.0079943 0.00795408 0.00790661 0.00785251 0.00779177 0.00772441 0.00765041 0.00756979 0.00748253 0.00738864 0.00728869 0.00718327 0.00707236 0.00695596 0.00683409 0.00670673 0.00657388 0.00643556 0.00629239 0.00614503 0.00599347 0.00583772 0.00567776 0.00551362 0.00534527 0.00517273 0.00499699 0.00481904 0.0046389 0.00445655 0.004272 0.00408524 0.00389629 0.00370513 0.00351344 0.00332291 0.00313353 0.00294531 0.00275823 0.00257231 0.00238754 0.00220392 0.00202398 0.00185025 0.00168271 0.00152139 0.00136626 0.00121734 0.00107463 0.000938114 0.000809882 0.000692007 0.000584488 0.000487325 0.000400518 0.000324068 0.000257974 0.000202237 0.000154838 0.000113758 7.89988e-05 5.05592e-05 2.84396e-05 1.26398e-05 3.15995e-06 0 0 6.27357e-06 2.50943e-05 5.64621e-05 0.000100377 0.000156839 0.000225848 0.000307405 0.000401508 0.000510664 0.000637377 0.000781647 0.000943474 0.00112286 0.0013198 0.0015343 0.00176635 0.0020109 0.00226288 0.00252228 0.00278911 0.00306337 0.00334505 0.00363416 0.0039307 0.00422943 0.00452511 0.00481775 0.00510733 0.00539388 0.00567737 0.00595782 0.00623523 0.00650656 0.00676881 0.00702197 0.00726604 0.00750102 0.00772692 0.00794373 0.00815145 0.00834896 0.00853514 0.00870999 0.0088735 0.00902569 0.00916654 0.00929606 0.00941425 0.00952122 0.00961707 0.00970182 0.00977546 0.00983799 0.00988941 0.00992971 0.00995891 0.00997768 0.00998669 0.00998595 0.00997545 0.00995521 0.0099252 0.00988545 0.00983594 0.00977745 0.00971076 0.00963586 0.00955276 0.00946145 0.00936194 0.00925422 0.0091383 0.00901488 0.00888469 0.00874771 0.00860396 0.00845342 0.0082961 0.00813201 0.00796113 0.00778427 0.00760224 0.00741502 0.00722263 0.00702505 0.0068223 0.00661436 0.00640125 0.00618419 0.00596442 0.00574195 0.00551676 0.00528886 0.00505825 0.00482493 0.0045889 0.00435223 0.00411697 0.00388312 0.00365069 0.00341967 0.00319007 0.00296189 0.00273512 0.00251285 0.00229818 0.0020911 0.00189161 0.00169972 0.00151542 0.00133872 0.00116961 0.00101065 0.000864418 0.000730907 0.000610117 0.000502048 0.000406702 0.000324076 0.000254172 0.000194601 0.000142972 9.92861e-05 6.35431e-05 3.5743e-05 1.58858e-05 3.97144e-06 0 0 7.72073e-06 3.08829e-05 6.94865e-05 0.000123532 0.000193018 0.000277946 0.000378316 0.000494127 0.000628194 0.000783333 0.000959544 0.00115683 0.00137518 0.00161461 0.0018751 0.00215667 0.0024532 0.00275859 0.00307282 0.00339591 0.00372785 0.00406865 0.00441829 0.00477679 0.00513788 0.00549529 0.00584902 0.00619908 0.00654547 0.00688818 0.00722721 0.00756257 0.00789061 0.00820771 0.00851386 0.00880907 0.00909332 0.00936663 0.009629 0.00988041 0.0101195 0.0103449 0.0105567 0.0107548 0.0109391 0.0111098 0.0112669 0.0114102 0.01154 0.0116564 0.0117593 0.0118488 0.0119248 0.0119874 0.0120365 0.0120722 0.0120953 0.0121065 0.0121059 0.0120935 0.0120693 0.0120333 0.0119854 0.0119257 0.0118551 0.0117745 0.011684 0.0115836 0.0114732 0.0113528 0.0112225 0.0110822 0.0109328 0.0107752 0.0106094 0.0104354 0.0102531 0.0100626 0.00986395 0.00965703 0.00944287 0.00922244 0.00899575 0.0087628 0.00852358 0.00827809 0.00802634 0.00776833 0.00750555 0.0072395 0.00697019 0.00669761 0.00642177 0.00614266 0.00586028 0.00557464 0.00528822 0.0050035 0.00472048 0.00443916 0.00415954 0.00388162 0.00360541 0.00333089 0.00306177 0.00280174 0.0025508 0.00230895 0.00207619 0.00185251 0.00163793 0.00143243 0.00123913 0.00106112 0.000898413 0.000751 0.000618883 0.000502063 0.00040054 0.000314313 0.000240646 0.000176801 0.000122779 7.85784e-05 4.42003e-05 1.96446e-05 4.91115e-06 0 0 9.35322e-06 3.74129e-05 8.4179e-05 0.000149652 0.000233831 0.000336716 0.000458308 0.000598606 0.000760687 0.000947625 0.00115942 0.00139607 0.00165759 0.00194396 0.00225518 0.00259127 0.00294496 0.00330902 0.00368345 0.00406823 0.00446338 0.0048689 0.00528478 0.00571102 0.00614027 0.00656515 0.00698568 0.00740184 0.00781365 0.00822109 0.00862417 0.00902289 0.00941295 0.00979004 0.0101542 0.0105053 0.0108435 0.0111688 0.011481 0.0117803 0.012065 0.0123335 0.0125857 0.0128217 0.0130414 0.013245 0.0134322 0.0136033 0.0137582 0.0138971 0.0140201 0.014127 0.0142179 0.0142929 0.0143518 0.0143948 0.0144227 0.0144365 0.0144362 0.0144219 0.0143934 0.0143508 0.0142941 0.0142233 0.0141395 0.0140439 0.0139363 0.0138169 0.0136856 0.0135424 0.0133873 0.0132203 0.0130425 0.0128549 0.0126575 0.0124502 0.0122332 0.0120064 0.0117697 0.0115233 0.0112682 0.0110056 0.0107357 0.0104582 0.0101733 0.009881 0.00958121 0.00927396 0.00896105 0.00864428 0.00832363 0.00799911 0.00767073 0.00733847 0.00700234 0.00666235 0.00632142 0.00598251 0.0056456 0.00531071 0.00497783 0.00464695 0.00431809 0.00399124 0.00367075 0.00336094 0.00306182 0.00277339 0.00249566 0.00222861 0.00197226 0.00172659 0.00149532 0.00128212 0.00108701 0.000909974 0.000751023 0.000610154 0.000487366 0.00038266 0.000292974 0.000215246 0.000149477 9.56651e-05 5.38116e-05 2.39163e-05 5.97907e-06 0 0 1.11711e-05 4.46842e-05 0.00010054 0.000178737 0.000279276 0.000402158 0.000547382 0.000714948 0.000908142 0.00113025 0.00138128 0.00166122 0.00197007 0.00230785 0.00267453 0.00307013 0.00348617 0.00391418 0.00435414 0.00480607 0.00526996 0.00574581 0.00623362 0.0067334 0.00723661 0.00773471 0.00822771 0.00871562 0.00919841 0.00967611 0.0101487 0.0106162 0.0110736 0.0115158 0.0119429 0.0123548 0.0127516 0.0131333 0.0134998 0.0138512 0.0141855 0.0145008 0.014797 0.0150743 0.0153326 0.0155719 0.0157921 0.0159934 0.0161757 0.0163393 0.0164841 0.0166102 0.0167175 0.016806 0.0168757 0.0169267 0.01696 0.0169767 0.0169769 0.0169604 0.0169274 0.0168778 0.0168116 0.0167288 0.0166308 0.0165187 0.0163927 0.0162527 0.0160987 0.0159307 0.0157487 0.0155527 0.0153439 0.0151237 0.0148919 0.0146485 0.0143936 0.0141272 0.0138493 0.0135598 0.0132602 0.0129519 0.0126348 0.0123089 0.0119743 0.011631 0.011279 0.0109181 0.0105507 0.0101787 0.00980226 0.00942126 0.00903573 0.00864568 0.00825111 0.00785202 0.00745183 0.00705399 0.0066585 0.00626535 0.00587454 0.00548607 0.00509995 0.00471618 0.00433977 0.00397576 0.00362416 0.00328495 0.00295813 0.00264372 0.00234171 0.00205209 0.00177921 0.00152741 0.00129669 0.00108704 0.000898468 0.000730973 0.000584554 0.000459213 0.000351585 0.000258307 0.00017938 0.000114803 6.45768e-05 2.87008e-05 7.1752e-06 0 0 1.31742e-05 5.26969e-05 0.000118568 0.000210788 0.000329356 0.000474272 0.000645537 0.000843151 0.00107056 0.00133122 0.00162511 0.00195226 0.00231265 0.00270628 0.00313315 0.00359328 0.00407684 0.00457406 0.00508492 0.00560942 0.00614758 0.00669938 0.00726482 0.00784392 0.00842689 0.00900396 0.00957513 0.0101404 0.0106998 0.0112532 0.0118008 0.0123425 0.0128725 0.013385 0.01388 0.0143576 0.0148177 0.0152602 0.0156854 0.016093 0.0164809 0.0168468 0.0171907 0.0175127 0.0178126 0.0180906 0.0183465 0.0185805 0.0187926 0.0189829 0.0191515 0.0192983 0.0194234 0.0195266 0.0196081 0.0196679 0.0197071 0.0197271 0.0197278 0.0197092 0.0196714 0.0196142 0.0195379 0.0194422 0.0193288 0.0191991 0.0190532 0.0188909 0.0187124 0.0185177 0.0183066 0.0180793 0.0178371 0.0175816 0.0173126 0.0170302 0.0167344 0.0164253 0.0161027 0.0157667 0.0154189 0.0150611 0.014693 0.0143149 0.0139266 0.0135282 0.0131196 0.0127009 0.0122745 0.0118429 0.0114061 0.010964 0.0105168 0.0100643 0.00960658 0.00914365 0.00867945 0.00821796 0.00775916 0.00730307 0.00684967 0.00639898 0.00595098 0.00550569 0.00506885 0.00464622 0.00423781 0.00384361 0.00346362 0.00309784 0.00274628 0.00240892 0.00209082 0.001797 0.00152745 0.00128219 0.00106122 0.00086452 0.000692105 0.000543971 0.000416478 0.000305984 0.000212489 0.000135993 7.64959e-05 3.39982e-05 8.49955e-06 0 0 1.53627e-05 6.1451e-05 0.000138265 0.000245804 0.000384069 0.000553059 0.000752774 0.000983216 0.00124794 0.00155051 0.00189093 0.00226919 0.0026853 0.00313925 0.00363105 0.00416069 0.00471696 0.00528866 0.00587577 0.00647829 0.00709624 0.0077296 0.00837838 0.00904258 0.00971111 0.0103729 0.0110279 0.0116762 0.0123177 0.0129525 0.0135805 0.0142018 0.0148097 0.0153976 0.0159656 0.0165136 0.0170416 0.0175496 0.0180377 0.0185057 0.0189512 0.0193716 0.0197667 0.0201367 0.0204814 0.020801 0.0210955 0.0213647 0.0216088 0.021828 0.0220222 0.0221914 0.0223356 0.0224549 0.0225491 0.0226184 0.0226641 0.0226876 0.022689 0.0226682 0.0226253 0.0225602 0.0224729 0.0223635 0.0222336 0.0220851 0.0219177 0.0217317 0.0215269 0.0213034 0.0210611 0.0208001 0.0205221 0.0202286 0.0199197 0.0195954 0.0192556 0.0189005 0.0185299 0.0181439 0.0177444 0.0173333 0.0169105 0.0164761 0.0160301 0.0155724 0.0151031 0.0146222 0.0141325 0.0136368 0.0131351 0.0126275 0.0121139 0.0115943 0.0110688 0.0105372 0.0100043 0.0094744 0.0089476 0.00842388 0.00790323 0.00738567 0.00687118 0.00635978 0.00585798 0.00537231 0.00490278 0.00444937 0.0040121 0.00359097 0.00318596 0.00279709 0.00243013 0.00209087 0.00177931 0.00149544 0.00123927 0.0010108 0.000810017 0.000636935 0.000487653 0.000358276 0.000248803 0.000159234 8.9569e-05 3.98084e-05 9.95211e-06 0 0 1.77366e-05 7.09464e-05 0.000159629 0.000283785 0.000443415 0.000638517 0.000869093 0.00113514 0.00144029 0.00178815 0.00217873 0.00261202 0.00308804 0.00360677 0.00416821 0.00477238 0.00540654 0.00605798 0.00672669 0.00741268 0.00811594 0.00883648 0.00957429 0.0103294 0.0110893 0.0118415 0.0125861 0.013323 0.0140523 0.0147739 0.0154878 0.0161941 0.0168852 0.0175537 0.0181995 0.0188228 0.0194234 0.0200014 0.0205567 0.0210894 0.0215966 0.0220751 0.022525 0.0229464 0.0233391 0.0237033 0.0240389 0.0243459 0.0246244 0.0248745 0.0250962 0.0252894 0.0254542 0.0255906 0.0256986 0.0257782 0.0258309 0.0258583 0.0258605 0.0258375 0.0257892 0.0257156 0.0256168 0.0254927 0.0253453 0.0251765 0.0249864 0.0247749 0.024542 0.0242878 0.0240122 0.0237152 0.0233987 0.0230647 0.0227131 0.0223439 0.0219572 0.0215529 0.0211309 0.0206915 0.0202366 0.0197685 0.0192871 0.0187926 0.0182848 0.0177638 0.0172295 0.016682 0.0161246 0.0155603 0.0149893 0.0144116 0.013827 0.0132357 0.0126376 0.0120328 0.0114263 0.0108233 0.0102238 0.00962777 0.00903522 0.00844614 0.00786055 0.00727845 0.00670716 0.00615403 0.00561906 0.00510225 0.0046036 0.0041231 0.00366077 0.00321659 0.00279716 0.00240904 0.00205225 0.00172678 0.00143263 0.0011698 0.000938292 0.000738105 0.000565112 0.000415184 0.000288322 0.000184526 0.000103796 4.61316e-05 1.15329e-05 0 0 2.02486e-05 8.09944e-05 0.000182237 0.000323977 0.000506215 0.000728949 0.000992181 0.00129591 0.00164377 0.00203942 0.00248283 0.00297402 0.00351299 0.00409973 0.00473425 0.00541654 0.00613231 0.00686725 0.00762136 0.00839465 0.00918711 0.00999875 0.0108296 0.0116795 0.0125348 0.0133815 0.0142195 0.0150489 0.0158697 0.0166819 0.0174855 0.0182804 0.0190584 0.019811 0.0205382 0.0212399 0.0219163 0.0225674 0.023193 0.0237932 0.0243647 0.024904 0.0254112 0.0258863 0.0263293 0.0267401 0.0271188 0.0274653 0.0277798 0.0280623 0.0283128 0.0285312 0.0287176 0.0288721 0.0289945 0.0290849 0.029145 0.0291767 0.0291798 0.0291545 0.0291006 0.0290183 0.0289075 0.0287682 0.0286025 0.0284127 0.0281988 0.0279608 0.0276986 0.0274124 0.0271019 0.0267674 0.0264108 0.0260345 0.0256383 0.0252222 0.0247864 0.0243306 0.0238551 0.0233597 0.022847 0.0223194 0.0217768 0.0212194 0.0206471 0.0200599 0.0194577 0.0188407 0.0182125 0.0175766 0.0169332 0.0162821 0.0156235 0.0149572 0.0142834 0.013602 0.0129187 0.0122393 0.0115638 0.0108922 0.0102245 0.00956063 0.0089007 0.00824466 0.00760069 0.00697696 0.00637348 0.00579024 0.00522724 0.00468449 0.00416199 0.00365973 0.00318513 0.00274563 0.00234123 0.00197191 0.00163769 0.00133856 0.00107453 0.000845586 0.000647402 0.000475642 0.000330307 0.000211396 0.00011891 5.28491e-05 1.32123e-05 0 0 2.28515e-05 9.14062e-05 0.000205664 0.000365625 0.000571289 0.000822656 0.00111973 0.0014625 0.00185459 0.00229962 0.00279757 0.00334847 0.00395229 0.00460905 0.00531874 0.00608137 0.00688099 0.00770169 0.00854345 0.00940628 0.0102902 0.0111951 0.0121212 0.0130683 0.0140211 0.0149643 0.015898 0.016822 0.0177364 0.0186412 0.0195365 0.0204221 0.0212888 0.0221273 0.0229376 0.0237197 0.0244736 0.0251993 0.0258968 0.0265661 0.0272035 0.0278051 0.0283709 0.028901 0.0293954 0.029854 0.0302768 0.030664 0.0310154 0.0313311 0.0316111 0.0318555 0.0320642 0.0322372 0.0323745 0.0324761 0.032544 0.0325801 0.0325843 0.0325568 0.0324974 0.0324062 0.0322832 0.0321284 0.0319441 0.0317329 0.0314948 0.0312297 0.0309376 0.0306185 0.0302725 0.0298996 0.029502 0.0290823 0.0286405 0.0281765 0.0276904 0.0271821 0.0266517 0.0260991 0.0255271 0.0249386 0.0243334 0.0237116 0.0230733 0.0224183 0.0217467 0.0210586 0.0203579 0.0196487 0.0189311 0.0182051 0.0174706 0.0167276 0.0159762 0.0152164 0.0144545 0.0136969 0.0129435 0.0121945 0.0114498 0.0107093 0.00997321 0.00924137 0.00852285 0.00782667 0.00715284 0.00650134 0.00587219 0.00526538 0.00468091 0.00411879 0.00358731 0.00309477 0.00264119 0.00222655 0.00185086 0.00151412 0.00121633 0.000957483 0.000733073 0.000538584 0.000374017 0.000239371 0.000134646 5.98427e-05 1.49607e-05 0 0 2.55455e-05 0.000102182 0.000229909 0.000408728 0.000638637 0.000919637 0.00125173 0.00163491 0.00207273 0.00256875 0.00312295 0.00373535 0.00440594 0.00513472 0.0059217 0.00676686 0.0076526 0.0085613 0.00949295 0.0104476 0.0114251 0.0124257 0.0134491 0.0144956 0.0155482 0.0165902 0.0176215 0.0186423 0.0196524 0.0206518 0.0216407 0.0226189 0.0235763 0.0245027 0.0253979 0.0262621 0.0270952 0.0278973 0.0286683 0.0294083 0.030113 0.0307782 0.0314041 0.0319905 0.0325374 0.033045 0.0335131 0.0339418 0.0343311 0.0346809 0.0349914 0.0352623 0.0354939 0.035686 0.0358387 0.0359519 0.0360279 0.0360686 0.0360741 0.0360444 0.0359794 0.0358793 0.0357439 0.0355733 0.0353701 0.0351371 0.0348742 0.0345815 0.0342589 0.0339064 0.033524 0.0331117 0.0326723 0.0322083 0.0317199 0.0312068 0.0306693 0.0301073 0.0295207 0.0289096 0.028277 0.0276261 0.0269569 0.0262693 0.0255634 0.0248391 0.0240965 0.0233355 0.0225607 0.0217766 0.0209831 0.0201803 0.0193683 0.0185468 0.0177161 0.0168761 0.0160337 0.015196 0.0143631 0.0135348 0.0127112 0.0118923 0.0110781 0.0102686 0.00947366 0.00870317 0.00795715 0.00723557 0.00653844 0.00586577 0.00521755 0.00459377 0.00400367 0.00345646 0.00295213 0.00249069 0.00207214 0.00169647 0.00136369 0.0010738 0.000822126 0.000604011 0.000419452 0.000268449 0.000151003 6.71123e-05 1.67781e-05 0 0 2.83304e-05 0.000113321 0.000254973 0.000453286 0.000708259 0.00101989 0.00138819 0.00181314 0.0022982 0.00284681 0.00345897 0.00413468 0.00487395 0.00567676 0.00654312 0.00747303 0.00844713 0.00944608 0.0104699 0.0115185 0.012592 0.0136903 0.0148134 0.0159614 0.017116 0.0182589 0.0193902 0.0205097 0.0216176 0.0227137 0.0237982 0.0248711 0.025921 0.0269371 0.0279191 0.0288671 0.0297812 0.0306613 0.0315074 0.0323195 0.0330931 0.0338235 0.0345107 0.0351547 0.0357555 0.0363132 0.0368277 0.0372989 0.037727 0.0381118 0.0384534 0.0387517 0.0390067 0.0392185 0.039387 0.0395123 0.0395966 0.0396422 0.039649 0.0396172 0.0395467 0.0394375 0.0392895 0.0391029 0.0388805 0.0386253 0.0383372 0.0380162 0.0376624 0.0372758 0.0368563 0.0364039 0.0359217 0.0354125 0.0348763 0.0343132 0.0337231 0.0331061 0.0324621 0.0317912 0.0310967 0.0303821 0.0296473 0.0288924 0.0281174 0.0273223 0.026507 0.0256716 0.024821 0.0239602 0.0230892 0.022208 0.0213166 0.0204149 0.0195031 0.018581 0.0176564 0.0167368 0.0158224 0.014913 0.0140087 0.0131095 0.0122153 0.0113263 0.0104531 0.00960646 0.0087864 0.00799291 0.00722599 0.00648565 0.00577188 0.00508469 0.00443424 0.00383069 0.00327406 0.00276433 0.00230152 0.00188561 0.00151662 0.00119453 0.000914561 0.000671922 0.000466613 0.000298632 0.000167981 7.4658e-05 1.86645e-05 0 0 3.12062e-05 0.000124825 0.000280856 0.000499299 0.000780155 0.00112342 0.0015291 0.0019972 0.002531 0.00313381 0.00380563 0.00454646 0.0053563 0.00623514 0.00718299 0.00819986 0.00926458 0.010356 0.0114742 0.0126191 0.0137907 0.0149891 0.0162141 0.0174659 0.0187247 0.0199706 0.0212039 0.0224243 0.023632 0.0248269 0.026009 0.0271784 0.0283229 0.0294305 0.0305011 0.0315348 0.0325315 0.0334913 0.0344141 0.0353 0.0361439 0.0369408 0.0376907 0.0383937 0.0390496 0.0396585 0.0402204 0.0407353 0.0412031 0.0416238 0.0419973 0.0423236 0.0426028 0.0428347 0.0430196 0.0431572 0.0432501 0.0433008 0.0433092 0.0432753 0.0431992 0.0430808 0.0429202 0.0427173 0.0424753 0.0421974 0.0418836 0.0415339 0.0411483 0.0407268 0.0402694 0.0397761 0.0392501 0.0386947 0.0381098 0.0374955 0.0368518 0.0361786 0.0354759 0.0347439 0.0339861 0.0332063 0.0324046 0.031581 0.0307354 0.0298678 0.0289783 0.0280668 0.0271388 0.0261996 0.0252494 0.024288 0.0233155 0.0223318 0.0213371 0.0203312 0.0193224 0.0183192 0.0173214 0.0163291 0.0153423 0.0143609 0.013385 0.0124145 0.0114612 0.0105365 0.0096406 0.00877337 0.00793485 0.00712504 0.00634393 0.00559153 0.00487899 0.00421747 0.00360697 0.00304748 0.002539 0.00208155 0.0016751 0.00131968 0.00101038 0.000742318 0.000515498 0.000329919 0.000185579 8.24798e-05 2.06199e-05 0 0 3.4173e-05 0.000136692 0.000307557 0.000546768 0.000854325 0.00123023 0.00167448 0.00218707 0.00277112 0.00342974 0.00416293 0.00497068 0.005853 0.00680988 0.00784134 0.00894735 0.010105 0.0112912 0.012506 0.0137493 0.0150213 0.0163219 0.0176511 0.0190089 0