<?xml version="1.0"?> 
<VTKFile type="StructuredGrid" version="0.1"> 
<StructuredGrid WholeExtent="0 128 0 128 0 0"> 
<Piece Extent="0 128 0 128 0 0"> 
<PointData>
<DataArray type="Float32" Name="u" format="ascii" NumberOfComponents="1"> 
0 0 0 0 0 0 0 0 0 0 0 0 0 0 0 0 0 0 0 0 0 0 0 0 0 0 0 0 0 0 0 0 0 0 0 0 0 0 0 0 0 0 0 0 0 0 0 0 0 0 0 0 0 0 0 0 0 0 0 0 0 0 0 0 0 0 0 0 0 0 0 0 0 0 0 0 0 0 0 0 0 0 0 0 0 0 0 0 0 0 0 0 0 0 0 0 0 0 0 0 0 0 0 0 0 0 0 0 0 0 0 0 0 0 0 0 0 0 0 0 0 0 0 0 0 0 0 0 0 0 -1.40631e-07 -5.62524e-07 -1.26568e-06 -2.2501e-06 -3.51578e-06 -5.06272e-06 -6.89092e-06 -9.00039e-06 -1.12828e-05 -1.36297e-05 -1.60413e-05 -1.85174e-05 -2.10581e-05 -2.36634e-05 -2.63333e-05 -2.90677e-05 -3.17079e-05 -3.4095e-05 -3.6229e-05 -3.81098e-05 -3.97376e-05 -4.11123e-05 -4.22338e-05 -4.31023e-05 -4.37529e-05 -4.42212e-05 -4.45069e-05 -4.46102e-05 -4.4531e-05 -4.42694e-05 -4.38253e-05 -4.31988e-05 -4.25503e-05 -4.20405e-05 -4.16692e-05 -4.14365e-05 -4.13424e-05 -4.1387e-05 -4.15701e-05 -4.18918e-05 -4.2421e-05 -4.32268e-05 -4.43089e-05 -4.56676e-05 -4.73027e-05 -4.92142e-05 -5.14023e-05 -5.38668e-05 -5.64766e-05 -5.91006e-05 -6.17387e-05 -6.4391e-05 -6.70574e-05 -6.9738e-05 -7.24328e-05 -7.51417e-05 -7.76856e-05 -7.98852e-05 -8.17407e-05 -8.32519e-05 -8.44188e-05 -8.52416e-05 -8.57201e-05 -8.58543e-05 -8.56458e-05 -8.5096e-05 -8.42048e-05 -8.29724e-05 -8.13986e-05 -7.94834e-05 -7.7227e-05 -7.46292e-05 -7.18698e-05 -6.91287e-05 -6.64057e-05 -6.3701e-05 -6.10144e-05 -5.83461e-05 -5.5696e-05 -5.3064e-05 -5.05791e-05 -4.83702e-05 -4.64371e-05 -4.478e-05 -4.33987e-05 -4.22934e-05 -4.14639e-05 -4.09104e-05 -4.05634e-05 -4.03536e-05 -4.0281e-05 -4.03456e-05 -4.05474e-05 -4.08864e-05 -4.13625e-05 -4.19759e-05 -4.25693e-05 -4.29857e-05 -4.32251e-05 -4.32875e-05 -4.31728e-05 -4.28811e-05 -4.24125e-05 -4.17667e-05 -4.09107e-05 -3.98109e-05 -3.84676e-05 -3.68805e-05 -3.50498e-05 -3.29754e-05 -3.06573e-05 -2.80956e-05 -2.54441e-05 -2.28568e-05 -2.03337e-05 -1.78748e-05 -1.548e-05 -1.31494e-05 -1.08829e-05 -8.68069e-06 -6.64615e-06 -4.88289e-06 -3.39089e-06 -2.17017e-06 -1.22072e-06 -5.42543e-07 -1.35636e-07 0 0 -5.62524e-07 -2.2501e-06 -5.06272e-06 -9.00039e-06 -1.40631e-05 -2.02509e-05 -2.75637e-05 -3.60016e-05 -4.51311e-05 -5.4519e-05 -6.41652e-05 -7.40697e-05 -8.42325e-05 -9.46537e-05 -0.000105333 -0.000116271 -0.000126832 -0.00013638 -0.000144916 -0.000152439 -0.00015895 -0.000164449 -0.000168935 -0.000172409 -0.000175012 -0.000176885 -0.000178028 -0.000178441 -0.000178124 -0.000177078 -0.000175301 -0.000172795 -0.000170201 -0.000168162 -0.000166677 -0.000165746 -0.00016537 -0.000165548 -0.00016628 -0.000167567 -0.000169684 -0.000172907 -0.000177236 -0.00018267 -0.000189211 -0.000196857 -0.000205609 -0.000215467 -0.000225906 -0.000236402 -0.000246955 -0.000257564 -0.00026823 -0.000278952 -0.000289731 -0.000300567 -0.000310742 -0.000319541 -0.000326963 -0.000333007 -0.000337675 -0.000340966 -0.00034288 -0.000343417 -0.000342583 -0.000340384 -0.000336819 -0.000331889 -0.000325594 -0.000317934 -0.000308908 -0.000298517 -0.000287479 -0.000276515 -0.000265623 -0.000254804 -0.000244058 -0.000233384 -0.000222784 -0.000212256 -0.000202317 -0.000193481 -0.000185748 -0.00017912 -0.000173595 -0.000169173 -0.000165856 -0.000163642 -0.000162254 -0.000161414 -0.000161124 -0.000161382 -0.00016219 -0.000163545 -0.00016545 -0.000167903 -0.000170277 -0.000171943 -0.0001729 -0.00017315 -0.000172691 -0.000171525 -0.00016965 -0.000167067 -0.000163643 -0.000159244 -0.00015387 -0.000147522 -0.000140199 -0.000131902 -0.000122629 -0.000112382 -0.000101777 -9.14273e-05 -8.13348e-05 -7.1499e-05 -6.19199e-05 -5.25975e-05 -4.35318e-05 -3.47227e-05 -2.65846e-05 -1.95315e-05 -1.35636e-05 -8.68069e-06 -4.88289e-06 -2.17017e-06 -5.42543e-07 0 0 -1.26568e-06 -5.06272e-06 -1.13911e-05 -2.02509e-05 -3.1642e-05 -4.55645e-05 -6.20183e-05 -8.10035e-05 -0.000101545 -0.000122668 -0.000144372 -0.000166657 -0.000189523 -0.000212971 -0.000237 -0.00026161 -0.000285371 -0.000306855 -0.000326061 -0.000342989 -0.000357638 -0.00037001 -0.000380104 -0.00038792 -0.000393776 -0.00039799 -0.000400562 -0.000401492 -0.000400779 -0.000398425 -0.000394428 -0.000388789 -0.000382953 -0.000378364 -0.000375023 -0.000372929 -0.000372082 -0.000372483 -0.000374131 -0.000377026 -0.000381789 -0.000389041 -0.00039878 -0.000411008 -0.000425724 -0.000442928 -0.000462621 -0.000484801 -0.000508289 -0.000531905 -0.000555648 -0.000579519 -0.000603517 -0.000627642 -0.000651895 -0.000676275 -0.00069917 -0.000718967 -0.000735666 -0.000749267 -0.000759769 -0.000767174 -0.00077148 -0.000772689 -0.000770812 -0.000765864 -0.000757844 -0.000746751 -0.000732587 -0.000715351 -0.000695043 -0.000671662 -0.000646828 -0.000622158 -0.000597651 -0.000573309 -0.00054913 -0.000525115 -0.000501264 -0.000477576 -0.000455212 -0.000435332 -0.000417934 -0.00040302 -0.000390588 -0.00038064 -0.000373175 -0.000368194 -0.000365071 -0.000363183 -0.000362529 -0.00036311 -0.000364927 -0.000367977 -0.000372263 -0.000377783 -0.000383124 -0.000386871 -0.000389026 -0.000389587 -0.000388555 -0.00038593 -0.000381712 -0.000375901 -0.000368196 -0.000358299 -0.000346208 -0.000331924 -0.000315448 -0.000296778 -0.000275916 -0.00025286 -0.000228997 -0.000205711 -0.000183003 -0.000160873 -0.00013932 -0.000118344 -9.79465e-05 -7.81262e-05 -5.98154e-05 -4.3946e-05 -3.0518e-05 -1.95315e-05 -1.09865e-05 -4.88289e-06 -1.22072e-06 0 0 -2.2501e-06 -9.00039e-06 -2.02509e-05 -3.60016e-05 -5.62524e-05 -8.10035e-05 -0.000110255 -0.000144006 -0.000180524 -0.000218076 -0.000256661 -0.000296279 -0.00033693 -0.000378615 -0.000421333 -0.000465084 -0.000507327 -0.00054552 -0.000579664 -0.000609757 -0.000635802 -0.000657796 -0.000675741 -0.000689636 -0.000700047 -0.000707538 -0.000712111 -0.000713763 -0.000712497 -0.000708311 -0.000701206 -0.000691181 -0.000680805 -0.000672648 -0.000666707 -0.000662984 -0.000661479 -0.000662191 -0.000665121 -0.000670269 -0.000678737 -0.000691628 -0.000708943 -0.000730681 -0.000756843 -0.000787428 -0.000822437 -0.000861869 -0.000903626 -0.000945609 -0.000987819 -0.00103026 -0.00107292 -0.00111581 -0.00115892 -0.00120227 -0.00124297 -0.00127816 -0.00130785 -0.00133203 -0.0013507 -0.00136386 -0.00137152 -0.00137367 -0.00137033 -0.00136154 -0.00134728 -0.00132756 -0.00130238 -0.00127173 -0.00123563 -0.00119407 -0.00114992 -0.00110606 -0.00106249 -0.00101922 -0.000976231 -0.000933537 -0.000891135 -0.000849024 -0.000809266 -0.000773923 -0.000742994 -0.000716479 -0.000694379 -0.000676694 -0.000663423 -0.000654566 -0.000649015 -0.000645658 -0.000644496 -0.00064553 -0.000648758 -0.000654182 -0.0006618 -0.000671614 -0.000681109 -0.000687771 -0.000691602 -0.0006926 -0.000690765 -0.000686098 -0.000678599 -0.000668268 -0.000654571 -0.000636975 -0.000615481 -0.000590088 -0.000560796 -0.000527606 -0.000490517 -0.00044953 -0.000407106 -0.000365709 -0.000325339 -0.000285996 -0.00024768 -0.00021039 -0.000174127 -0.000138891 -0.000106338 -7.81262e-05 -5.42543e-05 -3.47227e-05 -1.95315e-05 -8.68069e-06 -2.17017e-06 0 0 -3.51578e-06 -1.40631e-05 -3.1642e-05 -5.62524e-05 -8.78944e-05 -0.000126568 -0.000172273 -0.00022501 -0.000282069 -0.000340744 -0.000401032 -0.000462935 -0.000526453 -0.000591585 -0.000658332 -0.000726693 -0.000792698 -0.000852375 -0.000905724 -0.000952746 -0.00099344 -0.00102781 -0.00105585 -0.00107756 -0.00109382 -0.00110553 -0.00111267 -0.00111526 -0.00111328 -0.00110674 -0.00109563 -0.00107997 -0.00106376 -0.00105101 -0.00104173 -0.00103591 -0.00103356 -0.00103467 -0.00103925 -0.00104729 -0.00106053 -0.00108067 -0.00110772 -0.00114169 -0.00118257 -0.00123036 -0.00128506 -0.00134667 -0.00141192 -0.00147751 -0.00154347 -0.00160977 -0.00167644 -0.00174345 -0.00181082 -0.00187854 -0.00194214 -0.00199713 -0.00204352 -0.0020813 -0.00211047 -0.00213104 -0.002143 -0.00214636 -0.00214115 -0.0021274 -0.00210512 -0.00207431 -0.00203496 -0.00198709 -0.00193067 -0.00186573 -0.00179675 -0.00172822 -0.00166014 -0.00159252 -0.00152536 -0.00145865 -0.0013924 -0.0013266 -0.00126448 -0.00120925 -0.00116093 -0.0011195 -0.00108497 -0.00105733 -0.0010366 -0.00102276 -0.00101409 -0.00100884 -0.00100703 -0.00100864 -0.00101368 -0.00102216 -0.00103406 -0.0010494 -0.00106423 -0.00107464 -0.00108063 -0.00108219 -0.00107932 -0.00107203 -0.00106031 -0.00104417 -0.00102277 -0.000995274 -0.000961689 -0.000922012 -0.000876244 -0.000824384 -0.000766433 -0.00070239 -0.000636103 -0.000571421 -0.000508343 -0.000446869 -0.000386999 -0.000328734 -0.000272074 -0.000217017 -0.000166154 -0.000122072 -8.47723e-05 -5.42543e-05 -3.0518e-05 -1.35636e-05 -3.39089e-06 0 0 -5.06272e-06 -2.02509e-05 -4.55645e-05 -8.10035e-05 -0.000126568 -0.000182258 -0.000248073 -0.000324014 -0.00040618 -0.000490671 -0.000577486 -0.000666627 -0.000758093 -0.000851883 -0.000947998 -0.00104644 -0.00114148 -0.00122742 -0.00130424 -0.00137195 -0.00143055 -0.00148004 -0.00152042 -0.00155168 -0.00157511 -0.00159196 -0.00160225 -0.00160597 -0.00160312 -0.0015937 -0.00157771 -0.00155516 -0.00153181 -0.00151346 -0.00150009 -0.00149171 -0.00148833 -0.00148993 -0.00149652 -0.0015081 -0.00152716 -0.00155616 -0.00159512 -0.00164403 -0.0017029 -0.00177171 -0.00185048 -0.0019392 -0.00203316 -0.00212762 -0.00222259 -0.00231808 -0.00241407 -0.00251057 -0.00260758 -0.0027051 -0.00279668 -0.00287587 -0.00294266 -0.00299707 -0.00303908 -0.0030687 -0.00308592 -0.00309076 -0.00308325 -0.00306346 -0.00303137 -0.002987 -0.00293035 -0.0028614 -0.00278017 -0.00268665 -0.00258731 -0.00248863 -0.00239061 -0.00229323 -0.00219652 -0.00210046 -0.00200505 -0.0019103 -0.00182085 -0.00174133 -0.00167174 -0.00161208 -0.00156235 -0.00152256 -0.0014927 -0.00147277 -0.00146028 -0.00145273 -0.00145012 -0.00145244 -0.00145971 -0.00147191 -0.00148905 -0.00151113 -0.00153249 -0.00154749 -0.0015561 -0.00155835 -0.00155422 -0.00154372 -0.00152685 -0.0015036 -0.00147278 -0.00143319 -0.00138483 -0.0013277 -0.00126179 -0.00118711 -0.00110366 -0.00101144 -0.000915989 -0.000822846 -0.000732013 -0.000643491 -0.000557279 -0.000473378 -0.000391786 -0.000312505 -0.000239261 -0.000175784 -0.000122072 -7.81262e-05 -4.3946e-05 -1.95315e-05 -4.88289e-06 0 0 -6.89092e-06 -2.75637e-05 -6.20183e-05 -0.000110255 -0.000172273 -0.000248073 -0.000337655 -0.000441019 -0.000552856 -0.000667857 -0.000786023 -0.000907353 -0.00103185 -0.00115951 -0.00129033 -0.00142432 -0.00155369 -0.00167065 -0.00177522 -0.00186738 -0.00194714 -0.0020145 -0.00206946 -0.00211201 -0.00214389 -0.00216684 -0.00218084 -0.0021859 -0.00218202 -0.0021692 -0.00214744 -0.00211674 -0.00208497 -0.00205998 -0.00204179 -0.00203039 -0.00202578 -0.00202796 -0.00203693 -0.0020527 -0.00207863 -0.00211811 -0.00217114 -0.00223771 -0.00231783 -0.0024115 -0.00251871 -0.00263947 -0.00276735 -0.00289593 -0.0030252 -0.00315516 -0.00328581 -0.00341716 -0.00354921 -0.00368194 -0.00380659 -0.00391438 -0.00400529 -0.00407934 -0.00413652 -0.00417684 -0.00420028 -0.00420686 -0.00419665 -0.0041697 -0.00412604 -0.00406565 -0.00398853 -0.00389469 -0.00378412 -0.00365683 -0.00352162 -0.0033873 -0.00325388 -0.00312135 -0.00298971 -0.00285896 -0.0027291 -0.00260014 -0.00247838 -0.00237014 -0.00227542 -0.00219422 -0.00212654 -0.00207237 -0.00203173 -0.00200461 -0.00198761 -0.00197733 -0.00197377 -0.00197693 -0.00198682 -0.00200343 -0.00202676 -0.00205682 -0.0020859 -0.0021063 -0.00211803 -0.00212109 -0.00211547 -0.00210118 -0.00207821 -0.00204657 -0.00200462 -0.00195074 -0.00188491 -0.00180714 -0.00171744 -0.00161579 -0.00150221 -0.00137668 -0.00124676 -0.00111998 -0.000996352 -0.000875863 -0.000758519 -0.000644319 -0.000533264 -0.000425354 -0.000325661 -0.000239261 -0.000166154 -0.000106338 -5.98154e-05 -2.65846e-05 -6.64615e-06 0 0 -9.00039e-06 -3.60016e-05 -8.10035e-05 -0.000144006 -0.00022501 -0.000324014 -0.000441019 -0.000576025 -0.000722098 -0.000872304 -0.00102664 -0.00118511 -0.00134772 -0.00151446 -0.00168533 -0.00186033 -0.00202931 -0.00218208 -0.00231865 -0.00243903 -0.00254321 -0.00263119 -0.00270296 -0.00275855 -0.00280019 -0.00283015 -0.00284844 -0.00285505 -0.00284999 -0.00283324 -0.00280482 -0.00276472 -0.00272322 -0.00269059 -0.00266683 -0.00265194 -0.00264592 -0.00264877 -0.00266049 -0.00268107 -0.00271495 -0.00276651 -0.00283577 -0.00292272 -0.00302737 -0.00314971 -0.00328975 -0.00344747 -0.0036145 -0.00378244 -0.00395128 -0.00412102 -0.00429168 -0.00446323 -0.0046357 -0.00480907 -0.00497188 -0.00511266 -0.0052314 -0.00532812 -0.0054028 -0.00545546 -0.00548608 -0.00549468 -0.00548133 -0.00544614 -0.00538911 -0.00531023 -0.00520951 -0.00508694 -0.00494252 -0.00477627 -0.00459967 -0.00442423 -0.00424997 -0.00407686 -0.00390492 -0.00373415 -0.00356454 -0.0033961 -0.00323707 -0.00309569 -0.00297197 -0.00286592 -0.00277752 -0.00270677 -0.00265369 -0.00261827 -0.00259606 -0.00258263 -0.00257799 -0.00258212 -0.00259503 -0.00261673 -0.0026472 -0.00268646 -0.00272444 -0.00275109 -0.00276641 -0.0027704 -0.00276306 -0.00274439 -0.0027144 -0.00267307 -0.00261828 -0.0025479 -0.00246192 -0.00236035 -0.00224319 -0.00211042 -0.00196207 -0.00179812 -0.00162842 -0.00146284 -0.00130136 -0.00114398 -0.000990719 -0.00084156 -0.000696508 -0.000555564 -0.000425354 -0.000312505 -0.000217017 -0.000138891 -7.81262e-05 -3.47227e-05 -8.68069e-06 0 0 -1.13146e-05 -4.52584e-05 -0.000101831 -0.000181034 -0.000282865 -0.000407326 -0.000554415 -0.000724134 -0.000907603 -0.00109594 -0.00128915 -0.00148723 -0.00169019 -0.00189801 -0.0021107 -0.00232827 -0.00253792 -0.00272686 -0.00289511 -0.00304266 -0.0031695 -0.00327565 -0.00336109 -0.00342583 -0.00347289 -0.00350529 -0.00352302 -0.00352609 -0.0035145 -0.00348824 -0.00344732 -0.00339174 -0.00333462 -0.00328908 -0.00325513 -0.00323276 -0.00322198 -0.00322278 -0.00323517 -0.00325914 -0.00330027 -0.00336413 -0.00345072 -0.00356004 -0.00369209 -0.00384686 -0.00402437 -0.00422461 -0.00443682 -0.00465026 -0.00486492 -0.00508081 -0.00529793 -0.00551627 -0.00573583 -0.00595662 -0.006164 -0.00634333 -0.00649462 -0.00661786 -0.00671306 -0.0067802 -0.0068193 -0.00683036 -0.00681349 -0.0067688 -0.00669629 -0.00659598 -0.00646785 -0.00631191 -0.00612815 -0.00591658 -0.00569187 -0.00546871 -0.0052471 -0.00502703 -0.00480851 -0.00459153 -0.00437609 -0.00416221 -0.00396043 -0.00378132 -0.00362489 -0.00349112 -0.00338003 -0.00329162 -0.00322587 -0.0031828 -0.00315679 -0.00314225 -0.00313916 -0.00314753 -0.00316735 -0.00319864 -0.00324139 -0.00329559 -0.00334841 -0.00338699 -0.00341135 -0.00342148 -0.00341737 -0.00339904 -0.00336647 -0.00331968 -0.0032558 -0.00317198 -0.00306824 -0.00294455 -0.00280093 -0.00263738 -0.00245389 -0.00225046 -0.0020395 -0.00183338 -0.0016321 -0.00143568 -0.0012441 -0.00105737 -0.000875485 -0.000698449 -0.00053475 -0.000392878 -0.000272832 -0.000174612 -9.82194e-05 -4.36531e-05 -1.09133e-05 0 0 -1.3757e-05 -5.50282e-05 -0.000123813 -0.000220113 -0.000343926 -0.000495254 -0.000674095 -0.000880451 -0.00110307 -0.00133071 -0.00156337 -0.00180104 -0.00204373 -0.00229143 -0.00254416 -0.0028019 -0.00304909 -0.00327018 -0.00346515 -0.00363402 -0.00377679 -0.00389344 -0.00398398 -0.00404842 -0.00409091 -0.00411562 -0.00412254 -0.00411169 -0.00408305 -0.00403662 -0.00397242 -0.00389043 -0.00380719 -0.00373925 -0.00368661 -0.00364926 -0.0036272 -0.00362044 -0.00362897 -0.0036528 -0.00369877 -0.00377373 -0.00387768 -0.00401061 -0.00417254 -0.00436346 -0.00458337 -0.00483227 -0.00509653 -0.00536251 -0.00563023 -0.00589967 -0.00617085 -0.00644375 -0.00671839 -0.00699475 -0.00725444 -0.00747905 -0.00766858 -0.00782303 -0.00794241 -0.00802671 -0.00807593 -0.00809007 -0.00806927 -0.00801368 -0.00792329 -0.0077981 -0.00763812 -0.00744334 -0.00721376 -0.00694938 -0.00666865 -0.00639003 -0.00611351 -0.0058391 -0.00556679 -0.00529658 -0.00502848 -0.00476248 -0.00451198 -0.00429036 -0.00409763 -0.00393378 -0.00379883 -0.00369276 -0.00361557 -0.00356727 -0.00354097 -0.00352977 -0.00353368 -0.00355269 -0.0035868 -0.00363602 -0.00370034 -0.00377976 -0.00385811 -0.00391918 -0.00396298 -0.00398952 -0.00399878 -0.00399078 -0.0039655 -0.00392296 -0.0038592 -0.00377028 -0.00365621 -0.00351697 -0.00335258 -0.00316303 -0.00294832 -0.00270845 -0.0024585 -0.00221358 -0.00197366 -0.00173876 -0.00150888 -0.00128401 -0.00106416 -0.000849323 -0.000650263 -0.000477744 -0.000331767 -0.000212331 -0.000119436 -5.30827e-05 -1.32707e-05 0 0 -1.63277e-05 -6.53109e-05 -0.00014695 -0.000261244 -0.000408193 -0.000587798 -0.000800059 -0.00104497 -0.0013085 -0.00157661 -0.00184928 -0.00212652 -0.00240834 -0.00269473 -0.00298569 -0.00328122 -0.00356283 -0.00381202 -0.00402878 -0.00421313 -0.00436506 -0.00448456 -0.00457164 -0.00462631 -0.00465424 -0.00466114 -0.004647 -0.00461183 -0.00455562 -0.00447838 -0.0043801 -0.00426078 -0.00414095 -0.00404111 -0.00396127 -0.00390143 -0.00386159 -0.00384175 -0.0038419 -0.00386205 -0.00391044 -0.0039953 -0.00411664 -0.00427446 -0.00446874 -0.00469951 -0.00496674 -0.00527046 -0.00559362 -0.00591919 -0.00624719 -0.0065776 -0.00691044 -0.00724569 -0.00758336 -0.00792345 -0.00824318 -0.00851979 -0.00875327 -0.00894363 -0.00909086 -0.00919497 -0.00925595 -0.00927381 -0.0092487 -0.0091808 -0.0090701 -0.00891661 -0.00872032 -0.00848123 -0.00819935 -0.00787467 -0.00753001 -0.00718819 -0.00684921 -0.00651308 -0.00617978 -0.00584932 -0.0055217 -0.00519692 -0.00489172 -0.00462281 -0.0043902 -0.0041939 -0.00403389 -0.00391019 -0.00382279 -0.00377168 -0.00374859 -0.00374521 -0.00376155 -0.0037976 -0.00385337 -0.00392886 -0.00402406 -0.00413898 -0.00425353 -0.00434764 -0.0044213 -0.00447451 -0.00450728 -0.00451961 -0.00451148 -0.00448292 -0.00442849 -0.0043428 -0.00422584 -0.00407762 -0.00389813 -0.00368737 -0.00344535 -0.00317206 -0.00288544 -0.00260343 -0.00232604 -0.00205325 -0.00178507 -0.0015215 -0.00126254 -0.00100818 -0.000771891 -0.000567104 -0.000393822 -0.000252046 -0.000141776 -6.30115e-05 -1.57529e-05 0 0 -1.90266e-05 -7.61066e-05 -0.00017124 -0.000304426 -0.000475666 -0.000684959 -0.000932305 -0.0012177 -0.0015239 -0.00183363 -0.00214689 -0.00246369 -0.00278403 -0.0031079 -0.0034353 -0.00376625 -0.00407914 -0.00435239 -0.004586 -0.00477998 -0.00493431 -0.00504901 -0.00512407 -0.0051595 -0.00516289 -0.00514186 -0.00509641 -0.00502653 -0.00493223 -0.00481351 -0.00467037 -0.00450281 -0.00433588 -0.00419465 -0.00407912 -0.00398928 -0.00392514 -0.0038867 -0.00387395 -0.0038869 -0.00393529 -0.00402886 -0.00416762 -0.00435156 -0.00458069 -0.004855 -0.00517449 -0.00553917 -0.00592809 -0.0063203 -0.00671581 -0.0071146 -0.00751669 -0.00792207 -0.00833075 -0.00874271 -0.00913023 -0.00946556 -0.0097487 -0.00997966 -0.0101584 -0.010285 -0.0103594 -0.0103816 -0.0103518 -0.0102702 -0.0101367 -0.00995149 -0.00971445 -0.00942559 -0.00908492 -0.00869245 -0.00827594 -0.00786319 -0.0074542 -0.00704895 -0.00664747 -0.00624974 -0.00585576 -0.00546553 -0.00509965 -0.00477867 -0.00450261 -0.00427147 -0.00408524 -0.00394392 -0.00384752 -0.00379603 -0.00377965 -0.00378856 -0.00382277 -0.00388227 -0.00396707 -0.00407716 -0.00421255 -0.00437323 -0.00453468 -0.00467237 -0.0047863 -0.00487647 -0.00494288 -0.00498553 -0.00500442 -0.00499955 -0.00496367 -0.00488954 -0.00477714 -0.00462649 -0.00443758 -0.00421042 -0.00394499 -0.00364131 -0.00332032 -0.00300295 -0.00268922 -0.00237912 -0.00207265 -0.00176982 -0.00147061 -0.00117504 -0.000899636 -0.000660957 -0.000458998 -0.000293759 -0.000165239 -7.34397e-05 -1.83599e-05 0 0 -2.18538e-05 -8.74151e-05 -0.000196684 -0.000349661 -0.000546345 -0.000786736 -0.00107084 -0.00139864 -0.00174926 -0.00210178 -0.00245621 -0.00281254 -0.00317079 -0.00353094 -0.003893 -0.00425697 -0.00459801 -0.00489129 -0.0051368 -0.00533456 -0.00548456 -0.00558679 -0.00564127 -0.00564798 -0.00561685 -0.00555777 -0.00547075 -0.00535578 -0.00521288 -0.00504203 -0.00484324 -0.00461651 -0.004392 -0.00419988 -0.00404015 -0.00391281 -0.00381786 -0.00375529 -0.00372512 -0.00372734 -0.00377331 -0.0038744 -0.0040306 -0.00424193 -0.00450837 -0.00482994 -0.00520662 -0.00563842 -0.00609995 -0.00656584 -0.00703608 -0.00751067 -0.00798961 -0.00847291 -0.00896056 -0.00945256 -0.0099156 -0.0103164 -0.0106549 -0.0109311 -0.0111451 -0.0112968 -0.0113862 -0.0114134 -0.0113785 -0.0112817 -0.0111232 -0.0109028 -0.0106205 -0.0102764 -0.00987048 -0.00940272 -0.00890645 -0.00841503 -0.00792846 -0.00744674 -0.00696986 -0.00649783 -0.00603065 -0.00556831 -0.00513577 -0.00475795 -0.00443485 -0.00416649 -0.00395286 -0.00379395 -0.00368977 -0.00364032 -0.00363415 -0.00365982 -0.00371734 -0.00380669 -0.00392789 -0.00408093 -0.0042658 -0.00448252 -0.00470155 -0.00489338 -0.00505798 -0.00519538 -0.00530557 -0.00538854 -0.00544431 -0.00547286 -0.00546474 -0.00541049 -0.0053101 -0.00516358 -0.00497094 -0.00473215 -0.00444724 -0.0041162 -0.00376312 -0.00341213 -0.00306322 -0.00271639 -0.00237164 -0.00202897 -0.00168838 -0.00134987 -0.0010335 -0.000759304 -0.000527295 -0.000337468 -0.000189826 -8.43671e-05 -2.10918e-05 0 0 -2.48092e-05 -9.92366e-05 -0.000223282 -0.000396947 -0.000620229 -0.00089313 -0.00121565 -0.00158779 -0.00198458 -0.00238106 -0.00277722 -0.00317308 -0.00356862 -0.00396385 -0.00435877 -0.00475338 -0.00511944 -0.00542871 -0.00568119 -0.00587689 -0.00601579 -0.00609791 -0.00612323 -0.00609177 -0.00601612 -0.00590887 -0.00577003 -0.00559959 -0.00539755 -0.00516392 -0.0048987 -0.00460188 -0.00430929 -0.00405679 -0.00384436 -0.00367201 -0.00353974 -0.00344754 -0.00339542 -0.00338337 -0.0034245 -0.00353191 -0.0037056 -0.00394556 -0.0042518 -0.00462432 -0.00506312 -0.00556819 -0.0061092 -0.00665581 -0.00720801 -0.00776581 -0.0083292 -0.0088982 -0.00947278 -0.010053 -0.0105993 -0.0110722 -0.0114718 -0.011798 -0.0120508 -0.0122303 -0.0123364 -0.0123692 -0.0123288 -0.0122156 -0.0120294 -0.0117704 -0.0114385 -0.0110337 -0.010556 -0.0100055 -0.00942153 -0.00884371 -0.00827201 -0.00770642 -0.00714696 -0.00659361 -0.00604637 -0.00550526 -0.00500007 -0.00456063 -0.00418693 -0.00387897 -0.00363675 -0.00346027 -0.00334954 -0.00330454 -0.00331209 -0.003359 -0.00344526 -0.00357087 -0.00373584 -0.00394016 -0.00418383 -0.00446685 -0.00475416 -0.00501066 -0.00523636 -0.00543126 -0.00559535 -0.00572865 -0.00583115 -0.00590284 -0.00593169 -0.00590565 -0.00582472 -0.0056889 -0.00549819 -0.00525259 -0.0049521 -0.00459671 -0.00421386 -0.00383097 -0.00344803 -0.00306505 -0.00268203 -0.00229897 -0.00191585 -0.0015327 -0.00117347 -0.000862144 -0.000598711 -0.000383175 -0.000215536 -9.57938e-05 -2.39485e-05 0 0 -2.78928e-05 -0.000111571 -0.000251035 -0.000446284 -0.000697319 -0.00100414 -0.00136675 -0.00178514 -0.00222986 -0.00267146 -0.00310994 -0.0035453 -0.00397753 -0.00440664 -0.00483263 -0.0052555 -0.00564344 -0.00596467 -0.00621917 -0.00640695 -0.00652801 -0.00658235 -0.00656997 -0.00649086 -0.00636071 -0.00619517 -0.00599425 -0.00575795 -0.00548626 -0.00517919 -0.00483674 -0.00445891 -0.00408777 -0.00376538 -0.00349176 -0.00326689 -0.00309078 -0.00296343 -0.00288483 -0.002855 -0.00288887 -0.00300141 -0.0031926 -0.00346246 -0.00381098 -0.00423815 -0.00474399 -0.00532849 -0.00595583 -0.0065902 -0.0072316 -0.00788002 -0.00853546 -0.00919793 -0.00986743 -0.010544 -0.0111813 -0.0117331 -0.0121994 -0.0125803 -0.0128757 -0.0130856 -0.0132101 -0.013249 -0.0132028 -0.0130716 -0.0128555 -0.0125544 -0.0121684 -0.0116975 -0.0111416 -0.0105007 -0.00982119 -0.00914923 -0.00848484 -0.00782801 -0.00717875 -0.00653706 -0.00590293 -0.00527637 -0.00469257 -0.00418673 -0.00375884 -0.0034089 -0.00313692 -0.00294289 -0.00282682 -0.0027887 -0.00281348 -0.00288609 -0.00300653 -0.0031748 -0.00339091 -0.00365485 -0.00396662 -0.00432623 -0.00469248 -0.00502421 -0.00532141 -0.00558409 -0.00581223 -0.00600585 -0.00616494 -0.0062895 -0.00636454 -0.00637504 -0.00632101 -0.00620244 -0.00601935 -0.00577172 -0.00545956 -0.00508287 -0.00467254 -0.00425947 -0.00384366 -0.00342511 -0.00300382 -0.0025798 -0.00215303 -0.00172352 -0.00131957 -0.000969478 -0.000673249 -0.000430879 -0.00024237 -0.00010772 -2.693e-05 0 0 -3.11046e-05 -0.000124418 -0.000279942 -0.000497674 -0.000777615 -0.00111977 -0.00152413 -0.0019907 -0.00248511 -0.00297299 -0.00345436 -0.0039292 -0.00439751 -0.0048593 -0.00531457 -0.00576331 -0.00617001 -0.00649915 -0.00675073 -0.00692475 -0.00702122 -0.00704012 -0.00698147 -0.00684525 -0.00665061 -0.00641666 -0.00614341 -0.00583086 -0.005479 -0.00508784 -0.00465738 -0.00418762 -0.00372742 -0.00332566 -0.00298234 -0.00269744 -0.00247098 -0.00230296 -0.00219337 -0.00214222 -0.00216641 -0.00228288 -0.00249162 -0.00279262 -0.00318589 -0.00367143 -0.00424924 -0.00491932 -0.00563985 -0.00636903 -0.00710684 -0.00785329 -0.00860839 -0.00937212 -0.0101445 -0.0109255 -0.0116615 -0.012299 -0.0128378 -0.013278 -0.0136197 -0.0138627 -0.0140071 -0.0140529 -0.0140004 -0.0138499 -0.0136014 -0.0132548 -0.0128102 -0.0122677 -0.0116271 -0.0108885 -0.0101054 -0.0093316 -0.00856696 -0.00781151 -0.00706525 -0.00632819 -0.00560033 -0.00488165 -0.00421326 -0.00363623 -0.00315058 -0.00275629 -0.00245336 -0.00224181 -0.00212162 -0.0020928 -0.0021383 -0.00224109 -0.00240115 -0.00261849 -0.00289311 -0.00322501 -0.00361418 -0.00406064 -0.00451654 -0.00493404 -0.00531316 -0.00565388 -0.00595621 -0.00622015 -0.00644569 -0.00663284 -0.00676327 -0.00681864 -0.00679895 -0.00670421 -0.0065344 -0.00628954 -0.00596963 -0.00557465 -0.00513915 -0.00469763 -0.0042501 -0.00379656 -0.00333702 -0.00287146 -0.0023999 -0.00192232 -0.00147178 -0.00108131 -0.000750907 -0.00048058 -0.000270326 -0.000120145 -3.00363e-05 0 0 -3.4262e-05 -0.000137048 -0.000308358 -0.000548192 -0.00085655 -0.00123343 -0.00167884 -0.00219277 -0.00273556 -0.00326755 -0.00378874 -0.00429913 -0.00479871 -0.0052875 -0.00576548 -0.00623266 -0.00664975 -0.00697744 -0.00721574 -0.00736466 -0.00742418 -0.00739432 -0.00727506 -0.00706641 -0.00679146 -0.00647328 -0.00611189 -0.00570727 -0.00525943 -0.00476837 -0.00423409 -0.00365659 -0.00309217 -0.00259713 -0.00217148 -0.00181522 -0.00152834 -0.00131085 -0.00116274 -0.00108402 -0.00109367 -0.00121067 -0.00143503 -0.00176674 -0.0022058 -0.00275223 -0.003406 -0.00416713 -0.00498721 -0.00581784 -0.00665901 -0.00751073 -0.00837299 -0.0092458 -0.0101292 -0.0110231 -0.0118658 -0.0125959 -0.0132131 -0.0137176 -0.0141093 -0.0143882 -0.0145544 -0.0146078 -0.0145488 -0.0143776 -0.0140943 -0.0136988 -0.0131912 -0.0125715 -0.0118397 -0.0109957 -0.0101012 -0.00921785 -0.00834555 -0.00748435 -0.00663424 -0.00579523 -0.00496732 -0.0041505 -0.00339234 -0.0027404 -0.00219469 -0.0017552 -0.00142193 -0.00119488 -0.00107405 -0.00105945 -0.00113194 -0.00127238 -0.00148079 -0.00175715 -0.00210148 -0.00251376 -0.002994 -0.0035422 -0.00410325 -0.00462202 -0.00509853 -0.00553277 -0.00592474 -0.00627444 -0.00658187 -0.00684703 -0.00704778 -0.00716197 -0.0071896 -0.00713068 -0.0069852 -0.00675316 -0.00643457 -0.00602942 -0.00557592 -0.0051123 -0.00463855 -0.00415467 -0.00366066 -0.00315652 -0.00264225 -0.00211785 -0.00162148 -0.00119129 -0.000827285 -0.000529462 -0.000297823 -0.000132366 -3.30914e-05 0 0 -3.71823e-05 -0.000148729 -0.00033464 -0.000594916 -0.000929556 -0.00133856 -0.00182193 -0.00237966 -0.00296646 -0.00353702 -0.00409134 -0.00462943 -0.00515128 -0.00565689 -0.00614626 -0.00661939 -0.00703326 -0.00734482 -0.00755407 -0.00766103 -0.00766568 -0.00756803 -0.00736807 -0.00706581 -0.0066889 -0.00626498 -0.00579406 -0.00527614 -0.00471121 -0.00409928 -0.00344034 -0.00273441 -0.00204591 -0.00143931 -0.000914593 -0.00047177 -0.000110838 0.000168203 0.000365354 0.000480613 0.000492842 0.000380898 0.000144782 -0.000215507 -0.000699968 -0.0013086 -0.00204141 -0.00289838 -0.00382387 -0.0047622 -0.00571338 -0.00667741 -0.00765428 -0.008644 -0.00964657 -0.010662 -0.0116198 -0.0124497 -0.0131515 -0.0137253 -0.0141712 -0.014489 -0.0146789 -0.0147407 -0.0146749 -0.0144818 -0.0141614 -0.0137137 -0.0131386 -0.0124363 -0.0116066 -0.0106496 -0.00963562 -0.00863503 -0.00764782 -0.00667397 -0.0057135 -0.0047664 -0.00383267 -0.00291231 -0.00206002 -0.00133049 -0.000723716 -0.000239705 0.000121547 0.000360038 0.00047577 0.000468741 0.000360263 0.000171644 -9.71162e-05 -0.000446017 -0.000875058 -0.00138424 -0.00197356 -0.00264303 -0.00332954 -0.00397003 -0.00456448 -0.0051129 -0.00561528 -0.00607163 -0.00648195 -0.00684624 -0.00713795 -0.00733054 -0.007424 -0.00741834 -0.00731356 -0.00710966 -0.00680664 -0.0064045 -0.0059451 -0.00547034 -0.00498019 -0.00447467 -0.00395378 -0.00341751 -0.00286586 -0.00229884 -0.00176005 -0.0012931 -0.000897984 -0.00057471 -0.000323274 -0.000143677 -3.59193e-05 0 0 -3.98654e-05 -0.000159462 -0.000358788 -0.000637846 -0.000996634 -0.00143515 -0.0019534 -0.00255138 -0.00317781 -0.00378141 -0.00436218 -0.00492011 -0.00545521 -0.00596747 -0.00645691 -0.00692351 -0.00732054 -0.00760128 -0.00776572 -0.00781386 -0.00774571 -0.00756125 -0.0072605 -0.00684345 -0.00634293 -0.00579175 -0.00518993 -0.00453746 -0.00383433 -0.00308056 -0.00227614 -0.00142107 -0.00058865 0.00014782 0.000788339 0.00133291 0.00178153 0.00213419 0.00239091 0.00255168 0.00259311 0.00249182 0.0022478 0.00186107 0.00133162 0.000659441 -0.000155456 -0.00111307 -0.00214982 -0.00320212 -0.00426996 -0.00535334 -0.00645226 -0.00756673 -0.00869674 -0.0098423 -0.0109235 -0.0118604 -0.012653 -0.0133013 -0.0138053 -0.0141651 -0.0143806 -0.0144517 -0.014379 -0.0141627 -0.0138028 -0.0132994 -0.0126524 -0.0118618 -0.0109277 -0.00985002 -0.00870858 -0.00758316 -0.00647376 -0.00538038 -0.00430302 -0.00324169 -0.00219637 -0.00116708 -0.000216294 0.000593515 0.00126234 0.00179019 0.00217706 0.00242294 0.00252785 0.00249177 0.00233829 0.00209099 0.00174987 0.00131492 0.000786145 0.000163549 -0.00055287 -0.00136311 -0.00219542 -0.00297805 -0.003711 -0.00439426 -0.00502784 -0.00561173 -0.00614595 -0.00663047 -0.00703378 -0.00732434 -0.00750215 -0.0075672 -0.0075195 -0.00735905 -0.00708585 -0.0066999 -0.00624669 -0.00577174 -0.00527503 -0.00475658 -0.00421638 -0.00365443 -0.00307073 -0.00246529 -0.00188749 -0.00138672 -0.000963003 -0.000616322 -0.000346681 -0.00015408 -3.85201e-05 0 0 -4.23114e-05 -0.000169245 -0.000380802 -0.000676982 -0.00105778 -0.00152321 -0.00207326 -0.00270793 -0.00336961 -0.00400072 -0.00460123 -0.00517116 -0.