<?xml version="1.0"?> 
<VTKFile type="StructuredGrid" version="0.1"> 
<StructuredGrid WholeExtent="0 128 0 128 0 0"> 
<Piece Extent="0 128 0 128 0 0"> 
<PointData>
<DataArray type="Float32" Name="u" format="ascii" NumberOfComponents="1"> 
0 0 0 0 0 0 0 0 0 0 0 0 0 0 0 0 0 0 0 0 0 0 0 0 0 0 0 0 0 0 0 0 0 0 0 0 0 0 0 0 0 0 0 0 0 0 0 0 0 0 0 0 0 0 0 0 0 0 0 0 0 0 0 0 0 0 0 0 0 0 0 0 0 0 0 0 0 0 0 0 0 0 0 0 0 0 0 0 0 0 0 0 0 0 0 0 0 0 0 0 0 0 0 0 0 0 0 0 0 0 0 0 0 0 0 0 0 0 0 0 0 0 0 0 0 0 0 0 0 0 5.3889e-08 2.15556e-07 4.85001e-07 8.62224e-07 1.34723e-06 1.94001e-06 2.64056e-06 3.4489e-06 4.20126e-06 4.73391e-06 5.04683e-06 5.14003e-06 5.01351e-06 4.66728e-06 4.10132e-06 3.31564e-06 2.26541e-06 9.05793e-07 -7.63204e-07 -2.74158e-06 -5.02935e-06 -7.62649e-06 -1.0533e-05 -1.37489e-05 -1.71191e-05 -2.04883e-05 -2.38567e-05 -2.72241e-05 -3.05907e-05 -3.39563e-05 -3.7321e-05 -4.06849e-05 -4.38837e-05 -4.67536e-05 -4.92944e-05 -5.15063e-05 -5.33891e-05 -5.49428e-05 -5.61676e-05 -5.70634e-05 -5.7628e-05 -5.78594e-05 -5.77575e-05 -5.73224e-05 -5.65541e-05 -5.54525e-05 -5.40177e-05 -5.22497e-05 -5.03e-05 -4.83205e-05 -4.6311e-05 -4.42716e-05 -4.22023e-05 -4.0103e-05 -3.79739e-05 -3.58148e-05 -3.37757e-05 -3.20066e-05 -3.05076e-05 -2.92785e-05 -2.83195e-05 -2.76305e-05 -2.72114e-05 -2.70624e-05 -2.71835e-05 -2.75746e-05 -2.8236e-05 -2.91674e-05 -3.0369e-05 -3.18407e-05 -3.35825e-05 -3.55945e-05 -3.77269e-05 -3.98302e-05 -4.19044e-05 -4.39495e-05 -4.59654e-05 -4.79521e-05 -4.99098e-05 -5.18382e-05 -5.35867e-05 -5.50043e-05 -5.6091e-05 -5.68467e-05 -5.72716e-05 -5.73656e-05 -5.71287e-05 -5.65609e-05 -5.56648e-05 -5.44432e-05 -5.28959e-05 -5.10231e-05 -4.88247e-05 -4.63007e-05 -4.34511e-05 -4.02759e-05 -3.69381e-05 -3.36008e-05 -3.02639e-05 -2.69273e-05 -2.35912e-05 -2.02556e-05 -1.69203e-05 -1.35855e-05 -1.04041e-05 -7.52924e-06 -4.96091e-06 -2.6991e-06 -7.43809e-07 9.04961e-07 2.24721e-06 3.28294e-06 4.05703e-06 4.61436e-06 4.95493e-06 5.07875e-06 4.9858e-06 4.6761e-06 4.14963e-06 3.40641e-06 2.60803e-06 1.91611e-06 1.33063e-06 8.51602e-07 4.79026e-07 2.12901e-07 5.32251e-08 0 0 2.15556e-07 8.62224e-07 1.94001e-06 3.4489e-06 5.3889e-06 7.76002e-06 1.05622e-05 1.37956e-05 1.6805e-05 1.89356e-05 2.01873e-05 2.05601e-05 2.00541e-05 1.86691e-05 1.64053e-05 1.32625e-05 9.06163e-06 3.62317e-06 -3.05282e-06 -1.09663e-05 -2.01174e-05 -3.0506e-05 -4.21321e-05 -5.49957e-05 -6.84763e-05 -8.19533e-05 -9.54267e-05 -0.000108896 -0.000122363 -0.000135825 -0.000149284 -0.000162739 -0.000175535 -0.000187014 -0.000197178 -0.000206025 -0.000213556 -0.000219771 -0.00022467 -0.000228253 -0.000230512 -0.000231437 -0.00023103 -0.00022929 -0.000226216 -0.00022181 -0.000216071 -0.000208999 -0.0002012 -0.000193282 -0.000185244 -0.000177086 -0.000168809 -0.000160412 -0.000151895 -0.000143259 -0.000135103 -0.000128027 -0.00012203 -0.000117114 -0.000113278 -0.000110522 -0.000108846 -0.00010825 -0.000108734 -0.000110299 -0.000112944 -0.00011667 -0.000121476 -0.000127363 -0.00013433 -0.000142378 -0.000150908 -0.000159321 -0.000167618 -0.000175798 -0.000183862 -0.000191809 -0.000199639 -0.000207353 -0.000214347 -0.000220017 -0.000224364 -0.000227387 -0.000229086 -0.000229462 -0.000228515 -0.000226243 -0.000222659 -0.000217773 -0.000211584 -0.000204092 -0.000195299 -0.000185203 -0.000173804 -0.000161104 -0.000147753 -0.000134403 -0.000121055 -0.000107709 -9.4365e-05 -8.10223e-05 -6.76812e-05 -5.43419e-05 -4.16164e-05 -3.0117e-05 -1.98436e-05 -1.07964e-05 -2.97524e-06 3.61984e-06 8.98884e-06 1.31318e-05 1.62281e-05 1.84574e-05 1.98197e-05 2.0315e-05 1.99432e-05 1.87044e-05 1.65985e-05 1.36256e-05 1.04321e-05 7.66442e-06 5.32251e-06 3.40641e-06 1.91611e-06 8.51602e-07 2.12901e-07 0 0 4.85001e-07 1.94001e-06 4.36501e-06 7.76002e-06 1.2125e-05 1.746e-05 2.37651e-05 3.10401e-05 3.78114e-05 4.26052e-05 4.54215e-05 4.62603e-05 4.51216e-05 4.20055e-05 3.69119e-05 2.98407e-05 2.03887e-05 8.15213e-06 -6.86884e-06 -2.46743e-05 -4.52641e-05 -6.86384e-05 -9.47972e-05 -0.00012374 -0.000154072 -0.000184395 -0.00021471 -0.000245017 -0.000275316 -0.000305607 -0.000335889 -0.000366164 -0.000394954 -0.000420782 -0.00044365 -0.000463556 -0.000480502 -0.000494486 -0.000505508 -0.00051357 -0.000518652 -0.000520734 -0.000519817 -0.000515902 -0.000508987 -0.000499073 -0.000486159 -0.000470247 -0.0004527 -0.000434884 -0.000416799 -0.000398444 -0.00037982 -0.000360927 -0.000341765 -0.000322333 -0.000303981 -0.00028806 -0.000274568 -0.000263507 -0.000254876 -0.000248674 -0.000244903 -0.000243562 -0.000244651 -0.000248172 -0.000254124 -0.000262507 -0.000273321 -0.000286566 -0.000302242 -0.00032035 -0.000339542 -0.000358472 -0.00037714 -0.000395545 -0.000413688 -0.000431569 -0.000449188 -0.000466544 -0.00048228 -0.000495039 -0.000504819 -0.000511621 -0.000515444 -0.00051629 -0.000514158 -0.000509048 -0.000500983 -0.000489988 -0.000476063 -0.000459208 -0.000439422 -0.000416706 -0.00039106 -0.000362483 -0.000332443 -0.000302407 -0.000272375 -0.000242346 -0.000212321 -0.0001823 -0.000152283 -0.000122269 -9.36369e-05 -6.77632e-05 -4.46482e-05 -2.42919e-05 -6.69428e-06 8.14465e-06 2.02249e-05 2.95465e-05 3.65133e-05 4.15293e-05 4.45944e-05 4.57087e-05 4.48722e-05 4.20849e-05 3.73467e-05 3.06577e-05 2.34723e-05 1.72449e-05 1.19757e-05 7.66442e-06 4.31124e-06 1.91611e-06 4.79026e-07 0 0 8.62224e-07 3.4489e-06 7.76002e-06 1.37956e-05 2.15556e-05 3.10401e-05 4.2249e-05 5.51824e-05 6.72202e-05 7.57425e-05 8.07493e-05 8.22405e-05 8.02162e-05 7.46764e-05 6.56211e-05 5.30502e-05 3.62465e-05 1.44927e-05 -1.22113e-05 -4.38653e-05 -8.04695e-05 -0.000122024 -0.000168528 -0.000219983 -0.000273905 -0.000327813 -0.000381707 -0.000435586 -0.000489451 -0.000543301 -0.000597137 -0.000650958 -0.00070214 -0.000748058 -0.000788711 -0.0008241 -0.000854225 -0.000879085 -0.000898682 -0.000913014 -0.000922048 -0.00092575 -0.00092412 -0.000917158 -0.000904865 -0.00088724 -0.000864283 -0.000835994 -0.0008048 -0.000773128 -0.000740976 -0.000708346 -0.000675236 -0.000641648 -0.000607582 -0.000573036 -0.000540411 -0.000512106 -0.000488121 -0.000468457 -0.000453112 -0.000442088 -0.000435383 -0.000432999 -0.000434935 -0.000441194 -0.000451775 -0.000466678 -0.000485903 -0.000509451 -0.00053732 -0.000569511 -0.000603631 -0.000637284 -0.000670471 -0.000703192 -0.000735446 -0.000767234 -0.000798556 -0.000829412 -0.000857387 -0.000880069 -0.000897455 -0.000909548 -0.000916346 -0.000917849 -0.000914059 -0.000904974 -0.000890637 -0.00087109 -0.000846335 -0.000816369 -0.000781195 -0.000740811 -0.000695217 -0.000644414 -0.00059101 -0.000537613 -0.000484222 -0.000430837 -0.00037746 -0.000324089 -0.000270725 -0.000217367 -0.000166466 -0.000120468 -7.93746e-05 -4.31856e-05 -1.19009e-05 1.44794e-05 3.59554e-05 5.25271e-05 6.49125e-05 7.38298e-05 7.92789e-05 8.12599e-05 7.97728e-05 7.48175e-05 6.63941e-05 5.45025e-05 4.17285e-05 3.06577e-05 2.12901e-05 1.36256e-05 7.66442e-06 3.40641e-06 8.51602e-07 0 0 1.34723e-06 5.3889e-06 1.2125e-05 2.15556e-05 3.36806e-05 4.85001e-05 6.60141e-05 8.62224e-05 0.000105032 0.000118348 0.000126171 0.000128501 0.000125338 0.000116682 0.000102533 8.28909e-05 5.66352e-05 2.26448e-05 -1.90801e-05 -6.85396e-05 -0.000125734 -0.000190662 -0.000263325 -0.000343723 -0.000427977 -0.000512208 -0.000596417 -0.000680603 -0.000764766 -0.000848907 -0.000933026 -0.00101712 -0.00109709 -0.00116884 -0.00123236 -0.00128766 -0.00133473 -0.00137357 -0.00140419 -0.00142658 -0.0014407 -0.00144648 -0.00144394 -0.00143306 -0.00141385 -0.00138631 -0.00135044 -0.00130624 -0.0012575 -0.00120801 -0.00115777 -0.00110679 -0.00105506 -0.00100258 -0.000949346 -0.000895369 -0.000844392 -0.000800166 -0.00076269 -0.000731964 -0.000707988 -0.000690762 -0.000680286 -0.000676561 -0.000679587 -0.000689366 -0.000705899 -0.000729185 -0.000759224 -0.000796017 -0.000839562 -0.000889862 -0.000943173 -0.000995756 -0.00104761 -0.00109874 -0.00114913 -0.0011988 -0.00124774 -0.00129596 -0.00133967 -0.00137511 -0.00140227 -0.00142117 -0.00143179 -0.00143414 -0.00142822 -0.00141402 -0.00139162 -0.00136108 -0.0013224 -0.00127558 -0.00122062 -0.00115752 -0.00108628 -0.0010069 -0.000923453 -0.00084002 -0.000756596 -0.000673184 -0.000589781 -0.000506389 -0.000423008 -0.000339637 -0.000260102 -0.000188231 -0.000124023 -6.74775e-05 -1.85952e-05 2.2624e-05 5.61803e-05 8.20735e-05 0.000101426 0.000115359 0.000123873 0.000126969 0.000124645 0.000116902 0.000103741 8.51602e-05 6.52008e-05 4.79026e-05 3.32657e-05 2.12901e-05 1.19757e-05 5.32251e-06 1.33063e-06 0 0 1.94001e-06 7.76002e-06 1.746e-05 3.10401e-05 4.85001e-05 6.98402e-05 9.50602e-05 0.00012416 0.000151245 0.000170421 0.000181686 0.000185041 0.000180486 0.000168022 0.000147647 0.000119363 8.15546e-05 3.26085e-05 -2.74753e-05 -9.8697e-05 -0.000181056 -0.000274554 -0.000379189 -0.000494961 -0.000616287 -0.00073758 -0.00085884 -0.000980068 -0.00110126 -0.00122243 -0.00134356 -0.00146466 -0.00157981 -0.00168313 -0.0017746 -0.00185423 -0.00192201 -0.00197794 -0.00202203 -0.00205428 -0.00207461 -0.00208294 -0.00207927 -0.00206361 -0.00203595 -0.00199629 -0.00194464 -0.00188099 -0.0018108 -0.00173954 -0.0016672 -0.00159378 -0.00151928 -0.00144371 -0.00136706 -0.00128933 -0.00121592 -0.00115224 -0.00109827 -0.00105403 -0.0010195 -0.000994697 -0.000979612 -0.000974247 -0.000978605 -0.000992687 -0.00101649 -0.00105003 -0.00109328 -0.00114626 -0.00120897 -0.0012814 -0.00135817 -0.00143389 -0.00150856 -0.00158218 -0.00165475 -0.00172628 -0.00179675 -0.00186618 -0.00192912 -0.00198015 -0.00201927 -0.00204648 -0.00206178 -0.00206516 -0.00205663 -0.00203619 -0.00200393 -0.00195995 -0.00190425 -0.00183683 -0.00175769 -0.00166682 -0.00156424 -0.00144993 -0.00132977 -0.00120963 -0.0010895 -0.000969384 -0.000849285 -0.0007292 -0.000609131 -0.000489077 -0.000374547 -0.000271053 -0.000178593 -9.71676e-05 -2.67771e-05 3.25786e-05 8.08996e-05 0.000118186 0.000146053 0.000166117 0.000178378 0.000182835 0.000179489 0.000168339 0.000149387 0.000122631 9.38892e-05 6.89798e-05 4.79026e-05 3.06577e-05 1.72449e-05 7.66442e-06 1.91611e-06 0 0 2.64056e-06 1.05622e-05 2.37651e-05 4.2249e-05 6.60141e-05 9.50602e-05 0.000129388 0.000168996 0.000205862 0.000231961 0.000247295 0.000251862 0.000245662 0.000228697 0.000200965 0.000162466 0.000111005 4.43838e-05 -3.7397e-05 -0.000134338 -0.000246438 -0.000373698 -0.000516118 -0.000673697 -0.000838835 -0.00100393 -0.00116898 -0.00133398 -0.00149894 -0.00166386 -0.00182873 -0.00199356 -0.0021503 -0.00229093 -0.00241543 -0.00252381 -0.00261606 -0.0026922 -0.00275221 -0.0027961 -0.00282377 -0.00283511 -0.00283012 -0.0028088 -0.00277115 -0.00271717 -0.00264687 -0.00256023 -0.0024647 -0.0023677 -0.00226924 -0.00216931 -0.00206791 -0.00196505 -0.00186072 -0.00175492 -0.00165501 -0.00156833 -0.00149487 -0.00143465 -0.00138766 -0.00135389 -0.00133336 -0.00132606 -0.00133199 -0.00135116 -0.00138356 -0.0014292 -0.00148808 -0.00156019 -0.00164554 -0.00174413 -0.00184862 -0.00195168 -0.00205332 -0.00215352 -0.0022523 -0.00234965 -0.00244558 -0.00254007 -0.00262575 -0.00269521 -0.00274846 -0.00278549 -0.00280631 -0.00281091 -0.0027993 -0.00277148 -0.00272758 -0.00266771 -0.0025919 -0.00250013 -0.00239241 -0.00226873 -0.0021291 -0.00197352 -0.00180997 -0.00164644 -0.00148293 -0.00131944 -0.00115597 -0.000992523 -0.000829095 -0.000665688 -0.000509801 -0.000368933 -0.000243085 -0.000132256 -3.64467e-05 4.43431e-05 0.000110113 0.000160864 0.000198795 0.000226104 0.000242792 0.000248859 0.000244304 0.000229129 0.000203332 0.000166914 0.000127794 9.38892e-05 6.52008e-05 4.17285e-05 2.34723e-05 1.04321e-05 2.60803e-06 0 0 3.4489e-06 1.37956e-05 3.10401e-05 5.51824e-05 8.62224e-05 0.00012416 0.000168996 0.000220729 0.000268881 0.00030297 0.000322997 0.000328962 0.000320865 0.000298706 0.000262484 0.000212201 0.000144986 5.79707e-05 -4.88451e-05 -0.000175461 -0.000321878 -0.000488095 -0.000674113 -0.000879931 -0.00109562 -0.00131125 -0.00152683 -0.00174234 -0.0019578 -0.0021732 -0.00238855 -0.00260383 -0.00280856 -0.00299223 -0.00315484 -0.0032964 -0.0034169 -0.00351634 -0.00359473 -0.00365205 -0.00368819 -0.003703 -0.00369648 -0.00366863 -0.00361946 -0.00354896 -0.00345713 -0.00334398 -0.0032192 -0.00309251 -0.0029639 -0.00283338 -0.00270095 -0.00256659 -0.00243033 -0.00229214 -0.00216164 -0.00204843 -0.00195249 -0.00187383 -0.00181245 -0.00176835 -0.00174153 -0.001732 -0.00173974 -0.00176478 -0.0018071 -0.00186671 -0.00194361 -0.0020378 -0.00214928 -0.00227805 -0.00241452 -0.00254914 -0.00268188 -0.00281277 -0.00294178 -0.00306894 -0.00319422 -0.00331765 -0.00342955 -0.00352027 -0.00358982 -0.00363819 -0.00366538 -0.0036714 -0.00365623 -0.00361989 -0.00356255 -0.00348436 -0.00338534 -0.00326548 -0.00312478 -0.00296324 -0.00278087 -0.00257766 -0.00236404 -0.00215045 -0.00193689 -0.00172335 -0.00150984 -0.00129636 -0.0010829 -0.00086947 -0.000665862 -0.000481872 -0.000317498 -0.000172742 -4.76038e-05 5.79175e-05 0.000143822 0.000210108 0.00025965 0.000295319 0.000317116 0.00032504 0.000319091 0.00029927 0.000265576 0.00021801 0.000166914 0.000122631 8.51602e-05 5.45025e-05 3.06577e-05 1.36256e-05 3.40641e-06 0 0 4.19208e-06 1.67683e-05 3.77287e-05 6.70733e-05 0.000104802 0.000150915 0.000205412 0.000268293 0.000326527 0.000367082 0.000389958 0.000395156 0.000382674 0.000352514 0.000304675 0.000239157 0.000152637 4.17916e-05 -9.338e-05 -0.000252877 -0.000436701 -0.000644849 -0.000877324 -0.00113412 -0.00140279 -0.00167085 -0.00193831 -0.00220517 -0.00247142 -0.00273708 -0.00300213 -0.00326658 -0.00351771 -0.00374278 -0.0039418 -0.00411477 -0.00426169 -0.00438255 -0.00447736 -0.00454612 -0.004589 -0.00460617 -0.00459764 -0.00456339 -0.00450343 -0.00441777 -0.0043064 -0.00416932 -0.00401833 -0.00386526 -0.0037101 -0.00355284 -0.0033935 -0.00323206 -0.00306853 -0.00290291 -0.00274659 -0.00261096 -0.00249603 -0.00240178 -0.00232823 -0.00227537 -0.0022432 -0.00223173 -0.00224095 -0.00227088 -0.00232151 -0.00239285 -0.00248489 -0.00259764 -0.00273109 -0.00288525 -0.00304875 -0.00321022 -0.00336967 -0.00352708 -0.00368248 -0.00383584 -0.00398718 -0.0041365 -0.00427204 -0.00438205 -0.00446653 -0.00452549 -0.00455893 -0.00456683 -0.00454921 -0.00450606 -0.00443726 -0.00434268 -0.00422232 -0.00407617 -0.00390424 -0.00370653 -0.00348303 -0.00323375 -0.00297134 -0.00270843 -0.00244504 -0.00218115 -0.00191676 -0.00165189 -0.00138652 -0.00112067 -0.000866612 -0.000636662 -0.000430814 -0.000249069 -9.14268e-05 4.21129e-05 0.00015155 0.000236884 0.000301446 0.000348566 0.000378245 0.000390481 0.000385276 0.000362628 0.000322539 0.000265008 0.000202897 0.000149067 0.000103519 6.6252e-05 3.72668e-05 1.6563e-05 4.14075e-06 0 0 4.69717e-06 1.87887e-05 4.22745e-05 7.51547e-05 0.000117429 0.000169098 0.000230161 0.000300619 0.000365025 0.000407933 0.000429343 0.000429255 0.00040767 0.000364587 0.000300006 0.000213927 0.000103099 -3.5731e-05 -0.000202562 -0.000397395 -0.000620229 -0.000871064 -0.0011499 -0.00145674 -0.00177648 -0.00209401 -0.00240934 -0.00272246 -0.00303339 -0.0033421 -0.00364862 -0.00395293 -0.00424088 -0.00449833 -0.00472526 -0.00492169 -0.00508761 -0.00522302 -0.00532792 -0.00540231 -0.00544735 -0.0054642 -0.00545286 -0.00541334 -0.00534562 -0.00524972 -0.00512562 -0.00497334 -0.00480613 -0.00463726 -0.00446673 -0.00429453 -0.00412068 -0.00394516 -0.00376798 -0.00358914 -0.00342061 -0.00327437 -0.00315041 -0.00304874 -0.00296936 -0.00291226 -0.00287745 -0.00286493 -0.00287471 -0.00290679 -0.00296119 -0.0030379 -0.00313692 -0.00325825 -0.00340189 -0.00356784 -0.00374416 -0.0039189 -0.00409207 -0.00426365 -0.00443366 -0.0046021 -0.00476895 -0.00493423 -0.00508472 -0.00520724 -0.00530176 -0.00536831 -0.00540686 -0.00541744 -0.00540002 -0.00535463 -0.00528014 -0.00517546 -0.00504058 -0.0048755 -0.00468022 -0.00445475 -0.00419908 -0.00391322 -0.00361122 -0.00330716 -0.00300104 -0.00269286 -0.00238262 -0.00207031 -0.00175595 -0.00143952 -0.00113593 -0.000860097 -0.000612013 -0.000391678 -0.000199094 -3.42595e-05 0.000102825 0.000212158 0.00029701 0.000360649 0.000403074 0.000424286 0.000424284 0.000403068 0.000360639 0.000296997 0.000227388 0.000167061 0.000116014 7.42492e-05 4.17652e-05 1.85623e-05 4.64057e-06 0 0 4.96418e-06 1.98567e-05 4.46776e-05 7.94268e-05 0.000124104 0.00017871 0.000243245 0.000317707 0.000384375 0.000425523 0.000441152 0.000431262 0.000395852 0.000334924 0.000248476 0.00013651 -3.62993e-06 -0.000174597 -0.000376392 -0.000609013 -0.000872463 -0.00116674 -0.00149184 -0.00184777 -0.00221669 -0.00258073 -0.00293992 -0.00329424 -0.00364369 -0.00398828 -0.004328 -0.00466286 -0.00497807 -0.00525886 -0.00550522 -0.00571715 -0.00589465 -0.00603773 -0.00614638 -0.0062206 -0.00626322 -0.00627708 -0.00626216 -0.00621848 -0.00614603 -0.0060448 -0.00591481 -0.00575605 -0.00558259 -0.00540851 -0.00523379 -0.00505845 -0.00488249 -0.00470589 -0.00452867 -0.00435083 -0.0041837 -0.00403864 -0.00391564 -0.0038147 -0.00373583 -0.00367902 -0.00364428 -0.0036316 -0.00364101 -0.00367252 -0.00372614 -0.00380186 -0.00389969 -0.00401963 -0.00416167 -0.00432582 -0.00450076 -0.00467519 -0.00484909 -0.00502248 -0.00519535 -0.00536769 -0.00553952 -0.00571084 -0.00586761 -0.00599584 -0.00609551 -0.00616663 -0.0062092 -0.00622321 -0.00620867 -0.00616559 -0.00609118 -0.00598269 -0.00584012 -0.00566347 -0.00545274 -0.00520792 -0.00492902 -0.00461604 -0.00428368 -0.00394663 -0.00360491 -0.0032585 -0.0029074 -0.00255163 -0.00219117 -0.00182602 -0.00147382 -0.00115218 -0.000861094 -0.000600569 -0.000370605 -0.0001712 -2.35483e-06 0.000135931 0.000246342 0.000331567 0.000391603 0.000426453 0.000436115 0.000420589 0.000379877 0.000313976 0.000240388 0.000176612 0.000122647 7.8494e-05 4.41529e-05 1.96235e-05 4.90588e-06 0 0 4.99309e-06 1.99724e-05 4.49378e-05 7.98895e-05 0.000124827 0.000179751 0.000244662 0.000319558 0.000384576 0.000419851 0.000425384 0.000401174 0.000347221 0.000263525 0.000150087 6.90559e-06 -0.000167549 -0.000374807 -0.000614868 -0.000887733 -0.0011934 -0.00153187 -0.00190315 -0.00230723 -0.00272342 -0.00313102 -0.00353004 -0.00392048 -0.00430233 -0.0046756 -0.00504028 -0.00539638 -0.00572929 -0.00602438 -0.00628167 -0.00650115 -0.00668283 -0.00682669 -0.00693275 -0.00700101 -0.00703663 -0.00704481 -0.00702554 -0.00697882 -0.00690465 -0.00680303 -0.00667396 -0.00651745 -0.00634772 -0.006179 -0.00601129 -0.0058446 -0.00567893 -0.00551426 -0.00535061 -0.00518798 -0.00503586 -0.00490377 -0.0047917 -0.00469966 -0.00462764 -0.00457565 -0.00454368 -0.00453174 -0.00453985 -0.00456806 -0.00461635 -0.00468474 -0.00477321 -0.00488178 -0.00501044 -0.00515918 -0.00531855 -0.00547907 -0.00564074 -0.00580355 -0.00596752 -0.00613264 -0.0062989 -0.00646632 -0.0066207 -0.00674785 -0.00684777 -0.00692046 -0.00696592 -0.00698416 -0.00697516 -0.00693894 -0.00687038 -0.00676438 -0.00662095 -0.00644008 -0.00622178 -0.00596603 -0.00567285 -0.00534223 -0.00498872 -0.00462685 -0.00425663 -0.00387805 -0.00349112 -0.00309583 -0.00269219 -0.00228019 -0.00188028 -0.0015129 -0.00117806 -0.000875743 -0.00060596 -0.000368708 -0.000163988 8.20067e-06 0.000149442 0.000261319 0.000343833 0.000396983 0.000420769 0.000415192 0.000380251 0.000315946 0.000241896 0.00017772 0.000123417 7.89866e-05 4.443e-05 1.97466e-05 4.93666e-06 0 0 4.78392e-06 1.91357e-05 4.30553e-05 7.65427e-05 0.000119598 0.000172221 0.000234412 0.000306171 0.000365629 0.000390919 0.00038204 0.000338992 0.000261776 0.000150391 4.83686e-06 -0.000174886 -0.000388658 -0.00063636 -0.000917992 -0.00123355 -0.00158305 -0.00196647 -0.00238382 -0.00283511 -0.00329667 -0.00374488 -0.00417972 -0.0046012 -0.00500932 -0.00540407 -0.00578547 -0.0061535 -0.00649452 -0.0067949 -0.00705462 -0.0072737 -0.00745213 -0.00758991 -0.00768704 -0.00774353 -0.00776757 -0.00776739 -0.00774298 -0.00769435 -0.00762148 -0.00752439 -0.00740308 -0.00725753 -0.00710151 -0.00694874 -0.00679923 -0.00665298 -0.00651 -0.00637027 -0.0062338 -0.00610059 -0.0059771 -0.00586977 -0.00577861 -0.00570362 -0.0056448 -0.00560215 -0.00557566 -0.00556535 -0.00557125 -0.00559341 -0.00563184 -0.00568653 -0.00575749 -0.00584471 -0.00594819 -0.00606794 -0.00619753 -0.00633055 -0.006467 -0.00660688 -0.00675019 -0.00689693 -0.00704709 -0.00720069 -0.00734399 -0.00746327 -0.00755855 -0.0076298 -0.00767704 -0.00770027 -0.00769948 -0.00767468 -0.00761774 -0.00752053 -0.00738307 -0.00720534 -0.00698734 -0.00672909 -0.00643057 -0.00609179 -0.00572634 -0.00534781 -0.0049562 -0.00455152 -0.00413376 -0.00370292 -0.003259 -0.00280201 -0.00235531 -0.00194227 -0.0015629 -0.0012172 -0.000905159 -0.000626784 -0.000382075 -0.000171031 6.30914e-06 0.000149907 0.000259763 0.000335876 0.000378247 0.000386876 0.000361763 0.000302907 0.000231913 0.000170385 0.000118323 7.57268e-05 4.25963e-05 1.89317e-05 4.73293e-06 0 0 4.33666e-06 1.73467e-05 3.903e-05 6.93866e-05 0.000108417 0.00015612 0.000212496 0.000277546 0.000327535 0.000338726 0.00031112 0.000244717 0.000139517 -4.47954e-06 -0.000187273 -0.000408864 -0.000666957 -0.000959257 -0.00128576 -0.00164648 -0.0020414 -0.00247053 -0.00293386 -0.0034314 -0.00393645 -0.0044223 -0.00488895 -0.0053364 -0.00576464 -0.0061737 -0.00656355 -0.0069342 -0.00727378 -0.0075704 -0.00782407 -0.00803479 -0.00820256 -0.00832738 -0.00840924 -0.00844816 -0.00845604 -0.00844482 -0.0084145 -0.00836507 -0.00829653 -0.0082089 -0.00810215 -0.0079763 -0.00784396 -0.00771773 -0.00759761 -0.00748359 -0.0073757 -0.00727391 -0.00717823 -0.00708866 -0.0070074 -0.00693663 -0.00687636 -0.00682658 -0.0067873 -0.00675851 -0.00674022 -0.00673242 -0.00673519 -0.00674858 -0.00677259 -0.00680724 -0.00685251 -0.0069084 -0.00697493 -0.00705207 -0.0071377 -0.00722963 -0.00732789 -0.00743246 -0.00754335 -0.00766056 -0.00778409 -0.00791393 -0.00803748 -0.00814211 -0.00822784 -0.00829465 -0.00834256 -0.00837156 -0.00838164 -0.00837282 -0.00833326 -0.00825114 -0.00812646 -0.00795923 -0.00774944 -0.00749709 -0.00720218 -0.00686471 -0.00649654 -0.00610951 -0.00570364 -0.00527891 -0.00483533 -0.0043729 -0.00389162 -0.00339148 -0.00289891 -0.00244029 -0.00201563 -0.00162494 -0.0012682 -0.000945428 -0.000656616 -0.000401765 -0.000183056 -2.66989e-06 0.000139393 0.000243132 0.000308549 0.000335642 0.000324412 0.000274859 0.000210439 0.000154608 0.000107367 6.87147e-05 3.8652e-05 1.71787e-05 4.29467e-06 0 0 3.65132e-06 1.46053e-05 3.28618e-05 5.84211e-05 9.12829e-05 0.000131447 0.000178914 0.000233684 0.000270291 0.000263271 0.000212623 0.000118348 -1.9555e-05 -0.000201086 -0.000426244 -0.000695029 -0.00100245 -0.0013435 -0.00171818 -0.0021265 -0.00256846 -0.00304404 -0.00355327 -0.00409612 -0.00464275 -0.00516328 -0.00565772 -0.00612606 -0.00656831 -0.00698447 -0.00737453 -0.00773849 -0.00806705 -0.00835089 -0.00859002 -0.00878443 -0.00893412 -0.0090391 -0.00909936 -0.0091149 -0.00910204 -0.00907711 -0.00904009 -0.00899098 -0.0089298 -0.00885654 -0.00877119 -0.00867376 -0.00857508 -0.00848596 -0.00840641 -0.00833643 -0.00827602 -0.00822518 -0.00818391 -0.0081522 -0.00812678 -0.00810436 -0.00808495 -0.00806855 -0.00805514 -0.00804475 -0.00803736 -0.00803297 -0.00803167 -0.00803356 -0.00803862 -0.00804686 -0.00805828 -0.00807287 -0.00809065 -0.0081116 -0.00813905 -0.00817632 -0.0082234 -0.0082803 -0.00834701 -0.00842354 -0.00850989 -0.00860605 -0.00870116 -0.00878436 -0.00885565 -0.00891502 -0.00896247 -0.00899801 -0.00902164 -0.00903335 -0.00901694 -0.0089562 -0.00885115 -0.00870177 -0.00850806 -0.00827003 -0.00798767 -0.00766099 -0.00729931 -0.00691196 -0.00649893 -0.00606022 -0.00559583 -0.00510577 -0.00459003 -0.00404862 -0.00351107 -0.00300695 -0.00253624 -0.00209896 -0.00169509 -0.00132464 -0.000987611 -0.000684001 -0.000418653 -0.000196412 -1.7277e-05 0.000118751 0.000211674 0.000261489 0.000268198 0.000231801 0.000177473 0.000130388 9.05474e-05 5.79503e-05 3.25971e-05 1.44876e-05 3.6219e-06 0 0 2.72788e-06 1.09115e-05 2.45509e-05 4.36461e-05 6.8197e-05 9.82037e-05 0.000133666 0.000174584 0.0001939 0.000164556 8.65506e-05 -4.01149e-05 -0.000215441 -0.000439427 -0.000712074 -0.00103338 -0.00139513 -0.00178908 -0.00221525 -0.00267363 -0.00316422 -0.00368702 -0.00424204 -0.00482926 -0.00541557 -0.00596783 -0.00648604 -0.00697021 -0.00742032 -0.00783639 -0.00821841 -0.00856637 -0.00887435 -0.00913638 -0.00935247 -0.00952261 -0.00964681 -0.00972507 -0.00975738 -0.00974376 -0.00970558 -0.00966424 -0.00961975 -0.00957209 -0.00952128 -0.00946732 -0.00941019 -0.00934991 -0.00929486 -0.00925344 -0.00922566 -0.0092115 -0.00921098 -0.00922409 -0.00925083 -0.00929119 -0.00933523 -0.00937296 -0.00940438 -0.00942951 -0.00944833 -0.00946085 -0.00946707 -0.00946698 -0.00946071 -0.00944835 -0.00942991 -0.00940539 -0.00937479 -0.00933811 -0.00929535 -0.00924651 -0.00920159 -0.0091706 -0.00915353 -0.00915038 -0.00916116 -0.00918587 -0.00922449 -0.00927705 -0.00933505 -0.00939002 -0.00944197 -0.00949089 -0.00953678 -0.00957964 -0.00961947 -0.00965627 -0.00966878 -0.00963573 -0.00955711 -0.00943294 -0.00926321 -0.00904791 -0.00878706 -0.00848064 -0.00813467 -0.00775515 -0.00734207 -0.00689544 -0.00641526 -0.00590153 -0.00535424 -0.0047734 -0.00419181 -0.00364225 -0.00312474 -0.00263926 -0.00218582 -0.00176442 -0.00137506 -0.00101774 -0.000700482 -0.000431319 -0.000210247 -3.72665e-05 8.76216e-05 0.000164418 0.000193122 0.000173734 0.000133015 9.77256e-05 6.7865e-05 4.34336e-05 2.44314e-05 1.08584e-05 2.7146e-06 0 0 1.44513e-06 5.78052e-06 1.30062e-05 2.31221e-05 3.61283e-05 5.20247e-05 7.08114e-05 9.24884e-05 8.89637e-05 3.21454e-05 -7.79664e-05 -0.000241372 -0.000458071 -0.000728063 -0.00105135 -0.00142793 -0.00184549 -0.00229174 -0.00276666 -0.00327025 -0.00380253 -0.00436348 -0.00495311 -0.00557142 -0.00618225 -0.00674948 -0.00727308 -0.00775307 -0.00818945 -0.00858221 -0.00893135 -0.00923688 -0.00949793 -0.00971362 -0.00988395 -0.0100089 -0.0100886 -0.0101228 -0.0101118 -0.0100553 -0.0099811 -0.00991667 -0.00986203 -0.00981718 -0.00978212 -0.00975685 -0.00974137 -0.00973568 -0.0097443 -0.00977174 -0.00981801 -0.0098831 -0.00996703 -0.0100698 -0.0101913 -0.0103317 -0.010472 -0.010593 -0.0106949 -0.0107776 -0.0108412 -0.0108856 -0.0109108 -0.0109168 -0.0109038 -0.0108719 -0.0108211 -0.0107515 -0.0106629 -0.0105554 -0.0104291 -0.0102839 -0.0101388 -0.0100128 -0.00990609 -0.0098185 -0.00975008 -0.00970083 -0.00967074 -0.00965983 -0.00966343 -0.00967689 -0.0097002 -0.00973336 -0.00977639 -0.00982927 -0.009892 -0.00996459 -0.0100196 -0.0100296 -0.00999462 -0.00991461 -0.0097896 -0.00961958 -0.00940456 -0.00914453 -0.00884047 -0.00849339 -0.00810327 -0.00767011 -0.00719392 -0.0066747 -0.00611244 -0.00550715 -0.00489462 -0.00431067 -0.00375529 -0.00322848 -0.00273024 -0.00226057 -0.00181948 -0.00140695 -0.00103506 -0.000715849 -0.000449325 -0.000235488 -7.43371e-05 3.4128e-05 8.99071e-05 9.30001e-05 7.12032e-05 5.23125e-05 3.63282e-05 2.325e-05 1.30781e-05 5.8125e-06 1.45313e-06 0 0 -3.18163e-07 -1.27265e-06 -2.86346e-06 -5.0906e-06 -7.95407e-06 -1.14539e-05 -1.559e-05 -2.03624e-05 -5.39154e-05 -0.000144393 -0.000291795 -0.000496123 -0.000757375 -0.00107555 -0.00145065 -0.00188268 -0.00235405 -0.00284719 -0.0033621 -0.00389878 -0.00445723 -0.00503744 -0.00563942 -0.00626317 -0.00687013 -0.00742174 -0.007918 -0.00835891 -0.00874447 -0.00907468 -0.00934954 -0.00956905 -0.00974005 -0.00986937 -0.00995702 -0.010003 -0.0100073 -0.00996994 -0.0098909 -0.00977018 -0.00964307 -0.00954485 -0.0094755 -0.00943504 -0.00942347 -0.00944077 -0.00948696 -0.00956203 -0.00966438 -0.00979242 -0.00994614 -0.0101255 -0.0103306 -0.0105614 -0.0108178 -0.0110999 -0.0113762 -0.0116152 -0.0118168 -0.0119811 -0.012108 -0.0121976 -0.0122498 -0.0122647 -0.0122425 -0.0121832 -0.0120869 -0.0119537 -0.0117834 -0.0115762 -0.011332 -0.0110507 -0.010764 -0.0105034 -0.0102689 -0.0100604 -0.00987803 -0.00972171 -0.00959147 -0.0094873 -0.00941059 -0.00936273 -0.00934372 -0.00935355 -0.00939222 -0.00945974 -0.0095561 -0.00968131 -0.00980025 -0.00987778 -0.0099139 -0.00990863 -0.00986195 -0.00977387 -0.00964439 -0.0094735 -0.00925458 -0.00898098 -0.0086527 -0.00826974 -0.00783211 -0.0073398 -0.00679281 -0.00619114 -0.00557302 -0.00497666 -0.00440207 -0.00384925 -0.00331819 -0.0028089 -0.00232138 -0.00185562 -0.00142889 -0.00105846 -0.000744323 -0.00048648 -0.000284933 -0.00013968 -5.07227e-05 -1.80602e-05 -1.38273e-05 -1.01589e-05 -7.05477e-06 -4.51505e-06 -2.53972e-06 -1.12876e-06 -2.82191e-07 0 0 -2.562e-06 -1.0248e-05 -2.3058e-05 -4.0992e-05 -6.405e-05 -9.2232e-05 -0.000125538 -0.000163968 -0.000234737 -0.00036506 -0.000554937 -0.000804368 -0.00111335 -0.00148189 -0.00190998 -0.00239763 -0.0029208 -0.00345545 -0.00400158 -0.0045592 -0.00512831 -0.0057089 -0.00630098 -0.00690454 -0.00747921 -0.00798464 -0.00842081 -0.00878773 -0.00908539 -0.00931381 -0.00947297 -0.00956288 -0.00960071 -0.00960364 -0.00957168 -0.00950481 -0.00940305 -0.00926638 -0.00909481 -0.00888835 -0.0086915 -0.00854877 -0.00846016 -0.00842567 -0.00844531 -0.00851907 -0.00864695 -0.00882895 -0.00905511 -0.00931548 -0.00961004 -0.00993879 -0.0103017 -0.0106989 -0.0111303 -0.0115958 -0.012048 -0.0124395 -0.0127701 -0.0130398 -0.0132488 -0.013397 -0.0134843 -0.0135108 -0.0134767 -0.0133822 -0.0132273 -0.0130121 -0.0127364 -0.0124004 -0.0120039 -0.0115471 -0.0110774 -0.0106423 -0.0102419 -0.00987615 -0.00954501 -0.00924852 -0.00898667 -0.00875946 -0.00857654 -0.00844756 -0.00837253 -0.00835143 -0.00838427 -0.00847105 -0.00861178 -0.00880644 -0.0090107 -0.00918021 -0.00931497 -0.00941499 -0.00948026 -0.00951078 -0.00950655 -0.00946758 -0.00937699 -0.00921792 -0.00899037 -0.00869433 -0.00832982 -0.00789682 -0.00739534 -0.00682539 -0.006227 -0.00564023 -0.00506509 -0.00450157 -0.00394968 -0.00340941 -0.00288076 -0.00236374 -0.00188199 -0.00145915 -0.00109524 -0.000790243 -0.000544165 -0.000357007 -0.000228767 -0.000159446 -0.000122076 -8.96886e-05 -6.22837e-05 -3.98616e-05 -2.24221e-05 -9.9654e-06 -2.49135e-06 0 0 -5.28638e-06 -2.11455e-05 -4.75774e-05 -8.45821e-05 -0.000132159 -0.00019031 -0.000259033 -0.000338328 -0.000453501 -0.000629855 -0.00086739 -0.00116611 -0.001526 -0.00194708 -0.00242934 -0.00297279 -0.00354573 -0.0041165 -0.0046851 -0.00525153 -0