<?xml version="1.0"?> 
<VTKFile type="StructuredGrid" version="0.1"> 
<StructuredGrid WholeExtent="0 128 0 128 0 0"> 
<Piece Extent="0 128 0 128 0 0"> 
<PointData>
<DataArray type="Float32" Name="u" format="ascii" NumberOfComponents="1"> 
0 0 0 0 0 0 0 0 0 0 0 0 0 0 0 0 0 0 0 0 0 0 0 0 0 0 0 0 0 0 0 0 0 0 0 0 0 0 0 0 0 0 0 0 0 0 0 0 0 0 0 0 0 0 0 0 0 0 0 0 0 0 0 0 0 0 0 0 0 0 0 0 0 0 0 0 0 0 0 0 0 0 0 0 0 0 0 0 0 0 0 0 0 0 0 0 0 0 0 0 0 0 0 0 0 0 0 0 0 0 0 0 0 0 0 0 0 0 0 0 0 0 0 0 0 0 0 0 0 0 5.99911e-08 2.39965e-07 5.3992e-07 9.59858e-07 1.49978e-06 2.15968e-06 2.93957e-06 3.83943e-06 4.88636e-06 6.10741e-06 7.50258e-06 9.07189e-06 1.08153e-05 1.27329e-05 1.48246e-05 1.70904e-05 1.94721e-05 2.19116e-05 2.44087e-05 2.69635e-05 2.95761e-05 3.22463e-05 3.49742e-05 3.77599e-05 4.05444e-05 4.32692e-05 4.59342e-05 4.85393e-05 5.10847e-05 5.35702e-05 5.5996e-05 5.83619e-05 6.0642e-05 6.28104e-05 6.4867e-05 6.68118e-05 6.86449e-05 7.03662e-05 7.19757e-05 7.34735e-05 7.4862e-05 7.61438e-05 7.73189e-05 7.83873e-05 7.93491e-05 8.02041e-05 8.09524e-05 8.15941e-05 8.2146e-05 8.26253e-05 8.30319e-05 8.33658e-05 8.3627e-05 8.38155e-05 8.39314e-05 8.39746e-05 8.39607e-05 8.39055e-05 8.3809e-05 8.36712e-05 8.3492e-05 8.32715e-05 8.30097e-05 8.27065e-05 8.2366e-05 8.19921e-05 8.15848e-05 8.11442e-05 8.06702e-05 8.01628e-05 7.96221e-05 7.9048e-05 7.84325e-05 7.77678e-05 7.70538e-05 7.62905e-05 7.54778e-05 7.46159e-05 7.37047e-05 7.27442e-05 7.17238e-05 7.06327e-05 6.94709e-05 6.82385e-05 6.69354e-05 6.55616e-05 6.41172e-05 6.26022e-05 6.10164e-05 5.93597e-05 5.7632e-05 5.58335e-05 5.39641e-05 5.20239e-05 5.00127e-05 4.79306e-05 4.57988e-05 4.36384e-05 4.14494e-05 3.92319e-05 3.69858e-05 3.47111e-05 3.24079e-05 3.0076e-05 2.77602e-05 2.55048e-05 2.33099e-05 2.11755e-05 1.91016e-05 1.70882e-05 1.51353e-05 1.32429e-05 1.14518e-05 9.80299e-06 8.29641e-06 6.93207e-06 5.70997e-06 4.6301e-06 3.69247e-06 2.89708e-06 2.21808e-06 1.62961e-06 1.13167e-06 7.24271e-07 4.07402e-07 1.81068e-07 4.52669e-08 0 0 2.39965e-07 9.59858e-07 2.15968e-06 3.83943e-06 5.99911e-06 8.63872e-06 1.17583e-05 1.53577e-05 1.95454e-05 2.44296e-05 3.00103e-05 3.62876e-05 4.32613e-05 5.09316e-05 5.92983e-05 6.83616e-05 7.78885e-05 8.76463e-05 9.76348e-05 0.000107854 0.000118304 0.000128985 0.000139897 0.000151039 0.000162178 0.000173077 0.000183737 0.000194157 0.000204339 0.000214281 0.000223984 0.000233448 0.000242568 0.000251242 0.000259468 0.000267247 0.00027458 0.000281465 0.000287903 0.000293894 0.000299448 0.000304575 0.000309276 0.000313549 0.000317396 0.000320816 0.00032381 0.000326376 0.000328584 0.000330501 0.000332128 0.000333463 0.000334508 0.000335262 0.000335726 0.000335898 0.000335843 0.000335622 0.000335236 0.000334685 0.000333968 0.000333086 0.000332039 0.000330826 0.000329464 0.000327968 0.000326339 0.000324577 0.000322681 0.000320651 0.000318488 0.000316192 0.00031373 0.000311071 0.000308215 0.000305162 0.000301911 0.000298464 0.000294819 0.000290977 0.000286895 0.000282531 0.000277884 0.000272954 0.000267741 0.000262247 0.000256469 0.000250409 0.000244065 0.000237439 0.000230528 0.000223334 0.000215857 0.000208095 0.000200051 0.000191722 0.000183195 0.000174554 0.000165798 0.000156928 0.000147943 0.000138844 0.000129631 0.000120304 0.000111041 0.000102019 9.32396e-05 8.4702e-05 7.64064e-05 6.83528e-05 6.05411e-05 5.29715e-05 4.58072e-05 3.9212e-05 3.31856e-05 2.77283e-05 2.28399e-05 1.85204e-05 1.47699e-05 1.15883e-05 8.87232e-06 6.51844e-06 4.52669e-06 2.89708e-06 1.62961e-06 7.24271e-07 1.81068e-07 0 0 5.3992e-07 2.15968e-06 4.85928e-06 8.63872e-06 1.3498e-05 1.94371e-05 2.64561e-05 3.45549e-05 4.39772e-05 5.49667e-05 6.75233e-05 8.1647e-05 9.73379e-05 0.000114596 0.000133421 0.000153814 0.000175249 0.000197204 0.000219678 0.000242672 0.000266185 0.000290217 0.000314768 0.000339839 0.0003649 0.000389423 0.000413408 0.000436854 0.000459762 0.000482132 0.000503964 0.000525257 0.000545778 0.000565294 0.000583803 0.000601307 0.000617804 0.000633296 0.000647781 0.000661261 0.000673758 0.000685294 0.00069587 0.000705486 0.000714142 0.000721837 0.000728572 0.000734347 0.000739314 0.000743628 0.000747287 0.000750292 0.000752643 0.00075434 0.000755382 0.000755771 0.000755646 0.00075515 0.000754281 0.000753041 0.000751428 0.000749444 0.000747087 0.000744358 0.000741294 0.000737929 0.000734263 0.000730298 0.000726032 0.000721465 0.000716599 0.000711432 0.000705893 0.00069991 0.000693484 0.000686614 0.000679301 0.000671543 0.000663343 0.000654698 0.000645514 0.000635694 0.000625238 0.000614146 0.000602418 0.000590055 0.000577055 0.00056342 0.000549147 0.000534237 0.000518688 0.000502502 0.000485677 0.000468215 0.000450114 0.000431375 0.000412189 0.000392746 0.000373045 0.000353087 0.000332872 0.0003124 0.000291671 0.000270684 0.000249841 0.000229543 0.000209789 0.00019058 0.000171914 0.000153794 0.000136218 0.000119186 0.000103066 8.82269e-05 7.46677e-05 6.23886e-05 5.13897e-05 4.16709e-05 3.32323e-05 2.60738e-05 1.99627e-05 1.46665e-05 1.01851e-05 6.51844e-06 3.66662e-06 1.62961e-06 4.07402e-07 0 0 9.59858e-07 3.83943e-06 8.63872e-06 1.53577e-05 2.39965e-05 3.45549e-05 4.70331e-05 6.14309e-05 7.81817e-05 9.77185e-05 0.000120041 0.00014515 0.000173045 0.000203726 0.000237193 0.000273446 0.000311554 0.000350585 0.000390539 0.000431416 0.000473217 0.000515941 0.000559588 0.000604158 0.000648711 0.000692307 0.000734947 0.000776629 0.000817355 0.000857124 0.000895935 0.00093379 0.000970273 0.00100497 0.00103787 0.00106899 0.00109832 0.00112586 0.00115161 0.00117558 0.00119779 0.0012183 0.0012371 0.0012542 0.00126959 0.00128327 0.00129524 0.00130551 0.00131434 0.001322 0.00132851 0.00133385 0.00133803 0.00134105 0.0013429 0.00134359 0.00134337 0.00134249 0.00134094 0.00133874 0.00133587 0.00133234 0.00132815 0.0013233 0.00131786 0.00131187 0.00130536 0.00129831 0.00129072 0.00128261 0.00127395 0.00126477 0.00125492 0.00124428 0.00123286 0.00122065 0.00120765 0.00119385 0.00117928 0.00116391 0.00114758 0.00113012 0.00111153 0.00109182 0.00107097 0.00104899 0.00102588 0.00100164 0.000976262 0.000949754 0.000922113 0.000893337 0.000863426 0.000832382 0.000800203 0.00076689 0.000732781 0.000698214 0.000663191 0.000627711 0.000591773 0.000555378 0.000518526 0.000481217 0.000444163 0.000408077 0.000372958 0.000338808 0.000305626 0.000273411 0.000242165 0.000211886 0.000183229 0.000156848 0.000132743 0.000110913 9.13595e-05 7.40816e-05 5.90796e-05 4.63533e-05 3.54893e-05 2.60738e-05 1.81068e-05 1.15883e-05 6.51844e-06 2.89708e-06 7.24271e-07 0 0 1.49978e-06 5.99911e-06 1.3498e-05 2.39965e-05 3.74945e-05 5.3992e-05 7.34892e-05 9.59858e-05 0.000122159 0.000152685 0.000187565 0.000226797 0.000270383 0.000318322 0.000370614 0.00042726 0.000486803 0.000547789 0.000610217 0.000674088 0.000739402 0.000806157 0.000874356 0.000943996 0.00101361 0.00108173 0.00114835 0.00121348 0.00127712 0.00133926 0.0013999 0.00145905 0.00151605 0.00157026 0.00162168 0.0016703 0.00171612 0.00175915 0.00179939 0.00183684 0.00187155 0.00190359 0.00193297 0.00195968 0.00198373 0.0020051 0.00202381 0.00203985 0.00205365 0.00206563 0.0020758 0.00208414 0.00209068 0.00209539 0.00209828 0.00209936 0.00209902 0.00209764 0.00209523 0.00209178 0.0020873 0.00208179 0.00207524 0.00206766 0.00205915 0.0020498 0.00203962 0.0020286 0.00201675 0.00200407 0.00199055 0.0019762 0.00196081 0.0019442 0.00192634 0.00190726 0.00188695 0.0018654 0.00184262 0.00181861 0.00179309 0.00176582 0.00173677 0.00170596 0.00167338 0.00163904 0.00160293 0.00156505 0.00152541 0.00148399 0.0014408 0.00139584 0.0013491 0.0013006 0.00125032 0.00119826 0.00114497 0.00109096 0.00103624 0.000980798 0.000924645 0.000867778 0.000810197 0.000751901 0.000694004 0.00063762 0.000582747 0.000529388 0.00047754 0.000427205 0.000378382 0.000331072 0.000286295 0.000245075 0.00020741 0.000173302 0.000142749 0.000115753 9.23118e-05 7.24271e-05 5.5452e-05 4.07402e-05 2.82918e-05 1.81068e-05 1.01851e-05 4.52669e-06 1.13167e-06 0 0 2.15968e-06 8.63872e-06 1.94371e-05 3.45549e-05 5.3992e-05 7.77485e-05 0.000105824 0.00013822 0.000175909 0.000219867 0.000270093 0.000326588 0.000389352 0.000458384 0.000533685 0.000615254 0.000700997 0.000788816 0.000878713 0.000970687 0.00106474 0.00116087 0.00125907 0.00135935 0.0014596 0.00155769 0.00165363 0.00174742 0.00183905 0.00192853 0.00201585 0.00210103 0.00218311 0.00226117 0.00233521 0.00240523 0.00247122 0.00253318 0.00259113 0.00264504 0.00269503 0.00274118 0.00278348 0.00282194 0.00285657 0.00288735 0.00291429 0.00293739 0.00295726 0.00297451 0.00298915 0.00300117 0.00301057 0.00301736 0.00302153 0.00302308 0.00302259 0.0030206 0.00301712 0.00301216 0.00300571 0.00299777 0.00298835 0.00297743 0.00296518 0.00295172 0.00293705 0.00292119 0.00290413 0.00288586 0.0028664 0.00284573 0.00282357 0.00279964 0.00277394 0.00274646 0.0027172 0.00268617 0.00265337 0.00261879 0.00258206 0.00254278 0.00250095 0.00245658 0.00240967 0.00236022 0.00230822 0.00225368 0.00219659 0.00213695 0.00207475 0.00201001 0.00194271 0.00187286 0.00180046 0.0017255 0.00164876 0.00157098 0.00149218 0.00141235 0.00133149 0.0012496 0.00116668 0.00108274 0.000999366 0.000918172 0.000839156 0.000762318 0.000687658 0.000615175 0.00054487 0.000476743 0.000412265 0.000352908 0.000298671 0.000249555 0.000205559 0.000166684 0.000132929 0.000104295 7.98509e-05 5.86659e-05 4.07402e-05 2.60738e-05 1.46665e-05 6.51844e-06 1.62961e-06 0 0 2.93957e-06 1.17583e-05 2.64561e-05 4.70331e-05 7.34892e-05 0.000105824 0.000144039 0.000188132 0.000239431 0.000299263 0.000367627 0.000444523 0.000529951 0.000623912 0.000726404 0.00083743 0.000954134 0.00107367 0.00119603 0.00132121 0.00144923 0.00158007 0.00171374 0.00185023 0.00198668 0.00212019 0.00225077 0.00237843 0.00250315 0.00262494 0.0027438 0.00285973 0.00297146 0.00307771 0.00317848 0.00327378 0.0033636 0.00344794 0.00352681 0.0036002 0.00366824 0.00373105 0.00378863 0.00384098 0.0038881 0.00393 0.00396667 0.00399811 0.00402516 0.00404864 0.00406856 0.00408492 0.00409772 0.00410696 0.00411264 0.00411475 0.00411407 0.00411137 0.00410664 0.00409989 0.00409111 0.0040803 0.00406747 0.00405262 0.00403593 0.00401761 0.00399766 0.00397607 0.00395284 0.00392798 0.00390148 0.00387335 0.00384319 0.00381062 0.00377563 0.00373823 0.00369841 0.00365618 0.00361153 0.00356447 0.00351447 0.003461 0.00340407 0.00334368 0.00327983 0.00321252 0.00314174 0.00306751 0.0029898 0.00290862 0.00282397 0.00273584 0.00264424 0.00254917 0.00245062 0.0023486 0.00224414 0.00213828 0.00203102 0.00192236 0.0018123 0.00170084 0.00158799 0.00147373 0.00136025 0.00124973 0.00114218 0.0010376 0.000935979 0.000837322 0.000741629 0.0006489 0.000561139 0.000480347 0.000406524 0.000339671 0.000279788 0.000226875 0.000180931 0.000141957 0.000108686 7.98509e-05 5.5452e-05 3.54893e-05 1.99627e-05 8.87232e-06 2.21808e-06 0 0 3.83943e-06 1.53577e-05 3.45549e-05 6.14309e-05 9.59858e-05 0.00013822 0.000188132 0.000245724 0.000312727 0.000390874 0.000480165 0.000580601 0.000692181 0.000814905 0.000948773 0.00109379 0.00124622 0.00140234 0.00156216 0.00172567 0.00189287 0.00206376 0.00223835 0.00241663 0.00259484 0.00276923 0.00293979 0.00310652 0.00326942 0.00342849 0.00358374 0.00373516 0.00388109 0.00401987 0.00415149 0.00427596 0.00439327 0.00450344 0.00460645 0.0047023 0.00479117 0.0048732 0.00494841 0.00501679 0.00507834 0.00513306 0.00518096 0.00522202 0.00525735 0.00528802 0.00531404 0.00533541 0.00535213 0.00536419 0.00537161 0.00537437 0.00537349 0.00536995 0.00536378 0.00535496 0.00534349 0.00532938 0.00531262 0.00529322 0.00527142 0.00524749 0.00522143 0.00519323 0.00516289 0.00513042 0.00509581 0.00505907 0.00501968 0.00497714 0.00493144 0.00488259 0.00483058 0.00477542 0.0047171 0.00465563 0.00459032 0.00452049 0.00444614 0.00436726 0.00428386 0.00419594 0.0041035 0.00400654 0.00390505 0.00379902 0.00368845 0.00357335 0.00345371 0.00332953 0.00320081 0.00306756 0.00293112 0.00279286 0.00265276 0.00251084 0.00236709 0.00222151 0.0020741 0.00192487 0.00177665 0.00163231 0.00149183 0.00135523 0.0012225 0.00109364 0.000968658 0.000847543 0.000732916 0.000627391 0.00053097 0.000443652 0.000365438 0.000296326 0.000236318 0.000185413 0.000141957 0.000104295 7.24271e-05 4.63533e-05 2.60738e-05 1.15883e-05 2.89708e-06 0 0 4.90396e-06 1.96158e-05 4.41356e-05 7.84633e-05 0.000122599 0.000176542 0.000240294 0.000313853 0.000399356 0.000498939 0.000612601 0.000740342 0.000882163 0.00103806 0.00120804 0.0013921 0.00158552 0.00178359 0.00198631 0.00219367 0.00240568 0.00262233 0.00284363 0.00306958 0.00329543 0.00351644 0.00373261 0.00394394 0.00415044 0.00435209 0.00454891 0.00474089 0.00492593 0.00510192 0.00526887 0.00542678 0.00557564 0.00571546 0.00584624 0.00596797 0.00608086 0.00618511 0.00628071 0.00636766 0.00644597 0.00651564 0.00657666 0.00662903 0.00667413 0.00671332 0.0067466 0.00677397 0.00679544 0.006811 0.00682065 0.00682439 0.00682349 0.00681921 0.00681155 0.00680051 0.00678609 0.00676829 0.00674712 0.00672256 0.00669495 0.0066646 0.00663152 0.0065957 0.00655715 0.00651587 0.00647185 0.0064251 0.00637498 0.00632084 0.00626269 0.00620053 0.00613436 0.00606418 0.00598999 0.00591178 0.00582871 0.00573991 0.00564538 0.00554513 0.00543915 0.00532745 0.00521003 0.00508687 0.00495799 0.00482337 0.00468302 0.00453694 0.00438512 0.00422757 0.00406429 0.00389527 0.00372223 0.00354689 0.00336923 0.00318926 0.00300698 0.0028224 0.0026355 0.00244629 0.00225837 0.00207533 0.00189717 0.00172388 0.00155548 0.00139195 0.00123331 0.00107954 0.000933966 0.000799897 0.000677335 0.000566279 0.000466729 0.000378685 0.000302148 0.000237116 0.000181542 0.000133378 9.26233e-05 5.92789e-05 3.33444e-05 1.48197e-05 3.70493e-06 0 0 6.17781e-06 2.47112e-05 5.56003e-05 9.8845e-05 0.000154445 0.000222401 0.000302713 0.00039538 0.000502881 0.000627696 0.000769824 0.000929264 0.00110602 0.00130008 0.00151146 0.00174016 0.00198034 0.00222618 0.00247768 0.00273484 0.00299766 0.00326615 0.00354029 0.0038201 0.00409975 0.00437345 0.00464119 0.00490297 0.00515879 0.00540865 0.00565255 0.00589049 0.00611989 0.00633815 0.00654527 0.00674126 0.00692611 0.00709982 0.0072624 0.00741384 0.00755438 0.00768423 0.0078034 0.00791189 0.0080097 0.00809683 0.00817328 0.00823904 0.00829579 0.00834519 0.00838725 0.00842195 0.0084493 0.0084693 0.00848196 0.00848726 0.00848676 0.008482 0.00847298 0.0084597 0.00844216 0.00842036 0.0083943 0.00836398 0.0083298 0.00829216 0.00825106 0.0082065 0.00815848 0.008107 0.00805206 0.00799365 0.00793102 0.00786338 0.00779073 0.00771308 0.00763042 0.00754276 0.00745009 0.00735242 0.0072487 0.00713792 0.00702005 0.00689511 0.0067631 0.00662401 0.00647784 0.0063246 0.00616429 0.00599693 0.00582252 0.00564105 0.00545253 0.00525695 0.00505432 0.00484464 0.00463001 0.00441254 0.00419224 0.0039691 0.00374311 0.00351429 0.00328264 0.00304814 0.00281521 0.00258825 0.00236725 0.00215222 0.00194315 0.00174005 0.00154292 0.00135176 0.00117066 0.00100372 0.000850946 0.000712334 0.000587885 0.000477599 0.000381476 0.000299516 0.000229317 0.000168478 0.000116998 7.4879e-05 4.21194e-05 1.87197e-05 4.67993e-06 0 0 7.661e-06 3.0644e-05 6.8949e-05 0.000122576 0.000191525 0.000275796 0.000375389 0.000490304 0.000623302 0.000777146 0.000951834 0.00114737 0.00136375 0.00160097 0.00185904 0.00213795 0.00243066 0.0027301 0.00303627 0.00334919 0.00366883 0.00399522 0.00432834 0.00466819 0.00500782 0.00534026 0.00566552 0.00598359 0.00629446 0.00659816 0.00689466 0.00718397 0.00746298 0.00772855 0.00798069 0.0082194 0.00844468 0.00865652 0.00885493 0.00903991 0.0092117 0.00937056 0.00951648 0.00964947 0.00976952 0.00987664 0.00997081 0.0100521 0.0101223 0.0101837 0.010236 0.0102793 0.0103137 0.0103391 0.0103555 0.010363 0.0103633 0.0103583 0.0103481 0.0103325 0.0103117 0.0102856 0.0102542 0.0102175 0.010176 0.0101302 0.0100801 0.0100256 0.00996688 0.00990382 0.00983643 0.00976473 0.00968781 0.00960475 0.00951555 0.00942022 0.00931875 0.00921115 0.00909741 0.00897754 0.00885031 0.00871451 0.00857014 0.0084172 0.00825569 0.0080856 0.00790695 0.00771972 0.00752395 0.00731969 0.00710693 0.00688568 0.00665592 0.00641766 0.00617091 0.00591566 0.00565445 0.00538983 0.0051218 0.00485035 0.00457548 0.00429721 0.00401552 0.00373041 0.00344717 0.00317106 0.00290208 0.00264023 0.00238552 0.00213795 0.0018975 0.0016642 0.00144299 0.00123886 0.0010518 0.000881816 0.000728905 0.000593068 0.000474304 0.000372614 0.000285283 0.000209595 0.000145552 9.31535e-05 5.23988e-05 2.32884e-05 5.82209e-06 0 0 9.35351e-06 3.7414e-05 8.41816e-05 0.000149656 0.000233838 0.000336726 0.000458322 0.000598625 0.000760619 0.000947288 0.00115863 0.00139465 0.00165535 0.00194072 0.00225077 0.00258549 0.00293648 0.00329535 0.00366209 0.0040367 0.00441919 0.00480954 0.00520777 0.00561386 0.00601964 0.00641688 0.0068056 0.0071858 0.00755747 0.00792062 0.00827524 0.00862133 0.0089552 0.00927313 0.00957514 0.00986121 0.0101313 0.0103856 0.0106238 0.0108462 0.0110528 0.0112441 0.01142 0.0115804 0.0117254 0.0118551 0.0119693 0.0120681 0.0121538 0.0122287 0.0122928 0.0123461 0.0123887 0.0124204 0.0124414 0.0124516 0.0124531 0.0124482 0.0124368 0.012419 0.0123947 0.0123639 0.0123267 0.0122831 0.0122335 0.0121787 0.0121185 0.0120531 0.0119824 0.0119063 0.011825 0.0117383 0.0116453 0.0115449 0.0114372 0.011322 0.0111994 0.0110694 0.0109319 0.0107871 0.0106335 0.0104697 0.0102957 0.0101114 0.00991693 0.00971225 0.00949735 0.00927223 0.00903698 0.00879166 0.00853627 0.00827082 0.00799529 0.00770971 0.00741405 0.00710833 0.00679556 0.00647875 0.0061579 0.00583301 0.00550409 0.00517113 0.00483414 0.0044931 0.00415424 0.00382376 0.00350166 0.00318794 0.00288259 0.00258563 0.00229706 0.00201686 0.00175097 0.00150531 0.0012799 0.00107473 0.00088979 0.000725092 0.000580632 0.00045641 0.000349439 0.000256731 0.000178285 0.000114102 6.41826e-05 2.85256e-05 7.13141e-06 0 0 1.12554e-05 4.50214e-05 0.000101298 0.000180086 0.000281384 0.000405193 0.000551513 0.000720343 0.000914831 0.00113812 0.00139022 0.00167112 0.00198082 0.00231933 0.00268665 0.00308276 0.00349782 0.00392194 0.00435513 0.00479739 0.00524872 0.00570911 0.00617858 0.00665711 0.00713519 0.0076033 0.00806144 0.00850961 0.00894781 0.00937603 0.00979428 0.0102026 0.0105965 0.0109719 0.0113286 0.0116667 0.0119861 0.0122869 0.0125691 0.0128326 0.0130778 0.0133049 0.0135138 0.0137047 0.0138774 0.0140321 0.0141687 0.0142871 0.0143901 0.0144803 0.0145577 0.0146224 0.0146742 0.0147133 0.0147395 0.014753 0.0147562 0.0147516 0.0147392 0.0147191 0.0146911 0.0146554 0.014612 0.0145607 0.0145024 0.0144376 0.0143665 0.0142889 0.0142049 0.0141145 0.0140177 0.0139145 0.0138036 0.013684 0.0135555 0.0134183 0.0132722 0.0131174 0.0129537 0.0127812 0.0125984 0.0124035 0.0121966 0.0119777 0.0117468 0.0115039 0.011249 0.0109821 0.0107034 0.0104128 0.0101105 0.00979647 0.00947065 0.00913308 0.00878375 0.00842265 0.00805333 0.00767929 0.00730055 0.0069171 0.00652894 0.00613607 0.0057385 0.00533621 0.00493643 0.00454635 0.00416598 0.00379532 0.00343436 0.00308312 0.00274157 0.00240974 0.00209458 0.00180309 0.00153525 0.00129106 0.00107054 0.00087367 0.000700458 0.000550904 0.000421786 0.000309883 0.000215197 0.000137726 7.74709e-05 3.44315e-05 8.60787e-06 0 0 1.33665e-05 5.34661e-05 0.000120299 0.000213865 0.000334163 0.000481195 0.00065496 0.000855458 0.00108594 0.00134965 0.00164659 0.00197677 0.00234017 0.00273681 0.00316668 0.00362978 0.00411466 0.00460986 0.00511539 0.00563125 0.00615743 0.00669394 0.00724077 0.00779793 0.00835449 0.00889953 0.00943303 0.00995502 0.0104655 0.0109644 0.0114518 0.0119277 0.012387 0.0128248 0.0132411 0.0136358 0.014009 0.0143606 0.0146907 0.0149993 0.0152866 0.0155528 0.0157981 0.0160223 0.0162256 0.0164078 0.016569 0.0167091 0.0168313 0.0169385 0.0170308 0.017108 0.0171703 0.0172176 0.0172499 0.0172673 0.0172725 0.0172685 0.0172553 0.0172328 0.0172011 0.0171601 0.0171099 0.0170505 0.0169826 0.016907 0.0168239 0.016733 0.0166345 0.0165284 0.0164146 0.0162931 0.0161627 0.0160219 0.0158707 0.0157092 0.0155374 0.0153552 0.0151627 0.0149598 0.0147448 0.0145158 0.014273 0.0140161 0.0137454 0.0134607 0.013162 0.0128494 0.0125231 0.0121832 0.0118297 0.0114626 0.011082 0.0106878 0.01028 0.00985863 0.00942776 0.00899147 0.00854975 0.0081026 0.00765003 0.00719203 0.0067286 0.00625975 0.00579374 0.00533884 0.00489506 0.00446239 0.00404083 0.00363039 0.00323106 0.00284284 0.00247384 0.00213217 0.00181784 0.00153083 0.00127115 0.0010388 0.000833785 0.000656096 0.000502323 0.000369054 0.000256287 0.000164024 9.22635e-05 4.1006e-05 1.02515e-05 0 0 1.5687e-05 6.27482e-05 0.000141183 0.000250993 0.000392176 0.000564734 0.000768665 0.00100397 0.00127394 0.00158187 0.00192775 0.0023116 0.0027334 0.00319315 0.00369086 0.00422653 0.004787 0.00535912 0.00594288 0.00653828 0.00714533 0.00776402 0.00839435 0.00903633 0.00967754 0.0103056 0.0109204 0.011522 0.0121105 0.0126857 0.0132478 0.0137967 0.0143266 0.0148319 0.0153126 0.0157686 0.0161999 0.0166067 0.0169887 0.0173461 0.0176791 0.017988 0.0182727 0.0185333 0.0187697 0.018982 0.0191702 0.0193342 0.0194774 0.0196033 0.0197119 0.0198031 0.0198769 0.0199334 0.0199726 0.0199944 0.0200021 0.0199989 0.019985 0.0199601 0.0199244 0.0198779 0.0198205 0.0197523 0.0196741 0.0195869 0.0194907 0.0193855 0.0192712 0.0191479 0.0190156 0.0188743 0.0187224 0.0185586 0.0183827 0.0181947 0.0179948 0.0177829 0.0175589 0.0173229 0.0170728 0.0168068 0.0165247 0.0162267 0.0159126 0.0155824 0.0152363 0.0148741 0.0144962 0.0141028 0.0136938 0.0132693 0.0128293 0.0123738 0.0119028 0.0114163 0.0109189 0.0104153 0.00990549 0.00938952 0.00886735 0.00833899 0.00780444 0.0072637 0.00672617 0.00620123 0.00568889 0.00518914 0.004702 0.00422746 0.00376551 0.00331616 0.00288874 0.00249258 0.00212767 0.00179402 0.00149163 0.00122049 0.00098061 0.000771985 0.000591051 0.000434242 0.000301557 0.000192996 0.00010856 4.82491e-05 1.20623e-05 0 0 1.82169e-05 7.28675e-05 0.000163952 0.00029147 0.000455422 0.000655808 0.000892627 0.00116588 0.00147884 0.00183478 0.0022337 0.00267561 0.00316049 0.00368836 0.0042592 0.00487303 0.00551486 0.00616971 0.00683758 0.00751848 0.0082124 0.00891935 0.00963931 0.0103723 0.0111043 0.0118214 0.0125235 0.0132106 0.0138828 0.01454 0.0151822 0.0158095 0.0164153 0.0169932 0.0175431 0.018065 0.018559 0.019025 0.0194631 0.0198732 0.0202555 0.0206104 0.0209378 0.0212377 0.02151 0.0217549 0.0219723 0.0221622 0.0223284 0.0224747 0.0226011 0.0227075 0.0227941 0.0228608 0.0229075 0.0229344 0.022945 0.0229429 0.0229283 0.0229011 0.0228613 0.0228088 0.0227438 0.0226662 0.022577 0.0224773 0.022367 0.0222463 0.022115 0.0219732 0.0218208 0.021658 0.021483 0.0212941 0.0210914 0.0208749 0.0206445 0.0204003 0.0201423 0.0198704 0.0195825 0.0192764 0.018952 0.0186093 0.0182484 0.0178693 0.0174719 0.0170562 0.0166227 0.0161715 0.0157028 0.0152165 0.0147126 0.0141912 0.0136522 0.0130955 0.0125266 0.0119507 0.0113678 0.0107778 0.0101809 0.00957697 0.00896603 0.00834808 0.00773371 0.0071335 0.00654746 0.00597558 0.00541787 0.00487432 0.00434493 0.00382971 0.00333929 0.0028843 0.00246475 0.00208064 0.00173197 0.00141873 0.00114093 0.000898573 0.00068797 0.000505447 0.000351005 0.000224643 0.000126362 5.61608e-05 1.40402e-05 0 0 2.09222e-05 8.3689e-05 0.0001883 0.000334756 0.000523056 0.000753201 0.00102519 0.00133902 0.0016979 0.00210501 0.00256036 0.00306394 0.00361576 0.00421582 0.00486411 0.00556064 0.0062885 0.0070308 0.00778752 0.00855868 0.00934427 0.0101443 0.0109587 0.0117876 0.0126153 0.0134262 0.0142202 0.0149974 0.0157579 0.0165014 0.0172282 0.0179382 0.018624 0.0192784 0.0199014 0.020493 0.0210531 0.0215819 0.0220792 0.0225451 0.0229798 0.0233834 0.0237561 0.0240978 0.0244084 0.024688 0.0249367 0.0251543 0.0253451 0.0255133 0.0256589 0.0257818 0.0258822 0.0259599 0.026015 0.0260475 0.0260615 0.0260609 0.0260459 0.0260164 0.0259724 0.0259139 0.0258409 0.0257534 0.0256526 0.0255397 0.0254146 0.0252774 0.0251281 0.0249666 0.024793 0.0246072 0.0244075 0.0241921 0.0239608 0.0237139 0.0234511 0.0231726 0.0228783 0.0225683 0.0222401 0.0218913 0.0215219 0.0211319 0.0207214 0.0202903 0.0198385 0.0193662 0.0188738 0.0183616 0.0178296 0.017278 0.0167066 0.0161154 0.0155046 0.014874 0.0142296 0.0135773 0.0129172 0.0122492 0.0115734 0.0108897 0.0101982 0.00949877 0.00880333 0.00812367 0.00745979 0.00681168 0.00617935 0.0055628 0.00496202 0.00437702 0.00381982 0.00330243 0.00282486 0.00238711 0.00198918 0.00163106 0.00131277 0.00103429 0.000791875 0.000581785 0.000404018 0.000258571 0.000145446 6.46428e-05 1.61607e-05 0 0 2.37693e-05 9.50774e-05 0.000213924 0.000380309 0.000594234 0.000855696 0.0011647 0.00152124 0.00192838 0.00238917 0.00290362 0.00347173 0.0040935 0.00476892 0.005498 0.00628074 0.00709823 0.00793155 0.00878071 0.0096457 0.0105265 0.0114232 0.0123357 0.013264 0.0141909 0.0150991 0.0159885 0.0168592 0.0177111 0.0185443 0.0193588 0.0201545 0.0209234 0.0216573 0.0223562 0.0230202 0.0236492 0.0242433 0.0248024 0.0253265 0.0258158 0.0262705 0.0266906 0.027076 0.0274268 0.027743 0.0280245 0.0282714 0.0284883 0.0286798 0.0288458 0.0289863 0.0291015 0.0291912 0.0292554 0.0292942 0.029312 0.0293134 0.0292982 0.0292666 0.0292185 0.0291539 0.0290728 0.0289752 0.0288624 0.0287358 0.0285953 0.028441 0.0282728 0.0280907 0.0278948 0.027685 0.0274594 0.027216 0.0269549 0.0266759 0.0263792 0.0260647 0.0257324 0.0253823 0.0250119 0.0246184 0.0242019 0.0237625 0.0233 0.0228146 0.0223061 0.0217747 0.0212208 0.0206449 0.0200471 0.0194274 0.0187857 0.0181221 0.0174365 0.016729 0.0160062 0.0152746 0.0145343 0.0137852 0.0130275 0.0122609 0.0114857 0.0107017 0.00992201 0.00915975 0.00841489 0.00768743 0.00697738 0.00628473 0.00560949 0.00495165 0.00432468 0.00374206 0.00320378 0.00270985 0.00226026 0.00185501 0.00149411 0.00117755 0.000901561 0.000662371 0.00045998 0.000294387 0.000165593 7.35968e-05 1.83992e-05 0 0 2.67582e-05 0.000107033 0.000240823 0.000428131 0.000668954 0.000963294 0.00131115 0.00171252 0.00217027 0.00268727 0.00326351 0.00389899 0.00459371 0.00534768 0.00616089 0.00703334 0.00794403 0.00887196 0.00981713 0.0107795 0.0117592 0.0127561 0.0137702 0.0148016 0.0158312 0.0168401 0.0178283 0.0187958 0.0197425 0.0206686 0.0215739 0.0224585 0.0233135 0.0241298 0.0249076 0.0256467 0.0263473 0.0270093 0.0276326 0.0282174 0.0287637 0.0292716 0.0297412 0.0301724 0.0305652 0.0309197 0.0312359 0.0315137 0.0317581 0.0319741 0.0321618 0.0323211 0.032452 0.0325545 0.0326286 0.0326744 0.0326966 0.0327003 0.0326854 0.0326518 0.0325997 0.0325289 0.0324395 0.0323316 0.0322064 0.0320656 0.0319091 0.031737 0.0315491 0.0313455 0.0311263 0.0308914 0.0306386 0.030366 0.0300735 0.0297611 0.0294288 0.0290766 0.0287045 0.0283125 0.0278979 0.0274577 0.0269921 0.0265009 0.0259843 0.0254422 0.0248746 0.0242815 0.0236636 0.0230215 0.0223552 0.0216647 0.02095 0.0202111 0.019448 0.0186607 0.0178565 0.0170426 0.0162191 0.0153859 0.0145431 0.0136907 0.0128286 0.0119568 0.0110897 0.0102417 0.00941275 0.00860283 0.00781195 0.00704012 0.00628733 0.00555359 0.00485388 0.00420319 0.00360151 0.00304885 0.00254521 0.00209058 0.00168496 0.00132836 0.00101703 0.000747204 0.000518892 0.000332091 0.000186801 8.30227e-05 2.07557e-05 0 0 2.98887e-05 0.000119555 0.000268998 0.000478219 0.000747218 0.00107599 0.00146455 0.00191288 0.00242359 0.0029993 0.00364001 0.0043457 0.00511639 0.00595208 0.00685276 0.00781843 0.00882592 0.00985204 0.0108968 0.0119602 0.0130422 0.0141429 0.0152622 0.0164002 0.0175361 0.0186492 0.0197396 0.0208073 0.0218521 0.0228743 0.0238736 0.0248502 0.0257943 0.026696 0.0275555 0.0283726 0.0291474 0.0298798 0.03057 0.0312178 0.0318234 0.0323868 0.0329079 0.0333869 0.0338237 0.0342183 0.0345708 0.034881 0.0351544 0.0353964 0.0356069 0.035786 0.0359337 0.0360499 0.0361347 0.0361881 0.0362153 0.0362217 0.0362072 0.036172 0.0361158 0.0360389 0.0359411 0.0358225 0.0356846 0.0355292 0.0353561 0.0351654 0.034957 0.0347311 0.0344875 0.0342263 0.0339452 0.033642 0.0333168 0.0329694 0.0325999 0.0322084 0.0317947 0.0313589 0.0308981 0.0304092 0.0298922 0.0293473 0.0287742 0.0281731 0.027544 0.0268869 0.0262024 0.0254915 0.024754 0.02399 0.0231995 0.0223825 0.0215391 0.020669 0.0197805 0.0188813 0.0179716 0.0170513 0.0161204 0.0151789 0.0142268 0.0132641 0.0123065 0.0113696 0.0104534 0.00955787 0.00868306 0.00782895 0.00699555 0.00618285 0.00540742 0.00468582 0.00401805 0.00340412 0.00284402 0.00233776 0.00188533 0.00148673 0.00113828 0.000836284 0.000580753 0.000371682 0.000209071 9.29205e-05 2.32301e-05 0 0 3.3161e-05 0.000132644 0.000298449 0.000530576 0.000829025 0.0011938 0.00162489 0.0021223 0.00268833 0.00332527 0.00403312 0.00481188 0.00566155 0.00658213 0.00757361 0.00863601 0.00974388 0.0108718 0.0120197 0.0131877 0.0143757 0.0155837 0.0168118 0.0180599 0.0193056 0.0205265 0.0217225 0.0228936 0.0240399 0.0251613 0.0262579 0.0273296 0.0283658 0.0293559 0.0302999 0.0311977 0.0320494 0.032855 0.0336144 0.0343277 0.0349949 0.0356159 0.0361908 0.0367196 0.0372023 0.0376388 0.0380291 0.0383734 0.0386772 0.0389465 0.0391812 0.0393812 0.0395466 0.0396775 0.0397737 0.0398353 0.039868 0.0398775 0.0398639 0.0398271 0.0397671 0.0396839 0.0395775 0.039448 0.039297 0.0391264 0.0389361 0.0387262 0.0384966 0.0382473 0.0379783 0.0376897 0.0373791 0.0370441 0.0366846 0.0363008 0.0358926 0.0354599 0.0350029 0.0345215 0.0340125 0.0334728 0.0329025 0.0323015 0.0316698 0.0310074 0.0303143 0.0295906 0.0288371 0.0280547 0.0272434 0.0264033 0.0255343 0.0246364 0.0237096 0.022754 0.0217782 0.0207908 0.0197918 0.0187813 0.0177592 0.0167256 0.0156804 0.0146237 0.0135723 0.0125434 0.0115368 0.0105526 0.00959071 0.00865124 0.00773415 0.00683943 0.00598529 0.00518995 0.00445341 0.00377566 0.00315671 0.00259656 0.0020952 0.00165264 0.00126531 0.000929612 0.000645564 0.000413161 0.000232403 0.00010329 2.58226e-05 0 0 3.6575e-05 0.0001463 0.000329175 0.0005852 0.000914375 0.0013167 0.00179217 0.0023408 0.00296449 0.00366518 0.00444285 0.00529752 0.00622918 0.00723782 0.00832346 0.00948608 0.0106979 0.0119312 0.0131859 0.014462 0.0157596 0.0170785 0.0184189 0.0197808 0.0211398 0.0224719 0.0237769 0.0250549 0.0263