<?xml version="1.0"?> 
<VTKFile type="StructuredGrid" version="0.1"> 
<StructuredGrid WholeExtent="0 128 0 128 0 0"> 
<Piece Extent="0 128 0 128 0 0"> 
<PointData>
<DataArray type="Float32" Name="u" format="ascii" NumberOfComponents="1"> 
0 0 0 0 0 0 0 0 0 0 0 0 0 0 0 0 0 0 0 0 0 0 0 0 0 0 0 0 0 0 0 0 0 0 0 0 0 0 0 0 0 0 0 0 0 0 0 0 0 0 0 0 0 0 0 0 0 0 0 0 0 0 0 0 0 0 0 0 0 0 0 0 0 0 0 0 0 0 0 0 0 0 0 0 0 0 0 0 0 0 0 0 0 0 0 0 0 0 0 0 0 0 0 0 0 0 0 0 0 0 0 0 0 0 0 0 0 0 0 0 0 0 0 0 0 0 0 0 0 0 -7.66371e-08 -3.06548e-07 -6.89734e-07 -1.22619e-06 -1.91593e-06 -2.75894e-06 -3.75522e-06 -4.90477e-06 -6.08956e-06 -7.19154e-06 -8.2107e-06 -9.14705e-06 -1.00006e-05 -1.07713e-05 -1.14592e-05 -1.20643e-05 -1.25236e-05 -1.2774e-05 -1.28155e-05 -1.26482e-05 -1.2272e-05 -1.1687e-05 -1.08931e-05 -9.89029e-06 -8.76904e-06 -7.6197e-06 -6.44226e-06 -5.23673e-06 -4.00311e-06 -2.7414e-06 -1.45159e-06 -1.33692e-07 1.09236e-06 2.10664e-06 2.90914e-06 3.49986e-06 3.87879e-06 4.04595e-06 4.00133e-06 3.74493e-06 3.26735e-06 2.5592e-06 1.62047e-06 4.51172e-07 -9.48701e-07 -2.57915e-06 -4.44017e-06 -6.53176e-06 -8.73378e-06 -1.0926e-05 -1.31086e-05 -1.52814e-05 -1.74444e-05 -1.95977e-05 -2.17413e-05 -2.38751e-05 -2.58723e-05 -2.7606e-05 -2.90761e-05 -3.02827e-05 -3.12257e-05 -3.19053e-05 -3.23212e-05 -3.24737e-05 -3.23627e-05 -3.19885e-05 -3.1351e-05 -3.04502e-05 -2.92862e-05 -2.78589e-05 -2.61683e-05 -2.42145e-05 -2.2123e-05 -2.00197e-05 -1.79045e-05 -1.57774e-05 -1.36384e-05 -1.14875e-05 -9.3247e-06 -7.15001e-06 -5.08095e-06 -3.23506e-06 -1.61233e-06 -2.1277e-07 9.63625e-07 1.91686e-06 2.64692e-06 3.15382e-06 3.44682e-06 3.53519e-06 3.41892e-06 3.09803e-06 2.5725e-06 1.84234e-06 9.07543e-07 -2.31882e-07 -1.46091e-06 -2.66453e-06 -3.84272e-06 -4.99549e-06 -6.12285e-06 -7.22478e-06 -8.3013e-06 -9.3524e-06 -1.02924e-05 -1.10358e-05 -1.15825e-05 -1.19325e-05 -1.20858e-05 -1.20424e-05 -1.18023e-05 -1.13655e-05 -1.07918e-05 -1.01408e-05 -9.41256e-06 -8.60706e-06 -7.72431e-06 -6.76431e-06 -5.72706e-06 -4.61255e-06 -3.53148e-06 -2.59456e-06 -1.80178e-06 -1.15314e-06 -6.48639e-07 -2.88284e-07 -7.2071e-08 0 0 -3.06548e-07 -1.22619e-06 -2.75894e-06 -4.90477e-06 -7.66371e-06 -1.10357e-05 -1.50209e-05 -1.96191e-05 -2.43582e-05 -2.87661e-05 -3.28428e-05 -3.65882e-05 -4.00023e-05 -4.30852e-05 -4.58369e-05 -4.82573e-05 -5.00943e-05 -5.10959e-05 -5.12621e-05 -5.05928e-05 -4.9088e-05 -4.67479e-05 -4.35722e-05 -3.95611e-05 -3.50761e-05 -3.04788e-05 -2.5769e-05 -2.09469e-05 -1.60125e-05 -1.09656e-05 -5.80637e-06 -5.34768e-07 4.36946e-06 8.42657e-06 1.16366e-05 1.39994e-05 1.55152e-05 1.61838e-05 1.60053e-05 1.49797e-05 1.30694e-05 1.02368e-05 6.48189e-06 1.80469e-06 -3.7948e-06 -1.03166e-05 -1.77607e-05 -2.61271e-05 -3.49351e-05 -4.37042e-05 -5.24343e-05 -6.11255e-05 -6.97777e-05 -7.83909e-05 -8.69652e-05 -9.55006e-05 -0.000103489 -0.000110424 -0.000116304 -0.000121131 -0.000124903 -0.000127621 -0.000129285 -0.000129895 -0.000129451 -0.000127954 -0.000125404 -0.000121801 -0.000117145 -0.000111435 -0.000104673 -9.68579e-05 -8.84922e-05 -8.00789e-05 -7.16181e-05 -6.31096e-05 -5.45536e-05 -4.595e-05 -3.72988e-05 -2.86e-05 -2.03238e-05 -1.29402e-05 -6.44933e-06 -8.51082e-07 3.8545e-06 7.66742e-06 1.05877e-05 1.26153e-05 1.37873e-05 1.41407e-05 1.36757e-05 1.23921e-05 1.029e-05 7.36934e-06 3.63017e-06 -9.27528e-07 -5.84365e-06 -1.06581e-05 -1.53709e-05 -1.9982e-05 -2.44914e-05 -2.88991e-05 -3.32052e-05 -3.74096e-05 -4.11698e-05 -4.41432e-05 -4.63299e-05 -4.77298e-05 -4.8343e-05 -4.81694e-05 -4.72091e-05 -4.54621e-05 -4.31671e-05 -4.05632e-05 -3.76502e-05 -3.44283e-05 -3.08973e-05 -2.70572e-05 -2.29082e-05 -1.84502e-05 -1.41259e-05 -1.03782e-05 -7.2071e-06 -4.61255e-06 -2.59456e-06 -1.15314e-06 -2.88284e-07 0 0 -6.89734e-07 -2.75894e-06 -6.2076e-06 -1.10357e-05 -1.72433e-05 -2.48304e-05 -3.3797e-05 -4.4143e-05 -5.4806e-05 -6.47238e-05 -7.38963e-05 -8.23234e-05 -9.00053e-05 -9.69418e-05 -0.000103133 -0.000108579 -0.000112712 -0.000114966 -0.00011534 -0.000113834 -0.000110448 -0.000105183 -9.80375e-05 -8.90126e-05 -7.89213e-05 -6.85773e-05 -5.79803e-05 -4.71306e-05 -3.6028e-05 -2.46726e-05 -1.30643e-05 -1.20323e-06 9.83128e-06 1.89598e-05 2.61822e-05 3.14987e-05 3.49091e-05 3.64136e-05 3.6012e-05 3.37044e-05 2.94061e-05 2.30328e-05 1.45842e-05 4.06055e-06 -8.53831e-06 -2.32123e-05 -3.99615e-05 -5.87859e-05 -7.8604e-05 -9.83344e-05 -0.000117977 -0.000137532 -0.000157 -0.00017638 -0.000195672 -0.000214876 -0.000232851 -0.000248454 -0.000261685 -0.000272544 -0.000281032 -0.000287147 -0.000290891 -0.000292263 -0.000291264 -0.000287896 -0.000282159 -0.000274052 -0.000263576 -0.00025073 -0.000235515 -0.00021793 -0.000199107 -0.000180178 -0.000161141 -0.000141997 -0.000122746 -0.000103387 -8.39223e-05 -6.43501e-05 -4.57286e-05 -2.91155e-05 -1.4511e-05 -1.91493e-06 8.67263e-06 1.72517e-05 2.38223e-05 2.83844e-05 3.10214e-05 3.18167e-05 3.07703e-05 2.78822e-05 2.31525e-05 1.6581e-05 8.16789e-06 -2.08694e-06 -1.31482e-05 -2.39807e-05 -3.45845e-05 -4.49594e-05 -5.51056e-05 -6.50231e-05 -7.47117e-05 -8.41716e-05 -9.2632e-05 -9.93222e-05 -0.000104242 -0.000107392 -0.000108772 -0.000108381 -0.000106221 -0.00010229 -9.71261e-05 -9.12672e-05 -8.4713e-05 -7.74636e-05 -6.95188e-05 -6.08788e-05 -5.15435e-05 -4.15129e-05 -3.17833e-05 -2.3351e-05 -1.6216e-05 -1.03782e-05 -5.83775e-06 -2.59456e-06 -6.48639e-07 0 0 -1.22619e-06 -4.90477e-06 -1.10357e-05 -1.96191e-05 -3.06548e-05 -4.4143e-05 -6.00835e-05 -7.84764e-05 -9.7433e-05 -0.000115065 -0.000131371 -0.000146353 -0.000160009 -0.000172341 -0.000183348 -0.000193029 -0.000200377 -0.000204384 -0.000205048 -0.000202371 -0.000196352 -0.000186991 -0.000174289 -0.000158245 -0.000140305 -0.000121915 -0.000103076 -8.37877e-05 -6.40498e-05 -4.38624e-05 -2.32255e-05 -2.13907e-06 1.74778e-05 3.37063e-05 4.65462e-05 5.59977e-05 6.20607e-05 6.47352e-05 6.40213e-05 5.99189e-05 5.22776e-05 4.09472e-05 2.59276e-05 7.21876e-06 -1.51792e-05 -4.12664e-05 -7.10427e-05 -0.000104508 -0.00013974 -0.000174817 -0.000209737 -0.000244502 -0.000279111 -0.000313564 -0.000347861 -0.000382002 -0.000413957 -0.000441696 -0.000465218 -0.000484523 -0.000499612 -0.000510484 -0.00051714 -0.000519579 -0.000517803 -0.000511816 -0.000501616 -0.000487203 -0.000468579 -0.000445742 -0.000418693 -0.000387431 -0.000353969 -0.000320316 -0.000286472 -0.000252438 -0.000218214 -0.0001838 -0.000149195 -0.0001144 -8.12952e-05 -5.17609e-05 -2.57973e-05 -3.40433e-06 1.5418e-05 3.06697e-05 4.23507e-05 5.04611e-05 5.51491e-05 5.6563e-05 5.47027e-05 4.95684e-05 4.11599e-05 2.94774e-05 1.45207e-05 -3.71011e-06 -2.33746e-05 -4.26324e-05 -6.14835e-05 -7.99279e-05 -9.79656e-05 -0.000115597 -0.000132821 -0.000149638 -0.000164679 -0.000176573 -0.00018532 -0.000190919 -0.000193372 -0.000192678 -0.000188837 -0.000181848 -0.000172669 -0.000162253 -0.000150601 -0.000137713 -0.000123589 -0.000108229 -9.16329e-05 -7.38007e-05 -5.65037e-05 -4.15129e-05 -2.88284e-05 -1.84502e-05 -1.03782e-05 -4.61255e-06 -1.15314e-06 0 0 -1.91593e-06 -7.66371e-06 -1.72433e-05 -3.06548e-05 -4.78982e-05 -6.89734e-05 -9.38804e-05 -0.000122619 -0.000152239 -0.000179788 -0.000205267 -0.000228676 -0.000250015 -0.000269283 -0.000286481 -0.000301608 -0.00031309 -0.00031935 -0.000320388 -0.000316205 -0.0003068 -0.000292174 -0.000272326 -0.000247257 -0.000219226 -0.000190492 -0.000161057 -0.000130918 -0.000100078 -6.8535e-05 -3.62898e-05 -3.3423e-06 2.73091e-05 5.2666e-05 7.27285e-05 8.74964e-05 9.69698e-05 0.000101149 0.000100033 9.36232e-05 8.16837e-05 6.39799e-05 4.05118e-05 1.12793e-05 -2.37175e-05 -6.44787e-05 -0.000111004 -0.000163294 -0.000218344 -0.000273151 -0.000327714 -0.000382034 -0.000436111 -0.000489943 -0.000543533 -0.000596878 -0.000646808 -0.00069015 -0.000726903 -0.000757067 -0.000780644 -0.000797631 -0.000808031 -0.000811842 -0.000809068 -0.000799712 -0.000783774 -0.000761255 -0.000732154 -0.000696472 -0.000654208 -0.000605362 -0.000553076 -0.000500493 -0.000447613 -0.000394435 -0.00034096 -0.000287187 -0.000233118 -0.00017875 -0.000127024 -8.08765e-05 -4.03083e-05 -5.31926e-06 2.40906e-05 4.79214e-05 6.6173e-05 7.88455e-05 8.61705e-05 8.83797e-05 8.5473e-05 7.74506e-05 6.43124e-05 4.60584e-05 2.26886e-05 -5.79705e-06 -3.65228e-05 -6.66131e-05 -9.6068e-05 -0.000124887 -0.000153071 -0.00018062 -0.000207533 -0.00023381 -0.000257311 -0.000275895 -0.000289562 -0.000298311 -0.000302144 -0.000301059 -0.000295057 -0.000284138 -0.000269795 -0.00025352 -0.000235314 -0.000215177 -0.000193108 -0.000169108 -0.000143176 -0.000115314 -8.8287e-05 -6.48639e-05 -4.50444e-05 -2.88284e-05 -1.6216e-05 -7.2071e-06 -1.80178e-06 0 0 -2.75894e-06 -1.10357e-05 -2.48304e-05 -4.4143e-05 -6.89734e-05 -9.93217e-05 -0.000135188 -0.000176572 -0.000219224 -0.000258895 -0.000295585 -0.000329294 -0.000360021 -0.000387767 -0.000412532 -0.000434316 -0.000450849 -0.000459863 -0.000461359 -0.000455335 -0.000441792 -0.000420731 -0.00039215 -0.00035605 -0.000315685 -0.000274309 -0.000231921 -0.000188522 -0.000144112 -9.86904e-05 -5.22573e-05 -4.81291e-06 3.93251e-05 7.58391e-05 0.000104729 0.000125995 0.000139637 0.000145654 0.000144048 0.000134817 0.000117625 9.21311e-05 5.8337e-05 1.62422e-05 -3.41532e-05 -9.28493e-05 -0.000159846 -0.000235144 -0.000314416 -0.000393338 -0.000471909 -0.000550129 -0.000627999 -0.000705518 -0.000782687 -0.000859505 -0.000931404 -0.000993816 -0.00104674 -0.00109018 -0.00112413 -0.00114859 -0.00116356 -0.00116905 -0.00116506 -0.00115159 -0.00112864 -0.00109621 -0.0010543 -0.00100292 -0.000942059 -0.000871721 -0.00079643 -0.00072071 -0.000644562 -0.000567987 -0.000490982 -0.00041355 -0.000335689 -0.0002574 -0.000182914 -0.000116462 -5.80439e-05 -7.65974e-06 3.46905e-05 6.90068e-05 9.52891e-05 0.000113537 0.000124085 0.000127267 0.000123081 0.000111529 9.26099e-05 6.63241e-05 3.26715e-05 -8.34775e-06 -5.25929e-05 -9.59229e-05 -0.000138338 -0.000179838 -0.000220423 -0.000260092 -0.000298847 -0.000336686 -0.000370528 -0.000397289 -0.000416969 -0.000429568 -0.000435087 -0.000433525 -0.000424882 -0.000409159 -0.000388504 -0.000365069 -0.000338852 -0.000309854 -0.000278075 -0.000243515 -0.000206174 -0.000166052 -0.000127133 -9.34041e-05 -6.48639e-05 -4.15129e-05 -2.3351e-05 -1.03782e-05 -2.59456e-06 0 0 -3.75522e-06 -1.50209e-05 -3.3797e-05 -6.00835e-05 -9.38804e-05 -0.000135188 -0.000184006 -0.000240334 -0.000298388 -0.000352385 -0.000402324 -0.000448205 -0.000490029 -0.000527794 -0.000561502 -0.000591152 -0.000613656 -0.000625925 -0.000627961 -0.000619762 -0.000601329 -0.000572661 -0.00053376 -0.000484624 -0.000429683 -0.000373365 -0.000315671 -0.0002566 -0.000196153 -0.000134329 -7.1128e-05 -6.55091e-06 5.35259e-05 0.000103225 0.000142548 0.000171493 0.000190061 0.000198252 0.000196065 0.000183501 0.0001601 0.000125401 7.94031e-05 2.21074e-05 -4.64864e-05 -0.000126378 -0.000217568 -0.000320056 -0.000427955 -0.000535376 -0.00064232 -0.000748787 -0.000854777 -0.000960289 -0.00106532 -0.00116988 -0.00126774 -0.00135269 -0.00142473 -0.00148385 -0.00153006 -0.00156336 -0.00158374 -0.00159121 -0.00158577 -0.00156744 -0.0015362 -0.00149206 -0.00143502 -0.00136508 -0.00128225 -0.00118651 -0.00108403 -0.000980967 -0.000877321 -0.000773093 -0.000668282 -0.000562887 -0.00045691 -0.00035035 -0.000248967 -0.000158518 -7.90042e-05 -1.04258e-05 4.72176e-05 9.39259e-05 0.000129699 0.000154537 0.000168894 0.000173224 0.000167527 0.000151803 0.000126052 9.02745e-05 4.44696e-05 -1.13622e-05 -7.15848e-05 -0.000130562 -0.000188293 -0.000244779 -0.00030002 -0.000354014 -0.000406764 -0.000458267 -0.00050433 -0.000540754 -0.000567541 -0.00058469 -0.000592202 -0.000590076 -0.000578312 -0.000556911 -0.000528798 -0.000496899 -0.000461215 -0.000421746 -0.000378491 -0.000331451 -0.000280626 -0.000226015 -0.000173043 -0.000127133 -8.8287e-05 -5.65037e-05 -3.17833e-05 -1.41259e-05 -3.53148e-06 0 0 -4.90477e-06 -1.96191e-05 -4.4143e-05 -7.84764e-05 -0.000122619 -0.000176572 -0.000240334 -0.000313906 -0.000389732 -0.000460258 -0.000525485 -0.000585411 -0.000640037 -0.000689364 -0.00073339 -0.000772116 -0.000801509 -0.000817535 -0.000820193 -0.000809485 -0.000785409 -0.000747966 -0.000697156 -0.000632978 -0.000561218 -0.000487661 -0.000412305 -0.000335151 -0.000256199 -0.00017545 -9.29019e-05 -8.55628e-06 6.99113e-05 0.000134825 0.000186185 0.000223991 0.000248243 0.000258941 0.000256085 0.000239675 0.00020911 0.000163789 0.00010371 2.8875e-05 -6.07169e-05 -0.000165065 -0.000284171 -0.000418033 -0.000558962 -0.000699267 -0.000838949 -0.000978008 -0.00111644 -0.00125426 -0.00139144 -0.00152801 -0.00165583 -0.00176678 -0.00186087 -0.00193809 -0.00199845 -0.00204194 -0.00206856 -0.00207831 -0.00207121 -0.00204726 -0.00200646 -0.00194881 -0.00187432 -0.00178297 -0.00167477 -0.00154973 -0.00141587 -0.00128126 -0.00114589 -0.00100975 -0.000872858 -0.0007352 -0.000596781 -0.000457601 -0.000325181 -0.000207044 -0.000103189 -1.36173e-05 6.1672e-05 0.000122679 0.000169403 0.000201844 0.000220596 0.000226252 0.000218811 0.000198274 0.00016464 0.000117909 5.80828e-05 -1.48404e-05 -9.34985e-05 -0.00017053 -0.000245934 -0.000319712 -0.000391862 -0.000462386 -0.000531283 -0.000598553 -0.000658716 -0.000706291 -0.000741278 -0.000763677 -0.000773488 -0.000770711 -0.000755346 -0.000727393 -0.000690674 -0.000649011 -0.000602404 -0.000550852 -0.000494356 -0.000432916 -0.000366532 -0.000295203 -0.000226015 -0.000166052 -0.000115314 -7.38007e-05 -4.15129e-05 -1.84502e-05 -4.61255e-06 0 0 -6.06457e-06 -2.42583e-05 -5.45811e-05 -9.70331e-05 -0.000151614 -0.000218325 -0.000297164 -0.000388133 -0.000481743 -0.000568507 -0.000648426 -0.000721499 -0.000787727 -0.000847109 -0.000899645 -0.000945335 -0.000979185 -0.000996199 -0.000996377 -0.000979719 -0.000946226 -0.000895896 -0.000828731 -0.00074473 -0.000651222 -0.000555538 -0.000457676 -0.000357636 -0.00025542 -0.000151026 -4.44552e-05 6.42931e-05 0.000165535 0.000249588 0.00031645 0.000366124 0.000398607 0.000413901 0.000412005 0.00039292 0.000355893 0.000300173 0.00022576 0.000132654 2.08552e-05 -0.000109637 -0.000258822 -0.000426701 -0.000603566 -0.000779714 -0.000955144 -0.00112986 -0.00130385 -0.00147713 -0.00164968 -0.00182152 -0.0019824 -0.00212206 -0.00224051 -0.00233775 -0.00241378 -0.0024686 -0.0025022 -0.00251459 -0.00250578 -0.00247578 -0.00242458 -0.00235219 -0.00225861 -0.00214384 -0.00200787 -0.0018507 -0.00168249 -0.00151338 -0.00134337 -0.00117246 -0.00100065 -0.000827937 -0.000654324 -0.00047981 -0.000313887 -0.000166049 -3.62941e-05 7.5377e-05 0.000168964 0.000244468 0.000301888 0.000341224 0.000363219 0.000368613 0.000357406 0.0003296 0.000285193 0.000224186 0.000146578 5.23705e-05 -4.91508e-05 -0.000148699 -0.000246274 -0.000341875 -0.000435503 -0.000527158 -0.000616839 -0.000704548 -0.000783339 -0.000846271 -0.000893343 -0.000924555 -0.000939906 -0.000939398 -0.00092303 -0.000890802 -0.00084745 -0.000797708 -0.000741577 -0.000679057 -0.000610148 -0.000534849 -0.000453162 -0.000365085 -0.000279518 -0.00020536 -0.000142611 -9.12713e-05 -5.13401e-05 -2.28178e-05 -5.70446e-06 0 0 -7.09158e-06 -2.83663e-05 -6.38242e-05 -0.000113465 -0.000177289 -0.000255297 -0.000347487 -0.000453861 -0.00056291 -0.000663126 -0.000754509 -0.000837059 -0.000910777 -0.000975662 -0.00103171 -0.00107893 -0.00111146 -0.00112342 -0.00111483 -0.00108568 -0.00103597 -0.000965704 -0.000874879 -0.000763496 -0.000640626 -0.000515339 -0.000387636 -0.000257517 -0.000124982 9.96865e-06 0.000147336 0.000287119 0.000417451 0.000526463 0.000614154 0.000680526 0.000725578 0.000749311 0.000751723 0.000732815 0.000691686 0.000627433 0.000540056 0.000429555 0.00029593 0.000139181 -4.0691e-05 -0.000243687 -0.0004579 -0.000671423 -0.000884255 -0.0010964 -0.00130785 -0.00151861 -0.00172868 -0.00193806 -0.00213419 -0.0023045 -0.002449 -0.00256768 -0.00266055 -0.0027276 -0.00276884 -0.00278427 -0.00277388 -0.0027377 -0.00267572 -0.00258793 -0.00247434 -0.00233495 -0.00216976 -0.00197877 -0.00177441 -0.00156912 -0.00136288 -0.00115571 -0.000947596 -0.000738547 -0.000528561 -0.000317637 -0.000117417 6.04574e-05 0.000215986 0.000349169 0.000460006 0.000548497 0.000614643 0.000658442 0.000680788 0.000682569 0.000663787 0.000624442 0.000564532 0.00048406 0.000383023 0.000261423 0.000130641 2.05852e-06 -0.000124325 -0.000248509 -0.000370494 -0.00049028 -0.000607866 -0.000723254 -0.00082785 -0.000913065 -0.000978897 -0.00102535 -0.00105242 -0.0010601 -0.00104841 -0.00101733 -0.000972438 -0.000919293 -0.000857895 -0.000788246 -0.000710345 -0.000624192 -0.000529787 -0.00042713 -0.000327022 -0.000240261 -0.000166848 -0.000106783 -6.00652e-05 -2.66956e-05 -6.67391e-06 0 0 -7.98579e-06 -3.19432e-05 -7.18721e-05 -0.000127773 -0.000199645 -0.000287488 -0.000391304 -0.000511091 -0.000633233 -0.000744113 -0.000843733 -0.000932091 -0.00100919 -0.00107502 -0.0011296 -0.00117291 -0.00119833 -0.00119921 -0.00117556 -0.00112737 -0.00105465 -0.000957391 -0.000835601 -0.000689276 -0.000529428 -0.000367065 -0.000202187 -3.47941e-05 0.000135113 0.000307535 0.000482471 0.000659922 0.000825659 0.00096545 0.0010793 0.0011672 0.00122916 0.00126517 0.00127524 0.00125936 0.00121649 0.00114557 0.0010466 0.000919576 0.000764507 0.00058139 0.000370223 0.000131007 -0.000121963 -0.000374392 -0.000626281 -0.000877629 -0.00112844 -0.0013787 -0.00162843 -0.00187762 -0.0021112 -0.0023141 -0.00248633 -0.00262788 -0.00273876 -0.00281896 -0.00286849 -0.00288734 -0.00287552 -0.00283302 -0.00275986 -0.00265602 -0.00252151 -0.00235632 -0.00216046 -0.00193394 -0.00169163 -0.00144846 -0.00120441 -0.00095949 -0.000713697 -0.000467032 -0.000219493 2.89178e-05 0.000264231 0.000472475 0.000653651 0.000807758 0.000934796 0.00103477 0.00110767 0.0011535 0.0011733 0.00116812 0.00113795 0.0010828 0.00100266 0.000897531 0.000767418 0.000612318 0.000445878 0.000281742 0.000119912 -3.96146e-05 -0.000196836 -0.000351752 -0.000504364 -0.000654671 -0.000792249 -0.000906673 -0.000997942 -0.00106606 -0.00111102 -0.00113283 -0.00113148 -0.00110698 -0.00106564 -0.00101377 -0.000951358 -0.000878419 -0.000794947 -0.000700943 -0.000596407 -0.000481338 -0.000368525 -0.000270753 -0.000188023 -0.000120335 -6.76882e-05 -3.00836e-05 -7.52091e-06 0 0 -8.74721e-06 -3.49888e-05 -7.87249e-05 -0.000139955 -0.00021868 -0.0003149 -0.000428613 -0.000559821 -0.000692711 -0.00081147 -0.000916098 -0.00100659 -0.00108296 -0.00114519 -0.0011933 -0.00122727 -0.00123979 -0.00122355 -0.00117855 -0.00110478 -0.00100225 -0.000870955 -0.000710895 -0.000522071 -0.000317629 -0.000110714 9.86734e-05 0.000310534 0.000524867 0.000741673 0.000960951 0.0011827 0.00139016 0.00156655 0.00171188 0.00182614 0.00190934 0.00196148 0.00198255 0.00197256 0.0019303 0.00185458 0.00174538 0.00160272 0.00142659 0.00121699 0.000973919 0.000697383 0.000404246 0.000111377 -0.000181223 -0.000473555 -0.000765619 -0.00105741 -0.00134894 -0.0016402 -0.00191343 -0.00215086 -0.0023525 -0.00251835 -0.00264841 -0.00274267 -0.00280114 -0.00282381 -0.00281069 -0.00276175 -0.00267701 -0.00255646 -0.00240011 -0.00220794 -0.00197997 -0.00171619 -0.00143415 -0.00115141 -0.000867964 -0.000583811 -0.000298953 -1.33895e-05 0.00027288 0.000559855 0.000831056 0.00107 0.0012767 0.00145114 0.00159333 0.00170327 0.00178096 0.00182639 0.00184076 0.00182527 0.0017799 0.00170467 0.00159957 0.0014646 0.00129976 0.00110506 0.000896559 0.000690353 0.000486436 0.000284809 8.54721e-05 -0.000111575 -0.000306333 -0.0004988 -0.000676535 -0.000827094 -0.000950478 -0.00104668 -0.00111572 -0.00115757 -0.00117225 -0.00115976 -0.00112706 -0.00108113 -0.00102197 -0.000949575 -0.000863954 -0.000765103 -0.000653021 -0.000527709 -0.000404027 -0.000296836 -0.000206136 -0.000131927 -7.42091e-05 -3.29818e-05 -8.24546e-06 0 0 -9.37584e-06 -3.75034e-05 -8.43826e-05 -0.000150013 -0.000234396 -0.00033753 -0.000459416 -0.000600054 -0.000741346 -0.000865196 -0.000971603 -0.00106057 -0.00113209 -0.00118617 -0.00122281 -0.00124201 -0.00123586 -0.00119646 -0.00112381 -0.00101792 -0.000878784 -0.000706397 -0.000500762 -0.00026188 -5.22936e-06 0.000253712 0.000514944 0.000778466 0.00104428 0.00131238 0.00158278 0.00185546 0.00211095 0.00232976 0.0025119 0.00265736 0.00276613 0.00283824 0.00287366 0.00287241 0.00283313 0.00275446 0.00263641 0.00247898 0.00228217 0.00204598 0.0017704 0.00145544 0.00112073 0.000785886 0.00045092 0.000115827 -0.000219391 -0.000554736 -0.000890208 -0.00122581 -0.00154088 -0.00181479 -0.00204753 -0.0022391 -0.00238949 -0.00249873 -0.00256679 -0.00259368 -0.00257938 -0.00252388 -0.00242717 -0.00228926 -0.00211014 -0.00188981 -0.00162828 -0.00132554 -0.00100197 -0.000677976 -0.000353541 -2.86708e-05 0.000296636 0.000622379 0.000948558 0.00127517 0.00158306 0.00185305 0.00208513 0.00227933 0.00243562 0.00255402 0.00263452 0.00267712 0.00268317 0.00265401 0.00258964 0.00249006 0.00235527 0.00218527 0.00198006 0.00173963 0.00148268 0.00122789 0.000975249 0.000724762 0.00047643 0.000230252 -1.3772e-05 -0.000255641 -0.00048071 -0.00067433 -0.000836503 -0.000967228 -0.0010665 -0.00113433 -0.00117071 -0.00117565 -0.00115668 -0.00112137 -0.00106972 -0.00100172 -0.000917367 -0.000816672 -0.000699631 -0.000566243 -0.00043353 -0.000318512 -0.000221189 -0.000141561 -7.96279e-05 -3.53902e-05 -8.84755e-06 0 0 -9.87168e-06 -3.94867e-05 -8.88451e-05 -0.000157947 -0.000246792 -0.00035538 -0.000483712 -0.000631787 -0.000779137 -0.000905291 -0.00101025 -0.00109401 -0.00115658 -0.00119796 -0.00121814 -0.00121712 -0.00118652 -0.00111793 -0.00101135 -0.000866791 -0.000684246 -0.000463717 -0.000205203 9.12962e-05 0.000407771 0.000726214 0.00104662 0.001369 0.00169335 0.00201966 0.00234794 0.00267819 0.00298803 0.00325509 0.00347936 0.00366084 0.00379953 0.00389545 0.00394857 0.00395891 0.00392496 0.00384522 0.00371969 0.00354837 0.00333126 0.00306835 0.00275966 0.00240518 0.00202748 0.00164913 0.00127015 0.000890517 0.000510244 0.000129328 -0.000252231 -0.000634433 -0.000993555 -0.00130588 -0.00157139 -0.00179011 -0.00196202 -0.00208713 -0.00216544 -0.00219695 -0.00218162 -0.00211942 -0.00201035 -0.00185441 -0.00165161 -0.00140193 -0.00110539 -0.000761975 -0.000395095 -2.81508e-05 0.000338858 0.000705932 0.00107307 0.00144027 0.00180754 0.00217487 0.00252024 0.0028216 0.00307895 0.00329231 0.00346166 0.00358701 0.00366835 0.00370569 0.00370053 0.00365435 0.00356716 0.00343896 0.00326975 0.00305953 0.0028083 0.00251606 0.00220425 0.00189435 0.00158635 0.00128024 0.000976037 0.000673728 0.000373318 7.48059e-05 -0.000204772 -0.00044838 -0.000656018 -0.000827687 -0.000963385 -0.00106311 -0.00112687 -0.00115466 -0.00115453 -0.00113451 -0.00109462 -0.00103484 -0.000955185 -0.00085565 -0.000736235 -0.00059694 -0.000457032 -0.000335779 -0.00023318 -0.000149235 -8.39447e-05 -3.73087e-05 -9.32719e-06 0 0 -1.02347e-05 -4.09389e-05 -9.21125e-05 -0.000163756 -0.000255868 -0.00036845 -0.000501501 -0.000655022 -0.000806083 -0.000931755 -0.00103204 -0.00110693 -0.00115644 -0.00118055 -0.00117928 -0.00115262 -0.00109177 -0.000987952 -0.000841156 -0.000651385 -0.000418638 -0.000142915 0.000175784 0.000537458 0.000921373 0.00130679 0.00169372 0.00208214 0.00247208 0.00286351 0.00325646 0.0036509 0.00402141 0.00434252 0.00461425 0.00483659 0.00500954 0.0051331 0.00520728 0.00523206 0.0052058 0.00512685 0.00499521 0.00481087 0.00457384 0.00428412 0.0039417 0.0035466 0.0031245 0.00270112 0.00227646 0.00185051 0.00142329 0.00099478 0.00056499 0.000133917 -0.000271451 -0.000624125 -0.000924105 -0.00117139 -0.00136599 -0.00150789 -0.0015971 -0.00163361 -0.00161738 -0.00154835 -0.00142653 -0.00125192 -0.00102451 -0.000744303 -0.000411302 -2.55059e-05 0.000386483 0.000798063 0.00120923 0.00162 0.00203035 0.00244029 0.00284983 0.00325896 0.00364259 0.00397566 0.00425816 0.00449009 0.00467144 0.00480223 0.00488245 0.0049121 0.00489283 0.00482629 0.00471247 0.00455138 0.00434303 0.00408739 0.00378449 0.00343432 0.00306127 0.00268974 0.00231974 0.00195125 0.00158429 0.00121885 0.000854937 0.000492542 0.000151278 -0.000149244 -0.000409024 -0.000628062 -0.000806359 -0.000943913 -0.00104073 -0.0010968 -0.00112058 -0.00112054 -0.00109666 -0.00104895 -0.000977409 -0.000882037 -0.000762834 -0.0006198 -0.000474534 -0.000348637 -0.000242109 -0.00015495 -8.71593e-05 -3.87375e-05 -9.68437e-06 0 0 -1.0465e-05 -4.18599e-05 -9.41848e-05 -0.00016744 -0.000261624 -0.000376739 -0.000512784 -0.000669758 -0.000822186 -0.000944589 -0.00103697 -0.00109932 -0.00113165 -0.00113396 -0.00110624 -0.00104849 -0.000951626 -0.00080654 -0.000613233 -0.000371706 -8.19581e-05 0.00025601 0.000642198 0.00107661 0.00153558 0.00199545 0.00245622 0.00291789 0.00338046 0.00384394 0.00430831 0.00477359 0.00521108 0.00559207 0.00591659 0.00618461 0.00639616 0.00655121 0.00664978 0.00669186 0.00667566 0.00659936 0.00646298 0.0062665 0.00600993 0.00569328 0.00531653 0.0048797 0.00441179 0.00394184 0.00346985 0.00299582 0.00251974 0.00204162 0.00156145 0.00107924 0.000625433 0.000230464 -0.000105663 -0.000382948 -0.000601391 -0.000760993 -0.000861753 -0.000903671 -0.000886675 -0.000810695 -0.00067573 -0.00048178 -0.000228844 8.30756e-05 0.000453981 0.000883871 0.00134276 0.00180067 0.00225759 0.00271352 0.00316847 0.00362244 0.00407542 0.00452742 0.00495013 0.00531524 0.00562275 0.00587266 0.00606498 0.0061997 0.00627682 0.00629635 0.00626008 0.00616982 0.00602556 0.00582732 0.00557508 0.00526885 0.00490864 0.00449442 0.00405373 0.00361406 0.00317541 0.00273779 0.0023012 0.00186563 0.00143109 0.000997566 0.00058744 0.000223078 -9.55195e-05 -0.000368354 -0.000595424 -0.000776731 -0.000912274 -0.00100205 -0.00105485 -0.00107945 -0.00107585 -0.00104404 -0.000984037 -0.000895833 -0.000779428 -0.000634822 -0.000486036 -0.000357088 -0.000247977 -0.000158706 -8.92719e-05 -3.96764e-05 -9.9191e-06 0 0 -1.04237e-05 -4.16949e-05 -9.38135e-05 -0.000166779 -0.000260593 -0.000375254 -0.000510762 -0.000667118 -0.000816315 -0.000930349 -0.00100922 -0.00105292 -0.00106146 -0.00103484 -0.000973054 -0.000876102 -0.00073476 -0.000539798 -0.000291219 1.09796e-05 0.000366796 0.000776232 0.00123929 0.00175596 0.00229948 0.0028431 0.00338681 0.0039306 0.00447449 0.00501846 0.00556253 0.00610668 0.00661885 0.00706697 0.00745104 0.00777105 0.00802701 0.00821892 0.00834678 0.00841058 0.00840839 0.00833824 0.00820015 0.00799412 0.00772014 0.00737821 0.00696833 0.00649051 0.00597722 0.00546094 0.00494166 0.00441938 0.00389411 0.00336585 0.0028346 0.00230035 0.00179714 0.001359 0.000985931 0.000677937 0.000435015 0.000257167 0.00014439 9.66859e-05 0.00011415 0.00019688 0.000344874 0.000558133 0.000836657 0.00118045 0.0015895 0.00206382 0.00256991 0.00307427 0.00357691 0.00407782 0.00457701 0.00507447 0.00557021 0.00606422 0.00652485 0.00692043 0.00725096 0.00751645 0.0077169 0.00785229 0.00792265 0.00792795 0.00787016 0.00775124 0.00757117 0.00732997 0.00702762 0.00666414 0.00623952 0.00575376 0.0052376 0.00472179 0.00420634 0.00369123 0.00317648 0.00266208 0.00214803 0.00163433 0.00114627 0.000709166 0.000323005 -1.22088e-05 -0.000296477 -0.000529798 -0.000712174 -0.000843603 -0.000933035 -0.000989419 -0.00101275 -0.00100304 -0.000960282 -0.000884474 -0.000775618 -0.000633714 -0.000485187 -0.000356464 -0.000247544 -0.000158428 -8.9116e-05 -3.96071e-05 -9.90177e-06 0 0 -9.97224e-06 -3.9889e-05 -8.97502e-05 -0.000159556 -0.000249306 -0.000359001 -0.00048864 -0.000638223 -0.000777344 -0.000875593 -0.000932972 -0.00094948 -0.000925117 -0.000859883 -0.000753778 -0.000606803 -0.000409856 -0.00015384 0.000161247 0.000535403 0.00096863 0.00146093 0.00201229 0.00262273 0.00326221 0.00390068 0.00453816 0.00517464 0.00581013 0.00644461 0.0070781 0.00771059 0.00830655 0.00883044 0.00928228 0.00966205 0.00996975 0.0102054 0.010369 0.0104605 0.0104779 0.010419 0.0102839 0.0100726 0.00978506 0.0094213 0.0089813 0.00846508 0.00790865 0.00734802 0.00678319 0.00621415 0.00564092 0.00506349 0.00448186 0.00389602 0.0033437 0.00286258 0.00245267 0.00211397 0.00184648 0.0016502 0.00152514 0.00147128 0.00148875 0.00157769 0.00173809 0.00196995 0.00227327 0.00264805 0.00309429 0.003612 0.00416409 0.00471348 0.00526018 0.0058042 0.00634551 0.00688414 0.00742007 0.00795331 0.00844877 0.00887135 0.00922105 0.00949788 0.00970183 0.00983291 0.00989111 0.00987644 0.00979098 0.00963685 0.00941403 0.00912253 0.00876234 0.00833348 0.00783593 0.0072697 0.00666885 0.00606744 0.00546547 0.00486295 0.00425986 0.00365622 0.00305202 0.00244727 0.00187033 0.0013496 0.000885061 0.000476726 0.000124591 -0.000171345 -0.00041108 -0.000594616 -0.000730834 -0.000828617 -0.000887965 -0.000908878 -0.000891356 -0.000835399 -0.000741006 -0.000608179 -0.000465637 -0.000342101 -0.00023757 -0.000152045 -8.55252e-05 -3.80112e-05 -9.5028e-06 0 0 -9.11054e-06 -3.64422e-05 -8.19948e-05 -0.000145769 -0.000227763 -0.000327979 -0.000446416 -0.000583074 -0.000705271 -0.000780322 -0.000808229 -0.000788991 -0.000722609 -0.000609081 -0.00044841 -0.000240593 2.30838e-05 0.000351336 0.000744163 0.00120157 0.00172354 0.0023101 0.00296123 0.00367693 0.00442374 0.00516819 0.00591028 0.00665001 0.00738738 0.00812239 0.00885503 0.00958532 0.0102742 0.0108825 0.0114103 0.0118576 0.0122244 0.0125106 0.0127164 0.0128416 0.0128841 0.0128416 0.0127142 0.0125019 0.0122047 0.0118225 0.0113554 0.0108034 0.0102061 0.00960309 0.00899444 0.00838013 0.00776016 0.00713453 0.00650323 0.00586628 0.00526512 0.00474121 0.00429456 0.00392516 0.00363301 0.00341812 0.00328048 0.0032201 0.00323713 0.00333173 0.00350391 0.00375366 0.00408099 0.00448589 0.00496836 0.00552841 0.0061253 0.0067183 0.00730742 0.00789265 0.00847399 0.00905144 0.00962501 0.0101947 0.0107219 0.011168 0.011533 0.0118169 0.0120198 0.0121415 0.0121822 0.0121418 0.0120225 0.0118266 0.0115541 0.011205 0.0107792 0.0102769 0.00969787 0.00904225 0.00834747 0.00765099 0.00695281 0.00625293 0.00555135 0.00484806 0.00414308 0.00343639 0.00275962 0.00214437 0.00159065 0.00109845 0.000667777 0.000298629 -8.99453e-06 -0.000255093 -0.000448249 -0.000597043 -0.000701476 -0.000761547 -0.000777257 -0.000748606 -0.000675593 -0.000558219 -0.000427387 -0.000313998 -0.000218054 -0.000139555 -7.84996e-05 -3.48887e-05 -8.72218e-06 0 0 -7.83861e-06 -3.13544e-05 -7.054