<?xml version="1.0"?> 
<VTKFile type="StructuredGrid" version="0.1"> 
<StructuredGrid WholeExtent="0 128 0 128 0 0"> 
<Piece Extent="0 128 0 128 0 0"> 
<PointData>
<DataArray type="Float32" Name="u" format="ascii" NumberOfComponents="1"> 
0 0 0 0 0 0 0 0 0 0 0 0 0 0 0 0 0 0 0 0 0 0 0 0 0 0 0 0 0 0 0 0 0 0 0 0 0 0 0 0 0 0 0 0 0 0 0 0 0 0 0 0 0 0 0 0 0 0 0 0 0 0 0 0 0 0 0 0 0 0 0 0 0 0 0 0 0 0 0 0 0 0 0 0 0 0 0 0 0 0 0 0 0 0 0 0 0 0 0 0 0 0 0 0 0 0 0 0 0 0 0 0 0 0 0 0 0 0 0 0 0 0 0 0 0 0 0 0 0 0 6.27051e-08 2.5082e-07 5.64346e-07 1.00328e-06 1.56763e-06 2.25738e-06 3.07255e-06 4.01313e-06 5.10612e-06 6.37852e-06 7.83033e-06 9.46156e-06 1.12722e-05 1.32622e-05 1.54317e-05 1.77806e-05 2.02554e-05 2.28025e-05 2.54221e-05 2.8114e-05 3.08783e-05 3.3715e-05 3.66241e-05 3.96056e-05 4.26047e-05 4.55665e-05 4.8491e-05 5.13783e-05 5.42283e-05 5.7041e-05 5.98165e-05 6.25548e-05 6.52262e-05 6.78012e-05 7.02799e-05 7.26621e-05 7.4948e-05 7.71375e-05 7.92306e-05 8.12274e-05 8.31194e-05 8.48983e-05 8.65642e-05 8.8117e-05 8.95568e-05 9.08835e-05 9.20971e-05 9.31977e-05 9.41895e-05 9.5077e-05 9.586e-05 9.65386e-05 9.71128e-05 9.75826e-05 9.7948e-05 9.82089e-05 9.83739e-05 9.84513e-05 9.84411e-05 9.83434e-05 9.81581e-05 9.78853e-05 9.75248e-05 9.70769e-05 9.65481e-05 9.59454e-05 9.52687e-05 9.4518e-05 9.36933e-05 9.27947e-05 9.18221e-05 9.07755e-05 8.96589e-05 8.84763e-05 8.72276e-05 8.59129e-05 8.45322e-05 8.30854e-05 8.15725e-05 7.99936e-05 7.83529e-05 7.66546e-05 7.48986e-05 7.3085e-05 7.12138e-05 6.9285e-05 6.72986e-05 6.52545e-05 6.31628e-05 6.10333e-05 5.88661e-05 5.66612e-05 5.44185e-05 5.21381e-05 4.982e-05 4.74641e-05 4.50918e-05 4.27241e-05 4.03611e-05 3.80028e-05 3.56492e-05 3.33003e-05 3.0956e-05 2.86165e-05 2.63165e-05 2.40909e-05 2.19398e-05 1.98631e-05 1.78608e-05 1.59329e-05 1.40795e-05 1.23004e-05 1.06258e-05 9.08563e-06 7.67981e-06 6.40838e-06 5.27135e-06 4.26871e-06 3.40047e-06 2.66662e-06 2.04163e-06 1.49997e-06 1.04165e-06 6.66654e-07 3.74993e-07 1.66663e-07 4.16659e-08 0 0 2.5082e-07 1.00328e-06 2.25738e-06 4.01313e-06 6.27051e-06 9.02954e-06 1.22902e-05 1.60525e-05 2.04245e-05 2.55141e-05 3.13213e-05 3.78462e-05 4.50888e-05 5.3049e-05 6.17268e-05 7.11223e-05 8.10214e-05 9.12101e-05 0.000101688 0.000112456 0.000123513 0.00013486 0.000146497 0.000158422 0.000170419 0.000182266 0.000193964 0.000205513 0.000216913 0.000228164 0.000239266 0.000250219 0.000260905 0.000271205 0.00028112 0.000290649 0.000299792 0.00030855 0.000316923 0.000324909 0.000332477 0.000339593 0.000346257 0.000352468 0.000358227 0.000363534 0.000368388 0.000372791 0.000376758 0.000380308 0.00038344 0.000386154 0.000388451 0.00039033 0.000391792 0.000392836 0.000393496 0.000393805 0.000393765 0.000393374 0.000392632 0.000391541 0.000390099 0.000388307 0.000386192 0.000383781 0.000381075 0.000378072 0.000374773 0.000371179 0.000367288 0.000363102 0.000358636 0.000353905 0.000348911 0.000343652 0.000338129 0.000332341 0.00032629 0.000319975 0.000313412 0.000306618 0.000299594 0.00029234 0.000284855 0.00027714 0.000269194 0.000261018 0.000252651 0.000244133 0.000235464 0.000226645 0.000217674 0.000208552 0.00019928 0.000189857 0.000180367 0.000170896 0.000161444 0.000152011 0.000142597 0.000133201 0.000123824 0.000114466 0.000105266 9.63637e-05 8.77591e-05 7.94523e-05 7.14431e-05 6.37316e-05 5.63179e-05 4.92018e-05 4.25034e-05 3.63425e-05 3.07192e-05 2.56335e-05 2.10854e-05 1.70748e-05 1.36019e-05 1.06665e-05 8.16651e-06 5.99988e-06 4.16659e-06 2.66662e-06 1.49997e-06 6.66654e-07 1.66663e-07 0 0 5.64346e-07 2.25738e-06 5.07912e-06 9.02954e-06 1.41087e-05 2.03165e-05 2.7653e-05 3.61182e-05 4.5955e-05 5.74067e-05 7.0473e-05 8.5154e-05 0.00010145 0.00011936 0.000138885 0.000160025 0.000182298 0.000205223 0.000228799 0.000253026 0.000277905 0.000303435 0.000329617 0.000356451 0.000383442 0.000410098 0.000436419 0.000462404 0.000488055 0.000513369 0.000538349 0.000562993 0.000587036 0.000610211 0.000632519 0.000653959 0.000674532 0.000694238 0.000713076 0.000731046 0.000748074 0.000764085 0.000779078 0.000793053 0.000806011 0.000817951 0.000828874 0.000838779 0.000847706 0.000855693 0.00086274 0.000868847 0.000874015 0.000878243 0.000881532 0.00088388 0.000885365 0.000886062 0.00088597 0.000885091 0.000883423 0.000880967 0.000877724 0.000873692 0.000868933 0.000863508 0.000857418 0.000850662 0.00084324 0.000835152 0.000826399 0.00081698 0.000806931 0.000796287 0.000785049 0.000773216 0.00076079 0.000747768 0.000734153 0.000719943 0.000705176 0.000689891 0.000674087 0.000657765 0.000640924 0.000623565 0.000605687 0.00058729 0.000568465 0.0005493 0.000529795 0.00050995 0.000489766 0.000469243 0.00044838 0.000427177 0.000405826 0.000384517 0.00036325 0.000342025 0.000320843 0.000299702 0.000278604 0.000257548 0.000236848 0.000216818 0.000197458 0.000178768 0.000160747 0.000143396 0.000126715 0.000110704 9.56326e-05 8.17706e-05 6.91183e-05 5.76754e-05 4.74421e-05 3.84184e-05 3.06042e-05 2.39995e-05 1.83746e-05 1.34997e-05 9.37482e-06 5.99988e-06 3.37494e-06 1.49997e-06 3.74993e-07 0 0 1.00328e-06 4.01313e-06 9.02954e-06 1.60525e-05 2.5082e-05 3.61182e-05 4.91608e-05 6.421e-05 8.16979e-05 0.000102056 0.000125285 0.000151385 0.000180355 0.000212196 0.000246907 0.000284489 0.000324086 0.00036484 0.000406753 0.000449824 0.000494053 0.000539441 0.000585986 0.00063369 0.000681675 0.000729063 0.000775856 0.000822052 0.000867652 0.000912657 0.000957065 0.00100088 0.00104362 0.00108482 0.00112448 0.00116259 0.00119917 0.0012342 0.00126769 0.00129964 0.00132991 0.00135837 0.00138503 0.00140987 0.00143291 0.00145414 0.00147355 0.00149116 0.00150703 0.00152123 0.00153376 0.00154462 0.0015538 0.00156132 0.00156717 0.00157134 0.00157398 0.00157522 0.00157506 0.00157349 0.00157053 0.00156616 0.0015604 0.00155323 0.00154477 0.00153513 0.0015243 0.00151229 0.00149909 0.00148472 0.00146915 0.00145241 0.00143454 0.00141562 0.00139564 0.00137461 0.00135251 0.00132937 0.00130516 0.0012799 0.00125365 0.00122647 0.00119838 0.00116936 0.00113942 0.00110856 0.00107678 0.00104407 0.0010106 0.000976532 0.000941857 0.000906578 0.000870696 0.00083421 0.00079712 0.000759426 0.000721468 0.000683585 0.000645778 0.000608045 0.000570387 0.000532804 0.000495296 0.000457864 0.000421064 0.000385455 0.000351037 0.000317809 0.000285772 0.000254927 0.000225271 0.000196807 0.000170013 0.00014537 0.000122877 0.000102534 8.43416e-05 6.82994e-05 5.44075e-05 4.26658e-05 3.2666e-05 2.39995e-05 1.66663e-05 1.06665e-05 5.99988e-06 2.66662e-06 6.66654e-07 0 0 1.56763e-06 6.27051e-06 1.41087e-05 2.5082e-05 3.91907e-05 5.64346e-05 7.68138e-05 0.000100328 0.000127653 0.000159463 0.000195758 0.000236539 0.000281805 0.000331556 0.000385793 0.000444515 0.000506384 0.000570063 0.000635552 0.00070285 0.000771958 0.000842876 0.000915603 0.00099014 0.00106512 0.00113916 0.00121227 0.00128446 0.00135571 0.00142603 0.00149541 0.00156387 0.00163065 0.00169503 0.001757 0.00181655 0.0018737 0.00192844 0.00198077 0.00203068 0.00207798 0.00212246 0.0021641 0.00220293 0.00223892 0.00227209 0.00230243 0.00232994 0.00235474 0.00237692 0.0023965 0.00241346 0.00242782 0.00243956 0.0024487 0.00245522 0.00245935 0.00246128 0.00246103 0.00245859 0.00245395 0.00244713 0.00243812 0.00242692 0.0024137 0.00239863 0.00238172 0.00236295 0.00234233 0.00231987 0.00229555 0.00226939 0.00224147 0.00221191 0.00218069 0.00214782 0.0021133 0.00207713 0.00203931 0.00199984 0.00195882 0.00191636 0.00187247 0.00182713 0.00178035 0.00173212 0.00168246 0.00163136 0.00157907 0.00152583 0.00147165 0.00141653 0.00136046 0.00130345 0.0012455 0.0011866 0.00112729 0.0010681 0.00100903 0.00095007 0.00089123 0.000832507 0.000773901 0.000715412 0.000657912 0.000602273 0.000548495 0.000496577 0.000446519 0.000398323 0.000351987 0.000307511 0.000265646 0.000227141 0.000191995 0.00016021 0.000131784 0.000106718 8.50117e-05 6.66654e-05 5.10407e-05 3.74993e-05 2.60412e-05 1.66663e-05 9.37482e-06 4.16659e-06 1.04165e-06 0 0 2.25738e-06 9.02954e-06 2.03165e-05 3.61182e-05 5.64346e-05 8.12658e-05 0.000110612 0.000144473 0.00018382 0.000229627 0.000281892 0.000340616 0.000405799 0.000477441 0.000555541 0.000640101 0.000729193 0.000820891 0.000915195 0.0010121 0.00111162 0.00121374 0.00131847 0.0014258 0.00153377 0.00164039 0.00174568 0.00184962 0.00195222 0.00205348 0.0021534 0.00225197 0.00234814 0.00244084 0.00253008 0.00261584 0.00269813 0.00277695 0.0028523 0.00292419 0.0029923 0.00305634 0.00311631 0.00317221 0.00322404 0.00327181 0.0033155 0.00335512 0.00339082 0.00342277 0.00345096 0.00347539 0.00349606 0.00351297 0.00352613 0.00353552 0.00354146 0.00354425 0.00354388 0.00354036 0.00353369 0.00352387 0.00351089 0.00349477 0.00347573 0.00345403 0.00342967 0.00340265 0.00337296 0.00334061 0.0033056 0.00326792 0.00322772 0.00318515 0.0031402 0.00309287 0.00304316 0.00299107 0.00293661 0.00287977 0.0028207 0.00275956 0.00269635 0.00263106 0.0025637 0.00249426 0.00242275 0.00234916 0.00227386 0.0021972 0.00211918 0.0020398 0.00195907 0.00187697 0.00179352 0.00170871 0.0016233 0.00153807 0.001453 0.0013681 0.00128337 0.00119881 0.00111442 0.00103019 0.000947394 0.000867273 0.000789832 0.00071507 0.000642988 0.000573585 0.000506861 0.000442816 0.00038253 0.000327083 0.000276473 0.000230702 0.000189769 0.000153674 0.000122417 9.59982e-05 7.34986e-05 5.3999e-05 3.74993e-05 2.39995e-05 1.34997e-05 5.99988e-06 1.49997e-06 0 0 3.07255e-06 1.22902e-05 2.7653e-05 4.91608e-05 7.68138e-05 0.000110612 0.000150555 0.000196643 0.0002502 0.000312547 0.000383686 0.000463616 0.000552337 0.00064985 0.000756154 0.000871249 0.000992513 0.00111732 0.00124568 0.00137759 0.00151304 0.00165204 0.00179458 0.00194068 0.00208763 0.00223276 0.00237606 0.00251753 0.00265719 0.00279501 0.00293101 0.00306518 0.00319608 0.00332226 0.00344371 0.00356045 0.00367245 0.00377974 0.0038823 0.00398014 0.00407285 0.00416002 0.00424165 0.00431773 0.00438828 0.00445329 0.00451276 0.00456669 0.00461529 0.00465877 0.00469714 0.00473039 0.00475853 0.00478155 0.00479945 0.00481224 0.00482032 0.00482411 0.00482362 0.00481883 0.00480975 0.00479638 0.00477872 0.00475677 0.00473086 0.00470132 0.00466816 0.00463138 0.00459097 0.00454694 0.00449928 0.004448 0.00439329 0.00433534 0.00427415 0.00420973 0.00414208 0.00407118 0.00399705 0.00391969 0.00383929 0.00375607 0.00367003 0.00358117 0.00348948 0.00339496 0.00329763 0.00319747 0.00309497 0.00299063 0.00288444 0.0027764 0.00266651 0.00255477 0.00244118 0.00232574 0.0022095 0.00209348 0.00197769 0.00186214 0.00174681 0.00163171 0.00151685 0.00140221 0.00128951 0.00118046 0.00107505 0.00097329 0.000875178 0.000780712 0.000689894 0.000602722 0.000520666 0.000445196 0.000376311 0.000314011 0.000258296 0.000209167 0.000166623 0.000130664 0.00010004 7.34986e-05 5.10407e-05 3.2666e-05 1.83746e-05 8.16651e-06 2.04163e-06 0 0 4.01313e-06 1.60525e-05 3.61182e-05 6.421e-05 0.000100328 0.000144473 0.000196643 0.00025684 0.000326791 0.000408225 0.000501141 0.00060554 0.00072142 0.000848784 0.000987629 0.00113796 0.00129634 0.00145936 0.00162701 0.0017993 0.00197621 0.00215776 0.00234394 0.00253476 0.0027267 0.00291625 0.00310342 0.00328821 0.00347061 0.00365063 0.00382826 0.00400351 0.00417448 0.00433928 0.00449791 0.00465038 0.00479667 0.0049368 0.00507076 0.00519855 0.00531964 0.00543349 0.00554011 0.00563949 0.00573163 0.00581654 0.00589422 0.00596465 0.00602813 0.00608493 0.00613504 0.00617847 0.00621522 0.00624528 0.00626867 0.00628537 0.00629593 0.00630088 0.00630023 0.00629398 0.00628212 0.00626466 0.00624159 0.00621292 0.00617908 0.0061405 0.00609719 0.00604915 0.00599637 0.00593886 0.00587661 0.00580963 0.00573817 0.00566248 0.00558257 0.00549843 0.00541006 0.00531746 0.00522064 0.00511959 0.00501459 0.00490589 0.00479351 0.00467744 0.00455768 0.00443424 0.00430711 0.00417629 0.00404242 0.00390613 0.00376743 0.00362631 0.00348278 0.00333684 0.00318848 0.0030377 0.00288587 0.00273434 0.00258311 0.00243218 0.00228155 0.00213122 0.00198119 0.00183145 0.00168426 0.00154182 0.00140415 0.00127124 0.00114309 0.00101971 0.000901086 0.000787229 0.000680054 0.00058148 0.000491508 0.000410136 0.000337366 0.000273197 0.00021763 0.000170663 0.000130664 9.59982e-05 6.66654e-05 4.26658e-05 2.39995e-05 1.06665e-05 2.66662e-06 0 0 5.11251e-06 2.04501e-05 4.60126e-05 8.18002e-05 0.000127813 0.00018405 0.000250513 0.000327201 0.000416247 0.000519786 0.000637817 0.000770341 0.000917358 0.00107887 0.00125487 0.00144536 0.00164602 0.0018525 0.00206482 0.00228298 0.00250696 0.00273677 0.00297242 0.0032139 0.00345679 0.00369666 0.00393352 0.00416737 0.0043982 0.00462602 0.00485082 0.00507261 0.00528899 0.00549758 0.00569838 0.00589138 0.00607658 0.00625399 0.00642361 0.00658543 0.00673878 0.00688297 0.00701801 0.00714391 0.00726065 0.00736824 0.00746667 0.00755596 0.00763644 0.00770845 0.00777201 0.00782711 0.00787374 0.00791192 0.00794163 0.00796289 0.00797636 0.00798273 0.00798199 0.00797416 0.00795922 0.00793717 0.00790803 0.00787178 0.00782898 0.00778017 0.00772537 0.00766455 0.00759774 0.00752492 0.0074461 0.00736128 0.00727078 0.00717492 0.00707371 0.00696714 0.00685521 0.00673793 0.00661529 0.0064873 0.0063543 0.00621662 0.00607429 0.00592728 0.00577561 0.00561927 0.00545827 0.0052926 0.00512307 0.00495049 0.00477485 0.00459617 0.00441444 0.00422965 0.00404182 0.00385093 0.00365871 0.00346686 0.0032754 0.00308431 0.00289361 0.00270328 0.00251334 0.00232377 0.00213739 0.00195702 0.00178265 0.00161429 0.00145193 0.00129558 0.00114523 0.00100089 0.000864983 0.000739936 0.000625752 0.00052243 0.00042997 0.000348373 0.000277638 0.000217766 0.000166727 0.000122493 8.50647e-05 5.44414e-05 3.06233e-05 1.36103e-05 3.40259e-06 0 0 6.4041e-06 2.56164e-05 5.76369e-05 0.000102466 0.000160103 0.000230548 0.000313801 0.000409863 0.000521219 0.000650357 0.000797276 0.000961977 0.00114446 0.00134472 0.00156277 0.00179859 0.00204687 0.00230225 0.00256475 0.00283437 0.00311109 0.00339493 0.00368588 0.00398394 0.0042837 0.00457976 0.0048721 0.00516073 0.00544566 0.00572687 0.00600437 0.00627816 0.0065453 0.00680286 0.00705082 0.00728919 0.00751798 0.00773717 0.00794677 0.00814679 0.00833637 0.00851466 0.00868168 0.00883742 0.00898187 0.00911504 0.00923693 0.00934755 0.00944729 0.00953658 0.00961541 0.00968379 0.00974171 0.00978918 0.00982619 0.00985275 0.00986969 0.00987782 0.00987716 0.0098677 0.00984945 0.0098224 0.00978655 0.0097419 0.00968914 0.00962893 0.00956128 0.00948619 0.00940366 0.00931368 0.00921627 0.00911141 0.00899952 0.00888099 0.00875584 0.00862406 0.00848565 0.0083406 0.00818893 0.00803063 0.00786613 0.00769587 0.00751985 0.00733808 0.00715054 0.00695725 0.00675819 0.00655338 0.00634381 0.00613049 0.00591342 0.00569259 0.00546801 0.00523968 0.00500759 0.00477175 0.00453427 0.00429726 0.00406071 0.00382463 0.00358902 0.00335387 0.00311919 0.00288498 0.00265467 0.00243171 0.0022161 0.00200784 0.00180692 0.00161336 0.00142714 0.00124827 0.00107974 0.000924565 0.000782731 0.000654242 0.000539099 0.000437301 0.000348848 0.00027374 0.000209582 0.000153979 0.00010693 6.8435e-05 3.84947e-05 1.71088e-05 4.27719e-06 0 0 7.8879e-06 3.15516e-05 7.09911e-05 0.000126206 0.000197197 0.000283964 0.000386507 0.000504825 0.000641706 0.000799937 0.000979517 0.00118045 0.00140272 0.00164635 0.00191133 0.00219766 0.0024989 0.00280861 0.0031268 0.00345347 0.00378861 0.00413222 0.00448431 0.00484488 0.00520745 0.00556554 0.00591916 0.00626831 0.00661299 0.00695319 0.00728892 0.00762017 0.00794341 0.0082551 0.00855524 0.00884382 0.00912085 0.00938633 0.00964025 0.00988263 0.0101124 0.0103286 0.0105311 0.01072 0.0108953 0.011057 0.011205 0.0113394 0.0114607 0.0115693 0.0116652 0.0117485 0.0118191 0.0118771 0.0119223 0.011955 0.0119759 0.0119862 0.0119857 0.0119746 0.0119528 0.0119203 0.0118772 0.0118233 0.0117596 0.0116868 0.0116049 0.0115141 0.0114141 0.0113051 0.0111871 0.01106 0.0109244 0.0107807 0.010629 0.0104692 0.0103014 0.0101255 0.00994155 0.00974957 0.00955009 0.00934363 0.00913022 0.00890983 0.00868248 0.00844817 0.00820689 0.00795864 0.00770465 0.00744614 0.00718311 0.00691557 0.0066435 0.00636691 0.0060858 0.00580018 0.00551257 0.00522553 0.00493905 0.00465313 0.00436778 0.00408298 0.00379875 0.00351509 0.0032361 0.0029659 0.00270449 0.00245188 0.00220806 0.00197303 0.0017468 0.00152936 0.00132434 0.00113537 0.000962445 0.000805573 0.000664752 0.000539981 0.000431259 0.000338587 0.000259231 0.000190455 0.000132261 8.46468e-05 4.76138e-05 2.11617e-05 5.29043e-06 0 0 9.5639e-06 3.82556e-05 8.60751e-05 0.000153022 0.000239097 0.0003443 0.000468631 0.000612089 0.00077771 0.000968527 0.00118454 0.00142575 0.00169215 0.00198376 0.00230055 0.00264255 0.0030021 0.00337157 0.00375096 0.00414028 0.00453951 0.00494866 0.00536773 0.00579672 0.00622802 0.00665402 0.00707471 0.0074901 0.00790019 0.00830497 0.00870445 0.00909863 0.00948331 0.00985431 0.0102116 0.0105553 0.0108852 0.0112015 0.0115041 0.0117929 0.0120669 0.0123247 0.0125663 0.0127917 0.0130009 0.013194 0.0133709 0.0135316 0.0136766 0.0138066 0.0139215 0.0140213 0.014106 0.0141756 0.0142301 0.0142695 0.014295 0.0143078 0.0143077 0.0142949 0.0142693 0.014231 0.0141798 0.0141159 0.0140402 0.0139537 0.0138563 0.0137482 0.0136291 0.0134993 0.0133586 0.0132071 0.0130454 0.012874 0.0126931 0.0125025 0.0123023 0.0120926 0.0118732 0.0116441 0.0114062 0.0111599 0.0109054 0.0106425 0.0103714 0.010092 0.00980435 0.00950838 0.00920559 0.00889744 0.00858395 0.0082651 0.0079409 0.00761135 0.00727645 0.0069362 0.0065936 0.00625167 0.00591041 0.00556981 0.00522988 0.00489062 0.00455202 0.00421409 0.00388166 0.00355958 0.00324782 0.00294641 0.00265534 0.00237461 0.00210421 0.00184416 0.00159876 0.00137234 0.00116489 0.000976423 0.00080693 0.000656413 0.000524872 0.000412307 0.000315673 0.000231923 0.000161057 0.000103077 5.79807e-05 2.57692e-05 6.4423e-06 0 0 1.14321e-05 4.57284e-05 0.000102889 0.000182914 0.000285803 0.000411556 0.000560173 0.000731655 0.000929229 0.00115613 0.00141234 0.00169789 0.00201275 0.00235693 0.00273044 0.00313327 0.00355648 0.00399114 0.00443725 0.0048948 0.00536379 0.00584424 0.00633613 0.00683946 0.00734542 0.00784518 0.00833874 0.0088261 0.00930726 0.00978222 0.010251 0.0107135 0.011165 0.0116005 0.01202 0.0124235 0.0128111 0.0131826 0.0135382 0.0138777 0.0141999 0.014503 0.0147872 0.0150525 0.0152988 0.0155262 0.0157346 0.015924 0.0160951 0.0162485 0.0163841 0.0165021 0.0166023 0.0166847 0.0167494 0.0167964 0.0168271 0.0168426 0.0168431 0.0168286 0.016799 0.0167543 0.0166946 0.0166198 0.0165312 0.0164297 0.0163155 0.0161885 0.0160487 0.0158961 0.0157308 0.0155527 0.0153625 0.015161 0.0149482 0.0147241 0.0144886 0.0142418 0.0139837 0.0137143 0.0134344 0.0131447 0.0128453 0.0125362 0.0122174 0.0118888 0.0115506 0.0112026 0.0108466 0.0104844 0.0101159 0.0097412 0.00936023 0.00897301 0.00857954 0.00817982 0.00777737 0.00737569 0.0069748 0.00657468 0.00617534 0.00577678 0.005379 0.004982 0.00459138 0.00421274 0.0038461 0.00349144 0.00314877 0.00281808 0.00249938 0.00219267 0.00190302 0.00163548 0.00139008 0.00116679 0.000965633 0.000786597 0.000629686 0.000494899 0.000378907 0.000278381 0.00019332 0.000123725 6.95952e-05 3.09312e-05 7.7328e-06 0 0 1.34925e-05 5.39701e-05 0.000121433 0.00021588 0.000337313 0.00048573 0.000661133 0.000863521 0.00109626 0.00136273 0.00166293 0.00199686 0.00236451 0.00276588 0.00320099 0.00366982 0.00416204 0.00466732 0.00518565 0.00571703 0.00626147 0.00681896 0.0073895 0.0079731 0.00855965 0.00913903 0.00971125 0.0102763 0.0108342 0.0113849 0.0119285 0.0124649 0.0129885 0.0134936 0.0139803 0.0144486 0.0148984 0.0153297 0.0157426 0.016137 0.0165113 0.0168636 0.0171939 0.0175024 0.0177889 0.0180534 0.018296 0.0185167 0.0187162 0.018895 0.0190532 0.0191909 0.019308 0.0194045 0.0194804 0.0195357 0.019572 0.0195907 0.0195919 0.0195756 0.0195417 0.0194904 0.0194214 0.019335 0.0192324 0.0191148 0.0189824 0.018835 0.0186728 0.0184957 0.0183037 0.0180967 0.0178758 0.0176416 0.0173943 0.0171338 0.0168602 0.0165733 0.0162733 0.0159601 0.0156347 0.015298 0.0149501 0.0145908 0.0142204 0.0138386 0.0134456 0.0130413 0.0126277 0.012207 0.011779 0.0113439 0.0109015 0.0104519 0.00999506 0.00953104 0.00906386 0.00859758 0.0081322 0.00766772 0.00720414 0.00674146 0.00627968 0.0058188 0.00536523 0.00492541 0.00449931 0.00408696 0.00368834 0.00330346 0.00293231 0.0025749 0.0022371 0.0019248 0.00163799 0.00137668 0.00114086 0.000930534 0.000745702 0.000586364 0.000448935 0.00032983 0.000229049 0.000146591 8.24575e-05 3.66478e-05 9.16194e-06 0 0 1.57451e-05 6.29805e-05 0.000141706 0.000251922 0.000393628 0.000566825 0.000771511 0.00100769 0.00127882 0.00158835 0.0019363 0.00232266 0.00274743 0.00321061 0.0037122 0.0042522 0.00481878 0.0054001 0.00599616 0.00660697 0.00723252 0.00787282 0.00852786 0.00919764 0.0098707 0.0105356 0.0111922 0.0118407 0.012481 0.0131131 0.013737 0.0143527 0.0149538 0.0155338 0.0160927 0.0166305 0.0171472 0.0176428 0.0181173 0.0185708 0.0190011 0.0194063 0.0197864 0.0201413 0.0204711 0.0207758 0.0210553 0.0213097 0.0215397 0.0217461 0.0219288 0.0220878 0.0222232 0.0223349 0.0224229 0.0224873 0.0225298 0.022552 0.0225541 0.022536 0.0224976 0.0224391 0.0223604 0.0222614 0.0221438 0.022009 0.021857 0.0216878 0.0215015 0.0212979 0.0210772 0.0208393 0.0205851 0.0203159 0.0200314 0.0197318 0.019417 0.019087 0.0187419 0.0183815 0.0180072 0.0176198 0.0172196 0.0168064 0.0163803 0.0159413 0.0154893 0.0150244 0.014549 0.0140652 0.0135733 0.0130731 0.0125646 0.0120479 0.011523 0.0109899 0.0104531 0.00991735 0.00938264 0.00884895 0.0083163 0.00778467 0.00725407 0.0067245 0.00620324 0.00569756 0.00520747 0.00473297 0.00427406 0.00383073 0.00340299 0.00299084 0.00260102 0.00224029 0.00190865 0.00160609 0.00133261 0.00108822 0.00087292 0.000686702 0.000525756 0.00038627 0.000268243 0.000171675 9.65674e-05 4.29188e-05 1.07297e-05 0 0 1.81899e-05 7.27598e-05 0.00016371 0.000291039 0.000454749 0.000654838 0.000891308 0.00116416 0.00147688 0.00183298 0.00223245 0.0026753 0.00316152 0.00369111 0.00426407 0.00488041 0.00552669 0.00618948 0.0068688 0.00756462 0.00827697 0.00900582 0.0097512 0.0105131 0.0112786 0.0120348 0.0127817 0.0135194 0.0142477 0.0149667 0.0156765 0.016377 0.0170609 0.0177209 0.018357 0.0189692 0.0195575 0.0201219 0.0206624 0.021179 0.0216694 0.0221313 0.0225646 0.0229694 0.0233456 0.0236933 0.0240124 0.024303 0.0245659 0.0248018 0.0250107 0.0251927 0.0253478 0.0254759 0.0255771 0.0256513 0.0257005 0.0257266 0.0257297 0.0257097 0.0256667 0.0256006 0.0255114 0.0253991 0.0252655 0.0251123 0.0249394 0.0247469 0.0245347 0.0243029 0.0240514 0.0237803 0.0234907 0.0231837 0.0228595 0.022518 0.0221591 0.0217829 0.0213894 0.0209786 0.0205517 0.0201102 0.0196539 0.019183 0.0186973 0.0181969 0.0176819 0.0171521 0.0166103 0.0160591 0.0154986 0.0149288 0.0143497 0.0137612 0.0131634 0.0125563 0.011945 0.011335 0.0107261 0.0101184 0.0095118 0.0089064 0.00830216 0.0076991 0.00710538 0.00652921 0.00597057 0.00542947 0.00490592 0.0043999 0.00391143 0.00344049 0.00299477 0.00258195 0.00220203 0.00185501 0.00154089 0.00125966 0.00101134 0.000795911 0.00060937 0.0004477 0.000310903 0.000198978 0.000111925 4.97445e-05 1.24361e-05 0 0 2.07807e-05 8.31226e-05 0.000187026 0.000332491 0.000519516 0.000748104 0.00101825 0.00132996 0.00168672 0.002092 0.00254582 0.00304817 0.00359905 0.00419845 0.00484639 0.00554286 0.00627276 0.00702098 0.00778753 0.0085724 0.0093756 0.0101971 0.011037 0.0118952 0.0127573 0.013609 0.0144502 0.015281 0.0161014 0.0169113 0.0177108 0.0184998 0.0192703 0.0200139 0.0207307 0.0214207 0.0220838 0.0227202 0.0233298 0.0239125 0.0244658 0.024987 0.0254761 0.025933 0.0263579 0.0267507 0.0271114 0.02744 0.0277373 0.0280042 0.0282408 0.028447 0.0286228 0.0287682 0.0288832 0.0289679 0.0290243 0.0290546 0.0290589 0.0290371 0.0289892 0.0289152 0.0288152 0.0286891 0.0285389 0.0283664 0.0281717 0.0279547 0.0277156 0.0274542 0.0271705 0.0268647 0.0265379 0.0261916 0.0258258 0.0254403 0.0250353 0.0246107 0.0241666 0.0237029 0.0232211 0.0227227 0.0222078 0.0216764 0.0211284 0.0205638 0.0199826 0.0193849 0.0187737 0.018152 0.0175198 0.0168771 0.016224 0.0155604 0.0148864 0.0142018 0.0135127 0.0128249 0.0121384 0.0114531 0.0107692 0.0100866 0.00940529 0.00872528 0.00805569 0.00740565 0.00677516 0.00616422 0.00557283 0.00500099 0.0044487 0.00391596 0.00341142 0.00294376 0.00251297 0.00211904 0.00176199 0.0014418 0.00115849 0.000912042 0.000698282 0.000513024 0.000356267 0.000228011 0.000128256 5.70026e-05 1.42507e-05 0 0 2.34709e-05 9.38838e-05 0.000211238 0.000375535 0.000586774 0.000844954 0.00115008 0.00150214 0.00190457 0.00236081 0.00287084 0.00343467 0.0040523 0.00472373 0.00544895 0.00622798 0.00704397 0.00788009 0.00873635 0.00961273 0.0105092 0.0114259 0.0123627 0.0133196 0.0142807 0.0152303 0.0161682 0.0170945 0.0180091 0.0189122 0.0198036 0.0206834 0.0215424 0.0223717 0.0231712 0.023941 0.0246809 0.025391 0.0260714 0.026722 0.0273398 0.0279218 0.0284682 0.0289788 0.0294537 0.0298928 0.0302962 0.0306639 0.0309968 0.0312957 0.0315608 0.0317919 0.0319891 0.0321524 0.0322819 0.0323774 0.0324413 0.0324761 0.0324817 0.0324582 0.0324055 0.0323236 0.0322126 0.0320723 0.0319051 0.031713 0.0314959 0.031254 0.0309872 0.0306955 0.030379 0.0300375 0.0296726 0.0292859 0.0288773 0.0284468 0.0279944 0.0275202 0.027024 0.026506 0.0259679 0.0254112 0.0248361 0.0242425 0.0236305 0.023 0.0223511 0.0216836 0.0210012 0.0203071 0.0196013 0.0188839 0.0181549 0.0174143 0.016662 0.0158981 0.015129 0.0143614 0.0135952 0.0128305 0.0120672 0.0113053 0.0105448 0.00978574 0.00903819 0.00831222 0.00760781 0.00692497 0.00626371 0.00562402 0.0050059 0.00440935 0.00384405 0.00331969 0.00283626 0.00239376 0.00199221 0.00163158 0.0013119 0.00103314 0.000791 0.000581143 0.000403571 0.000258286 0.000145286 6.45714e-05 1.61429e-05 0 0 2.62608e-05 0.000105043 0.000236347 0.000420173 0.00065652 0.000945389 0.00128678 0.00168069 0.00213045 0.00263939 0.00320751 0.0038348 0.00452128 0.00526693 0.00607176 0.00693576 0.00784032 0.00876682 0.00971525 0.0106856 0.0116779 0.0126921 0.0137283 0.0147864 0.015849 0.0168988 0.0179357 0.0189598 0.019971 0.0209694 0.0219549 0.0229276 0.0238774 0.0247945 0.0256787 0.02653 0.0273486 0.0281343 0.0288873 0.0296074 0.0302914 0.0309359 0.031541 0.0321067 0.0326329 0.0331197 0.033567 0.0339749 0.0343443 0.0346762 0.0349706 0.0352275 0.0354468 0.0356287 0.035773 0.0358798 0.0359516 0.0359911 0.0359983 0.0359731 0.0359156 0.0358257 0.0357035 0.0355489 0.0353643 0.0351521 0.0349123 0.0346448 0.0343497 0.034027 0.0336766 0.0332986 0.0328947 0.0324665 0.0320141 0.0315374 0.0310364 0.0305112 0.0299618 0.0293881 0.028792 0.0281756 0.0275387 0.0268815 0.0262038 0.0255057 0.0247872 0.0240483 0.0232928 0.0225244 0.0217433 0.0209493 0.0201424 0.0193228 0.0184903 0.017645 0.016794 0.0159446 0.0150967 0.0142504 0.0134056 0.0125624 0.0117206 0.0108805 0.0100529 0.00924889 0.00846851 0.00771173 0.00697855 0.00626898 0.00558302 0.00492066 0.00429265 0.00370973 0.00317191 0.00267918 0.00223155 0.00182901 0.00147156 0.00115921 0.000887522 0.000652057 0.000452817 0.000289803 0.000163014 7.24508e-05 1.81127e-05 0 0 2.91502e-05 0.000116601 0.000262352 0.000466404 0.000728756 0.00104941 0.00142836 0.00186561 0.00236435 0.00292776 0.00355583 0.00424857 0.00500598 0.00582805 0.0067148 0.00766621 0.00866182 0.00968116 0.0107242 0.011791 0.0128816 0.0139958 0.0151338 0.0162955 0.0174621 0.0186145 0.0197528 0.0208769 0.021987 0.023083 0.0241648 0.0252325 0.0262752 0.027282 0.0282529 0.0291879 0.030087 0.0309502 0.0317774 0.0325688 0.0333206 0.0340291 0.0346945 0.0353166 0.0358955 0.0364312 0.0369237 0.0373729 0.0377799 0.0381457 0.0384703 0.0387537 0.0389959 0.0391968 0.0393565 0.0394751 0.0395552 0.0395997 0.0396085 0.0395818 0.0395194 0.0394215 0.0392879 0.0391187 0.0389164 0.0386837 0.0384206 0.038127 0.037803 0.0374485 0.0370635 0.0366481 0.0362042 0.0357335 0.0352362 0.0347121 0.0341614 0.033584 0.0329798 0.032349 0.0316936 0.0310159 0.0303157 0.0295931 0.0288482 0.0280808 0.027291 0.0264789 0.0256485 0.0248041 0.0239456 0.0230731 0.0221865 0.0212859 0.0203713 0.0194426 0.0185077 0.0175744 0.0166428 0.0157129 0.0147846 0.0138579 0.0129329 0.0120095 0.0110998 0.0102157 0.00935725 0.00852448 0.00771735 0.00693588 0.00618006 0.00544989 0.00475722 0.00411389 0.00351992 0.00297529 0.00248001 0.00203407 0.00163749 0.00129025 0.000987849 0.000725767 0.000504005 0.000322563 0.000181442 8.06408e-05 2.01602e-05 0 0 3.21392e-05 0.000128557 0.000289253 0.000514228 0.000803481 0.00115701 0.00157482 0.00205691 0.00260627 0.0032259 0.0039158 0.00467597 0.0055064 0.00640711 0.00737808 0.00841932 0.00950845 0.0106231 0.0117633 0.012929 0.0141202 0.015337 0.0165792 0.017847 0.0191199 0.0203773 0.0216193 0.0228459 0.0240571 0.0252529 0.0264332 0.0275982 0.0287358 0.0298345 0.0308941 0.0319146 0.0328961 0.0338385 0.0347419 0.0356062 0.0364274 0.0372016 0.0379287 0.0386087 0.0392416 0.0398274 0.0403662 0.0408579 0.0413036 0.0417042 0.0420599 0.0423706 0.0426362 0.0428569 0.0430326 0.0431633 0.043252 0.0433017 0.0433125 0.0432843 0.0432171 0.043111 0.0429658 0.0427817 0.0425615 0.0423079 0.042021 0.0417007 0.041347 0.04096 0.0405397 0.040086 0.0396011 0.0390869 0.0385435 0.037971 0.0373692 0.0367383 0.0360782 0.0353888 0.0346727 0.0339321 0.033167 0.0323776 0.0315637 0.0307253 0.0298626 0.0289754 0.0280683 0.027146 0.0262083 0.0252554 0.0242872 0.0233037 0.0223049 0.0212908 0.02027 0.0192509 0.0182335 0.0172179 0.016204 0.0151919 0.0141814 0.0131728 0.0121788 0.0112126 0.0102741 0.00936323 0.00848012 0.00762472 0.00679702 0.00599704 0.00523776 0.00453217 0.00388028 0.00328209 0.00273759 0.00224678 0.00180967 0.00142626 0.00109198 0.000802272 0.000557133 0.000356565 0.000200568 8.91413e-05 2.22853e-05 0 0 3.52278e-05 0.000140911 0.00031705 0.000563645 0.000880695 0.0012682 0.00172616 0.00225458 0.00285621 0.00353383 0.00428742 0.005117 0.00602255 0.00700408 0.0080616 0.00919509 0.0103802 0.0115927 0.0128324 0.0140995 0.0153939 0.0167156 0.0180646 0.0194409 0.0208225 0.0221873 0.0235354 0.0248667 0.0261813 0.0274791 0.0287602 0.0300245 0.0312593 0.0324518 0.0336021 