<?xml version="1.0"?> 
<VTKFile type="StructuredGrid" version="0.1"> 
<StructuredGrid WholeExtent="0 128 0 128 0 0"> 
<Piece Extent="0 128 0 128 0 0"> 
<PointData>
<DataArray type="Float32" Name="u" format="ascii" NumberOfComponents="1"> 
0 0 0 0 0 0 0 0 0 0 0 0 0 0 0 0 0 0 0 0 0 0 0 0 0 0 0 0 0 0 0 0 0 0 0 0 0 0 0 0 0 0 0 0 0 0 0 0 0 0 0 0 0 0 0 0 0 0 0 0 0 0 0 0 0 0 0 0 0 0 0 0 0 0 0 0 0 0 0 0 0 0 0 0 0 0 0 0 0 0 0 0 0 0 0 0 0 0 0 0 0 0 0 0 0 0 0 0 0 0 0 0 0 0 0 0 0 0 0 0 0 0 0 0 0 0 0 0 0 0 6.13411e-08 2.45364e-07 5.5207e-07 9.81458e-07 1.53353e-06 2.20828e-06 3.00571e-06 3.92583e-06 4.99576e-06 6.24262e-06 7.66643e-06 9.26717e-06 1.10449e-05 1.29995e-05 1.5131e-05 1.74395e-05 1.98744e-05 2.2385e-05 2.49715e-05 2.76337e-05 3.03717e-05 3.31854e-05 3.6075e-05 3.90404e-05 4.20286e-05 4.49868e-05 4.7915e-05 5.08132e-05 5.36814e-05 5.65196e-05 5.93278e-05 6.21059e-05 6.48236e-05 6.74504e-05 6.99863e-05 7.24313e-05 7.47854e-05 7.70486e-05 7.92209e-05 8.13022e-05 8.32813e-05 8.51468e-05 8.68986e-05 8.85368e-05 9.00614e-05 9.14723e-05 9.27696e-05 9.39533e-05 9.50243e-05 9.59838e-05 9.68316e-05 9.75678e-05 9.81924e-05 9.87054e-05 9.91067e-05 9.93965e-05 9.95814e-05 9.96683e-05 9.96571e-05 9.95479e-05 9.93406e-05 9.90352e-05 9.86318e-05 9.81303e-05 9.75386e-05 9.68646e-05 9.61083e-05 9.52696e-05 9.43486e-05 9.33452e-05 9.22595e-05 9.10915e-05 8.98485e-05 8.85377e-05 8.71593e-05 8.57132e-05 8.41995e-05 8.2618e-05 8.09689e-05 7.9252e-05 7.74758e-05 7.56482e-05 7.37694e-05 7.18394e-05 6.98581e-05 6.78255e-05 6.57417e-05 6.36066e-05 6.14327e-05 5.92326e-05 5.70061e-05 5.47534e-05 5.24743e-05 5.01689e-05 4.78373e-05 4.54793e-05 4.31157e-05 4.07672e-05 3.84337e-05 3.61154e-05 3.3812e-05 3.15237e-05 2.92505e-05 2.69924e-05 2.47803e-05 2.26452e-05 2.05872e-05 1.86062e-05 1.67022e-05 1.48753e-05 1.31254e-05 1.14526e-05 9.88198e-06 8.43887e-06 7.12326e-06 5.93515e-06 4.87452e-06 3.94139e-06 3.13575e-06 2.4576e-06 1.8816e-06 1.3824e-06 9.60001e-07 6.14401e-07 3.456e-07 1.536e-07 3.84e-08 0 0 2.45364e-07 9.81458e-07 2.20828e-06 3.92583e-06 6.13411e-06 8.83312e-06 1.20229e-05 1.57033e-05 1.9983e-05 2.49705e-05 3.06657e-05 3.70687e-05 4.41794e-05 5.19979e-05 6.05242e-05 6.97581e-05 7.94976e-05 8.95402e-05 9.98859e-05 0.000110535 0.000121487 0.000132742 0.0001443 0.000156161 0.000168114 0.000179947 0.00019166 0.000203253 0.000214726 0.000226078 0.000237311 0.000248424 0.000259295 0.000269802 0.000279945 0.000289725 0.000299142 0.000308194 0.000316883 0.000325209 0.000333125 0.000340587 0.000347595 0.000354147 0.000360246 0.000365889 0.000371079 0.000375813 0.000380097 0.000383935 0.000387326 0.000390271 0.00039277 0.000394821 0.000396427 0.000397586 0.000398326 0.000398673 0.000398628 0.000398191 0.000397362 0.000396141 0.000394527 0.000392521 0.000390155 0.000387459 0.000384433 0.000381078 0.000377394 0.000373381 0.000369038 0.000364366 0.000359394 0.000354151 0.000348637 0.000342853 0.000336798 0.000330472 0.000323875 0.000317008 0.000309903 0.000302593 0.000295078 0.000287357 0.000279432 0.000271302 0.000262967 0.000254426 0.000245731 0.00023693 0.000228024 0.000219013 0.000209897 0.000200676 0.000191349 0.000181917 0.000172463 0.000163069 0.000153735 0.000144461 0.000135248 0.000126095 0.000117002 0.00010797 9.91212e-05 9.05809e-05 8.23488e-05 7.44248e-05 6.6809e-05 5.95013e-05 5.25017e-05 4.58103e-05 3.95279e-05 3.37555e-05 2.84931e-05 2.37406e-05 1.94981e-05 1.57656e-05 1.2543e-05 9.83041e-06 7.52641e-06 5.52961e-06 3.84e-06 2.4576e-06 1.3824e-06 6.14401e-07 1.536e-07 0 0 5.5207e-07 2.20828e-06 4.96863e-06 8.83312e-06 1.38017e-05 1.98745e-05 2.70514e-05 3.53325e-05 4.49618e-05 5.61836e-05 6.89979e-05 8.34046e-05 9.94037e-05 0.000116995 0.000136179 0.000156956 0.00017887 0.000201465 0.000224743 0.000248703 0.000273345 0.000298669 0.000324675 0.000351363 0.000378257 0.000404881 0.000431235 0.000457319 0.000483133 0.000508676 0.00053395 0.000558953 0.000583413 0.000607054 0.000629877 0.000651882 0.000673069 0.000693437 0.000712988 0.00073172 0.000749532 0.000766321 0.000782088 0.000796832 0.000810553 0.000823251 0.000834927 0.00084558 0.000855219 0.000863854 0.000871484 0.00087811 0.000883732 0.000888348 0.000891961 0.000894569 0.000896233 0.000897015 0.000896914 0.000895931 0.000894065 0.000891317 0.000887686 0.000883173 0.000877848 0.000871782 0.000864975 0.000857427 0.000849137 0.000840107 0.000830336 0.000819824 0.000808636 0.00079684 0.000784434 0.000771419 0.000757795 0.000743562 0.00072872 0.000713268 0.000697282 0.000680834 0.000663925 0.000646554 0.000628723 0.000610429 0.000591675 0.000572459 0.000552895 0.000533093 0.000513055 0.00049278 0.000472269 0.00045152 0.000430535 0.000409314 0.000388042 0.000366905 0.000345904 0.000325038 0.000304308 0.000283714 0.000263255 0.000242932 0.000223023 0.000203807 0.000185285 0.000167456 0.00015032 0.000133878 0.000118129 0.000103073 8.89378e-05 7.59499e-05 6.41094e-05 5.34163e-05 4.38707e-05 3.54725e-05 2.82217e-05 2.21184e-05 1.69344e-05 1.24416e-05 8.64001e-06 5.52961e-06 3.1104e-06 1.3824e-06 3.456e-07 0 0 9.81458e-07 3.92583e-06 8.83312e-06 1.57033e-05 2.45364e-05 3.53325e-05 4.80914e-05 6.28133e-05 7.99321e-05 9.9882e-05 0.000122663 0.000148275 0.000176718 0.000207992 0.000242097 0.000279033 0.00031799 0.000358161 0.000399543 0.000442139 0.000485947 0.000530967 0.0005772 0.000624646 0.000672457 0.000719789 0.00076664 0.000813011 0.000858903 0.000904313 0.000949244 0.000993695 0.00103718 0.00107921 0.00111978 0.0011589 0.00119657 0.00123278 0.00126753 0.00130084 0.0013325 0.00136235 0.00139038 0.00141659 0.00144098 0.00146356 0.00148431 0.00150325 0.00152039 0.00153574 0.00154931 0.00156108 0.00157108 0.00157929 0.00158571 0.00159034 0.0015933 0.00159469 0.00159451 0.00159277 0.00158945 0.00158456 0.00157811 0.00157009 0.00156062 0.00154983 0.00153773 0.00152431 0.00150958 0.00149352 0.00147615 0.00145746 0.00143758 0.0014166 0.00139455 0.00137141 0.00134719 0.00132189 0.0012955 0.00126803 0.00123961 0.00121037 0.00118031 0.00114943 0.00111773 0.00108521 0.00105187 0.00101771 0.000982924 0.000947721 0.000912098 0.000876054 0.000839589 0.000802703 0.000765396 0.000727669 0.000689852 0.000652275 0.00061494 0.000577846 0.000540992 0.00050438 0.000468009 0.000431878 0.000396485 0.000362324 0.000329395 0.000297699 0.000267236 0.000238005 0.000210007 0.000183241 0.000158112 0.000135022 0.000113972 9.49623e-05 7.79923e-05 6.30622e-05 5.0172e-05 3.93216e-05 3.01056e-05 2.21184e-05 1.536e-05 9.83041e-06 5.52961e-06 2.4576e-06 6.14401e-07 0 0 1.53353e-06 6.13411e-06 1.38017e-05 2.45364e-05 3.83382e-05 5.5207e-05 7.51429e-05 9.81458e-05 0.000124894 0.000156066 0.000191661 0.000231679 0.000276121 0.000324987 0.000378276 0.000435988 0.00049686 0.000559626 0.000624287 0.000690842 0.000759292 0.000829636 0.000901875 0.000976009 0.00105071 0.00112467 0.00119788 0.00127033 0.00134204 0.00141299 0.00148319 0.00155265 0.00162059 0.00168626 0.00174966 0.00181078 0.00186964 0.00192621 0.00198052 0.00203256 0.00208203 0.00212867 0.00217247 0.00221342 0.00225154 0.00228681 0.00231924 0.00234883 0.00237561 0.00239959 0.00242079 0.00243919 0.00245481 0.00246763 0.00247767 0.00248491 0.00248954 0.00249171 0.00249143 0.0024887 0.00248351 0.00247588 0.00246579 0.00245326 0.00243847 0.00242162 0.00240271 0.00238174 0.00235871 0.00233363 0.00230649 0.00227729 0.00224621 0.00221344 0.00217898 0.00214283 0.00210499 0.00206545 0.00202422 0.0019813 0.00193689 0.00189121 0.00184424 0.00179598 0.00174645 0.00169564 0.00164354 0.00159016 0.00153582 0.00148081 0.00142515 0.00136883 0.00131186 0.00125422 0.00119593 0.00113698 0.00107789 0.00101918 0.000960844 0.000902884 0.000845301 0.000788094 0.000731264 0.00067481 0.000619507 0.000566131 0.00051468 0.000465155 0.000417556 0.000371883 0.000328136 0.000286314 0.000247049 0.000210972 0.000178082 0.000148379 0.000121863 9.85347e-05 7.83937e-05 6.14401e-05 4.70401e-05 3.456e-05 2.4e-05 1.536e-05 8.64001e-06 3.84e-06 9.60001e-07 0 0 2.20828e-06 8.83312e-06 1.98745e-05 3.53325e-05 5.5207e-05 7.94981e-05 0.000108206 0.00014133 0.000179847 0.000224734 0.000275991 0.000333618 0.000397615 0.000467981 0.000544717 0.000627823 0.000715478 0.000805861 0.000898973 0.000994812 0.00109338 0.00119468 0.0012987 0.00140545 0.00151303 0.00161952 0.00172494 0.00182928 0.00193253 0.00203471 0.0021358 0.00223581 0.00233365 0.00242822 0.00251951 0.00260753 0.00269227 0.00277375 0.00285195 0.00292688 0.00299813 0.00306528 0.00312835 0.00318733 0.00324221 0.003293 0.00333971 0.00338232 0.00342088 0.00345542 0.00348594 0.00351244 0.00353493 0.00355339 0.00356784 0.00357827 0.00358493 0.00358806 0.00358766 0.00358372 0.00357626 0.00356527 0.00355074 0.00353269 0.00351139 0.00348713 0.0034599 0.00342971 0.00339655 0.00336043 0.00332134 0.00327929 0.00323454 0.00318736 0.00313774 0.00308568 0.00303118 0.00297425 0.00291488 0.00285307 0.00278913 0.00272334 0.0026557 0.00258622 0.00251489 0.00244172 0.0023667 0.00228984 0.00221158 0.00213237 0.00205222 0.00197112 0.00188907 0.00180608 0.00172214 0.00163726 0.00155217 0.00146762 0.00138361 0.00130015 0.00121723 0.00113485 0.00105302 0.000971726 0.000892091 0.000815228 0.000741139 0.000669824 0.000601281 0.000535512 0.000472515 0.000412293 0.000355751 0.000303799 0.000256437 0.000213665 0.000175483 0.00014189 0.000112887 8.84737e-05 6.77377e-05 4.97665e-05 3.456e-05 2.21184e-05 1.24416e-05 5.52961e-06 1.3824e-06 0 0 3.00571e-06 1.20229e-05 2.70514e-05 4.80914e-05 7.51429e-05 0.000108206 0.00014728 0.000192366 0.000244792 0.000305889 0.000375655 0.000454091 0.000541198 0.000636974 0.000741421 0.000854537 0.000973845 0.00109687 0.0012236 0.00135405 0.00148821 0.00162609 0.00176768 0.00191298 0.0020594 0.00220435 0.00234784 0.00248985 0.00263039 0.00276946 0.00290706 0.00304319 0.00317636 0.00330507 0.00342933 0.00354913 0.00366448 0.00377538 0.00388182 0.00398381 0.00408079 0.00417219 0.00425803 0.0043383 0.00441301 0.00448214 0.00454571 0.00460371 0.00465619 0.0047032 0.00474475 0.00478082 0.00481143 0.00483656 0.00485623 0.00487043 0.00487949 0.00488375 0.0048832 0.00487785 0.00486769 0.00485273 0.00483296 0.00480839 0.00477939 0.00474637 0.00470931 0.00466821 0.00462308 0.00457392 0.00452072 0.00446348 0.00440257 0.00433835 0.00427081 0.00419995 0.00412577 0.00404828 0.00396747 0.00388335 0.00379631 0.00370676 0.0036147 0.00352013 0.00342304 0.00332345 0.00322134 0.00311672 0.0030102 0.0029024 0.0027933 0.00268291 0.00257124 0.00245828 0.00234403 0.00222849 0.00211267 0.00199759 0.00188325 0.00176965 0.00165679 0.00154466 0.00143328 0.00132263 0.00121423 0.00110962 0.00100877 0.000911704 0.00081841 0.000728891 0.000643146 0.000561176 0.000484217 0.000413505 0.00034904 0.000290822 0.000238852 0.000193128 0.000153652 0.000120423 9.21985e-05 6.77377e-05 4.70401e-05 3.01056e-05 1.69344e-05 7.52641e-06 1.8816e-06 0 0 3.92583e-06 1.57033e-05 3.53325e-05 6.28133e-05 9.81458e-05 0.00014133 0.000192366 0.000251253 0.000319729 0.000399528 0.000490651 0.000593099 0.000706871 0.000831967 0.000968386 0.00111613 0.00127196 0.00143264 0.00159817 0.00176856 0.00194379 0.00212387 0.0023088 0.00249858 0.00268983 0.00287916 0.00306656 0.00325205 0.00343561 0.00361725 0.00379698 0.00397478 0.00414871 0.00431683 0.00447912 0.0046356 0.00478627 0.00493111 0.00507013 0.00520334 0.00533001 0.0054494 0.00556151 0.00566636 0.00576393 0.00585423 0.00593726 0.00601301 0.00608156 0.00614296 0.00619722 0.00624434 0.00628431 0.00631714 0.00634283 0.00636138 0.00637321 0.00637877 0.00637805 0.00637106 0.0063578 0.00633825 0.00631243 0.00628034 0.00624247 0.00619934 0.00615093 0.00609726 0.00603831 0.0059741 0.00590461 0.00582986 0.0057503 0.00566641 0.0055782 0.00548565 0.00538877 0.00528755 0.00518201 0.00507213 0.00495845 0.00484149 0.00472124 0.00459772 0.00447092 0.00434083 0.00420747 0.00407082 0.0039317 0.00379089 0.00364839 0.00350422 0.00335836 0.00321081 0.00306159 0.00291068 0.00275941 0.0026091 0.00245976 0.00231138 0.00216397 0.00201752 0.00187203 0.00172751 0.00158594 0.00144929 0.00131758 0.0011908 0.00106894 0.000952021 0.000840027 0.000732965 0.000632446 0.000540088 0.000455889 0.000379849 0.000311969 0.000252249 0.000200688 0.000157287 0.000120423 8.84737e-05 6.14401e-05 3.93216e-05 2.21184e-05 9.83041e-06 2.4576e-06 0 0 4.99963e-06 1.99985e-05 4.49967e-05 7.99941e-05 0.000124991 0.000179987 0.000244982 0.000319976 0.000407116 0.000508545 0.000624266 0.000754277 0.000898578 0.00105717 0.00123005 0.00141723 0.0016146 0.00181807 0.00202766 0.00224335 0.00246514 0.00269304 0.00292705 0.00316716 0.00340912 0.00364864 0.00388574 0.0041204 0.00435264 0.00458246 0.00480984 0.00503479 0.00525486 0.00546757 0.00567293 0.00587094 0.0060616 0.00624491 0.00642086 0.00658946 0.00674979 0.00690093 0.00704286 0.0071756 0.00729915 0.0074135 0.00751865 0.0076146 0.00770144 0.00777924 0.007848 0.00790771 0.00795839 0.00800003 0.00803263 0.00805618 0.00807125 0.00807836 0.00807753 0.00806876 0.00805203 0.00802736 0.00799473 0.00795417 0.00790629 0.00785173 0.0077905 0.00772259 0.00764801 0.00756675 0.00747881 0.0073842 0.00728351 0.00717733 0.00706566 0.00694851 0.00682588 0.00669775 0.00656415 0.00642505 0.00628114 0.00613307 0.00598086 0.00582449 0.00566397 0.0054993 0.00533048 0.00515751 0.0049814 0.00480316 0.00462279 0.0044403 0.00425568 0.00406893 0.00388006 0.00368906 0.0034976 0.00330736 0.00311833 0.00293053 0.00274394 0.00255857 0.00237441 0.00219148 0.00201226 0.00183925 0.00167246 0.00151189 0.00135754 0.00120939 0.00106747 0.000931762 0.000804313 0.000687169 0.000580328 0.00048379 0.000397557 0.000321628 0.000256002 0.00020068 0.000153646 0.000112882 7.83906e-05 5.017e-05 2.82206e-05 1.25425e-05 3.13562e-06 0 0 6.25811e-06 2.50324e-05 5.6323e-05 0.00010013 0.000156453 0.000225292 0.000306647 0.000400519 0.000509413 0.000635834 0.000779783 0.00094126 0.00112026 0.0013168 0.00153086 0.00176245 0.00200652 0.00225805 0.00251702 0.00278344 0.00305731 0.00333863 0.0036274 0.00392362 0.00422207 0.00451752 0.00480999 0.00509946 0.00538594 0.00566943 0.00594993 0.00622744 0.00649893 0.00676138 0.00701478 0.00725915 0.00749446 0.00772074 0.00793797 0.00814616 0.00834416 0.00853083 0.00870616 0.00887017 0.00902284 0.00916419 0.0092942 0.00941288 0.00952031 0.00961659 0.00970171 0.00977567 0.00983847 0.00989011 0.00993059 0.00995992 0.00997875 0.00998776 0.00998694 0.0099763 0.00995583 0.00992554 0.00988542 0.00983547 0.00977648 0.00970924 0.00963373 0.00954996 0.00945794 0.00935765 0.0092491 0.0091323 0.00900797 0.00887686 0.00873897 0.00859429 0.00844283 0.00828458 0.00811956 0.00794774 0.00776998 0.00758709 0.00739907 0.00720594 0.00700768 0.0068043 0.00659579 0.00638216 0.00616466 0.00594454 0.00572181 0.00549645 0.00526848 0.00503789 0.00480468 0.00456885 0.00433247 0.00409757 0.00386418 0.00363227 0.00340186 0.00317295 0.00294553 0.00271961 0.00249824 0.00228448 0.00207832 0.00187978 0.00168884 0.00150551 0.00132979 0.00116167 0.00100369 0.000858367 0.000725699 0.000605689 0.000498336 0.000403639 0.0003216 0.000252217 0.000193104 0.000141872 9.85222e-05 6.30542e-05 3.5468e-05 1.57636e-05 3.94089e-06 0 0 7.70127e-06 3.08051e-05 6.93114e-05 0.00012322 0.000192532 0.000277246 0.000377362 0.000492881 0.00062662 0.000781394 0.000957203 0.00115405 0.00137193 0.00161085 0.0018708 0.00215179 0.00244774 0.00275256 0.00306626 0.00338884 0.0037203 0.00406064 0.00440985 0.00476795 0.00512868 0.0054858 0.00583931 0.00618921 0.0065355 0.00687819 0.00721726 0.00755273 0.00788094 0.00819826 0.00850469 0.00880022 0.00908486 0.00935861 0.00962146 0.00987342 0.0101131 0.0103391 0.0105514 0.01075 0.010935 0.0111063 0.0112639 0.0114078 0.0115382 0.011655 0.0117584 0.0118482 0.0119245 0.0119874 0.0120367 0.0120726 0.0120957 0.012107 0.0121063 0.0120937 0.0120692 0.0120328 0.0119845 0.0119243 0.0118531 0.0117719 0.0116806 0.0115794 0.0114681 0.0113468 0.0112155 0.0110742 0.0109237 0.010765 0.0105981 0.010423 0.0102396 0.010048 0.00984824 0.00964021 0.00942497 0.00920353 0.0089759 0.00874207 0.00850204 0.00825581 0.00800339 0.00774478 0.00748148 0.00721503 0.00694543 0.00667267 0.00639675 0.00611768 0.00583546 0.00555007 0.00526401 0.00497975 0.00469728 0.00441662 0.00413774 0.00386067 0.00358539 0.00331191 0.00304389 0.00278497 0.00253516 0.00229445 0.00206285 0.00184036 0.00162697 0.00142269 0.00123058 0.00105368 0.000892004 0.000745545 0.000614305 0.000498284 0.000397481 0.000311897 0.000238796 0.000175442 0.000121835 7.79743e-05 4.38606e-05 1.94936e-05 4.8734e-06 0 0 9.32911e-06 3.73165e-05 8.3962e-05 0.000149266 0.000233228 0.000335848 0.000457127 0.000597063 0.000758736 0.000945224 0.00115653 0.00139264 0.00165358 0.00193932 0.00224988 0.00258526 0.00293824 0.00330161 0.00367538 0.00405955 0.00445411 0.00485906 0.00527441 0.00570015 0.00612895 0.00655347 0.0069737 0.00738966 0.00780133 0.00820872 0.00861182 0.00901065 0.00940088 0.00977821 0.0101426 0.0104942 0.0108328 0.0111585 0.0114713 0.0117713 0.0120566 0.0123257 0.0125786 0.0128152 0.0130357 0.0132398 0.0134278 0.0135995 0.013755 0.0138945 0.0140179 0.0141253 0.0142166 0.0142919 0.014351 0.0143942 0.0144222 0.014436 0.0144355 0.0144209 0.0143921 0.0143491 0.0142919 0.0142205 0.014136 0.0140396 0.0139312 0.0138108 0.0136785 0.0135342 0.013378 0.0132098 0.0130307 0.0128418 0.0126431 0.0124346 0.0122163 0.0119881 0.0117502 0.0115024 0.0112461 0.0109824 0.0107113 0.0104329 0.0101471 0.00985386 0.00955329 0.00924535 0.00893186 0.00861463 0.00829366 0.00796895 0.0076405 0.00730831 0.00697238 0.00663271 0.00629224 0.00595389 0.00561766 0.00528356 0.00495158 0.00462173 0.004294 0.00396839 0.0036492 0.00334073 0.00304296 0.00275591 0.00247957 0.00221395 0.00195903 0.00171483 0.00148498 0.00127312 0.00107924 0.000903359 0.000745465 0.000605561 0.000483646 0.000379721 0.000290724 0.000213593 0.000148329 9.49303e-05 5.33983e-05 2.37326e-05 5.93315e-06 0 0 1.11416e-05 4.45666e-05 0.000100275 0.000178266 0.000278541 0.000401099 0.00054594 0.000713065 0.000905763 0.00112733 0.00137775 0.00165704 0.0019652 0.00230222 0.0026681 0.00306285 0.00347803 0.00390521 0.00434438 0.00479556 0.00525873 0.0057339 0.00622106 0.00672023 0.00722288 0.00772053 0.00821317 0.0087008 0.00918341 0.00966102 0.0101336 0.0106012 0.0110588 0.0115012 0.0119286 0.012341 0.0127383 0.0131205 0.0134876 0.0138397 0.0141747 0.0144907 0.0147877 0.0150658 0.0153248 0.0155648 0.0157858 0.0159878 0.0161709 0.0163351 0.0164805 0.016607 0.0167147 0.0168035 0.0168735 0.0169247 0.0169581 0.0169748 0.0169747 0.016958 0.0169246 0.0168745 0.0168078 0.0167243 0.0166254 0.0165124 0.0163854 0.0162443 0.0160891 0.0159199 0.0157366 0.0155391 0.0153289 0.0151072 0.0148739 0.0146291 0.0143727 0.0141048 0.0138254 0.0135345 0.0132334 0.0129237 0.0126054 0.0122784 0.0119427 0.0115984 0.0112455 0.0108839 0.0105158 0.0101433 0.0097665 0.00938529 0.00899972 0.00860977 0.00821546 0.00781677 0.00741714 0.00701998 0.0066253 0.0062331 0.00584337 0.00545612 0.00507134 0.00468903 0.00431418 0.00395175 0.00360175 0.00326417 0.00293901 0.00262627 0.00232596 0.00203808 0.00176689 0.00151667 0.00128741 0.00107913 0.000891816 0.000725471 0.000580096 0.000455689 0.000348887 0.000256325 0.000178003 0.000113922 6.40813e-05 2.84806e-05 7.12014e-06 0 0 1.31388e-05 5.25554e-05 0.00011825 0.000210222 0.000328471 0.000472998 0.000643803 0.000840886 0.0010677 0.0013277 0.00162088 0.00194725 0.0023068 0.00269954 0.00312546 0.00358457 0.00406711 0.00456335 0.00507327 0.00559687 0.00613417 0.00668515 0.00724982 0.00782817 0.00841048 0.00898699 0.00955771 0.0101226 0.0106818 0.0112351 0.0117826 0.0123244 0.0128546 0.0133673 0.0138627 0.0143407 0.0148013 0.0152444 0.0156702 0.0160786 0.0164674 0.0168341 0.0171788 0.0175016 0.0178024 0.0180811 0.018338 0.0185728 0.0187857 0.0189767 0.0191459 0.0192933 0.0194188 0.0195224 0.0196042 0.0196641 0.0197034 0.0197234 0.0197239 0.019705 0.0196667 0.019609 0.019532 0.0194355 0.0193211 0.0191904 0.0190433 0.0188798 0.0187 0.0185038 0.0182912 0.0180623 0.0178184 0.0175612 0.0172906 0.0170065 0.016709 0.0163982 0.0160739 0.0157362 0.0153868 0.0150274 0.014658 0.0142785 0.013889 0.0134895 0.01308 0.0126604 0.0122333 0.0118011 0.0113639 0.0109217 0.0104744 0.0100221 0.00956468 0.00910225 0.00863872 0.00817804 0.00772022 0.00726524 0.00681311 0.00636384 0.00591742 0.00547385 0.00503883 0.00461805 0.00421151 0.00381921 0.00344115 0.00307734 0.00272777 0.00239244 0.00207631 0.00178433 0.00151652 0.00127286 0.00105336 0.000858015 0.000686829 0.0005398 0.000413284 0.000303637 0.000210859 0.00013495 7.59094e-05 3.37375e-05 8.43437e-06 0 0 1.53207e-05 6.12829e-05 0.000137887 0.000245132 0.000383018 0.000551546 0.000750716 0.000980527 0.00124455 0.00154634 0.00188591 0.00226326 0.00267839 0.00313129 0.00362196 0.00415041 0.00470549 0.00527602 0.00586203 0.00646349 0.00708042 0.00771281 0.00836067 0.009024 0.00969174 0.0103528 0.0110073 0.0116552 0.0122964 0.012931 0.0135589 0.0141802 0.0147883 0.0153765 0.0159448 0.0164932 0.0170218 0.0175305 0.0180193 0.0184882 0.0189346 0.0193558 0.0197519 0.0201227 0.0204684 0.0207889 0.0210843 0.0213545 0.0215995 0.0218195 0.0220143 0.0221841 0.0223288 0.0224485 0.022543 0.0226125 0.0226583 0.0226818 0.0226829 0.0226618 0.0226184 0.0225526 0.0224646 0.0223542 0.0222233 0.0220735 0.0219049 0.0217174 0.0215111 0.021286 0.021042 0.0207792 0.0204992 0.0202038 0.019893 0.0195668 0.0192252 0.0188682 0.0184957 0.0181078 0.0177064 0.0172936 0.0168692 0.0164334 0.015986 0.0155271 0.0150568 0.0145749 0.0140844 0.0135881 0.013086 0.0125782 0.0120646 0.0115452 0.0110201 0.0104892 0.00995698 0.00942806 0.00890239 0.00837998 0.00786082 0.0073449 0.00683224 0.00632284 0.00582314 0.00533961 0.00487224 0.00442104 0.00398601 0.00356714 0.00316444 0.00277791 0.00241324 0.00207612 0.00176655 0.00148455 0.00123009 0.00100319 0.000803845 0.000632055 0.000483917 0.000355531 0.000246896 0.000158014 8.88827e-05 3.95034e-05 9.87585e-06 0 0 1.76873e-05 7.07492e-05 0.000159186 0.000282997 0.000442182 0.000636743 0.000866678 0.00113199 0.0014363 0.00178326 0.00217285 0.00260508 0.00307995 0.00359745 0.0041576 0.00476038 0.00539315 0.00604324 0.00671066 0.00739541 0.00809749 0.0088169 0.00955363 0.0103077 0.0110667 0.0118181 0.012562 0.0132984 0.0140273 0.0147486 0.0154624 0.0161687 0.01686 0.0175287 0.0181749 0.0187986 0.0193998 0.0199785 0.0205347 0.0210683 0.0215764 0.0220559 0.0225068 0.0229292 0.023323 0.0236882 0.0240248 0.0243328 0.0246123 0.0248632 0.0250857 0.0252796 0.0254449 0.0255817 0.02569 0.0257698 0.0258226 0.02585 0.0258519 0.0258285 0.0257796 0.0257053 0.0256055 0.0254804 0.0253318 0.0251617 0.0249701 0.024757 0.0245225 0.0242664 0.0239889 0.0236898 0.0233712 0.0230351 0.0226814 0.0223101 0.0219212 0.0215147 0.0210907 0.0206491 0.0201922 0.0197222 0.0192391 0.0187429 0.0182336 0.0177113 0.0171758 0.0166273 0.016069 0.0155041 0.0149327 0.0143547 0.0137702 0.0131792 0.0125816 0.0119775 0.0113719 0.01077 0.0101718 0.00957732 0.00898647 0.0083993 0.00781581 0.00723599 0.00666711 0.00611643 0.00558395 0.00506966 0.00457357 0.00409568 0.00363599 0.00319449 0.00277768 0.00239202 0.00203752 0.00171419 0.00142201 0.001161 0.000931146 0.000732453 0.000560784 0.000412005 0.000286114 0.000183113 0.000103001 4.57783e-05 1.14446e-05 0 0 2.01913e-05 8.07654e-05 0.000181722 0.000323061 0.000504784 0.000726888 0.000989376 0.00129225 0.00163915 0.00203374 0.00247601 0.00296597 0.00350362 0.00408895 0.00472197 0.00540267 0.00611683 0.00685022 0.00760284 0.0083747 0.00916579 0.00997611 0.0108057 0.0116545 0.0125086 0.0133543 0.0141916 0.0150204 0.0158407 0.0166526 0.0174559 0.0182509 0.019029 0.0197818 0.0205093 0.0212116 0.0218886 0.0225403 0.0231668 0.023768 0.0243406 0.024881 0.0253892 0.0258654 0.0263094 0.0267213 0.0271011 0.0274488 0.0277644 0.0280478 0.0282991 0.0285182 0.0287052 0.0288601 0.0289829 0.0290735 0.0291337 0.0291653 0.0291681 0.0291423 0.0290878 0.0290047 0.0288928 0.0287523 0.0285853 0.0283941 0.0281786 0.0279388 0.0276747 0.0273864 0.0270738 0.026737 0.0263781 0.0259994 0.0256008 0.0251824 0.0247442 0.0242862 0.0238083 0.0233106 0.0227956 0.0222658 0.0217214 0.0211622 0.0205882 0.0199996 0.0193962 0.018778 0.0181488 0.0175123 0.0168684 0.0162172 0.0155587 0.0148927 0.0142195 0.0135389 0.0128567 0.0121786 0.0115046 0.0108347 0.010169 0.00950731 0.00884977 0.00819633 0.0075551 0.00693415 0.00633349 0.00575312 0.00519304 0.00465324 0.00413374 0.00363452 0.0031629 0.00272619 0.0023244 0.00195751 0.00162554 0.00132849 0.00106634 0.000839108 0.000642442 0.000471998 0.000327777 0.000209777 0.000118 5.24443e-05 1.31111e-05 0 0 2.27857e-05 9.11426e-05 0.000205071 0.00036457 0.000569641 0.000820284 0.0011165 0.00145828 0.00184927 0.00229309 0.00278974 0.00333922 0.00394153 0.00459667 0.00530465 0.00606546 0.00686325 0.00768217 0.00852223 0.00938341 0.0102657 0.0111692 0.0120938 0.0130395 0.0139911 0.0149332 0.0158659 0.0167892 0.017703 0.0186074 0.0195023 0.0203879 0.0212547 0.0220934 0.022904 0.0236866 0.0244412 0.0251676 0.025866 0.0265364 0.0271748 0.0277775 0.0283445 0.0288758 0.0293713 0.0298311 0.0302551 0.0306434 0.030996 0.0313127 0.0315937 0.0318388 0.0320481 0.0322216 0.0323592 0.0324611 0.032529 0.032565 0.0325689 0.0325408 0.0324807 0.0323886 0.0322645 0.0321083 0.0319226 0.0317098 0.0314698 0.0312028 0.0309086 0.0305874 0.030239 0.0298635 0.0294634 0.0290411 0.0285967 0.0281302 0.0276415 0.0271306 0.0265976 0.0260425 0.0254681 0.0248773 0.02427 0.0236463 0.0230062 0.0223496 0.0216767 0.0209873 0.0202856 0.0195758 0.0188578 0.0181316 0.0173972 0.0166547 0.015904 0.0151452 0.0143845 0.0136284 0.0128768 0.0121297 0.0113872 0.0106492 0.00991577 0.00918687 0.00847143 0.00777838 0.00710773 0.00645946 0.00583359 0.0052301 0.00464901 0.0040903 0.00356217 0.00307278 0.00262214 0.00221024 0.0018371 0.0015027 0.00120704 0.000950135 0.000727447 0.000534451 0.000371146 0.000237534 0.000133613 5.93834e-05 1.48459e-05 0 0 2.54702e-05 0.000101881 0.000229232 0.000407524 0.000636756 0.000916928 0.00124804 0.0016301 0.00206666 0.0025613 0.00311401 0.00372481 0.00439368 0.00512063 0.00590565 0.00674876 0.00763241 0.0085391 0.00946881 0.0104216 0.0113973 0.0123961 0.0134179 0.0144628 0.0155139 0.0165547 0.0175849 0.0186048 0.0196141 0.0206131 0.0216016 0.0225797 0.0235371 0.0244636 0.0253591 0.0262238 0.0270576 0.0278604 0.0286323 0.0293734 0.0300792 0.0307457 0.0313727 0.0319603 0.0325085 0.0330173 0.0334867 0.0339167 0.0343072 0.0346581 0.0349694 0.0352412 0.0354734 0.035666 0.0358191 0.0359326 0.0360085 0.0360491 0.0360542 0.0360239 0.0359582 0.035857 0.0357204 0.0355483 0.0353436 0.0351088 0.0348439 0.0345491 0.0342242 0.0338693 0.0334843 0.0330694 0.0326271 0.0321603 0.0316691 0.0311533 0.030613 0.0300481 0.0294588 0.0288449 0.0282097 0.0275564 0.0268849 0.0261953 0.0254875 0.0247615 0.0240174 0.0232552 0.0224793 0.0216945 0.0209006 0.0200978 0.0192859 0.018465 0.0176351 0.0167962 0.0159553 0.0151193 0.0142883 0.0134622 0.0126411 0.011825 0.0110138 0.0102076 0.00941611 0.00864913 0.00790666 0.00718868 0.00649522 0.00582626 0.0051818 0.00456185 0.00397549 0.00343179 0.00293075 0.00247238 0.00205667 0.00168363 0.00135325 0.00106553 0.000815798 0.000599362 0.000416224 0.000266383 0.00014984 6.65958e-05 1.66489e-05 0 0 2.82451e-05 0.00011298 0.000254206 0.000451921 0.000706127 0.00101682 0.00138401 0.00180769 0.00229132 0.00283837 0.00344885 0.00412275 0.00486007 0.00566081 0.00652498 0.00745257 0.00842432 0.009421 0.0104426 0.0114891 0.0125605 0.0136569 0.0147782 0.0159244 0.0170773 0.0182187 0.0193487 0.0204672 0.0215742 0.0226697 0.0237537 0.0248263 0.0258762 0.0268923 0.0278746 0.0288231 0.0297378 0.0306187 0.0314657 0.032279 0.0330537 0.0337853 0.0344738 0.0351191 0.0357212 0.0362801 0.0367959 0.0372686 0.0376979 0.0380839 0.0384264 0.0387255 0.0389812 0.0391935 0.0393624 0.0394879 0.0395722 0.0396176 0.0396241 0.0395916 0.0395202 0.0394098 0.0392606 0.0390724 0.0388482 0.038591 0.0383008 0.0379776 0.0376214 0.0372321 0.0368098 0.0363545 0.0358692 0.035357 0.0348178 0.0342517 0.0336587 0.0330387 0.0323917 0.0317178 0.0310205 0.0303033 0.0295661 0.028809 0.0280321 0.0272352 0.0264183 0.0255816 0.02473 0.0238685 0.0229971 0.0221158 0.0212247 0.0203237 0.0194128 0.0184921 0.0175691 0.0166514 0.0157392 0.0148323 0.0139308 0.0130347 0.0121439 0.0112585 0.0103891 0.00954639 0.00873028 0.00794079 0.00717794 0.00644171 0.00573213 0.00504917 0.00440286 0.00380321 0.00325023 0.00274392 0.00228427 0.00187128 0.00150496 0.0011853 0.000907496 0.000666732 0.000463008 0.000296325 0.000166683 7.40813e-05 1.85203e-05 0 0 3.11102e-05 0.000124441 0.000279992 0.000497763 0.000777755 0.00111997 0.0015244 0.00199105 0.00252325 0.00312431 0.00379424 0.00453304 0.0053407 0.00621723 0.00716262 0.00817688 0.00923898 0.0103279 0.0114436 0.0125861 0.0137554 0.0149515 0.0161745 0.0174242 0.0186811 0.0199254 0.0211572 0.0223764 0.023583 0.0247771 0.0259587 0.0271277 0.0282721 0.0293797 0.0304505 0.0314846 0.0324819 0.0334424 0.0343662 0.0352532 0.0360984 0.0368966 0.0376478 0.038352 0.0390092 0.0396195 0.0401828 0.0406991 0.0411682 0.04159 0.0419645 0.0422917 0.0425716 0.0428041 0.0429893 0.0431271 0.0432201 0.0432705 0.0432784 0.0432439 0.0431668 0.0430472 0.0428851 0.0426805 0.0424366 0.0421566 0.0418405 0.0414884 0.0411002 0.0406759 0.0402155 0.039719 0.0391898 0.0386311 0.0380431 0.0374255 0.0367786 0.0361022 0.0353964 0.0346612 0.0339004 0.0331179 0.0323136 0.0314877 0.03064 0.0297706 0.0288795 0.0279666 0.0270375 0.0260977 0.0251471 0.0241858 0.0232136 0.0222308 0.0212371 0.0202328 0.0192259 0.0182248 0.0172295 0.0162399 0.0152562 0.0142782 0.0133061 0.0123397 0.0113905 0.0104702 0.00957859 0.00871578 0.00788174 0.00707647 0.00629997 0.00555224 0.00484428 0.00418706 0.00358059 0.00302486 0.00251989 0.00206566 0.00166218 0.00130944 0.00100254 0.000736561 0.0005115 0.00032736 0.00018414 8.18401e-05 2.046e-05 0 0 3.40656e-05 0.000136262 0.00030659 0.000545049 0.00085164 0.00122636 0.00166921 0.0021802 0.00276245 0.00341912 0.00415019 0.00495567 0.00583557 0.00678987 0.00781858 0.0089217 0.0100764 0.0112597 0.0124718 0.0137125 0.0149819 0.01628 0.0176068 0.0189623 0.0203253 0.0216747 0.0230104 0.0243324 0.0256408 0.02