<?xml version="1.0"?> 
<VTKFile type="StructuredGrid" version="0.1"> 
<StructuredGrid WholeExtent="0 128 0 128 0 0"> 
<Piece Extent="0 128 0 128 0 0"> 
<PointData>
<DataArray type="Float32" Name="u" format="ascii" NumberOfComponents="1"> 
0 0 0 0 0 0 0 0 0 0 0 0 0 0 0 0 0 0 0 0 0 0 0 0 0 0 0 0 0 0 0 0 0 0 0 0 0 0 0 0 0 0 0 0 0 0 0 0 0 0 0 0 0 0 0 0 0 0 0 0 0 0 0 0 0 0 0 0 0 0 0 0 0 0 0 0 0 0 0 0 0 0 0 0 0 0 0 0 0 0 0 0 0 0 0 0 0 0 0 0 0 0 0 0 0 0 0 0 0 0 0 0 0 0 0 0 0 0 0 0 0 0 0 0 0 0 0 0 0 0 -6.6341e-08 -2.65364e-07 -5.97069e-07 -1.06146e-06 -1.65852e-06 -2.38827e-06 -3.25071e-06 -4.24582e-06 -5.26306e-06 -6.19188e-06 -7.03227e-06 -7.78423e-06 -8.44777e-06 -9.02288e-06 -9.50957e-06 -9.90782e-06 -1.01657e-05 -1.02311e-05 -1.01041e-05 -9.78461e-06 -9.27275e-06 -8.56846e-06 -7.67175e-06 -6.58262e-06 -5.38913e-06 -4.17936e-06 -2.9533e-06 -1.71095e-06 -4.52318e-07 8.22599e-07 2.1138e-06 3.42129e-06 4.63453e-06 5.64299e-06 6.44668e-06 7.04558e-06 7.4397e-06 7.62905e-06 7.61361e-06 7.3934e-06 6.96229e-06 6.31416e-06 5.44901e-06 4.36685e-06 3.06767e-06 1.55148e-06 -1.81734e-07 -2.13196e-06 -4.18622e-06 -6.23154e-06 -8.26791e-06 -1.02953e-05 -1.23138e-05 -1.43233e-05 -1.63239e-05 -1.83156e-05 -2.01803e-05 -2.18002e-05 -2.31752e-05 -2.43055e-05 -2.51908e-05 -2.58313e-05 -2.6227e-05 -2.63779e-05 -2.62838e-05 -2.59449e-05 -2.53611e-05 -2.45323e-05 -2.34587e-05 -2.21401e-05 -2.05767e-05 -1.87683e-05 -1.68316e-05 -1.48832e-05 -1.29229e-05 -1.09509e-05 -8.96712e-06 -6.97156e-06 -4.96422e-06 -2.94511e-06 -1.02464e-06 6.86788e-07 2.18917e-06 3.48252e-06 4.56682e-06 5.44207e-06 6.10829e-06 6.56546e-06 6.81957e-06 6.87659e-06 6.73654e-06 6.3994e-06 5.86519e-06 5.13389e-06 4.20552e-06 3.08006e-06 1.86328e-06 6.60949e-07 -5.26945e-07 -1.7004e-06 -2.85941e-06 -4.00398e-06 -5.13411e-06 -6.2498e-06 -7.26783e-06 -8.10498e-06 -8.76126e-06 -9.23666e-06 -9.53118e-06 -9.64483e-06 -9.5776e-06 -9.32949e-06 -8.9498e-06 -8.48781e-06 -7.94352e-06 -7.31694e-06 -6.60806e-06 -5.81689e-06 -4.94342e-06 -3.98766e-06 -3.05305e-06 -2.24306e-06 -1.55768e-06 -9.96914e-07 -5.60764e-07 -2.49228e-07 -6.23071e-08 0 0 -2.65364e-07 -1.06146e-06 -2.38827e-06 -4.24582e-06 -6.6341e-06 -9.5531e-06 -1.30028e-05 -1.69833e-05 -2.10523e-05 -2.47675e-05 -2.81291e-05 -3.11369e-05 -3.37911e-05 -3.60915e-05 -3.80383e-05 -3.96313e-05 -4.06626e-05 -4.09243e-05 -4.04162e-05 -3.91385e-05 -3.7091e-05 -3.42739e-05 -3.0687e-05 -2.63305e-05 -2.15565e-05 -1.67174e-05 -1.18132e-05 -6.8438e-06 -1.80927e-06 3.2904e-06 8.45521e-06 1.36852e-05 1.85381e-05 2.2572e-05 2.57867e-05 2.81823e-05 2.97588e-05 3.05162e-05 3.04545e-05 2.95736e-05 2.78491e-05 2.52566e-05 2.17961e-05 1.74674e-05 1.22707e-05 6.20591e-06 -7.26935e-07 -8.52785e-06 -1.67449e-05 -2.49262e-05 -3.30716e-05 -4.11813e-05 -4.92552e-05 -5.72933e-05 -6.52957e-05 -7.32622e-05 -8.07212e-05 -8.72008e-05 -9.2701e-05 -9.72218e-05 -0.000100763 -0.000103325 -0.000104908 -0.000105511 -0.000105135 -0.00010378 -0.000101444 -9.81293e-05 -9.38347e-05 -8.85605e-05 -8.23067e-05 -7.50733e-05 -6.73265e-05 -5.95326e-05 -5.16917e-05 -4.38036e-05 -3.58685e-05 -2.78862e-05 -1.98569e-05 -1.17805e-05 -4.09857e-06 2.74715e-06 8.7567e-06 1.39301e-05 1.82673e-05 2.17683e-05 2.44331e-05 2.62618e-05 2.72783e-05 2.75064e-05 2.69462e-05 2.55976e-05 2.34608e-05 2.05356e-05 1.68221e-05 1.23202e-05 7.45314e-06 2.6438e-06 -2.10778e-06 -6.80159e-06 -1.14376e-05 -1.60159e-05 -2.05364e-05 -2.49992e-05 -2.90713e-05 -3.24199e-05 -3.5045e-05 -3.69466e-05 -3.81247e-05 -3.85793e-05 -3.83104e-05 -3.7318e-05 -3.57992e-05 -3.39512e-05 -3.17741e-05 -2.92678e-05 -2.64323e-05 -2.32676e-05 -1.97737e-05 -1.59506e-05 -1.22122e-05 -8.97223e-06 -6.23071e-06 -3.98766e-06 -2.24306e-06 -9.96914e-07 -2.49228e-07 0 0 -5.97069e-07 -2.38827e-06 -5.37362e-06 -9.5531e-06 -1.49267e-05 -2.14945e-05 -2.92564e-05 -3.82124e-05 -4.73676e-05 -5.57269e-05 -6.32904e-05 -7.00581e-05 -7.60299e-05 -8.12059e-05 -8.55861e-05 -8.91704e-05 -9.14909e-05 -9.20796e-05 -9.09365e-05 -8.80615e-05 -8.34548e-05 -7.71162e-05 -6.90458e-05 -5.92436e-05 -4.85022e-05 -3.76142e-05 -2.65797e-05 -1.53985e-05 -4.07086e-06 7.40339e-06 1.90242e-05 3.07916e-05 4.17108e-05 5.07869e-05 5.80201e-05 6.34102e-05 6.69573e-05 6.86614e-05 6.85225e-05 6.65406e-05 6.26606e-05 5.68274e-05 4.90411e-05 3.93017e-05 2.76091e-05 1.39633e-05 -1.6356e-06 -1.91877e-05 -3.7676e-05 -5.60839e-05 -7.44112e-05 -9.2658e-05 -0.000110824 -0.00012891 -0.000146915 -0.00016484 -0.000181623 -0.000196202 -0.000208577 -0.000218749 -0.000226717 -0.000232482 -0.000236043 -0.000237401 -0.000236555 -0.000233504 -0.00022825 -0.000220791 -0.000211128 -0.000199261 -0.00018519 -0.000168915 -0.000151485 -0.000133948 -0.000116306 -9.85581e-05 -8.07041e-05 -6.2744e-05 -4.4678e-05 -2.6506e-05 -9.22177e-06 6.18109e-06 1.97026e-05 3.13427e-05 4.11014e-05 4.89787e-05 5.49746e-05 5.90891e-05 6.13761e-05 6.18893e-05 6.06288e-05 5.75946e-05 5.27867e-05 4.6205e-05 3.78497e-05 2.77205e-05 1.67696e-05 5.94854e-06 -4.74251e-06 -1.53036e-05 -2.57347e-05 -3.60358e-05 -4.6207e-05 -5.62482e-05 -6.54104e-05 -7.29448e-05 -7.88513e-05 -8.31299e-05 -8.57806e-05 -8.68034e-05 -8.61984e-05 -8.39654e-05 -8.05482e-05 -7.63903e-05 -7.14917e-05 -6.58525e-05 -5.94726e-05 -5.2352e-05 -4.44908e-05 -3.58889e-05 -2.74774e-05 -2.01875e-05 -1.40191e-05 -8.97223e-06 -5.04688e-06 -2.24306e-06 -5.60764e-07 0 0 -1.06146e-06 -4.24582e-06 -9.5531e-06 -1.69833e-05 -2.65364e-05 -3.82124e-05 -5.20113e-05 -6.79331e-05 -8.4209e-05 -9.90701e-05 -0.000112516 -0.000124548 -0.000135164 -0.000144366 -0.000152153 -0.000158525 -0.000162651 -0.000163697 -0.000161665 -0.000156554 -0.000148364 -0.000137095 -0.000122748 -0.000105322 -8.62261e-05 -6.68697e-05 -4.72527e-05 -2.73752e-05 -7.23709e-06 1.31616e-05 3.38208e-05 5.47406e-05 7.41525e-05 9.02879e-05 0.000103147 0.000112729 0.000119035 0.000122065 0.000121818 0.000118294 0.000111397 0.000101027 8.71842e-05 6.98696e-05 4.90828e-05 2.48236e-05 -2.90774e-06 -3.41114e-05 -6.69796e-05 -9.97046e-05 -0.000132287 -0.000164725 -0.000197021 -0.000229173 -0.000261183 -0.000293049 -0.000322885 -0.000348803 -0.000370804 -0.000388887 -0.000403053 -0.000413302 -0.000419633 -0.000422046 -0.000420541 -0.000415118 -0.000405777 -0.000392517 -0.000375339 -0.000354242 -0.000329227 -0.000300293 -0.000269306 -0.000238131 -0.000206767 -0.000175214 -0.000143474 -0.000111545 -7.94276e-05 -4.71218e-05 -1.63943e-05 1.09886e-05 3.50268e-05 5.57203e-05 7.30691e-05 8.70732e-05 9.77326e-05 0.000105047 0.000109113 0.000110025 0.000107785 0.00010239 9.3843e-05 8.21423e-05 6.72883e-05 4.9281e-05 2.98125e-05 1.05752e-05 -8.43113e-06 -2.72064e-05 -4.57506e-05 -6.40637e-05 -8.21458e-05 -9.99968e-05 -0.000116285 -0.00012968 -0.00014018 -0.000147786 -0.000152499 -0.000154317 -0.000153242 -0.000149272 -0.000143197 -0.000135805 -0.000127096 -0.000117071 -0.000105729 -9.30703e-05 -7.90947e-05 -6.38025e-05 -4.88488e-05 -3.58889e-05 -2.49228e-05 -1.59506e-05 -8.97223e-06 -3.98766e-06 -9.96914e-07 0 0 -1.65852e-06 -6.6341e-06 -1.49267e-05 -2.65364e-05 -4.14631e-05 -5.97069e-05 -8.12677e-05 -0.000106146 -0.000131577 -0.000154797 -0.000175807 -0.000194606 -0.000211194 -0.000225572 -0.000237739 -0.000247696 -0.000254141 -0.000255777 -0.000252601 -0.000244615 -0.000231819 -0.000214212 -0.000191794 -0.000164565 -0.000134728 -0.000104484 -7.38324e-05 -4.27737e-05 -1.1308e-05 2.0565e-05 5.2845e-05 8.55323e-05 0.000115863 0.000141075 0.000161167 0.000176139 0.000185993 0.000190726 0.00019034 0.000184835 0.000174057 0.000157854 0.000136225 0.000109171 7.66918e-05 3.87869e-05 -4.54334e-06 -5.3299e-05 -0.000104656 -0.000155789 -0.000206698 -0.000257383 -0.000307845 -0.000358083 -0.000408098 -0.000457889 -0.000504507 -0.000545005 -0.000579381 -0.000607636 -0.000629771 -0.000645784 -0.000655676 -0.000659447 -0.000657096 -0.000648623 -0.000634027 -0.000613308 -0.000586467 -0.000553503 -0.000514417 -0.000469208 -0.000420791 -0.000372079 -0.000323073 -0.000273773 -0.000224178 -0.000174289 -0.000124106 -7.36279e-05 -2.5616e-05 1.71697e-05 5.47294e-05 8.70629e-05 0.00011417 0.000136052 0.000152707 0.000164136 0.000170489 0.000171915 0.000168413 0.000159985 0.00014663 0.000128347 0.000105138 7.70015e-05 4.65821e-05 1.65237e-05 -1.31736e-05 -4.251e-05 -7.14853e-05 -0.0001001 -0.000128353 -0.000156245 -0.000181696 -0.000202625 -0.000219031 -0.000230916 -0.000238279 -0.000241121 -0.00023944 -0.000233237 -0.000223745 -0.000212195 -0.000198588 -0.000182924 -0.000165202 -0.000145422 -0.000123586 -9.96914e-05 -7.63262e-05 -5.60764e-05 -3.8942e-05 -2.49228e-05 -1.40191e-05 -6.23071e-06 -1.55768e-06 0 0 -2.38827e-06 -9.5531e-06 -2.14945e-05 -3.82124e-05 -5.97069e-05 -8.59779e-05 -0.000117025 -0.00015285 -0.00018947 -0.000222908 -0.000253162 -0.000280232 -0.00030412 -0.000324824 -0.000342344 -0.000356682 -0.000365964 -0.000368318 -0.000363746 -0.000352246 -0.000333819 -0.000308465 -0.000276183 -0.000236974 -0.000194009 -0.000150457 -0.000106319 -6.15942e-05 -1.62835e-05 2.96136e-05 7.60969e-05 0.000123166 0.000166843 0.000203148 0.00023208 0.000253641 0.000267829 0.000274646 0.00027409 0.000266162 0.000250642 0.00022731 0.000196164 0.000157207 0.000110436 5.58532e-05 -6.54241e-06 -7.67506e-05 -0.000150704 -0.000224335 -0.000297645 -0.000370632 -0.000443297 -0.00051564 -0.000587661 -0.00065936 -0.000726491 -0.000784807 -0.000834309 -0.000874996 -0.00090687 -0.000929929 -0.000944173 -0.000949603 -0.000946218 -0.000934016 -0.000912998 -0.000883164 -0.000844512 -0.000797045 -0.00074076 -0.000675659 -0.000605939 -0.000535794 -0.000465225 -0.000394233 -0.000322816 -0.000250976 -0.000178712 -0.000106024 -3.68871e-05 2.47244e-05 7.88103e-05 0.000125371 0.000164405 0.000195915 0.000219898 0.000236356 0.000245504 0.000247557 0.000242515 0.000230379 0.000211147 0.00018482 0.000151399 0.000110882 6.70782e-05 2.37942e-05 -1.897e-05 -6.12143e-05 -0.000102939 -0.000144143 -0.000184828 -0.000224993 -0.000261642 -0.000291779 -0.000315405 -0.00033252 -0.000343122 -0.000347214 -0.000344793 -0.000335862 -0.000322193 -0.000305561 -0.000285967 -0.00026341 -0.00023789 -0.000209408 -0.000177963 -0.000143556 -0.00010991 -8.075e-05 -5.60764e-05 -3.58889e-05 -2.01875e-05 -8.97223e-06 -2.24306e-06 0 0 -3.25071e-06 -1.30028e-05 -2.92564e-05 -5.20113e-05 -8.12677e-05 -0.000117025 -0.000159285 -0.000208045 -0.00025789 -0.000303402 -0.000344581 -0.000381427 -0.000413941 -0.000442121 -0.000465969 -0.000485483 -0.000498117 -0.000501322 -0.000495099 -0.000479446 -0.000454365 -0.000419855 -0.000375916 -0.000322548 -0.000264067 -0.000204788 -0.000144711 -8.38365e-05 -2.21636e-05 4.03074e-05 0.000103576 0.000167643 0.000227092 0.000276507 0.000315887 0.000345233 0.000364545 0.000373823 0.000373067 0.000362277 0.000341152 0.000309394 0.000267002 0.000213976 0.000150316 7.60224e-05 -8.90495e-06 -0.000104466 -0.000205125 -0.000305345 -0.000405128 -0.000504471 -0.000603377 -0.000701843 -0.000799872 -0.000897462 -0.000988834 -0.00106821 -0.00113559 -0.00119097 -0.00123435 -0.00126574 -0.00128512 -0.00129252 -0.00128791 -0.0012713 -0.00124269 -0.00120208 -0.00114948 -0.00108487 -0.00100826 -0.000919648 -0.00082475 -0.000729275 -0.000633223 -0.000536594 -0.000439389 -0.000341606 -0.000243247 -0.000144311 -5.02074e-05 3.36526e-05 0.00010727 0.000170643 0.000223774 0.000266662 0.000299306 0.000321707 0.000334159 0.000336953 0.00033009 0.000313571 0.000287394 0.000251561 0.00020607 0.000150923 9.13009e-05 3.23865e-05 -2.58203e-05 -8.33195e-05 -0.000140111 -0.000196195 -0.000251571 -0.00030624 -0.000356124 -0.000397144 -0.000429302 -0.000452596 -0.000467028 -0.000472596 -0.000469302 -0.000457145 -0.00043854 -0.000415903 -0.000389233 -0.00035853 -0.000323795 -0.000285028 -0.000242228 -0.000195395 -0.000149599 -0.00010991 -7.63262e-05 -4.88488e-05 -2.74774e-05 -1.22122e-05 -3.05305e-06 0 0 -4.24582e-06 -1.69833e-05 -3.82124e-05 -6.79331e-05 -0.000106146 -0.00015285 -0.000208045 -0.000271733 -0.000336836 -0.00039628 -0.000450065 -0.000498191 -0.000540657 -0.000577464 -0.000608612 -0.000634101 -0.000650602 -0.000654788 -0.000646659 -0.000626215 -0.000593456 -0.000548382 -0.000490992 -0.000421288 -0.000344904 -0.000267479 -0.000189011 -0.000109501 -2.89484e-05 5.26463e-05 0.000135283 0.000218963 0.00029661 0.000361152 0.000412587 0.000450917 0.000476141 0.000488259 0.000487271 0.000473178 0.000445586 0.000404106 0.000348737 0.000279478 0.000196331 9.92946e-05 -1.1631e-05 -0.000136446 -0.000267918 -0.000398819 -0.000529146 -0.000658901 -0.000788084 -0.000916693 -0.00104473 -0.0011722 -0.00129154 -0.00139521 -0.00148322 -0.00155555 -0.00161221 -0.00165321 -0.00167853 -0.00168818 -0.00168217 -0.00166047 -0.00162311 -0.00157007 -0.00150136 -0.00141697 -0.00131691 -0.00120117 -0.00107722 -0.000952522 -0.000827067 -0.000700858 -0.000573895 -0.00044618 -0.00031771 -0.000188487 -6.5577e-05 4.39545e-05 0.000140107 0.000222881 0.000292276 0.000348293 0.00039093 0.000420189 0.000436452 0.000440102 0.000431138 0.000409562 0.000375372 0.000328569 0.000269153 0.000197124 0.00011925 4.23007e-05 -3.37245e-05 -0.000108826 -0.000183002 -0.000256255 -0.000328583 -0.000399987 -0.000465141 -0.000518719 -0.00056072 -0.000591146 -0.000609995 -0.000617269 -0.000612966 -0.000597087 -0.000572787 -0.00054322 -0.000508385 -0.000468284 -0.000422916 -0.000372281 -0.000316379 -0.00025521 -0.000195395 -0.000143556 -9.96914e-05 -6.38025e-05 -3.58889e-05 -1.59506e-05 -3.98766e-06 0 0 -5.235e-06 -2.094e-05 -4.7115e-05 -8.376e-05 -0.000130875 -0.00018846 -0.000256515 -0.00033504 -0.000415156 -0.000487983 -0.000553521 -0.000611771 -0.000662732 -0.000706405 -0.000742789 -0.000771884 -0.000789582 -0.000791774 -0.00077846 -0.00074964 -0.000705315 -0.000645483 -0.000570146 -0.000479302 -0.000380092 -0.000279652 -0.000177983 -7.5086e-05 2.90404e-05 0.000134396 0.00024098 0.000348793 0.000448913 0.000532416 0.000599304 0.000649575 0.00068323 0.00070027 0.000700693 0.0006845 0.000651204 0.000600315 0.000531834 0.000445762 0.000342097 0.000220841 8.19924e-05 -7.4448e-05 -0.000239357 -0.000403611 -0.000567211 -0.000730155 -0.000892445 -0.00105408 -0.00121506 -0.00137539 -0.00152554 -0.00165599 -0.00176674 -0.00185779 -0.00192915 -0.00198081 -0.00201277 -0.00202503 -0.00201759 -0.00199044 -0.00194359 -0.00187703 -0.00179077 -0.00168479 -0.00155912 -0.00141373 -0.00125805 -0.00110147 -0.000944009 -0.000785651 -0.000626403 -0.000466263 -0.000305231 -0.000143309 1.05915e-05 0.000147555 0.000267581 0.00037067 0.000456822 0.000526037 0.000578315 0.000613656 0.000632537 0.000635436 0.000622353 0.000593288 0.000548241 0.000487212 0.0004102 0.000317207 0.000216768 0.000117421 1.91669e-05 -7.79956e-05 -0.000174066 -0.000269044 -0.00036293 -0.000455724 -0.000540682 -0.000611059 -0.000666854 -0.000708069 -0.000734702 -0.000746755 -0.000744226 -0.000727116 -0.000699323 -0.000664744 -0.000623379 -0.000575227 -0.000520289 -0.000458565 -0.000390055 -0.000314758 -0.000240987 -0.000177051 -0.000122952 -7.86895e-05 -4.42629e-05 -1.96724e-05 -4.9181e-06 0 0 -6.07962e-06 -2.43185e-05 -5.47166e-05 -9.7274e-05 -0.000151991 -0.000218866 -0.000297902 -0.000389096 -0.000481696 -0.00056495 -0.000638856 -0.000703416 -0.000758628 -0.000804493 -0.000841011 -0.000868183 -0.00088122 -0.000875337 -0.000850533 -0.000806808 -0.000744163 -0.000662597 -0.00056211 -0.000442703 -0.000313202 -0.000182433 -5.03958e-05 8.29087e-05 0.000217481 0.000353321 0.000490428 0.000628803 0.000757515 0.000865634 0.000953159 0.00102009 0.00106643 0.00109217 0.00109732 0.00108188 0.00104526 0.000986889 0.000906759 0.000804873 0.000681231 0.000535832 0.000368678 0.000179767 -1.97138e-05 -0.00021858 -0.000416831 -0.000614468 -0.000811489 -0.0010079 -0.00120369 -0.00139886 -0.00158176 -0.0017407 -0.0018757 -0.00198675 -0.00207386 -0.00213701 -0.00217622 -0.00219148 -0.00218278 -0.00215012 -0.00209348 -0.00201289 -0.00190832 -0.00177979 -0.00162729 -0.00145082 -0.00126191 -0.00107207 -0.000881301 -0.000689603 -0.000496977 -0.000303423 -0.00010894 8.64714e-05 0.000271886 0.000436377 0.000579947 0.000702594 0.000804319 0.000885122 0.000945002 0.00098396 0.00100257 0.00100139 0.000980429 0.000939687 0.000879162 0.000798855 0.000698765 0.000578893 0.000449696 0.000321633 0.000194703 6.8907e-05 -5.57557e-05 -0.000179285 -0.000301681 -0.000422943 -0.000534735 -0.000628719 -0.000704895 -0.000763263 -0.000803824 -0.000826577 -0.000831523 -0.00081866 -0.000792539 -0.000757707 -0.000714165 -0.000661912 -0.000600949 -0.000531276 -0.000452892 -0.000365798 -0.000280064 -0.000205761 -0.00014289 -9.14494e-05 -5.14403e-05 -2.28624e-05 -5.71559e-06 0 0 -6.77969e-06 -2.71188e-05 -6.10172e-05 -0.000108475 -0.000169492 -0.000244069 -0.000332205 -0.0004339 -0.000536458 -0.000627181 -0.00070607 -0.000773125 -0.000828345 -0.00087173 -0.000903281 -0.000922998 -0.000925517 -0.000905477 -0.000862878 -0.000797719 -0.000710001 -0.000599723 -0.000466886 -0.00031149 -0.000144234 2.41797e-05 0.000193752 0.000364483 0.000536373 0.000709421 0.000883627 0.00105899 0.00122242 0.0013608 0.00147415 0.00156246 0.00162573 0.00166397 0.00167716 0.00166532 0.00162776 0.00156383 0.00147351 0.00135681 0.00121373 0.00104427 0.000848426 0.000626201 0.000391011 0.000156275 -7.80078e-05 -0.000311837 -0.000545214 -0.000778137 -0.00101061 -0.00124262 -0.0014602 -0.00164937 -0.00181011 -0.00194243 -0.00204633 -0.00212182 -0.00216888 -0.00218753 -0.00217774 -0.00213949 -0.00207279 -0.00197763 -0.00185402 -0.00170195 -0.00152143 -0.00131245 -0.00108881 -0.000864311 -0.000638944 -0.000412713 -0.000185618 4.23409e-05 0.000271165 0.000500853 0.000718305 0.000910423 0.00107721 0.00121866 0.00133477 0.00142555 0.00149099 0.0015311 0.00154654 0.00153796 0.00150537 0.00144876 0.00136814 0.0012635 0.00113485 0.000982183 0.000818035 0.000654936 0.000492885 0.000331882 0.000171928 1.30228e-05 -0.000144834 -0.000301643 -0.000447299 -0.000571699 -0.000674843 -0.00075673 -0.000817362 -0.000856737 -0.000874856 -0.000871719 -0.000852433 -0.000822109 -0.000780744 -0.000728341 -0.000664897 -0.000590414 -0.000504891 -0.000408329 -0.000312627 -0.000229685 -0.000159503 -0.000102082 -5.74212e-05 -2.55205e-05 -6.38014e-06 0 0 -7.33521e-06 -2.93408e-05 -6.60169e-05 -0.000117363 -0.00018338 -0.000264067 -0.000359425 -0.000469453 -0.000579441 -0.000674678 -0.000755164 -0.000820899 -0.000871882 -0.000908115 -0.000929597 -0.000936328 -0.000922473 -0.000882195 -0.000815495 -0.000722373 -0.000602828 -0.000456862 -0.000284473 -8.56621e-05 0.000126811 0.000340185 0.000554461 0.000769638 0.000985716 0.0012027 0.00142058 0.00163936 0.00184362 0.00201793 0.00216229 0.00227669 0.00236115 0.00241565 0.00244021 0.00243481 0.00239871 0.00233113 0.00223209 0.00210158 0.0019396 0.00174615 0.00152124 0.00126485 0.000992818 0.000720954 0.00044926 0.000177735 -9.36206e-05 -0.000364806 -0.000635823 -0.000906669 -0.00116088 -0.00138197 -0.00156995 -0.00172482 -0.00184658 -0.00193522 -0.00199076 -0.00201318 -0.00200246 -0.00195857 -0.0018815 -0.00177127 -0.00162786 -0.00145128 -0.00124153 -0.000998609 -0.000738751 -0.000478194 -0.000216938 4.50182e-05 0.000307673 0.000571028 0.000835082 0.00109983 0.00134985 0.00156969 0.00175936 0.00191885 0.00204817 0.00214732 0.00221629 0.00225508 0.00226445 0.00224515 0.00219716 0.0021205 0.00201516 0.00188114 0.00171845 0.00152708 0.00132178 0.00111733 0.000913711 0.00071093 0.000508986 0.000307879 0.000107609 -9.18236e-05 -0.000278375 -0.000439999 -0.000576697 -0.000688469 -0.000775314 -0.000837233 -0.000874226 -0.000886291 -0.000879007 -0.000857949 -0.000823117 -0.000774512 -0.000712132 -0.000635979 -0.000546052 -0.000442351 -0.000338675 -0.000248822 -0.000172793 -0.000110588 -6.22056e-05 -2.76469e-05 -6.91174e-06 0 0 -7.74617e-06 -3.09847e-05 -6.97155e-05 -0.000123939 -0.000193654 -0.000278862 -0.000379562 -0.000495755 -0.000610645 -0.000707439 -0.000786136 -0.000846737 -0.000889241 -0.000913649 -0.00091996 -0.000908175 -0.000872087 -0.00080549 -0.000708384 -0.000580769 -0.000422645 -0.000234012 -1.48709e-05 0.00023478 0.000499933 0.000765583 0.00103173 0.00129837 0.00156551 0.00183315 0.00210128 0.00236991 0.00262112 0.00283701 0.00301756 0.00316278 0.00327267 0.00334723 0.00338646 0.00339036 0.00335809 0.0032888 0.00318249 0.00303917 0.00285883 0.00264148 0.00238711 0.00209572 0.00178571 0.00147546 0.00116497 0.000854249 0.000543291 0.000232097 -7.93333e-05 -0.000391 -0.000683771 -0.000938516 -0.00115523 -0.00133393 -0.00147459 -0.00157723 -0.00164184 -0.00166843 -0.00165695 -0.00160735 -0.00151963 -0.0013938 -0.00122985 -0.00102778 -0.000787599 -0.000509301 -0.000211728 8.62785e-05 0.000384718 0.000683592 0.000982898 0.00128264 0.00158281 0.00188342 0.00216652 0.00241418 0.00262641 0.00280319 0.00294453 0.00305043 0.00312088 0.0031559 0.00315631 0.00312295 0.00305582 0.00295492 0.00282024 0.00265179 0.00244957 0.00221357 0.00196094 0.00170881 0.00145718 0.00120605 0.000955418 0.000705284 0.00045565 0.000206514 -2.79621e-05 -0.00023362 -0.000410459 -0.00055848 -0.000677683 -0.000768067 -0.000829632 -0.000862379 -0.00087226 -0.000865228 -0.000841284 -0.000800426 -0.000742655 -0.000667971 -0.000576375 -0.000467865 -0.000358209 -0.000263174 -0.00018276 -0.000116966 -6.57935e-05 -2.92416e-05 -7.31039e-06 0 0 -8.01257e-06 -3.20503e-05 -7.21131e-05 -0.000128201 -0.000200314 -0.000288453 -0.000392616 -0.000512805 -0.00063007 -0.000725464 -0.000798988 -0.00085064 -0.000880421 -0.000888331 -0.000874369 -0.000838537 -0.000774359 -0.000675362 -0.000541545 -0.000372908 -0.000169451 6.88246e-05 0.00034192 0.000649835 0.000975132 0.00130037 0.00162556 0.00195069 0.00227576 0.00260077 0.00292573 0.00325064 0.00355493 0.00381804 0.00403997 0.00422072 0.0043603 0.0044587 0.00451592 0.00453197 0.00450591 0.00443683 0.00432473 0.00416959 0.00397144 0.00373025 0.00344604 0.00311881 0.00276968 0.00241978 0.00206913 0.00171771 0.00136552 0.00101257 0.000658861 0.000304385 -2.88914e-05 -0.000319006 -0.000565958 -0.000769748 -0.000930376 -0.00104784 -0.00112214 -0.00115329 -0.0011412 -0.00108583 -0.000987167 -0.000845216 -0.000659977 -0.000431449 -0.000159632 0.000155474 0.000492258 0.000829107 0.00116602 0.00150301 0.00184006 0.00217717 0.00251435 0.0028516 0.00316832 0.0034439 0.00367834 0.00387166 0.00402383 0.00413488 0.00420479 0.00423356 0.00422212 0.00417138 0.00408134 0.003952 0.00378337 0.00357544 0.0033282 0.00304168 0.00273552 0.00242939 0.0021233 0.00181724 0.00151122 0.00120524 0.000899287 0.000593371 0.000303939 4.7439e-05 -0.000176128 -0.000366764 -0.000524466 -0.000649237 -0.000741075 -0.000799981 -0.000832192 -0.000843946 -0.000835243 -0.000806083 -0.000756465 -0.000686391 -0.000595859 -0.00048487 -0.000371229 -0.000272739 -0.000189402 -0.000121217 -6.81848e-05 -3.03044e-05 -7.57609e-06 0 0 -8.13442e-06 -3.25377e-05 -7.32098e-05 -0.000130151 -0.000203361 -0.000292839 -0.000398587 -0.000520603 -0.000637716 -0.000728755 -0.000793719 -0.000832607 -0.000845422 -0.000832161 -0.000792825 -0.000727415 -0.00062929 -0.000491811 -0.000314977 -9.87896e-05 0.000156753 0.000451649 0.0007859 0.00115951 0.00155241 0.00194456 0.00233595 0.00272658 0.00311646 0.00350558 0.00389394 0.00428155 0.00464503 0.00496102 0.00522952 0.00545052 0.00562404 0.00575006 0.00582859 0.00585964 0.00584218 0.00577523 0.00565879 0.00549284 0.0052774 0.00501247 0.00469804 0.00433411 0.00394473 0.00355393 0.00316173 0.0027681 0.00237307 0.00197662 0.00157876 0.00117948 0.000803763 0.000476561 0.000197879 -3.22843e-05 -0.000213928 -0.000347052 -0.000431656 -0.000467741 -0.000455222 -0.000394013 -0.000284115 -0.000125527 8.17497e-05 0.000337716 0.000642371 0.000995716 0.00137321 0.00175029 0.00212698 0.00250326 0.00287915 0.00325463 0.00362971 0.00400439 0.00435524 0.00465884 0.00491518 0.00512426 0.00528609 0.00540067 0.00546799 0.00548805 0.00546186 0.00539042 0.00527372 0.00511176 0.00490455 0.00465208 0.00435436 0.00401138 0.0036455 0.00327906 0.00291206 0.00254451 0.0021764 0.00180774 0.00143852 0.00106875 0.000717328 0.000403178 0.000126295 -0.000113319 -0.000315666 -0.000480744 -0.000608555 -0.000699098 -0.000758803 -0.000794103 -0.000804996 -0.000791483 -0.000753563 -0.000691237 -0.000604505 -0.000493366 -0.000377734 -0.000277519 -0.000192721 -0.000123342 -6.93797e-05 -3.08354e-05 -7.70885e-06 0 0 -8.11172e-06 -3.24469e-05 -7.30055e-05 -0.000129787 -0.000202793 -0.000292022 -0.000397474 -0.00051915 -0.000633584 -0.00071731 -0.000770328 -0.00079264 -0.000784243 -0.000745139 -0.000675328 -0.000574809 -0.00043688 -0.000254838 -2.86825e-05 0.000241586 0.000555967 0.000914462 0.00131707 0.00176379 0.00223176 0.00269813 0.0031629 0.00362605 0.00408761 0.00454755 0.0050059 0.00546263 0.00589143 0.00626595 0.00658621 0.00685218 0.00706389 0.00722132 0.00732447 0.00737336 0.00736689 0.00730399 0.00718467 0.00700892 0.00677674 0.00648813 0.0061431 0.00574163 0.00531086 0.00487791 0.00444277 0.00400545 0.00356594 0.00312424 0.00268036 0.0022343 0.00181419 0.00144819 0.00113628 0.000878464 0.000674751 0.000525136 0.00042962 0.000388202 0.000400992 0.0004681 0.000589526 0.00076527 0.000995332 0.00127971 0.00161841 0.00201143 0.00243111 0.00284983 0.00326758 0.00368436 0.00410017 0.00451501 0.00492888 0.00534178 0.00572729 0.006059 0.0063369 0.006561 0.0067313 0.0068478 0.0069105 0.00691939 0.00687556 0.00678008 0.00663296 0.00643419 0.00618378 0.00588173 0.00552803 0.00512269 0.00469089 0.00425781 0.00382347 0.00338785 0.00295096 0.00251279 0.00207335 0.00163264 0.00121221 0.000833596 0.000496812 0.000201853 -5.12802e-05 -0.000262588 -0.000432071 -0.000559729 -0.000652094 -0.000715698 -0.000750542 -0.000756625 -0.000733948 -0.000682511 -0.000602313 -0.000493354 -0.000377724 -0.000277512 -0.000192717 -0.000123339 -6.9378e-05 -3.08347e-05 -7.70866e-06 0 0 -7.81641e-06 -3.12656e-05 -7.03477e-05 -0.000125063 -0.00019541 -0.000281391 -0.000383004 -0.00050025 -0.000607401 -0.000678728 -0.000714231 -0.000713909 -0.000677764 -0.000605796 -0.000498003 -0.000354386 -0.000168357 6.66732e-05 0.000350704 0.000683736 0.00106577 0.0014968 0.00197684 0.00250587 0.00305808 0.00360763 0.00415451 0.00469874 0.0052403 0.0057792 0.00631544 0.00684903 0.00735053 0.00779055 0.00816907 0.0084861 0.00874163 0.00893568 0.00906823 0.00913929 0.00914771 0.00909235 0.0089732 0.00879027 0.00854355 0.00823305 0.00785876 0.00742069 0.00694916 0.00647448 0.00599667 0.00551571 0.00503161 0.00454437 0.00405398 0.00356046 0.00309523 0.00268972 0.00234395 0.00205791 0.00183159 0.00166501 0.00155816 0.00151103 0.00152378 0.00159653 0.00172929 0.00192205 0.00217482 0.0024876 0.00286039 0.00329318 0.00375512 0.00421537 0.00467392 0.00513076 0.00558591 0.00603936 0.0064911 0.00694115 0.00735998 0.00771807 0.00801543 0.00825204 0.00842792 0.00854307 0.00859748 0.00859115 0.00852523 0.00840089 0.00821812 0.00797693 0.0076773 0.00731925 0.00690277 0.00642786 0.00592266 0.00541529 0.00490575 0.00439405 0.00388019 0.00336416 0.00284596 0.00232561 0.00182742 0.00137576 0.000970621 0.000612 0.0002999 3.43194e-05 -0.000184741 -0.00035728 -0.000489774 -0.000588695 -0.000654044 -0.00068582 -0.000684023 -0.000648655 -0.000579713 -0.0004772 -0.000365356 -0.000268425 -0.000186406 -0.0001193 -6.71062e-05 -2.9825e-05 -7.45624e-06 0 0 -7.12046e-06 -2.84818e-05 -6.40841e-05 -0.000113927 -0.000178011 -0.000256337 -0.000348902 -0.000455709 -0.000548897 -0.000600607 -0.000610838 -0.00057959 -0.000506864 -0.000392659 -0.000236975 -3.98128e-05 0.00020505 0.000503837 0.000856547 0.00126318 0.00172374 0.00223822 0.00280662 0.00342895 0.00407624 0.00471956 0.00535889 0.00599425 0.00662562 0.00725301 0.00787642 0.00849585 0.00907873 0.00959249 0.0100371 0.0104127 0.0107191 0.0109564 0.0111245 0.0112236 0.0112523 0.0112095 0.0110952 0.0109093 0.0106519 0.010323 0.00992258 0.00945061 0.0089407 0.00842644 0.00790783 0.00738488 0.00685758 0.00632593 0.00578993 0.00524958 0.00473969 0.00429503 0.00391562 0.00360146 0.00335254 0.00316886 0.00305043 0.00299724 0.00300947 0.00308728 0.00323069 0.00343968 0.00371427 0.00405444 0.0044602 0.00493155 0.00543437 0.00593454 0.00643206 0.00692693 0.00741915 0.00790872 0.00839563 0.0088799 0.00932883 0.00970975 0.0100227 0.0102675 0.0104444 0.0105533 0.0105941 0.0105669 0.0104729 0.0103134 0.0100883 0.0097976 0.00944135 0.00901953 0.00853213 0.00797917 0.00739177 0.0068011 0.00620715 0.00560992 0.00500941 0.00440562 0.00379854 0.00318819 0.00260183 0.00206674 0.00158292 0.00115037 0.000769084 0.000439068 0.000160321 -6.71577e-05 -0.000249555 -0.000393056 -0.000497663 -0.000563374 -0.000590191 -0.000578112 -0.000527137 -0.000437268 -0.000334783 -0.000245963 -0.000170808 -0.000109317 -6.14908e-05 -2.73292e-05 -6.83231e-06 0 0 -6.02386e-06 -2.40954e-05 -5.42147e-05 -9.63817e-05 -0.000150596 -0.000216859 -0.000295169 -0.000385527 -0.000458073 -0.000482947 -0.00046015 -0.000389681 -0.000271541 -0.000105728 0.000107755 0.00036891 0.000683342 0.00105665 0.00148884 0.00197992 0.00252987 0.0031387 0.00380641 0.004533 0.00528625 0.00603393 0.00677605 0.00751259 0.00824357 0.00896898 0.00968883 0.0104031 0.011076 0.0116718 0.0121904 0.0126319 0.0129962 0.0132834 0.0134934 0.0136262 0.0136807 0.0136555 0.0135506 0.0133661 0.0131019 0.0127581 0.0123345 0.0118314 0.0112855 0.0107338 0.0101763 0.00961295 0.00904384 0.00846892 0.0078882 0.00730168 0.00674758 0.00626412 0.0058513 0.00550912 0.00523758 0.00503669 0.00490643 0.00484682 0.00485807 0.00494037 0.00509374 0.00531818 0.00561367 0.00598023 0.00641786 0.00692655 0.00746886 0.00800735 0.00854202 0.00907286 0.00959989 0.0101231 0.0106425 0.011158 0.0116339 0.012034 0.0123586 0.0126075 0.0127808 0.0128784 0.0129004 0.0128467 0.0127187 0.0125176 0.0122434 0.0118962 0.0114759 0.0109825 0.0104161 0.0097766 0.00909824 0.00841526 0.00772767 0.00703545 0.00633862 0.00563716 0.00493109 0.0042204 0.00353543 0.00290654 0.00233371 0.00181696 0.00135627 0.000951659 0.000603114 0.000310639 6.85641e-05 -0.000128782 -0.0002814 -0.000389289 -0.00045245 -0.000470882 -0.000444585 -0.000373559 -0.000286006 -0.000210127 -0.000145922 -9.33898e-05 -5.25318e-05 -2.33475e-05 -5.83687e-06 0 0 -4.52661e-06 -1.81064e-05 -4.07395e-05 -7.24257e-05 -0.000113165 -0.000162958 -0.000221804 -0.000289703 -0.000334927 -0.000325