<?xml version="1.0"?> 
<VTKFile type="StructuredGrid" version="0.1"> 
<StructuredGrid WholeExtent="0 128 0 128 0 0"> 
<Piece Extent="0 128 0 128 0 0"> 
<PointData>
<DataArray type="Float32" Name="u" format="ascii" NumberOfComponents="1"> 
0 0 0 0 0 0 0 0 0 0 0 0 0 0 0 0 0 0 0 0 0 0 0 0 0 0 0 0 0 0 0 0 0 0 0 0 0 0 0 0 0 0 0 0 0 0 0 0 0 0 0 0 0 0 0 0 0 0 0 0 0 0 0 0 0 0 0 0 0 0 0 0 0 0 0 0 0 0 0 0 0 0 0 0 0 0 0 0 0 0 0 0 0 0 0 0 0 0 0 0 0 0 0 0 0 0 0 0 0 0 0 0 0 0 0 0 0 0 0 0 0 0 0 0 0 0 0 0 0 0 5.34348e-08 2.13739e-07 4.80913e-07 8.54956e-07 1.33587e-06 1.92365e-06 2.6183e-06 3.41983e-06 4.35739e-06 5.46017e-06 6.72817e-06 8.16138e-06 9.75981e-06 1.15235e-05 1.34523e-05 1.55464e-05 1.77495e-05 2.00053e-05 2.2314e-05 2.46754e-05 2.70897e-05 2.95567e-05 3.20765e-05 3.46491e-05 3.72144e-05 3.97123e-05 4.21428e-05 4.45059e-05 4.68016e-05 4.903e-05 5.11909e-05 5.32845e-05 5.52849e-05 5.71667e-05 5.89297e-05 6.0574e-05 6.20995e-05 6.35063e-05 6.47944e-05 6.59637e-05 6.70217e-05 6.79758e-05 6.8826e-05 6.95722e-05 7.02146e-05 7.07531e-05 7.11876e-05 7.15182e-05 7.17697e-05 7.19668e-05 7.21094e-05 7.21976e-05 7.22315e-05 7.22109e-05 7.21359e-05 7.20065e-05 7.18439e-05 7.16694e-05 7.14828e-05 7.12842e-05 7.10737e-05 7.08512e-05 7.06166e-05 7.03701e-05 7.01146e-05 6.9853e-05 6.95853e-05 6.93116e-05 6.90318e-05 6.87459e-05 6.84539e-05 6.81559e-05 6.78366e-05 6.74806e-05 6.70879e-05 6.66586e-05 6.61926e-05 6.569e-05 6.51508e-05 6.45749e-05 6.39428e-05 6.3235e-05 6.24515e-05 6.15922e-05 6.06573e-05 5.96465e-05 5.85601e-05 5.73979e-05 5.61549e-05 5.48258e-05 5.34108e-05 5.19097e-05 5.03226e-05 4.86496e-05 4.68905e-05 4.50454e-05 4.31362e-05 4.11849e-05 3.91914e-05 3.71557e-05 3.50779e-05 3.29579e-05 3.07957e-05 2.85914e-05 2.63933e-05 2.42499e-05 2.21613e-05 2.01273e-05 1.81479e-05 1.62233e-05 1.43534e-05 1.25382e-05 1.08199e-05 9.24104e-06 7.80145e-06 6.50118e-06 5.34023e-06 4.31861e-06 3.4363e-06 2.69331e-06 2.06207e-06 1.51499e-06 1.05207e-06 6.73328e-07 3.78747e-07 1.68332e-07 4.2083e-08 0 0 2.13739e-07 8.54956e-07 1.92365e-06 3.41983e-06 5.34348e-06 7.69461e-06 1.04732e-05 1.36793e-05 1.74296e-05 2.18407e-05 2.69127e-05 3.26455e-05 3.90392e-05 4.60938e-05 5.38093e-05 6.21856e-05 7.09979e-05 8.00214e-05 8.9256e-05 9.87018e-05 0.000108359 0.000118227 0.000128306 0.000138596 0.000148858 0.000158849 0.000168571 0.000178024 0.000187207 0.00019612 0.000204764 0.000213138 0.00022114 0.000228667 0.000235719 0.000242296 0.000248398 0.000254025 0.000259177 0.000263855 0.000268087 0.000271903 0.000275304 0.000278289 0.000280858 0.000283012 0.00028475 0.000286073 0.000287079 0.000287867 0.000288438 0.000288791 0.000288926 0.000288844 0.000288544 0.000288026 0.000287376 0.000286677 0.000285931 0.000285137 0.000284295 0.000283405 0.000282467 0.000281481 0.000280458 0.000279412 0.000278341 0.000277246 0.000276127 0.000274984 0.000273816 0.000272624 0.000271346 0.000269922 0.000268352 0.000266634 0.000264771 0.00026276 0.000260603 0.0002583 0.000255771 0.00025294 0.000249806 0.000246369 0.000242629 0.000238586 0.00023424 0.000229592 0.000224619 0.000219303 0.000213643 0.000207639 0.000201291 0.000194598 0.000187562 0.000180182 0.000172545 0.00016474 0.000156766 0.000148623 0.000140312 0.000131832 0.000123183 0.000114366 0.000105573 9.69998e-05 8.8645e-05 8.0509e-05 7.25918e-05 6.48933e-05 5.74136e-05 5.01527e-05 4.32798e-05 3.69642e-05 3.12058e-05 2.60047e-05 2.13609e-05 1.72744e-05 1.37452e-05 1.07732e-05 8.24826e-06 6.05995e-06 4.2083e-06 2.69331e-06 1.51499e-06 6.73328e-07 1.68332e-07 0 0 4.80913e-07 1.92365e-06 4.32822e-06 7.69461e-06 1.20228e-05 1.73129e-05 2.35647e-05 3.07784e-05 3.92165e-05 4.91415e-05 6.05535e-05 7.34524e-05 8.78383e-05 0.000103711 0.000121071 0.000139918 0.000159745 0.000180048 0.000200826 0.000222079 0.000243807 0.00026601 0.000288689 0.000311842 0.00033493 0.000357411 0.000379285 0.000400553 0.000421215 0.00044127 0.000460718 0.00047956 0.000497564 0.0005145 0.000530367 0.000545166 0.000558895 0.000571557 0.000583149 0.000593673 0.000603195 0.000611782 0.000619434 0.00062615 0.000631931 0.000636777 0.000640688 0.000643664 0.000645927 0.000647701 0.000648985 0.000649779 0.000650083 0.000649898 0.000649223 0.000648059 0.000646595 0.000645024 0.000643345 0.000641558 0.000639663 0.00063766 0.00063555 0.000633331 0.000631031 0.000628677 0.000626268 0.000623804 0.000621286 0.000618713 0.000616086 0.000613403 0.000610529 0.000607325 0.000603791 0.000599927 0.000595734 0.00059121 0.000586357 0.000581174 0.000575486 0.000569115 0.000562064 0.00055433 0.000545915 0.000536819 0.000527041 0.000516581 0.000505394 0.000493432 0.000480697 0.000467187 0.000452904 0.000437846 0.000422014 0.000405409 0.000388226 0.000370664 0.000352723 0.000334402 0.000315701 0.000296621 0.000277162 0.000257323 0.00023754 0.00021825 0.000199451 0.000181145 0.000163332 0.00014601 0.000129181 0.000112844 9.73795e-05 8.31693e-05 7.0213e-05 5.85106e-05 4.80621e-05 3.88675e-05 3.09267e-05 2.42398e-05 1.85586e-05 1.36349e-05 9.46867e-06 6.05995e-06 3.40872e-06 1.51499e-06 3.78747e-07 0 0 8.54956e-07 3.41983e-06 7.69461e-06 1.36793e-05 2.13739e-05 3.07784e-05 4.18929e-05 5.47172e-05 6.97182e-05 8.73627e-05 0.000107651 0.000130582 0.000156157 0.000184375 0.000215237 0.000248742 0.000283992 0.000320085 0.000357024 0.000394807 0.000433435 0.000472907 0.000513224 0.000554386 0.00059543 0.000635397 0.000674285 0.000712095 0.000748826 0.00078448 0.000819055 0.000852551 0.000884559 0.000914667 0.000942875 0.000969183 0.000993592 0.0010161 0.00103671 0.00105542 0.00107235 0.00108761 0.00110122 0.00111316 0.00112343 0.00113205 0.001139 0.00114429 0.00114832 0.00115147 0.00115375 0.00115516 0.0011557 0.00115537 0.00115417 0.0011521 0.0011495 0.00114671 0.00114372 0.00114055 0.00113718 0.00113362 0.00112987 0.00112592 0.00112183 0.00111765 0.00111337 0.00110899 0.00110451 0.00109993 0.00109526 0.00109049 0.00108539 0.00107969 0.00107341 0.00106654 0.00105908 0.00105104 0.00104241 0.0010332 0.00102309 0.00101176 0.000999224 0.000985476 0.000970516 0.000954345 0.000936961 0.000918367 0.000898478 0.000877213 0.000854572 0.000830555 0.000805162 0.000778393 0.000750248 0.000720726 0.00069018 0.000658958 0.000627062 0.000594492 0.000561246 0.000527326 0.000492732 0.000457462 0.000422293 0.000387999 0.00035458 0.000322036 0.000290367 0.000259573 0.000229655 0.000200611 0.000173119 0.000147857 0.000124823 0.000104019 8.54437e-05 6.90977e-05 5.49808e-05 4.3093e-05 3.29931e-05 2.42398e-05 1.68332e-05 1.07732e-05 6.05995e-06 2.69331e-06 6.73328e-07 0 0 1.33587e-06 5.34348e-06 1.20228e-05 2.13739e-05 3.33967e-05 4.80913e-05 6.54576e-05 8.54956e-05 0.000108935 0.000136504 0.000168204 0.000204035 0.000243995 0.000288086 0.000336308 0.00038866 0.000443737 0.000500134 0.00055785 0.000616886 0.000677242 0.000738917 0.000801913 0.000866228 0.00093036 0.000992808 0.00105357 0.00111265 0.00117004 0.00122575 0.00127977 0.00133211 0.00138212 0.00142917 0.00147324 0.00151435 0.00155249 0.00158766 0.00161986 0.00164909 0.00167554 0.00169939 0.00172065 0.00173931 0.00175536 0.00176883 0.00177969 0.00178796 0.00179424 0.00179917 0.00180274 0.00180494 0.00180579 0.00180527 0.0018034 0.00180016 0.0017961 0.00179173 0.00178707 0.00178211 0.00177684 0.00177128 0.00176542 0.00175925 0.00175286 0.00174632 0.00173963 0.00173279 0.00172579 0.00171865 0.00171135 0.0017039 0.00169591 0.00168701 0.0016772 0.00166646 0.00165482 0.00164225 0.00162877 0.00161437 0.00159857 0.00158088 0.00156129 0.00153981 0.00151643 0.00149116 0.001464 0.00143495 0.00140387 0.00137065 0.00133527 0.00129774 0.00125807 0.00121624 0.00117226 0.00112614 0.00107841 0.00102962 0.000979785 0.000928893 0.000876948 0.000823948 0.000769893 0.000714785 0.000659833 0.000606249 0.000554031 0.000503181 0.000453699 0.000405583 0.000358835 0.000313454 0.000270499 0.000231026 0.000195036 0.00016253 0.000133506 0.000107965 8.59075e-05 6.73328e-05 5.15517e-05 3.78747e-05 2.63019e-05 1.68332e-05 9.46867e-06 4.2083e-06 1.05207e-06 0 0 1.92365e-06 7.69461e-06 1.73129e-05 3.07784e-05 4.80913e-05 6.92515e-05 9.4259e-05 0.000123114 0.000156866 0.000196566 0.000242214 0.00029381 0.000351353 0.000414844 0.000484283 0.00055967 0.000638981 0.000720192 0.000803304 0.000888316 0.000975228 0.00106404 0.00115475 0.00124737 0.00133972 0.00142964 0.00151714 0.00160221 0.00168486 0.00176508 0.00184287 0.00191824 0.00199026 0.002058 0.00212147 0.00218066 0.00223558 0.00228623 0.0023326 0.00237469 0.00241278 0.00244713 0.00247773 0.0025046 0.00252773 0.00254711 0.00256275 0.00257466 0.00258371 0.0025908 0.00259594 0.00259912 0.00260033 0.00259959 0.00259689 0.00259224 0.00258638 0.0025801 0.00257338 0.00256623 0.00255865 0.00255064 0.0025422 0.00253332 0.00252413 0.00251471 0.00250507 0.00249522 0.00248514 0.00247485 0.00246434 0.00245361 0.00244212 0.0024293 0.00241516 0.00239971 0.00238293 0.00236484 0.00234543 0.0023247 0.00230194 0.00227646 0.00224825 0.00221732 0.00218366 0.00214728 0.00210816 0.00206632 0.00202158 0.00197373 0.00192279 0.00186875 0.00181161 0.00175138 0.00168806 0.00162163 0.0015529 0.00148266 0.00141089 0.00133761 0.0012628 0.00118648 0.00110865 0.00102929 0.00095016 0.000872998 0.000797805 0.000724581 0.000653326 0.00058404 0.000516723 0.000451374 0.000389518 0.000332677 0.000280852 0.000234043 0.000192248 0.00015547 0.000123707 9.69592e-05 7.42344e-05 5.45395e-05 3.78747e-05 2.42398e-05 1.36349e-05 6.05995e-06 1.51499e-06 0 0 2.6183e-06 1.04732e-05 2.35647e-05 4.18929e-05 6.54576e-05 9.4259e-05 0.000128297 0.000167571 0.000213512 0.000267548 0.00032968 0.000399908 0.000478231 0.000564649 0.000659164 0.000761773 0.000869724 0.000980262 0.00109339 0.0012091 0.00132739 0.00144828 0.00157175 0.00169781 0.00182351 0.0019459 0.002065 0.00218079 0.00229328 0.00240247 0.00250835 0.00261094 0.00270896 0.00280117 0.00288755 0.00296812 0.00304287 0.00311181 0.00317492 0.00323222 0.00328406 0.00333081 0.00337247 0.00340904 0.00344052 0.0034669 0.00348819 0.00350439 0.00351671 0.00352637 0.00353336 0.00353768 0.00353934 0.00353833 0.00353466 0.00352832 0.00352035 0.0035118 0.00350266 0.00349293 0.00348261 0.00347171 0.00346022 0.00344814 0.00343562 0.0034228 0.00340968 0.00339627 0.00338256 0.00336855 0.00335424 0.00333964 0.00332399 0.00330655 0.00328731 0.00326627 0.00324344 0.00321881 0.00319239 0.00316417 0.0031332 0.00309852 0.00306012 0.00301802 0.00297221 0.00292268 0.00286944 0.0028125 0.00275159 0.00268646 0.00261713 0.00254358 0.00246581 0.00238383 0.00229763 0.00220722 0.00211368 0.00201806 0.00192038 0.00182063 0.00171882 0.00161494 0.00150899 0.00140098 0.00129327 0.00118825 0.0010859 0.000986236 0.000889249 0.000794943 0.000703317 0.000614371 0.000530177 0.000452811 0.000382271 0.000318558 0.000261671 0.000211612 0.000168379 0.000131972 0.000101041 7.42344e-05 5.15517e-05 3.29931e-05 1.85586e-05 8.24826e-06 2.06207e-06 0 0 3.41983e-06 1.36793e-05 3.07784e-05 5.47172e-05 8.54956e-05 0.000123114 0.000167571 0.000218869 0.000278873 0.000349451 0.000430603 0.000522328 0.000624628 0.000737501 0.000860948 0.000994969 0.00113597 0.00128034 0.0014281 0.00157923 0.00173374 0.00189163 0.0020529 0.00221754 0.00238172 0.00254159 0.00269714 0.00284838 0.00299531 0.00313792 0.00327622 0.00341021 0.00353824 0.00365867 0.0037715 0.00387673 0.00397437 0.0040644 0.00414684 0.00422168 0.00428939 0.00435045 0.00440486 0.00445262 0.00449373 0.0045282 0.00455601 0.00457717 0.00459326 0.00460587 0.004615 0.00462065 0.00462281 0.0046215 0.0046167 0.00460842 0.00459801 0.00458684 0.0045749 0.00456219 0.00454872 0.00453447 0.00451946 0.00450369 0.00448733 0.00447059 0.00445346 0.00443594 0.00441803 0.00439974 0.00438105 0.00436198 0.00434154 0.00431876 0.00429363 0.00426615 0.00423633 0.00420416 0.00416965 0.00413279 0.00409234 0.00404704 0.0039969 0.0039419 0.00388206 0.00381738 0.00374785 0.00367347 0.00359391 0.00350885 0.00341829 0.00332222 0.00322065 0.00311357 0.00300099 0.00288291 0.00276072 0.00263583 0.00250825 0.00237797 0.00224499 0.00210931 0.00197093 0.00182985 0.00168917 0.001552 0.00141832 0.00128814 0.00116147 0.00103829 0.000918618 0.000802443 0.000692477 0.000591426 0.000499293 0.000416076 0.000341775 0.000276391 0.000219923 0.000172372 0.000131972 9.69592e-05 6.73328e-05 4.3093e-05 2.42398e-05 1.07732e-05 2.69331e-06 0 0 4.38187e-06 1.75275e-05 3.94368e-05 7.01099e-05 0.000109547 0.000157747 0.000214711 0.000280439 0.000357235 0.000447402 0.00055094 0.00066785 0.000798131 0.000941784 0.00109881 0.0012692 0.00144841 0.00163186 0.00181957 0.00201152 0.00220772 0.00240818 0.00261288 0.00282183 0.00303017 0.00323306 0.0034305 0.00362248 0.003809 0.00399006 0.00416567 0.00433582 0.00449844 0.00465145 0.00479485 0.00492863 0.00505281 0.00516737 0.00527233 0.00536767 0.005454 0.0055319 0.00560138 0.00566243 0.00571505 0.00575926 0.00579503 0.00582238 0.0058433 0.00585978 0.00587183 0.00587943 0.0058826 0.00588133 0.00587563 0.00586548 0.00585261 0.00583873 0.00582382 0.00580791 0.00579097 0.00577302 0.00575405 0.00573407 0.00571331 0.00569201 0.00567018 0.00564782 0.00562492 0.00560148 0.00557751 0.005553 0.00552673 0.00549746 0.00546519 0.00542993 0.00539168 0.00535043 0.00530618 0.00525894 0.00520713 0.00514918 0.00508509 0.00501486 0.00493849 0.00485598 0.00476733 0.00467255 0.00457121 0.00446292 0.00434766 0.00422545 0.00409629 0.00396016 0.00381708 0.00366704 0.00351181 0.00335318 0.00319113 0.00302567 0.0028568 0.00268452 0.00250883 0.00232973 0.00215113 0.00197693 0.00180715 0.00164178 0.00148082 0.00132427 0.00117212 0.00102439 0.000884506 0.000755899 0.000638573 0.000532526 0.00043776 0.000354274 0.000282069 0.000221143 0.000169312 0.000124393 8.63839e-05 5.52857e-05 3.10982e-05 1.38214e-05 3.45536e-06 0 0 5.55807e-06 2.22323e-05 5.00227e-05 8.89292e-05 0.000138952 0.000200091 0.000272346 0.000355717 0.000452884 0.000566529 0.000696651 0.000843251 0.00100633 0.00118588 0.00138191 0.00159442 0.00181775 0.00204626 0.00227993 0.00251878 0.00276281 0.003012 0.00326637 0.00352591 0.00378467 0.0040367 0.004282 0.00452057 0.00475242 0.00497753 0.00519592 0.00540757 0.00560994 0.00580046 0.00597914 0.00614597 0.00630095 0.00644409 0.00657538 0.00669483 0.00680314 0.00690103 0.0069885 0.00706553 0.00713215 0.00718834 0.0072341 0.00726944 0.00729679 0.00731857 0.0073348 0.00734546 0.00735055 0.00735009 0.00734406 0.00733247 0.00731741 0.00730097 0.00728315 0.00726396 0.00724338 0.00722142 0.00719808 0.00717336 0.00714757 0.00712099 0.00709362 0.00706548 0.00703655 0.00700684 0.00697634 0.00694507 0.00691152 0.00687419 0.00683309 0.00678821 0.00673956 0.00668713 0.00663094 0.00657096 0.00650531 0.00643206 0.00635121 0.00626277 0.00616673 0.0060631 0.00595187 0.00583305 0.00570615 0.00557068 0.00542665 0.00527405 0.00511288 0.00494315 0.00476485 0.00457799 0.00438474 0.0041873 0.00398565 0.00377981 0.00356977 0.00335553 0.00313709 0.00291445 0.0026924 0.00247575 0.00226449 0.00205861 0.00185813 0.00166304 0.00147333 0.00128902 0.00111435 0.000953604 0.000806766 0.000673841 0.000554829 0.00044973 0.000358543 0.000281269 0.000215347 0.000158214 0.000109871 7.03174e-05 3.95535e-05 1.75793e-05 4.39483e-06 0 0 6.94845e-06 2.77938e-05 6.2536e-05 0.000111175 0.000173711 0.000250144 0.000340474 0.000444701 0.000565821 0.000706833 0.000867736 0.00104853 0.00124922 0.00146979 0.00171026 0.00197062 0.002244 0.00252352 0.0028092 0.00310102 0.00339899 0.00370311 0.00401337 0.00432978 0.00464521 0.00495249 0.00525165 0.00554268 0.00582557 0.00610033 0.00636695 0.00662545 0.00687273 0.0071057 0.00732437 0.00752873 0.00771879 0.00789455 0.008056 0.00820315 0.00833682 0.00845784 0.00856621 0.00866194 0.00874501 0.00881544 0.00887322 0.00891835 0.00895373 0.00898225 0.00900392 0.00901872 0.00902667 0.00902777 0.00902201 0.00900939 0.00899241 0.00897358 0.00895289 0.00893034 0.00890593 0.00887967 0.00885155 0.00882158 0.00879011 0.00875751 0.00872378 0.00868892 0.00865293 0.00861581 0.00857756 0.00853819 0.00849591 0.00844894 0.0083973 0.00834098 0.00827997 0.00821429 0.00814392 0.00806888 0.00798689 0.00789568 0.00779526 0.00768563 0.00756679 0.00743873 0.00730146 0.00715498 0.00699873 0.00683215 0.00665524 0.006468 0.00627043 0.00606253 0.0058443 0.00561575 0.0053795 0.00513818 0.00489181 0.00464037 0.00438387 0.00412231 0.00385569 0.003584 0.003313 0.00304845 0.00279033 0.00253865 0.00229341 0.00205461 0.00182224 0.00159632 0.00138202 0.00118454 0.00100387 0.00084002 0.000692981 0.000562757 0.000449347 0.000352752 0.000270076 0.000198423 0.000137794 8.8188e-05 4.96057e-05 2.2047e-05 5.51175e-06 0 0 8.55299e-06 3.42119e-05 7.69769e-05 0.000136848 0.000213825 0.000307908 0.000419096 0.000547391 0.000696046 0.000868313 0.00106419 0.00128369 0.0015268 0.00179352 0.00208385 0.0023978 0.00272714 0.00306366 0.00340735 0.00375822 0.00411627 0.00448149 0.00485389 0.00523346 0.00561179 0.00598045 0.00633945 0.00668878 0.00702845 0.00735845 0.00767879 0.00798946 0.00828681 0.00856717 0.00883055 0.00907693 0.00930634 0.00951875 0.00971418 0.00989262 0.010055 0.0102023 0.0103345 0.0104516 0.0105537 0.0106406 0.0107124 0.0107691 0.0108141 0.0108508 0.0108792 0.0108992 0.010911 0.0109144 0.0109095 0.0108962 0.0108776 0.0108565 0.010833 0.0108071 0.0107786 0.0107478 0.0107145 0.0106787 0.0106409 0.0106016 0.0105606 0.0105181 0.0104741 0.0104284 0.0103812 0.0103324 0.0102799 0.0102217 0.0101578 0.0100882 0.0100129 0.00993189 0.00984514 0.00975268 0.00965186 0.00954005 0.00941725 0.00928345 0.00913866 0.00898288 0.00881611 0.00863834 0.00844895 0.00824731 0.00803343 0.0078073 0.00756893 0.00731831 0.00705544 0.00678032 0.00649609 0.00620585 0.00590961 0.00560737 0.00529912 0.00498488 0.00466464 0.00433839 0.00401293 0.00369502 0.00338467 0.00308188 0.00278665 0.00249897 0.00221886 0.0019463 0.00168751 0.00144871 0.00122989 0.00103106 0.000852216 0.000693356 0.00055448 0.00043559 0.000333499 0.000245019 0.000170152 0.000108898 6.12549e-05 2.72244e-05 6.8061e-06 0 0 1.03717e-05 4.14868e-05 9.33453e-05 0.000165947 0.000259292 0.000373381 0.000508213 0.000663788 0.000843557 0.00105097 0.00128603 0.00154873 0.00183907 0.00215706 0.00250269 0.00287596 0.00326719 0.00366667 0.00407441 0.0044904 0.00491465 0.00534715 0.00578791 0.00623693 0.00668441 0.00712056 0.00754539 0.00795888 0.00836106 0.0087519 0.00913142 0.0094996 0.00985218 0.0101849 0.0104977 0.0107906 0.0110636 0.0113167 0.0115499 0.0117633 0.0119578 0.0121345 0.0122935 0.0124346 0.0125581 0.0126637 0.0127516 0.0128217 0.012878 0.0129243 0.0129606 0.012987 0.0130034 0.0130099 0.0130064 0.012993 0.012973 0.0129499 0.0129236 0.0128941 0.0128615 0.0128257 0.0127868 0.0127447 0.0127 0.0126532 0.0126042 0.0125531 0.0124999 0.0124446 0.0123872 0.0123276 0.0122635 0.0121925 0.0121147 0.01203 0.0119384 0.0118399 0.0117346 0.0116224 0.0115002 0.0113652 0.0112172 0.0110562 0.0108824 0.0106955 0.0104958 0.0102831 0.0100568 0.00981618 0.00956123 0.00929197 0.00900838 0.00871048 0.00839825 0.00807171 0.0077345 0.00739028 0.00703904 0.00668079 0.00631552 0.00594323 0.00556393 0.00517762 0.00479217 0.00441547 0.00404752 0.00368831 0.00333785 0.00299614 0.00266317 0.00233895 0.00203082 0.00174611 0.00148483 0.00124697 0.00103253 0.000841526 0.000673943 0.000529784 0.000405616 0.000298004 0.000206947 0.000132446 7.45009e-05 3.31115e-05 8.27788e-06 0 0 1.24046e-05 4.96183e-05 0.000111641 0.000198473 0.000310114 0.000446565 0.000607824 0.000793892 0.00100836 0.0012548 0.00153323 0.00184364 0.00218604 0.00256041 0.00296677 0.00340511 0.00386414 0.00433255 0.00481035 0.00529755 0.00579413 0.00630009 0.00681545 0.00734019 0.00786307 0.00837283 0.00886947 0.00935299 0.00982339 0.0102807 0.0107248 0.0111559 0.0115689 0.0119588 0.0123257 0.0126696 0.0129905 0.0132884 0.0135632 0.0138151 0.014045 0.0142543 0.014443 0.014611 0.0147583 0.0148849 0.0149909 0.0150762 0.0151452 0.0152026 0.0152482 0.015282 0.015304 0.0153143 0.0153129 0.0152997 0.0152786 0.0152535 0.0152245 0.0151915 0.0151545 0.0151136 0.0150686 0.0150197 0.0149674 0.0149124 0.0148545 0.0147939 0.0147306 0.0146644 0.0145955 0.0145238 0.0144467 0.0143614 0.0142679 0.0141662 0.0140564 0.0139384 0.0138123 0.0136779 0.013532 0.013371 0.013195 0.013004 0.0127979 0.0125767 0.0123405 0.0120893 0.0118223 0.0115388 0.0112386 0.010922 0.0105888 0.010239 0.00987275 0.00948992 0.00909475 0.00869149 0.00828011 0.00786064 0.00743306 0.00699737 0.00655358 0.00610169 0.00565074 0.0052098 0.00477887 0.00435794 0.00394702 0.0035461 0.00315519 0.00277428 0.00241195 0.00207674 0.00176867 0.00148774 0.00123394 0.00100727 0.000807734 0.000635334 0.000486428 0.000357375 0.000248177 0.000158834 8.93439e-05 3.97084e-05 9.92709e-06 0 0 1.46516e-05 5.86064e-05 0.000131864 0.000234426 0.00036629 0.000527458 0.000717929 0.000937703 0.00119044 0.00147981 0.00180581 0.00216844 0.0025677 0.00300358 0.0034761 0.00398524 0.00451799 0.00506131 0.0056152 0.00617966 0.0067547 0.00734031 0.0079365 0.00854326 0.00914778 0.00973726 0.0103117 0.0108711 0.0114155 0.0119448 0.0124591 0.0129583 0.0134368 0.013889 0.0143147 0.0147141 0.0150872 0.0154338 0.0157541 0.016048 0.0163168 0.0165619 0.0167831 0.0169806 0.0171542 0.0173041 0.0174302 0.0175325 0.017616 0.0176858 0.0177419 0.0177842 0.0178128 0.0178277 0.0178289 0.0178163 0.0177944 0.0177676 0.0177359 0.0176992 0.0176577 0.0176112 0.0175599 0.0175036 0.0174431 0.0173791 0.0173116 0.0172405 0.0171659 0.0170879 0.0170063 0.0169212 0.0168295 0.0167282 0.0166174 0.016497 0.016367 0.0162274 0.0160782 0.0159194 0.0157472 0.0155576 0.0153508 0.0151267 0.0148852 0.0146264 0.0143503 0.014057 0.0137455 0.013415 0.0130657 0.0126974 0.0123102 0.011904 0.0114789 0.0110349 0.0105768 0.0101095 0.00963283 0.00914692 0.00865174 0.00814729 0.00763357 0.00711059 0.00658863 0.00607801 0.00557872 0.00509077 0.00461415 0.00414886 0.00369491 0.00325229 0.00283089 0.00244061 0.00208143 0.00175337 0.00145642 0.00119058 0.000955855 0.00075224 0.000575934 0.000423135 0.000293844 0.00018806 0.000105784 4.7015e-05 1.17537e-05 0 0 1.71128e-05 6.84513e-05 0.000154015 0.000273805 0.00042782 0.000616062 0.000838528 0.00109522 0.00138982 0.001726 0.00210376 0.00252311 0.00298405 0.00348657 0.00403067 0.00461635 0.00522874 0.00585293 0.00648894 0.00713675 0.00779638 0.00846781 0.00915106 0.00984612 0.0105385 0.0112139 0.0118721 0.0125132 0.0131373 0.0137442 0.0143341 0.0149068 0.0154561 0.0159753 0.0164647 0.0169241 0.0173535 0.017753 0.0181225 0.0184621 0.0187732 0.0190571 0.0193138 0.0195435 0.0197459 0.0199213 0.0200695 0.0201906 0.0202902 0.0203739 0.0204417 0.0204937 0.0205298 0.02055 0.0205543 0.0205428 0.0205204 0.020492 0.0204576 0.0204173 0.020371 0.0203187 0.0202605 0.0201964 0.020127 0.0200533 0.0199753 0.0198929 0.0198061 0.0197149 0.0196194 0.0195195 0.0194119 0.0192931 0.0191632 0.0190222 0.01887 0.0187067 0.0185323 0.0183467 0.0181457 0.017925 0.0176845 0.0174243 0.0171443 0.0168446 0.0165252 0.016186 0.0158262 0.015445 0.0150423 0.0146181 0.0141725 0.0137054 0.0132168 0.0127068 0.0121807 0.0116442 0.0110972 0.0105396 0.00997156 0.009393 0.00880392 0.00820433 0.00760585 0.0070201 0.00644708 0.0058868 0.00533924 0.00480442 0.00428233 0.00377297 0.00328766 0.00283771 0.00242311 0.00204387 0.00169999 0.00139147 0.00111831 0.000880501 0.000674134 0.000495282 0.000343946 0.000220125 0.00012382 5.50313e-05 1.37578e-05 0 0 1.97673e-05 7.90694e-05 0.000177906 0.000316277 0.000494184 0.000711624 0.0009686 0.00126511 0.00160478 0.00199126 0.00242452 0.00290458 0.00343144 0.00400509 0.00462554 0.00529278 0.00598996 0.00670021 0.00742353 0.00815992 0.00890939 0.00967193 0.0104475 0.0112362 0.0120218 0.0127882 0.0135353 0.0142631 0.0149717 0.015661 0.0163311 0.016982 0.0176063 0.018197 0.018754 0.0192773 0.0197669 0.0202228 0.020645 0.0210335 0.0213898 0.0217155 0.0220105 0.0222749 0.0225085 0.0227116 0.0228839 0.0230256 0.0231429 0.023242 0.023323 0.0233858 0.0234304 0.0234569 0.0234651 0.0234553 0.0234327 0.0234031 0.0233663 0.0233224 0.0232713 0.0232131 0.0231478 0.0230753 0.0229966 0.0229126 0.0228233 0.0227286 0.0226286 0.0225233 0.0224127 0.0222967 0.0221717 0.0220339 0.0218833 0.0217199 0.0215437 0.0213547 0.0211528 0.0209382 0.0207061 0.0204516 0.0201748 0.0198758 0.0195544 0.0192108 0.0188448 0.0184565 0.0180451 0.0176095 0.0171498 0.016666 0.0161581 0.015626 0.0150699 0.0144896 0.0138914 0.0132813 0.0126595 0.0120258 0.0113803 0.0107231 0.010054 0.00937305 0.00869332 0.00802776 0.00737638 0.00673917 0.00611613 0.00550726 0.00491257 0.00433204 0.00377852 0.00326483 0.00279097 0.00235694 0.00196275 0.00160838 0.00129385 0.00101915 0.000780284 0.00057327 0.000398104 0.000254787 0.000143318 6.36967e-05 1.59242e-05 0 0 2.25943e-05 9.03773e-05 0.000203349 0.000361509 0.000564858 0.000813395 0.00110712 0.00144604 0.00183365 0.00227348 0.00276551 0.00330976 0.00390622 0.00455488 0.00525576 0.00600885 0.00679521 0.00759591 0.00841093 0.00924028 0.010084 0.010942 0.0118143 0.012701 0.0135841 0.0144457 0.0152859 0.0161045 0.0169017 0.0176773 0.0184315 0.0191642 0.0198674 0.020533 0.0211611 0.0217517 0.0223046 0.0228201 0.0232979 0.0237383 0.0241427 0.0245127 0.0248485 0.0251499 0.0254171 0.0256499 0.0258484 0.0260126 0.0261493 0.0262654 0.026361 0.0264359 0.0264902 0.026524 0.0265371 0.0265297 0.0265077 0.0264773 0.0264385 0.0263912 0.0263355 0.0262713 0.0261987 0.0261177 0.0260292 0.0259343 0.0258331 0.0257254 0.0256113 0.0254908 0.0253639 0.0252306 0.0250868 0.0249285 0.0247555 0.024568 0.0243659 0.0241492 0.023918 0.0236721 0.0234065 0.0231159 0.0228004 0.02246 0.0220946 0.0217042 0.0212889 0.0208486 0.0203824 0.0198894 0.0193695 0.0188229 0.0182493 0.0176489 0.0170217 0.0163677 0.0156936 0.0150064 0.0143061 0.0135925 0.0128659 0.012126 0.011373 0.0106069 0.00984199 0.0090927 0.00835905 0.00764102 0.00693863 0.00625186 0.00558072 0.0049252 0.00429975 0.00371878 0.0031823 0.00269031 0.0022428 0.00183978 0.00148125 0.00116721 0.000893642 0.000656553 0.00045594 0.000291801 0.000164138 7.29503e-05 1.82376e-05 0 0 2.55938e-05 0.000102375 0.000230344 0.0004095 0.000639844 0.000921375 0.00125409 0.001638 0.00207642 0.00257266 0.00312674 0.00373864 0.00440838 0.00513595 0.00592134 0.00676457 0.00764451 0.00854003 0.00945114 0.0103778 0.0113201 0.012278 0.0132515 0.0142405 0.0152254 0.0161866 0.0171239 0.0180375 0.0189272 0.0197931 0.0206353 0.0214536 0.0222393 0.0229834 0.023686 0.0243472 0.0249667 0.0255448 0.0260814 0.0265764 0.0270316 0.0274488 0.0278278 0.0281687 0.0284715 0.0287363 0.0289629 0.0291514 0.0293093 0.029444 0.0295556 0.029644 0.0297093 0.0297513 0.0297703 0.029766 0.0297453 0.0297146 0.0296741 0.0296237 0.0295635 0.0294933 0.0294133 0.0293234 0.0292248 0.0291185 0.0290047 0.0288832 0.0287541 0.0286174 0.0284731 0.0283212 0.0281572 0.0279768 0.0277799 0.0275665 0.0273367 0.0270904 0.0268276 0.0265484 0.0262471 0.025918 0.0255613 0.0251769 0.0247648 0.0243249 0.0238574 0.0233621 0.0228382 0.0222847 0.0217015 0.0210887 0.0204462 0.0197741 0.0190724 0.018341 0.0175875 0.0168195 0.0160369 0.0152398 0.0144281 0.0136019 0.0127612 0.0119059 0.0110518 0.0102149 0.00939509 0.00859237 0.00780674 0.00703821 0.00628679 0.00555246 0.00485135 0.00419956 0.0035971 0.00304396 0.00254015 0.00208567 0.00168051 0.00132468 0.00101421 0.000745131 0.000517452 0.000331169 0.000186283 8.27923e-05 2.06981e-05 0 0 2.87656e-05 0.000115063 0.000258891 0.00046025 0.000719141 0.00103556 0.00140952 0.001841 0.00233308 0.00288881 0.0035082 0.00419124 0.00493793 0.00574828 0.00662228 0.00755993 0.00853784 0.00953258 0.0105442 0.0115726 0.0126179 0.01368 0.0147589 0.0158547 0.0169458 0.0180107 0.0190494 0.0200619 0.0210483 0.0220084 0.0229423 0.0238501 0.0247219 0.0255481 0.0263288 0.0270638 0.0277532 0.0283971 0.0289953 0.0295479 0.0300568 0.0305236 0.0309484 0.0313312 0.031672 0.0319707 0.0322275 0.0324422 0.032623 0.0327779 0.032907 0.0330102 0.0330875 0.033139 0.0331646 0.0331643 0.0331454 0.0331151 0.0330733 0.03302 0.0329553 0.0328792 0.0327916 0.0326925 0.0325833 0.0324652 0.032338 0.032202 0.032057 0.0319031 0.0317402 0.0315684 0.0313829 0.0311789 0.0309564 0.0307155 0.0304561 0.0301782 0.0298819 0.0295671 0.0292278 0.0288579 0.0284575 0.0280265 0.027565 0.027073 0.0265504 0.0259972 0.0254125 0.0247953 0.0241456 0.0234634 0.0227487 0.0220015 0.0212217 0.0204095 0.019573 0.0187205 0.017852 0.0169676 0.0160672 0.0151508 0.0142184 0.01327 0.0123229 0.0113944 0.0104845 0.0095932 0.00872047 0.00786633 0.00703077 0.00621381 0.00543331 0.00470716 0.00403536 0.0034179 0.0028548 0.00234604 0.00189162 0.00149156 0.00114198 0.000839003 0.000582641 0.00037289 0.000209751 9.32225e-05 2.33056e-05 0 0 3.211e-05 0.00012844 0.00028899 0.00051376 0.00080275 0.00115596 0.00157339 0.00205504 0.00260364 0.00322192 0.00390989 0.00466754 0.00549486 0.00639188 0.00735857 0.00839494 0.0094752 0.0105736 0.01169 0.0128245 0.0139772 0.0151479 0.0163367 0.0175436 0.0187452 0.0199181 0.0210624 0.022178 0.0232649 0.0243231 0.0253527 0.0263536 0.0273153 0.0282272 0.0290893 0.0299016 0.0306641 0.0313768 0.0320397 0.0326529 0.0332181 0.0337372 0.0342103 0.0346373 0.0350183 0.0353532 0.0356421 0.0358849 0.0360903 0.036267 0.036415 0.0365343 0.0366249 0.0366868 0.03672 0.0367246 0.0367081 0.0366786 0.0366359 0.03658 0.036511 0.0364288 0.0363335 0.0362251 0.0361049 0.0359742 0.0358332 0.0356818 0.03552 0.0353478 0.0351652 0.0349723 0.0347638 0.0345347 0.0342851 0.0340149 0.0337241 0.0334127 0.0330807 0.0327282 0.0323486 0.0319355 0.0314889 0.0310089 0.0304953 0.0299483 0.0293678 0.0287538 0.0281053 0.0274214 0.026702 0.0259471 0.0251568 0.0243311 0.0234699 0.0225732 0.0216501 0.0207095 0.0197515 0.0187759 0.017783 0.0167725 0.0157446 0.0146992 0.0136552 0.0126312 0.0116273 0.0106435 0.00967981 0.0087362 0.00781268 0.00690925 0.00604564 0.00524159 0.00449709 0.00381213 0.00318674 0.00262089 0.0021146 0.00166786 0.00127695 0.00093817 0.000651507 0.000416964 0.000234542 0.000104241 2.60603e-05 0 0 3.56268e-05 0.000142507 0.000320641 0.000570029 0.00089067 0.00128256 0.00174571 0.00228012 0.0028881 0.003572 0.00433182 0.00516754 0.00607919 0.00706674 0.00813021 0.0092696 0.0104566 0.011663 0.0128886 0.0141337 0.015398 0.0166817 0.0179848 0.0193071 0.0206236 0.0219088 0