<?xml version="1.0"?> 
<VTKFile type="StructuredGrid" version="0.1"> 
<StructuredGrid WholeExtent="0 128 0 128 0 0"> 
<Piece Extent="0 128 0 128 0 0"> 
<PointData>
<DataArray type="Float32" Name="u" format="ascii" NumberOfComponents="1"> 
0 0 0 0 0 0 0 0 0 0 0 0 0 0 0 0 0 0 0 0 0 0 0 0 0 0 0 0 0 0 0 0 0 0 0 0 0 0 0 0 0 0 0 0 0 0 0 0 0 0 0 0 0 0 0 0 0 0 0 0 0 0 0 0 0 0 0 0 0 0 0 0 0 0 0 0 0 0 0 0 0 0 0 0 0 0 0 0 0 0 0 0 0 0 0 0 0 0 0 0 0 0 0 0 0 0 0 0 0 0 0 0 0 0 0 0 0 0 0 0 0 0 0 0 0 0 0 0 0 0 5.792e-08 2.3168e-07 5.2128e-07 9.2672e-07 1.448e-06 2.08512e-06 2.83808e-06 3.70688e-06 4.71914e-06 5.90246e-06 7.25686e-06 8.78234e-06 1.04789e-05 1.23465e-05 1.43852e-05 1.65949e-05 1.89179e-05 2.12961e-05 2.37295e-05 2.62183e-05 2.87623e-05 3.13616e-05 3.40161e-05 3.67259e-05 3.94318e-05 4.20743e-05 4.46535e-05 4.71694e-05 4.96221e-05 5.20114e-05 5.43375e-05 5.66002e-05 5.87741e-05 6.08335e-05 6.27784e-05 6.46088e-05 6.63247e-05 6.79261e-05 6.94131e-05 7.07855e-05 7.20481e-05 7.32052e-05 7.42571e-05 7.52036e-05 7.60448e-05 7.67806e-05 7.74111e-05 7.79362e-05 7.83759e-05 7.875e-05 7.90586e-05 7.93016e-05 7.9479e-05 7.95909e-05 7.96372e-05 7.9618e-05 7.95508e-05 7.94533e-05 7.93255e-05 7.91673e-05 7.89788e-05 7.876e-05 7.85108e-05 7.82313e-05 7.79251e-05 7.75955e-05 7.72428e-05 7.68668e-05 7.64676e-05 7.60452e-05 7.55995e-05 7.51306e-05 7.46278e-05 7.40804e-05 7.34886e-05 7.28521e-05 7.21711e-05 7.14456e-05 7.06756e-05 6.9861e-05 6.89878e-05 6.80421e-05 6.70239e-05 6.5933e-05 6.47697e-05 6.35337e-05 6.22253e-05 6.08442e-05 5.93884e-05 5.78558e-05 5.62462e-05 5.45598e-05 5.27964e-05 5.09562e-05 4.90391e-05 4.70451e-05 4.49954e-05 4.29114e-05 4.0793e-05 3.86402e-05 3.64531e-05 3.42316e-05 3.19757e-05 2.96854e-05 2.74069e-05 2.51862e-05 2.30233e-05 2.09183e-05 1.8871e-05 1.68816e-05 1.495e-05 1.30763e-05 1.13022e-05 9.66974e-06 8.17887e-06 6.82959e-06 5.62191e-06 4.55582e-06 3.63132e-06 2.84842e-06 2.18082e-06 1.60224e-06 1.11266e-06 7.12105e-07 4.00559e-07 1.78026e-07 4.45065e-08 0 0 2.3168e-07 9.2672e-07 2.08512e-06 3.70688e-06 5.792e-06 8.34048e-06 1.13523e-05 1.48275e-05 1.88765e-05 2.36099e-05 2.90275e-05 3.51293e-05 4.19155e-05 4.9386e-05 5.75407e-05 6.63798e-05 7.56715e-05 8.51843e-05 9.49182e-05 0.000104873 0.000115049 0.000125446 0.000136065 0.000146904 0.000157727 0.000168297 0.000178614 0.000188678 0.000198488 0.000208046 0.00021735 0.000226401 0.000235096 0.000243334 0.000251114 0.000258435 0.000265299 0.000271705 0.000277652 0.000283142 0.000288192 0.000292821 0.000297028 0.000300814 0.000304179 0.000307122 0.000309644 0.000311745 0.000313504 0.000315 0.000316234 0.000317206 0.000317916 0.000318364 0.000318549 0.000318472 0.000318203 0.000317813 0.000317302 0.000316669 0.000315915 0.00031504 0.000314043 0.000312925 0.0003117 0.000310382 0.000308971 0.000307467 0.00030587 0.000304181 0.000302398 0.000300522 0.000298511 0.000296322 0.000293954 0.000291408 0.000288685 0.000285783 0.000282702 0.000279444 0.000275951 0.000272168 0.000268095 0.000263732 0.000259079 0.000254135 0.000248901 0.000243377 0.000237554 0.000231423 0.000224985 0.000218239 0.000211186 0.000203825 0.000196156 0.00018818 0.000179982 0.000171646 0.000163172 0.000154561 0.000145812 0.000136926 0.000127903 0.000118742 0.000109628 0.000100745 9.20933e-05 8.36731e-05 7.54841e-05 6.75265e-05 5.98001e-05 5.2305e-05 4.52088e-05 3.86789e-05 3.27155e-05 2.73184e-05 2.24876e-05 1.82233e-05 1.45253e-05 1.13937e-05 8.72328e-06 6.40894e-06 4.45065e-06 2.84842e-06 1.60224e-06 7.12105e-07 1.78026e-07 0 0 5.2128e-07 2.08512e-06 4.69152e-06 8.34048e-06 1.3032e-05 1.87661e-05 2.55427e-05 3.33619e-05 4.24722e-05 5.31222e-05 6.53118e-05 7.9041e-05 9.43099e-05 0.000111118 0.000129467 0.000149355 0.000170261 0.000191665 0.000213566 0.000235965 0.000258861 0.000282254 0.000306145 0.000330534 0.000354886 0.000378668 0.000401881 0.000424525 0.000446599 0.000468103 0.000489037 0.000509402 0.000528967 0.000547502 0.000565006 0.000581479 0.000596922 0.000611335 0.000624718 0.00063707 0.000648432 0.000658847 0.000668314 0.000676832 0.000684403 0.000691025 0.0006967 0.000701426 0.000705383 0.00070875 0.000711527 0.000713714 0.000715311 0.000716318 0.000716735 0.000716562 0.000715957 0.00071508 0.000713929 0.000712506 0.000710809 0.00070884 0.000706597 0.000704082 0.000701325 0.00069836 0.000695185 0.000691801 0.000688209 0.000684407 0.000680395 0.000676175 0.00067165 0.000666724 0.000661397 0.000655669 0.00064954 0.000643011 0.00063608 0.000628749 0.00062089 0.000612379 0.000603215 0.000593397 0.000582927 0.000571804 0.000560027 0.000547598 0.000534496 0.000520702 0.000506216 0.000491038 0.000475168 0.000458606 0.000441352 0.000423406 0.000404959 0.000386203 0.000367137 0.000347762 0.000328078 0.000308084 0.000287781 0.000267169 0.000246662 0.000226676 0.00020721 0.000188264 0.000169839 0.000151935 0.00013455 0.000117686 0.00010172 8.70276e-05 7.36098e-05 6.14663e-05 5.05971e-05 4.10023e-05 3.26819e-05 2.56358e-05 1.96274e-05 1.44201e-05 1.0014e-05 6.40894e-06 3.60503e-06 1.60224e-06 4.00559e-07 0 0 9.2672e-07 3.70688e-06 8.34048e-06 1.48275e-05 2.3168e-05 3.33619e-05 4.54093e-05 5.93101e-05 7.55062e-05 9.44394e-05 0.00011611 0.000140517 0.000167662 0.000197544 0.000230163 0.000265519 0.000302686 0.000340737 0.000379673 0.000419493 0.000460197 0.000501785 0.000544258 0.000587615 0.000630908 0.000673188 0.000714456 0.000754711 0.000793953 0.000832183 0.0008694 0.000905604 0.000940386 0.000973336 0.00100445 0.00103374 0.0010612 0.00108682 0.00111061 0.00113257 0.00115277 0.00117128 0.00118811 0.00120326 0.00121672 0.00122849 0.00123858 0.00124698 0.00125401 0.00126 0.00126494 0.00126883 0.00127166 0.00127345 0.0012742 0.00127389 0.00127281 0.00127125 0.00126921 0.00126668 0.00126366 0.00126016 0.00125617 0.0012517 0.0012468 0.00124153 0.00123588 0.00122987 0.00122348 0.00121672 0.00120959 0.00120209 0.00119404 0.00118529 0.00117582 0.00116563 0.00115474 0.00114313 0.00113081 0.00111778 0.00110381 0.00108867 0.00107238 0.00105493 0.00103631 0.00101654 0.000995604 0.000973507 0.000950215 0.000925692 0.00089994 0.000872957 0.000844743 0.000815299 0.000784625 0.000752721 0.000719927 0.000686582 0.000652688 0.000618244 0.00058325 0.000547705 0.000511611 0.000474967 0.000438511 0.000402979 0.000368373 0.000334692 0.000301936 0.000270106 0.0002392 0.00020922 0.000180835 0.000154716 0.000130862 0.000109273 8.99505e-05 7.28931e-05 5.81011e-05 4.55747e-05 3.48931e-05 2.56358e-05 1.78026e-05 1.13937e-05 6.40894e-06 2.84842e-06 7.12105e-07 0 0 1.448e-06 5.792e-06 1.3032e-05 2.3168e-05 3.62e-05 5.2128e-05 7.0952e-05 9.2672e-05 0.000117978 0.000147562 0.000181422 0.000219558 0.000261972 0.000308662 0.00035963 0.000414874 0.000472947 0.000532402 0.000593239 0.000655457 0.000719057 0.000784039 0.000850403 0.000918149 0.000985794 0.00105186 0.00111634 0.00117924 0.00124055 0.00130029 0.00135844 0.00141501 0.00146935 0.00152084 0.00156946 0.00161522 0.00165812 0.00169815 0.00173533 0.00176964 0.0018012 0.00183013 0.00185643 0.00188009 0.00190112 0.00191951 0.00193528 0.00194841 0.0019594 0.00196875 0.00197646 0.00198254 0.00198698 0.00198977 0.00199093 0.00199045 0.00198877 0.00198633 0.00198314 0.00197918 0.00197447 0.001969 0.00196277 0.00195578 0.00194813 0.00193989 0.00193107 0.00192167 0.00191169 0.00190113 0.00188999 0.00187826 0.00186569 0.00185201 0.00183721 0.0018213 0.00180428 0.00178614 0.00176689 0.00174652 0.0017247 0.00170105 0.0016756 0.00164833 0.00161924 0.00158834 0.00155563 0.00152111 0.00148471 0.00144639 0.00140616 0.00136399 0.00131991 0.00127391 0.00122598 0.00117613 0.00112489 0.00107279 0.00101983 0.000966006 0.000911328 0.00085579 0.000799393 0.000742136 0.000685173 0.000629655 0.000575583 0.000522957 0.000471776 0.00042204 0.000373751 0.000326906 0.000282555 0.000241743 0.000204472 0.00017074 0.000140548 0.000113895 9.0783e-05 7.12105e-05 5.45205e-05 4.00559e-05 2.78166e-05 1.78026e-05 1.0014e-05 4.45065e-06 1.11266e-06 0 0 2.08512e-06 8.34048e-06 1.87661e-05 3.33619e-05 5.2128e-05 7.50643e-05 0.000102171 0.000133448 0.000169889 0.000212489 0.000261247 0.000316164 0.00037724 0.000444474 0.000517867 0.000597418 0.000681044 0.000766659 0.000854264 0.000943858 0.00103544 0.00112902 0.00122458 0.00132213 0.00141954 0.00151467 0.00160753 0.0016981 0.00178639 0.00187241 0.00195615 0.00203761 0.00211587 0.00219001 0.00226002 0.00232592 0.00238769 0.00244534 0.00249887 0.00254828 0.00259373 0.00263539 0.00267326 0.00270733 0.00273761 0.0027641 0.0027868 0.0028057 0.00282153 0.002835 0.00284611 0.00285486 0.00286125 0.00286527 0.00286694 0.00286625 0.00286383 0.00286032 0.00285572 0.00285002 0.00284324 0.00283536 0.00282639 0.00281633 0.0028053 0.00279344 0.00278074 0.00276721 0.00275283 0.00273763 0.00272158 0.0027047 0.0026866 0.0026669 0.00264559 0.00262268 0.00259816 0.00257204 0.00254432 0.002515 0.00248356 0.00244952 0.00241286 0.00237359 0.00233171 0.00228721 0.00224011 0.00219039 0.00213798 0.00208281 0.00202486 0.00196415 0.00190067 0.00183442 0.00176541 0.00169362 0.00161984 0.00154481 0.00146855 0.00139105 0.00131231 0.00123234 0.00115113 0.00106868 0.000986649 0.000906704 0.00082884 0.000753058 0.000679357 0.000607738 0.000538201 0.000470745 0.000406879 0.00034811 0.000294439 0.000245865 0.000202389 0.000164009 0.000130728 0.000102543 7.85095e-05 5.76805e-05 4.00559e-05 2.56358e-05 1.44201e-05 6.40894e-06 1.60224e-06 0 0 2.83808e-06 1.13523e-05 2.55427e-05 4.54093e-05 7.0952e-05 0.000102171 0.000139066 0.000181637 0.000231238 0.000289221 0.000355586 0.000430334 0.000513465 0.000604978 0.000704874 0.000813152 0.000926976 0.00104351 0.00116275 0.0012847 0.00140935 0.00153672 0.00166679 0.00179957 0.00193216 0.00206164 0.00218802 0.0023113 0.00243148 0.00254856 0.00266254 0.00277341 0.00287993 0.00298084 0.00307614 0.00316583 0.00324991 0.00332838 0.00340124 0.00346849 0.00353035 0.00358706 0.0036386 0.00368498 0.00372619 0.00376225 0.00379314 0.00381887 0.00384042 0.00385875 0.00387387 0.00388578 0.00389447 0.00389996 0.00390223 0.00390128 0.00389799 0.00389321 0.00388695 0.0038792 0.00386996 0.00385924 0.00384703 0.00383333 0.00381833 0.00380218 0.0037849 0.00376647 0.00374691 0.00372621 0.00370438 0.0036814 0.00365676 0.00362994 0.00360094 0.00356975 0.00353639 0.00350084 0.0034631 0.00342319 0.0033804 0.00333406 0.00328417 0.00323072 0.00317371 0.00311315 0.00304904 0.00298137 0.00291003 0.00283493 0.00275607 0.00267343 0.00258703 0.00249685 0.00240292 0.00230521 0.00220478 0.00210266 0.00199886 0.00189337 0.0017862 0.00167735 0.00156681 0.00145459 0.00134294 0.00123412 0.00112814 0.001025 0.00092468 0.000827199 0.000732551 0.000640737 0.000553808 0.000473817 0.000400764 0.00033465 0.000275473 0.000223235 0.000177935 0.000139573 0.00010686 7.85095e-05 5.45205e-05 3.48931e-05 1.96274e-05 8.72328e-06 2.18082e-06 0 0 3.70688e-06 1.48275e-05 3.33619e-05 5.93101e-05 9.2672e-05 0.000133448 0.000181637 0.00023724 0.000302025 0.000377758 0.000464439 0.00056207 0.000670648 0.000790176 0.000920652 0.00106208 0.00121074 0.00136295 0.00151869 0.00167797 0.00184079 0.00200714 0.00217703 0.00235046 0.00252363 0.00269275 0.00285782 0.00301884 0.00317581 0.00332873 0.0034776 0.00362242 0.00376154 0.00389334 0.00401782 0.00413496 0.00424478 0.00434727 0.00444244 0.00453027 0.00461108 0.00468514 0.00475245 0.00481303 0.00486686 0.00491396 0.00495431 0.00498792 0.00501606 0.00504 0.00505975 0.0050753 0.00508666 0.00509382 0.00509678 0.00509555 0.00509125 0.00508501 0.00507683 0.00506671 0.00505464 0.00504064 0.00502469 0.0050068 0.0049872 0.00496611 0.00494354 0.00491948 0.00489393 0.00486689 0.00483837 0.00480836 0.00477618 0.00474115 0.00470327 0.00466254 0.00461895 0.00457252 0.00452324 0.0044711 0.00441522 0.0043547 0.00428953 0.00421971 0.00414526 0.00406616 0.00398242 0.00389403 0.00380086 0.00370277 0.00359976 0.00349183 0.00337897 0.0032612 0.0031385 0.00301088 0.00287971 0.00274633 0.00261075 0.00247298 0.002333 0.00219082 0.00204645 0.00189987 0.00175404 0.00161192 0.00147349 0.00133877 0.00120775 0.00108042 0.000956802 0.000836881 0.000723341 0.000618863 0.000523447 0.000437094 0.000359802 0.000291572 0.000232405 0.000182299 0.000139573 0.000102543 7.12105e-05 4.55747e-05 2.56358e-05 1.13937e-05 2.84842e-06 0 0 4.7394e-06 1.89576e-05 4.26546e-05 7.58304e-05 0.000118485 0.000170618 0.000232231 0.000303321 0.00038607 0.000482656 0.000593078 0.000717337 0.000855433 0.00100737 0.00117314 0.00135274 0.00154149 0.00173469 0.00193234 0.00213444 0.00234099 0.00255199 0.00276744 0.00298734 0.00320691 0.00342135 0.00363067 0.00383487 0.00403395 0.0042279 0.00441673 0.00460044 0.00477696 0.00494421 0.0051022 0.00525093 0.00539039 0.00552058 0.00564151 0.00575317 0.00585594 0.00595017 0.00603585 0.00611301 0.00618162 0.00624169 0.00629323 0.00633623 0.0063723 0.00640303 0.00642842 0.00644848 0.00646321 0.0064726 0.00647666 0.00647538 0.00647019 0.0064625 0.00645232 0.00643965 0.00642448 0.00640682 0.00638667 0.00636403 0.00633918 0.00631241 0.00628372 0.00625312 0.00622059 0.00618615 0.00614979 0.00611152 0.00607047 0.00602579 0.00597748 0.00592554 0.00586997 0.00581077 0.00574794 0.00568148 0.00561026 0.00553317 0.00545019 0.00536133 0.00526659 0.00516597 0.00505947 0.00494709 0.00482866 0.00470401 0.00457314 0.00443605 0.00429275 0.00414322 0.00398747 0.0038255 0.00365904 0.00348979 0.00331777 0.00314297 0.00296539 0.00278502 0.00260188 0.00241597 0.00223099 0.00205068 0.00187503 0.00170404 0.00153772 0.00137606 0.00121906 0.00106673 0.000922457 0.000789643 0.000668286 0.000558387 0.000459945 0.000372961 0.000297434 0.000233364 0.000178669 0.000131267 9.11578e-05 5.8341e-05 3.28168e-05 1.45852e-05 3.64631e-06 0 0 5.98351e-06 2.3934e-05 5.38516e-05 9.57362e-05 0.000149588 0.000215406 0.000293192 0.000382945 0.000487194 0.000608471 0.000746775 0.000902106 0.00107446 0.00126385 0.00147026 0.0016937 0.00192836 0.00216845 0.00241395 0.00266487 0.00292121 0.00318297 0.00345016 0.00372276 0.00399491 0.00426076 0.0045203 0.00477352 0.00502044 0.00526104 0.00549534 0.00572332 0.00594244 0.00615015 0.00634645 0.00653133 0.0067048 0.00686686 0.00701751 0.00715674 0.00728499 0.00740269 0.00750983 0.00760642 0.00769245 0.00776793 0.00783285 0.00788722 0.00793299 0.0079721 0.00800457 0.00803037 0.00804953 0.00806203 0.00806788 0.00806708 0.00806136 0.00805246 0.00804038 0.00802512 0.00800668 0.00798507 0.00796027 0.00793229 0.00790149 0.00786822 0.00783249 0.00779429 0.00775362 0.00771049 0.00766489 0.00761682 0.00756525 0.00750914 0.00744848 0.00738328 0.00731354 0.00723926 0.00716043 0.00707706 0.00698778 0.00689123 0.00678741 0.00667632 0.00655797 0.00643234 0.00629944 0.00615927 0.00601164 0.00585635 0.00569341 0.00552282 0.00534458 0.00515868 0.00496513 0.00476392 0.00455718 0.00434702 0.00413345 0.00391646 0.00369605 0.00347222 0.00324498 0.00301432 0.0027848 0.00256099 0.00234288 0.00213046 0.00192375 0.00172275 0.00152744 0.00133783 0.00115814 0.000992552 0.00084108 0.000703721 0.000580474 0.00047134 0.000376318 0.00029541 0.000226173 0.000166168 0.000115394 7.38524e-05 4.1542e-05 1.84631e-05 4.61578e-06 0 0 7.43922e-06 2.97569e-05 6.6953e-05 0.000119028 0.000185981 0.000267812 0.000364522 0.00047611 0.000605397 0.000755204 0.00092553 0.00111638 0.00132774 0.00155963 0.00181203 0.00208495 0.00237136 0.00266421 0.00296351 0.00326926 0.00358145 0.00390009 0.00422518 0.00455671 0.00488766 0.00521099 0.0055267 0.0058348 0.00613529 0.00642816 0.00671341 0.00699104 0.00725799 0.00751116 0.00775055 0.00797618 0.00818804 0.00838612 0.00857043 0.00874097 0.00889823 0.0090427 0.00917438 0.00929326 0.00939936 0.00949266 0.00957317 0.00964089 0.00969814 0.00974723 0.00978818 0.00982098 0.00984562 0.00986212 0.00987046 0.00987065 0.00986477 0.00985489 0.00984101 0.00982313 0.00980124 0.00977536 0.00974548 0.0097116 0.00967415 0.00963357 0.00958985 0.009543 0.00949302 0.00943991 0.00938366 0.00932428 0.00926053 0.0091912 0.00911628 0.00903577 0.00894967 0.00885798 0.0087607 0.00865784 0.00854777 0.00842889 0.0083012 0.00816469 0.00801938 0.00786525 0.00770231 0.00753056 0.00734979 0.00715979 0.00696058 0.00675213 0.00653447 0.00630758 0.00607147 0.00582614 0.00557413 0.00531802 0.00505779 0.00479344 0.00452499 0.00425242 0.00397573 0.00369494 0.00341549 0.00314286 0.00287704 0.00261804 0.00236586 0.00212049 0.00188193 0.0016502 0.00143038 0.00122759 0.00104183 0.000873094 0.000721388 0.00058671 0.000469059 0.000368436 0.000282084 0.000207245 0.00014392 9.21091e-05 5.18114e-05 2.30273e-05 5.75682e-06 0 0 9.10653e-06 3.64261e-05 8.19587e-05 0.000145704 0.000227663 0.000327835 0.00044622 0.000582818 0.000740679 0.000922854 0.00112934 0.00136015 0.00161526 0.00189469 0.00219844 0.0025265 0.00287048 0.00322199 0.00358103 0.0039476 0.0043217 0.00470334 0.0050925 0.00548919 0.00588513 0.00627203 0.00664989 0.00701871 0.0073785 0.00772924 0.00807095 0.00840361 0.00872359 0.00902723 0.00931452 0.00958547 0.00984009 0.0100784 0.0103003 0.0105059 0.0106957 0.0108702 0.0110295 0.0111735 0.0113023 0.0114159 0.0115142 0.0115972 0.0116677 0.0117284 0.0117793 0.0118203 0.0118515 0.0118729 0.0118844 0.0118861 0.0118804 0.0118698 0.0118542 0.0118337 0.0118082 0.0117777 0.0117423 0.0117019 0.0116572 0.0116084 0.0115558 0.0114993 0.0114388 0.0113744 0.0113061 0.0112339 0.0111563 0.011072 0.0109809 0.010883 0.0107784 0.0106669 0.0105488 0.0104238 0.0102902 0.0101461 0.00999154 0.00982644 0.00965083 0.00946471 0.00926809 0.00906096 0.00884311 0.00861433 0.00837462 0.00812399 0.00786242 0.00758993 0.0073065 0.00701215 0.0067099 0.00640278 0.00609079 0.00577393 0.0054522 0.00512561 0.00479414 0.00445781 0.00412305 0.00379629 0.00347753 0.00316678 0.00286403 0.00256929 0.00228255 0.00200382 0.00173918 0.00149476 0.00127053 0.00106651 0.000882688 0.000719071 0.000575656 0.000452444 0.000346402 0.0002545 0.000176736 0.000113111 6.36249e-05 2.82777e-05 7.06943e-06 0 0 1.09854e-05 4.39417e-05 9.88688e-05 0.000175767 0.000274636 0.000395475 0.000538286 0.000703067 0.000893039 0.00111142 0.00135821 0.00163342 0.00193703 0.00226906 0.00262949 0.00301833 0.00342572 0.00384178 0.0042665 0.0046999 0.00514197 0.00559271 0.00605213 0.00652021 0.00698734 0.00744389 0.00788986 0.00832525 0.00875007 0.0091643 0.00956796 0.00996103 0.0103393 0.0106984 0.0110383 0.0113592 0.011661 0.0119436 0.0122071 0.0124514 0.0126773 0.0128852 0.0130752 0.0132473 0.0134014 0.0135376 0.0136559 0.0137562 0.0138418 0.0139156 0.0139778 0.0140283 0.0140671 0.0140942 0.0141097 0.0141134 0.0141083 0.0140972 0.01408 0.0140567 0.0140274 0.0139921 0.0139508 0.0139033 0.0138505 0.0137928 0.0137303 0.013663 0.0135909 0.013514 0.0134322 0.0133456 0.0132526 0.0131514 0.0130422 0.012925 0.0127996 0.0126661 0.0125246 0.012375 0.0122152 0.012043 0.0118584 0.0116616 0.0114523 0.0112307 0.0109968 0.0107505 0.0104916 0.01022 0.00993556 0.00963838 0.00932843 0.00900571 0.00867022 0.00832196 0.00796447 0.0076013 0.00723245 0.00685791 0.00647769 0.00609179 0.00570021 0.00530294 0.00490747 0.00452127 0.00414433 0.00377667 0.00341827 0.00306914 0.00272928 0.00239869 0.00208455 0.00179405 0.00152719 0.00128396 0.00106437 0.000868422 0.000696108 0.000547432 0.000419127 0.00030793 0.00021384 0.000136858 7.69826e-05 3.42145e-05 8.55362e-06 0 0 1.30759e-05 5.23037e-05 0.000117683 0.000209215 0.000326898 0.000470733 0.00064072 0.000836859 0.00106248 0.00132091 0.00161214 0.00193619 0.00229305 0.00268271 0.00310518 0.00356046 0.00403709 0.00452358 0.00501993 0.00552616 0.00604226 0.00656822 0.00710406 0.00764976 0.00819428 0.00872656 0.00924661 0.00975442 0.01025 0.0107333 0.0112044 0.0116633 0.012105 0.0125246 0.012922 0.0132974 0.0136506 0.0139818 0.0142908 0.0145777 0.0148431 0.0150877 0.0153115 0.0155144 0.0156965 0.0158578 0.0159983 0.0161179 0.0162203 0.0163089 0.0163838 0.016445 0.0164925 0.0165263 0.0165463 0.0165526 0.0165485 0.016537 0.0165183 0.0164923 0.0164591 0.0164186 0.0163708 0.0163158 0.0162542 0.0161867 0.0161135 0.0160344 0.0159494 0.0158586 0.015762 0.0156595 0.0155493 0.0154296 0.0153004 0.0151617 0.0150134 0.0148556 0.0146882 0.0145114 0.0143226 0.0141194 0.0139019 0.0136701 0.0134238 0.0131633 0.0128884 0.0125991 0.0122953 0.0119767 0.0116434 0.0112953 0.0109325 0.0105549 0.0101626 0.00975557 0.00933786 0.00891359 0.00848277 0.00804539 0.00760146 0.00715097 0.00669393 0.00623034 0.00576877 0.00531781 0.00487746 0.00444771 0.00402858 0.00362005 0.00322213 0.00283482 0.00246648 0.00212548 0.0018118 0.00152546 0.00126644 0.00103476 0.000830417 0.000653401 0.00050026 0.000367538 0.000255235 0.00016335 9.18844e-05 4.08375e-05 1.02094e-05 0 0 1.5378e-05 6.15121e-05 0.000138402 0.000246048 0.00038445 0.000553608 0.000753523 0.000984193 0.001249 0.00155131 0.00189113 0.00226846 0.0026833 0.00313566 0.00362552 0.00415289 0.00470458 0.00526739 0.00584132 0.00642638 0.00702256 0.00762986 0.00824829 0.00887784 0.00950595 0.0101201 0.0107201 0.0113062 0.0118783 0.0124363 0.0129804 0.0135104 0.0140208 0.0145058 0.0149656 0.0154 0.0158091 0.0161929 0.0165514 0.0168846 0.0171931 0.0174777 0.0177383 0.017975 0.0181878 0.0183765 0.0185414 0.0186823 0.0188032 0.0189083 0.0189973 0.0190705 0.0191277 0.019169 0.0191943 0.0192037 0.0192008 0.0191893 0.0191692 0.0191405 0.0191031 0.0190571 0.0190025 0.0189392 0.0188682 0.0187902 0.0187052 0.0186132 0.0185143 0.0184083 0.0182954 0.0181755 0.0180466 0.0179065 0.0177554 0.0175931 0.0174197 0.0172353 0.0170397 0.016833 0.0166125 0.0163755 0.0161219 0.0158519 0.0155654 0.0152624 0.0149429 0.0146068 0.0142541 0.0138845 0.0134981 0.0130948 0.0126746 0.0122376 0.0117837 0.011313 0.0108301 0.0103396 0.00984175 0.00933637 0.0088235 0.00830315 0.00777531 0.00723999 0.00670693 0.0061859 0.0056769 0.00517991 0.00469495 0.00422201 0.0037611 0.00331221 0.00288498 0.00248903 0.00212437 0.00179099 0.0014889 0.0012181 0.000978581 0.00077035 0.000589799 0.000433322 0.000300918 0.000192588 0.00010833 4.81469e-05 1.20367e-05 0 0 1.78917e-05 7.15668e-05 0.000161025 0.000286267 0.000447293 0.000644101 0.000876693 0.00114507 0.00145259 0.00180263 0.00219518 0.00263024 0.00310781 0.0036279 0.00419049 0.0047956 0.00542819 0.00607321 0.00673066 0.00740055 0.00808288 0.00877764 0.00948483 0.0102045 0.0109224 0.0116244 0.0123104 0.0129806 0.0136349 0.0142733 0.0148958 0.0155024 0.0160866 0.0166422 0.017169 0.0176671 0.0181364 0.0185771 0.018989 0.0193721 0.0197273 0.0200552 0.0203557 0.020629 0.020875 0.0210938 0.0212852 0.0214493 0.0215906 0.0217136 0.0218183 0.0219046 0.0219726 0.0220223 0.0220536 0.0220667 0.0220654 0.0220541 0.0220327 0.0220011 0.0219594 0.0219077 0.0218458 0.0217738 0.0216926 0.0216032 0.0215055 0.0213996 0.0212855 0.0211631 0.0210325 0.0208937 0.0207443 0.0205821 0.0204071 0.0202193 0.0200186 0.0198052 0.0195789 0.0193398 0.0190848 0.0188111 0.0185185 0.0182072 0.017877 0.017528 0.0171603 0.0167737 0.0163681 0.0159435 0.0154997 0.0150368 0.0145548 0.0140537 0.0135335 0.0129942 0.0124411 0.0118795 0.0113094 0.0107308 0.0101438 0.00954832 0.00894435 0.0083319 0.00772197 0.00712555 0.00654265 0.00597327 0.00541739 0.00487503 0.00434619 0.00383086 0.00334003 0.00288471 0.00246489 0.00208056 0.00173174 0.00141842 0.0011406 0.00089828 0.000687746 0.000505283 0.000350891 0.00022457 0.000126321 5.61425e-05 1.40356e-05 0 0 2.05877e-05 8.23506e-05 0.000185289 0.000329403 0.000514692 0.000741156 0.0010088 0.00131761 0.00167089 0.00207193 0.00252072 0.00301727 0.00356157 0.00415363 0.00479345 0.00548102 0.00619936 0.00693147 0.00767735 0.00843701 0.00921045 0.00999765 0.0107986 0.0116134 0.0124261 0.0132209 0.0139978 0.0147569 0.015498 0.0162213 0.0169267 0.0176142 0.0182766 0.0189067 0.0195045 0.02007 0.0206033 0.0211042 0.0215728 0.0220092 0.022414 0.022788 0.0231312 0.0234436 0.0237252 0.023976 0.024196 0.0243852 0.0245486 0.024691 0.0248127 0.0249134 0.0249932 0.0250522 0.0250903 0.0251076 0.0251085 0.0250977 0.0250751 0.0250408 0.0249948 0.0249371 0.0248676 0.0247864 0.0246945 0.0245931 0.024482 0.0243613 0.024231 0.0240911 0.0239415 0.0237824 0.0236111 0.0234252 0.0232247 0.0230094 0.0227796 0.0225351 0.0222759 0.0220021 0.0217103 0.0213973 0.0210631 0.0207076 0.020331 0.019933 0.0195139 0.0190735 0.0186118 0.0181287 0.017624 0.0170979 0.0165504 0.0159814 0.0153909 0.014779 0.0141516 0.0135147 0.0128682 0.0122123 0.0115468 0.0108719 0.0101874 0.00949341 0.00880219 0.00812601 0.00746489 0.00681882 0.0061878 0.00557182 0.0049709 0.00438503 0.00382664 0.00330818 0.00282964 0.00239103 0.00199234 0.00163357 0.00131473 0.00103582 0.000793047 0.000582647 0.000404616 0.000258954 0.000145662 6.47385e-05 1.61846e-05 0 0 2.34366e-05 9.37463e-05 0.000210929 0.000374985 0.000585914 0.000843717 0.00114839 0.00149994 0.00190152 0.00235627 0.0028642 0.00342531 0.0040396 0.00470707 0.00542772 0.00620155 0.00700952 0.0078326 0.00867079 0.00952409 0.0103925 0.011276 0.0121747 0.0130884 0.0139997 0.0148911 0.0157626 0.0166141 0.0174457 0.0182573 0.019049 0.0198208 0.0205646 0.0212725 0.0219444 0.0225803 0.0231803 0.0237443 0.0242724 0.0247645 0.0252214 0.0256439 0.026032 0.0263857 0.0267049 0.0269897 0.0272401 0.027456 0.027643 0.0278064 0.0279463 0.0280626 0.0281554 0.0282246 0.0282703 0.0282925 0.0282961 0.0282863 0.0282629 0.0282262 0.0281759 0.0281122 0.028035 0.0279443 0.0278414 0.0277273 0.0276022 0.0274659 0.0273186 0.0271602 0.0269907 0.0268101 0.0266156 0.0264046 0.026177 0.0259328 0.025672 0.0253947 0.0251007 0.0247902 0.0244595 0.0241051 0.023727 0.0233251 0.0228995 0.0224502 0.0219771 0.0214803 0.0209597 0.0204153 0.0198469 0.0192547 0.0186387 0.0179987 0.017335 0.0166473 0.0159424 0.0152269 0.0145009 0.0137642 0.013017 0.0122592 0.0114908 0.0107119 0.00993589 0.00917653 0.00843377 0.00770761 0.00699806 0.0063051 0.00562874 0.00496899 0.00433979 0.00375509 0.0032149 0.00271923 0.00226805 0.00186139 0.00149923 0.00118158 0.000904649 0.00066464 0.000461556 0.000295396 0.00016616 7.38489e-05 1.84622e-05 0 0 2.64384e-05 0.000105754 0.000237946 0.000423015 0.000660961 0.000951784 0.00129548 0.00169206 0.00214447 0.00265565 0.00322562 0.00385437 0.0045419 0.00528821 0.00609331 0.00695718 0.00785867 0.0087766 0.00971097 0.0106618 0.011629 0.0126128 0.0136129 0.0146295 0.0156433 0.016635 0.0176047 0.0185523 0.0194779 0.0203814 0.0212628 0.0221222 0.0229507 0.0237395 0.0244886 0.0251979 0.0258676 0.0264975 0.0270877 0.0276381 0.0281497 0.0286231 0.0290583 0.0294553 0.0298142 0.0301349 0.0304175 0.0306618 0.030874 0.0310598 0.0312192 0.0313524 0.0314591 0.0315396 0.0315937 0.0316214 0.0316283 0.0316199 0.0315962 0.0315571 0.0315027 0.0314329 0.0313478 0.0312474 0.031133 0.0310059 0.0308661 0.0307136 0.0305484 0.0303705 0.0301799 0.0299767 0.0297577 0.0295202 0.0292641 0.0289893 0.028696 0.028384 0.0280534 0.0277042 0.0273325 0.0269346 0.0265103 0.0260597 0.0255827 0.0250795 0.0245499 0.023994 0.0234118 0.0228033 0.0221684 0.0215072 0.0208197 0.0201058 0.0193656 0.018599 0.0178135 0.0170162 0.0162073 0.0153866 0.0145543 0.0137103 0.0128546 0.0119872 0.0111231 0.0102771 0.0094493 0.00863965 0.00784817 0.00707486 0.00631972 0.00558274 0.00487947 0.00422545 0.00362068 0.00306516 0.00255889 0.00210187 0.0016941 0.00133558 0.00102255 0.000751264 0.000521711 0.000333895 0.000187816 8.34737e-05 2.08684e-05 0 0 2.95933e-05 0.000118373 0.000266339 0.000473492 0.000739832 0.00106536 0.00145007 0.00189397 0.00239974 0.00297008 0.00360498 0.00430444 0.00506847 0.00589706 0.00679021 0.00774792 0.0087468 0.00976346 0.0107979 0.0118501 0.0129201 0.0140078 0.0151134 0.0162367 0.0173567 0.0184526 0.0195241 0.0205715 0.0215946 0.0225935 0.0235681 0.0245184 0.0254349 0.0263078 0.0271371 0.0279229 0.028665 0.0293636 0.0300186 0.0306301 0.0311987 0.0317253 0.0322099 0.0326525 0.0330531 0.0334116 0.0337281 0.0340027 0.0342415 0.0344511 0.0346315 0.0347826 0.0349044 0.034997 0.0350603 0.0350944 0.0351052 0.0350986 0.0350748 0.0350336 0.0349751 0.0348993 0.0348062 0.0346958 0.0345695 0.0344288 0.0342737 0.0341042 0.0339203 0.033722 0.0335093 0.0332822 0.0330375 0.0327721 0.0324859 0.032179 0.0318514 0.031503 0.0311339 0.030744 0.0303293 0.0298856 0.0294129 0.0289112 0.0283806 0.0278209 0.0272323 0.0266147 0.0259681 0.0252927 0.0245885 0.0238553 0.0230933 0.0223025 0.0214828 0.0206342 0.0197648 0.0188825 0.0179874 0.0170795 0.0161588 0.0152252 0.0142788 0.0133195 0.0123638 0.0114277 0.0105115 0.00961493 0.00873815 0.00788111 0.00704382 0.00622628 0.00544569 0.00471925 0.00404697 0.00342883 0.00286485 0.00235502 0.00189934 0.00149781 0.00114676 0.000842517 0.000585081 0.000374452 0.000210629 9.3613e-05 2.34032e-05 0 0 3.2901e-05 0.000131604 0.000296109 0.000526417 0.000822526 0.00118444 0.00161215 0.00210567 0.00266734 0.00329955 0.00400227 0.00477553 0.0056193 0.0065336 0.00751842 0.00857377 0.00967393 0.0107932 0.0119316 0.013089 0.0142656 0.0154613 0.016676 0.0179099 0.0191401 0.0203438 0.021521 0.0226717 0.0237959 0.0248936 0.0259648 0.0270095 0.0280172 0.0289774 0.02989 0.0307551 0.0315727 0.0323428 0.0330653 0.0337403 0.0343685 0.0349508 0.035487 0.0359773 0.0364216 0.0368199 0.0371721 0.0374784 0.0377456 0.0379805 0.038183 0.0383533 0.0384912 0.0385969 0.0386703 0.0387114 0.0387266 0.0387224 0.0386988 0.0386557 0.0385933 0.0385114 0.0384101 0.0382894 0.0381508 0.0379961 0.0378251 0.0376378 0.0374344 0.0372147 0.0369788 0.0367267 0.036455 0.0361603 0.0358426 0.035502 0.0351383 0.0347518 0.0343422 0.0339097 0.0334498 0.0329582 0.0324349 0.0318798 0.031293 0.0306745 0.0300242 0.0293422 0.0286286 0.0278836 0.0271071 0.0262991 0.0254597 0.0245889 0.0236866 0.0227528 0.0217963 0.0208259 0.0198414 0.0188429 0.0178304 0.0168038 0.0157633 0.0147088 0.0136579 0.0126284 0.0116203 0.0106335 0.00966798 0.00872385 0.00780106 0.00689962 0.00603845 0.0052365 0.00449376 0.00381024 0.00318592 0.00262082 0.00211494 0.00166827 0.00127727 0.000938399 0.000651666 0.000417066 0.0002346 0.000104267 2.60667e-05 0 0 3.63618e-05 0.000145447 0.000327256 0.000581788 0.000909044 0.00130902 0.00178173 0.00232715 0.00294727 0.00364406 0.00441751 0.00526762 0.0061944 0.00719785 0.00827796 0.00943473 0.01064 0.0118658 0.013112 0.0143786 0.0156656 0.0169731 0.0183009 0.0196493 0.0209934 0.0223087 0.0235952 0.0248528 0.026081