<?xml version="1.0"?> 
<VTKFile type="StructuredGrid" version="0.1"> 
<StructuredGrid WholeExtent="0 128 0 128 0 0"> 
<Piece Extent="0 128 0 128 0 0"> 
<PointData>
<DataArray type="Float32" Name="u" format="ascii" NumberOfComponents="1"> 
0 0 0 0 0 0 0 0 0 0 0 0 0 0 0 0 0 0 0 0 0 0 0 0 0 0 0 0 0 0 0 0 0 0 0 0 0 0 0 0 0 0 0 0 0 0 0 0 0 0 0 0 0 0 0 0 0 0 0 0 0 0 0 0 0 0 0 0 0 0 0 0 0 0 0 0 0 0 0 0 0 0 0 0 0 0 0 0 0 0 0 0 0 0 0 0 0 0 0 0 0 0 0 0 0 0 0 0 0 0 0 0 0 0 0 0 0 0 0 0 0 0 0 0 0 0 0 0 0 0 6.07798e-08 2.43119e-07 5.47018e-07 9.72476e-07 1.51949e-06 2.18807e-06 2.97821e-06 3.8899e-06 4.95028e-06 6.18645e-06 7.59841e-06 9.18616e-06 1.09497e-05 1.28891e-05 1.50042e-05 1.72951e-05 1.97122e-05 2.22057e-05 2.47756e-05 2.7422e-05 3.01448e-05 3.29441e-05 3.58198e-05 3.87719e-05 4.17482e-05 4.46964e-05 4.76164e-05 5.05083e-05 5.33721e-05 5.62078e-05 5.90153e-05 6.17947e-05 6.45154e-05 6.71467e-05 6.96887e-05 7.21413e-05 7.45045e-05 7.67784e-05 7.89629e-05 8.10581e-05 8.30518e-05 8.49319e-05 8.66984e-05 8.83514e-05 8.98908e-05 9.13167e-05 9.26289e-05 9.38276e-05 9.49129e-05 9.5885e-05 9.67439e-05 9.74897e-05 9.81222e-05 9.86416e-05 9.90477e-05 9.93407e-05 9.95268e-05 9.96126e-05 9.95979e-05 9.94828e-05 9.92673e-05 9.89514e-05 9.8535e-05 9.80183e-05 9.74093e-05 9.67162e-05 9.5939e-05 9.50777e-05 9.41323e-05 9.31028e-05 9.19892e-05 9.07916e-05 8.9518e-05 8.81768e-05 8.67679e-05 8.52912e-05 8.37469e-05 8.2135e-05 8.04553e-05 7.87079e-05 7.69021e-05 7.5047e-05 7.31427e-05 7.11892e-05 6.91864e-05 6.71344e-05 6.50331e-05 6.28826e-05 6.06959e-05 5.84861e-05 5.62532e-05 5.39973e-05 5.17182e-05 4.9416e-05 4.70907e-05 4.47424e-05 4.23913e-05 4.00581e-05 3.77427e-05 3.5445e-05 3.31652e-05 3.09031e-05 2.86588e-05 2.64323e-05 2.42534e-05 2.2152e-05 2.0128e-05 1.81814e-05 1.63123e-05 1.45207e-05 1.28064e-05 1.11697e-05 9.63415e-06 8.22375e-06 6.93846e-06 5.77829e-06 4.74322e-06 3.83327e-06 3.04843e-06 2.3887e-06 1.82885e-06 1.34364e-06 9.33085e-07 5.97175e-07 3.35911e-07 1.49294e-07 3.73234e-08 0 0 2.43119e-07 9.72476e-07 2.18807e-06 3.8899e-06 6.07798e-06 8.75229e-06 1.19128e-05 1.55596e-05 1.98011e-05 2.47458e-05 3.03936e-05 3.67446e-05 4.37988e-05 5.15562e-05 6.00168e-05 6.91805e-05 7.88487e-05 8.88227e-05 9.91024e-05 0.000109688 0.000120579 0.000131776 0.000143279 0.000155088 0.000166993 0.000178785 0.000190466 0.000202033 0.000213489 0.000224831 0.000236061 0.000247179 0.000258062 0.000268587 0.000278755 0.000288565 0.000298018 0.000307114 0.000315852 0.000324232 0.000332207 0.000339728 0.000346794 0.000353406 0.000359563 0.000365267 0.000370516 0.00037531 0.000379652 0.00038354 0.000386976 0.000389959 0.000392489 0.000394566 0.000396191 0.000397363 0.000398107 0.00039845 0.000398392 0.000397931 0.000397069 0.000395805 0.00039414 0.000392073 0.000389637 0.000386865 0.000383756 0.000380311 0.000376529 0.000372411 0.000367957 0.000363166 0.000358072 0.000352707 0.000347071 0.000341165 0.000334988 0.00032854 0.000321821 0.000314832 0.000307608 0.000300188 0.000292571 0.000284757 0.000276746 0.000268537 0.000260132 0.00025153 0.000242784 0.000233944 0.000225013 0.000215989 0.000206873 0.000197664 0.000188363 0.000178969 0.000169565 0.000160232 0.000150971 0.00014178 0.000132661 0.000123612 0.000114635 0.000105729 9.70137e-05 8.8608e-05 8.0512e-05 7.27258e-05 6.52493e-05 5.80827e-05 5.12258e-05 4.46786e-05 3.85366e-05 3.2895e-05 2.77538e-05 2.31131e-05 1.89729e-05 1.53331e-05 1.21937e-05 9.55479e-06 7.31539e-06 5.37457e-06 3.73234e-06 2.3887e-06 1.34364e-06 5.97175e-07 1.49294e-07 0 0 5.47018e-07 2.18807e-06 4.92316e-06 8.75229e-06 1.36754e-05 1.96926e-05 2.68039e-05 3.50091e-05 4.45525e-05 5.5678e-05 6.83857e-05 8.26755e-05 9.85474e-05 0.000116001 0.000135038 0.000155656 0.00017741 0.000199851 0.00022298 0.000246798 0.000271303 0.000296496 0.000322378 0.000348947 0.000375734 0.000402267 0.000428548 0.000454575 0.000480349 0.00050587 0.000531138 0.000556153 0.000580639 0.00060432 0.000627198 0.000649271 0.00067054 0.000691005 0.000710666 0.000729523 0.000747466 0.000764387 0.000780286 0.000795163 0.000809017 0.00082185 0.00083366 0.000844448 0.000854216 0.000862965 0.000870695 0.000877407 0.0008831 0.000887774 0.000891429 0.000894066 0.000895741 0.000896513 0.000896381 0.000895345 0.000893406 0.000890562 0.000886815 0.000882164 0.000876683 0.000870445 0.000863451 0.000855699 0.000847191 0.000837925 0.000827903 0.000817124 0.000805662 0.000793591 0.000780911 0.000767621 0.000753723 0.000739215 0.000724098 0.000708371 0.000692119 0.000675423 0.000658285 0.000640703 0.000622677 0.000604209 0.000585298 0.000565943 0.000546263 0.000526375 0.000506279 0.000485975 0.000465464 0.000444744 0.000423817 0.000402681 0.000381522 0.000360523 0.000339684 0.000319005 0.000298486 0.000278128 0.000257929 0.000237891 0.000218281 0.000199368 0.000181152 0.000163633 0.000146811 0.000130686 0.000115258 0.000100527 8.67073e-05 7.40137e-05 6.24462e-05 5.20046e-05 4.2689e-05 3.44994e-05 2.74359e-05 2.14983e-05 1.64596e-05 1.20928e-05 8.39777e-06 5.37457e-06 3.0232e-06 1.34364e-06 3.35911e-07 0 0 9.72476e-07 3.8899e-06 8.75229e-06 1.55596e-05 2.43119e-05 3.50091e-05 4.76513e-05 6.22385e-05 7.92044e-05 9.89831e-05 0.000121575 0.000146979 0.000175195 0.000206225 0.000240067 0.000276722 0.000315395 0.000355291 0.00039641 0.000438752 0.000482317 0.000527105 0.000573116 0.00062035 0.000667971 0.000715142 0.000761863 0.000808133 0.000853954 0.000899325 0.000944245 0.000988716 0.00103225 0.00107435 0.00111502 0.00115426 0.00119207 0.00122845 0.00126341 0.00129693 0.00132883 0.00135891 0.00138717 0.00141362 0.00143825 0.00146107 0.00148206 0.00150124 0.00151861 0.00153416 0.0015479 0.00155983 0.00156996 0.00157826 0.00158476 0.00158945 0.00159243 0.0015938 0.00159357 0.00159172 0.00158828 0.00158322 0.00157656 0.00156829 0.00155855 0.00154746 0.00153502 0.00152124 0.00150612 0.00148965 0.00147183 0.00145267 0.00143229 0.00141083 0.00138829 0.00136466 0.00133995 0.00131416 0.00128728 0.00125933 0.00123043 0.00120075 0.00117028 0.00113903 0.00110698 0.00107415 0.00104053 0.00100612 0.000971134 0.000935778 0.000900052 0.000863956 0.000827491 0.000790656 0.000753452 0.000715878 0.000678262 0.00064093 0.000603883 0.00056712 0.000530642 0.000494449 0.000458541 0.000422917 0.000388055 0.000354432 0.000322048 0.000290903 0.000260997 0.000232331 0.000204903 0.000178714 0.000154146 0.00013158 0.000111015 9.24526e-05 7.58916e-05 6.13323e-05 4.87749e-05 3.82192e-05 2.92616e-05 2.14983e-05 1.49294e-05 9.55479e-06 5.37457e-06 2.3887e-06 5.97175e-07 0 0 1.51949e-06 6.07798e-06 1.36754e-05 2.43119e-05 3.79874e-05 5.47018e-05 7.44552e-05 9.72476e-05 0.000123757 0.000154661 0.00018996 0.000229654 0.000273743 0.000322226 0.000375105 0.000432378 0.000492804 0.000555142 0.00061939 0.000685549 0.00075362 0.000823601 0.000895494 0.000969297 0.0010437 0.00111741 0.00119041 0.00126271 0.0013343 0.00140519 0.00147538 0.00154487 0.00161289 0.00167867 0.00174222 0.00180353 0.00186261 0.00191946 0.00197407 0.00202645 0.00207629 0.0021233 0.00216746 0.00220879 0.00224727 0.00228292 0.00231572 0.00234569 0.00237282 0.00239713 0.0024186 0.00243724 0.00245306 0.00246604 0.00247619 0.00248352 0.00248817 0.00249031 0.00248995 0.00248707 0.00248168 0.00247378 0.00246338 0.00245046 0.00243523 0.0024179 0.00239847 0.00237694 0.00235331 0.00232757 0.00229973 0.00226979 0.00223795 0.00220442 0.0021692 0.00213228 0.00209367 0.00205337 0.00201138 0.0019677 0.00192255 0.00187618 0.00182857 0.00177973 0.00172966 0.00167836 0.00162583 0.00157206 0.0015174 0.00146215 0.00140633 0.00134993 0.00129295 0.0012354 0.00117727 0.00111856 0.00105978 0.00100145 0.000943567 0.000886125 0.000829129 0.000772577 0.00071647 0.000660808 0.000606336 0.0005538 0.0005032 0.000454536 0.000407808 0.000363017 0.000320161 0.000279241 0.000240854 0.000205594 0.000173462 0.000144457 0.000118581 9.58318e-05 7.62107e-05 5.97175e-05 4.57212e-05 3.35911e-05 2.33271e-05 1.49294e-05 8.39777e-06 3.73234e-06 9.33085e-07 0 0 2.18807e-06 8.75229e-06 1.96926e-05 3.50091e-05 5.47018e-05 7.87706e-05 0.000107215 0.000140037 0.00017821 0.000222712 0.000273543 0.000330702 0.00039419 0.000464006 0.000540151 0.000622624 0.000709638 0.000799404 0.000891922 0.000987191 0.00108521 0.00118599 0.00128951 0.00139579 0.00150294 0.00160907 0.00171419 0.0018183 0.0019214 0.00202348 0.00212455 0.00222461 0.00232255 0.00241728 0.00250879 0.00259709 0.00268216 0.00276402 0.00284266 0.00291809 0.00298986 0.00305755 0.00312114 0.00318065 0.00323607 0.0032874 0.00333464 0.00337779 0.00341686 0.00345186 0.00348278 0.00350963 0.0035324 0.0035511 0.00356572 0.00357626 0.00358297 0.00358605 0.00358552 0.00358138 0.00357362 0.00356225 0.00354726 0.00352866 0.00350673 0.00348178 0.0034538 0.0034228 0.00338876 0.0033517 0.00331161 0.0032685 0.00322265 0.00317436 0.00312364 0.00307048 0.00301489 0.00295686 0.00289639 0.00283349 0.00276848 0.00270169 0.00263314 0.00256281 0.00249071 0.00241684 0.00234119 0.00226377 0.00218505 0.0021055 0.00202512 0.0019439 0.00186185 0.00177898 0.00169527 0.00161073 0.00152609 0.00144209 0.00135874 0.00127602 0.00119395 0.00111251 0.00103172 0.000951563 0.000873123 0.000797472 0.000724608 0.000654532 0.000587244 0.000522744 0.000461032 0.000402108 0.000346829 0.000296055 0.000249785 0.000208018 0.000170756 0.000137998 0.000109743 8.59932e-05 6.58385e-05 4.83711e-05 3.35911e-05 2.14983e-05 1.20928e-05 5.37457e-06 1.34364e-06 0 0 2.97821e-06 1.19128e-05 2.68039e-05 4.76513e-05 7.44552e-05 0.000107215 0.000145932 0.000190605 0.000242564 0.000303136 0.000372322 0.000450122 0.000536536 0.000631564 0.000735205 0.000847461 0.000965896 0.00108808 0.001214 0.00134368 0.00147709 0.00161426 0.00175517 0.00189982 0.00204566 0.00219012 0.0023332 0.00247491 0.00261523 0.00275418 0.00289175 0.00302794 0.00316125 0.00329019 0.00341474 0.00353492 0.00365072 0.00376214 0.00386918 0.00397184 0.00406954 0.00416166 0.00424822 0.00432922 0.00440465 0.00447452 0.00453882 0.00459755 0.00465073 0.00469837 0.00474045 0.00477699 0.00480799 0.00483344 0.00485334 0.00486769 0.00487681 0.00488102 0.0048803 0.00487466 0.0048641 0.00484862 0.00482822 0.0048029 0.00477305 0.00473909 0.00470101 0.00465881 0.00461248 0.00456204 0.00450747 0.00444879 0.00438638 0.00432066 0.00425163 0.00417927 0.0041036 0.00402461 0.00394231 0.00385669 0.0037682 0.0036773 0.00358399 0.00348827 0.00339013 0.00328958 0.00318662 0.00308125 0.0029741 0.00286582 0.00275641 0.00264587 0.00253419 0.00242138 0.00230745 0.00219238 0.00207718 0.00196285 0.00184939 0.00173681 0.00162509 0.00151425 0.00140428 0.00129518 0.00118842 0.00108545 0.000986272 0.000890891 0.000799304 0.000711513 0.000627516 0.000547313 0.000472073 0.000402964 0.000339985 0.000283136 0.000232418 0.00018783 0.000149373 0.000117046 8.96135e-05 6.58385e-05 4.57212e-05 2.92616e-05 1.64596e-05 7.31539e-06 1.82885e-06 0 0 3.8899e-06 1.55596e-05 3.50091e-05 6.22385e-05 9.72476e-05 0.000140037 0.000190605 0.000248954 0.000316818 0.000395932 0.000486298 0.000587914 0.000700781 0.000824899 0.000960268 0.00110689 0.00126158 0.00142116 0.00158564 0.00175501 0.00192927 0.00210842 0.00229246 0.0024814 0.00267188 0.00286057 0.00304745 0.00323253 0.00341582 0.0035973 0.00377698 0.00395486 0.00412899 0.00429739 0.00446007 0.00461704 0.00476829 0.00491382 0.00505363 0.00518772 0.00531531 0.00543564 0.0055487 0.00565449 0.00575301 0.00584427 0.00592825 0.00600497 0.00607443 0.00613664 0.00619161 0.00623934 0.00627982 0.00631306 0.00633905 0.0063578 0.00636972 0.0063752 0.00637426 0.0063669 0.00635311 0.00633289 0.00630624 0.00627317 0.00623419 0.00618983 0.00614009 0.00608497 0.00602447 0.00595858 0.00588731 0.00581066 0.00572915 0.00564331 0.00555314 0.00545864 0.0053598 0.00525664 0.00514914 0.00503731 0.00492173 0.00480301 0.00468113 0.00455611 0.00442793 0.0042966 0.00416212 0.00402448 0.00388454 0.00374311 0.00360021 0.00345582 0.00330996 0.00316262 0.00301381 0.00286351 0.00271305 0.00256372 0.00241553 0.00226848 0.00212257 0.0019778 0.00183416 0.00169167 0.00155222 0.00141773 0.00128819 0.00116361 0.00104399 0.000929323 0.000819612 0.000714858 0.000616585 0.00052632 0.000444062 0.00036981 0.000303566 0.000245329 0.000195099 0.000152877 0.000117046 8.59932e-05 5.97175e-05 3.82192e-05 2.14983e-05 9.55479e-06 2.3887e-06 0 0 4.95355e-06 1.98142e-05 4.45819e-05 7.92568e-05 0.000123839 0.000178328 0.000242724 0.000317027 0.000403383 0.000503936 0.000618687 0.000747635 0.000890781 0.00104812 0.00121967 0.0014054 0.00160132 0.0018034 0.00201163 0.00222603 0.00244658 0.0026733 0.00290617 0.0031452 0.00338618 0.00362487 0.0038613 0.00409544 0.00432731 0.0045569 0.00478422 0.00500926 0.00522955 0.00544261 0.00564845 0.00584705 0.00603844 0.00622259 0.00639952 0.00656923 0.00673072 0.00688303 0.00702614 0.00716006 0.00728479 0.00740033 0.00750668 0.00760384 0.00769182 0.00777063 0.00784028 0.00790076 0.00795207 0.00799421 0.00802719 0.008051 0.00806616 0.00807318 0.00807206 0.00806281 0.00804542 0.00801989 0.00798622 0.00794442 0.00789514 0.00783904 0.00777613 0.0077064 0.00762985 0.00754648 0.0074563 0.0073593 0.00725615 0.00714752 0.00703339 0.00691378 0.00678869 0.00665811 0.00652204 0.00638049 0.0062342 0.00608393 0.00592966 0.00577141 0.00560917 0.00544294 0.00527272 0.00509851 0.00492138 0.00474238 0.00456151 0.00437877 0.00419416 0.00400768 0.00381934 0.00362912 0.00343869 0.0032497 0.00306215 0.00287603 0.00269135 0.00250811 0.00232631 0.00214594 0.00196942 0.00179915 0.00163512 0.00147735 0.00132582 0.00118054 0.00104151 0.000908734 0.000784135 0.000669647 0.000565271 0.000471006 0.000386852 0.000312809 0.000248878 0.000195058 0.000149341 0.00010972 7.61944e-05 4.87644e-05 2.743e-05 1.21911e-05 3.04778e-06 0 0 6.19953e-06 2.47981e-05 5.57958e-05 9.91925e-05 0.000154988 0.000223183 0.000303777 0.00039677 0.000504669 0.00062998 0.000772704 0.00093284 0.00111039 0.00130535 0.00151773 0.00174751 0.00198976 0.00223953 0.0024968 0.0027616 0.0030339 0.00331372 0.00360106 0.00389591 0.00419311 0.00448751 0.00477911 0.0050679 0.00535388 0.00563706 0.00591744 0.00619501 0.00646674 0.00672957 0.00698352 0.00722858 0.00746474 0.00769202 0.00791041 0.00811991 0.0083193 0.00850737 0.00868412 0.00884954 0.00900363 0.00914641 0.00927786 0.00939798 0.00950679 0.00960429 0.00969047 0.00976534 0.0098289 0.00988114 0.00992207 0.00995169 0.00997062 0.0099795 0.00997832 0.00996709 0.0099458 0.00991445 0.00987305 0.00982159 0.00976088 0.00969175 0.00961418 0.00952818 0.00943376 0.0093309 0.00921961 0.00909989 0.00897257 0.00883846 0.00869757 0.0085499 0.00839545 0.00823421 0.00806619 0.00789139 0.00771074 0.00752517 0.00733467 0.00713926 0.00693891 0.00673365 0.00652347 0.00630836 0.00608964 0.00586862 0.0056453 0.00541968 0.00519176 0.00496154 0.00472902 0.0044942 0.00425912 0.00402579 0.00379424 0.00356445 0.00333642 0.00311016 0.00288566 0.00266293 0.00244491 0.00223454 0.00203181 0.00183674 0.00164931 0.00146954 0.00129741 0.00113293 0.000978492 0.00083647 0.000706868 0.000589686 0.000484925 0.000392584 0.000312663 0.000245162 0.000187702 0.000137904 9.57664e-05 6.12905e-05 3.44759e-05 1.53226e-05 3.83066e-06 0 0 7.62784e-06 3.05114e-05 6.86506e-05 0.000122046 0.000190696 0.000274602 0.000373764 0.000488182 0.000620675 0.000774065 0.000948349 0.00114353 0.00135961 0.00159658 0.00185445 0.00213321 0.0024269 0.00272955 0.00304115 0.00336171 0.00369123 0.0040297 0.00437713 0.00473352 0.00509269 0.00544848 0.00580088 0.0061499 0.00649553 0.00683778 0.00717665 0.00751213 0.00784056 0.00815828 0.0084653 0.00876161 0.00904721 0.0093221 0.00958628 0.00983976 0.010081 0.0103087 0.0105226 0.0107229 0.0109095 0.0110825 0.0112418 0.0113874 0.0115193 0.0116376 0.0117422 0.0118331 0.0119103 0.0119738 0.0120237 0.0120599 0.0120831 0.0120942 0.012093 0.0120797 0.0120542 0.0120166 0.0119667 0.0119047 0.0118314 0.0117479 0.0116543 0.0115503 0.0114362 0.0113118 0.0111772 0.0110324 0.0108784 0.0107161 0.0105457 0.010367 0.0101801 0.00998494 0.00978159 0.00957001 0.00935135 0.00912674 0.00889617 0.00865965 0.00841717 0.00816874 0.00791436 0.00765402 0.00738932 0.00712184 0.0068516 0.00657857 0.00630278 0.00602421 0.00574287 0.00545875 0.00517431 0.00489199 0.0046118 0.00433372 0.00405777 0.00378394 0.00351223 0.00324264 0.00297869 0.0027239 0.00247827 0.00224179 0.00201447 0.00179631 0.00158731 0.00138746 0.00119966 0.00102679 0.000868853 0.000725852 0.000597786 0.000484653 0.000386454 0.00030319 0.00023213 0.000170544 0.000118434 7.57975e-05 4.26361e-05 1.89494e-05 4.73734e-06 0 0 9.2385e-06 3.6954e-05 8.31465e-05 0.000147816 0.000230962 0.000332586 0.000452686 0.000591264 0.000751403 0.00093619 0.00114562 0.0013797 0.00163843 0.00192181 0.00222983 0.0025625 0.00291273 0.00327346 0.00364467 0.00402636 0.00441855 0.00482122 0.00523438 0.00565803 0.00608491 0.00650778 0.00692662 0.00734145 0.00775227 0.00815906 0.00856184 0.0089606 0.00935101 0.00972873 0.0100938 0.0104461 0.0107858 0.0111128 0.0114271 0.0117288 0.012016 0.0122869 0.0125417 0.0127802 0.0130025 0.0132086 0.0133984 0.0135721 0.0137295 0.0138706 0.0139954 0.014104 0.0141963 0.0142723 0.0143321 0.0143756 0.0144036 0.0144172 0.0144162 0.0144008 0.0143708 0.0143262 0.0142672 0.0141937 0.0141068 0.0140076 0.0138963 0.0137729 0.0136372 0.0134893 0.0133292 0.0131569 0.0129737 0.0127806 0.0125777 0.012365 0.0121426 0.0119103 0.0116682 0.0114164 0.011156 0.0108886 0.0106142 0.0103326 0.0100439 0.00974821 0.0094454 0.0091355 0.00882042 0.00850204 0.00818038 0.00785544 0.0075272 0.00719568 0.00686087 0.00652277 0.00618428 0.0058483 0.00551482 0.00518386 0.0048554 0.00452945 0.004206 0.00388506 0.00357077 0.00326724 0.00297449 0.00269251 0.0024213 0.00216086 0.0019112 0.00167231 0.00144763 0.0012406 0.00105123 0.000879503 0.000725434 0.000589017 0.000470253 0.000369141 0.000282624 0.000207642 0.000144196 9.22853e-05 5.19105e-05 2.30713e-05 5.76783e-06 0 0 1.10315e-05 4.41259e-05 9.92834e-05 0.000176504 0.000275787 0.000397133 0.000540543 0.000706015 0.000896852 0.00111636 0.00136453 0.00164136 0.00194687 0.00228104 0.00264387 0.00303537 0.00344726 0.00387126 0.00430736 0.00475556 0.00521588 0.00568829 0.00617282 0.00666945 0.00716978 0.0076654 0.00815633 0.00864255 0.00912408 0.0096009 0.010073 0.0105404 0.0109981 0.0114409 0.011869 0.0122822 0.0126806 0.0130642 0.013433 0.013787 0.014124 0.0144421 0.0147412 0.0150214 0.0152825 0.0155247 0.0157478 0.015952 0.0161372 0.0163032 0.0164502 0.0165781 0.0166869 0.0167766 0.0168472 0.0168987 0.0169322 0.0169486 0.0169479 0.0169301 0.0168953 0.0168435 0.0167746 0.0166886 0.0165869 0.0164708 0.0163405 0.0161957 0.0160367 0.0158632 0.0156755 0.0154734 0.0152583 0.0150318 0.0147937 0.0145441 0.0142829 0.0140103 0.0137261 0.0134304 0.0131248 0.0128109 0.0124886 0.0121581 0.0118192 0.0114721 0.0111166 0.0107528 0.0103829 0.0100092 0.00963167 0.00925027 0.00886503 0.00847595 0.00808302 0.00768625 0.00728902 0.00689471 0.00650332 0.00611486 0.00572931 0.00534669 0.00496699 0.0045902 0.00422113 0.00386455 0.00352047 0.00318888 0.00286979 0.00256319 0.00226909 0.00198748 0.0017224 0.00147791 0.00125399 0.00105064 0.00086787 0.000705676 0.000564058 0.000443016 0.000339184 0.000249197 0.000173053 0.000110754 6.22992e-05 2.76885e-05 6.92213e-06 0 0 1.30068e-05 5.20272e-05 0.000117061 0.000208109 0.00032517 0.000468245 0.000637334 0.000832436 0.00105702 0.00131456 0.00160506 0.00192851 0.00228491 0.00267427 0.00309658 0.00355184 0.00403049 0.00452295 0.00502922 0.00554931 0.0060832 0.00663091 0.00719243 0.00776776 0.00834728 0.00892136 0.00949 0.0100532 0.010611 0.0111633 0.0117102 0.0122516 0.0127818 0.0132949 0.0137909 0.0142697 0.0147315 0.0151762 0.0156038 0.0160143 0.0164053 0.0167743 0.0171213 0.0174464 0.0177496 0.0180307 0.01829 0.0185272 0.0187424 0.0189355 0.0191065 0.0192553 0.019382 0.0194866 0.0195691 0.0196294 0.0196687 0.0196883 0.019688 0.0196679 0.019628 0.0195683 0.0194888 0.0193894 0.0192718 0.0191375 0.0189866 0.018819 0.0186347 0.0184337 0.0182161 0.0179818 0.0177324 0.0174697 0.0171936 0.0169041 0.0166012 0.0162849 0.0159552 0.0156122 0.0152576 0.0148934 0.0145196 0.0141361 0.013743 0.0133403 0.0129279 0.0125059 0.0120769 0.0116434 0.0112054 0.0107631 0.0103163 0.00986503 0.00940934 0.00894921 0.00848854 0.00803123 0.00757729 0.00712672 0.00667951 0.00623566 0.00579518 0.00535806 0.00492979 0.00451584 0.00411622 0.00373092 0.00335994 0.0030033 0.00266097 0.00233297 0.00202399 0.00173871 0.00147713 0.00123926 0.00102509 0.00083463 0.00066787 0.000524815 0.000401811 0.000295208 0.000205006 0.000131204 7.38021e-05 3.28009e-05 8.20023e-06 0 0 1.51645e-05 6.06579e-05 0.00013648 0.000242631 0.000379112 0.000545921 0.000743059 0.000970526 0.00123191 0.00153081 0.00186722 0.00224113 0.00265256 0.0031015 0.00358794 0.0041119 0.00466242 0.00522854 0.00581026 0.0064076 0.00702053 0.00764908 0.00829323 0.00895299 0.00961743 0.0102756 0.0109276 0.0115734 0.0122129 0.0128462 0.0134733 0.0140942 0.0147021 0.0152906 0.0158595 0.0164088 0.0169386 0.0174489 0.0179396 0.0184108 0.0188597 0.0192834 0.019682 0.0200554 0.0204037 0.0207268 0.0210248 0.0212977 0.0215453 0.0217675 0.0219643 0.0221357 0.0222818 0.0224024 0.0224977 0.0225675 0.0226133 0.0226363 0.0226366 0.022614 0.0225687 0.0225006 0.0224098 0.0222961 0.0221615 0.0220077 0.0218347 0.0216426 0.0214312 0.0212007 0.020951 0.0206821 0.0203959 0.0200943 0.0197774 0.019445 0.0190973 0.0187341 0.0183556 0.0179617 0.0175545 0.0171363 0.016707 0.0162667 0.0158153 0.0153529 0.0148794 0.0143948 0.0139022 0.0134045 0.0129017 0.0123939 0.0118809 0.0113629 0.0108398 0.0103116 0.00978283 0.00925786 0.00873673 0.00821944 0.00770599 0.00719636 0.00669058 0.00618863 0.00569673 0.0052211 0.00476172 0.00431861 0.00389176 0.00348118 0.00308685 0.00270879 0.00235238 0.00202301 0.00172067 0.00144537 0.00119711 0.000975879 0.000781689 0.000614537 0.000470505 0.000345677 0.000240053 0.000153634 8.64192e-05 3.84085e-05 9.60213e-06 0 0 1.75045e-05 7.00178e-05 0.00015754 0.000280071 0.000437612 0.000630161 0.000857719 0.00112029 0.00142152 0.0017651 0.002151 0.00257924 0.00304982 0.00356273 0.00411797 0.00471555 0.00534304 0.00598801 0.00665048 0.00733043 0.00802787 0.00874279 0.00947521 0.0102251 0.0109802 0.0117283 0.0124692 0.0132031 0.01393 0.0146497 0.0153624 0.0160681 0.0167591 0.017428 0.0180747 0.0186994 0.0193019 0.0198822 0.0204404 0.0209765 0.0214873 0.0219695 0.0224232 0.0228483 0.0232449 0.0236129 0.0239525 0.0242634 0.0245457 0.0247991 0.0250237 0.0252193 0.0253861 0.025524 0.025633 0.0257132 0.0257659 0.0257928 0.0257936 0.0257685 0.0257175 0.0256406 0.0255377 0.0254088 0.025256 0.0250814 0.0248849 0.0246666 0.0244263 0.0241642 0.0238802 0.0235744 0.0232489 0.0229058 0.0225451 0.022167 0.0217712 0.021358 0.0209272 0.0204789 0.0200155 0.0195395 0.019051 0.0185498 0.0180361 0.0175099 0.016971 0.0164196 0.015859 0.0152926 0.0147205 0.0141426 0.013559 0.0129696 0.0123744 0.0117735 0.0111719 0.0105746 0.00998164 0.00939303 0.00880875 0.0082288 0.00765319 0.00708192 0.00652197 0.00598033 0.005457 0.00495197 0.00446525 0.00399684 0.00354673 0.00311494 0.00270758 0.0023308 0.00198459 0.00166896 0.0013839 0.00112942 0.000905515 0.000712182 0.000545264 0.000400602 0.000278196 0.000178046 0.000100151 4.45114e-05 1.11278e-05 0 0 1.99796e-05 7.99184e-05 0.000179816 0.000319674 0.00049949 0.000719265 0.000979 0.00127869 0.00162204 0.00201272 0.00245075 0.00293611 0.00346882 0.00404886 0.00467625 0.00535098 0.00605908 0.00678659 0.00753352 0.00829986 0.00908561 0.00989076 0.0107153 0.0115593 0.012409 0.0132508 0.0140846 0.0149104 0.0157284 0.0165383 0.0173403 0.0181343 0.018912 0.0196648 0.0203928 0.0210959 0.0217743 0.0224277 0.0230564 0.0236602 0.0242356 0.0247789 0.0252901 0.0257692 0.0262163 0.0266313 0.0270142 0.0273651 0.0276837 0.0279697 0.0282233 0.0284443 0.0286329 0.0287889 0.0289124 0.0290034 0.0290635 0.0290944 0.029096 0.0290684 0.0290115 0.0289253 0.0288099 0.0286653 0.0284937 0.0282974 0.0280764 0.0278307 0.0275603 0.0272653 0.0269456 0.0266012 0.0262346 0.0258482 0.025442 0.025016 0.0245702 0.0241046 0.0236193 0.0231141 0.022592 0.0220557 0.0215053 0.0209407 0.0203619 0.019769 0.0191619 0.0185406 0.017909 0.017271 0.0166264 0.0159755 0.015318 0.0146541 0.0139837 0.0133068 0.0126291 0.0119563 0.0112883 0.0106252 0.0099669 0.00931347 0.00866488 0.00802115 0.00739004 0.00677935 0.00618907 0.0056192 0.00506974 0.0045407 0.00403207 0.00354385 0.00308296 0.00265633 0.00226396 0.00190583 0.00158197 0.00129236 0.001037 0.000815898 0.000624672 0.000458942 0.00031871 0.000203974 0.000114736 5.09936e-05 1.27484e-05 0 0 2.25427e-05 9.01707e-05 0.000202884 0.000360683 0.000563567 0.000811536 0.00110459 0.00144273 0.00182964 0.00226898 0.00276077 0.00330501 0.00390169 0.00455081 0.00525237 0.00600638 0.00679727 0.0076095 0.00844305 0.00929794 0.0101742 0.0110717 0.0119906 0.0129308 0.0138772 0.0148148 0.0157435 0.0166633 0.0175743 0.0184764 0.0193696 0.020254 0.0211201 0.0219586 0.0227696 0.023553 0.0243088 0.025037 0.0257377 0.0264107 0.0270522 0.0276579 0.028228 0.0287624 0.0292611 0.0297242 0.0301516 0.0305433 0.0308991 0.0312186 0.031502 0.0317491 0.0319599 0.0321346 0.0322731 0.0323753 0.0324431 0.0324782 0.0324807 0.0324506 0.0323878 0.0322923 0.0321642 0.0320035 0.0318127 0.0315943 0.0313483 0.0310748 0.0307737 0.0304451 0.0300889 0.0297051 0.0292965 0.0288658 0.028413 0.0279381 0.0274412 0.0269221 0.026381 0.0258177 0.0252356 0.0246376 0.0240239 0.0233943 0.022749 0.0220879 0.021411 0.0207183 0.0200142 0.0193028 0.0185842 0.0178585 0.0171255 0.0163853 0.015638 0.0148834 0.0141279 0.0133778 0.012633 0.0118936 0.0111596 0.0104309 0.00970752 0.00898953 0.00828548 0.00760396 0.00694497 0.00630851 0.00569458 0.00510318 0.00453431 0.00398797 0.0034719 0.00299384 0.0025538 0.00215178 0.00178777 0.00146177 0.00117379 0.00092383 0.000707307 0.000519654 0.000360871 0.000230957 0.000129914 5.77394e-05 1.44348e-05 0 0 2.51937e-05 0.000100775 0.000226743 0.000403099 0.000629842 0.000906973 0.00123449 0.0016124 0.00204432 0.00253388 0.00308108 0.00368593 0.00434842 0.00506856 0.00584633 0.00668175 0.00755761 0.00845672 0.00937907 0.0103247 0.0112935 0.0122856 0.0133009 0.0143395 0.0153848 0.0164203 0.0174459 0.0184618 0.0194678 0.020464 0.0214504 0.022427 0.0233834 0.0243095 0.0252052 0.0260705 0.0269055 0.0277101 0.0284843 0.0292281 0.029937 0.0306066 0.0312369 0.0318278 0.0323794 0.0328916 0.0333645 0.0337981 0.034192 0.0345458 0.0348597 0.0351335 0.0353674 0.0355612 0.035715 0.0358288 0.0359045 0.0359442 0.0359477 0.0359151 0.0358463 0.0357415 0.0356006 0.0354235 0.0352131 0.0349722 0.0347008 0.0343989 0.0340665 0.0337035 0.03331 0.032886 0.0324346 0.0319586 0.0314583 0.0309335 0.0303842 0.0298105 0.0292124 0.0285897 0.0279462 0.0272852 0.0266068 0.0259109 0.0251975 0.0244667 0.0237185 0.0229528 0.0221745 0.0213881 0.0205939 0.0197917 0.0189815 0.0181634 0.0173374 0.0165034 0.0156683 0.0148391 0.0140158 0.0131984 0.0123868 0.011581 0.0107811 0.00998707 0.0092083 0.00845418 0.00772472 0.00701992 0.00633977 0.00568429 0.00505347 0.0044473 0.00387439 0.00334334 0.00285414 0.0024068 0.00200131 0.00163768 0.0013159 0.00103598 0.000793172 0.000582738 0.000404679 0.000258995 0.000145685 6.47487e-05 1.61872e-05 0 0 2.79327e-05 0.000111731 0.000251394 0.000446922 0.000698316 0.00100558 0.0013687 0.00178769 0.00226608 0.00280741 0.00341168 0.00407889 0.00480903 0.00560211 0.00645814 0.0073771 0.0083401 0.00932826 0.0103416 0.0113801 0.0124437 0.0135325 0.0146464 0.0157855 0.0169318 0.0180672 0.0191919 0.0203058 0.0214089 0.0225011 0.0235826 0.0246533 0.025702 0.0267174 0.0276996 0.0286486 0.0295643 0.0304469 0.0312962 0.0321122 0.0328901 0.033625 0.0343167 0.0349654 0.035571 0.0361335 0.036653 0.0371294 0.0375623 0.0379513 0.0382964 0.0385977 0.0388551 0.0390686 0.0392382 0.039364 0.0394479 0.0394922 0.0394969 0.0394619 0.0393872 0.0392729 0.0391189 0.0389252 0.038695 0.0384312 0.0381338 0.0378029 0.0374385 0.0370406 0.0366091 0.0361441 0.0356488 0.0351267 0.0345778 0.034002 0.0333993 0.0327698 0.0321134 0.0314301 0.0307239 0.0299985 0.0292539 0.0284902 0.0277074 0.0269054 0.0260843 0.0252441 0.0243899 0.023527 0.0226553 0.021775 0.020886 0.0199882 0.0190818 0.0181666 0.0172503 0.0163403 0.0154367 0.0145394 0.0136484 0.0127639 0.0118856 0.0110138 0.0101585 0.00932999 0.0085283 0.0077534 0.00700531 0.00628402 0.00558953 0.00492184 0.00429044 0.00370482 0.00316497 0.00267089 0.00222259 0.00182007 0.00146332 0.00115235 0.000882264 0.000648194 0.000450135 0.000288086 0.000162049 7.20216e-05 1.80054e-05 0 0 3.07596e-05 0.000123038 0.000276836 0.000492153 0.000768989 0.00110734 0.00150722 0.00196861 0.00249493 0.00308958 0.00375256 0.00448387 0.00528351 0.00615148 0.00708778 0.00809241 0.00914474 0.0102241 0.0113306 0.0124641 0.0136247 0.0148123 0.016027 0.0172687 0.0185181 0.0197557 0.0209814 0.0221954 0.0233975 0.0245878 0.0257663 0.026933 0.0280757 0.0291823 0.0302528 0.0312871 0.0322853 0.0332474 0.0341734 0.0350632 0.0359115 0.036713 0.0374676 0.0381752 0.0388361 0.03945 0.0400171 0.0405372 0.0410101 0.0414351 0.0418123 0.0421416 0.0424231 0.0426568 0.0428427 0.0429808 0.0430733 0.0431225 0.0431284 0.043091 0.0430104 0.0428864 0.0427192 0.0425087 0.0422582 0.0419711 0.0416473 0.041287 0.04089 0.0404563 0.0399861 0.0394792 0.0389393 0.0383701 0.0377715 0.0371436 0.0364865 0.0357999 0.0350841 0.0343389 0.0335686 0.0327774 0.0319654 0.0311325 0.0302787 0.029404 0.0285084 0.027592 0.0266604 0.0257193 0.0247687 0.0238086 0.022839 0.0218599 0.0208713 0.0198732 0.0188738 0.0178813 0.0168956 0.0159167 0.0149447 0.0139795 0.0130211 0.0120696 0.011136 0.0102314 0.00935571 0.00850898 0.0076912 0.00690238 0.00614251 0.0054116 0.00472005 0.00407828 0.00348628 0.00294406 0.00245161 0.00200894 0.00161605 0.00127293 0.000974585 0.000716022 0.000497237 0.000318232 0.000179005 7.9558e-05 1.98895e-05 0 0 3.36744e-05 0.000134698 0.00030307 0.00053879 0.00084186 0.00121228 0.00165005 0.00215516 0.00273086 0.00338038 0.00410372 0.00490088 0.00577185 0.00671665 0.00773527 0.0088277 0.00997153 0.0111443 0.0123461 0.0135768 0.0148364 0.0161251 0.0174427 0.0187892 0.0201438 0.0214856 0.0228145 0.0241305 0.025