<?xml version="1.0"?> 
<VTKFile type="StructuredGrid" version="0.1"> 
<StructuredGrid WholeExtent="0 128 0 128 0 0"> 
<Piece Extent="0 128 0 128 0 0"> 
<PointData>
<DataArray type="Float32" Name="u" format="ascii" NumberOfComponents="1"> 
0 0 0 0 0 0 0 0 0 0 0 0 0 0 0 0 0 0 0 0 0 0 0 0 0 0 0 0 0 0 0 0 0 0 0 0 0 0 0 0 0 0 0 0 0 0 0 0 0 0 0 0 0 0 0 0 0 0 0 0 0 0 0 0 0 0 0 0 0 0 0 0 0 0 0 0 0 0 0 0 0 0 0 0 0 0 0 0 0 0 0 0 0 0 0 0 0 0 0 0 0 0 0 0 0 0 0 0 0 0 0 0 0 0 0 0 0 0 0 0 0 0 0 0 0 0 0 0 0 0 4.10843e-08 1.64337e-07 3.69759e-07 6.57349e-07 1.02711e-06 1.47904e-06 2.01313e-06 2.6294e-06 3.36283e-06 4.24844e-06 5.28622e-06 6.47616e-06 7.81828e-06 9.31257e-06 1.0959e-05 1.27577e-05 1.46598e-05 1.66166e-05 1.86283e-05 2.06947e-05 2.28158e-05 2.49918e-05 2.72225e-05 2.9508e-05 3.17862e-05 3.3995e-05 3.61346e-05 3.82049e-05 4.02058e-05 4.21374e-05 4.39997e-05 4.57927e-05 4.74873e-05 4.90545e-05 5.04942e-05 5.18064e-05 5.29913e-05 5.40486e-05 5.49785e-05 5.5781e-05 5.64669e-05 5.70472e-05 5.75219e-05 5.7891e-05 5.81545e-05 5.83124e-05 5.83646e-05 5.83112e-05 5.81874e-05 5.80283e-05 5.78339e-05 5.76042e-05 5.73392e-05 5.70389e-05 5.67033e-05 5.63325e-05 5.59565e-05 5.56057e-05 5.52799e-05 5.49794e-05 5.47039e-05 5.44536e-05 5.42284e-05 5.40283e-05 5.38555e-05 5.37121e-05 5.35981e-05 5.35136e-05 5.34585e-05 5.34329e-05 5.34366e-05 5.34698e-05 5.35067e-05 5.35214e-05 5.35141e-05 5.34847e-05 5.34332e-05 5.33595e-05 5.32638e-05 5.3146e-05 5.29751e-05 5.27199e-05 5.23806e-05 5.1957e-05 5.14493e-05 5.08574e-05 5.01812e-05 4.94209e-05 4.85672e-05 4.7611e-05 4.65523e-05 4.53911e-05 4.41274e-05 4.27612e-05 4.12925e-05 3.97213e-05 3.80734e-05 3.63748e-05 3.46254e-05 3.28252e-05 3.09743e-05 2.90726e-05 2.71201e-05 2.51168e-05 2.31155e-05 2.1169e-05 1.92772e-05 1.74401e-05 1.56577e-05 1.39301e-05 1.22572e-05 1.0639e-05 9.11421e-06 7.72146e-06 6.46075e-06 5.33209e-06 4.33547e-06 3.4709e-06 2.73837e-06 2.13788e-06 1.63681e-06 1.20255e-06 8.35107e-07 5.34469e-07 3.00639e-07 1.33617e-07 3.34043e-08 0 0 1.64337e-07 6.57349e-07 1.47904e-06 2.6294e-06 4.10843e-06 5.91614e-06 8.05253e-06 1.05176e-05 1.34513e-05 1.69938e-05 2.11449e-05 2.59047e-05 3.12731e-05 3.72503e-05 4.38361e-05 5.10307e-05 5.86391e-05 6.64665e-05 7.45131e-05 8.27787e-05 9.12634e-05 9.99671e-05 0.00010889 0.000118032 0.000127145 0.00013598 0.000144538 0.000152819 0.000160823 0.00016855 0.000175999 0.000183171 0.000189949 0.000196218 0.000201977 0.000207226 0.000211965 0.000216194 0.000219914 0.000223124 0.000225868 0.000228189 0.000230088 0.000231564 0.000232618 0.000233249 0.000233458 0.000233245 0.00023275 0.000232113 0.000231336 0.000230417 0.000229357 0.000228156 0.000226813 0.00022533 0.000223826 0.000222423 0.00022112 0.000219917 0.000218816 0.000217814 0.000216913 0.000216113 0.000215422 0.000214848 0.000214393 0.000214055 0.000213834 0.000213731 0.000213747 0.000213879 0.000214027 0.000214086 0.000214056 0.000213939 0.000213733 0.000213438 0.000213055 0.000212584 0.0002119 0.00021088 0.000209522 0.000207828 0.000205797 0.000203429 0.000200725 0.000197684 0.000194269 0.000190444 0.000186209 0.000181565 0.00017651 0.000171045 0.00016517 0.000158885 0.000152294 0.000145499 0.000138502 0.000131301 0.000123897 0.00011629 0.00010848 0.000100467 9.24622e-05 8.4676e-05 7.71087e-05 6.97603e-05 6.26308e-05 5.57203e-05 4.90287e-05 4.2556e-05 3.64568e-05 3.08858e-05 2.5843e-05 2.13284e-05 1.73419e-05 1.38836e-05 1.09535e-05 8.5515e-06 6.54724e-06 4.81022e-06 3.34043e-06 2.13788e-06 1.20255e-06 5.34469e-07 1.33617e-07 0 0 3.69759e-07 1.47904e-06 3.32783e-06 5.91614e-06 9.24398e-06 1.33113e-05 1.81182e-05 2.36646e-05 3.02655e-05 3.82359e-05 4.75759e-05 5.82855e-05 7.03645e-05 8.38131e-05 9.86313e-05 0.000114819 0.000131938 0.00014955 0.000167654 0.000186252 0.000205343 0.000224926 0.000245002 0.000265572 0.000286075 0.000305955 0.000325211 0.000343844 0.000361852 0.000379237 0.000395998 0.000412134 0.000427386 0.00044149 0.000454448 0.000466258 0.000476921 0.000486438 0.000494807 0.000502029 0.000508202 0.000513425 0.000517697 0.000521019 0.00052339 0.000524811 0.000525281 0.000524801 0.000523687 0.000522255 0.000520505 0.000518438 0.000516053 0.00051335 0.00051033 0.000506992 0.000503608 0.000500451 0.00049752 0.000494814 0.000492335 0.000490082 0.000488055 0.000486254 0.000484699 0.000483409 0.000482383 0.000481623 0.000481127 0.000480896 0.00048093 0.000481228 0.00048156 0.000481693 0.000481627 0.000481362 0.000480898 0.000480236 0.000479374 0.000478314 0.000476776 0.000474479 0.000471425 0.000467613 0.000463044 0.000457716 0.000451631 0.000444788 0.000437105 0.000428499 0.000418971 0.00040852 0.000397147 0.000384851 0.000371633 0.000357492 0.000342661 0.000327373 0.000311629 0.000295427 0.000278769 0.000261653 0.000244081 0.000226051 0.00020804 0.000190521 0.000173495 0.000156961 0.000140919 0.000125371 0.000110315 9.5751e-05 8.20279e-05 6.94931e-05 5.81468e-05 4.79888e-05 3.90193e-05 3.12381e-05 2.46453e-05 1.92409e-05 1.47313e-05 1.0823e-05 7.51597e-06 4.81022e-06 2.70575e-06 1.20255e-06 3.00639e-07 0 0 6.57349e-07 2.6294e-06 5.91614e-06 1.05176e-05 1.64337e-05 2.36646e-05 3.22101e-05 4.20704e-05 5.38053e-05 6.7975e-05 8.45794e-05 0.000103619 0.000125093 0.000149001 0.000175345 0.000204123 0.000234556 0.000265866 0.000298052 0.000331115 0.000365053 0.000399868 0.00043556 0.000472127 0.000508578 0.000543921 0.000578154 0.000611278 0.000643293 0.000674199 0.000703996 0.000732683 0.000759797 0.000784872 0.000807907 0.000828903 0.00084786 0.000864778 0.000879656 0.000892496 0.00090347 0.000912755 0.000920351 0.000926256 0.000930472 0.000932998 0.000933834 0.00093298 0.000930999 0.000928453 0.000925343 0.000921667 0.000917428 0.000912623 0.000907254 0.000901319 0.000895304 0.000889691 0.000884479 0.00087967 0.000875262 0.000871257 0.000867654 0.000864452 0.000861688 0.000859394 0.00085757 0.000856218 0.000855337 0.000854926 0.000854986 0.000855517 0.000856107 0.000856343 0.000856226 0.000855755 0.000854931 0.000853753 0.000852221 0.000850336 0.000847601 0.000843519 0.000838089 0.000831312 0.000823189 0.000813718 0.0008029 0.000790734 0.000777075 0.000761777 0.000744837 0.000726258 0.000706039 0.00068418 0.00066068 0.000635541 0.000609175 0.000581997 0.000554007 0.000525204 0.000495589 0.000465161 0.000433921 0.000401869 0.000369849 0.000338704 0.000308435 0.000279041 0.000250523 0.000222881 0.000196115 0.000170224 0.000145827 0.000123543 0.000103372 8.53135e-05 6.93676e-05 5.55344e-05 4.38138e-05 3.4206e-05 2.6189e-05 1.92409e-05 1.33617e-05 8.5515e-06 4.81022e-06 2.13788e-06 5.34469e-07 0 0 1.02711e-06 4.10843e-06 9.24398e-06 1.64337e-05 2.56777e-05 3.69759e-05 5.03283e-05 6.57349e-05 8.40708e-05 0.000106211 0.000132155 0.000161904 0.000195457 0.000232814 0.000273976 0.000318942 0.000366494 0.000415416 0.000465707 0.000517367 0.000570396 0.000624795 0.000680562 0.000737699 0.000794654 0.000849876 0.000903365 0.000955121 0.00100514 0.00105344 0.00109999 0.00114482 0.00118718 0.00122636 0.00126235 0.00129516 0.00132478 0.00135122 0.00137446 0.00139452 0.00141167 0.00142618 0.00143805 0.00144728 0.00145386 0.00145781 0.00145912 0.00145778 0.00145469 0.00145071 0.00144585 0.00144011 0.00143348 0.00142597 0.00141758 0.00140831 0.00139891 0.00139014 0.001382 0.00137448 0.0013676 0.00136134 0.00135571 0.00135071 0.00134639 0.0013428 0.00133995 0.00133784 0.00133646 0.00133582 0.00133592 0.00133675 0.00133767 0.00133804 0.00133785 0.00133712 0.00133583 0.00133399 0.0013316 0.00132865 0.00132438 0.001318 0.00130951 0.00129893 0.00128623 0.00127143 0.00125453 0.00123552 0.00121418 0.00119028 0.00116381 0.00113478 0.00110319 0.00106903 0.00103231 0.000993033 0.000951836 0.00090937 0.000865635 0.000820631 0.000774357 0.000726814 0.000678002 0.000627921 0.000577889 0.000529225 0.000481929 0.000436002 0.000391443 0.000348252 0.000306429 0.000265975 0.000227855 0.000193036 0.000161519 0.000133302 0.000108387 8.67725e-05 6.84591e-05 5.34469e-05 4.09203e-05 3.00639e-05 2.08777e-05 1.33617e-05 7.51597e-06 3.34043e-06 8.35107e-07 0 0 1.47904e-06 5.91614e-06 1.33113e-05 2.36646e-05 3.69759e-05 5.32453e-05 7.24728e-05 9.46583e-05 0.000121062 0.000152944 0.000190304 0.000233142 0.000281458 0.000335253 0.000394525 0.000459276 0.000527752 0.000598199 0.000670618 0.000745008 0.00082137 0.000899704 0.000980009 0.00106229 0.0011443 0.00122382 0.00130085 0.00137537 0.00144741 0.00151695 0.00158399 0.00164854 0.00170954 0.00176596 0.00181779 0.00186503 0.00190769 0.00194575 0.00197923 0.00200812 0.00203281 0.0020537 0.00207079 0.00208408 0.00209356 0.00209924 0.00210113 0.0020992 0.00209475 0.00208902 0.00208202 0.00207375 0.00206421 0.0020534 0.00204132 0.00202797 0.00201443 0.0020018 0.00199008 0.00197926 0.00196934 0.00196033 0.00195222 0.00194502 0.0019388 0.00193364 0.00192953 0.00192649 0.00192451 0.00192358 0.00192372 0.00192491 0.00192624 0.00192677 0.00192651 0.00192545 0.00192359 0.00192094 0.0019175 0.00191326 0.0019071 0.00189792 0.0018857 0.00187045 0.00185217 0.00183086 0.00180652 0.00177915 0.00174842 0.001714 0.00167588 0.00163408 0.00158859 0.0015394 0.00148653 0.00142997 0.00137064 0.00130949 0.00124651 0.00118171 0.00111507 0.00104661 0.000976323 0.000904206 0.00083216 0.000762084 0.000693978 0.000627843 0.000563678 0.000501483 0.000441258 0.000383004 0.000328111 0.000277973 0.000232587 0.000191955 0.000156077 0.000124952 9.85811e-05 7.69635e-05 5.89252e-05 4.3292e-05 3.00639e-05 1.92409e-05 1.0823e-05 4.81022e-06 1.20255e-06 0 0 2.01313e-06 8.05253e-06 1.81182e-05 3.22101e-05 5.03283e-05 7.24728e-05 9.86435e-05 0.00012884 0.000164779 0.000208173 0.000259025 0.000317332 0.000383096 0.000456316 0.000536993 0.000625126 0.000718329 0.000814215 0.000912785 0.00101404 0.00111798 0.0012246 0.0013339 0.00144589 0.00155752 0.00166576 0.0017706 0.00187204 0.00197008 0.00206473 0.00215599 0.00224384 0.00232688 0.00240367 0.00247422 0.00253852 0.00259657 0.00264838 0.00269395 0.00273327 0.00276688 0.00279531 0.00281857 0.00283666 0.00284957 0.00285731 0.00285987 0.00285725 0.00285118 0.00284339 0.00283386 0.00282261 0.00280962 0.00279491 0.00277846 0.00276029 0.00274187 0.00272468 0.00270872 0.00269399 0.00268049 0.00266822 0.00265719 0.00264739 0.00263892 0.00263189 0.00262631 0.00262217 0.00261947 0.00261821 0.0026184 0.00262002 0.00262183 0.00262255 0.00262219 0.00262075 0.00261823 0.00261462 0.00260993 0.00260416 0.00259578 0.00258328 0.00256665 0.00254589 0.00252102 0.00249201 0.00245888 0.00242162 0.00237979 0.00233294 0.00228106 0.00222417 0.00216224 0.0020953 0.00202333 0.00194634 0.0018656 0.00178237 0.00169665 0.00160844 0.00151774 0.00142456 0.00132888 0.00123072 0.00113266 0.00103728 0.000944581 0.000854564 0.000767228 0.000682574 0.000600601 0.000521311 0.000446596 0.000378351 0.000316577 0.000261273 0.000212438 0.000170074 0.00013418 0.000104756 8.02037e-05 5.89252e-05 4.09203e-05 2.6189e-05 1.47313e-05 6.54724e-06 1.63681e-06 0 0 2.6294e-06 1.05176e-05 2.36646e-05 4.20704e-05 6.57349e-05 9.46583e-05 0.00012884 0.000168281 0.000215221 0.0002719 0.000338318 0.000414474 0.00050037 0.000596005 0.000701378 0.000816491 0.000938225 0.00106346 0.00119221 0.00132446 0.00146021 0.00159947 0.00174224 0.00188851 0.00203431 0.00217568 0.00231261 0.00244511 0.00257317 0.00269679 0.00281598 0.00293073 0.00303919 0.00313949 0.00323163 0.00331561 0.00339144 0.00345911 0.00351863 0.00356998 0.00361388 0.00365102 0.0036814 0.00370502 0.00372189 0.00373199 0.00373533 0.00373192 0.003724 0.00371381 0.00370137 0.00368667 0.00366971 0.00365049 0.00362901 0.00360528 0.00358122 0.00355876 0.00353792 0.00351868 0.00350105 0.00348503 0.00347061 0.00345781 0.00344675 0.00343757 0.00343028 0.00342487 0.00342135 0.0034197 0.00341994 0.00342207 0.00342443 0.00342537 0.0034249 0.00342302 0.00341972 0.00341501 0.00340889 0.00340135 0.0033904 0.00337407 0.00335236 0.00332525 0.00329275 0.00325487 0.0032116 0.00316294 0.0031083 0.00304711 0.00297935 0.00290503 0.00282416 0.00273672 0.00264272 0.00254216 0.0024367 0.00232799 0.00221603 0.00210082 0.00198235 0.00186064 0.00173569 0.00160748 0.00147939 0.00135482 0.00123374 0.00111616 0.00100209 0.000891525 0.000784459 0.000680896 0.000583309 0.000494173 0.000413488 0.000341254 0.00027747 0.000222137 0.000175255 0.000136824 0.000104756 7.69635e-05 5.34469e-05 3.4206e-05 1.92409e-05 8.5515e-06 2.13788e-06 0 0 3.39432e-06 1.35773e-05 3.05488e-05 5.43091e-05 8.48579e-05 0.000122195 0.000166322 0.000217236 0.000277712 0.000350523 0.000435668 0.000533147 0.00064296 0.000765108 0.00089959 0.00104641 0.00120159 0.00136119 0.00152519 0.00169359 0.00186641 0.00204363 0.00222526 0.00241129 0.00259672 0.00277652 0.00295071 0.00311928 0.00328223 0.00343955 0.00359126 0.00373735 0.00387547 0.00400326 0.00412074 0.00422789 0.00432473 0.00441124 0.00448743 0.0045533 0.00460973 0.00465758 0.00469687 0.0047276 0.00474975 0.00476334 0.00476836 0.00476481 0.00475553 0.00474334 0.00472826 0.00471028 0.00468939 0.00466561 0.00463893 0.00460934 0.0045793 0.00455122 0.00452512 0.00450099 0.00447884 0.00445866 0.00444045 0.00442421 0.00441012 0.00439836 0.00438892 0.0043818 0.004377 0.00437453 0.00437438 0.00437655 0.00437898 0.00437957 0.00437834 0.00437528 0.0043704 0.00436369 0.00435515 0.00434478 0.00433009 0.00430857 0.00428022 0.00424505 0.00420304 0.00415421 0.00409855 0.00403606 0.00396601 0.00388767 0.00380103 0.00370609 0.00360285 0.00349133 0.0033715 0.00324338 0.00310905 0.00297061 0.00282806 0.0026814 0.00253062 0.00237573 0.00221672 0.00205361 0.00189064 0.00173208 0.00157794 0.0014282 0.00128288 0.00114197 0.00100547 0.000873378 0.000748847 0.000635023 0.000531905 0.000439494 0.000357791 0.000286794 0.000226503 0.00017692 0.000135454 9.95175e-05 6.91094e-05 4.423e-05 2.48794e-05 1.10575e-05 2.76437e-06 0 0 4.37437e-06 1.74975e-05 3.93694e-05 6.999e-05 0.000109359 0.000157477 0.000214344 0.00027996 0.000357575 0.000450442 0.000558559 0.000681927 0.000820546 0.000974417 0.00114354 0.00132791 0.00152259 0.00172262 0.00192802 0.00213877 0.00235488 0.00257636 0.00280319 0.00303538 0.00326677 0.00349121 0.00370869 0.00391923 0.00412281 0.00431943 0.00450911 0.00469183 0.00486471 0.00502485 0.00517226 0.00530693 0.00542886 0.00553806 0.00563453 0.00571826 0.00579032 0.00585176 0.00590259 0.0059428 0.0059724 0.00599139 0.00599976 0.00599752 0.00598812 0.00597503 0.00595825 0.00593777 0.00591359 0.00588573 0.00585416 0.00581891 0.00578293 0.00574923 0.00571778 0.0056886 0.00566168 0.00563703 0.00561464 0.00559451 0.00557687 0.00556192 0.00554968 0.00554014 0.0055333 0.00552916 0.00552772 0.00552898 0.00553041 0.00552948 0.0055262 0.00552056 0.00551256 0.00550221 0.0054895 0.00547443 0.00545395 0.00542503 0.00538765 0.00534182 0.00528754 0.0052248 0.00515361 0.00507398 0.004985 0.0048858 0.00477638 0.00465674 0.00452687 0.00438678 0.00423647 0.00407594 0.00390776 0.00373449 0.00355615 0.00337273 0.00318423 0.00299066 0.002792 0.00258826 0.00238468 0.00218648 0.00199367 0.00180624 0.0016242 0.00144754 0.00127627 0.00111038 0.000953805 0.000810484 0.000680411 0.000563589 0.000460016 0.000369693 0.00029262 0.000228796 0.000175172 0.000128698 8.93734e-05 5.7199e-05 3.21744e-05 1.42997e-05 3.57493e-06 0 0 5.56957e-06 2.22783e-05 5.01261e-05 8.91131e-05 0.000139239 0.000200504 0.000272909 0.000356452 0.00045481 0.000571656 0.000706991 0.000860815 0.00103313 0.00122393 0.00143322 0.001661 0.0019012 0.00214777 0.0024007 0.00265999 0.00292564 0.00319765 0.00347603 0.00376077 0.00404447 0.00431973 0.00458656 0.00484496 0.00509491 0.00533644 0.00556952 0.00579418 0.00600691 0.00620425 0.00638618 0.00655272 0.00670385 0.00683959 0.00695993 0.00706486 0.00715565 0.00723354 0.00729854 0.00735063 0.00738983 0.00741613 0.00742954 0.00743004 0.00742178 0.00740887 0.00739133 0.00736914 0.00734231 0.00731083 0.00727472 0.00723396 0.00719213 0.00715277 0.00711589 0.0070815 0.00704958 0.00702014 0.00699319 0.00696871 0.00694698 0.00692827 0.00691257 0.00689989 0.00689023 0.00688358 0.00687995 0.00687933 0.00687872 0.00687511 0.00686848 0.00685885 0.00684622 0.00683057 0.00681193 0.00679027 0.00676199 0.00672344 0.00667463 0.00661556 0.00654623 0.00646664 0.00637678 0.00627667 0.00616526 0.0060415 0.00590541 0.00575698 0.00559621 0.00542309 0.00523764 0.00503985 0.00483281 0.00461963 0.0044003 0.00417482 0.0039432 0.00370543 0.00346151 0.00321144 0.00296151 0.00271801 0.00248093 0.00225027 0.00202604 0.00180824 0.00159685 0.00139189 0.00119818 0.00102056 0.000859007 0.000713538 0.000584147 0.000470836 0.000373604 0.000292452 0.000223908 0.000164504 0.000114239 7.31129e-05 4.1126e-05 1.82782e-05 4.56956e-06 0 0 6.9799e-06 2.79196e-05 6.28191e-05 0.000111678 0.000174498 0.000251277 0.000342015 0.000446714 0.000569416 0.000714167 0.000880965 0.00106981 0.00128071 0.00151365 0.00176864 0.00204568 0.00233745 0.00263663 0.00294323 0.00325725 0.00357868 0.00390753 0.00424379 0.00458746 0.00492982 0.0052621 0.00558432 0.00589646 0.00619855 0.00649056 0.00677251 0.00704439 0.00730208 0.00754145 0.00776251 0.00796526 0.00814969 0.00831581 0.00846362 0.00859311 0.00870574 0.00880294 0.00888473 0.0089511 0.00900205 0.00903758 0.00905769 0.00906239 0.0090565 0.00904487 0.0090275 0.00900439 0.00897554 0.00894094 0.0089006 0.00885452 0.00880687 0.00876185 0.00871946 0.00867968 0.00864253 0.008608 0.00857609 0.00854681 0.00852047 0.0084974 0.0084776 0.00846106 0.0084478 0.00843781 0.00843108 0.00842763 0.00842392 0.00841644 0.00840519 0.00839016 0.00837136 0.00834879 0.00832244 0.00829232 0.00825419 0.00820381 0.00814117 0.00806627 0.00797912 0.00787972 0.00776806 0.00764415 0.00750679 0.00735478 0.00718812 0.00700681 0.00681086 0.00660026 0.00637501 0.00613511 0.00588422 0.00562602 0.00536051 0.00508767 0.00480751 0.00452004 0.00422525 0.00392314 0.00362114 0.00332667 0.00303972 0.0027603 0.00248842 0.00222406 0.00196723 0.00171792 0.00148198 0.00126524 0.00106769 0.00088934 0.000730183 0.000590222 0.000469457 0.000367887 0.000281664 0.000206937 0.000143706 9.19718e-05 5.17341e-05 2.2993e-05 5.74824e-06 0 0 8.60538e-06 3.44215e-05 7.74484e-05 0.000137686 0.000215134 0.000309794 0.000421663 0.000550744 0.000701394 0.000877973 0.00108048 0.00130892 0.00156328 0.00184357 0.00214979 0.00248194 0.00283131 0.00318921 0.00355562 0.00393055 0.004314 0.00470597 0.00510646 0.00551547 0.00592281 0.00631831 0.00670196 0.00707375 0.0074337 0.00778181 0.00811806 0.00844246 0.00875021 0.00903647 0.00930125 0.00954456 0.00976639 0.00996674 0.0101456 0.010303 0.0104406 0.01056 0.0106612 0.0107442 0.0108091 0.0108557 0.0108842 0.0108946 0.0108923 0.010883 0.0108668 0.0108435 0.0108133 0.010776 0.0107318 0.0106806 0.0106272 0.0105765 0.0105285 0.0104832 0.0104405 0.0104006 0.0103634 0.0103288 0.0102973 0.0102693 0.0102447 0.0102236 0.010206 0.0101918 0.0101811 0.0101739 0.010166 0.0101535 0.0101363 0.0101145 0.010088 0.0100568 0.010021 0.00998058 0.00993057 0.00986613 0.00978726 0.00969396 0.00958622 0.00946405 0.00932745 0.00917642 0.0090096 0.00882563 0.00862451 0.00840624 0.00817083 0.00791827 0.00764856 0.00736171 0.00706199 0.00675367 0.00643677 0.00611127 0.00577718 0.0054345 0.00508323 0.00472337 0.00436356 0.00401245 0.00367004 0.00333633 0.00301132 0.002695 0.00238739 0.00208847 0.00180521 0.00154454 0.00130647 0.001091 0.000898125 0.000727852 0.000580178 0.000455103 0.000348438 0.000255995 0.000177775 0.000113776 6.39988e-05 2.84439e-05 7.11098e-06 0 0 1.0446e-05 4.17839e-05 9.40139e-05 0.000167136 0.00026115 0.000376056 0.000511853 0.000668543 0.000850744 0.00106307 0.00130554 0.00157813 0.00188085 0.0022137 0.00257668 0.00296979 0.0033828 0.00380549 0.00423785 0.00467989 0.0051316 0.00559298 0.00606404 0.00654478 0.00702346 0.00748836 0.00793948 0.00837682 0.00880039 0.00921017 0.00960618 0.00998841 0.0103513 0.0106893 0.0110024 0.0112906 0.0115539 0.0117924 0.0120059 0.0121945 0.0123601 0.0125046 0.0126278 0.0127299 0.0128108 0.0128706 0.0129091 0.0129265 0.0129291 0.0129233 0.0129091 0.0128865 0.0128555 0.0128161 0.0127683 0.0127121 0.012653 0.0125966 0.0125429 0.0124919 0.0124436 0.0123979 0.012355 0.0123147 0.0122776 0.012244 0.012214 0.0121876 0.0121649 0.0121457 0.01213 0.012118 0.012105 0.0120862 0.0120619 0.0120318 0.0119961 0.0119548 0.0119077 0.011855 0.0117911 0.0117104 0.0116129 0.0114986 0.0113675 0.0112196 0.0110549 0.0108735 0.0106737 0.010454 0.0102146 0.00995527 0.00967612 0.00937714 0.00905832 0.00871966 0.0083661 0.00800258 0.00762908 0.00724562 0.0068522 0.00644881 0.00603545 0.00561212 0.00518878 0.00477537 0.00437189 0.00397835 0.00359475 0.00322108 0.00285734 0.00250354 0.00216785 0.00185845 0.00157533 0.00131851 0.00108797 0.000883725 0.000705767 0.000554098 0.000424231 0.00031168 0.000216445 0.000138525 7.79201e-05 3.46311e-05 8.65779e-06 0 0 1.25017e-05 5.00069e-05 0.000112516 0.000200028 0.000312543 0.000450063 0.000612585 0.000800111 0.00101747 0.00126947 0.00155613 0.00187745 0.00223341 0.00262403 0.0030493 0.00350923 0.00399192 0.00448549 0.00498994 0.00550527 0.00603148 0.00656857 0.00711654 0.00767539 0.00823175 0.00877225 0.00929689 0.00980567 0.0102986 0.0107757 0.0112369 0.0116822 0.0121053 0.0124999 0.012866 0.0132034 0.0135123 0.0137927 0.0140445 0.0142677 0.0144645 0.0146368 0.0147848 0.0149083 0.0150074 0.0150821 0.0151324 0.0151583 0.0151671 0.0151658 0.0151546 0.0151334 0.0151023 0.0150612 0.0150102 0.0149491 0.0148844 0.0148224 0.0147629 0.014706 0.0146517 0.0146 0.014551 0.0145045 0.0144612 0.0144215 0.0143854 0.0143531 0.0143243 0.0142993 0.0142779 0.0142601 0.0142408 0.0142147 0.0141818 0.0141422 0.0140957 0.0140425 0.0139825 0.0139157 0.0138358 0.0137367 0.0136181 0.0134802 0.013323 0.0131465 0.0129505 0.0127353 0.012499 0.01224 0.0119583 0.0116539 0.0113267 0.0109769 0.0106043 0.010209 0.00979657 0.00937274 0.00893746 0.00849073 0.00803257 0.00756295 0.0070819 0.00658939 0.00609679 0.00561541 0.00514528 0.00468638 0.00423871 0.00380228 0.00337708 0.00296312 0.00256991 0.00220697 0.00187429 0.00157187 0.00129972 0.00105784 0.000846225 0.000664874 0.000509044 0.000373991 0.000259716 0.000166218 9.34979e-05 4.15546e-05 1.03887e-05 0 0 1.47726e-05 5.90905e-05 0.000132954 0.000236362 0.000369316 0.000531814 0.000723859 0.000945448 0.00120156 0.00149717 0.00183227 0.00220687 0.00262097 0.00307457 0.00356766 0.00410025 0.00465866 0.0052292 0.00581188 0.0064067 0.00701365 0.00763273 0.00826395 0.00890731 0.00954769 0.01017 0.0107742 0.0113603 0.0119283 0.0124783 0.0130101 0.0135239 0.0140124 0.0144684 0.0148919 0.015283 0.0156416 0.0159677 0.0162613 0.0165225 0.0167535 0.0169567 0.0171319 0.0172793 0.0173988 0.0174904 0.0175541 0.01759 0.017606 0.0176104 0.0176032 0.0175842 0.0175536 0.0175113 0.0174573 0.0173917 0.0173214 0.0172536 0.0171882 0.0171253 0.0170649 0.0170069 0.0169513 0.0168982 0.0168481 0.0168017 0.016759 0.0167199 0.0166845 0.0166527 0.0166246 0.0166002 0.0165735 0.0165389 0.0164962 0.0164455 0.0163868 0.0163201 0.0162453 0.0161626 0.0160647 0.0159449 0.0158029 0.0156388 0.0154527 0.0152445 0.0150143 0.0147619 0.0144857 0.0141836 0.0138557 0.0135021 0.0131227 0.0127174 0.0122864 0.0118296 0.0113534 0.0108642 0.0103619 0.0098466 0.00931828 0.00877694 0.00822258 0.00765519 0.00708759 0.00653259 0.00599019 0.00546039 0.0049432 0.0044386 0.00394661 0.00346722 0.00301139 0.0025901 0.00220333 0.00185109 0.00153338 0.0012502 0.00100155 0.000787429 0.000602875 0.000442929 0.000307589 0.000196857 0.000110732 4.92143e-05 1.23036e-05 0 0 1.72576e-05 6.90306e-05 0.000155319 0.000276122 0.000431441 0.000621275 0.000845624 0.00110449 0.00140293 0.00174599 0.00213369 0.00256601 0.00304297 0.00356455 0.00413077 0.00474161 0.00538148 0.00603476 0.00670145 0.00738156 0.00807509 0.00878202 0.00950238 0.0102361 0.0109664 0.0116762 0.0123656 0.0130345 0.0136829 0.014311 0.0149185 0.0155057 0.0160643 0.0165863 0.0170718 0.0175206 0.0179329 0.0183086 0.0186477 0.0189503 0.0192187 0.0194556 0.019661 0.0198348 0.0199771 0.0200878 0.020167 0.0202146 0.0202397 0.0202512 0.0202492 0.0202336 0.0202045 0.0201619 0.0201057 0.020036 0.0199606 0.0198873 0.0198163 0.0197474 0.0196807 0.0196162 0.0195539 0.0194938 0.0194365 0.0193828 0.0193327 0.0192861 0.0192431 0.0192036 0.0191677 0.0191354 0.0191001 0.0190555 0.0190015 0.0189381 0.0188653 0.0187831 0.0186915 0.0185905 0.0184724 0.0183293 0.0181613 0.0179683 0.0177503 0.0175074 0.0172395 0.0169466 0.0166268 0.016278 0.0159001 0.0154933 0.0150574 0.0145925 0.0140986 0.0135757 0.013031 0.0124715 0.0118974 0.0113086 0.010705 0.0100868 0.00945394 0.00880635 0.00815842 0.0075245 0.00690458 0.00629867 0.00570677 0.00512888 0.004565 0.00401513 0.00349178 0.00300749 0.00256225 0.00215606 0.00178892 0.00146084 0.0011718 0.000921821 0.000705769 0.000518524 0.000360086 0.000230455 0.000129631 5.76138e-05 1.44034e-05 0 0 1.99558e-05 7.98231e-05 0.000179602 0.000319292 0.000498894 0.000718408 0.000977833 0.00127717 0.00162147 0.00201579 0.00246012 0.00295447 0.00349884 0.00409323 0.00473763 0.00543205 0.00615882 0.00690028 0.00765643 0.00842727 0.00921279 0.010013 0.0108279 0.0116575 0.012483 0.0132855 0.0140652 0.0148219 0.0155558 0.0162667 0.0169547 0.0176198 0.0182531 0.0188455 0.019397 0.0199077 0.0203776 0.0208066 0.0211948 0.0215421 0.0218514 0.0221252 0.0223637 0.0225668 0.0227345 0.0228669 0.0229638 0.0230254 0.0230615 0.0230821 0.023087 0.0230764 0.0230502 0.0230085 0.0229512 0.0228783 0.0227985 0.0227205 0.0226442 0.0225697 0.0224969 0.022426 0.0223568 0.0222893 0.0222244 0.0221628 0.0221045 0.0220496 0.0219979 0.0219496 0.0219046 0.021863 0.0218175 0.0217612 0.021694 0.0216158 0.0215268 0.021427 0.0213162 0.0211945 0.0210535 0.0208844 0.0206874 0.0204624 0.0202094 0.0199285 0.0196196 0.0192828 0.0189158 0.0185164 0.0180848 0.0176207 0.0171244 0.0165957 0.0160347 0.0154414 0.0148237 0.0141895 0.013539 0.012872 0.0121885 0.0114887 0.0107724 0.0100397 0.00930651 0.00858874 0.0078864 0.00719949 0.006528 0.00587195 0.00523133 0.00460613 0.00401055 0.00345878 0.00295082 0.00248666 0.00206632 0.00168977 0.00135704 0.00106811 0.000817768 0.000600809 0.000417229 0.000267026 0.000150202 6.67566e-05 1.66892e-05 0 0 2.2867e-05 9.14681e-05 0.000205803 0.000365872 0.000571676 0.000823213 0.00112048 0.00146349 0.00185719 0.00230655 0.00281157 0.00337226 0.00398859 0.00466059 0.00538825 0.00617157 0.0069907 0.00782578 0.00867682 0.00954381 0.0104268 0.0113257 0.0122405 0.0131714 0.0140974 0.014998 0.0158731 0.0167227 0.0175469 0.0183455 0.0191187 0.0198664 0.0205787 0.0212458 0.0218676 0.0224442 0.0229756 0.0234617 0.0239026 0.0242982 0.0246515 0.0249654 0.02524 0.0254752 0.0256711 0.0258276 0.0259447 0.0260224 0.0260716 0.026103 0.0261167 0.0261126 0.0260907 0.0260511 0.0259938 0.0259186 0.0258352 0.025753 0.025672 0.0255921 0.0255135 0.0254361 0.0253598 0.0252847 0.0252117 0.0251417 0.0250745 0.0250103 0.0249491 0.0248908 0.0248354 0.024783 0.0247257 0.024656 0.0245737 0.0244789 0.0243716 0.0242518 0.0241194 0.0239745 0.0238079 0.0236101 0.0233812 0.0231212 0.0228301 0.022508 0.0221547 0.0217703 0.0213525 0.020899 0.0204096 0.0198846 0.0193237 0.0187271 0.0180948 0.0174266 0.0167315 0.0160182 0.0152866 0.0145368 0.0137688 0.0129825 0.012178 0.0113553 0.0105319 0.00972532 0.00893564 0.00816283 0.00740688 0.0066678 0.00594559 0.00524024 0.00456772 0.00394399 0.00336905 0.00284291 0.00236557 0.00193701 0.00155725 0.00122628 0.000938873 0.000689785 0.000479017 0.000306571 0.000172446 7.66427e-05 1.91607e-05 0 0 2.59914e-05 0.000103966 0.000233923 0.000415862 0.000649785 0.000935691 0.00127358 0.00166345 0.00211009 0.00261829 0.00318804 0.00381936 0.00451222 0.00526665 0.00608263 0.00696017 0.0078771 0.00881125 0.00976261 0.0107312 0.011717 0.01272 0.0137403 0.0147777 0.0158097 0.0168136 0.0177893 0.0187368 0.0196561 0.0205473 0.0214104 0.0222453 0.0230412 0.0237873 0.0244836 0.0251302 0.0257269 0.0262739 0.026771 0.0272184 0.0276191 0.0279763 0.02829 0.0285601 0.0287868 0.0289699 0.0291095 0.0292056 0.0292699 0.0293141 0.0293382 0.0293421 0.029326 0.0292898 0.0292334 0.029157 0.0290707 0.028985 0.0288996 0.0288148 0.0287304 0.0286465 0.028563 0.0284801 0.0283985 0.0283194 0.0282427 0.0281684 0.0280965 0.0280271 0.02796 0.0278953 0.0278247 0.0277399 0.0276407 0.0275272 0.0273995 0.0272575 0.0271012 0.0269306 0.0267356 0.0265064 0.0262427 0.0259447 0.0256124 0.0252457 0.0248447 0.0244093 0.0239371 0.0234256 0.0228748 0.0222847 0.0216553 0.0209867 0.0202787 0.0195315 0.0187545 0.0179575 0.0171403 0.0163031 0.0154457 0.0145683 0.0136707 0.012753 0.0118345 0.0109342 0.0100523 0.00918871 0.00834342 0.00751644 0.00670778 0.00591744 0.00516326 0.0044631 0.00381695 0.0032248 0.00268667 0.00220256 0.00177245 0.00139635 0.00106908 0.00078545 0.000545451 0.000349089 0.000196362 8.72722e-05 2.1818e-05 0 0 2.93289e-05 0.000117316 0.00026396 0.000469262 0.000733222 0.00105584 0.00143712 0.00187705 0.00238017 0.00295099 0.00358953 0.00429577 0.00506973 0.00591139 0.00682077 0.00779785 0.00881803 0.00985668 0.0109138 0.0119894 0.0130835 0.0141961 0.0153271 0.0164767 0.0176199 0.0187323 0.0198137 0.0208642 0.0218837 0.0228722 0.0238299 0.0247566 0.0256405 0.02647 0.027245 0.0279655 0.0286316 0.0292431 0.0298002 0.0303027 0.0307542 0.0311578 0.0315135 0.0318215 0.0320816 0.0322939 0.0324584 0.032575 0.0326565 0.0327153 0.0327515 0.0327651 0.0327561 0.0327245 0.0326702 0.0325934 0.0325051 0.0324163 0.0323272 0.0322376 0.0321476 0.0320573 0.0319665 0.0318753 0.0317848 0.0316961 0.0316091 0.0315238 0.0314403 0.0313585 0.0312784 0.0312001 0.0311146 0.0310129 0.030895 0.0307609 0.0306106 0.0304441 0.0302614 0.0300626 0.0298368 0.0295732 0.029272 0.028933 0.0285562 0.0281418 0.0276896 0.0271997 0.0266694 0.0260962 0.0254802 0.0248211 0.0241192 0.0233743 0.0225866 0.0217558 0.0208927 0.0200074 0.0191001 0.0181708 0.0172194 0.016246 0.0152505 0.014233 0.0132144 0.0122155 0.0112364 0.0102771 0.0093376 0.00841787 0.00751791 0.00663775 0.0057972 0.00501612 0.00429449 0.00363234 0.00302964 0.0024864 0.00200263 0.00157832 0.0012084 0.000887804 0.000616531 0.00039458 0.000221951 9.86449e-05 2.46612e-05 0 0 3.28795e-05 0.000131518 0.000295916 0.000526072 0.000821988 0.00118366 0.0016111 0.00210429 0.00266742 0.003