<?xml version="1.0"?> 
<VTKFile type="StructuredGrid" version="0.1"> 
<StructuredGrid WholeExtent="0 128 0 128 0 0"> 
<Piece Extent="0 128 0 128 0 0"> 
<PointData>
<DataArray type="Float32" Name="u" format="ascii" NumberOfComponents="1"> 
0 0 0 0 0 0 0 0 0 0 0 0 0 0 0 0 0 0 0 0 0 0 0 0 0 0 0 0 0 0 0 0 0 0 0 0 0 0 0 0 0 0 0 0 0 0 0 0 0 0 0 0 0 0 0 0 0 0 0 0 0 0 0 0 0 0 0 0 0 0 0 0 0 0 0 0 0 0 0 0 0 0 0 0 0 0 0 0 0 0 0 0 0 0 0 0 0 0 0 0 0 0 0 0 0 0 0 0 0 0 0 0 0 0 0 0 0 0 0 0 0 0 0 0 0 0 0 0 0 0 6.29535e-08 2.51814e-07 5.66582e-07 1.00726e-06 1.57384e-06 2.26633e-06 3.08472e-06 4.02903e-06 5.12616e-06 6.40305e-06 7.85968e-06 9.49608e-06 1.13122e-05 1.33081e-05 1.54838e-05 1.78392e-05 2.03199e-05 2.28715e-05 2.54939e-05 2.81872e-05 3.09513e-05 3.37863e-05 3.66922e-05 3.96689e-05 4.2661e-05 4.56132e-05 4.85253e-05 5.13974e-05 5.42296e-05 5.70217e-05 5.97739e-05 6.2486e-05 6.5129e-05 6.76736e-05 7.012e-05 7.2468e-05 7.47176e-05 7.6869e-05 7.8922e-05 8.08767e-05 8.27259e-05 8.44625e-05 8.60865e-05 8.7598e-05 8.89968e-05 9.0283e-05 9.14566e-05 9.25176e-05 9.34716e-05 9.43243e-05 9.50757e-05 9.57258e-05 9.62745e-05 9.6722e-05 9.7068e-05 9.73128e-05 9.74654e-05 9.75348e-05 9.75211e-05 9.74243e-05 9.72443e-05 9.69813e-05 9.66351e-05 9.62058e-05 9.56998e-05 9.51235e-05 9.4477e-05 9.37602e-05 9.29731e-05 9.21157e-05 9.11881e-05 9.01902e-05 8.91247e-05 8.79943e-05 8.6799e-05 8.55388e-05 8.42136e-05 8.28236e-05 8.13686e-05 7.98488e-05 7.82667e-05 7.66249e-05 7.49235e-05 7.31626e-05 7.1342e-05 6.94617e-05 6.75219e-05 6.55224e-05 6.34723e-05 6.13803e-05 5.92465e-05 5.70709e-05 5.48534e-05 5.25942e-05 5.02932e-05 4.79503e-05 4.55869e-05 4.32243e-05 4.08625e-05 3.85015e-05 3.61413e-05 3.37818e-05 3.14231e-05 2.90652e-05 2.67443e-05 2.44964e-05 2.23218e-05 2.02202e-05 1.81918e-05 1.62364e-05 1.43543e-05 1.25452e-05 1.08409e-05 9.27289e-06 7.84121e-06 6.54585e-06 5.38681e-06 4.3641e-06 3.47771e-06 2.72764e-06 2.08835e-06 1.5343e-06 1.06548e-06 6.81909e-07 3.83574e-07 1.70477e-07 4.26193e-08 0 0 2.51814e-07 1.00726e-06 2.26633e-06 4.02903e-06 6.29535e-06 9.06531e-06 1.23389e-05 1.61161e-05 2.05046e-05 2.56122e-05 3.14387e-05 3.79843e-05 4.52489e-05 5.32325e-05 6.19351e-05 7.13567e-05 8.12795e-05 9.14858e-05 0.000101976 0.000112749 0.000123805 0.000135145 0.000146769 0.000158675 0.000170644 0.000182453 0.000194101 0.00020559 0.000216918 0.000228087 0.000239095 0.000249944 0.000260516 0.000270695 0.00028048 0.000289872 0.00029887 0.000307476 0.000315688 0.000323507 0.000330904 0.00033785 0.000344346 0.000350392 0.000355987 0.000361132 0.000365826 0.00037007 0.000373887 0.000377297 0.000380303 0.000382903 0.000385098 0.000386888 0.000388272 0.000389251 0.000389861 0.000390139 0.000390084 0.000389697 0.000388977 0.000387925 0.00038654 0.000384823 0.000382799 0.000380494 0.000377908 0.000375041 0.000371892 0.000368463 0.000364752 0.000360761 0.000356499 0.000351977 0.000347196 0.000342155 0.000336855 0.000331294 0.000325475 0.000319395 0.000313067 0.0003065 0.000299694 0.00029265 0.000285368 0.000277847 0.000270088 0.00026209 0.000253889 0.000245521 0.000236986 0.000228283 0.000219414 0.000210377 0.000201173 0.000191801 0.000182348 0.000172897 0.00016345 0.000154006 0.000144565 0.000135127 0.000125692 0.000116261 0.000106977 9.79858e-05 8.9287e-05 8.08807e-05 7.2767e-05 6.49458e-05 5.74171e-05 5.01809e-05 4.33636e-05 3.70916e-05 3.13648e-05 2.61834e-05 2.15473e-05 1.74564e-05 1.39108e-05 1.09105e-05 8.35339e-06 6.13718e-06 4.26193e-06 2.72764e-06 1.5343e-06 6.81909e-07 1.70477e-07 0 0 5.66582e-07 2.26633e-06 5.09924e-06 9.06531e-06 1.41645e-05 2.03969e-05 2.77625e-05 3.62612e-05 4.61354e-05 5.76274e-05 7.07372e-05 8.54647e-05 0.00010181 0.000119773 0.000139354 0.000160553 0.000182879 0.000205843 0.000229445 0.000253684 0.000278562 0.000304077 0.000330229 0.00035702 0.000383949 0.000410518 0.000436728 0.000462577 0.000488066 0.000513195 0.000537965 0.000562374 0.000586161 0.000609063 0.00063108 0.000652212 0.000672459 0.000691821 0.000710298 0.00072789 0.000744533 0.000760163 0.000774779 0.000788382 0.000800971 0.000812547 0.000823109 0.000832658 0.000841245 0.000848919 0.000855682 0.000861532 0.000866471 0.000870498 0.000873612 0.000875815 0.000877188 0.000877813 0.00087769 0.000876818 0.000875199 0.000872831 0.000869716 0.000865852 0.000861298 0.000856112 0.000850293 0.000843841 0.000836758 0.000829042 0.000820693 0.000811712 0.000802122 0.000791949 0.000781191 0.000769849 0.000757923 0.000745412 0.000732318 0.000718639 0.0007044 0.000689624 0.000674312 0.000658463 0.000642078 0.000625156 0.000607697 0.000589702 0.00057125 0.000552422 0.000533218 0.000513638 0.000493681 0.000473348 0.000452638 0.000431553 0.000410282 0.000389019 0.000367763 0.000346514 0.000325271 0.000304036 0.000282808 0.000261587 0.000240698 0.000220468 0.000200896 0.000181982 0.000163726 0.000146128 0.000129188 0.000112907 9.7568e-05 8.3456e-05 7.05709e-05 5.89127e-05 4.84813e-05 3.92769e-05 3.12994e-05 2.45487e-05 1.87951e-05 1.38087e-05 9.58935e-06 6.13718e-06 3.45217e-06 1.5343e-06 3.83574e-07 0 0 1.00726e-06 4.02903e-06 9.06531e-06 1.61161e-05 2.51814e-05 3.62612e-05 4.93556e-05 6.44644e-05 8.20186e-05 0.000102449 0.000125755 0.000151937 0.000180996 0.00021293 0.00024774 0.000285427 0.000325118 0.000365943 0.000407902 0.000450995 0.000495221 0.000540581 0.000587074 0.000634702 0.000682576 0.00072981 0.000776405 0.000822359 0.000867673 0.000912348 0.000956382 0.000999776 0.00104206 0.00108278 0.00112192 0.00115949 0.00119548 0.0012299 0.00126275 0.00129403 0.00132361 0.0013514 0.00137738 0.00140157 0.00142395 0.00144453 0.00146331 0.00148028 0.00149555 0.00150919 0.00152121 0.00153161 0.00154039 0.00154755 0.00155309 0.001557 0.00155945 0.00156056 0.00156034 0.00155879 0.00155591 0.0015517 0.00154616 0.00153929 0.0015312 0.00152198 0.00151163 0.00150016 0.00148757 0.00147385 0.00145901 0.00144304 0.001426 0.00140791 0.00138878 0.00136862 0.00134742 0.00132518 0.0013019 0.00127758 0.00125227 0.001226 0.00119878 0.0011706 0.00114147 0.00111139 0.00108035 0.00104836 0.00101556 0.000982084 0.000947944 0.000913134 0.000877655 0.000841507 0.000804691 0.000767205 0.000729391 0.00069159 0.000653801 0.000616024 0.00057826 0.000540509 0.00050277 0.000465043 0.000427908 0.000391943 0.000357148 0.000323523 0.000291068 0.000259783 0.000229668 0.000200723 0.000173454 0.000148366 0.000125459 0.000104734 8.6189e-05 6.98256e-05 5.56433e-05 4.36422e-05 3.34136e-05 2.45487e-05 1.70477e-05 1.09105e-05 6.13718e-06 2.72764e-06 6.81909e-07 0 0 1.57384e-06 6.29535e-06 1.41645e-05 2.51814e-05 3.9346e-05 5.66582e-05 7.71181e-05 0.000100726 0.000128154 0.000160076 0.000196492 0.000237402 0.000282806 0.000332703 0.000387094 0.000445979 0.000507997 0.000571786 0.000637347 0.000704679 0.000773783 0.000844657 0.000917304 0.000991722 0.00106653 0.00114033 0.00121313 0.00128494 0.00135574 0.00142554 0.00149435 0.00156215 0.00162822 0.00169184 0.001753 0.0018117 0.00186794 0.00192172 0.00197305 0.00202192 0.00206815 0.00211156 0.00215216 0.00218995 0.00222492 0.00225707 0.00228641 0.00231294 0.00233679 0.00235811 0.00237689 0.00239315 0.00240686 0.00241805 0.0024267 0.00243282 0.00243663 0.00243837 0.00243803 0.00243561 0.00243111 0.00242453 0.00241588 0.00240514 0.00239249 0.00237809 0.00236192 0.002344 0.00232433 0.00230289 0.0022797 0.00225475 0.00222812 0.00219986 0.00216997 0.00213847 0.00210534 0.00207059 0.00203422 0.00199622 0.00195667 0.00191562 0.00187309 0.00182906 0.00178355 0.00173654 0.00168805 0.00163806 0.00158681 0.00153451 0.00148116 0.00142677 0.00137134 0.00131486 0.00125733 0.00119876 0.00113967 0.00108061 0.00102156 0.000962538 0.000903532 0.000844545 0.000785578 0.00072663 0.000668607 0.000612411 0.000558044 0.000505505 0.000454794 0.000405911 0.000358857 0.00031363 0.000271022 0.000231822 0.00019603 0.000163646 0.00013467 0.000109102 8.69427e-05 6.81909e-05 5.22087e-05 3.83574e-05 2.66371e-05 1.70477e-05 9.58935e-06 4.26193e-06 1.06548e-06 0 0 2.26633e-06 9.06531e-06 2.03969e-05 3.62612e-05 5.66582e-05 8.15878e-05 0.00011105 0.000145045 0.000184542 0.00023051 0.000282949 0.000341859 0.00040724 0.000479092 0.000557416 0.00064221 0.000731516 0.000823372 0.00091778 0.00101474 0.00111425 0.00121631 0.00132092 0.00142808 0.0015358 0.00164207 0.00174691 0.00185031 0.00195226 0.00205278 0.00215186 0.0022495 0.00234464 0.00243625 0.00252432 0.00260885 0.00268983 0.00276728 0.00284119 0.00291156 0.00297813 0.00304065 0.00309912 0.00315353 0.00320388 0.00325019 0.00329244 0.00333063 0.00336498 0.00339568 0.00342273 0.00344613 0.00346588 0.00348199 0.00349445 0.00350326 0.00350875 0.00351125 0.00351076 0.00350727 0.0035008 0.00349133 0.00347886 0.00346341 0.00344519 0.00342445 0.00340117 0.00337537 0.00334703 0.00331617 0.00328277 0.00324685 0.00320849 0.00316779 0.00312476 0.0030794 0.00303169 0.00298165 0.00292927 0.00287456 0.0028176 0.0027585 0.00269725 0.00263385 0.00256831 0.00250062 0.00243079 0.00235881 0.002285 0.00220969 0.00213287 0.00205455 0.00197472 0.00189339 0.00181055 0.00172621 0.00164113 0.00155608 0.00147105 0.00138605 0.00130109 0.00121614 0.00113123 0.00104635 0.000962793 0.000881872 0.000803583 0.000727927 0.000654903 0.000584512 0.000516754 0.000451628 0.000390272 0.000333824 0.000282284 0.000235651 0.000193925 0.000157108 0.000125197 9.81949e-05 7.51805e-05 5.52346e-05 3.83574e-05 2.45487e-05 1.38087e-05 6.13718e-06 1.5343e-06 0 0 3.08472e-06 1.23389e-05 2.77625e-05 4.93556e-05 7.71181e-05 0.00011105 0.000151151 0.000197422 0.000251182 0.000313749 0.000385125 0.000465308 0.000554299 0.000652098 0.000758705 0.00087412 0.000995674 0.0011207 0.0012492 0.00138117 0.00151661 0.00165553 0.00179792 0.00194377 0.00209039 0.00223504 0.00237774 0.00251847 0.00265725 0.00279406 0.00292892 0.00306181 0.00319132 0.00331601 0.00343588 0.00355093 0.00366116 0.00376658 0.00386718 0.00396296 0.00405357 0.00413866 0.00421824 0.0042923 0.00436084 0.00442387 0.00448137 0.00453336 0.00458011 0.00462189 0.00465871 0.00469056 0.00471745 0.00473938 0.00475633 0.00476833 0.0047758 0.0047792 0.00477853 0.00477379 0.00476497 0.00475208 0.00473512 0.00471408 0.00468929 0.00466105 0.00462937 0.00459425 0.00455568 0.00451367 0.00446822 0.00441932 0.00436711 0.00431172 0.00425315 0.0041914 0.00412647 0.00405836 0.00398706 0.00391259 0.00383507 0.00375462 0.00367125 0.00358497 0.00349576 0.00340363 0.00330857 0.0032106 0.00311014 0.00300763 0.00290308 0.00279647 0.00268782 0.00257712 0.00246437 0.00234957 0.00223376 0.00211799 0.00200226 0.00188657 0.00177092 0.00165531 0.00153973 0.0014242 0.00131047 0.00120033 0.00109377 0.000990789 0.000891396 0.000795586 0.000703359 0.000614716 0.000531204 0.000454372 0.000384219 0.000320747 0.000263954 0.000213841 0.000170408 0.000133654 0.000102329 7.51805e-05 5.22087e-05 3.34136e-05 1.87951e-05 8.35339e-06 2.08835e-06 0 0 4.02903e-06 1.61161e-05 3.62612e-05 6.44644e-05 0.000100726 0.000145045 0.000197422 0.000257858 0.000328074 0.000409795 0.00050302 0.000607749 0.000723982 0.00085172 0.000990961 0.00114171 0.00130047 0.00146377 0.00163161 0.00180398 0.00198088 0.00216232 0.0023483 0.00253881 0.0027303 0.00291924 0.00310562 0.00328944 0.00347069 0.00364939 0.00382553 0.0039991 0.00416825 0.00433111 0.00448768 0.00463795 0.00478193 0.00491961 0.00505101 0.00517611 0.00529446 0.0054056 0.00550954 0.00560627 0.00569579 0.00577811 0.00585322 0.00592113 0.00598218 0.00603676 0.00608485 0.00612645 0.00616157 0.00619021 0.00621235 0.00622802 0.00623778 0.00624223 0.00624135 0.00623515 0.00622364 0.0062068 0.00618465 0.00615717 0.00612479 0.00608791 0.00604653 0.00600065 0.00595028 0.00589541 0.00583604 0.00577217 0.00570398 0.00563164 0.00555514 0.00547448 0.00538967 0.00530071 0.00520759 0.00511032 0.00500907 0.00490399 0.00479511 0.0046824 0.00456589 0.00444555 0.0043214 0.00419344 0.00406222 0.00392834 0.00379177 0.00365254 0.00351062 0.00336603 0.00321876 0.00306882 0.00291756 0.00276636 0.0026152 0.0024641 0.00231304 0.00216204 0.00201108 0.00186017 0.00171163 0.00156777 0.00142859 0.00129409 0.00116427 0.00103913 0.000918673 0.000802894 0.000693817 0.000593465 0.000501837 0.000418934 0.000344756 0.000279302 0.000222573 0.000174569 0.000133654 9.81949e-05 6.81909e-05 4.36422e-05 2.45487e-05 1.09105e-05 2.72764e-06 0 0 5.13361e-06 2.05344e-05 4.62025e-05 8.21377e-05 0.00012834 0.00018481 0.000251547 0.000328551 0.000417949 0.000521868 0.000640309 0.00077327 0.000920752 0.00108276 0.00125928 0.00145032 0.00165148 0.00185835 0.00207093 0.00228921 0.00251321 0.00274291 0.00297832 0.00321944 0.00346179 0.00370091 0.0039368 0.00416945 0.00439886 0.00462504 0.00484798 0.00506768 0.00528179 0.00548795 0.00568616 0.00587642 0.00605872 0.00623307 0.00639947 0.00655791 0.00670783 0.00684862 0.0069803 0.00710287 0.00721632 0.00732066 0.00741588 0.00750198 0.00757942 0.00764865 0.00770966 0.00776247 0.00780706 0.00784344 0.0078716 0.00789156 0.00790403 0.00790976 0.00790875 0.00790099 0.00788648 0.00786523 0.00783724 0.0078025 0.00776153 0.00771486 0.00766249 0.00760441 0.00754062 0.00747113 0.00739594 0.00731504 0.00722866 0.00713701 0.00704009 0.00693791 0.00683046 0.00671775 0.00659978 0.00647653 0.00634825 0.00621513 0.00607718 0.00593441 0.00578681 0.00563438 0.00547712 0.00531503 0.00514883 0.00497926 0.0048063 0.00462997 0.00445025 0.00426715 0.00408067 0.00389081 0.0036993 0.00350784 0.00331645 0.00312512 0.00293386 0.00274266 0.00255152 0.00236045 0.00217235 0.00199016 0.00181387 0.00164348 0.00147898 0.00132039 0.0011677 0.00102091 0.000882575 0.000755261 0.000638966 0.000533689 0.000439431 0.000356192 0.000283971 0.00022277 0.000170558 0.000125308 8.70193e-05 5.56924e-05 3.1327e-05 1.39231e-05 3.48077e-06 0 0 6.43284e-06 2.57314e-05 5.78956e-05 0.000102926 0.000160821 0.000231582 0.000315209 0.000411702 0.000523537 0.000653192 0.000800665 0.000965958 0.00114907 0.00135 0.00156875 0.00180532 0.00205428 0.00231021 0.00257309 0.00284294 0.00311974 0.00340351 0.00369424 0.00399193 0.00429111 0.00458631 0.00487753 0.00516476 0.00544801 0.00572728 0.00600256 0.00627387 0.00653829 0.00679292 0.00703777 0.00727284 0.00749813 0.00771363 0.00791935 0.00811528 0.0083007 0.00847489 0.00863783 0.00878954 0.00893001 0.00905924 0.00917723 0.00928398 0.00938004 0.00946594 0.00954169 0.00960729 0.00966274 0.00970803 0.00974317 0.00976816 0.00978389 0.00979126 0.00979027 0.00978092 0.0097632 0.00973713 0.00970269 0.0096599 0.00960938 0.00955179 0.00948711 0.00941536 0.00933653 0.00925062 0.00915763 0.00905756 0.00895069 0.0088373 0.00871739 0.00859095 0.008458 0.00831852 0.00817253 0.00802001 0.00786125 0.00769654 0.00752586 0.00734922 0.00716663 0.00697807 0.00678356 0.00658308 0.00637755 0.00616786 0.00595401 0.005736 0.00551384 0.00528751 0.00505703 0.00482239 0.00458571 0.00434911 0.00411259 0.00387615 0.00363979 0.0034035 0.0031673 0.00293117 0.0026987 0.00247344 0.0022554 0.00204459 0.00184099 0.00164461 0.00145545 0.0012735 0.00110194 0.000943917 0.000799432 0.000668485 0.000551078 0.000447209 0.000356879 0.000280087 0.000214442 0.000157549 0.000109409 7.00219e-05 3.93873e-05 1.75055e-05 4.37637e-06 0 0 7.92673e-06 3.17069e-05 7.13406e-05 0.000126828 0.000198168 0.000285362 0.00038841 0.000507311 0.000644838 0.000803764 0.00098409 0.00118581 0.00140894 0.00165346 0.00191938 0.0022067 0.00250887 0.00281933 0.00313809 0.00346514 0.00380049 0.00414412 0.00449606 0.00485628 0.00521826 0.00557543 0.0059278 0.00627538 0.00661815 0.00695612 0.00728929 0.00761765 0.00793773 0.00824602 0.00854251 0.00882723 0.00910015 0.00936129 0.00961064 0.0098482 0.0100731 0.0102844 0.0104821 0.0106663 0.0108369 0.0109939 0.0111373 0.0112671 0.011384 0.0114886 0.0115809 0.0116609 0.0117286 0.011784 0.0118271 0.0118578 0.0118774 0.0118867 0.0118859 0.0118749 0.0118538 0.0118225 0.011781 0.0117294 0.0116683 0.0115987 0.0115204 0.0114335 0.011338 0.0112339 0.0111211 0.0109997 0.0108701 0.0107325 0.010587 0.0104336 0.0102723 0.010103 0.00992585 0.00974075 0.00954809 0.00934822 0.00914114 0.00892685 0.00870535 0.00847664 0.00824073 0.0079976 0.00774837 0.00749413 0.00723489 0.00697063 0.00670137 0.0064271 0.00614783 0.00586355 0.00557681 0.00529017 0.00500363 0.00471718 0.00443083 0.00414458 0.00385842 0.00357236 0.00329067 0.00301762 0.0027532 0.00249742 0.00225028 0.00201178 0.00178191 0.00156068 0.00135191 0.00115943 0.000983236 0.000823323 0.000679696 0.000552353 0.000441295 0.000346522 0.000265306 0.000194919 0.00013536 8.66306e-05 4.87297e-05 2.16577e-05 5.41441e-06 0 0 9.61527e-06 3.84611e-05 8.65374e-05 0.000153844 0.000240382 0.00034615 0.000471148 0.000615377 0.000781852 0.000973587 0.00119058 0.00143284 0.00170035 0.00199313 0.00231117 0.00265447 0.00301525 0.00338573 0.00376593 0.00415583 0.00455544 0.00496475 0.00538377 0.0058125 0.00624323 0.00666828 0.00708763 0.0075013 0.00790927 0.00831155 0.00870815 0.00909905 0.00948012 0.00984724 0.0102004 0.0105396 0.0108648 0.0111761 0.0114734 0.0117567 0.012025 0.0122771 0.0125132 0.0127331 0.0129369 0.0131245 0.013296 0.0134514 0.0135914 0.0137167 0.0138274 0.0139234 0.0140047 0.0140713 0.0141233 0.0141606 0.0141844 0.0141961 0.0141957 0.0141831 0.0141583 0.0141213 0.0140722 0.0140109 0.0139384 0.0138555 0.0137623 0.0136588 0.013545 0.0134208 0.0132864 0.0131415 0.0129868 0.0128226 0.012649 0.0124659 0.0122733 0.0120713 0.0118597 0.0116388 0.0114087 0.0111702 0.010923 0.0106673 0.010403 0.0101301 0.00984862 0.00955859 0.0092613 0.00895808 0.00864894 0.00833386 0.00801286 0.00768593 0.00735307 0.00701428 0.00667259 0.00633101 0.00598955 0.00564821 0.00530698 0.00496587 0.00462488 0.004284 0.00394826 0.00362268 0.00330725 0.00300198 0.00270686 0.0024219 0.00214709 0.00188244 0.0016325 0.00140181 0.00119038 0.000998203 0.000825286 0.000671625 0.000537222 0.000422075 0.000323151 0.000237417 0.000164873 0.000105519 5.93542e-05 2.63797e-05 6.59491e-06 0 0 1.14985e-05 4.59938e-05 0.000103486 0.000183975 0.000287462 0.000413945 0.000563425 0.000735901 0.000934578 0.00116266 0.00142014 0.00170703 0.00202332 0.00236901 0.00274411 0.00314861 0.00357341 0.00400941 0.00445661 0.004915 0.0053846 0.00586539 0.00635738 0.00686057 0.00736604 0.00786485 0.00835701 0.00884252 0.00932138 0.00979358 0.0102591 0.010718 0.0111655 0.0115966 0.0120114 0.0124099 0.0127921 0.0131579 0.0135075 0.0138407 0.0141564 0.0144531 0.014731 0.0149899 0.01523 0.0154512 0.0156535 0.0158369 0.0160022 0.0161502 0.016281 0.0163946 0.0164909 0.01657 0.0166318 0.0166763 0.0167051 0.0167195 0.0167196 0.0167053 0.0166766 0.0166336 0.0165762 0.0165045 0.0164195 0.0163223 0.016213 0.0160914 0.0159576 0.0158116 0.0156534 0.015483 0.0153009 0.0151077 0.0149033 0.0146878 0.0144611 0.0142232 0.0139742 0.013714 0.0134432 0.0131624 0.0128715 0.0125705 0.0122595 0.0119384 0.0116072 0.011266 0.0109163 0.0105597 0.0101962 0.00982569 0.0094483 0.00906399 0.00867276 0.0082746 0.00787305 0.00747164 0.00707037 0.00666924 0.00626825 0.0058674 0.00546668 0.0050661 0.00467148 0.00428864 0.00391756 0.00355826 0.00321073 0.00287498 0.00255099 0.00223878 0.00194369 0.00167104 0.00142086 0.00119313 0.000987848 0.000805025 0.000644657 0.000506744 0.000387976 0.000285043 0.000197947 0.000126686 7.12608e-05 3.16715e-05 7.91787e-06 0 0 1.35763e-05 5.43052e-05 0.000122187 0.000217221 0.000339408 0.000488747 0.000665239 0.000868883 0.00110302 0.00137098 0.00167277 0.00200839 0.00237783 0.00278111 0.00321821 0.00368913 0.00418336 0.00469036 0.00521012 0.00574266 0.00628797 0.00684604 0.00741689 0.00800051 0.00858667 0.00916514 0.00973593 0.010299 0.0108545 0.0114022 0.0119423 0.0124746 0.0129938 0.0134941 0.0139755 0.0144381 0.0148819 0.0153069 0.015713 0.0161003 0.0164673 0.0168124 0.0171356 0.0174369 0.0177163 0.0179739 0.0182096 0.0184234 0.0186163 0.0187891 0.0189419 0.0190746 0.0191874 0.01928 0.0193526 0.0194052 0.0194394 0.0194569 0.0194576 0.0194416 0.0194088 0.0193594 0.0192932 0.0192102 0.0191118 0.0189991 0.0188722 0.0187311 0.0185757 0.0184061 0.0182222 0.0180241 0.0178124 0.0175877 0.01735 0.0170993 0.0168356 0.0165589 0.0162692 0.0159666 0.0156516 0.0153249 0.0149866 0.0146366 0.0142749 0.0139016 0.0135166 0.01312 0.0127135 0.012299 0.0118766 0.0114461 0.0110077 0.0105613 0.0101069 0.0096445 0.0091782 0.00871206 0.00824609 0.00778028 0.00731463 0.00684914 0.00638382 0.00591866 0.00546033 0.00501549 0.00458413 0.00416627 0.00376189 0.00337101 0.00299361 0.0026297 0.00228548 0.00196714 0.00167467 0.00140809 0.00116738 0.000952552 0.000763602 0.00060053 0.000459781 0.000337798 0.000234582 0.000150133 8.44496e-05 3.75331e-05 9.38328e-06 0 0 1.58488e-05 6.33952e-05 0.000142639 0.000253581 0.00039622 0.000570557 0.000776591 0.00101432 0.00128717 0.00159855 0.00194847 0.00233691 0.00276389 0.00322941 0.00373346 0.00427604 0.0048451 0.00542858 0.00602648 0.0066388 0.00726554 0.00790671 0.00856229 0.0092323 0.00990512 0.0105692 0.0112244 0.0118709 0.0125085 0.0131374 0.0137575 0.0143689 0.014965 0.0155397 0.0160928 0.0166244 0.0171344 0.017623 0.01809 0.0185355 0.0189577 0.0193548 0.0197269 0.0200739 0.0203958 0.0206927 0.0209644 0.0212112 0.0214338 0.0216334 0.02181 0.0219635 0.022094 0.0222014 0.0222858 0.0223471 0.0223873 0.0224082 0.0224097 0.022392 0.0223549 0.0222986 0.0222229 0.022128 0.0220152 0.0218859 0.0217402 0.021578 0.0213994 0.0212043 0.0209928 0.0207649 0.0205212 0.0202626 0.019989 0.0197004 0.0193969 0.0190783 0.0187448 0.0183964 0.0180337 0.0176577 0.0172682 0.0168654 0.0164492 0.0160196 0.0155767 0.0151203 0.0146527 0.014176 0.0136901 0.0131952 0.012691 0.0121778 0.0116555 0.011124 0.010588 0.0100523 0.0095167 0.00898132 0.00844612 0.00791112 0.0073763 0.00684168 0.0063148 0.00580323 0.00530696 0.004826 0.00436034 0.00390999 0.00347495 0.00305521 0.00265789 0.00229009 0.00195183 0.00164309 0.00136389 0.00111421 0.000894056 0.000703434 0.000538566 0.000395681 0.000274779 0.000175858 9.89204e-05 4.39646e-05 1.09912e-05 0 0 1.83159e-05 7.32638e-05 0.000164844 0.000293055 0.000457899 0.000659374 0.000897481 0.00117222 0.00148704 0.00184537 0.00224723 0.00269261 0.00318151 0.00371393 0.00428987 0.00490933 0.00555862 0.00622407 0.00690567 0.00760343 0.00831733 0.00904739 0.00979359 0.010556 0.0113214 0.0120769 0.0128224 0.013558 0.0142836 0.0149993 0.0157049 0.0164007 0.0170792 0.0177334 0.0183632 0.0189685 0.0195495 0.0201062 0.0206384 0.0211462 0.0216276 0.0220805 0.022505 0.022901 0.0232684 0.0236075 0.023918 0.0242 0.0244547 0.0246831 0.0248853 0.0250612 0.0252108 0.0253342 0.0254313 0.0255021 0.0255488 0.0255734 0.025576 0.0255565 0.0255149 0.0254513 0.0253656 0.0252578 0.0251296 0.0249826 0.0248168 0.0246321 0.0244286 0.0242063 0.0239652 0.0237053 0.0234274 0.0231324 0.0228203 0.0224911 0.0221449 0.0217815 0.021401 0.0210034 0.0205897 0.0201607 0.0197165 0.0192571 0.0187824 0.0182926 0.0177875 0.0172672 0.0167341 0.0161906 0.0156369 0.0150728 0.0144983 0.0139136 0.0133185 0.012713 0.0121025 0.0114923 0.0108822 0.0102724 0.00966273 0.00905332 0.00844413 0.00783515 0.00723489 0.00665186 0.00608604 0.00553745 0.00500608 0.00449193 0.003995 0.0035153 0.0030609 0.00263991 0.00225232 0.00189814 0.00157736 0.00128999 0.00103602 0.000815454 0.000624332 0.000458693 0.000318537 0.000203864 0.000114673 5.09659e-05 1.27415e-05 0 0 2.09321e-05 8.37284e-05 0.000188389 0.000334914 0.000523303 0.000753556 0.00102567 0.00133965 0.00169892 0.0021069 0.00256358 0.00306896 0.00362306 0.00422586 0.00487736 0.00557758 0.0063111 0.00706255 0.00783192 0.00861921 0.00942441 0.0102475 0.0110886 0.0119476 0.0128099 0.013661 0.014501 0.0153297 0.0161473 0.0169537 0.0177489 0.0185328 0.0192976 0.0200349 0.0207449 0.0214275 0.0220827 0.0227106 0.0233111 0.0238842 0.0244277 0.0249391 0.0254184 0.0258657 0.026281 0.0266643 0.0270155 0.0273347 0.0276231 0.0278818 0.0281109 0.0283104 0.0284802 0.0286204 0.028731 0.0288119 0.0288656 0.0288943 0.028898 0.0288768 0.0288306 0.0287594 0.0286633 0.0285422 0.028398 0.0282324 0.0280456 0.0278374 0.0276079 0.0273571 0.027085 0.0267916 0.0264778 0.0261447 0.0257923 0.0254205 0.0250295 0.0246191 0.0241893 0.0237403 0.0232729 0.0227885 0.0222869 0.0217681 0.0212323 0.0206792 0.020109 0.0195217 0.01892 0.0183067 0.0176818 0.0170453 0.0163972 0.0157375 0.0150663 0.0143834 0.0136949 0.0130066 0.0123185 0.0116307 0.0109431 0.0102558 0.00956867 0.00888181 0.00820467 0.00754672 0.00690796 0.00628839 0.00568802 0.00510684 0.00454486 0.00400206 0.00348759 0.00301055 0.00257096 0.00216881 0.00180411 0.00147684 0.00118702 0.000934637 0.000715582 0.000525734 0.000365093 0.000233659 0.000131433 5.84148e-05 1.46037e-05 0 0 2.36516e-05 9.46065e-05 0.000212865 0.000378426 0.000591291 0.000851459 0.00115893 0.0015137 0.00191913 0.00237857 0.00289202 0.00345947 0.00408094 0.00475641 0.00548589 0.00626938 0.00708971 0.00792973 0.00878943 0.00966882 0.0105679 0.0114866 0.0124251 0.0133832 0.0143449 0.0152942 0.016231 0.0171554 0.0180673 0.0189667 0.0198536 0.0207281 0.0215812 0.0224039 0.0231961 0.0239579 0.0246894 0.0253904 0.026061 0.0267012 0.0273084 0.0278799 0.0284157 0.0289159 0.0293804 0.0298092 0.0302024 0.0305599 0.030883 0.031173 0.0314299 0.0316538 0.0318446 0.0320023 0.0321269 0.0322184 0.0322794 0.0323124 0.0323175 0.0322946 0.0322438 0.032165 0.0320583 0.0319237 0.0317631 0.0315786 0.0313702 0.0311379 0.0308817 0.0306017 0.0302977 0.0299699 0.0296192 0.029247 0.0288531 0.0284376 0.0280005 0.0275418 0.0270614 0.0265594 0.026037 0.0254955 0.0249349 0.0243552 0.0237563 0.0231384 0.0225013 0.0218451 0.0211729 0.0204878 0.0197899 0.019079 0.0183553 0.0176187 0.0168692 0.0161068 0.0153382 0.0145697 0.0138015 0.0130336 0.0122659 0.0114985 0.0107313 0.00996438 0.00920817 0.00847313 0.00775927 0.00706659 0.00639508 0.00574475 0.0051156 0.00450762 0.00393102 0.003396 0.00290255 0.00245069 0.00204041 0.0016717 0.00134457 0.00105903 0.000810819 0.000595703 0.000413683 0.000264757 0.000148926 6.61893e-05 1.65473e-05 0 0 2.64745e-05 0.000105898 0.000238271 0.000423592 0.000661863 0.000953083 0.00129725 0.00169437 0.00214767 0.00266041 0.00323256 0.00386414 0.00455515 0.00530558 0.00611544 0.00698472 0.00789444 0.0088256 0.0097782 0.0107523 0.0117477 0.0127647 0.0138031 0.0148629 0.0159266 0.0169764 0.0180126 0.0190349 0.0200435 0.0210383 0.0220193 0.0229866 0.0239302 0.0248403 0.0257169 0.02656 0.0273695 0.0281456 0.0288882 0.0295972 0.0302698 0.0309031 0.0314969 0.0320514 0.0325665 0.0330422 0.0334785 0.0338755 0.0342344 0.0345567 0.0348424 0.0350915 0.0353039 0.0354797 0.0356189 0.0357214 0.0357901 0.0358278 0.0358344 0.03581 0.0357546 0.0356682 0.0355507 0.0354022 0.0352248 0.035021 0.0347906 0.0345336 0.0342501 0.03394 0.0336034 0.0332402 0.0328517 0.0324393 0.0320029 0.0315424 0.031058 0.0305496 0.0300172 0.0294608 0.0288819 0.0282818 0.0276605 0.0270182 0.0263547 0.0256701 0.0249643 0.0242374 0.0234928 0.0227341 0.0219611 0.0211739 0.0203726 0.019557 0.0187273 0.0178833 0.0170324 0.0161817 0.0153313 0.0144811 0.0136312 0.0127815 0.0119321 0.0110829 0.0102454 0.00943111 0.00863999 0.00787204 0.00712726 0.00640565 0.00570722 0.00503195 0.00439119 0.00379623 0.0032471 0.00274377 0.00228626 0.00187457 0.00150869 0.00118863 0.000910043 0.000668603 0.000464307 0.000297157 0.000167151 7.42892e-05 1.85723e-05 0 0 2.94008e-05 0.000117603 0.000264607 0.000470413 0.00073502 0.00105843 0.00144064 0.00188165 0.00238454 0.00295239 0.0035852 0.00428297 0.00504569 0.00587337 0.00676601 0.00772361 0.00872529 0.00975017 0.0107982 0.0118695 0.012964 0.0140817 0.0152226 0.0163866 0.0175547 0.0187077 0.0198456 0.0209683 0.022076 0.0231685 0.0242458 0.0253081 0.0263445 0.0273441 0.0283072 0.0292335 0.0301232 0.0309762 0.0317926 0.0325722 0.033312 0.0340086 0.034662 0.0352723 0.0358394 0.0363633 0.036844 0.0372816 0.0376774 0.038033 0.0383484 0.0386234 0.0388582 0.0390528 0.039207 0.0393211 0.0393978 0.0394404 0.0394488 0.039423 0.039363 0.0392688 0.0391403 0.0389777 0.0387834 0.0385597 0.0383067 0.0380245 0.037713 0.0373721 0.037002 0.0366026 0.0361753 0.0357216 0.0352415 0.0347349 0.034202 0.0336426 0.0330568 0.0324445 0.0318075 0.0311473 0.0304638 0.0297572 0.0290273 0.0282743 0.027498 0.0266986 0.0258798 0.0250454 0.0241955 0.0233301 0.0224491 0.0215525 0.0206405 0.0197128 0.0187776 0.0178425 0.0169077 0.0159732 0.0150388 0.0141048 0.0131709 0.0122373 0.0113164 0.0104206 0.0095501 0.00870473 0.00788455 0.00708954 0.00631972 0.00557508 0.0048681 0.00421127 0.00360459 0.00304806 0.00254168 0.00208545 0.00167937 0.00132343 0.00101325 0.000744431 0.000516966 0.000330858 0.000186108 8.27146e-05 2.06786e-05 0 0 3.24304e-05 0.000129722 0.000291874 0.000518887 0.000810761 0.0011675 0.00158909 0.00207555 0.00262974 0.00325453 0.00394994 0.00471595 0.00555256 0.00645978 0.00743761 0.00848605 0.00958226 0.0107034 0.0118495 0.0130206 0.0142166 0.0154376 0.0166835 0.0179544 0.0192295 0.0204881 0.0217301 0.0229557 0.0241647 0.0253573 0.0265333 0.0276928 0.0288241 0.0299155 0.030967 0.0319786 0.0329504 0.0338822 0.0347742 0.0356263 0.0364349 0.0371965 0.037911 0.0385785 0.039199 0.0397724 0.0402988 0.0407781 0.041212 0.0416018 0.0419477 0.0422496 0.0425075 0.0427214 0.0428914 0.0430173 0.0431026 0.0431503 0.0431606 0.0431335 0.0430689 0.0429668 0.0428273 0.0426503 0.0424386 0.0421947 0.0419187 0.0416106 0.0412704 0.040898 0.0404936 0.040057 0.0395899 0.0390939 0.038569 0.0380152 0.0374324 0.0368207 0.0361801 0.0355106 0.0348139 0.034092 0.0333447 0.0325721 0.0317742 0.030951 0.0301025 0.0292287 0.0283337 0.0274218 0.0264931 0.0255474 0.0245848 0.0236052 0.0226088 0.0215954 0.0205737 0.0195522 0.0185309 0.0175098 0.016489 0.0154683 0.0144479 0.0134276 0.0124211 0.0114417 0.0104896 0.00956468 0.00866696 0.00779643 0.0069531 0.00613698 0.00536175 0.0046411 0.00397504 0.00336356 0.00280665 0.00230434 0.0018566 0.00146345 0.00112045 0.000823189 0.000571659 0.000365862 0.000205797 9.14655e-05 2.28664e-05 0 0 3.55634e-05 0.000142254 0.000320071 0.000569015 0.000889086 0.00128028 0.00174261 0.00227606 0.00288326 0.00356683 0.00432677 0.00516308 0.00607576 0.00706482 0.00813024 0.00927203 0.0104654 0.0116854 0.0129321 0.0142055 0.0155057 0.0168325 0.018186 0.0195662 0.0209508 0.0223175 0.0236662 0.0249969 0.0263098 0.0276046 0.0288816 0.030