<?xml version="1.0"?> 
<VTKFile type="StructuredGrid" version="0.1"> 
<StructuredGrid WholeExtent="0 128 0 128 0 0"> 
<Piece Extent="0 128 0 128 0 0"> 
<PointData>
<DataArray type="Float32" Name="u" format="ascii" NumberOfComponents="1"> 
0 0 0 0 0 0 0 0 0 0 0 0 0 0 0 0 0 0 0 0 0 0 0 0 0 0 0 0 0 0 0 0 0 0 0 0 0 0 0 0 0 0 0 0 0 0 0 0 0 0 0 0 0 0 0 0 0 0 0 0 0 0 0 0 0 0 0 0 0 0 0 0 0 0 0 0 0 0 0 0 0 0 0 0 0 0 0 0 0 0 0 0 0 0 0 0 0 0 0 0 0 0 0 0 0 0 0 0 0 0 0 0 0 0 0 0 0 0 0 0 0 0 0 0 0 0 0 0 0 0 5.96909e-08 2.38764e-07 5.37218e-07 9.55055e-07 1.49227e-06 2.14887e-06 2.92486e-06 3.82022e-06 4.862e-06 6.07721e-06 7.46587e-06 9.02797e-06 1.07635e-05 1.26725e-05 1.47549e-05 1.70108e-05 1.93919e-05 2.18502e-05 2.43857e-05 2.69983e-05 2.96881e-05 3.2455e-05 3.52991e-05 3.82203e-05 4.11675e-05 4.40894e-05 4.6986e-05 4.98574e-05 5.27034e-05 5.55242e-05 5.83198e-05 6.109e-05 6.38042e-05 6.64316e-05 6.89721e-05 7.14258e-05 7.37926e-05 7.60725e-05 7.82657e-05 8.03719e-05 8.23782e-05 8.42712e-05 8.6051e-05 8.77176e-05 8.9271e-05 9.07112e-05 9.20382e-05 9.32519e-05 9.43514e-05 9.53357e-05 9.62047e-05 9.69585e-05 9.75971e-05 9.81204e-05 9.85285e-05 9.88213e-05 9.90047e-05 9.90846e-05 9.90609e-05 9.89336e-05 9.87027e-05 9.83683e-05 9.79303e-05 9.73887e-05 9.67522e-05 9.60294e-05 9.52203e-05 9.4325e-05 9.33434e-05 9.22755e-05 9.11214e-05 8.98809e-05 8.85638e-05 8.71794e-05 8.57278e-05 8.42091e-05 8.26231e-05 8.09699e-05 7.92496e-05 7.7462e-05 7.5618e-05 7.37282e-05 7.17927e-05 6.98115e-05 6.77845e-05 6.57118e-05 6.35933e-05 6.14291e-05 5.92331e-05 5.70191e-05 5.47872e-05 5.25373e-05 5.02695e-05 4.79838e-05 4.56801e-05 4.33585e-05 4.10389e-05 3.87413e-05 3.64656e-05 3.4212e-05 3.19803e-05 2.97706e-05 2.75829e-05 2.54171e-05 2.33012e-05 2.1263e-05 1.93026e-05 1.74198e-05 1.56148e-05 1.38875e-05 1.2238e-05 1.06661e-05 9.19353e-06 7.84171e-06 6.61067e-06 5.5004e-06 4.51091e-06 3.6422e-06 2.89426e-06 2.2671e-06 1.73575e-06 1.27524e-06 8.85585e-07 5.66774e-07 3.18811e-07 1.41694e-07 3.54234e-08 0 0 2.38764e-07 9.55055e-07 2.14887e-06 3.82022e-06 5.96909e-06 8.59549e-06 1.16994e-05 1.52809e-05 1.9448e-05 2.43088e-05 2.98635e-05 3.61119e-05 4.3054e-05 5.06899e-05 5.90196e-05 6.80431e-05 7.75677e-05 8.7401e-05 9.75428e-05 0.000107993 0.000118752 0.00012982 0.000141196 0.000152881 0.00016467 0.000176358 0.000187944 0.000199429 0.000210814 0.000222097 0.000233279 0.00024436 0.000255217 0.000265726 0.000275888 0.000285703 0.00029517 0.00030429 0.000313063 0.000321488 0.000329513 0.000337085 0.000344204 0.000350871 0.000357084 0.000362845 0.000368153 0.000373008 0.000377406 0.000381343 0.000384819 0.000387834 0.000390388 0.000392482 0.000394114 0.000395285 0.000396019 0.000396338 0.000396243 0.000395734 0.000394811 0.000393473 0.000391721 0.000389555 0.000387009 0.000384118 0.000380881 0.0003773 0.000373374 0.000369102 0.000364485 0.000359524 0.000354255 0.000348718 0.000342911 0.000336836 0.000330492 0.00032388 0.000316998 0.000309848 0.000302472 0.000294913 0.000287171 0.000279246 0.000271138 0.000262847 0.000254373 0.000245716 0.000236932 0.000228076 0.000219149 0.000210149 0.000201078 0.000191935 0.00018272 0.000173434 0.000164156 0.000154965 0.000145863 0.000136848 0.000127921 0.000119082 0.000110331 0.000101668 9.32048e-05 8.50521e-05 7.72103e-05 6.96793e-05 6.24593e-05 5.55501e-05 4.89519e-05 4.26645e-05 3.67741e-05 3.13668e-05 2.64427e-05 2.20016e-05 1.80437e-05 1.45688e-05 1.1577e-05 9.06839e-06 6.94299e-06 5.10097e-06 3.54234e-06 2.2671e-06 1.27524e-06 5.66774e-07 1.41694e-07 0 0 5.37218e-07 2.14887e-06 4.83497e-06 8.59549e-06 1.34305e-05 1.93399e-05 2.63237e-05 3.4382e-05 4.3758e-05 5.46949e-05 6.71928e-05 8.12517e-05 9.68716e-05 0.000114052 0.000132794 0.000153097 0.000174527 0.000196652 0.000219471 0.000242985 0.000267193 0.000292095 0.000317692 0.000343983 0.000370507 0.000396804 0.000422874 0.000448716 0.000474331 0.000499718 0.000524878 0.00054981 0.000574238 0.000597884 0.000620749 0.000642832 0.000664133 0.000684653 0.000704391 0.000723347 0.000741404 0.000758441 0.000774459 0.000789459 0.000803439 0.000816401 0.000828343 0.000839267 0.000849163 0.000858021 0.000865843 0.000872627 0.000878374 0.000883084 0.000886756 0.000889392 0.000891043 0.000891761 0.000891548 0.000890402 0.000888324 0.000885315 0.000881372 0.000876498 0.00087077 0.000864265 0.000856983 0.000848925 0.000840091 0.00083048 0.000820092 0.000808928 0.000797074 0.000784614 0.00077155 0.000757882 0.000743608 0.000728729 0.000713246 0.000697158 0.000680562 0.000663554 0.000646135 0.000628303 0.000610061 0.000591406 0.00057234 0.000552862 0.000533098 0.000513172 0.000493084 0.000472836 0.000452425 0.000431854 0.000411121 0.000390226 0.00036935 0.000348671 0.000328191 0.000307908 0.000287823 0.000267935 0.000248246 0.000228754 0.000209711 0.000191367 0.000173723 0.000156778 0.000140533 0.000124988 0.000110142 9.59951e-05 8.27418e-05 7.05754e-05 5.9496e-05 4.95036e-05 4.05982e-05 3.27798e-05 2.60483e-05 2.04039e-05 1.56217e-05 1.14772e-05 7.97027e-06 5.10097e-06 2.8693e-06 1.27524e-06 3.18811e-07 0 0 9.55055e-07 3.82022e-06 8.59549e-06 1.52809e-05 2.38764e-05 3.4382e-05 4.67977e-05 6.11235e-05 7.77919e-05 9.72354e-05 0.000119454 0.000144447 0.000172216 0.00020276 0.000236079 0.000272172 0.000310271 0.000349604 0.000390171 0.000431973 0.000475009 0.00051928 0.000564785 0.000611525 0.00065868 0.00070543 0.000751776 0.000797718 0.000843255 0.000888388 0.000933116 0.000977441 0.00102087 0.00106291 0.00110355 0.00114281 0.00118068 0.00121716 0.00125225 0.00128595 0.00131805 0.00134834 0.00137682 0.00140348 0.00142834 0.00145138 0.00147261 0.00149203 0.00150962 0.00152537 0.00153928 0.00155134 0.00156155 0.00156993 0.00157646 0.00158114 0.00158408 0.00158535 0.00158497 0.00158294 0.00157924 0.00157389 0.00156688 0.00155822 0.00154803 0.00153647 0.00152353 0.0015092 0.00149349 0.00147641 0.00145794 0.00143809 0.00141702 0.00139487 0.00137165 0.00134734 0.00132197 0.00129552 0.00126799 0.00123939 0.00120989 0.00117965 0.00114868 0.00111698 0.00108455 0.00105139 0.00101749 0.000982866 0.000947729 0.000912305 0.000876594 0.000840597 0.000804312 0.00076774 0.000730881 0.000693736 0.000656622 0.00061986 0.00058345 0.000547392 0.000511685 0.000476329 0.000441326 0.000406674 0.000372819 0.000340208 0.000308841 0.000278717 0.000249837 0.000222201 0.000195807 0.000170658 0.000147096 0.000125467 0.000105771 8.80064e-05 7.21746e-05 5.82752e-05 4.63082e-05 3.62736e-05 2.77719e-05 2.04039e-05 1.41694e-05 9.06839e-06 5.10097e-06 2.2671e-06 5.66774e-07 0 0 1.49227e-06 5.96909e-06 1.34305e-05 2.38764e-05 3.73068e-05 5.37218e-05 7.31214e-05 9.55055e-05 0.00012155 0.00015193 0.000186647 0.000225699 0.000269088 0.000316812 0.000368873 0.000425269 0.000484798 0.000546256 0.000609643 0.000674958 0.000742202 0.000811375 0.000882477 0.000955508 0.00102919 0.00110223 0.00117465 0.00124643 0.00131759 0.00138811 0.00145799 0.00152725 0.00159511 0.00166079 0.0017243 0.00178564 0.00184481 0.00190181 0.00195664 0.0020093 0.00205945 0.00210678 0.00215128 0.00219294 0.00223178 0.00226778 0.00230095 0.0023313 0.00235879 0.00238339 0.00240512 0.00242396 0.00243993 0.00245301 0.00246321 0.00247053 0.00247512 0.00247711 0.00247652 0.00247334 0.00246757 0.00245921 0.00244826 0.00243472 0.0024188 0.00240074 0.00238051 0.00235813 0.00233359 0.00230689 0.00227803 0.00224702 0.00221409 0.00217948 0.0021432 0.00210523 0.00206558 0.00202425 0.00198124 0.00193655 0.00189045 0.00184321 0.00179482 0.00174529 0.00169461 0.00164279 0.00158983 0.00153573 0.00148083 0.00142548 0.00136968 0.00131343 0.00125674 0.00119959 0.001142 0.00108396 0.00102597 0.000968532 0.000911641 0.000855299 0.000799507 0.000744265 0.000689572 0.000635428 0.00058253 0.000531576 0.000482564 0.000435496 0.000390371 0.000347188 0.000305949 0.000266653 0.000229838 0.000196043 0.000165267 0.00013751 0.000112773 9.1055e-05 7.23565e-05 5.66774e-05 4.33937e-05 3.18811e-05 2.21396e-05 1.41694e-05 7.97027e-06 3.54234e-06 8.85585e-07 0 0 2.14887e-06 8.59549e-06 1.93399e-05 3.4382e-05 5.37218e-05 7.73595e-05 0.000105295 0.000137528 0.000175032 0.00021878 0.000268771 0.000325007 0.000387486 0.00045621 0.000531177 0.000612388 0.000698109 0.000786609 0.000877885 0.00097194 0.00106877 0.00116838 0.00127077 0.00137593 0.00148203 0.00158722 0.0016915 0.00179486 0.00189732 0.00199887 0.00209951 0.00219924 0.00229695 0.00239154 0.002483 0.00257133 0.00265653 0.00273861 0.00281756 0.00289339 0.00296561 0.00303376 0.00309784 0.00315783 0.00321376 0.0032656 0.00331337 0.00335707 0.00339665 0.00343209 0.00346337 0.00349051 0.0035135 0.00353233 0.00354703 0.00355757 0.00356417 0.00356705 0.00356619 0.00356161 0.0035533 0.00354126 0.00352549 0.00350599 0.00348308 0.00345706 0.00342793 0.0033957 0.00336036 0.00332192 0.00328037 0.00323571 0.0031883 0.00313846 0.0030862 0.00303153 0.00297443 0.00291492 0.00285298 0.00278863 0.00272225 0.00265422 0.00258454 0.00251321 0.00244024 0.00236562 0.00228936 0.00221145 0.00213239 0.00205269 0.00197234 0.00189134 0.0018097 0.00172742 0.00164448 0.00156091 0.0014774 0.00139469 0.00131276 0.00123163 0.00115129 0.00107174 0.000992983 0.000915016 0.000838843 0.000765469 0.000694892 0.000627114 0.000562134 0.000499951 0.000440567 0.00038398 0.000330967 0.000282302 0.000237984 0.000198015 0.000162393 0.000131119 0.000104193 8.16155e-05 6.24869e-05 4.59087e-05 3.18811e-05 2.04039e-05 1.14772e-05 5.10097e-06 1.27524e-06 0 0 2.92486e-06 1.16994e-05 2.63237e-05 4.67977e-05 7.31214e-05 0.000105295 0.000143318 0.000187191 0.000238238 0.000297783 0.000365828 0.00044237 0.000527412 0.000620952 0.00072299 0.000833528 0.000950204 0.00107066 0.0011949 0.00132292 0.00145472 0.0015903 0.00172966 0.0018728 0.00201721 0.00216038 0.00230231 0.00244301 0.00258247 0.00272069 0.00285767 0.00299341 0.00312641 0.00325515 0.00337963 0.00349986 0.00361584 0.00372755 0.00383502 0.00393822 0.00403653 0.00412929 0.0042165 0.00429816 0.00437428 0.00444485 0.00450987 0.00456934 0.00462322 0.00467145 0.00471403 0.00475097 0.00478226 0.0048079 0.0048279 0.00484224 0.00485123 0.00485515 0.00485398 0.00484775 0.00483643 0.00482005 0.00479858 0.00477205 0.00474086 0.00470544 0.0046658 0.00462193 0.00457383 0.0045215 0.00446495 0.00440417 0.00433962 0.00427179 0.00420066 0.00412624 0.00404853 0.00396753 0.00388323 0.00379564 0.00370528 0.00361268 0.00351784 0.00342076 0.00332144 0.00321988 0.00311607 0.00301003 0.00290242 0.00279393 0.00268457 0.00257433 0.00246321 0.0023512 0.00223832 0.00212457 0.00201091 0.00189832 0.00178682 0.00167639 0.00156703 0.00145876 0.00135156 0.00124544 0.00114176 0.00104189 0.000945826 0.000853572 0.000765126 0.000680489 0.00059966 0.00052264 0.000450483 0.000384244 0.000323923 0.00026952 0.000221035 0.000178468 0.000141819 0.000111088 8.50516e-05 6.24869e-05 4.33937e-05 2.77719e-05 1.56217e-05 6.94299e-06 1.73575e-06 0 0 3.82022e-06 1.52809e-05 3.4382e-05 6.11235e-05 9.55055e-05 0.000137528 0.000187191 0.000244494 0.000311168 0.000388942 0.000477816 0.00057779 0.000688864 0.000811039 0.000944314 0.00108869 0.00124108 0.00139842 0.00156069 0.00172789 0.00190004 0.00207712 0.00225914 0.0024461 0.00263472 0.00282172 0.0030071 0.00319087 0.00337302 0.00355355 0.00373247 0.00390976 0.00408347 0.00425162 0.00441421 0.00457125 0.00472272 0.00486864 0.005009 0.0051438 0.0052722 0.00539336 0.00550727 0.00561393 0.00571335 0.00580552 0.00589044 0.00596812 0.00603849 0.00610149 0.0061571 0.00620535 0.00624621 0.00627971 0.00630582 0.00632456 0.0063363 0.00634141 0.0063399 0.00633175 0.00631697 0.00629557 0.00626754 0.00623288 0.00619214 0.00614588 0.0060941 0.0060368 0.00597398 0.00590563 0.00583177 0.00575238 0.00566808 0.00557948 0.00548658 0.00538938 0.00528788 0.00518208 0.00507197 0.00495757 0.00483955 0.00471861 0.00459474 0.00446794 0.00433821 0.00420555 0.00406997 0.00393146 0.00379092 0.00364922 0.00350638 0.00336239 0.00321725 0.00307096 0.00292353 0.00277494 0.00262649 0.00247944 0.0023338 0.00218957 0.00204674 0.00190532 0.0017653 0.00162669 0.00149128 0.00136083 0.00123536 0.00111487 0.000999348 0.000888802 0.00078323 0.000682632 0.000588386 0.000501869 0.000423083 0.000352026 0.000288698 0.000233101 0.000185233 0.000145094 0.000111088 8.16155e-05 5.66774e-05 3.62736e-05 2.04039e-05 9.06839e-06 2.2671e-06 0 0 4.8644e-06 1.94576e-05 4.37796e-05 7.78304e-05 0.00012161 0.000175118 0.000238355 0.000311321 0.000396155 0.000494996 0.000607844 0.000734699 0.000875561 0.00103043 0.00119931 0.00138219 0.00157518 0.00177439 0.00197982 0.00219147 0.00240933 0.00263341 0.0028637 0.00310022 0.00333881 0.00357537 0.00380987 0.00404233 0.00427275 0.00450112 0.00472744 0.00495172 0.00517146 0.00538418 0.00558988 0.00578855 0.0059802 0.00616483 0.00634243 0.00651301 0.0066755 0.00682883 0.00697299 0.007108 0.00723384 0.00735052 0.00745804 0.00755639 0.00764551 0.00772529 0.00779573 0.00785685 0.00790864 0.00795109 0.00798421 0.008008 0.00802293 0.00802947 0.00802762 0.00801737 0.00799874 0.00797171 0.00793629 0.00789248 0.00784098 0.00778249 0.007717 0.00764453 0.00756506 0.0074786 0.00738514 0.0072847 0.00717803 0.00706592 0.00694837 0.00682537 0.00669692 0.00656303 0.00642369 0.00627891 0.00612955 0.00597649 0.00581972 0.00565924 0.00549507 0.00532718 0.0051556 0.0049803 0.00480243 0.00462311 0.00444234 0.00426011 0.00407644 0.00389131 0.00370473 0.0035167 0.00332883 0.00314274 0.00295842 0.00277588 0.00259511 0.00241612 0.00223891 0.00206347 0.00189206 0.00172692 0.00156805 0.00141545 0.00126912 0.00112907 0.000995287 0.000867777 0.000748285 0.000638553 0.000538582 0.000448372 0.000367923 0.000297235 0.000236308 0.000185142 0.000141749 0.000104142 7.23212e-05 4.62855e-05 2.60356e-05 1.15714e-05 2.89285e-06 0 0 6.08682e-06 2.43473e-05 5.47814e-05 9.73891e-05 0.000152171 0.000219126 0.000298254 0.000389557 0.000495534 0.000618689 0.000759021 0.000916531 0.00109122 0.00128308 0.00149212 0.00171834 0.00195694 0.00220312 0.00245689 0.00271825 0.00298719 0.00326371 0.00354782 0.00383951 0.00413374 0.00442544 0.00471462 0.00500128 0.00528542 0.00556704 0.00584613 0.00612271 0.0063937 0.00665605 0.00690977 0.00715484 0.00739127 0.00761907 0.00783822 0.00804874 0.00824929 0.00843856 0.00861654 0.00878323 0.00893864 0.00908276 0.0092156 0.00933715 0.00944731 0.00954595 0.00963307 0.00970869 0.0097728 0.00982539 0.00986647 0.00989604 0.00991467 0.00992293 0.00992083 0.00990837 0.00988554 0.00985234 0.00980879 0.00975486 0.00969144 0.00961937 0.00953865 0.0094493 0.0093513 0.00924466 0.00912938 0.00900546 0.00887385 0.00873551 0.00859044 0.00843863 0.0082801 0.00811484 0.00794285 0.00776413 0.00757976 0.00739081 0.00719729 0.0069992 0.00679654 0.0065893 0.00637749 0.0061611 0.00594153 0.00572018 0.00549704 0.0052721 0.00504539 0.00481688 0.00458658 0.0043545 0.00412261 0.00389291 0.00366538 0.00344003 0.00321687 0.00299588 0.00277708 0.00256046 0.00234876 0.00214474 0.00194841 0.00175975 0.00157877 0.00140547 0.00123984 0.0010819 0.000933788 0.000797668 0.000673538 0.000561398 0.000461248 0.000373088 0.000296918 0.000232739 0.000178191 0.000130916 9.09136e-05 5.81847e-05 3.27289e-05 1.45462e-05 3.63654e-06 0 0 7.48749e-06 2.995e-05 6.73874e-05 0.0001198 0.000187187 0.00026955 0.000366887 0.000479199 0.000609305 0.000760021 0.000931348 0.00112329 0.00133583 0.00156899 0.00182276 0.00209715 0.00238635 0.0026846 0.0029919 0.00330823 0.00363361 0.00396803 0.00431149 0.00466399 0.00501949 0.00537194 0.00572135 0.00606772 0.00641104 0.00675131 0.00708854 0.00742273 0.00775018 0.00806723 0.00837388 0.00867011 0.00895594 0.00923136 0.00949637 0.00975098 0.00999357 0.0102225 0.0104379 0.0106396 0.0108278 0.0110023 0.0111631 0.0113104 0.0114439 0.0115635 0.0116691 0.0117609 0.0118387 0.0119026 0.0119526 0.0119887 0.0120115 0.0120218 0.0120195 0.0120047 0.0119774 0.0119375 0.011885 0.01182 0.0117435 0.0116565 0.0115591 0.0114511 0.0113327 0.0112038 0.0110645 0.0109147 0.0107555 0.0105882 0.0104128 0.0102292 0.0100374 0.00983752 0.00962946 0.00941325 0.00919019 0.00896159 0.00872747 0.00848781 0.00824262 0.00799189 0.00773564 0.00747385 0.00720821 0.00694042 0.00667047 0.00639836 0.00612409 0.00584767 0.00556908 0.00528834 0.00500784 0.00472995 0.00445468 0.00418203 0.003912 0.0036446 0.00337981 0.00311764 0.00286139 0.00261432 0.00237645 0.00214777 0.00192829 0.00171799 0.0015169 0.00132499 0.0011449 0.000979215 0.000827951 0.000691104 0.000568673 0.00046066 0.000367063 0.000287884 0.000220411 0.000161935 0.000112455 7.1971e-05 4.04837e-05 1.79927e-05 4.49819e-06 0 0 9.0664e-06 3.62656e-05 8.15976e-05 0.000145062 0.00022666 0.00032639 0.000444254 0.00058025 0.000737466 0.000918991 0.00112482 0.00135496 0.00160941 0.00188817 0.00219123 0.00251861 0.00286343 0.00321884 0.00358483 0.00396142 0.00434859 0.00474635 0.00515471 0.00557364 0.00599607 0.00641488 0.00683007 0.00724164 0.0076496 0.00805394 0.00845467 0.00885178 0.00924091 0.00961772 0.00998221 0.0103344 0.0106742 0.0110017 0.0113169 0.0116197 0.0119083 0.0121808 0.0124371 0.0126772 0.0129012 0.013109 0.0133006 0.0134761 0.0136353 0.0137778 0.0139039 0.0140134 0.0141063 0.0141827 0.0142426 0.0142859 0.0143134 0.0143261 0.0143237 0.0143065 0.0142743 0.0142271 0.014165 0.0140879 0.0139972 0.0138939 0.0137782 0.01365 0.0135093 0.0133561 0.0131905 0.0130123 0.0128231 0.0126241 0.0124154 0.012197 0.0119689 0.0117311 0.0114835 0.0112262 0.0109608 0.0106888 0.0104102 0.0101251 0.00983331 0.00953497 0.00923005 0.00891855 0.00860247 0.00828383 0.00796263 0.00763887 0.00731255 0.00698367 0.00665223 0.00631823 0.0059845 0.00565386 0.00532632 0.00500187 0.00468052 0.00436227 0.00404711 0.00373504 0.00342993 0.00313564 0.00285217 0.00257951 0.00231768 0.00206666 0.00182645 0.00159707 0.00138161 0.00118319 0.00100182 0.000837489 0.000690199 0.00055995 0.000446743 0.000350578 0.000268411 0.0001972 0.000136944 8.76445e-05 4.93e-05 2.19111e-05 5.47778e-06 0 0 1.08236e-05 4.32942e-05 9.74121e-05 0.000173177 0.000270589 0.000389648 0.000530355 0.000692708 0.000880019 0.0010956 0.00133945 0.00161156 0.00191195 0.0022406 0.00259753 0.00298272 0.00338816 0.00380582 0.0042357 0.00467781 0.00513214 0.0055987 0.00607748 0.00656848 0.00706348 0.00755424 0.00804077 0.00852306 0.00900111 0.00947493 0.00994451 0.0104099 0.0108659 0.0113075 0.0117348 0.0121476 0.0125461 0.0129301 0.0132998 0.013655 0.0139936 0.0143133 0.0146141 0.014896 0.0151589 0.015403 0.0156281 0.0158343 0.0160214 0.0161891 0.0163374 0.0164662 0.0165757 0.0166658 0.0167364 0.0167877 0.0168205 0.0168357 0.0168334 0.0168136 0.0167762 0.0167212 0.0166487 0.0165586 0.0164525 0.0163316 0.0161961 0.0160459 0.0158811 0.0157015 0.0155073 0.0152984 0.0150765 0.0148431 0.0145983 0.0143421 0.0140745 0.0137955 0.013505 0.0132031 0.0128917 0.0125725 0.0122456 0.011911 0.0115686 0.0112185 0.0108607 0.0104952 0.0101243 0.00975042 0.00937353 0.00899365 0.00861077 0.0082249 0.00783603 0.00744416 0.0070526 0.00666465 0.0062803 0.00589955 0.00552242 0.00514889 0.00477896 0.00441264 0.0040544 0.00370871 0.00337557 0.00305498 0.00274694 0.00245145 0.0021685 0.00189811 0.00164393 0.0014096 0.00119515 0.00100055 0.000825824 0.000670959 0.000535958 0.00042082 0.000322191 0.000236712 0.000164383 0.000105205 5.91779e-05 2.63013e-05 6.57532e-06 0 0 1.2759e-05 5.10359e-05 0.000114831 0.000204143 0.000318974 0.000459323 0.000625189 0.000816574 0.00103696 0.00128985 0.00157522 0.00189309 0.00224345 0.0026263 0.00304165 0.00348948 0.00396054 0.00444555 0.0049445 0.00545741 0.00598426 0.00652506 0.0070798 0.0076485 0.00822172 0.00879003 0.00935345 0.00991196 0.0104656 0.0110143 0.0115581 0.012097 0.0126251 0.0131366 0.0136315 0.0141098 0.0145715 0.0150166 0.015445 0.0158568 0.0162494 0.0166201 0.0169689 0.0172959 0.017601 0.0178842 0.0181456 0.018385 0.0186023 0.0187972 0.0189695 0.0191194 0.0192468 0.0193517 0.0194342 0.0194941 0.0195327 0.0195508 0.0195486 0.0195261 0.0194831 0.0194198 0.0193362 0.0192321 0.0191094 0.0189696 0.0188128 0.0186389 0.018448 0.01824 0.018015 0.0177729 0.0175157 0.0172453 0.0169615 0.0166645 0.0163543 0.0160308 0.015694 0.0153439 0.0149828 0.0146126 0.0142336 0.0138455 0.0134485 0.0130426 0.0126277 0.0122038 0.0117737 0.0113402 0.0109032 0.0104627 0.0100188 0.00957134 0.00912047 0.00866614 0.00821214 0.0077623 0.00731661 0.00687508 0.00643769 0.00600446 0.00557538 0.00515045 0.0047348 0.00433353 0.00394665 0.00357417 0.00321607 0.00287237 0.00254306 0.00222813 0.00193185 0.00165845 0.00140793 0.0011803 0.00097555 0.000793686 0.000634707 0.000498612 0.00038175 0.000280469 0.00019477 0.000124653 7.01173e-05 3.11632e-05 7.79081e-06 0 0 1.48726e-05 5.94905e-05 0.000133854 0.000237962 0.000371815 0.000535414 0.000728758 0.000951847 0.0012083 0.00150173 0.00183214 0.00219954 0.00260391 0.00304526 0.00352359 0.0040389 0.00458059 0.00513803 0.00571124 0.00630021 0.00690494 0.00752543 0.00816168 0.0088137 0.00947078 0.0101223 0.0107681 0.0114083 0.012043 0.012672 0.0132954 0.0139131 0.0145186 0.0151051 0.0156725 0.016221 0.0167505 0.0172611 0.0177526 0.0182251 0.0186756 0.0191011 0.0195016 0.019877 0.0202273 0.0205527 0.020853 0.0211282 0.0213781 0.0216021 0.0218004 0.0219729 0.0221196 0.0222406 0.0223357 0.0224051 0.0224499 0.0224713 0.0224693 0.0224439 0.0223951 0.0223229 0.0222273 0.0221084 0.0219679 0.0218078 0.0216282 0.0214289 0.0212101 0.0209716 0.0207136 0.0204359 0.0201409 0.0198306 0.019505 0.0191642 0.0188082 0.0184369 0.0180504 0.0176486 0.017234 0.0168092 0.0163741 0.0159287 0.0154731 0.0150071 0.0145309 0.0140444 0.0135507 0.0130531 0.0125515 0.012046 0.0115365 0.011023 0.0105056 0.00998415 0.00946313 0.00894683 0.00843527 0.00792844 0.00742635 0.00692899 0.00643636 0.00594847 0.00547111 0.00501009 0.00456542 0.00413708 0.00372508 0.00332942 0.00295011 0.00258713 0.00224537 0.00192972 0.00164017 0.00137672 0.00113938 0.000928132 0.000742991 0.000583952 0.000447088 0.000328473 0.000228106 0.000145988 8.21182e-05 3.6497e-05 9.12424e-06 0 0 1.71645e-05 6.8658e-05 0.000154481 0.000274632 0.000429113 0.000617922 0.000841061 0.00109853 0.00139403 0.00173125 0.00211021 0.0025309 0.00299333 0.00349748 0.00404336 0.00463098 0.00524829 0.00588326 0.00653591 0.00720621 0.00789418 0.00859981 0.00932311 0.0100641 0.0108107 0.0115509 0.0122848 0.0130122 0.0137333 0.014448 0.0151563 0.0158583 0.0165463 0.0172128 0.0178578 0.0184812 0.0190832 0.0196636 0.0202225 0.0207599 0.0212724 0.0217564 0.022212 0.0226392 0.023038 0.0234084 0.0237503 0.0240639 0.0243486 0.024604 0.02483 0.0250268 0.0251942 0.0253324 0.0254412 0.0255207 0.0255723 0.0255972 0.0255955 0.0255671 0.0255121 0.0254305 0.0253223 0.0251874 0.025028 0.0248463 0.0246423 0.024416 0.0241673 0.0238963 0.023603 0.0232874 0.0229519 0.022599 0.0222288 0.0218412 0.0214362 0.0210139 0.0205742 0.0201171 0.0196455 0.0191623 0.0186673 0.0181606 0.0176422 0.0171121 0.0165703 0.0160169 0.0154553 0.0148892 0.0143186 0.0137436 0.013164 0.0125799 0.0119913 0.0113982 0.0108055 0.0102182 0.00963627 0.00905965 0.00848839 0.00792247 0.00736191 0.00680669 0.00626335 0.0057384 0.00523186 0.00474371 0.00427396 0.00382261 0.00338966 0.0029751 0.00258451 0.00222343 0.00189187 0.00158983 0.0013173 0.0010743 0.000860809 0.00067684 0.000518206 0.000380723 0.000264391 0.00016921 9.51807e-05 4.23025e-05 1.05756e-05 0 0 1.95877e-05 7.83509e-05 0.00017629 0.000313404 0.000489693 0.000705158 0.000959799 0.00125361 0.00159035 0.00197374 0.00240379 0.00288051 0.00340388 0.00397391 0.0045906 0.00525396 0.00595044 0.00666654 0.00740224 0.00815756 0.00893248 0.00972702 0.0105412 0.0113749 0.0122149 0.0130477 0.0138733 0.0146917 0.0155029 0.016307 0.0171039 0.0178936 0.0186676 0.0194175 0.0201433 0.0208449 0.0215224 0.0221758 0.022805 0.0234101 0.0239871 0.0245322 0.0250454 0.0255267 0.0259761 0.0263935 0.026779 0.0271325 0.0274536 0.0277417 0.0279969 0.028219 0.0284082 0.0285644 0.0286876 0.0287778 0.0288365 0.0288651 0.0288638 0.0288325 0.0287711 0.0286797 0.0285584 0.0284069 0.0282279 0.0280238 0.0277944 0.0275398 0.0272601 0.0269552 0.0266251 0.0262698 0.0258922 0.0254949 0.0250781 0.0246417 0.0241857 0.0237101 0.023215 0.0227002 0.0221691 0.0216248 0.0210673 0.0204967 0.0199128 0.0193158 0.0187057 0.0180823 0.0174498 0.0168123 0.0161697 0.0155221 0.0148693 0.0142116 0.0135487 0.0128808 0.0122134 0.0115519 0.0108964 0.0102469 0.00960344 0.00896591 0.00833436 0.00770879 0.00709648 0.00650468 0.0059334 0.00538263 0.00485238 0.00434265 0.00385344 0.00338474 0.00294283 0.002534 0.00215824 0.00181555 0.00150593 0.00122938 0.000985899 0.000775491 0.000593735 0.000436214 0.000302926 0.000193873 0.000109053 4.84682e-05 1.2117e-05 0 0 2.20953e-05 8.83813e-05 0.000198858 0.000353525 0.000552383 0.000795432 0.00108267 0.0014141 0.00179347 0.00222451 0.00270724 0.00324165 0.00382774 0.00446551 0.00515496 0.00589609 0.00667384 0.00747314 0.00829399 0.00913639 0.0100003 0.0108858 0.0117929 0.0127215 0.0136568 0.0145842 0.0155035 0.0164149 0.0173182 0.0182135 0.0191008 0.01998 0.0208419 0.021677 0.0224852 0.0232666 0.0240213 0.0247491 0.0254501 0.0261243 0.0267674 0.0273749 0.027947 0.0284835 0.0289845 0.02945 0.0298801 0.0302746 0.030633 0.0309546 0.0312396 0.0314877 0.0316992 0.0318739 0.0320118 0.0321131 0.0321792 0.0322118 0.032211 0.0321767 0.0321089 0.0320077 0.031873 0.0317048 0.0315058 0.0312787 0.0310235 0.0307402 0.0304288 0.0300893 0.0297217 0.0293259 0.0289053 0.0284627 0.0279983 0.027512 0.0270039 0.026474 0.0259221 0.0253485 0.0247565 0.0241499 0.0235286 0.0228926 0.0222419 0.0215765 0.0208964 0.0202017 0.0194967 0.0187862 0.01807 0.0173482 0.0166207 0.0158876 0.0151489 0.0144045 0.0136606 0.0129233 0.0121926 0.0114686 0.0107511 0.0100403 0.00933606 0.00863845 0.00795547 0.00729513 0.00665744 0.0060424 0.00545001 0.00488027 0.00433317 0.00380873 0.00331395 0.00285588 0.0024345 0.00204983 0.00170185 0.00139058 0.001116 0.000878118 0.000672309 0.000493941 0.000343015 0.000219529 0.000123485 5.48824e-05 1.37206e-05 0 0 2.46873e-05 9.87493e-05 0.000222186 0.000394997 0.000617183 0.000888744 0.00120968 0.00157999 0.00200338 0.00248357 0.00302056 0.00361433 0.00426491 0.00497227 0.00573643 0.00655739 0.00741849 0.00830307 0.00921114 0.0101427 0.0110977 0.0120763 0.0130783 0.0141038 0.0151366 0.0161605 0.0171756 0.0181818 0.0191791 0.0201675 0.021147 0.0221177 0.0230692 0.0239911 0.0248835 0.0257464 0.0265798 0.0273836 0.0281579 0.0289027 0.0296131 0.0302844 0.0309166 0.0315096 0.0320634 0.0325781 0.0330537 0.0334901 0.0338866 0.0342426 0.034558 0.0348329 0.0350672 0.0352609 0.0354141 0.0355267 0.0356005 0.0356373 0.035637 0.0355998 0.0355256 0.0354143 0.0352661 0.0350808 0.0348615 0.0346111 0.0343296 0.034017 0.0336733 0.0332986 0.0328927 0.0324557 0.0319911 0.0315023 0.0309894 0.0304522 0.0298909 0.0293054 0.0286957 0.0280619 0.0274078 0.0267375 0.026051 0.0253483 0.0246293 0.0238941 0.0231426 0.0223749 0.021596 0.0208109 0.0200195 0.0192219 0.018418 0.017608 0.0167917 0.0159692 0.0151472 0.0143324 0.0135248 0.0127245 0.0119315 0.0111456 0.010367 0.00959566 0.00884032 0.00810976 0.007404 0.00672303 0.00606685 0.00543546 0.00482887 0.00424707 0.00369786 0.00318906 0.00272066 0.00229267 0.00190508 0.00155789 0.0012511 0.000984721 0.000753927 0.000553905 0.000384656 0.00024618 0.000138476 6.1545e-05 1.53863e-05 0 0 2.73637e-05 0.000109455 0.000246274 0.00043782 0.000684093 0.000985094 0.00134082 0.00175128 0.0022201 0.00275092 0.00334374 0.00399856 0.00471538 0.0054942 0.00633502 0.00723785 0.00818438 0.00915633 0.0101537 0.0111765 0.0122247 0.0132983 0.0143974 0.0155218 0.0166541 0.0177766 0.0188894 0.0199923 0.0210855 0.022169 0.0232426 0.0243065 0.0253494 0.0263599 0.0273382 0.0282842 0.0291978 0.0300792 0.0309283 0.0317451 0.0325244 0.0332607 0.0339543 0.0346049 0.0352127 0.0357777 0.0362998 0.036779 0.0372146 0.0376057 0.0379524 0.0382545 0.0385122 0.0387255 0.0388942 0.0390185 0.0391003 0.0391414 0.0391419 0.0391018 0.0390211 0.0388997 0.0387378 0.0385352 0.0382952 0.0380211 0.0377128 0.0373704 0.0369938 0.0365831 0.0361382 0.0356591 0.0351497 0.0346138 0.0340513 0.0334622 0.0328466 0.0322044 0.0315357 0.0308405 0.030123 0.0293877 0.0286347 0.0278638 0.0270751 0.0262686 0.0254442 0.0246021 0.0237476 0.0228863 0.0220182 0.0211432 0.0202614 0.0193727 0.0184772 0.0175749 0.0166731 0.0157791 0.014893 0.0140148 0.0131444 0.0122819 0.0114272 0.0105804 0.00975103 0.00894857 0.00817306 0.0074245 0.00670289 0.00600823 0.00534052 0.00469976 0.00409456 0.00353354 0.00301671 0.00254406 0.0021156 0.00173132 0.00139122 0.0010953 0.000838589 0.000616106 0.000427851 0.000273825 0.000154026 6.84562e-05 1.71141e-05 0 0 3.01245e-05 0.000120498 0.000271121 0.000481992 0.000753113 0.00108448 0.0014761 0.00192797 0.00244361 0.00302655 0.00367679 0.00439433 0.00517916 0.0060313 0.00695073 0.00793746 0.00897151 0.0100329 0.0111217 0.0122378 0.0133812 0.014552 0.0157501 0.0169756 0.0182094 0.0194325 0.0206449 0.0218466 0.0230376 0.024218 0.0253876 0.0265465 0.0276825 0.0287835 0.0298493 0.03088 0.0318756 0.032836 0.0337614 0.0346517 0.0355011 0.0363039 0.03706 0.0377696 0.0384325 0.0390487 0.0396184 0.0401414 0.0406169 0.0410439 0.0414225 0.0417526 0.0420343 0.0422675 0.0424523 0.0425887 0.0426786 0.0427243 0.0427256 0.0426827 0.0425954 0.0424639 0.042288 0.0420678 0.0418068 0.0415086 0.041173 0.0408002 0.0403901 0.0399428 0.0394581 0.0389362 0.0383811 0.0377971 0.037184 0.036542 0.0358711 0.0351711 0.0344421 0.0336842 0.0329021 0.0321005 0.0312795 0.0304391 0.0295792 0.0287 0.0278013 0.0268832 0.0259516 0.0250126 0.0240661 0.0231121 0.0221507 0.0211818 0.0202055 0.0192217 0.0182384 0.0172636 0.0162973 0.0153394 0.01439 0.0134491 0.0125167 0.0115928 0.0106876 0.00981156 0.00896464 0.00814683 0.00735815 0.00659858 0.00586813 0.0051668 0.00450405 0.00388933 0.00332266 0.00280402 0.00233342 0.00191086 0.00153634 0.00120985 0.000926294 0.000680543 0.000472599 0.000302463 0.000170136 7.56159e-05 1.8904e-05 0 0 3.29697e-05 0.000131879 0.000296727 0.000527515 0.000824242 0.00118691 0.00161552 0.00211006 0.00267392 0.00331047 0.00401971 0.00480163 0.00565625 0.00658356 0.00758355 0.00865623 0.0097799 0.0109328 0.012115 0.0133265 0.0145673 0.0158373 0.0171365 0.0184651 0.0198025 0.0211282 0.0224422 0.02