<?xml version="1.0"?> 
<VTKFile type="StructuredGrid" version="0.1"> 
<StructuredGrid WholeExtent="0 128 0 128 0 0"> 
<Piece Extent="0 128 0 128 0 0"> 
<PointData>
<DataArray type="Float32" Name="u" format="ascii" NumberOfComponents="1"> 
0 0 0 0 0 0 0 0 0 0 0 0 0 0 0 0 0 0 0 0 0 0 0 0 0 0 0 0 0 0 0 0 0 0 0 0 0 0 0 0 0 0 0 0 0 0 0 0 0 0 0 0 0 0 0 0 0 0 0 0 0 0 0 0 0 0 0 0 0 0 0 0 0 0 0 0 0 0 0 0 0 0 0 0 0 0 0 0 0 0 0 0 0 0 0 0 0 0 0 0 0 0 0 0 0 0 0 0 0 0 0 0 0 0 0 0 0 0 0 0 0 0 0 0 0 0 0 0 0 0 6.16565e-08 2.46626e-07 5.54909e-07 9.86504e-07 1.54141e-06 2.21963e-06 3.02117e-06 3.94602e-06 5.0213e-06 6.27414e-06 7.70453e-06 9.31249e-06 1.1098e-05 1.30611e-05 1.52017e-05 1.75199e-05 1.99645e-05 2.24844e-05 2.50795e-05 2.775e-05 3.04958e-05 3.33168e-05 3.62132e-05 3.91848e-05 4.21784e-05 4.51408e-05 4.8072e-05 5.09719e-05 5.38405e-05 5.6678e-05 5.94841e-05 6.2259e-05 6.49724e-05 6.75939e-05 7.01234e-05 7.25611e-05 7.49069e-05 7.71608e-05 7.93229e-05 8.1393e-05 8.33604e-05 8.52142e-05 8.69543e-05 8.85809e-05 9.00938e-05 9.14931e-05 9.27788e-05 9.39508e-05 9.50109e-05 9.59604e-05 9.67994e-05 9.75279e-05 9.81459e-05 9.86535e-05 9.90505e-05 9.9337e-05 9.95201e-05 9.96068e-05 9.9597e-05 9.94909e-05 9.92883e-05 9.89893e-05 9.85939e-05 9.81021e-05 9.75216e-05 9.686e-05 9.61173e-05 9.52935e-05 9.43887e-05 9.34027e-05 9.23357e-05 9.11876e-05 8.99652e-05 8.86753e-05 8.73177e-05 8.58926e-05 8.44e-05 8.28397e-05 8.12119e-05 7.95165e-05 7.77611e-05 7.59533e-05 7.40929e-05 7.218e-05 7.02147e-05 6.81969e-05 6.61266e-05 6.40038e-05 6.18407e-05 5.96491e-05 5.74293e-05 5.5181e-05 5.29045e-05 5.05996e-05 4.82664e-05 4.59048e-05 4.35357e-05 4.11799e-05 3.88373e-05 3.6508e-05 3.41921e-05 3.18894e-05 2.95999e-05 2.73238e-05 2.50926e-05 2.29382e-05 2.08604e-05 1.88593e-05 1.69349e-05 1.50872e-05 1.33162e-05 1.16219e-05 1.00304e-05 8.56782e-06 7.23411e-06 6.0293e-06 4.95339e-06 4.00638e-06 3.18827e-06 2.49905e-06 1.91334e-06 1.40572e-06 9.76193e-07 6.24763e-07 3.51429e-07 1.56191e-07 3.90477e-08 0 0 2.46626e-07 9.86504e-07 2.21963e-06 3.94602e-06 6.16565e-06 8.87854e-06 1.20847e-05 1.57841e-05 2.00852e-05 2.50966e-05 3.08181e-05 3.72499e-05 4.4392e-05 5.22443e-05 6.08067e-05 7.00795e-05 7.98579e-05 8.99375e-05 0.000100318 0.000111 0.000121983 0.000133267 0.000144853 0.000156739 0.000168714 0.000180563 0.000192288 0.000203888 0.000215362 0.000226712 0.000237936 0.000249036 0.00025989 0.000270375 0.000280494 0.000290244 0.000299628 0.000308643 0.000317291 0.000325572 0.000333442 0.000340857 0.000347817 0.000354323 0.000360375 0.000365972 0.000371115 0.000375803 0.000380043 0.000383841 0.000387198 0.000390112 0.000392584 0.000394614 0.000396202 0.000397348 0.00039808 0.000398427 0.000398388 0.000397963 0.000397153 0.000395957 0.000394376 0.000392409 0.000390086 0.00038744 0.000384469 0.000381174 0.000377555 0.000373611 0.000369343 0.000364751 0.000359861 0.000354701 0.000349271 0.000343571 0.0003376 0.000331359 0.000324848 0.000318066 0.000311045 0.000303813 0.000296372 0.00028872 0.000280859 0.000272788 0.000264506 0.000256015 0.000247363 0.000238596 0.000229717 0.000220724 0.000211618 0.000202398 0.000193065 0.000183619 0.000174143 0.000164719 0.000155349 0.000146032 0.000136768 0.000127557 0.0001184 0.000109295 0.000100371 9.17526e-05 8.34416e-05 7.54373e-05 6.77397e-05 6.0349e-05 5.3265e-05 4.64877e-05 4.01217e-05 3.42713e-05 2.89364e-05 2.41172e-05 1.98136e-05 1.60255e-05 1.27531e-05 9.99621e-06 7.65335e-06 5.62287e-06 3.90477e-06 2.49905e-06 1.40572e-06 6.24763e-07 1.56191e-07 0 0 5.54909e-07 2.21963e-06 4.99418e-06 8.87854e-06 1.38727e-05 1.99767e-05 2.71905e-05 3.55141e-05 4.51917e-05 5.64672e-05 6.93408e-05 8.38124e-05 9.9882e-05 0.00011755 0.000136815 0.000157679 0.00017968 0.000202359 0.000225716 0.00024975 0.000274462 0.000299851 0.000325918 0.000352663 0.000379606 0.000406267 0.000432648 0.000458747 0.000484565 0.000510102 0.000535357 0.000560331 0.000584752 0.000608345 0.000631111 0.00065305 0.000674162 0.000694448 0.000713906 0.000732537 0.000750244 0.000766928 0.000782589 0.000797228 0.000810844 0.000823438 0.000835009 0.000845558 0.000855098 0.000863643 0.000871194 0.000877751 0.000883313 0.000887881 0.000891454 0.000894033 0.000895681 0.000896461 0.000896373 0.000895418 0.000893595 0.000890904 0.000887345 0.000882919 0.000877694 0.00087174 0.000865055 0.000857642 0.000849498 0.000840625 0.000831022 0.000820689 0.000809687 0.000798077 0.00078586 0.000773034 0.0007596 0.000745558 0.000730907 0.000715649 0.00069985 0.000683579 0.000666836 0.00064962 0.000631932 0.000613772 0.00059514 0.000576035 0.000556566 0.000536842 0.000516863 0.000496629 0.00047614 0.000455396 0.000434397 0.000413143 0.000391821 0.000370619 0.000349536 0.000328572 0.000307729 0.000287004 0.000266399 0.000245914 0.000225834 0.000206443 0.000187744 0.000169734 0.000152414 0.000135785 0.000119846 0.000104597 9.02739e-05 7.71104e-05 6.5107e-05 5.42637e-05 4.45805e-05 3.60574e-05 2.86944e-05 2.24915e-05 1.722e-05 1.26515e-05 8.78573e-06 5.62287e-06 3.16286e-06 1.40572e-06 3.51429e-07 0 0 9.86504e-07 3.94602e-06 8.87854e-06 1.57841e-05 2.46626e-05 3.55141e-05 4.83387e-05 6.31363e-05 8.03408e-05 0.000100386 0.000123273 0.000149 0.000177568 0.000208977 0.000243227 0.000280318 0.000319432 0.00035975 0.000401273 0.000444 0.000487932 0.000533069 0.00057941 0.000626956 0.000674855 0.000722253 0.000769152 0.00081555 0.000861449 0.000906847 0.000951746 0.000996145 0.00103956 0.0010815 0.00112197 0.00116098 0.00119851 0.00123457 0.00126917 0.00130229 0.00133377 0.00136343 0.00139127 0.00141729 0.0014415 0.00146389 0.00148446 0.00150321 0.00152017 0.00153537 0.00154879 0.00156045 0.00157033 0.00157846 0.00158481 0.00158939 0.00159232 0.00159371 0.00159355 0.00159185 0.00158861 0.00158383 0.0015775 0.00156963 0.00156035 0.00154976 0.00153788 0.0015247 0.00151022 0.00149444 0.00147737 0.001459 0.00143944 0.0014188 0.00139708 0.00137428 0.0013504 0.00132544 0.00129939 0.00127226 0.00124418 0.00121525 0.00118549 0.00115488 0.00112344 0.00109115 0.00105803 0.00102406 0.00098945 0.000954386 0.000918868 0.000882897 0.000846472 0.000809594 0.000772262 0.000734477 0.000696571 0.000658878 0.000621397 0.000584129 0.000547073 0.00051023 0.000473599 0.000437181 0.000401482 0.000367011 0.000333766 0.000301749 0.000270959 0.000241396 0.00021306 0.000185951 0.000160487 0.000137085 0.000115746 9.64688e-05 7.92542e-05 6.4102e-05 5.10123e-05 3.99848e-05 3.06134e-05 2.24915e-05 1.56191e-05 9.99621e-06 5.62287e-06 2.49905e-06 6.24763e-07 0 0 1.54141e-06 6.16565e-06 1.38727e-05 2.46626e-05 3.85353e-05 5.54909e-05 7.55292e-05 9.86504e-05 0.000125532 0.000156853 0.000192613 0.000232812 0.00027745 0.000326527 0.000380042 0.000437997 0.000499112 0.000562109 0.000626989 0.00069375 0.000762394 0.00083292 0.000905329 0.00097962 0.00105446 0.00112852 0.0012018 0.0012743 0.00134601 0.00141695 0.0014871 0.00155648 0.00162431 0.00168985 0.00175309 0.00181403 0.00187267 0.00192902 0.00198307 0.00203483 0.00208401 0.00213035 0.00217386 0.00221452 0.00225234 0.00228733 0.00231947 0.00234877 0.00237527 0.00239901 0.00241998 0.0024382 0.00245365 0.00246634 0.00247626 0.00248343 0.002488 0.00249017 0.00248993 0.00248727 0.00248221 0.00247473 0.00246485 0.00245255 0.00243804 0.0024215 0.00240293 0.00238234 0.00235972 0.00233507 0.00230839 0.00227969 0.00224913 0.00221688 0.00218294 0.00214732 0.00211 0.00207099 0.0020303 0.00198791 0.00194403 0.00189883 0.00185232 0.0018045 0.00175537 0.00170492 0.00165317 0.0016001 0.00154602 0.00149123 0.00143573 0.00137953 0.00132261 0.00126499 0.00120666 0.00114762 0.00108839 0.0010295 0.000970933 0.000912701 0.000854801 0.000797234 0.000739998 0.000683095 0.000627316 0.000573454 0.00052151 0.000471483 0.000423373 0.000377181 0.000332906 0.000290548 0.000250761 0.000214196 0.000180853 0.000150733 0.000123835 0.000100159 7.97066e-05 6.24763e-05 4.78334e-05 3.51429e-05 2.44048e-05 1.56191e-05 8.78573e-06 3.90477e-06 9.76193e-07 0 0 2.21963e-06 8.87854e-06 1.99767e-05 3.55141e-05 5.54909e-05 7.99068e-05 0.000108762 0.000142057 0.000180767 0.000225869 0.000277363 0.00033525 0.000399528 0.000470198 0.000547261 0.000630715 0.000718721 0.000809437 0.000902864 0.000999 0.00109785 0.00119941 0.00130367 0.00141065 0.00151842 0.00162507 0.00173059 0.00183499 0.00193826 0.00204041 0.00214143 0.00224133 0.00233901 0.00243338 0.00252444 0.0026122 0.00269665 0.00277779 0.00285562 0.00293015 0.00300097 0.00306771 0.00313036 0.00318891 0.00324338 0.00329375 0.00334004 0.00338223 0.00342039 0.00345457 0.00348478 0.003511 0.00353325 0.00355152 0.00356582 0.00357613 0.00358272 0.00358584 0.00358549 0.00358167 0.00357438 0.00356362 0.00354938 0.00353168 0.00351078 0.00348696 0.00346022 0.00343057 0.00339799 0.0033625 0.00332409 0.00328276 0.00323875 0.00319231 0.00314344 0.00309213 0.0030384 0.00298223 0.00292363 0.0028626 0.0027994 0.00273432 0.00266734 0.00259848 0.00252773 0.00245509 0.00238056 0.00230414 0.00222626 0.00214737 0.00206745 0.00198652 0.00190456 0.00182159 0.00173759 0.00165257 0.00156728 0.00148247 0.00139814 0.00131429 0.00123091 0.00114802 0.0010656 0.000983656 0.000903335 0.000825774 0.000750974 0.000678935 0.000609657 0.000543141 0.000479385 0.00041839 0.000361095 0.000308442 0.000260428 0.000217055 0.000178322 0.00014423 0.000114778 8.99659e-05 6.88801e-05 5.06058e-05 3.51429e-05 2.24915e-05 1.26515e-05 5.62287e-06 1.40572e-06 0 0 3.02117e-06 1.20847e-05 2.71905e-05 4.83387e-05 7.55292e-05 0.000108762 0.000148037 0.000193355 0.000246044 0.000307433 0.000377522 0.000456312 0.000543802 0.000639992 0.000744883 0.000858474 0.000978259 0.00110173 0.0012289 0.00135975 0.00149429 0.00163252 0.00177444 0.00192005 0.00206674 0.0022119 0.00235553 0.00249762 0.00263819 0.00277722 0.00291472 0.00305069 0.00318365 0.0033121 0.00343605 0.00355549 0.00367044 0.00378088 0.00388682 0.00398826 0.00408466 0.00417549 0.00426076 0.00434046 0.0044146 0.00448316 0.00454616 0.00460359 0.00465553 0.00470206 0.00474317 0.00477887 0.00480915 0.00483402 0.00485347 0.00486751 0.00487649 0.00488073 0.00488025 0.00487505 0.00486513 0.00485048 0.0048311 0.004807 0.00477856 0.00474614 0.00470975 0.00466938 0.00462504 0.00457673 0.00452445 0.00446819 0.0044083 0.00434509 0.00427857 0.00420874 0.0041356 0.00405915 0.00397938 0.00389631 0.0038103 0.00372171 0.00363055 0.00353682 0.00344052 0.00334165 0.0032402 0.00313619 0.00303019 0.00292281 0.00281403 0.00270387 0.00259232 0.00247938 0.00236505 0.00224933 0.00213325 0.00201781 0.00190303 0.00178889 0.00167541 0.00156258 0.0014504 0.00133887 0.00122954 0.00112397 0.00102216 0.000924106 0.000829812 0.000739275 0.000652496 0.000569475 0.000491491 0.000419823 0.000354471 0.000295436 0.000242716 0.000196313 0.000156225 0.000122454 9.37535e-05 6.88801e-05 4.78334e-05 3.06134e-05 1.722e-05 7.65335e-06 1.91334e-06 0 0 3.94602e-06 1.57841e-05 3.55141e-05 6.31363e-05 9.86504e-05 0.000142057 0.000193355 0.000252545 0.000321363 0.000401545 0.00049309 0.000595999 0.000710272 0.000835908 0.000972908 0.00112127 0.00127773 0.001439 0.00160509 0.001776 0.00195173 0.00213228 0.00231764 0.00250783 0.00269942 0.00288901 0.00307661 0.0032622 0.00344579 0.00362739 0.00380698 0.00398458 0.00415823 0.00432601 0.0044879 0.00464391 0.00479404 0.00493829 0.00507666 0.00520915 0.00533507 0.00545371 0.00556508 0.00566918 0.005766 0.00585556 0.00593784 0.00601285 0.00608069 0.00614146 0.00619516 0.00624179 0.00628134 0.00631382 0.00633923 0.00635757 0.00636929 0.00637483 0.00637421 0.00636742 0.00635445 0.00633532 0.00631001 0.00627854 0.00624138 0.00619904 0.00615151 0.00609878 0.00604087 0.00597777 0.00590949 0.00583601 0.00575778 0.00567522 0.00558834 0.00549713 0.0054016 0.00530174 0.00519756 0.00508906 0.00497671 0.00486101 0.00474195 0.00461952 0.00449374 0.0043646 0.0042321 0.00409625 0.0039578 0.00381754 0.00367547 0.00353159 0.00338589 0.00323837 0.00308905 0.00293791 0.00278628 0.00263551 0.00248559 0.00233651 0.00218829 0.00204092 0.0018944 0.00174872 0.00160593 0.00146804 0.00133507 0.001207 0.00108384 0.000965583 0.000852239 0.000743804 0.000641947 0.00054834 0.000462983 0.000385875 0.000317017 0.000256408 0.000204049 0.000159939 0.000122454 8.99659e-05 6.24763e-05 3.99848e-05 2.24915e-05 9.99621e-06 2.49905e-06 0 0 5.02558e-06 2.01023e-05 4.52302e-05 8.04092e-05 0.000125639 0.000180921 0.000246253 0.000321637 0.000409216 0.000511137 0.000627398 0.000758 0.000902942 0.00106223 0.00123585 0.00142381 0.00162198 0.00182622 0.00203652 0.00225288 0.00247532 0.00270382 0.00293838 0.00317901 0.00342141 0.00366128 0.00389863 0.00413344 0.00436573 0.00459549 0.00482272 0.00504742 0.00526714 0.00547943 0.0056843 0.00588172 0.00607172 0.00625429 0.00642943 0.00659713 0.00675653 0.00690672 0.00704772 0.00717953 0.00730214 0.00741556 0.00751978 0.00761481 0.00770076 0.00777776 0.00784581 0.00790492 0.00795507 0.00799627 0.00802852 0.00805182 0.00806674 0.00807384 0.00807313 0.0080646 0.00804826 0.0080241 0.00799213 0.00795234 0.00790536 0.00785181 0.00779167 0.00772497 0.00765169 0.00757184 0.00748541 0.0073924 0.00729337 0.00718887 0.00707889 0.00696343 0.00684249 0.00671607 0.00658418 0.00644681 0.00630458 0.00615809 0.00600736 0.00585237 0.00569314 0.00552965 0.00536192 0.00518993 0.00501467 0.00483712 0.00465728 0.00447515 0.00429072 0.004104 0.00391499 0.00372369 0.00353177 0.00334093 0.00315117 0.00296247 0.00277485 0.00258831 0.00240283 0.00221843 0.00203766 0.00186308 0.00169469 0.00153249 0.00137647 0.00122664 0.00108301 0.000945554 0.000816407 0.000697676 0.000589364 0.000491469 0.000403991 0.000326931 0.000260289 0.000204064 0.000156236 0.000114786 7.97125e-05 5.1016e-05 2.86965e-05 1.2754e-05 3.1885e-06 0 0 6.29125e-06 2.5165e-05 5.66212e-05 0.00010066 0.000157281 0.000226485 0.000308271 0.00040264 0.000512095 0.00063914 0.000783776 0.000946002 0.00112582 0.00132322 0.00153822 0.00177081 0.00201589 0.00226837 0.00252825 0.00279553 0.00307021 0.0033523 0.00364178 0.00393866 0.00423768 0.00453359 0.00482639 0.00511607 0.00540264 0.00568609 0.00596643 0.00624366 0.00651476 0.00677671 0.00702953 0.00727321 0.00750774 0.00773313 0.00794939 0.0081565 0.00835337 0.00853892 0.00871313 0.00887601 0.00902756 0.00916778 0.00929667 0.00941423 0.0095206 0.00961592 0.00970019 0.00977341 0.00983558 0.0098867 0.00992677 0.00995579 0.00997445 0.00998345 0.00998279 0.00997246 0.00995247 0.00992281 0.00988349 0.0098345 0.00977661 0.00971059 0.00963643 0.00955413 0.0094637 0.00936513 0.00925842 0.00914358 0.00902128 0.00889221 0.00875637 0.00861375 0.00846436 0.00830819 0.00814525 0.00797554 0.00779981 0.00761884 0.00743263 0.00724117 0.00704446 0.00684251 0.00663531 0.00642286 0.00620639 0.00598709 0.00576497 0.00554003 0.00531227 0.00508169 0.00484829 0.00461207 0.0043751 0.00413944 0.00390511 0.00367209 0.00344039 0.00321001 0.00298095 0.00275321 0.00252991 0.00231419 0.00210604 0.00190546 0.00171246 0.00152704 0.00134918 0.0011789 0.00101881 0.000871514 0.000737014 0.000615311 0.000506405 0.000410296 0.000326984 0.000256468 0.000196358 0.000144263 0.000100183 6.4117e-05 3.60658e-05 1.60293e-05 4.00731e-06 0 0 7.74303e-06 3.09721e-05 6.96873e-05 0.000123889 0.000193576 0.000278749 0.000379409 0.000495554 0.000629999 0.000785556 0.000962224 0.00116001 0.0013789 0.0016189 0.00188002 0.00216225 0.00245945 0.00276546 0.00308029 0.00340395 0.00373642 0.00407771 0.00442783 0.00478676 0.00514822 0.00550593 0.00585988 0.00621008 0.00655651 0.00689919 0.00723812 0.00757329 0.00790107 0.00821785 0.00852361 0.00881836 0.0091021 0.00937483 0.00963654 0.00988725 0.0101256 0.0103503 0.0105613 0.0107586 0.0109423 0.0111122 0.0112685 0.0114111 0.0115402 0.0116559 0.0117583 0.0118473 0.0119229 0.0119851 0.012034 0.0120695 0.0120924 0.0121037 0.0121032 0.012091 0.0120671 0.0120314 0.0119841 0.011925 0.0118551 0.0117754 0.0116858 0.0115863 0.0114769 0.0113577 0.0112285 0.0110895 0.0109415 0.0107853 0.0106208 0.0104481 0.0102672 0.0100781 0.00988077 0.00967524 0.00946242 0.00924326 0.00901775 0.0087859 0.0085477 0.00830316 0.00805227 0.00779504 0.00753294 0.00726744 0.00699854 0.00672624 0.00645055 0.00617145 0.00588895 0.00560306 0.00531626 0.00503104 0.00474741 0.00446537 0.00418491 0.00390604 0.00362875 0.00335304 0.00308267 0.00282135 0.00256911 0.00232592 0.00209181 0.00186676 0.00165077 0.00144385 0.00124916 0.00106985 0.000905934 0.000757403 0.000624259 0.000506502 0.000404133 0.000317152 0.000242819 0.000178398 0.000123887 7.92879e-05 4.45995e-05 1.9822e-05 4.9555e-06 0 0 9.38093e-06 3.75237e-05 8.44284e-05 0.000150095 0.000234523 0.000337714 0.000459666 0.00060038 0.000762928 0.000950382 0.00116274 0.00140001 0.00166218 0.00194926 0.00226125 0.00259814 0.00295265 0.00331749 0.00369265 0.00407813 0.00447394 0.00488007 0.00529654 0.00572332 0.00615304 0.00657831 0.00699911 0.00741547 0.00782736 0.0082348 0.00863779 0.00903632 0.00942609 0.00980283 0.0101665 0.0105172 0.0108548 0.0111794 0.0114909 0.0117894 0.0120732 0.0123408 0.0125922 0.0128273 0.0130462 0.0132489 0.0134353 0.0136055 0.0137596 0.0138978 0.0140201 0.0141265 0.014217 0.0142915 0.0143502 0.0143929 0.0144207 0.0144345 0.0144343 0.0144202 0.0143921 0.01435 0.0142939 0.0142238 0.0141409 0.0140462 0.0139397 0.0138214 0.0136913 0.0135494 0.0133957 0.0132303 0.013054 0.012868 0.0126721 0.0124665 0.012251 0.0120258 0.0117908 0.0115459 0.0112924 0.0110313 0.0107627 0.0104866 0.0102029 0.00991162 0.00961282 0.00930647 0.00899434 0.00867818 0.00835799 0.00803378 0.00770554 0.00737327 0.00703698 0.00669666 0.00635526 0.00601573 0.00567808 0.00534231 0.00500841 0.00467638 0.00434622 0.00401794 0.00369593 0.00338458 0.00308389 0.00279387 0.00251451 0.00224581 0.00198777 0.0017404 0.00150745 0.00129269 0.00109612 0.000917743 0.000757552 0.000615551 0.000491738 0.000386115 0.000295619 0.00021719 0.000150826 9.65287e-05 5.42974e-05 2.41322e-05 6.03304e-06 0 0 1.12049e-05 4.48198e-05 0.000100844 0.000179279 0.000280124 0.000403378 0.000549042 0.000717116 0.000910882 0.00113362 0.00138533 0.00166602 0.00197567 0.00231431 0.00268191 0.00307849 0.00349551 0.00392445 0.0043653 0.00481808 0.00528277 0.00575937 0.0062479 0.00674834 0.00725213 0.00775072 0.00824408 0.00873224 0.00921518 0.00969291 0.0101654 0.0106327 0.0110898 0.0115317 0.0119583 0.0123697 0.0127658 0.0131467 0.0135124 0.0138629 0.0141962 0.0145106 0.0148059 0.0150822 0.0153395 0.0155778 0.0157971 0.0159974 0.0161788 0.0163416 0.0164857 0.0166111 0.0167178 0.0168059 0.0168753 0.016926 0.0169592 0.0169759 0.0169762 0.01696 0.0169274 0.0168784 0.0168129 0.016731 0.016634 0.016523 0.0163982 0.0162595 0.0161069 0.0159404 0.0157601 0.0155658 0.0153589 0.0151404 0.0149104 0.0146689 0.0144159 0.0141513 0.0138752 0.0135876 0.0132897 0.0129831 0.0126676 0.0123432 0.01201 0.0116679 0.0113169 0.0109571 0.0105906 0.0102193 0.00984333 0.00946264 0.00907725 0.00868716 0.00829236 0.00789286 0.00749209 0.00709351 0.00669712 0.00630291 0.00591088 0.00552104 0.00513338 0.0047479 0.0043697 0.00400387 0.0036504 0.0033093 0.00298056 0.00266419 0.00236019 0.00206855 0.00179369 0.00154003 0.00130758 0.00109633 0.000906286 0.000737441 0.000589798 0.000463357 0.000354758 0.000260639 0.000180999 0.000115839 6.51596e-05 2.89598e-05 7.23996e-06 0 0 1.32151e-05 5.28603e-05 0.000118936 0.000211441 0.000330377 0.000475742 0.000647538 0.000845764 0.00107386 0.00133527 0.00162999 0.00195803 0.00231937 0.00271403 0.003142 0.00360328 0.00408802 0.00458635 0.00509827 0.00562379 0.00616291 0.00671562 0.00728192 0.00786182 0.0084455 0.00902316 0.00959479 0.0101604 0.01072 0.0112735 0.0118211 0.0123626 0.0128922 0.0134044 0.0138989 0.0143758 0.0148352 0.015277 0.0157012 0.0161078 0.0164946 0.0168595 0.0172023 0.0175232 0.017822 0.0180989 0.0183538 0.0185867 0.0187978 0.0189872 0.0191549 0.019301 0.0194255 0.0195283 0.0196094 0.0196688 0.0197079 0.0197279 0.0197288 0.0197106 0.0196732 0.0196168 0.0195412 0.0194466 0.0193343 0.0192059 0.0190613 0.0189006 0.0187237 0.0185306 0.0183215 0.0180961 0.017856 0.0176025 0.0173356 0.0170553 0.0167616 0.0164546 0.0161341 0.0158002 0.0154545 0.0150985 0.0147322 0.0143557 0.013969 0.0135719 0.0131646 0.0127471 0.0123217 0.0118908 0.0114545 0.0110128 0.0105657 0.0101131 0.0096551 0.00919166 0.00872676 0.00826438 0.00780452 0.00734717 0.00689233 0.00644001 0.00599021 0.00554293 0.00510399 0.00467922 0.00426863 0.00387221 0.00348997 0.0031219 0.00276801 0.00242829 0.00210787 0.00181188 0.00154031 0.00129317 0.00107046 0.000872173 0.000698313 0.00054888 0.000420236 0.000308745 0.000214406 0.00013722 7.71862e-05 3.4305e-05 8.57624e-06 0 0 1.54113e-05 6.16452e-05 0.000138702 0.000246581 0.000385283 0.000554807 0.000755154 0.000986323 0.00125187 0.00155533 0.00189672 0.00227603 0.00269327 0.00314843 0.00364152 0.00417252 0.00473017 0.00530318 0.00589154 0.00649527 0.00711435 0.0077488 0.0083986 0.00906376 0.00973315 0.0103956 0.0110512 0.0116999 0.0123417 0.0129766 0.0136047 0.0142258 0.0148334 0.0154209 0.0159883 0.0165357 0.0170629 0.0175701 0.0180571 0.0185241 0.0189684 0.0193876 0.0197815 0.0201503 0.0204939 0.0208123 0.0211055 0.0213735 0.0216165 0.0218347 0.0220279 0.0221964 0.0223399 0.0224586 0.0225524 0.0226214 0.022667 0.0226905 0.0226921 0.0226718 0.0226294 0.0225651 0.0224788 0.0223705 0.0222419 0.0220947 0.021929 0.0217446 0.0215417 0.0213201 0.02108 0.0208212 0.0205455 0.0202543 0.0199478 0.0196258 0.0192884 0.0189356 0.0185674 0.0181838 0.0177866 0.0173776 0.0169568 0.0165242 0.0160799 0.0156238 0.0151559 0.0146762 0.0141876 0.0136927 0.0131916 0.0126843 0.0121708 0.0116511 0.0111252 0.0105931 0.0100593 0.00952834 0.00900028 0.00847508 0.00795276 0.00743331 0.00691673 0.00640301 0.00589878 0.00541064 0.00493858 0.00448261 0.00404274 0.00361895 0.00321125 0.00281963 0.00245 0.00210822 0.00179431 0.00150826 0.00125007 0.00101975 0.000817283 0.000642681 0.000492053 0.000361508 0.000251047 0.00016067 9.0377e-05 4.01676e-05 1.00419e-05 0 0 1.77937e-05 7.11746e-05 0.000160143 0.000284698 0.000444841 0.000640571 0.000871889 0.00113879 0.0014449 0.00179381 0.00218552 0.00262005 0.00309738 0.00361752 0.00418046 0.00478622 0.00542198 0.00607495 0.00674513 0.00743252 0.00813711 0.00885892 0.00959793 0.0103542 0.0111151 0.0118682 0.0126134 0.0133509 0.0140805 0.0148023 0.0155162 0.0162224 0.0169132 0.0175813 0.0182266 0.0188492 0.019449 0.020026 0.0205803 0.0211118 0.0216176 0.0220948 0.0225435 0.0229635 0.023355 0.0237178 0.0240521 0.0243578 0.024635 0.024884 0.0251047 0.025297 0.0254611 0.0255969 0.0257045 0.0257837 0.0258362 0.0258638 0.0258662 0.0258436 0.025796 0.0257233 0.0256255 0.0255027 0.0253568 0.0251896 0.0250012 0.0247916 0.0245608 0.0243088 0.0240356 0.0237411 0.0234273 0.0230958 0.0227469 0.0223803 0.0219962 0.0215945 0.0211752 0.0207383 0.020286 0.0198203 0.0193412 0.0188487 0.0183428 0.0178235 0.0172908 0.0167447 0.0161883 0.015625 0.0150546 0.0144772 0.0138927 0.0133012 0.0127027 0.0120971 0.0114896 0.0108854 0.0102844 0.00968666 0.00909217 0.00850092 0.00791292 0.00732816 0.00675408 0.00619811 0.00566025 0.0051405 0.00463886 0.00415532 0.00368989 0.00324258 0.00282007 0.00242907 0.00206958 0.0017416 0.00144512 0.00118016 0.000946708 0.000744762 0.000570209 0.000418929 0.000290923 0.000186191 0.000104732 4.65476e-05 1.16369e-05 0 0 2.0315e-05 8.12598e-05 0.000182835 0.000325039 0.000507874 0.000731338 0.000995433 0.00130016 0.00164914 0.00204599 0.00249073 0.00298334 0.00352383 0.0041122 0.00474844 0.00543257 0.00615018 0.00688689 0.0076427 0.00841761 0.00921162 0.0100247 0.0108569 0.0117082 0.0125647 0.0134124 0.0142512 0.0150813 0.0159026 0.016715 0.0175187 0.0183136 0.0190913 0.0198434 0.02057 0.0212711 0.0219467 0.0225967 0.0232211 0.02382 0.0243901 0.0249281 0.0254339 0.0259075 0.0263491 0.0267584 0.0271357 0.0274808 0.0277939 0.0280752 0.0283245 0.0285421 0.0287277 0.0288815 0.0290034 0.0290935 0.0291535 0.0291852 0.0291887 0.0291639 0.0291108 0.0290294 0.0289198 0.0287819 0.0286179 0.0284299 0.0282179 0.027982 0.0277222 0.0274383 0.0271305 0.0267988 0.0264451 0.0260717 0.0256784 0.0252652 0.0248322 0.0243794 0.0239068 0.0234143 0.0229044 0.0223794 0.0218393 0.0212841 0.0207139 0.0201285 0.0195281 0.0189126 0.0182856 0.0176507 0.0170079 0.0163572 0.0156986 0.015032 0.0143576 0.0136753 0.0129909 0.01231 0.0116328 0.0109593 0.0102893 0.00962302 0.00896033 0.00830128 0.00765414 0.00702718 0.00642041 0.00583383 0.00526743 0.00472123 0.00419521 0.00368938 0.0032113 0.00276852 0.00236104 0.00198887 0.001652 0.00135044 0.00108418 0.000853219 0.000653246 0.000479936 0.000333289 0.000213305 0.000119984 5.33262e-05 1.33316e-05 0 0 2.29281e-05 9.17123e-05 0.000206353 0.000366849 0.000573202 0.000825411 0.00112348 0.0014674 0.00186077 0.00230719 0.00280667 0.00335919 0.00396476 0.00462339 0.00533506 0.00609978 0.00690152 0.00772424 0.00856795 0.00943265 0.0103183 0.011225 0.0121526 0.0131013 0.0140555 0.0149999 0.0159345 0.0168594 0.0177744 0.0186796 0.0195749 0.0204605 0.021327 0.0221651 0.0229749 0.0237563 0.0245093 0.025234 0.0259302 0.0265982 0.027234 0.0278341 0.0283984 0.028927 0.0294199 0.0298769 0.0302983 0.0306838 0.0310338 0.0313482 0.031627 0.0318704 0.0320783 0.0322506 0.0323874 0.0324887 0.0325564 0.0325926 0.0325972 0.0325702 0.0325117 0.0324216 0.0322999 0.0321466 0.0319642 0.031755 0.031519 0.0312562 0.0309667 0.0306503 0.0303072 0.0299373 0.0295429 0.0291264 0.0286878 0.0282269 0.027744 0.0272389 0.0267116 0.0261622 0.0255933 0.0250076 0.0244051 0.0237858 0.0231496 0.0224967 0.0218269 0.0211403 0.020441 0.0197328 0.0190158 0.0182901 0.0175556 0.0168123 0.0160602 0.0152993 0.014536 0.0137768 0.0130215 0.0122703 0.011523 0.0107798 0.0100405 0.00930528 0.00858318 0.00788336 0.00720582 0.00655056 0.00591758 0.00530688 0.00471846 0.00415231 0.0036169 0.00312067 0.00266363 0.00224576 0.00186708 0.00152759 0.00122728 0.000966148 0.000739707 0.000543458 0.000377402 0.000241537 0.000135865 6.03843e-05 1.50961e-05 0 0 2.5633e-05 0.000102532 0.000230697 0.000410128 0.000640825 0.000922788 0.00125602 0.00164051 0.0020798 0.00257741 0.00313335 0.0037476 0.00442018 0.00515108 0.00594031 0.00678785 0.00767599 0.008587 0.00952088 0.0104776 0.0114572 0.0124597 0.0134851 0.0145333 0.0155875 0.0166309 0.0176634 0.018685 0.0196959 0.0206958 0.021685 0.0226633 0.0236205 0.0245465 0.0254412 0.0263047 0.0271369 0.0279379 0.0287076 0.0294461 0.0301492 0.0308129 0.0314372 0.032022 0.0325674 0.0330733 0.0335398 0.0339668 0.0343545 0.034703 0.0350122 0.0352821 0.0355128 0.0357042 0.0358563 0.0359692 0.036045 0.0360859 0.0360918 0.0360627 0.0359987 0.0358997 0.0357658 0.0355969 0.0353958 0.0351649 0.0349044 0.0346142 0.0342943 0.0339447 0.0335655 0.0331566 0.0327206 0.0322601 0.0317751 0.0312655 0.0307314 0.0301728 0.0295896 0.0289819 0.0283527 0.0277049 0.0270385 0.0263536 0.02565 0.0249279 0.0241872 0.0234279 0.0226544 0.0218713 0.0210785 0.020276 0.0194638 0.0186419 0.0178104 0.0169691 0.0161252 0.0152856 0.0144504 0.0136196 0.0127932 0.0119712 0.0111535 0.0103401 0.00954121 0.00876666 0.00801649 0.0072907 0.00658929 0.00591227 0.00525963 0.00463137 0.00403687 0.00348553 0.00297733 0.00251228 0.00209037 0.00171162 0.00137601 0.00108355 0.000829592 0.000609496 0.000423261 0.000270887 0.000152374 6.77218e-05 1.69304e-05 0 0 2.84297e-05 0.000113719 0.000255868 0.000454876 0.000710743 0.00102347 0.00139306 0.0018195 0.00230623 0.00285665 0.00347076 0.00414858 0.00489009 0.00569529 0.00656419 0.00749679 0.00847361 0.00947517 0.0105015 0.0115525 0.0126283 0.0137289 0.0148542 0.0160042 0.0171606 0.0183051 0.0194377 0.0205584 0.0216671 0.0227639 0.0238488 0.0249218 0.0259717 0.0269874 0.0279689 0.0289163 0.0298295 0.0307085 0.0315533 0.0323639 0.0331358 0.0338646 0.0345501 0.0351925 0.0357916 0.0363476 0.0368603 0.0373299 0.0377563 0.0381396 0.0384799 0.0387771 0.0390312 0.0392423 0.0394102 0.0395351 0.0396193 0.039665 0.0396724 0.0396413 0.0395718 0.0394639 0.0393175 0.0391328 0.0389125 0.0386596 0.0383741 0.0380559 0.0377051 0.0373216 0.0369055 0.0364568 0.0359782 0.0354727 0.0349402 0.0343808 0.0337944 0.0331811 0.0325408 0.0318736 0.0311826 0.0304713 0.0297396 0.0289875 0.028215 0.0274221 0.0266089 0.0257752 0.024926 0.0240663 0.0231959 0.0223149 0.0214232 0.020521 0.0196081 0.0186847 0.0177583 0.0168366 0.0159196 0.0150074 0.0140999 0.0131972 0.0122992 0.0114059 0.0105282 0.00967707 0.00885241 0.00805424 0.00728257 0.0065374 0.00581873 0.00512655 0.00447122 0.00386309 0.00330215 0.00278841 0.00232187 0.00190252 0.00153037 0.00120542 0.000922901 0.00067805 0.000470868 0.000301355 0.000169512 7.53388e-05 1.88347e-05 0 0 3.13183e-05 0.000125273 0.000281864 0.000501092 0.000782956 0.00112746 0.00153459 0.00200437 0.00254005 0.0031449 0.00381892 0.00456211 0.00537447 0.00625601 0.00720671 0.00822659 0.00929436 0.0103888 0.0115098 0.0126574 0.0138316 0.0150325 0.0162599 0.017514 0.0187749 0.0200228 0.0212576 0.0224793 0.0236881 0.0248838 0.0260664 0.027236 0.0283806 0.0294879 0.0305581 0.0315911 0.032587 0.0335457 0.0344672 0.0353515 0.0361938 0.036989 0.0377372 0.0384384 0.0390925 0.0396997 0.0402598 0.0407729 0.041239 0.0416581 0.0420302 0.0423554 0.0426336 0.0428649 0.0430491 0.0431864 0.0432792 0.0433301 0.043339 0.043306 0.043231 0.043114 0.0429551 0.0427542 0.0425145 0.0422392 0.0419281 0.0415814 0.041199 0.0407809 0.0403271 0.0398377 0.0393157 0.0387643 0.0381833 0.037573 0.0369332 0.0362639 0.0355652 0.034837 0.034083 0.0333068 0.0325083 0.0316876 0.0308446 0.0299794 0.029092 0.0281823 0.0272558 0.0263176 0.0253679 0.0244067 0.0234339 0.0224495 0.0214535 0.020446 0.0194353 0.0184296 0.0174291 0.0164336 0.0154432 0.0144579 0.0134777 0.0125025 0.0115443 0.0106146 0.00971358 0.00884119 0.00799742 0.00718227 0.00639575 0.00563786 0.00491994 0.00425335 0.0036381 0.00307417 0.00256158 0.00210031 0.00169037 0.00133177 0.00101963 0.000749118 0.000520221 0.000332941 0.00018728 8.32354e-05 2.08088e-05 0 0 3.42986e-05 0.000137194 0.000308687 0.000548778 0.000857465 0.00123475 0.00168063 0.00219511 0.00278126 0.00344216 0.00417781 0.0049882 0.00587334 0.00683323 0.00786787 0.00897726 0.0101383 0.0113277 0.0125457 0.0137922 0.0150671 0.0163705 0.0177024 0.0190628 0.0204304 0.0217837 0.0231229 0.0244479 0.0257587 0.