<?xml version="1.0"?> 
<VTKFile type="StructuredGrid" version="0.1"> 
<StructuredGrid WholeExtent="0 128 0 128 0 0"> 
<Piece Extent="0 128 0 128 0 0"> 
<PointData>
<DataArray type="Float32" Name="u" format="ascii" NumberOfComponents="1"> 
0 0 0 0 0 0 0 0 0 0 0 0 0 0 0 0 0 0 0 0 0 0 0 0 0 0 0 0 0 0 0 0 0 0 0 0 0 0 0 0 0 0 0 0 0 0 0 0 0 0 0 0 0 0 0 0 0 0 0 0 0 0 0 0 0 0 0 0 0 0 0 0 0 0 0 0 0 0 0 0 0 0 0 0 0 0 0 0 0 0 0 0 0 0 0 0 0 0 0 0 0 0 0 0 0 0 0 0 0 0 0 0 0 0 0 0 0 0 0 0 0 0 0 0 0 0 0 0 0 0 6.26679e-08 2.50672e-07 5.64011e-07 1.00269e-06 1.5667e-06 2.25604e-06 3.07073e-06 4.01075e-06 5.10281e-06 6.37362e-06 7.82318e-06 9.45149e-06 1.12586e-05 1.32444e-05 1.54089e-05 1.77522e-05 2.02172e-05 2.27466e-05 2.53404e-05 2.79987e-05 3.07215e-05 3.35088e-05 3.63605e-05 3.92766e-05 4.22e-05 4.50732e-05 4.78963e-05 5.06692e-05 5.3392e-05 5.60646e-05 5.86872e-05 6.12596e-05 6.37543e-05 6.61438e-05 6.84282e-05 7.06074e-05 7.26815e-05 7.46503e-05 7.6514e-05 7.82725e-05 7.99233e-05 8.14641e-05 8.28948e-05 8.42155e-05 8.5426e-05 8.65265e-05 8.75169e-05 8.83972e-05 8.91783e-05 8.98711e-05 9.04756e-05 9.09918e-05 9.14197e-05 9.17592e-05 9.20104e-05 9.21734e-05 9.22599e-05 9.22821e-05 9.22399e-05 9.21333e-05 9.19623e-05 9.17269e-05 9.14271e-05 9.10629e-05 9.06394e-05 9.01619e-05 8.96302e-05 8.90445e-05 8.84046e-05 8.77106e-05 8.69625e-05 8.61603e-05 8.53017e-05 8.43844e-05 8.34084e-05 8.23738e-05 8.12804e-05 8.01284e-05 7.89177e-05 7.76483e-05 7.63167e-05 7.49194e-05 7.34562e-05 7.19273e-05 7.03327e-05 6.86722e-05 6.6946e-05 6.51541e-05 6.3301e-05 6.13915e-05 5.94256e-05 5.74033e-05 5.53245e-05 5.31893e-05 5.09977e-05 4.87497e-05 4.64665e-05 4.41695e-05 4.18587e-05 3.9534e-05 3.71955e-05 3.48432e-05 3.2477e-05 3.0097e-05 2.77437e-05 2.54578e-05 2.32391e-05 2.10877e-05 1.90036e-05 1.69868e-05 1.50372e-05 1.3155e-05 1.1377e-05 9.73997e-06 8.24405e-06 6.88918e-06 5.67538e-06 4.60264e-06 3.67096e-06 2.88034e-06 2.20526e-06 1.62019e-06 1.12513e-06 7.20086e-07 4.05048e-07 1.80021e-07 4.50054e-08 0 0 2.50672e-07 1.00269e-06 2.25604e-06 4.01075e-06 6.26679e-06 9.02418e-06 1.22829e-05 1.6043e-05 2.04112e-05 2.54945e-05 3.12927e-05 3.7806e-05 4.50342e-05 5.29775e-05 6.16357e-05 7.1009e-05 8.08687e-05 9.09862e-05 0.000101362 0.000111995 0.000122886 0.000134035 0.000145442 0.000157107 0.0001688 0.000180293 0.000191585 0.000202677 0.000213568 0.000224259 0.000234749 0.000245038 0.000255017 0.000264575 0.000273713 0.00028243 0.000290726 0.000298601 0.000306056 0.00031309 0.000319693 0.000325857 0.000331579 0.000336862 0.000341704 0.000346106 0.000350068 0.000353589 0.000356713 0.000359485 0.000361902 0.000363967 0.000365679 0.000367037 0.000368042 0.000368693 0.00036904 0.000369128 0.00036896 0.000368533 0.000367849 0.000366907 0.000365708 0.000364252 0.000362558 0.000360648 0.000358521 0.000356178 0.000353618 0.000350842 0.00034785 0.000344641 0.000341207 0.000337538 0.000333634 0.000329495 0.000325122 0.000320514 0.000315671 0.000310593 0.000305267 0.000299677 0.000293825 0.000287709 0.000281331 0.000274689 0.000267784 0.000260616 0.000253204 0.000245566 0.000237703 0.000229613 0.000221298 0.000212757 0.000203991 0.000194999 0.000185866 0.000176678 0.000167435 0.000158136 0.000148782 0.000139373 0.000129908 0.000120388 0.000110975 0.000101831 9.29563e-05 8.43507e-05 7.60143e-05 6.7947e-05 6.0149e-05 5.262e-05 4.55078e-05 3.89599e-05 3.29762e-05 2.75567e-05 2.27015e-05 1.84106e-05 1.46838e-05 1.15214e-05 8.82105e-06 6.48077e-06 4.50054e-06 2.88034e-06 1.62019e-06 7.20086e-07 1.80021e-07 0 0 5.64011e-07 2.25604e-06 5.0761e-06 9.02418e-06 1.41003e-05 2.03044e-05 2.76365e-05 3.60967e-05 4.59253e-05 5.73626e-05 7.04086e-05 8.50635e-05 0.000101327 0.000119199 0.00013868 0.00015977 0.000181955 0.000204719 0.000228064 0.000251989 0.000276494 0.000301579 0.000327244 0.00035349 0.0003798 0.000405659 0.000431066 0.000456023 0.000480528 0.000504582 0.000528185 0.000551336 0.000573789 0.000595295 0.000615854 0.000635467 0.000654133 0.000671853 0.000688626 0.000704452 0.00071931 0.000733177 0.000746054 0.000757939 0.000768834 0.000778739 0.000787652 0.000795575 0.000802605 0.00080884 0.000814281 0.000818926 0.000822777 0.000825833 0.000828094 0.00082956 0.000830339 0.000830539 0.000830159 0.000829199 0.00082766 0.000825542 0.000822844 0.000819566 0.000815755 0.000811457 0.000806672 0.0008014 0.000795641 0.000789395 0.000782662 0.000775442 0.000767715 0.000759459 0.000750676 0.000741364 0.000731524 0.000721156 0.000710259 0.000698835 0.000686851 0.000674274 0.000661106 0.000647346 0.000632994 0.00061805 0.000602514 0.000586387 0.000569709 0.000552524 0.000534831 0.00051663 0.000497921 0.000478704 0.00045898 0.000438747 0.000418199 0.000397526 0.000376728 0.000355806 0.00033476 0.000313589 0.000292293 0.000270873 0.000249694 0.00022912 0.000209152 0.000189789 0.000171032 0.000152881 0.000135335 0.000118395 0.000102393 8.76598e-05 7.41964e-05 6.20026e-05 5.10784e-05 4.14238e-05 3.30386e-05 2.59231e-05 1.98474e-05 1.45817e-05 1.01262e-05 6.48077e-06 3.64543e-06 1.62019e-06 4.05048e-07 0 0 1.00269e-06 4.01075e-06 9.02418e-06 1.6043e-05 2.50672e-05 3.60967e-05 4.91316e-05 6.41719e-05 8.16449e-05 0.000101978 0.000125171 0.000151224 0.000180137 0.00021191 0.000246543 0.000284036 0.000323475 0.000363945 0.000405447 0.00044798 0.000491544 0.00053614 0.000581767 0.000628426 0.0006752 0.000721171 0.00076634 0.000810707 0.000854272 0.000897034 0.000938995 0.000980153 0.00102007 0.0010583 0.00109485 0.00112972 0.0011629 0.0011944 0.00122422 0.00125236 0.00127877 0.00130343 0.00132632 0.00134745 0.00136682 0.00138442 0.00140027 0.00141436 0.00142685 0.00143794 0.00144761 0.00145587 0.00146271 0.00146815 0.00147217 0.00147477 0.00147616 0.00147651 0.00147584 0.00147413 0.0014714 0.00146763 0.00146283 0.00145701 0.00145023 0.00144259 0.00143408 0.00142471 0.00141447 0.00140337 0.0013914 0.00137856 0.00136483 0.00135015 0.00133453 0.00131798 0.00130049 0.00128205 0.00126268 0.00124237 0.00122107 0.00119871 0.0011753 0.00115084 0.00112532 0.00109876 0.00107114 0.00104247 0.00101282 0.000982265 0.00095081 0.000918453 0.000885193 0.000851029 0.000815964 0.000779995 0.000743464 0.000706712 0.000669739 0.000632544 0.000595128 0.000557491 0.000519632 0.000481552 0.0004439 0.000407324 0.000371825 0.000337403 0.000304057 0.000271788 0.000240596 0.00021048 0.000182031 0.00015584 0.000131905 0.000110227 9.08061e-05 7.36422e-05 5.87354e-05 4.60855e-05 3.52842e-05 2.59231e-05 1.80021e-05 1.15214e-05 6.48077e-06 2.88034e-06 7.20086e-07 0 0 1.5667e-06 6.26679e-06 1.41003e-05 2.50672e-05 3.91674e-05 5.64011e-05 7.67682e-05 0.000100269 0.00012757 0.00015934 0.00019558 0.000236287 0.000281464 0.000331109 0.000385223 0.000443806 0.000505429 0.000568664 0.00063351 0.000699968 0.000768038 0.000837719 0.000909012 0.000981916 0.001055 0.00112683 0.00119741 0.00126673 0.0013348 0.00140162 0.00146718 0.00153149 0.00159386 0.0016536 0.00171071 0.00176519 0.00181704 0.00186626 0.00191285 0.00195681 0.00199808 0.0020366 0.00207237 0.00210539 0.00213565 0.00216316 0.00218792 0.00220993 0.00222946 0.00224678 0.00226189 0.00227479 0.00228549 0.00229398 0.00230026 0.00230433 0.0023065 0.00230705 0.002306 0.00230333 0.00229906 0.00229317 0.00228568 0.00227657 0.00226599 0.00225405 0.00224076 0.00222611 0.00221011 0.00219276 0.00217406 0.00215401 0.00213254 0.00210961 0.00208521 0.00205934 0.00203201 0.00200321 0.00197294 0.00194121 0.00190792 0.00187298 0.00183641 0.00179818 0.00175832 0.00171681 0.00167365 0.00162885 0.00158253 0.00153479 0.00148564 0.00143508 0.00138311 0.00132973 0.00127494 0.00121874 0.00116166 0.00110424 0.00104647 0.00098835 0.000929888 0.000871079 0.000811925 0.000752425 0.000693593 0.000636444 0.000580977 0.000527192 0.000475089 0.000424669 0.000375931 0.000328875 0.000284424 0.000243499 0.000206101 0.00017223 0.000141884 0.000115066 9.1774e-05 7.20086e-05 5.51316e-05 4.05048e-05 2.81284e-05 1.80021e-05 1.01262e-05 4.50054e-06 1.12513e-06 0 0 2.25604e-06 9.02418e-06 2.03044e-05 3.60967e-05 5.64011e-05 8.12176e-05 0.000110546 0.000144387 0.000183701 0.00022945 0.000281635 0.000340254 0.000405308 0.000476797 0.000554722 0.000639081 0.000727818 0.000818876 0.000912255 0.00100795 0.00110597 0.00120632 0.00130898 0.00141396 0.0015192 0.00162263 0.00172427 0.00182409 0.00192211 0.00201833 0.00211274 0.00220534 0.00229515 0.00238118 0.00246342 0.00254187 0.00261653 0.00268741 0.0027545 0.00281781 0.00287724 0.00293271 0.00298421 0.00303176 0.00307534 0.00311495 0.00315061 0.0031823 0.00321042 0.00323536 0.00325712 0.0032757 0.00329111 0.00330333 0.00331238 0.00331824 0.00332136 0.00332216 0.00332064 0.0033168 0.00331064 0.00330217 0.00329137 0.00327826 0.00326302 0.00324583 0.00322669 0.0032056 0.00318256 0.00315758 0.00313065 0.00310177 0.00307086 0.00303784 0.0030027 0.00296546 0.0029261 0.00288462 0.00284104 0.00279534 0.0027474 0.0026971 0.00264442 0.00258938 0.00253198 0.0024722 0.00241006 0.00234555 0.00227884 0.0022101 0.00213932 0.00206652 0.00199168 0.00191482 0.00183592 0.00175499 0.00167279 0.0015901 0.00150691 0.00142322 0.00133904 0.00125435 0.00116917 0.00108349 0.000998774 0.000916479 0.000836606 0.000759156 0.000684128 0.000611523 0.000541341 0.00047358 0.000409571 0.000350639 0.000296786 0.000248011 0.000204314 0.000165695 0.000132155 0.000103692 7.93895e-05 5.8327e-05 4.05048e-05 2.59231e-05 1.45817e-05 6.48077e-06 1.62019e-06 0 0 3.07073e-06 1.22829e-05 2.76365e-05 4.91316e-05 7.67682e-05 0.000110546 0.000150466 0.000196527 0.000250038 0.000312307 0.000383336 0.000463123 0.000551669 0.000648974 0.000755038 0.00086986 0.000990641 0.00111458 0.00124168 0.00137194 0.00150535 0.00164193 0.00178166 0.00192456 0.0020678 0.00220859 0.00234692 0.00248279 0.00261621 0.00274717 0.00287567 0.00300172 0.00312396 0.00324105 0.00335298 0.00345976 0.00356139 0.00365787 0.00374919 0.00383535 0.00391624 0.00399174 0.00406185 0.00412656 0.00418588 0.0042398 0.00428833 0.00433146 0.00436974 0.00440369 0.00443331 0.0044586 0.00447956 0.0044962 0.00450851 0.00451649 0.00452074 0.00452182 0.00451975 0.00451453 0.00450615 0.00449462 0.00447993 0.00446208 0.00444133 0.00441793 0.00439188 0.00436318 0.00433182 0.00429782 0.00426116 0.00422185 0.00417978 0.00413483 0.00408701 0.00403631 0.00398274 0.00392629 0.00386697 0.00380477 0.00373952 0.00367105 0.00359936 0.00352444 0.0034463 0.00336494 0.00328036 0.00319255 0.00310175 0.00300819 0.00291186 0.00281276 0.0027109 0.00260628 0.00249889 0.00238873 0.00227686 0.00216431 0.00205108 0.00193717 0.00182258 0.00170732 0.00159137 0.00147475 0.00135944 0.00124743 0.00113871 0.0010333 0.000931175 0.000832351 0.000736825 0.000644596 0.000557471 0.000477259 0.000403958 0.00033757 0.000278094 0.000225529 0.000179877 0.000141137 0.000108058 7.93895e-05 5.51316e-05 3.52842e-05 1.98474e-05 8.82105e-06 2.20526e-06 0 0 4.01075e-06 1.6043e-05 3.60967e-05 6.41719e-05 0.000100269 0.000144387 0.000196527 0.000256688 0.00032658 0.000407912 0.000500684 0.000604896 0.000720548 0.00084764 0.000986172 0.00113614 0.0012939 0.00145578 0.00162179 0.00179192 0.00196618 0.00214456 0.00232707 0.0025137 0.0027008 0.00288468 0.00306536 0.00324283 0.00341709 0.00358814 0.00375598 0.00392061 0.00408027 0.00423321 0.00437941 0.00451888 0.00465161 0.00477762 0.00489689 0.00500944 0.00511509 0.0052137 0.00530527 0.00538979 0.00546727 0.0055377 0.00560108 0.00565742 0.00570741 0.00575175 0.00579044 0.00582347 0.00585086 0.00587259 0.00588867 0.00589909 0.00590464 0.00590605 0.00590335 0.00589653 0.00588558 0.00587052 0.00585133 0.00582802 0.00580092 0.00577036 0.00573633 0.00569885 0.00565789 0.00561348 0.0055656 0.00551426 0.00545931 0.0054006 0.00533814 0.00527192 0.00520195 0.00512822 0.00505073 0.00496949 0.00488427 0.00479484 0.0047012 0.00460335 0.00450129 0.00439502 0.00428455 0.00416986 0.00405127 0.00392906 0.00380324 0.00367381 0.00354077 0.00340412 0.00326385 0.00311998 0.00297386 0.00282685 0.00267896 0.00253018 0.00238051 0.00222996 0.00207853 0.00192621 0.0017756 0.0016293 0.0014873 0.00134961 0.00121623 0.00108715 0.000962383 0.000841921 0.000728126 0.000623358 0.000527619 0.000440908 0.000363224 0.000294569 0.000234941 0.000184342 0.000141137 0.000103692 7.20086e-05 4.60855e-05 2.59231e-05 1.15214e-05 2.88034e-06 0 0 5.11475e-06 2.0459e-05 4.60328e-05 8.18361e-05 0.000127869 0.000184131 0.000250623 0.000327344 0.000416403 0.000519906 0.000637855 0.000770249 0.000917088 0.00107837 0.0012541 0.00144427 0.00164427 0.00184945 0.00205983 0.0022754 0.00249616 0.00272212 0.00295327 0.00318961 0.00342651 0.00365937 0.00388816 0.00411291 0.00433359 0.00455022 0.0047628 0.00497132 0.00517356 0.00536729 0.00555252 0.00572923 0.00589744 0.00605714 0.00620834 0.00635103 0.006485 0.00661006 0.00672621 0.00683344 0.00693176 0.00702116 0.00710165 0.00717322 0.00723676 0.00729313 0.00734233 0.00738437 0.00741924 0.00744694 0.00746749 0.00748086 0.00748804 0.00748998 0.00748668 0.00747814 0.00746437 0.00744536 0.00742112 0.00739163 0.00735733 0.00731862 0.00727551 0.007228 0.00717608 0.00711976 0.00705903 0.0069939 0.00692419 0.00684971 0.00677046 0.00668645 0.00659767 0.00650413 0.00640582 0.00630274 0.00619462 0.00608117 0.0059624 0.00583829 0.00570886 0.00557411 0.00543402 0.00528861 0.00513825 0.00498333 0.00482384 0.0046598 0.00449119 0.00431802 0.00414028 0.00395798 0.00377285 0.00358659 0.00339922 0.00321073 0.00302112 0.0028304 0.00263856 0.0024456 0.00225479 0.00206942 0.00188947 0.00171495 0.00154586 0.0013822 0.00122397 0.00107116 0.000926775 0.000793792 0.000672214 0.000562041 0.000463273 0.000375911 0.000299953 0.0002354 0.000180228 0.000132413 9.19533e-05 5.88501e-05 3.31032e-05 1.47125e-05 3.67813e-06 0 0 6.4214e-06 2.56856e-05 5.77926e-05 0.000102742 0.000160535 0.000231171 0.000314649 0.00041097 0.000522582 0.000651935 0.000799028 0.000963861 0.00114643 0.00134675 0.0015648 0.00180059 0.00204842 0.00230258 0.00256307 0.00282989 0.00310303 0.00338251 0.00366832 0.00396045 0.00425326 0.00454107 0.0048239 0.00510173 0.00537457 0.00564242 0.00590528 0.00616314 0.00641328 0.00665295 0.00688214 0.00710087 0.00730912 0.00750691 0.00769422 0.00787107 0.00803717 0.00819228 0.00833639 0.0084695 0.0085916 0.00870271 0.00880281 0.00889192 0.00897108 0.00904137 0.00910277 0.0091553 0.00919895 0.00923372 0.00925961 0.00927662 0.00928593 0.00928872 0.00928498 0.00927472 0.00925794 0.00923463 0.0092048 0.00916845 0.00912609 0.00907823 0.00902488 0.00896603 0.00890169 0.00883186 0.00875653 0.0086757 0.00858917 0.00849672 0.00839835 0.00829407 0.00818386 0.00806774 0.0079457 0.00781775 0.00768354 0.00754276 0.00739539 0.00724145 0.00708094 0.00691384 0.00674016 0.00655991 0.00637356 0.0061816 0.00598403 0.00578085 0.00557206 0.00535765 0.00513764 0.00491201 0.00468289 0.0044524 0.00422054 0.00398731 0.0037527 0.00351673 0.00327938 0.00304066 0.00280458 0.00257514 0.00235234 0.00213617 0.00192665 0.00172377 0.00152753 0.00133793 0.00115866 0.000993415 0.00084219 0.000704988 0.000581809 0.000472652 0.000377517 0.000296405 0.000226935 0.000166728 0.000115783 7.41012e-05 4.16819e-05 1.85253e-05 4.63132e-06 0 0 7.9307e-06 3.17228e-05 7.13763e-05 0.000126891 0.000198267 0.000285505 0.000388604 0.000507565 0.000645119 0.000803998 0.000984202 0.00118573 0.00140859 0.00165277 0.00191827 0.0022051 0.00250636 0.00281516 0.0031315 0.00345537 0.00378679 0.00412574 0.00447222 0.00482625 0.00518104 0.00552981 0.00587256 0.0062093 0.00654002 0.00686472 0.00718341 0.00749608 0.00779944 0.00809017 0.00836829 0.00863378 0.00888665 0.00912691 0.00935454 0.00956956 0.00977161 0.00996036 0.0101358 0.010298 0.0104468 0.0105823 0.0107046 0.0108135 0.0109104 0.0109965 0.0110718 0.0111363 0.01119 0.0112329 0.011265 0.0112864 0.0112983 0.0113023 0.0112983 0.0112863 0.0112663 0.0112383 0.0112024 0.0111585 0.0111072 0.0110492 0.0109844 0.0109129 0.0108347 0.0107498 0.0106581 0.0105597 0.0104543 0.0103416 0.0102218 0.0100948 0.00996053 0.00981907 0.00967039 0.0095145 0.00935102 0.00917959 0.00900019 0.00881283 0.00861751 0.00841423 0.00820298 0.00798378 0.00775721 0.00752389 0.00728381 0.00703697 0.00678338 0.00652303 0.00625592 0.00598206 0.00570399 0.00542427 0.00514291 0.0048599 0.00457525 0.00428895 0.004001 0.00371141 0.00342496 0.00314646 0.00287589 0.00261327 0.0023586 0.00211186 0.00187307 0.00164222 0.00142378 0.00122223 0.00103755 0.000869749 0.000718831 0.000584792 0.000467633 0.000367355 0.000281256 0.000206637 0.000143498 9.18387e-05 5.16593e-05 2.29597e-05 5.73992e-06 0 0 9.64264e-06 3.85705e-05 8.67837e-05 0.000154282 0.000241066 0.000347135 0.000472489 0.000617129 0.000784011 0.000976094 0.00119338 0.00143586 0.00170354 0.00199643 0.00231451 0.0026578 0.00301809 0.0033872 0.00376513 0.00415187 0.00454743 0.0049518 0.00536499 0.00578699 0.00620984 0.00662556 0.00703415 0.00743561 0.00782993 0.00821713 0.0085972 0.00897013 0.00933203 0.00967896 0.0100109 0.010328 0.01063 0.0109172 0.0111893 0.0114465 0.0116883 0.0119143 0.0121245 0.0123188 0.0124973 0.01266 0.0128069 0.012938 0.0130547 0.0131585 0.0132493 0.0133273 0.0133924 0.0134445 0.0134838 0.0135101 0.0135252 0.0135306 0.0135265 0.0135128 0.0134894 0.0134564 0.0134139 0.0133617 0.0133006 0.0132315 0.0131542 0.0130687 0.0129752 0.0128735 0.0127637 0.0126458 0.0125195 0.0123845 0.0122409 0.0120886 0.0119277 0.0117581 0.0115799 0.011393 0.0111971 0.0109917 0.0107768 0.0105524 0.0103186 0.0100753 0.00982247 0.0095602 0.00928919 0.00901018 0.00872317 0.00842816 0.00812515 0.00781414 0.00749513 0.00716812 0.00683614 0.00650221 0.00616634 0.00582852 0.00548876 0.00514706 0.00480341 0.00445782 0.00411593 0.00378337 0.00346014 0.00314625 0.0028417 0.00254648 0.00226059 0.00198404 0.00172214 0.00148023 0.00125829 0.00105632 0.000874338 0.000712331 0.000570302 0.000448251 0.000343192 0.000252141 0.000175098 0.000112063 6.30353e-05 2.80157e-05 7.00392e-06 0 0 1.15572e-05 4.62289e-05 0.000104015 0.000184915 0.00028893 0.00041606 0.000566304 0.000739662 0.00093926 0.00116822 0.00142655 0.00171425 0.00203131 0.00237774 0.00275353 0.00315868 0.00358361 0.00401869 0.00446395 0.00491937 0.00538495 0.0058607 0.00634661 0.00684269 0.00733968 0.00782834 0.00830867 0.00878066 0.00924432 0.00969965 0.0101466 0.0105853 0.0110111 0.0114193 0.0118101 0.0121834 0.0125393 0.0128776 0.0131985 0.0135019 0.0137873 0.0140541 0.0143024 0.0145321 0.0147432 0.0149358 0.0151099 0.0152654 0.0154039 0.0155273 0.0156355 0.0157284 0.0158061 0.0158685 0.0159158 0.0159478 0.0159665 0.0159738 0.0159697 0.0159542 0.0159273 0.015889 0.0158393 0.0157781 0.0157065 0.0156251 0.0155341 0.0154334 0.0153231 0.0152031 0.0150734 0.014934 0.0147848 0.0146252 0.0144555 0.0142755 0.0140853 0.0138848 0.0136742 0.0134533 0.0132217 0.012979 0.0127252 0.0124602 0.0121842 0.011897 0.0115986 0.0112892 0.0109695 0.0106405 0.0103021 0.00995442 0.00959738 0.009231 0.00885527 0.00847021 0.00807934 0.00768621 0.00729082 0.00689316 0.00649325 0.00609107 0.00568662 0.00527992 0.00487749 0.00448588 0.00410509 0.00373511 0.00337595 0.00302761 0.00269009 0.00236338 0.00205374 0.00176741 0.0015044 0.00126471 0.00104833 0.00085527 0.000685523 0.000539092 0.000412743 0.000303239 0.000210583 0.000134773 7.58099e-05 3.36933e-05 8.42332e-06 0 0 1.36744e-05 5.46978e-05 0.00012307 0.000218791 0.000341861 0.00049228 0.000670047 0.000875164 0.00111087 0.00138039 0.00168373 0.00202089 0.00239188 0.00279669 0.00323531 0.00370776 0.00420291 0.00470964 0.00522796 0.00575787 0.00629935 0.00685243 0.00741708 0.00799333 0.00857055 0.00913814 0.00969611 0.0102445 0.0107832 0.0113123 0.0118317 0.0123416 0.0128365 0.0133113 0.0137658 0.0142002 0.0146144 0.0150083 0.0153822 0.0157358 0.0160685 0.0163798 0.0166695 0.0169378 0.0171845 0.0174097 0.0176134 0.0177956 0.0179582 0.018103 0.0182301 0.0183395 0.0184311 0.018505 0.0185611 0.0185995 0.0186224 0.0186318 0.0186279 0.0186106 0.01858 0.018536 0.0184785 0.0184078 0.0183246 0.0182301 0.0181242 0.018007 0.0178784 0.0177385 0.0175871 0.0174245 0.0172502 0.0170639 0.0168657 0.0166555 0.0164334 0.0161993 0.0159533 0.0156953 0.0154249 0.0151416 0.0148454 0.0145362 0.0142142 0.0138793 0.0135315 0.0131707 0.0127982 0.0124148 0.0120207 0.0116157 0.0112001 0.0107736 0.0103363 0.00988831 0.00943359 0.00897627 0.00851635 0.00805382 0.00758869 0.00712096 0.00665063 0.00617769 0.00570964 0.00525399 0.00481072 0.00437985 0.00396136 0.00355527 0.00316156 0.00278025 0.00241857 0.00208379 0.0017759 0.00149491 0.00124081 0.00101361 0.000813297 0.00063988 0.000489908 0.000359933 0.000249953 0.00015997 8.99831e-05 3.99925e-05 9.99813e-06 0 0 1.59943e-05 6.39772e-05 0.000143949 0.000255909 0.000399858 0.000575795 0.000783721 0.00102364 0.00129883 0.00161259 0.00196491 0.0023558 0.00278526 0.00325328 0.00375987 0.00430502 0.004876 0.00546005 0.00605717 0.00666737 0.00729064 0.00792699 0.00857642 0.00923892 0.00990245 0.010555 0.0111965 0.011827 0.0124465 0.013055 0.0136525 0.014239 0.0148084 0.0153548 0.015878 0.0163782 0.0168553 0.0173093 0.0177402 0.0181481 0.018532 0.0188913 0.0192259 0.0195358 0.0198211 0.0200817 0.0203176 0.0205288 0.0207174 0.0208856 0.0210334 0.0211607 0.0212675 0.0213539 0.0214198 0.0214652 0.0214927 0.0215047 0.0215011 0.021482 0.0214474 0.0213973 0.0213317 0.0212506 0.0211551 0.0210464 0.0209245 0.0207894 0.0206411 0.0204796 0.020305 0.0201171 0.0199157 0.0197004 0.0194714 0.0192286 0.0189719 0.0187014 0.0184172 0.0181191 0.0178066 0.0174794 0.0171373 0.0167805 0.0164088 0.0160223 0.015621 0.0152048 0.0147751 0.0143331 0.0138788 0.0134121 0.0129332 0.0124419 0.0119383 0.0114224 0.0108989 0.0103724 0.00984294 0.00931051 0.00877511 0.00823675 0.00769543 0.00715114 0.00661239 0.0060877 0.00557705 0.00508047 0.00459793 0.00412945 0.00367501 0.00323464 0.00281664 0.00242936 0.00207278 0.00174693 0.00145178 0.00118734 0.000953623 0.000750613 0.000574688 0.00042222 0.000293208 0.000187653 0.000105555 4.69133e-05 1.17283e-05 0 0 1.85168e-05 7.40673e-05 0.000166651 0.000296269 0.00046292 0.000666605 0.000907324 0.00118508 0.00150315 0.00186482 0.00227009 0.00271896 0.00321144 0.00374752 0.00432719 0.00495047 0.00560287 0.00626991 0.00695158 0.00764788 0.00835882 0.00908439 0.00982461 0.0105795 0.0113354 0.0120788 0.0128098 0.0135283 0.0142343 0.0149278 0.0156089 0.0162775 0.0169267 0.0175498 0.0181467 0.0187175 0.0192621 0.0197805 0.0202728 0.0207388 0.0211778 0.0215887 0.0219715 0.0223263 0.022653 0.0229517 0.0232223 0.0234648 0.0236816 0.0238751 0.0240452 0.0241919 0.0243152 0.0244151 0.0244917 0.0245449 0.0245775 0.0245923 0.0245893 0.0245684 0.0245297 0.0244732 0.0243988 0.0243066 0.024198 0.0240741 0.023935 0.0237808 0.0236113 0.0234267 0.0232268 0.0230118 0.0227813 0.0225349 0.0222727 0.0219948 0.0217009 0.0213913 0.0210658 0.0207246 0.020367 0.0199925 0.0196011 0.0191929 0.0187679 0.0183259 0.0178671 0.0173915 0.0169004 0.0163954 0.0158765 0.0153436 0.0147968 0.014236 0.0136613 0.0130726 0.0124753 0.0118746 0.0112706 0.0106632 0.0100525 0.00943843 0.00882102 0.00820026 0.00758573 0.006987 0.00640408 0.00583696 0.00528565 0.00475015 0.00423045 0.00372655 0.00324795 0.00280411 0.00239505 0.00202075 0.00168123 0.00137648 0.0011065 0.000871293 0.000667083 0.000490102 0.000340349 0.000217823 0.000122526 5.44558e-05 1.36139e-05 0 0 2.12005e-05 8.48021e-05 0.000190805 0.000339208 0.000530013 0.000763219 0.00103883 0.00135683 0.00172047 0.00213295 0.00259428 0.00310447 0.0036635 0.00427138 0.00492812 0.0056337 0.00637183 0.00712618 0.00789676 0.00868358 0.00948662 0.0103059 0.0111414 0.0119931 0.012846 0.0136848 0.0145096 0.0153204 0.0161171 0.0168999 0.0176686 0.0184234 0.0191564 0.01986 0.0205343 0.0211791 0.0217946 0.0223808 0.0229375 0.0234649 0.0239617 0.024427 0.0248607 0.0252627 0.0256332 0.0259721 0.0262793 0.026555 0.0268017 0.0270219 0.0272156 0.027383 0.0275238 0.0276383 0.0277263 0.0277879 0.0278261 0.027844 0.0278417 0.0278191 0.0277762 0.027713 0.0276296 0.0275259 0.0274034 0.0272637 0.0271066 0.0269322 0.0267405 0.0265315 0.0263051 0.0260615 0.0258003 0.0255211 0.025224 0.024909 0.024576 0.0242251 0.0238562 0.0234694 0.0230642 0.0226399 0.0221966 0.0217344 0.0212531 0.0207528 0.0202335 0.0196952 0.0191396 0.0185684 0.0179815 0.017379 0.0167608 0.0161269 0.0154775 0.0148123 0.0141375 0.0134589 0.0127766 0.0120905 0.0114007 0.0107071 0.0100098 0.00930868 0.00861451 0.00793796 0.00727902 0.00663769 0.00601396 0.00540785 0.00481935 0.00424846 0.00370587 0.0032023 0.00273774 0.00231218 0.00192563 0.0015781 0.00126957 0.00100005 0.000765666 0.00056253 0.000390646 0.000250013 0.000140632 6.25033e-05 1.56258e-05 0 0 2.4004e-05 9.60159e-05 0.000216036 0.000384063 0.000600099 0.000864143 0.00117619 0.00153625 0.00194743 0.00241285 0.0029325 0.00350639 0.00413451 0.00481687 0.00555347 0.0063443 0.00717116 0.00801583 0.00887833 0.00975865 0.0106568 0.0115727 0.0125065 0.0134581 0.0144108 0.0153479 0.0162694 0.0171753 0.0180656 0.0189403 0.0197994 0.0206429 0.0214622 0.0222489 0.0230029 0.0237242 0.0244129 0.0250689 0.0256923 0.026283 0.0268397 0.0273612 0.0278475 0.0282986 0.0287144 0.029095 0.0294404 0.0297505 0.0300283 0.0302764 0.0304949 0.0306838 0.0308431 0.0309728 0.0310729 0.0311433 0.0311876 0.031209 0.0312076 0.0311834 0.0311364 0.0310666 0.0309739 0.0308585 0.0307218 0.0305657 0.03039 0.0301948 0.0299802 0.029746 0.0294923 0.0292191 0.028926 0.0286129 0.0282796 0.0279262 0.0275526 0.0271589 0.0267451 0.0263112 0.0258566 0.0253807 0.0248837 0.0243655 0.0238261 0.0232655 0.0226836 0.0220806 0.0214583 0.0208186 0.0201615 0.019487 0.0187952 0.0180859 0.0173593 0.0166153 0.0158605 0.0151015 0.0143384 0.0135711 0.0127996 0.0120239 0.011244 0.01046 0.00968362 0.00892664 0.0081891 0.00747099 0.0067723 0.00609304 0.00543321 0.00479281 0.00418381 0.00361817 0.0030959 0.00261699 0.00218145 0.00178928 0.00144047 0.00113503 0.000869008 0.000638455 0.000443371 0.000283758 0.000159614 7.09394e-05 1.77349e-05 0 0 2.69272e-05 0.000107709 0.000242344 0.000430834 0.000673179 0.000969378 0.00131943 0.00172334 0.00218405 0.00270452 0.00328475 0.00392474 0.00462448 0.00538398 0.00620324 0.00708226 0.00800086 0.00893886 0.00989628 0.0108731 0.0118693 0.012885 0.01392 0.0149745 0.01603 0.0170683 0.0180893 0.0190932 0.0200797 0.0210491 0.0220011 0.022936 0.0238442 0.0247164 0.0255526 0.0263527 0.0271169 0.027845 0.0285371 0.0291932 0.0298118 0.0303914 0.0309321 0.0314339 0.0318967 0.0323206 0.0327055 0.0330514 0.0333615 0.0336387 0.033883 0.0340944 0.0342729 0.0344186 0.0345314 0.0346113 0.0346621 0.0346873 0.0346872 0.0346615 0.0346104 0.0345338 0.0344318 0.0343042 0.0341531 0.0339801 0.0337854 0.0335688 0.0333304 0.0330702 0.0327882 0.0324844 0.0321585 0.0318102 0.0314395 0.0310464 0.0306308 0.0301929 0.0297326 0.0292498 0.0287442 0.028215 0.0276625 0.0270864 0.0264869 0.0258639 0.0252175 0.0245476 0.0238564 0.023146 0.0224165 0.0216678 0.0208999 0.0201129 0.0193067 0.0184814 0.0176442 0.0168023 0.0159559 0.0151048 0.0142491 0.0133888 0.0125238 0.0116543 0.010793 0.00995305 0.00913433 0.00833687 0.00756067 0.00680573 0.00607204 0.00535962 0.00468175 0.00405172 0.00346953 0.00293519 0.00244868 0.00201002 0.0016192 0.00127622 0.000977109 0.000717876 0.000498525 0.000319056 0.000179469 7.9764e-05 1.9941e-05 0 0 2.99701e-05 0.00011988 0.000269731 0.000479521 0.000749252 0.00107892 0.00146853 0.00191809 0.00243032 0.00300796 0.00365102 0.0043595 0.0051334 0.00597271 0.00687744 0.00784758 0.00886093 0.00989527 0.0109506 0.0120269 0.0131242 0.0142425 0.0153818 0.0165421 0.0177034 0.0188458 0.0199693 0.0210738 0.0221595 0.0232262 0.0242739 0.0253028 0.0263024 0.0272626 0.0281834 0.0290647 0.0299066 0.030709 0.031472 0.0321955 0.0328779 0.0335176 0.0341145 0.0346686 0.03518 0.0356487 0.0360746 0.0364577 0.0368013 0.0371087 0.0373798 0.0376147 0.0378134 0.0379758 0.0381019 0.0381918 0.0382495 0.038279 0.0382802 0.0382533 0.0381981 0.0381147 0.0380031 0.0378633 0.0376973 0.037507 0.0372926 0.037054 0.0367912 0.0365042 0.036193 0.0358576 0.0354977 0.0351131 0.0347037 0.0342695 0.0338106 0.033327 0.0328186 0.0322854 0.031727 0.0311428 0.0305328 0.029897 0.0292355 0.0285482 0.027835 0.0270962 0.0263339 0.0255507 0.0247464 0.0239213 0.0230751 0.0222079 0.0213198 0.0204107 0.0194886 0.0185614 0.0176291 0.0166917 0.0157493 0.0148018 0.0138491 0.0128914 0.0119428 0.0110172 0.0101147 0.00923533 0.00837906 0.0075459 0.00673584 0.00594888 0.0051997 0.00450295 0.00385864 0.00326676 0.00272733 0.00224033 0.00180576 0.00142363 0.00108997 0.000800795 0.000556107 0.000355909 0.000200199 8.89772e-05 2.22443e-05 0 0 3.31328e-05 0.000132531 0.000298195 0.000530124 0.000828319 0.00119278 0.00162351 0.0021205 0.00268623 0.00332317 0.00403132 0.00481069 0.00566127 0.00658306 0.00757606 0.00864027 0.00975138 0.0108851 0.0120413 0.0132201 0.0144215 0.0156455 0.016892 0.0181611 0.0194312 0.0206806 0.0219093 0.0231174 0.0243048 0.0254716 0.0266177 0.0277432 0.0288368 0.0298875 0.0308953 0.0318601 0.0327819 0.0336609 0.0344968 0.0352899 0.0360381 0.0367397 0.0373946 0.0380028 0.0385644 0.0390794 0.0395477 0.0399693 0.0403477 0.0406865 0.0409855 0.0412448 0.0414644 0.0416443 0.0417844 0.0418849 0.0419499 0.0419839 0.0419869 0.0419587 0.0418995 0.0418093 0.041688 0.0415356 0.0413543 0.0411464 0.0409118 0.0406505 0.0403625 0.0400479 0.0397066 0.0393386 0.0389436 0.0385215 0.0380722 0.0375957 0.037092 0.0365612 0.0360031 0.0354179 0.034805 0.034164 0.0334947 0.0327974 0.0320719 0.0313182 0.0305364 0.0297264 0.0288909 0.0280326 0.0271514 0.0262474 0.0253206 0.024371 0.0233985 0.0224032 0.0213937 0.0203787 0.0193581 0.0183319 0.0173001 0.0162628 0.01522 0.0141715 0.0131328 0.012119 0.0111302 0.0101664 0.00922748 0.00831356 0.0074246 0.0065606 0.00573765 0.00497186 0.00426322 0.00361173 0.00301738 0.00248019 0.00200015 0.00157726 0.00120759 0.00088721 0.000616118 0.000394315 0.000221802 9.85789e-05 2.46447e-05 0 0 3.64152e-05 0.000145661 0.000327737 0.000582643 0.00091038 0.00131095 0.00178434 0.00233057 0.00295179 0.00365015 0.00442565 0.0052783 0.00620809 0.00721502 0.0082991 0.00946033 0.0106722 0.0119082 0.0131684 0.0144527 0.0157612 0.0170938 0.0184505 0.0198314 0.0212132 0.0225725 0.0239094 0.0252238 0.0265158 0.0277854 0.0290325 0.0302572