<?xml version="1.0"?> 
<VTKFile type="StructuredGrid" version="0.1"> 
<StructuredGrid WholeExtent="0 128 0 128 0 0"> 
<Piece Extent="0 128 0 128 0 0"> 
<PointData>
<DataArray type="Float32" Name="u" format="ascii" NumberOfComponents="1"> 
0 0 0 0 0 0 0 0 0 0 0 0 0 0 0 0 0 0 0 0 0 0 0 0 0 0 0 0 0 0 0 0 0 0 0 0 0 0 0 0 0 0 0 0 0 0 0 0 0 0 0 0 0 0 0 0 0 0 0 0 0 0 0 0 0 0 0 0 0 0 0 0 0 0 0 0 0 0 0 0 0 0 0 0 0 0 0 0 0 0 0 0 0 0 0 0 0 0 0 0 0 0 0 0 0 0 0 0 0 0 0 0 0 0 0 0 0 0 0 0 0 0 0 0 0 0 0 0 0 0 6.30175e-08 2.5207e-07 5.67157e-07 1.00828e-06 1.57544e-06 2.26863e-06 3.08786e-06 4.03312e-06 5.13118e-06 6.40879e-06 7.86596e-06 9.50269e-06 1.1319e-05 1.33148e-05 1.54902e-05 1.78452e-05 2.03234e-05 2.28688e-05 2.54812e-05 2.81607e-05 3.09073e-05 3.3721e-05 3.66018e-05 3.95496e-05 4.25079e-05 4.542e-05 4.8286e-05 5.11058e-05 5.38794e-05 5.66068e-05 5.92881e-05 6.19232e-05 6.44839e-05 6.69421e-05 6.92978e-05 7.15509e-05 7.37015e-05 7.57495e-05 7.7695e-05 7.9538e-05 8.12741e-05 8.2899e-05 8.44127e-05 8.58151e-05 8.71064e-05 8.82864e-05 8.93553e-05 9.03129e-05 9.11681e-05 9.19295e-05 9.25973e-05 9.31713e-05 9.36516e-05 9.40382e-05 9.4331e-05 9.45302e-05 9.46463e-05 9.46903e-05 9.46622e-05 9.45618e-05 9.43892e-05 9.41445e-05 9.38275e-05 9.34384e-05 9.29827e-05 9.24661e-05 9.18885e-05 9.125e-05 9.05506e-05 8.97903e-05 8.8969e-05 8.80868e-05 8.71434e-05 8.61385e-05 8.50721e-05 8.39442e-05 8.27548e-05 8.15039e-05 8.01915e-05 7.88176e-05 7.73812e-05 7.58812e-05 7.43177e-05 7.26907e-05 7.1e-05 6.92458e-05 6.74281e-05 6.55468e-05 6.36084e-05 6.16192e-05 5.95792e-05 5.74886e-05 5.53471e-05 5.31549e-05 5.0912e-05 4.86183e-05 4.62952e-05 4.3964e-05 4.16248e-05 3.92775e-05 3.69221e-05 3.45587e-05 3.21872e-05 2.98077e-05 2.74589e-05 2.518e-05 2.29708e-05 2.08313e-05 1.87616e-05 1.67617e-05 1.48315e-05 1.2971e-05 1.12152e-05 9.59908e-06 8.12256e-06 6.78567e-06 5.5884e-06 4.53075e-06 3.61273e-06 2.83434e-06 2.17004e-06 1.59431e-06 1.10716e-06 7.08584e-07 3.98579e-07 1.77146e-07 4.42865e-08 0 0 2.5207e-07 1.00828e-06 2.26863e-06 4.03312e-06 6.30175e-06 9.07452e-06 1.23514e-05 1.61325e-05 2.05247e-05 2.56352e-05 3.14638e-05 3.80108e-05 4.52759e-05 5.32592e-05 6.19608e-05 7.13806e-05 8.12937e-05 9.14752e-05 0.000101925 0.000112643 0.000123629 0.000134884 0.000146407 0.000158198 0.000170032 0.00018168 0.000193144 0.000204423 0.000215518 0.000226427 0.000237152 0.000247693 0.000257936 0.000267769 0.000277191 0.000286204 0.000294806 0.000302998 0.00031078 0.000318152 0.000325096 0.000331596 0.000337651 0.000343261 0.000348426 0.000353146 0.000357421 0.000361252 0.000364672 0.000367718 0.000370389 0.000372685 0.000374606 0.000376153 0.000377324 0.000378121 0.000378585 0.000378761 0.000378649 0.000378247 0.000377557 0.000376578 0.00037531 0.000373754 0.000371931 0.000369864 0.000367554 0.000365 0.000362203 0.000359161 0.000355876 0.000352347 0.000348574 0.000344554 0.000340288 0.000335777 0.000331019 0.000326016 0.000320766 0.00031527 0.000309525 0.000303525 0.000297271 0.000290763 0.000284 0.000276983 0.000269712 0.000262187 0.000254434 0.000246477 0.000238317 0.000229954 0.000221388 0.00021262 0.000203648 0.000194473 0.000185181 0.000175856 0.000166499 0.00015711 0.000147689 0.000138235 0.000128749 0.000119231 0.000109836 0.00010072 9.18831e-05 8.33253e-05 7.50465e-05 6.70466e-05 5.93258e-05 5.1884e-05 4.48609e-05 3.83963e-05 3.24903e-05 2.71427e-05 2.23536e-05 1.8123e-05 1.44509e-05 1.13373e-05 8.68015e-06 6.37726e-06 4.42865e-06 2.83434e-06 1.59431e-06 7.08584e-07 1.77146e-07 0 0 5.67157e-07 2.26863e-06 5.10441e-06 9.07452e-06 1.41789e-05 2.04177e-05 2.77907e-05 3.62981e-05 4.61806e-05 5.76791e-05 7.07936e-05 8.55242e-05 0.000101871 0.000119833 0.000139412 0.000160606 0.000182911 0.000205819 0.000229331 0.000253447 0.000278166 0.000303489 0.000329416 0.000355947 0.000382571 0.00040878 0.000434574 0.000459952 0.000484915 0.000509462 0.000533593 0.000557309 0.000580355 0.000602479 0.00062368 0.000643958 0.000663313 0.000681746 0.000699255 0.000715842 0.000731467 0.000746091 0.000759714 0.000772336 0.000783958 0.000794578 0.000804198 0.000812816 0.000820513 0.000827366 0.000833375 0.000838542 0.000842864 0.000846343 0.000848979 0.000850771 0.000851817 0.000852213 0.000851959 0.000851056 0.000849503 0.0008473 0.000844448 0.000840946 0.000836844 0.000832195 0.000826997 0.00082125 0.000814956 0.000808113 0.000800721 0.000792781 0.000784291 0.000775246 0.000765649 0.000755498 0.000744793 0.000733535 0.000721724 0.000709359 0.000696431 0.000682931 0.00066886 0.000654216 0.000639 0.000623213 0.000606853 0.000589921 0.000572475 0.000554573 0.000536213 0.000517397 0.000498124 0.000478394 0.000458208 0.000437565 0.000416657 0.000395676 0.000374623 0.000353497 0.000332299 0.000311028 0.000289685 0.000268269 0.000247131 0.00022662 0.000206737 0.000187482 0.000168855 0.000150855 0.000133483 0.000116739 0.000100937 8.63917e-05 7.31031e-05 6.1071e-05 5.02956e-05 4.07768e-05 3.25146e-05 2.5509e-05 1.95303e-05 1.43488e-05 9.96446e-06 6.37726e-06 3.58721e-06 1.59431e-06 3.98579e-07 0 0 1.00828e-06 4.03312e-06 9.07452e-06 1.61325e-05 2.5207e-05 3.62981e-05 4.94057e-05 6.45299e-05 8.20988e-05 0.000102541 0.000125855 0.000152043 0.000181104 0.000213037 0.000247843 0.000285523 0.000325175 0.000365901 0.0004077 0.000450572 0.000494517 0.000539536 0.000585628 0.000632794 0.000680127 0.000726721 0.000772576 0.000817693 0.00086207 0.000905709 0.00094861 0.000990771 0.00103174 0.00107107 0.00110876 0.00114481 0.00117922 0.00121199 0.00124312 0.00127261 0.00130039 0.00132638 0.0013506 0.00137304 0.0013937 0.00141258 0.00142968 0.00144501 0.00145869 0.00147087 0.00148156 0.00149074 0.00149843 0.00150461 0.0015093 0.00151248 0.00151434 0.00151505 0.00151459 0.00151299 0.00151023 0.00150631 0.00150124 0.00149501 0.00148772 0.00147946 0.00147022 0.00146 0.00144881 0.00143664 0.0014235 0.00140939 0.00139429 0.00137822 0.00136115 0.00134311 0.00132408 0.00130406 0.00128306 0.00126108 0.0012381 0.0012141 0.00118908 0.00116305 0.001136 0.00110793 0.00107885 0.00104875 0.00101773 0.000985907 0.000953268 0.000919817 0.000885554 0.000850479 0.000814592 0.000777892 0.000740723 0.000703424 0.000665996 0.00062844 0.000590754 0.000552939 0.000514995 0.000476923 0.000439343 0.00040288 0.000367532 0.000333301 0.000300186 0.000268187 0.000237303 0.000207536 0.000179444 0.000153585 0.000129961 0.000108571 8.94144e-05 7.24921e-05 5.78037e-05 4.53494e-05 3.47206e-05 2.5509e-05 1.77146e-05 1.13373e-05 6.37726e-06 2.83434e-06 7.08584e-07 0 0 1.57544e-06 6.30175e-06 1.41789e-05 2.5207e-05 3.93859e-05 5.67157e-05 7.71964e-05 0.000100828 0.000128279 0.00016022 0.000196649 0.000237567 0.000282974 0.00033287 0.000387255 0.000446129 0.000508086 0.00057172 0.000637031 0.000704019 0.000772683 0.000843025 0.000915045 0.000988741 0.0010627 0.0011355 0.00120715 0.00127764 0.00134698 0.00141517 0.0014822 0.00154808 0.0016121 0.00167355 0.00173244 0.00178877 0.00184254 0.00189374 0.00194238 0.00198845 0.00203185 0.00207247 0.00211032 0.00214538 0.00217766 0.00220716 0.00223388 0.00225782 0.0022792 0.00229824 0.00231493 0.00232928 0.00234129 0.00235095 0.00235828 0.00236325 0.00236616 0.00236726 0.00236655 0.00236404 0.00235973 0.00235361 0.00234569 0.00233596 0.00232457 0.00231165 0.00229721 0.00228125 0.00226377 0.00224476 0.00222423 0.00220217 0.00217859 0.00215346 0.0021268 0.0020986 0.00206887 0.0020376 0.00200479 0.00197044 0.00193453 0.00189703 0.00185794 0.00181727 0.001775 0.00173115 0.0016857 0.00163867 0.00159021 0.00154048 0.00148948 0.00143721 0.00138368 0.00132887 0.0012728 0.00121546 0.00115738 0.0010991 0.00104062 0.000981937 0.000923053 0.000863968 0.00080468 0.000745192 0.000686474 0.0006295 0.00057427 0.000520783 0.00046904 0.000419041 0.000370786 0.000324275 0.000280381 0.000239977 0.000203064 0.000169642 0.00013971 0.000113269 9.03183e-05 7.08584e-05 5.4251e-05 3.98579e-05 2.76791e-05 1.77146e-05 9.96446e-06 4.42865e-06 1.10716e-06 0 0 2.26863e-06 9.07452e-06 2.04177e-05 3.62981e-05 5.67157e-05 8.16706e-05 0.000111163 0.000145192 0.000184722 0.000230716 0.000283175 0.000342097 0.000407483 0.000479333 0.000557648 0.000642426 0.000731644 0.000823276 0.000917324 0.00101379 0.00111266 0.00121396 0.00131766 0.00142379 0.00153029 0.00163512 0.0017383 0.00183981 0.00193966 0.00203785 0.00213437 0.00222924 0.00232142 0.00240992 0.00249472 0.00257583 0.00265325 0.00272698 0.00279702 0.00286337 0.00292587 0.00298436 0.00303886 0.00308934 0.00313583 0.00317831 0.00321679 0.00325127 0.00328205 0.00330946 0.0033335 0.00335417 0.00337146 0.00338537 0.00339592 0.00340309 0.00340727 0.00340885 0.00340784 0.00340422 0.00339801 0.0033892 0.00337779 0.00336378 0.00334738 0.00332878 0.00330799 0.003285 0.00325982 0.00323245 0.00320288 0.00317113 0.00313716 0.00310099 0.0030626 0.00302199 0.00297917 0.00293414 0.00288689 0.00283743 0.00278572 0.00273172 0.00267544 0.00261686 0.002556 0.00249285 0.00242741 0.00235969 0.0022899 0.00221829 0.00214485 0.00206959 0.0019925 0.00191358 0.00183283 0.00175026 0.00166663 0.0015827 0.00149849 0.00141399 0.0013292 0.00124411 0.00115874 0.00107308 0.000988522 0.00090648 0.000826948 0.000749928 0.000675418 0.00060342 0.000533932 0.000466956 0.000403748 0.000345567 0.000292412 0.000244284 0.000201182 0.000163107 0.000130058 0.000102036 7.81214e-05 5.73953e-05 3.98579e-05 2.5509e-05 1.43488e-05 6.37726e-06 1.59431e-06 0 0 3.08786e-06 1.23514e-05 2.77907e-05 4.94057e-05 7.71964e-05 0.000111163 0.000151305 0.000197623 0.000251428 0.000314031 0.000385432 0.000465632 0.00055463 0.000652426 0.00075902 0.000874413 0.000995848 0.00112057 0.00124858 0.00137988 0.00151446 0.00165233 0.00179349 0.00193793 0.00208289 0.00222558 0.00236601 0.00250418 0.00264009 0.00277373 0.00290512 0.00303424 0.00315971 0.00328016 0.00339559 0.00350599 0.00361137 0.00371173 0.00380706 0.00389736 0.00398243 0.00406205 0.00413622 0.00420494 0.00426821 0.00432604 0.00437841 0.00442533 0.00446724 0.00450455 0.00453727 0.00456539 0.00458893 0.00460787 0.00462222 0.00463198 0.00463767 0.00463983 0.00463845 0.00463353 0.00462507 0.00461308 0.00459755 0.00457848 0.00455615 0.00453084 0.00450254 0.00447125 0.00443698 0.00439972 0.00435948 0.00431625 0.00427003 0.00422079 0.00416853 0.00411327 0.00405498 0.00399369 0.00392938 0.00386206 0.00379168 0.00371818 0.00364157 0.00356184 0.003479 0.00339305 0.00330398 0.00321179 0.00311681 0.00301934 0.00291938 0.00281694 0.00271201 0.00260459 0.00249469 0.0023823 0.00226846 0.00215424 0.00203961 0.0019246 0.00180918 0.00169338 0.00157717 0.00146058 0.00134549 0.00123382 0.00112557 0.00102073 0.000919319 0.000821321 0.000726741 0.000635579 0.000549546 0.000470355 0.000398006 0.000332498 0.000273832 0.000222007 0.000177024 0.000138882 0.000106332 7.81214e-05 5.4251e-05 3.47206e-05 1.95303e-05 8.68015e-06 2.17004e-06 0 0 4.03312e-06 1.61325e-05 3.62981e-05 6.45299e-05 0.000100828 0.000145192 0.000197623 0.00025812 0.000328395 0.000410163 0.000503421 0.000608172 0.000724414 0.000852148 0.000991373 0.00114209 0.0013007 0.0014636 0.0016308 0.00180229 0.00197807 0.00215815 0.00234251 0.00253118 0.00272051 0.00290688 0.0030903 0.00327077 0.00344828 0.00362284 0.00379444 0.00396308 0.00412697 0.0042843 0.00443506 0.00457926 0.0047169 0.00484797 0.00497248 0.00509043 0.00520154 0.00530554 0.00540241 0.00549217 0.00557481 0.00565033 0.00571874 0.00578003 0.00583476 0.00588349 0.00592623 0.00596296 0.0059937 0.00601844 0.00603719 0.00604993 0.00605737 0.00606018 0.00605838 0.00605195 0.00604091 0.00602525 0.00600496 0.00598006 0.00595089 0.00591783 0.00588087 0.00584 0.00579524 0.00574658 0.00569402 0.00563756 0.00557718 0.00551286 0.00544461 0.00537243 0.00529631 0.00521625 0.00513226 0.00504433 0.0049524 0.0048564 0.00475633 0.0046522 0.004544 0.00443173 0.0043154 0.004195 0.00407094 0.00394363 0.00381307 0.00367927 0.00354222 0.00340191 0.00325837 0.00311157 0.00296289 0.0028137 0.00266399 0.00251376 0.00236302 0.00221176 0.00205998 0.00190769 0.00175737 0.00161152 0.00147013 0.0013332 0.00120074 0.00107275 0.000949213 0.000830144 0.000717775 0.000614341 0.000519844 0.000434283 0.000357658 0.000289968 0.000231215 0.000181398 0.000138882 0.000102036 7.08584e-05 4.53494e-05 2.5509e-05 1.13373e-05 2.83434e-06 0 0 5.14123e-06 2.05649e-05 4.62711e-05 8.22598e-05 0.000128531 0.000185084 0.00025192 0.000329039 0.000418553 0.000522574 0.000641104 0.000774141 0.000921687 0.00108374 0.0012603 0.00145137 0.0016524 0.00185882 0.00207066 0.00228789 0.00251053 0.00273858 0.00297202 0.00321087 0.00345056 0.00368651 0.00391872 0.0041472 0.00437195 0.00459296 0.00481024 0.00502378 0.00523131 0.00543054 0.00562148 0.00580413 0.00597848 0.00614454 0.00630231 0.00645178 0.00659261 0.00672443 0.00684724 0.00696105 0.00706586 0.00716166 0.00724846 0.00732625 0.00739574 0.00745763 0.00751192 0.00755861 0.0075977 0.00762919 0.00765308 0.00766937 0.00767892 0.00768261 0.00768044 0.0076724 0.0076585 0.00763873 0.0076131 0.0075816 0.0075447 0.00750284 0.00745603 0.00740426 0.00734755 0.00728588 0.00721925 0.00714768 0.00707113 0.00698959 0.00690306 0.00681154 0.00671502 0.00661352 0.00650702 0.00639553 0.00627897 0.00615727 0.00603041 0.00589841 0.00576126 0.00561896 0.00547152 0.00531893 0.00516171 0.00500038 0.00483496 0.00466543 0.0044918 0.00431406 0.00413222 0.00394627 0.00375795 0.00356898 0.00337936 0.00318908 0.00299815 0.00280658 0.00261435 0.00242147 0.00223107 0.00204631 0.00186717 0.00169366 0.00152577 0.00136352 0.00120689 0.00105588 0.000913338 0.00078208 0.000662108 0.000553425 0.000456028 0.000369919 0.000295097 0.000231563 0.00017729 0.000130254 9.04542e-05 5.78907e-05 3.25635e-05 1.44727e-05 3.61817e-06 0 0 6.44903e-06 2.57961e-05 5.80412e-05 0.000103184 0.000161226 0.000232165 0.000316002 0.000412738 0.000524828 0.000654728 0.00080244 0.000967964 0.0011513 0.00135244 0.0015714 0.00180817 0.00205713 0.00231269 0.00257483 0.00284356 0.00311888 0.00340079 0.00368929 0.00398437 0.00428046 0.00457194 0.00485883 0.00514112 0.00541882 0.00569192 0.00596042 0.00622433 0.00648083 0.00672713 0.00696323 0.00718912 0.0074048 0.00761028 0.00780556 0.00799062 0.00816504 0.00832834 0.00848054 0.00862163 0.00875161 0.00887048 0.00897825 0.00907491 0.00916132 0.00923831 0.0093059 0.00936407 0.00941284 0.00945221 0.00948216 0.0095027 0.0095149 0.00951981 0.00951743 0.00950776 0.00949081 0.00946656 0.00943503 0.00939621 0.00935067 0.00929896 0.00924108 0.00917705 0.00910685 0.00903048 0.00894796 0.00885927 0.0087644 0.00866334 0.00855609 0.00844265 0.00832302 0.0081972 0.00806518 0.00792698 0.0077825 0.00763167 0.00747448 0.00731094 0.00714104 0.00696478 0.00678218 0.00659321 0.00639855 0.00619884 0.00599408 0.00578428 0.00556943 0.00534954 0.00512459 0.0048946 0.00466169 0.00442798 0.00419347 0.00395816 0.00372206 0.00348515 0.00324745 0.00300895 0.00277349 0.00254492 0.00232322 0.00210842 0.0019005 0.00169946 0.0015053 0.00131803 0.00114114 0.000978124 0.000828979 0.000693708 0.000572311 0.000464787 0.000371137 0.00029136 0.000223072 0.00016389 0.000113812 7.284e-05 4.09725e-05 1.821e-05 4.5525e-06 0 0 7.95649e-06 3.1826e-05 7.16084e-05 0.000127304 0.000198912 0.000286434 0.000389868 0.000509215 0.00064722 0.000806625 0.000987431 0.00118964 0.00141325 0.00165826 0.00192467 0.00221248 0.00251491 0.00282519 0.00314332 0.0034693 0.00380313 0.0041448 0.00449432 0.00485168 0.0052102 0.00556318 0.00591062 0.00625252 0.00658888 0.0069197 0.00724498 0.00756473 0.00787555 0.00817407 0.0084603 0.00873422 0.00899585 0.00924518 0.00948222 0.00970695 0.00991882 0.0101173 0.0103023 0.0104739 0.0106321 0.0107768 0.0109081 0.011026 0.0111315 0.0112255 0.0113081 0.0113794 0.0114391 0.0114875 0.0115244 0.0115499 0.0115653 0.0115718 0.0115694 0.011558 0.0115378 0.0115087 0.0114708 0.0114239 0.0113688 0.0113062 0.011236 0.0111584 0.0110731 0.0109804 0.0108801 0.0107723 0.010657 0.0105341 0.0104037 0.0102658 0.0101203 0.00996728 0.00980674 0.00963866 0.00946298 0.0092796 0.00908853 0.00888978 0.00868333 0.0084692 0.00824738 0.00801786 0.00778147 0.007539 0.00729045 0.00703582 0.00677512 0.00650834 0.00623549 0.00595655 0.0056741 0.0053907 0.00510633 0.00482101 0.00453473 0.00424749 0.00395929 0.00367014 0.00338462 0.00310734 0.00283829 0.00257748 0.00232491 0.00208057 0.00184446 0.00161659 0.00140118 0.00120247 0.00102046 0.000855134 0.000706506 0.000574572 0.000459333 0.000360789 0.000276229 0.000202944 0.000140933 9.01972e-05 5.07359e-05 2.25493e-05 5.63733e-06 0 0 9.66363e-06 3.86545e-05 8.69727e-05 0.000154618 0.000241591 0.000347891 0.000473518 0.000618472 0.000785729 0.000978264 0.00119608 0.00143917 0.00170753 0.00200118 0.0023201 0.0026643 0.00302573 0.00339634 0.00377613 0.00416511 0.00456326 0.00497059 0.0053871 0.0058128 0.0062398 0.00666023 0.0070741 0.00748141 0.00788215 0.00827632 0.00866393 0.00904497 0.00941545 0.00977135 0.0101127 0.0104394 0.0107516 0.0110492 0.0113323 0.0116008 0.011854 0.0120912 0.0123125 0.0125178 0.0127072 0.0128806 0.0130381 0.0131795 0.0133062 0.0134193 0.0135187 0.0136044 0.0136766 0.0137351 0.0137799 0.0138111 0.0138301 0.0138385 0.0138362 0.0138232 0.0137996 0.0137653 0.0137203 0.0136646 0.0135991 0.0135245 0.0134409 0.0133482 0.0132464 0.0131356 0.0130158 0.0128868 0.0127489 0.0126019 0.0124459 0.0122809 0.0121068 0.0119238 0.0117317 0.0115306 0.0113204 0.0111011 0.0108726 0.0106349 0.0103881 0.0101322 0.00986711 0.00959287 0.00931046 0.00902085 0.00872405 0.00842006 0.00810887 0.00779048 0.0074649 0.00713213 0.0067952 0.00645713 0.00611794 0.00577762 0.00543616 0.00509358 0.00474987 0.00440503 0.00406447 0.00373358 0.00341238 0.00310086 0.00279901 0.00250685 0.00222436 0.00195156 0.00169347 0.00145513 0.00123654 0.0010377 0.000858613 0.000699275 0.000559687 0.00043985 0.00033676 0.000247415 0.000171816 0.000109962 6.18539e-05 2.74906e-05 6.87265e-06 0 0 1.15704e-05 4.62818e-05 0.000104134 0.000185127 0.000289261 0.000416536 0.000566952 0.000740508 0.000940356 0.00116964 0.00142838 0.00171655 0.00203416 0.00238121 0.00275771 0.00316364 0.00358959 0.00402613 0.00447326 0.00493098 0.00539928 0.00587817 0.00636765 0.00686771 0.00736924 0.00786309 0.00834927 0.00882778 0.00929861 0.00976177 0.0102173 0.0106651 0.0111005 0.011519 0.0119204 0.0123048 0.0126721 0.0130225 0.0133558 0.0136721 0.0139705 0.0142502 0.0145112 0.0147535 0.014977 0.0151819 0.0153681 0.0155355 0.0156856 0.0158196 0.0159375 0.0160394 0.0161252 0.0161949 0.0162486 0.0162862 0.0163094 0.01632 0.016318 0.0163034 0.0162761 0.0162362 0.0161836 0.0161184 0.0160416 0.0159539 0.0158556 0.0157465 0.0156267 0.0154961 0.0153549 0.0152028 0.0150401 0.0148667 0.0146827 0.014488 0.0142827 0.0140667 0.0138401 0.0136028 0.0133548 0.0130961 0.0128266 0.0125464 0.0122555 0.0119538 0.0116414 0.0113182 0.0109855 0.0106444 0.0102949 0.00993698 0.00957067 0.00919595 0.00881284 0.00842133 0.00802496 0.00762728 0.00722829 0.00682799 0.00642637 0.00602344 0.00561919 0.00521364 0.00481303 0.00442365 0.00404548 0.00367853 0.0033228 0.0029783 0.002645 0.00232293 0.00201799 0.00173609 0.00147723 0.00124141 0.00102863 0.000838895 0.000672198 0.000528542 0.000404665 0.000297305 0.000206462 0.000132136 7.43263e-05 3.30339e-05 8.25847e-06 0 0 1.36769e-05 5.47077e-05 0.000123092 0.000218831 0.000341923 0.00049237 0.00067017 0.000875324 0.0011111 0.00138077 0.00168433 0.00202178 0.00239312 0.00279836 0.00323748 0.0037105 0.0042065 0.00471457 0.0052347 0.00576691 0.00631119 0.00686754 0.00743595 0.00801644 0.00859853 0.00917176 0.00973612 0.0102916 0.0108383 0.011376 0.011905 0.012425 0.0129308 0.0134169 0.0138834 0.0143302 0.0147574 0.0151649 0.0155527 0.0159209 0.0162684 0.0165942 0.0168983 0.0171808 0.0174416 0.0176807 0.0178981 0.0180939 0.0182695 0.0184264 0.0185646 0.0186841 0.0187849 0.018867 0.0189304 0.0189751 0.0190031 0.0190163 0.0190147 0.0189984 0.0189673 0.0189214 0.0188607 0.0187853 0.0186962 0.0185945 0.0184802 0.0183534 0.018214 0.018062 0.0178974 0.0177203 0.0175306 0.0173286 0.0171141 0.0168871 0.0166478 0.016396 0.0161318 0.0158552 0.0155661 0.0152646 0.0149506 0.0146242 0.0142853 0.013934 0.0135702 0.013194 0.0128067 0.0124097 0.012003 0.0115866 0.0111605 0.0107248 0.0102793 0.00982415 0.00936341 0.00890115 0.00843739 0.00797212 0.00750534 0.00703705 0.00656725 0.00609594 0.00563031 0.00517753 0.0047376 0.00431052 0.00389629 0.00349491 0.00310639 0.00273072 0.00237475 0.00204536 0.00174253 0.00146626 0.00121656 0.000993433 0.000796867 0.000626867 0.000479945 0.000352613 0.00024487 0.000156717 8.81532e-05 3.91792e-05 9.7948e-06 0 0 1.59831e-05 6.39324e-05 0.000143848 0.000255729 0.000399577 0.000575391 0.000783172 0.00102292 0.00129796 0.00161163 0.00196394 0.00235487 0.00278442 0.00325261 0.00375943 0.00430487 0.00487644 0.00546164 0.00606047 0.00667291 0.00729899 0.00793869 0.00859202 0.00925897 0.00992767 0.0105862 0.0112347 0.011873 0.0125011 0.0131192 0.0137271 0.0143248 0.0149063 0.0154653 0.0160018 0.0165158 0.0170073 0.0174764 0.017923 0.0183471 0.0187476 0.0191232 0.0194739 0.0197998 0.0201008 0.020377 0.0206283 0.0208548 0.021058 0.0212398 0.0214 0.0215386 0.0216558 0.0217514 0.0218254 0.021878 0.0219112 0.0219273 0.0219264 0.0219083 0.0218732 0.021821 0.0217516 0.0216652 0.021563 0.0214461 0.0213147 0.0211688 0.0210082 0.0208331 0.0206434 0.0204392 0.0202205 0.0199874 0.01974 0.0194783 0.0192022 0.0189117 0.018607 0.0182878 0.0179544 0.0176067 0.0172446 0.0168683 0.0164777 0.0160728 0.0156536 0.0152201 0.0147739 0.0143166 0.0138483 0.0133689 0.0128784 0.0123769 0.0118643 0.0113406 0.0108105 0.0102787 0.00974523 0.00921001 0.00867307 0.00813442 0.00759405 0.00705196 0.0065163 0.00599522 0.00548873 0.0049968 0.00451946 0.0040567 0.00360852 0.00317491 0.00276376 0.00238293 0.00203243 0.00171226 0.00142241 0.00116289 0.000933692 0.000734823 0.000562599 0.000413338 0.00028704 0.000183706 0.000103335 4.59265e-05 1.14816e-05 0 0 1.84889e-05 7.39557e-05 0.0001664 0.000295823 0.000462223 0.000665601 0.000905958 0.00118329 0.00150094 0.00186224 0.0022672 0.0027158 0.00320806 0.00374398 0.00432354 0.00494676 0.00559943 0.00626736 0.00695054 0.00764898 0.00836268 0.00909163 0.00983584 0.0105953 0.0113567 0.0121065 0.0128449 0.0135718 0.0142872 0.0149911 0.0156835 0.0163645 0.0170269 0.0176639 0.0182754 0.0188615 0.019422 0.0199571 0.0204667 0.0209509 0.0214082 0.0218372 0.022238 0.0226105 0.0229548 0.0232708 0.0235585 0.023818 0.0240511 0.0242597 0.0244436 0.024603 0.0247378 0.024848 0.0249337 0.0249947 0.0250337 0.0250531 0.025053 0.0250332 0.0249938 0.0249349 0.0248563 0.0247582 0.0246419 0.0245089 0.0243592 0.0241927 0.0240095 0.0238096 0.0235929 0.0233596 0.0231096 0.0228433 0.0225606 0.0222614 0.0219459 0.0216139 0.0212655 0.0209007 0.0205196 0.0201223 0.0197086 0.0192787 0.0188326 0.0183701 0.0178915 0.0173965 0.0168872 0.0163653 0.0158309 0.0152839 0.0147244 0.0141524 0.0135678 0.0129707 0.0123663 0.01176 0.0111518 0.0105417 0.00992958 0.00931555 0.00869958 0.00808168 0.00747101 0.00687674 0.00629887 0.0057374 0.00519233 0.00466366 0.00415138 0.00365551 0.003185 0.00274881 0.00234694 0.00197939 0.00164617 0.00134726 0.00108267 0.000852411 0.000652627 0.000479481 0.000332973 0.000213103 0.00011987 5.32757e-05 1.33189e-05 0 0 2.1151e-05 8.4604e-05 0.000190359 0.000338416 0.000528775 0.000761436 0.0010364 0.00135366 0.00171652 0.00212826 0.00258889 0.0030984 0.00365679 0.00426407 0.00492023 0.00562528 0.00636322 0.00711809 0.00788988 0.0086786 0.00948423 0.0103068 0.0111463 0.0120027 0.0128611 0.0137066 0.0145392 0.0153589 0.0161657 0.0169596 0.0177405 0.0185086 0.019256 0.0199747 0.0206649 0.0213264 0.0219594 0.0225637 0.0231395 0.0236867 0.0242036 0.0246888 0.0251422 0.0255638 0.0259535 0.0263115 0.0266377 0.0269321 0.0271967 0.0274335 0.0276425 0.0278238 0.0279774 0.0281031 0.0282011 0.0282714 0.0283166 0.0283396 0.0283404 0.028319 0.0282753 0.0282094 0.0281213 0.0280109 0.02788 0.02773 0.0275611 0.0273731 0.0271661 0.0269402 0.0266952 0.0264313 0.0261485 0.0258472 0.0255273 0.0251888 0.0248318 0.0244561 0.0240619 0.0236491 0.0232179 0.0227683 0.0223005 0.0218143 0.0213097 0.0207869 0.0202457 0.0196863 0.0191106 0.0185208 0.017917 0.0172992 0.0166672 0.0160212 0.0153611 0.014687 0.0140048 0.0133203 0.0126338 0.011945 0.0112541 0.010561 0.00986568 0.00916824 0.00847884 0.00780773 0.00715488 0.00652031 0.00590402 0.00530599 0.00472625 0.00416477 0.00363168 0.00313707 0.00268096 0.00226333 0.00188419 0.00154354 0.00124138 0.000977711 0.00074856 0.000549963 0.000381918 0.000244428 0.000137491 6.1107e-05 1.52767e-05 0 0 2.39259e-05 9.57035e-05 0.000215333 0.000382814 0.000598147 0.000861332 0.00117237 0.00153126 0.00194119 0.00240537 0.00292379 0.00349646 0.00412336 0.00480451 0.0055399 0.00632954 0.00715559 0.00800022 0.00886343 0.00974523 0.0106456 0.0115646 0.0125021 0.0134583 0.0144165 0.0153604 0.0162899 0.017205 0.0181058 0.0189922 0.0198643 0.020722 0.0215566 0.0223594 0.0231305 0.0238697 0.0245772 0.0252529 0.0258968 0.026509 0.0270875 0.0276306 0.0281383 0.0286105 0.0290473 0.0294487 0.0298146 0.0301451 0.0304424 0.0307086 0.0309438 0.0311479 0.0313209 0.0314629 0.0315739 0.0316538 0.0317057 0.0317326 0.0317346 0.0317116 0.0316636 0.0315907 0.0314929 0.0313701 0.0312241 0.0310568 0.0308681 0.030658 0.0304266 0.0301738 0.0298996 0.0296041 0.0292875 0.0289501 0.0285918 0.0282127 0.0278129 0.0273921 0.0269506 0.0264883 0.0260053 0.0255019 0.024978 0.0244337 0.023869 0.0232839 0.0226783 0.0220522 0.0214082 0.0207485 0.0200732 0.0193823 0.0186757 0.0179535 0.0172157 0.0164623 0.0156998 0.0149349 0.0141676 0.0133979 0.0126257 0.0118512 0.0110742 0.0102948 0.00952421 0.00877383 0.00804361 0.00733355 0.00664366 0.00597392 0.00532435 0.00469494 0.00409699 0.0035418 0.00302939 0.00255974 0.00213285 0.00174874 0.00140739 0.0011088 0.000848927 0.000623702 0.000433126 0.000277201 0.000155925 6.93002e-05 1.7325e-05 0 0 2.68136e-05 0.000107254 0.000241322 0.000429017 0.000670339 0.000965288 0.00131386 0.00171607 0.00217495 0.00269356 0.0032719 0.00390997 0.00460777 0.0053653 0.00618256 0.00705955 0.00797652 0.00891373 0.00987119 0.0108489 0.0118468 0.012865 0.0139034 0.0149621 0.0160229 0.0170679 0.018097 0.0191102 0.0201076 0.0210891 0.0220547 0.0230045 0.0239288 0.024818 0.0256723 0.0264914 0.0272756 0.0280247 0.0287388 0.0294179 0.0300598 0.0306626 0.0312263 0.0317508 0.0322361 0.0326823 0.0330894 0.0334573 0.0337884 0.0340851 0.0343473 0.0345751 0.0347685 0.0349274 0.0350519 0.035142 0.0352009 0.0352321 0.0352355 0.0352111 0.0351589 0.0350789 0.0349712 0.0348356 0.0346743 0.0344891 0.0342802 0.0340474 0.0337908 0.0335104 0.0332061 0.0328781 0.0325266 0.0321519 0.0317541 0.0313332 0.0308892 0.0304219 0.0299316 0.0294181 0.0288818 0.0283228 0.0277413 0.0271371 0.0265104 0.025861 0.025189 0.0244945 0.02378 0.0230483 0.0222994 0.0215332 0.0207498 0.0199493 0.0191314 0.0182964 0.0174514 0.0166037 0.0157534 0.0149003 0.0140446 0.0131862 0.012325 0.0114612 0.0106071 0.00977506 0.00896506 0.00817713 0.00741126 0.00666744 0.00594569 0.005246 0.00458092 0.003963 0.00339223 0.00286861 0.00239215 0.00196284 0.00158068 0.00124569 0.000953728 0.000700698 0.000486596 0.000311422 0.000175175 7.78554e-05 1.94638e-05 0 0 2.9814e-05 0.000119256 0.000268326 0.000477025 0.000745351 0.00107331 0.00146089 0.0019081 0.00241779 0.00299283 0.00363322 0.00433895 0.00511002 0.00594644 0.0068482 0.0078153 0.00882602 0.00985864 0.0109132 0.0119896 0.0130879 0.0142081 0.0153502 0.0165141 0.0176804 0.0188292 0.0199606 0.0210745 0.0221711 0.0232502 0.0243119 0.0253561 0.0263725 0.0273506 0.0282902 0.0291915 0.0300545 0.0308791 0.0316654 0.0324133 0.0331205 0.0337848 0.0344061 0.0349845 0.0355199 0.0360124 0.0364619 0.0368685 0.0372346 0.0375628 0.0378531 0.0381055 0.03832 0.0384966 0.0386352 0.038736 0.0388024 0.0388381 0.0388431 0.0388175 0.0387611 0.0386739 0.0385561 0.0384076 0.0382305 0.0380271 0.0377974 0.0375413 0.0372588 0.03695 0.0366148 0.0362533 0.0358658 0.0354528 0.0350143 0.0345502 0.0340606 0.0335455 0.0330049 0.0324387 0.0318474 0.0312312 0.0305902 0.0299244 0.0292338 0.0285183 0.027778 0.0270129 0.026226 0.0254202 0.0245955 0.023752 0.0228896 0.0220084 0.0211084 0.0201895 0.0192596 0.0183268 0.0173911 0.0164523 0.0155106 0.0145659 0.0136183 0.0126677 0.0117276 0.0108114 0.00991923 0.00905103 0.00820681 0.00738656 0.00659028 0.00581798 0.00508349 0.00440066 0.00376947 0.00318995 0.00266207 0.00218585 0.00176128 0.00138836 0.00106296 0.000780953 0.000542328 0.00034709 0.000195238 8.67726e-05 2.16931e-05 0 0 3.29273e-05 0.000131709 0.000296346 0.000526837 0.000823183 0.00118538 0.00161344 0.00210735 0.00266973 0.00330319 0.00400775 0.00478338 0.00563011 0.00654792 0.00753681 0.0085968 0.0097041 0.0108349 0.0119893 0.0131673 0.0143687 0.0155938 0.0168423 0.0181144 0.0193888 0.0206442 0.0218805 0.0230979 0.0242962 0.0254755 0.0266357 0.027777 0.0288879 0.029957 0.0309844 0.03197 0.0329139 0.0338161 0.0346765 0.0354952 0.0362696 0.0369971 0.0376778 0.0383117 0.0388987 0.0394389 0.0399322 0.0403787 0.0407811 0.0411419 0.0414613 0.0417392 0.0419755 0.0421704 0.0423239 0.0424358 0.0425101 0.0425507 0.0425576 0.0425307 0.0424701 0.0423758 0.0422477 0.042086 0.0418929 0.0416708 0.0414197 0.0411396 0.0408306 0.0404925 0.0401255 0.0397296 0.0393051 0.0388526 0.0383722 0.0378638 0.0373273 0.0367629 0.0361705 0.0355501 0.0349021 0.0342271 0.0335249 0.0327957 0.0320393 0.0312558 0.0304453 0.0296076 0.0287462 0.0278642 0.0269617 0.0260386 0.0250951 0.0241311 0.0231465 0.0221414 0.0211245 0.0201042 0.0190807 0.0180539 0.0170239 0.0159905 0.0149539 0.0139141 0.0128855 0.0118829 0.0109061 0.00995527 0.00903031 0.00813126 0.00725811 0.00641086 0.00560469 0.00485478 0.00416113 0.00352375 0.00294263 0.00241776 0.00194917 0.00153683 0.00117663 0.000864465 0.000600323 0.000384207 0.000216116 9.60517e-05 2.40129e-05 0 0 3.61534e-05 0.000144614 0.000325381 0.000578454 0.000903835 0.00130152 0.00177152 0.00231382 0.00293075 0.00362464 0.00439548 0.00524328 0.00616804 0.00716975 0.00824842 0.00940404 0.0106107 0.0118426 0.0130997 0.014382 0.0156894 0.0170221 0.0183799 0.019763 0.0211483 0.0225129 0.0238569 0.0251803 0.0264829 0.0277649 0.0290263 0.030267 0.0314748 0.0326374 0