<?xml version="1.0"?> 
<VTKFile type="StructuredGrid" version="0.1"> 
<StructuredGrid WholeExtent="0 128 0 128 0 0"> 
<Piece Extent="0 128 0 128 0 0"> 
<PointData>
<DataArray type="Float32" Name="u" format="ascii" NumberOfComponents="1"> 
0 0 0 0 0 0 0 0 0 0 0 0 0 0 0 0 0 0 0 0 0 0 0 0 0 0 0 0 0 0 0 0 0 0 0 0 0 0 0 0 0 0 0 0 0 0 0 0 0 0 0 0 0 0 0 0 0 0 0 0 0 0 0 0 0 0 0 0 0 0 0 0 0 0 0 0 0 0 0 0 0 0 0 0 0 0 0 0 0 0 0 0 0 0 0 0 0 0 0 0 0 0 0 0 0 0 0 0 0 0 0 0 0 0 0 0 0 0 0 0 0 0 0 0 0 0 0 0 0 0 5.99426e-08 2.3977e-07 5.39484e-07 9.59082e-07 1.49857e-06 2.15793e-06 2.93719e-06 3.83633e-06 4.88244e-06 6.1026e-06 7.49681e-06 9.06508e-06 1.08074e-05 1.27238e-05 1.48142e-05 1.70787e-05 1.9459e-05 2.18969e-05 2.43925e-05 2.69457e-05 2.95565e-05 3.2225e-05 3.49511e-05 3.77348e-05 4.05174e-05 4.324e-05 4.59028e-05 4.85056e-05 5.10486e-05 5.35316e-05 5.59547e-05 5.83179e-05 6.05953e-05 6.27607e-05 6.48144e-05 6.67562e-05 6.85861e-05 7.03042e-05 7.19105e-05 7.34049e-05 7.47901e-05 7.60686e-05 7.72404e-05 7.83056e-05 7.92642e-05 8.01161e-05 8.08613e-05 8.14999e-05 8.20489e-05 8.25254e-05 8.29294e-05 8.32609e-05 8.35199e-05 8.37064e-05 8.38205e-05 8.3862e-05 8.38468e-05 8.37906e-05 8.36933e-05 8.35549e-05 8.33755e-05 8.31551e-05 8.28937e-05 8.25912e-05 8.22516e-05 8.18789e-05 8.14731e-05 8.10343e-05 8.05623e-05 8.00572e-05 7.9519e-05 7.89477e-05 7.83353e-05 7.76737e-05 7.69629e-05 7.6203e-05 7.53939e-05 7.45356e-05 7.36281e-05 7.26715e-05 7.1655e-05 7.05677e-05 6.94098e-05 6.81811e-05 6.68817e-05 6.55117e-05 6.40709e-05 6.25594e-05 6.0977e-05 5.93236e-05 5.75991e-05 5.58035e-05 5.39369e-05 5.19992e-05 4.99905e-05 4.79107e-05 4.5781e-05 4.36226e-05 4.14355e-05 3.92196e-05 3.69749e-05 3.47015e-05 3.23994e-05 3.00686e-05 2.77535e-05 2.54989e-05 2.33048e-05 2.1171e-05 1.90976e-05 1.70847e-05 1.51322e-05 1.32401e-05 1.14493e-05 9.80074e-06 8.29442e-06 6.93033e-06 5.70846e-06 4.62883e-06 3.69142e-06 2.89625e-06 2.21744e-06 1.62914e-06 1.13135e-06 7.24061e-07 4.07285e-07 1.81015e-07 4.52538e-08 0 0 2.3977e-07 9.59082e-07 2.15793e-06 3.83633e-06 5.99426e-06 8.63174e-06 1.17488e-05 1.53453e-05 1.95297e-05 2.44104e-05 2.99872e-05 3.62603e-05 4.32296e-05 5.08951e-05 5.92568e-05 6.83147e-05 7.7836e-05 8.75878e-05 9.75701e-05 0.000107783 0.000118226 0.0001289 0.000139804 0.000150939 0.000162069 0.00017296 0.000183611 0.000194023 0.000204194 0.000214126 0.000223819 0.000233272 0.000242381 0.000251043 0.000259258 0.000267025 0.000274345 0.000281217 0.000287642 0.00029362 0.00029916 0.000304274 0.000308962 0.000313223 0.000317057 0.000320464 0.000323445 0.000325999 0.000328195 0.000330101 0.000331717 0.000333044 0.00033408 0.000334826 0.000335282 0.000335448 0.000335387 0.000335162 0.000334773 0.00033422 0.000333502 0.00033262 0.000331575 0.000330365 0.000329006 0.000327516 0.000325893 0.000324137 0.000322249 0.000320229 0.000318076 0.000315791 0.000313341 0.000310695 0.000307852 0.000304812 0.000301575 0.000298142 0.000294513 0.000290686 0.00028662 0.000282271 0.000277639 0.000272724 0.000267527 0.000262047 0.000256284 0.000250238 0.000243908 0.000237294 0.000230396 0.000223214 0.000215748 0.000207997 0.000199962 0.000191643 0.000183124 0.00017449 0.000165742 0.000156878 0.0001479 0.000138806 0.000129598 0.000120274 0.000111014 0.000101996 9.3219e-05 8.4684e-05 7.63906e-05 6.83388e-05 6.05287e-05 5.29603e-05 4.57972e-05 3.9203e-05 3.31777e-05 2.77213e-05 2.28338e-05 1.85153e-05 1.47657e-05 1.1585e-05 8.86975e-06 6.51655e-06 4.52538e-06 2.89625e-06 1.62914e-06 7.24061e-07 1.81015e-07 0 0 5.39484e-07 2.15793e-06 4.85535e-06 8.63174e-06 1.34871e-05 1.94214e-05 2.64347e-05 3.4527e-05 4.39419e-05 5.49234e-05 6.74713e-05 8.15857e-05 9.72666e-05 0.000114514 0.000133328 0.000153708 0.000175131 0.000197072 0.000219533 0.000242511 0.000266009 0.000290025 0.00031456 0.000339613 0.000364656 0.00038916 0.000413125 0.000436551 0.000459437 0.000481784 0.000503592 0.000524861 0.000545357 0.000564847 0.00058333 0.000600806 0.000617275 0.000632738 0.000647195 0.000660644 0.000673111 0.000684617 0.000695164 0.000704751 0.000713378 0.000721045 0.000727752 0.000733499 0.00073844 0.000742728 0.000746364 0.000749348 0.000751679 0.000753358 0.000754384 0.000754758 0.000754621 0.000754115 0.000753239 0.000751994 0.00075038 0.000748396 0.000746043 0.00074332 0.000740264 0.00073691 0.000733258 0.000729308 0.00072506 0.000720515 0.000715671 0.000710529 0.000705017 0.000699063 0.000692666 0.000685827 0.000678545 0.00067082 0.000662653 0.000654044 0.000644895 0.00063511 0.000624688 0.00061363 0.000601936 0.000589605 0.000576638 0.000563034 0.000548793 0.000533912 0.000518392 0.000502232 0.000485432 0.000467993 0.000449915 0.000431197 0.000412029 0.000392604 0.000372919 0.000352976 0.000332774 0.000312314 0.000291595 0.000270617 0.000249782 0.00022949 0.000209743 0.000190539 0.000171879 0.000153762 0.00013619 0.000119161 0.000103044 8.82067e-05 7.46498e-05 6.23729e-05 5.13762e-05 4.16594e-05 3.32228e-05 2.60662e-05 1.99569e-05 1.46622e-05 1.01821e-05 6.51655e-06 3.66556e-06 1.62914e-06 4.07285e-07 0 0 9.59082e-07 3.83633e-06 8.63174e-06 1.53453e-05 2.3977e-05 3.4527e-05 4.6995e-05 6.13812e-05 7.8119e-05 9.76416e-05 0.000119949 0.000145041 0.000172918 0.00020358 0.000237027 0.000273259 0.000311344 0.000350351 0.00039028 0.000431131 0.000472905 0.0005156 0.000559217 0.000603757 0.000648278 0.000691841 0.000734445 0.00077609 0.000816777 0.000856506 0.000895275 0.000933087 0.000969524 0.00100417 0.00103703 0.0010681 0.00109738 0.00112487 0.00115057 0.00117448 0.00119664 0.0012171 0.00123585 0.00125289 0.00126823 0.00128186 0.00129378 0.001304 0.00131278 0.00132041 0.00132687 0.00133217 0.00133632 0.0013393 0.00134113 0.00134179 0.00134155 0.00134065 0.00133909 0.00133688 0.00133401 0.00133048 0.0013263 0.00132146 0.00131603 0.00131006 0.00130357 0.00129655 0.001289 0.00128091 0.0012723 0.00126316 0.00125336 0.00124278 0.00123141 0.00121925 0.0012063 0.00119257 0.00117805 0.00116274 0.00114648 0.00112908 0.00111056 0.0010909 0.00107011 0.00104819 0.00102513 0.00100095 0.000975632 0.000949177 0.000921585 0.000892856 0.000862991 0.000831988 0.000799848 0.000766572 0.000732497 0.000697962 0.000662967 0.000627513 0.000591599 0.000555225 0.000518391 0.000481097 0.000444057 0.000407983 0.000372876 0.000338736 0.000305562 0.000273355 0.000242115 0.000211841 0.000183189 0.000156812 0.000132711 0.000110885 9.13354e-05 7.40612e-05 5.90628e-05 4.63399e-05 3.5479e-05 2.60662e-05 1.81015e-05 1.1585e-05 6.51655e-06 2.89625e-06 7.24061e-07 0 0 1.49857e-06 5.99426e-06 1.34871e-05 2.3977e-05 3.74641e-05 5.39484e-05 7.34297e-05 9.59082e-05 0.000122061 0.000152565 0.00018742 0.000226627 0.000270185 0.000318094 0.000370355 0.000426967 0.000486475 0.000547424 0.000609813 0.000673643 0.000738914 0.000805625 0.000873777 0.00094337 0.00101293 0.001081 0.00114757 0.00121264 0.00127621 0.00133829 0.00139887 0.00145795 0.00151488 0.00156902 0.00162036 0.0016689 0.00171465 0.00175761 0.00179776 0.00183512 0.00186975 0.00190171 0.00193101 0.00195764 0.0019816 0.0020029 0.00202153 0.0020375 0.00205122 0.00206313 0.00207323 0.00208152 0.002088 0.00209266 0.00209551 0.00209655 0.00209617 0.00209476 0.00209233 0.00208887 0.00208439 0.00207888 0.00207234 0.00206478 0.00205629 0.00204697 0.00203683 0.00202586 0.00201406 0.00200143 0.00198797 0.00197369 0.00195838 0.00194184 0.00192407 0.00190507 0.00188485 0.00186339 0.0018407 0.00181679 0.00179137 0.00176419 0.00173524 0.00170453 0.00167204 0.00163779 0.00160177 0.00156398 0.00152443 0.00148309 0.00143998 0.00139509 0.00134842 0.00129998 0.00124976 0.00119777 0.00114453 0.00109057 0.00103589 0.000980489 0.000924373 0.000867538 0.000809985 0.000751714 0.000693839 0.000637474 0.000582619 0.000529275 0.000477441 0.000427118 0.000378305 0.000331002 0.000286232 0.000245019 0.000207361 0.000173258 0.000142712 0.000115721 9.22855e-05 7.24061e-05 5.5436e-05 4.07285e-05 2.82837e-05 1.81015e-05 1.01821e-05 4.52538e-06 1.13135e-06 0 0 2.15793e-06 8.63174e-06 1.94214e-05 3.4527e-05 5.39484e-05 7.76856e-05 0.000105739 0.000138108 0.000175768 0.000219694 0.000269885 0.000326343 0.000389066 0.000458056 0.000533311 0.000614832 0.000700524 0.00078829 0.000878131 0.000970046 0.00106404 0.0011601 0.00125824 0.00135845 0.00145863 0.00155664 0.0016525 0.0017462 0.00183775 0.00192714 0.00201437 0.00209945 0.00218143 0.00225939 0.00233332 0.00240322 0.0024691 0.00253095 0.00258878 0.00264258 0.00269244 0.00273847 0.00278066 0.002819 0.00285351 0.00288418 0.00291101 0.00293399 0.00295376 0.00297091 0.00298546 0.00299739 0.00300672 0.00301343 0.00301754 0.00301903 0.00301849 0.00301646 0.00301296 0.00300798 0.00300152 0.00299358 0.00298417 0.00297328 0.00296106 0.00294764 0.00293303 0.00291723 0.00290024 0.00288206 0.00286268 0.00284212 0.00282007 0.00279625 0.00277066 0.00274331 0.00271418 0.00268328 0.00265061 0.00261618 0.00257958 0.00254044 0.00249875 0.00245452 0.00240774 0.00235842 0.00230655 0.00225214 0.00219517 0.00213565 0.00207357 0.00200893 0.00194173 0.00187197 0.00179966 0.00172479 0.00164812 0.00157041 0.00149168 0.0014119 0.0013311 0.00124926 0.00116638 0.00108247 0.000999128 0.000917962 0.000838971 0.000762156 0.000687515 0.000615049 0.000544759 0.000476643 0.000412175 0.000352827 0.000298599 0.000249492 0.000205505 0.000166638 0.000132891 0.000104265 7.98278e-05 5.8649e-05 4.07285e-05 2.60662e-05 1.46622e-05 6.51655e-06 1.62914e-06 0 0 2.93719e-06 1.17488e-05 2.64347e-05 4.6995e-05 7.34297e-05 0.000105739 0.000143922 0.00018798 0.000239239 0.000299027 0.000367344 0.000444189 0.000529563 0.000623465 0.000725896 0.000836855 0.000953491 0.00107295 0.00119523 0.00132034 0.00144827 0.00157903 0.0017126 0.00184901 0.00198535 0.00211876 0.00224924 0.00237678 0.00250138 0.00262305 0.00274178 0.00285758 0.00296917 0.00307528 0.00317591 0.00327105 0.00336072 0.00344491 0.00352361 0.00359684 0.00366471 0.00372736 0.00378478 0.00383698 0.00388394 0.00392569 0.0039622 0.00399349 0.00402039 0.00404374 0.00406354 0.00407978 0.00409248 0.00410162 0.0041072 0.00410924 0.00410849 0.00410574 0.00410097 0.00409419 0.0040854 0.0040746 0.00406179 0.00404697 0.00403033 0.00401207 0.00399218 0.00397068 0.00394755 0.0039228 0.00389643 0.00386844 0.00383843 0.00380601 0.00377118 0.00373395 0.0036943 0.00365224 0.00360778 0.00356091 0.00351109 0.00345782 0.00340108 0.00334087 0.00327721 0.00321007 0.00313947 0.00306541 0.00298787 0.00290686 0.00282235 0.00273437 0.00264291 0.00254796 0.00244954 0.00234763 0.00224327 0.00213751 0.00203034 0.00192176 0.00181177 0.00170038 0.00158757 0.00147336 0.00135992 0.00124945 0.00114193 0.00103738 0.000935784 0.00083715 0.000741477 0.000648764 0.000561015 0.000480236 0.000406427 0.000339586 0.000279715 0.000226813 0.00018088 0.000141916 0.000108654 7.98278e-05 5.5436e-05 3.5479e-05 1.99569e-05 8.86975e-06 2.21744e-06 0 0 3.83633e-06 1.53453e-05 3.4527e-05 6.13812e-05 9.59082e-05 0.000138108 0.00018798 0.000245525 0.000312476 0.000390566 0.000479796 0.000580165 0.000691674 0.000814321 0.000948109 0.00109304 0.00124538 0.0014014 0.00156112 0.00172453 0.00189162 0.0020624 0.00223687 0.00241503 0.00259311 0.00276736 0.00293778 0.00310436 0.00326711 0.00342602 0.0035811 0.00373235 0.0038781 0.00401669 0.00414812 0.0042724 0.00438951 0.00449947 0.00460227 0.00469792 0.00478657 0.00486839 0.00494339 0.00501156 0.00507291 0.00512743 0.00517512 0.00521599 0.00525113 0.00528162 0.00530748 0.0053287 0.00534527 0.00535721 0.00536451 0.00536717 0.0053662 0.0053626 0.00535637 0.00534751 0.00533603 0.00532193 0.00530519 0.00528583 0.0052641 0.00524025 0.00521428 0.00518619 0.00515599 0.00512366 0.00508922 0.00505265 0.00501346 0.00497111 0.00492563 0.00487699 0.00482521 0.00477028 0.0047122 0.00465098 0.00458592 0.00451634 0.00444223 0.00436359 0.00428043 0.00419275 0.00410054 0.0040038 0.00390253 0.00379671 0.00368634 0.00357143 0.00345196 0.00332795 0.00319939 0.00306629 0.00292999 0.00279185 0.00265187 0.00251005 0.00236639 0.0022209 0.00207356 0.00192439 0.00177623 0.00163193 0.0014915 0.00135494 0.00122225 0.00109342 0.00096846 0.000847365 0.000732755 0.000627248 0.000530843 0.000443541 0.000365342 0.000296245 0.000236251 0.00018536 0.000141916 0.000104265 7.24061e-05 4.63399e-05 2.60662e-05 1.1585e-05 2.89625e-06 0 0 4.90011e-06 1.96004e-05 4.4101e-05 7.84017e-05 0.000122503 0.000176404 0.000240105 0.000313607 0.000399045 0.000498557 0.000612143 0.000739802 0.000881534 0.00103734 0.00120722 0.00139117 0.00158448 0.00178243 0.00198502 0.00219225 0.00240413 0.00262064 0.00284179 0.00306759 0.00329328 0.00351412 0.00373011 0.00394126 0.00414756 0.00434902 0.00454563 0.00473739 0.0049222 0.00509796 0.00526467 0.00542234 0.00557095 0.00571052 0.00584103 0.0059625 0.00607512 0.0061791 0.00627444 0.00636113 0.00643918 0.00650859 0.00656936 0.00662149 0.00666635 0.00670531 0.00673839 0.00676557 0.00678686 0.00680226 0.00681176 0.00681538 0.00681437 0.00681 0.00680228 0.0067912 0.00677676 0.00675897 0.00673782 0.00671332 0.00668578 0.00665553 0.00662257 0.0065869 0.00654851 0.00650741 0.0064636 0.00641707 0.00636719 0.00631331 0.00625543 0.00619354 0.00612765 0.00605776 0.00598387 0.00590598 0.00582322 0.00573473 0.00564051 0.00554056 0.00543488 0.00532348 0.00520634 0.00508347 0.00495487 0.00482051 0.00468041 0.00453457 0.00438298 0.00422564 0.00406255 0.00389371 0.00372085 0.00354565 0.00336814 0.0031883 0.00300614 0.00282166 0.00263485 0.00244572 0.00225787 0.00207489 0.00189678 0.00172354 0.00155518 0.00139169 0.00123307 0.00107933 0.000933778 0.000799729 0.000677186 0.000566149 0.000466617 0.00037859 0.000302069 0.000237053 0.000181493 0.000133342 9.25987e-05 5.92632e-05 3.33355e-05 1.48158e-05 3.70395e-06 0 0 6.17329e-06 2.46932e-05 5.55596e-05 9.87726e-05 0.000154332 0.000222238 0.000302491 0.00039509 0.000502516 0.000627248 0.000769285 0.000928629 0.00110528 0.00129923 0.0015105 0.00173906 0.00197911 0.00222481 0.00247617 0.00273318 0.00299584 0.00326415 0.00353812 0.00381775 0.00409721 0.00437071 0.00463823 0.00489979 0.00515538 0.005405 0.00564865 0.00588633 0.00611545 0.00633343 0.00654027 0.00673596 0.00692051 0.00709392 0.00725618 0.00740729 0.0075475 0.00767703 0.00779588 0.00790406 0.00800155 0.00808837 0.00816452 0.00822998 0.00828644 0.00833557 0.00837737 0.00841184 0.00843898 0.00845879 0.00847127 0.00847641 0.00847578 0.00847091 0.00846181 0.00844848 0.00843093 0.00840913 0.00838311 0.00835286 0.00831878 0.00828126 0.0082403 0.00819591 0.00814809 0.00809683 0.00804214 0.00798401 0.00792167 0.00785434 0.00778201 0.00770469 0.00762238 0.00753507 0.00744278 0.00734548 0.00724215 0.00713174 0.00701425 0.00688968 0.00675803 0.0066193 0.00647348 0.00632059 0.00616062 0.00599358 0.00581947 0.00563828 0.00545003 0.00525471 0.00505232 0.00484285 0.00462843 0.00441115 0.00419102 0.00396803 0.00374218 0.00351349 0.00328193 0.00304753 0.00281467 0.00258778 0.00236684 0.00215187 0.00194285 0.00173979 0.00154269 0.00135155 0.00117047 0.00100355 0.000850795 0.000712202 0.000587771 0.000477502 0.000381396 0.000299452 0.000229268 0.000168442 0.000116973 7.48629e-05 4.21104e-05 1.87157e-05 4.67893e-06 0 0 7.65586e-06 3.06235e-05 6.89028e-05 0.000122494 0.000191397 0.000275611 0.000375137 0.000489975 0.000622888 0.000776637 0.000951224 0.00114665 0.00136291 0.00160001 0.00185794 0.00213671 0.00242927 0.00272855 0.00303456 0.00334729 0.00366676 0.00399295 0.00432587 0.00466551 0.00500492 0.00533713 0.00566214 0.00597995 0.00629055 0.00659396 0.00689017 0.00717918 0.00745786 0.00772311 0.00797491 0.00821327 0.00843819 0.00864967 0.00884771 0.0090323 0.00920371 0.00936218 0.00950773 0.00964034 0.00976002 0.00986677 0.00996059 0.0100415 0.0101114 0.0101724 0.0102244 0.0102675 0.0103016 0.0103268 0.010343 0.0103503 0.0103504 0.0103453 0.010335 0.0103194 0.0102985 0.0102724 0.0102411 0.0102045 0.0101631 0.0101174 0.0100675 0.0100132 0.00995473 0.00989193 0.00982484 0.00975347 0.0096769 0.0095942 0.00950539 0.00941045 0.0093094 0.00920222 0.00908892 0.0089695 0.00884273 0.00870738 0.00856345 0.00841095 0.00824986 0.0080802 0.00790196 0.00771515 0.00751978 0.0073159 0.00710349 0.00688257 0.00665313 0.00641518 0.0061687 0.00591371 0.00565274 0.00538833 0.0051205 0.00484923 0.00457452 0.00429638 0.00401481 0.00372981 0.00344665 0.00317061 0.0029017 0.00263992 0.00238525 0.00213772 0.0018973 0.00166402 0.00144283 0.00123871 0.00105167 0.0008817 0.000728804 0.000592981 0.000474232 0.000372556 0.000285239 0.000209563 0.00014553 9.31391e-05 5.23908e-05 2.32848e-05 5.8212e-06 0 0 9.34784e-06 3.73914e-05 8.41306e-05 0.000149565 0.000233696 0.000336522 0.000458044 0.000598262 0.00076016 0.000946726 0.00115796 0.00139386 0.00165442 0.00193965 0.00224955 0.00258412 0.00293495 0.00329364 0.00366019 0.0040346 0.00441688 0.00480702 0.00520502 0.00561088 0.0060164 0.00641338 0.00680182 0.00718172 0.00755309 0.00791591 0.00827019 0.00861593 0.00894943 0.00926699 0.0095686 0.00985427 0.010124 0.0103778 0.0106156 0.0108375 0.0110437 0.0112346 0.01141 0.01157 0.0117146 0.0118438 0.0119576 0.012056 0.0121413 0.0122158 0.0122796 0.0123326 0.0123748 0.0124063 0.012427 0.012437 0.0124383 0.0124333 0.0124218 0.0124039 0.0123796 0.0123488 0.0123117 0.0122681 0.0122187 0.012164 0.0121041 0.0120389 0.0119684 0.0118927 0.0118117 0.0117254 0.0116329 0.0115329 0.0114256 0.0113108 0.0111887 0.0110592 0.0109223 0.010778 0.0106249 0.0104616 0.0102881 0.0101044 0.00991039 0.0097062 0.00949178 0.00926715 0.00903236 0.00878747 0.0085325 0.00826743 0.00799228 0.00770703 0.0074117 0.00710627 0.00679377 0.00647721 0.00615659 0.0058319 0.00550316 0.00517035 0.00483349 0.00449256 0.00415379 0.00382339 0.00350135 0.00318769 0.0028824 0.00258547 0.00229692 0.00201673 0.00175085 0.00150521 0.00127981 0.00107464 0.000889716 0.000725028 0.000580578 0.000456367 0.000349406 0.000256707 0.000178269 0.000114092 6.41767e-05 2.8523e-05 7.13074e-06 0 0 1.12492e-05 4.49968e-05 0.000101243 0.000179987 0.00028123 0.000404972 0.000551211 0.00071995 0.000914334 0.00113751 0.00138949 0.00167026 0.00197982 0.00231818 0.00268533 0.00308128 0.00349615 0.00392008 0.00435307 0.00479511 0.00524621 0.00570637 0.00617558 0.00665385 0.00713165 0.00759947 0.00805729 0.00850513 0.00894298 0.00937083 0.0097887 0.0101966 0.0105901 0.0109651 0.0113213 0.0116589 0.0119779 0.0122782 0.0125599 0.0128229 0.0130676 0.0132942 0.0135026 0.013693 0.0138652 0.0140194 0.0141555 0.0142735 0.014376 0.0144658 0.0145428 0.0146071 0.0146586 0.0146973 0.0147233 0.0147365 0.0147395 0.0147347 0.0147222 0.014702 0.014674 0.0146384 0.0145949 0.0145438 0.0144856 0.0144211 0.0143501 0.0142728 0.0141892 0.0140991 0.0140027 0.0138999 0.0137896 0.0136704 0.0135425 0.0134058 0.0132603 0.013106 0.0129429 0.012771 0.0125888 0.0123945 0.0121882 0.0119699 0.0117396 0.0114973 0.0112429 0.0109766 0.0106983 0.0104083 0.0101065 0.00979287 0.00946747 0.00913028 0.00878131 0.00842055 0.00805153 0.00767777 0.00729928 0.00691605 0.00652809 0.00613539 0.00573796 0.00533579 0.0049361 0.0045461 0.0041658 0.00379519 0.00343428 0.00308306 0.00274153 0.0024097 0.00209455 0.00180305 0.00153521 0.00129103 0.00107051 0.000873642 0.000700434 0.000550884 0.000421771 0.000309872 0.000215189 0.000137721 7.74681e-05 3.44303e-05 8.60757e-06 0 0 1.336e-05 5.34399e-05 0.00012024 0.00021376 0.000334 0.000480959 0.000654639 0.000855039 0.00108541 0.001349 0.00164581 0.00197585 0.0023391 0.00273558 0.00316527 0.00362819 0.00411288 0.00460788 0.00511319 0.00562881 0.00615474 0.00669099 0.00723755 0.00779442 0.00835068 0.00889538 0.00942854 0.00995016 0.0104602 0.0109587 0.0114457 0.0119211 0.01238 0.0128173 0.0132331 0.0136273 0.014 0.0143511 0.0146806 0.0149886 0.0152753 0.015541 0.0157857 0.0160093 0.016212 0.0163937 0.0165543 0.0166939 0.0168156 0.0169223 0.0170141 0.0170909 0.0171528 0.0171998 0.0172318 0.0172488 0.0172538 0.0172496 0.0172363 0.0172137 0.0171819 0.017141 0.0170909 0.0170316 0.0169639 0.0168885 0.0168056 0.0167151 0.016617 0.0165112 0.0163979 0.0162769 0.016147 0.0160068 0.0158562 0.0156954 0.0155241 0.0153426 0.0151508 0.0149486 0.0147343 0.014506 0.0142638 0.0140076 0.0137375 0.0134535 0.0131554 0.0128435 0.0125177 0.0121784 0.0118254 0.0114589 0.0110787 0.0106849 0.0102775 0.00985654 0.00942601 0.00899003 0.00854858 0.00810168 0.00764932 0.0071915 0.00672822 0.00625949 0.00579357 0.00533875 0.00489504 0.00446242 0.00404089 0.00363047 0.00323115 0.00284292 0.00247391 0.00213223 0.00181788 0.00153086 0.00127118 0.00103882 0.0008338 0.000656107 0.000502332 0.00036906 0.000256292 0.000164027 9.22651e-05 4.10067e-05 1.02517e-05 0 0 1.56802e-05 6.27206e-05 0.000141121 0.000250882 0.000392004 0.000564485 0.000768327 0.00100353 0.00127339 0.00158119 0.00192693 0.00231063 0.00273227 0.00319185 0.00368939 0.00422486 0.00478513 0.00535703 0.00594055 0.0065357 0.00714248 0.00776089 0.00839093 0.0090326 0.00967347 0.0103011 0.0109156 0.0115168 0.0121048 0.0126796 0.0132412 0.0137896 0.014319 0.0148238 0.0153039 0.0157594 0.0161901 0.0165962 0.0169777 0.0173344 0.0176668 0.017975 0.0182591 0.018519 0.0187549 0.0189665 0.019154 0.0193174 0.0194601 0.0195854 0.0196935 0.0197842 0.0198576 0.0199137 0.0199525 0.019974 0.0199814 0.0199781 0.0199639 0.019939 0.0199033 0.0198568 0.0197995 0.0197314 0.0196534 0.0195665 0.0194706 0.0193657 0.0192518 0.019129 0.0189972 0.0188565 0.0187052 0.018542 0.0183668 0.0181795 0.0179803 0.0177691 0.0175459 0.0173106 0.0170614 0.0167961 0.0165148 0.0162175 0.0159041 0.0155747 0.0152293 0.0148678 0.0144906 0.0140977 0.0136894 0.0132655 0.012826 0.012371 0.0119004 0.0114142 0.0109172 0.010414 0.00990449 0.00938878 0.00886684 0.00833867 0.00780428 0.00726366 0.00672621 0.00620135 0.00568907 0.00518937 0.00470225 0.00422771 0.00376576 0.00331639 0.00288894 0.00249275 0.00212782 0.00179414 0.00149173 0.00122057 0.000980674 0.000772036 0.00059109 0.00043427 0.000301577 0.000193009 0.000108568 4.82523e-05 1.20631e-05 0 0 1.82097e-05 7.28389e-05 0.000163887 0.000291355 0.000455243 0.00065555 0.000892276 0.00116542 0.00147826 0.00183407 0.00223285 0.0026746 0.00315932 0.00368701 0.00425766 0.00487129 0.00551291 0.00616753 0.00683515 0.00751579 0.00820943 0.00891607 0.00963572 0.0103684 0.0111 0.0118167 0.0125184 0.0132051 0.0138768 0.0145335 0.0151752 0.015802 0.0164072 0.0169845 0.0175338 0.0180551 0.0185484 0.0190138 0.0194511 0.0198605 0.0202421 0.0205963 0.0209229 0.0212221 0.0214938 0.021738 0.0219547 0.0221439 0.0223095 0.0224551 0.0225809 0.0226869 0.022773 0.0228392 0.0228855 0.022912 0.0229223 0.0229201 0.0229053 0.0228779 0.0228381 0.0227857 0.0227207 0.0226433 0.0225543 0.0224548 0.0223449 0.0222246 0.0220938 0.0219525 0.0218007 0.0216385 0.0214642 0.021276 0.0210741 0.0208583 0.0206287 0.0203854 0.0201282 0.0198572 0.0195702 0.0192649 0.0189413 0.0185995 0.0182394 0.0178611 0.0174645 0.0170496 0.0166168 0.0161663 0.0156983 0.0152126 0.0147093 0.0141884 0.0136498 0.0130937 0.0125252 0.0119496 0.011367 0.0107774 0.0101807 0.00957692 0.00896614 0.0083483 0.00773402 0.00713388 0.00654789 0.00597604 0.00541834 0.00487479 0.00434538 0.00383011 0.00333964 0.00288461 0.00246502 0.00208087 0.00173216 0.00141889 0.00114106 0.000898671 0.000688045 0.000505502 0.000351043 0.000224668 0.000126376 5.61669e-05 1.40417e-05 0 0 2.0915e-05 8.366e-05 0.000188235 0.00033464 0.000522875 0.00075294 0.00102483 0.00133856 0.00169731 0.00210429 0.00255949 0.00306292 0.00361457 0.00421445 0.00486255 0.00555888 0.00628652 0.00702858 0.00778505 0.00855593 0.00934122 0.0101409 0.010955 0.0117836 0.0126109 0.0134213 0.014215 0.0149917 0.0157516 0.0164947 0.0172209 0.0179302 0.0186154 0.0192692 0.0198915 0.0204824 0.0210419 0.0215699 0.0220664 0.0225315 0.0229654 0.0233683 0.0237402 0.0240811 0.0243909 0.0246698 0.0249177 0.0251346 0.0253246 0.0254922 0.0256371 0.0257595 0.0258593 0.0259365 0.0259912 0.0260233 0.0260369 0.0260361 0.0260209 0.0259913 0.0259472 0.0258888 0.0258159 0.0257286 0.025628 0.0255154 0.0253907 0.025254 0.0251051 0.0249442 0.0247713 0.0245862 0.0243873 0.0241726 0.0239422 0.0236961 0.0234342 0.0231566 0.0228633 0.0225542 0.022227 0.0218791 0.0215107 0.0211216 0.020712 0.0202817 0.0198309 0.0193594 0.0188678 0.0183563 0.0178251 0.0172741 0.0167034 0.0161128 0.0155025 0.0148723 0.0142284 0.0135765 0.0129167 0.0122491 0.0115735 0.01089 0.0101986 0.00949935 0.00880399 0.00812439 0.00746054 0.00681245 0.00618012 0.00556354 0.00496271 0.00437765 0.00382037 0.00330291 0.00282528 0.00238747 0.00198948 0.00163131 0.00131297 0.00103444 0.000791996 0.000581874 0.000404079 0.000258611 0.000145469 6.46527e-05 1.61632e-05 0 0 2.37623e-05 9.50491e-05 0.000213861 0.000380197 0.000594057 0.000855442 0.00116435 0.00152079 0.00192781 0.00238847 0.00290278 0.00347074 0.00409234 0.00476759 0.00549648 0.00627902 0.0070963 0.00792938 0.00877828 0.009643 0.0105235 0.0114199 0.012332 0.01326 0.0141865 0.0150942 0.0159832 0.0168534 0.0177048 0.0185374 0.0193513 0.0201464 0.0209146 0.0216478 0.022346 0.0230093 0.0236375 0.0242308 0.024789 0.0253123 0.0258008 0.0262546 0.0266738 0.0270584 0.0274084 0.0277237 0.0280044 0.0282505 0.0284666 0.0286574 0.0288227 0.0289626 0.0290771 0.0291663 0.0292301 0.0292684 0.0292859 0.029287 0.0292716 0.0292399 0.0291917 0.0291271 0.0290461 0.0289487 0.0288363 0.02871 0.0285699 0.0284161 0.0282484 0.028067 0.0278718 0.0276628 0.027438 0.0271955 0.0269352 0.0266572 0.0263615 0.0260479 0.0257167 0.0253676 0.0249982 0.0246058 0.0241904 0.0237519 0.0232904 0.0228059 0.0222984 0.0217679 0.0212149 0.0206398 0.0200428 0.0194238 0.0187828 0.0181198 0.0174348 0.0167278 0.0160055 0.0152743 0.0145343 0.0137856 0.0130281 0.0122617 0.0114866 0.0107027 0.00992313 0.00916091 0.00841606 0.0076886 0.00697852 0.00628582 0.0056105 0.00495256 0.00432549 0.00374277 0.00320439 0.00271037 0.0022607 0.00185538 0.00149441 0.00117778 0.000901741 0.000662504 0.000460072 0.000294446 0.000165626 7.36115e-05 1.84029e-05 0 0 2.67516e-05 0.000107006 0.000240764 0.000428026 0.00066879 0.000963057 0.00131083 0.0017121 0.00216974 0.00268662 0.00326272 0.00389806 0.00459263 0.00534643 0.00615947 0.00703173 0.00794222 0.00886993 0.00981485 0.010777 0.0117563 0.0127529 0.0137667 0.0147977 0.0158269 0.0168354 0.0178231 0.0187901 0.0197363 0.0206617 0.0215664 0.0224504 0.0233046 0.0241203 0.0248973 0.0256356 0.0263354 0.0269965 0.027619 0.0282028 0.0287482 0.0292552 0.0297238 0.0301541 0.0305461 0.0308997 0.031215 0.0314919 0.0317354 0.0319507 0.0321376 0.0322962 0.0324265 0.0325284 0.032602 0.0326473 0.0326692 0.0326725 0.0326574 0.0326237 0.0325715 0.0325008 0.0324115 0.0323038 0.0321789 0.0320385 0.0318825 0.0317108 0.0315236 0.0313207 0.0311022 0.0308682 0.0306163 0.0303447 0.0300531 0.0297417 0.0294105 0.0290593 0.0286883 0.0282975 0.027884 0.0274449 0.0269804 0.0264903 0.0259748 0.0254337 0.0248671 0.024275 0.0236581 0.0230169 0.0223514 0.0216616 0.0209476 0.0202094 0.0194469 0.0186601 0.0178564 0.0170429 0.0162198 0.0153869 0.0145444 0.0136921 0.0128301 0.0119585 0.0110914 0.0102434 0.00941445 0.00860449 0.00781355 0.00704163 0.00628873 0.00555486 0.004855 0.00420417 0.00360236 0.00304958 0.00254582 0.00209109 0.00168538 0.00132869 0.00101728 0.00074739 0.000519021 0.000332173 0.000186848 8.30434e-05 2.07608e-05 0 0 2.98829e-05 0.000119532 0.000268946 0.000478127 0.000747073 0.00107579 0.00146426 0.00191251 0.00242313 0.00299873 0.00363931 0.00434488 0.00511544 0.00595097 0.0068515 0.007817 0.0088243 0.00985022 0.0108947 0.0119579 0.0130396 0.01414 0.015259 0.0163966 0.0175321 0.0186448 0.0197347 0.0208018 0.0218461 0.0228676 0.0238663 0.0248423 0.0257856 0.0266866 0.0275452 0.0283615 0.0291354 0.029867 0.0305562 0.031203 0.0318076 0.03237 0.0328902 0.0333683 0.0338041 0.0341978 0.0345492 0.0348585 0.035131 0.0353722 0.0355819 0.0357603 0.0359073 0.0360229 0.0361071 0.03616 0.0361868 0.0361929 0.0361782 0.0361427 0.0360866 0.0360097 0.035912 0.0357936 0.0356561 0.035501 0.0353284 0.0351383 0.0349306 0.0347054 0.0344626 0.0342024 0.0339223 0.0336201 0.0332959 0.0329496 0.0325812 0.0321908 0.0317783 0.0313438 0.0308842 0.0303965 0.0298807 0.0293369 0.028765 0.028165 0.027537 0.0268808 0.0261974 0.0254874 0.0247508 0.0239876 0.0231979 0.0223816 0.0215387 0.0206693 0.0197812 0.0188825 0.0179731 0.0170531 0.0161224 0.0151811 0.0142291 0.0132665 0.0123089 0.011372 0.0104557 0.00956012 0.00868521 0.00783097 0.00699741 0.00618453 0.00540891 0.00468713 0.00401919 0.0034051 0.00284485 0.00233845 0.00188589 0.00148717 0.00113862 0.000836534 0.000580927 0.000371793 0.000209134 9.29482e-05 2.32371e-05 0 0 3.31563e-05 0.000132625 0.000298406 0.0005305 0.000828907 0.00119363 0.00162466 0.002122 0.00268795 0.0033248 0.00403256 0.00481121 0.00566076 0.00658122 0.00757257 0.00863483 0.00974254 0.0108703 0.012018 0.0131857 0.0143735 0.0155812 0.016809 0.0180567 0.019302 0.0205225 0.021718 0.0228886 0.0240343 0.0251551 0.026251 0.027322 0.0283575 0.0293468 0.0302899 0.0311869 0.0320377 0.0328423 0.0336007 0.034313 0.0349792 0.0355992 0.036173 0.0367008 0.0371824 0.0376179 0.0380073 0.0383505 0.0386534 0.0389218 0.0391556 0.0393548 0.0395196 0.0396497 0.0397454 0.0398064 0.0398387 0.0398479 0.039834 0.039797 0.039737 0.0396539 0.0395477 0.0394184 0.0392677 0.0390976 0.0389078 0.0386985 0.0384695 0.0382211 0.037953 0.0376654 0.0373558 0.0370218 0.0366635 0.0362808 0.0358738 0.0354424 0.0349866 0.0345065 0.0339988 0.0334604 0.0328914 0.0322916 0.0316611 0.0309999 0.0303079 0.0295853 0.0288328 0.0280514 0.0272411 0.0264018 0.0255336 0.0246364 0.0237103 0.0227552 0.0217798 0.0207929 0.0197943 0.018784 0.0177622 0.0167287 0.0156836 0.0146269 0.0135755 0.0125465 0.0115398 0.0105555 0.00959349 0.00865385 0.00773654 0.00684159 0.0059872 0.00519163 0.00445487 0.00377692 0.00315778 0.00259745 0.00209593 0.00165322 0.00126575 0.000929936 0.000645789 0.000413305 0.000232484 0.000103326 2.58315e-05 0 0 3.65716e-05 0.000146287 0.000329145 0.000585146 0.000914291 0.00131658 0.00179201 0.00234058 0.00296422 0.00366484 0.00444245 0.00529704 0.00622861 0.00723716 0.0083227 0.00948522 0.0106969 0.01193 0.0131846 0.0144605 0.0157578 0.0170765 0.0184166 0.0197781 0.0211368 0.0224684 0.0237729 0.0250504 0.0263008 0.0275242 0.0287204 0.0298896 0.0310