<?xml version="1.0"?> 
<VTKFile type="StructuredGrid" version="0.1"> 
<StructuredGrid WholeExtent="0 128 0 128 0 0"> 
<Piece Extent="0 128 0 128 0 0"> 
<PointData>
<DataArray type="Float32" Name="u" format="ascii" NumberOfComponents="1"> 
0 0 0 0 0 0 0 0 0 0 0 0 0 0 0 0 0 0 0 0 0 0 0 0 0 0 0 0 0 0 0 0 0 0 0 0 0 0 0 0 0 0 0 0 0 0 0 0 0 0 0 0 0 0 0 0 0 0 0 0 0 0 0 0 0 0 0 0 0 0 0 0 0 0 0 0 0 0 0 0 0 0 0 0 0 0 0 0 0 0 0 0 0 0 0 0 0 0 0 0 0 0 0 0 0 0 0 0 0 0 0 0 0 0 0 0 0 0 0 0 0 0 0 0 0 0 0 0 0 0 6.24009e-08 2.49604e-07 5.61608e-07 9.98415e-07 1.56002e-06 2.24643e-06 3.05764e-06 3.99366e-06 5.08118e-06 6.34692e-06 7.79088e-06 9.41305e-06 1.12134e-05 1.31921e-05 1.53489e-05 1.76839e-05 2.01397e-05 2.26588e-05 2.52411e-05 2.78867e-05 3.05956e-05 3.33678e-05 3.62032e-05 3.91019e-05 4.20063e-05 4.48588e-05 4.76594e-05 5.04082e-05 5.3105e-05 5.575e-05 5.83431e-05 6.08843e-05 6.33464e-05 6.57022e-05 6.79516e-05 7.00947e-05 7.21315e-05 7.40619e-05 7.5886e-05 7.76038e-05 7.92136e-05 8.07139e-05 8.21046e-05 8.33859e-05 8.45576e-05 8.56197e-05 8.65724e-05 8.74155e-05 8.8161e-05 8.88206e-05 8.93945e-05 8.98827e-05 9.0285e-05 9.06016e-05 9.08323e-05 9.09773e-05 9.10491e-05 9.10601e-05 9.10104e-05 9.09e-05 9.07289e-05 9.04971e-05 9.02045e-05 8.98512e-05 8.94421e-05 8.89822e-05 8.84714e-05 8.79098e-05 8.72973e-05 8.66339e-05 8.59197e-05 8.51546e-05 8.43355e-05 8.34591e-05 8.25254e-05 8.15344e-05 8.04862e-05 7.93806e-05 7.82179e-05 7.69978e-05 7.57158e-05 7.4367e-05 7.29516e-05 7.14695e-05 6.99207e-05 6.83053e-05 6.66231e-05 6.48743e-05 6.30627e-05 6.11921e-05 5.92626e-05 5.72741e-05 5.52267e-05 5.31203e-05 5.0955e-05 4.87308e-05 4.64689e-05 4.41905e-05 4.18958e-05 3.95846e-05 3.72571e-05 3.49131e-05 3.25527e-05 3.01759e-05 2.7824e-05 2.55382e-05 2.33185e-05 2.1165e-05 1.90777e-05 1.70564e-05 1.51014e-05 1.32124e-05 1.14273e-05 9.78377e-06 8.28174e-06 6.92123e-06 5.70225e-06 4.6248e-06 3.68888e-06 2.8945e-06 2.2161e-06 1.62815e-06 1.13066e-06 7.23624e-07 4.07038e-07 1.80906e-07 4.52265e-08 0 0 2.49604e-07 9.98415e-07 2.24643e-06 3.99366e-06 6.24009e-06 8.98573e-06 1.22306e-05 1.59746e-05 2.03247e-05 2.53877e-05 3.11635e-05 3.76522e-05 4.48538e-05 5.27682e-05 6.13955e-05 7.07357e-05 8.05589e-05 9.06351e-05 0.000100964 0.000111547 0.000122382 0.000133471 0.000144813 0.000156408 0.000168025 0.000179435 0.000190638 0.000201633 0.00021242 0.000223 0.000233373 0.000243537 0.000253386 0.000262809 0.000271807 0.000280379 0.000288526 0.000296248 0.000303544 0.000310415 0.000316854 0.000322855 0.000328419 0.000333543 0.00033823 0.000342479 0.00034629 0.000349662 0.000352644 0.000355283 0.000357578 0.000359531 0.00036114 0.000362406 0.000363329 0.000363909 0.000364196 0.00036424 0.000364042 0.0003636 0.000362916 0.000361988 0.000360818 0.000359405 0.000357769 0.000355929 0.000353886 0.000351639 0.000349189 0.000346536 0.000343679 0.000340619 0.000337342 0.000333836 0.000330101 0.000326138 0.000321945 0.000317523 0.000312871 0.000307991 0.000302863 0.000297468 0.000291806 0.000285878 0.000279683 0.000273221 0.000266493 0.000259497 0.000252251 0.000244768 0.00023705 0.000229096 0.000220907 0.000212481 0.00020382 0.000194923 0.000185875 0.000176762 0.000167583 0.000158339 0.000149028 0.000139652 0.000130211 0.000120704 0.000111296 0.000102153 9.32741e-05 8.46601e-05 7.63107e-05 6.82258e-05 6.04055e-05 5.28498e-05 4.57094e-05 3.91351e-05 3.31269e-05 2.76849e-05 2.2809e-05 1.84992e-05 1.47555e-05 1.1578e-05 8.86439e-06 6.51261e-06 4.52265e-06 2.8945e-06 1.62815e-06 7.23624e-07 1.80906e-07 0 0 5.61608e-07 2.24643e-06 5.05447e-06 8.98573e-06 1.40402e-05 2.02179e-05 2.75188e-05 3.59429e-05 4.57306e-05 5.71223e-05 7.01179e-05 8.47175e-05 0.000100921 0.000118728 0.00013814 0.000159155 0.000181257 0.000203929 0.00022717 0.00025098 0.00027536 0.00030031 0.000325829 0.000351917 0.000378057 0.000403729 0.000428935 0.000453674 0.000477945 0.00050175 0.000525088 0.000547959 0.000570118 0.00059132 0.000611565 0.000630853 0.000649183 0.000666557 0.000682974 0.000698434 0.000712922 0.000726425 0.000738942 0.000750473 0.000761018 0.000770578 0.000779151 0.000786739 0.000793449 0.000799386 0.000804551 0.000808944 0.000812565 0.000815414 0.000817491 0.000818796 0.000819442 0.000819541 0.000819094 0.0008181 0.00081656 0.000814474 0.00081184 0.000808661 0.000804979 0.00080084 0.000796243 0.000791188 0.000785676 0.000779705 0.000773277 0.000766392 0.000759019 0.000751132 0.000742728 0.00073381 0.000724375 0.000714426 0.000703961 0.00069298 0.000681442 0.000669303 0.000656565 0.000643226 0.000629287 0.000614748 0.000599608 0.000583869 0.000567564 0.000550729 0.000533363 0.000515467 0.00049704 0.000478083 0.000458595 0.000438577 0.00041822 0.000397715 0.000377062 0.000356262 0.000335314 0.000314218 0.000292974 0.000271583 0.000250416 0.000229844 0.000209867 0.000190485 0.000171699 0.000153508 0.000135912 0.000118912 0.000102846 8.8054e-05 7.45356e-05 6.22911e-05 5.13203e-05 4.16232e-05 3.32e-05 2.60505e-05 1.99449e-05 1.46534e-05 1.0176e-05 6.51261e-06 3.66335e-06 1.62815e-06 4.07038e-07 0 0 9.98415e-07 3.99366e-06 8.98573e-06 1.59746e-05 2.49604e-05 3.59429e-05 4.89223e-05 6.38985e-05 8.12989e-05 0.000101551 0.000124654 0.000150609 0.000179415 0.000211073 0.000245582 0.000282943 0.000322235 0.00036254 0.000403858 0.000446188 0.00048953 0.000533884 0.000579251 0.00062563 0.000672101 0.000717741 0.000762551 0.000806531 0.000849681 0.000892 0.00093349 0.000974149 0.00101354 0.00105124 0.00108723 0.00112152 0.0011541 0.00118499 0.00121418 0.00124166 0.00126742 0.00129142 0.00131367 0.00133417 0.00135292 0.00136992 0.00138516 0.00139865 0.00141058 0.00142113 0.00143031 0.00143812 0.00144456 0.00144962 0.00145332 0.00145564 0.00145679 0.00145696 0.00145617 0.0014544 0.00145166 0.00144795 0.00144327 0.00143762 0.00143107 0.00142372 0.00141554 0.00140656 0.00139676 0.00138614 0.00137472 0.00136247 0.00134937 0.00133535 0.00132041 0.00130455 0.00128778 0.00127009 0.00125149 0.00123196 0.00121145 0.00118987 0.00116723 0.00114351 0.00111873 0.00109288 0.00106597 0.00103799 0.001009 0.000979073 0.000948201 0.000916386 0.000883627 0.000849925 0.00081528 0.000779693 0.000743502 0.000707049 0.000670333 0.000633354 0.000596113 0.00055861 0.000520843 0.000482815 0.000445184 0.000408611 0.000373097 0.00033864 0.000305243 0.000272903 0.000241622 0.000211399 0.000182837 0.00015654 0.000132508 0.00011074 9.1236e-05 7.39968e-05 5.90221e-05 4.63119e-05 3.54576e-05 2.60505e-05 1.80906e-05 1.1578e-05 6.51261e-06 2.8945e-06 7.23624e-07 0 0 1.56002e-06 6.24009e-06 1.40402e-05 2.49604e-05 3.90006e-05 5.61608e-05 7.64411e-05 9.98415e-05 0.00012703 0.000158673 0.000194772 0.000235326 0.000280336 0.000329801 0.000383722 0.000442098 0.000503493 0.000566469 0.000631028 0.000697168 0.00076489 0.000834194 0.00090508 0.000977547 0.00105016 0.00112147 0.00119149 0.0012602 0.00132763 0.00139375 0.00145858 0.00152211 0.00158366 0.00164256 0.00169879 0.00175237 0.00180329 0.00185155 0.00189715 0.00194009 0.00198034 0.00201785 0.00205262 0.00208465 0.00211394 0.00214049 0.00216431 0.00218539 0.00220402 0.00222052 0.00223486 0.00224707 0.00225712 0.00226504 0.00227081 0.00227443 0.00227623 0.0022765 0.00227526 0.0022725 0.00226822 0.00226243 0.00225511 0.00224628 0.00223605 0.00222456 0.00221179 0.00219774 0.00218243 0.00216585 0.00214799 0.00212887 0.00210839 0.00208648 0.00206313 0.00203836 0.00201215 0.00198452 0.00195545 0.00192494 0.00189289 0.00185918 0.00182379 0.00178674 0.00174802 0.00170763 0.00166558 0.00162186 0.00157657 0.0015298 0.00148156 0.00143185 0.00138067 0.00132801 0.00127388 0.00121827 0.00116172 0.00110476 0.00104739 0.000989616 0.000931427 0.000872828 0.000813818 0.000754398 0.000695599 0.000638455 0.000582963 0.000529126 0.000476942 0.000426411 0.000377534 0.000330311 0.000285684 0.000244594 0.000207043 0.000173031 0.000142556 0.00011562 9.22221e-05 7.23624e-05 5.54025e-05 4.07038e-05 2.82666e-05 1.80906e-05 1.0176e-05 4.52265e-06 1.13066e-06 0 0 2.24643e-06 8.98573e-06 2.02179e-05 3.59429e-05 5.61608e-05 8.08716e-05 0.000110075 0.000143772 0.000182923 0.000228489 0.000280472 0.00033887 0.000403684 0.000474914 0.00055256 0.000636621 0.00072503 0.000815716 0.00090868 0.00100392 0.00110144 0.00120124 0.00130331 0.00140767 0.00151223 0.00161492 0.00171574 0.00181469 0.00191178 0.002007 0.00210035 0.00219184 0.00228047 0.00236528 0.00244626 0.00252341 0.00259673 0.00266623 0.0027319 0.00279374 0.00285169 0.0029057 0.00295577 0.00300189 0.00304407 0.00308231 0.00311661 0.00314696 0.00317379 0.00319754 0.0032182 0.00323578 0.00325026 0.00326166 0.00326996 0.00327518 0.00327777 0.00327816 0.00327638 0.0032724 0.00326624 0.00325789 0.00324736 0.00323464 0.00321992 0.00320336 0.00318497 0.00316475 0.0031427 0.00311882 0.00309311 0.00306557 0.00303608 0.00300453 0.00297091 0.00293524 0.0028975 0.0028577 0.00281584 0.00277192 0.00272577 0.00267721 0.00262626 0.0025729 0.00251715 0.00245899 0.00239843 0.00233548 0.00227026 0.00220292 0.00213345 0.00206187 0.00198816 0.00191233 0.00183438 0.00175431 0.00167288 0.00159086 0.00150825 0.00142505 0.00134125 0.00125687 0.0011719 0.00108633 0.00100166 0.000919375 0.000839467 0.000761941 0.000686796 0.000614032 0.000543649 0.000475648 0.000411384 0.000352216 0.000298143 0.000249164 0.000205281 0.000166493 0.0001328 0.000104202 7.97795e-05 5.86135e-05 4.07038e-05 2.60505e-05 1.46534e-05 6.51261e-06 1.62815e-06 0 0 3.05764e-06 1.22306e-05 2.75188e-05 4.89223e-05 7.64411e-05 0.000110075 0.000149825 0.000195689 0.000248978 0.000310999 0.000381753 0.00046124 0.000549459 0.000646411 0.000752095 0.000866512 0.000986846 0.00111028 0.00123681 0.00136645 0.00149918 0.00163502 0.00177396 0.00191599 0.00205831 0.00219808 0.00233531 0.00247 0.00260215 0.00273175 0.00285881 0.00298333 0.00310398 0.00321941 0.00332963 0.00343464 0.00353444 0.00362903 0.00371841 0.00380258 0.00388147 0.00395498 0.00402313 0.00408591 0.00414332 0.00419537 0.00424205 0.00428336 0.00431989 0.00435221 0.00438033 0.00440425 0.00442396 0.00443948 0.00445078 0.00445789 0.00446141 0.00446195 0.00445951 0.0044541 0.00444572 0.00443436 0.00442002 0.00440271 0.00438267 0.00436013 0.0043351 0.00430758 0.00427757 0.00424506 0.00421007 0.00417258 0.00413244 0.00408949 0.00404374 0.00399519 0.00394382 0.00388965 0.00383268 0.00377289 0.00371007 0.00364398 0.00357463 0.00350201 0.00342612 0.00334696 0.00326453 0.00317884 0.00309007 0.00299841 0.00290387 0.00280643 0.00270611 0.0026029 0.0024968 0.00238781 0.00227697 0.00216534 0.00205289 0.00193965 0.0018256 0.00171074 0.00159508 0.00147862 0.00136337 0.00125137 0.00114261 0.00103709 0.000934806 0.000835766 0.000739967 0.000647409 0.00055994 0.000479405 0.000405805 0.00033914 0.00027941 0.000226615 0.000180755 0.00014183 0.000108589 7.97795e-05 5.54025e-05 3.54576e-05 1.99449e-05 8.86439e-06 2.2161e-06 0 0 3.99366e-06 1.59746e-05 3.59429e-05 6.38985e-05 9.98415e-05 0.000143772 0.000195689 0.000255594 0.000325196 0.000406203 0.000498616 0.000602435 0.000717661 0.000844292 0.000982328 0.00113177 0.00128894 0.00145016 0.00161543 0.00178475 0.00195812 0.00213554 0.002317 0.00250252 0.0026884 0.00287096 0.0030502 0.00322612 0.00339872 0.003568 0.00373396 0.0038966 0.00405417 0.00420494 0.00434891 0.00448606 0.00461642 0.00473996 0.0048567 0.00496664 0.00506967 0.00516569 0.0052547 0.0053367 0.00541168 0.00547966 0.00554063 0.00559459 0.0056423 0.00568452 0.00572125 0.00575249 0.00577824 0.0057985 0.00581327 0.00582255 0.00582714 0.00582785 0.00582467 0.0058176 0.00580665 0.00579181 0.00577309 0.00575048 0.0057243 0.00569486 0.00566217 0.00562623 0.00558703 0.00554457 0.00549886 0.0054499 0.00539747 0.00534138 0.00528162 0.0052182 0.00515111 0.00508036 0.00500594 0.00492786 0.00484581 0.00475949 0.0046689 0.00457405 0.00447493 0.00437154 0.00426388 0.00415196 0.00403601 0.00391629 0.0037928 0.00366554 0.00353451 0.0033997 0.00326112 0.00311877 0.00297401 0.00282819 0.00268133 0.00253342 0.00238445 0.00223444 0.00208337 0.00193126 0.00178073 0.00163444 0.00149239 0.00135456 0.00122097 0.00109161 0.000966488 0.000845596 0.00073135 0.000626162 0.000530031 0.000442959 0.000364944 0.000295987 0.000236089 0.000185248 0.00014183 0.000104202 7.23624e-05 4.63119e-05 2.60505e-05 1.1578e-05 2.8945e-06 0 0 5.09402e-06 2.03761e-05 4.58462e-05 8.15044e-05 0.000127351 0.000183385 0.000249607 0.000326018 0.000414724 0.000517833 0.000635345 0.00076726 0.000913578 0.0010743 0.00124942 0.00143895 0.00163823 0.0018426 0.00205207 0.00226664 0.0024863 0.00271106 0.00294092 0.00317587 0.00341127 0.00364247 0.00386948 0.00409229 0.00431091 0.00452532 0.00473554 0.00494157 0.00514119 0.00533221 0.00551463 0.00568845 0.00585367 0.00601029 0.0061583 0.00629771 0.00642839 0.0065502 0.00666313 0.0067672 0.00686239 0.00694871 0.00702617 0.00709475 0.00715541 0.00720912 0.00725586 0.00729564 0.00732846 0.00735432 0.00737321 0.00738515 0.00739113 0.00739218 0.00738828 0.00737944 0.00736566 0.00734694 0.00732328 0.00729468 0.00726153 0.00722425 0.00718282 0.00713725 0.00708754 0.00703368 0.00697569 0.00691355 0.00684701 0.00677583 0.00669999 0.00661949 0.00653435 0.00644455 0.0063501 0.00625099 0.00614686 0.00603733 0.00592239 0.00580205 0.00567632 0.00554517 0.00540863 0.00526668 0.00511965 0.00496786 0.00481129 0.00464997 0.00448387 0.00431301 0.00413738 0.00395699 0.00377355 0.00358878 0.00340269 0.00321527 0.00302653 0.00283646 0.00264506 0.00245234 0.00226162 0.00207624 0.00189619 0.00172148 0.00155211 0.00138807 0.00122937 0.001076 0.000931022 0.000797488 0.000675397 0.000564751 0.000465548 0.000377788 0.000301473 0.000236601 0.000181147 0.000133088 9.24221e-05 5.91502e-05 3.3272e-05 1.47875e-05 3.69688e-06 0 0 6.39829e-06 2.55932e-05 5.75847e-05 0.000102373 0.000159957 0.000230339 0.000313516 0.000409491 0.000520709 0.00064962 0.000796222 0.000960516 0.0011425 0.00134218 0.00155955 0.00179461 0.00204162 0.00229485 0.00255428 0.00281993 0.0030918 0.00336987 0.00365415 0.00394465 0.00423567 0.00452153 0.00480221 0.00507774 0.0053481 0.00561329 0.00587331 0.00612818 0.00637516 0.00661156 0.00683737 0.00705259 0.00725723 0.00745128 0.00763474 0.00780761 0.00796972 0.00812088 0.00826109 0.00839035 0.00850867 0.00861603 0.00871245 0.00879792 0.0088736 0.00894064 0.00899906 0.00904884 0.00909 0.00912252 0.00914641 0.00916167 0.00916954 0.00917124 0.00916678 0.00915615 0.00913937 0.00911642 0.00908731 0.00905203 0.00901109 0.00896497 0.00891368 0.00885721 0.00879556 0.00872874 0.00865674 0.00857956 0.00849691 0.00840848 0.00831426 0.00821427 0.00810849 0.00799693 0.00787959 0.00775647 0.00762712 0.0074911 0.00734841 0.00719905 0.00704301 0.00688031 0.00671093 0.00653489 0.00635257 0.0061644 0.00597036 0.00577046 0.0055647 0.00535308 0.0051356 0.00491225 0.00468516 0.00445644 0.00422609 0.00399412 0.00376052 0.00352529 0.00328843 0.00304995 0.00281391 0.0025844 0.00236142 0.00214497 0.00193504 0.00173164 0.00153476 0.00134441 0.00116436 0.000998386 0.000846481 0.000708648 0.000584887 0.000475197 0.00037958 0.000298036 0.000228183 0.000167645 0.00011642 7.45089e-05 4.19112e-05 1.86272e-05 4.65681e-06 0 0 7.90647e-06 3.16259e-05 7.11582e-05 0.000126503 0.000197662 0.000284633 0.000387417 0.000506014 0.000643153 0.000801565 0.000981248 0.0011822 0.00140443 0.00164793 0.0019127 0.00219874 0.00249912 0.00280689 0.00312207 0.00344463 0.0037746 0.00411196 0.00445671 0.00480887 0.0051616 0.00550812 0.0058484 0.00618246 0.00651029 0.00683189 0.00714727 0.00745642 0.00775608 0.00804297 0.00831711 0.00857848 0.00882709 0.00906293 0.00928602 0.00949634 0.00969366 0.00987774 0.0100486 0.0102062 0.0103505 0.0104816 0.0105995 0.0107041 0.0107969 0.0108791 0.0109509 0.0110121 0.0110629 0.0111031 0.0111329 0.0111521 0.0111624 0.011165 0.0111602 0.0111477 0.0111278 0.0111002 0.0110652 0.0110225 0.010973 0.010917 0.0108547 0.0107861 0.0107111 0.0106297 0.010542 0.0104479 0.0103472 0.0102393 0.0101245 0.0100025 0.00987354 0.0097375 0.00959441 0.00944428 0.00928657 0.0091208 0.00894695 0.00876502 0.00857502 0.00837694 0.00817079 0.00795657 0.00773477 0.00750592 0.00727001 0.00702704 0.00677701 0.00651992 0.00625577 0.00598456 0.00570884 0.00543117 0.00515154 0.00486996 0.00458643 0.00430093 0.00401349 0.00372408 0.00343761 0.00315894 0.00288807 0.00262501 0.00236976 0.00212231 0.00188267 0.00165084 0.00143137 0.00122886 0.00104328 0.00087465 0.000722961 0.000588215 0.000470412 0.000369552 0.000282939 0.000207873 0.000144356 9.23881e-05 5.19683e-05 2.3097e-05 5.77426e-06 0 0 9.61855e-06 3.84742e-05 8.65669e-05 0.000153897 0.000240464 0.000346268 0.000471309 0.000615587 0.000782055 0.000973667 0.00119042 0.00143232 0.00169936 0.00199155 0.00230888 0.00265135 0.00301072 0.00337874 0.00375541 0.00414074 0.00453471 0.00493733 0.0053486 0.00576852 0.00618907 0.00660225 0.00700804 0.00740646 0.00779749 0.00818114 0.00855742 0.00892631 0.00928395 0.00962646 0.00995385 0.0102661 0.0105632 0.0108453 0.0111121 0.0113639 0.0116002 0.0118208 0.0120256 0.0122146 0.0123879 0.0125455 0.0126873 0.0128133 0.0129252 0.0130245 0.0131112 0.0131854 0.013247 0.0132961 0.0133326 0.0133565 0.0133696 0.0133736 0.0133684 0.0133542 0.0133309 0.0132984 0.0132569 0.0132062 0.0131472 0.0130804 0.013006 0.0129239 0.0128341 0.0127367 0.0126315 0.0125187 0.0123978 0.0122684 0.0121306 0.0119843 0.0118295 0.0116663 0.0114946 0.0113144 0.0111252 0.0109264 0.010718 0.0105 0.0102723 0.0100351 0.00978821 0.00953172 0.00926625 0.00899242 0.00871023 0.00841969 0.00812078 0.00781352 0.0074979 0.00717391 0.0068446 0.00651298 0.00617904 0.0058428 0.00550425 0.00516339 0.00482023 0.00447475 0.00413271 0.00379984 0.00347614 0.00316162 0.00285627 0.0025601 0.0022731 0.00199527 0.00173206 0.0014889 0.0012658 0.00106276 0.00087977 0.00071684 0.000573967 0.000451151 0.000345413 0.000253773 0.000176231 0.000112788 6.34432e-05 2.8197e-05 7.04924e-06 0 0 1.15345e-05 4.61381e-05 0.000103811 0.000184552 0.000288363 0.000415243 0.000565192 0.00073821 0.000937415 0.00116593 0.00142375 0.00171087 0.0020273 0.00237304 0.00274809 0.00315244 0.00357643 0.0040104 0.00445433 0.00490824 0.00537212 0.00584598 0.0063298 0.0068236 0.00731807 0.00780392 0.00828114 0.00874973 0.00920969 0.00966103 0.0101037 0.0105378 0.0109588 0.011362 0.0117476 0.0121155 0.0124657 0.0127982 0.0131131 0.0134103 0.0136894 0.01395 0.0141921 0.0144158 0.0146209 0.0148076 0.0149758 0.0151255 0.0152586 0.0153768 0.0154802 0.0155688 0.0156425 0.0157015 0.0157455 0.0157748 0.0157912 0.0157968 0.0157916 0.0157755 0.0157487 0.015711 0.0156624 0.0156031 0.0155337 0.0154552 0.0153675 0.0152707 0.0151647 0.0150495 0.0149252 0.0147918 0.0146487 0.0144957 0.0143326 0.0141595 0.0139764 0.0137832 0.0135801 0.0133669 0.0131431 0.012908 0.0126616 0.0124039 0.012135 0.0118547 0.0115632 0.0112604 0.010947 0.0106239 0.010291 0.00994841 0.00959603 0.00923388 0.00886198 0.00848032 0.00809243 0.00770185 0.00730859 0.00691264 0.006514 0.00611267 0.00570865 0.00530195 0.00489922 0.00450711 0.00412564 0.00375479 0.00339458 0.00304499 0.00270604 0.00237771 0.00206641 0.00177851 0.00151403 0.00127297 0.00105531 0.000861074 0.000690247 0.000542832 0.000415606 0.000305343 0.000212044 0.000135708 7.63358e-05 3.3927e-05 8.48175e-06 0 0 1.36544e-05 5.46176e-05 0.00012289 0.000218471 0.00034136 0.000491559 0.000669066 0.000873882 0.00110923 0.00137835 0.00168122 0.00201785 0.00238825 0.00279241 0.00323033 0.003702 0.00419625 0.00470185 0.00521882 0.00574715 0.00628685 0.00683791 0.00740033 0.00797412 0.00854861 0.00911313 0.00966769 0.0102123 0.0107469 0.0112716 0.0117863 0.012291 0.0127805 0.0132497 0.0136984 0.0141266 0.0145345 0.0149219 0.0152889 0.0156355 0.0159611 0.0162654 0.0165482 0.0168095 0.0170495 0.017268 0.0174651 0.0176408 0.0177971 0.0179361 0.0180578 0.0181622 0.0182494 0.0183192 0.0183718 0.018407 0.0184273 0.0184348 0.0184296 0.0184118 0.0183812 0.0183378 0.0182818 0.018213 0.0181325 0.0180413 0.0179392 0.0178264 0.0177027 0.0175683 0.0174232 0.0172672 0.0171 0.0169211 0.0167305 0.0165282 0.0163141 0.0160884 0.0158509 0.0156017 0.0153402 0.0150655 0.0147777 0.0144769 0.0141629 0.0138359 0.0134957 0.0131425 0.012777 0.0124004 0.0120124 0.0116132 0.0112027 0.010781 0.010348 0.00990377 0.00945233 0.00899781 0.00854018 0.00807947 0.00761566 0.00714876 0.00667877 0.00620568 0.00573713 0.00528075 0.00483655 0.00440453 0.00398467 0.003577 0.00318149 0.00279816 0.00243442 0.0020977 0.00178799 0.00150528 0.00124959 0.00102092 0.00081925 0.000644595 0.000493518 0.000362585 0.000251795 0.000161149 9.06462e-05 4.02872e-05 1.00718e-05 0 0 1.59782e-05 6.39128e-05 0.000143804 0.000255651 0.000399455 0.000575215 0.000782932 0.0010226 0.00129751 0.00161092 0.00196284 0.00235327 0.0027822 0.00324964 0.00375559 0.00430004 0.00487017 0.00545311 0.00604888 0.00665747 0.00727889 0.00791312 0.00856019 0.00922007 0.00988067 0.0105299 0.0111677 0.0117941 0.0124091 0.0130127 0.013605 0.0141858 0.0147493 0.0152894 0.0158061 0.0162995 0.0167695 0.0172162 0.0176395 0.0180395 0.0184155 0.0187669 0.0190937 0.019396 0.0196736 0.0199267 0.0201551 0.020359 0.0205406 0.0207023 0.020844 0.0209657 0.0210675 0.0211493 0.0212112 0.0212532 0.0212777 0.0212876 0.0212826 0.0212629 0.0212283 0.0211791 0.021115 0.0210362 0.0209437 0.0208387 0.0207211 0.020591 0.0204483 0.0202931 0.0201253 0.019945 0.0197517 0.0195448 0.0193243 0.0190904 0.0188428 0.0185817 0.0183071 0.0180189 0.0177164 0.0173989 0.0170664 0.0167188 0.0163562 0.0159785 0.0155858 0.0151781 0.0147564 0.0143218 0.0138744 0.0134141 0.0129409 0.0124549 0.011956 0.0114443 0.0109243 0.0104008 0.00987383 0.0093433 0.00880925 0.00827167 0.00773056 0.00718593 0.00664644 0.00612076 0.00560889 0.00511082 0.00462656 0.00415611 0.00369946 0.00325662 0.00283611 0.00244646 0.00208766 0.00175971 0.00146261 0.00119637 0.000960976 0.00075644 0.000579149 0.000425497 0.000295484 0.00018911 0.000106374 4.72775e-05 1.18194e-05 0 0 1.85059e-05 7.40236e-05 0.000166553 0.000296094 0.000462647 0.000666212 0.000906789 0.00118438 0.00150224 0.00186365 0.00226861 0.00271711 0.00320916 0.00374475 0.00432388 0.00494656 0.00559819 0.00626417 0.0069445 0.00763919 0.00834823 0.00907162 0.00980936 0.0105615 0.0113143 0.0120542 0.0127811 0.0134952 0.0141963 0.0148846 0.0155599 0.0162222 0.0168649 0.0174811 0.0180709 0.0186341 0.0191709 0.0196812 0.020165 0.0206224 0.0210525 0.0214547 0.0218289 0.0221751 0.0224933 0.0227836 0.0230459 0.0232803 0.0234892 0.0236754 0.0238387 0.0239792 0.024097 0.0241919 0.024264 0.0243132 0.0243426 0.024355 0.0243504 0.0243288 0.0242902 0.0242346 0.0241621 0.0240725 0.0239672 0.0238474 0.0237132 0.0235645 0.0234014 0.0232238 0.0230317 0.0228252 0.0226037 0.0223667 0.0221141 0.021846 0.0215624 0.0212633 0.0209486 0.0206184 0.0202719 0.0199083 0.0195275 0.0191297 0.0187147 0.0182826 0.0178334 0.0173671 0.016885 0.0163882 0.0158769 0.015351 0.0148106 0.0142556 0.013686 0.0131018 0.0125084 0.0119109 0.0113095 0.0107041 0.0100947 0.00948139 0.00886404 0.00824272 0.00762717 0.00702714 0.00644265 0.00587368 0.00532024 0.00478233 0.00425995 0.00375309 0.00327147 0.00282479 0.00241304 0.00203623 0.00169436 0.00138742 0.00111543 0.000878367 0.0006725 0.000494081 0.000343112 0.000219592 0.00012352 5.48979e-05 1.37245e-05 0 0 2.11971e-05 8.47883e-05 0.000190774 0.000339153 0.000529927 0.000763095 0.00103866 0.00135661 0.00172017 0.00213252 0.00259367 0.00310361 0.00366236 0.00426991 0.00492625 0.00563139 0.00636889 0.0071223 0.00789163 0.00867687 0.00947802 0.0102951 0.0111281 0.011977 0.0128266 0.0136617 0.0144822 0.0152883 0.0160798 0.0168569 0.0176194 0.0183674 0.0190933 0.0197894 0.0204559 0.0210926 0.0216995 0.0222768 0.0228243 0.023342 0.0238292 0.0242848 0.024709 0.0251017 0.0254628 0.0257924 0.0260906 0.0263572 0.0265952 0.0268074 0.0269937 0.0271542 0.027289 0.0273978 0.0274809 0.0275382 0.0275728 0.0275881 0.0275841 0.0275607 0.027518 0.0274559 0.0273744 0.0272736 0.0271549 0.0270197 0.026868 0.0266998 0.0265151 0.0263139 0.0260963 0.0258621 0.0256108 0.025342 0.0250555 0.0247515 0.0244298 0.0240905 0.0237335 0.023359 0.022966 0.0225538 0.0221222 0.0216713 0.0212012 0.0207118 0.020203 0.019675 0.0191292 0.018567 0.0179884 0.0173936 0.0167823 0.0161547 0.0155108 0.0148505 0.0141798 0.0135046 0.012825 0.0121409 0.0114524 0.0107594 0.0100619 0.00935994 0.00866442 0.00798619 0.00732527 0.00668165 0.00605533 0.00544631 0.00485459 0.00428017 0.003734 0.00322704 0.00275928 0.00233072 0.00194137 0.00159123 0.00128028 0.00100855 0.000772167 0.000567307 0.000393963 0.000252136 0.000141827 6.30341e-05 1.57585e-05 0 0 2.40114e-05 9.60455e-05 0.000216102 0.000384182 0.000600284 0.000864409 0.00117656 0.00153673 0.00194801 0.00241348 0.00293314 0.003507 0.00413505 0.0048173 0.00555374 0.00634437 0.00717083 0.00801477 0.00887618 0.00975506 0.0106514 0.0115652 0.0124965 0.0134453 0.0143947 0.015328 0.0162451 0.0171461 0.0180309 0.0188995 0.019752 0.0205883 0.0214001 0.0221787 0.0229243 0.0236369 0.0243163 0.0249628 0.0255761 0.0261565 0.0267027 0.0272138 0.0276897 0.0281306 0.0285363 0.0289068 0.0292423 0.0295426 0.0298109 0.0300502 0.0302607 0.0304422 0.0305947 0.0307184 0.0308131 0.0308788 0.0309192 0.0309378 0.0309346 0.0309096 0.0308627 0.0307941 0.0307036 0.0305913 0.0304589 0.0303077 0.030138 0.0299496 0.0297427 0.029517 0.0292728 0.0290099 0.0287279 0.028426 0.0281044 0.027763 0.0274018 0.0270208 0.02662 0.0261995 0.0257583 0.0252956 0.0248113 0.0243055 0.0237782 0.0232294 0.022659 0.0220671 0.0214554 0.0208254 0.0201774 0.0195111 0.0188267 0.0181241 0.0174034 0.0166644 0.015914 0.0151585 0.0143981 0.0136327 0.0128623 0.012087 0.0113067 0.0105215 0.00974332 0.00898422 0.00824421 0.00752328 0.00682144 0.00613869 0.00547502 0.00483044 0.0042172 0.00364755 0.0031215 0.00263904 0.00220018 0.0018049 0.00145323 0.00114514 0.000876751 0.000644144 0.000447322 0.000286286 0.000161036 7.15715e-05 1.78929e-05 0 0 2.69488e-05 0.000107795 0.000242539 0.00043118 0.000673719 0.000970156 0.00132049 0.00172472 0.00218577 0.00270654 0.00328704 0.00392727 0.00462723 0.00538692 0.00620634 0.00708549 0.00800402 0.00894157 0.00989815 0.0108738 0.0118684 0.0128821 0.0139148 0.0149665 0.0160188 0.0170532 0.0180698 0.0190686 0.0200495 0.0210125 0.0219577 0.0228851 0.0237852 0.024649 0.0254762 0.026267 0.0270214 0.0277392 0.0284207 0.0290656 0.0296729 0.0302414 0.030771 0.0312618 0.0317137 0.0321268 0.032501 0.0328363 0.0331362 0.0334039 0.0336395 0.033843 0.0340143 0.0341534 0.0342604 0.0343353 0.0343819 0.0344041 0.0344019 0.0343754 0.0343245 0.0342492 0.0341496 0.0340256 0.033879 0.0337115 0.0335232 0.033314 0.033084 0.0328331 0.0325614 0.0322688 0.0319548 0.0316188 0.0312607 0.0308806 0.0304785 0.0300543 0.0296081 0.0291399 0.0286487 0.0281337 0.0275949 0.0270322 0.0264458 0.0258355 0.0252014 0.0245434 0.0238635 0.0231636 0.0224437 0.0217037 0.0209437 0.0201637 0.0193637 0.0185436 0.0177108 0.0168725 0.0160287 0.0151794 0.0143247 0.0134644 0.0125986 0.0117274 0.0108639 0.0100212 0.00919945 0.00839857 0.00761858 0.00685947 0.00612124 0.00540391 0.00472107 0.00408633 0.0034997 0.00296118 0.00247077 0.00202846 0.00163426 0.00128817 0.000986251 0.000724593 0.00050319 0.000322041 0.000181148 8.05103e-05 2.01276e-05 0 0 3.00093e-05 0.000120037 0.000270083 0.000480148 0.000750231 0.00108033 0.00147045 0.00192059 0.00243344 0.0030117 0.00365536 0.00436443 0.00513891 0.00597879 0.00688407 0.00785476 0.00886845 0.00990271 0.0109576 0.012033 0.013129 0.0142456 0.0153827 0.0165405 0.0176987 0.0188373 0.0199564 0.0210558 0.0221356 0.0231959 0.0242365 0.0252576 0.0262488 0.0272002 0.0281116 0.028983 0.0298146 0.0306062 0.0313578 0.0320696 0.03274 0.0333678 0.0339529 0.0344953 0.0349951 0.0354522 0.0358667 0.0362385 0.0365712 0.0368685 0.0371303 0.0373567 0.0375476 0.037703 0.037823 0.0379075 0.0379607 0.0379869 0.0379861 0.0379582 0.0379033 0.0378214 0.0377124 0.0375764 0.0374153 0.037231 0.0370235 0.0367929 0.0365391 0.0362621 0.035962 0.0356387 0.0352917 0.0349202 0.0345245 0.0341043 0.0336598 0.0331909 0.0326977 0.0321801 0.0316372 0.0310682 0.0304729 0.0298515 0.0292039 0.0285301 0.0278301 0.0271039 0.0263537 0.0255815 0.0247874 0.0239714 0.0231335 0.0222736 0.0213918 0.0204881 0.0195704 0.0186467 0.0177169 0.0167811 0.0158393 0.0148914 0.0139376 0.0129777 0.0120261 0.0110972 0.010191 0.00930752 0.00844674 0.00760865 0.00679326 0.00600057 0.0052456 0.00454338 0.00389389 0.00329715 0.00275315 0.00226189 0.00182338 0.00143761 0.00110067 0.000808654 0.000561565 0.000359402 0.000202163 8.98504e-05 2.24626e-05 0 0 3.31928e-05 0.000132771 0.000298736 0.000531086 0.000829821 0.00119494 0.00162645 0.00212434 0.00269104 0.00332896 0.00403811 0.00481847 0.00567007 0.00659288 0.00758692 0.00865218 0.00976412 0.0108982 0.0120544 0.0132327 0.0144332 0.0156557 0.0169004 0.0181673 0.0194345 0.0206803 0.0219047 0.0231077 0.0242893 0.0254496 0.0265884 0.0277058 0.0287908 0.0298324 0.0308304 0.0317849 0.032696 0.0335636 0.0343877 0.0351683 0.0359038 0.0365929 0.0372353 0.0378312 0.0383805 0.0388832 0.0393394 0.039749 0.0401159 0.0404439 0.040733 0.0409833 0.0411946 0.0413671 0.0415007 0.0415954 0.0416558 0.0416863 0.0416871 0.041658 0.0415991 0.0415105 0.041392 0.0412437 0.0410677 0.0408662 0.040639 0.0403863 0.040108 0.0398041 0.0394747 0.0391196 0.0387384 0.0383304 0.0378956 0.0374341 0.0369458 0.0364307 0.0358888 0.0353202 0.0347239 0.0340989 0.0334454 0.0327633 0.0320525 0.0313131 0.0305452 0.0297486 0.0289258 0.0280791 0.0272085 0.0263141 0.0253958 0.0244537 0.0234877 0.0224978 0.0214927 0.020481 0.0194627 0.0184378 0.0174063 0.0163682 0.0153235 0.0142722 0.0132299 0.0122121 0.0112189 0.0102501 0.00930592 0.00838624 0.00749107 0.00662044 0.00579081 0.00501869 0.00430407 0.00364695 0.00304733 0.00250521 0.00202059 0.00159347 0.00122 0.000896327 0.000622449 0.000398367 0.000224082 9.95918e-05 2.4898e-05 0 0 3.64995e-05 0.000145998 0.000328496 0.000583993 0.000912488 0.00131398 0.00178848 0.00233597 0.00295855 0.00365832 0.00443527 0.0052894 0.00622072 0.00722921 0.00831489 0.00947775 0.010691 0.011928 0.0131886 0.0144729 0.0157809 0.0171126 0.0184679 0.0198469 0.0212261 0.0225821 0.0239148 0.0252243 0.0265106 0.0277736 0.0290134 0.0302299 0.0314113 0.0325455