<?xml version="1.0"?> 
<VTKFile type="StructuredGrid" version="0.1"> 
<StructuredGrid WholeExtent="0 128 0 128 0 0"> 
<Piece Extent="0 128 0 128 0 0"> 
<PointData>
<DataArray type="Float32" Name="u" format="ascii" NumberOfComponents="1"> 
0 0 0 0 0 0 0 0 0 0 0 0 0 0 0 0 0 0 0 0 0 0 0 0 0 0 0 0 0 0 0 0 0 0 0 0 0 0 0 0 0 0 0 0 0 0 0 0 0 0 0 0 0 0 0 0 0 0 0 0 0 0 0 0 0 0 0 0 0 0 0 0 0 0 0 0 0 0 0 0 0 0 0 0 0 0 0 0 0 0 0 0 0 0 0 0 0 0 0 0 0 0 0 0 0 0 0 0 0 0 0 0 0 0 0 0 0 0 0 0 0 0 0 0 0 0 0 0 0 0 2.35483e-07 9.41932e-07 2.11935e-06 3.76773e-06 5.81967e-06 8.20777e-06 1.0932e-05 1.39924e-05 1.70256e-05 1.96681e-05 2.192e-05 2.37813e-05 2.51635e-05 2.59782e-05 2.62255e-05 2.59053e-05 2.5092e-05 2.38599e-05 2.22091e-05 2.01395e-05 1.77621e-05 1.51879e-05 1.2417e-05 9.44927e-06 6.36857e-06 3.25871e-06 1.19684e-07 -3.0485e-06 -6.17482e-06 -9.18827e-06 -1.20888e-05 -1.48765e-05 -1.74414e-05 -1.96738e-05 -2.15735e-05 -2.31406e-05 -2.42416e-05 -2.47431e-05 -2.46452e-05 -2.39477e-05 -2.26265e-05 -2.06571e-05 -1.80395e-05 -1.47739e-05 -1.10919e-05 -7.22547e-06 -3.17461e-06 1.06069e-06 5.01899e-06 8.23883e-06 1.07202e-05 1.24631e-05 1.30314e-05 1.19886e-05 9.33494e-06 5.07031e-06 -9.38199e-07 -8.82351e-06 -1.85856e-05 -3.02246e-05 -4.35508e-05 -5.8375e-05 -7.46971e-05 -9.25171e-05 -0.000111575 -0.000131613 -0.000152629 -0.000174624 -0.000197459 -0.000220997 -0.000245238 -0.000270181 -0.000295654 -0.000321485 -0.000347673 -0.000374219 -0.000400601 -0.000426297 -0.000451307 -0.000475631 -0.000498421 -0.000518831 -0.000536861 -0.000552512 -0.000565129 -0.000574062 -0.00057931 -0.000580874 -0.000578821 -0.00057322 -0.000564072 -0.000551376 -0.000535867 -0.000518279 -0.000498612 -0.000476867 -0.000453855 -0.000430387 -0.000406464 -0.000382085 -0.000357654 -0.000333574 -0.000309845 -0.000286466 -0.000263502 -0.000241015 -0.000219005 -0.000197472 -0.000176518 -0.000156243 -0.000136648 -0.000117733 -9.97923e-05 -8.31224e-05 -6.7723e-05 -5.35939e-05 -4.10136e-05 -3.026e-05 -2.13332e-05 -1.42332e-05 -8.76184e-06 -4.72085e-06 -2.11025e-06 -9.3004e-07 -5.23147e-07 -2.3251e-07 -5.81275e-08 0 0 9.41932e-07 3.76773e-06 8.47739e-06 1.50709e-05 2.32787e-05 3.28311e-05 4.37281e-05 5.59697e-05 6.81024e-05 7.86725e-05 8.76801e-05 9.51251e-05 0.000100654 0.000103913 0.000104902 0.000103621 0.000100368 9.54397e-05 8.88363e-05 8.05579e-05 7.10484e-05 6.07518e-05 4.9668e-05 3.77971e-05 2.54743e-05 1.30348e-05 4.78737e-07 -1.2194e-05 -2.46993e-05 -3.67531e-05 -4.83553e-05 -5.9506e-05 -6.97658e-05 -7.86951e-05 -8.62939e-05 -9.25623e-05 -9.69664e-05 -9.89726e-05 -9.85808e-05 -9.5791e-05 -9.05059e-05 -8.26283e-05 -7.21581e-05 -5.90954e-05 -4.43675e-05 -2.89019e-05 -1.26985e-05 4.24277e-06 2.0076e-05 3.29553e-05 4.28808e-05 4.98525e-05 5.21254e-05 4.79545e-05 3.73398e-05 2.02812e-05 -3.7528e-06 -3.52941e-05 -7.43425e-05 -0.000120898 -0.000174203 -0.0002335 -0.000298788 -0.000370068 -0.000446302 -0.000526451 -0.000610515 -0.000698495 -0.000789837 -0.00088399 -0.000980952 -0.00108072 -0.00118262 -0.00128594 -0.00139069 -0.00149688 -0.00160241 -0.00170519 -0.00180523 -0.00190252 -0.00199368 -0.00207533 -0.00214745 -0.00221005 -0.00226052 -0.00229625 -0.00231724 -0.0023235 -0.00231528 -0.00229288 -0.00225629 -0.0022055 -0.00214347 -0.00207311 -0.00199445 -0.00190747 -0.00181542 -0.00172155 -0.00162586 -0.00152834 -0.00143062 -0.0013343 -0.00123938 -0.00114587 -0.00105401 -0.00096406 -0.00087602 -0.000789889 -0.000706072 -0.000624973 -0.000546593 -0.000470931 -0.000399169 -0.00033249 -0.000270892 -0.000214376 -0.000164054 -0.00012104 -8.53328e-05 -5.69329e-05 -3.50474e-05 -1.88834e-05 -8.44101e-06 -3.72016e-06 -2.09259e-06 -9.3004e-07 -2.3251e-07 0 0 2.11935e-06 8.47739e-06 1.90741e-05 3.39096e-05 5.2377e-05 7.38699e-05 9.83882e-05 0.000125932 0.00015323 0.000177013 0.00019728 0.000214031 0.000226471 0.000233804 0.000236029 0.000233148 0.000225828 0.000214739 0.000199882 0.000181255 0.000159859 0.000136692 0.000111753 8.50435e-05 5.73171e-05 2.93284e-05 1.07716e-06 -2.74365e-05 -5.55734e-05 -8.26944e-05 -0.000108799 -0.000133889 -0.000156973 -0.000177064 -0.000194161 -0.000208265 -0.000218174 -0.000222688 -0.000221807 -0.00021553 -0.000203638 -0.000185914 -0.000162356 -0.000132965 -9.9827e-05 -6.50292e-05 -2.85715e-05 9.54622e-06 4.51709e-05 7.41495e-05 9.64819e-05 0.000112168 0.000117282 0.000107898 8.40145e-05 4.56328e-05 -8.44379e-06 -7.94116e-05 -0.000167271 -0.000272021 -0.000391958 -0.000525375 -0.000672274 -0.000832654 -0.00100418 -0.00118451 -0.00137366 -0.00157161 -0.00177713 -0.00198898 -0.00220714 -0.00243163 -0.00266088 -0.00289336 -0.00312906 -0.00336797 -0.00360541 -0.00383668 -0.00406176 -0.00428068 -0.00448579 -0.00466948 -0.00483175 -0.0049726 -0.00508616 -0.00516656 -0.00521379 -0.00522786 -0.00520939 -0.00515898 -0.00507665 -0.00496238 -0.0048228 -0.00466451 -0.00448751 -0.0042918 -0.00408469 -0.00387348 -0.00365817 -0.00343877 -0.00321889 -0.00300217 -0.0027886 -0.0025782 -0.00237152 -0.00216913 -0.00197105 -0.00177725 -0.00158866 -0.00140619 -0.00122983 -0.00105959 -0.000898131 -0.000748102 -0.000609507 -0.000482345 -0.000369122 -0.00027234 -0.000191999 -0.000128099 -7.88566e-05 -4.24877e-05 -1.89923e-05 -8.37036e-06 -4.70833e-06 -2.09259e-06 -5.23147e-07 0 0 3.76773e-06 1.50709e-05 3.39096e-05 6.02837e-05 9.31147e-05 0.000131324 0.000174912 0.000223879 0.00027241 0.00031469 0.00035072 0.0003805 0.000402616 0.000415651 0.000419608 0.000414485 0.000401472 0.000381759 0.000355345 0.000322232 0.000284194 0.000243007 0.000198672 0.000151188 0.000101897 5.21393e-05 1.91495e-06 -4.8776e-05 -9.87972e-05 -0.000147012 -0.000193421 -0.000238024 -0.000279063 -0.00031478 -0.000345176 -0.000370249 -0.000387866 -0.00039589 -0.000394323 -0.000383164 -0.000362024 -0.000330513 -0.000288632 -0.000236382 -0.00017747 -0.000115608 -5.07938e-05 1.69711e-05 8.03038e-05 0.000131821 0.000171523 0.00019941 0.000208502 0.000191818 0.000149359 8.1125e-05 -1.50112e-05 -0.000141176 -0.00029737 -0.000483593 -0.000696813 -0.000934 -0.00119515 -0.00148027 -0.00178521 -0.0021058 -0.00244206 -0.00279398 -0.00315935 -0.00353596 -0.00392381 -0.00432289 -0.00473046 -0.00514375 -0.00556277 -0.00598751 -0.00640962 -0.00682076 -0.00722091 -0.00761009 -0.00797474 -0.0083013 -0.00858978 -0.00884019 -0.00904207 -0.00918499 -0.00926897 -0.00929398 -0.00926114 -0.00917153 -0.00902515 -0.00882202 -0.00857387 -0.00829246 -0.00797779 -0.00762987 -0.00726168 -0.00688619 -0.00650342 -0.00611336 -0.00572246 -0.00533718 -0.00495751 -0.00458346 -0.00421603 -0.00385624 -0.00350408 -0.00315956 -0.00282429 -0.00249989 -0.00218637 -0.00188372 -0.00159668 -0.00132996 -0.00108357 -0.000857503 -0.000656217 -0.00048416 -0.000341331 -0.000227732 -0.000140189 -7.55337e-05 -3.37641e-05 -1.48806e-05 -8.37036e-06 -3.72016e-06 -9.3004e-07 0 0 5.75637e-06 2.30255e-05 5.18073e-05 9.21019e-05 0.000141969 0.000199468 0.000264599 0.000337363 0.000408779 0.00046987 0.000520636 0.000561076 0.000589065 0.00060248 0.00060132 0.000585585 0.000557178 0.000517998 0.000468047 0.000407325 0.000338642 0.000264811 0.00018583 0.0001017 1.46092e-05 -7.32537e-05 -0.000161889 -0.000251296 -0.00033948 -0.000424444 -0.000506188 -0.000584712 -0.00065698 -0.000719954 -0.000773635 -0.000818022 -0.000849625 -0.000864955 -0.00086401 -0.000846792 -0.000812839 -0.000761691 -0.000693348 -0.000607809 -0.000511226 -0.000409747 -0.000303372 -0.000192103 -8.76921e-05 -1.8942e-06 6.52907e-05 0.000113863 0.00013313 0.000112402 5.16782e-05 -4.90416e-05 -0.000192493 -0.000381412 -0.000615798 -0.000895651 -0.00121571 -0.00157071 -0.00196066 -0.00238555 -0.00283892 -0.00331431 -0.00381173 -0.00433116 -0.00486988 -0.00542514 -0.00599693 -0.00658527 -0.00718686 -0.00779843 -0.00841998 -0.0090515 -0.00968069 -0.0102952 -0.0108951 -0.0114804 -0.0120301 -0.0125231 -0.0129595 -0.0133394 -0.0136461 -0.0138635 -0.0139914 -0.0140298 -0.0139804 -0.013845 -0.0136234 -0.0133158 -0.0129404 -0.0125157 -0.0120417 -0.0115183 -0.0109656 -0.0104036 -0.00983223 -0.00925155 -0.00867082 -0.00809933 -0.00753707 -0.00698406 -0.00644084 -0.00590798 -0.00538549 -0.00487336 -0.00437342 -0.00388753 -0.00341567 -0.00295785 -0.00252142 -0.00211369 -0.00173468 -0.00138439 -0.0010703 -0.000799913 -0.000573218 -0.000390221 -0.000247092 -0.000140006 -6.89623e-05 -3.39608e-05 -1.91029e-05 -8.4902e-06 -2.12255e-06 0 0 7.95456e-06 3.18182e-05 7.1591e-05 0.000127273 0.000195417 0.000272575 0.000358748 0.000453935 0.000545479 0.000620721 0.000679662 0.000722301 0.000745798 0.000747314 0.000726849 0.000684403 0.000622823 0.000544958 0.000450808 0.000340373 0.000217794 8.72136e-05 -5.13693e-05 -0.000197954 -0.000349152 -0.000501572 -0.000655215 -0.000810081 -0.000962731 -0.00110973 -0.00125107 -0.00138675 -0.00151167 -0.0016207 -0.00171384 -0.00179109 -0.00184704 -0.00187626 -0.00187875 -0.00185451 -0.00180326 -0.00172471 -0.00161886 -0.00148571 -0.00133502 -0.00117656 -0.00101031 -0.000836296 -0.000671984 -0.000534862 -0.000424931 -0.00034219 -0.000301485 -0.000317663 -0.000390724 -0.000520666 -0.000709927 -0.000960942 -0.00127371 -0.00164823 -0.00207559 -0.00254685 -0.00306202 -0.0036211 -0.00421486 -0.00483405 -0.00547867 -0.00614874 -0.00684212 -0.00755671 -0.00829251 -0.00904951 -0.00982561 -0.0106187 -0.0114288 -0.0122559 -0.0130842 -0.0138979 -0.0146969 -0.0154813 -0.0162213 -0.0168872 -0.017479 -0.0179967 -0.0184163 -0.0187139 -0.0188896 -0.0189432 -0.0188772 -0.0186939 -0.0183932 -0.0179751 -0.0174662 -0.016893 -0.0162555 -0.0155537 -0.0148157 -0.0140696 -0.0133152 -0.0125527 -0.0117934 -0.0110486 -0.0103182 -0.00960239 -0.00889923 -0.00820698 -0.00752564 -0.0068552 -0.00619654 -0.00555055 -0.00491721 -0.00429653 -0.00369895 -0.00313493 -0.00260446 -0.00210755 -0.00165634 -0.00126301 -0.00092755 -0.000649957 -0.000427611 -0.00025789 -0.000140793 -7.63206e-05 -4.29303e-05 -1.90802e-05 -4.77004e-06 0 0 1.03623e-05 4.14492e-05 9.32606e-05 0.000165797 0.000253458 0.000350645 0.000457358 0.000573596 0.000682509 0.000767243 0.000827798 0.000864176 0.000872815 0.000850155 0.000796195 0.000710937 0.000598408 0.000462639 0.000303628 0.000121376 -7.83499e-05 -0.000289784 -0.000512925 -0.000747774 -0.000989386 -0.00123282 -0.00147806 -0.00172513 -0.00196855 -0.00220286 -0.00242806 -0.00264415 -0.00284313 -0.003017 -0.00316578 -0.00328946 -0.0033801 -0.0034298 -0.00343854 -0.00340632 -0.00333329 -0.00321957 -0.00306517 -0.00287009 -0.00264886 -0.00241604 -0.00217162 -0.00191561 -0.00167257 -0.00146708 -0.00129914 -0.00116875 -0.00109535 -0.00109838 -0.00117785 -0.00133375 -0.00156731 -0.00187977 -0.00227111 -0.00274134 -0.00327644 -0.00386241 -0.00449924 -0.00518694 -0.00591301 -0.006665 -0.0074429 -0.0082467 -0.00907608 -0.00993069 -0.0108105 -0.0117156 -0.0126467 -0.0136046 -0.0145893 -0.0156009 -0.0166203 -0.0176288 -0.0186263 -0.0196128 -0.0205485 -0.0213937 -0.0221482 -0.0228121 -0.0233525 -0.0237363 -0.0239636 -0.0240343 -0.0239515 -0.0237182 -0.0233343 -0.0228 -0.0221512 -0.0214244 -0.0206194 -0.0197362 -0.018812 -0.0178841 -0.0169524 -0.0160169 -0.0150903 -0.0141849 -0.013301 -0.0124384 -0.0115912 -0.0107532 -0.00992452 -0.00910509 -0.00829365 -0.00748895 -0.00669098 -0.00589974 -0.00512928 -0.00439367 -0.0036929 -0.00302697 -0.00241434 -0.00187346 -0.00140432 -0.00100694 -0.000681746 -0.000429185 -0.000249256 -0.00014196 -7.98526e-05 -3.549e-05 -8.87251e-06 0 0 1.29796e-05 5.19183e-05 0.000116816 0.000207673 0.000316093 0.000433678 0.000560429 0.000696346 0.000819868 0.000909435 0.000965046 0.000986701 0.000970115 0.000911001 0.000809358 0.000665188 0.000483933 0.00027104 2.65066e-05 -0.000249666 -0.000549791 -0.000866181 -0.00119884 -0.00154776 -0.00190609 -0.00226699 -0.00263044 -0.00299645 -0.00335694 -0.00370385 -0.00403716 -0.00435689 -0.00465135 -0.00490888 -0.00512947 -0.00531312 -0.00544882 -0.00552558 -0.00554338 -0.00550223 -0.00540293 -0.00524628 -0.00503228 -0.00476093 -0.00445274 -0.00412819 -0.00378729 -0.00343004 -0.00308945 -0.00279855 -0.00255734 -0.00236581 -0.00224845 -0.00222974 -0.00230969 -0.00248829 -0.00276465 -0.00313789 -0.00360799 -0.00417497 -0.00481828 -0.0055174 -0.00627232 -0.00708305 -0.00793339 -0.00880718 -0.0097044 -0.0106251 -0.0115717 -0.0125471 -0.013551 -0.0145836 -0.0156501 -0.0167561 -0.0179015 -0.0190862 -0.0202889 -0.0214879 -0.0226832 -0.0238749 -0.0250117 -0.0260424 -0.0269671 -0.0277858 -0.0284548 -0.0289307 -0.0292134 -0.0293031 -0.0292033 -0.0289179 -0.0284469 -0.0277903 -0.0269955 -0.0261098 -0.0251331 -0.0240656 -0.0229546 -0.0218473 -0.0207438 -0.0196442 -0.0185613 -0.0175084 -0.0164854 -0.0154922 -0.0145168 -0.0135467 -0.0125821 -0.011623 -0.0106647 -0.00970273 -0.00873698 -0.00776749 -0.00681241 -0.00588992 -0.00500001 -0.00414267 -0.00334429 -0.00263125 -0.00200354 -0.00146117 -0.0010095 -0.000653892 -0.000394352 -0.000230879 -0.00012987 -5.77198e-05 -1.443e-05 0 0 1.51957e-05 6.07826e-05 0.000136761 0.000243131 0.000368138 0.000500029 0.000638805 0.000784464 0.000910925 0.000992106 0.00102801 0.00101862 0.000959295 0.00084535 0.00067679 0.000453615 0.000182909 -0.000128242 -0.000479839 -0.000871881 -0.00129476 -0.00173887 -0.0022042 -0.00269075 -0.00318975 -0.00369239 -0.00419868 -0.00470861 -0.00521103 -0.00569477 -0.00615984 -0.00660623 -0.00701767 -0.00737789 -0.0076869 -0.00794468 -0.00813651 -0.00824765 -0.00827809 -0.00822783 -0.00809874 -0.00789265 -0.00760957 -0.0072495 -0.00684019 -0.00640935 -0.005957 -0.00548314 -0.00503017 -0.00464054 -0.00431422 -0.00405123 -0.00388041 -0.00383057 -0.00390174 -0.0040939 -0.00440167 -0.00481967 -0.0053479 -0.00598635 -0.00670553 -0.00747594 -0.00829757 -0.00917042 -0.0100743 -0.010989 -0.0119145 -0.0128509 -0.0138063 -0.014789 -0.0157992 -0.0168366 -0.0179157 -0.0190506 -0.0202413 -0.0214878 -0.0227689 -0.0240633 -0.0253711 -0.0266922 -0.0279642 -0.0291248 -0.030174 -0.0311118 -0.031883 -0.0324325 -0.0327604 -0.0328667 -0.0327557 -0.0324319 -0.0318953 -0.031146 -0.0302431 -0.029246 -0.0281547 -0.0269692 -0.0257464 -0.0245434 -0.02336 -0.0221964 -0.021063 -0.0199703 -0.0189181 -0.0179066 -0.0169133 -0.0159155 -0.0149133 -0.0139067 -0.0128853 -0.0118385 -0.0107664 -0.00966896 -0.00856871 -0.00748822 -0.00642749 -0.00538652 -0.00440209 -0.003511 -0.00271325 -0.00200883 -0.00141163 -0.000935533 -0.000580544 -0.00034666 -0.000194997 -8.66651e-05 -2.16663e-05 0 0 1.63998e-05 6.55991e-05 0.000147598 0.000262396 0.00039441 0.000528053 0.000663326 0.00080023 0.000909048 0.000960064 0.000953279 0.000888692 0.00076195 0.000568701 0.000308944 -1.73206e-05 -0.000401152 -0.000833609 -0.00131469 -0.0018444 -0.00241149 -0.00300472 -0.00362409 -0.0042696 -0.00493083 -0.00559734 -0.00626913 -0.00694621 -0.00761395 -0.00825773 -0.00887754 -0.0094734 -0.0100234 -0.0105056 -0.0109201 -0.0112668 -0.0115265 -0.0116801 -0.0117275 -0.0116687 -0.0115073 -0.0112465 -0.0108864 -0.010427 -0.00990474 -0.00935587 -0.00878044 -0.00817845 -0.00760228 -0.00710429 -0.00668449 -0.00634288 -0.00611082 -0.00601969 -0.00606948 -0.00626019 -0.00657811 -0.0070095 -0.00755438 -0.00821273 -0.00894264 -0.00970216 -0.0104913 -0.0113101 -0.012134 -0.0129389 -0.0137246 -0.0144912 -0.0152568 -0.0160399 -0.0168403 -0.0176581 -0.0185231 -0.0194654 -0.0204847 -0.0215813 -0.0227394 -0.0239434 -0.0251935 -0.0264895 -0.0277596 -0.0289322 -0.0300071 -0.0309844 -0.0317969 -0.0323774 -0.0327259 -0.0328424 -0.0327318 -0.032399 -0.0318439 -0.0310666 -0.0301382 -0.02913 -0.028042 -0.026874 -0.0256908 -0.0245567 -0.0234717 -0.0224359 -0.0214517 -0.0205218 -0.0196461 -0.0188245 -0.0180181 -0.0171875 -0.0163328 -0.015454 -0.0145309 -0.013543 -0.0124905 -0.0113733 -0.0102185 -0.00905309 -0.00787704 -0.00669038 -0.00554363 -0.00448733 -0.00352149 -0.0026461 -0.0018889 -0.00127763 -0.000812294 -0.000492886 -0.000277248 -0.000123221 -3.08054e-05 0 0 1.65919e-05 6.63677e-05 0.000149327 0.000265471 0.000394908 0.000517749 0.000633995 0.000743644 0.000814236 0.000813311 0.000740867 0.000596905 0.000378082 8.10534e-05 -0.00029418 -0.000747619 -0.00126825 -0.00184506 -0.00247805 -0.00316722 -0.00389998 -0.00466375 -0.00545852 -0.00628431 -0.00712933 -0.00798183 -0.0088418 -0.00970924 -0.0105657 -0.0113927 -0.0121903 -0.0129584 -0.0136685 -0.014292 -0.014829 -0.0152793 -0.0156188 -0.0158228 -0.0158916 -0.015825 -0.0156286 -0.0153079 -0.0148629 -0.0142936 -0.0136464 -0.0129677 -0.0122576 -0.011516 -0.0108058 -0.0101898 -0.00966814 -0.00924074 -0.00893969 -0.00879708 -0.0088129 -0.00898716 -0.00929395 -0.00970737 -0.0102274 -0.0108541 -0.0115296 -0.0121961 -0.0128535 -0.0135019 -0.0141126 -0.0146569 -0.0151346 -0.015546 -0.0159234 -0.0162995 -0.0166744 -0.0170479 -0.0174725 -0.0180005 -0.0186319 -0.0193667 -0.0202003 -0.0211282 -0.0221503 -0.0232667 -0.024398 -0.0254645 -0.0264664 -0.0274036 -0.0281964 -0.0287651 -0.0291097 -0.0292302 -0.0291317 -0.0288192 -0.0282927 -0.0275522 -0.0266808 -0.0257617 -0.0247948 -0.0237802 -0.0227877 -0.0218872 -0.0210788 -0.0203624 -0.0197274 -0.0191629 -0.0186691 -0.0182459 -0.0178312 -0.0173628 -0.0168407 -0.0162649 -0.0156014 -0.0148162 -0.0139092 -0.0128806 -0.0117619 -0.0105846 -0.00934869 -0.00805426 -0.0067689 -0.00556023 -0.00442826 -0.00337298 -0.00244131 -0.00168019 -0.0010896 -0.000669555 -0.000376625 -0.000167389 -4.18472e-05 0 0 1.57721e-05 6.30884e-05 0.000141949 0.000252354 0.000369633 0.000469118 0.000550809 0.000614706 0.00062649 0.000551844 0.000390769 0.000143264 -0.000192311 -0.000617593 -0.00113258 -0.00173728 -0.00241839 -0.0031626 -0.00396991 -0.00484034 -0.00576023 -0.00671594 -0.00770749 -0.00873487 -0.00978526 -0.0108459 -0.0119167 -0.0129977 -0.0140663 -0.0150997 -0.016098 -0.0170612 -0.017953 -0.0187372 -0.0194136 -0.0199824 -0.0204133 -0.0206759 -0.0207703 -0.0206965 -0.0204626 -0.0200767 -0.0195388 -0.0188491 -0.0180651 -0.017245 -0.0163885 -0.0154957 -0.0146406 -0.0138971 -0.0132652 -0.0127448 -0.012367 -0.0121628 -0.012132 -0.0122748 -0.0125492 -0.0129133 -0.013367 -0.0139105 -0.0144664 -0.0149577 -0.0153842 -0.0157461 -0.0160101 -0.0161429 -0.0161447 -0.0160153 -0.015806 -0.0155681 -0.0153014 -0.0150061 -0.0147637 -0.0146559 -0.0146826 -0.0148439 -0.0151516 -0.0156175 -0.0162416 -0.017024 -0.0178792 -0.0187218 -0.0195519 -0.0203694 -0.0210817 -0.0215959 -0.0219121 -0.0220302 -0.0219553 -0.0216925 -0.0212416 -0.0206028 -0.0198709 -0.0191411 -0.0184133 -0.0176876 -0.0170371 -0.016535 -0.0161813 -0.0159761 -0.01589 -0.0158938 -0.0159874 -0.0161708 -0.0163526 -0.0164413 -0.0164368 -0.0163392 -0.0160968 -0.015658 -0.0150226 -0.0141908 -0.0131987 -0.0120826 -0.0108424 -0.00947816 -0.0080779 -0.0067297 -0.00543356 -0.00418947 -0.00306887 -0.0021432 -0.00141247 -0.000876669 -0.000493126 -0.000219167 -5.47918e-05 0 0 1.35719e-05 5.42875e-05 0.000122147 0.00021715 0.000309773 0.000370493 0.00039931 0.000396223 0.000326928 0.000157122 -0.000113198 -0.000484029 -0.000954062 -0.00152198 -0.00218779 -0.00295149 -0.00379732 -0.00470952 -0.00568809 -0.00673302 -0.00783064 -0.00896725 -0.0101429 -0.0113575 -0.0125986 -0.0138538 -0.015123 -0.0164062 -0.0176772 -0.0189094 -0.0201029 -0.0212578 -0.0223293 -0.0232729 -0.0240886 -0.0247763 -0.0252993 -0.0256206 -0.0257403 -0.0256584 -0.0253862 -0.024935 -0.0243049 -0.0234958 -0.0225783 -0.0216229 -0.0206297 -0.0195987 -0.0186147 -0.0177624 -0.0170419 -0.0164532 -0.0160228 -0.0157772 -0.0157164 -0.0158403 -0.0160854 -0.016388 -0.016748 -0.0171655 -0.017539 -0.017767 -0.0178495 -0.0177866 -0.0175401 -0.0170719 -0.016382 -0.0154704 -0.0144128 -0.0132848 -0.0120865 -0.0108179 -0.00959936 -0.00855151 -0.00767432 -0.00696779 -0.00646811 -0.00621149 -0.00619794 -0.00642745 -0.00681167 -0.00726228 -0.00777927 -0.00836265 -0.00890625 -0.00930393 -0.00955569 -0.00966153 -0.00962605 -0.00945386 -0.00914496 -0.00869934 -0.00822366 -0.00782455 -0.00750202 -0.00725605 -0.00715998 -0.00728713 -0.00763748 -0.00821105 -0.00895255 -0.0098067 -0.0107735 -0.0118529 -0.0129157 -0.0138324 -0.0146031 -0.0152277 -0.0156319 -0.0157415 -0.0155565 -0.0150767 -0.0143434 -0.0133978 -0.0122397 -0.0108693 -0.00939922 -0.00794223 -0.00649833 -0.00506753 -0.00375195 -0.00265376 -0.00177294 -0.0011095 -0.000624093 -0.000277375 -6.93437e-05 0 0 9.6228e-06 3.84912e-05 8.66052e-05 0.000153965 0.000206517 0.000210207 0.000165036 7.10041e-05 -0.000103329 -0.000389402 -0.000787216 -0.00129677 -0.00191201 -0.00262686 -0.00344134 -0.00435545 -0.00535082 -0.00640913 -0.00753037 -0.00871453 -0.00994962 -0.0112236 -0.0125365 -0.0138883 -0.0152693 -0.0166698 -0.0180899 -0.0195294 -0.0209598 -0.0223524 -0.0237071 -0.0250239 -0.0262497 -0.0273312 -0.0282683 -0.0290612 -0.0296658 -0.0300381 -0.030178 -0.0300857 -0.0297763 -0.0292648 -0.0285514 -0.0276359 -0.026603 -0.025537 -0.024438 -0.023306 -0.0222357 -0.021322 -0.0205647 -0.019964 -0.019537 -0.0193008 -0.0192554 -0.0194009 -0.0196442 -0.0198923 -0.0201452 -0.0204028 -0.0205332 -0.0204042 -0.0200157 -0.0193678 -0.0184167 -0.0171189 -0.0154742 -0.0134827 -0.011252 -0.00888929 -0.00639475 -0.00376835 -0.00118188 0.00119286 0.00335585 0.00530712 0.0069755 0.00828988 0.00925025 0.00985661 0.0101961 0.0103558 0.0103358 0.010136 0.00987627 0.00967647 0.00953658 0.0094566 0.00943285 0.00946167 0.00954305 0.009677 0.00974576 0.00963162 0.00933457 0.00885461 0.00812254 0.00706917 0.0056945 0.00399852 0.00207202 5.75646e-06 -0.00220027 -0.00454606 -0.00685373 -0.0089454 -0.0108211 -0.0124807 -0.0138214 -0.01474 -0.0152365 -0.0153111 -0.0150102 -0.0143806 -0.0134221 -0.0121349 -0.0106614 -0.0091443 -0.00758354 -0.00597912 -0.00447095 -0.00319893 -0.00216305 -0.00136332 -0.000766866 -0.000340829 -8.52074e-05 0 0 3.92489e-06 1.56995e-05 3.5324e-05 6.27982e-05 5.98632e-05 -1.17401e-05 -0.000152012 -0.000360951 -0.000664282 -0.00108773 -0.00163129 -0.00229496 -0.00306614 -0.00393223 -0.00489323 -0.00594913 -0.00707889 -0.00826143 -0.00949676 -0.0107849 -0.0121172 -0.013485 -0.0148884 -0.0163274 -0.0177974 -0.0192941 -0.0208174 -0.0223673 -0.0239143 -0.0254287 -0.0269105 -0.0283597 -0.0297142 -0.030912 -0.031953 -0.0328371 -0.0335128 -0.0339283 -0.0340835 -0.0339785 -0.0336328 -0.0330661 -0.0322784 -0.0312696 -0.0301394 -0.0289873 -0.0278134 -0.0266176 -0.0255038 -0.0245758 -0.0238336 -0.0232773 -0.0229096 -0.0227336 -0.0227492 -0.0229565 -0.0232255 -0.0234261 -0.0235585 -0.0236225 -0.0234491 -0.0228692 -0.0218826 -0.0204894 -0.0186398 -0.0162837 -0.0134212 -0.0100522 -0.00632346 -0.00238143 0.00177387 0.00614243 0.0104887 0.0145772 0.0184079 0.0219808 0.0251792 0.0278866 0.0301029 0.0318282 0.0331441 0.0341325 0.0347933 0.0351265 0.0352659 0.0353453 0.0353647 0.0353242 0.0352214 0.0350541 0.0348224 0.0345263 0.0340374 0.0332274 0.0320964 0.0306444 0.0288105 0.0265339 0.0238146 0.0206526 0.0171837 0.0135436 0.00973231 0.00574983 0.00183328 -0.00178027 -0.0050908 -0.00809831 -0.010665 -0.0126532 -0.0140629 -0.014894 -0.0151992 -0.0150311 -0.0143896 -0.0132749 -0.0118645 -0.0103359 -0.00868916 -0.00692425 -0.00522586 -0.00377872 -0.0025828 -0.00163812 -0.000921445 -0.000409531 -0.000102383 0 0 -3.52187e-06 -1.40875e-05 -3.16968e-05 -5.63499e-05 -0.000130187 -0.000295348 -0.000551833 -0.000899643 -0.00135593 -0.00193785 -0.00264541 -0.00347859 -0.00441647 -0.00543809 -0.00654345 -0.00773256 -0.00898151 -0.0102664 -0.0115873 -0.012944 -0.0143333 -0.0157515 -0.0171986 -0.0186747 -0.0201829 -0.0217265 -0.0233055 -0.0249199 -0.0265405 -0.0281382 -0.0297131 -0.031265 -0.0327229 -0.0340153 -0.0351424 -0.0361041 -0.0368404 -0.0372913 -0.0374567 -0.0373366 -0.0369558 -0.0363389 -0.0354859 -0.0343967 -0.0331874 -0.0319737 -0.0307557 -0.0295335 -0.0284189 -0.0275239 -0.0268486 -0.0263929 -0.0261406 -0.0260756 -0.0261978 -0.0265072 -0.0268293 -0.0269895 -0.0269879 -0.0268245 -0.0262867 -0.025162 -0.0234503 -0.0211517 -0.0182093 -0.0145663 -0.0102229 -0.00517887 0.000372675 0.00623875 0.0124193 0.0189145 0.0254124 0.0316015 0.0374818 0.0430532 0.0481431 0.0525787 0.0563601 0.0594873 0.0620324 0.0640677 0.0655932 0.0666088 0.0672626 0.0677026 0.0679288 0.0679412 0.0677395 0.0673235 0.0666932 0.0658485 0.0646511 0.0629628 0.0607835 0.0581133 0.0549039 0.0511071 0.0467229 0.0417513 0.0363825 0.0308068 0.0250242 0.0190347 0.0131453 0.00766298 0.00258771 -0.00208049 -0.00616304 -0.00948137 -0.0120355 -0.0138254 -0.0149102 -0.0153492 -0.0151423 -0.0142895 -0.0130085 -0.0115171 -0.00981521 -0.0079029 -0.00601669 -0.00439313 -0.0030322 -0.00193392 -0.00108783 -0.00048348 -0.00012087 0 0 -1.27116e-05 -5.08463e-05 -0.000114404 -0.000203385 -0.000362816 -0.000637724 -0.00102811 -0.00153397 -0.00215994 -0.00291065 -0.00378611 -0.00478631 -0.00587936 -0.00703337 -0.00824834 -0.00952427 -0.0108343 -0.0121514 -0.0134757 -0.0148072 -0.0161503 -0.0175093 -0.0188842 -0.0202752 -0.0216973 -0.0231658 -0.0246807 -0.0262419 -0.0278242 -0.0294019 -0.0309752 -0.0325439 -0.0340286 -0.0353496 -0.0365069 -0.0375006 -0.038262 -0.0387225 -0.0388821 -0.0387409 -0.0383293 -0.0376775 -0.0367857 -0.0356538 -0.0344149 -0.033202 -0.032015 -0.030854 -0.029837 -0.029082 -0.0285889 -0.0283577 -0.0283464 -0.0285126 -0.0288565 -0.0293779 -0.0298485 -0.0300396 -0.0299514 -0.0295837 -0.0286732 -0.0269564 -0.0244335 -0.0211042 -0.0169044 -0.0117695 -0.00569954 0.00130545 0.00899756 0.0171289 0.0256993 0.034709 0.0437557 0.0524375 0.0607544 0.0687062 0.076053 0.0825545 0.0882109 0.093022 0.0970469 0.100345 0.102916 0.104759 0.106039 0.106919 0.107398 0.107477 0.107158 0.106443 0.105332 0.103826 0.101775 0.0990312 0.0955944 0.0914646 0.0866095 0.0809968 0.0746266 0.0674987 0.0598677 0.0519877 0.0438587 0.0354809 0.0272425 0.0195323 0.01235 0.00569587 -0.000204292 -0.00512446 -0.00906463 -0.0120248 -0.0140714 -0.0152709 -0.0156233 -0.0151285 -0.0140499 -0.0126507 -0.0109308 -0.00889027 -0.00682428 -0.00502796 -0.0035013 -0.00224431 -0.00126243 -0.000561079 -0.00014027 0 0 -2.36383e-05 -9.45534e-05 -0.000212745 -0.000378214 -0.000637207 -0.00103597 -0.00157452 -0.00225283 -0.00305797 -0.00397701 -0.00500992 -0.00615673 -0.00737117 -0.00860699 -0.0098642 -0.0111428 -0.0124127 -0.0136438 -0.0148361 -0.0159896 -0.0171205 -0.0182448 -0.0193626 -0.0204738 -0.021612 -0.0228105 -0.0240692 -0.0253883 -0.026751 -0.0281406 -0.029557 -0.0310004 -0.0323845 -0.0336233 -0.0347168 -0.035665 -0.0363909 -0.0368173 -0.0369444 -0.0367721 -0.0363371 -0.0356764 -0.0347899 -0.0336775 -0.0324899 -0.0313778 -0.0303411 -0.0293797 -0.0286144 -0.0281658 -0.0280339 -0.0282186 -0.0286432 -0.0292305 -0.0299808 -0.0308939 -0.0316761 -0.0320336 -0.0319665 -0.0314747 -0.0302356 -0.0279262 -0.0245467 -0.0200969 -0.0145042 -0.00769564 0.000328711 0.00956887 0.0197123 0.0304465 0.0417715 0.0536871 0.0656851 0.0772569 0.0884024 0.0991217 0.109095 0.118003 0.125844 0.13262 0.138374 0.143147 0.14694 0.149754 0.151768 0.153164 0.153942 0.154101 0.153647 0.152586 0.150917 0.148641 0.145597 0.141626 0.136727 0.130901 0.124134 0.116411 0.107733 0.0980992 0.0878383 0.0772782 0.0664189 0.0552603 0.044285 0.0339755 0.0243318 0.0153539 0.00732223 0.000517407 -0.0050606 -0.00941179 -0.0126108 -0.0147322 -0.015776 -0.0157423 -0.0149453 -0.0136996 -0.012005 -0.00986152 -0.00762948 -0.00566903 -0.00398018 -0.00256292 -0.00144164 -0.00064073 -0.000160182 0 0 -3.63022e-05 -0.000145209 -0.00032672 -0.000580835 -0.00095336 -0.0014901 -0.00219105 -0.00305622 -0.00405003 -0.00513691 -0.00631685 -0.00758985 -0.0088919 -0.010159 -0.011391 -0.0125881 -0.0137168 -0.0147435 -0.0156683 -0.0164912 -0.0172439 -0.017958 -0.0186336 -0.0192707 -0.0199271 -0.0206606 -0.0214713 -0.0223591 -0.023321 -0.0243542 -0.0254586 -0.0266343 -0.0277905 -0.0288364 -0.029772 -0.0305974 -0.0312271 -0.0315758 -0.0316434 -0.03143 -0.0309794 -0.0303355 -0.0294983 -0.0284677 -0.0274125 -0.0265012 -0.0257339 -0.0251105 -0.024751 -0.0247754 -0.0251836 -0.0259756 -0.027031 -0.0282294 -0.0295707 -0.031055 -0.032312 -0.0329714 -0.0330334 -0.0324977 -0.0309739 -0.0280713 -0.0237899 -0.0181297 -0.0110087 -0.00234481 0.00786187 0.0196114 0.0325169 0.0461917 0.0606357 0.075849 0.0912006 0.10606 0.120426 0.1343 0.147269 0.158923 0.169261 0.178282 0.186012 0.192474 0.197667 0.201593 0.20445 0.206439 0.20756 0.207813 0.207207 0.205752 0.203447 0.200293 0.196117 0.190747 0.184183 0.176424 0.167477 0.15735 0.146042 0.133553 0.120295 0.106679 0.0927048 0.0783732 0.0642728 0.0509927 0.038533 0.0268935 0.0164165 0.00744422 -2.33976e-05 -0.00598633 -0.0105283 -0.013733 -0.0156005 -0.0161307 -0.0156947 -0.0146638 -0.0130377 -0.0108167 -0.00843228 -0.00631634 -0.00446882 -0.00288974 -0.00162548 -0.000722434 -0.000180609 0 0 -5.07031e-05 -0.000202812 -0.000456327 -0.000811249 -0.00131127 -0.0020001 -0.00287772 -0.00394415 -0.00513612 -0.00639036 -0.00770688 -0.00908569 -0.0104416 -0.0116893 -0.0128289 -0.0138603 -0.0147465 -0.0154506 -0.0159724 -0.016312 -0.0165205 -0.0166489 -0.0166974 -0.0166658 -0.0166426 -0.0167163 -0.0168868 -0.0171541 -0.0175342 -0.0180428 -0.01868 -0.0194458 -0.0202466 -0.0209888 -0.0216725 -0.0222977 -0.0227707 -0.0229979 -0.0229793 -0.0227148 -0.0222561 -0.0216548 -0.0209109 -0.0200245 -0.0191825 -0.0185722 -0.0181935 -0.0180464 -0.0182468 -0.0189107 -0.0200379 -0.0216286 -0.0235099 -0.0255091 -0.0276262 -0.0298613 -0.0317563 -0.0328531 -0.0331519 -0.0326526 -0.0308883 -0.0273918 -0.0221632 -0.0152026 -0.00641784 0.004283 0.0168999 0.031433 0.0474114 0.0643645 0.0822922 0.101194 0.120302 0.138846 0.156825 0.17424 0.190575 0.205315 0.218459 0.230008 0.239963 0.248326 0.255097 0.260276 0.264084 0.266743 0.268253 0.268613 0.267838 0.265941 0.262923 0.258783 0.253336 0.246395 0.23796 0.228031 0.216639 0.203813 0.189553 0.173859 0.157236 0.140189 0.122716 0.104819 0.0872058 0.0705839 0.0549535 0.0403148 0.0270786 0.015656 0.00604697 -0.00174845 -0.007824 -0.0122734 -0.0150967 -0.0162938 -0.0162982 -0.0155433 -0.0140291 -0.0117557 -0.00923269 -0.00696987 -0.00496723 -0.00322476 -0.00181393 -0.000806191 -0.000201548 0 0 -6.65216e-05 -0.000266086 -0.000598694 -0.00106435 -0.00170236 -0.00255207 -0.00361347 -0.00488656 -0.00627459 -0.00768083 -0.00910526 -0.0105479 -0.0118981 -0.0130452 -0.0139893 -0.0147303 -0.0152271 -0.0154388 -0.0153654 -0.0150067 -0.0144382 -0.0137352 -0.0128976 -0.0119255 -0.0109462 -0.010087 -0.0093478