<?xml version="1.0"?> 
<VTKFile type="StructuredGrid" version="0.1"> 
<StructuredGrid WholeExtent="0 128 0 128 0 0"> 
<Piece Extent="0 128 0 128 0 0"> 
<PointData>
<DataArray type="Float32" Name="u" format="ascii" NumberOfComponents="1"> 
0 0 0 0 0 0 0 0 0 0 0 0 0 0 0 0 0 0 0 0 0 0 0 0 0 0 0 0 0 0 0 0 0 0 0 0 0 0 0 0 0 0 0 0 0 0 0 0 0 0 0 0 0 0 0 0 0 0 0 0 0 0 0 0 0 0 0 0 0 0 0 0 0 0 0 0 0 0 0 0 0 0 0 0 0 0 0 0 0 0 0 0 0 0 0 0 0 0 0 0 0 0 0 0 0 0 0 0 0 0 0 0 0 0 0 0 0 0 0 0 0 0 0 0 0 0 0 0 0 0 -4.90878e-09 -1.96351e-08 -4.41791e-08 -7.85405e-08 -1.18721e-07 -1.60722e-07 -2.04543e-07 -2.50184e-07 -2.55707e-07 -1.79173e-07 -2.05816e-08 2.20067e-07 5.68049e-07 1.04864e-06 1.66185e-06 2.40766e-06 3.24941e-06 4.15043e-06 5.1107e-06 6.13023e-06 7.17896e-06 8.22681e-06 9.2738e-06 1.03199e-05 1.13661e-05 1.24135e-05 1.3462e-05 1.45115e-05 1.55308e-05 1.64883e-05 1.7384e-05 1.82179e-05 1.89617e-05 1.9587e-05 2.00937e-05 2.04818e-05 2.07718e-05 2.0984e-05 2.11184e-05 2.11749e-05 2.1143e-05 2.10122e-05 2.07823e-05 2.04533e-05 2.00214e-05 1.94825e-05 1.88365e-05 1.80835e-05 1.72897e-05 1.65212e-05 1.5778e-05 1.506e-05 1.42658e-05 1.32939e-05 1.21441e-05 1.08165e-05 9.1615e-06 7.02965e-06 4.42089e-06 1.33524e-06 -1.76839e-06 -4.43109e-06 -6.65284e-06 -8.43366e-06 -9.08052e-06 -7.90042e-06 -4.89337e-06 -5.93504e-08 6.26457e-06 1.37413e-05 2.23709e-05 3.21534e-05 4.19842e-05 5.07589e-05 5.84774e-05 6.51399e-05 7.04122e-05 7.39602e-05 7.5784e-05 7.58835e-05 7.48869e-05 7.34226e-05 7.14904e-05 6.90904e-05 6.6786e-05 6.51408e-05 6.41547e-05 6.38277e-05 6.41587e-05 6.51464e-05 6.67908e-05 6.90919e-05 7.14867e-05 7.34122e-05 7.48682e-05 7.58548e-05 7.57517e-05 7.39383e-05 7.04148e-05 6.5181e-05 5.8565e-05 5.08949e-05 4.21706e-05 3.23921e-05 2.26213e-05 1.39201e-05 6.28832e-06 -2.73907e-07 -5.45551e-06 -8.94537e-06 -1.07435e-05 -1.08499e-05 -9.91712e-06 -8.59786e-06 -6.89207e-06 -4.79977e-06 -2.75107e-06 -1.1761e-06 -7.48654e-08 5.52641e-07 8.52766e-07 9.71862e-07 9.09927e-07 6.66961e-07 3.75166e-07 1.6674e-07 4.16851e-08 0 0 -1.96351e-08 -7.85405e-08 -1.76716e-07 -3.14162e-07 -4.74884e-07 -6.42887e-07 -8.18171e-07 -1.00074e-06 -1.02283e-06 -7.16691e-07 -8.23265e-08 8.80266e-07 2.2722e-06 4.19457e-06 6.64739e-06 9.63065e-06 1.29977e-05 1.66017e-05 2.04428e-05 2.45209e-05 2.87158e-05 3.29072e-05 3.70952e-05 4.12796e-05 4.54646e-05 4.9654e-05 5.38479e-05 5.80462e-05 6.21232e-05 6.59531e-05 6.95359e-05 7.28717e-05 7.58468e-05 7.83478e-05 8.03746e-05 8.19273e-05 8.30873e-05 8.3936e-05 8.44735e-05 8.46997e-05 8.45722e-05 8.40486e-05 8.3129e-05 8.18134e-05 8.00856e-05 7.79298e-05 7.5346e-05 7.23341e-05 6.91588e-05 6.60847e-05 6.31118e-05 6.02401e-05 5.70634e-05 5.31754e-05 4.85762e-05 4.32658e-05 3.6646e-05 2.81186e-05 1.76836e-05 5.34096e-06 -7.07357e-06 -1.77243e-05 -2.66114e-05 -3.37346e-05 -3.63221e-05 -3.16017e-05 -1.95735e-05 -2.37402e-07 2.50583e-05 5.49653e-05 8.94837e-05 0.000128613 0.000167937 0.000203035 0.00023391 0.00026056 0.000281649 0.000295841 0.000303136 0.000303534 0.000299548 0.00029369 0.000285962 0.000276361 0.000267144 0.000260563 0.000256619 0.000255311 0.000256635 0.000260585 0.000267163 0.000276368 0.000285947 0.000293649 0.000299473 0.000303419 0.000303007 0.000295753 0.000281659 0.000260724 0.00023426 0.00020358 0.000168682 0.000129569 9.04854e-05 5.56803e-05 2.51533e-05 -1.09563e-06 -2.1822e-05 -3.57815e-05 -4.2974e-05 -4.33995e-05 -3.96685e-05 -3.43914e-05 -2.75683e-05 -1.91991e-05 -1.10043e-05 -4.70441e-06 -2.99462e-07 2.21056e-06 3.41107e-06 3.88745e-06 3.63971e-06 2.66784e-06 1.50066e-06 6.66961e-07 1.6674e-07 0 0 -4.41791e-08 -1.76716e-07 -3.97612e-07 -7.06865e-07 -1.06849e-06 -1.4465e-06 -1.84088e-06 -2.25166e-06 -2.30136e-06 -1.61256e-06 -1.85235e-07 1.9806e-06 5.11244e-06 9.43778e-06 1.49566e-05 2.1669e-05 2.92447e-05 3.73538e-05 4.59963e-05 5.51721e-05 6.46106e-05 7.40413e-05 8.34642e-05 9.28792e-05 0.000102295 0.000111721 0.000121158 0.000130604 0.000139777 0.000148394 0.000156456 0.000163961 0.000170655 0.000176283 0.000180843 0.000184337 0.000186946 0.000188856 0.000190065 0.000190574 0.000190287 0.000189109 0.00018704 0.00018408 0.000180193 0.000175342 0.000169529 0.000162752 0.000155607 0.000148691 0.000142002 0.00013554 0.000128393 0.000119645 0.000109297 9.73481e-05 8.24535e-05 6.32668e-05 3.9788e-05 1.20172e-05 -1.59155e-05 -3.98798e-05 -5.98756e-05 -7.59029e-05 -8.17247e-05 -7.11038e-05 -4.40403e-05 -5.34153e-07 5.63811e-05 0.000123672 0.000201338 0.00028938 0.000377857 0.00045683 0.000526297 0.000586259 0.00063371 0.000665642 0.000682056 0.000682951 0.000673982 0.000660803 0.000643413 0.000621813 0.000601074 0.000586267 0.000577392 0.000574449 0.000577428 0.000586317 0.000601117 0.000621827 0.000643381 0.00066071 0.000673814 0.000682694 0.000681765 0.000665445 0.000633733 0.000586629 0.000527085 0.000458054 0.000379536 0.000291529 0.000203592 0.000125281 5.65949e-05 -2.46516e-06 -4.90996e-05 -8.05083e-05 -9.66914e-05 -9.76488e-05 -8.92541e-05 -7.73807e-05 -6.20287e-05 -4.31979e-05 -2.47596e-05 -1.05849e-05 -6.73789e-07 4.97377e-06 7.6749e-06 8.74675e-06 8.18934e-06 6.00265e-06 3.37649e-06 1.50066e-06 3.75166e-07 0 0 -7.85405e-08 -3.14162e-07 -7.06865e-07 -1.25665e-06 -1.89954e-06 -2.57155e-06 -3.27268e-06 -4.00294e-06 -4.09131e-06 -2.86676e-06 -3.29306e-07 3.52106e-06 9.08878e-06 1.67783e-05 2.65895e-05 3.85226e-05 5.19906e-05 6.64068e-05 8.17712e-05 9.80837e-05 0.000114863 0.000131629 0.000148381 0.000165119 0.000181858 0.000198616 0.000215391 0.000232185 0.000248493 0.000263812 0.000278144 0.000291487 0.000303387 0.000313391 0.000321499 0.000327709 0.000332349 0.000335744 0.000337894 0.000338799 0.000338289 0.000336195 0.000332516 0.000327253 0.000320343 0.000311719 0.000301384 0.000289337 0.000276635 0.000264339 0.000252447 0.00024096 0.000228254 0.000212702 0.000194305 0.000173063 0.000146584 0.000112474 7.07343e-05 2.13639e-05 -2.82943e-05 -7.08974e-05 -0.000106445 -0.000134938 -0.000145288 -0.000126407 -7.82939e-05 -9.49606e-07 0.000100233 0.000219861 0.000357935 0.000514454 0.000671747 0.000812142 0.000935639 0.00104224 0.0011266 0.00118336 0.00121254 0.00121414 0.00119819 0.00117476 0.00114385 0.00110545 0.00106858 0.00104225 0.00102648 0.00102124 0.00102654 0.00104234 0.00106865 0.00110547 0.00114379 0.00117459 0.00119789 0.00121368 0.00121203 0.00118301 0.00112664 0.0010429 0.000937041 0.000814319 0.00067473 0.000518274 0.000361942 0.000222721 0.000100613 -4.38251e-06 -8.72881e-05 -0.000143126 -0.000171896 -0.000173598 -0.000158674 -0.000137566 -0.000110273 -7.67963e-05 -4.40171e-05 -1.88176e-05 -1.19785e-06 8.84225e-06 1.36443e-05 1.55498e-05 1.45588e-05 1.06714e-05 6.00265e-06 2.66784e-06 6.66961e-07 0 0 -1.12003e-07 -4.48012e-07 -1.00803e-06 -1.79205e-06 -2.66665e-06 -3.49842e-06 -4.28735e-06 -5.03344e-06 -4.86785e-06 -2.92172e-06 8.04949e-07 6.31215e-06 1.39577e-05 2.40992e-05 3.67369e-05 5.18706e-05 6.85837e-05 8.59594e-05 0.000103998 0.000122699 0.000141565 0.000160098 0.000178298 0.000196165 0.000214032 0.000232231 0.000250764 0.000269629 0.000288308 0.000306282 0.000323551 0.000340115 0.000355233 0.000368164 0.000378908 0.000387466 0.000394042 0.000398842 0.000401868 0.000403118 0.00040236 0.000399359 0.000394117 0.000386632 0.00037711 0.000365754 0.000352565 0.000337543 0.000322136 0.000307794 0.000294516 0.000282303 0.000268604 0.000250867 0.000229094 0.000203283 0.000170566 0.000128072 7.58017e-05 1.37551e-05 -4.72627e-05 -9.64469e-05 -0.000133797 -0.000159314 -0.000158082 -0.000115186 -3.06252e-05 9.55993e-05 0.000255509 0.000441125 0.000652448 0.000889477 0.00112762 0.00134229 0.00153349 0.00170121 0.00183723 0.0019333 0.00198944 0.00200564 0.00199539 0.0019722 0.00193606 0.00188697 0.00183836 0.00180366 0.00178285 0.00177596 0.00178294 0.00180377 0.00183845 0.00188698 0.00193595 0.00197195 0.00199498 0.00200505 0.00198881 0.00193293 0.00183741 0.00170226 0.00153553 0.00134528 0.00113153 0.000894268 0.0006572 0.000444032 0.000254765 8.93998e-05 -4.44606e-05 -0.000139212 -0.000194855 -0.000211389 -0.000202722 -0.000182764 -0.000151513 -0.00010897 -6.55019e-05 -3.14736e-05 -6.88552e-06 8.2624e-06 1.64768e-05 2.02644e-05 1.96251e-05 1.4559e-05 8.18946e-06 3.63976e-06 9.0994e-07 0 0 -1.33849e-07 -5.35398e-07 -1.20464e-06 -2.14159e-06 -3.06846e-06 -3.70748e-06 -4.05866e-06 -4.12198e-06 -3.10614e-06 -2.19806e-07 4.53702e-06 1.11643e-05 1.94755e-05 2.92838e-05 4.05893e-05 5.3392e-05 6.63722e-05 7.82105e-05 8.89068e-05 9.84612e-05 0.000106806 0.000113875 0.000119668 0.000124185 0.000128693 0.000134461 0.000141489 0.000149777 0.000159262 0.00016988 0.00018163 0.000194514 0.000207384 0.000219093 0.000229639 0.000239025 0.000246769 0.000252393 0.000255896 0.000257278 0.000256285 0.00025266 0.000246403 0.000237516 0.00022707 0.00021614 0.000204725 0.000192826 0.000182003 0.00017382 0.000168276 0.000165371 0.000161401 0.000152662 0.000139155 0.000120879 9.59262e-05 6.23898e-05 2.02694e-05 -3.04349e-05 -7.58739e-05 -0.000102198 -0.000109408 -9.75024e-05 -5.11744e-05 4.48846e-05 0.000190675 0.000386196 0.000621104 0.000885056 0.00117805 0.00150009 0.0018235 0.0021206 0.0023914 0.00263589 0.00284253 0.00299976 0.00310759 0.00316601 0.0031888 0.00318975 0.00316885 0.0031261 0.00307914 0.00304561 0.00302552 0.00301885 0.00302559 0.0030457 0.00307918 0.00312603 0.00316864 0.00318942 0.00318837 0.00316547 0.00310711 0.00299965 0.00284309 0.00263744 0.00239394 0.00212386 0.00182721 0.00150398 0.00118103 0.000885242 0.000616608 0.000375129 0.00017131 1.56548e-05 -9.18362e-05 -0.000151163 -0.000176192 -0.000180791 -0.000164959 -0.000128696 -8.59392e-05 -5.0624e-05 -2.27507e-05 -2.31939e-06 1.13302e-05 1.88585e-05 2.02653e-05 1.55507e-05 8.74724e-06 3.88766e-06 9.71916e-07 0 0 -1.4408e-07 -5.7632e-07 -1.29672e-06 -2.30528e-06 -3.10497e-06 -3.19875e-06 -2.58662e-06 -1.26858e-06 1.1938e-06 5.23897e-06 1.08669e-05 1.80776e-05 2.56423e-05 3.2332e-05 3.81469e-05 4.30868e-05 4.53563e-05 4.31601e-05 3.64981e-05 2.53702e-05 1.05877e-05 -7.03853e-06 -2.75084e-05 -5.0822e-05 -7.41579e-05 -9.46946e-05 -0.000112432 -0.000127371 -0.000138646 -0.000145396 -0.000147619 -0.000145316 -0.00014016 -0.000133824 -0.000126308 -0.000117613 -0.000109468 -0.000103605 -0.000100022 -9.87216e-05 -9.99373e-05 -0.000103905 -0.000110625 -0.000120096 -0.000129777 -0.000137123 -0.000142136 -0.000144815 -0.000143763 -0.000137583 -0.000126274 -0.000109837 -9.33553e-05 -8.19136e-05 -7.55117e-05 -7.41497e-05 -7.73341e-05 -8.45717e-05 -9.58624e-05 -0.000111206 -0.000114128 -8.8151e-05 -3.32763e-05 5.04965e-05 0.000175434 0.000353804 0.000585606 0.000870839 0.00119702 0.00155165 0.00193475 0.0023463 0.00275939 0.00314708 0.00350938 0.00384628 0.0041425 0.00438273 0.00456698 0.00469524 0.00477842 0.00482741 0.00484222 0.00482283 0.00479091 0.00476813 0.00475447 0.00474994 0.0047545 0.00476814 0.00479085 0.00482262 0.00484188 0.00482702 0.00477805 0.00469496 0.00456695 0.00438319 0.00414369 0.00384844 0.00351228 0.00315006 0.00276176 0.0023474 0.00193344 0.00154635 0.00118614 0.000852806 0.000560024 0.000321475 0.00013716 7.07904e-06 -7.90851e-05 -0.000131649 -0.000150612 -0.000135974 -0.000105329 -7.62687e-05 -4.87934e-05 -2.29031e-05 -1.79547e-06 1.1332e-05 1.64792e-05 1.36462e-05 7.67599e-06 3.41155e-06 8.52888e-07 0 0 -1.42695e-07 -5.70779e-07 -1.28425e-06 -2.28312e-06 -2.77617e-06 -1.9722e-06 1.28781e-07 3.52678e-06 8.03199e-06 1.34546e-05 1.97946e-05 2.7052e-05 3.24581e-05 3.32439e-05 2.94095e-05 2.09549e-05 5.53587e-06 -1.91919e-05 -5.32285e-05 -9.65738e-05 -0.000147091 -0.000202644 -0.000263232 -0.000328855 -0.000394521 -0.000455236 -0.000511 -0.000561814 -0.000605416 -0.000639543 -0.000664197 -0.000679376 -0.000687399 -0.000690586 -0.000688935 -0.000682448 -0.00067467 -0.00066915 -0.000665887 -0.000664881 -0.000666306 -0.000670334 -0.000676967 -0.000686203 -0.000693431 -0.000694036 -0.000688019 -0.00067538 -0.000655164 -0.000626415 -0.000589133 -0.000543319 -0.000495664 -0.00045286 -0.000414906 -0.000381802 -0.000349215 -0.000312813 -0.000272594 -0.000228559 -0.000162024 -5.43056e-05 9.45967e-05 0.000284683 0.000521744 0.000811573 0.00115417 0.00154953 0.00198325 0.00244092 0.00292254 0.0034281 0.00393527 0.00442171 0.00488741 0.00533238 0.00573713 0.00608222 0.00636762 0.00659335 0.00676425 0.00688519 0.00695616 0.00697716 0.00697368 0.00697119 0.0069697 0.0069692 0.00696967 0.00697109 0.00697345 0.00697676 0.00695564 0.00688473 0.00676402 0.00659351 0.00636832 0.00608355 0.00573919 0.00533526 0.00489055 0.00442386 0.00393519 0.00342453 0.00291442 0.00242736 0.00196337 0.00152243 0.00112168 0.000778249 0.000492134 0.000263338 8.86001e-05 -3.5336e-05 -0.000108471 -0.000130804 -0.000123671 -0.000108408 -8.50136e-05 -5.34888e-05 -2.29003e-05 -2.31506e-06 8.26695e-06 8.84572e-06 4.97571e-06 2.21143e-06 5.52857e-07 0 0 -9.37464e-08 -3.74985e-07 -8.43717e-07 -1.49994e-06 -1.4191e-06 3.23354e-07 3.72743e-06 8.79312e-06 1.45518e-05 2.0035e-05 2.52426e-05 3.01747e-05 3.1019e-05 2.39632e-05 9.00745e-06 -1.38483e-05 -4.67824e-05 -9.19732e-05 -0.00014942 -0.000219124 -0.000297977 -0.000382872 -0.000473809 -0.000570787 -0.00066782 -0.00075892 -0.000844089 -0.000923326 -0.000993343 -0.00105085 -0.00109585 -0.00112834 -0.00115061 -0.00116494 -0.00117132 -0.00116977 -0.001165 -0.00116176 -0.00116004 -0.00115985 -0.0011612 -0.00116411 -0.00116858 -0.00117461 -0.00117629 -0.00116771 -0.00114889 -0.00111982 -0.00108094 -0.00103273 -0.000975178 -0.000908284 -0.000838714 -0.00077313 -0.000711533 -0.000653923 -0.000590641 -0.000512028 -0.000418084 -0.000308809 -0.000168562 1.82954e-05 0.000251765 0.000531846 0.000851927 0.0012054 0.00159226 0.00201252 0.00245383 0.00290388 0.00336267 0.00383019 0.0042989 0.00476124 0.00521724 0.00566687 0.00609136 0.00647192 0.00680856 0.00710127 0.00734391 0.00753035 0.00766058 0.00773461 0.00777479 0.00780347 0.00782066 0.00782636 0.00782055 0.00780323 0.0077744 0.00773406 0.00765998 0.00752994 0.00734395 0.00710201 0.00681005 0.00647404 0.00609397 0.00566983 0.00521969 0.0047616 0.00429555 0.00382155 0.00334811 0.00288373 0.00242842 0.00198217 0.00156107 0.00118123 0.000842634 0.000545288 0.000298173 0.000110271 -1.84199e-05 -8.78985e-05 -0.000117622 -0.000127049 -0.000116178 -8.50102e-05 -4.87838e-05 -2.2738e-05 -6.87289e-06 -1.18838e-06 -6.68466e-07 -2.97096e-07 -7.4274e-08 0 0 3.87128e-08 1.54851e-07 3.48415e-07 6.19404e-07 1.62919e-06 4.03913e-06 7.84923e-06 1.30595e-05 1.78968e-05 2.05881e-05 2.11335e-05 1.95328e-05 1.24212e-05 -3.56606e-06 -2.84291e-05 -6.21679e-05 -0.000105292 -0.000158311 -0.000221226 -0.000294035 -0.000373819 -0.000457656 -0.000545546 -0.00063749 -0.000729479 -0.000817507 -0.000901573 -0.000981677 -0.00105472 -0.00111761 -0.00117033 -0.0012129 -0.00124607 -0.00127062 -0.00128655 -0.00129385 -0.00129662 -0.00129895 -0.00130084 -0.00130229 -0.00130302 -0.00130273 -0.00130142 -0.00129911 -0.00129074 -0.00127127 -0.00124072 -0.00119907 -0.00114985 -0.00109659 -0.00103928 -0.000977939 -0.000915691 -0.000855678 -0.000797901 -0.000742359 -0.000672535 -0.000571912 -0.000440491 -0.000278271 -8.27417e-05 0.000148609 0.000415781 0.000718774 0.00103016 0.00132249 0.00159579 0.00185004 0.00208279 0.00229157 0.00247639 0.00263725 0.00279798 0.00298242 0.00319058 0.00342245 0.00367009 0.00392555 0.00418884 0.00445995 0.00471502 0.00493016 0.00510538 0.00524068 0.00534159 0.00541363 0.00545681 0.00547112 0.00545659 0.00541325 0.0053411 0.00524013 0.00510492 0.00493006 0.00471553 0.00446134 0.004191 0.003928 0.00367236 0.00342407 0.00319064 0.00297959 0.00279092 0.00262463 0.00245865 0.00227092 0.00206143 0.00183018 0.00158299 0.00132567 0.0010582 0.000780606 0.000520945 0.000307296 0.000139657 1.80294e-05 -6.3839e-05 -0.0001122 -0.000127054 -0.000108401 -7.62453e-05 -5.05923e-05 -3.14417e-05 -1.87936e-05 -1.05714e-05 -4.69841e-06 -1.1746e-06 0 0 2.54683e-07 1.01873e-06 2.29214e-06 4.07492e-06 6.3687e-06 9.17512e-06 1.24942e-05 1.63259e-05 1.80669e-05 1.5114e-05 7.46712e-06 -4.8737e-06 -2.33352e-05 -4.9344e-05 -8.29001e-05 -0.000124004 -0.000169993 -0.000218206 -0.000268644 -0.000321306 -0.000374615 -0.000426995 -0.000478444 -0.000528964 -0.000579499 -0.000630995 -0.000683451 -0.000736867 -0.000789551 -0.000839807 -0.000887637 -0.000933039 -0.000973785 -0.00100764 -0.00103462 -0.00105471 -0.00106953 -0.00108073 -0.00108828 -0.0010922 -0.00109174 -0.00108617 -0.0010755 -0.00105971 -0.00103679 -0.00100472 -0.0009635 -0.000913134 -0.000861875 -0.00081798 -0.00078145 -0.000752283 -0.000726596 -0.000700504 -0.000674008 -0.000647108 -0.000594896 -0.000492465 -0.000339815 -0.000136947 9.54379e-05 0.000336635 0.000586646 0.000845469 0.00105643 0.00116286 0.00116475 0.0010621 0.000870117 0.000603985 0.000263707 -0.000150717 -0.000567475 -0.000914755 -0.00119256 -0.00140088 -0.00152668 -0.0015569 -0.00149153 -0.0013306 -0.00112243 -0.000915372 -0.000709435 -0.000504615 -0.000325912 -0.000198328 -0.000121863 -9.65157e-05 -0.000122207 -0.000198856 -0.000326462 -0.000505025 -0.000709523 -0.000914933 -0.00112125 -0.00132849 -0.00148885 -0.00155456 -0.00152562 -0.00140203 -0.00119661 -0.000922169 -0.000578714 -0.000166244 0.000246034 0.000588914 0.000862395 0.00106648 0.00118744 0.00121156 0.00113885 0.000969293 0.000756916 0.000555738 0.00036576 0.000186979 3.7679e-05 -6.38612e-05 -0.000117641 -0.000123661 -0.000105285 -8.58778e-05 -6.54395e-05 -4.39701e-05 -2.47332e-05 -1.09925e-05 -2.74813e-06 0 0 5.54163e-07 2.21665e-06 4.98747e-06 8.86661e-06 1.27994e-05 1.57313e-05 1.76623e-05 1.85923e-05 1.50621e-05 3.61254e-06 -1.57564e-05 -4.30448e-05 -7.62502e-05 -0.000113371 -0.000154406 -0.000199356 -0.000240885 -0.000271658 -0.000291676 -0.000300937 -0.000300367 -0.000290889 -0.000272503 -0.000245209 -0.00021788 -0.000199384 -0.000189723 -0.000188897 -0.000197832 -0.000217456 -0.000247767 -0.000288766 -0.000333747 -0.000376001 -0.00041553 -0.000452332 -0.000483739 -0.000507081 -0.000522358 -0.00052957 -0.000527381 -0.000514457 -0.000490797 -0.000456401 -0.000414429 -0.000368041 -0.000317237 -0.000262017 -0.000217028 -0.000196914 -0.000201677 -0.000231316 -0.000271428 -0.000307607 -0.000339855 -0.000368171 -0.000357725 -0.000273687 -0.000116057 0.000115165 0.000365977 0.000582374 0.000764359 0.00091193 0.000930752 0.000726488 0.00029914 -0.000351294 -0.00118418 -0.00215887 -0.00327538 -0.00453371 -0.00579747 -0.00693029 -0.00793218 -0.00880312 -0.00949894 -0.00997542 -0.0102326 -0.0102704 -0.0101684 -0.0100063 -0.00978388 -0.00950129 -0.00922772 -0.00903241 -0.00891535 -0.00887655 -0.00891584 -0.00903309 -0.00922827 -0.0095014 -0.00978336 -0.010005 -0.0101664 -0.0102675 -0.0102295 -0.00997366 -0.00949999 -0.00880847 -0.00794205 -0.00694367 -0.00581334 -0.00455106 -0.00328973 -0.00216227 -0.00116868 -0.000308948 0.000374417 0.000838921 0.00108456 0.00111135 0.00100609 0.000855599 0.000659888 0.000418952 0.000186932 1.79677e-05 -8.79396e-05 -0.00013079 -0.000135903 -0.000128595 -0.000108866 -7.67176e-05 -4.31537e-05 -1.91794e-05 -4.79485e-06 0 0 8.06402e-07 3.22561e-06 7.25762e-06 1.29024e-05 1.78999e-05 1.99897e-05 1.9172e-05 1.54466e-05 5.48386e-06 -1.40462e-05 -4.31436e-05 -8.18082e-05 -0.000123783 -0.000162809 -0.000198887 -0.000232018 -0.000251134 -0.000245171 -0.000214129 -0.000158006 -8.09809e-05 1.27696e-05 0.000123246 0.000250447 0.000377758 0.00048856 0.000582855 0.000660642 0.000717549 0.000749201 0.0007556 0.000736745 0.000703034 0.000664865 0.000622237 0.000575151 0.000531466 0.000499041 0.000477877 0.000467973 0.000471362 0.00049008 0.000524125 0.000573497 0.00062845 0.000679237 0.000725858 0.000768313 0.000787157 0.000762947 0.000695682 0.000585362 0.000459338 0.000344962 0.000242232 0.000151149 0.000108965 0.000152929 0.000283043 0.000499305 0.000710906 0.000827034 0.00084769 0.000772873 0.000488857 -0.000118085 -0.00104795 -0.00230075 -0.00380795 -0.00550103 -0.00737998 -0.00944482 -0.0115177 -0.0134206 -0.0151537 -0.0167169 -0.0180311 -0.0190174 -0.0196756 -0.0200059 -0.0201021 -0.0200582 -0.0198744 -0.0195505 -0.0192058 -0.0189598 -0.0188123 -0.0187634 -0.0188129 -0.0189605 -0.0192062 -0.0195501 -0.0198731 -0.0200562 -0.0200994 -0.0200028 -0.0196731 -0.0190171 -0.018035 -0.0167267 -0.0151688 -0.0134382 -0.0115349 -0.00945879 -0.0073845 -0.00548656 -0.00376498 -0.00221977 -0.000925422 4.35401e-05 0.000687119 0.00100532 0.00110035 0.00107445 0.000927617 0.000659847 0.000365647 0.000139525 -1.85189e-05 -0.000108485 -0.000150535 -0.000164833 -0.000151378 -0.000110169 -6.19703e-05 -2.75423e-05 -6.88559e-06 0 0 8.80648e-07 3.52259e-06 7.92583e-06 1.40904e-05 1.86484e-05 1.82322e-05 1.28417e-05 2.4769e-06 -1.40663e-05 -3.79922e-05 -6.93008e-05 -0.000107992 -0.000143391 -0.000164823 -0.000172287 -0.000165784 -0.000133907 -6.52492e-05 4.01898e-05 0.00018241 0.000353635 0.000546088 0.000759769 0.00099468 0.00122979 0.00144407 0.00163753 0.00181016 0.00195371 0.00205992 0.00212879 0.00216032 0.00216555 0.00215551 0.0021302 0.00208962 0.00204678 0.0020147 0.00199338 0.00198281 0.00198579 0.00200509 0.00204072 0.00209268 0.00214397 0.0021776 0.00219357 0.00219189 0.00215314 0.00205794 0.00190627 0.00169815 0.00147523 0.00127915 0.00110993 0.000967551 0.00087516 0.00085589 0.000909742 0.00103671 0.00111226 0.00101182 0.000735407 0.000283015 -0.000433513 -0.00150234 -0.00292345 -0.00469686 -0.00672905 -0.0089265 -0.0112892 -0.0138172 -0.0163537 -0.0187421 -0.0209825 -0.0230747 -0.0249077 -0.0263701 -0.027462 -0.0281835 -0.0286025 -0.0287871 -0.0287374 -0.0284533 -0.0281023 -0.0278516 -0.0277014 -0.0276515 -0.0277018 -0.027852 -0.0281021 -0.0284521 -0.0287352 -0.0287845 -0.0285999 -0.0281815 -0.0274617 -0.0263729 -0.024915 -0.023088 -0.0210001 -0.0187592 -0.0163653 -0.0138184 -0.0112741 -0.00888787 -0.00665972 -0.00458965 -0.00278142 -0.00133878 -0.00026172 0.000449746 0.000871613 0.00107987 0.00107452 0.000855563 0.000555553 0.000307049 0.000110052 -3.54399e-05 -0.00013162 -0.000180683 -0.000182629 -0.000137458 -7.73203e-05 -3.43646e-05 -8.59115e-06 0 0 7.769e-07 3.1076e-06 6.9921e-06 1.24304e-05 1.50451e-05 1.04588e-05 -1.32856e-06 -2.03169e-05 -4.35885e-05 -6.82255e-05 -9.4228e-05 -0.000121596 -0.000135075 -0.000119411 -7.46044e-05 -6.54538e-07 0.000110797 0.000268108 0.000471279 0.00072031 0.00100348 0.00130907 0.00163707 0.00198749 0.00233822 0.00266716 0.0029743 0.00325966 0.00351064 0.00371469 0.0038718 0.00398196 0.00405381 0.00409594 0.00410836 0.00409107 0.00406221 0.0040399 0.00402414 0.00401494 0.00401589 0.00403057 0.00405899 0.00410114 0.00413213 0.00412705 0.00408591 0.0040087 0.00388092 0.00368805 0.0034301 0.00310706 0.00277624 0.00249496 0.00226323 0.00208103 0.00194086 0.0018352 0.00176404 0.00172739 0.00157003 0.00113674 0.000427512 -0.000557644 -0.00183636 -0.00342626 -0.00532735 -0.00753963 -0.00994748 -0.0124353 -0.015003 -0.0176507 -0.0203056 -0.0228949 -0.0254186 -0.0278767 -0.0301286 -0.0320336 -0.0335919 -0.0348032 -0.0356696 -0.0361928 -0.0363729 -0.0362098 -0.035917 -0.0357079 -0.0355825 -0.0355408 -0.0355826 -0.0357077 -0.035916 -0.0362076 -0.0363697 -0.0361898 -0.0356678 -0.0348037 -0.0335955 -0.0320408 -0.0301399 -0.0278926 -0.0254358 -0.0229065 -0.0203045 -0.0176299 -0.0149585 -0.0123662 -0.0098529 -0.00741861 -0.00519358 -0.00330803 -0.00176195 -0.000555361 0.00031987 0.000871858 0.0011006 0.0010061 0.00075665 0.00052054 0.000297772 8.83444e-05 -7.91563e-05 -0.000176145 -0.000202621 -0.000158585 -8.92038e-05 -3.96461e-05 -9.91154e-06 0 0 4.9516e-07 1.98064e-06 4.45644e-06 7.92255e-06 7.08992e-06 -3.33052e-06 -2.33388e-05 -5.29348e-05 -8.30826e-05 -0.000104746 -0.000117925 -0.00012262 -9.88352e-05 -2.65751e-05 9.41603e-05 0.000263371 0.000482977 0.0007549 0.00107914 0.0014557 0.00186855 0.0023017 0.00275514 0.00322887 0.00370304 0.00415781 0.00459317 0.00500913 0.00538835 0.00571352 0.00598462 0.00620167 0.00636779 0.00648614 0.00655671 0.00657951 0.00657774 0.00657463 0.00657017 0.00656437 0.00656167 0.00656653 0.00657893 0.00659889 0.00659293 0.00652759 0.00640287 0.00621876 0.0059705 0.0056533 0.00526715 0.00481207 0.00436238 0.0039924 0.00370214 0.0034916 0.00330607 0.00309085 0.00284594 0.00257134 0.00208422 0.00120178 -7.59968e-05 -0.0017491 -0.00371968 -0.00588987 -0.00825966 -0.0108291 -0.0134632 -0.0160274 -0.0185215 -0.0209455 -0.0233734 -0.0258789 -0.028462 -0.0311228 -0.0336939 -0.036008 -0.0380651 -0.0398651 -0.0413035 -0.0422755 -0.042781 -0.04282 -0.0426501 -0.0425287 -0.0424558 -0.0424314 -0.0424554 -0.0425275 -0.0426478 -0.0428163 -0.0427766 -0.0422722 -0.0413031 -0.0398694 -0.0380743 -0.0360211 -0.0337098 -0.0311404 -0.0284761 -0.0258801 -0.0233526 -0.0208933 -0.0184378 -0.0159216 -0.0133445 -0.0107066 -0.0081619 -0.00586421 -0.00381358 -0.00201001 -0.000554878 0.00045041 0.00100586 0.00111146 0.000968938 0.000779998 0.000544642 0.000262868 6.85549e-06 -0.000151218 -0.000211353 -0.000173548 -9.76208e-05 -4.3387e-05 -1.08468e-05 0 0 -1.13309e-07 -4.53237e-07 -1.01978e-06 -1.81295e-06 -7.75605e-06 -2.37724e-05 -4.9862e-05 -8.60249e-05 -0.00011686 -0.000126967 -0.000116346 -8.49962e-05 -1.39162e-05 0.000115896 0.000304441 0.000551718 0.000848014 0.00118362 0.00155852 0.00197273 0.00241053 0.00285617 0.00330966 0.00377101 0.0042328 0.00468765 0.00513554 0.00557649 0.00599322 0.00636848 0.00670227 0.00699458 0.00723808 0.00742543 0.00755663 0.00763168 0.00767196 0.00769885 0.00771234 0.00771244 0.00770439 0.00769342 0.00767954 0.00766274 0.00760732 0.00747755 0.00727344 0.00699498 0.00665472 0.0062652 0.00582642 0.00533837 0.00488605 0.00455443 0.00434352 0.00425331 0.00415671 0.00392664 0.00356309 0.00306606 0.00224754 0.000919533 -0.000917974 -0.00326498 -0.00582337 -0.00829506 -0.01068 -0.0129783 -0.0150537 -0.0167702 -0.0181277 -0.0191262 -0.0201213 -0.0214683 -0.0231673 -0.0252182 -0.0274546 -0.0297098 -0.0319838 -0.0342767 -0.0362993 -0.0377624 -0.0386661 -0.0390103 -0.0390666 -0.0391067 -0.0391305 -0.039138 -0.0391293 -0.0391043 -0.039063 -0.0390054 -0.0386612 -0.0377598 -0.0363013 -0.0342857 -0.0319993 -0.0297284 -0.0274729 -0.0252329 -0.0231718 -0.0214531 -0.0200766 -0.0190424 -0.0180108 -0.0166421 -0.0149361 -0.0128929 -0.0106666 -0.00841124 -0.00612674 -0.00381313 -0.00176088 -0.000260447 0.000688173 0.00108498 0.00113856 0.0010575 0.000841812 0.000491486 0.000136792 -9.2004e-05 -0.000194901 -0.0001719 -9.6694e-05 -4.29751e-05 -1.07438e-05 0 0 -1.19724e-06 -4.78896e-06 -1.07752e-05 -1.91559e-05 -3.20317e-05 -5.15036e-05 -7.75713e-05 -0.000110235 -0.000129233 -0.000114302 -6.54428e-05 1.73445e-05 0.000140437 0.000310213 0.000526671 0.000789811 0.00107128 0.00134274 0.00160418 0.0018556 0.00209106 0.00230463 0.0024963 0.00266607 0.00283604 0.00302829 0.00324283 0.00347964 0.00373162 0.00399164 0.00425972 0.00453583 0.00479522 0.0050131 0.00518948 0.00532435 0.00542345 0.00549251 0.00553153 0.00554051 0.0055253 0.00549173 0.00543981 0.00536954 0.00525625 0.00507528 0.00482661 0.00451026 0.00416642 0.00383528 0.00351686 0.00321113 0.00299968 0.00296404 0.00310423 0.00342024 0.00367873 0.00364637 0.00332315 0.00270907 0.0016527 2.58165e-06 -0.00224127 -0.00507887 -0.00788732 -0.0100437 -0.0115481 -0.0124005 -0.0124963 -0.0117311 -0.0101048 -0.00761751 -0.00511358 -0.00343741 -0.002589 -0.00256836 -0.00326186 -0.00455588 -0.00645042 -0.00894548 -0.0114521 -0.0133812 -0.0147328 -0.015507 -0.0159316 -0.0162345 -0.0164157 -0.0164753 -0.0164135 -0.0162306 -0.0159266 -0.0155016 -0.0147286 -0.0133806 -0.0114577 -0.00895986 -0.00647161 -0.00457755 -0.00327766 -0.00257194 -0.00257418 -0.00339813 -0.00504379 -0.00751117 -0.00997644 -0.0116158 -0.0124292 -0.0124167 -0.0116881 -0.010353 -0.00841155 -0.00586368 -0.00330639 -0.00133669 4.54392e-05 0.000839984 0.00121165 0.00132513 0.00118043 0.000777554 0.000321029 1.53966e-05 -0.000139344 -0.000143193 -8.05463e-05 -3.57984e-05 -8.94959e-06 0 0 -2.75663e-06 -1.10265e-05 -2.48097e-05 -4.41062e-05 -6.57372e-05 -8.6524e-05 -0.000106467 -0.000125565 -0.0001202 -6.67501e-05 3.47838e-05 0.000184402 0.000364225 0.000556374 0.00076085 0.000977652 0.00115279 0.00123227 0.00121611 0.00110428 0.000910158 0.000647081 0.000315051 -8.59316e-05 -0.000487243 -0.000820261 -0.00108498 -0.00128141 -0.00139645 -0.00141699 -0.00134303 -0.00117457 -0.000960785 -0.000750843 -0.000544745 -0.000342489 -0.000167796 -4.43878e-05 2.77359e-05 4.85753e-05 2.43924e-05 -3.85509e-05 -0.000140254 -0.000280718 -0.000460268 -0.00067923 -0.000937604 -0.00123539 -0.0014944 -0.00163645 -0.00166153 -0.00156965 -0.00129675 -0.000778774 -1.57313e-05 0.000992384 0.00187212 0.00225003 0.00212611 0.00150037 0.000299682 -0.00154908 -0.0040459 -0.00719079 -0.00991154 -0.0111359 -0.0108639 -0.0090956 -0.00579095 -0.000910023 0.00554717 0.0135806 0.0216497 0.0282138 0.0332728 0.0368268 0.0388843 0.0394538 0.0385352 0.0361286 0.0332382 0.0308682 0.0290188 0.0276899 0.026755 0.0260879 0.0256884 0.0255568 0.025692 0.0260935 0.0267611 0.027695 0.029021 0.0308652 0.0332276 0.0361081 0.0385087 0.0394314 0.038876 0.0368426 0.0333169 0.0282847 0.0217459 0.0137005 0.00566536 -0.000842771 -0.0058239 -0.00927802 -0.0112262 -0.0116895 -0.010668 -0.00816164 -0.00519141 -0.00277831 -0.000922346 0.00037648 0.00118821 0.00158289 0.00156051 0.00112107 0.000559568 0.000170984 -4.46813e-05 -8.74272e-05 -4.91778e-05 -2.18568e-05 -5.4642e-06 0 0 -4.79149e-06 -1.9166e-05 -4.31234e-05 -7.66639e-05 -0.000108872 -0.000128834 -0.000136548 -0.000132016 -8.97619e-05 1.5688e-05 0.000184334 0.000416176 0.000657447 0.000854382 0.00100698 0.00111524 0.00109253 0.000852219 0.000394306 -0.000281207 -0.00113218 -0.00211647 -0.00323408 -0.00448501 -0.00573705 -0.00685801 -0.00784789 -0.00870668 -0.00939098 -0.00985741 -0.010106 -0.0101366 -0.0100299 -0.00986641 -0.00964604 -0.00936883 -0.00910178 -0.00891185 -0.00879904 -0.00876336 -0.00879832 -0.00889742 -0.00906066 -0.00928804 -0.00954224 -0.00978597 -0.0100192 -0.010242 -0.0103277 -0.01015 -0.00970873 -0.00900396 -0.00800321 -0.00667401 -0.00501636 -0.00303025 -0.00126312 -0.00026237 -2.80111e-05 -0.000560041 -0.0018115 -0.00373544 -0.00633185 -0.00960073 -0.011896 -0.0115716 -0.00862748 -0.00306368 0.0050623 0.0156929 0.0288282 0.0444682 0.0601686 0.0734853 0.08441