<?xml version="1.0"?> 
<VTKFile type="StructuredGrid" version="0.1"> 
<StructuredGrid WholeExtent="0 128 0 128 0 0"> 
<Piece Extent="0 128 0 128 0 0"> 
<PointData>
<DataArray type="Float32" Name="u" format="ascii" NumberOfComponents="1"> 
0 0 0 0 0 0 0 0 0 0 0 0 0 0 0 0 0 0 0 0 0 0 0 0 0 0 0 0 0 0 0 0 0 0 0 0 0 0 0 0 0 0 0 0 0 0 0 0 0 0 0 0 0 0 0 0 0 0 0 0 0 0 0 0 0 0 0 0 0 0 0 0 0 0 0 0 0 0 0 0 0 0 0 0 0 0 0 0 0 0 0 0 0 0 0 0 0 0 0 0 0 0 0 0 0 0 0 0 0 0 0 0 0 0 0 0 0 0 0 0 0 0 0 0 0 0 0 0 0 0 1.16324e-07 4.65296e-07 1.04692e-06 1.86118e-06 2.72779e-06 3.46644e-06 4.07712e-06 4.55984e-06 4.67589e-06 4.18658e-06 3.09191e-06 1.39186e-06 -9.54959e-07 -3.98998e-06 -7.71318e-06 -1.21246e-05 -1.71932e-05 -2.28879e-05 -2.92088e-05 -3.61559e-05 -4.36374e-05 -5.15615e-05 -5.99284e-05 -6.87379e-05 -7.78082e-05 -8.69576e-05 -9.61859e-05 -0.000105493 -0.00011461 -0.000123266 -0.000131461 -0.000139196 -0.000146197 -0.000152191 -0.000157178 -0.000161158 -0.000164008 -0.000165605 -0.000165949 -0.00016504 -0.000163025 -0.00016005 -0.000156115 -0.000151221 -0.000145752 -0.000140091 -0.000134238 -0.000128194 -0.000122381 -0.000117221 -0.000112713 -0.000108858 -0.000105886 -0.000104025 -0.000103276 -0.000103639 -0.000105068 -0.000107518 -0.000110989 -0.000115481 -0.000120799 -0.000126751 -0.000133336 -0.000140554 -0.000148266 -0.000156334 -0.000164758 -0.000173537 -0.000182661 -0.000192119 -0.000201911 -0.000212036 -0.000222475 -0.000233209 -0.000244237 -0.000255559 -0.00026696 -0.000278225 -0.000289353 -0.000300345 -0.000310798 -0.000320311 -0.000328884 -0.000336517 -0.000342876 -0.000347625 -0.000350765 -0.000352297 -0.000352212 -0.000350503 -0.00034717 -0.000342214 -0.000335943 -0.00032867 -0.000320394 -0.000311115 -0.000301192 -0.000290982 -0.000280486 -0.000269704 -0.000258786 -0.000247883 -0.000236995 -0.000226122 -0.000215194 -0.00020414 -0.00019296 -0.000181654 -0.000170127 -0.000158281 -0.000146117 -0.000133635 -0.000120928 -0.00010809 -9.5121e-05 -8.20206e-05 -6.91987e-05 -5.70648e-05 -4.56189e-05 -3.4861e-05 -2.53102e-05 -1.74859e-05 -1.1388e-05 -7.01654e-06 -3.9468e-06 -1.75413e-06 -4.38534e-07 0 0 4.65296e-07 1.86118e-06 4.18766e-06 7.44473e-06 1.09112e-05 1.38658e-05 1.63085e-05 1.82394e-05 1.87036e-05 1.67463e-05 1.23676e-05 5.56745e-06 -3.81984e-06 -1.59599e-05 -3.08527e-05 -4.84983e-05 -6.87727e-05 -9.15516e-05 -0.000116835 -0.000144624 -0.000174549 -0.000206246 -0.000239713 -0.000274952 -0.000311233 -0.00034783 -0.000384744 -0.000421973 -0.000458439 -0.000493063 -0.000525844 -0.000556783 -0.000584787 -0.000608763 -0.000628712 -0.000644633 -0.000656033 -0.000662422 -0.000663798 -0.000660161 -0.000652099 -0.000640199 -0.000624461 -0.000604885 -0.000583007 -0.000560363 -0.000536953 -0.000512777 -0.000489524 -0.000468882 -0.000450852 -0.000435433 -0.000423544 -0.000416101 -0.000413105 -0.000414556 -0.000420272 -0.000430072 -0.000443955 -0.000461922 -0.000483197 -0.000507004 -0.000533344 -0.000562215 -0.000593064 -0.000625336 -0.000659031 -0.000694149 -0.000730646 -0.000768477 -0.000807644 -0.000848145 -0.000889902 -0.000932836 -0.000976947 -0.00102224 -0.00106784 -0.0011129 -0.00115741 -0.00120138 -0.00124319 -0.00128125 -0.00131554 -0.00134607 -0.0013715 -0.0013905 -0.00140306 -0.00140919 -0.00140885 -0.00140201 -0.00138868 -0.00136885 -0.00134377 -0.00131468 -0.00128158 -0.00124446 -0.00120477 -0.00116393 -0.00112194 -0.00107882 -0.00103515 -0.000991534 -0.000947982 -0.000904489 -0.000860775 -0.000816559 -0.000771839 -0.000726617 -0.000680507 -0.000633125 -0.000584469 -0.00053454 -0.000483713 -0.000432361 -0.000380484 -0.000328083 -0.000276795 -0.000228259 -0.000182476 -0.000139444 -0.000101241 -6.99436e-05 -4.55521e-05 -2.80662e-05 -1.57872e-05 -7.01654e-06 -1.75413e-06 0 0 1.04692e-06 4.18766e-06 9.42224e-06 1.67506e-05 2.45501e-05 3.11979e-05 3.66941e-05 4.10386e-05 4.2083e-05 3.76792e-05 2.78272e-05 1.25268e-05 -8.59464e-06 -3.59098e-05 -6.94187e-05 -0.000109121 -0.000154738 -0.000205991 -0.000262879 -0.000325403 -0.000392736 -0.000464054 -0.000539355 -0.000618641 -0.000700274 -0.000782618 -0.000865673 -0.00094944 -0.00103149 -0.00110939 -0.00118315 -0.00125276 -0.00131577 -0.00136972 -0.0014146 -0.00145042 -0.00147608 -0.00149045 -0.00149354 -0.00148536 -0.00146722 -0.00144045 -0.00140504 -0.00136099 -0.00131177 -0.00126082 -0.00120814 -0.00115375 -0.00110143 -0.00105499 -0.00101442 -0.000979725 -0.000952974 -0.000936227 -0.000929486 -0.000932751 -0.000945612 -0.000967662 -0.000998899 -0.00103932 -0.00108719 -0.00114076 -0.00120002 -0.00126498 -0.00133439 -0.00140701 -0.00148282 -0.00156184 -0.00164395 -0.00172907 -0.0018172 -0.00190833 -0.00200228 -0.00209888 -0.00219813 -0.00230003 -0.00240264 -0.00250402 -0.00260417 -0.0027031 -0.00279718 -0.0028828 -0.00295996 -0.00302866 -0.00308588 -0.00312863 -0.00315689 -0.00317067 -0.00316991 -0.00315453 -0.00312453 -0.00307992 -0.00302349 -0.00295803 -0.00288355 -0.00280004 -0.00271073 -0.00261884 -0.00252438 -0.00242734 -0.00232908 -0.00223095 -0.00213296 -0.0020351 -0.00193674 -0.00183726 -0.00173664 -0.00163489 -0.00153114 -0.00142453 -0.00131505 -0.00120272 -0.00108835 -0.000972811 -0.000856089 -0.000738186 -0.000622789 -0.000513583 -0.00041057 -0.000313749 -0.000227792 -0.000157373 -0.000102492 -6.31488e-05 -3.55212e-05 -1.57872e-05 -3.9468e-06 0 0 1.86118e-06 7.44473e-06 1.67506e-05 2.97789e-05 4.36447e-05 5.5463e-05 6.52339e-05 7.29574e-05 7.48143e-05 6.69853e-05 4.94705e-05 2.22698e-05 -1.52794e-05 -6.38396e-05 -0.000123411 -0.000193993 -0.000275091 -0.000366207 -0.000467341 -0.000578494 -0.000698198 -0.000824984 -0.000958854 -0.00109981 -0.00124493 -0.00139132 -0.00153897 -0.00168789 -0.00183376 -0.00197225 -0.00210338 -0.00222713 -0.00233915 -0.00243505 -0.00251485 -0.00257853 -0.00262413 -0.00264969 -0.00265519 -0.00264064 -0.0026084 -0.0025608 -0.00249785 -0.00241954 -0.00233203 -0.00224145 -0.00214781 -0.00205111 -0.0019581 -0.00187553 -0.00180341 -0.00174173 -0.00169418 -0.0016644 -0.00165242 -0.00165822 -0.00168109 -0.00172029 -0.00177582 -0.00184769 -0.00193279 -0.00202802 -0.00213337 -0.00224886 -0.00237226 -0.00250134 -0.00263612 -0.0027766 -0.00292258 -0.00307391 -0.00323057 -0.00339258 -0.00355961 -0.00373134 -0.00390779 -0.00408894 -0.00427136 -0.00445159 -0.00462964 -0.00480551 -0.00497277 -0.00512498 -0.00526215 -0.00538428 -0.00548601 -0.005562 -0.00561225 -0.00563675 -0.00563539 -0.00560805 -0.00555472 -0.00547542 -0.00537509 -0.00525873 -0.00512631 -0.00497785 -0.00481907 -0.00465571 -0.00448778 -0.00431527 -0.00414058 -0.00396614 -0.00379193 -0.00361796 -0.0034431 -0.00326623 -0.00308736 -0.00290647 -0.00272203 -0.0025325 -0.00233788 -0.00213816 -0.00193485 -0.00172944 -0.00152194 -0.00131233 -0.00110718 -0.000913037 -0.000729902 -0.000557775 -0.000404964 -0.000279775 -0.000182208 -0.000112265 -6.31488e-05 -2.80662e-05 -7.01654e-06 0 0 2.63988e-06 1.05595e-05 2.37589e-05 4.22381e-05 6.14542e-05 7.68646e-05 8.84692e-05 9.62681e-05 9.45711e-05 7.76884e-05 4.56199e-05 -1.63438e-06 -6.50127e-05 -0.000145453 -0.000242956 -0.000357522 -0.000488359 -0.000634677 -0.000796475 -0.000973755 -0.00116424 -0.00136563 -0.00157795 -0.00180119 -0.00203081 -0.00226227 -0.00249557 -0.00273072 -0.00296094 -0.00317949 -0.00338636 -0.00358155 -0.00375822 -0.00390953 -0.00403547 -0.00413605 -0.00420821 -0.0042489 -0.00425813 -0.00423589 -0.00418592 -0.00411195 -0.00401399 -0.00389202 -0.00375569 -0.00361463 -0.00346882 -0.00331829 -0.00317346 -0.00304479 -0.00293227 -0.00283592 -0.00276116 -0.00271343 -0.00269275 -0.0026991 -0.00273095 -0.00278673 -0.00286645 -0.00297011 -0.00309251 -0.00322844 -0.00337792 -0.00354093 -0.00371394 -0.00389344 -0.00407941 -0.00427186 -0.0044709 -0.00467664 -0.00488906 -0.00510819 -0.0053343 -0.00556769 -0.00580837 -0.00605633 -0.0063071 -0.00655624 -0.00680373 -0.00704958 -0.00728447 -0.00749908 -0.00769341 -0.00786746 -0.00801321 -0.00812265 -0.00819577 -0.00823257 -0.00823281 -0.0081962 -0.00812277 -0.00801251 -0.00787272 -0.00771074 -0.00752655 -0.00732017 -0.00709979 -0.00687364 -0.00664171 -0.00640401 -0.00616342 -0.00592284 -0.00568227 -0.00544171 -0.00519868 -0.0049507 -0.00469778 -0.00443991 -0.00417435 -0.00389835 -0.00361192 -0.00331505 -0.00301017 -0.00269972 -0.00238368 -0.00206206 -0.00174543 -0.00144435 -0.00115882 -0.000888854 -0.000648045 -0.000450005 -0.000294734 -0.000182233 -0.000102506 -4.55583e-05 -1.13896e-05 0 0 3.11478e-06 1.24591e-05 2.80331e-05 4.98366e-05 7.12381e-05 8.56063e-05 9.29411e-05 9.32425e-05 7.90274e-05 4.28124e-05 -1.54023e-05 -9.56167e-05 -0.000198934 -0.000326455 -0.000478182 -0.000654113 -0.000853072 -0.00107388 -0.00131654 -0.00158104 -0.00186415 -0.0021626 -0.0024764 -0.00280555 -0.00314352 -0.0034838 -0.0038264 -0.0041713 -0.00450875 -0.00482896 -0.00513193 -0.00541767 -0.00567629 -0.00589789 -0.00608248 -0.00623006 -0.00633629 -0.00639686 -0.00641176 -0.00638099 -0.0063101 -0.00620462 -0.00606457 -0.00588993 -0.00569466 -0.0054927 -0.00528405 -0.00506871 -0.00486144 -0.00467703 -0.00451545 -0.00437673 -0.00426792 -0.00419612 -0.00416132 -0.00416352 -0.00419944 -0.00426577 -0.00436252 -0.00448969 -0.00463888 -0.00480171 -0.00497817 -0.00516827 -0.00536675 -0.00556838 -0.00577316 -0.00598108 -0.00619328 -0.00641091 -0.00663396 -0.00686244 -0.00709877 -0.0073454 -0.00760232 -0.00786953 -0.00814297 -0.00841858 -0.00869634 -0.00897627 -0.0092468 -0.00949639 -0.00972503 -0.00993272 -0.0101088 -0.0102426 -0.0103341 -0.0103833 -0.0103897 -0.0103526 -0.0102722 -0.0101484 -0.00999052 -0.00980806 -0.00960098 -0.00936928 -0.00912289 -0.0088717 -0.00861572 -0.00835496 -0.00809135 -0.00782681 -0.00756136 -0.007295 -0.0070223 -0.00673786 -0.00644168 -0.00613376 -0.00580928 -0.00546342 -0.00509618 -0.00470756 -0.00430129 -0.00388109 -0.00344697 -0.00299891 -0.00255299 -0.00212525 -0.00171569 -0.00132432 -0.000972325 -0.000680921 -0.000450105 -0.000279874 -0.000157429 -6.99685e-05 -1.74921e-05 0 0 3.2859e-06 1.31436e-05 2.95731e-05 5.25744e-05 7.29964e-05 8.16882e-05 7.86497e-05 6.38808e-05 2.8183e-05 -3.76427e-05 -0.000133596 -0.000259677 -0.000417042 -0.000606845 -0.000829087 -0.00108377 -0.00136923 -0.00168382 -0.00202753 -0.00240036 -0.00279794 -0.00321589 -0.00365419 -0.00411287 -0.00458306 -0.00505592 -0.00553145 -0.00600965 -0.00647717 -0.00692065 -0.00734009 -0.0077355 -0.00809335 -0.00840015 -0.00865589 -0.00886057 -0.00900839 -0.00909356 -0.00911608 -0.00907594 -0.00898093 -0.00883881 -0.00864959 -0.00841326 -0.00814892 -0.00787566 -0.00759348 -0.00730237 -0.00702206 -0.00677225 -0.00655295 -0.00636417 -0.00621447 -0.00611246 -0.00605813 -0.00605148 -0.00608656 -0.00615741 -0.00626403 -0.00640642 -0.00657191 -0.00674782 -0.00693414 -0.00713088 -0.00733068 -0.00752617 -0.00771735 -0.00790423 -0.00808972 -0.00827673 -0.00846527 -0.00865533 -0.00885302 -0.00906446 -0.00928964 -0.00952857 -0.00977898 -0.0100386 -0.0103075 -0.0105856 -0.0108598 -0.0111169 -0.011357 -0.0115801 -0.0117728 -0.0119218 -0.0120272 -0.0120889 -0.012106 -0.0120773 -0.012003 -0.011883 -0.0117285 -0.0115507 -0.0113496 -0.0111252 -0.0108884 -0.0106499 -0.0104098 -0.0101681 -0.00992437 -0.00967806 -0.00942921 -0.00917783 -0.00891397 -0.00862772 -0.00831907 -0.00798802 -0.00762682 -0.0072277 -0.00679066 -0.00631569 -0.0058082 -0.00527357 -0.00471181 -0.0041229 -0.00352987 -0.00295574 -0.0024005 -0.00186416 -0.0013778 -0.000972524 -0.000648319 -0.000405188 -0.000227918 -0.000101297 -2.53242e-05 0 0 3.15322e-06 1.26129e-05 2.8379e-05 5.04516e-05 6.67292e-05 6.51102e-05 4.55948e-05 8.18297e-06 -5.7962e-05 -0.000163677 -0.000308961 -0.000493816 -0.000719337 -0.000986623 -0.00129567 -0.00164649 -0.00203684 -0.00246449 -0.00292945 -0.00343171 -0.00396561 -0.00452549 -0.00511133 -0.00572315 -0.00634942 -0.00697861 -0.00761072 -0.00824575 -0.0088662 -0.00945457 -0.0100108 -0.010535 -0.0110094 -0.0114163 -0.0117557 -0.0120276 -0.0122245 -0.012339 -0.0123711 -0.0123207 -0.0121984 -0.0120145 -0.011769 -0.011462 -0.0111185 -0.0107635 -0.0103971 -0.0100193 -0.00965529 -0.00933046 -0.00904477 -0.00879823 -0.00860081 -0.00846246 -0.00838318 -0.00836298 -0.00839231 -0.00846164 -0.00857098 -0.00872031 -0.00889159 -0.00906676 -0.00924582 -0.00942877 -0.00960572 -0.0097668 -0.009912 -0.0100413 -0.0101602 -0.0102741 -0.010383 -0.0104869 -0.0105971 -0.0107249 -0.0108703 -0.0110334 -0.0112151 -0.0114163 -0.0116372 -0.0118775 -0.0121234 -0.0123607 -0.0125894 -0.0128095 -0.0130051 -0.0131603 -0.0132751 -0.0133494 -0.0133817 -0.0133703 -0.0133151 -0.0132164 -0.0130866 -0.0129386 -0.0127724 -0.0125879 -0.0123962 -0.0122082 -0.012024 -0.0118435 -0.0116625 -0.0114766 -0.0112858 -0.0110902 -0.0108737 -0.0106203 -0.0103299 -0.0100027 -0.00962697 -0.00919119 -0.00869535 -0.00813945 -0.00753091 -0.00687716 -0.00617819 -0.00543401 -0.00467606 -0.00393581 -0.00321325 -0.00250838 -0.00186448 -0.00132481 -0.000889377 -0.000558174 -0.000313973 -0.000139543 -3.48858e-05 0 0 2.31185e-06 9.24742e-06 2.08067e-05 3.69897e-05 4.25804e-05 2.2363e-05 -2.36627e-05 -9.54965e-05 -0.000204866 -0.0003635 -0.000571397 -0.000828558 -0.00113562 -0.00149322 -0.00190136 -0.00236004 -0.00286638 -0.00341747 -0.00401334 -0.00465397 -0.00533252 -0.00604215 -0.00678286 -0.00755464 -0.00834341 -0.00913506 -0.0099296 -0.010727 -0.0115056 -0.0122437 -0.0129413 -0.0135984 -0.014193 -0.014703 -0.0151285 -0.0154695 -0.0157169 -0.0158615 -0.0159035 -0.0158428 -0.0156929 -0.015467 -0.0151653 -0.0147878 -0.0143657 -0.0139306 -0.0134823 -0.0130209 -0.012577 -0.0121813 -0.0118339 -0.0115346 -0.0112938 -0.0111217 -0.0110182 -0.0109834 -0.0110024 -0.0110603 -0.011157 -0.0112926 -0.0114419 -0.01158 -0.0117067 -0.0118221 -0.0119134 -0.0119676 -0.0119849 -0.0119652 -0.011918 -0.0118527 -0.0117694 -0.011668 -0.0115683 -0.0114898 -0.0114326 -0.0113966 -0.0113896 -0.0114191 -0.0114851 -0.0115877 -0.0117141 -0.0118519 -0.0120009 -0.0121613 -0.0123153 -0.0124454 -0.0125514 -0.0126335 -0.0126892 -0.0127159 -0.0127136 -0.0126824 -0.0126353 -0.0125852 -0.0125322 -0.0124762 -0.012426 -0.0123903 -0.0123691 -0.0123625 -0.0123591 -0.0123474 -0.0123276 -0.0122997 -0.0122385 -0.0121191 -0.0119415 -0.0117057 -0.0113949 -0.0109922 -0.0104976 -0.00991119 -0.00924279 -0.00850225 -0.00768959 -0.00680479 -0.00588957 -0.00498562 -0.00409295 -0.00321156 -0.00239964 -0.00171542 -0.00115888 -0.000730024 -0.000410638 -0.000182506 -4.56265e-05 0 0 3.56883e-07 1.42753e-06 3.21194e-06 5.71012e-06 -9.30565e-06 -6.00631e-05 -0.000146562 -0.000268803 -0.000437988 -0.000665321 -0.000950802 -0.00129443 -0.00169569 -0.00215408 -0.00266958 -0.00324221 -0.00386834 -0.00454435 -0.00527025 -0.00604602 -0.00686403 -0.00771663 -0.00860381 -0.00952558 -0.0104658 -0.0114085 -0.0123535 -0.0133009 -0.0142252 -0.0151012 -0.0159288 -0.0167079 -0.0174127 -0.0180171 -0.0185212 -0.0189248 -0.0192178 -0.0193895 -0.0194402 -0.0193696 -0.0191946 -0.0189317 -0.0185808 -0.0181421 -0.017653 -0.0171511 -0.0166363 -0.0161086 -0.015603 -0.0151545 -0.0147632 -0.014429 -0.0141603 -0.0139657 -0.013845 -0.0137983 -0.0138026 -0.0138351 -0.0138957 -0.0139844 -0.0140669 -0.0141089 -0.0141102 -0.0140711 -0.0139751 -0.013806 -0.0135639 -0.0132488 -0.0128763 -0.0124623 -0.0120068 -0.0115098 -0.0110041 -0.0105223 -0.0100645 -0.00963076 -0.00924073 -0.0089142 -0.00865117 -0.00845163 -0.00830854 -0.00821487 -0.0081706 -0.00817575 -0.00821278 -0.00826417 -0.00832992 -0.00841003 -0.00850083 -0.00859862 -0.00870341 -0.00881521 -0.00894503 -0.0091039 -0.00929182 -0.00950879 -0.00975727 -0.0100397 -0.0103561 -0.0107065 -0.0110675 -0.0114157 -0.0117511 -0.0120738 -0.0123455 -0.0125279 -0.0126211 -0.012625 -0.0125156 -0.0122689 -0.0118848 -0.0113633 -0.0107172 -0.00995926 -0.00908946 -0.00810779 -0.00706838 -0.00602531 -0.0049786 -0.00392824 -0.00295058 -0.00212197 -0.00144242 -0.000911929 -0.00051296 -0.000227982 -5.69956e-05 0 0 -2.71169e-06 -1.08468e-05 -2.44052e-05 -4.3387e-05 -8.8929e-05 -0.000182168 -0.000323104 -0.000511736 -0.000757328 -0.00106914 -0.00144718 -0.00189143 -0.00239956 -0.00296919 -0.00360034 -0.00429299 -0.00504273 -0.00584513 -0.00670017 -0.00760787 -0.00856015 -0.00954892 -0.0105742 -0.011636 -0.0127167 -0.0137988 -0.0148823 -0.0159673 -0.017025 -0.018027 -0.0189731 -0.0198635 -0.0206685 -0.0213585 -0.0219335 -0.0223935 -0.0227271 -0.022923 -0.022981 -0.0229011 -0.0227036 -0.0224084 -0.0220156 -0.0215251 -0.0209804 -0.0204251 -0.0198591 -0.0192824 -0.0187333 -0.0182501 -0.0178328 -0.0174814 -0.0172004 -0.0169944 -0.0168635 -0.0168075 -0.0167929 -0.0167861 -0.0167871 -0.0167959 -0.0167666 -0.0166534 -0.0164565 -0.0161757 -0.0157909 -0.015282 -0.0146491 -0.013892 -0.0130351 -0.0121029 -0.0110953 -0.0100123 -0.00890447 -0.00782244 -0.00676621 -0.00573578 -0.00476848 -0.00390165 -0.00313529 -0.0024694 -0.00190663 -0.00144961 -0.00109835 -0.00085285 -0.000697509 -0.000616733 -0.000610521 -0.000678872 -0.000816583 -0.00101845 -0.00128446 -0.00161463 -0.00201576 -0.00249465 -0.00305131 -0.00368573 -0.00439006 -0.00515647 -0.00598494 -0.00687548 -0.00778773 -0.00868135 -0.00955632 -0.0104126 -0.0111947 -0.0118466 -0.0123686 -0.0127606 -0.0129893 -0.0130214 -0.0128569 -0.0124958 -0.0119542 -0.0112482 -0.0103778 -0.00934302 -0.0082125 -0.00705489 -0.0058702 -0.00465842 -0.00351727 -0.00254447 -0.00174001 -0.00110389 -0.000620939 -0.000275973 -6.89932e-05 0 0 -6.89386e-06 -2.75754e-05 -6.20448e-05 -0.000110302 -0.00019629 -0.000343951 -0.000553287 -0.000824297 -0.00116289 -0.00157496 -0.00206052 -0.00261956 -0.00324721 -0.00393856 -0.00469362 -0.00551239 -0.00638955 -0.0073198 -0.00830312 -0.00933952 -0.0104209 -0.011539 -0.012694 -0.0138858 -0.0150959 -0.0163061 -0.0175162 -0.0187262 -0.019905 -0.021021 -0.0220744 -0.0230652 -0.0239604 -0.0247272 -0.0253656 -0.0258756 -0.0262451 -0.0264618 -0.0265259 -0.0264374 -0.0262199 -0.0258973 -0.0254695 -0.0249366 -0.0243478 -0.0237525 -0.0231507 -0.0225423 -0.0219679 -0.021468 -0.0210426 -0.0206917 -0.020414 -0.020208 -0.0200737 -0.0200111 -0.0199733 -0.0199134 -0.0198312 -0.0197269 -0.0195409 -0.0192137 -0.0187454 -0.0181359 -0.0173608 -0.0163956 -0.0152403 -0.0138948 -0.0123945 -0.0107745 -0.00903478 -0.00717537 -0.00526945 -0.0033902 -0.00153762 0.000288301 0.00202716 0.00361856 0.00506252 0.00635902 0.00749162 0.00844389 0.00921581 0.00980739 0.0102305 0.0104969 0.0106068 0.0105599 0.0103635 0.0100246 0.00954321 0.00891927 0.00815249 0.00724251 0.00618935 0.004993 0.00367564 0.00225944 0.000744408 -0.000869456 -0.00251984 -0.00414441 -0.00574318 -0.00731615 -0.00878597 -0.0100753 -0.0111841 -0.0121125 -0.0128158 -0.0132496 -0.0134139 -0.0133086 -0.0129537 -0.012369 -0.0115546 -0.0105105 -0.00932193 -0.00807436 -0.00676775 -0.00540212 -0.00409974 -0.00298291 -0.00205164 -0.00130591 -0.000734573 -0.000326477 -8.16193e-05 0 0 -1.22315e-05 -4.89259e-05 -0.000110083 -0.000195704 -0.000332123 -0.000545676 -0.000836364 -0.00120419 -0.00164974 -0.00217364 -0.00277587 -0.00345644 -0.00420688 -0.0050187 -0.00589192 -0.00682652 -0.0078162 -0.00885462 -0.0099418 -0.0110777 -0.0122549 -0.0134661 -0.014711 -0.0159899 -0.0172846 -0.0185772 -0.0198678 -0.0211562 -0.0224099 -0.0235962 -0.0247151 -0.0257666 -0.0267157 -0.0275273 -0.0282015 -0.0287382 -0.0291253 -0.0293507 -0.0294143 -0.0293162 -0.029084 -0.0287455 -0.0283005 -0.0277491 -0.0271457 -0.0265447 -0.0259461 -0.0253498 -0.0247967 -0.0243273 -0.0239418 -0.02364 -0.0234114 -0.0232453 -0.0231416 -0.0231004 -0.0230576 -0.0229491 -0.022775 -0.0225351 -0.0221534 -0.0215538 -0.0207362 -0.0197005 -0.0184175 -0.0168577 -0.015021 -0.0129076 -0.0105664 -0.00804679 -0.00534861 -0.00247192 0.000481073 0.00340814 0.00630928 0.00918449 0.0119431 0.0144943 0.0168381 0.0189746 0.0208683 0.0224838 0.0238211 0.0248802 0.0256671 0.0261878 0.0264423 0.0264307 0.0261621 0.0256459 0.0248822 0.0238708 0.0226205 0.0211399 0.0194289 0.0174877 0.0153576 0.0130799 0.0106547 0.00808201 0.00545247 0.0028568 0.000295016 -0.00223289 -0.00462231 -0.00676865 -0.00867192 -0.0103321 -0.0116908 -0.0126898 -0.0133289 -0.0136082 -0.0135521 -0.0131848 -0.0125064 -0.0115169 -0.010321 -0.00902351 -0.0076244 -0.00612367 -0.00467168 -0.00341879 -0.002365 -0.0015103 -0.000849544 -0.000377575 -9.43938e-05 0 0 -1.87664e-05 -7.50657e-05 -0.000168898 -0.000300263 -0.000497164 -0.000787605 -0.00117158 -0.00164911 -0.00221298 -0.00285604 -0.00357827 -0.00437968 -0.00524679 -0.00616614 -0.00713772 -0.00816153 -0.00923008 -0.0103359 -0.0114789 -0.0126592 -0.0138712 -0.0151091 -0.0163731 -0.0176631 -0.0189637 -0.0202593 -0.0215499 -0.0228355 -0.0240845 -0.0252652 -0.0263775 -0.0274215 -0.0283618 -0.029163 -0.0298253 -0.0303485 -0.0307217 -0.0309339 -0.0309852 -0.0308755 -0.0306366 -0.0303002 -0.0298663 -0.029335 -0.0287644 -0.0282128 -0.0276802 -0.0271666 -0.0267097 -0.0263473 -0.0260795 -0.0259062 -0.025803 -0.0257453 -0.0257332 -0.0257666 -0.0257595 -0.0256257 -0.0253653 -0.0249782 -0.0243679 -0.0234378 -0.022188 -0.0206184 -0.0186939 -0.0163794 -0.0136749 -0.0105805 -0.007163 -0.00348957 0.000439852 0.00462526 0.00892721 0.0132063 0.0174625 0.0216958 0.0257761 0.0295734 0.0330875 0.0363184 0.0392057 0.0416885 0.0437669 0.0454409 0.0467083 0.0475669 0.0480166 0.0480576 0.0477016 0.0469607 0.0458349 0.0443242 0.042449 0.0402296 0.0376663 0.0347588 0.0315736 0.0281769 0.0245689 0.0207494 0.0168454 0.012984 0.00916501 0.00538857 0.00179345 -0.0014815 -0.0044363 -0.00707093 -0.00930999 -0.011078 -0.0123751 -0.0132011 -0.0135858 -0.0135587 -0.0131198 -0.0122692 -0.0111341 -0.00984218 -0.00839327 -0.00678742 -0.0052068 -0.00383359 -0.00266778 -0.00170939 -0.00096153 -0.000427347 -0.000106837 0 0 -2.64986e-05 -0.000105995 -0.000238488 -0.000423978 -0.000691413 -0.00106974 -0.00155895 -0.00215905 -0.00285261 -0.00362216 -0.00446772 -0.00538928 -0.00636696 -0.00738088 -0.00843103 -0.00951741 -0.0106312 -0.0117636 -0.0129145 -0.014084 -0.0152695 -0.0164682 -0.0176802 -0.0189055 -0.0201331 -0.0213521 -0.0225625 -0.0237643 -0.024929 -0.0260282 -0.0270618 -0.0280299 -0.0288987 -0.0296344 -0.030237 -0.0307065 -0.0310343 -0.0312117 -0.0312387 -0.0311152 -0.0308775 -0.0305614 -0.030167 -0.0296943 -0.029204 -0.0287569 -0.0283531 -0.0279924 -0.0277068 -0.0275279 -0.0274557 -0.0274903 -0.0275887 -0.0277081 -0.0278485 -0.0280098 -0.0280791 -0.0279432 -0.0276022 -0.0270562 -0.0261843 -0.0248659 -0.0231009 -0.0208894 -0.0181899 -0.0149607 -0.0112019 -0.00691346 -0.00218419 0.00289717 0.00833062 0.0141162 0.020069 0.0260043 0.031922 0.0378223 0.0435264 0.0488558 0.0538105 0.0583904 0.0625036 0.0660578 0.0690531 0.0714894 0.073354 0.0746341 0.0753297 0.0754406 0.0749821 0.0739691 0.0724015 0.0702795 0.0676379 0.0645119 0.0609013 0.0568062 0.0523236 0.0475504 0.0424868 0.0371326 0.031659 0.0262371 0.0208668 0.0155482 0.0104613 0.00578616 0.00152273 -0.00232897 -0.00567324 -0.00841438 -0.0105524 -0.0120873 -0.0130548 -0.0134906 -0.0133947 -0.0127672 -0.0117613 -0.0105303 -0.00907438 -0.00739337 -0.0057051 -0.0042273 -0.00295999 -0.00190317 -0.00107053 -0.000475792 -0.000118948 0 0 -3.54282e-05 -0.000141713 -0.000318854 -0.000566851 -0.000914869 -0.00139207 -0.00199846 -0.00273403 -0.00356861 -0.004472 -0.00544422 -0.00648525 -0.00756738 -0.00866291 -0.00977184 -0.0108942 -0.0120195 -0.0131377 -0.0142485 -0.0153522 -0.0164499 -0.0175433 -0.0186324 -0.019717 -0.0207929 -0.0218558 -0.0229056 -0.0239424 -0.0249432 -0.025885 -0.0267679 -0.0275917 -0.0283263 -0.0289413 -0.0294366 -0.0298122 -0.030063 -0.0301839 -0.0301747 -0.0300355 -0.0298068 -0.0295291 -0.0292025 -0.0288269 -0.0284644 -0.0281769 -0.0279646 -0.0278275 -0.0277881 -0.0278691 -0.0280705 -0.0283923 -0.0287686 -0.0291337 -0.0294875 -0.0298299 -0.0300163 -0.0299015 -0.0294858 -0.028769 -0.0276025 -0.0258378 -0.0234749 -0.0205137 -0.0169054 -0.0126015 -0.00760191 -0.00190658 0.00437001 0.0111134 0.0183237 0.0260008 0.0339063 0.041802 0.0496879 0.0575638 0.0651938 0.0723416 0.0790072 0.0851906 0.0907621 0.0955918 0.0996797 0.103026 0.105604 0.10739 0.108381 0.10858 0.108004 0.106671 0.104582 0.101737 0.0981874 0.0939865 0.089134 0.0836299 0.0776076 0.0712005 0.0644085 0.0572317 0.0498932 0.0426161 0.0354004 0.028246 0.0213813 0.0150343 0.00920517 0.00389379 -0.000780601 -0.00469881 -0.00786085 -0.0102667 -0.0119591 -0.0129806 -0.0133312 -0.013011 -0.0122024 -0.011088 -0.00966771 -0.00794153 -0.00616657 -0.00459993 -0.00324163 -0.00209164 -0.00117655 -0.000522911 -0.000130728 0 0 -4.52906e-05 -0.000181163 -0.000407616 -0.00072465 -0.00116054 -0.00174355 -0.00247369 -0.00335095 -0.00432952 -0.00536361 -0.0064532 -0.0075983 -0.00876149 -0.00990535 -0.0110299 -0.0121351 -0.0132088 -0.0142389 -0.0152253 -0.0161681 -0.0170744 -0.0179513 -0.0187987 -0.0196167 -0.0204108 -0.0211863 -0.0219433 -0.0226817 -0.0233878 -0.0240477 -0.0246615 -0.0252291 -0.0257267 -0.0261303 -0.02644 -0.0266557 -0.0267775 -0.0268055 -0.0267398 -0.0265803 -0.0263722 -0.0261607 -0.0259458 -0.0257275 -0.0255673 -0.0255265 -0.0256051 -0.0258031 -0.0261297 -0.026594 -0.027196 -0.0279357 -0.0287183 -0.029449 -0.0301276 -0.0307544 -0.0311465 -0.0311213 -0.0306788 -0.0298189 -0.0283611 -0.0261246 -0.0231095 -0.0193156 -0.0146866 -0.00916608 -0.00275404 0.00454954 0.0125997 0.0212513 0.0305046 0.0403594 0.0505144 0.0606685 0.0708216 0.0809736 0.0908217 0.100063 0.108697 0.116723 0.123971 0.130266 0.135609 0.139999 0.143398 0.145765 0.1471 0.147403 0.146696 0.145003 0.142323 0.138655 0.134072 0.128644 0.12237 0.115252 0.107464 0.0991782 0.0903961 0.0811173 0.0716247 0.0622011 0.0528465 0.0435609 0.0346285 0.0263335 0.018676 0.0116559 0.00541975 0.000114237 -0.00426067 -0.00770497 -0.0102691 -0.0120033 -0.0129078 -0.0129824 -0.0124422 -0.0115024 -0.0101629 -0.0084237 -0.006585 -0.00494695 -0.00350956 -0.00227282 -0.00127846 -0.000568206 -0.000142051 0 0 -5.58217e-05 -0.000223287 -0.000502395 -0.000893147 -0.00142142 -0.00211311 -0.00296819 -0.00398669 -0.00510387 -0.00625501 -0.00744011 -0.00865917 -0.00986273 -0.0110013 -0.0120749 -0.0130835 -0.0140126 -0.0148478 -0.0155891 -0.0162365 -0.0168048 -0.0173088 -0.0177484 -0.0181238 -0.0184544 -0.0187596 -0.0190395 -0.019294 -0.0195235 -0.0197284 -0.0199086 -0.0200641 -0.0201817 -0.020248 -0.0202631 -0.0202269 -0.0201472 -0.0200318 -0.0198806 -0.0196937 -0.0195212 -0.0194132 -0.0193697 -0.0193907 -0.0195344 -0.019859 -0.0203645 -0.0210508 -0.0219079 -0.0229259 -0.0241047 -0.0254443 -0.0268135 -0.0280809 -0.0292465 -0.0303104 -0.0310451 -0.0312229 -0.030844 -0.0299083 -0.0281985 -0.0254971 -0.0218042 -0.0171197 -0.0113792 -0.00451844 0.00346274 0.0125643 0.0226048 0.033403 0.0449588 0.0572722 0.0699684 0.0826726 0.0953847 0.108105 0.120453 0.132051 0.142898 0.152993 0.162119 0.170055 0.176802 0.182359 0.186673 0.189691 0.191412 0.191836 0.190991 0.188902 0.18557 0.180995 0.175266 0.168473 0.160617 0.151696 0.14193 0.131535 0.120512 0.10886 0.09693 0.0850719 0.0732858 0.0615715 0.050278 0.0397543 0.0300002 0.0210158 0.0129796 0.00607034 0.000287904 -0.00436768 -0.00795526 -0.0105337 -0.0121029 -0.012663 -0.0124652 -0.0117607 -0.0105495 -0.00883173 -0.00695418 -0.00526383 -0.00376068 -0.00244472 -0.00137516 -0.00061118 -0.000152795 0 0 -6.70212e-05 -0.000268085 -0.000603191 -0.00107234 -0.00169753 -0.00250074 -0.00348199 -0.00464126 -0.00589165 -0.00714621 -0.00840495 -0.00966786 -0.0108711 -0.0119507 -0.0129068 -0.0137393 -0.014431 -0.0149646 -0.01534 -0.0155573 -0.015641 -0.0156158 -0.0154816 -0.0152383 -0.0149238 -0.0145758 -0.0141943 -0.0137793 -0.0133503 -0.0129269 -0.012509 -0.0120967 -0.0116913 -0.0112944 -0.010906 -0.010526 -0.0101723 -0.00986266 -0.00959719 -0.00937585 -0.00925393 -0.00928674 -0.00947427 -0.00981653 -0.0103659 -0.0111746 -0.0122429 -0.0135705 -0.0151227 -0.0168647 -0.0187965 -0.020918 -0.0230541 -0.0250294 -0.0268441 -0.0284981 -0.0297121 -0.0302065 -0.0299816 -0.0290372 -0.0271146 -0.0239552 -0.019559 -0.013926 -0.0069834 0.00134139 0.0110484 0.0221377 0.0343855 0.0475684 0.0616863 0.0767392 0.0922682 0.107814 0.123377 0.138957 0.154089 0.168307 0.18161 0.194 0.205207 0.214959 0.223259 0.230104 0.23543 0.239167 0.241318 0.24188 0.240887 0.238368 0.234324 0.228755 0.221769 0.213475 0.203872 0.192961 0.181006 0.168271 0.154755 0.14046 0.125809 0.111229 0.0967183 0.0822779 0.0683299 0.0552965 0.0431777 0.0319735 0.021899 0.0131695 0.00578487 -0.000254842 -0.00501766 -0.00857162 -0.0109167 -0.0120529 -0.0122713 -0.0118629 -0.0108277 -0.00916561 -0.00727411 -0.00555057 -0.00399498 -0.00260734 -0.00146663 -0.000651834 -0.000162959 0 0 -7.88894e-05 -0.000315557 -0.000710004 -0.00126223 -0.00198884 -0.00290646 -0.00401506 -0.00531467 -0.00669286 -0.0080372 -0.00934771 -0.0106244 -0.0117866 -0.0127537 -0.0135257 -0.0141027 -0.014464 -0.014589 -0.0144779 -0.0141305 -0.0135832 -0.0128724 -0.0119981 -0.0109602 -0.00981902 -0.00863488 -0.00740775 -0.00613763 -0.00486824 -0.00364331 -0.00246284 -0.00132683 -0.000255623 0.000730444 0.00163137 0.00244715 0.00314745 0.00370192 0.00411056 0.00437337 0.00442965 0.00421869 0.00374049 0.00299506 0.00193844 0.000526682 -0.00124022 -0.00336226 -0.00577412 -0.00841051 -0.0112714 -0.0143568 -0.0174401 -0.0202947 -0.0229204 -0.0253175 -0.0271474 -0.0280721 -0.0280914 -0.0272054 -0.0251095 -0.021499 -0.016374 -0.00973443 -0.00149906 0.00841341 0.020003 0.0332696 0.0479417 0.0637476 0.0806872 0.0987605 0.117414 0.136093 0.154799 0.173531 0.191728 0.208829 0.224835 0.239744 0.253234 0.264979 0.27498 0.283236 0.289668 0.294195 0.296818 0.297535 0.296384 0.293401 0.288585 0.281936 0.273582 0.263649 0.252138 0.239048 0.224692 0.209385 0.193127 0.175916 0.158262 0.140671 0.123144 0.10568 0.0887842 0.0729604 0.0582087 0.0445291 0.032178 0.0214117 0.0122302 0.00463355 -0.00145626 -0.00611715 -0.00934912 -0.0111522 -0.0118607 -0.011809 -0.0109973 -0.00942533 -0.00754479 -0.00580717 -0.00421246 -0.00276067 -0.00155288 -0.000690167 -0.000172542 0 0 -9.10616e-05 -0.000364246 -0.000819554 -0.00145699 -0.00228595 -0.00331584 -0.00454666 -0.00597842 -0.00746966 -0.00887893 -0.0102062 -0.0114516 -0.0125147 -0.0132955 -0.013794 -0.01401 -0.0139192 -0.0134968 -0.012743 -0.0116576 -0.0102914 -0.00869504 -0.00686859 -0.00481201 -0.00261363 -0.000361778 0.00194354 0.0043023