<?xml version="1.0"?> 
<VTKFile type="StructuredGrid" version="0.1"> 
<StructuredGrid WholeExtent="0 128 0 128 0 0"> 
<Piece Extent="0 128 0 128 0 0"> 
<PointData>
<DataArray type="Float32" Name="u" format="ascii" NumberOfComponents="1"> 
0 0 0 0 0 0 0 0 0 0 0 0 0 0 0 0 0 0 0 0 0 0 0 0 0 0 0 0 0 0 0 0 0 0 0 0 0 0 0 0 0 0 0 0 0 0 0 0 0 0 0 0 0 0 0 0 0 0 0 0 0 0 0 0 0 0 0 0 0 0 0 0 0 0 0 0 0 0 0 0 0 0 0 0 0 0 0 0 0 0 0 0 0 0 0 0 0 0 0 0 0 0 0 0 0 0 0 0 0 0 0 0 0 0 0 0 0 0 0 0 0 0 0 0 0 0 0 0 0 0 9.64449e-08 3.8578e-07 8.68004e-07 1.54312e-06 2.22543e-06 2.72925e-06 3.05457e-06 3.2014e-06 2.95583e-06 2.10395e-06 6.45753e-07 -1.41875e-06 -4.12302e-06 -7.50051e-06 -1.15512e-05 -1.62751e-05 -2.16439e-05 -2.7629e-05 -3.42306e-05 -4.14486e-05 -4.91921e-05 -5.73703e-05 -6.59831e-05 -7.50306e-05 -8.43267e-05 -9.36852e-05 -0.000103106 -0.000112589 -0.000121862 -0.000130652 -0.000138959 -0.000146782 -0.000153854 -0.000159907 -0.000164941 -0.000168956 -0.000171839 -0.000173479 -0.000173875 -0.000173027 -0.000171087 -0.000168205 -0.000164382 -0.000159617 -0.000154283 -0.000148753 -0.000143028 -0.000137106 -0.000131388 -0.000126276 -0.000121769 -0.000117868 -0.000114785 -0.000112733 -0.000111714 -0.000111726 -0.000112723 -0.000114658 -0.00011753 -0.000121339 -0.000125898 -0.000131018 -0.000136698 -0.000142939 -0.000149601 -0.000156545 -0.000163772 -0.00017128 -0.000179055 -0.00018708 -0.000195355 -0.000203881 -0.000212649 -0.000221654 -0.000230894 -0.00024037 -0.000249914 -0.00025936 -0.000268708 -0.000277957 -0.000286776 -0.000294833 -0.000302127 -0.00030866 -0.000314145 -0.000318296 -0.000321113 -0.000322597 -0.00032273 -0.000321497 -0.000318898 -0.000314932 -0.000309852 -0.000303907 -0.000297097 -0.000289424 -0.000281176 -0.000272643 -0.000263826 -0.000254723 -0.000245446 -0.000236103 -0.000226694 -0.000217219 -0.000207599 -0.000197753 -0.000187681 -0.000177384 -0.000166768 -0.000155738 -0.000144296 -0.00013244 -0.000120266 -0.00010787 -9.52517e-05 -8.24106e-05 -6.97651e-05 -5.7733e-05 -4.63143e-05 -3.55091e-05 -2.58694e-05 -1.79474e-05 -1.17429e-05 -7.25607e-06 -4.08154e-06 -1.81402e-06 -4.53504e-07 0 0 3.8578e-07 1.54312e-06 3.47202e-06 6.17247e-06 8.90172e-06 1.0917e-05 1.22183e-05 1.28056e-05 1.18233e-05 8.41579e-06 2.58301e-06 -5.67501e-06 -1.64921e-05 -3.00021e-05 -4.62049e-05 -6.51006e-05 -8.65755e-05 -0.000110516 -0.000136922 -0.000165794 -0.000196768 -0.000229481 -0.000263933 -0.000300122 -0.000337307 -0.000374741 -0.000412424 -0.000450358 -0.00048745 -0.000522609 -0.000555835 -0.000587128 -0.000615416 -0.000639628 -0.000659764 -0.000675823 -0.000687356 -0.000693915 -0.000695499 -0.000692109 -0.000684348 -0.000672821 -0.000657527 -0.000638468 -0.000617133 -0.000595014 -0.00057211 -0.000548422 -0.000525553 -0.000505105 -0.000487077 -0.000471471 -0.000459139 -0.000450934 -0.000446856 -0.000446905 -0.000450892 -0.00045863 -0.000470119 -0.000485357 -0.000503592 -0.00052407 -0.000546791 -0.000571754 -0.000598403 -0.000626181 -0.000655087 -0.000685121 -0.00071622 -0.00074832 -0.000781421 -0.000815523 -0.000850597 -0.000886615 -0.000923575 -0.000961478 -0.000999656 -0.00103744 -0.00107483 -0.00111183 -0.0011471 -0.00117933 -0.00120851 -0.00123464 -0.00125658 -0.00127318 -0.00128445 -0.00129039 -0.00129092 -0.00128599 -0.00127559 -0.00125973 -0.00123941 -0.00121563 -0.00118839 -0.0011577 -0.0011247 -0.00109057 -0.0010553 -0.00101889 -0.000981784 -0.000944411 -0.000906775 -0.000868876 -0.000830395 -0.000791011 -0.000750725 -0.000709537 -0.000667071 -0.000622953 -0.000577182 -0.000529759 -0.000481065 -0.000431481 -0.000381007 -0.000329642 -0.00027906 -0.000230932 -0.000185257 -0.000142036 -0.000103478 -7.17895e-05 -4.69716e-05 -2.90243e-05 -1.63262e-05 -7.25607e-06 -1.81402e-06 0 0 8.68004e-07 3.47202e-06 7.81204e-06 1.38881e-05 2.00289e-05 2.45632e-05 2.74912e-05 2.88126e-05 2.66025e-05 1.89355e-05 5.81178e-06 -1.27688e-05 -3.71072e-05 -6.75046e-05 -0.000103961 -0.000146476 -0.000194795 -0.000248661 -0.000308076 -0.000373037 -0.000442729 -0.000516333 -0.000593848 -0.000675276 -0.00075894 -0.000843166 -0.000927955 -0.00101331 -0.00109676 -0.00117587 -0.00125063 -0.00132104 -0.00138469 -0.00143916 -0.00148447 -0.0015206 -0.00154655 -0.00156131 -0.00156487 -0.00155725 -0.00153978 -0.00151385 -0.00147944 -0.00143655 -0.00138855 -0.00133878 -0.00128725 -0.00123395 -0.00118249 -0.00113649 -0.00109592 -0.00106081 -0.00103306 -0.0010146 -0.00100543 -0.00100554 -0.00101451 -0.00103192 -0.00105777 -0.00109205 -0.00113308 -0.00117916 -0.00123028 -0.00128645 -0.00134641 -0.00140891 -0.00147394 -0.00154152 -0.0016115 -0.00168372 -0.0017582 -0.00183493 -0.00191384 -0.00199488 -0.00207804 -0.00216333 -0.00224923 -0.00233424 -0.00241837 -0.00250161 -0.00258098 -0.00265349 -0.00271915 -0.00277794 -0.00282731 -0.00286467 -0.00289002 -0.00290337 -0.00290457 -0.00289347 -0.00287008 -0.00283439 -0.00278866 -0.00273516 -0.00267388 -0.00260481 -0.00253058 -0.00245379 -0.00237443 -0.00229251 -0.00220901 -0.00212492 -0.00204024 -0.00195497 -0.00186839 -0.00177977 -0.00168913 -0.00159646 -0.00150091 -0.00140164 -0.00129866 -0.00119196 -0.0010824 -0.000970832 -0.000857265 -0.000741696 -0.000627886 -0.000519597 -0.000416829 -0.000319582 -0.000232825 -0.000161526 -0.000105686 -6.53046e-05 -3.67339e-05 -1.63262e-05 -4.08154e-06 0 0 1.54312e-06 6.17247e-06 1.38881e-05 2.46899e-05 3.56069e-05 4.3668e-05 4.88732e-05 5.12225e-05 4.72933e-05 3.36632e-05 1.03321e-05 -2.27001e-05 -6.59684e-05 -0.000120008 -0.00018482 -0.000260402 -0.000346302 -0.000442065 -0.00054769 -0.000663178 -0.000787074 -0.000917925 -0.00105573 -0.00120049 -0.00134923 -0.00149896 -0.0016497 -0.00180143 -0.0019498 -0.00209044 -0.00222334 -0.00234851 -0.00246166 -0.00255851 -0.00263905 -0.00270329 -0.00274943 -0.00277566 -0.002782 -0.00276844 -0.00273739 -0.00269128 -0.00263011 -0.00255387 -0.00246853 -0.00238006 -0.00228844 -0.00219369 -0.00210221 -0.00202042 -0.00194831 -0.00188588 -0.00183656 -0.00180374 -0.00178742 -0.00178762 -0.00180357 -0.00183452 -0.00188047 -0.00194143 -0.00201437 -0.00209628 -0.00218716 -0.00228702 -0.00239361 -0.00250472 -0.00262035 -0.00274048 -0.00286488 -0.00299328 -0.00312569 -0.00326209 -0.00340239 -0.00354646 -0.0036943 -0.00384591 -0.00399862 -0.00414976 -0.00429932 -0.00444731 -0.00458841 -0.00471732 -0.00483404 -0.00493856 -0.00502632 -0.00509274 -0.00513782 -0.00516155 -0.00516368 -0.00514395 -0.00510237 -0.00503892 -0.00495763 -0.00486251 -0.00475356 -0.00463078 -0.00449881 -0.00436229 -0.00422121 -0.00407557 -0.00392713 -0.00377764 -0.0036271 -0.0034755 -0.00332158 -0.00316404 -0.0030029 -0.00283815 -0.00266828 -0.00249181 -0.00230873 -0.00211904 -0.00192426 -0.00172592 -0.00152403 -0.00131857 -0.00111624 -0.000923727 -0.000741029 -0.000568146 -0.000413911 -0.000287158 -0.000187887 -0.000116097 -6.53046e-05 -2.90243e-05 -7.25607e-06 0 0 2.14179e-06 8.56716e-06 1.92761e-05 3.42686e-05 4.88845e-05 5.84633e-05 6.30051e-05 6.25099e-05 5.19045e-05 2.61156e-05 -1.48567e-05 -7.10125e-05 -0.000143092 -0.000231835 -0.000337242 -0.000459313 -0.000597318 -0.000750527 -0.00091894 -0.00110256 -0.00129912 -0.00150636 -0.00172429 -0.0019529 -0.00218756 -0.00242363 -0.0026611 -0.00289998 -0.00313346 -0.00335471 -0.00356374 -0.00376055 -0.00393844 -0.00409073 -0.00421743 -0.00431852 -0.00439124 -0.00443282 -0.00444326 -0.00442256 -0.00437456 -0.00430309 -0.00420814 -0.00408972 -0.00395715 -0.00381977 -0.00367756 -0.00353053 -0.00338857 -0.00326157 -0.00314953 -0.00305244 -0.00297535 -0.00292328 -0.00289623 -0.00289421 -0.00291563 -0.00295891 -0.00302406 -0.00311107 -0.0032149 -0.00333047 -0.0034578 -0.00359689 -0.00374417 -0.00389611 -0.00405269 -0.00421392 -0.00437975 -0.00455016 -0.00472513 -0.00490467 -0.00508935 -0.00527978 -0.00547594 -0.00567783 -0.00588221 -0.00608582 -0.00628866 -0.00649074 -0.00668452 -0.00686246 -0.00702456 -0.00717083 -0.00729449 -0.00738876 -0.00745365 -0.00748915 -0.00749479 -0.0074701 -0.00741508 -0.00732972 -0.00721983 -0.00709122 -0.00694387 -0.00677781 -0.00659948 -0.00641536 -0.00622546 -0.00602976 -0.00583014 -0.00562846 -0.0054247 -0.00521889 -0.00500831 -0.00479027 -0.00456477 -0.00433181 -0.00408873 -0.00383289 -0.00356428 -0.00328291 -0.00299125 -0.0026918 -0.00238455 -0.00206951 -0.00175745 -0.00145912 -0.00117452 -0.000903669 -0.000660941 -0.000460728 -0.00030303 -0.000187848 -0.000105665 -4.69621e-05 -1.17405e-05 0 0 2.39469e-06 9.57875e-06 2.15522e-05 3.8315e-05 5.31103e-05 5.91812e-05 5.65277e-05 4.51497e-05 1.84447e-05 -3.01902e-05 -0.000100755 -0.00019325 -0.000308494 -0.000447307 -0.00060969 -0.000795642 -0.00100406 -0.00123385 -0.001485 -0.00175752 -0.00204818 -0.00235375 -0.00267424 -0.00300965 -0.00335333 -0.00369865 -0.00404561 -0.00439421 -0.00473465 -0.00505711 -0.00536162 -0.00564815 -0.00590711 -0.00612889 -0.00631349 -0.0064609 -0.00656724 -0.00662863 -0.00664505 -0.00661651 -0.00654868 -0.00644721 -0.00631212 -0.00614339 -0.00595449 -0.00575885 -0.00555647 -0.00534737 -0.00514545 -0.00496462 -0.00480488 -0.00466624 -0.00455518 -0.00447817 -0.00443524 -0.00442636 -0.00444824 -0.00449757 -0.00457435 -0.00467858 -0.0048021 -0.00493676 -0.00508255 -0.00523948 -0.00540224 -0.00556554 -0.00572937 -0.00589374 -0.00605949 -0.00622751 -0.00639777 -0.00657029 -0.00674786 -0.00693328 -0.00712655 -0.00732767 -0.00753434 -0.00774424 -0.00795737 -0.00817373 -0.00838442 -0.00858054 -0.00876209 -0.00892906 -0.00907265 -0.00918408 -0.00926332 -0.0093104 -0.00932444 -0.00930458 -0.00925084 -0.0091632 -0.00904882 -0.00891484 -0.00876127 -0.0085881 -0.00840267 -0.0082123 -0.008017 -0.00781676 -0.00761203 -0.00740325 -0.00719042 -0.00697353 -0.00674691 -0.00650489 -0.00624747 -0.00597464 -0.0056818 -0.00536432 -0.00502221 -0.00465547 -0.00426795 -0.00386349 -0.0034421 -0.00300377 -0.00256482 -0.00214155 -0.00173398 -0.00134209 -0.000988119 -0.000694279 -0.000460575 -0.000287005 -0.00016144 -7.17512e-05 -1.79378e-05 0 0 2.30181e-06 9.20724e-06 2.07163e-05 3.6829e-05 4.82844e-05 4.58217e-05 2.94409e-05 -8.58006e-07 -5.30861e-05 -0.000135254 -0.000247363 -0.000389412 -0.000562174 -0.000766425 -0.00100216 -0.00126939 -0.00156654 -0.00189203 -0.00224587 -0.00262806 -0.00303426 -0.0034601 -0.00390559 -0.00437073 -0.00484654 -0.00532404 -0.00580323 -0.00628411 -0.00675335 -0.00719763 -0.00761696 -0.00801132 -0.00836767 -0.00867298 -0.00892724 -0.00913044 -0.00927745 -0.00936309 -0.00938736 -0.00935028 -0.00925974 -0.00912367 -0.00894205 -0.00871489 -0.00846053 -0.00819729 -0.00792519 -0.0076442 -0.00737283 -0.00712955 -0.00691436 -0.00672727 -0.00657603 -0.00646842 -0.00640443 -0.00638407 -0.0064014 -0.00645049 -0.00653134 -0.00664395 -0.00677599 -0.00691515 -0.00706142 -0.0072148 -0.00736782 -0.00751302 -0.00765039 -0.00777994 -0.0079041 -0.00802533 -0.00814361 -0.00825896 -0.00837791 -0.00850697 -0.00864614 -0.00879544 -0.00895501 -0.00912501 -0.00930543 -0.00949628 -0.00968813 -0.00987158 -0.0100466 -0.0102133 -0.0103608 -0.0104787 -0.0105668 -0.0106253 -0.0106526 -0.0106474 -0.0106097 -0.0105394 -0.0104446 -0.0103334 -0.0102057 -0.0100617 -0.00990837 -0.00975309 -0.00959582 -0.00943657 -0.00927281 -0.00910203 -0.00892424 -0.00873942 -0.00853739 -0.00830791 -0.008051 -0.00776664 -0.00744747 -0.0070861 -0.00668252 -0.00623674 -0.00575437 -0.00524101 -0.00469667 -0.00412134 -0.00353836 -0.00297104 -0.0024194 -0.00188342 -0.00139545 -0.000987813 -0.00066052 -0.000413567 -0.000232631 -0.000103392 -2.58479e-05 0 0 1.86316e-06 7.45263e-06 1.67684e-05 2.98105e-05 3.44067e-05 1.83848e-05 -1.82552e-05 -7.55133e-05 -0.000162688 -0.000289077 -0.00045468 -0.000659498 -0.000904134 -0.00118919 -0.00151466 -0.00188056 -0.00228474 -0.00272507 -0.00320155 -0.00371419 -0.00425735 -0.00482539 -0.00541833 -0.00603615 -0.00666719 -0.00729979 -0.00793396 -0.00856968 -0.00918958 -0.00977628 -0.0103298 -0.01085 -0.0113201 -0.011723 -0.0120587 -0.0123271 -0.0125218 -0.0126362 -0.0126702 -0.0126239 -0.0125078 -0.0123324 -0.0120979 -0.0118042 -0.0114753 -0.0111351 -0.0107837 -0.010421 -0.0100707 -0.00975638 -0.00947798 -0.00923553 -0.00903792 -0.00889402 -0.00880383 -0.00876734 -0.00877511 -0.00881767 -0.00889503 -0.00900717 -0.00913656 -0.00926564 -0.0093944 -0.00952284 -0.00964091 -0.00973855 -0.00981575 -0.00987252 -0.00991357 -0.00994362 -0.00996266 -0.00997069 -0.00997949 -0.0100008 -0.0100347 -0.0100811 -0.0101442 -0.0102281 -0.0103329 -0.0104584 -0.0105956 -0.0107356 -0.0108782 -0.0110234 -0.011159 -0.0112726 -0.0113642 -0.0114338 -0.0114793 -0.0114986 -0.0114915 -0.0114582 -0.0114072 -0.0113468 -0.0112773 -0.0111985 -0.0111166 -0.0110377 -0.0109619 -0.0108892 -0.0108125 -0.0107248 -0.0106262 -0.0105166 -0.0103797 -0.0101993 -0.00997536 -0.00970782 -0.00938576 -0.00899823 -0.00854521 -0.00802671 -0.00745051 -0.00682436 -0.00614826 -0.00542223 -0.00467807 -0.00394758 -0.00323077 -0.00252764 -0.00188292 -0.00134133 -0.000902866 -0.000567534 -0.000319238 -0.000141884 -3.54709e-05 0 0 7.1455e-07 2.8582e-06 6.43095e-06 1.14328e-05 2.6402e-06 -3.51704e-05 -0.000101999 -0.000197846 -0.000332539 -0.000515907 -0.000747951 -0.00102867 -0.00135809 -0.00173624 -0.00216312 -0.00263873 -0.00316027 -0.00372496 -0.00433279 -0.00498377 -0.00567107 -0.00638788 -0.00713419 -0.00791001 -0.00870112 -0.00949327 -0.0102865 -0.0110807 -0.0118546 -0.0125867 -0.013277 -0.0139255 -0.0145113 -0.0150132 -0.0154315 -0.015766 -0.0160088 -0.0161521 -0.016196 -0.0161403 -0.0159986 -0.0157845 -0.0154981 -0.0151391 -0.0147377 -0.0143235 -0.0138967 -0.0134571 -0.0130333 -0.0126537 -0.0123181 -0.0120268 -0.0117884 -0.0116119 -0.0114973 -0.0114446 -0.011439 -0.0114659 -0.0115253 -0.0116171 -0.011717 -0.0118006 -0.0118679 -0.0119188 -0.0119404 -0.0119194 -0.0118559 -0.0117499 -0.0116098 -0.0114438 -0.0112522 -0.0110347 -0.0108116 -0.0106028 -0.0104084 -0.0102284 -0.0100743 -0.00995776 -0.00987875 -0.00983727 -0.00982715 -0.0098422 -0.00988244 -0.00994785 -0.0100255 -0.0101025 -0.0101788 -0.0102544 -0.0103262 -0.0103911 -0.0104491 -0.0105003 -0.0105521 -0.0106121 -0.0106804 -0.0107569 -0.0108442 -0.0109448 -0.0110586 -0.0111857 -0.0113114 -0.0114209 -0.0115142 -0.0115914 -0.0116272 -0.0115964 -0.011499 -0.011335 -0.0110886 -0.0107438 -0.0103008 -0.00975948 -0.00913024 -0.00842345 -0.00763913 -0.00677727 -0.00587994 -0.0049892 -0.00410505 -0.00322749 -0.00241629 -0.00173122 -0.00117228 -0.000739478 -0.000415956 -0.000184869 -4.62173e-05 0 0 -1.50819e-06 -6.03277e-06 -1.35737e-05 -2.41311e-05 -5.58523e-05 -0.000126885 -0.000237229 -0.000386884 -0.000584817 -0.000839995 -0.00115242 -0.00152208 -0.00194776 -0.00242822 -0.00296347 -0.00355349 -0.00419475 -0.0048837 -0.00562033 -0.00640466 -0.00722902 -0.00808578 -0.00897492 -0.00989645 -0.0108342 -0.0117718 -0.0127095 -0.0136471 -0.0145598 -0.0154227 -0.0162357 -0.016999 -0.0176879 -0.018278 -0.0187693 -0.0191618 -0.0194466 -0.019615 -0.019667 -0.0196025 -0.0194382 -0.019191 -0.0188607 -0.0184475 -0.0179866 -0.0175138 -0.0170288 -0.0165318 -0.0160548 -0.01563 -0.0152572 -0.0149366 -0.014675 -0.014479 -0.0143487 -0.0142842 -0.0142628 -0.0142621 -0.014282 -0.0143226 -0.0143505 -0.0143324 -0.0142682 -0.014158 -0.0139851 -0.0137329 -0.0134014 -0.0129905 -0.0125145 -0.0119874 -0.0114094 -0.0107804 -0.0101333 -0.00950098 -0.00888352 -0.0082809 -0.00771757 -0.007218 -0.0067822 -0.00641015 -0.00610282 -0.00586117 -0.00568518 -0.00557486 -0.00551864 -0.00550497 -0.00553382 -0.00560522 -0.00571476 -0.00585808 -0.00603516 -0.00624601 -0.0064949 -0.00678607 -0.00711954 -0.0074953 -0.00790812 -0.00835274 -0.00882916 -0.00933739 -0.00985005 -0.0103397 -0.0108065 -0.0112503 -0.0116329 -0.0119162 -0.0121002 -0.0121849 -0.0121477 -0.011966 -0.0116398 -0.0111691 -0.0105674 -0.00984824 -0.00901153 -0.00805732 -0.00703999 -0.00601394 -0.00497916 -0.00393566 -0.00296128 -0.00213388 -0.00145344 -0.000919968 -0.000517482 -0.000229992 -5.7498e-05 0 0 -4.80507e-06 -1.92203e-05 -4.32456e-05 -7.68811e-05 -0.000141071 -0.000256759 -0.000423944 -0.000642629 -0.000919523 -0.00126134 -0.00166808 -0.00213974 -0.00267315 -0.00326514 -0.0039157 -0.00462484 -0.00538816 -0.00620127 -0.00706417 -0.00797686 -0.00893121 -0.0099191 -0.0109405 -0.0119955 -0.0130663 -0.0141355 -0.015203 -0.0162688 -0.0173051 -0.0182841 -0.0192059 -0.0200704 -0.02085 -0.0215173 -0.0220722 -0.0225147 -0.0228354 -0.0230249 -0.0230833 -0.0230105 -0.0228266 -0.0225518 -0.0221859 -0.0217291 -0.0212222 -0.0207058 -0.0201801 -0.019645 -0.0191352 -0.0186853 -0.0182953 -0.0179652 -0.0176976 -0.0174953 -0.0173581 -0.0172862 -0.0172465 -0.0172062 -0.0171653 -0.0171237 -0.0170371 -0.016861 -0.0165954 -0.0162403 -0.0157751 -0.015179 -0.0144521 -0.0135943 -0.0126277 -0.0115744 -0.0104344 -0.00920762 -0.00794444 -0.00669522 -0.00545994 -0.00423861 -0.00307399 -0.00200886 -0.00104321 -0.000177039 0.00057732 0.00120754 0.00171361 0.00209555 0.00236158 0.00251993 0.00257061 0.00251362 0.00235493 0.00210051 0.00175038 0.00130452 0.000764352 0.000131272 -0.000594719 -0.00141362 -0.00230829 -0.0032616 -0.00427355 -0.00534414 -0.00642839 -0.00748131 -0.00850291 -0.00949318 -0.0103969 -0.0111589 -0.0117792 -0.0122577 -0.0125633 -0.0126649 -0.0125623 -0.0122557 -0.0117621 -0.0110987 -0.0102655 -0.00926235 -0.00815821 -0.00702179 -0.00585311 -0.00465217 -0.00351791 -0.0025493 -0.00174633 -0.00110901 -0.000623816 -0.000277251 -6.93129e-05 0 0 -9.17608e-06 -3.67043e-05 -8.25847e-05 -0.000146817 -0.000253015 -0.000424791 -0.000662146 -0.000965079 -0.00133666 -0.00177994 -0.00229494 -0.00288164 -0.00353426 -0.00424699 -0.00501983 -0.00585278 -0.00674051 -0.00767769 -0.00866431 -0.00970038 -0.0107776 -0.0118878 -0.013031 -0.014207 -0.0153976 -0.0165842 -0.017767 -0.0189457 -0.0200905 -0.021171 -0.0221875 -0.0231397 -0.0239977 -0.0247311 -0.0253401 -0.0258246 -0.026175 -0.0263818 -0.0264449 -0.0263643 -0.0261638 -0.0258669 -0.0254737 -0.0249842 -0.0244443 -0.0238997 -0.0233505 -0.0227968 -0.0222744 -0.0218196 -0.0214323 -0.0211124 -0.0208564 -0.0206608 -0.0205255 -0.0204506 -0.0203901 -0.0202982 -0.020175 -0.0200204 -0.0197767 -0.0193864 -0.0188495 -0.0181659 -0.0173104 -0.0162578 -0.0150081 -0.0135614 -0.0119496 -0.0102048 -0.00832711 -0.00631645 -0.00424515 -0.00218557 -0.000137705 0.00189845 0.00385641 0.00566966 0.00733822 0.00886207 0.0102133 0.0113639 0.0123139 0.0130634 0.0136152 0.0139722 0.0141345 0.0141021 0.0138829 0.0134847 0.0129075 0.0121513 0.0112257 0.0101399 0.00889407 0.00748813 0.00595526 0.00432861 0.0026082 0.000794013 -0.00104643 -0.0028456 -0.00460351 -0.00632016 -0.00791924 -0.00932445 -0.0105358 -0.0115533 -0.0123353 -0.0128403 -0.0130682 -0.0130192 -0.0127143 -0.0121749 -0.0114009 -0.0103924 -0.00923459 -0.00801276 -0.0067269 -0.00537701 -0.00408617 -0.00297749 -0.00205096 -0.00130659 -0.000734957 -0.000326648 -8.16619e-05 0 0 -1.46378e-05 -5.8551e-05 -0.00013174 -0.000234204 -0.0003918 -0.000630384 -0.000949956 -0.00135052 -0.0018296 -0.00238473 -0.00301593 -0.00372318 -0.00449703 -0.00532803 -0.00621618 -0.00716147 -0.00815748 -0.0091978 -0.0102824 -0.0114113 -0.0125769 -0.0137714 -0.0149948 -0.0162472 -0.0175106 -0.0187671 -0.0200166 -0.0212591 -0.0224637 -0.0235994 -0.0246662 -0.0256641 -0.0265616 -0.0273271 -0.0279607 -0.0284623 -0.028823 -0.0290337 -0.0290946 -0.0290055 -0.028794 -0.0284874 -0.0280858 -0.0275891 -0.0270475 -0.0265108 -0.0259792 -0.0254527 -0.0249665 -0.0245559 -0.0242209 -0.0239614 -0.0237645 -0.0236171 -0.023519 -0.0234704 -0.0234087 -0.0232717 -0.0230592 -0.0227714 -0.0223343 -0.0216745 -0.0207918 -0.0196863 -0.0183276 -0.0166853 -0.0147595 -0.0125501 -0.0101021 -0.00746053 -0.00462529 -0.00159643 0.00152554 0.00464008 0.0077472 0.0108469 0.0138418 0.0166345 0.019225 0.0216133 0.0237507 0.0255882 0.0271259 0.0283637 0.0292971 0.0299215 0.0302367 0.030243 0.0299503 0.0293688 0.0284985 0.0273394 0.0259117 0.0242352 0.0223102 0.0201365 0.0177683 0.0152598 0.0126109 0.00982161 0.00698835 0.00420749 0.00147904 -0.001197 -0.00371786 -0.00598075 -0.00798567 -0.00973263 -0.0111672 -0.0122349 -0.0129359 -0.01327 -0.0132634 -0.012942 -0.012306 -0.0113553 -0.0101942 -0.00892704 -0.00755383 -0.00607457 -0.00463975 -0.00339988 -0.00235496 -0.00150499 -0.000846557 -0.000376248 -9.40619e-05 0 0 -2.12066e-05 -8.48265e-05 -0.00019086 -0.000339306 -0.00055754 -0.000872936 -0.00128549 -0.00179521 -0.00239172 -0.00306465 -0.00381399 -0.00463975 -0.00552743 -0.00646254 -0.00744508 -0.00847506 -0.00954476 -0.0106465 -0.0117802 -0.0129459 -0.0141376 -0.0153492 -0.0165807 -0.0178321 -0.019088 -0.020333 -0.021567 -0.02279 -0.0239726 -0.0250852 -0.0261279 -0.0271006 -0.0279726 -0.0287129 -0.0293215 -0.0297984 -0.0301366 -0.0303288 -0.0303752 -0.0302758 -0.0300618 -0.0297645 -0.0293841 -0.0289204 -0.0284263 -0.0279546 -0.0275053 -0.0270784 -0.0267052 -0.026417 -0.0262138 -0.0260955 -0.0260351 -0.0260055 -0.0260067 -0.0260387 -0.0260178 -0.0258603 -0.0255662 -0.0251355 -0.0244749 -0.023491 -0.0221838 -0.0205534 -0.0185635 -0.0161778 -0.0133963 -0.0102191 -0.00670767 -0.00292352 0.00113333 0.00546288 0.00992858 0.0143939 0.0188588 0.0233233 0.0276502 0.0317025 0.03548 0.0389829 0.0421351 0.0448606 0.0471595 0.0490316 0.0504625 0.0514373 0.051956 0.0520188 0.0516383 0.0508273 0.0495858 0.0479138 0.0458448 0.0434126 0.040617 0.0374581 0.0340168 0.0303739 0.0265293 0.0224832 0.0183684 0.0143181 0.0103321 0.00641045 0.00268918 -0.000695785 -0.00374444 -0.00645679 -0.00876256 -0.0105915 -0.0119435 -0.0128187 -0.0132488 -0.0132656 -0.0128689 -0.0120589 -0.010962 -0.00970481 -0.00828721 -0.00670924 -0.00515234 -0.0037979 -0.00264595 -0.00169647 -0.000954267 -0.000424119 -0.00010603 0 0 -2.88827e-05 -0.000115531 -0.000259944 -0.000462123 -0.000750235 -0.00115245 -0.00166876 -0.00229918 -0.00302304 -0.00381968 -0.00468912 -0.00563134 -0.00662544 -0.00765051 -0.00870655 -0.00979356 -0.0109023 -0.0120237 -0.0131576 -0.014304 -0.0154597 -0.0166212 -0.0177885 -0.0189617 -0.0201298 -0.021282 -0.0224182 -0.0235384 -0.024617 -0.0256284 -0.0265724 -0.0274493 -0.0282307 -0.0288884 -0.0294225 -0.029833 -0.0301158 -0.0302671 -0.0302869 -0.030175 -0.029967 -0.0296982 -0.0293685 -0.028978 -0.0285808 -0.0282311 -0.0279288 -0.0276739 -0.0274907 -0.027403 -0.027411 -0.0275146 -0.0276682 -0.0278262 -0.0279887 -0.0281556 -0.0282172 -0.028064 -0.0276958 -0.0271128 -0.0261983 -0.0248358 -0.0230255 -0.0207672 -0.018018 -0.0147352 -0.0109186 -0.00656836 -0.00176616 0.00340621 0.00894876 0.0148615 0.020964 0.0270758 0.033197 0.0393276 0.0452817 0.0508737 0.0561033 0.0609708 0.0653666 0.0691813 0.0724148 0.0750672 0.0771112 0.0785196 0.0792924 0.0794296 0.0789469 0.0778601 0.0761693 0.0738743 0.0710252 0.067672 0.0638146 0.059453 0.0547006 0.0496708 0.0443635 0.0387787 0.0330938 0.0274861 0.0219556 0.0165022 0.0113019 0.00653045 0.0021879 -0.00172575 -0.00512138 -0.00790987 -0.0100912 -0.0116654 -0.0126707 -0.0131455 -0.0130897 -0.0125033 -0.0115382 -0.0103461 -0.00892704 -0.00728104 -0.00562393 -0.00417156 -0.00292393 -0.00188104 -0.00105809 -0.00047026 -0.000117565 0 0 -3.7666e-05 -0.000150664 -0.000338994 -0.000602655 -0.000969885 -0.00146892 -0.00209976 -0.0028624 -0.00372353 -0.00464984 -0.00564131 -0.00669796 -0.00779107 -0.00889194 -0.0100006 -0.011117 -0.0122302 -0.0133294 -0.0144146 -0.0154857 -0.0165432 -0.0175873 -0.0186183 -0.0196359 -0.020636 -0.021614 -0.0225702 -0.0235043 -0.024397 -0.0252289 -0.0259999 -0.02671 -0.0273358 -0.0278537 -0.0282638 -0.028566 -0.0287607 -0.0288486 -0.0288294 -0.0287033 -0.0285098 -0.0282884 -0.0280391 -0.027762 -0.027511 -0.0273402 -0.0272496 -0.0272393 -0.0273228 -0.0275138 -0.0278124 -0.0282186 -0.0286637 -0.0290791 -0.0294649 -0.029821 -0.0300071 -0.0298828 -0.0294482 -0.0287032 -0.0275046 -0.0257091 -0.0233168 -0.0203276 -0.0166912 -0.0123575 -0.00732638 -0.00159785 0.00472239 0.0115287 0.018821 0.0265994 0.0346317 0.0426859 0.050762 0.0588599 0.0667364 0.074148 0.0810949 0.087577 0.0934451 0.09855 0.102892 0.10647 0.109243 0.111168 0.112246 0.112475 0.111876 0.110467 0.108249 0.105221 0.101453 0.0970134 0.0919029 0.0861211 0.0798198 0.0731506 0.0661134 0.0587082 0.0511645 0.0437116 0.0363496 0.0290783 0.0221203 0.015698 0.00981136 0.00446049 -0.00024367 -0.00419012 -0.00737887 -0.0098099 -0.0115289 -0.0125817 -0.0129682 -0.0126884 -0.0119225 -0.0108508 -0.00947331 -0.00778994 -0.00605453 -0.00452085 -0.0031889 -0.00205869 -0.00115801 -0.000514673 -0.000128668 0 0 -4.72907e-05 -0.000189163 -0.000425616 -0.000756651 -0.00120948 -0.00181131 -0.00256215 -0.00346199 -0.00446212 -0.0055138 -0.00661704 -0.00777184 -0.00893987 -0.0100828 -0.0112006 -0.0122933 -0.013348 -0.0143516 -0.0153042 -0.0162057 -0.0170618 -0.0178781 -0.0186545 -0.0193911 -0.0200931 -0.0207659 -0.0214094 -0.0220236 -0.022599 -0.0231259 -0.0236045 -0.0240346 -0.0244007 -0.024687 -0.0248937 -0.0250207 -0.0250747 -0.0250625 -0.0249841 -0.0248395 -0.0246726 -0.0245272 -0.0244035 -0.0243012 -0.0242724 -0.0243689 -0.0245905 -0.0249374 -0.0254083 -0.026002 -0.0267184 -0.0275576 -0.028422 -0.0292142 -0.029934 -0.0305815 -0.03098 -0.0309527 -0.0304996 -0.0296208 -0.0281423 -0.0258901 -0.0228643 -0.0190648 -0.0144335 -0.00891227 -0.00250113 0.00479994 0.0128567 0.021535 0.0308347 0.040756 0.0510059 0.0612918 0.0716135 0.0819712 0.0920548 0.101554 0.11047 0.118801 0.126355 0.132937 0.138546 0.143183 0.14679 0.149308 0.150736 0.151075 0.150348 0.148578 0.145764 0.141907 0.137096 0.131421 0.124882 0.11748 0.109408 0.10086 0.0918375 0.0823392 0.0726544 0.0630723 0.0535927 0.0442157 0.0352179 0.0268758 0.0191896 0.0121592 0.00592117 0.000612083 -0.00376806 -0.00721924 -0.00979541 -0.0115505 -0.0124845 -0.0125974 -0.0121011 -0.0112075 -0.00991676 -0.00822874 -0.00643869 -0.00484184 -0.00343818 -0.00222772 -0.00125309 -0.00055693 -0.000139233 0 0 -5.74911e-05 -0.000229964 -0.000517419 -0.000919857 -0.001462 -0.00216858 -0.0030396 -0.00407505 -0.00520769 -0.00637027 -0.00756278 -0.00878523 -0.00998739 -0.011119 -0.0121802 -0.0131708 -0.0140753 -0.0148782 -0.0155794 -0.0161789 -0.0166894 -0.0171237 -0.0174817 -0.0177634 -0.0179879 -0.0181742 -0.0183222 -0.0184321 -0.0185091 -0.0185585 -0.0185804 -0.0185747 -0.0185379 -0.0184666 -0.0183607 -0.0182203 -0.018061 -0.0178982 -0.017732 -0.0175625 -0.017438 -0.0174069 -0.0174692 -0.0176249 -0.0179209 -0.018404 -0.0190742 -0.0199315 -0.020954 -0.0221198 -0.023429 -0.0248814 -0.0263434 -0.0276812 -0.0288946 -0.0299837 -0.0307287 -0.0309097 -0.0305268 -0.0295799 -0.02786 -0.0251582 -0.0214746 -0.0168089 -0.0110952 -0.00426699 0.00367558 0.0127325 0.0227356 0.0335163 0.0450747 0.0574107 0.0701608 0.0829611 0.0958117 0.108713 0.121278 0.133121 0.144244 0.154644 0.164081 0.17231 0.179333 0.185149 0.189683 0.192861 0.194683 0.195149 0.194286 0.192121 0.188653 0.183883 0.177921 0.170878 0.162753 0.153546 0.143498 0.132847 0.121594 0.109739 0.0976374 0.0856456 0.0737636 0.0619914 0.0506682 0.0401332 0.0303864 0.0214277 0.0134237 0.00654108 0.00077973 -0.00386032 -0.00744194 -0.010028 -0.0116184 -0.0122133 -0.0120597 -0.0114046 -0.0102481 -0.00859019 -0.00677096 -0.00513059 -0.00366908 -0.00238643 -0.00134237 -0.000596608 -0.000149152 0 0 -6.82671e-05 -0.000273068 -0.000614404 -0.00109227 -0.00172746 -0.00254074 -0.00353211 -0.00470158 -0.00596025 -0.00721923 -0.00847852 -0.00973812 -0.0109336 -0.0120007 -0.0129392 -0.0137493 -0.0144122 -0.0149091 -0.0152401 -0.0154052 -0.0154259 -0.0153242 -0.0150998 -0.0147529 -0.0143203 -0.0138389 -0.0133087 -0.0127298 -0.0121274 -0.0115266 -0.0109276 -0.0103302 -0.00974752 -0.00919241 -0.0086649 -0.00816499 -0.00771962 -0.00735572 -0.0070733 -0.00687236 -0.00680599 -0.00692729 -0.00723625 -0.00773289 -0.00845628 -0.00944549 -0.0107005 -0.0122214 -0.0139598 -0.0158674 -0.0179442 -0.0201902 -0.022428 -0.0244801 -0.0263467 -0.0280276 -0.0292533 -0.0297539 -0.0295296 -0.0285803 -0.0266577 -0.0235135 -0.0191476 -0.01356 -0.00667626 0.00157833 0.0112037 0.0222 0.0343589 0.0474725 0.0615408 0.0765637 0.0920963 0.107694 0.123356 0.139084 0.154405 0.168849 0.182416 0.195105 0.206622 0.216671 0.225253 0.232367 0.237922 0.241829 0.244088 0.244697 0.24369 0.241096 0.236916 0.231151 0.223929 0.215384 0.205514 0.19432 0.18209 0.169111 0.155384 0.140908 0.126113 0.111432 0.0968624 0.0824056 0.0684714 0.0554701 0.0434016 0.0322659 0.022264 0.0135969 0.00626449 0.000266861 -0.00446852 -0.00801417 -0.0103701 -0.0115363 -0.0117984 -0.0114421 -0.0104674 -0.00887429 -0.00705133 -0.0053871 -0.0038816 -0.00253483 -0.00142584 -0.000633707 -0.000158427 0 0 -7.96188e-05 -0.000318475 -0.00071657 -0.0012739 -0.00200584 -0.00292777 -0.00403968 -0.00534158 -0.0067198 -0.00806069 -0.00936427 -0.0106305 -0.0117786 -0.0127277 -0.0134778 -0.0140289 -0.0143586 -0.0144444 -0.0142864 -0.0138845 -0.0132714 -0.0124795 -0.0115089 -0.0103595 -0.00909028 -0.00776008 -0.00636892 -0.00491678 -0.00345384 -0.00203027 -0.000646083 0.000698734 0.0019705 0.00313552 0.00419381 0.00514537 0.00594936 0.00656496 0.00699215 0.00723096 0.0072234 0.00691151 0.0062953 0.00537476 0.00412135 0.00250655 0.000530357 -0.00180724 -0.00442574 -0.00724466 -0.010264 -0.0134837 -0.0166756 -0.0196111 -0.0222903 -0.0247132 -0.0265536 -0.0274853 -0.0275081 -0.0266221 -0.0245354 -0.0209558 -0.0158834 -0.00931808 -0.00117678 0.0086237 0.0200834 0.0332022 0.0477268 0.0634038 0.0802331 0.0982147 0.116812 0.13549 0.154248 0.173085 0.191437 0.208738 0.224987 0.240185 0.253979 0.26602 0.276305 0.284837 0.291507 0.296211 0.298948 0.299719 0.298559 0.295504 0.290554 0.283709 0.275121 0.26494 0.253168 0.239803 0.225185 0.209652 0.193206 0.175845 0.158082 0.14043 0.122889 0.105458 0.0886274 0.0728865 0.0582353 0.0446739 0.032442 0.0217795 0.0126862 0.00516231 -0.000875167 -0.00550908 -0.00873944 -0.0105662 -0.0113172 -0.01132 -0.0105746 -0.00908104 -0.00727982 -0.00561138 -0.00407575 -0.0026729 -0.00150351 -0.000668225 -0.000167056 0 0 -9.11951e-05 -0.000364781 -0.000820756 -0.00145912 -0.00228807 -0.00331581 -0.00454232 -0.00596761 -0.00744991 -0.00884746 -0.0101602 -0.0113883 -0.0124315 -0.01319 -0.0136638 -0.0138527 -0.0137301 -0.0132689 -0.0124693 -0.0113311 -0.0099002 -0.00822245 -0.00629784 -0.00412635 -0.00179419 0.000612432 0.00309352 0.00564908 0.00819771 0.0