<?xml version="1.0"?> 
<VTKFile type="StructuredGrid" version="0.1"> 
<StructuredGrid WholeExtent="0 128 0 128 0 0"> 
<Piece Extent="0 128 0 128 0 0"> 
<PointData>
<DataArray type="Float32" Name="u" format="ascii" NumberOfComponents="1"> 
0 0 0 0 0 0 0 0 0 0 0 0 0 0 0 0 0 0 0 0 0 0 0 0 0 0 0 0 0 0 0 0 0 0 0 0 0 0 0 0 0 0 0 0 0 0 0 0 0 0 0 0 0 0 0 0 0 0 0 0 0 0 0 0 0 0 0 0 0 0 0 0 0 0 0 0 0 0 0 0 0 0 0 0 0 0 0 0 0 0 0 0 0 0 0 0 0 0 0 0 0 0 0 0 0 0 0 0 0 0 0 0 0 0 0 0 0 0 0 0 0 0 0 0 0 0 0 0 0 0 -6.27011e-08 -2.50805e-07 -5.6431e-07 -1.00322e-06 -1.77707e-06 -3.09541e-06 -4.95823e-06 -7.36553e-06 -1.03154e-05 -1.38059e-05 -1.78371e-05 -2.24089e-05 -2.74401e-05 -3.28494e-05 -3.86367e-05 -4.48022e-05 -5.12684e-05 -5.79582e-05 -6.48714e-05 -7.20081e-05 -7.9271e-05 -8.65624e-05 -9.38825e-05 -0.000101231 -0.000108483 -0.000115514 -0.000122323 -0.00012891 -0.00013515 -0.00014092 -0.000146217 -0.000151044 -0.000155321 -0.000158971 -0.000161993 -0.000164389 -0.000166163 -0.000167321 -0.000167864 -0.000167792 -0.0001672 -0.000166182 -0.000164738 -0.000162869 -0.000160726 -0.00015846 -0.00015607 -0.000153557 -0.000151066 -0.000148743 -0.000146587 -0.000144598 -0.000142847 -0.000141401 -0.000140261 -0.000139428 -0.000138843 -0.000138451 -0.000138251 -0.000138243 -0.000138249 -0.000138092 -0.000137771 -0.000137287 -0.000136425 -0.000134969 -0.000132919 -0.000130275 -0.000126927 -0.000122761 -0.000117778 -0.000111978 -0.000105471 -9.83687e-05 -9.067e-05 -8.23752e-05 -7.38176e-05 -6.53307e-05 -5.69144e-05 -4.85688e-05 -4.07008e-05 -3.37171e-05 -2.76179e-05 -2.24031e-05 -1.83316e-05 -1.56619e-05 -1.43943e-05 -1.45286e-05 -1.60221e-05 -1.88323e-05 -2.2959e-05 -2.84022e-05 -3.48306e-05 -4.19129e-05 -4.96489e-05 -5.80387e-05 -6.66255e-05 -7.49525e-05 -8.30198e-05 -9.08273e-05 -9.79973e-05 -0.000104152 -0.000109291 -0.000113415 -0.000116354 -0.00011794 -0.000118173 -0.000117053 -0.000114638 -0.000110989 -0.000106105 -9.99869e-05 -9.28909e-05 -8.50746e-05 -7.65381e-05 -6.72812e-05 -5.77748e-05 -4.84896e-05 -3.94256e-05 -3.05829e-05 -2.25323e-05 -1.58449e-05 -1.05205e-05 -6.55932e-06 -3.68962e-06 -1.63983e-06 -4.09957e-07 0 0 -2.50805e-07 -1.00322e-06 -2.25724e-06 -4.01287e-06 -7.10828e-06 -1.23816e-05 -1.98329e-05 -2.94621e-05 -4.12616e-05 -5.52237e-05 -7.13484e-05 -8.96356e-05 -0.00010976 -0.000131397 -0.000154547 -0.000179209 -0.000205074 -0.000231833 -0.000259486 -0.000288033 -0.000317084 -0.00034625 -0.00037553 -0.000404925 -0.000433934 -0.000462056 -0.000489291 -0.00051564 -0.000540602 -0.000563679 -0.00058487 -0.000604175 -0.000621283 -0.000635883 -0.000647973 -0.000657554 -0.00066465 -0.000669285 -0.000671458 -0.000671169 -0.000668799 -0.000664727 -0.000658953 -0.000651478 -0.000642905 -0.000633839 -0.00062428 -0.000614228 -0.000604265 -0.000594971 -0.000586347 -0.000578393 -0.000571387 -0.000565604 -0.000561045 -0.000557711 -0.000555373 -0.000553803 -0.000553002 -0.00055297 -0.000552995 -0.000552367 -0.000551085 -0.000549149 -0.0005457 -0.000539875 -0.000531676 -0.000521102 -0.000507707 -0.000491043 -0.000471112 -0.000447912 -0.000421885 -0.000393475 -0.00036268 -0.000329501 -0.00029527 -0.000261323 -0.000227658 -0.000194275 -0.000162803 -0.000134869 -0.000110472 -8.96126e-05 -7.33262e-05 -6.26477e-05 -5.75771e-05 -5.81143e-05 -6.40886e-05 -7.53291e-05 -9.18359e-05 -0.000113609 -0.000139323 -0.000167651 -0.000198595 -0.000232155 -0.000266502 -0.00029981 -0.000332079 -0.000363309 -0.000391989 -0.000416607 -0.000437164 -0.000453658 -0.000465416 -0.00047176 -0.000472692 -0.00046821 -0.000458553 -0.000443956 -0.000424421 -0.000399947 -0.000371564 -0.000340299 -0.000306152 -0.000269125 -0.000231099 -0.000193958 -0.000157702 -0.000122332 -9.01293e-05 -6.33795e-05 -4.20821e-05 -2.62373e-05 -1.47585e-05 -6.55932e-06 -1.63983e-06 0 0 -5.6431e-07 -2.25724e-06 -5.07879e-06 -9.02896e-06 -1.59936e-05 -2.78587e-05 -4.46241e-05 -6.62898e-05 -9.28387e-05 -0.000124253 -0.000160534 -0.00020168 -0.000246961 -0.000295644 -0.00034773 -0.00040322 -0.000461416 -0.000521623 -0.000583843 -0.000648073 -0.000713439 -0.000779062 -0.000844943 -0.000911081 -0.000976351 -0.00103963 -0.00110091 -0.00116019 -0.00121635 -0.00126828 -0.00131596 -0.00135939 -0.00139789 -0.00143074 -0.00145794 -0.0014795 -0.00149546 -0.00150589 -0.00151078 -0.00151013 -0.0015048 -0.00149564 -0.00148264 -0.00146583 -0.00144654 -0.00142614 -0.00140463 -0.00138201 -0.0013596 -0.00133868 -0.00131928 -0.00130139 -0.00128562 -0.00127261 -0.00126235 -0.00125485 -0.00124959 -0.00124606 -0.00124425 -0.00124418 -0.00124424 -0.00124283 -0.00123994 -0.00123559 -0.00122782 -0.00121472 -0.00119627 -0.00117248 -0.00114234 -0.00110485 -0.00106 -0.0010078 -0.000949242 -0.000885319 -0.00081603 -0.000741376 -0.000664358 -0.000587976 -0.00051223 -0.00043712 -0.000366307 -0.000303454 -0.000248561 -0.000201628 -0.000164984 -0.000140957 -0.000129548 -0.000130757 -0.000144199 -0.00016949 -0.000206631 -0.00025562 -0.000313476 -0.000377216 -0.00044684 -0.000522348 -0.000599629 -0.000674573 -0.000747178 -0.000817446 -0.000881975 -0.000937366 -0.000983618 -0.00102073 -0.00104719 -0.00106146 -0.00106356 -0.00105347 -0.00103174 -0.000998902 -0.000954948 -0.000899882 -0.000836018 -0.000765672 -0.000688842 -0.000605531 -0.000519973 -0.000436406 -0.000354831 -0.000275246 -0.000202791 -0.000142604 -9.46848e-05 -5.90339e-05 -3.32066e-05 -1.47585e-05 -3.68962e-06 0 0 -1.00322e-06 -4.01287e-06 -9.02896e-06 -1.60515e-05 -2.84331e-05 -4.95265e-05 -7.93316e-05 -0.000117849 -0.000165047 -0.000220895 -0.000285393 -0.000358542 -0.000439041 -0.00052559 -0.000618187 -0.000716835 -0.000820295 -0.000927331 -0.00103794 -0.00115213 -0.00126834 -0.001385 -0.00150212 -0.0016197 -0.00173574 -0.00184822 -0.00195717 -0.00206256 -0.00216241 -0.00225471 -0.00233948 -0.0024167 -0.00248513 -0.00254353 -0.00259189 -0.00263022 -0.0026586 -0.00267714 -0.00268583 -0.00268468 -0.0026752 -0.00265891 -0.00263581 -0.00260591 -0.00257162 -0.00253536 -0.00249712 -0.00245691 -0.00241706 -0.00237988 -0.00234539 -0.00231357 -0.00228555 -0.00226242 -0.00224418 -0.00223084 -0.00222149 -0.00221521 -0.00221201 -0.00221188 -0.00221198 -0.00220947 -0.00220434 -0.0021966 -0.0021828 -0.0021595 -0.0021267 -0.00208441 -0.00203083 -0.00196417 -0.00188445 -0.00179165 -0.00168754 -0.0015739 -0.00145072 -0.001318 -0.00118108 -0.00104529 -0.000910631 -0.000777101 -0.000651212 -0.000539474 -0.000441887 -0.00035845 -0.000293305 -0.000250591 -0.000230308 -0.000232457 -0.000256354 -0.000301316 -0.000367343 -0.000454435 -0.00055729 -0.000670606 -0.000794382 -0.000928618 -0.00106601 -0.00119924 -0.00132832 -0.00145324 -0.00156796 -0.00166643 -0.00174865 -0.00181463 -0.00186166 -0.00188704 -0.00189077 -0.00187284 -0.00183421 -0.00177583 -0.00169769 -0.00159979 -0.00148625 -0.00136119 -0.00122461 -0.0010765 -0.000924396 -0.000775833 -0.00063081 -0.000489326 -0.000360517 -0.000253518 -0.000168329 -0.000104949 -5.90339e-05 -2.62373e-05 -6.55932e-06 0 0 -1.79942e-06 -7.19768e-06 -1.61948e-05 -2.87907e-05 -5.01326e-05 -8.53673e-05 -0.000134495 -0.000197516 -0.000274184 -0.000364253 -0.000467723 -0.000584595 -0.000712755 -0.000850087 -0.000996593 -0.00115227 -0.00131513 -0.00148317 -0.00165639 -0.0018348 -0.00201594 -0.00219738 -0.00237912 -0.00256115 -0.00274042 -0.00291388 -0.00308152 -0.00324335 -0.00339638 -0.00353766 -0.00366716 -0.00378491 -0.00388911 -0.00397799 -0.00405155 -0.00410979 -0.00415297 -0.00418137 -0.00419497 -0.00419379 -0.0041802 -0.00415657 -0.0041229 -0.0040792 -0.00402911 -0.00397626 -0.00392067 -0.00386232 -0.00380461 -0.00375093 -0.00370127 -0.00365563 -0.00361545 -0.00358214 -0.00355569 -0.00353612 -0.00352167 -0.0035106 -0.0035029 -0.00349858 -0.00349292 -0.00348117 -0.00346336 -0.00343947 -0.00340401 -0.00335147 -0.00328184 -0.00319513 -0.00308873 -0.00296 -0.00280897 -0.00263562 -0.00244328 -0.00223531 -0.00201168 -0.00177242 -0.00152673 -0.00128384 -0.00104375 -0.000806462 -0.000583059 -0.00038463 -0.000211172 -6.26863e-05 5.37855e-05 0.000131202 0.000169564 0.00016887 0.000130202 5.4639e-05 -5.78182e-05 -0.00020717 -0.000384543 -0.000581065 -0.000796735 -0.00103155 -0.00127319 -0.00150932 -0.00173993 -0.00196503 -0.0021743 -0.00235743 -0.00251441 -0.00264524 -0.00274515 -0.00280939 -0.00283793 -0.0028308 -0.00278933 -0.0027149 -0.00260748 -0.00246709 -0.00230035 -0.00211387 -0.00190765 -0.0016817 -0.00144804 -0.00121871 -0.00099372 -0.000773057 -0.000571371 -0.000403305 -0.000268858 -0.000168032 -9.45181e-05 -4.20081e-05 -1.0502e-05 0 0 -3.18481e-06 -1.27392e-05 -2.86633e-05 -5.0957e-05 -8.67978e-05 -0.000143363 -0.000220654 -0.000318669 -0.000436548 -0.000573432 -0.00072932 -0.000904212 -0.00109485 -0.00129799 -0.00151362 -0.00174175 -0.00197934 -0.00222335 -0.00247379 -0.00273066 -0.00299042 -0.00324953 -0.00350798 -0.00376579 -0.00401874 -0.00426262 -0.00449742 -0.00472315 -0.0049359 -0.00513177 -0.00531074 -0.00547283 -0.00561591 -0.00573784 -0.00583863 -0.00591829 -0.00597748 -0.00601691 -0.00603657 -0.00603646 -0.00602 -0.00599064 -0.00594836 -0.00589316 -0.00582995 -0.00576363 -0.00569419 -0.00562163 -0.00555021 -0.00548417 -0.00542351 -0.00536824 -0.00531961 -0.00527888 -0.00524605 -0.00522111 -0.00520073 -0.00518155 -0.00516358 -0.00514682 -0.00512374 -0.00508683 -0.00503608 -0.00497151 -0.00488485 -0.00476786 -0.00462054 -0.00444289 -0.00423159 -0.00398332 -0.00369808 -0.00337587 -0.00302297 -0.00264563 -0.00224386 -0.00181766 -0.00138258 -0.00095419 -0.000532476 -0.000117441 0.000272612 0.000619378 0.00092286 0.00118306 0.00138836 0.00152717 0.00159949 0.00160531 0.00154622 0.00142382 0.0012381 0.000989062 0.000690989 0.000358164 -9.41227e-06 -0.000411741 -0.000828733 -0.0012403 -0.00164645 -0.00204717 -0.00242538 -0.00276399 -0.003063 -0.00332241 -0.00353396 -0.00368938 -0.00378867 -0.00383183 -0.0038205 -0.00375628 -0.00363918 -0.00346921 -0.00325638 -0.00301069 -0.00273216 -0.00242079 -0.00209457 -0.00177152 -0.00145164 -0.00113493 -0.000843416 -0.000599147 -0.000402119 -0.000252332 -0.000141937 -6.30831e-05 -1.57708e-05 0 0 -5.15939e-06 -2.06375e-05 -4.64345e-05 -8.25502e-05 -0.000138429 -0.000223515 -0.000337807 -0.000481307 -0.00065214 -0.000848432 -0.00107018 -0.00131739 -0.00158534 -0.0018693 -0.00216928 -0.00248527 -0.00281292 -0.00314788 -0.00349015 -0.00383973 -0.00419177 -0.00454143 -0.00488872 -0.00523363 -0.00557069 -0.00589444 -0.00620486 -0.00650197 -0.00678097 -0.00703705 -0.00727022 -0.00748047 -0.00766553 -0.00782308 -0.00795314 -0.00805571 -0.00813213 -0.00818377 -0.00821061 -0.00821267 -0.00819462 -0.00816112 -0.00811217 -0.00804779 -0.00797415 -0.00789745 -0.00781768 -0.00773484 -0.00765385 -0.00757961 -0.00751213 -0.0074514 -0.00739803 -0.00735265 -0.00731524 -0.00728582 -0.00725866 -0.00722807 -0.00719404 -0.00715657 -0.00710444 -0.00702642 -0.0069225 -0.0067927 -0.00662532 -0.00640869 -0.00614282 -0.0058277 -0.00545943 -0.00503413 -0.0045518 -0.00401242 -0.00342659 -0.00280486 -0.00214724 -0.00145373 -0.000748652 -5.63459e-05 0.000623192 0.00128996 0.0019158 0.00247255 0.00296021 0.00337878 0.00371042 0.00393732 0.00405946 0.00407686 0.00399171 0.00380623 0.00352041 0.00313426 0.00266931 0.00214708 0.00156759 0.00093082 0.000267365 -0.000392201 -0.00104788 -0.00169966 -0.0023212 -0.00288612 -0.00339444 -0.00384616 -0.00422807 -0.00452701 -0.00474297 -0.00487594 -0.00492769 -0.00489998 -0.0047928 -0.00460615 -0.00435434 -0.00405167 -0.00369815 -0.00329377 -0.00286399 -0.00243426 -0.00200457 -0.00157493 -0.00117665 -0.000841045 -0.000568111 -0.00035785 -0.00020129 -8.94624e-05 -2.23656e-05 0 0 -7.72315e-06 -3.08926e-05 -6.95083e-05 -0.00012357 -0.000205026 -0.000325821 -0.000485956 -0.000685432 -0.00092096 -0.00118925 -0.00149031 -0.00182414 -0.00218421 -0.00256402 -0.00296355 -0.00338283 -0.00381588 -0.00425676 -0.00470546 -0.00516199 -0.00561999 -0.00607311 -0.00652133 -0.00696466 -0.00739628 -0.00780934 -0.00820385 -0.00857981 -0.00893158 -0.0092535 -0.00954559 -0.00980783 -0.010038 -0.0102337 -0.0103951 -0.0105221 -0.0106169 -0.0106819 -0.0107171 -0.0107224 -0.010704 -0.010668 -0.0106144 -0.0105431 -0.0104617 -0.0103777 -0.0102911 -0.010202 -0.0101155 -0.0100373 -0.00996711 -0.0099051 -0.00985071 -0.00980344 -0.00976328 -0.00973024 -0.00969547 -0.00965015 -0.00959428 -0.00952786 -0.00943504 -0.00929996 -0.00912262 -0.00890304 -0.00862541 -0.00827395 -0.00784866 -0.00734954 -0.00677224 -0.00611243 -0.00537011 -0.00454526 -0.00365415 -0.00271301 -0.00172183 -0.000680621 0.00037507 0.00140969 0.00242325 0.00341574 0.00434651 0.00517488 0.00590087 0.00652447 0.00701997 0.00736164 0.00754949 0.00758352 0.00746667 0.00720187 0.00678912 0.00622843 0.00555041 0.00478569 0.00393426 0.00299613 0.0020151 0.00103499 5.57894e-05 -0.000922499 -0.00186175 -0.00272383 -0.00350873 -0.00421647 -0.00482751 -0.00532229 -0.00570083 -0.00596313 -0.00611093 -0.00614599 -0.00606831 -0.0058779 -0.00559423 -0.0052368 -0.00480561 -0.00430065 -0.0037563 -0.00320692 -0.00265251 -0.00209307 -0.00157108 -0.001129 -0.000766834 -0.000484584 -0.000272579 -0.000121146 -3.02865e-05 0 0 -1.0897e-05 -4.35879e-05 -9.80727e-05 -0.000174351 -0.000286889 -0.000450148 -0.00066413 -0.000928835 -0.00123887 -0.00158884 -0.00197876 -0.00240861 -0.00286963 -0.00335306 -0.0038589 -0.00438714 -0.00492996 -0.00547951 -0.00603579 -0.0065988 -0.00716063 -0.00771336 -0.00825698 -0.0087915 -0.009309 -0.00980156 -0.0102692 -0.0107119 -0.0111237 -0.0114988 -0.0118371 -0.0121387 -0.0124019 -0.0126253 -0.0128088 -0.0129524 -0.0130598 -0.0131348 -0.0131773 -0.0131874 -0.0131726 -0.0131406 -0.0130913 -0.0130248 -0.0129494 -0.0128735 -0.012797 -0.01272 -0.0126474 -0.012584 -0.0125299 -0.0124852 -0.0124468 -0.0124122 -0.0123812 -0.0123539 -0.012317 -0.0122573 -0.0121748 -0.0120694 -0.0119197 -0.0117037 -0.0114217 -0.0110735 -0.0106386 -0.0100964 -0.00944689 -0.00869014 -0.00782185 -0.00683776 -0.00573787 -0.00452219 -0.00321482 -0.00183989 -0.000397398 0.00111266 0.00263996 0.00413418 0.00559534 0.00702342 0.00836161 0.00955311 0.0105979 0.011496 0.0122116 0.0127087 0.0129874 0.0130477 0.0128933 0.012528 0.0119517 0.0111644 0.0102082 0.00912512 0.00791516 0.00657832 0.00517524 0.0037666 0.00235238 0.000932584 -0.000439407 -0.00171022 -0.00287986 -0.00394833 -0.00488758 -0.00566959 -0.00629435 -0.00676185 -0.00707342 -0.00723035 -0.00723266 -0.00708032 -0.00679889 -0.0064139 -0.00592535 -0.00533323 -0.00468235 -0.00401748 -0.00333864 -0.00264583 -0.00199455 -0.00144034 -0.000983193 -0.000623108 -0.000350498 -0.000155777 -3.89442e-05 0 0 -1.47017e-05 -5.88068e-05 -0.000132315 -0.000235227 -0.000384318 -0.000596362 -0.000871359 -0.00120931 -0.00160173 -0.00204015 -0.00252456 -0.00305497 -0.00361976 -0.00420736 -0.00481775 -0.00545094 -0.00609691 -0.00674567 -0.0073972 -0.0080515 -0.00869923 -0.00933101 -0.00994685 -0.0105467 -0.0111224 -0.0116653 -0.0121757 -0.0126534 -0.0130934 -0.0134906 -0.013845 -0.0141567 -0.014426 -0.0146532 -0.0148385 -0.0149817 -0.0150888 -0.0151658 -0.0152126 -0.0152291 -0.0152246 -0.015208 -0.0151793 -0.0151386 -0.0150939 -0.0150536 -0.0150176 -0.0149859 -0.0149614 -0.0149468 -0.0149421 -0.0149474 -0.0149556 -0.0149598 -0.01496 -0.0149562 -0.014929 -0.0148589 -0.0147459 -0.0145901 -0.0143624 -0.014034 -0.0136048 -0.0130749 -0.0124181 -0.0116086 -0.0106463 -0.00953122 -0.00826009 -0.00682967 -0.00523996 -0.00349098 -0.00161776 0.000344666 0.00239629 0.0045371 0.00669738 0.00880737 0.0108671 0.0128765 0.014758 0.016434 0.0179044 0.0191693 0.0201798 0.0208871 0.0212911 0.0213919 0.0211939 0.0207018 0.0199155 0.018835 0.0175166 0.0160165 0.0143349 0.0124715 0.0105085 0.00852794 0.00652972 0.00451386 0.00255345 0.000721553 -0.000981827 -0.00255669 -0.00396364 -0.00516327 -0.00615559 -0.00694059 -0.00751839 -0.00788911 -0.00805274 -0.00800928 -0.00779116 -0.00743079 -0.00692818 -0.00628332 -0.00555298 -0.00479393 -0.00400616 -0.00318967 -0.00241493 -0.00175241 -0.00120209 -0.000763992 -0.000429746 -0.000190998 -4.77495e-05 0 0 -1.91374e-05 -7.65494e-05 -0.000172236 -0.000306198 -0.000497313 -0.000764462 -0.00110764 -0.00152686 -0.00200955 -0.00254318 -0.00312773 -0.00376321 -0.00443461 -0.00512691 -0.00584011 -0.00657421 -0.00731675 -0.00805524 -0.00878969 -0.00952009 -0.0102358 -0.0109261 -0.0115909 -0.0122304 -0.0128363 -0.0134006 -0.0139233 -0.0144043 -0.0148405 -0.0152289 -0.0155693 -0.015862 -0.0161102 -0.0163177 -0.0164843 -0.0166101 -0.016704 -0.0167749 -0.0168228 -0.0168477 -0.0168601 -0.0168703 -0.0168785 -0.0168845 -0.0168954 -0.0169182 -0.016953 -0.0169998 -0.0170577 -0.0171256 -0.0172036 -0.0172918 -0.017377 -0.0174464 -0.0174998 -0.0175373 -0.0175315 -0.017455 -0.0173078 -0.0170898 -0.0167634 -0.0162908 -0.0156721 -0.0149073 -0.0139642 -0.0128108 -0.011447 -0.00987279 -0.00808695 -0.00608815 -0.00387638 -0.00145165 0.00113704 0.00384066 0.00665922 0.00959272 0.0125473 0.0154292 0.0182385 0.020975 0.0235357 0.0258174 0.0278203 0.0295443 0.0309247 0.0318968 0.0324605 0.0326159 0.0323684 0.0317233 0.0306805 0.0292402 0.0274756 0.0254599 0.0231933 0.0206757 0.018015 0.015319 0.0125878 0.00982133 0.00711682 0.0045715 0.00218538 -4.15541e-05 -0.00205567 -0.00380333 -0.00528456 -0.00649933 -0.00744584 -0.00812225 -0.00852856 -0.00866477 -0.00857103 -0.00828747 -0.0078141 -0.00715092 -0.00636821 -0.00553625 -0.00465505 -0.00372461 -0.00283222 -0.0020652 -0.00142354 -0.000907238 -0.000510321 -0.000226809 -5.67024e-05 0 0 -2.42039e-05 -9.68158e-05 -0.000217835 -0.000387263 -0.000625875 -0.000954448 -0.00137298 -0.00188148 -0.00246232 -0.00309792 -0.00378826 -0.00453335 -0.00531417 -0.00611172 -0.00692598 -0.00775697 -0.00858945 -0.00940822 -0.0102133 -0.0110046 -0.0117703 -0.0124985 -0.0131892 -0.0138425 -0.014451 -0.0150075 -0.015512 -0.0159646 -0.0163651 -0.0167136 -0.0170101 -0.0172545 -0.0174547 -0.0176186 -0.0177462 -0.0178375 -0.0179052 -0.017962 -0.018008 -0.0180431 -0.0180791 -0.0181276 -0.0181887 -0.0182625 -0.0183537 -0.0184673 -0.0186033 -0.0187616 -0.0189361 -0.0191204 -0.0193145 -0.0195183 -0.0197111 -0.0198718 -0.0200005 -0.0200971 -0.0201246 -0.0200457 -0.0198603 -0.0195686 -0.0191225 -0.0184741 -0.0176235 -0.0165707 -0.0152767 -0.0137028 -0.0118488 -0.00971483 -0.00730244 -0.0046132 -0.00164712 0.00159581 0.00504956 0.00864809 0.0123914 0.0162795 0.0201898 0.0239998 0.0277095 0.0313188 0.0346946 0.0377035 0.0403457 0.0426211 0.0444462 0.0457378 0.0464957 0.04672 0.0464169 0.0455925 0.0442469 0.04238 0.0400851 0.0374553 0.0344906 0.0311909 0.0276946 0.0241399 0.0205267 0.016855 0.0132507 0.00983962 0.00662175 0.00359708 0.000836328 -0.00158978 -0.00368125 -0.00543809 -0.00685577 -0.00792978 -0.00866012 -0.00904679 -0.0091385 -0.00898394 -0.00858312 -0.00793603 -0.00712802 -0.00624446 -0.00528533 -0.00425064 -0.00324642 -0.00237872 -0.00164752 -0.00105284 -0.000592225 -0.000263211 -6.58028e-05 0 0 -2.97731e-05 -0.000119092 -0.000267958 -0.00047637 -0.000766599 -0.00116091 -0.00165932 -0.00226181 -0.00294453 -0.00368362 -0.00447908 -0.00533092 -0.0062153 -0.00710838 -0.00801019 -0.0089207 -0.00982157 -0.0106944 -0.0115393 -0.0123561 -0.0131321 -0.0138545 -0.0145232 -0.0151383 -0.0156946 -0.0161869 -0.0166151 -0.0169792 -0.0172843 -0.0175352 -0.0177319 -0.0178744 -0.017977 -0.0180539 -0.0181051 -0.0181306 -0.0181482 -0.0181756 -0.0182128 -0.0182598 -0.0183294 -0.0184346 -0.0185753 -0.0187515 -0.0189644 -0.019215 -0.0195033 -0.0198292 -0.0201787 -0.0205373 -0.0209051 -0.021282 -0.0216366 -0.0219372 -0.0221838 -0.0223765 -0.0224658 -0.0224024 -0.0221862 -0.0218174 -0.0212358 -0.0203817 -0.0192551 -0.0178558 -0.0161377 -0.0140546 -0.0116063 -0.00879294 -0.00562039 -0.00209457 0.00178452 0.00601689 0.0105154 0.0151931 0.0200498 0.0250856 0.0301436 0.0350666 0.0398549 0.0445082 0.0488581 0.052736 0.0561418 0.0590757 0.0614325 0.0631072 0.0640997 0.0644102 0.0640455 0.0630127 0.0613119 0.0589429 0.0560216 0.0526638 0.0488696 0.0446389 0.0401451 0.0355619 0.0308891 0.0261268 0.0214347 0.0169726 0.0127404 0.00873817 0.00505746 0.0017898 -0.0010648 -0.00350634 -0.00552646 -0.00711676 -0.00827724 -0.00900792 -0.00936693 -0.00941243 -0.0091444 -0.00856287 -0.00777004 -0.00686815 -0.0058572 -0.00473719 -0.00363484 -0.00267687 -0.00186328 -0.00119406 -0.000671658 -0.000298514 -7.46286e-05 0 0 -3.57166e-05 -0.000142866 -0.000321449 -0.000571465 -0.00091608 -0.00137846 -0.0019586 -0.0026565 -0.00344065 -0.00427953 -0.00517313 -0.00612146 -0.00709483 -0.00806352 -0.00902755 -0.00998692 -0.0109196 -0.0118037 -0.012639 -0.0134257 -0.0141505 -0.0148 -0.0153743 -0.0158733 -0.0162956 -0.0166397 -0.0169055 -0.0170931 -0.017215 -0.0172838 -0.0172996 -0.0172622 -0.0171952 -0.0171218 -0.0170422 -0.0169564 -0.0168887 -0.0168638 -0.0168816 -0.0169421 -0.0170591 -0.0172462 -0.0175034 -0.0178307 -0.0182231 -0.0186756 -0.019188 -0.0197605 -0.0203672 -0.0209824 -0.0216059 -0.0222379 -0.0228325 -0.0233437 -0.0237716 -0.0241161 -0.0243127 -0.0242968 -0.0240683 -0.0236272 -0.0228996 -0.0218115 -0.0203627 -0.0185534 -0.0163293 -0.0136361 -0.0104739 -0.00684268 -0.00275463 0.00177801 0.00675525 0.0121771 0.0179303 0.0239018 0.0300914 0.0364993 0.0429273 0.0491772 0.0552492 0.0611432 0.0666495 0.0715584 0.07587 0.0795843 0.0825716 0.084702 0.0859758 0.0863927 0.0859606 0.0846873 0.0825728 0.079617 0.0759612 0.0717466 0.0669733 0.0616412 0.0559643 0.0501566 0.0442181 0.0381487 0.0321484 0.026417 0.0209544 0.0157607 0.0109528 0.00664784 0.0028457 -0.000453593 -0.00323619 -0.00548824 -0.00720975 -0.00840072 -0.00912968 -0.00946516 -0.00940715 -0.00895566 -0.00823186 -0.00735694 -0.00633089 -0.00515372 -0.00397482 -0.00294358 -0.00206002 -0.00132412 -0.000744819 -0.000331031 -8.27576e-05 0 0 -4.20343e-05 -0.000168137 -0.000378309 -0.000672549 -0.00107432 -0.00160707 -0.00227082 -0.00306555 -0.00395068 -0.00488563 -0.0058704 -0.00690498 -0.00795276 -0.00897713 -0.00997808 -0.0109556 -0.0118836 -0.0127359 -0.0135126 -0.0142136 -0.0148255 -0.0153352 -0.0157425 -0.0160475 -0.016254 -0.016366 -0.0163833 -0.0163061 -0.0161572 -0.0159595 -0.015713 -0.0154177 -0.015109 -0.0148223 -0.0145575 -0.0143146 -0.0141267 -0.0140267 -0.0140145 -0.0140903 -0.0142681 -0.0145624 -0.014973 -0.0155 -0.0161299 -0.0168491 -0.0176576 -0.0185554 -0.0195017 -0.0204556 -0.021417 -0.0223861 -0.0232988 -0.0240914 -0.0247638 -0.0253161 -0.0256654 -0.0257288 -0.0255064 -0.0249982 -0.0241138 -0.0227633 -0.0209464 -0.0186634 -0.0158513 -0.0124474 -0.00845164 -0.00386406 0.00129484 0.00700454 0.0132651 0.0200764 0.0272942 0.0347741 0.0425162 0.0505205 0.0585409 0.0663316 0.0738926 0.0812238 0.0880687 0.0941709 0.0995303 0.104147 0.107863 0.110522 0.112124 0.112668 0.112162 0.110616 0.10803 0.104402 0.099904 0.0947038 0.0888017 0.0821979 0.0751521 0.0679239 0.0605135 0.0529208 0.0453918 0.0381729 0.0312638 0.0246646 0.0185225 0.0129843 0.00805023 0.00372016 1.50359e-05 -0.00304423 -0.00545765 -0.00722521 -0.00842676 -0.00914214 -0.00937136 -0.00911441 -0.0085135 -0.00771083 -0.0067064 -0.00550021 -0.00426634 -0.00317885 -0.00223775 -0.00144304 -0.000811709 -0.000360759 -9.01898e-05 0 0 -4.87264e-05 -0.000194906 -0.000438537 -0.000779622 -0.00124131 -0.00184677 -0.00259598 -0.00348896 -0.00447463 -0.00550194 -0.00657089 -0.00768148 -0.00878911 -0.00984921 -0.0108618 -0.0118268 -0.0127135 -0.0134913 -0.0141599 -0.0147196 -0.0151572 -0.01546 -0.0156278 -0.0156608 -0.0155698 -0.0153657 -0.0150486 -0.0146184 -0.014111 -0.0135623 -0.0129723 -0.012341 -0.0117186 -0.0111552 -0.0106508 -0.0102054 -0.00986221 -0.00966424 -0.00961154 -0.00970411 -0.00995648 -0.0103831 -0.0109841 -0.0117594 -0.0126846 -0.0137355 -0.0149119 -0.016214 -0.0175822 -0.018957 -0.0203384 -0.0217263 -0.0230354 -0.0241801 -0.0251605 -0.0259764 -0.0265238 -0.0266986 -0.0265007 -0.0259301 -0.0248784 -0.0232372 -0.0210063 -0.0181858 -0.0147039 -0.0104884 -0.00553949 0.000142915 0.00652801 0.013585 0.021314 0.0297148 0.038607 0.0478102 0.0573242 0.0671492 0.0769845 0.0865298 0.0957849 0.10475 0.113116 0.120573 0.127123 0.132764 0.137308 0.140568 0.142544 0.143235 0.14265 0.1408 0.137683 0.133299 0.12785 0.121535 0.114355 0.106309 0.0977085 0.0888639 0.0797754 0.0704429 0.061165 0.0522402 0.0436685 0.03545 0.0277663 0.0207993 0.0145488 0.00901492 0.00422722 0.000215265 -0.00302093 -0.00548137 -0.00725815 -0.00844337 -0.00903702 -0.00903912 -0.00861495 -0.00792982 -0.00698373 -0.00577667 -0.00450941 -0.00338267 -0.00239647 -0.0015508 -0.000872327 -0.000387701 -9.69253e-05 0 0 -5.55952e-05 -0.000222381 -0.000500357 -0.000889523 -0.00141187 -0.00208937 -0.00292204 -0.00390988 -0.00498973 -0.00609844 -0.00723602 -0.00840247 -0.00954388 -0.0106064 -0.0115899 -0.0124945 -0.0132841 -0.0139226 -0.0144102 -0.0147467 -0.0149203 -0.014919 -0.0147429 -0.014392 -0.0138866 -0.013247 -0.0124732 -0.0115652 -0.0105757 -0.00955706 -0.00850945 -0.00743282 -0.00639588 -0.00546735 -0.00464722 -0.00393549 -0.00338773 -0.00305948 -0.00295075 -0.00306154 -0.00340625 -0.00399927 -0.00484061 -0.00593027 -0.00723002 -0.00870164 -0.0103451 -0.0121605 -0.0140649 -0.0159756 -0.0178925 -0.0198157 -0.0216333 -0.0232335 -0.0246164 -0.0257819 -0.0266009 -0.0269445 -0.0268125 -0.0262051 -0.0249933 -0.0230482 -0.0203698 -0.0169581 -0.0127319 -0.00761001 -0.00159231 0.00532115 0.0130864 0.0216595 0.0310404 0.0412292 0.0520031 0.0631394 0.0746382 0.0864994 0.0983614 0.109862 0.121002 0.131781 0.141832 0.150791 0.158656 0.165428 0.170886 0.174811 0.177201 0.178058 0.17739 0.175208 0.171512 0.166301 0.159808 0.152266 0.143675 0.134034 0.12371 0.113067 0.102106 0.0908263 0.0795855 0.0687402 0.0582904 0.0482361 0.0387992 0.0302015 0.0224429 0.0155235 0.00948393 0.00436476 0.000166028 -0.00311227 -0.00557516 -0.00732765 -0.00836975 -0.00870145 -0.00851327 -0.00799574 -0.00714885 -0.00597261 -0.00469647 -0.00354988 -0.00253285 -0.00164538 -0.000925528 -0.000411346 -0.000102836 0 0 -6.24432e-05 -0.000249773 -0.000561989 -0.000999091 -0.00158077 -0.00232673 -0.00323696 -0.00431146 -0.0054732 -0.00664511 -0.00782721 -0.00901948 -0.0101571 -0.0111751 -0.0120736 -0.0128526 -0.0134698 -0.0138831 -0.0140925 -0.0140979 -0.0138894 -0.0134569 -0.0128003 -0.0119198 -0.0108481 -0.00961789 -0.00822925 -0.00668216 -0.00505065 -0.00340874 -0.00175644 -9.37391e-05 0.00148733 0.00289473 0.00412847 0.00518855 0.00600417 0.00650456 0.0066897 0.00655961 0.00610048 0.00529849 0.00415364 0.00266595 0.00089129 -0.00111443 -0.00335121 -0.00581905 -0.00840608 -0.0110004 -0.013602 -0.0162109 -0.0186833 -0.0208751 -0.0227865 -0.0244174 -0.0256096 -0.026205 -0.0262034 -0.025605 -0.0242582 -0.0220113 -0.0188645 -0.0148176 -0.00978053 -0.00366297 0.00353506 0.0118136 0.0211115 0.031368 0.0425829 0.0547564 0.0676164 0.0808913 0.0945809 0.108685 0.122775 0.13642 0.14962 0.162375 0.17426 0.184847 0.194138 0.202133 0.208577 0.21322 0.216061 0.2171 0.216348 0.213814 0.209498 0.203402 0.195788 0.186922 0.176804 0.165433 0.153232 0.140623 0.127606 0.114182 0.100771 0.0877939 0.075251 0.0631423 0.0517359 0.0412998 0.0318342 0.0233388 0.0158688 0.00947876 0.00416885 -6.09926e-05 -0.0033291 -0.00575381 -0.00733514 -0.00807309 -0.00818555 -0.00789045 -0.00718777 -0.00607753 -0.00481995 -0.0036753 -0.00264356 -0.00172473 -0.000970163 -0.000431183 -0.000107796 0 0 -6.92705e-05 -0.000277082 -0.000623434 -0.00110833 -0.00174804 -0.00255884 -0.00354073 -0.00469372 -0.00592504 -0.00714195 -0.00834444 -0.00953252 -0.0106287 -0.0115556 -0.0123131 -0.0129012 -0.0132708 -0.0133727 -0.0132069 -0.0127733 -0.0120647 -0.0110736 -0.00980013 -0.00824425 -0.00645424 -0.00447839 -0.00231669 3.08528e-05 0.00246404 0.00488266 0.00728671 0.00967619 0.011931 0.013931 0.0156762 0.0171667 0.0183135 0.0190279 0.0193098 0.0191593 0.0185637 0.0175101 0.0159987 0.0140293 0.0116793 0.00902616 0.00606982 0.00281028 -0.000605721 -0.00403145 -0.0074669 -0.0109121 -0.0141853 -0.0171048 -0.0196707 -0.021883 -0.0235499 -0.0244801 -0.0246734 -0.0241299 -0.0226732 -0.0201266 -0.0164904 -0.0117643 -0.00584963 0.00135268 0.00984259 0.0196201 0.0306034 0.0427105 0.0559415 0.0702964 0.0854472 0.101066 0.117152 0.133707 0.150225 0.166202 0.181638 0.196533 0.210398 0.222744 0.233571 0.242878 0.250382 0.255797 0.259124 0.260362 0.259522 0.256615 0.251642 0.244601 0.23579 0.225503 0.213742 0.200505 0.186275 0.171533 0.156278 0.14051 0.124721 0.109401 0.0945505 0.0801686 0.0665763 0.0540943 0.0427225 0.0324609 0.0233817 0.0155573 0.00898752 0.00367248 -0.000519954 -0.00372185 -0.00593321 -0.00715403 -0.00763178 -0.00761393 -0.00710048 -0.00609142 -0.00487987 -0.00375893 -0.00272859 -0.00178886 -0.00100623 -0.000447214 -0.000111804 0 0 -7.6077e-05 -0.000304308 -0.000684693 -0.00121723 -0.00191366 -0.0027857 -0.00383336 -0.00505664 -0.00634526 -0.00758896 -0.00878773 -0.00994158 -0.0109588 -0.0117476 -0.0123082 -0.0126403 -0.0126871 -0.0123914 -0.0117533 -0.0107728 -0.00944603 -0.00776918 -0.00574227 -0.00336529 -0.00070509 0.00217149 0.00526446 0.0085738 0.0119684 0.0153171 0.01862 0.021877 0.0249351 0.0276415 0.0299961 0.0319989 0.0335402 0.0345105 0.0349096 0.0347377 0.0339834 0.0326357 0.0306944 0.0281597 0.025134 0.0217201 0.017918 0.0137275 0.00933616 0.00493128 0.000512846 -0.00391912 -0.00813939 -0.0119227 -0.0152691 -0.0181786 -0.0204219 -0.0217699 -0.0222225 -0.0217798 -0.0202382 -0.0173941 -0.0132474 -0.00779826 -0.00093924 0.00743695 0.0173303 0.0287408 0.041562 0.0556871 0.0711162 0.0878492 0.105495 0.123663 0.142353 0.161564 0.180711 0.199209 0.217056 0.234254 0.250247 0.26448 0.276952 0.287665 0.2963 0.302542 0.306389 0.307843 0.306913 0.303613 0.297942 0.2899 0.279813 0.26801 0.254489 0.239252 0.222839 0.205795 0.188119 0.169811 0.151437 0.133563 0.116189 0.0993149 0.0833205 0.0685848 0.0551078 0.0428896 0.0320228 0.0226003 0.0146221 0.00808813 0.00285227 -0.00123176 -0.00416394 -0.00594427 -0.00685196 -0.00716619 -0.00688697 -0.0060143 -0.00487622 -0.00380077 -0.00278794 -0.00183775 -0.00103374 -0.000459438 -0.00011486 0 0 -8.26389e-05 -0.000330556 -0.00074375 -0.00132222 -0.00207179 -0.00299826 -0.00410163 -0.00538191 -0.00670933 -0.0079541 -0.00911623 -0.0101957 -0.0110847 -0.0116753 -0.0119675 -0.0119613 -0.0115909 -0.0107905 -0.00955992 -0.0078993 -0.00580953 -0.0032915