<?xml version="1.0"?> 
<VTKFile type="StructuredGrid" version="0.1"> 
<StructuredGrid WholeExtent="0 128 0 128 0 0"> 
<Piece Extent="0 128 0 128 0 0"> 
<PointData>
<DataArray type="Float32" Name="u" format="ascii" NumberOfComponents="1"> 
0 0 0 0 0 0 0 0 0 0 0 0 0 0 0 0 0 0 0 0 0 0 0 0 0 0 0 0 0 0 0 0 0 0 0 0 0 0 0 0 0 0 0 0 0 0 0 0 0 0 0 0 0 0 0 0 0 0 0 0 0 0 0 0 0 0 0 0 0 0 0 0 0 0 0 0 0 0 0 0 0 0 0 0 0 0 0 0 0 0 0 0 0 0 0 0 0 0 0 0 0 0 0 0 0 0 0 0 0 0 0 0 0 0 0 0 0 0 0 0 0 0 0 0 0 0 0 0 0 0 2.35871e-07 9.43483e-07 2.12284e-06 3.77393e-06 5.81867e-06 8.17896e-06 1.08548e-05 1.38462e-05 1.67858e-05 1.93061e-05 2.14073e-05 2.30893e-05 2.42657e-05 2.48501e-05 2.48427e-05 2.42433e-05 2.31269e-05 2.15684e-05 1.95679e-05 1.71253e-05 1.43517e-05 1.13578e-05 8.14368e-06 4.70938e-06 1.14433e-06 -2.46202e-06 -6.10966e-06 -9.79861e-06 -1.34418e-05 -1.69521e-05 -2.03297e-05 -2.35744e-05 -2.65566e-05 -2.91466e-05 -3.13445e-05 -3.31502e-05 -3.44228e-05 -3.50216e-05 -3.49464e-05 -3.41973e-05 -3.2764e-05 -3.06364e-05 -2.78143e-05 -2.42978e-05 -2.03427e-05 -1.6205e-05 -1.18847e-05 -7.38175e-06 -3.16817e-06 2.83976e-07 2.97469e-06 4.90397e-06 5.64867e-06 4.78562e-06 2.31482e-06 -1.76372e-06 -7.56128e-06 -1.51891e-05 -2.46473e-05 -3.59357e-05 -4.8858e-05 -6.32179e-05 -7.90153e-05 -9.62502e-05 -0.000114677 -0.000134048 -0.000154366 -0.000175628 -0.000197718 -0.000220514 -0.000244019 -0.000268231 -0.00029299 -0.000318135 -0.000343666 -0.000369584 -0.000395371 -0.000420511 -0.000445006 -0.000468853 -0.000491215 -0.000511251 -0.000528962 -0.000544348 -0.000556763 -0.000565564 -0.00057075 -0.000572321 -0.000570345 -0.000564888 -0.000555951 -0.000543534 -0.00052836 -0.000511153 -0.000491913 -0.000470639 -0.000448132 -0.000425191 -0.000401816 -0.000378008 -0.000354162 -0.000330675 -0.000307545 -0.000284774 -0.000262412 -0.000240513 -0.000219076 -0.0001981 -0.000177665 -0.000157851 -0.000138656 -0.000120081 -0.000102402 -8.58927e-05 -7.05537e-05 -5.6385e-05 -4.3676e-05 -3.27161e-05 -2.35052e-05 -1.60433e-05 -1.01897e-05 -5.80366e-06 -2.88519e-06 -1.43427e-06 -8.0678e-07 -3.58569e-07 -8.96422e-08 0 0 9.43483e-07 3.77393e-06 8.49134e-06 1.50957e-05 2.32747e-05 3.27158e-05 4.34192e-05 5.53848e-05 6.7143e-05 7.72245e-05 8.56292e-05 9.23571e-05 9.70627e-05 9.94006e-05 9.93707e-05 9.6973e-05 9.25074e-05 8.62736e-05 7.82716e-05 6.85014e-05 5.74066e-05 4.54311e-05 3.25747e-05 1.88375e-05 4.57732e-06 -9.84807e-06 -2.44387e-05 -3.91944e-05 -5.37672e-05 -6.78086e-05 -8.13187e-05 -9.42975e-05 -0.000106226 -0.000116586 -0.000125378 -0.000132601 -0.000137691 -0.000140086 -0.000139786 -0.000136789 -0.000131056 -0.000122545 -0.000111257 -9.7191e-05 -8.13709e-05 -6.48202e-05 -4.75389e-05 -2.9527e-05 -1.26727e-05 1.1359e-06 1.18988e-05 1.96159e-05 2.25947e-05 1.91425e-05 9.2593e-06 -7.05487e-06 -3.02451e-05 -6.07565e-05 -9.85891e-05 -0.000143743 -0.000195432 -0.000252872 -0.000316061 -0.000385001 -0.000458706 -0.000536194 -0.000617463 -0.000702513 -0.00079087 -0.000882057 -0.000976076 -0.00107292 -0.00117196 -0.00127254 -0.00137467 -0.00147833 -0.00158148 -0.00168205 -0.00178002 -0.00187541 -0.00196486 -0.002045 -0.00211585 -0.00217739 -0.00222705 -0.00226226 -0.002283 -0.00228928 -0.00228138 -0.00225955 -0.00222381 -0.00217414 -0.00211344 -0.00204461 -0.00196765 -0.00188256 -0.00179253 -0.00170076 -0.00160727 -0.00151203 -0.00141665 -0.0013227 -0.00123018 -0.0011391 -0.00104965 -0.000962052 -0.000876302 -0.0007924 -0.000710662 -0.000631403 -0.000554625 -0.000480326 -0.000409608 -0.000343571 -0.000282215 -0.00022554 -0.000174704 -0.000130864 -9.40207e-05 -6.41731e-05 -4.07588e-05 -2.32147e-05 -1.15408e-05 -5.7371e-06 -3.22712e-06 -1.43427e-06 -3.58569e-07 0 0 2.12284e-06 8.49134e-06 1.91055e-05 3.39654e-05 5.2368e-05 7.36106e-05 9.76932e-05 0.000124616 0.000151072 0.000173755 0.000192666 0.000207803 0.000218391 0.000223651 0.000223584 0.000218189 0.000208142 0.000194116 0.000176111 0.000154128 0.000129165 0.00010222 7.32931e-05 4.23844e-05 1.0299e-05 -2.21582e-05 -5.4987e-05 -8.81875e-05 -0.000120976 -0.000152569 -0.000182967 -0.000212169 -0.000239009 -0.00026232 -0.0002821 -0.000298352 -0.000309805 -0.000315194 -0.000314518 -0.000307776 -0.000294876 -0.000275727 -0.000250328 -0.00021868 -0.000183085 -0.000145845 -0.000106962 -6.64357e-05 -2.85135e-05 2.55578e-06 2.67722e-05 4.41358e-05 5.0838e-05 4.30706e-05 2.08334e-05 -1.58735e-05 -6.80515e-05 -0.000136702 -0.000221825 -0.000323421 -0.000439722 -0.000568961 -0.000711138 -0.000866252 -0.00103209 -0.00120644 -0.00138929 -0.00158065 -0.00177946 -0.00198463 -0.00219617 -0.00241408 -0.00263691 -0.00286322 -0.003093 -0.00332625 -0.00355834 -0.0037846 -0.00400505 -0.00421968 -0.00442093 -0.00460126 -0.00476066 -0.00489913 -0.00501087 -0.00509007 -0.00513675 -0.00515089 -0.0051331 -0.00508399 -0.00500356 -0.00489181 -0.00475524 -0.00460038 -0.00442721 -0.00423575 -0.00403319 -0.00382672 -0.00361635 -0.00340207 -0.00318746 -0.00297607 -0.00276791 -0.00256296 -0.00236171 -0.00216462 -0.00197168 -0.0017829 -0.00159899 -0.00142066 -0.00124791 -0.00108073 -0.000921617 -0.000773034 -0.000634983 -0.000507465 -0.000393084 -0.000294445 -0.000211546 -0.00014439 -9.17072e-05 -5.2233e-05 -2.59667e-05 -1.29085e-05 -7.26102e-06 -3.22712e-06 -8.0678e-07 0 0 3.77393e-06 1.50957e-05 3.39654e-05 6.03829e-05 9.30987e-05 0.000130863 0.000173677 0.000221539 0.000268572 0.000308898 0.000342517 0.000369428 0.000388251 0.000397602 0.000397483 0.000387892 0.00037003 0.000345094 0.000313086 0.000274005 0.000229627 0.000181724 0.000130299 7.53501e-05 1.83093e-05 -3.93923e-05 -9.77546e-05 -0.000156778 -0.000215069 -0.000271234 -0.000325275 -0.00037719 -0.000424905 -0.000466346 -0.000501512 -0.000530403 -0.000550765 -0.000560345 -0.000559142 -0.000547157 -0.000524225 -0.000490182 -0.000445028 -0.000388764 -0.000325484 -0.000259281 -0.000190155 -0.000118108 -5.06907e-05 4.54361e-06 4.7595e-05 7.84636e-05 9.03787e-05 7.65699e-05 3.70372e-05 -2.82195e-05 -0.00012098 -0.000243026 -0.000394356 -0.000574971 -0.000781728 -0.00101149 -0.00126424 -0.00154 -0.00183483 -0.00214477 -0.00246985 -0.00281005 -0.00316348 -0.00352823 -0.0039043 -0.0042917 -0.00468784 -0.00509016 -0.00549866 -0.00591334 -0.00632593 -0.00672818 -0.00712009 -0.00750165 -0.00785944 -0.00818002 -0.00846339 -0.00870956 -0.00890821 -0.00904902 -0.009132 -0.00915714 -0.00912551 -0.00903821 -0.00889522 -0.00869655 -0.00845377 -0.00817845 -0.0078706 -0.00753022 -0.00717011 -0.00680305 -0.00642906 -0.00604813 -0.0056666 -0.0052908 -0.00492072 -0.00455638 -0.0041986 -0.00384821 -0.00350521 -0.0031696 -0.00284265 -0.00252561 -0.0022185 -0.0019213 -0.00163843 -0.00137428 -0.00112886 -0.000902161 -0.000698817 -0.000523457 -0.000376083 -0.000256692 -0.000163035 -9.28586e-05 -4.61631e-05 -2.29484e-05 -1.29085e-05 -5.7371e-06 -1.43427e-06 0 0 5.75062e-06 2.30025e-05 5.17556e-05 9.20099e-05 0.000141572 0.000198248 0.000262037 0.000332941 0.000401903 0.000459869 0.000506837 0.000542809 0.000565712 0.000573475 0.000566099 0.000543583 0.000507838 0.000460771 0.000402384 0.000332677 0.000254451 0.000170509 8.08509e-05 -1.45237e-05 -0.000113291 -0.000213128 -0.000314035 -0.000416011 -0.000516669 -0.000613623 -0.000706871 -0.000796413 -0.000878735 -0.000950318 -0.00101116 -0.00106127 -0.00109698 -0.00111462 -0.0011142 -0.00109571 -0.00105905 -0.0010041 -0.000930869 -0.000839345 -0.000736263 -0.000628352 -0.000515612 -0.000398043 -0.000287638 -0.000196391 -0.000124302 -7.13714e-05 -4.79532e-05 -6.44029e-05 -0.00012072 -0.000216906 -0.000355165 -0.000537704 -0.000764522 -0.00103562 -0.00134558 -0.00168897 -0.00206581 -0.00247608 -0.00291367 -0.00337244 -0.00385239 -0.00435353 -0.00487357 -0.00541023 -0.00596352 -0.00653344 -0.00711698 -0.00771112 -0.00831587 -0.00893123 -0.00954505 -0.0101452 -0.0107316 -0.0113044 -0.0118427 -0.0123258 -0.0127537 -0.0131265 -0.0134278 -0.0136416 -0.0137677 -0.0138063 -0.013759 -0.0136273 -0.0134113 -0.013111 -0.0127445 -0.0123298 -0.0118669 -0.0113559 -0.0108163 -0.0102679 -0.00971072 -0.00914468 -0.0085789 -0.00802248 -0.00747542 -0.00693772 -0.00640968 -0.00589161 -0.0053835 -0.00488536 -0.00439849 -0.00392419 -0.00346248 -0.00301333 -0.0025836 -0.00218012 -0.00180289 -0.0014519 -0.00113491 -0.000859679 -0.000626197 -0.000434467 -0.000282071 -0.000166591 -8.80271e-05 -4.63794e-05 -2.60884e-05 -1.15948e-05 -2.89871e-06 0 0 7.90675e-06 3.1627e-05 7.11607e-05 0.000126508 0.000193892 0.000269537 0.000353443 0.000445609 0.000533326 0.000603884 0.000657282 0.000693522 0.000709845 0.000703493 0.000674466 0.000622765 0.000551231 0.000462707 0.000357192 0.000234686 9.92987e-05 -4.48604e-05 -0.000197792 -0.000359495 -0.000526402 -0.000694944 -0.000865121 -0.00103693 -0.0012064 -0.00136955 -0.00152638 -0.00167689 -0.00181532 -0.00193589 -0.00203861 -0.00212347 -0.00218485 -0.0022171 -0.00222023 -0.00219423 -0.00213931 -0.00205569 -0.00194336 -0.00180232 -0.00164312 -0.00147628 -0.00130182 -0.00111974 -0.000947789 -0.00080374 -0.00068759 -0.00059934 -0.000553328 -0.000563891 -0.000631031 -0.000754746 -0.000936739 -0.00117871 -0.00148066 -0.0018426 -0.00225539 -0.00270995 -0.00320626 -0.00374432 -0.00431537 -0.00491065 -0.00553016 -0.00617389 -0.00684034 -0.00752801 -0.00823689 -0.00896698 -0.00971654 -0.0104838 -0.0112688 -0.0120715 -0.0128765 -0.013668 -0.0144461 -0.0152109 -0.015933 -0.0165832 -0.0171614 -0.0176676 -0.0180784 -0.0183701 -0.0185429 -0.0185967 -0.0185338 -0.0183563 -0.0180643 -0.0176579 -0.0171629 -0.0166054 -0.0159852 -0.0153026 -0.0145848 -0.0138595 -0.0131266 -0.0123862 -0.0116492 -0.0109267 -0.0102188 -0.00952536 -0.00884433 -0.0081736 -0.00751317 -0.00686304 -0.00622337 -0.00559433 -0.00497591 -0.00436812 -0.0037807 -0.00322336 -0.00269612 -0.00219896 -0.00174439 -0.00134489 -0.00100046 -0.000711097 -0.000476143 -0.000294929 -0.000167456 -9.37239e-05 -5.27197e-05 -2.3431e-05 -5.85774e-06 0 0 1.02423e-05 4.09693e-05 9.21809e-05 0.000163877 0.00025006 0.000344732 0.000447893 0.000559542 0.000662839 0.000740942 0.000793852 0.000821568 0.000820649 0.000787654 0.000722583 0.000625437 0.000500211 0.000350901 0.000177508 -1.99678e-05 -0.000235831 -0.000464385 -0.000705629 -0.000959564 -0.00122102 -0.00148484 -0.00175101 -0.00201954 -0.00228427 -0.00253903 -0.00278381 -0.00301863 -0.00323465 -0.00342306 -0.00358384 -0.00371701 -0.00381438 -0.00386779 -0.00387723 -0.0038427 -0.00376501 -0.00364494 -0.0034825 -0.0032777 -0.00304604 -0.00280308 -0.00254879 -0.0022832 -0.00203114 -0.0018175 -0.00164227 -0.00150544 -0.00142575 -0.0014219 -0.00149389 -0.00164174 -0.0018657 -0.00216605 -0.00254278 -0.0029959 -0.00351118 -0.00407441 -0.00468559 -0.00534471 -0.00603994 -0.00675942 -0.00750316 -0.00827115 -0.00906381 -0.00988156 -0.0107244 -0.0115923 -0.0124865 -0.0134083 -0.0143575 -0.0153343 -0.0163201 -0.0172966 -0.0182636 -0.0192212 -0.0201304 -0.0209521 -0.0216863 -0.022333 -0.0228599 -0.0232348 -0.0234576 -0.0235283 -0.0234499 -0.0232253 -0.0228543 -0.0223372 -0.021709 -0.0210051 -0.0202256 -0.0193703 -0.0184756 -0.0175778 -0.0166768 -0.0157726 -0.0148775 -0.0140036 -0.0131508 -0.0123193 -0.0115025 -0.0106942 -0.00989422 -0.00910263 -0.00831729 -0.00753601 -0.0067588 -0.00598567 -0.00522971 -0.004504 -0.00380854 -0.00314334 -0.00252724 -0.00197908 -0.00149886 -0.00108658 -0.000745251 -0.000477873 -0.00028445 -0.000164982 -9.28023e-05 -4.12455e-05 -1.03114e-05 0 0 1.27573e-05 5.10294e-05 0.000114816 0.000204118 0.000310076 0.000423832 0.000545387 0.00067474 0.000790443 0.000871045 0.000916546 0.000926946 0.000898124 0.000825959 0.000710451 0.000551599 0.000354776 0.000125354 -0.000136666 -0.000431284 -0.000750938 -0.00108806 -0.00144266 -0.00181473 -0.00219715 -0.00258281 -0.00297171 -0.00336384 -0.00375027 -0.00412204 -0.00447916 -0.00482162 -0.00513674 -0.00541182 -0.00564687 -0.00584188 -0.00598557 -0.00606668 -0.0060852 -0.00604113 -0.00593613 -0.00577186 -0.0055483 -0.00526547 -0.00494505 -0.00460873 -0.00425652 -0.00388841 -0.0035377 -0.00323768 -0.00298834 -0.00278968 -0.0026652 -0.00263841 -0.00270931 -0.00287789 -0.00314205 -0.00349971 -0.00395087 -0.00449553 -0.00511294 -0.00578236 -0.0065038 -0.00727726 -0.00808736 -0.00891874 -0.00977138 -0.0106453 -0.011544 -0.0124709 -0.013426 -0.0144094 -0.0154269 -0.0164845 -0.017582 -0.0187195 -0.0198761 -0.021031 -0.0221841 -0.0233354 -0.0244349 -0.0254326 -0.0263285 -0.0271226 -0.0277724 -0.0282355 -0.0285117 -0.0286012 -0.0285075 -0.0282342 -0.0277813 -0.0271488 -0.0263828 -0.0255291 -0.0245879 -0.0235591 -0.0224887 -0.0214228 -0.0203612 -0.0193041 -0.0182638 -0.017253 -0.0162716 -0.0153195 -0.0143843 -0.0134534 -0.0125266 -0.0116042 -0.0106802 -0.00974924 -0.00881116 -0.00786598 -0.00693063 -0.00602203 -0.00514016 -0.00428504 -0.00348347 -0.00276227 -0.00212142 -0.00156093 -0.0010894 -0.000715423 -0.000439009 -0.000260154 -0.000146336 -6.50384e-05 -1.62596e-05 0 0 1.48364e-05 5.93458e-05 0.000133528 0.000237383 0.000358662 0.000485116 0.000616745 0.000753549 0.000869716 0.000939433 0.0009627 0.000939517 0.000865435 0.000736003 0.00055122 0.000311088 2.25591e-05 -0.000307415 -0.000678834 -0.0010917 -0.0015366 -0.00200411 -0.00249425 -0.00300701 -0.0035333 -0.00406404 -0.00459923 -0.00513887 -0.00567076 -0.00618273 -0.00667477 -0.00714688 -0.00758162 -0.00796156 -0.00828669 -0.00855701 -0.00875754 -0.00887329 -0.00890426 -0.00885046 -0.00871478 -0.00850013 -0.0082065 -0.00783391 -0.00741142 -0.00696815 -0.00650408 -0.00601921 -0.00555615 -0.00515749 -0.00482322 -0.00455336 -0.00437544 -0.00431702 -0.00437809 -0.00455867 -0.00485193 -0.00525109 -0.00575613 -0.00636706 -0.00705422 -0.00778797 -0.00856831 -0.00939522 -0.0102495 -0.011112 -0.0119826 -0.0128614 -0.0137577 -0.0146805 -0.0156299 -0.016606 -0.0176234 -0.0186969 -0.0198264 -0.021012 -0.0222334 -0.0234701 -0.024722 -0.0259894 -0.0272114 -0.0283276 -0.0293379 -0.0302422 -0.0309872 -0.0315191 -0.0318379 -0.0319437 -0.0318407 -0.031533 -0.0310207 -0.0303038 -0.0294395 -0.0284852 -0.0274409 -0.0263066 -0.0251374 -0.0239883 -0.0228593 -0.0217505 -0.0206715 -0.0196322 -0.0186325 -0.0176725 -0.0167293 -0.0157801 -0.014825 -0.0138639 -0.0128852 -0.0118772 -0.01084 -0.00977344 -0.00869863 -0.00763657 -0.00658724 -0.00555065 -0.00456401 -0.00366452 -0.00285217 -0.00212699 -0.00150671 -0.0010091 -0.000634153 -0.000381879 -0.000214807 -9.54698e-05 -2.38675e-05 0 0 1.58642e-05 6.3457e-05 0.000142778 0.000253828 0.000380544 0.000506863 0.000632786 0.000758313 0.000854237 0.000891349 0.000869651 0.000789142 0.000645744 0.000435378 0.000158044 -0.000186257 -0.000588808 -0.00104089 -0.0015425 -0.00209365 -0.00268338 -0.00330075 -0.00394576 -0.00461841 -0.00530796 -0.00600369 -0.00670558 -0.00741365 -0.00811212 -0.00878523 -0.009433 -0.0100554 -0.0106293 -0.0111316 -0.0115623 -0.0119213 -0.0121894 -0.0123471 -0.0123945 -0.0123316 -0.012163 -0.0118935 -0.0115229 -0.0110513 -0.0105165 -0.00995623 -0.00937054 -0.00875942 -0.00817518 -0.00767016 -0.00724436 -0.00689778 -0.00666017 -0.00656126 -0.00660106 -0.00677956 -0.00708149 -0.00749155 -0.00800974 -0.00863608 -0.00932861 -0.0100454 -0.0107865 -0.0115518 -0.0123183 -0.0130625 -0.0137847 -0.0144847 -0.0151817 -0.0158948 -0.0166241 -0.0173696 -0.0181614 -0.0190299 -0.0199751 -0.0209969 -0.0220809 -0.0232126 -0.0243921 -0.0256193 -0.0268251 -0.02794 -0.0289643 -0.0298977 -0.0306754 -0.0312325 -0.0315688 -0.0316845 -0.031584 -0.0312719 -0.0307482 -0.0300129 -0.0291344 -0.0281811 -0.0271532 -0.0260504 -0.0249348 -0.0238682 -0.0228506 -0.0218819 -0.0209639 -0.0200984 -0.0192852 -0.0185244 -0.0177769 -0.0170033 -0.0162038 -0.0153782 -0.0145051 -0.0135632 -0.0125523 -0.0114724 -0.0103489 -0.00920672 -0.00804602 -0.00686675 -0.00571976 -0.00465591 -0.0036752 -0.00277762 -0.00199531 -0.00136041 -0.000872901 -0.0005328 -0.0002997 -0.0001332 -3.33e-05 0 0 1.58408e-05 6.3363e-05 0.000142567 0.000253452 0.00037572 0.000489073 0.00059351 0.000689032 0.000744005 0.000726793 0.000637398 0.00047582 0.000239051 -7.59148e-05 -0.000469078 -0.000940438 -0.00147932 -0.00207507 -0.00272767 -0.00343713 -0.00419128 -0.00497797 -0.00579718 -0.00664893 -0.00752115 -0.00840176 -0.00929077 -0.0101882 -0.0110743 -0.0119295 -0.0127538 -0.0135472 -0.0142799 -0.014922 -0.0154737 -0.0159349 -0.0162811 -0.0164882 -0.016556 -0.0164846 -0.0162809 -0.0159518 -0.0154974 -0.0149176 -0.0142602 -0.013573 -0.0128559 -0.012109 -0.0113948 -0.0107757 -0.0102518 -0.00982296 -0.0095194 -0.00937115 -0.00937821 -0.00954057 -0.00983071 -0.0102211 -0.0107117 -0.0113026 -0.0119361 -0.0125547 -0.0131584 -0.0137471 -0.0142936 -0.0147704 -0.0151775 -0.015515 -0.015816 -0.0161139 -0.0164086 -0.0167002 -0.0170411 -0.0174836 -0.018028 -0.018674 -0.0194186 -0.0202587 -0.0211943 -0.0222253 -0.0232759 -0.02427 -0.0252077 -0.026089 -0.0268372 -0.0273757 -0.0277045 -0.0278235 -0.0277374 -0.0274509 -0.0269638 -0.0262762 -0.0254675 -0.0246169 -0.0237246 -0.0227906 -0.0218811 -0.0210626 -0.020335 -0.0196984 -0.0191411 -0.0186515 -0.0182297 -0.0178755 -0.0175272 -0.0171231 -0.016663 -0.016147 -0.01554 -0.014807 -0.013948 -0.012963 -0.0118813 -0.0107325 -0.0095165 -0.00823334 -0.00695075 -0.00573646 -0.00459049 -0.00351284 -0.00255521 -0.00176935 -0.00115525 -0.000712915 -0.000401015 -0.000178229 -4.45572e-05 0 0 1.4766e-05 5.90639e-05 0.000132894 0.000236255 0.000344192 0.000431746 0.000498917 0.000545707 0.00053902 0.000445766 0.000265943 -4.4888e-07 -0.000354643 -0.000797876 -0.00133015 -0.00195145 -0.00264899 -0.00340995 -0.00423434 -0.00512214 -0.00606031 -0.00703577 -0.00804853 -0.00909858 -0.0101729 -0.0112583 -0.0123548 -0.0134625 -0.0145574 -0.0156157 -0.0166373 -0.0176223 -0.0185332 -0.0193328 -0.0200209 -0.0205976 -0.0210328 -0.0212965 -0.0213887 -0.0213094 -0.0210684 -0.0206752 -0.0201301 -0.0194328 -0.0186426 -0.0178184 -0.0169602 -0.016068 -0.015215 -0.0144741 -0.0138454 -0.0133289 -0.0129531 -0.0127467 -0.0127095 -0.0128417 -0.0130996 -0.0134397 -0.013862 -0.0143666 -0.0148767 -0.0153158 -0.015684 -0.0159811 -0.0161755 -0.0162356 -0.0161612 -0.0159523 -0.0156607 -0.0153377 -0.0149834 -0.0145979 -0.0142623 -0.014058 -0.0139851 -0.0140434 -0.0142466 -0.0146083 -0.0151285 -0.0158072 -0.0165637 -0.0173174 -0.0180682 -0.0188161 -0.0194725 -0.0199487 -0.0202448 -0.0203607 -0.0203009 -0.0200698 -0.0196674 -0.0190937 -0.0184387 -0.0177926 -0.0171554 -0.016527 -0.0159761 -0.0155713 -0.0153126 -0.0151999 -0.015203 -0.0152917 -0.0154659 -0.0157256 -0.0159803 -0.0161393 -0.0162027 -0.0161704 -0.0159899 -0.0156089 -0.0150273 -0.014245 -0.013296 -0.0122139 -0.0109987 -0.00965042 -0.00825695 -0.00690616 -0.00559806 -0.00433263 -0.00318641 -0.00223594 -0.00148121 -0.000922225 -0.000518752 -0.000230556 -5.76391e-05 0 0 1.22918e-05 4.91672e-05 0.000110626 0.000196669 0.000277655 0.000323946 0.000335542 0.000312441 0.000222018 3.1646e-05 -0.000258676 -0.000648947 -0.00113739 -0.00172225 -0.0024035 -0.00318116 -0.00404013 -0.00496534 -0.00595677 -0.00701444 -0.00812538 -0.00927664 -0.0104682 -0.0117001 -0.0129596 -0.014234 -0.0155232 -0.0168274 -0.0181188 -0.01937 -0.0205809 -0.0217516 -0.0228365 -0.0237901 -0.0246124 -0.0253034 -0.0258269 -0.0261465 -0.0262623 -0.0261742 -0.0258955 -0.025439 -0.0248049 -0.023993 -0.023075 -0.0221223 -0.0211348 -0.0201125 -0.0191388 -0.0182971 -0.0175873 -0.0170095 -0.0165872 -0.0163442 -0.0162804 -0.0163959 -0.0166255 -0.016904 -0.0172315 -0.0176079 -0.0179329 -0.018106 -0.0181273 -0.0179968 -0.0176779 -0.0171343 -0.0163659 -0.0153728 -0.0142303 -0.0130141 -0.0117241 -0.0103603 -0.00904232 -0.0078896 -0.00690219 -0.00608008 -0.00546157 -0.00508495 -0.00495024 -0.00505741 -0.00532422 -0.00566838 -0.0060899 -0.00658877 -0.0070642 -0.00741539 -0.00764233 -0.00774504 -0.00772734 -0.00759308 -0.00734228 -0.00697491 -0.00659131 -0.00629179 -0.00607636 -0.00594501 -0.00596525 -0.0062046 -0.00666305 -0.00734061 -0.00818101 -0.009128 -0.0101816 -0.0113417 -0.0124808 -0.0134711 -0.0143126 -0.0150053 -0.0154745 -0.0156456 -0.0155185 -0.0150932 -0.0144081 -0.0135017 -0.0123739 -0.0110247 -0.00956618 -0.0081106 -0.00665792 -0.00520812 -0.00386858 -0.00274667 -0.00184238 -0.00115571 -0.000650088 -0.000288928 -7.2232e-05 0 0 8.0702e-06 3.22808e-05 7.26318e-05 0.000129123 0.000167808 0.000154739 8.99172e-05 -2.66584e-05 -0.000224266 -0.000532185 -0.000950415 -0.00147896 -0.00211126 -0.00284077 -0.00366749 -0.00459141 -0.00559508 -0.00666103 -0.00778925 -0.00897976 -0.0102214 -0.011503 -0.0128247 -0.0141863 -0.015578 -0.0169898 -0.0184217 -0.0198737 -0.021316 -0.0227189 -0.0240822 -0.0254061 -0.0266367 -0.0277203 -0.0286568 -0.0294463 -0.0300459 -0.0304125 -0.0305463 -0.0304471 -0.0301322 -0.0296183 -0.0289057 -0.0279942 -0.0269688 -0.0259144 -0.024831 -0.0237185 -0.0226696 -0.0217766 -0.0210396 -0.0204586 -0.0200474 -0.0198199 -0.0197762 -0.0199162 -0.0201458 -0.0203707 -0.0205909 -0.0208066 -0.0208873 -0.0207026 -0.0202525 -0.0195372 -0.0185146 -0.0171429 -0.015422 -0.0133521 -0.0110396 -0.00859095 -0.00600617 -0.00328527 -0.000598174 0.00188521 0.00416487 0.00624081 0.00803955 0.00948762 0.010585 0.0113317 0.0118072 0.012091 0.0121829 0.0120832 0.0119046 0.0117604 0.0116504 0.0115746 0.0115304 0.011515 0.0115283 0.0115704 0.0115316 0.0113019 0.0108815 0.0102703 0.00940624 0.0082274 0.00673375 0.00492528 0.00289362 0.000730417 -0.00156434 -0.00399064 -0.00637333 -0.00853724 -0.0104824 -0.0122087 -0.0136135 -0.014594 -0.0151501 -0.015282 -0.015033 -0.0144468 -0.0135234 -0.0122627 -0.0108062 -0.00929537 -0.00773011 -0.00611044 -0.00458141 -0.00328806 -0.00223037 -0.00140836 -0.0007922 -0.000352089 -8.80223e-05 0 0 2.10114e-06 8.40456e-06 1.89103e-05 3.36182e-05 1.46494e-05 -7.58753e-05 -0.000237956 -0.000471592 -0.000799833 -0.00124573 -0.00180928 -0.00249048 -0.00327623 -0.00415344 -0.0051221 -0.00618221 -0.00731383 -0.00849702 -0.00973177 -0.0110181 -0.0123484 -0.013715 -0.0151179 -0.0165571 -0.0180279 -0.0195256 -0.0210501 -0.0226014 -0.024149 -0.0256623 -0.0271412 -0.0285858 -0.0299338 -0.0311233 -0.0321541 -0.0330263 -0.0336898 -0.0340947 -0.0342408 -0.0341282 -0.0337785 -0.0332133 -0.0324326 -0.0314364 -0.030324 -0.0291948 -0.0280489 -0.0268862 -0.0258072 -0.0249125 -0.0242022 -0.0236762 -0.0233337 -0.023174 -0.0231969 -0.0234026 -0.0236603 -0.0238396 -0.0239403 -0.0239626 -0.0237398 -0.0231055 -0.0220596 -0.0206023 -0.0186855 -0.0162613 -0.0133296 -0.00989048 -0.0060885 -0.00206821 0.00217039 0.0066273 0.0110701 0.0152664 0.0192161 0.0229193 0.0262568 0.0291095 0.0314773 0.0333602 0.0348306 0.0359606 0.0367503 0.0371997 0.0374341 0.0375786 0.0376334 0.0375983 0.0374723 0.0372544 0.0369444 0.0365424 0.03593 0.0349885 0.0337181 0.0321188 0.0301384 0.0277247 0.0248778 0.0215978 0.0180209 0.0142835 0.0103858 0.00632762 0.00234205 -0.00133787 -0.00471213 -0.00778075 -0.010407 -0.0124542 -0.0139223 -0.0148113 -0.0151705 -0.0150491 -0.0144471 -0.0133646 -0.0119771 -0.0104605 -0.00881463 -0.00703959 -0.0053249 -0.0038601 -0.00264518 -0.00168016 -0.00094509 -0.00042004 -0.00010501 0 0 -5.61537e-06 -2.24615e-05 -5.05383e-05 -8.98459e-05 -0.00018182 -0.000367897 -0.000648077 -0.00102236 -0.00150468 -0.00210898 -0.00283526 -0.00368351 -0.00463232 -0.00566026 -0.00676734 -0.00795355 -0.00919638 -0.0104733 -0.0117843 -0.0131295 -0.0145063 -0.0159124 -0.0173478 -0.0188126 -0.0203095 -0.0218415 -0.0234085 -0.0250106 -0.0266179 -0.0282003 -0.0297578 -0.0312906 -0.0327279 -0.0339991 -0.0351043 -0.0360433 -0.0367587 -0.0371929 -0.0373457 -0.0372173 -0.0368344 -0.0362238 -0.0353855 -0.0343194 -0.0331405 -0.0319635 -0.0307885 -0.0296153 -0.0285516 -0.0277049 -0.0270752 -0.0266624 -0.0264462 -0.0264063 -0.0265425 -0.026855 -0.0271693 -0.0273108 -0.0272796 -0.0270758 -0.0264904 -0.0253147 -0.0235486 -0.0211922 -0.0181907 -0.0144895 -0.0100885 -0.00498779 0.000622978 0.0065541 0.0128056 0.0193774 0.0259625 0.0322539 0.0382515 0.0439554 0.0491902 0.0537806 0.0577265 0.061028 0.0637458 0.0659406 0.0676123 0.0687609 0.0695241 0.0700393 0.0703066 0.070326 0.0700984 0.0696251 0.0689059 0.067941 0.0666038 0.064768 0.0624336 0.0596006 0.0562311 0.0522873 0.0477692 0.0426768 0.0372007 0.0315314 0.0256688 0.019613 0.0136654 0.00812707 0.00299817 -0.00172133 -0.00585493 -0.00922612 -0.0118349 -0.0136813 -0.0148207 -0.0153087 -0.0151452 -0.0143303 -0.0130788 -0.0116059 -0.00991148 -0.00799556 -0.00609904 -0.00446279 -0.00308682 -0.00197112 -0.00110876 -0.00049278 -0.000123195 0 0 -1.50443e-05 -6.01771e-05 -0.000135399 -0.000240709 -0.000420075 -0.000717466 -0.00113288 -0.00166632 -0.00231868 -0.00309087 -0.00398289 -0.00499473 -0.0060941 -0.00724872 -0.00845858 -0.00972368 -0.0110188 -0.0123187 -0.0136233 -0.0149328 -0.0162525 -0.0175882 -0.0189396 -0.020307 -0.0217049 -0.0231482 -0.0246368 -0.0261707 -0.0277239 -0.0292703 -0.0308099 -0.0323427 -0.0337906 -0.0350754 -0.0361971 -0.0371556 -0.0378859 -0.0383226 -0.0384657 -0.0383153 -0.037904 -0.0372643 -0.0363962 -0.0352998 -0.0341059 -0.0329454 -0.0318184 -0.0307248 -0.0297767 -0.0290865 -0.0286539 -0.0284791 -0.0285153 -0.0287157 -0.0290804 -0.0296093 -0.030075 -0.0302499 -0.0301341 -0.0297276 -0.028772 -0.027009 -0.0244386 -0.0210608 -0.0168134 -0.0116343 -0.00552347 0.00151907 0.00925027 0.0174271 0.0260496 0.0351176 0.0442358 0.0530084 0.0614356 0.0695172 0.0770106 0.083673 0.0895043 0.0945045 0.098719 0.102193 0.104927 0.10692 0.108324 0.109289 0.109816 0.109903 0.109556 0.108777 0.107567 0.105926 0.10372 0.100813 0.097207 0.0929005 0.0878739 0.0821071 0.0756001 0.0683529 0.0606196 0.0526544 0.0444572 0.0360281 0.0277479 0.0199975 0.0127769 0.00608617 0.000147929 -0.0048151 -0.00880292 -0.0118155 -0.0139153 -0.0151647 -0.0155637 -0.0151123 -0.01407 -0.0126962 -0.0109911 -0.00895463 -0.00688551 -0.00508255 -0.00354575 -0.00227511 -0.00127975 -0.000568778 -0.000142194 0 0 -2.61506e-05 -0.000104602 -0.000235355 -0.000418409 -0.000698589 -0.00112072 -0.0016848 -0.00239083 -0.00322171 -0.00416033 -0.00520669 -0.0063608 -0.00757616 -0.00880629 -0.0100512 -0.0113108 -0.0125571 -0.0137619 -0.0149252 -0.016047 -0.0171445 -0.018235 -0.0193183 -0.0203946 -0.0214964 -0.0226564 -0.0238746 -0.025151 -0.0264685 -0.0278098 -0.0291751 -0.0305642 -0.0318936 -0.0330796 -0.0341222 -0.0350213 -0.0357045 -0.0360992 -0.0362053 -0.0360229 -0.0355911 -0.034949 -0.0340964 -0.0330336 -0.0319075 -0.0308654 -0.0299074 -0.0290332 -0.0283564 -0.0279899 -0.0279339 -0.0281884 -0.0286714 -0.0293012 -0.0300779 -0.0310012 -0.0317799 -0.0321225 -0.032029 -0.0314993 -0.0302174 -0.0278672 -0.0244488 -0.0199622 -0.0143368 -0.00750251 0.000540844 0.00979321 0.0199488 0.0307019 0.0420525 0.0540006 0.0660465 0.0776906 0.0889327 0.099773 0.109889 0.118959 0.126982 0.133959 0.139916 0.14488 0.148852 0.151832 0.153984 0.155475 0.156306 0.156475 0.155991 0.15486 0.153083 0.150659 0.147445 0.143298 0.138217 0.132203 0.125256 0.117376 0.108563 0.0988163 0.0884639 0.077833 0.0669234 0.0557351 0.0447408 0.0344133 0.0247525 0.0157584 0.0077068 0.000873603 -0.00474122 -0.00913766 -0.0123859 -0.0145563 -0.0156487 -0.0156631 -0.0149091 -0.0136961 -0.0120241 -0.00989306 -0.00766597 -0.00570577 -0.00401244 -0.002586 -0.00145463 -0.000646501 -0.000161625 0 0 -3.89343e-05 -0.000155737 -0.000350408 -0.000622948 -0.00101736 -0.00157766 -0.00230383 -0.00319589 -0.00421375 -0.00531734 -0.00650667 -0.00778173 -0.00907851 -0.010333 -0.0115451 -0.012715 -0.0138114 -0.014803 -0.0156899 -0.0164722 -0.0171822 -0.0178528 -0.0184838 -0.0190753 -0.0196839 -0.0203661 -0.021122 -0.0219516 -0.0228516 -0.0238189 -0.0248534 -0.0259551 -0.027037 -0.0280118 -0.0288796 -0.0296404 -0.0302146 -0.0305226 -0.0305645 -0.0303402 -0.0298959 -0.0292779 -0.0284862 -0.0275209 -0.0265454 -0.0257236 -0.0250553 -0.0245407 -0.0242905 -0.0244153 -0.0249152 -0.0257902 -0.0269146 -0.0281629 -0.0295349 -0.0310308 -0.0322842 -0.0329286 -0.0329642 -0.0323908 -0.0308265 -0.0278894 -0.0235793 -0.0178963 -0.010761 -0.0020941 0.00810445 0.0198346 0.0327186 0.0463786 0.0608145 0.0760264 0.0913948 0.1063 0.120743 0.134723 0.147826 0.159638 0.17016 0.179391 0.187337 0.194003 0.199388 0.203495 0.206503 0.208598 0.209777 0.210042 0.209404 0.207874 0.205452 0.202138 0.197779 0.192221 0.185464 0.177509 0.168378 0.158094 0.146657 0.134067 0.120734 0.107067 0.0930673 0.0787341 0.0646443 0.0513746 0.0389249 0.0272953 0.0168217 0.00783998 0.000350195 -0.00564769 -0.0102326 -0.0134834 -0.0154001 -0.0159828 -0.0155963 -0.0146055 -0.0130103 -0.0108108 -0.00844043 -0.00633245 -0.00448691 -0.00290379 -0.00163338 -0.000725949 -0.000181487 0 0 -5.33953e-05 -0.000213581 -0.000480558 -0.000854325 -0.0013764 -0.00208828 -0.00298998 -0.00408149 -0.00529481 -0.00656192 -0.00788282 -0.00925752 -0.0106011 -0.0118288 -0.0129405 -0.0139362 -0.0147815 -0.015442 -0.0159175 -0.0162082 -0.0163657 -0.0164417 -0.0164362 -0.0163493 -0.0162675 -0.0162774 -0.0163791 -0.0165725 -0.0168734 -0.0172975 -0.0178448 -0.0185154 -0.0192207 -0.019872 -0.0204694 -0.0210129 -0.0214162 -0.021593 -0.0215432 -0.021267 -0.0208183 -0.0202511 -0.0195656 -0.0187616 -0.0180196 -0.0175198 -0.0172624 -0.0172472 -0.0175791 -0.0183625 -0.0195977 -0.0212845 -0.0232448 -0.0253005 -0.0274516 -0.0296981 -0.0315877 -0.0326682 -0.0329397 -0.0324022 -0.0305994 -0.0270753 -0.0218299 -0.0148631 -0.00608591 0.00459092 0.0171673 0.0316434 0.0475597 0.0644571 0.0823355 0.101195 0.120281 0.138838 0.156866 0.174366 0.19082 0.205711 0.219037 0.230801 0.240981 0.249559 0.256535 0.261909 0.265882 0.268656 0.27023 0.270604 0.269795 0.267819 0.264675 0.260364 0.254722 0.247583 0.238948 0.228818 0.217239 0.204261 0.189883 0.174105 0.157429 0.140357 0.122889 0.105025 0.0874582 0.0708812 0.0552941 0.0406969 0.0274926 0.016084 0.00647131 -0.00134561 -0.00745523 -0.0119461 -0.0148181 -0.0160713 -0.0161315 -0.0154243 -0.0139498 -0.011708 -0.00920889 -0.00696261 -0.00496914 -0.00322849 -0.00181602 -0.000807122 -0.00020178 0 0 -6.9199e-05 -0.000276796 -0.000622791 -0.00110718 -0.00176674 -0.00263823 -0.00372165 -0.005017 -0.00642267 -0.00783707 -0.00926017 -0.010692 -0.0120227 -0.0131424 -0.0140511 -0.0147488 -0.0151973 -0.0153585 -0.0152325 -0.0148192 -0.014194 -0.0134325 -0.0125346 -0.0115003 -0.0104544 -0.00952152 -0.00870162 -0.00799472 -0.0