<?xml version="1.0"?> 
<VTKFile type="StructuredGrid" version="0.1"> 
<StructuredGrid WholeExtent="0 128 0 128 0 0"> 
<Piece Extent="0 128 0 128 0 0"> 
<PointData>
<DataArray type="Float32" Name="u" format="ascii" NumberOfComponents="1"> 
0 0 0 0 0 0 0 0 0 0 0 0 0 0 0 0 0 0 0 0 0 0 0 0 0 0 0 0 0 0 0 0 0 0 0 0 0 0 0 0 0 0 0 0 0 0 0 0 0 0 0 0 0 0 0 0 0 0 0 0 0 0 0 0 0 0 0 0 0 0 0 0 0 0 0 0 0 0 0 0 0 0 0 0 0 0 0 0 0 0 0 0 0 0 0 0 0 0 0 0 0 0 0 0 0 0 0 0 0 0 0 0 0 0 0 0 0 0 0 0 0 0 0 0 0 0 0 0 0 0 8.48202e-08 3.39281e-07 7.63382e-07 1.35712e-06 1.93194e-06 2.29929e-06 2.45914e-06 2.41152e-06 1.9571e-06 8.96546e-07 -7.70134e-07 -3.04294e-06 -5.95029e-06 -9.52059e-06 -1.37538e-05 -1.86501e-05 -2.41817e-05 -3.03211e-05 -3.70683e-05 -4.44233e-05 -5.22955e-05 -6.05943e-05 -6.93197e-05 -7.84717e-05 -8.78625e-05 -9.73044e-05 -0.000106798 -0.000116342 -0.000125664 -0.000134492 -0.000142826 -0.000150665 -0.000157746 -0.000163806 -0.000168845 -0.000172862 -0.000175753 -0.000177412 -0.000177837 -0.000177031 -0.000175144 -0.000172329 -0.000168586 -0.000163916 -0.000158682 -0.00015325 -0.00014762 -0.00014179 -0.000136149 -0.000131085 -0.000126597 -0.000122685 -0.000119553 -0.000117406 -0.000116244 -0.000116066 -0.000116825 -0.000118474 -0.000121012 -0.00012444 -0.000128572 -0.000133223 -0.000138393 -0.000144082 -0.000150149 -0.000156454 -0.000162997 -0.000169778 -0.000176777 -0.000183975 -0.000191371 -0.000198966 -0.000206759 -0.000214751 -0.000222942 -0.000231331 -0.00023978 -0.000248152 -0.000256445 -0.000264661 -0.000272509 -0.000279699 -0.000286232 -0.000292108 -0.000297069 -0.00030086 -0.00030348 -0.000304929 -0.000305187 -0.000304232 -0.000302064 -0.000298684 -0.000294306 -0.000289148 -0.000283208 -0.000276487 -0.000269233 -0.000261694 -0.000253872 -0.000245764 -0.000237457 -0.000229034 -0.000220495 -0.00021184 -0.000202985 -0.000193843 -0.000184414 -0.000174699 -0.000164607 -0.000154047 -0.000143019 -0.000131524 -0.000119659 -0.000107523 -9.51155e-05 -8.24364e-05 -6.99085e-05 -5.79543e-05 -4.65738e-05 -3.5767e-05 -2.61018e-05 -1.81462e-05 -1.19001e-05 -7.36357e-06 -4.14201e-06 -1.84089e-06 -4.60223e-07 0 0 3.39281e-07 1.35712e-06 3.05353e-06 5.42849e-06 7.72778e-06 9.19714e-06 9.83658e-06 9.64609e-06 7.82839e-06 3.58618e-06 -3.08054e-06 -1.21718e-05 -2.38011e-05 -3.80824e-05 -5.50154e-05 -7.46002e-05 -9.67266e-05 -0.000121284 -0.000148273 -0.000177693 -0.000209182 -0.000242377 -0.000277279 -0.000313887 -0.00035145 -0.000389218 -0.00042719 -0.000465367 -0.000502658 -0.00053797 -0.000571303 -0.000602659 -0.000630983 -0.000655223 -0.000675378 -0.000691449 -0.000703013 -0.000709646 -0.00071135 -0.000708123 -0.000700575 -0.000689316 -0.000674346 -0.000655664 -0.00063473 -0.000613001 -0.000590478 -0.00056716 -0.000544598 -0.00052434 -0.000506388 -0.00049074 -0.000478213 -0.000469625 -0.000464975 -0.000464263 -0.0004673 -0.000473895 -0.000484048 -0.00049776 -0.000514288 -0.000532893 -0.000553572 -0.000576327 -0.000600596 -0.000625816 -0.000651988 -0.000679111 -0.000707108 -0.000735898 -0.000765484 -0.000795863 -0.000827037 -0.000859005 -0.000891768 -0.000925324 -0.000959122 -0.000992607 -0.00102578 -0.00105864 -0.00109004 -0.0011188 -0.00114493 -0.00116843 -0.00118828 -0.00120344 -0.00121392 -0.00121972 -0.00122075 -0.00121693 -0.00120826 -0.00119473 -0.00117722 -0.00115659 -0.00113283 -0.00110595 -0.00107693 -0.00104678 -0.00101549 -0.000983057 -0.000949827 -0.000916135 -0.000881979 -0.000847361 -0.000811939 -0.000775371 -0.000737656 -0.000698796 -0.000658428 -0.000616188 -0.000572078 -0.000526097 -0.000478638 -0.000430093 -0.000380462 -0.000329746 -0.000279634 -0.000231817 -0.000186295 -0.000143068 -0.000104407 -7.25848e-05 -4.76005e-05 -2.94543e-05 -1.6568e-05 -7.36357e-06 -1.84089e-06 0 0 7.63382e-07 3.05353e-06 6.87044e-06 1.22141e-05 1.73875e-05 2.06936e-05 2.21323e-05 2.17037e-05 1.76139e-05 8.06891e-06 -6.9312e-06 -2.73865e-05 -5.35526e-05 -8.56853e-05 -0.000123785 -0.000167851 -0.000217635 -0.00027289 -0.000333614 -0.00039981 -0.00047066 -0.000545349 -0.000623877 -0.000706245 -0.000790762 -0.00087574 -0.000961178 -0.00104708 -0.00113098 -0.00121043 -0.00128543 -0.00135598 -0.00141971 -0.00147425 -0.0015196 -0.00155576 -0.00158178 -0.0015967 -0.00160054 -0.00159328 -0.00157629 -0.00155096 -0.00151728 -0.00147524 -0.00142814 -0.00137925 -0.00132858 -0.00127611 -0.00122535 -0.00117977 -0.00113937 -0.00110416 -0.00107598 -0.00105666 -0.00104619 -0.00104459 -0.00105143 -0.00106626 -0.00108911 -0.00111996 -0.00115715 -0.00119901 -0.00124554 -0.00129674 -0.00135134 -0.00140809 -0.00146697 -0.001528 -0.00159099 -0.00165577 -0.00172234 -0.00179069 -0.00186083 -0.00193276 -0.00200648 -0.00208198 -0.00215802 -0.00223337 -0.00230801 -0.00238195 -0.00245258 -0.00251729 -0.00257609 -0.00262897 -0.00267362 -0.00270774 -0.00273132 -0.00274437 -0.00274668 -0.00273809 -0.00271858 -0.00268815 -0.00264876 -0.00260233 -0.00254887 -0.00248838 -0.0024231 -0.00235525 -0.00228484 -0.00221188 -0.00213711 -0.0020613 -0.00198445 -0.00190656 -0.00182686 -0.00174458 -0.00165973 -0.00157229 -0.00148146 -0.00138642 -0.00128718 -0.00118372 -0.00107693 -0.000967708 -0.000856039 -0.000741928 -0.000629176 -0.000521589 -0.000419164 -0.000321903 -0.000234917 -0.000163316 -0.000107101 -6.62721e-05 -3.72781e-05 -1.6568e-05 -4.14201e-06 0 0 1.35712e-06 5.42849e-06 1.22141e-05 2.1714e-05 3.09111e-05 3.67886e-05 3.93463e-05 3.85844e-05 3.13136e-05 1.43447e-05 -1.23221e-05 -4.8687e-05 -9.52046e-05 -0.000152329 -0.000220062 -0.000298401 -0.000386906 -0.000485137 -0.000593092 -0.000710773 -0.000836728 -0.000969509 -0.00110912 -0.00125555 -0.0014058 -0.00155687 -0.00170876 -0.00186147 -0.00201063 -0.00215188 -0.00228521 -0.00241064 -0.00252393 -0.00262089 -0.00270151 -0.0027658 -0.00281205 -0.00283859 -0.0028454 -0.00283249 -0.0028023 -0.00275726 -0.00269738 -0.00262266 -0.00253892 -0.002452 -0.00236191 -0.00226864 -0.00217839 -0.00209736 -0.00202555 -0.00196296 -0.00191285 -0.0018785 -0.0018599 -0.00185705 -0.0018692 -0.00189558 -0.00193619 -0.00199104 -0.00205715 -0.00213157 -0.00221429 -0.00230531 -0.00240238 -0.00250326 -0.00260795 -0.00271645 -0.00282843 -0.00294359 -0.00306193 -0.00318345 -0.00330815 -0.00343602 -0.00356707 -0.0037013 -0.00383649 -0.00397043 -0.00410313 -0.00423458 -0.00436014 -0.00447519 -0.00457972 -0.00467373 -0.00475311 -0.00481376 -0.00485568 -0.00487887 -0.00488299 -0.00486771 -0.00483303 -0.00477894 -0.0047089 -0.00462636 -0.00453132 -0.00442379 -0.00430773 -0.00418711 -0.00406195 -0.00393223 -0.00379931 -0.00366454 -0.00352792 -0.00338945 -0.00324776 -0.00310148 -0.00295063 -0.00279518 -0.00263371 -0.00246475 -0.00228831 -0.00210439 -0.00191455 -0.00172037 -0.00152185 -0.00131898 -0.00111854 -0.000927269 -0.000745181 -0.000572272 -0.000417629 -0.000290339 -0.000190402 -0.000117817 -6.62721e-05 -2.94543e-05 -7.36357e-06 0 0 1.85124e-06 7.40496e-06 1.66612e-05 2.96198e-05 4.15584e-05 4.77544e-05 4.82078e-05 4.29186e-05 2.71754e-05 -3.73293e-06 -4.98065e-05 -0.000111045 -0.000188064 -0.000281478 -0.000391287 -0.00051749 -0.000659377 -0.000816235 -0.000988064 -0.00117486 -0.00137438 -0.00158436 -0.0018048 -0.0020357 -0.00227239 -0.00251019 -0.00274911 -0.00298915 -0.00322349 -0.00344535 -0.0036547 -0.00385157 -0.00402937 -0.00418157 -0.00430815 -0.00440912 -0.00448187 -0.00452382 -0.00453495 -0.00451528 -0.00446866 -0.00439895 -0.00430615 -0.00419027 -0.00406041 -0.00392569 -0.0037861 -0.00364164 -0.00350187 -0.00337632 -0.003265 -0.00316791 -0.00308984 -0.00303562 -0.00300523 -0.00299868 -0.00301438 -0.00305075 -0.00310779 -0.0031855 -0.0032789 -0.00338303 -0.00349789 -0.00362347 -0.00375619 -0.00389246 -0.00403227 -0.00417563 -0.00432239 -0.00447241 -0.00462568 -0.00478221 -0.00494274 -0.00510802 -0.00527807 -0.00545287 -0.0056299 -0.00580664 -0.00598308 -0.00615922 -0.0063286 -0.00648475 -0.00662766 -0.00675735 -0.00686779 -0.00695294 -0.00701281 -0.0070474 -0.00705611 -0.00703837 -0.00699416 -0.00692348 -0.00683126 -0.00672238 -0.00659685 -0.00645468 -0.00630128 -0.00614207 -0.00597704 -0.00580621 -0.0056308 -0.00545204 -0.00526994 -0.00508449 -0.00489287 -0.00469226 -0.00448266 -0.00426407 -0.00403393 -0.00378968 -0.00353132 -0.00325885 -0.00297483 -0.00268184 -0.00237987 -0.00206893 -0.00175988 -0.0014636 -0.00118009 -0.000909353 -0.000666151 -0.000465246 -0.000306638 -0.000190326 -0.000107059 -4.75816e-05 -1.18954e-05 0 0 1.97646e-06 7.90586e-06 1.77882e-05 3.16234e-05 4.25893e-05 4.38635e-05 3.5446e-05 1.73368e-05 -1.65525e-05 -7.23106e-05 -0.000149937 -0.000249433 -0.000371438 -0.000516594 -0.0006849 -0.000876357 -0.00108988 -0.00132439 -0.00157989 -0.00185636 -0.00215061 -0.0024594 -0.00278273 -0.0031206 -0.00346635 -0.00381328 -0.0041614 -0.00451071 -0.00485145 -0.00517387 -0.00547796 -0.00576372 -0.00602176 -0.0062427 -0.00642654 -0.00657327 -0.00667928 -0.00674092 -0.00675822 -0.00673115 -0.00666543 -0.00656674 -0.00643509 -0.00627046 -0.00608598 -0.00589474 -0.00569676 -0.00549201 -0.00529391 -0.00511584 -0.0049578 -0.00481979 -0.00470796 -0.00462847 -0.00458132 -0.00456649 -0.00458071 -0.00462067 -0.00468638 -0.00477783 -0.004887 -0.00500586 -0.00513441 -0.00527266 -0.00541523 -0.00555677 -0.00569728 -0.00583675 -0.00597586 -0.00611527 -0.00625499 -0.00639501 -0.00653835 -0.00668801 -0.00684399 -0.00700629 -0.00717366 -0.00734483 -0.0075198 -0.00769857 -0.00787382 -0.00803823 -0.00819179 -0.00833451 -0.00845871 -0.00855671 -0.00862851 -0.00867411 -0.00869249 -0.00868263 -0.00864453 -0.00857819 -0.00848942 -0.00838407 -0.00826212 -0.00812357 -0.00797421 -0.00781982 -0.00766039 -0.00749593 -0.00732596 -0.00715001 -0.00696809 -0.00678018 -0.00658046 -0.00636312 -0.00612815 -0.00587555 -0.00560088 -0.00529971 -0.00497203 -0.00461784 -0.00424113 -0.00384589 -0.0034321 -0.00299977 -0.00256536 -0.00214531 -0.00173964 -0.00134833 -0.000994088 -0.000699628 -0.000464944 -0.000290037 -0.000163146 -7.25092e-05 -1.81273e-05 0 0 1.7328e-06 6.93119e-06 1.55952e-05 2.77248e-05 3.40037e-05 2.51157e-05 1.06089e-06 -3.81608e-05 -9.98703e-05 -0.000191388 -0.000312715 -0.00046385 -0.000645327 -0.000857678 -0.0011009 -0.001375 -0.00167842 -0.00200961 -0.00236856 -0.00275527 -0.00316541 -0.00359462 -0.00404291 -0.00451027 -0.00498768 -0.00546614 -0.00594563 -0.00642616 -0.00689451 -0.00733745 -0.00775497 -0.00814709 -0.0085011 -0.0088043 -0.00905669 -0.00925827 -0.00940427 -0.00948991 -0.00951519 -0.00948012 -0.00939262 -0.00926064 -0.00908418 -0.00886323 -0.00861562 -0.00835917 -0.00809388 -0.00781975 -0.00755451 -0.00731591 -0.00710395 -0.00691861 -0.00676721 -0.00665706 -0.00658816 -0.0065605 -0.0065682 -0.00660535 -0.00667197 -0.00676803 -0.00688143 -0.00700004 -0.00712385 -0.00725286 -0.0073795 -0.00749621 -0.00760297 -0.0076998 -0.00778882 -0.00787217 -0.00794985 -0.00802186 -0.00809498 -0.00817597 -0.00826483 -0.00836157 -0.00846776 -0.00858501 -0.0087133 -0.00885263 -0.00899581 -0.00913563 -0.00927209 -0.00940519 -0.00952587 -0.00962506 -0.00970277 -0.009759 -0.00979212 -0.00980049 -0.00978414 -0.00974304 -0.0096834 -0.00961143 -0.00952711 -0.00943046 -0.00932652 -0.00922036 -0.00911198 -0.00900138 -0.0088848 -0.00875845 -0.00862236 -0.00847651 -0.00831053 -0.00811406 -0.00788709 -0.00762962 -0.00733456 -0.00699484 -0.00661044 -0.00618137 -0.00571345 -0.0052125 -0.00467852 -0.00411152 -0.00353498 -0.00297242 -0.00242382 -0.00188919 -0.00140144 -0.000993483 -0.00066532 -0.000416949 -0.000234534 -0.000104237 -2.60593e-05 0 0 1.12024e-06 4.48096e-06 1.00822e-05 1.79238e-05 1.58016e-05 -8.48884e-06 -5.49475e-05 -0.000123574 -0.000222778 -0.000360966 -0.000538139 -0.000754297 -0.00100973 -0.00130473 -0.00163929 -0.00201342 -0.002425 -0.00287188 -0.00335408 -0.00387159 -0.00441879 -0.00499004 -0.00558534 -0.00620468 -0.00683639 -0.00746876 -0.0081018 -0.0087355 -0.00935266 -0.00993608 -0.0104858 -0.0110017 -0.0114674 -0.0118664 -0.0121986 -0.0124641 -0.0126568 -0.0127708 -0.0128059 -0.0127622 -0.0126502 -0.0124807 -0.0122534 -0.0119686 -0.0116493 -0.011319 -0.0109775 -0.0106248 -0.0102837 -0.00997655 -0.00970344 -0.00946436 -0.00926759 -0.00912139 -0.00902576 -0.00898071 -0.00897684 -0.00900479 -0.00906455 -0.00915612 -0.00926222 -0.00936558 -0.0094662 -0.00956408 -0.00964901 -0.00971076 -0.00974935 -0.00976477 -0.00976127 -0.00974311 -0.00971027 -0.00966277 -0.00961264 -0.00957192 -0.0095406 -0.00951869 -0.00951221 -0.00952717 -0.00956357 -0.00962141 -0.00969457 -0.00977696 -0.00986857 -0.0099694 -0.0100693 -0.010158 -0.0102356 -0.0103021 -0.010355 -0.010392 -0.010413 -0.010418 -0.0104132 -0.0104045 -0.0103918 -0.0103753 -0.0103582 -0.0103437 -0.0103318 -0.0103226 -0.0103073 -0.0102774 -0.0102328 -0.0101735 -0.0100831 -0.00994508 -0.00975948 -0.00952628 -0.00923497 -0.00887507 -0.00844655 -0.00794943 -0.00739178 -0.00678169 -0.00611915 -0.00540417 -0.00466875 -0.00394491 -0.00323264 -0.00253194 -0.00188821 -0.00134681 -0.000907765 -0.000571062 -0.000321222 -0.000142766 -3.56914e-05 0 0 -2.01278e-07 -8.05112e-07 -1.8115e-06 -3.22045e-06 -2.02517e-05 -6.81248e-05 -0.00014684 -0.000256397 -0.000405532 -0.00060298 -0.000848742 -0.00114282 -0.00148485 -0.00187448 -0.0023117 -0.00279653 -0.00332615 -0.00389777 -0.00451139 -0.005167 -0.00585779 -0.00657692 -0.00732438 -0.00810019 -0.00889011 -0.00967988 -0.0104695 -0.011259 -0.0120272 -0.012753 -0.0134364 -0.0140774 -0.0146558 -0.0151512 -0.0155637 -0.0158932 -0.0161326 -0.0162748 -0.0163197 -0.0162673 -0.0161311 -0.0159248 -0.0156483 -0.0153015 -0.0149135 -0.014513 -0.0141 -0.0136747 -0.0132639 -0.0128949 -0.0125676 -0.012282 -0.0120462 -0.0118683 -0.0117483 -0.0116863 -0.0116676 -0.0116778 -0.0117167 -0.0117843 -0.0118568 -0.0119102 -0.0119443 -0.0119592 -0.0119416 -0.0118782 -0.0117689 -0.0116138 -0.0114205 -0.0111968 -0.0109427 -0.0106581 -0.0103633 -0.0100787 -0.00980426 -0.00953994 -0.00929969 -0.00909746 -0.00893323 -0.00880702 -0.00871644 -0.00865912 -0.00863506 -0.00864425 -0.00867657 -0.00872188 -0.00878018 -0.00885146 -0.00893232 -0.0090193 -0.00911243 -0.00921169 -0.00932147 -0.00944617 -0.00958578 -0.0097403 -0.00990854 -0.0100893 -0.0102827 -0.0104885 -0.0106901 -0.0108708 -0.0110303 -0.0111689 -0.0112612 -0.0112818 -0.0112307 -0.011108 -0.0108984 -0.0105868 -0.0101732 -0.00965757 -0.00905074 -0.00836353 -0.00759593 -0.00674794 -0.00586184 -0.00497989 -0.00410209 -0.00322844 -0.0024194 -0.00173542 -0.0011765 -0.000742645 -0.000417738 -0.000185661 -4.64153e-05 0 0 -2.57182e-06 -1.02873e-05 -2.31464e-05 -4.11491e-05 -8.23908e-05 -0.000164967 -0.000288877 -0.000454122 -0.000668389 -0.000939367 -0.00126706 -0.00165146 -0.00209088 -0.00258365 -0.00312976 -0.00372921 -0.00437843 -0.00507383 -0.00581541 -0.00660318 -0.00742945 -0.00828653 -0.00917443 -0.0100931 -0.0110265 -0.0119582 -0.0128884 -0.0138169 -0.0147195 -0.0155716 -0.0163732 -0.0171243 -0.0178015 -0.0183811 -0.0188633 -0.0192479 -0.0195272 -0.0196932 -0.0197459 -0.0196854 -0.0195282 -0.0192911 -0.0189741 -0.0185771 -0.0181344 -0.01768 -0.0172141 -0.0167365 -0.0162777 -0.0158681 -0.0155076 -0.0151963 -0.01494 -0.0147446 -0.0146101 -0.0145365 -0.0145016 -0.014483 -0.0144808 -0.014495 -0.0144928 -0.0144414 -0.0143409 -0.0141911 -0.0139752 -0.0136762 -0.0132941 -0.0128289 -0.0122938 -0.011702 -0.0110534 -0.0103481 -0.00961904 -0.00889927 -0.00818878 -0.00748758 -0.0068229 -0.00622202 -0.00568492 -0.00521161 -0.00480774 -0.004479 -0.00422536 -0.00404685 -0.00393541 -0.003883 -0.00388964 -0.00395531 -0.00407527 -0.00424478 -0.00446384 -0.00473244 -0.00505091 -0.00541955 -0.00583838 -0.00630739 -0.00681676 -0.00735669 -0.00792718 -0.00852822 -0.00912998 -0.00970264 -0.0102462 -0.0107607 -0.0112079 -0.0115497 -0.0117861 -0.0119171 -0.0119211 -0.0117765 -0.0114832 -0.0110413 -0.0104649 -0.00976809 -0.0089508 -0.00801306 -0.00700943 -0.00599447 -0.00496817 -0.00393054 -0.00296002 -0.00213509 -0.00145574 -0.000921967 -0.000518606 -0.000230492 -5.76229e-05 0 0 -5.99139e-06 -2.39656e-05 -5.39225e-05 -9.58622e-05 -0.000170616 -0.000299015 -0.000481059 -0.000716748 -0.00101135 -0.00137013 -0.00179308 -0.00228021 -0.00282783 -0.00343225 -0.00409347 -0.00481148 -0.00558184 -0.00640006 -0.00726616 -0.00818013 -0.00913377 -0.0101189 -0.0111355 -0.0121835 -0.0132455 -0.0143038 -0.0153584 -0.0164093 -0.0174295 -0.0183917 -0.0192959 -0.0201423 -0.0209044 -0.0215561 -0.0220974 -0.0225283 -0.0228406 -0.0230261 -0.0230847 -0.0230165 -0.0228415 -0.0225796 -0.0222309 -0.0217954 -0.0213121 -0.0208201 -0.0203196 -0.0198104 -0.0193251 -0.0188962 -0.0185236 -0.0182074 -0.0179491 -0.0177503 -0.0176111 -0.0175313 -0.0174786 -0.0174205 -0.017357 -0.0172881 -0.0171701 -0.0169594 -0.016656 -0.0162598 -0.0157498 -0.0151048 -0.014325 -0.0134102 -0.0123813 -0.0112587 -0.0100426 -0.00873286 -0.00737979 -0.00603356 -0.00469416 -0.0033616 -0.00208184 -0.000900849 0.000181376 0.00116483 0.00203151 0.0027634 0.0033605 0.00382281 0.00415422 0.00435862 0.00443601 0.0043864 0.00421614 0.0039316 0.00353279 0.0030197 0.00239851 0.00167539 0.000850347 -7.66178e-05 -0.00108288 -0.00214581 -0.00326541 -0.00444168 -0.00562682 -0.00677303 -0.00788033 -0.0089487 -0.0099232 -0.0107489 -0.0114257 -0.0119537 -0.0123031 -0.0124441 -0.0123766 -0.0121008 -0.0116344 -0.0109954 -0.0101838 -0.00919951 -0.00811152 -0.00698864 -0.00583087 -0.00463823 -0.00351009 -0.00254584 -0.00174549 -0.00110903 -0.000623827 -0.000277256 -6.93141e-05 0 0 -1.046e-05 -4.18399e-05 -9.41399e-05 -0.00016736 -0.000284927 -0.000470269 -0.000723385 -0.00104428 -0.00143441 -0.00189526 -0.00242682 -0.00302909 -0.0036957 -0.00442027 -0.00520282 -0.00604334 -0.00693637 -0.00787646 -0.00886362 -0.00989784 -0.0109707 -0.012074 -0.0132075 -0.0143713 -0.0155471 -0.0167165 -0.0178795 -0.0190362 -0.0201572 -0.0212134 -0.0222048 -0.0231313 -0.0239646 -0.0246762 -0.0252662 -0.0257344 -0.0260728 -0.0262733 -0.026336 -0.0262607 -0.026071 -0.0257903 -0.0254188 -0.0249562 -0.0244465 -0.0239333 -0.0234166 -0.0228964 -0.0224061 -0.0219791 -0.0216155 -0.0213152 -0.0210734 -0.0208854 -0.0207512 -0.0206707 -0.0205988 -0.0204903 -0.0203453 -0.0201636 -0.0198888 -0.0194641 -0.0188896 -0.0181652 -0.0172653 -0.0161641 -0.0148615 -0.0133577 -0.0116827 -0.00986688 -0.00791008 -0.00581236 -0.00364557 -0.00148159 0.000679595 0.00283798 0.00492349 0.00686605 0.00866565 0.0103223 0.0118013 0.0130681 0.0141225 0.0149647 0.0155923 0.016003 0.0161968 0.0161736 0.0159419 0.0155098 0.0148775 0.0140447 0.0130268 0.0118387 0.0104804 0.00895201 0.00729311 0.00554332 0.00370266 0.0017711 -0.000180648 -0.00208192 -0.00393272 -0.00573303 -0.00740714 -0.00887929 -0.0101495 -0.0112178 -0.0120444 -0.0125896 -0.0128534 -0.0128358 -0.0125591 -0.0120454 -0.0112948 -0.0103073 -0.0091681 -0.0079624 -0.0066902 -0.00535152 -0.00406958 -0.00296766 -0.00204574 -0.00130382 -0.000733401 -0.000325956 -8.1489e-05 0 0 -1.59802e-05 -6.3921e-05 -0.000143822 -0.000255684 -0.000425098 -0.000677658 -0.00101336 -0.00143221 -0.00193003 -0.00250265 -0.00315006 -0.00387228 -0.00465921 -0.0055008 -0.00639704 -0.00734793 -0.00834686 -0.00938723 -0.010469 -0.0115923 -0.0127491 -0.0139315 -0.0151397 -0.0163735 -0.0176152 -0.0188469 -0.0200686 -0.0212804 -0.0224524 -0.0235548 -0.0245876 -0.0255509 -0.0264153 -0.0271516 -0.0277596 -0.0282394 -0.0285838 -0.0287857 -0.0288452 -0.0287621 -0.0285637 -0.0282771 -0.0279022 -0.0274391 -0.0269352 -0.0264379 -0.0259471 -0.0254628 -0.0250173 -0.0246425 -0.0243384 -0.0241052 -0.0239282 -0.0237933 -0.0237002 -0.0236491 -0.0235785 -0.023427 -0.0231946 -0.0228813 -0.0224147 -0.0217224 -0.0208046 -0.0196611 -0.0182609 -0.0165731 -0.0145977 -0.0123347 -0.00982643 -0.00711554 -0.00420198 -0.00108576 0.00213355 0.00535638 0.00858274 0.0118126 0.0149447 0.0178778 0.0206119 0.0231469 0.0254263 0.0273934 0.0290483 0.0303908 0.0314103 0.0320958 0.0324474 0.0324651 0.0321593 0.0315407 0.0306093 0.0293649 0.0278344 0.0260443 0.0239948 0.0216856 0.0191786 0.0165353 0.0137557 0.0108398 0.00788737 0.00499838 0.00217279 -0.000589415 -0.00318645 -0.00551653 -0.00757966 -0.00937584 -0.0108531 -0.0119594 -0.0126949 -0.0130594 -0.0130803 -0.0127849 -0.0121731 -0.011245 -0.0101047 -0.00885624 -0.00749963 -0.00603488 -0.00461225 -0.00338199 -0.00234411 -0.00149862 -0.000842972 -0.000374654 -9.36635e-05 0 0 -2.25548e-05 -9.02192e-05 -0.000202993 -0.000360877 -0.000590904 -0.00092011 -0.00134849 -0.00187605 -0.00249066 -0.00318019 -0.00394463 -0.00478399 -0.00568313 -0.00662691 -0.00761534 -0.00864841 -0.00971814 -0.0108165 -0.0119436 -0.0130994 -0.0142774 -0.0154714 -0.0166813 -0.0179071 -0.0191336 -0.0203454 -0.0215426 -0.022725 -0.0238648 -0.024934 -0.0259326 -0.0268605 -0.0276897 -0.0283921 -0.0289677 -0.0294164 -0.0297335 -0.0299139 -0.0299579 -0.0298652 -0.0296669 -0.0293938 -0.029046 -0.0286234 -0.0281756 -0.0277521 -0.027353 -0.0269782 -0.0266552 -0.0264117 -0.0262475 -0.0261626 -0.0261287 -0.0261171 -0.0261278 -0.026161 -0.0261342 -0.0259652 -0.025654 -0.0252007 -0.0245137 -0.0235014 -0.0221638 -0.0205009 -0.0184758 -0.0160513 -0.0132275 -0.0100045 -0.0064404 -0.00259368 0.0015357 0.00594774 0.0105075 0.0150801 0.0196655 0.0242637 0.0287335 0.0329336 0.036864 0.0405248 0.043831 0.0466978 0.0491251 0.051113 0.0526395 0.0536827 0.0542427 0.0543193 0.0539257 0.053075 0.0517674 0.0500026 0.047822 0.0452665 0.0423364 0.0390314 0.0354411 0.0316547 0.0276723 0.0234939 0.0192561 0.0150956 0.0110123 0.00700639 0.00321211 -0.000236122 -0.0033383 -0.00609444 -0.00843739 -0.0103 -0.0116824 -0.0125844 -0.0130394 -0.0130805 -0.0127078 -0.0119212 -0.0108469 -0.00961065 -0.00821263 -0.0066528 -0.0051118 -0.00377028 -0.00262823 -0.00168566 -0.000948184 -0.000421415 -0.000105354 0 0 -3.01837e-05 -0.000120735 -0.000271653 -0.000482939 -0.000782345 -0.00119762 -0.00172878 -0.0023758 -0.0031163 -0.00392787 -0.00481051 -0.00576421 -0.00676743 -0.0077986 -0.00885772 -0.00994478 -0.0110502 -0.0121644 -0.0132874 -0.0144191 -0.0155558 -0.0166935 -0.0178323 -0.0189722 -0.0201023 -0.021212 -0.0223013 -0.02337 -0.0243945 -0.025351 -0.0262396 -0.0270601 -0.0277878 -0.028398 -0.0288906 -0.0292657 -0.0295219 -0.029658 -0.029674 -0.0295699 -0.0293804 -0.0291405 -0.02885 -0.028509 -0.0281676 -0.0278761 -0.0276343 -0.0274424 -0.02732 -0.0272867 -0.0273426 -0.0274876 -0.0276747 -0.0278569 -0.028034 -0.0282062 -0.0282657 -0.0281048 -0.0277236 -0.027122 -0.0261858 -0.0248009 -0.0229672 -0.0206848 -0.0179098 -0.0145986 -0.010751 -0.00636713 -0.00152466 0.00369871 0.00930298 0.0152882 0.0214763 0.0276896 0.0339279 0.0401913 0.0462898 0.0520334 0.0574221 0.062456 0.0670155 0.0709813 0.0743532 0.0771314 0.0792801 0.0807639 0.0815826 0.0817362 0.0812409 0.0801128 0.0783517 0.0759578 0.0729894 0.0695053 0.0655052 0.0609894 0.0560805 0.0509016 0.0454526 0.0397335 0.0339255 0.0282096 0.0225859 0.0170544 0.0117885 0.00696192 0.00257455 -0.00137357 -0.00479728 -0.00761142 -0.00981597 -0.0114109 -0.0124364 -0.0129324 -0.0128989 -0.012336 -0.0113946 -0.0102256 -0.0088292 -0.00720527 -0.00556824 -0.00413251 -0.00289808 -0.00186496 -0.00104904 -0.000466239 -0.00011656 0 0 -3.88669e-05 -0.000155467 -0.000349802 -0.00062187 -0.00099942 -0.0015102 -0.00215422 -0.00293146 -0.00380695 -0.0047457 -0.0057477 -0.00681296 -0.00791213 -0.00901587 -0.0101242 -0.0112371 -0.0123431 -0.0134308 -0.0145003 -0.0155515 -0.0165841 -0.0175979 -0.0185927 -0.0195686 -0.0205213 -0.0214467 -0.0223447 -0.0232154 -0.0240415 -0.0248059 -0.0255086 -0.0261496 -0.0267096 -0.0271692 -0.0275283 -0.027787 -0.027949 -0.0280178 -0.0279935 -0.0278761 -0.0277044 -0.0275171 -0.0273143 -0.0270959 -0.0269113 -0.0268097 -0.0267911 -0.0268556 -0.0270116 -0.0272677 -0.0276239 -0.0280801 -0.0285664 -0.0290127 -0.0294188 -0.0297849 -0.0299732 -0.029846 -0.0294032 -0.028645 -0.027431 -0.025621 -0.0232148 -0.0202126 -0.0165631 -0.0122149 -0.00716808 -0.00142266 0.00492078 0.0117616 0.0190999 0.0269355 0.03504 0.0431848 0.0513699 0.0595953 0.0676136 0.0751772 0.0822861 0.0889404 0.0949798 0.100244 0.104732 0.108446 0.111332 0.113339 0.114467 0.114716 0.114105 0.112654 0.110362 0.10723 0.103337 0.0987605 0.0935014 0.0875594 0.0810969 0.0742759 0.0670965 0.0595587 0.0518956 0.0443406 0.0368936 0.0295546 0.0225428 0.0160776 0.0101589 0.00478676 6.7235e-05 -0.00389355 -0.0070956 -0.00953892 -0.0112713 -0.0123404 -0.0127464 -0.0124892 -0.0117478 -0.0107012 -0.00934934 -0.0076923 -0.00598158 -0.0044687 -0.00315368 -0.0020365 -0.00114553 -0.000509126 -0.000127281 0 0 -4.83391e-05 -0.000193357 -0.000435052 -0.000773426 -0.00123514 -0.00184686 -0.00260859 -0.00352033 -0.00453182 -0.00559284 -0.00670338 -0.00786345 -0.00903411 -0.0101764 -0.0112905 -0.0123761 -0.0134199 -0.014408 -0.0153404 -0.0162173 -0.0170431 -0.0178226 -0.0185557 -0.0192424 -0.0198881 -0.020498 -0.0210722 -0.0216107 -0.0221066 -0.0225531 -0.0229501 -0.0232978 -0.0235853 -0.0238019 -0.0239478 -0.0240228 -0.0240375 -0.0240024 -0.0239175 -0.0237828 -0.0236413 -0.0235358 -0.0234664 -0.023433 -0.0234818 -0.023659 -0.0239647 -0.0243987 -0.0249541 -0.0256236 -0.0264073 -0.0273051 -0.0282181 -0.0290473 -0.0297928 -0.0304544 -0.030859 -0.0308333 -0.0303771 -0.0294906 -0.0280035 -0.0257456 -0.022717 -0.0189176 -0.0142881 -0.00876941 -0.00236142 0.00493585 0.0129944 0.0216861 0.0310111 0.0409693 0.0512727 0.0616334 0.0720513 0.0825265 0.092745 0.102393 0.11147 0.119977 0.127706 0.134453 0.140216 0.144996 0.148724 0.151329 0.152813 0.153174 0.152437 0.150624 0.147735 0.14377 0.138829 0.133013 0.126323 0.118757 0.110522 0.101823 0.0926611 0.0830356 0.0732394 0.0635653 0.0540133 0.0445835 0.0355481 0.0271797 0.0194782 0.0124435 0.00620644 0.000897531 -0.00348319 -0.00693574 -0.00951638 -0.0112814 -0.0122309 -0.0123647 -0.0118931 -0.0110263 -0.00976431 -0.00810711 -0.00634673 -0.00477521 -0.00339255 -0.00219874 -0.00123679 -0.000549686 -0.000137422 0 0 -5.83353e-05 -0.000233341 -0.000525018 -0.000933365 -0.00148252 -0.00219663 -0.00307568 -0.00411969 -0.00526012 -0.00642847 -0.00762473 -0.0088489 -0.0100503 -0.0111781 -0.0122323 -0.013213 -0.0141037 -0.014888 -0.0155658 -0.0161371 -0.0166134 -0.0170059 -0.0173147 -0.0175398 -0.0177 -0.0178144 -0.0178829 -0.0179056 -0.0178908 -0.0178472 -0.0177746 -0.0176731 -0.017545 -0.0173926 -0.017216 -0.0170152 -0.01681 -0.0166206 -0.0164469 -0.0162888 -0.0161937 -0.0162087 -0.0163337 -0.0165687 -0.0169541 -0.0175299 -0.0182962 -0.019253 -0.0203717 -0.0216237 -0.0230089 -0.0245274 -0.026044 -0.0274237 -0.0286665 -0.0297724 -0.0305258 -0.0307115 -0.0303294 -0.0293794 -0.0276573 -0.0249589 -0.021284 -0.0166327 -0.0109376 -0.00413125 0.00378638 0.0128153 0.0227945 0.0335632 0.0451214 0.0574691 0.0702487 0.083103 0.0960319 0.109035 0.121724 0.133708 0.144988 0.155563 0.165177 0.173575 0.180756 0.186721 0.191383 0.194654 0.196536 0.197028 0.196156 0.193949 0.190405 0.185525 0.179431 0.172245 0.163967 0.154597 0.144387 0.133589 0.122204 0.110231 0.0980297 0.0859606 0.0740233 0.0622177 0.0508777 0.040337 0.0305957 0.0216537 0.0136706 0.0068058 0.00105934 -0.00356878 -0.00714409 -0.00973208 -0.0113328 -0.0119461 -0.011817 -0.0111901 -0.0100654 -0.00844292 -0.00665862 -0.00504838 -0.00361222 -0.00235012 -0.00132194 -0.000587531 -0.000146883 0 0 -6.88555e-05 -0.000275422 -0.000619699 -0.00110169 -0.00174156 -0.00255949 -0.00355549 -0.00472954 -0.00599184 -0.00725257 -0.00851173 -0.00976933 -0.0109606 -0.0120207 -0.0129497 -0.0137477 -0.0143946 -0.0148708 -0.0151763 -0.015311 -0.0152948 -0.0151477 -0.0148696 -0.0144606 -0.0139571 -0.0133959 -0.0127768 -0.0121 -0.0113941 -0.0106881 -0.00998189 -0.00927555 -0.00858878 -0.0079413 -0.0073331 -0.0067642 -0.00626662 -0.00587242 -0.00558159 -0.00539413 -0.00536162 -0.00553563 -0.00591617 -0.00650323 -0.00732816 -0.00842234 -0.00978576 -0.0114184 -0.0132644 -0.0152678 -0.0174287 -0.019747 -0.0220442 -0.0241419 -0.0260401 -0.0277386 -0.0289735 -0.0294806 -0.0292599 -0.0283114 -0.0263925 -0.0232607 -0.0189159 -0.0133581 -0.00651154 0.0016996 0.0112753 0.0222156 0.0343213 0.047393 0.0614309 0.0764348 0.091968 0.107594 0.123312 0.139122 0.154551 0.169123 0.182839 0.195699 0.207393 0.217611 0.226354 0.233622 0.23931 0.243315 0.245637 0.246276 0.245263 0.242628 0.238373 0.232497 0.225143 0.216455 0.206434 0.195079 0.182692 0.169573 0.155724 0.141144 0.126267 0.111527 0.0969234 0.0824572 0.0685314 0.0555495 0.0435115 0.0324173 0.0224597 0.0138313 0.00653201 0.00056194 -0.00415438 -0.00769242 -0.0100522 -0.0112336 -0.0115195 -0.0111924 -0.0102525 -0.00869973 -0.00691724 -0.00528823 -0.00381269 -0.00249064 -0.00140098 -0.000622659 -0.000155665 0 0 -7.98995e-05 -0.000319598 -0.000719096 -0.00127839 -0.00201226 -0.00293546 -0.00404801 -0.00534989 -0.00672698 -0.00806515 -0.0093644 -0.0106247 -0.0117651 -0.0127044 -0.0134427 -0.0139801 -0.0142926 -0.0143566 -0.014172 -0.0137389 -0.0130875 -0.012248 -0.0112205 -0.0100049 -0.00865945 -0.00724248 -0.00575395 -0.00419387 -0.00261644 -0.00107585 0.000427896 0.00189479 0.00328336 0.0045521 0.00570101 0.00673011 0.00759269 0.00824209 0.00867829 0.00890129 0.00885499 0.00848326 0.0077861 0.00676352 0.0053959 0.00366361 0.00156666 -0.000894945 -0.00363221 -0.00655614 -0.00966672 -0.012964 -0.0162187 -0.0192019 -0.0219134 -0.0243533 -0.0262022 -0.0271407 -0.0271689 -0.0262867 -0.0242091 -0.0206511 -0.0156126 -0.00909365 -0.00100988 0.00872313 0.0201054 0.0331369 0.0475746 0.0631754 0.0799394 0.0978666 0.116431 0.135105 0.153891 0.172786 0.191225 0.208637 0.225024 0.240385 0.254353 0.266561 0.277009 0.285697 0.292505 0.297311 0.300116 0.300919 0.299756 0.296662 0.291638 0.284684 0.275965 0.265645 0.253724 0.240204 0.225436 0.209776 0.193222 0.175775 0.15795 0.140263 0.122714 0.105302 0.0885094 0.0728173 0.0582256 0.0447344 0.0325738 0.0219739 0.0129348 0.00545643 -0.000547276 -0.00516242 -0.00838901 -0.010227 -0.0110005 -0.0110334 -0.0103258 -0.00887755 -0.00712261 -0.00549475 -0.00399398 -0.00262029 -0.00147391 -0.000655072 -0.000163768 0 0 -9.11248e-05 -0.000364499 -0.000820123 -0.001458 -0.00228574 -0.00331099 -0.00453372 -0.00595396 -0.00742999 -0.00882013 -0.0101244 -0.0113427 -0.0123751 -0.0131217 -0.0135824 -0.0137572 -0.0136177 -0.0131353 -0.0123101 -0.011142 -0.00967393 -0.00794877 -0.00596652 -0.00372718 -0.00131591 0.0