<?xml version="1.0"?> 
<VTKFile type="StructuredGrid" version="0.1"> 
<StructuredGrid WholeExtent="0 128 0 128 0 0"> 
<Piece Extent="0 128 0 128 0 0"> 
<PointData>
<DataArray type="Float32" Name="u" format="ascii" NumberOfComponents="1"> 
0 0 0 0 0 0 0 0 0 0 0 0 0 0 0 0 0 0 0 0 0 0 0 0 0 0 0 0 0 0 0 0 0 0 0 0 0 0 0 0 0 0 0 0 0 0 0 0 0 0 0 0 0 0 0 0 0 0 0 0 0 0 0 0 0 0 0 0 0 0 0 0 0 0 0 0 0 0 0 0 0 0 0 0 0 0 0 0 0 0 0 0 0 0 0 0 0 0 0 0 0 0 0 0 0 0 0 0 0 0 0 0 0 0 0 0 0 0 0 0 0 0 0 0 0 0 0 0 0 0 -1.38686e-08 -5.54743e-08 -1.24817e-07 -2.21897e-07 -5.54024e-07 -1.32851e-06 -2.54535e-06 -4.20454e-06 -6.37762e-06 -9.13608e-06 -1.24799e-05 -1.64092e-05 -2.08928e-05 -2.58996e-05 -3.14298e-05 -3.74832e-05 -4.40143e-05 -5.09777e-05 -5.83734e-05 -6.62014e-05 -7.43668e-05 -8.27747e-05 -9.14252e-05 -0.000100318 -0.000109284 -0.000118151 -0.00012692 -0.000135591 -0.000143949 -0.00015178 -0.000159083 -0.000165858 -0.000171932 -0.00017713 -0.000181452 -0.000184897 -0.000187425 -0.000188995 -0.000189607 -0.000189261 -0.000188087 -0.000186217 -0.00018365 -0.000180386 -0.000176677 -0.000172772 -0.000168672 -0.000164376 -0.000160135 -0.000156197 -0.000152563 -0.000149232 -0.000146332 -0.000143989 -0.000142205 -0.000140978 -0.000140264 -0.000140016 -0.000140236 -0.000140923 -0.000141908 -0.000143023 -0.000144267 -0.00014564 -0.000146968 -0.000148075 -0.00014896 -0.000149625 -0.000149997 -0.000150004 -0.000149648 -0.000148928 -0.000147909 -0.000146657 -0.000145171 -0.000143452 -0.000141642 -0.000139883 -0.000138175 -0.000136519 -0.000135037 -0.00013385 -0.000132961 -0.000132367 -0.000132111 -0.000132233 -0.000132732 -0.00013361 -0.000134818 -0.000136309 -0.000138083 -0.000140139 -0.000142361 -0.00014463 -0.000146946 -0.00014931 -0.000151554 -0.000153512 -0.000155184 -0.000156569 -0.000157489 -0.000157761 -0.000157388 -0.000156368 -0.000154569 -0.000151857 -0.000148232 -0.000143695 -0.00013823 -0.000131823 -0.000124472 -0.000116179 -0.000107119 -9.74668e-05 -8.72228e-05 -7.63869e-05 -6.54146e-05 -5.47614e-05 -4.44273e-05 -3.44124e-05 -2.53295e-05 -1.77916e-05 -1.17987e-05 -7.35078e-06 -4.13482e-06 -1.8377e-06 -4.59424e-07 0 0 -5.54743e-08 -2.21897e-07 -4.99269e-07 -8.87589e-07 -2.2161e-06 -5.31403e-06 -1.01814e-05 -1.68182e-05 -2.55105e-05 -3.65443e-05 -4.99198e-05 -6.56368e-05 -8.35712e-05 -0.000103599 -0.000125719 -0.000149933 -0.000176057 -0.000203911 -0.000233494 -0.000264806 -0.000297467 -0.000331099 -0.000365701 -0.000401273 -0.000437134 -0.000472603 -0.000507679 -0.000542363 -0.000575795 -0.000607118 -0.000636331 -0.000663434 -0.000687729 -0.00070852 -0.000725807 -0.000739588 -0.000749702 -0.000755982 -0.000758429 -0.000757044 -0.000752349 -0.000744868 -0.0007346 -0.000721546 -0.000706707 -0.000691088 -0.000674687 -0.000657505 -0.000640539 -0.000624787 -0.00061025 -0.000596927 -0.000585326 -0.000575957 -0.000568819 -0.000563912 -0.000561054 -0.000560065 -0.000560944 -0.000563692 -0.000567632 -0.000572091 -0.000577067 -0.000582562 -0.000587873 -0.0005923 -0.000595842 -0.000598499 -0.000599987 -0.000600018 -0.000598593 -0.000595712 -0.000591636 -0.000586627 -0.000580684 -0.000573808 -0.000566567 -0.000559532 -0.000552701 -0.000546076 -0.000540146 -0.000535402 -0.000531843 -0.000529469 -0.000528444 -0.000528931 -0.00053093 -0.000534441 -0.000539273 -0.000545236 -0.000552331 -0.000560558 -0.000569444 -0.00057852 -0.000587785 -0.00059724 -0.000606216 -0.000614048 -0.000620735 -0.000626277 -0.000629954 -0.000631046 -0.000629552 -0.000625473 -0.000618275 -0.000607428 -0.000592929 -0.00057478 -0.000552921 -0.000527291 -0.000497889 -0.000464717 -0.000428476 -0.000389867 -0.000348891 -0.000305547 -0.000261658 -0.000219046 -0.000177709 -0.000137649 -0.000101318 -7.11663e-05 -4.71947e-05 -2.94031e-05 -1.65393e-05 -7.35078e-06 -1.8377e-06 0 0 -1.24817e-07 -4.99269e-07 -1.12335e-06 -1.99707e-06 -4.98622e-06 -1.19566e-05 -2.29081e-05 -3.78409e-05 -5.73985e-05 -8.22247e-05 -0.00011232 -0.000147683 -0.000188035 -0.000233097 -0.000282868 -0.000337348 -0.000396129 -0.0004588 -0.000525361 -0.000595813 -0.000669301 -0.000744972 -0.000822827 -0.000902864 -0.000983552 -0.00106336 -0.00114228 -0.00122032 -0.00129554 -0.00136602 -0.00143174 -0.00149273 -0.00154739 -0.00159417 -0.00163306 -0.00166407 -0.00168683 -0.00170096 -0.00170647 -0.00170335 -0.00169279 -0.00167595 -0.00165285 -0.00162348 -0.00159009 -0.00155495 -0.00151805 -0.00147939 -0.00144121 -0.00140577 -0.00137306 -0.00134309 -0.00131698 -0.0012959 -0.00127984 -0.0012688 -0.00126237 -0.00126015 -0.00126212 -0.00126831 -0.00127717 -0.0012872 -0.0012984 -0.00131076 -0.00132271 -0.00133267 -0.00134064 -0.00134662 -0.00134997 -0.00135004 -0.00134683 -0.00134035 -0.00133118 -0.00131991 -0.00130654 -0.00129107 -0.00127478 -0.00125895 -0.00124358 -0.00122867 -0.00121533 -0.00120465 -0.00119665 -0.00119131 -0.001189 -0.00119009 -0.00119459 -0.00120249 -0.00121336 -0.00122678 -0.00124275 -0.00126125 -0.00128125 -0.00130167 -0.00132252 -0.00134379 -0.00136399 -0.00138161 -0.00139665 -0.00140912 -0.0014174 -0.00141985 -0.00141649 -0.00140731 -0.00139112 -0.00136671 -0.00133409 -0.00129326 -0.00124407 -0.0011864 -0.00112025 -0.00104561 -0.000964071 -0.000877202 -0.000785005 -0.000687482 -0.000588731 -0.000492852 -0.000399846 -0.000309711 -0.000227965 -0.000160124 -0.000106188 -6.6157e-05 -3.72133e-05 -1.65393e-05 -4.13482e-06 0 0 -2.21897e-07 -8.87589e-07 -1.99707e-06 -3.55036e-06 -8.86439e-06 -2.12561e-05 -4.07256e-05 -6.72727e-05 -0.000102042 -0.000146177 -0.000199679 -0.000262547 -0.000334285 -0.000414394 -0.000502876 -0.00059973 -0.000704229 -0.000815644 -0.000933975 -0.00105922 -0.00118987 -0.0013244 -0.0014628 -0.00160509 -0.00174854 -0.00189041 -0.00203072 -0.00216945 -0.00230318 -0.00242847 -0.00254532 -0.00265373 -0.00275092 -0.00283408 -0.00290323 -0.00295835 -0.00299881 -0.00302393 -0.00303372 -0.00302818 -0.0030094 -0.00297947 -0.0029384 -0.00288618 -0.00282683 -0.00276435 -0.00269875 -0.00263002 -0.00256216 -0.00249915 -0.002441 -0.00238771 -0.00234131 -0.00230383 -0.00227528 -0.00225565 -0.00224422 -0.00224026 -0.00224378 -0.00225477 -0.00227053 -0.00228836 -0.00230827 -0.00233025 -0.00235149 -0.0023692 -0.00238337 -0.002394 -0.00239995 -0.00240007 -0.00239437 -0.00238285 -0.00236655 -0.00234651 -0.00232274 -0.00229523 -0.00226627 -0.00223813 -0.00221081 -0.0021843 -0.00216059 -0.00214161 -0.00212737 -0.00211788 -0.00211378 -0.00211572 -0.00212372 -0.00213776 -0.00215709 -0.00218095 -0.00220933 -0.00224223 -0.00227778 -0.00231408 -0.00235114 -0.00238896 -0.00242486 -0.00245619 -0.00248294 -0.00250511 -0.00251982 -0.00252418 -0.00251821 -0.00250189 -0.0024731 -0.00242971 -0.00237172 -0.00229912 -0.00221168 -0.00210916 -0.00199156 -0.00185887 -0.0017139 -0.00155947 -0.00139556 -0.00122219 -0.00104663 -0.000876182 -0.000710837 -0.000550598 -0.000405271 -0.000284665 -0.000188779 -0.000117613 -6.6157e-05 -2.94031e-05 -7.35078e-06 0 0 -5.98675e-07 -2.3947e-06 -5.38807e-06 -9.5788e-06 -2.00884e-05 -4.20386e-05 -7.54292e-05 -0.00012026 -0.000178091 -0.000250482 -0.000337431 -0.00043894 -0.000554145 -0.00068218 -0.000823048 -0.000976746 -0.00114209 -0.00131789 -0.00150415 -0.00170086 -0.00190566 -0.00211616 -0.00233238 -0.0025543 -0.00277773 -0.00299846 -0.0032165 -0.00343184 -0.00363921 -0.00383336 -0.00401429 -0.00418199 -0.00433223 -0.00446078 -0.00456762 -0.00465277 -0.0047153 -0.00475426 -0.00476967 -0.00476153 -0.00473312 -0.00468773 -0.00462536 -0.00454601 -0.00445586 -0.00436107 -0.00426165 -0.0041576 -0.00405494 -0.00395968 -0.00387184 -0.0037914 -0.00372124 -0.00366423 -0.00362037 -0.00358966 -0.0035706 -0.00356173 -0.00356303 -0.00357451 -0.00359165 -0.00360992 -0.00362932 -0.00364987 -0.00366705 -0.00367637 -0.00367784 -0.00367146 -0.00365566 -0.00362891 -0.00359119 -0.00354252 -0.00348517 -0.00342141 -0.00335125 -0.00327469 -0.00319621 -0.00312029 -0.00304692 -0.00297612 -0.00291182 -0.00285799 -0.00281462 -0.0027817 -0.00276079 -0.00275341 -0.00275957 -0.00277927 -0.00281128 -0.00285438 -0.00290856 -0.00297382 -0.00304665 -0.00312353 -0.00320447 -0.00328946 -0.00337345 -0.00345138 -0.00352325 -0.00358905 -0.00364341 -0.00368092 -0.0037016 -0.00370543 -0.0036885 -0.00364689 -0.00358058 -0.00348959 -0.00337335 -0.00323131 -0.00306348 -0.00286985 -0.00265498 -0.00242342 -0.00217518 -0.00191025 -0.0016403 -0.00137699 -0.00112032 -0.000870292 -0.000642645 -0.00045312 -0.000301717 -0.000188437 -0.000105996 -4.71094e-05 -1.17773e-05 0 0 -1.50711e-06 -6.02844e-06 -1.3564e-05 -2.41138e-05 -4.48962e-05 -8.31299e-05 -0.000138815 -0.000211951 -0.000304198 -0.000417217 -0.000551009 -0.000705572 -0.00087944 -0.00107114 -0.00128069 -0.00150806 -0.00175144 -0.00200898 -0.00228068 -0.00256655 -0.00286315 -0.00316706 -0.00347829 -0.00379683 -0.00411677 -0.0044322 -0.00474312 -0.00504953 -0.00534412 -0.00561956 -0.00587586 -0.00611303 -0.00632526 -0.00650678 -0.00665758 -0.00677768 -0.00686596 -0.00692134 -0.00694383 -0.00693341 -0.00689488 -0.00683302 -0.00674783 -0.00663931 -0.00651612 -0.00638689 -0.00625162 -0.00611032 -0.00597112 -0.00584212 -0.00572334 -0.00561477 -0.00551975 -0.00544162 -0.00538038 -0.00533604 -0.00530554 -0.00528587 -0.00527701 -0.00527897 -0.00528447 -0.00528622 -0.00528422 -0.00527848 -0.00526222 -0.0052287 -0.0051779 -0.00510983 -0.00502286 -0.00491535 -0.00478729 -0.0046387 -0.00447449 -0.00429962 -0.00411407 -0.00391784 -0.00371976 -0.00352864 -0.00334447 -0.00316725 -0.00300495 -0.00286553 -0.00274898 -0.0026553 -0.00258804 -0.00255075 -0.00254342 -0.00256604 -0.00261677 -0.00269373 -0.00279692 -0.00292634 -0.00307548 -0.0032378 -0.00341332 -0.00360202 -0.00379435 -0.00398075 -0.00416123 -0.00433577 -0.00449436 -0.00462695 -0.00473355 -0.00481416 -0.00486161 -0.0048687 -0.00483545 -0.00476185 -0.00464665 -0.0044886 -0.00428768 -0.00404391 -0.00376429 -0.0034558 -0.00311845 -0.00275224 -0.00237466 -0.00200323 -0.00163793 -0.00127878 -0.000949492 -0.000673819 -0.000451755 -0.0002833 -0.000159356 -7.0825e-05 -1.77062e-05 0 0 -2.94721e-06 -1.17888e-05 -2.65248e-05 -4.71553e-05 -8.32878e-05 -0.00014453 -0.000230882 -0.000342343 -0.000480362 -0.000646385 -0.000840412 -0.00106244 -0.00131017 -0.00158129 -0.00187579 -0.00219368 -0.00253229 -0.00288892 -0.00326359 -0.00365628 -0.00406235 -0.0044771 -0.00490054 -0.00533268 -0.00576566 -0.00619163 -0.00661059 -0.00702255 -0.0074179 -0.00778707 -0.00813005 -0.00844684 -0.00873 -0.00897209 -0.00917311 -0.00933307 -0.0094508 -0.00952517 -0.00955618 -0.00954382 -0.00949468 -0.00941535 -0.00930582 -0.00916609 -0.0090076 -0.00884179 -0.00866865 -0.00848819 -0.0083107 -0.00814647 -0.00799551 -0.00785781 -0.00773682 -0.00763599 -0.00755531 -0.00749479 -0.00744903 -0.00741268 -0.00738572 -0.00736816 -0.007349 -0.00731727 -0.00727296 -0.00721608 -0.00713702 -0.00702617 -0.00688354 -0.00670913 -0.00650154 -0.00625938 -0.00598266 -0.00567137 -0.00533452 -0.00498112 -0.00461118 -0.00422469 -0.00383693 -0.00346318 -0.00310344 -0.00275771 -0.00243997 -0.00216422 -0.00193046 -0.00173868 -0.00159555 -0.00150774 -0.00147525 -0.00149807 -0.00157355 -0.001699 -0.00187442 -0.00209981 -0.00236428 -0.0026569 -0.00297768 -0.00332663 -0.00368756 -0.00404432 -0.00439688 -0.00474527 -0.00507267 -0.00536227 -0.00561408 -0.00582809 -0.00599242 -0.00609516 -0.00613633 -0.00611593 -0.0060316 -0.00588102 -0.00566417 -0.00538107 -0.00504183 -0.0046566 -0.00422538 -0.00374815 -0.00324973 -0.0027549 -0.00226367 -0.00177605 -0.00132582 -0.000946762 -0.00063889 -0.0004022 -0.000226237 -0.00010055 -2.51375e-05 0 0 -4.91896e-06 -1.96758e-05 -4.42706e-05 -7.87033e-05 -0.000135263 -0.000226239 -0.000351631 -0.000511439 -0.000706583 -0.000937983 -0.00120564 -0.00150955 -0.00184634 -0.00221261 -0.00260836 -0.0030336 -0.00348462 -0.00395771 -0.00445286 -0.00497007 -0.00550325 -0.00604627 -0.00659914 -0.00716186 -0.0077244 -0.00827675 -0.00881891 -0.00935088 -0.00986056 -0.0103359 -0.0107768 -0.0111834 -0.0115465 -0.0118567 -0.0121142 -0.0123189 -0.0124698 -0.0125657 -0.0126067 -0.0125928 -0.0125325 -0.0124347 -0.0122993 -0.0121263 -0.0119303 -0.0117258 -0.0115127 -0.0112912 -0.0110737 -0.0108727 -0.0106884 -0.0105205 -0.0103725 -0.0102473 -0.0101452 -0.0100659 -0.0100011 -0.00994217 -0.00988916 -0.00984206 -0.00978524 -0.00970307 -0.00959555 -0.00946267 -0.00929143 -0.00906879 -0.00879476 -0.00846934 -0.0080917 -0.00766102 -0.0071773 -0.00664054 -0.00606524 -0.00546593 -0.00484258 -0.00419522 -0.0035477 -0.00292391 -0.00232384 -0.00174748 -0.00121689 -0.000754077 -0.000359057 -3.18271e-05 0.000216704 0.000375625 0.000444936 0.000424637 0.000318381 0.000129819 -0.000141049 -0.000494223 -0.000913034 -0.00138082 -0.00189757 -0.00246329 -0.00305309 -0.00364206 -0.00423021 -0.00481754 -0.00537834 -0.00588688 -0.00634317 -0.00674721 -0.00708093 -0.00732627 -0.00748323 -0.0075518 -0.00752819 -0.00740857 -0.00719294 -0.00688131 -0.00648762 -0.00602584 -0.00549596 -0.00489799 -0.00426549 -0.003632 -0.00299755 -0.00236211 -0.00177161 -0.00127195 -0.000863124 -0.000545137 -0.00030664 -0.000136284 -3.40711e-05 0 0 -7.55052e-06 -3.02021e-05 -6.79547e-05 -0.000120808 -0.00020378 -0.000331886 -0.000505127 -0.000723502 -0.000986676 -0.00129431 -0.00164641 -0.00204297 -0.0024791 -0.00294991 -0.00345539 -0.00399555 -0.00456544 -0.00516012 -0.00577957 -0.0064238 -0.00708527 -0.00775642 -0.00843726 -0.00912779 -0.00981601 -0.01049 -0.0111496 -0.011795 -0.0124119 -0.0129861 -0.0135175 -0.0140063 -0.0144418 -0.0148136 -0.0151217 -0.0153661 -0.0155461 -0.0156611 -0.0157111 -0.0156962 -0.0156272 -0.0155151 -0.0153598 -0.0151615 -0.0149375 -0.0147052 -0.0144646 -0.0142156 -0.0139725 -0.0137491 -0.0135455 -0.0133617 -0.0131994 -0.0130605 -0.0129448 -0.0128524 -0.0127703 -0.0126852 -0.0125973 -0.0125066 -0.0123914 -0.0122301 -0.0120227 -0.0117693 -0.0114528 -0.0110561 -0.0105793 -0.0100224 -0.00938585 -0.00867031 -0.00787575 -0.00700217 -0.0060721 -0.00510805 -0.00411003 -0.00307803 -0.00204811 -0.00105632 -0.000102643 0.000812905 0.00165691 0.00239593 0.00302999 0.00355908 0.00396616 0.00423421 0.00436323 0.00435321 0.00420895 0.00393523 0.00353205 0.00299941 0.00236182 0.00164378 0.000845289 -3.36526e-05 -0.000956117 -0.00188518 -0.00282083 -0.00376307 -0.00467388 -0.0055152 -0.00628704 -0.0069894 -0.00759568 -0.00807927 -0.00844018 -0.0086784 -0.00878792 -0.00876272 -0.00860279 -0.00830815 -0.00789728 -0.00738871 -0.00678243 -0.00607845 -0.00532066 -0.00455297 -0.0037754 -0.00298793 -0.00225072 -0.00162392 -0.00110753 -0.000701553 -0.000394624 -0.000175388 -4.38471e-05 0 0 -1.09701e-05 -4.38802e-05 -9.87306e-05 -0.000175521 -0.000291796 -0.000465101 -0.000695436 -0.0009828 -0.00132446 -0.00171767 -0.00216244 -0.00265876 -0.00319962 -0.00377799 -0.00439387 -0.00504726 -0.00573175 -0.00644093 -0.0071748 -0.00793336 -0.00870782 -0.0094894 -0.0102781 -0.0110739 -0.0118635 -0.0126337 -0.0133843 -0.0141154 -0.0148117 -0.0154576 -0.0160534 -0.0165989 -0.0170833 -0.0174958 -0.0178365 -0.0181053 -0.0183028 -0.0184294 -0.0184851 -0.01847 -0.0183973 -0.0182803 -0.0181189 -0.0179131 -0.0176824 -0.0174463 -0.0172048 -0.0169578 -0.0167194 -0.0165037 -0.0163105 -0.01614 -0.0159904 -0.0158601 -0.0157491 -0.0156573 -0.0155652 -0.0154528 -0.0153203 -0.0151676 -0.0149655 -0.0146847 -0.0143252 -0.013887 -0.0133484 -0.0126877 -0.011905 -0.0110001 -0.00997649 -0.00883729 -0.00758253 -0.00621223 -0.00476051 -0.00326151 -0.00171525 -0.000121714 0.00146583 0.00299412 0.00446316 0.00587294 0.00717399 0.00831683 0.00930146 0.0101279 0.0107703 0.0112029 0.0114257 0.0114388 0.0112481 0.0108598 0.0102738 0.00949009 0.00854387 0.00747023 0.00626915 0.00494063 0.00353815 0.00211516 0.000671663 -0.000792337 -0.00222179 -0.00356165 -0.00481191 -0.00597258 -0.00700523 -0.00787146 -0.00857126 -0.00910464 -0.00946229 -0.00963492 -0.00962252 -0.00942509 -0.00906646 -0.00857043 -0.007937 -0.00716619 -0.00631395 -0.00543625 -0.00453309 -0.00360447 -0.00272699 -0.00197723 -0.0013552 -0.000860889 -0.00048425 -0.000215222 -5.38056e-05 0 0 -1.51776e-05 -6.07103e-05 -0.000136598 -0.000242841 -0.000399312 -0.000625884 -0.000922557 -0.00128933 -0.00171992 -0.00220806 -0.00275373 -0.00335693 -0.0040079 -0.00469686 -0.0054238 -0.00618873 -0.00698355 -0.00780016 -0.00863856 -0.00949874 -0.0103709 -0.0112452 -0.0121216 -0.0130002 -0.0138669 -0.0147078 -0.0155229 -0.0163121 -0.0170599 -0.0177506 -0.0183844 -0.0189612 -0.0194708 -0.0199033 -0.0202585 -0.0205366 -0.0207398 -0.0208705 -0.0209287 -0.0209143 -0.0208431 -0.0207304 -0.0205764 -0.0203811 -0.0201651 -0.0199492 -0.0197334 -0.0195177 -0.0193146 -0.0191365 -0.0189835 -0.0188555 -0.0187454 -0.0186463 -0.018558 -0.0184807 -0.0183858 -0.0182449 -0.018058 -0.0178252 -0.0175078 -0.0170671 -0.0165031 -0.0158158 -0.0149783 -0.0139637 -0.0127718 -0.0114027 -0.00986363 -0.00816196 -0.00629765 -0.0042707 -0.00213047 7.3684e-05 0.00234175 0.00467374 0.00699413 0.00922741 0.0113736 0.0134326 0.0153344 0.0170086 0.0184553 0.0196746 0.0206291 0.0212817 0.0216325 0.0216814 0.0214358 0.0209034 0.0200841 0.0189778 0.0176331 0.0160985 0.014374 0.0124596 0.0104297 0.00835894 0.00624726 0.00409467 0.00197792 -2.6228e-05 -0.00191778 -0.00369672 -0.00530957 -0.00670282 -0.00787646 -0.00883051 -0.0095513 -0.0100252 -0.0102521 -0.0102321 -0.00999514 -0.00957098 -0.00895968 -0.00816122 -0.00724536 -0.00628182 -0.00527061 -0.00421173 -0.0032004 -0.00233186 -0.00160611 -0.00102315 -0.000575519 -0.000255786 -6.39466e-05 0 0 -2.01731e-05 -8.06922e-05 -0.000181557 -0.000322769 -0.000526328 -0.000814235 -0.00118649 -0.0016431 -0.00217308 -0.00276547 -0.00342027 -0.00413748 -0.00490394 -0.00570651 -0.00654518 -0.00741996 -0.00832083 -0.00923779 -0.0101708 -0.01112 -0.0120745 -0.0130238 -0.0139679 -0.0149067 -0.0158262 -0.0167125 -0.0175654 -0.018385 -0.0191565 -0.019865 -0.0205106 -0.0210932 -0.0216045 -0.022036 -0.0223878 -0.0226599 -0.0228572 -0.0229844 -0.0230417 -0.0230291 -0.0229643 -0.0228655 -0.0227325 -0.0225654 -0.0223854 -0.0222137 -0.0220504 -0.0218953 -0.021758 -0.0216477 -0.0215644 -0.0215082 -0.0214645 -0.021419 -0.0213716 -0.0213224 -0.0212321 -0.0210615 -0.0208105 -0.0204793 -0.0200181 -0.0193771 -0.0185563 -0.0175557 -0.0163425 -0.0148838 -0.0131796 -0.0112299 -0.00904725 -0.00664432 -0.0040211 -0.00117759 0.00181802 0.00489754 0.00806098 0.0113083 0.0145368 0.0176435 0.0206286 0.023492 0.0261381 0.0284713 0.0304916 0.0321991 0.0335425 0.0344706 0.0349834 0.0350809 0.0347721 0.0340662 0.032963 0.0314625 0.0296296 0.0275287 0.0251599 0.0225231 0.0197186 0.0168462 0.013906 0.0108979 0.00792526 0.00509107 0.00239537 -0.000161841 -0.0025087 -0.00457335 -0.00635579 -0.00785602 -0.00905495 -0.00993347 -0.0104916 -0.0107293 -0.0106833 -0.0103904 -0.00985045 -0.00906355 -0.00811489 -0.0070897 -0.00598797 -0.00480971 -0.00367097 -0.00268783 -0.00186028 -0.00118832 -0.000668431 -0.000297081 -7.42701e-05 0 0 -2.5862e-05 -0.000103448 -0.000232758 -0.000413792 -0.000670249 -0.00102583 -0.00148052 -0.00203434 -0.00267018 -0.00337093 -0.00413659 -0.00496717 -0.00584523 -0.00675335 -0.00769153 -0.00865976 -0.00964581 -0.0106374 -0.0116346 -0.0126374 -0.0136346 -0.0146152 -0.0155793 -0.0165267 -0.0174447 -0.0183204 -0.0191539 -0.019945 -0.0206815 -0.0213513 -0.0219542 -0.0224903 -0.0229548 -0.0233428 -0.0236543 -0.0238894 -0.0240566 -0.0241644 -0.024213 -0.0242022 -0.0241524 -0.0240837 -0.0239962 -0.0238899 -0.023785 -0.0237017 -0.02364 -0.0236 -0.0235853 -0.0235997 -0.0236432 -0.0237157 -0.0237924 -0.0238484 -0.0238837 -0.0238984 -0.0238395 -0.0236543 -0.0233427 -0.0229047 -0.0222773 -0.0213976 -0.0202655 -0.0188812 -0.017205 -0.0151976 -0.012859 -0.0101892 -0.00720809 -0.00393547 -0.000371357 0.00348424 0.00753947 0.0117025 0.0159733 0.020352 0.0247019 0.0288869 0.0329068 0.0367617 0.0403251 0.0434708 0.0461986 0.0485087 0.0503329 0.0516032 0.0523196 0.052482 0.0521013 0.0511881 0.0497425 0.0477643 0.0453374 0.0425453 0.0393881 0.0358657 0.0321089 0.0282482 0.0242836 0.0202152 0.0161783 0.0123082 0.00860482 0.00506824 0.00179297 -0.00112646 -0.00369005 -0.00589781 -0.00772363 -0.00914143 -0.0101512 -0.010753 -0.0109912 -0.0109101 -0.0105099 -0.0097905 -0.00885466 -0.00780519 -0.00664208 -0.00536533 -0.00411413 -0.00302769 -0.00210601 -0.00134909 -0.000758863 -0.000337272 -8.43181e-05 0 0 -3.215e-05 -0.0001286 -0.00028935 -0.0005144 -0.000828482 -0.00125633 -0.00179794 -0.00245331 -0.00319747 -0.00400543 -0.0048772 -0.00581278 -0.00678928 -0.00778381 -0.00879637 -0.00982696 -0.0108607 -0.0118827 -0.0128929 -0.0138913 -0.0148672 -0.0158095 -0.0167183 -0.0175937 -0.0184257 -0.0192045 -0.0199302 -0.0206026 -0.0212148 -0.0217598 -0.0222374 -0.0226478 -0.0229923 -0.0232724 -0.0234879 -0.023639 -0.0237396 -0.0238036 -0.023831 -0.0238218 -0.0237985 -0.0237834 -0.0237767 -0.0237782 -0.0238051 -0.0238746 -0.0239865 -0.024141 -0.0243325 -0.0245555 -0.0248099 -0.0250957 -0.0253737 -0.0256045 -0.0257881 -0.0259245 -0.0259436 -0.0257752 -0.0254193 -0.0248759 -0.0240663 -0.0229115 -0.0214116 -0.0195665 -0.0173297 -0.0146543 -0.0115404 -0.00798809 -0.00402689 0.000313511 0.00503312 0.0101319 0.0154884 0.020981 0.0266097 0.0323745 0.0380978 0.0436019 0.0488868 0.0539525 0.0586357 0.0627731 0.0663646 0.0694104 0.0718225 0.073513 0.074482 0.0747294 0.0742677 0.0731094 0.0712546 0.0687032 0.0655608 0.0619331 0.0578201 0.0532217 0.0483048 0.0432363 0.0380161 0.0326443 0.0272952 0.0221431 0.0171879 0.0124297 0.00799102 0.00399443 0.000439932 -0.00267249 -0.00530772 -0.00743065 -0.00904129 -0.0101396 -0.0107788 -0.0110118 -0.0108387 -0.0102594 -0.0093968 -0.00837362 -0.00718985 -0.00584551 -0.00450532 -0.00333402 -0.00233162 -0.00149812 -0.00084269 -0.000374529 -9.36323e-05 0 0 -3.9037e-05 -0.000156148 -0.000351333 -0.000624593 -0.00100103 -0.00150574 -0.00213873 -0.0029 -0.00375495 -0.00466899 -0.00564211 -0.00667431 -0.00773608 -0.00879787 -0.0098597 -0.0109216 -0.0119655 -0.0129735 -0.0139456 -0.0148819 -0.0157722 -0.0166066 -0.017385 -0.0181075 -0.0187691 -0.0193647 -0.0198943 -0.0203579 -0.0207564 -0.0210905 -0.0213603 -0.0215657 -0.0217171 -0.0218248 -0.0218887 -0.0219089 -0.0219063 -0.0219019 -0.0218958 -0.0218879 -0.0219027 -0.0219647 -0.0220739 -0.0222304 -0.0224459 -0.0227324 -0.0230899 -0.0235184 -0.0239995 -0.0245148 -0.0250644 -0.0256483 -0.0262085 -0.0266873 -0.0270847 -0.0274007 -0.0275441 -0.027424 -0.0270404 -0.0263932 -0.0253851 -0.0239189 -0.0219945 -0.0196119 -0.0167166 -0.0132539 -0.00922385 -0.00462645 0.000496355 0.00610262 0.0121923 0.0187655 0.0256648 0.0327331 0.0399701 0.0473761 0.0547244 0.0617885 0.0685685 0.0750644 0.0810697 0.0863781 0.0909897 0.0949043 0.0980113 0.1002 0.101471 0.101823 0.101271 0.09983 0.0974993 0.0942791 0.0902999 0.0856921 0.0804558 0.074591 0.0683063 0.0618104 0.0551034 0.0481852 0.0412759 0.0345957 0.0281446 0.0219225 0.0160855 0.0107893 0.00603417 0.00181993 -0.00180722 -0.00480113 -0.0071618 -0.00888922 -0.0100461 -0.0106953 -0.0108367 -0.0104703 -0.0097413 -0.00879497 -0.00763129 -0.00625025 -0.00484453 -0.00360682 -0.00253711 -0.0016354 -0.000919915 -0.000408851 -0.000102213 0 0 -4.65231e-05 -0.000186092 -0.000418708 -0.000744369 -0.00118789 -0.00177407 -0.00250291 -0.00337442 -0.00434263 -0.00536159 -0.0064313 -0.00755176 -0.00868563 -0.00979554 -0.0108815 -0.0119435 -0.0129602 -0.0139099 -0.0147929 -0.015609 -0.0163497 -0.0170064 -0.0175793 -0.0180683 -0.018475 -0.018801 -0.0190463 -0.0192109 -0.0193062 -0.0193435 -0.0193228 -0.0192441 -0.0191292 -0.0190001 -0.0188566 -0.0186989 -0.0185566 -0.0184594 -0.0184073 -0.0184003 -0.0184649 -0.0186274 -0.0188879 -0.0192464 -0.0197073 -0.0202753 -0.0209502 -0.0217322 -0.0225863 -0.0234779 -0.0244069 -0.0253734 -0.0262968 -0.0270969 -0.0277736 -0.028327 -0.0286413 -0.028601 -0.028206 -0.0274564 -0.0262337 -0.0244196 -0.0220141 -0.0190172 -0.0153657 -0.0109964 -0.00590925 -0.000104312 0.00636165 0.0134318 0.0211063 0.0293849 0.0380688 0.0469586 0.0560546 0.0653566 0.0745817 0.0834468 0.0919521 0.100097 0.107627 0.114286 0.120074 0.12499 0.128899 0.131664 0.133285 0.133762 0.133112 0.13135 0.128477 0.124492 0.119554 0.113822 0.107295 0.0999736 0.0921134 0.0839707 0.0755455 0.0668378 0.0581204 0.0496661 0.0414749 0.0335467 0.0260763 0.0192583 0.0130927 0.00757944 0.00277786 -0.00125286 -0.00451274 -0.00700176 -0.00879329 -0.00996068 -0.0105039 -0.0104231 -0.00988815 -0.00906926 -0.00796639 -0.00657955 -0.00513177 -0.00384608 -0.00272247 -0.00176095 -0.000990535 -0.000440238 -0.000110059 0 0 -5.43782e-05 -0.000217513 -0.000489403 -0.00087005 -0.00138301 -0.00205185 -0.00287657 -0.00385715 -0.00493431 -0.00604873 -0.0072004 -0.00838934 -0.00956884 -0.0106922 -0.0117594 -0.0127705 -0.0136999 -0.0145221 -0.0152371 -0.0158448 -0.0163391 -0.0167139 -0.0169692 -0.017105 -0.0171321 -0.0170614 -0.016893 -0.0166267 -0.0162883 -0.0159035 -0.0154722 -0.0149944 -0.0145074 -0.0140482 -0.0136169 -0.0132133 -0.0128784 -0.0126526 -0.0125361 -0.0125288 -0.0126589 -0.0129546 -0.0134159 -0.0140429 -0.0148297 -0.0157707 -0.0168659 -0.0181153 -0.0194629 -0.0208527 -0.0222847 -0.0237589 -0.0251671 -0.0264011 -0.0274608 -0.0283464 -0.0289131 -0.0290164 -0.0286562 -0.0278327 -0.0264035 -0.0242264 -0.0213013 -0.0176284 -0.0131355 -0.00775046 -0.00147339 0.00569575 0.0136818 0.0224098 0.0318796 0.0420912 0.0527968 0.0637482 0.0749455 0.0863887 0.0977306 0.108624 0.119069 0.129066 0.138305 0.146477 0.153581 0.159617 0.164422 0.167833 0.169848 0.170469 0.169713 0.167598 0.164126 0.159296 0.153295 0.146311 0.138344 0.129393 0.119767 0.109773 0.0994111 0.088681 0.0779149 0.0674448 0.0572709 0.0473929 0.0380506 0.0294836 0.0216917 0.0146751 0.00850882 0.00326795 -0.00104749 -0.00443752 -0.00698688 -0.00878034 -0.00981789 -0.0100995 -0.00982277 -0.0091851 -0.00818653 -0.00682704 -0.00536249 -0.00404873 -0.00288576 -0.00187358 -0.00105389 -0.000468394 -0.000117099 0 0 -6.23723e-05 -0.000249489 -0.00056135 -0.000997956 -0.00158037 -0.00232965 -0.0032458 -0.00432881 -0.0055038 -0.00669587 -0.00790502 -0.00913125 -0.0103166 -0.0114032 -0.0123911 -0.0132801 -0.0140399 -0.0146401 -0.0150806 -0.0153615 -0.0154801 -0.0154338 -0.0152227 -0.0148466 -0.0143292 -0.013694 -0.012941 -0.0120703 -0.0111267 -0.0101552 -0.00915582 -0.00812856 -0.00713066 -0.00621934 -0.00539462 -0.00465648 -0.0040595 -0.00365823 -0.00345268 -0.00344285 -0.00365847 -0.00412927 -0.00485527 -0.00583645 -0.0070533 -0.00848631 -0.0101355 -0.0120008 -0.0139991 -0.0160472 -0.0181451 -0.0202928 -0.0223478 -0.0241677 -0.0257524 -0.0271019 -0.0280376 -0.0283807 -0.0281313 -0.0272894 -0.0256859 -0.0231517 -0.0196868 -0.0152913 -0.00988422 -0.0033848 0.00420698 0.0128911 0.0225698 0.033145 0.0446169 0.0569854 0.0699454 0.0831921 0.0967252 0.110545 0.124232 0.137368 0.149953 0.161986 0.173101 0.18293 0.191474 0.198733 0.204516 0.208632 0.21108 0.211862 0.210996 0.208505 0.204388 0.198645 0.191492 0.183145 0.173606 0.162873 0.151309 0.139274 0.126769 0.113793 0.100745 0.0880225 0.0756246 0.0635518 0.0520956 0.0415476 0.0319077 0.023176 0.0154469 0.00881513 0.00328056 -0.00115677 -0.00459358 -0.00712661 -0.00875586 -0.00948132 -0.00953056 -0.00913114 -0.00828306 -0.00698632 -0.00553214 -0.0042117 -0.00302502 -0.0019721 -0.0011093 -0.000493024 -0.000123256 0 0 -7.05054e-05 -0.000282022 -0.000634549 -0.00112809 -0.00177995 -0.00260746 -0.0036106 -0.00478939 -0.0060511 -0.00730302 -0.00854515 -0.00977748 -0.010929 -0.0119286 -0.0127764 -0.0134723 -0.0139802 -0.0142639 -0.0143236 -0.0141592 -0.0137727 -0.0131661 -0.0123396 -0.0112931 -0.0100662 -0.00869868 -0.00719049 -0.00554164 -0.0038213 -0.00209865 -0.000373692 0.00135358 0.00300104 0.00448654 0.0058101 0.00697171 0.00790005 0.00852379 0.00884295 0.00885751 0.00853642 0.00784862 0.00679409 0.00537285 0.0036218 0.00157785 -0.000759004 -0.00338876 -0.00619506 -0.00906155 -0.0119882 -0.0149751 -0.0178389 -0.0203966 -0.0226482 -0.0245935 -0.0260148 -0.0266941 -0.0266313 -0.0258265 -0.0240808 -0.0211955 -0.0171705 -0.0120059 -0.00561199 0.00210059 0.0111319 0.0214819 0.0330255 0.0456376 0.0593182 0.0740673 0.0895148 0.10529 0.121394 0.137826 0.154087 0.169679 0.184602 0.198856 0.212013 0.223646 0.233755 0.242339 0.249181 0.254062 0.256982 0.257941 0.256963 0.25407 0.249261 0.242538 0.234144 0.224326 0.213082 0.200414 0.186738 0.172473 0.157619 0.142175 0.126612 0.111399 0.0965361 0.0820234 0.0682113 0.0554504 0.0437407 0.0330821 0.0235922 0.0153887 0.00847143 0.00284049 -0.0016134 -0.00499952 -0.00731786 -0.00856843 -0.00901151 -0.00890736 -0.008256 -0.00705741 -0.00564071 -0.00433499 -0.00314026 -0.00205651 -0.00115679 -0.000514128 -0.000128532 0 0 -7.87777e-05 -0.000315111 -0.000708999 -0.00126044 -0.00198176 -0.00288528 -0.00397099 -0.00523889 -0.00657622 -0.00787018 -0.00912079 -0.010328 -0.0114059 -0.0122684 -0.0129154 -0.013347 -0.0135206 -0.0133936 -0.012966 -0.0122377 -0.0112167 -0.00991085 -0.0083201 -0.00644448 -0.0043432 -0.0020755 0.000358628 0.00295918 0.0056278 0.00826614 0.0108742 0.013452 0.0158877 0.0180694 0.0199973 0.0216712 0.0230003 0.0238935 0.0243508 0.0243723 0.0239258 0.0229791 0.0215322 0.0195851 0.0171956 0.0144218 0.0112636 0.00772087 0.00394929 0.000104327 -0.00381401 -0.00780574 -0.0116405 -0.015088 -0.0181483 -0.0208213 -0.0228448 -0.0239564 -0.0241561 -0.023444 -0.0215884 -0.018358 -0.0137525 -0.00777216 -0.000318761 0.00870572 0.0193013 0.031468 0.0450489 0.0598875 0.0759835 0.0933372 0.111505 0.130043 0.148951 0.16823 0.187294 0.205556 0.223017 0.239677 0.255044 0.268625 0.280422 0.290434 0.298416 0.304122 0.307553 0.308708 0.307613 0.304293 0.298747 0.290976 0.281253 0.269852 0.256773 0.242015 0.226055 0.20937 0.191961 0.173826 0.155515 0.137574 0.120005 0.102808 0.0863977 0.071192 0.0571906 0.0443934 0.0329447 0.0229886 0.0145251 0.00755426 0.00195367 -0.00239905 -0.0055039 -0.00736088 -0.00826562 -0.00851377 -0.00810533 -0.0070403 -0.00568821 -0.0044186 -0.00323147 -0.00212682 -0.00119634 -0.000531706 -0.000132926 0 0 -8.69276e-05 -0.00034771 -0.000782348 -0.00139084 -0.002179 -0.00315265 -0.00431177 -0.00565637 -0.0070512 -0.00836097 -0.00958569 -0.0107254 -0.0116768 -0.0123366 -0.012705 -0.0127818 -0.012517 -0.0118607 -0.0108129 -0.00937348 -0.00755776 