<?xml version="1.0"?> 
<VTKFile type="StructuredGrid" version="0.1"> 
<StructuredGrid WholeExtent="0 128 0 128 0 0"> 
<Piece Extent="0 128 0 128 0 0"> 
<PointData>
<DataArray type="Float32" Name="u" format="ascii" NumberOfComponents="1"> 
0 0 0 0 0 0 0 0 0 0 0 0 0 0 0 0 0 0 0 0 0 0 0 0 0 0 0 0 0 0 0 0 0 0 0 0 0 0 0 0 0 0 0 0 0 0 0 0 0 0 0 0 0 0 0 0 0 0 0 0 0 0 0 0 0 0 0 0 0 0 0 0 0 0 0 0 0 0 0 0 0 0 0 0 0 0 0 0 0 0 0 0 0 0 0 0 0 0 0 0 0 0 0 0 0 0 0 0 0 0 0 0 0 0 0 0 0 0 0 0 0 0 0 0 0 0 0 0 0 0 -1.58739e-08 -6.34956e-08 -1.42865e-07 -2.53982e-07 -6.04426e-07 -1.40177e-06 -2.64603e-06 -4.33719e-06 -6.54402e-06 -9.33531e-06 -1.2711e-05 -1.66712e-05 -2.11831e-05 -2.62141e-05 -3.1764e-05 -3.7833e-05 -4.43745e-05 -5.13422e-05 -5.87361e-05 -6.65561e-05 -7.47072e-05 -8.30945e-05 -9.17178e-05 -0.000100577 -0.000109504 -0.000118327 -0.000127049 -0.000135668 -0.000143973 -0.000151751 -0.000159003 -0.000165727 -0.000171754 -0.000176911 -0.000181199 -0.000184618 -0.000187127 -0.000188689 -0.000189302 -0.000188966 -0.000187812 -0.000185969 -0.000183438 -0.000180217 -0.000176555 -0.000172698 -0.000168648 -0.000164403 -0.00016021 -0.000156315 -0.000152718 -0.000149418 -0.000146541 -0.000144213 -0.000142433 -0.000141201 -0.000140472 -0.000140201 -0.000140387 -0.00014103 -0.000141962 -0.000143014 -0.000144186 -0.000145478 -0.000146713 -0.000147715 -0.000148483 -0.000149019 -0.000149248 -0.000149098 -0.000148569 -0.000147661 -0.000146442 -0.000144977 -0.000143266 -0.000141311 -0.000139259 -0.00013726 -0.000135314 -0.000133421 -0.000131714 -0.000130325 -0.000129254 -0.000128501 -0.000128114 -0.000128142 -0.000128585 -0.000129443 -0.000130667 -0.000132211 -0.000134074 -0.000136256 -0.000138631 -0.000141075 -0.000143587 -0.000146167 -0.000148638 -0.000150823 -0.000152722 -0.000154335 -0.000155475 -0.000155955 -0.000155776 -0.000154937 -0.000153304 -0.000150743 -0.000147254 -0.000142836 -0.000137477 -0.000131165 -0.0001239 -0.000115682 -0.000106688 -9.70973e-05 -8.69093e-05 -7.61242e-05 -6.5198e-05 -5.45869e-05 -4.42909e-05 -3.43099e-05 -2.52562e-05 -1.77419e-05 -1.1767e-05 -7.33152e-06 -4.12398e-06 -1.83288e-06 -4.5822e-07 0 0 -6.34956e-08 -2.53982e-07 -5.7146e-07 -1.01593e-06 -2.4177e-06 -5.6071e-06 -1.05841e-05 -1.73487e-05 -2.61761e-05 -3.73412e-05 -5.08442e-05 -6.66849e-05 -8.47325e-05 -0.000104856 -0.000127056 -0.000151332 -0.000177498 -0.000205369 -0.000234944 -0.000266224 -0.000298829 -0.000332378 -0.000366871 -0.000402309 -0.000438014 -0.00047331 -0.000508196 -0.000542673 -0.000575892 -0.000607005 -0.000636011 -0.00066291 -0.000687017 -0.000707646 -0.000724797 -0.000738471 -0.00074851 -0.000754755 -0.000757207 -0.000755865 -0.000751249 -0.000743877 -0.00073375 -0.000720868 -0.000706219 -0.000690794 -0.000674592 -0.000657613 -0.000640842 -0.000625261 -0.000610871 -0.000597672 -0.000586166 -0.000576852 -0.000569732 -0.000564805 -0.00056189 -0.000560804 -0.000561548 -0.000564122 -0.00056785 -0.000572057 -0.000576745 -0.000581912 -0.000586852 -0.000590859 -0.000593933 -0.000596074 -0.000596991 -0.000596392 -0.000594277 -0.000590646 -0.000585767 -0.000579906 -0.000573065 -0.000565242 -0.000557035 -0.00054904 -0.000541257 -0.000533686 -0.000526857 -0.0005213 -0.000517015 -0.000514003 -0.000512457 -0.000512569 -0.00051434 -0.00051777 -0.000522668 -0.000528843 -0.000536294 -0.000545023 -0.000554526 -0.000564301 -0.000574348 -0.000584668 -0.000594551 -0.000603291 -0.000610887 -0.000617339 -0.0006219 -0.000623822 -0.000623105 -0.000619749 -0.000613217 -0.000602972 -0.000589014 -0.000571343 -0.000549909 -0.000524662 -0.000495601 -0.000462727 -0.000426752 -0.000388389 -0.000347637 -0.000304497 -0.000260792 -0.000218348 -0.000177164 -0.00013724 -0.000101025 -7.09675e-05 -4.7068e-05 -2.93261e-05 -1.64959e-05 -7.33152e-06 -1.83288e-06 0 0 -1.42865e-07 -5.7146e-07 -1.28579e-06 -2.28584e-06 -5.43983e-06 -1.2616e-05 -2.38143e-05 -3.90347e-05 -5.88962e-05 -8.40178e-05 -0.000114399 -0.000150041 -0.000190648 -0.000235927 -0.000285876 -0.000340497 -0.000399371 -0.00046208 -0.000528625 -0.000599005 -0.000672365 -0.00074785 -0.00082546 -0.000905195 -0.000985532 -0.00106495 -0.00114344 -0.00122102 -0.00129576 -0.00136576 -0.00143102 -0.00149155 -0.00154579 -0.0015922 -0.00163079 -0.00166156 -0.00168415 -0.0016982 -0.00170371 -0.0017007 -0.00169031 -0.00167372 -0.00165094 -0.00162195 -0.00158899 -0.00155429 -0.00151783 -0.00147963 -0.00144189 -0.00140684 -0.00137446 -0.00134476 -0.00131887 -0.00129792 -0.0012819 -0.00127081 -0.00126425 -0.00126181 -0.00126348 -0.00126927 -0.00127766 -0.00128713 -0.00129768 -0.0013093 -0.00132042 -0.00132943 -0.00133635 -0.00134117 -0.00134323 -0.00134188 -0.00133712 -0.00132895 -0.00131797 -0.00130479 -0.0012894 -0.0012718 -0.00125333 -0.00123534 -0.00121783 -0.00120079 -0.00118543 -0.00117292 -0.00116328 -0.00115651 -0.00115303 -0.00115328 -0.00115727 -0.00116498 -0.001176 -0.0011899 -0.00120666 -0.0012263 -0.00124768 -0.00126968 -0.00129228 -0.0013155 -0.00133774 -0.0013574 -0.0013745 -0.00138901 -0.00139927 -0.0014036 -0.00140199 -0.00139443 -0.00137974 -0.00135669 -0.00132528 -0.00128552 -0.0012373 -0.00118049 -0.0011151 -0.00104114 -0.000960193 -0.000873875 -0.000782184 -0.000685117 -0.000586782 -0.000491282 -0.000398618 -0.000308789 -0.000227306 -0.000159677 -0.000105903 -6.59837e-05 -3.71158e-05 -1.64959e-05 -4.12398e-06 0 0 -2.53982e-07 -1.01593e-06 -2.28584e-06 -4.06372e-06 -9.67082e-06 -2.24284e-05 -4.23365e-05 -6.9395e-05 -0.000104704 -0.000149365 -0.000203377 -0.000266739 -0.00033893 -0.000419425 -0.000508224 -0.000605327 -0.000709992 -0.000821475 -0.000939777 -0.0010649 -0.00119532 -0.00132951 -0.00146748 -0.00160924 -0.00175206 -0.00189324 -0.00203279 -0.00217069 -0.00230357 -0.00242802 -0.00254404 -0.00265164 -0.00274807 -0.00283058 -0.00289919 -0.00295389 -0.00299404 -0.00301902 -0.00302883 -0.00302346 -0.003005 -0.00297551 -0.002935 -0.00288347 -0.00282488 -0.00276318 -0.00269837 -0.00263045 -0.00256337 -0.00250104 -0.00244348 -0.00239069 -0.00234466 -0.00230741 -0.00227893 -0.00225922 -0.00224756 -0.00224322 -0.00224619 -0.00225649 -0.0022714 -0.00228823 -0.00230698 -0.00232765 -0.00234741 -0.00236344 -0.00237573 -0.0023843 -0.00238796 -0.00238557 -0.00237711 -0.00236258 -0.00234307 -0.00231962 -0.00229226 -0.00226097 -0.00222814 -0.00219616 -0.00216503 -0.00213474 -0.00210743 -0.0020852 -0.00206806 -0.00205601 -0.00204983 -0.00205028 -0.00205736 -0.00207108 -0.00209067 -0.00211537 -0.00214518 -0.00218009 -0.0022181 -0.0022572 -0.00229739 -0.00233867 -0.0023782 -0.00241316 -0.00244355 -0.00246936 -0.0024876 -0.00249529 -0.00249242 -0.00247899 -0.00245287 -0.00241189 -0.00235606 -0.00228537 -0.00219964 -0.00209865 -0.0019824 -0.00185091 -0.00170701 -0.00155356 -0.00139055 -0.00121799 -0.00104317 -0.000873391 -0.000708654 -0.000548959 -0.000404099 -0.00028387 -0.000188272 -0.000117304 -6.59837e-05 -2.93261e-05 -7.33152e-06 0 0 -6.48171e-07 -2.59269e-06 -5.83354e-06 -1.03707e-05 -2.13313e-05 -4.38422e-05 -7.79035e-05 -0.000123515 -0.000182169 -0.000255357 -0.000343079 -0.000445336 -0.000561221 -0.000689831 -0.000831164 -0.000985222 -0.00115079 -0.00132666 -0.00151284 -0.00170931 -0.00191371 -0.00212366 -0.00233915 -0.00256018 -0.00278258 -0.00300218 -0.00321898 -0.00343296 -0.00363895 -0.00383173 -0.00401132 -0.00417769 -0.00432671 -0.0044542 -0.00456017 -0.00464462 -0.00470665 -0.00474539 -0.00476082 -0.00475295 -0.00472504 -0.00468035 -0.00461888 -0.00454064 -0.0044517 -0.00435817 -0.00426003 -0.00415729 -0.00405589 -0.00396174 -0.00387487 -0.00379526 -0.00372573 -0.00366912 -0.00362542 -0.00359463 -0.00357526 -0.00356583 -0.00356634 -0.00357679 -0.00359266 -0.00360942 -0.00362709 -0.00364565 -0.00366058 -0.00366736 -0.00366598 -0.00365644 -0.00363716 -0.00360654 -0.00356459 -0.0035113 -0.00344899 -0.00337997 -0.00330425 -0.00322182 -0.00313734 -0.00305545 -0.00297615 -0.00289944 -0.00282953 -0.00277062 -0.00272271 -0.00268579 -0.00266161 -0.00265188 -0.0026566 -0.00267578 -0.00270819 -0.00275259 -0.00280898 -0.00287737 -0.00295404 -0.00303529 -0.0031211 -0.00321148 -0.00330113 -0.00338471 -0.00346223 -0.00353369 -0.00359353 -0.0036362 -0.00366169 -0.00367 -0.00365718 -0.00361929 -0.00355631 -0.00346825 -0.00335463 -0.00321494 -0.0030492 -0.0028574 -0.00264417 -0.00241412 -0.00216726 -0.00190359 -0.00163479 -0.00137253 -0.00111682 -0.00086765 -0.000640745 -0.000451822 -0.000300883 -0.000187928 -0.000105709 -4.6982e-05 -1.17455e-05 0 0 -1.57676e-06 -6.30703e-06 -1.41908e-05 -2.52281e-05 -4.66419e-05 -8.56553e-05 -0.000142268 -0.000216481 -0.000309859 -0.000423969 -0.000558811 -0.000714385 -0.000889164 -0.00108162 -0.00129176 -0.00151958 -0.0017632 -0.00202076 -0.00229225 -0.00257767 -0.00287359 -0.00317658 -0.00348665 -0.00380378 -0.00412211 -0.00443577 -0.00474476 -0.00504909 -0.00534152 -0.00561486 -0.00586909 -0.00610422 -0.00631457 -0.00649447 -0.00664393 -0.00676293 -0.00685046 -0.00690547 -0.00692797 -0.00691795 -0.00688016 -0.00681935 -0.00673552 -0.00662866 -0.0065073 -0.00637997 -0.00624665 -0.00610736 -0.00597008 -0.0058428 -0.00572553 -0.00561827 -0.00552428 -0.00544684 -0.00538596 -0.00534162 -0.0053108 -0.00529046 -0.0052806 -0.00528122 -0.00528503 -0.00528477 -0.00528043 -0.00527201 -0.0052527 -0.00521569 -0.00516098 -0.00508858 -0.00499678 -0.0048839 -0.00474993 -0.00459486 -0.0044237 -0.0042414 -0.00404797 -0.00384341 -0.00363679 -0.00343714 -0.00324448 -0.0030588 -0.00288842 -0.00274169 -0.00261859 -0.00251913 -0.00244712 -0.0024064 -0.00239696 -0.0024188 -0.00247006 -0.00254887 -0.00265522 -0.00278912 -0.00294376 -0.00311233 -0.00329483 -0.00349126 -0.00369168 -0.00388617 -0.00407472 -0.00425734 -0.00442374 -0.00456365 -0.00467708 -0.00476402 -0.00481726 -0.0048296 -0.00480102 -0.00473153 -0.00461997 -0.00446519 -0.00426719 -0.00402597 -0.00374862 -0.00344225 -0.00310685 -0.00274243 -0.00236649 -0.00199657 -0.00163266 -0.00127477 -0.000946583 -0.00067181 -0.000450447 -0.000282494 -0.000158903 -7.06236e-05 -1.76559e-05 0 0 -3.03974e-06 -1.2159e-05 -2.73576e-05 -4.86358e-05 -8.56027e-05 -0.000147868 -0.000235431 -0.000348292 -0.000487774 -0.000655201 -0.000850572 -0.00107389 -0.00132276 -0.0015948 -0.00189001 -0.0022084 -0.00254722 -0.00290375 -0.003278 -0.00366996 -0.00407495 -0.00448829 -0.00490998 -0.00534003 -0.00577063 -0.006194 -0.00661014 -0.00701906 -0.00741129 -0.0077774 -0.00811737 -0.00843121 -0.00871165 -0.0089514 -0.00915046 -0.00930883 -0.00942545 -0.00949927 -0.00953027 -0.00951846 -0.00947037 -0.00939252 -0.00928491 -0.00914755 -0.00899168 -0.00882858 -0.00865823 -0.00848065 -0.00830594 -0.00814422 -0.00799548 -0.00785972 -0.0077403 -0.00764058 -0.00756054 -0.0075002 -0.00745418 -0.0074171 -0.00738896 -0.00736976 -0.00734853 -0.00731427 -0.00726701 -0.00720672 -0.00712375 -0.00700842 -0.00686074 -0.00668071 -0.00646683 -0.00621763 -0.00593312 -0.00561328 -0.00526718 -0.00490389 -0.00452342 -0.00412574 -0.00372649 -0.00334124 -0.00297002 -0.0026128 -0.0022841 -0.0019984 -0.0017557 -0.00155601 -0.00140637 -0.00131385 -0.00127844 -0.00130015 -0.0013763 -0.00150421 -0.00168389 -0.00191534 -0.00218725 -0.00248833 -0.00281858 -0.00317799 -0.00354988 -0.00391756 -0.00428103 -0.00464029 -0.00497821 -0.00527764 -0.00553859 -0.00576106 -0.00593311 -0.00604281 -0.00609017 -0.00607519 -0.00599566 -0.00584939 -0.00563637 -0.00535661 -0.00502039 -0.00463795 -0.00420932 -0.00373448 -0.00323827 -0.0027455 -0.00225618 -0.00177031 -0.00132161 -0.000943832 -0.000636962 -0.000401004 -0.000225565 -0.000100251 -2.50627e-05 0 0 -5.03711e-06 -2.01485e-05 -4.5334e-05 -8.05938e-05 -0.000138214 -0.000230479 -0.000357391 -0.000518948 -0.000715914 -0.000949052 -0.00121836 -0.00152384 -0.00186201 -0.00222937 -0.00262592 -0.00305167 -0.00350284 -0.00397565 -0.0044701 -0.00498619 -0.00551779 -0.00605878 -0.00660916 -0.00716893 -0.00772814 -0.00827688 -0.00881512 -0.00934288 -0.00984825 -0.0103193 -0.0107562 -0.0111587 -0.0115179 -0.011825 -0.0120798 -0.0122823 -0.0124316 -0.0125268 -0.0125677 -0.0125545 -0.0124957 -0.0123999 -0.0122671 -0.0120973 -0.0119048 -0.011704 -0.0114948 -0.0112772 -0.0110635 -0.010866 -0.0106847 -0.0105196 -0.0103738 -0.0102503 -0.0101492 -0.0100704 -0.0100054 -0.00994575 -0.00989143 -0.00984243 -0.00978314 -0.00969793 -0.00958682 -0.00944979 -0.00927375 -0.00904557 -0.00876526 -0.00843282 -0.00804731 -0.00760775 -0.00711416 -0.00656654 -0.00597945 -0.00536747 -0.00473059 -0.00406881 -0.00340644 -0.00276775 -0.00215276 -0.00156147 -0.00101656 -0.000540757 -0.000134049 0.000203562 0.000460648 0.000625781 0.000698961 0.000680188 0.000573113 0.000381386 0.000105006 -0.000256025 -0.00068452 -0.00116329 -0.00169234 -0.00227167 -0.00287571 -0.00347886 -0.00408115 -0.00468256 -0.00525695 -0.00577817 -0.00624623 -0.00666111 -0.00700472 -0.00725894 -0.00742378 -0.00749924 -0.00748169 -0.00736753 -0.00715674 -0.00684934 -0.00645945 -0.00600123 -0.00547467 -0.00487977 -0.00425013 -0.00361933 -0.00298738 -0.00235427 -0.00176584 -0.00126789 -0.000860428 -0.000543456 -0.000305694 -0.000135864 -3.3966e-05 0 0 -7.69263e-06 -3.07705e-05 -6.92337e-05 -0.000123082 -0.000207323 -0.000336964 -0.000512005 -0.000732445 -0.000997761 -0.00130743 -0.00166144 -0.0020598 -0.0024975 -0.0029695 -0.00347582 -0.00401645 -0.00458635 -0.00518049 -0.00579886 -0.00644147 -0.00710074 -0.00776911 -0.00844658 -0.00913314 -0.00981692 -0.010486 -0.0111405 -0.0117803 -0.0123915 -0.01296 -0.013486 -0.0139694 -0.0144 -0.0147675 -0.015072 -0.0153135 -0.0154915 -0.0156054 -0.0156554 -0.0156413 -0.0155741 -0.0154646 -0.0153128 -0.0151187 -0.0148993 -0.0146718 -0.0144362 -0.0141925 -0.0139543 -0.0137356 -0.0135361 -0.013356 -0.0131968 -0.0130601 -0.0129461 -0.0128545 -0.0127725 -0.0126868 -0.0125976 -0.0125048 -0.0123869 -0.0122222 -0.0120108 -0.0117527 -0.0114307 -0.0110276 -0.0105435 -0.00997836 -0.00933257 -0.00860652 -0.00780021 -0.00691363 -0.00596936 -0.00498999 -0.0039755 -0.00292591 -0.00187777 -0.000867669 0.00010441 0.00103846 0.00190022 0.00265541 0.00330405 0.00384612 0.00426393 0.0045398 0.00467373 0.0046657 0.00452051 0.00424293 0.00383297 0.00329062 0.00264105 0.00190941 0.0010957 0.000199927 -0.000740127 -0.00168668 -0.00263973 -0.00359927 -0.00452674 -0.00538355 -0.00616972 -0.00688523 -0.00750344 -0.00799772 -0.00836807 -0.00861448 -0.00873119 -0.00871245 -0.00855825 -0.0082686 -0.00786224 -0.00735791 -0.00675562 -0.00605536 -0.00530108 -0.00453672 -0.00376227 -0.00297775 -0.00224318 -0.00161858 -0.00110396 -0.000699312 -0.000393363 -0.000174828 -4.3707e-05 0 0 -1.113e-05 -4.45202e-05 -0.00010017 -0.000178081 -0.00029578 -0.000470795 -0.000703128 -0.000992778 -0.00133679 -0.00173222 -0.00217907 -0.00267732 -0.00321983 -0.0037994 -0.00441604 -0.00506975 -0.005754 -0.00646228 -0.00719458 -0.0079509 -0.00872243 -0.00950034 -0.0102846 -0.0110753 -0.0118592 -0.0126231 -0.0133671 -0.0140911 -0.01478 -0.0154188 -0.0160076 -0.0165462 -0.0170243 -0.0174313 -0.0177674 -0.0180325 -0.0182273 -0.0183526 -0.0184082 -0.0183943 -0.0183239 -0.0182101 -0.0180529 -0.0178524 -0.0176277 -0.0173977 -0.0171625 -0.0169221 -0.0166902 -0.0164803 -0.0162925 -0.0161268 -0.0159812 -0.0158541 -0.0157454 -0.015655 -0.0155634 -0.0154507 -0.0153171 -0.0151626 -0.0149578 -0.0146736 -0.0143099 -0.0138668 -0.0133224 -0.012655 -0.0118644 -0.0109507 -0.009917 -0.00876622 -0.00749839 -0.00611352 -0.00464577 -0.00312932 -0.00156417 4.96808e-05 0.00165837 0.00320802 0.00469864 0.00613022 0.00745227 0.00861428 0.00961625 0.0104582 0.0111135 0.0115555 0.0117843 0.0117999 0.0116082 0.0112155 0.0106215 0.00982641 0.00886607 0.0077764 0.0065574 0.00520906 0.0037859 0.00234241 0.000878593 -0.000605554 -0.00205434 -0.00341209 -0.00467879 -0.00585445 -0.00690063 -0.0077789 -0.00848926 -0.0090317 -0.00939726 -0.00957698 -0.00957085 -0.00937888 -0.00902518 -0.00853385 -0.0079049 -0.00713834 -0.00629014 -0.00541633 -0.00451689 -0.00359182 -0.00271755 -0.0019705 -0.00135066 -0.000858033 -0.000482644 -0.000214508 -5.36271e-05 0 0 -1.53493e-05 -6.13974e-05 -0.000138144 -0.00024559 -0.000403583 -0.000631974 -0.000930762 -0.00129995 -0.00173301 -0.00222345 -0.00277124 -0.00337641 -0.00402899 -0.00471904 -0.00544657 -0.00621157 -0.00700581 -0.00782104 -0.00865727 -0.0095145 -0.0103829 -0.0112525 -0.0121233 -0.0129955 -0.013855 -0.0146881 -0.0154949 -0.0162752 -0.0170139 -0.0176957 -0.0183208 -0.018889 -0.0193908 -0.0198164 -0.020166 -0.0204394 -0.0206393 -0.0207683 -0.0208263 -0.0208133 -0.0207448 -0.0206362 -0.0204875 -0.0202986 -0.0200899 -0.0198816 -0.0196737 -0.0194661 -0.019271 -0.0191003 -0.018954 -0.018832 -0.0187272 -0.0186322 -0.0185471 -0.0184719 -0.0183781 -0.0182375 -0.01805 -0.0178156 -0.0174958 -0.017052 -0.0164841 -0.0157922 -0.0149491 -0.0139277 -0.012728 -0.01135 -0.00980059 -0.00808685 -0.00620872 -0.00416622 -0.00200869 0.000214517 0.0025034 0.00485795 0.00720199 0.00945931 0.0116299 0.0137138 0.0156396 0.0173358 0.0188026 0.0200398 0.0210093 0.021673 0.0220308 0.0220828 0.0218363 0.0212989 0.0204706 0.0193513 0.0179905 0.0164377 0.0146927 0.0127557 0.0107024 0.00860841 0.00647381 0.00429859 0.00216023 0.000136214 -0.00177346 -0.00356879 -0.00519629 -0.00660248 -0.00778735 -0.0087509 -0.0094799 -0.00996111 -0.0101945 -0.0101802 -0.00994826 -0.00952905 -0.00892253 -0.0081287 -0.00721733 -0.00625817 -0.00525122 -0.00419649 -0.00318897 -0.00232365 -0.00160053 -0.00101962 -0.000573536 -0.000254905 -6.37262e-05 0 0 -2.03505e-05 -8.14022e-05 -0.000183155 -0.000325609 -0.000530733 -0.000820499 -0.0011949 -0.00165395 -0.00218642 -0.00278109 -0.00343797 -0.00415705 -0.00492499 -0.00572845 -0.00656743 -0.00744193 -0.00834176 -0.00925676 -0.0101869 -0.0111322 -0.012082 -0.0130255 -0.0139627 -0.0148936 -0.0158043 -0.0166811 -0.0175238 -0.0183326 -0.019093 -0.0197907 -0.0204257 -0.0209979 -0.0214995 -0.0219228 -0.0222677 -0.0225341 -0.0227273 -0.0228525 -0.0229095 -0.0228985 -0.0228371 -0.0227431 -0.0226164 -0.0224572 -0.022286 -0.0221235 -0.0219697 -0.0218245 -0.0216969 -0.0215955 -0.0215205 -0.0214717 -0.0214346 -0.0213945 -0.0213513 -0.021305 -0.0212167 -0.021047 -0.0207962 -0.020464 -0.020001 -0.0193575 -0.0185334 -0.0175288 -0.0163106 -0.0148458 -0.0131342 -0.011176 -0.00898335 -0.0065684 -0.00393119 -0.00107172 0.00194189 0.00504154 0.00822721 0.0114989 0.0147531 0.0178862 0.0208983 0.0237892 0.0264622 0.0288201 0.030863 0.0325909 0.0339514 0.0348921 0.0354131 0.0355143 0.0352047 0.0344934 0.0333803 0.0318654 0.0300145 0.0278933 0.0255017 0.0228399 0.0200093 0.0171113 0.0141459 0.0111132 0.00811699 0.00526136 0.00254629 -2.82405e-05 -0.00239042 -0.00446845 -0.00626234 -0.00777208 -0.00897911 -0.00986485 -0.0104293 -0.0106725 -0.0106315 -0.0103435 -0.00980848 -0.00902645 -0.00808262 -0.00706223 -0.00596527 -0.00479175 -0.00365742 -0.00267803 -0.00185358 -0.00118407 -0.00066604 -0.000296018 -7.40044e-05 0 0 -2.60375e-05 -0.00010415 -0.000234338 -0.0004166 -0.000674598 -0.00103199 -0.00148877 -0.00204495 -0.00268317 -0.00338607 -0.00415366 -0.00498592 -0.00586524 -0.00677396 -0.00771209 -0.00867963 -0.00966413 -0.0106532 -0.0116467 -0.0126448 -0.0136362 -0.0146098 -0.0155656 -0.0165036 -0.0174111 -0.0182755 -0.0190968 -0.019875 -0.0205984 -0.0212553 -0.0218456 -0.0223694 -0.0228224 -0.0232005 -0.0235038 -0.0237321 -0.0238945 -0.0239998 -0.0240481 -0.0240392 -0.0239933 -0.0239304 -0.0238504 -0.0237534 -0.0236589 -0.0235865 -0.0235361 -0.0235079 -0.0235047 -0.0235298 -0.0235831 -0.0236646 -0.0237492 -0.0238118 -0.0238525 -0.0238711 -0.0238151 -0.0236318 -0.023321 -0.022883 -0.0222547 -0.0213734 -0.020239 -0.0188517 -0.0171716 -0.0151592 -0.0128145 -0.0101373 -0.00714718 -0.00386337 -0.000285894 0.00358525 0.00765837 0.0118418 0.0161355 0.0205395 0.0249166 0.0291296 0.0331785 0.0370633 0.040656 0.0438286 0.0465813 0.048914 0.0507572 0.0520417 0.0527673 0.0529342 0.0525529 0.0516341 0.0501777 0.0481839 0.0457375 0.0429234 0.0397416 0.0361921 0.0324071 0.0285189 0.0245275 0.0204329 0.0163713 0.0124788 0.00875548 0.00520135 0.00191079 -0.00102179 -0.0035964 -0.00581304 -0.00764627 -0.00907063 -0.0100861 -0.0106928 -0.0109355 -0.0108591 -0.0104637 -0.00974915 -0.00881834 -0.00777398 -0.00661607 -0.00534461 -0.0040984 -0.00301625 -0.00209814 -0.00134408 -0.000756042 -0.000336019 -8.40047e-05 0 0 -3.23142e-05 -0.000129257 -0.000290828 -0.000517027 -0.000832543 -0.00126206 -0.00180559 -0.00246311 -0.00320942 -0.00401929 -0.00489272 -0.00582971 -0.00680714 -0.00780192 -0.00881404 -0.00984351 -0.0108752 -0.0118939 -0.0128998 -0.0138927 -0.0148617 -0.0157958 -0.0166951 -0.0175594 -0.0183793 -0.019145 -0.0198566 -0.0205141 -0.021111 -0.0216409 -0.0221039 -0.0225 -0.0228312 -0.0230997 -0.0233057 -0.0234489 -0.0235439 -0.0236049 -0.023632 -0.0236251 -0.0236064 -0.0235981 -0.0236001 -0.0236125 -0.0236515 -0.0237336 -0.0238587 -0.0240269 -0.0242318 -0.0244672 -0.024733 -0.0250294 -0.0253166 -0.0255553 -0.0257453 -0.0258867 -0.0259096 -0.025744 -0.02539 -0.0248476 -0.0240382 -0.022883 -0.0213822 -0.0195358 -0.0172967 -0.0146181 -0.0115 -0.00794227 -0.00397403 0.00037576 0.00510709 0.01022 0.0155931 0.0211053 0.0267565 0.0325468 0.0382976 0.0438305 0.0491455 0.0542426 0.0589568 0.063123 0.0667413 0.0698115 0.0722443 0.0739504 0.0749296 0.0751821 0.0747201 0.0735562 0.0716903 0.0691223 0.0659594 0.0623084 0.0581695 0.0535425 0.0485961 0.043499 0.0382511 0.0328525 0.0274784 0.0223039 0.0173292 0.0125541 0.00810115 0.00409254 0.000528297 -0.00259157 -0.00523274 -0.00736088 -0.008976 -0.0100781 -0.0107208 -0.0109577 -0.0107889 -0.0102144 -0.00935678 -0.00833887 -0.00716063 -0.00582207 -0.00448743 -0.00332092 -0.00232255 -0.00149232 -0.000839431 -0.00037308 -9.32701e-05 0 0 -3.91806e-05 -0.000156722 -0.000352625 -0.000626889 -0.00100457 -0.00151072 -0.00214534 -0.00290843 -0.00376518 -0.00468075 -0.00565516 -0.0066884 -0.00775071 -0.00881234 -0.00987329 -0.0109336 -0.0119749 -0.0129791 -0.0139461 -0.014876 -0.0157585 -0.0165835 -0.0173511 -0.0180611 -0.0187089 -0.0192896 -0.0198032 -0.0202497 -0.0206307 -0.0209477 -0.0212007 -0.0213897 -0.0215259 -0.0216204 -0.0216733 -0.0216845 -0.0216755 -0.0216678 -0.0216613 -0.0216561 -0.0216763 -0.021746 -0.0218654 -0.0220343 -0.0222639 -0.0225649 -0.0229374 -0.0233815 -0.023878 -0.0244075 -0.0249702 -0.025566 -0.0261369 -0.0266248 -0.0270297 -0.0273517 -0.0274999 -0.0273837 -0.0270031 -0.026358 -0.0253514 -0.0238864 -0.021963 -0.0195811 -0.0166859 -0.0132224 -0.00919074 -0.00459084 0.00053612 0.00614899 0.0122478 0.0188324 0.0257462 0.0328321 0.0400903 0.0475206 0.0548959 0.0619888 0.0687993 0.0753274 0.0813648 0.0867033 0.0913428 0.0952834 0.0984127 0.100618 0.1019 0.102258 0.101707 0.10026 0.0979178 0.0946805 0.0906801 0.0860483 0.0807854 0.0748912 0.0685764 0.0620516 0.0553168 0.048372 0.0414383 0.0347367 0.0282674 0.0220301 0.0161807 0.0108745 0.00611176 0.00189233 -0.00173853 -0.0047356 -0.00709889 -0.00882839 -0.00998746 -0.0106394 -0.0107843 -0.0104221 -0.00969796 -0.00875691 -0.00759897 -0.00622414 -0.00482449 -0.00359205 -0.00252682 -0.00162881 -0.000916205 -0.000407202 -0.000101801 0 0 -4.66367e-05 -0.000186547 -0.00041973 -0.000746187 -0.00119068 -0.00177796 -0.00250804 -0.00338091 -0.00435043 -0.00537045 -0.00644097 -0.00756199 -0.00869593 -0.00980521 -0.0108898 -0.0119498 -0.0129633 -0.0139086 -0.0147858 -0.0155947 -0.0163266 -0.016973 -0.0175337 -0.0180087 -0.0183999 -0.0187092 -0.0189365 -0.0190819 -0.0191575 -0.0191755 -0.0191358 -0.0190386 -0.0189065 -0.0187625 -0.0186066 -0.0184388 -0.0182893 -0.0181884 -0.018136 -0.0181322 -0.0182029 -0.0183743 -0.0186464 -0.0190191 -0.0194959 -0.0200803 -0.0207723 -0.0215719 -0.0224433 -0.0233509 -0.0242946 -0.0252746 -0.02621 -0.0270204 -0.0277058 -0.0282661 -0.0285862 -0.0285509 -0.0281602 -0.0274141 -0.0261945 -0.0243836 -0.0219813 -0.0189876 -0.0153391 -0.0109721 -0.0058868 -8.3054e-05 0.00638326 0.0134563 0.0211361 0.0294226 0.0381175 0.0470222 0.0561367 0.0654611 0.0747116 0.0836045 0.0921398 0.100317 0.10788 0.114569 0.120386 0.12533 0.129262 0.132045 0.133678 0.134162 0.133512 0.131745 0.12886 0.124859 0.1199 0.114143 0.107589 0.100238 0.092348 0.0841767 0.0757246 0.0669914 0.0582511 0.0497773 0.04157 0.0336293 0.0261493 0.0193242 0.013154 0.00763867 0.00283636 -0.0011948 -0.00445481 -0.00694368 -0.00873546 -0.00990417 -0.0104498 -0.0103724 -0.00984187 -0.00902809 -0.00793107 -0.00655082 -0.00510958 -0.00382963 -0.00271094 -0.00175354 -0.000986365 -0.000438384 -0.000109596 0 0 -5.44536e-05 -0.000217814 -0.000490083 -0.000871258 -0.00138485 -0.00205438 -0.00287984 -0.00386124 -0.00493912 -0.00605403 -0.00720598 -0.00839497 -0.00957406 -0.0106963 -0.0117618 -0.0127704 -0.0136963 -0.0145135 -0.0152221 -0.015822 -0.0163069 -0.0166703 -0.0169123 -0.0170329 -0.0170431 -0.016954 -0.0167658 -0.0164783 -0.0161182 -0.015712 -0.0152597 -0.0147614 -0.0142552 -0.0137795 -0.0133344 -0.0129197 -0.0125768 -0.0123471 -0.0122303 -0.0122267 -0.0123639 -0.0126697 -0.0131441 -0.013787 -0.0145916 -0.015551 -0.0166652 -0.0179341 -0.0193008 -0.0207083 -0.0221565 -0.0236455 -0.0250668 -0.0263121 -0.0273814 -0.0282747 -0.028848 -0.0289573 -0.0286026 -0.0277838 -0.0263594 -0.0241874 -0.0212681 -0.0176012 -0.0131146 -0.00773559 -0.00146436 0.00569915 0.013681 0.0224071 0.0318777 0.0420925 0.0528047 0.0637669 0.0749793 0.0864419 0.0978068 0.108726 0.1192 0.129229 0.1385 0.146702 0.153836 0.1599 0.16473 0.168159 0.170187 0.170815 0.17006 0.167942 0.164459 0.159611 0.153589 0.146581 0.138587 0.129608 0.119953 0.109931 0.0995438 0.0887902 0.0780036 0.0675169 0.05733 0.0474431 0.038095 0.0295246 0.021732 0.0147171 0.00855379 0.00331587 -0.000996663 -0.00438382 -0.00693109 -0.008724 -0.00976253 -0.0100467 -0.00977373 -0.0091409 -0.0081482 -0.00679563 -0.00533811 -0.00403055 -0.00287295 -0.00186531 -0.00104924 -0.000466328 -0.000116582 0 0 -6.24026e-05 -0.00024961 -0.000561624 -0.000998442 -0.00158109 -0.00233058 -0.00324692 -0.00433011 -0.00550518 -0.00669715 -0.00790602 -0.00913181 -0.0103163 -0.0114015 -0.0123872 -0.0132736 -0.0140297 -0.0146247 -0.0150586 -0.0153314 -0.0154401 -0.0153819 -0.0151567 -0.0147645 -0.0142291 -0.0135743 -0.0128001 -0.0119065 -0.0109394 -0.00994476 -0.00892261 -0.00787291 -0.0068542 -0.00592499 -0.00508528 -0.00433508 -0.00372962 -0.00332414 -0.00311865 -0.00311313 -0.00333682 -0.00381893 -0.00455946 -0.00555842 -0.00679493 -0.00824815 -0.00991807 -0.0118047 -0.0138237 -0.0158908 -0.018006 -0.0201693 -0.0222381 -0.0240698 -0.0256645 -0.0270221 -0.0279648 -0.0283145 -0.0280713 -0.0272352 -0.0256379 -0.0231108 -0.0196541 -0.0152677 -0.00987042 -0.00338107 0.00420034 0.0128738 0.0225428 0.0331109 0.044578 0.0569441 0.0699053 0.0831578 0.0967016 0.110537 0.124244 0.137402 0.150014 0.162077 0.173223 0.183083 0.191657 0.198944 0.204752 0.208887 0.211349 0.212139 0.211276 0.20878 0.204653 0.198893 0.191719 0.18335 0.173785 0.163025 0.151432 0.139372 0.126844 0.113848 0.100783 0.0880468 0.0756401 0.0635628 0.0521054 0.0415587 0.0319227 0.0231973 0.0154756 0.00885074 0.00332266 -0.00110863 -0.00454066 -0.00707097 -0.00869955 -0.00942641 -0.00947876 -0.00908383 -0.00824162 -0.00695213 -0.00550546 -0.0041917 -0.00301086 -0.00196293 -0.00110415 -0.000490733 -0.000122683 0 0 -7.04837e-05 -0.000281935 -0.000634353 -0.00112774 -0.00177938 -0.00260655 -0.00360927 -0.00478752 -0.0060486 -0.00729979 -0.00854109 -0.0097725 -0.0109228 -0.0119207 -0.0127662 -0.0134594 -0.0139635 -0.0142422 -0.0142952 -0.0141227 -0.0137263 -0.0131076 -0.0122667 -0.0112035 -0.00995796 -0.00856991 -0.00703937 -0.00536634 -0.00362107 -0.00187379 -0.000124503 0.00162679 0.00329653 0.00480116 0.00614069 0.00731511 0.00825236 0.00888035 0.00919911 0.00920861 0.0088784 0.008178 0.00710742 0.00566665 0.00389412 0.00182824 -0.00053097 -0.00318353 -0.00601185 -0.00889836 -0.0118431 -0.014846 -0.0177238 -0.0202935 -0.022555 -0.0245083 -0.0259365 -0.0266225 -0.0265665 -0.0257683 -0.0240301 -0.0211538 -0.0171394 -0.011987 -0.00560669 0.00209141 0.0111073 0.0214409 0.0329689 0.0455676 0.059237 0.0739772 0.0894194 0.105195 0.121304 0.137746 0.154022 0.169633 0.18458 0.198862 0.21205 0.223712 0.23385 0.242462 0.249329 0.25423 0.257164 0.258133 0.257158 0.254261 0.249443 0.242704 0.234291 0.22445 0.213183 0.200488 0.186787 0.172499 0.157625 0.142165 0.126588 0.111367 0.0965003 0.0819884 0.0681807 0.0554266 0.0437261 0.0330792 0.0236018 0.0154098 0.00850315 0.00288186 -0.00156417 -0.00494509 -0.00726089 -0.00851157 -0.00895696 -0.00885688 -0.00821133 -0.00702031 -0.00561163 -0.00431308 -0.00312467 -0.0020464 -0.0011511 -0.000511601 -0.0001279 0 0 -7.86968e-05 -0.000314787 -0.000708271 -0.00125915 -0.00197973 -0.00288231 -0.00396689 -0.00523348 -0.00656939 -0.00786196 -0.00911117 -0.010317 -0.0113934 -0.0122539 -0.0128987 -0.0133277 -0.0134978 -0.0133659 -0.012932 -0.012196 -0.0111654 -0.00984757 -0.00824242 -0.00635001 -0.00422971 -0.00194094 0.000516306 0.00314203 0.00583674 0.00850092 0.0111346 0.0137377 0.016197 0.0183989 0.0203435 0.0220309 0.0233691 0.0242664 0.0247229 0.0247385 0.0242817 0.0233211 0.0218566 0.0198882 0.0174755 0.0146782 0.0114961 0.00792935 0.0041347 0.00026901 -0.00366773 -0.00767551 -0.0115241 -0.0149833 -0.018053 -0.0207334 -0.0227632 -0.0238814 -0.024088 -0.023383 -0.0215359 -0.0183163 -0.013724 -0.00775919 -0.000323369 0.00868186 0.0192565 0.0314005 0.0449591 0.0597771 0.0758548 0.0931919 0.111347 0.129878 0.148785 0.168068 0.187142 0.205419 0.2229 0.239585 0.254979 0.268589 0.280414 0.290454 0.298461 0.304187 0.307633 0.308797 0.307706 0.304383 0.298829 0.291044 0.281303 0.269882 0.25678 0.241999 0.226017 0.209313 0.191887 0.17374 0.155421 0.137478 0.119911 0.10272 0.0863209 0.0711283 0.0571423 0.044363 0.0329325 0.0229931 0.0145448 0.00758767 0.00199838 -0.00234636 -0.00544655 -0.00730218 -0.00820833 -0.00846004 -0.00805732 -0.00700017 -0.00565662 -0.00439469 -0.00321439 -0.00211572 -0.00119009 -0.00052893 -0.000132233 0 0 -8.67824e-05 -0.000347129 -0.000781041 -0.00138852 -0.00217538 -0.00314744 -0.0043047 -0.00564715 -0.00703976 -0.00834746 -0.00957026 -0.0107082 -0.0116578 -0.0123157 -0.012682 -0.0127566 -0.0124889 -0.0118284 -0.010775 -0.0093287 -0.00750419 -0.00531612 -0.00276449 0.0001507 0.00334616 0.0067385