<?xml version="1.0"?> 
<VTKFile type="StructuredGrid" version="0.1"> 
<StructuredGrid WholeExtent="0 128 0 128 0 0"> 
<Piece Extent="0 128 0 128 0 0"> 
<PointData>
<DataArray type="Float32" Name="u" format="ascii" NumberOfComponents="1"> 
0 0 0 0 0 0 0 0 0 0 0 0 0 0 0 0 0 0 0 0 0 0 0 0 0 0 0 0 0 0 0 0 0 0 0 0 0 0 0 0 0 0 0 0 0 0 0 0 0 0 0 0 0 0 0 0 0 0 0 0 0 0 0 0 0 0 0 0 0 0 0 0 0 0 0 0 0 0 0 0 0 0 0 0 0 0 0 0 0 0 0 0 0 0 0 0 0 0 0 0 0 0 0 0 0 0 0 0 0 0 0 0 0 0 0 0 0 0 0 0 0 0 0 0 0 0 0 0 0 0 -6.45026e-08 -2.5801e-07 -5.80524e-07 -1.03204e-06 -1.82181e-06 -3.15907e-06 -5.04381e-06 -7.47605e-06 -1.04506e-05 -1.39624e-05 -1.80114e-05 -2.25975e-05 -2.76372e-05 -3.30466e-05 -3.88257e-05 -4.49746e-05 -5.14144e-05 -5.80661e-05 -6.49298e-05 -7.20055e-05 -7.91959e-05 -8.64038e-05 -9.36291e-05 -0.000100872 -0.00010801 -0.00011492 -0.000121604 -0.00012806 -0.000134169 -0.000139811 -0.000144986 -0.000149695 -0.000153864 -0.00015742 -0.000160363 -0.000162694 -0.000164421 -0.000165552 -0.000166086 -0.000166025 -0.00016546 -0.000164486 -0.000163102 -0.000161308 -0.00015925 -0.000157075 -0.000154783 -0.000152373 -0.000149986 -0.000147762 -0.000145702 -0.000143804 -0.000142136 -0.000140763 -0.000139685 -0.000138903 -0.000138358 -0.000137992 -0.000137806 -0.000137798 -0.000137792 -0.000137607 -0.000137244 -0.000136702 -0.000135766 -0.000134217 -0.000132056 -0.000129283 -0.000125784 -0.000121445 -0.000116268 -0.000110251 -0.000103508 -9.61514e-05 -8.81805e-05 -7.95956e-05 -7.07388e-05 -6.19518e-05 -5.32347e-05 -4.45876e-05 -3.643e-05 -2.91817e-05 -2.28426e-05 -1.74129e-05 -1.31613e-05 -1.03567e-05 -8.99925e-06 -9.08881e-06 -1.05835e-05 -1.34415e-05 -1.76628e-05 -2.32474e-05 -2.98547e-05 -3.71444e-05 -4.51164e-05 -5.37707e-05 -6.26377e-05 -7.12476e-05 -7.96005e-05 -8.76964e-05 -9.51483e-05 -0.000101569 -0.000106959 -0.000111318 -0.000114476 -0.00011626 -0.000116672 -0.000115712 -0.000113441 -0.000109923 -0.000105157 -9.91435e-05 -9.21436e-05 -8.4418e-05 -7.59668e-05 -6.67899e-05 -5.73589e-05 -4.81449e-05 -3.9148e-05 -3.03682e-05 -2.23739e-05 -1.57332e-05 -1.04462e-05 -6.51289e-06 -3.6635e-06 -1.62822e-06 -4.07056e-07 0 0 -2.5801e-07 -1.03204e-06 -2.32209e-06 -4.12817e-06 -7.28723e-06 -1.26363e-05 -2.01753e-05 -2.99042e-05 -4.18025e-05 -5.58496e-05 -7.20455e-05 -9.03901e-05 -0.000110549 -0.000132186 -0.000155303 -0.000179898 -0.000205657 -0.000232264 -0.000259719 -0.000288022 -0.000316784 -0.000345615 -0.000374516 -0.000403487 -0.000432039 -0.000459681 -0.000486414 -0.000512239 -0.000536675 -0.000559244 -0.000579945 -0.000598779 -0.000615455 -0.000629679 -0.000641454 -0.000650778 -0.000657685 -0.000662207 -0.000664345 -0.000664099 -0.000661841 -0.000657943 -0.000652407 -0.000645231 -0.000637001 -0.000628301 -0.000619131 -0.000609493 -0.000599945 -0.00059105 -0.000582807 -0.000575217 -0.000568544 -0.000563052 -0.000558741 -0.000555612 -0.000553432 -0.000551969 -0.000551223 -0.000551194 -0.000551166 -0.000550427 -0.000548974 -0.000546809 -0.000543063 -0.000536868 -0.000528224 -0.000517131 -0.000503134 -0.000485781 -0.000465072 -0.000441006 -0.000414033 -0.000384606 -0.000352722 -0.000318382 -0.000282955 -0.000247807 -0.000212939 -0.00017835 -0.00014572 -0.000116727 -9.13705e-05 -6.96515e-05 -5.26451e-05 -4.14269e-05 -3.5997e-05 -3.63553e-05 -4.23342e-05 -5.37662e-05 -7.06513e-05 -9.29895e-05 -0.000119419 -0.000148578 -0.000180466 -0.000215083 -0.000250551 -0.00028499 -0.000318402 -0.000350786 -0.000380593 -0.000406277 -0.000427837 -0.000445273 -0.000457902 -0.000465041 -0.000466689 -0.000462847 -0.000453764 -0.000439691 -0.000420628 -0.000396574 -0.000368574 -0.000337672 -0.000303867 -0.00026716 -0.000229435 -0.00019258 -0.000156592 -0.000121473 -8.94954e-05 -6.29327e-05 -4.17848e-05 -2.60516e-05 -1.4654e-05 -6.51289e-06 -1.62822e-06 0 0 -5.80524e-07 -2.32209e-06 -5.22471e-06 -9.28838e-06 -1.63963e-05 -2.84316e-05 -4.53943e-05 -6.72845e-05 -9.40557e-05 -0.000125662 -0.000162102 -0.000203378 -0.000248735 -0.000297419 -0.000349431 -0.000404771 -0.000462729 -0.000522595 -0.000584368 -0.00064805 -0.000712763 -0.000777634 -0.000842662 -0.000907846 -0.000972087 -0.00103428 -0.00109443 -0.00115254 -0.00120752 -0.0012583 -0.00130488 -0.00134725 -0.00138477 -0.00141678 -0.00144327 -0.00146425 -0.00147979 -0.00148997 -0.00149478 -0.00149422 -0.00148914 -0.00148037 -0.00146791 -0.00145177 -0.00143325 -0.00141368 -0.00139305 -0.00137136 -0.00134988 -0.00132986 -0.00131132 -0.00129424 -0.00127922 -0.00126687 -0.00125717 -0.00125013 -0.00124522 -0.00124193 -0.00124025 -0.00124019 -0.00124012 -0.00123846 -0.00123519 -0.00123032 -0.00122189 -0.00120795 -0.0011885 -0.00116354 -0.00113205 -0.00109301 -0.00104641 -0.000992263 -0.000931575 -0.000865363 -0.000793624 -0.000716361 -0.000636649 -0.000557566 -0.000479112 -0.000401288 -0.00032787 -0.000262635 -0.000205584 -0.000156716 -0.000118452 -9.32106e-05 -8.09932e-05 -8.17993e-05 -9.52519e-05 -0.000120974 -0.000158965 -0.000209226 -0.000268692 -0.000334299 -0.000406047 -0.000483936 -0.000563739 -0.000641229 -0.000716405 -0.000789268 -0.000856335 -0.000914123 -0.000962633 -0.00100186 -0.00103028 -0.00104634 -0.00105005 -0.0010414 -0.00102097 -0.000989304 -0.000946412 -0.000892292 -0.000829292 -0.000759762 -0.000683701 -0.00060111 -0.00051623 -0.000433304 -0.000352332 -0.000273314 -0.000201365 -0.000141599 -9.40157e-05 -5.86161e-05 -3.29715e-05 -1.4654e-05 -3.6635e-06 0 0 -1.03204e-06 -4.12817e-06 -9.28838e-06 -1.65127e-05 -2.91489e-05 -5.0545e-05 -8.0701e-05 -0.000119617 -0.00016721 -0.000223399 -0.000288182 -0.000361561 -0.000442195 -0.000528745 -0.000621211 -0.000719594 -0.00082263 -0.000929058 -0.00103888 -0.00115209 -0.00126713 -0.00138246 -0.00149806 -0.00161395 -0.00172815 -0.00183872 -0.00194566 -0.00204896 -0.0021467 -0.00223698 -0.00231978 -0.00239512 -0.00246182 -0.00251872 -0.00256582 -0.00260311 -0.00263074 -0.00264883 -0.00265738 -0.00265639 -0.00264736 -0.00263177 -0.00260963 -0.00258092 -0.002548 -0.0025132 -0.00247653 -0.00243797 -0.00239978 -0.0023642 -0.00233123 -0.00230087 -0.00227418 -0.00225221 -0.00223497 -0.00222245 -0.00221373 -0.00220788 -0.00220489 -0.00220477 -0.00220467 -0.00220171 -0.0021959 -0.00218724 -0.00217225 -0.00214747 -0.0021129 -0.00206852 -0.00201254 -0.00194312 -0.00186029 -0.00176402 -0.00165613 -0.00153842 -0.00141089 -0.00127353 -0.00113182 -0.000991229 -0.000851756 -0.000713401 -0.00058288 -0.000466907 -0.000365482 -0.000278606 -0.00021058 -0.000165708 -0.000143988 -0.000145421 -0.000169337 -0.000215065 -0.000282605 -0.000371958 -0.000477675 -0.00059431 -0.000721862 -0.000860331 -0.0010022 -0.00113996 -0.00127361 -0.00140314 -0.00152237 -0.00162511 -0.00171135 -0.00178109 -0.00183161 -0.00186016 -0.00186676 -0.00185139 -0.00181506 -0.00175876 -0.00168251 -0.0015863 -0.0014743 -0.00135069 -0.00121547 -0.00106864 -0.000917742 -0.000770318 -0.000626368 -0.000485892 -0.000357982 -0.000251731 -0.000167139 -0.000104206 -5.86161e-05 -2.60516e-05 -6.51289e-06 0 0 -1.84342e-06 -7.37367e-06 -1.65907e-05 -2.94947e-05 -5.12239e-05 -8.6917e-05 -0.000136574 -0.000200195 -0.000277454 -0.000368027 -0.000471913 -0.000589112 -0.00071745 -0.000854752 -0.00100102 -0.00115625 -0.0013184 -0.00148545 -0.00165739 -0.00183423 -0.00201351 -0.00219282 -0.00237213 -0.00255146 -0.00272782 -0.00289822 -0.00306268 -0.00322117 -0.00337087 -0.00350892 -0.00363532 -0.00375007 -0.00385152 -0.00393803 -0.00400959 -0.0040662 -0.00410818 -0.00413587 -0.00414926 -0.00414835 -0.00413547 -0.00411296 -0.0040808 -0.00403901 -0.0039911 -0.00394058 -0.00388746 -0.00383175 -0.00377669 -0.00372554 -0.00367832 -0.00363501 -0.00359696 -0.00356552 -0.00354069 -0.00352245 -0.00350906 -0.00349871 -0.00349143 -0.0034872 -0.00348128 -0.00346893 -0.00345015 -0.00342493 -0.00338772 -0.00333297 -0.00326068 -0.00317085 -0.00306082 -0.00292792 -0.00277215 -0.00259351 -0.0023954 -0.00218118 -0.00195087 -0.00170446 -0.00145139 -0.00120109 -0.000953554 -0.000708791 -0.000478203 -0.000273197 -9.37717e-05 6.00717e-05 0.000181038 0.00026183 0.000302448 0.000302892 0.000264222 0.000187495 7.27123e-05 -8.01268e-05 -0.000261922 -0.000463574 -0.000685082 -0.000926447 -0.00117501 -0.00141813 -0.0016558 -0.00188803 -0.00210425 -0.00229395 -0.0024571 -0.00259372 -0.00269898 -0.00276809 -0.00280102 -0.00279779 -0.00275984 -0.00268859 -0.00258406 -0.00244623 -0.00228183 -0.00209757 -0.00189344 -0.00166945 -0.00143765 -0.00121009 -0.000986757 -0.000767661 -0.000567377 -0.00040048 -0.000266972 -0.000166852 -9.38543e-05 -4.1713e-05 -1.04283e-05 0 0 -3.2455e-06 -1.2982e-05 -2.92095e-05 -5.1928e-05 -8.82999e-05 -0.000145488 -0.000223492 -0.000322311 -0.000440976 -0.000578513 -0.000734924 -0.000910207 -0.00110102 -0.00130403 -0.00151922 -0.00174661 -0.00198309 -0.00222557 -0.00247406 -0.00272855 -0.00298552 -0.00324142 -0.00349626 -0.00375005 -0.00399866 -0.004238 -0.00446807 -0.00468887 -0.00489667 -0.00508776 -0.00526214 -0.0054198 -0.00555882 -0.00567725 -0.00577509 -0.00585234 -0.00590978 -0.00594817 -0.00596752 -0.00596782 -0.00595244 -0.00592474 -0.0058847 -0.00583234 -0.00577237 -0.00570951 -0.00564376 -0.00557511 -0.00550763 -0.00544538 -0.00538836 -0.00533657 -0.00529115 -0.00525326 -0.00522288 -0.00520003 -0.00518131 -0.00516335 -0.00514615 -0.0051297 -0.00510647 -0.0050689 -0.005017 -0.00495076 -0.00486187 -0.004742 -0.00459115 -0.00440932 -0.00419312 -0.00393916 -0.00364744 -0.00331796 -0.00295705 -0.00257105 -0.00215994 -0.00172373 -0.00127828 -0.000839436 -0.000407195 1.84401e-05 0.000418706 0.00077484 0.00108684 0.00135471 0.00156647 0.00171015 0.00178574 0.00179325 0.00173423 0.00161024 0.00142127 0.00116732 0.000863013 0.000522945 0.00014712 -0.000264461 -0.000691248 -0.00111269 -0.00152878 -0.00193953 -0.00232753 -0.00267535 -0.00298301 -0.0032505 -0.0034695 -0.00363169 -0.00373706 -0.00378563 -0.00377913 -0.00371931 -0.00360618 -0.00343974 -0.00323013 -0.00298752 -0.00271189 -0.00240326 -0.00207965 -0.00175908 -0.00144156 -0.00112708 -0.00083758 -0.000594998 -0.000399332 -0.000250583 -0.000140953 -6.26457e-05 -1.56614e-05 0 0 -5.23829e-06 -2.09531e-05 -4.71446e-05 -8.38126e-05 -0.000140377 -0.000226257 -0.000341454 -0.000485967 -0.000657775 -0.000854857 -0.00107721 -0.00132484 -0.00159291 -0.00187657 -0.00217583 -0.00249068 -0.00281669 -0.00314942 -0.00348888 -0.00383507 -0.00418315 -0.00452828 -0.00487046 -0.0052097 -0.00554068 -0.00585806 -0.00616184 -0.00645204 -0.00672411 -0.00697351 -0.00720025 -0.00740432 -0.0075837 -0.00773637 -0.00786231 -0.00796154 -0.00803552 -0.00808572 -0.00811216 -0.00811481 -0.00809828 -0.00806712 -0.00802133 -0.00796093 -0.00789184 -0.00781999 -0.0077454 -0.00766805 -0.0075926 -0.0075237 -0.00746135 -0.00740554 -0.00735674 -0.00731541 -0.00728155 -0.00725516 -0.00723049 -0.00720179 -0.00716905 -0.00713229 -0.00708023 -0.00700162 -0.00689645 -0.00676474 -0.00659469 -0.00637454 -0.00610429 -0.00578392 -0.00540945 -0.00497687 -0.00448618 -0.00393737 -0.0033411 -0.00270801 -0.00203809 -0.00133134 -0.000612494 9.37265e-05 0.000787322 0.00146829 0.00210785 0.0026772 0.00317636 0.00360531 0.00394572 0.00417925 0.0043059 0.00432566 0.0042407 0.00405317 0.00376307 0.00337039 0.00289713 0.00236525 0.00177474 0.00112563 0.000449099 -0.000223625 -0.000892547 -0.00155767 -0.00219219 -0.00276933 -0.00328908 -0.00375144 -0.00414316 -0.00445097 -0.00467488 -0.00481489 -0.00487292 -0.00485092 -0.00474889 -0.00456682 -0.0043192 -0.00402054 -0.00367082 -0.00327006 -0.00284373 -0.0024173 -0.00199077 -0.00156414 -0.00116859 -0.000835284 -0.00056422 -0.000355399 -0.000199912 -8.88497e-05 -2.22124e-05 0 0 -7.82178e-06 -3.12871e-05 -7.0396e-05 -0.000125148 -0.000207455 -0.000329226 -0.000490461 -0.000691161 -0.000927852 -0.00119706 -0.00149878 -0.00183303 -0.00219312 -0.00257238 -0.00297083 -0.00338846 -0.0038192 -0.004257 -0.00470186 -0.00515377 -0.0056064 -0.00605338 -0.00649473 -0.00693044 -0.00735387 -0.00775839 -0.00814399 -0.00851069 -0.00885318 -0.00916616 -0.00944964 -0.00970362 -0.00992618 -0.0101154 -0.0102713 -0.0103938 -0.0104854 -0.0105485 -0.0105832 -0.0105893 -0.010573 -0.0105401 -0.0104907 -0.0104248 -0.0103495 -0.010272 -0.0101924 -0.0101106 -0.0100316 -0.00996052 -0.00989729 -0.00984193 -0.00979373 -0.00975198 -0.0097167 -0.00968786 -0.0096566 -0.00961403 -0.00956014 -0.00949495 -0.00940255 -0.00926708 -0.00908851 -0.00886686 -0.0085862 -0.00823062 -0.0078001 -0.00729466 -0.0067098 -0.00604103 -0.00528834 -0.00445174 -0.00354755 -0.00259207 -0.00158532 -0.000527284 0.000545972 0.0015984 0.00263 0.00364076 0.00458922 0.00543389 0.00617478 0.00681187 0.00731879 0.00766914 0.00786291 0.00790012 0.00778362 0.00751628 0.0070981 0.00652909 0.00584043 0.00506333 0.00419779 0.00324381 0.00224602 0.00124906 0.000252907 -0.000742422 -0.00169824 -0.00257587 -0.0033753 -0.00409654 -0.00471995 -0.00522593 -0.00561447 -0.00588557 -0.00604123 -0.00608343 -0.00601218 -0.00582747 -0.00554904 -0.00519663 -0.00477023 -0.00426985 -0.00372989 -0.00318473 -0.00263439 -0.00207886 -0.00156041 -0.00112134 -0.000761635 -0.0004813 -0.000270731 -0.000120325 -3.00812e-05 0 0 -1.10129e-05 -4.40518e-05 -9.91165e-05 -0.000176207 -0.000289738 -0.000454124 -0.000669365 -0.00093546 -0.00124679 -0.00159775 -0.00198833 -0.00241853 -0.00287939 -0.00336197 -0.00386626 -0.00439226 -0.004932 -0.00547751 -0.00602877 -0.00658581 -0.00714069 -0.00768553 -0.00822031 -0.00874504 -0.00925205 -0.00973366 -0.0101899 -0.0106207 -0.0110207 -0.0113843 -0.0117117 -0.0120027 -0.0122562 -0.0124713 -0.0126478 -0.0127857 -0.0128891 -0.0129617 -0.0130036 -0.0130147 -0.0130026 -0.0129746 -0.0129308 -0.0128712 -0.0128036 -0.0127361 -0.0126686 -0.012601 -0.012538 -0.0124838 -0.0124387 -0.0124025 -0.0123721 -0.0123447 -0.0123201 -0.0122983 -0.0122661 -0.0122102 -0.0121306 -0.0120272 -0.0118784 -0.0116625 -0.0113795 -0.0110294 -0.0105914 -0.0100449 -0.00938969 -0.00862593 -0.0077491 -0.00675475 -0.00564287 -0.00441345 -0.0030907 -0.00169878 -0.000237705 0.00129253 0.002841 0.00435678 0.00583986 0.00729025 0.00865011 0.00986162 0.0109248 0.0118396 0.0125693 0.0130772 0.0133634 0.0134278 0.013274 0.0129057 0.0123229 0.0115255 0.0105564 0.0094583 0.00823118 0.00687506 0.00545161 0.00402251 0.00258777 0.00114738 -0.000244592 -0.00153409 -0.00272112 -0.00380568 -0.00475965 -0.0055549 -0.00619143 -0.00666925 -0.00698997 -0.00715522 -0.007165 -0.0070193 -0.00674397 -0.00636487 -0.00588198 -0.00529532 -0.0046497 -0.00398995 -0.00331606 -0.00262804 -0.00198116 -0.00143068 -0.000976605 -0.000618935 -0.000348151 -0.000154734 -3.86835e-05 0 0 -1.48287e-05 -5.93149e-05 -0.000133459 -0.00023726 -0.00038743 -0.000600682 -0.000877015 -0.00121643 -0.00161019 -0.00204956 -0.00253454 -0.00306512 -0.0036295 -0.00421584 -0.00482414 -0.00545441 -0.00609647 -0.00674014 -0.00738541 -0.0080323 -0.00867144 -0.00929349 -0.00989844 -0.0104863 -0.011049 -0.0115785 -0.0120749 -0.012538 -0.0129635 -0.0133467 -0.0136877 -0.0139864 -0.0142439 -0.014461 -0.0146377 -0.014774 -0.0148761 -0.0149502 -0.0149963 -0.0150143 -0.0150132 -0.0150016 -0.0149798 -0.0149475 -0.0149126 -0.0148827 -0.0148577 -0.0148377 -0.0148249 -0.0148217 -0.014828 -0.0148439 -0.014862 -0.0148752 -0.0148834 -0.0148867 -0.0148655 -0.0148004 -0.0146914 -0.0145386 -0.0143129 -0.0139853 -0.0135559 -0.0130247 -0.0123654 -0.0115519 -0.0105841 -0.0094621 -0.00818227 -0.00674113 -0.00513867 -0.0033749 -0.00148488 0.000496308 0.00256867 0.0047322 0.00691648 0.00905106 0.0111359 0.0131711 0.0150778 0.0167771 0.018269 0.0195535 0.0205808 0.0213009 0.0217139 0.0218197 0.0216228 0.0211275 0.0203338 0.0192418 0.0179086 0.0163912 0.0146898 0.0128043 0.0108179 0.0088139 0.00679224 0.00475294 0.00276986 0.000916885 -0.000805994 -0.00239877 -0.00382199 -0.00503618 -0.00604134 -0.00683747 -0.00742509 -0.0078047 -0.00797632 -0.00793993 -0.00772834 -0.00737435 -0.00687795 -0.00623915 -0.00551473 -0.00476149 -0.00397942 -0.00316852 -0.00239895 -0.00174082 -0.00119416 -0.000758955 -0.000426912 -0.000189739 -4.74347e-05 0 0 -1.92691e-05 -7.70765e-05 -0.000173422 -0.000308306 -0.000500531 -0.0007689 -0.00111341 -0.00153407 -0.00201804 -0.00255248 -0.00313741 -0.00377281 -0.00444343 -0.00513398 -0.00584448 -0.00657491 -0.00731261 -0.0080449 -0.00877178 -0.00949325 -0.0101986 -0.0108773 -0.0115291 -0.0121542 -0.0127448 -0.013293 -0.013799 -0.0142626 -0.0146815 -0.0150532 -0.0153776 -0.0156549 -0.0158891 -0.0160844 -0.0162409 -0.0163586 -0.0164466 -0.0165142 -0.0165614 -0.0165882 -0.0166047 -0.0166212 -0.0166376 -0.0166538 -0.0166764 -0.0167118 -0.0167598 -0.0168206 -0.0168926 -0.0169741 -0.0170654 -0.0171662 -0.0172634 -0.0173435 -0.0174067 -0.0174529 -0.0174547 -0.0173847 -0.0172428 -0.0170291 -0.0167058 -0.0162353 -0.0156176 -0.0148527 -0.0139082 -0.0127518 -0.0113835 -0.00980318 -0.00800931 -0.00600017 -0.00377575 -0.00133607 0.00126991 0.0039932 0.00683381 0.00979173 0.0127724 0.0156812 0.0185182 0.0212834 0.0238723 0.0261803 0.0282075 0.0299538 0.0313534 0.0323403 0.0329145 0.033076 0.03283 0.0321816 0.0311309 0.0296779 0.0278969 0.0258622 0.0235737 0.0210316 0.018345 0.0156232 0.0128663 0.0100742 0.00734512 0.00477707 0.00237009 0.000124188 -0.00190699 -0.00366979 -0.0051642 -0.00639024 -0.00734657 -0.00803186 -0.00844612 -0.00858935 -0.00850214 -0.00822506 -0.00775813 -0.00710134 -0.00632499 -0.00549936 -0.00462447 -0.00370031 -0.00281378 -0.00205177 -0.0014143 -0.000901358 -0.000507014 -0.000225339 -5.63349e-05 0 0 -2.43342e-05 -9.73367e-05 -0.000219008 -0.000389347 -0.000629041 -0.000958778 -0.00137856 -0.00188838 -0.00247034 -0.00310653 -0.00379695 -0.0045416 -0.00532119 -0.00611641 -0.00692726 -0.00775375 -0.00858041 -0.00939178 -0.0101879 -0.0109687 -0.0117223 -0.0124369 -0.0131124 -0.0137488 -0.0143394 -0.0148772 -0.0153622 -0.0157945 -0.0161748 -0.0165039 -0.0167816 -0.0170081 -0.0171919 -0.0173417 -0.0174576 -0.0175395 -0.0176005 -0.0176536 -0.0176989 -0.0177363 -0.0177773 -0.0178332 -0.0179042 -0.0179901 -0.0180951 -0.0182234 -0.0183749 -0.0185497 -0.0187408 -0.0189411 -0.0191506 -0.0193694 -0.0195762 -0.0197497 -0.01989 -0.0199971 -0.0200338 -0.019963 -0.0197846 -0.0194986 -0.0190573 -0.0184127 -0.0175647 -0.0165135 -0.0152198 -0.0136445 -0.0117876 -0.00964917 -0.00723022 -0.00453187 -0.00155412 0.00170303 0.00517367 0.00879189 0.0125577 0.0164711 0.0204088 0.0242473 0.0279868 0.0316271 0.0350335 0.0380712 0.0407402 0.0430404 0.044887 0.0461953 0.0469651 0.0471965 0.0468956 0.0460681 0.0447143 0.0428339 0.0405214 0.0378711 0.0348829 0.0315569 0.0280328 0.0244505 0.02081 0.0171113 0.0134812 0.0100465 0.00680713 0.00376321 0.00098536 -0.00145572 -0.00356002 -0.00532755 -0.00675442 -0.00783671 -0.00857443 -0.00896757 -0.00906537 -0.00891702 -0.00852252 -0.00788189 -0.00708046 -0.00620356 -0.00525121 -0.00422339 -0.00322565 -0.00236353 -0.00163703 -0.00104614 -0.000588457 -0.000261536 -6.53841e-05 0 0 -2.98946e-05 -0.000119578 -0.000269052 -0.000478314 -0.000769535 -0.00116488 -0.00166436 -0.00226797 -0.00295154 -0.00369092 -0.00448609 -0.00533707 -0.0062197 -0.00710986 -0.00800753 -0.00891272 -0.00980679 -0.0106711 -0.0115057 -0.0123104 -0.0130727 -0.0137795 -0.0144309 -0.0150268 -0.0155627 -0.0160336 -0.0164396 -0.0167807 -0.0170628 -0.0172915 -0.0174669 -0.017589 -0.017673 -0.017734 -0.0177719 -0.0177868 -0.0177969 -0.0178202 -0.0178568 -0.0179067 -0.0179823 -0.0180962 -0.0182483 -0.0184386 -0.0186675 -0.018935 -0.0192411 -0.019586 -0.0199544 -0.0203313 -0.0207168 -0.0211108 -0.0214813 -0.0217967 -0.0220567 -0.0222615 -0.0223617 -0.022308 -0.0221006 -0.0217393 -0.0211643 -0.0203158 -0.0191939 -0.0177985 -0.016083 -0.0140009 -0.0115522 -0.00873693 -0.00556032 -0.0020277 0.00186092 0.00610556 0.0106194 0.0153155 0.020194 0.0252548 0.0303402 0.0352925 0.0401115 0.0447973 0.0491796 0.0530881 0.0565227 0.0594834 0.0618637 0.0635567 0.0645626 0.0648813 0.0645196 0.0634841 0.061775 0.0593921 0.0564526 0.0530735 0.0492548 0.0449966 0.0404741 0.0358625 0.0311618 0.0263721 0.021654 0.0171684 0.0129153 0.00889459 0.00519783 0.00191641 -0.000949679 -0.00340043 -0.00542821 -0.00702538 -0.00819194 -0.0089279 -0.00929198 -0.00934292 -0.00908071 -0.00850534 -0.00771902 -0.0068239 -0.00582001 -0.00470732 -0.00361197 -0.00266007 -0.0018516 -0.00118659 -0.000667456 -0.000296647 -7.41617e-05 0 0 -3.58213e-05 -0.000143285 -0.000322391 -0.00057314 -0.000918588 -0.00138179 -0.00196275 -0.00266146 -0.00344611 -0.00428488 -0.00517777 -0.00612479 -0.0070959 -0.00806107 -0.00902031 -0.00997361 -0.0108987 -0.0117732 -0.0125971 -0.0133705 -0.0140799 -0.0147122 -0.0152673 -0.0157451 -0.0161447 -0.0164651 -0.0167063 -0.0168683 -0.0169646 -0.0170088 -0.0170009 -0.0169409 -0.0168532 -0.0167623 -0.0166681 -0.0165707 -0.0164949 -0.0164658 -0.0164832 -0.0165473 -0.0166713 -0.0168684 -0.0171387 -0.017482 -0.0178925 -0.018364 -0.0188965 -0.0194901 -0.020118 -0.0207535 -0.0213967 -0.0220475 -0.0226598 -0.0231874 -0.0236302 -0.0239883 -0.0241973 -0.0241927 -0.0239745 -0.0235428 -0.0228238 -0.0217435 -0.020302 -0.0184993 -0.0162808 -0.013592 -0.0104328 -0.00680332 -0.00271495 0.00182084 0.00680405 0.0122347 0.018 0.0239872 0.0301963 0.0366274 0.0430815 0.0493598 0.0554623 0.0613891 0.0669285 0.0718689 0.0762105 0.0799532 0.0829654 0.0851156 0.0864039 0.0868302 0.086402 0.0851267 0.0830042 0.0800347 0.0763607 0.0721248 0.067327 0.0619674 0.0562618 0.0504261 0.0444604 0.0383646 0.0323395 0.0265862 0.0211046 0.0158947 0.0110732 0.00675695 0.00294593 -0.00035987 -0.0031475 -0.00540401 -0.00712939 -0.00832365 -0.00905596 -0.00939549 -0.00934225 -0.00889623 -0.00817852 -0.00731018 -0.00629123 -0.00512167 -0.00395015 -0.00292537 -0.0020473 -0.00131596 -0.000740227 -0.00032899 -8.22475e-05 0 0 -4.21141e-05 -0.000168457 -0.000379027 -0.000673826 -0.0010762 -0.00160949 -0.00227371 -0.00306884 -0.00395403 -0.00488842 -0.00587199 -0.00690477 -0.00794977 -0.00897005 -0.0099656 -0.0109364 -0.011856 -0.012698 -0.0134622 -0.0141487 -0.0147442 -0.0152351 -0.0156216 -0.0159036 -0.0160855 -0.0161718 -0.0161623 -0.0160572 -0.0158804 -0.0156559 -0.0153837 -0.0150637 -0.0147326 -0.0144267 -0.0141462 -0.013891 -0.0136946 -0.0135903 -0.0135782 -0.0136583 -0.0138443 -0.0141499 -0.0145753 -0.0151203 -0.0157702 -0.0165105 -0.0173412 -0.0182621 -0.0192316 -0.0202076 -0.0211904 -0.0221797 -0.0231116 -0.0239219 -0.0246105 -0.0251776 -0.0255405 -0.0256168 -0.0254064 -0.0249093 -0.0240357 -0.0226956 -0.0208889 -0.0186159 -0.0158131 -0.0124176 -0.00842939 -0.00384835 0.00130589 0.00701376 0.0132753 0.0200904 0.0273155 0.034807 0.0425647 0.0505887 0.0586325 0.0664494 0.0740393 0.0814024 0.0882801 0.0944139 0.0998037 0.10445 0.108192 0.110872 0.112489 0.113043 0.112543 0.110996 0.108402 0.104762 0.100246 0.0950251 0.0890995 0.0824692 0.0753959 0.0681414 0.0607057 0.0530887 0.0455378 0.0382999 0.0313751 0.0247634 0.0186114 0.0130659 0.00812681 0.00379412 8.77007e-05 -0.00297259 -0.00538677 -0.00715481 -0.00835729 -0.00907474 -0.00930716 -0.00905455 -0.00845896 -0.0076624 -0.00666489 -0.00546642 -0.0042402 -0.00315943 -0.00222412 -0.00143426 -0.000806771 -0.000358565 -8.96412e-05 0 0 -4.87732e-05 -0.000195093 -0.000438959 -0.000780371 -0.00124237 -0.00184799 -0.00259724 -0.00349012 -0.00447532 -0.00550153 -0.00656876 -0.007677 -0.00878132 -0.00983679 -0.0108434 -0.0118012 -0.0126789 -0.0134455 -0.0141009 -0.0146452 -0.0150653 -0.0153482 -0.0154939 -0.0155023 -0.015385 -0.0151534 -0.0148076 -0.0143475 -0.0138102 -0.0132327 -0.0126152 -0.0119575 -0.011311 -0.0107273 -0.0102062 -0.00974786 -0.00939581 -0.00919373 -0.00914162 -0.00923947 -0.00950121 -0.00994076 -0.0105581 -0.0113533 -0.0123006 -0.0133745 -0.014575 -0.0159021 -0.0172952 -0.0186937 -0.0200978 -0.0215073 -0.0228367 -0.0240001 -0.0249977 -0.0258294 -0.0263915 -0.0265805 -0.0263962 -0.0258388 -0.0248001 -0.0231721 -0.0209548 -0.0181482 -0.01468 -0.010478 -0.00554194 0.000127989 0.0065022 0.0135511 0.0212746 0.0296727 0.038566 0.0477748 0.0572991 0.0671389 0.0769933 0.0865611 0.0958425 0.104837 0.113235 0.120723 0.127302 0.132973 0.137544 0.140826 0.142818 0.14352 0.142942 0.141091 0.137968 0.133573 0.128108 0.121774 0.114572 0.106502 0.0978763 0.0890082 0.0798976 0.0705446 0.0612487 0.0523095 0.0437268 0.0355008 0.0278126 0.0208433 0.014593 0.00906154 0.00427739 0.000268856 -0.00296408 -0.0054214 -0.00719597 -0.00838065 -0.00897543 -0.00898031 -0.00856034 -0.00788056 -0.00694097 -0.00574158 -0.0044821 -0.00336225 -0.00238205 -0.00154149 -0.000867086 -0.000385372 -9.63429e-05 0 0 -5.56023e-05 -0.000222409 -0.000500421 -0.000889638 -0.00141193 -0.00208919 -0.00292139 -0.00390856 -0.00498734 -0.00609439 -0.00722973 -0.00839334 -0.00953097 -0.0105884 -0.0115656 -0.0124625 -0.0132428 -0.0138698 -0.0143437 -0.0146643 -0.0148198 -0.0147979 -0.0145987 -0.0142223 -0.0136895 -0.0130211 -0.0122172 -0.0112779 -0.0102568 -0.00920803 -0.00813143 -0.00702705 -0.00596496 -0.00501523 -0.00417786 -0.00345285 -0.0028963 -0.00256432 -0.00245689 -0.00257403 -0.00292943 -0.00353681 -0.00439616 -0.00550749 -0.00683116 -0.00832754 -0.00999662 -0.0118384 -0.013769 -0.0157045 -0.017645 -0.0195903 -0.0214287 -0.0230481 -0.0244486 -0.0256302 -0.0264645 -0.0268232 -0.0267061 -0.0261135 -0.0249168 -0.0229879 -0.0203266 -0.016933 -0.0127255 -0.00762249 -0.00162392 0.00527019 0.0130173 0.0215747 0.0309425 0.0411207 0.0518879 0.0630226 0.0745248 0.0863946 0.0982698 0.109788 0.12095 0.131756 0.141836 0.150824 0.158718 0.165519 0.171004 0.174951 0.177359 0.178228 0.177568 0.175388 0.171687 0.166466 0.159959 0.152401 0.14379 0.134128 0.123782 0.113119 0.102141 0.0908456 0.0795921 0.068738 0.0582834 0.048228 0.0387931 0.0301996 0.0224475 0.0155367 0.00950654 0.00439613 0.000205487 -0.00306539 -0.00552234 -0.00727118 -0.0083119 -0.00864452 -0.00845918 -0.00794604 -0.0071051 -0.00593636 -0.00466808 -0.00352852 -0.00251767 -0.00163554 -0.000919991 -0.000408885 -0.000102221 0 0 -6.24054e-05 -0.000249621 -0.000561648 -0.000998486 -0.00157973 -0.00232496 -0.00323419 -0.00430742 -0.00546747 -0.00663719 -0.00781657 -0.00900561 -0.0101391 -0.0111519 -0.012044 -0.0128153 -0.0134232 -0.0138251 -0.0140208 -0.0140105 -0.0137839 -0.0133307 -0.0126509 -0.0117446 -0.0106451 -0.00938565 -0.00796633 -0.00638713 -0.00472341 -0.00305057 -0.00136859 0.000322515 0.00192926 0.00335815 0.00460919 0.00568237 0.00650635 0.00700978 0.00719266 0.00705499 0.00658375 0.00576595 0.00460158 0.00309065 0.00129059 -0.000741145 -0.00300455 -0.00549963 -0.00811338 -0.0107328 -0.0133579 -0.0159886 -0.0184811 -0.0206917 -0.0226202 -0.0242666 -0.0254738 -0.0260844 -0.0260984 -0.0255158 -0.0241858 -0.0219577 -0.0188314 -0.0148069 -0.00979357 -0.00370088 0.00347123 0.0117227 0.0209943 0.0312266 0.0424196 0.0545733 0.0674176 0.0806821 0.0943671 0.108472 0.122568 0.136225 0.149442 0.16222 0.17413 0.184744 0.194063 0.202085 0.208557 0.213222 0.216081 0.217133 0.21639 0.213859 0.209541 0.203437 0.195812 0.186932 0.176798 0.165409 0.153191 0.140567 0.127539 0.114105 0.100688 0.0877087 0.0751683 0.0630662 0.0516695 0.0412452 0.0317934 0.0233139 0.0158601 0.00948502 0.00418872 -2.87918e-05 -0.00328673 -0.00570427 -0.00728143 -0.0080182 -0.008132 -0.00784023 -0.00714289 -0.00603999 -0.00479038 -0.00365289 -0.00262754 -0.00171431 -0.000964302 -0.000428579 -0.000107145 0 0 -6.91823e-05 -0.000276729 -0.000622641 -0.00110692 -0.00174575 -0.00255532 -0.00353564 -0.00468671 -0.00591573 -0.00712992 -0.00832929 -0.00951384 -0.0106058 -0.0115274 -0.0122786 -0.0128594 -0.0132202 -0.0133112 -0.0131323 -0.0126837 -0.0119576 -0.0109465 -0.00965039 -0.00806922 -0.00625184 -0.00424706 -0.00205487 0.000324724 0.0027901 0.00523965 0.00767336 0.0100912 0.0123716 0.0143928 0.0161549 0.0176578 0.0188122 0.0195286 0.019807 0.0196476 0.0190383 0.0179675 0.0164351 0.0144412 0.0120646 0.00938466 0.00640121 0.00311428 -0.000328251 -0.00377851 -0.00723648 -0.0107022 -0.0139941 -0.0169309 -0.0195124 -0.0217387 -0.0234194 -0.0243642 -0.0245729 -0.0240457 -0.0226071 -0.0200816 -0.0164691 -0.0117698 -0.0058842 0.00128689 0.00974351 0.0194856 0.0304334 0.0425068 0.0557059 0.0700306 0.0851551 0.100754 0.116826 0.133372 0.149888 0.16587 0.181317 0.196229 0.210115 0.222485 0.233337 0.242671 0.250201 0.255639 0.258984 0.260236 0.259407 0.256505 0.251531 0.244485 0.235665 0.225369 0.213596 0.200346 0.186104 0.171352 0.156092 0.140322 0.124535 0.109222 0.0943816 0.0800153 0.0664418 0.0539802 0.0426307 0.0323932 0.023338 0.0155355 0.00898564 0.00368841 -0.000489126 -0.00367993 -0.00588401 -0.00710136 -0.00757879 -0.00756312 -0.00705434 -0.00605247 -0.00484898 -0.00373538 -0.00271165 -0.00177781 -0.00100002 -0.000444452 -0.000111113 0 0 -7.59331e-05 -0.000303732 -0.000683398 -0.00121493 -0.00191 -0.00278027 -0.00382574 -0.00504642 -0.0063321 -0.00757259 -0.00876789 -0.009918 -0.010931 -0.0117148 -0.0122694 -0.012595 -0.0126337 -0.0123281 -0.0116782 -0.0106839 -0.00934102 -0.00764545 -0.00559716 -0.00319617 -0.000509784 0.00239465 0.00551715 0.00885769 0.0122837 0.0156626 0.0189944 0.0222791 0.0253621 0.0280889 0.0304593 0.0324735 0.0340211 0.034992 0.0353862 0.0352037 0.0344343 0.0330679 0.0311045 0.028544 0.025491 0.0220499 0.0182206 0.0140033 0.00958638 0.00515833 0.000719173 -0.00373109 -0.00796766 -0.0117657 -0.0151253 -0.0180464 -0.0203014 -0.0216625 -0.0221298 -0.0217033 -0.0201806 -0.0173595 -0.0132398 -0.00782171 -0.000997389 0.00734082 0.0171929 0.0285589 0.0413345 0.0554152 0.0708013 0.0874925 0.105101 0.123237 0.141901 0.161094 0.18023 0.198723 0.216575 0.233784 0.249793 0.264045 0.27654 0.287277 0.295938 0.302201 0.306067 0.307536 0.306619 0.303326 0.297657 0.289612 0.27952 0.267711 0.254183 0.238938 0.22252 0.205474 0.1878 0.169498 0.151135 0.133277 0.115923 0.0990753 0.0831099 0.0684046 0.0549595 0.0427746 0.0319404 0.0225476 0.0145962 0.00808621 0.00287046 -0.00119816 -0.00411964 -0.00589398 -0.00679955 -0.00711471 -0.00683945 -0.00597379 -0.0048439 -0.00377598 -0.00277002 -0.00182603 -0.00102714 -0.000456507 -0.000114127 0 0 -8.24352e-05 -0.000329741 -0.000741917 -0.00131896 -0.00206666 -0.00299078 -0.00409134 -0.00536832 -0.00669216 -0.00793328 -0.0090917 -0.0101674 -0.0110523 -0.0116384 -0.0119255 -0.0119138 -0.0115368 -0.010728 -0.00948737 -0.007815 -0.0057