<?xml version="1.0"?> 
<VTKFile type="StructuredGrid" version="0.1"> 
<StructuredGrid WholeExtent="0 128 0 128 0 0"> 
<Piece Extent="0 128 0 128 0 0"> 
<PointData>
<DataArray type="Float32" Name="u" format="ascii" NumberOfComponents="1"> 
0 0 0 0 0 0 0 0 0 0 0 0 0 0 0 0 0 0 0 0 0 0 0 0 0 0 0 0 0 0 0 0 0 0 0 0 0 0 0 0 0 0 0 0 0 0 0 0 0 0 0 0 0 0 0 0 0 0 0 0 0 0 0 0 0 0 0 0 0 0 0 0 0 0 0 0 0 0 0 0 0 0 0 0 0 0 0 0 0 0 0 0 0 0 0 0 0 0 0 0 0 0 0 0 0 0 0 0 0 0 0 0 0 0 0 0 0 0 0 0 0 0 0 0 0 0 0 0 0 0 -5.28093e-08 -2.11237e-07 -4.75284e-07 -8.44949e-07 -1.53056e-06 -2.74245e-06 -4.48061e-06 -6.74505e-06 -9.55047e-06 -1.29116e-05 -1.68285e-05 -2.1301e-05 -2.62604e-05 -3.16377e-05 -3.74328e-05 -4.36459e-05 -5.02077e-05 -5.70491e-05 -6.41701e-05 -7.15707e-05 -7.91533e-05 -8.68202e-05 -9.45714e-05 -0.000102407 -0.000110188 -0.000117777 -0.000125173 -0.000132376 -0.000139237 -0.000145607 -0.000151485 -0.000156872 -0.000161665 -0.00016576 -0.000169157 -0.000171858 -0.000173855 -0.000175143 -0.000175723 -0.000175594 -0.000174861 -0.000173627 -0.000171892 -0.000169658 -0.000167099 -0.00016439 -0.000161533 -0.000158526 -0.000155542 -0.00015275 -0.000150152 -0.000147746 -0.000145618 -0.000143852 -0.000142448 -0.000141405 -0.000140673 -0.000140199 -0.000139982 -0.000140023 -0.000140148 -0.000140183 -0.000140128 -0.000139984 -0.000139544 -0.000138603 -0.000137163 -0.000135223 -0.000132679 -0.000129431 -0.000125477 -0.000120818 -0.000115553 -0.000109782 -0.000103505 -9.67219e-05 -8.97218e-05 -8.27936e-05 -7.59372e-05 -6.91528e-05 -6.27807e-05 -5.71616e-05 -5.22955e-05 -4.81823e-05 -4.50289e-05 -4.3042e-05 -4.22218e-05 -4.2568e-05 -4.4035e-05 -4.65766e-05 -5.01931e-05 -5.48842e-05 -6.03667e-05 -6.63573e-05 -7.28559e-05 -7.98626e-05 -8.69878e-05 -9.3842e-05 -0.000100425 -0.000106738 -0.000112448 -0.000117226 -0.000121072 -0.000123984 -0.000125805 -0.000126374 -0.000125691 -0.000123757 -0.000120613 -0.000116301 -0.000110821 -0.000104174 -9.65959e-05 -8.83256e-05 -7.93625e-05 -6.97068e-05 -5.98258e-05 -5.01871e-05 -4.07908e-05 -3.16368e-05 -2.3309e-05 -1.63912e-05 -1.08834e-05 -6.78559e-06 -3.8169e-06 -1.6964e-06 -4.241e-07 0 0 -2.11237e-07 -8.44949e-07 -1.90114e-06 -3.3798e-06 -6.12225e-06 -1.09698e-05 -1.79224e-05 -2.69802e-05 -3.82019e-05 -5.16465e-05 -6.73139e-05 -8.52041e-05 -0.000105042 -0.000126551 -0.000149731 -0.000174583 -0.000200831 -0.000228196 -0.00025668 -0.000286283 -0.000316613 -0.000347281 -0.000378286 -0.000409628 -0.000440753 -0.000471107 -0.000500691 -0.000529504 -0.000556949 -0.000582428 -0.000605941 -0.000627488 -0.000646658 -0.000663038 -0.000676629 -0.00068743 -0.000695419 -0.000700573 -0.000702892 -0.000702376 -0.000699442 -0.000694507 -0.00068757 -0.000678632 -0.000668395 -0.000657561 -0.000646132 -0.000634105 -0.000622167 -0.000611001 -0.000600606 -0.000590984 -0.000582472 -0.000575407 -0.000569791 -0.000565622 -0.000562693 -0.000560795 -0.000559928 -0.000560093 -0.000560593 -0.000560733 -0.000560514 -0.000559934 -0.000558174 -0.000554414 -0.000548653 -0.000540891 -0.000530718 -0.000517723 -0.000501908 -0.000483271 -0.000462211 -0.000439128 -0.00041402 -0.000386888 -0.000358887 -0.000331174 -0.000303749 -0.000276611 -0.000251123 -0.000228647 -0.000209182 -0.000192729 -0.000180116 -0.000172168 -0.000168887 -0.000170272 -0.00017614 -0.000186307 -0.000200772 -0.000219537 -0.000241467 -0.000265429 -0.000291424 -0.00031945 -0.000347951 -0.000375368 -0.000401701 -0.00042695 -0.000449793 -0.000468904 -0.000484286 -0.000495938 -0.00050322 -0.000505496 -0.000502765 -0.000495027 -0.00048245 -0.000465202 -0.000443284 -0.000416694 -0.000386384 -0.000353302 -0.00031745 -0.000278827 -0.000239303 -0.000200749 -0.000163163 -0.000126547 -9.32361e-05 -6.55648e-05 -4.35336e-05 -2.71424e-05 -1.52676e-05 -6.78559e-06 -1.6964e-06 0 0 -4.75284e-07 -1.90114e-06 -4.27756e-06 -7.60455e-06 -1.37751e-05 -2.4682e-05 -4.03255e-05 -6.07054e-05 -8.59543e-05 -0.000116205 -0.000151456 -0.000191709 -0.000236344 -0.000284739 -0.000336895 -0.000392813 -0.000451869 -0.000513442 -0.000577531 -0.000644137 -0.00071238 -0.000781382 -0.000851143 -0.000921662 -0.000991694 -0.00105999 -0.00112656 -0.00119138 -0.00125313 -0.00131046 -0.00136337 -0.00141185 -0.00145498 -0.00149184 -0.00152242 -0.00154672 -0.00156469 -0.00157629 -0.00158151 -0.00158035 -0.00157374 -0.00156264 -0.00154703 -0.00152692 -0.00150389 -0.00147951 -0.0014538 -0.00142674 -0.00139988 -0.00137475 -0.00135136 -0.00132971 -0.00131056 -0.00129467 -0.00128203 -0.00127265 -0.00126606 -0.00126179 -0.00125984 -0.00126021 -0.00126133 -0.00126165 -0.00126116 -0.00125985 -0.00125589 -0.00124743 -0.00123447 -0.001217 -0.00119411 -0.00116488 -0.00112929 -0.00108736 -0.00103998 -0.000988037 -0.000931545 -0.000870497 -0.000807496 -0.000745142 -0.000683435 -0.000622375 -0.000565027 -0.000514455 -0.00047066 -0.000433641 -0.00040526 -0.000387378 -0.000379996 -0.000383112 -0.000396315 -0.00041919 -0.000451737 -0.000493958 -0.0005433 -0.000597216 -0.000655703 -0.000718763 -0.00078289 -0.000844578 -0.000903828 -0.000960638 -0.00101203 -0.00105504 -0.00108964 -0.00111586 -0.00113225 -0.00113737 -0.00113122 -0.00111381 -0.00108551 -0.00104671 -0.000997388 -0.000937562 -0.000869363 -0.00079493 -0.000714263 -0.000627361 -0.000538432 -0.000451684 -0.000367117 -0.000284732 -0.000209781 -0.000147521 -9.79505e-05 -6.10703e-05 -3.43521e-05 -1.52676e-05 -3.8169e-06 0 0 -8.44949e-07 -3.3798e-06 -7.60455e-06 -1.35192e-05 -2.4489e-05 -4.38792e-05 -7.16898e-05 -0.000107921 -0.000152808 -0.000206586 -0.000269255 -0.000340816 -0.000420166 -0.000506202 -0.000598925 -0.000698334 -0.000803323 -0.000912785 -0.00102672 -0.00114513 -0.00126645 -0.00138912 -0.00151314 -0.00163851 -0.00176301 -0.00188443 -0.00200276 -0.00211802 -0.0022278 -0.00232971 -0.00242376 -0.00250995 -0.00258663 -0.00265215 -0.00270652 -0.00274972 -0.00278168 -0.00280229 -0.00281157 -0.0028095 -0.00279777 -0.00277803 -0.00275028 -0.00271453 -0.00267358 -0.00263025 -0.00258453 -0.00253642 -0.00248867 -0.002444 -0.00240242 -0.00236394 -0.00232989 -0.00230163 -0.00227916 -0.00226249 -0.00225077 -0.00224318 -0.00223971 -0.00224037 -0.00224237 -0.00224293 -0.00224205 -0.00223974 -0.0022327 -0.00221766 -0.00219461 -0.00216356 -0.00212287 -0.00207089 -0.00200763 -0.00193308 -0.00184885 -0.00175651 -0.00165608 -0.00154755 -0.00143555 -0.0013247 -0.001215 -0.00110644 -0.00100449 -0.000914586 -0.000836728 -0.000770917 -0.000720462 -0.000688673 -0.000675548 -0.000681089 -0.00070456 -0.000745226 -0.000803089 -0.000878147 -0.000965868 -0.00106172 -0.00116569 -0.0012778 -0.0013918 -0.00150147 -0.0016068 -0.0017078 -0.00179917 -0.00187562 -0.00193714 -0.00198375 -0.00201288 -0.00202199 -0.00201106 -0.00198011 -0.0019298 -0.00186081 -0.00177313 -0.00166678 -0.00154553 -0.00141321 -0.0012698 -0.00111531 -0.000957213 -0.000802994 -0.000652653 -0.000506189 -0.000372944 -0.000262259 -0.000174134 -0.00010857 -6.10703e-05 -2.71424e-05 -6.78559e-06 0 0 -1.55724e-06 -6.22896e-06 -1.40152e-05 -2.49158e-05 -4.41037e-05 -7.67515e-05 -0.000122859 -0.000182427 -0.000255618 -0.000342596 -0.00044336 -0.000557912 -0.000684444 -0.000821151 -0.000968034 -0.00112509 -0.00129053 -0.00146257 -0.00164121 -0.00182644 -0.00201582 -0.0022069 -0.00239968 -0.00259416 -0.00278695 -0.00297465 -0.00315727 -0.00333479 -0.00350364 -0.0036602 -0.00380449 -0.00393649 -0.0040538 -0.00415401 -0.0042371 -0.00430308 -0.00435193 -0.00438362 -0.00439814 -0.0043955 -0.0043783 -0.00434916 -0.00430808 -0.00425506 -0.00419436 -0.00413025 -0.00406273 -0.00399179 -0.00392147 -0.00385582 -0.00379482 -0.00373848 -0.00368861 -0.00364699 -0.00361364 -0.00358856 -0.0035701 -0.00355664 -0.00354818 -0.00354471 -0.00354161 -0.00353424 -0.0035226 -0.0035067 -0.00348127 -0.00344107 -0.0033861 -0.00331636 -0.00322948 -0.00312307 -0.00299713 -0.00285168 -0.00268978 -0.00251453 -0.00232592 -0.00212395 -0.00191675 -0.00171243 -0.00151101 -0.00131248 -0.00112626 -0.000961785 -0.000819048 -0.000698052 -0.000604528 -0.00054421 -0.000517098 -0.000523191 -0.000561323 -0.000630325 -0.0007302 -0.000860945 -0.00101489 -0.00118437 -0.00136937 -0.0015699 -0.00177532 -0.00197496 -0.00216884 -0.00235696 -0.00253016 -0.0026793 -0.00280437 -0.00290539 -0.00297779 -0.00301704 -0.00302313 -0.00299606 -0.00293675 -0.00284611 -0.00272413 -0.00257082 -0.0023923 -0.0021947 -0.00197802 -0.00174225 -0.00149935 -0.00126128 -0.00102803 -0.000799614 -0.000590996 -0.000417155 -0.00027809 -0.000173802 -9.77634e-05 -4.34504e-05 -1.08626e-05 0 0 -2.84916e-06 -1.13966e-05 -2.56425e-05 -4.55866e-05 -7.84589e-05 -0.000131489 -0.000204678 -0.000298025 -0.000411241 -0.00054404 -0.00069642 -0.000868382 -0.00105711 -0.0012598 -0.00147643 -0.00170703 -0.00194884 -0.00219915 -0.00245795 -0.00272524 -0.00299748 -0.00327112 -0.00354616 -0.00382261 -0.00409576 -0.00436089 -0.004618 -0.00486711 -0.00510337 -0.00532197 -0.0055229 -0.00570616 -0.00586868 -0.00600741 -0.00612233 -0.00621345 -0.00628103 -0.0063253 -0.00634628 -0.00634397 -0.00632213 -0.00628455 -0.00623122 -0.00616215 -0.00608314 -0.00600003 -0.00591281 -0.00582147 -0.00573122 -0.00564726 -0.00556958 -0.00549818 -0.00543488 -0.00538146 -0.00533792 -0.00530428 -0.00527732 -0.00525385 -0.00523386 -0.00521737 -0.00519696 -0.00516523 -0.00512219 -0.00506784 -0.00499429 -0.00489367 -0.00476597 -0.0046112 -0.00442642 -0.00420868 -0.003958 -0.00367437 -0.00336374 -0.00303207 -0.00267936 -0.00230559 -0.00192479 -0.00155095 -0.00118406 -0.00082414 -0.000487081 -0.000188795 7.07193e-05 0.000291461 0.000463737 0.00057785 0.000633801 0.000631591 0.000572948 0.000459604 0.000291556 6.88071e-05 -0.000196094 -0.000490596 -0.000814699 -0.0011684 -0.00153405 -0.00189397 -0.00224816 -0.00259663 -0.00292396 -0.00321472 -0.00346892 -0.00368655 -0.00385964 -0.00398022 -0.00404827 -0.00406381 -0.0040278 -0.00394118 -0.00380398 -0.00361618 -0.00338707 -0.00312597 -0.00283287 -0.00250776 -0.00216855 -0.00183313 -0.00150152 -0.0011737 -0.000872209 -0.000619584 -0.000415824 -0.000260928 -0.000146772 -6.5232e-05 -1.6308e-05 0 0 -4.72072e-06 -1.88829e-05 -4.24864e-05 -7.55315e-05 -0.000127555 -0.000208093 -0.000317146 -0.000454714 -0.000619677 -0.000810917 -0.00102843 -0.00127223 -0.00153817 -0.00182214 -0.00212413 -0.00244414 -0.00277825 -0.00312252 -0.00347694 -0.00384153 -0.00421142 -0.00458177 -0.00495259 -0.00532386 -0.00568943 -0.00604314 -0.00638498 -0.00671496 -0.007027 -0.00731501 -0.00757899 -0.00781895 -0.00803127 -0.00821236 -0.00836221 -0.00848083 -0.00856896 -0.00862735 -0.008656 -0.00865492 -0.00862925 -0.00858418 -0.00851968 -0.00843577 -0.00833991 -0.00823958 -0.00813476 -0.00802547 -0.00791791 -0.00781833 -0.0077267 -0.00764305 -0.0075687 -0.00750502 -0.007452 -0.00740965 -0.00737242 -0.0073348 -0.00729677 -0.00725833 -0.00720841 -0.00713591 -0.00704082 -0.00692317 -0.00677176 -0.00657544 -0.00633422 -0.00604808 -0.0057137 -0.00532775 -0.00489024 -0.00440117 -0.00387073 -0.00330914 -0.00271639 -0.00209249 -0.00145968 -0.000840239 -0.000234153 0.000358574 0.000913051 0.00140438 0.00183257 0.00219762 0.00248433 0.00267751 0.00277715 0.00278326 0.00269825 0.00252456 0.00226218 0.00191111 0.00149052 0.00101959 0.000498316 -7.33047e-05 -0.000667995 -0.00125848 -0.00184475 -0.00242682 -0.00298057 -0.00348189 -0.00393078 -0.00432724 -0.00465843 -0.00491152 -0.00508649 -0.00518336 -0.00520294 -0.00514605 -0.00501268 -0.00480284 -0.00452985 -0.00420702 -0.00383435 -0.00341184 -0.0029648 -0.00251856 -0.0020731 -0.00162844 -0.00121658 -0.000869546 -0.000587336 -0.000369949 -0.000208096 -9.24873e-05 -2.31218e-05 0 0 -7.1719e-06 -2.86876e-05 -6.45471e-05 -0.00011475 -0.000191391 -0.000306562 -0.000460263 -0.000652495 -0.000880927 -0.00114323 -0.0014394 -0.00176944 -0.00212762 -0.00250817 -0.00291111 -0.00333644 -0.00377876 -0.00423268 -0.00469819 -0.0051753 -0.00565765 -0.00613886 -0.00661895 -0.0070979 -0.00756797 -0.0080214 -0.00845819 -0.00887835 -0.00927452 -0.00963932 -0.00997277 -0.0102749 -0.0105416 -0.0107689 -0.0109567 -0.0111052 -0.0112157 -0.0112898 -0.0113273 -0.0113283 -0.0112997 -0.0112481 -0.0111735 -0.0110759 -0.0109647 -0.0108489 -0.0107286 -0.0106038 -0.0104815 -0.010369 -0.0102662 -0.0101731 -0.0100901 -0.0100177 -0.00995588 -0.00990467 -0.00985542 -0.00979949 -0.00973689 -0.00966761 -0.00957597 -0.00944626 -0.0092785 -0.00907267 -0.00881368 -0.0084864 -0.00809083 -0.00762699 -0.00709131 -0.00648027 -0.00579385 -0.00503206 -0.00421074 -0.00334573 -0.00243702 -0.00148462 -0.000521421 0.000419694 0.00133872 0.00223566 0.00307413 0.00381775 0.00446652 0.00502043 0.00545726 0.00575476 0.00591295 0.00593181 0.00581459 0.00556455 0.00518167 0.00466596 0.00404496 0.0033462 0.00256968 0.00171539 0.000822838 -6.85003e-05 -0.000958622 -0.00184753 -0.0027 -0.00348081 -0.00418996 -0.00482746 -0.00537417 -0.00581094 -0.00613779 -0.00635471 -0.00646218 -0.00646069 -0.00635024 -0.00613082 -0.00582063 -0.00543784 -0.00498246 -0.00445449 -0.00388812 -0.00331756 -0.0027428 -0.00216384 -0.00162411 -0.00116704 -0.000792625 -0.000500865 -0.000281737 -0.000125216 -3.13041e-05 0 0 -1.02452e-05 -4.09807e-05 -9.22065e-05 -0.000163923 -0.000270801 -0.000427512 -0.000634056 -0.000890434 -0.0011924 -0.00153573 -0.0019204 -0.00234643 -0.00280601 -0.00329132 -0.00380237 -0.00433916 -0.00489457 -0.00546146 -0.00603985 -0.00662973 -0.00722319 -0.0078123 -0.00839707 -0.00897751 -0.00954451 -0.010089 -0.010611 -0.0111104 -0.0115793 -0.0120094 -0.0124008 -0.0127534 -0.0130635 -0.0133273 -0.0135447 -0.0137158 -0.0138432 -0.0139296 -0.013975 -0.0139794 -0.0139513 -0.013899 -0.0138227 -0.0137224 -0.0136085 -0.0134916 -0.0133717 -0.0132487 -0.01313 -0.0130224 -0.0129261 -0.012841 -0.0127655 -0.0126979 -0.0126383 -0.0125867 -0.01253 -0.0124552 -0.0123622 -0.0122511 -0.0121003 -0.0118884 -0.0116152 -0.0112809 -0.0108658 -0.01035 -0.00973358 -0.00901658 -0.00819582 -0.00726812 -0.00623349 -0.00509192 -0.00386718 -0.00258301 -0.00123942 0.000163596 0.00157894 0.00295952 0.00430533 0.00561639 0.00684121 0.00792833 0.00887776 0.00968948 0.0103321 0.010774 0.0110154 0.0110562 0.0109005 0.0105526 0.0100123 0.00927979 0.00839315 0.00739058 0.00627207 0.00503764 0.00374254 0.00244204 0.00113613 -0.000175178 -0.00144209 -0.00261482 -0.00369335 -0.00467769 -0.00554021 -0.00625327 -0.00681688 -0.00723103 -0.00749537 -0.00760954 -0.00757354 -0.00738737 -0.00707493 -0.00666009 -0.00614287 -0.00552326 -0.00484588 -0.00415532 -0.0034516 -0.00273471 -0.00206143 -0.00148853 -0.00101602 -0.000643883 -0.000362184 -0.000160971 -4.02427e-05 0 0 -1.3983e-05 -5.59319e-05 -0.000125847 -0.000223728 -0.000366617 -0.000571559 -0.000838553 -0.0011676 -0.00155153 -0.00198317 -0.00246252 -0.00298959 -0.00355391 -0.00414501 -0.00476289 -0.00540756 -0.00606987 -0.00674071 -0.00742008 -0.00810797 -0.00879505 -0.009472 -0.0101388 -0.0107955 -0.0114322 -0.0120393 -0.0126167 -0.0131644 -0.0136746 -0.0141397 -0.0145595 -0.0149341 -0.0152611 -0.015538 -0.0157649 -0.0159418 -0.0160733 -0.016164 -0.016214 -0.0162233 -0.0162019 -0.01616 -0.0160977 -0.0160148 -0.0159223 -0.0158311 -0.0157413 -0.0156527 -0.015571 -0.0155015 -0.0154444 -0.0153995 -0.0153613 -0.0153242 -0.0152882 -0.0152531 -0.0151999 -0.015109 -0.0149806 -0.0148145 -0.0145821 -0.0142542 -0.013831 -0.0133125 -0.0126737 -0.0118896 -0.0109602 -0.00988551 -0.00866377 -0.00729321 -0.00577382 -0.00410561 -0.00232342 -0.000462134 0.00147827 0.00349778 0.00553034 0.0075099 0.00943646 0.01131 0.0130593 0.0146131 0.0159715 0.0171344 0.0180583 0.0186998 0.0190588 0.0191353 0.0189346 0.0184616 0.0177164 0.016699 0.015461 0.0140541 0.0124782 0.0107334 0.00889521 0.00703922 0.00516541 0.00327379 0.00143326 -0.000287288 -0.00188785 -0.00336843 -0.00468994 -0.00581329 -0.00673848 -0.0074655 -0.00799235 -0.00831701 -0.00843948 -0.00835976 -0.00810827 -0.00771543 -0.00718125 -0.00650572 -0.00574546 -0.00495706 -0.00414053 -0.00329587 -0.00249516 -0.00181048 -0.00124183 -0.00078921 -0.000443931 -0.000197303 -4.93256e-05 0 0 -1.83853e-05 -7.35413e-05 -0.000165468 -0.000294165 -0.000478841 -0.000738703 -0.00107375 -0.00148399 -0.00195829 -0.00248555 -0.00306576 -0.00369892 -0.00437131 -0.00506923 -0.00579266 -0.00654162 -0.00730467 -0.00807043 -0.00883888 -0.00961003 -0.0103733 -0.011118 -0.0118441 -0.0125517 -0.013231 -0.0138722 -0.0144753 -0.0150402 -0.0155606 -0.0160302 -0.016449 -0.016817 -0.0171343 -0.0174011 -0.0176174 -0.0177832 -0.0179059 -0.0179929 -0.0180443 -0.0180599 -0.0180516 -0.018031 -0.0179982 -0.0179532 -0.0179062 -0.0178676 -0.0178375 -0.0178157 -0.0178046 -0.0178064 -0.0178211 -0.0178487 -0.0178777 -0.0178966 -0.0179053 -0.017904 -0.017865 -0.0177611 -0.0175921 -0.0173581 -0.0170212 -0.0165439 -0.0159259 -0.0151675 -0.0142375 -0.0131053 -0.0117707 -0.0102338 -0.00849516 -0.00655552 -0.00441483 -0.00207311 0.000420513 0.00301689 0.00571603 0.00851793 0.0113328 0.0140708 0.0167321 0.0193165 0.0217284 0.0238722 0.0257477 0.0273551 0.0286359 0.0295319 0.030043 0.0301693 0.0299168 0.0292917 0.028294 0.0269236 0.0252485 0.0233367 0.0211881 0.0188026 0.0162808 0.013723 0.0111292 0.00849939 0.00592607 0.00350179 0.00122654 -0.00089968 -0.00282336 -0.00449099 -0.00590258 -0.00705813 -0.00795313 -0.00858311 -0.00894806 -0.00904798 -0.00892066 -0.00860386 -0.0080976 -0.00740187 -0.00658686 -0.00572276 -0.00480958 -0.00384731 -0.0029253 -0.00213289 -0.00147007 -0.000936847 -0.000526976 -0.000234212 -5.85529e-05 0 0 -2.34522e-05 -9.38088e-05 -0.00021107 -0.000375235 -0.000607471 -0.000928945 -0.00133966 -0.0018396 -0.0024127 -0.00304287 -0.00373011 -0.00447441 -0.00525823 -0.00606398 -0.00689169 -0.00774134 -0.00859897 -0.00945061 -0.0102963 -0.0111359 -0.0119578 -0.0127502 -0.013513 -0.0142464 -0.014941 -0.0155878 -0.0161868 -0.0167378 -0.0172372 -0.017681 -0.0180693 -0.018402 -0.0186831 -0.0189164 -0.0191021 -0.01924 -0.0193411 -0.0194164 -0.0194658 -0.0194893 -0.0195003 -0.0195119 -0.0195244 -0.0195375 -0.0195602 -0.0196011 -0.0196603 -0.0197378 -0.0198309 -0.0199371 -0.0200563 -0.0201885 -0.0203145 -0.020415 -0.0204899 -0.0205392 -0.0205255 -0.0204114 -0.0201967 -0.0198816 -0.0194179 -0.0187573 -0.0178999 -0.0168457 -0.0155572 -0.013997 -0.0121651 -0.0100614 -0.00769 -0.00505506 -0.00215654 0.00100556 0.00436464 0.00785407 0.0114739 0.015224 0.0189863 0.0226424 0.0261922 0.0296359 0.0328486 0.0357055 0.0382065 0.0403517 0.042065 0.0432705 0.0439682 0.044158 0.0438472 0.0430428 0.041745 0.0399536 0.0377557 0.0352384 0.0324016 0.0292454 0.0258994 0.0224935 0.0190275 0.0155016 0.0120363 0.00875241 0.00564982 0.00272857 5.95345e-05 -0.00228639 -0.0043092 -0.0060089 -0.00737771 -0.00840784 -0.00909928 -0.00945204 -0.00951209 -0.00932538 -0.00889191 -0.00821169 -0.00737008 -0.00645243 -0.00545876 -0.00438904 -0.00335186 -0.00245575 -0.00170073 -0.00108679 -0.000611321 -0.000271698 -6.79246e-05 0 0 -2.90609e-05 -0.000116244 -0.000261548 -0.000464974 -0.000749235 -0.00113705 -0.0016284 -0.00222331 -0.00289946 -0.00363456 -0.0044286 -0.00528158 -0.00617127 -0.00707541 -0.00799401 -0.00892706 -0.00985767 -0.0107689 -0.0116608 -0.0125333 -0.0133739 -0.0141699 -0.0149213 -0.0156282 -0.0162832 -0.0168788 -0.0174152 -0.0178923 -0.0183106 -0.0186707 -0.0189726 -0.0192163 -0.0194115 -0.0195677 -0.0196851 -0.0197635 -0.0198188 -0.0198665 -0.0199067 -0.0199395 -0.0199794 -0.0200412 -0.0201251 -0.0202308 -0.0203641 -0.0205305 -0.0207301 -0.0209628 -0.0212185 -0.0214872 -0.0217688 -0.0220634 -0.0223411 -0.0225718 -0.0227557 -0.0228926 -0.0229327 -0.0228259 -0.0225723 -0.0221718 -0.021564 -0.0206884 -0.0195451 -0.018134 -0.0164105 -0.0143298 -0.0118921 -0.00909728 -0.00595442 -0.00247261 0.00134815 0.00550787 0.00991822 0.0144909 0.0192259 0.0241233 0.0290303 0.0337945 0.0384158 0.0428941 0.0470703 0.0507852 0.0540387 0.0568308 0.0590649 0.0606445 0.0615696 0.0618401 0.0614643 0.0604504 0.0587984 0.0565083 0.053689 0.0504495 0.0467898 0.0427099 0.0383739 0.0339456 0.0294252 0.0248127 0.0202622 0.0159281 0.0118103 0.0079088 0.00431579 0.00112339 -0.0016684 -0.00405957 -0.0060378 -0.00759073 -0.00871837 -0.00942072 -0.00975282 -0.0097697 -0.00947136 -0.00885781 -0.00803144 -0.00709467 -0.00604748 -0.00488989 -0.00375169 -0.00276267 -0.00192282 -0.00123215 -0.000693086 -0.000308038 -7.70096e-05 0 0 -3.50886e-05 -0.000140354 -0.000315798 -0.000561418 -0.00090086 -0.00135777 -0.00193214 -0.00262398 -0.00340328 -0.00424004 -0.00513425 -0.00608593 -0.00706706 -0.00804963 -0.00903364 -0.0100191 -0.0109856 -0.011913 -0.0128011 -0.01365 -0.0144467 -0.0151783 -0.0158448 -0.0164461 -0.0169785 -0.017438 -0.0178246 -0.0181384 -0.018387 -0.018578 -0.0187114 -0.0187871 -0.0188235 -0.0188386 -0.0188325 -0.0188052 -0.0187787 -0.0187755 -0.0187953 -0.0188383 -0.0189203 -0.0190573 -0.0192492 -0.019496 -0.0197979 -0.020155 -0.0205672 -0.0210347 -0.0215361 -0.0220505 -0.0225777 -0.0231178 -0.0236265 -0.0240594 -0.0244166 -0.024698 -0.024838 -0.0247708 -0.0244965 -0.0240151 -0.0232516 -0.0221311 -0.0206536 -0.018819 -0.0165749 -0.0138688 -0.0107007 -0.00707054 -0.00299457 0.00151105 0.00644633 0.0118113 0.0174906 0.0233689 0.0294463 0.0357228 0.0420045 0.0480974 0.0540015 0.059717 0.0650442 0.0697836 0.0739353 0.0774992 0.0803552 0.082383 0.0835827 0.0839543 0.0835069 0.0822499 0.0801833 0.077307 0.0737548 0.0696603 0.0650236 0.0598446 0.054327 0.0486746 0.0428872 0.0369649 0.0311019 0.0254924 0.0201362 0.0150335 0.0103024 0.00606118 0.00230974 -0.000951883 -0.0037051 -0.00593132 -0.00763055 -0.00880279 -0.00951309 -0.00982653 -0.0097431 -0.00926281 -0.00850725 -0.00759805 -0.0065352 -0.0053187 -0.00410167 -0.00303722 -0.00212534 -0.00136603 -0.000768393 -0.000341508 -8.5377e-05 0 0 -4.15354e-05 -0.000166142 -0.000373819 -0.000664567 -0.00106234 -0.00159111 -0.00225086 -0.0030416 -0.00392414 -0.0048593 -0.00584707 -0.00688746 -0.00794561 -0.00898665 -0.0100106 -0.0110174 -0.0119829 -0.0128828 -0.0137172 -0.014486 -0.0151764 -0.0157755 -0.0162835 -0.0167002 -0.017027 -0.0172653 -0.0174151 -0.0174763 -0.0174665 -0.0174029 -0.0172855 -0.0171144 -0.0169191 -0.0167291 -0.0165443 -0.0163648 -0.016221 -0.0161432 -0.0161315 -0.0161859 -0.0163231 -0.0165601 -0.0168967 -0.0173331 -0.0178616 -0.0184745 -0.0191718 -0.0199535 -0.0207838 -0.021627 -0.0224829 -0.0233517 -0.0241708 -0.0248778 -0.0254727 -0.0259554 -0.0262414 -0.0262461 -0.0259695 -0.0254117 -0.0244809 -0.0230855 -0.0212254 -0.0189008 -0.0160506 -0.0126139 -0.00859075 -0.00398114 0.00118954 0.00689592 0.013138 0.0199157 0.0270816 0.0344881 0.0421351 0.0500226 0.0579086 0.0655509 0.0729496 0.0801045 0.0867701 0.0927007 0.0978963 0.102357 0.105936 0.108486 0.110008 0.1105 0.109975 0.108441 0.1059 0.10235 0.097953 0.0928707 0.0871028 0.0806493 0.0737589 0.0666802 0.0594134 0.0519583 0.0445555 0.0374452 0.0306277 0.0241027 0.0180195 0.012527 0.00762522 0.00331417 -0.000379618 -0.00342962 -0.00583583 -0.00759825 -0.00879292 -0.00949588 -0.00970714 -0.00942669 -0.00879751 -0.00796259 -0.0069219 -0.00567547 -0.0044018 -0.0032794 -0.00230828 -0.00148843 -0.00083724 -0.000372107 -9.30267e-05 0 0 -4.84013e-05 -0.000193605 -0.000435612 -0.000774421 -0.00123369 -0.00183707 -0.00258457 -0.00347618 -0.00446206 -0.00549235 -0.00656706 -0.00768617 -0.00880691 -0.00988647 -0.0109249 -0.0119221 -0.0128495 -0.0136785 -0.0144091 -0.0150412 -0.0155628 -0.0159615 -0.0162373 -0.0163903 -0.0164286 -0.0163607 -0.0161865 -0.015906 -0.0155489 -0.0151453 -0.0146951 -0.0141982 -0.0136984 -0.0132391 -0.0128205 -0.0124426 -0.0121455 -0.0119698 -0.0119153 -0.0119821 -0.0121877 -0.0125496 -0.0130677 -0.0137422 -0.0145552 -0.0154891 -0.0165438 -0.0177193 -0.0189616 -0.0202167 -0.0214845 -0.0227651 -0.0239741 -0.025027 -0.0259239 -0.0266647 -0.0271429 -0.0272517 -0.0269912 -0.0263614 -0.0252517 -0.0235514 -0.0212606 -0.0183792 -0.0148374 -0.0105651 -0.00556233 0.000170914 0.00659793 0.013682 0.0214231 0.0298213 0.0386914 0.0478484 0.0572922 0.0670228 0.0767429 0.0861552 0.0952598 0.104057 0.112248 0.119536 0.125922 0.131404 0.135807 0.138953 0.140844 0.141479 0.140868 0.139025 0.135947 0.131636 0.126284 0.120081 0.113028 0.105124 0.0966695 0.0879627 0.0790038 0.0697929 0.0606228 0.0517867 0.0432846 0.0351165 0.027467 0.0205208 0.014278 0.00873859 0.00393864 -8.5619e-05 -0.0033342 -0.0058071 -0.00759229 -0.00877775 -0.00936347 -0.00934946 -0.00890223 -0.00818827 -0.0072076 -0.0059602 -0.00465208 -0.00348923 -0.00247165 -0.00159934 -0.000899629 -0.000399835 -9.99588e-05 0 0 -5.54814e-05 -0.000221926 -0.000499333 -0.000887703 -0.0014095 -0.00208721 -0.00292081 -0.00391031 -0.0049935 -0.00610816 -0.00725431 -0.00843193 -0.00958891 -0.0106731 -0.0116846 -0.0126233 -0.0134555 -0.0141476 -0.0146997 -0.0151116 -0.0153725 -0.0154714 -0.0154084 -0.0151835 -0.0148142 -0.0143182 -0.0136954 -0.012946 -0.0121159 -0.0112511 -0.0103518 -0.00941781 -0.00851075 -0.00769215 -0.006962 -0.00632031 -0.00581962 -0.00551246 -0.00539884 -0.00547875 -0.00577005 -0.00629061 -0.00704042 -0.00801949 -0.00919697 -0.010542 -0.0120546 -0.0137347 -0.0155054 -0.0172897 -0.0190876 -0.0208991 -0.022613 -0.0241181 -0.0254144 -0.026502 -0.0272483 -0.0275207 -0.0273193 -0.026644 -0.0253631 -0.0233447 -0.0205887 -0.0170952 -0.012785 -0.00757892 -0.00147691 0.00552101 0.0133638 0.0220003 0.0314305 0.0416545 0.0524434 0.0635681 0.0750286 0.0868251 0.098598 0.109988 0.120995 0.131619 0.141506 0.150301 0.158006 0.164619 0.169934 0.173742 0.176043 0.176838 0.176138 0.173957 0.170293 0.165148 0.158743 0.151303 0.142828 0.133317 0.123124 0.112602 0.10175 0.0905698 0.079412 0.0686287 0.0582199 0.0481855 0.0387515 0.0301438 0.0223624 0.0154073 0.00932677 0.00416913 -6.56197e-05 -0.00337749 -0.00586709 -0.00763501 -0.00868127 -0.00900587 -0.00880105 -0.00825909 -0.00737998 -0.00616372 -0.00484592 -0.00366221 -0.00261258 -0.00169703 -0.000954577 -0.000424256 -0.000106064 0 0 -6.2571e-05 -0.000250284 -0.000563139 -0.00100114 -0.0015844 -0.00233306 -0.00324711 -0.00432655 -0.0054949 -0.0066757 -0.00786893 -0.0090746 -0.0102296 -0.0112706 -0.0121979 -0.0130112 -0.0136712 -0.0141381 -0.014412 -0.0144929 -0.0143721 -0.0140408 -0.013499 -0.0127468 -0.0118143 -0.0107315 -0.00949842 -0.00811514 -0.00664866 -0.00516607 -0.00366734 -0.00215249 -0.000705779 0.000588538 0.00173046 0.00271998 0.0034895 0.00397143 0.00416576 0.0040725 0.00367384 0.00295198 0.00190693 0.000538681 -0.00110503 -0.00297647 -0.00507564 -0.00740253 -0.00985137 -0.0123163 -0.0147975 -0.0172947 -0.0196642 -0.0217621 -0.0235884 -0.025143 -0.0262631 -0.0267859 -0.0267112 -0.0260391 -0.0246142 -0.022281 -0.0190393 -0.0148894 -0.0097429 -0.00351176 0.00380404 0.0122045 0.0216202 0.0319817 0.0432889 0.055542 0.0684608 0.0817653 0.0954555 0.109531 0.123565 0.137126 0.150217 0.162836 0.174571 0.185007 0.194144 0.201982 0.208283 0.212808 0.215556 0.216528 0.215737 0.213196 0.208905 0.202864 0.195328 0.186552 0.176534 0.165276 0.153187 0.140676 0.127744 0.11439 0.101031 0.0880834 0.0755465 0.0634208 0.0519798 0.041497 0.0319725 0.0234062 0.0158618 0.0094031 0.00402996 -0.000257567 -0.00357318 -0.00603056 -0.00762971 -0.00837064 -0.00847363 -0.008159 -0.00742675 -0.00627686 -0.00497677 -0.00379388 -0.0027282 -0.00177973 -0.0010011 -0.000444933 -0.000111233 0 0 -6.96701e-05 -0.000278681 -0.000627031 -0.00111472 -0.00175838 -0.00257463 -0.00356347 -0.00472491 -0.00596629 -0.00719496 -0.00841092 -0.00961418 -0.0107288 -0.011679 -0.0124648 -0.013086 -0.0134964 -0.0136498 -0.013546 -0.0131851 -0.0125615 -0.0116695 -0.0105091 -0.00908036 -0.00742895 -0.00560065 -0.00359546 -0.00141339 0.000852698 0.00310991 0.00535826 0.00759773 0.00971654 0.0116029 0.0132568 0.0146783 0.0157818 0.0164819 0.0167785 0.0166716 0.016144 0.0151782 0.0137743 0.0119323 0.00972058 0.00720749 0.00439304 0.00127725 -0.00199944 -0.00529656 -0.00861409 -0.0119521 -0.0151279 -0.0179592 -0.0204458 -0.0225878 -0.0241875 -0.0250472 -0.025167 -0.0245468 -0.023005 -0.0203603 -0.0166125 -0.0117617 -0.00571105 0.00163636 0.0102805 0.0202214 0.0313673 0.0436263 0.0569984 0.0714836 0.0867437 0.10244 0.118573 0.135142 0.151643 0.167571 0.182927 0.197709 0.211443 0.223652 0.234334 0.243492 0.250854 0.256151 0.259382 0.260548 0.259663 0.256741 0.251782 0.244786 0.236039 0.225826 0.214147 0.201002 0.186859 0.172187 0.156986 0.141255 0.125481 0.110151 0.0952645 0.0808224 0.0671518 0.0545805 0.0431083 0.0327353 0.0235439 0.0156163 0.00895254 0.00355267 -0.000710567 -0.00396439 -0.00620879 -0.00744378 -0.00791998 -0.00788802 -0.0073479 -0.00629963 -0.00504461 -0.00388424 -0.00281852 -0.00184746 -0.0010392 -0.000461866 -0.000115467 0 0 -7.67787e-05 -0.000307115 -0.000691008 -0.00122846 -0.00193144 -0.00281192 -0.0038699 -0.00510539 -0.00640765 -0.00766595 -0.00888029 -0.0100507 -0.0110868 -0.0118983 -0.0124852 -0.0128475 -0.0129314 -0.0126828 -0.0121018 -0.0111883 -0.00994084 -0.00835762 -0.00643869 -0.00418404 -0.0016582 0.0010743 0.00401345 0.00715926 0.0103882 0.0135768 0.016725 0.0198329 0.0227562 0.025351 0.0276171 0.0295547 0.0310574 0.0320189 0.0324394 0.0323186 0.0316404 0.0303881 0.0285618 0.0261614 0.0232799 0.0200099 0.0163515 0.0123046 0.00805036 0.00376965 -0.000537494 -0.00487108 -0.00900401 -0.0127092 -0.0159867 -0.0188364 -0.0210214 -0.0223049 -0.0226867 -0.0221669 -0.0205355 -0.0175827 -0.0133082 -0.00771228 -0.000689489 0.00786545 0.0179525 0.0295718 0.042605 0.056934 0.0725589 0.0894795 0.107292 0.125592 0.14438 0.163656 0.182832 0.201321 0.219123 0.236238 0.252123 0.266237 0.278579 0.289149 0.297647 0.303771 0.307522 0.308898 0.307917 0.304592 0.298924 0.290913 0.280874 0.269125 0.255665 0.240494 0.224141 0.207134 0.189475 0.171162 0.15276 0.13483 0.117374 0.10039 0.0842676 0.0693941 0.0557698 0.0433946 0.0323728 0.0228087 0.0147021 0.00805322 0.00272075 -0.0014365 -0.00441851 -0.00622529 -0.00714008 -0.00744614 -0.00714345 -0.00623203 -0.00504944 -0.00393328 -0.00288354 -0.00190022 -0.00106887 -0.000475055 -0.000118764 0 0 -8.36665e-05 -0.000334666 -0.000752998 -0.00133866 -0.00209757 -0.00303563 -0.00415285 -0.00544921 -0.00679384 -0.00805583 -0.00923519 -0.0103319 -0.0112392 -0.0118505 -0.0121656 -0.0121845 -0.0118449 -0.0110842 -0.00990252 -0.00829976 -0.00627959 -0.00384562 -0.000997844 0.00226