<?xml version="1.0"?> 
<VTKFile type="StructuredGrid" version="0.1"> 
<StructuredGrid WholeExtent="0 128 0 128 0 0"> 
<Piece Extent="0 128 0 128 0 0"> 
<PointData>
<DataArray type="Float32" Name="u" format="ascii" NumberOfComponents="1"> 
0 0 0 0 0 0 0 0 0 0 0 0 0 0 0 0 0 0 0 0 0 0 0 0 0 0 0 0 0 0 0 0 0 0 0 0 0 0 0 0 0 0 0 0 0 0 0 0 0 0 0 0 0 0 0 0 0 0 0 0 0 0 0 0 0 0 0 0 0 0 0 0 0 0 0 0 0 0 0 0 0 0 0 0 0 0 0 0 0 0 0 0 0 0 0 0 0 0 0 0 0 0 0 0 0 0 0 0 0 0 0 0 0 0 0 0 0 0 0 0 0 0 0 0 0 0 0 0 0 0 -5.32186e-08 -2.12875e-07 -4.78968e-07 -8.51498e-07 -1.54078e-06 -2.75714e-06 -4.50057e-06 -6.77107e-06 -9.58271e-06 -1.29495e-05 -1.68715e-05 -2.13488e-05 -2.63118e-05 -3.16912e-05 -3.7487e-05 -4.36993e-05 -5.02584e-05 -5.70951e-05 -6.42093e-05 -7.1601e-05 -7.91725e-05 -8.68261e-05 -9.4562e-05 -0.00010238 -0.000110142 -0.000117711 -0.000125085 -0.000132266 -0.000139104 -0.000145452 -0.000151308 -0.000156675 -0.000161448 -0.000165527 -0.00016891 -0.000171599 -0.000173588 -0.000174872 -0.000175451 -0.000175324 -0.000174596 -0.00017337 -0.000171647 -0.000169427 -0.000166883 -0.000164191 -0.000161351 -0.000158363 -0.000155397 -0.000152623 -0.00015004 -0.000147649 -0.000145535 -0.00014378 -0.000142384 -0.000141349 -0.000140621 -0.000140148 -0.00013993 -0.000139968 -0.000140087 -0.000140113 -0.000140046 -0.000139887 -0.000139429 -0.000138467 -0.000137002 -0.000135033 -0.000132457 -0.000129171 -0.000125176 -0.000120471 -0.000115156 -0.000109332 -0.000102999 -9.61554e-05 -8.90934e-05 -8.21033e-05 -7.51852e-05 -6.8339e-05 -6.19078e-05 -5.62349e-05 -5.13202e-05 -4.71637e-05 -4.39744e-05 -4.19609e-05 -4.11234e-05 -4.14619e-05 -4.29305e-05 -4.54833e-05 -4.91205e-05 -5.3842e-05 -5.93625e-05 -6.53968e-05 -7.19448e-05 -7.90065e-05 -8.61899e-05 -9.31026e-05 -9.97448e-05 -0.000106116 -0.000111885 -0.000116717 -0.000120613 -0.000123574 -0.000125439 -0.000126048 -0.000125401 -0.000123498 -0.000120383 -0.000116096 -0.00011064 -0.000104013 -9.64541e-05 -8.82013e-05 -7.92547e-05 -6.96143e-05 -5.97477e-05 -5.01226e-05 -4.0739e-05 -3.15969e-05 -2.32796e-05 -1.63706e-05 -1.08697e-05 -6.77708e-06 -3.81211e-06 -1.69427e-06 -4.23568e-07 0 0 -2.12875e-07 -8.51498e-07 -1.91587e-06 -3.40599e-06 -6.16313e-06 -1.10286e-05 -1.80023e-05 -2.70843e-05 -3.83308e-05 -5.17981e-05 -6.74862e-05 -8.5395e-05 -0.000105247 -0.000126765 -0.000149948 -0.000174797 -0.000201034 -0.000228381 -0.000256837 -0.000286404 -0.00031669 -0.000347305 -0.000378248 -0.00040952 -0.000440569 -0.000470842 -0.00050034 -0.000529063 -0.000556416 -0.000581806 -0.000605234 -0.000626698 -0.000645792 -0.000662106 -0.000675641 -0.000686397 -0.000694353 -0.000699488 -0.000701803 -0.000701296 -0.000698384 -0.000693482 -0.000686589 -0.000677707 -0.000667533 -0.000656766 -0.000645406 -0.000633453 -0.000621588 -0.00061049 -0.00060016 -0.000590598 -0.000582139 -0.000575119 -0.000569537 -0.000565395 -0.000562483 -0.000560592 -0.000559721 -0.000559872 -0.000560347 -0.000560451 -0.000560184 -0.000559546 -0.000557715 -0.000553869 -0.000548007 -0.00054013 -0.000529826 -0.000516684 -0.000500703 -0.000481883 -0.000460625 -0.000437329 -0.000411994 -0.000384621 -0.000356374 -0.000328413 -0.000300741 -0.000273356 -0.000247631 -0.000224939 -0.000205281 -0.000188655 -0.000175897 -0.000167844 -0.000164494 -0.000165848 -0.000171722 -0.000181933 -0.000196482 -0.000215368 -0.00023745 -0.000261587 -0.000287779 -0.000316026 -0.00034476 -0.000372411 -0.000398979 -0.000424465 -0.000447538 -0.000466868 -0.000482454 -0.000494296 -0.000501755 -0.000504191 -0.000501603 -0.000493993 -0.00048153 -0.000464386 -0.00044256 -0.000416052 -0.000385816 -0.000352805 -0.000317019 -0.000278457 -0.000238991 -0.00020049 -0.000162956 -0.000126388 -9.31186e-05 -6.54823e-05 -4.34789e-05 -2.71083e-05 -1.52484e-05 -6.77708e-06 -1.69427e-06 0 0 -4.78968e-07 -1.91587e-06 -4.31071e-06 -7.66348e-06 -1.38671e-05 -2.48143e-05 -4.05051e-05 -6.09397e-05 -8.62444e-05 -0.000116546 -0.000151844 -0.000192139 -0.000236806 -0.000285221 -0.000337383 -0.000393293 -0.000452326 -0.000513856 -0.000577884 -0.000644409 -0.000712552 -0.000781435 -0.000851058 -0.00092142 -0.00099128 -0.00105939 -0.00112576 -0.00119039 -0.00125194 -0.00130906 -0.00136178 -0.00141007 -0.00145303 -0.00148974 -0.00152019 -0.00154439 -0.00156229 -0.00157385 -0.00157906 -0.00157792 -0.00157136 -0.00156033 -0.00154483 -0.00152484 -0.00150195 -0.00147772 -0.00145216 -0.00142527 -0.00139857 -0.0013736 -0.00135036 -0.00132884 -0.00130981 -0.00129402 -0.00128146 -0.00127214 -0.00126559 -0.00126133 -0.00125937 -0.00125971 -0.00126078 -0.00126102 -0.00126041 -0.00125898 -0.00125486 -0.0012462 -0.00123302 -0.00121529 -0.00119211 -0.00116254 -0.00112658 -0.00108424 -0.00103641 -0.000983989 -0.000926987 -0.000865398 -0.000801841 -0.00073893 -0.000676667 -0.000615051 -0.00055717 -0.000506114 -0.000461882 -0.000424473 -0.000395769 -0.000377648 -0.000370111 -0.000373157 -0.000386374 -0.00040935 -0.000442085 -0.000484578 -0.000534262 -0.000588571 -0.000647503 -0.000711059 -0.000775709 -0.000837924 -0.000897703 -0.000955047 -0.00100696 -0.00105045 -0.00108552 -0.00111217 -0.00112895 -0.00113443 -0.00112861 -0.00111148 -0.00108344 -0.00104487 -0.000995759 -0.000936118 -0.000868087 -0.000793812 -0.000713293 -0.000626529 -0.000537729 -0.000451104 -0.000366651 -0.000284372 -0.000209517 -0.000147335 -9.78276e-05 -6.09938e-05 -3.4309e-05 -1.52484e-05 -3.81211e-06 0 0 -8.51498e-07 -3.40599e-06 -7.66348e-06 -1.3624e-05 -2.46525e-05 -4.41143e-05 -7.20091e-05 -0.000108337 -0.000153323 -0.000207193 -0.000269945 -0.00034158 -0.000420988 -0.000507059 -0.000599792 -0.000699188 -0.000804135 -0.000913522 -0.00102735 -0.00114562 -0.00126676 -0.00138922 -0.00151299 -0.00163808 -0.00176227 -0.00188337 -0.00200136 -0.00211625 -0.00222566 -0.00232723 -0.00242094 -0.00250679 -0.00258317 -0.00264842 -0.00270256 -0.00274559 -0.00277741 -0.00279795 -0.00280721 -0.00280518 -0.00279354 -0.00277393 -0.00274636 -0.00271083 -0.00267013 -0.00262706 -0.00258162 -0.00253381 -0.00248635 -0.00244196 -0.00240064 -0.00236239 -0.00232855 -0.00230047 -0.00227815 -0.00226158 -0.00224993 -0.00224237 -0.00223888 -0.00223949 -0.00224139 -0.00224181 -0.00224074 -0.00223819 -0.00223086 -0.00221547 -0.00219203 -0.00216052 -0.00211931 -0.00206674 -0.00200281 -0.00192753 -0.0018425 -0.00174931 -0.00164798 -0.00153849 -0.00142549 -0.00131365 -0.00120296 -0.00109342 -0.000990525 -0.000899758 -0.000821123 -0.000754619 -0.00070359 -0.000671375 -0.000657975 -0.00066339 -0.000686887 -0.000727733 -0.000785928 -0.000861472 -0.0009498 -0.00104635 -0.00115112 -0.0012641 -0.00137904 -0.00148964 -0.00159592 -0.00169786 -0.00179015 -0.00186747 -0.00192982 -0.00197718 -0.00200702 -0.00201676 -0.00200641 -0.00197597 -0.00192612 -0.00185754 -0.00177024 -0.00166421 -0.00154327 -0.00141122 -0.00126808 -0.00111383 -0.000955963 -0.000801962 -0.000651824 -0.00050555 -0.000372474 -0.000261929 -0.000173916 -0.000108433 -6.09938e-05 -2.71083e-05 -6.77708e-06 0 0 -1.56728e-06 -6.26911e-06 -1.41055e-05 -2.50764e-05 -4.43541e-05 -7.71108e-05 -0.000123346 -0.000183061 -0.000256402 -0.000343516 -0.000444404 -0.000559065 -0.000685682 -0.000822436 -0.000969328 -0.00112636 -0.00129173 -0.00146364 -0.0016421 -0.0018271 -0.00201619 -0.00220693 -0.00239932 -0.00259335 -0.00278564 -0.00297283 -0.00315489 -0.00333184 -0.0035001 -0.0036561 -0.00379984 -0.00393132 -0.00404814 -0.00414793 -0.00423067 -0.00429636 -0.004345 -0.00437657 -0.00439106 -0.00438848 -0.00437142 -0.0043425 -0.0043017 -0.00424903 -0.00418873 -0.00412505 -0.00405797 -0.0039875 -0.00391765 -0.00385243 -0.00379185 -0.0037359 -0.00368637 -0.00364504 -0.00361193 -0.00358702 -0.00356868 -0.00355527 -0.0035468 -0.00354326 -0.00354002 -0.00353244 -0.00352053 -0.00350427 -0.00347842 -0.00343771 -0.00338213 -0.0033117 -0.00322401 -0.0031167 -0.00298976 -0.00284318 -0.00268007 -0.00250351 -0.0023135 -0.00211005 -0.00190131 -0.00169547 -0.00149251 -0.00129244 -0.00110476 -0.000938939 -0.000794991 -0.000672914 -0.000578492 -0.000517508 -0.000489962 -0.000495856 -0.000534024 -0.000603301 -0.000703688 -0.000835186 -0.000990073 -0.00116063 -0.00134686 -0.00154876 -0.00175562 -0.00195672 -0.00215206 -0.00234164 -0.00251627 -0.00266675 -0.00279309 -0.00289528 -0.00296877 -0.003009 -0.00301597 -0.00298968 -0.00293107 -0.00284106 -0.00271965 -0.00256684 -0.00238878 -0.00219161 -0.00197533 -0.00173994 -0.00149739 -0.00125966 -0.00102673 -0.000798605 -0.000590252 -0.000416631 -0.000277742 -0.000173584 -9.7641e-05 -4.3396e-05 -1.0849e-05 0 0 -2.86311e-06 -1.14525e-05 -2.5768e-05 -4.58098e-05 -7.88064e-05 -0.000131986 -0.000205349 -0.000298896 -0.000412314 -0.000545295 -0.000697837 -0.000869941 -0.00105878 -0.00126151 -0.00147814 -0.00170868 -0.00195037 -0.00220047 -0.00245899 -0.00272592 -0.00299772 -0.00327085 -0.0035453 -0.00382107 -0.00409348 -0.00435783 -0.00461413 -0.00486237 -0.00509776 -0.00531552 -0.00551563 -0.0056981 -0.0058599 -0.005998 -0.0061124 -0.0062031 -0.00627036 -0.00631446 -0.0063354 -0.00633317 -0.00631154 -0.00627427 -0.00622137 -0.00615282 -0.00607442 -0.00599194 -0.00590538 -0.00581475 -0.0057252 -0.0056419 -0.00556484 -0.00549403 -0.00543125 -0.00537827 -0.0053351 -0.00530174 -0.00527499 -0.00525163 -0.00523167 -0.0052151 -0.00519453 -0.00516255 -0.00511915 -0.00506435 -0.00499024 -0.00488893 -0.00476041 -0.0046047 -0.00441883 -0.00419986 -0.00394778 -0.0036626 -0.00335027 -0.00301677 -0.00266209 -0.00228624 -0.00190328 -0.00152726 -0.0011582 -0.000796087 -0.000456928 -0.000156724 0.000104526 0.000326821 0.000500392 0.000615468 0.00067205 0.000670137 0.000611455 0.000497729 0.000328959 0.000105145 -0.000161093 -0.000457135 -0.000782979 -0.00113863 -0.00150632 -0.0018683 -0.00222456 -0.00257511 -0.00290446 -0.00319712 -0.00345309 -0.00367237 -0.00384698 -0.00396893 -0.00403821 -0.00405484 -0.00401979 -0.00393405 -0.00379763 -0.00361052 -0.00338205 -0.00312155 -0.00282901 -0.00250443 -0.00216572 -0.00183078 -0.00149961 -0.00117222 -0.000871113 -0.000618808 -0.000415305 -0.000260603 -0.000146589 -6.51506e-05 -1.62877e-05 0 0 -4.73901e-06 -1.8956e-05 -4.26511e-05 -7.58242e-05 -0.000128009 -0.00020874 -0.000318017 -0.000455841 -0.000621061 -0.000812528 -0.00103024 -0.00127421 -0.00154027 -0.00182428 -0.00212624 -0.00244615 -0.00278006 -0.00312402 -0.00347803 -0.00384209 -0.00421135 -0.00458097 -0.00495093 -0.00532124 -0.00568577 -0.00603838 -0.00637907 -0.00670783 -0.00701864 -0.00730546 -0.0075683 -0.00780715 -0.00801845 -0.00819866 -0.00834777 -0.00846579 -0.00855348 -0.00861163 -0.00864022 -0.00863926 -0.00861389 -0.00856926 -0.00850536 -0.00842219 -0.00832718 -0.00822773 -0.00812386 -0.00801555 -0.00790899 -0.00781034 -0.00771961 -0.00763679 -0.0075632 -0.00750016 -0.00744769 -0.00740576 -0.00736886 -0.00733143 -0.00729348 -0.007255 -0.00720492 -0.00713212 -0.00703662 -0.00691842 -0.00676632 -0.00656914 -0.00632688 -0.00603954 -0.00570377 -0.00531622 -0.00487689 -0.00438578 -0.00385312 -0.00328911 -0.00269376 -0.00206707 -0.00143138 -0.000809031 -0.00020002 0.000395651 0.000952961 0.00144689 0.00187743 0.00224459 0.00253306 0.00272755 0.00282806 0.00283459 0.00274955 0.00257536 0.00231201 0.00195952 0.00153714 0.00106414 0.000540529 -3.37018e-05 -0.000631143 -0.00122439 -0.00181343 -0.00239828 -0.00295472 -0.00345857 -0.00390982 -0.00430847 -0.00464167 -0.00489656 -0.00507315 -0.00517144 -0.00519228 -0.00513653 -0.00500419 -0.00479526 -0.00452309 -0.00420104 -0.00382911 -0.0034073 -0.00296094 -0.00251533 -0.00207048 -0.00162639 -0.00121506 -0.00086846 -0.000586604 -0.000369489 -0.000207838 -9.23723e-05 -2.30931e-05 0 0 -7.19497e-06 -2.87799e-05 -6.47547e-05 -0.00011512 -0.000191963 -0.000307373 -0.000461351 -0.000653896 -0.000882641 -0.00114522 -0.00144162 -0.00177186 -0.00213016 -0.00251074 -0.00291361 -0.00333877 -0.0037808 -0.00423428 -0.00469922 -0.00517561 -0.00565709 -0.00613729 -0.00661622 -0.00709387 -0.00756253 -0.00801448 -0.00844971 -0.00886823 -0.00926274 -0.00962594 -0.00995785 -0.0102584 -0.0105238 -0.0107499 -0.0109368 -0.0110844 -0.0111944 -0.0112681 -0.0113055 -0.0113067 -0.0112785 -0.0112275 -0.0111537 -0.0110571 -0.010947 -0.0108324 -0.0107134 -0.0105899 -0.010469 -0.0103578 -0.0102562 -0.0101642 -0.0100822 -0.0100107 -0.00994967 -0.00989907 -0.00985029 -0.00979467 -0.00973224 -0.00966297 -0.00957118 -0.00944117 -0.00927293 -0.00906647 -0.00880666 -0.00847834 -0.00808152 -0.00761621 -0.00707881 -0.00646577 -0.00577708 -0.00501274 -0.0041886 -0.00332052 -0.0024085 -0.00145253 -0.00048563 0.000459222 0.00138202 0.00228277 0.00312491 0.00387189 0.00452372 0.00508038 0.00551952 0.00581875 0.00597808 0.0059975 0.00588026 0.00562958 0.00524548 0.00472794 0.00410463 0.0034032 0.00262366 0.00176601 0.000869913 -2.49793e-05 -0.000918662 -0.00181113 -0.00266706 -0.00345111 -0.00416328 -0.00480357 -0.00535282 -0.0057919 -0.00612079 -0.00633949 -0.00644855 -0.0064485 -0.00633933 -0.00612105 -0.00581189 -0.00543009 -0.00497565 -0.00444857 -0.00388305 -0.00331331 -0.00273933 -0.00216113 -0.00162208 -0.00116559 -0.00079164 -0.000500243 -0.000281387 -0.000125061 -3.12652e-05 0 0 -1.02725e-05 -4.10902e-05 -9.24529e-05 -0.000164361 -0.000271478 -0.00042847 -0.000635336 -0.000892076 -0.0011944 -0.00153804 -0.00192297 -0.00234921 -0.00280891 -0.00329422 -0.00380514 -0.00434168 -0.00489668 -0.00546299 -0.00604061 -0.00662954 -0.00722186 -0.00780966 -0.00839294 -0.00897169 -0.00953688 -0.0100794 -0.0105994 -0.0110968 -0.0115635 -0.0119915 -0.0123809 -0.0127316 -0.01304 -0.0133022 -0.0135184 -0.0136884 -0.0138151 -0.0139011 -0.0139464 -0.013951 -0.0139234 -0.0138719 -0.0137966 -0.0136976 -0.0135851 -0.0134698 -0.0133515 -0.0132303 -0.0131133 -0.0130074 -0.0129126 -0.012829 -0.0127548 -0.0126885 -0.0126299 -0.0125791 -0.012523 -0.0124487 -0.012356 -0.0122449 -0.0120941 -0.0118819 -0.0116083 -0.0112733 -0.0108572 -0.0103403 -0.00972251 -0.00900385 -0.00818111 -0.00725109 -0.00621379 -0.0050692 -0.0038411 -0.00255327 -0.00120569 0.000201631 0.00162147 0.0030066 0.00435703 0.00567275 0.00690209 0.00799337 0.00894658 0.00976172 0.0104072 0.0108513 0.0110941 0.0111356 0.01098 0.0106313 0.0100895 0.00935475 0.00846528 0.00745945 0.00633726 0.00509871 0.00379927 0.00249442 0.00118417 -0.000131479 -0.0014026 -0.00257924 -0.0036614 -0.0046491 -0.00551466 -0.00623046 -0.00679649 -0.00721276 -0.00747896 -0.00759481 -0.00756032 -0.00737548 -0.00706424 -0.00665057 -0.00613447 -0.00551593 -0.00483957 -0.00415001 -0.00344725 -0.00273129 -0.00205886 -0.00148668 -0.00101476 -0.000643087 -0.000361736 -0.000160772 -4.01929e-05 0 0 -1.40133e-05 -5.60531e-05 -0.00012612 -0.000224213 -0.000367366 -0.000572614 -0.000839956 -0.00116939 -0.0015537 -0.00198567 -0.00246528 -0.00299255 -0.00355696 -0.00414801 -0.00476568 -0.00541 -0.00607178 -0.00674186 -0.00742026 -0.00810695 -0.00879262 -0.00946792 -0.0101329 -0.0107874 -0.0114219 -0.0120266 -0.0126015 -0.0131466 -0.0136542 -0.0141167 -0.0145341 -0.0149063 -0.0152311 -0.0155062 -0.0157315 -0.0159071 -0.0160376 -0.0161279 -0.0161777 -0.0161873 -0.0161666 -0.0161257 -0.0160646 -0.0159833 -0.0158927 -0.0158035 -0.0157156 -0.0156292 -0.0155497 -0.0154823 -0.0154271 -0.015384 -0.0153476 -0.0153119 -0.0152772 -0.0152432 -0.0151908 -0.0151006 -0.0149727 -0.0148069 -0.0145744 -0.0142464 -0.0138229 -0.0133038 -0.0126641 -0.0118788 -0.010948 -0.00987161 -0.00864779 -0.00727474 -0.00575245 -0.00408092 -0.00229503 -0.000429625 0.00151528 0.00353969 0.0055774 0.00756221 0.00949411 0.0113731 0.0131277 0.0146864 0.0160492 0.0172161 0.0181435 0.0187875 0.0191483 0.0192257 0.019025 0.0185512 0.0178043 0.0167843 0.015543 0.0141323 0.0125522 0.0108026 0.00895934 0.00709832 0.00521951 0.0033229 0.00147756 -0.000247456 -0.00185214 -0.00333649 -0.00466141 -0.0057878 -0.00671566 -0.00744499 -0.00797386 -0.00830034 -0.00842443 -0.00834614 -0.00809596 -0.00770439 -0.00717144 -0.00649711 -0.00573801 -0.00495075 -0.00413534 -0.00329177 -0.00249206 -0.00180824 -0.0012403 -0.000788239 -0.000443385 -0.00019706 -4.92649e-05 0 0 -1.84172e-05 -7.36688e-05 -0.000165755 -0.000294675 -0.000479627 -0.000739806 -0.00107521 -0.00148585 -0.00196054 -0.00248811 -0.00306855 -0.00370188 -0.00437433 -0.00507211 -0.00579525 -0.00654373 -0.0073061 -0.00807091 -0.00883816 -0.00960785 -0.0103694 -0.0111121 -0.011836 -0.0125411 -0.0132177 -0.013856 -0.014456 -0.0150178 -0.015535 -0.0160016 -0.0164174 -0.0167825 -0.0170972 -0.0173617 -0.0175761 -0.0177404 -0.017862 -0.0179485 -0.0179997 -0.0180157 -0.0180081 -0.0179887 -0.0179575 -0.0179144 -0.0178697 -0.0178335 -0.0178058 -0.0177867 -0.0177782 -0.0177824 -0.0177995 -0.0178294 -0.0178604 -0.0178811 -0.0178915 -0.0178915 -0.0178537 -0.0177506 -0.0175823 -0.0173488 -0.0170122 -0.0165348 -0.0159167 -0.0151578 -0.0142272 -0.0130939 -0.011758 -0.0102195 -0.00847885 -0.00653671 -0.00439306 -0.0020479 0.000449634 0.0030504 0.00575441 0.00856165 0.0113822 0.014126 0.0167933 0.0193838 0.0218017 0.023951 0.0258316 0.0274436 0.0287284 0.0296273 0.0301405 0.0302678 0.0300155 0.0293895 0.0283899 0.0270166 0.0253379 0.0234218 0.0212683 0.0188776 0.0163501 0.0137867 0.0111873 0.008552 0.0059734 0.00354424 0.00126452 -0.000865745 -0.00279306 -0.0044639 -0.00587828 -0.00703619 -0.00793325 -0.00856508 -0.00893167 -0.00903303 -0.00890703 -0.00859154 -0.00808656 -0.00739211 -0.00657836 -0.00571552 -0.00480358 -0.00384255 -0.00292169 -0.00213026 -0.00146827 -0.000935701 -0.000526332 -0.000233925 -5.84813e-05 0 0 -2.34843e-05 -9.39371e-05 -0.000211359 -0.000375749 -0.00060826 -0.000930046 -0.00134111 -0.00184144 -0.0024149 -0.00304535 -0.00373279 -0.00447721 -0.005261 -0.00606654 -0.00689383 -0.00774287 -0.00859965 -0.00945013 -0.0102943 -0.0111322 -0.0119521 -0.0127421 -0.0135023 -0.0142327 -0.0149241 -0.0155675 -0.0161629 -0.0167103 -0.0172059 -0.0176461 -0.0180309 -0.0183602 -0.0186382 -0.0188689 -0.0190523 -0.0191885 -0.0192883 -0.0193629 -0.0194121 -0.0194361 -0.019448 -0.0194611 -0.0194754 -0.0194909 -0.0195162 -0.0195599 -0.019622 -0.0197026 -0.0197988 -0.0199079 -0.02003 -0.0201649 -0.0202934 -0.020396 -0.0204729 -0.0205239 -0.0205116 -0.0203987 -0.020185 -0.0198706 -0.0194074 -0.0187471 -0.0178898 -0.0168354 -0.0155465 -0.0139856 -0.0121526 -0.0100475 -0.0076743 -0.00503702 -0.00213563 0.00102986 0.00439288 0.00788682 0.0115117 0.0152675 0.0190358 0.0226981 0.0262545 0.0297049 0.0329241 0.0357871 0.0382937 0.0404441 0.0421619 0.0433708 0.0440708 0.0442619 0.0439513 0.043146 0.0418462 0.0400516 0.0378498 0.0353278 0.0324858 0.0293237 0.0259716 0.0225596 0.0190877 0.0155558 0.0120849 0.00879584 0.00568858 0.00276314 9.03917e-05 -0.00225877 -0.00428436 -0.00598637 -0.00735714 -0.00838903 -0.00908203 -0.00943615 -0.00949745 -0.00931201 -0.00887984 -0.00820092 -0.00736063 -0.00644432 -0.00545199 -0.00438365 -0.00334775 -0.00245275 -0.00169866 -0.00108547 -0.000610578 -0.000271368 -6.7842e-05 0 0 -2.90916e-05 -0.000116366 -0.000261824 -0.000465465 -0.000749987 -0.00113809 -0.00162977 -0.00222503 -0.0029015 -0.00363683 -0.004431 -0.00528403 -0.00617361 -0.00707743 -0.00799549 -0.00892779 -0.00985737 -0.0107673 -0.0116575 -0.012528 -0.0133662 -0.0141594 -0.0149078 -0.0156113 -0.0162625 -0.0168543 -0.0173866 -0.0178594 -0.0182734 -0.0186293 -0.0189272 -0.019167 -0.0193587 -0.0195119 -0.0196267 -0.0197031 -0.0197569 -0.0198038 -0.0198439 -0.0198772 -0.0199183 -0.0199818 -0.0200678 -0.0201763 -0.0203126 -0.0204823 -0.0206852 -0.0209215 -0.0211808 -0.0214529 -0.0217378 -0.0220355 -0.022316 -0.0225493 -0.0227355 -0.0228744 -0.0229163 -0.022811 -0.0225586 -0.0221592 -0.0215522 -0.0206772 -0.0195343 -0.0181235 -0.0164 -0.014319 -0.0118806 -0.00908485 -0.00594058 -0.00245679 0.00136652 0.00552935 0.00994345 0.0145205 0.0192606 0.0241637 0.0290769 0.0338476 0.0384757 0.0429611 0.0471444 0.0508658 0.0541254 0.0569232 0.0591622 0.0607456 0.0616733 0.0619453 0.0615698 0.0605551 0.0589009 0.0566075 0.053784 0.0505396 0.0468744 0.0427883 0.0384457 0.0340112 0.0294845 0.0248658 0.0203096 0.0159702 0.0118477 0.00794212 0.00434552 0.00115003 -0.00164433 -0.00403756 -0.0060175 -0.00757195 -0.00870093 -0.00940443 -0.00973761 -0.00975563 -0.0094585 -0.00884622 -0.00802118 -0.00708578 -0.00604002 -0.00488391 -0.00374711 -0.00275931 -0.00192049 -0.00123066 -0.000692248 -0.000307666 -7.69165e-05 0 0 -3.5116e-05 -0.000140464 -0.000316044 -0.000561856 -0.000901528 -0.00135869 -0.00193333 -0.00262546 -0.00340502 -0.00424193 -0.00513621 -0.00608786 -0.00706878 -0.00805092 -0.00903428 -0.0100188 -0.0109842 -0.01191 -0.0127962 -0.0136429 -0.0144369 -0.0151655 -0.0158285 -0.016426 -0.0169542 -0.0174094 -0.0177914 -0.0181004 -0.0183441 -0.0185304 -0.0186593 -0.0187307 -0.0187631 -0.0187748 -0.0187658 -0.0187362 -0.0187082 -0.018704 -0.0187238 -0.0187675 -0.0188508 -0.0189897 -0.0191841 -0.0194341 -0.0197395 -0.0201002 -0.0205164 -0.0209878 -0.0214933 -0.0220115 -0.0225424 -0.023086 -0.0235979 -0.0240338 -0.0243935 -0.0246772 -0.0248192 -0.0247539 -0.0244812 -0.0240012 -0.0232389 -0.0221194 -0.0206427 -0.0188089 -0.0165653 -0.0138595 -0.0106913 -0.00706087 -0.00298415 0.00152283 0.00646007 0.0118276 0.0175101 0.0233924 0.0294746 0.0357566 0.0420443 0.0481437 0.0540548 0.0597775 0.065112 0.0698583 0.0740164 0.0775864 0.0804477 0.0824796 0.0836821 0.0840554 0.0836085 0.0823507 0.080282 0.0774023 0.0738457 0.0697462 0.0651038 0.0599185 0.0543943 0.0487355 0.0429419 0.0370135 0.0311448 0.0255302 0.0201697 0.0150632 0.0103289 0.00608496 0.00233139 -0.000931821 -0.00368628 -0.0059136 -0.00761377 -0.00878679 -0.00949787 -0.00981221 -0.00972981 -0.00925066 -0.00849637 -0.00758853 -0.00652714 -0.0053122 -0.00409667 -0.00303353 -0.00212277 -0.00136438 -0.000767466 -0.000341096 -8.5274e-05 0 0 -4.15577e-05 -0.000166231 -0.000374019 -0.000664923 -0.00106288 -0.00159184 -0.00225179 -0.00304275 -0.00392545 -0.00486068 -0.00584842 -0.00688868 -0.00794652 -0.00898703 -0.0100102 -0.011016 -0.0119802 -0.0128784 -0.0137107 -0.014477 -0.0151644 -0.0157603 -0.0162644 -0.0166769 -0.0169992 -0.0172327 -0.0173774 -0.0174333 -0.0174181 -0.0173494 -0.017227 -0.0170511 -0.0168514 -0.0166576 -0.0164697 -0.0162877 -0.0161422 -0.0160635 -0.0160518 -0.0161069 -0.0162457 -0.0164849 -0.0168245 -0.0172644 -0.0177968 -0.0184138 -0.0191154 -0.0199016 -0.0207364 -0.0215838 -0.0224438 -0.0233164 -0.0241391 -0.0248493 -0.025447 -0.0259323 -0.0262206 -0.0262274 -0.0259527 -0.0253966 -0.0244674 -0.0230735 -0.0212149 -0.0188916 -0.0160426 -0.012607 -0.00858459 -0.00397554 0.00119501 0.00690186 0.013145 0.0199245 0.0270928 0.0345025 0.0421536 0.0500462 0.0579379 0.0655864 0.0729918 0.080154 0.0868269 0.0927645 0.0979668 0.102434 0.106018 0.108573 0.110097 0.110592 0.110067 0.108533 0.105989 0.102436 0.098035 0.0929477 0.0871742 0.0807144 0.0738175 0.0667326 0.0594597 0.0519988 0.0445907 0.0374759 0.0306544 0.0241263 0.0180405 0.012546 0.0076428 0.00333086 -0.000363502 -0.00341397 -0.00582055 -0.00758324 -0.00877824 -0.00948174 -0.00969375 -0.00941426 -0.00878622 -0.00795259 -0.00691335 -0.00566852 -0.00439643 -0.00327542 -0.00230549 -0.00148663 -0.00083623 -0.000371658 -9.29145e-05 0 0 -4.84165e-05 -0.000193666 -0.000435749 -0.000774665 -0.00123405 -0.00183755 -0.00258516 -0.00347688 -0.00446281 -0.00549306 -0.00656762 -0.0076865 -0.00880683 -0.00988574 -0.0109232 -0.0119193 -0.0128453 -0.0136724 -0.0144008 -0.0150303 -0.0155487 -0.0159437 -0.0162155 -0.0163639 -0.0163974 -0.0163242 -0.0161445 -0.0158582 -0.0154954 -0.0150861 -0.0146305 -0.0141284 -0.0136237 -0.0131604 -0.0127384 -0.0123578 -0.0120589 -0.0118822 -0.0118278 -0.0118956 -0.012103 -0.0124673 -0.0129887 -0.0136671 -0.0144846 -0.015423 -0.0164824 -0.0176628 -0.01891 -0.0201697 -0.021442 -0.0227267 -0.0239395 -0.0249959 -0.0258959 -0.0266395 -0.0271202 -0.0272315 -0.0269732 -0.0263455 -0.0252378 -0.0235396 -0.0212508 -0.0183716 -0.0148318 -0.0105614 -0.00556045 0.000171151 0.00659689 0.0136803 0.0214213 0.0298201 0.0386915 0.0478508 0.0572978 0.0670325 0.0767577 0.0861757 0.0952867 0.10409 0.112289 0.119584 0.125977 0.131465 0.135874 0.139025 0.140919 0.141556 0.140946 0.139102 0.136023 0.131709 0.126352 0.120144 0.113085 0.105176 0.0967151 0.0880024 0.079038 0.0698218 0.0606471 0.0518071 0.0433019 0.0351315 0.0274804 0.0205332 0.0142899 0.00875047 0.00395085 -7.3066e-05 -0.00332127 -0.00579377 -0.00757871 -0.00876423 -0.00935032 -0.009337 -0.00889072 -0.00817793 -0.00719865 -0.00595287 -0.00464639 -0.00348498 -0.00246865 -0.00159741 -0.000898543 -0.000399352 -9.98381e-05 0 0 -5.54881e-05 -0.000221952 -0.000499393 -0.00088781 -0.00140965 -0.00208738 -0.00292098 -0.00391047 -0.00499358 -0.00610809 -0.00725398 -0.00843125 -0.00958772 -0.0106712 -0.0116817 -0.0126192 -0.0134499 -0.0141401 -0.0146897 -0.0150988 -0.0153565 -0.0154516 -0.0153843 -0.0151546 -0.01478 -0.0142785 -0.0136499 -0.0128943 -0.012058 -0.0111873 -0.0102821 -0.00934251 -0.00843033 -0.00760737 -0.00687365 -0.00622916 -0.00572656 -0.00541852 -0.00530504 -0.00538612 -0.00567948 -0.00620286 -0.00695625 -0.00793965 -0.00912192 -0.0104719 -0.0119896 -0.0136751 -0.015451 -0.0172402 -0.0190427 -0.0208586 -0.0225764 -0.0240852 -0.0253848 -0.0264753 -0.0272243 -0.0274993 -0.0273004 -0.0266276 -0.0253491 -0.0233333 -0.0205801 -0.0170896 -0.0127823 -0.0075792 -0.00148014 0.00551485 0.013355 0.0219894 0.0314182 0.0416413 0.0524301 0.0635558 0.0750184 0.086818 0.0985949 0.10999 0.121002 0.131633 0.141527 0.150329 0.15804 0.16466 0.169981 0.173793 0.176098 0.176895 0.176197 0.174015 0.17035 0.165201 0.158793 0.151349 0.142868 0.133352 0.123153 0.112625 0.101769 0.090584 0.0794225 0.0686364 0.0582255 0.04819 0.0387555 0.0301479 0.0223671 0.0154132 0.00933409 0.00417779 -5.56852e-05 -0.00336635 -0.005855 -0.00762241 -0.00866858 -0.00899352 -0.00878942 -0.00824847 -0.00737068 -0.00615604 -0.00483993 -0.00365771 -0.00260939 -0.00169496 -0.000953414 -0.00042374 -0.000105935 0 0 -6.25679e-05 -0.000250271 -0.000563111 -0.00100109 -0.00158431 -0.00233288 -0.00324682 -0.00432611 -0.00549426 -0.00667477 -0.00786764 -0.00907287 -0.0102272 -0.0112675 -0.0121937 -0.0130059 -0.0136643 -0.0141292 -0.0144008 -0.0144788 -0.0143547 -0.0140196 -0.0134735 -0.0127163 -0.0117784 -0.0106899 -0.00945076 -0.00806107 -0.00658812 -0.00509925 -0.00359445 -0.00207374 -0.00062167 0.000677169 0.00182278 0.00281517 0.00358659 0.00406933 0.00426336 0.00416871 0.00376771 0.00304273 0.00199376 0.00062081 -0.00102807 -0.00290481 -0.00500941 -0.00734188 -0.00979618 -0.0122662 -0.0147521 -0.0172537 -0.0196273 -0.0217288 -0.0235583 -0.0251158 -0.0262386 -0.026764 -0.0266921 -0.0260227 -0.0246006 -0.0222704 -0.0190323 -0.014886 -0.00974352 -0.00351648 0.0037951 0.0121912 0.0216027 0.0319606 0.0432647 0.0555152 0.0684323 0.0817362 0.0954271 0.109505 0.123541 0.137106 0.150202 0.162827 0.174568 0.18501 0.194154 0.201998 0.208305 0.212835 0.215587 0.216561 0.215771 0.21323 0.208938 0.202895 0.195356 0.186575 0.176553 0.16529 0.153196 0.140681 0.127744 0.114387 0.101025 0.0880759 0.0755383 0.0634129 0.0519728 0.0414915 0.031969 0.0234052 0.0158635 0.00940729 0.00403647 -0.000248937 -0.0035628 -0.00601901 -0.00761756 -0.00835845 -0.0084619 -0.0081481 -0.00741708 -0.00626881 -0.00497044 -0.0037891 -0.0027248 -0.00177752 -0.000999856 -0.00044438 -0.000111095 0 0 -6.96558e-05 -0.000278623 -0.000626902 -0.00111449 -0.00175801 -0.00257407 -0.00356267 -0.00472381 -0.00596484 -0.0071931 -0.0084086 -0.00961134 -0.0107254 -0.0116747 -0.0124595 -0.0130795 -0.0134885 -0.0136399 -0.0135339 -0.0131703 -0.0125434 -0.0116476 -0.0104829 -0.00904921 -0.0073924 -0.00555834 -0.003547 -0.0013584 0.000914303 0.00317793 0.00543249 0.00767798 0.00980227 0.0116932 0.0133509 0.0147752 0.0158806 0.0165813 0.0168774 0.0167689 0.0162386 0.0152694 0.0138613 0.0120142 0.00979701 0.00727835 0.00445825 0.00133671 -0.00194554 -0.00524778 -0.00857001 -0.0119122 -0.0150919 -0.0179266 -0.0204163 -0.022561 -0.0241633 -0.0250257 -0.0251481 -0.0245307 -0.0229921 -0.020351 -0.0166073 -0.0117611 -0.00571538 0.00162673 0.0102653 0.0202002 0.0313402 0.0435938 0.0569609 0.0714417 0.0866981 0.102392 0.118524 0.135093 0.151595 0.167526 0.182885 0.197673 0.211413 0.223627 0.234316 0.24348 0.250848 0.256149 0.259384 0.260553 0.259669 0.256748 0.251788 0.24479 0.236039 0.225823 0.21414 0.200991 0.186844 0.172169 0.156964 0.141231 0.125456 0.110126 0.0952405 0.0808002 0.0671323 0.054564 0.0430954 0.0327265 0.0235392 0.0156154 0.00895518 0.00355847 -0.000702125 -0.00395403 -0.00619726 -0.00743179 -0.00790814 -0.00787682 -0.00733784 -0.00629118 -0.00503793 -0.00387917 -0.00281489 -0.0018451 -0.00103787 -0.000461274 -0.000115319 0 0 -7.6752e-05 -0.000307008 -0.000690768 -0.00122803 -0.00193076 -0.00281093 -0.00386853 -0.00510356 -0.00640532 -0.00766309 -0.00887688 -0.0100467 -0.0110821 -0.0118928 -0.0124788 -0.0128401 -0.0129225 -0.0126722 -0.0120891 -0.0111731 -0.00992258 -0.00833576 -0.00641264 -0.00415321 -0.00162209 0.00111609 0.00406135 0.00721367 0.0104493 0.0136443 0.0167987 0.0199126 0.0228415 0.0254408 0.0277107 0.029651 0.0311554 0.0321174 0.0325371 0.0324145 0.0317332 0.0304772 0.0286463 0.0262406 0.0233533 0.0200776 0.0164134 0.0123607 0.00810091 0.00381518 -0.000496471 -0.00483403 -0.00897049 -0.0126788 -0.015959 -0.018811 -0.0209983 -0.0222842 -0.0226687 -0.0221518 -0.0205237 -0.0175748 -0.0133052 -0.00771464 -0.000697904 0.00785043 0.0179304 0.0295419 0.0425673 0.056889 0.0725068 0.0894208 0.107227 0.125523 0.144308 0.163582 0.182758 0.201248 0.219053 0.236171 0.252061 0.26618 0.278528 0.289104 0.297608 0.303737 0.307491 0.308871 0.307891 0.304567 0.298898 0.290885 0.280844 0.269092 0.255629 0.240455 0.224098 0.20709 0.189429 0.171116 0.152714 0.134786 0.117332 0.100352 0.0842339 0.0693654 0.0557465 0.0433771 0.0323611 0.0228022 0.0147005 0.00805588 0.00272703 -0.00142749 -0.00440767 -0.00621353 -0.00712816 -0.00743463 -0.00713297 -0.00622315 -0.00504239 -0.0039279 -0.00287966 -0.00189769 -0.00106745 -0.000474422 -0.000118606 0 0 -8.36263e-05 -0.000334505 -0.000752637 -0.00133802 -0.00209657 -0.00303418 -0.00415086 -0.00544662 -0.00679059 -0.00805194 -0.00923067 -0.0103268 -0.0112335 -0.0118439 -0.0121582 -0.0121763 -0.0118355 -0.0110734 -0.00988983 -0.00828488 -