<?xml version="1.0"?> 
<VTKFile type="StructuredGrid" version="0.1"> 
<StructuredGrid WholeExtent="0 128 0 128 0 0"> 
<Piece Extent="0 128 0 128 0 0"> 
<PointData>
<DataArray type="Float32" Name="u" format="ascii" NumberOfComponents="1"> 
0 0 0 0 0 0 0 0 0 0 0 0 0 0 0 0 0 0 0 0 0 0 0 0 0 0 0 0 0 0 0 0 0 0 0 0 0 0 0 0 0 0 0 0 0 0 0 0 0 0 0 0 0 0 0 0 0 0 0 0 0 0 0 0 0 0 0 0 0 0 0 0 0 0 0 0 0 0 0 0 0 0 0 0 0 0 0 0 0 0 0 0 0 0 0 0 0 0 0 0 0 0 0 0 0 0 0 0 0 0 0 0 0 0 0 0 0 0 0 0 0 0 0 0 0 0 0 0 0 0 -4.57435e-08 -1.82974e-07 -4.11691e-07 -7.31895e-07 -1.35388e-06 -2.48795e-06 -4.13409e-06 -6.29231e-06 -8.98841e-06 -1.22482e-05 -1.60716e-05 -2.04587e-05 -2.53486e-05 -3.06802e-05 -3.64536e-05 -4.26688e-05 -4.92619e-05 -5.6169e-05 -6.339e-05 -7.09251e-05 -7.86767e-05 -8.65476e-05 -9.45376e-05 -0.000102647 -0.000110729 -0.000118638 -0.000126373 -0.000133935 -0.00014116 -0.000147882 -0.000154102 -0.000159821 -0.000164918 -0.000169277 -0.000172896 -0.000175775 -0.000177903 -0.000179264 -0.000179861 -0.000179692 -0.000178868 -0.000177498 -0.000175583 -0.000173122 -0.000170308 -0.000167331 -0.000164191 -0.000160889 -0.000157611 -0.000154546 -0.000151693 -0.000149053 -0.000146718 -0.000144784 -0.000143249 -0.000142114 -0.00014133 -0.000140845 -0.000140662 -0.000140778 -0.000141023 -0.000141225 -0.000141383 -0.000141497 -0.00014137 -0.000140802 -0.000139793 -0.000138343 -0.000136356 -0.000133736 -0.000130482 -0.000126595 -0.000122166 -0.00011729 -0.000111965 -0.000106191 -0.000100229 -9.43373e-05 -8.85162e-05 -8.27656e-05 -7.73822e-05 -7.26623e-05 -6.86062e-05 -6.52136e-05 -6.26575e-05 -6.11106e-05 -6.05729e-05 -6.10443e-05 -6.24777e-05 -6.48258e-05 -6.80885e-05 -7.22658e-05 -7.71071e-05 -8.23615e-05 -8.8029e-05 -9.41096e-05 -0.000100259 -0.000106132 -0.000111728 -0.000117048 -0.000121793 -0.000125661 -0.000128653 -0.000130769 -0.000131856 -0.000131758 -0.000130477 -0.000128012 -0.000124394 -0.000119652 -0.000113788 -0.000106801 -9.89148e-05 -9.03548e-05 -8.11207e-05 -7.12126e-05 -6.10956e-05 -5.12352e-05 -4.16311e-05 -3.22836e-05 -2.3784e-05 -1.6724e-05 -1.11035e-05 -6.92248e-06 -3.89389e-06 -1.73062e-06 -4.32655e-07 0 0 -1.82974e-07 -7.31895e-07 -1.64676e-06 -2.92758e-06 -5.41553e-06 -9.95179e-06 -1.65364e-05 -2.51692e-05 -3.59536e-05 -4.89927e-05 -6.42865e-05 -8.18349e-05 -0.000101394 -0.000122721 -0.000145814 -0.000170675 -0.000197048 -0.000224676 -0.00025356 -0.0002837 -0.000314707 -0.00034619 -0.00037815 -0.000410587 -0.000442916 -0.000474551 -0.000505493 -0.000535741 -0.000564639 -0.000591528 -0.00061641 -0.000639283 -0.000659673 -0.000677107 -0.000691583 -0.000703101 -0.00071161 -0.000717058 -0.000719444 -0.000718768 -0.00071547 -0.000709991 -0.000702331 -0.000692489 -0.000681231 -0.000669323 -0.000656764 -0.000643555 -0.000630446 -0.000618185 -0.000606774 -0.000596212 -0.000586874 -0.000579136 -0.000572997 -0.000568458 -0.000565319 -0.000563382 -0.000562646 -0.000563112 -0.000564092 -0.000564898 -0.000565531 -0.00056599 -0.00056548 -0.000563207 -0.000559172 -0.000553373 -0.000545425 -0.000534944 -0.000521928 -0.000506378 -0.000488665 -0.000469159 -0.000447859 -0.000424765 -0.000400916 -0.000377349 -0.000354065 -0.000331063 -0.000309529 -0.000290649 -0.000274425 -0.000260855 -0.00025063 -0.000244442 -0.000242292 -0.000244177 -0.000249911 -0.000259303 -0.000272354 -0.000289063 -0.000308428 -0.000329446 -0.000352116 -0.000376438 -0.000401035 -0.000424526 -0.000446912 -0.000468194 -0.000487171 -0.000502644 -0.000514612 -0.000523077 -0.000527422 -0.000527032 -0.000521908 -0.000512048 -0.000497575 -0.00047861 -0.000455152 -0.000427203 -0.000395659 -0.000361419 -0.000324483 -0.00028485 -0.000244383 -0.000204941 -0.000166525 -0.000129134 -9.51361e-05 -6.6896e-05 -4.44139e-05 -2.76899e-05 -1.55756e-05 -6.92248e-06 -1.73062e-06 0 0 -4.11691e-07 -1.64676e-06 -3.70522e-06 -6.58706e-06 -1.21849e-05 -2.23915e-05 -3.72068e-05 -5.66308e-05 -8.08957e-05 -0.000110234 -0.000144645 -0.000184129 -0.000228137 -0.000276122 -0.000328083 -0.000384019 -0.000443357 -0.000505521 -0.00057051 -0.000638326 -0.000708091 -0.000778928 -0.000850838 -0.000923822 -0.000996561 -0.00106774 -0.00113736 -0.00120542 -0.00127044 -0.00133094 -0.00138692 -0.00143839 -0.00148427 -0.00152349 -0.00155606 -0.00158198 -0.00160112 -0.00161338 -0.00161875 -0.00161723 -0.00160981 -0.00159748 -0.00158024 -0.0015581 -0.00153277 -0.00150598 -0.00147772 -0.001448 -0.0014185 -0.00139092 -0.00136524 -0.00134148 -0.00132047 -0.00130305 -0.00128924 -0.00127903 -0.00127197 -0.00126761 -0.00126595 -0.001267 -0.00126921 -0.00127102 -0.00127244 -0.00127348 -0.00127233 -0.00126722 -0.00125814 -0.00124509 -0.00122721 -0.00120362 -0.00117434 -0.00113935 -0.0010995 -0.00105561 -0.00100768 -0.000955722 -0.000902061 -0.000849036 -0.000796646 -0.000744891 -0.000696439 -0.000653961 -0.000617456 -0.000586923 -0.000563918 -0.000549996 -0.000545156 -0.000549399 -0.000562299 -0.000583432 -0.000612796 -0.000650393 -0.000693964 -0.000741253 -0.000792261 -0.000846987 -0.000902328 -0.000955184 -0.00100555 -0.00105344 -0.00109613 -0.00113095 -0.00115788 -0.00117692 -0.0011867 -0.00118582 -0.00117429 -0.00115211 -0.00111954 -0.00107687 -0.00102409 -0.000961207 -0.000890233 -0.000813193 -0.000730087 -0.000640913 -0.000549861 -0.000461116 -0.00037468 -0.000290552 -0.000214056 -0.000150516 -9.99313e-05 -6.23023e-05 -3.5045e-05 -1.55756e-05 -3.89389e-06 0 0 -7.31895e-07 -2.92758e-06 -6.58706e-06 -1.17103e-05 -2.16621e-05 -3.98072e-05 -6.61454e-05 -0.000100677 -0.000143815 -0.000195971 -0.000257146 -0.00032734 -0.000405577 -0.000490883 -0.000583258 -0.000682701 -0.000788191 -0.000898704 -0.00101424 -0.0011348 -0.00125883 -0.00138476 -0.0015126 -0.00164235 -0.00177166 -0.0018982 -0.00202197 -0.00214297 -0.00225856 -0.00236611 -0.00246564 -0.00255713 -0.00263869 -0.00270843 -0.00276633 -0.00281241 -0.00284644 -0.00286823 -0.00287777 -0.00287507 -0.00286188 -0.00283996 -0.00280932 -0.00276996 -0.00272492 -0.00267729 -0.00262706 -0.00257422 -0.00252178 -0.00247274 -0.0024271 -0.00238485 -0.0023475 -0.00231654 -0.00229199 -0.00227383 -0.00226128 -0.00225353 -0.00225059 -0.00225245 -0.00225637 -0.00225959 -0.00226212 -0.00226396 -0.00226192 -0.00225283 -0.00223669 -0.00221349 -0.0021817 -0.00213977 -0.00208771 -0.00202551 -0.00195466 -0.00187663 -0.00179143 -0.00169906 -0.00160366 -0.0015094 -0.00141626 -0.00132425 -0.00123811 -0.0011626 -0.0010977 -0.00104342 -0.00100252 -0.00097777 -0.000969166 -0.000976709 -0.000999644 -0.00103721 -0.00108942 -0.00115625 -0.00123371 -0.00131778 -0.00140846 -0.00150575 -0.00160414 -0.0016981 -0.00178765 -0.00187278 -0.00194868 -0.00201058 -0.00205845 -0.00209231 -0.00210969 -0.00210813 -0.00208763 -0.00204819 -0.0019903 -0.00191444 -0.00182061 -0.00170881 -0.00158264 -0.00144568 -0.00129793 -0.0011394 -0.00097753 -0.000819763 -0.000666098 -0.000516538 -0.000380545 -0.000267584 -0.000177656 -0.00011076 -6.23023e-05 -2.76899e-05 -6.92248e-06 0 0 -1.3838e-06 -5.5352e-06 -1.24542e-05 -2.21408e-05 -3.97713e-05 -7.05218e-05 -0.000114392 -0.000171383 -0.00024193 -0.000326468 -0.000424998 -0.00053752 -0.000662426 -0.000798108 -0.000944567 -0.0011018 -0.00126816 -0.00144198 -0.00162326 -0.00181201 -0.00200578 -0.00220213 -0.00240107 -0.00260258 -0.00280308 -0.00299899 -0.0031903 -0.003377 -0.00355514 -0.00372071 -0.00387374 -0.0040142 -0.00413931 -0.00424623 -0.00433497 -0.00440553 -0.0044577 -0.00449126 -0.00450621 -0.00450254 -0.00448303 -0.00445042 -0.00440472 -0.00434594 -0.00427872 -0.00420774 -0.004133 -0.0040545 -0.00397668 -0.00390401 -0.00383647 -0.00377407 -0.00371884 -0.00367282 -0.00363601 -0.00360841 -0.00358843 -0.00357451 -0.00356663 -0.0035648 -0.00356444 -0.00356096 -0.00355435 -0.00354462 -0.00352667 -0.00349543 -0.00345088 -0.00339303 -0.00331967 -0.00322858 -0.00311977 -0.00299324 -0.0028519 -0.00269867 -0.00253355 -0.00235654 -0.00217503 -0.00199642 -0.0018207 -0.00164787 -0.00148627 -0.0013442 -0.00122167 -0.00111868 -0.00104011 -0.000990818 -0.000970819 -0.000980107 -0.00101748 -0.00108173 -0.00117285 -0.00129086 -0.00142889 -0.00158009 -0.00174445 -0.00192199 -0.00210316 -0.00227846 -0.00244787 -0.00261141 -0.00276068 -0.00288732 -0.00299131 -0.00307267 -0.00312698 -0.00314983 -0.00314122 -0.00310114 -0.00303022 -0.00292906 -0.00279767 -0.00263605 -0.00244998 -0.00224528 -0.00202193 -0.00177994 -0.00153121 -0.00128764 -0.00104922 -0.000815967 -0.000603045 -0.000425628 -0.000283716 -0.000177309 -9.97361e-05 -4.43272e-05 -1.10818e-05 0 0 -2.60762e-06 -1.04305e-05 -2.34686e-05 -4.17219e-05 -7.24366e-05 -0.000122859 -0.000192988 -0.000282825 -0.000392461 -0.000521989 -0.000671409 -0.000840721 -0.00102739 -0.0012289 -0.00144524 -0.00167641 -0.00191987 -0.0021731 -0.00243608 -0.00270883 -0.00298781 -0.00326948 -0.00355385 -0.00384092 -0.00412568 -0.00440314 -0.0046733 -0.00493616 -0.00518632 -0.0054184 -0.00563239 -0.00582829 -0.00600245 -0.00615121 -0.00627456 -0.00637251 -0.00644504 -0.00649211 -0.00651372 -0.00650988 -0.00648458 -0.00644182 -0.0063816 -0.00630392 -0.00621518 -0.0061218 -0.00602378 -0.00592111 -0.0058196 -0.00572506 -0.00563749 -0.00555688 -0.00548538 -0.00542511 -0.00537609 -0.0053383 -0.00530862 -0.00528391 -0.00526418 -0.00524942 -0.0052323 -0.00520545 -0.0051689 -0.00512263 -0.00505901 -0.00497039 -0.00485677 -0.00471816 -0.00455188 -0.00435524 -0.00412825 -0.00387091 -0.00358896 -0.00328814 -0.00296846 -0.00262991 -0.00228546 -0.00194808 -0.00161775 -0.00129449 -0.000992607 -0.000726404 -0.000495886 -0.000301052 -0.000150341 -5.21941e-05 -6.60988e-06 -1.35888e-05 -7.13365e-05 -0.000178059 -0.000333756 -0.000538428 -0.000780703 -0.00104921 -0.00134395 -0.00166493 -0.00199609 -0.00232142 -0.00264089 -0.00295452 -0.00324799 -0.00350697 -0.00373146 -0.00392146 -0.00406918 -0.00416681 -0.00421435 -0.0042118 -0.00415968 -0.0040585 -0.00390825 -0.00370894 -0.00346938 -0.0031984 -0.00289599 -0.00256215 -0.00221471 -0.00187149 -0.00153249 -0.00119772 -0.000890002 -0.000632175 -0.00042424 -0.000266196 -0.000149735 -6.6549e-05 -1.66373e-05 0 0 -4.40336e-06 -1.76134e-05 -3.96302e-05 -7.04537e-05 -0.000119658 -0.000196818 -0.000301932 -0.000435001 -0.000595408 -0.000782534 -0.000996379 -0.00123694 -0.00150048 -0.00178326 -0.00208527 -0.00240651 -0.00274333 -0.00309206 -0.00345271 -0.00382527 -0.00420492 -0.00458682 -0.00497097 -0.00535737 -0.00573946 -0.00611067 -0.00647099 -0.00682043 -0.00715211 -0.00745916 -0.00774159 -0.00799939 -0.00822812 -0.00842336 -0.0085851 -0.00871334 -0.00880845 -0.00887078 -0.00890032 -0.00889709 -0.00886655 -0.00881417 -0.00873996 -0.00864391 -0.00853432 -0.00841948 -0.00829939 -0.00817405 -0.00805054 -0.0079359 -0.00783015 -0.00773329 -0.00764711 -0.00757342 -0.00751222 -0.00746352 -0.00742184 -0.00738175 -0.00734324 -0.0073063 -0.00725993 -0.00719308 -0.00710577 -0.006998 -0.00685892 -0.00667771 -0.00645436 -0.00618888 -0.00587832 -0.00551974 -0.00511314 -0.00465851 -0.00416583 -0.00364505 -0.00309616 -0.00251918 -0.00193496 -0.00136438 -0.000807427 -0.00026411 0.000242864 0.000690786 0.00107965 0.00140947 0.00166677 0.0018381 0.00192346 0.00192284 0.00183878 0.00167379 0.00142788 0.00110105 0.000710846 0.000274842 -0.000206965 -0.000734577 -0.00128293 -0.00182698 -0.00236671 -0.00290213 -0.00341061 -0.00386952 -0.00427888 -0.00463867 -0.00493627 -0.00515905 -0.00530702 -0.00538017 -0.00537869 -0.00530274 -0.00515235 -0.00492749 -0.00464084 -0.00430505 -0.00392011 -0.00348604 -0.00302804 -0.00257133 -0.00211592 -0.00166179 -0.00124141 -0.000887226 -0.000599229 -0.000377422 -0.0002123 -9.43555e-05 -2.35889e-05 0 0 -6.77101e-06 -2.7084e-05 -6.09391e-05 -0.000108336 -0.000181436 -0.000292399 -0.000441225 -0.000627914 -0.000850771 -0.0011081 -0.00139991 -0.00172619 -0.00208169 -0.00246118 -0.00286466 -0.00329212 -0.00373853 -0.00419887 -0.00467314 -0.00516132 -0.0056571 -0.00615413 -0.00665241 -0.00715193 -0.00764441 -0.00812155 -0.00858335 -0.00902981 -0.0094525 -0.00984302 -0.0102013 -0.0105275 -0.0108163 -0.0110627 -0.0112666 -0.011428 -0.0115479 -0.0116273 -0.011666 -0.0116642 -0.0116289 -0.0115675 -0.0114798 -0.0113659 -0.0112361 -0.0111008 -0.0109598 -0.0108133 -0.0106695 -0.0105365 -0.0104145 -0.0103033 -0.010204 -0.0101177 -0.0100444 -0.00998405 -0.0099281 -0.00986801 -0.0098038 -0.00973545 -0.00964734 -0.00952385 -0.00936498 -0.00917072 -0.00892642 -0.0086174 -0.00824365 -0.00780519 -0.00729901 -0.00672209 -0.00607444 -0.00535606 -0.00458252 -0.00376939 -0.00291666 -0.00202434 -0.00112353 -0.000245318 0.000610283 0.00144328 0.00222015 0.00290737 0.00350495 0.00401288 0.00441124 0.00468007 0.00481939 0.00482919 0.00471287 0.00447383 0.00411205 0.00362756 0.00304576 0.00239207 0.00166651 0.000869063 3.63168e-05 -0.000795145 -0.00162532 -0.00245422 -0.00324853 -0.00397499 -0.00463358 -0.0052243 -0.00572826 -0.00612658 -0.00641924 -0.00660625 -0.00668723 -0.0066618 -0.00652996 -0.0062917 -0.00596435 -0.00556522 -0.0050943 -0.0045516 -0.00397119 -0.00338715 -0.00279948 -0.00220819 -0.00165728 -0.00119078 -0.000808681 -0.000510986 -0.00028743 -0.000127747 -3.19366e-05 0 0 -9.76854e-06 -3.90742e-05 -8.79168e-05 -0.000156297 -0.000258987 -0.00041076 -0.000611616 -0.000861556 -0.0011571 -0.00149478 -0.00187459 -0.00229652 -0.0027534 -0.00323802 -0.00375039 -0.00429051 -0.00485172 -0.00542736 -0.00601744 -0.00662196 -0.00723304 -0.0078428 -0.00845125 -0.00905839 -0.00965444 -0.0102296 -0.0107839 -0.0113174 -0.0118205 -0.0122838 -0.0127072 -0.0130909 -0.0134296 -0.0137179 -0.013956 -0.0141437 -0.0142832 -0.0143764 -0.0144233 -0.014424 -0.0143873 -0.0143223 -0.0142291 -0.0141076 -0.0139697 -0.0138275 -0.0136809 -0.0135299 -0.0133831 -0.013249 -0.0131277 -0.013019 -0.0129221 -0.0128362 -0.0127611 -0.0126969 -0.0126307 -0.0125494 -0.012453 -0.0123416 -0.0121936 -0.0119877 -0.0117237 -0.0114018 -0.0110027 -0.0105073 -0.00991563 -0.00922764 -0.00844092 -0.00755305 -0.00656403 -0.00547384 -0.00430601 -0.00308404 -0.00180792 -0.000477662 0.000861827 0.00216564 0.00343376 0.00466621 0.0058151 0.00683255 0.00771856 0.00847314 0.00906773 0.00947383 0.00969141 0.0097205 0.00956544 0.00923062 0.00871603 0.00802168 0.0071831 0.0062358 0.0051798 0.00401509 0.00279329 0.00156604 0.000333334 -0.000904832 -0.00210104 -0.00320787 -0.00422531 -0.00515338 -0.00596469 -0.00663183 -0.00715481 -0.00753364 -0.00776682 -0.00785286 -0.00779176 -0.00758353 -0.00725094 -0.0068168 -0.00628109 -0.00564382 -0.00494946 -0.0042425 -0.00352293 -0.00279075 -0.00210352 -0.0015188 -0.00103659 -0.000656888 -0.000369499 -0.000164222 -4.10555e-05 0 0 -1.34539e-05 -5.38157e-05 -0.000121085 -0.000215263 -0.000353527 -0.00055306 -0.000813859 -0.00113593 -0.00151296 -0.00193865 -0.00241301 -0.00293604 -0.00349799 -0.00408913 -0.00470945 -0.00535897 -0.00602913 -0.00671137 -0.00740571 -0.00811214 -0.00882139 -0.00952421 -0.0102206 -0.0109105 -0.0115834 -0.0122287 -0.0128462 -0.0134361 -0.0139889 -0.0144952 -0.0149549 -0.015368 -0.0157303 -0.0160377 -0.0162902 -0.0164877 -0.0166341 -0.0167331 -0.0167849 -0.0167893 -0.0167572 -0.0166994 -0.0166158 -0.0165065 -0.0163842 -0.0162614 -0.0161383 -0.0160148 -0.0158981 -0.0157955 -0.015707 -0.0156325 -0.0155674 -0.0155068 -0.0154508 -0.0153993 -0.015333 -0.0152326 -0.0150981 -0.0149295 -0.014698 -0.0143746 -0.0139593 -0.0134522 -0.012829 -0.0120653 -0.0111613 -0.0101168 -0.00893107 -0.0076034 -0.00613376 -0.00452215 -0.00280328 -0.00101186 0.000852092 0.00278859 0.00473408 0.00662502 0.00846141 0.0102432 0.0119036 0.0133755 0.0146591 0.0157542 0.0166209 0.0172195 0.0175498 0.0176118 0.017411 0.0169528 0.0162371 0.015264 0.0140819 0.0127393 0.0112362 0.00957259 0.00781963 0.00604854 0.00425933 0.00245198 0.000692616 -0.000952663 -0.00248386 -0.00390096 -0.00516507 -0.00623727 -0.00711756 -0.00780594 -0.00829894 -0.00859311 -0.00868843 -0.00858492 -0.00831165 -0.00789768 -0.00734303 -0.0066477 -0.00586816 -0.00506092 -0.00422596 -0.00336329 -0.00254602 -0.00184723 -0.00126693 -0.000805125 -0.000452883 -0.000201281 -5.03203e-05 0 0 -1.78271e-05 -7.13085e-05 -0.000160444 -0.000285234 -0.000465059 -0.000719298 -0.00104795 -0.00145102 -0.00191833 -0.00243972 -0.00301518 -0.00364472 -0.00431545 -0.00501449 -0.00574184 -0.0064975 -0.00727075 -0.0080509 -0.00883794 -0.00963186 -0.0104222 -0.0111983 -0.0119604 -0.0127083 -0.0134314 -0.0141187 -0.0147703 -0.0153862 -0.015958 -0.0164773 -0.0169442 -0.0173586 -0.0177186 -0.0180221 -0.0182692 -0.0184598 -0.0186004 -0.0186973 -0.0187506 -0.0187601 -0.0187386 -0.0186985 -0.0186399 -0.0185628 -0.0184795 -0.0184026 -0.0183321 -0.0182679 -0.0182144 -0.0181759 -0.0181524 -0.0181439 -0.0181399 -0.0181297 -0.0181134 -0.018091 -0.0180349 -0.0179176 -0.017739 -0.0174992 -0.0171603 -0.0166844 -0.0160717 -0.015322 -0.0144053 -0.0132915 -0.0119806 -0.0104726 -0.00876945 -0.00687314 -0.00478366 -0.00250098 -7.43239e-05 0.00244713 0.00506337 0.00777441 0.0104932 0.0131328 0.0156932 0.0181744 0.0204856 0.0225363 0.0243264 0.025856 0.0270709 0.027917 0.0283944 0.0285031 0.0282495 0.0276402 0.0266752 0.0253545 0.0237422 0.0219027 0.0198358 0.0175416 0.0151153 0.0126524 0.0101527 0.00761623 0.00513243 0.00279062 0.000590802 -0.00146703 -0.00332941 -0.00494289 -0.00630747 -0.00742314 -0.00828361 -0.00888255 -0.00921998 -0.00929588 -0.00914645 -0.00880787 -0.00828013 -0.00756323 -0.00672728 -0.00584241 -0.00490859 -0.00392584 -0.00298479 -0.00217608 -0.00149972 -0.000955698 -0.00053758 -0.000238924 -5.97311e-05 0 0 -2.28882e-05 -9.15528e-05 -0.000205994 -0.000366211 -0.00059358 -0.000909474 -0.00131389 -0.00180684 -0.00237323 -0.00299798 -0.0036811 -0.00442258 -0.00520579 -0.00601411 -0.00684755 -0.00770609 -0.0085766 -0.00944595 -0.0103141 -0.0111811 -0.0120354 -0.0128652 -0.0136707 -0.0144518 -0.0151982 -0.0158996 -0.016556 -0.0171674 -0.0177275 -0.0182301 -0.0186753 -0.0190629 -0.0193944 -0.0196711 -0.0198931 -0.0200602 -0.0201823 -0.020269 -0.0203204 -0.0203365 -0.0203316 -0.0203199 -0.0203015 -0.0202763 -0.0202557 -0.020251 -0.0202622 -0.0202893 -0.020332 -0.0203902 -0.0204639 -0.0205531 -0.0206395 -0.0207048 -0.020749 -0.0207721 -0.0207365 -0.0206043 -0.0203757 -0.0200506 -0.0195806 -0.0189174 -0.0180608 -0.0170111 -0.0157315 -0.0141857 -0.0123735 -0.0102951 -0.00795606 -0.00536227 -0.0025137 0.000589655 0.00388085 0.00729294 0.0108259 0.0144798 0.0181393 0.0216891 0.0251292 0.0284596 0.0315612 0.0343149 0.0367207 0.0387786 0.0404175 0.0415665 0.0422254 0.0423944 0.042081 0.041293 0.0400304 0.0382932 0.0361641 0.0337258 0.0309785 0.027922 0.0246804 0.0213775 0.0180133 0.0145879 0.0112184 0.00802198 0.00499866 0.00214841 -0.000457715 -0.0027487 -0.00472455 -0.00638526 -0.00772081 -0.00872119 -0.00938639 -0.00971641 -0.00975537 -0.00954735 -0.00909237 -0.00839041 -0.00752683 -0.00658696 -0.00557081 -0.00447837 -0.00341983 -0.00250535 -0.00173494 -0.00110861 -0.000623591 -0.000277151 -6.92879e-05 0 0 -2.85189e-05 -0.000114076 -0.00025667 -0.000456302 -0.000735925 -0.00111849 -0.001604 -0.00219246 -0.00286257 -0.00359307 -0.00438395 -0.00523521 -0.00612563 -0.00703399 -0.00796028 -0.00890451 -0.00985073 -0.010783 -0.0117014 -0.0126058 -0.0134839 -0.0143233 -0.0151241 -0.0158861 -0.0166009 -0.0172596 -0.0178623 -0.018409 -0.0188975 -0.0193256 -0.0196932 -0.0200004 -0.0202538 -0.0204601 -0.0206192 -0.0207312 -0.0208104 -0.0208711 -0.0209132 -0.0209369 -0.0209579 -0.0209923 -0.0210399 -0.0211009 -0.0211837 -0.0212969 -0.0214406 -0.0216147 -0.021812 -0.022025 -0.0222538 -0.0224983 -0.0227297 -0.0229192 -0.0230667 -0.0231723 -0.0231854 -0.0230557 -0.0227831 -0.0223677 -0.0217485 -0.0208648 -0.0197165 -0.0183037 -0.0165826 -0.0145098 -0.0120853 -0.0093089 -0.00619196 -0.00274565 0.00103005 0.00513513 0.00948054 0.0139772 0.0186252 0.0234245 0.0282255 0.0328787 0.0373841 0.0417418 0.0457988 0.0494023 0.0525523 0.0552489 0.057401 0.0589179 0.0597994 0.0600456 0.0596655 0.0586677 0.0570525 0.0548197 0.0520735 0.0489181 0.0453535 0.0413797 0.0371541 0.0328344 0.0284206 0.0239125 0.0194608 0.015216 0.0111779 0.00734671 0.00381487 0.00067498 -0.00207296 -0.00442895 -0.00637795 -0.00790493 -0.00900988 -0.00969279 -0.0100066 -0.0100042 -0.00968559 -0.00905078 -0.00820226 -0.00724251 -0.00617154 -0.00498934 -0.00382771 -0.00281841 -0.00196146 -0.00125686 -0.000706985 -0.000314215 -7.85539e-05 0 0 -3.4601e-05 -0.000138404 -0.000311409 -0.000553615 -0.000888929 -0.00134125 -0.00191059 -0.00259694 -0.00337128 -0.00420461 -0.00509693 -0.00604823 -0.00703159 -0.00802009 -0.00901373 -0.0100125 -0.0109972 -0.0119487 -0.0128668 -0.0137517 -0.0145907 -0.0153711 -0.016093 -0.0167564 -0.017356 -0.0178865 -0.0183479 -0.0187403 -0.019068 -0.0193357 -0.0195433 -0.0196907 -0.0197928 -0.0198643 -0.0199051 -0.0199153 -0.0199155 -0.0199263 -0.0199477 -0.0199796 -0.0200394 -0.0201445 -0.0202947 -0.02049 -0.0207342 -0.0210305 -0.0213792 -0.0217801 -0.0222153 -0.0226666 -0.0231341 -0.0236177 -0.0240742 -0.0244603 -0.024776 -0.0250212 -0.0251295 -0.0250345 -0.0247361 -0.0242344 -0.0234536 -0.0223183 -0.0208284 -0.0189839 -0.0167334 -0.0140258 -0.0108609 -0.00723877 -0.00317825 0.00130186 0.00620154 0.0115208 0.0171431 0.0229517 0.0289467 0.0351281 0.0413051 0.0472867 0.0530729 0.0586638 0.0638669 0.0684895 0.0725318 0.0759938 0.0787615 0.0807213 0.081873 0.0822168 0.0817627 0.0805209 0.0784912 0.0756737 0.0721968 0.068189 0.0636501 0.0585802 0.0531759 0.0476337 0.0419536 0.0361357 0.0303701 0.0248471 0.0195669 0.0145292 0.00985319 0.00565784 0.00194315 -0.00129088 -0.00402244 -0.00622969 -0.00791265 -0.0090713 -0.00976834 -0.0100664 -0.00996562 -0.00946586 -0.00868903 -0.00775697 -0.00666969 -0.00542718 -0.00418499 -0.00309864 -0.00216814 -0.00139348 -0.000783831 -0.000348369 -8.70923e-05 0 0 -4.11344e-05 -0.000164538 -0.00037021 -0.000658151 -0.00105259 -0.00157776 -0.00223366 -0.00302028 -0.00389936 -0.00483261 -0.00582003 -0.00686162 -0.00792366 -0.00897242 -0.0100079 -0.0110301 -0.0120161 -0.0129428 -0.0138104 -0.0146188 -0.0153557 -0.0160086 -0.0165776 -0.0170626 -0.0174636 -0.0177804 -0.0180129 -0.0181611 -0.018239 -0.0182604 -0.0182254 -0.0181338 -0.0180114 -0.0178837 -0.0177507 -0.0176125 -0.0174976 -0.0174347 -0.0174237 -0.0174647 -0.0175762 -0.0177765 -0.0180657 -0.0184439 -0.0189072 -0.0194519 -0.020078 -0.0207855 -0.021542 -0.0223152 -0.023105 -0.0239114 -0.024673 -0.025328 -0.0258767 -0.0263188 -0.0265687 -0.0265407 -0.0262346 -0.0256506 -0.0246959 -0.0232779 -0.0213965 -0.0190517 -0.0161839 -0.0127335 -0.00870043 -0.00408467 0.0010851 0.00678025 0.0130008 0.0197467 0.0268684 0.0342163 0.0417904 0.0495908 0.057378 0.064913 0.0721955 0.0792257 0.0857655 0.0915767 0.0966592 0.101013 0.104499 0.106977 0.108446 0.108908 0.108373 0.106852 0.104347 0.100855 0.096534 0.0915383 0.0858682 0.0795237 0.0727457 0.0657753 0.0586125 0.0512573 0.0439461 0.0369155 0.0301654 0.0236959 0.0176572 0.0121999 0.00732378 0.00302894 -0.000654266 -0.00369548 -0.00609471 -0.00785194 -0.0090406 -0.00973411 -0.00993246 -0.00963565 -0.00898713 -0.00813033 -0.00706525 -0.0057919 -0.00449168 -0.00334604 -0.00235496 -0.00151845 -0.000854129 -0.000379613 -9.49032e-05 0 0 -4.81193e-05 -0.000192477 -0.000433074 -0.000769909 -0.00122691 -0.00182801 -0.0025732 -0.00346249 -0.0044468 -0.00547705 -0.00655325 -0.0076754 -0.00880186 -0.00989099 -0.0109428 -0.0119573 -0.0129072 -0.0137656 -0.0145322 -0.0152072 -0.0157789 -0.0162358 -0.0165778 -0.0168048 -0.0169237 -0.0169412 -0.0168571 -0.0166715 -0.0164105 -0.0160998 -0.0157395 -0.0153297 -0.0149096 -0.0145183 -0.014156 -0.0138227 -0.0135566 -0.0133962 -0.0133414 -0.0133922 -0.0135681 -0.0138884 -0.0143531 -0.0149624 -0.0157027 -0.0165609 -0.0175369 -0.0186307 -0.019792 -0.0209706 -0.0221663 -0.0233793 -0.0245259 -0.0255224 -0.0263688 -0.0270651 -0.0275031 -0.0275743 -0.0272787 -0.0266164 -0.0254754 -0.0237435 -0.0214207 -0.0185072 -0.0149341 -0.010633 -0.00560387 0.00015339 0.00659807 0.0136895 0.0214278 0.0298127 0.0386565 0.047771 0.0571563 0.0668124 0.0764444 0.0857576 0.094752 0.103428 0.111495 0.118664 0.124935 0.130307 0.134613 0.137684 0.139519 0.140119 0.139496 0.137662 0.134618 0.130364 0.125085 0.118966 0.112008 0.10421 0.0958636 0.0872593 0.0783972 0.0692774 0.060189 0.051421 0.0429736 0.0348468 0.027227 0.0203011 0.0140689 0.00853053 0.00372657 -0.000302294 -0.00355605 -0.00603471 -0.00782338 -0.00900718 -0.00958611 -0.00956016 -0.00909658 -0.00836261 -0.00735824 -0.00608348 -0.00474778 -0.0035606 -0.00252193 -0.00163178 -0.000917879 -0.000407946 -0.000101987 0 0 -5.53458e-05 -0.000221383 -0.000498112 -0.000885533 -0.00140637 -0.00208336 -0.00291648 -0.00390576 -0.00498955 -0.00610624 -0.00725583 -0.00843832 -0.00960274 -0.0106981 -0.0117245 -0.0126818 -0.013538 -0.0142611 -0.0148511 -0.015308 -0.0156216 -0.0157819 -0.0157888 -0.0156424 -0.0153587 -0.0149536 -0.0144272 -0.0137794 -0.0130522 -0.0122872 -0.0114844 -0.010644 -0.00982248 -0.00907667 -0.00840654 -0.00781209 -0.00734369 -0.00705171 -0.00693615 -0.00699701 -0.00725435 -0.00772823 -0.00841866 -0.00932563 -0.0104233 -0.0116856 -0.0131127 -0.0147046 -0.0163883 -0.0180907 -0.019812 -0.0215521 -0.0232004 -0.0246461 -0.0258893 -0.0269299 -0.0276332 -0.0278643 -0.0276231 -0.0269096 -0.0255902 -0.0235309 -0.0207317 -0.0171927 -0.0128361 -0.00758401 -0.00143652 0.0056064 0.0134889 0.0221553 0.0316055 0.0418395 0.0526245 0.0637275 0.0751486 0.0868878 0.0985876 0.109891 0.120797 0.131307 0.141074 0.149753 0.157344 0.163847 0.169063 0.172792 0.175035 0.175791 0.175075 0.172901 0.169267 0.164174 0.157839 0.150479 0.142093 0.132681 0.122588 0.112159 0.101394 0.0902917 0.0792013 0.0684705 0.0580993 0.0480878 0.0386645 0.0300581 0.0222685 0.0152957 0.00919332 0.00401478 -0.000239899 -0.00357072 -0.00607521 -0.0078509 -0.00889779 -0.00921588 -0.0089985 -0.00843897 -0.00753731 -0.00629352 -0.00494726 -0.00373824 -0.00266645 -0.00173189 -0.000974188 -0.000432973 -0.000108243 0 0 -6.26042e-05 -0.000250417 -0.000563438 -0.00100167 -0.00158546 -0.00233515 -0.00325076 -0.00433227 -0.00550355 -0.00668845 -0.00788698 -0.00909913 -0.0102629 -0.0113161 -0.012259 -0.0130914 -0.0137755 -0.0142737 -0.014586 -0.0147123 -0.0146449 -0.0143762 -0.0139062 -0.0132348 -0.0123907 -0.0114023 -0.0102696 -0.00899265 -0.00763395 -0.00625596 -0.0048587 -0.00344215 -0.0020853 -0.000867106 0.000212422 0.00115329 0.00189023 0.00235798 0.00255655 0.00248593 0.00212578 0.00145578 0.000475903 -0.000813834 -0.00237122 -0.00415404 -0.0061623 -0.008396 -0.0107536 -0.0131335 -0.0155359 -0.0179605 -0.0202638 -0.022302 -0.024075 -0.025583 -0.0266598 -0.0271396 -0.0270223 -0.026308 -0.0248385 -0.0224558 -0.0191599 -0.0149508 -0.00974178 -0.00344607 0.0039363 0.0124053 0.021886 0.0323032 0.0436571 0.0559475 0.0688893 0.0821972 0.0958714 0.109912 0.123891 0.137383 0.150386 0.162902 0.174524 0.184848 0.193875 0.201604 0.207805 0.212249 0.214936 0.215867 0.215055 0.212517 0.208251 0.202258 0.194786 0.186082 0.176146 0.164978 0.152979 0.140549 0.127688 0.114396 0.101086 0.0881706 0.0756503 0.063525 0.0520716 0.0415674 0.0320123 0.0234064 0.0158193 0.00932066 0.00391053 -0.000411092 -0.00375464 -0.00623053 -0.00783875 -0.00857932 -0.00867402 -0.00834462 -0.00759115 -0.00641358 -0.0050841 -0.00387487 -0.0027859 -0.00181718 -0.00102216 -0.000454295 -0.000113574 0 0 -6.98946e-05 -0.000279578 -0.000629051 -0.00111831 -0.00176416 -0.0025834 -0.00357602 -0.00474203 -0.0059888 -0.00722369 -0.0084467 -0.00965783 -0.0107822 -0.0117451 -0.0125463 -0.013186 -0.0136198 -0.0138034 -0.0137368 -0.0134201 -0.0128488 -0.0120187 -0.0109298 -0.00958204 -0.00801977 -0.00628721 -0.00438435 -0.00231121 -0.000155806 0.00199382 0.00413767 0.00627575 0.00830199 0.0101104 0.0117008 0.0130734 0.0141451 0.0148329 0.0151367 0.0150566 0.0145723 0.0136636 0.0123305 0.010573 0.00845338 0.00603384 0.00331444 0.000295168 -0.00288797 -0.00609897 -0.00933782 -0.0126045 -0.0157162 -0.0184901 -0.0209261 -0.0230242 -0.0245828 -0.0254002 -0.0254764 -0.0248114 -0.0232203 -0.0205183 -0.0167054 -0.0117815 -0.00565125 0.00178078 0.0105146 0.0205502 0.0317892 0.0441333 0.0575824 0.0721366 0.0874509 0.10318 0.119325 0.135884 0.152355 0.168233 0.183519 0.198211 0.211844 0.223949 0.234527 0.243577 0.25084 0.256055 0.259224 0.260345 0.259435 0.256511 0.251571 0.244617 0.235926 0.225777 0.214169 0.201102 0.187036 0.172428 0.157279 0.14159 0.125842 0.110521 0.0956266 0.0811583 0.0674484 0.0548291 0.0433005 0.0328626 0.0236044 0.0156153 0.00889525 0.00344418 -0.000861655 -0.00414604 -0.00640899 -0.00765048 -0.00812314 -0.00807956 -0.00751973 -0.00644367 -0.00515829 -0.00397049 -0.00288028 -0.00188766 -0.00106181 -0.000471914 -0.000117979 0 0 -7.72168e-05 -0.000308867 -0.000694951 -0.00123547 -0.00194249 -0.0028281 -0.00389228 -0.00513504 -0.00644529 -0.00771194 -0.00893499 -0.0101144 -0.0111609 -0.0119849 -0.0125866 -0.0129658 -0.0130709 -0.0128502 -0.0123037 -0.0114314 -0.0102332 -0.00870932 -0.0068596 -0.00468408 -0.00224596 0.000391582 0.00322853 0.0062649 0.00938226 0.0124622 0.0155047 0.0185097 0.0213394 0.0238557 0.0260587 0.0279483 0.0294209 0.0303729 0.0308043 0.030715 0.0300853 0.0288954 0.0271453 0.024835 0.0220505 0.018878 0.0153175 0.0113689 0.00720859 0.00301299 -0.00121792 -0.00548413 -0.00955762 -0.0132104 -0.0164424 -0.0192537 -0.0214023 -0.0226462 -0.0229854 -0.02242 -0.0207356 -0.0177183 -0.013368 -0.00768471 -0.00056449 0.00809654 0.0182984 0.030041 0.0431987 0.0576455 0.0733816 0.0904069 0.108309 0.126677 0.145509 0.164806 0.18398 0.202443 0.220195 0.237237 0.253034 0.267055 0.279299 0.289767 0.298167 0.304211 0.307897 0.309226 0.308215 0.304882 0.299227 0.29125 0.281259 0.269562 0.25616 0.241052 0.224758 0.207797 0.190169 0.171873 0.153471 0.135523 0.118028 0.100988 0.0847947 0.0698432 0.056133 0.0436642 0.0325488 0.0228988 0.0147142 0.0079951 0.00260374 -0.00159746 -0.00460849 -0.00642937 -0.00734586 -0.00764377 -0.00732308 -0.0063838 -0.00516983 -0.0040251 -0.00294959 -0.00194332 -0.00109312 -0.00048583 -0.000121457 0 0 -8.43355e-05 -0.000337342 -0.000759019 -0.00134937 -0.00211431 -0.00305975 -0.0041857 -0.00549216 -0.00684743 -0.0081198 -0.00930926 -0.0104158 -0.0113335 -0.0119563 -0.0122842 -0.0123173 -0.0119954 -0.0112585 -0.0101066 -0.00853967 -