<?xml version="1.0"?> 
<VTKFile type="StructuredGrid" version="0.1"> 
<StructuredGrid WholeExtent="0 128 0 128 0 0"> 
<Piece Extent="0 128 0 128 0 0"> 
<PointData>
<DataArray type="Float32" Name="u" format="ascii" NumberOfComponents="1"> 
0 0 0 0 0 0 0 0 0 0 0 0 0 0 0 0 0 0 0 0 0 0 0 0 0 0 0 0 0 0 0 0 0 0 0 0 0 0 0 0 0 0 0 0 0 0 0 0 0 0 0 0 0 0 0 0 0 0 0 0 0 0 0 0 0 0 0 0 0 0 0 0 0 0 0 0 0 0 0 0 0 0 0 0 0 0 0 0 0 0 0 0 0 0 0 0 0 0 0 0 0 0 0 0 0 0 0 0 0 0 0 0 0 0 0 0 0 0 0 0 0 0 0 0 0 0 0 0 0 0 -5.85616e-08 -2.34247e-07 -5.27055e-07 -9.36986e-07 -1.67406e-06 -2.94831e-06 -4.75972e-06 -7.1083e-06 -9.9993e-06 -1.34379e-05 -1.74242e-05 -2.19582e-05 -2.69639e-05 -3.23654e-05 -3.81628e-05 -4.4356e-05 -5.08714e-05 -5.7635e-05 -6.46469e-05 -7.19072e-05 -7.93182e-05 -8.67822e-05 -9.42992e-05 -0.000101869 -0.000109361 -0.000116644 -0.000123717 -0.000130582 -0.000137101 -0.000143139 -0.000148697 -0.000153774 -0.000158282 -0.000162131 -0.000165321 -0.000167853 -0.000169727 -0.000170945 -0.000171506 -0.000171409 -0.000170756 -0.000169643 -0.000168071 -0.000166041 -0.000163714 -0.000161251 -0.000158653 -0.00015592 -0.000153208 -0.000150674 -0.000148318 -0.00014614 -0.000144216 -0.000142622 -0.000141357 -0.000140423 -0.000139764 -0.000139325 -0.000139107 -0.00013911 -0.000139157 -0.000139074 -0.000138858 -0.000138512 -0.000137824 -0.000136582 -0.000134788 -0.000132441 -0.000129433 -0.000125657 -0.000121112 -0.000115799 -0.000109824 -0.000103291 -9.62011e-05 -8.85546e-05 -8.06655e-05 -7.2848e-05 -6.51023e-05 -5.74282e-05 -5.02042e-05 -4.38087e-05 -3.82415e-05 -3.35028e-05 -2.98288e-05 -2.74559e-05 -2.63841e-05 -2.66134e-05 -2.80994e-05 -3.0798e-05 -3.47092e-05 -3.98328e-05 -4.58581e-05 -5.24741e-05 -5.96808e-05 -6.74782e-05 -7.54383e-05 -8.31334e-05 -9.05633e-05 -9.77281e-05 -0.00010427 -0.000109832 -0.000114414 -0.000118015 -0.000120472 -0.000121618 -0.000121455 -0.000119982 -0.000117251 -0.000113314 -0.000108171 -0.000101823 -9.45166e-05 -8.65022e-05 -7.77792e-05 -6.83478e-05 -5.86773e-05 -4.92372e-05 -4.00273e-05 -3.10478e-05 -2.28752e-05 -1.60863e-05 -1.06811e-05 -6.65952e-06 -3.74598e-06 -1.66488e-06 -4.1622e-07 0 0 -2.34247e-07 -9.36986e-07 -2.10822e-06 -3.74794e-06 -6.69625e-06 -1.17932e-05 -1.90389e-05 -2.84332e-05 -3.99972e-05 -5.37518e-05 -6.96969e-05 -8.78327e-05 -0.000107856 -0.000129462 -0.000152651 -0.000177424 -0.000203485 -0.00023054 -0.000258588 -0.000287629 -0.000317273 -0.000347129 -0.000377197 -0.000407477 -0.000437445 -0.000466576 -0.00049487 -0.000522326 -0.000548403 -0.000572557 -0.000594788 -0.000615097 -0.000633127 -0.000648523 -0.000661285 -0.000671412 -0.000678909 -0.000683779 -0.000686022 -0.000685638 -0.000683022 -0.000678571 -0.000672285 -0.000664164 -0.000654855 -0.000645004 -0.000634613 -0.00062368 -0.000612833 -0.000602697 -0.000593273 -0.00058456 -0.000576864 -0.000570486 -0.000565429 -0.000561691 -0.000559054 -0.0005573 -0.000556429 -0.00055644 -0.00055663 -0.000556294 -0.000555434 -0.000554048 -0.000551294 -0.000546329 -0.000539152 -0.000529764 -0.000517733 -0.000502629 -0.00048445 -0.000463197 -0.000439294 -0.000413163 -0.000384805 -0.000354218 -0.000322662 -0.000291392 -0.000260409 -0.000229713 -0.000200817 -0.000175235 -0.000152966 -0.000134011 -0.000119315 -0.000109824 -0.000105536 -0.000106453 -0.000112398 -0.000123192 -0.000138837 -0.000159331 -0.000183432 -0.000209896 -0.000238723 -0.000269913 -0.000301753 -0.000332534 -0.000362253 -0.000390912 -0.000417081 -0.000439328 -0.000457655 -0.000472061 -0.000481887 -0.000486473 -0.00048582 -0.000479928 -0.000469004 -0.000453257 -0.000432686 -0.000407291 -0.000378067 -0.000346009 -0.000311117 -0.000273391 -0.000234709 -0.000196949 -0.000160109 -0.000124191 -9.15009e-05 -6.43454e-05 -4.27244e-05 -2.66381e-05 -1.49839e-05 -6.65952e-06 -1.66488e-06 0 0 -5.27055e-07 -2.10822e-06 -4.74349e-06 -8.43288e-06 -1.50666e-05 -2.65348e-05 -4.28375e-05 -6.39747e-05 -8.99937e-05 -0.000120941 -0.000156818 -0.000197624 -0.000242675 -0.000291289 -0.000343465 -0.000399204 -0.000457842 -0.000518715 -0.000581823 -0.000647165 -0.000713863 -0.000781039 -0.000848693 -0.000916824 -0.000984251 -0.0010498 -0.00111346 -0.00117523 -0.00123391 -0.00128825 -0.00133827 -0.00138397 -0.00142453 -0.00145918 -0.00148789 -0.00151068 -0.00152755 -0.0015385 -0.00154355 -0.00154268 -0.0015368 -0.00152679 -0.00151264 -0.00149437 -0.00147342 -0.00145126 -0.00142788 -0.00140328 -0.00137887 -0.00135607 -0.00133486 -0.00131526 -0.00129794 -0.00128359 -0.00127221 -0.0012638 -0.00125787 -0.00125393 -0.00125196 -0.00125199 -0.00125242 -0.00125166 -0.00124973 -0.00124661 -0.00124041 -0.00122924 -0.00121309 -0.00119197 -0.0011649 -0.00113091 -0.00109001 -0.00104219 -0.000988412 -0.000929617 -0.00086581 -0.000796991 -0.000725989 -0.000655632 -0.000585921 -0.000516854 -0.000451838 -0.000394278 -0.000344174 -0.000301525 -0.000268459 -0.000247103 -0.000237457 -0.00023952 -0.000252895 -0.000277182 -0.000312382 -0.000358495 -0.000412723 -0.000472267 -0.000537127 -0.000607303 -0.000678945 -0.000748201 -0.00081507 -0.000879553 -0.000938432 -0.000988489 -0.00102972 -0.00106214 -0.00108424 -0.00109456 -0.0010931 -0.00107984 -0.00105526 -0.00101983 -0.000973543 -0.000916404 -0.00085065 -0.00077852 -0.000700013 -0.00061513 -0.000528096 -0.000443134 -0.000360246 -0.00027943 -0.000205877 -0.000144777 -9.61299e-05 -5.99356e-05 -3.37138e-05 -1.49839e-05 -3.74598e-06 0 0 -9.36986e-07 -3.74794e-06 -8.43288e-06 -1.49918e-05 -2.6785e-05 -4.71729e-05 -7.61556e-05 -0.000113733 -0.000159989 -0.000215007 -0.000278788 -0.000351331 -0.000431422 -0.000517847 -0.000610605 -0.000709697 -0.000813942 -0.00092216 -0.00103435 -0.00115052 -0.00126909 -0.00138851 -0.00150879 -0.00162991 -0.00174978 -0.0018663 -0.00197948 -0.0020893 -0.00219361 -0.00229023 -0.00237915 -0.00246039 -0.00253251 -0.00259409 -0.00264514 -0.00268565 -0.00271564 -0.00273512 -0.00274409 -0.00274255 -0.00273209 -0.00271429 -0.00268914 -0.00265666 -0.00261942 -0.00258002 -0.00253845 -0.00249472 -0.00245133 -0.00241079 -0.00237309 -0.00233824 -0.00230745 -0.00228195 -0.00226172 -0.00224676 -0.00223622 -0.0022292 -0.00222572 -0.00222576 -0.00222652 -0.00222518 -0.00222174 -0.00221619 -0.00220518 -0.00218532 -0.00215661 -0.00211906 -0.00207093 -0.00201051 -0.0019378 -0.00185279 -0.00175718 -0.00165265 -0.00153922 -0.00141687 -0.00129065 -0.00116557 -0.00104164 -0.000918852 -0.000803268 -0.000700939 -0.000611864 -0.000536045 -0.000477261 -0.000439295 -0.000422146 -0.000425814 -0.000449591 -0.000492769 -0.000555347 -0.000637325 -0.00073373 -0.000839585 -0.000954892 -0.00107965 -0.00120701 -0.00133013 -0.00144901 -0.00156365 -0.00166832 -0.00175731 -0.00183062 -0.00188824 -0.00192755 -0.00194589 -0.00194328 -0.00191971 -0.00187602 -0.00181303 -0.00173074 -0.00162916 -0.00151227 -0.00138403 -0.00124447 -0.00109357 -0.000938837 -0.000787794 -0.000640437 -0.000496764 -0.000366004 -0.000257381 -0.000170898 -0.000106552 -5.99356e-05 -2.66381e-05 -6.65952e-06 0 0 -1.69818e-06 -6.79273e-06 -1.52836e-05 -2.71709e-05 -4.76161e-05 -8.17809e-05 -0.000129665 -0.000191269 -0.000266523 -0.000355357 -0.000457771 -0.000573766 -0.000701361 -0.000838575 -0.00098541 -0.00114186 -0.00130603 -0.00147601 -0.00165179 -0.00183339 -0.00201834 -0.0022042 -0.00239097 -0.00257866 -0.00276405 -0.00294393 -0.00311831 -0.00328719 -0.00344732 -0.00359544 -0.00373156 -0.00385567 -0.00396573 -0.00405967 -0.00413749 -0.0041992 -0.00424492 -0.0042748 -0.00428884 -0.00428704 -0.00427188 -0.00424584 -0.00420891 -0.00416109 -0.00410631 -0.00404847 -0.00398757 -0.00392361 -0.00386026 -0.0038012 -0.00374643 -0.00369593 -0.00365131 -0.00361416 -0.00358448 -0.00356225 -0.0035458 -0.00353343 -0.00352514 -0.00352093 -0.00351612 -0.00350602 -0.00349064 -0.00346997 -0.00343862 -0.00339121 -0.00332771 -0.00324815 -0.00315 -0.00303074 -0.00289038 -0.00272892 -0.00254959 -0.0023556 -0.00214697 -0.00192368 -0.0016945 -0.00146817 -0.00124469 -0.00102406 -0.000816656 -0.00063285 -0.00047264 -0.000336028 -0.000229489 -0.0001595 -0.000126061 -0.000129171 -0.00016771 -0.000240553 -0.000347701 -0.000489154 -0.000656551 -0.000841531 -0.00104409 -0.00126424 -0.00149036 -0.00171084 -0.00192569 -0.0021349 -0.00232867 -0.00249717 -0.00264042 -0.0027584 -0.00284644 -0.00289989 -0.00291873 -0.00290296 -0.00285376 -0.00277229 -0.00265855 -0.00251254 -0.00234067 -0.00214934 -0.00193855 -0.0017083 -0.0014706 -0.00123744 -0.00100883 -0.000784758 -0.000580025 -0.000409419 -0.000272938 -0.000170583 -9.5953e-05 -4.26458e-05 -1.06614e-05 0 0 -3.04479e-06 -1.21791e-05 -2.74031e-05 -4.87166e-05 -8.33245e-05 -0.000138432 -0.000214038 -0.000310144 -0.000426136 -0.000561399 -0.000715933 -0.00088974 -0.00107975 -0.00128291 -0.00149922 -0.00172867 -0.00196837 -0.0022154 -0.00246977 -0.00273148 -0.00299699 -0.00326274 -0.00352874 -0.00379499 -0.00405706 -0.00431051 -0.00455533 -0.00479154 -0.00501482 -0.00522084 -0.00540962 -0.00558115 -0.0057329 -0.00586232 -0.00596941 -0.00605418 -0.00611713 -0.00615874 -0.00617902 -0.00617797 -0.00615918 -0.0061262 -0.00607906 -0.00601775 -0.00594756 -0.0058738 -0.00579646 -0.00571555 -0.00563573 -0.00556166 -0.00549333 -0.00543076 -0.00537544 -0.00532887 -0.00529104 -0.00526196 -0.00523835 -0.00521693 -0.00519771 -0.00518068 -0.00515839 -0.00512336 -0.0050756 -0.0050151 -0.00493379 -0.00482356 -0.00468442 -0.00451637 -0.00431625 -0.0040809 -0.00381033 -0.00350454 -0.00316965 -0.0028118 -0.002431 -0.00202724 -0.0016154 -0.00121039 -0.0008122 -0.000420829 -5.35514e-05 0.000272357 0.000556897 0.000800068 0.00099109 0.00111918 0.00118434 0.00118657 0.00112753 0.00100886 0.000830583 0.000592685 0.000308715 -7.78148e-06 -0.000356803 -0.000738351 -0.00113338 -0.00152283 -0.00190671 -0.00228502 -0.00264139 -0.00295944 -0.00323918 -0.00348061 -0.00367559 -0.00381598 -0.00390179 -0.00393301 -0.00391099 -0.00383707 -0.00371125 -0.00353352 -0.00331361 -0.0030612 -0.00277631 -0.00245894 -0.00212704 -0.00179858 -0.00147356 -0.00115198 -0.000856087 -0.000608148 -0.000408161 -0.000256124 -0.00014407 -6.40309e-05 -1.60077e-05 0 0 -4.9768e-06 -1.99072e-05 -4.47912e-05 -7.96287e-05 -0.00013391 -0.000217126 -0.000329275 -0.000470359 -0.000638828 -0.000833133 -0.00105327 -0.00129925 -0.0015666 -0.00185086 -0.00215204 -0.00247012 -0.00280094 -0.00314033 -0.00348828 -0.0038448 -0.00420504 -0.00456413 -0.00492209 -0.00527892 -0.00562882 -0.00596603 -0.00629055 -0.00660236 -0.00689612 -0.00716645 -0.00741335 -0.00763682 -0.00783401 -0.00800204 -0.00814091 -0.00825062 -0.00833226 -0.00838693 -0.00841462 -0.00841534 -0.00839397 -0.00835539 -0.00829961 -0.00822662 -0.00814318 -0.00805602 -0.00796514 -0.00787055 -0.00777773 -0.00769215 -0.00761382 -0.00754273 -0.00747983 -0.00742606 -0.00738141 -0.00734588 -0.00731385 -0.0072797 -0.00724342 -0.00720502 -0.00715333 -0.0070772 -0.00697662 -0.0068516 -0.00669067 -0.00648238 -0.00622673 -0.00592371 -0.00556969 -0.005161 -0.00469765 -0.00417963 -0.00361736 -0.00302125 -0.00239131 -0.00172753 -0.00105336 -0.000392245 0.000255823 0.000890839 0.00148605 0.00201468 0.00247675 0.00287224 0.00318447 0.00339675 0.00350906 0.00352141 0.00343612 0.00325548 0.00297951 0.00260819 0.00216207 0.00166166 0.00110698 0.000498011 -0.00013607 -0.000766097 -0.00139207 -0.002014 -0.00260647 -0.00314411 -0.00362692 -0.00405488 -0.00441497 -0.00469417 -0.00489246 -0.00500985 -0.00504769 -0.00500735 -0.00488882 -0.0046921 -0.00443108 -0.00411964 -0.00375777 -0.00334548 -0.00290817 -0.00247122 -0.00203463 -0.00159842 -0.00119419 -0.000853571 -0.000576567 -0.000363174 -0.000204285 -9.07935e-05 -2.26984e-05 0 0 -7.49421e-06 -2.99769e-05 -6.74479e-05 -0.000119907 -0.000199373 -0.000317863 -0.000475376 -0.000671913 -0.000904599 -0.00117056 -0.00146979 -0.0018023 -0.00216191 -0.00254243 -0.00294386 -0.00336621 -0.00380376 -0.0042508 -0.00470733 -0.00517335 -0.00564249 -0.00610838 -0.00657103 -0.00703043 -0.00747934 -0.00791051 -0.00832395 -0.00871965 -0.00909121 -0.00943224 -0.00974273 -0.0100227 -0.0102691 -0.0104788 -0.010652 -0.0107885 -0.0108903 -0.0109594 -0.0109956 -0.0109991 -0.0109763 -0.0109334 -0.0108705 -0.0107877 -0.0106932 -0.0105951 -0.0104936 -0.0103886 -0.0102863 -0.0101927 -0.0101079 -0.0100318 -0.00996449 -0.00990574 -0.00985558 -0.00981402 -0.00977231 -0.00972173 -0.00966227 -0.00959394 -0.00950095 -0.00936754 -0.00919371 -0.00897945 -0.00870926 -0.00836766 -0.00795463 -0.00747019 -0.00691032 -0.00627104 -0.00555233 -0.0047542 -0.00389271 -0.00298395 -0.0020279 -0.00102457 -8.37727e-06 0.000986275 0.00195938 0.00291094 0.00380213 0.00459412 0.00528691 0.0058805 0.00635066 0.0066732 0.00684809 0.00687535 0.00675806 0.0064993 0.00609907 0.00555736 0.00490351 0.0041668 0.00334725 0.00244485 0.00150156 0.000559354 -0.000381777 -0.00132183 -0.00222393 -0.00305119 -0.00380362 -0.00448121 -0.00506461 -0.00553445 -0.00589074 -0.00613348 -0.00626387 -0.00628313 -0.00619127 -0.00598828 -0.00569309 -0.00532464 -0.00488292 -0.00436793 -0.00381398 -0.00325535 -0.00269205 -0.00212408 -0.00159433 -0.00114569 -0.000778155 -0.000491734 -0.0002766 -0.000122933 -3.07333e-05 0 0 -1.06269e-05 -4.25076e-05 -9.56422e-05 -0.000170031 -0.000280236 -0.00044082 -0.000651784 -0.000913128 -0.00121996 -0.00156737 -0.00195538 -0.00238397 -0.0028448 -0.00332953 -0.00383814 -0.00437065 -0.00491952 -0.00547721 -0.00604374 -0.0066191 -0.00719536 -0.0077646 -0.00832681 -0.00888199 -0.00942171 -0.00993752 -0.0104294 -0.0108974 -0.0113346 -0.0117342 -0.0120961 -0.0124203 -0.0127043 -0.0129456 -0.0131441 -0.0132999 -0.0134162 -0.0134963 -0.0135401 -0.0135477 -0.0135271 -0.0134862 -0.0134251 -0.0133437 -0.0132513 -0.0131573 -0.0130616 -0.0129643 -0.0128712 -0.0127881 -0.0127151 -0.0126522 -0.0125971 -0.0125475 -0.0125033 -0.0124647 -0.0124184 -0.0123513 -0.0122634 -0.0121548 -0.0120037 -0.0117887 -0.0115097 -0.0111667 -0.0107395 -0.010208 -0.00957206 -0.00883175 -0.00798326 -0.00702281 -0.00595039 -0.00476601 -0.00349363 -0.00215721 -0.000756754 0.000707733 0.00218731 0.00363304 0.00504492 0.00642295 0.00771259 0.00885934 0.00986319 0.0107241 0.0114082 0.0118815 0.0121439 0.0121955 0.0120402 0.0116819 0.0111207 0.0103564 0.00942966 0.00838071 0.0072096 0.00591631 0.00455922 0.00319667 0.00182865 0.000455184 -0.000871906 -0.00210077 -0.00323142 -0.00426385 -0.0051702 -0.00592262 -0.0065211 -0.00696565 -0.00725687 -0.00739535 -0.0073811 -0.00721412 -0.00691924 -0.0065213 -0.00602028 -0.0054162 -0.00475377 -0.00407772 -0.00338802 -0.0026847 -0.00202382 -0.00146144 -0.00099757 -0.000632211 -0.000355619 -0.000158053 -3.95132e-05 0 0 -1.44048e-05 -5.76191e-05 -0.000129643 -0.000230476 -0.00037702 -0.000586177 -0.000857945 -0.00119232 -0.0015814 -0.00201726 -0.00249991 -0.00302933 -0.00359443 -0.00418411 -0.00479835 -0.00543717 -0.00609092 -0.00674999 -0.00741436 -0.00808404 -0.00874967 -0.00940188 -0.0100407 -0.0106661 -0.011269 -0.0118406 -0.0123809 -0.0128897 -0.0133609 -0.0137882 -0.0141716 -0.0145111 -0.0148059 -0.0150551 -0.0152588 -0.0154169 -0.0155348 -0.0156178 -0.0156661 -0.0156795 -0.0156676 -0.0156399 -0.0155965 -0.0155372 -0.0154716 -0.0154088 -0.0153491 -0.0152923 -0.0152424 -0.0152034 -0.0151753 -0.0151581 -0.0151454 -0.0151309 -0.0151145 -0.0150962 -0.0150568 -0.0149767 -0.0148561 -0.0146948 -0.0144641 -0.0141349 -0.0137074 -0.0131814 -0.0125314 -0.011732 -0.0107829 -0.00968435 -0.00843363 -0.00702813 -0.00546787 -0.00375284 -0.00191801 1.65789e-06 0.00200615 0.00409548 0.00620147 0.00825593 0.0102589 0.0122103 0.0140353 0.015659 0.0170814 0.0183025 0.0192757 0.0199545 0.0203389 0.0204289 0.0202293 0.0197449 0.0189756 0.0179216 0.0166371 0.0151765 0.0135396 0.0117266 0.0098166 0.00788898 0.0059437 0.00398076 0.00207145 0.000287042 -0.00137245 -0.00290704 -0.00427745 -0.00544444 -0.00640799 -0.00716812 -0.00772403 -0.00807493 -0.00822082 -0.0081617 -0.00792914 -0.00755471 -0.0070384 -0.00638022 -0.00563687 -0.00486505 -0.00406477 -0.00323601 -0.00244995 -0.00177777 -0.00121946 -0.000775014 -0.000435945 -0.000193753 -4.84383e-05 0 0 -1.88278e-05 -7.53111e-05 -0.00016945 -0.000301245 -0.000489728 -0.000753932 -0.00109386 -0.0015095 -0.00198894 -0.00252023 -0.00310338 -0.00373838 -0.00441079 -0.00510616 -0.00582449 -0.00656576 -0.00731798 -0.00806912 -0.00881919 -0.00956817 -0.0103054 -0.0110202 -0.0117126 -0.0123826 -0.0130213 -0.0136199 -0.0141783 -0.0146965 -0.01517 -0.0155943 -0.0159694 -0.0162953 -0.016574 -0.0168076 -0.0169961 -0.0171395 -0.0172461 -0.0173241 -0.0173735 -0.0173944 -0.0173978 -0.0173945 -0.0173847 -0.0173683 -0.0173538 -0.0173497 -0.0173559 -0.0173724 -0.0173998 -0.0174384 -0.0174883 -0.0175494 -0.0176094 -0.0176559 -0.017689 -0.0177087 -0.0176875 -0.017598 -0.0174402 -0.0172141 -0.016882 -0.0164062 -0.0157867 -0.0150235 -0.014085 -0.0129396 -0.0115872 -0.010028 -0.00826142 -0.006287 -0.00410476 -0.00171468 0.000834147 0.00349265 0.00626082 0.00913867 0.0120341 0.0148549 0.0176012 0.020273 0.0227703 0.0249931 0.0269415 0.0286155 0.0299531 0.0308923 0.0314331 0.0315755 0.0313253 0.0306882 0.0296641 0.028253 0.026526 0.0245541 0.0223373 0.0198756 0.0172737 0.0146363 0.0119634 0.0092549 0.00660613 0.00411226 0.00177329 -0.000410769 -0.00238636 -0.00409991 -0.00555142 -0.00674089 -0.00766536 -0.00832187 -0.00871042 -0.00883101 -0.00872278 -0.00842487 -0.00793727 -0.00725999 -0.00646327 -0.00561737 -0.00472228 -0.00377801 -0.00287275 -0.00209468 -0.00144381 -0.000920142 -0.00051758 -0.000230035 -5.75089e-05 0 0 -2.3896e-05 -9.55838e-05 -0.000215064 -0.000382335 -0.000618357 -0.000944086 -0.00135952 -0.00186467 -0.00244257 -0.00307628 -0.0037658 -0.00451113 -0.00529389 -0.00609569 -0.00691654 -0.00775644 -0.00860069 -0.00943462 -0.0102582 -0.0110715 -0.0118626 -0.0126197 -0.0133427 -0.0140317 -0.0146786 -0.0152752 -0.0158216 -0.0163177 -0.016762 -0.0171525 -0.0174894 -0.0177727 -0.0180084 -0.0182028 -0.0183559 -0.0184677 -0.0185501 -0.018615 -0.0186625 -0.0186925 -0.0187175 -0.01875 -0.0187898 -0.018837 -0.0188981 -0.0189798 -0.0190821 -0.0192049 -0.0193435 -0.0194932 -0.0196541 -0.0198261 -0.019989 -0.0201226 -0.0202269 -0.020302 -0.0203104 -0.020215 -0.0200158 -0.0197126 -0.0192576 -0.0186027 -0.0177478 -0.0166931 -0.0154002 -0.0138308 -0.011985 -0.0098627 -0.00746663 -0.00479942 -0.00186105 0.00134847 0.00476283 0.00831576 0.0120073 0.0158373 0.0196852 0.0234301 0.027072 0.0306111 0.0339175 0.0368616 0.0394435 0.0416632 0.0434403 0.0446948 0.0454265 0.0456355 0.0453284 0.0445119 0.0431859 0.0413504 0.0390961 0.0365135 0.0336026 0.0303634 0.0269305 0.0234386 0.0198876 0.0162776 0.0127321 0.00937487 0.00620581 0.00322495 0.00050307 -0.00188904 -0.00395138 -0.00568395 -0.00708085 -0.00813616 -0.0088499 -0.00922206 -0.00930017 -0.00913178 -0.00871689 -0.0080555 -0.00723296 -0.00633465 -0.00536056 -0.0043107 -0.00329219 -0.00241217 -0.00167064 -0.0010676 -0.000600522 -0.000266899 -6.67247e-05 0 0 -2.94832e-05 -0.000117933 -0.000265349 -0.000471731 -0.000759555 -0.0011513 -0.00164696 -0.00224654 -0.00292685 -0.0036647 -0.00446011 -0.00531307 -0.00620043 -0.00709906 -0.00800895 -0.00893012 -0.00984481 -0.0107353 -0.0116015 -0.0124436 -0.0132487 -0.014004 -0.0147097 -0.0153657 -0.0159658 -0.0165039 -0.0169799 -0.0173939 -0.0177489 -0.0180478 -0.0182908 -0.0184777 -0.0186208 -0.0187325 -0.0188126 -0.0188613 -0.0188953 -0.0189315 -0.01897 -0.0190108 -0.0190674 -0.0191537 -0.0192695 -0.0194149 -0.019593 -0.0198067 -0.0200561 -0.0203411 -0.0206494 -0.0209684 -0.0212981 -0.0216385 -0.0219588 -0.0222281 -0.0224464 -0.0226138 -0.0226805 -0.0225971 -0.0223633 -0.0219794 -0.0213851 -0.0205203 -0.0193849 -0.0179791 -0.0162571 -0.0141735 -0.0117282 -0.00892118 -0.00575978 -0.00225125 0.00160443 0.00580725 0.0102696 0.0149038 0.0197098 0.0246877 0.0296824 0.0345386 0.0392564 0.0438357 0.048112 0.0519206 0.0552616 0.0581349 0.0604392 0.0620729 0.0630362 0.0633289 0.0629587 0.0619331 0.0602521 0.0579157 0.0550369 0.0517286 0.0479907 0.0438232 0.0393957 0.0348776 0.0302689 0.0255696 0.0209371 0.0165288 0.0123448 0.00838494 0.00474112 0.00150511 -0.00132308 -0.00374345 -0.00574594 -0.00732049 -0.0084671 -0.00918577 -0.00953333 -0.00956659 -0.00928558 -0.00869028 -0.00788301 -0.00696608 -0.0059395 -0.00480326 -0.00368541 -0.00271401 -0.00188906 -0.00121056 -0.000680939 -0.00030264 -7.56599e-05 0 0 -3.54634e-05 -0.000141853 -0.00031917 -0.000567414 -0.000909971 -0.00137023 -0.00194818 -0.00264384 -0.00342634 -0.00426481 -0.00515926 -0.00610969 -0.00708713 -0.00806262 -0.00903616 -0.0100078 -0.0109561 -0.0118599 -0.0127192 -0.013534 -0.0142911 -0.0149773 -0.0155926 -0.0161371 -0.0166081 -0.0170032 -0.0173223 -0.0175654 -0.0177429 -0.0178653 -0.0179326 -0.0179447 -0.0179228 -0.017888 -0.0178404 -0.01778 -0.0177303 -0.0177147 -0.0177334 -0.0177862 -0.0178879 -0.0180531 -0.0182818 -0.018574 -0.0189269 -0.0193377 -0.0198063 -0.0203329 -0.0208935 -0.0214643 -0.0220454 -0.0226368 -0.0231933 -0.0236696 -0.0240658 -0.0243818 -0.0245526 -0.0245132 -0.0242634 -0.0238035 -0.0230588 -0.0219551 -0.0204923 -0.0186704 -0.0164359 -0.0137354 -0.0105688 -0.00693618 -0.00285139 0.00167162 0.00663285 0.0120323 0.0177559 0.0236894 0.0298329 0.0361864 0.0425534 0.0487377 0.0547393 0.0605581 0.0659888 0.070826 0.0750698 0.07872 0.0816512 0.0837375 0.0849791 0.0853759 0.0849364 0.0836691 0.0815738 0.0786506 0.0750376 0.0708729 0.0661564 0.0608882 0.0552778 0.0495349 0.0436596 0.0376517 0.0317087 0.0260281 0.0206099 0.015454 0.0106781 0.00639947 0.00261828 -0.000665529 -0.00343608 -0.00567753 -0.00738986 -0.00857309 -0.00929426 -0.00962045 -0.00955165 -0.00908786 -0.00835046 -0.00746083 -0.00641896 -0.00522486 -0.00402954 -0.00298399 -0.00208821 -0.00134222 -0.000754997 -0.000335554 -8.38885e-05 0 0 -4.18365e-05 -0.000167346 -0.000376528 -0.000669384 -0.0010696 -0.00160087 -0.0022632 -0.00305658 -0.00394104 -0.00487659 -0.00586324 -0.006901 -0.007954 -0.00898639 -0.00999817 -0.0109893 -0.0119346 -0.0128086 -0.0136113 -0.0143428 -0.0149899 -0.0155394 -0.0159914 -0.0163458 -0.0166055 -0.0167731 -0.0168486 -0.0168321 -0.0167441 -0.016605 -0.0164148 -0.0161736 -0.0159142 -0.0156695 -0.0154394 -0.0152239 -0.015055 -0.0149645 -0.0149524 -0.0150188 -0.0151789 -0.0154481 -0.0158265 -0.0163141 -0.0168999 -0.0175728 -0.0183328 -0.01918 -0.0200757 -0.0209811 -0.0218963 -0.0228212 -0.0236925 -0.0244471 -0.025085 -0.025606 -0.0259266 -0.0259633 -0.0257161 -0.0251848 -0.0242788 -0.0229072 -0.02107 -0.0187671 -0.0159367 -0.0125166 -0.00850697 -0.00390771 0.00125854 0.00696919 0.0132242 0.0200237 0.0272217 0.0346727 0.0423765 0.0503331 0.0582983 0.0660275 0.0735209 0.0807783 0.087548 0.0935779 0.098868 0.103418 0.107076 0.109689 0.111255 0.111777 0.111262 0.10972 0.107151 0.103555 0.0990983 0.0939466 0.0880999 0.0815583 0.0745769 0.0674106 0.0600596 0.0525238 0.0450469 0.0378727 0.0310011 0.0244322 0.0183139 0.012794 0.00787269 0.00354981 -0.000151275 -0.00320728 -0.00561819 -0.00738401 -0.00858298 -0.00929335 -0.0095151 -0.00924823 -0.00863532 -0.00781889 -0.00679896 -0.00557552 -0.00432457 -0.00322209 -0.00226809 -0.00146257 -0.000822695 -0.000365642 -9.14105e-05 0 0 -4.86025e-05 -0.00019441 -0.000437423 -0.000777641 -0.00123845 -0.00184324 -0.00259201 -0.00348475 -0.00447095 -0.00550005 -0.00657207 -0.007687 -0.00880103 -0.00987035 -0.010895 -0.0118749 -0.0127802 -0.0135812 -0.0142777 -0.0148699 -0.015345 -0.0156903 -0.015906 -0.0159919 -0.0159578 -0.0158135 -0.0155589 -0.0151941 -0.0147523 -0.0142668 -0.0137375 -0.0131645 -0.0125952 -0.0120768 -0.0116094 -0.011193 -0.0108696 -0.010681 -0.0106273 -0.0107085 -0.0109404 -0.0113389 -0.0119038 -0.0126354 -0.0135119 -0.014512 -0.0156356 -0.0168827 -0.0181961 -0.0195187 -0.0208505 -0.0221914 -0.0234565 -0.0245607 -0.025504 -0.0262864 -0.0268026 -0.0269476 -0.0267212 -0.0261235 -0.025045 -0.0233765 -0.0211179 -0.0182692 -0.0147593 -0.0105171 -0.00554259 0.000164228 0.00657002 0.0136415 0.0213786 0.0297813 0.0386671 0.0478536 0.0573405 0.0671281 0.076917 0.086408 0.0956011 0.104496 0.112789 0.120176 0.126656 0.13223 0.136715 0.139926 0.141865 0.142531 0.141934 0.140085 0.136983 0.132629 0.127219 0.12095 0.113821 0.105834 0.0972928 0.0885046 0.079469 0.0701859 0.0609517 0.0520626 0.0435185 0.0353195 0.0276486 0.0206888 0.0144402 0.00890258 0.00410849 9.02717e-05 -0.00315207 -0.00561854 -0.00739949 -0.00858528 -0.00917592 -0.00917141 -0.00873758 -0.00804027 -0.00707949 -0.00585523 -0.0045705 -0.00342833 -0.0024287 -0.00157161 -0.000884033 -0.000392904 -9.82259e-05 0 0 -5.55609e-05 -0.000222244 -0.000500048 -0.000888975 -0.00141123 -0.00208904 -0.00292238 -0.00391127 -0.00499297 -0.00610474 -0.00724658 -0.00841849 -0.00956734 -0.01064 -0.0116365 -0.0125567 -0.0133658 -0.0140285 -0.014545 -0.0149152 -0.0151276 -0.0151707 -0.0150445 -0.014749 -0.0143033 -0.0137265 -0.0130185 -0.0121796 -0.0112592 -0.0103073 -0.00932386 -0.00830881 -0.00732783 -0.00644656 -0.00566501 -0.00498318 -0.00445536 -0.00413587 -0.00402469 -0.00412183 -0.0044432 -0.00500471 -0.00580636 -0.00684815 -0.00809501 -0.00951187 -0.0110987 -0.0128556 -0.0147021 -0.016558 -0.0184232 -0.0202977 -0.02207 -0.0236285 -0.0249731 -0.026104 -0.0268905 -0.0272021 -0.0270387 -0.0264005 -0.0251571 -0.0231785 -0.0204647 -0.0170156 -0.0127509 -0.00759021 -0.00153352 0.00541917 0.0132208 0.0218244 0.03123 0.0414375 0.0522215 0.0633565 0.0748426 0.0866798 0.0985071 0.109964 0.12105 0.131765 0.141748 0.150639 0.158437 0.165142 0.17054 0.174414 0.176766 0.177596 0.176913 0.17473 0.171046 0.16586 0.159403 0.151902 0.143357 0.133768 0.123497 0.112902 0.101985 0.0907448 0.0795364 0.0687147 0.0582797 0.0482314 0.0387934 0.0301892 0.0224189 0.0154825 0.00942387 0.0042869 7.16097e-05 -0.00322201 -0.00569713 -0.00745691 -0.00850134 -0.00883044 -0.00863548 -0.00810777 -0.00724731 -0.00605409 -0.00476023 -0.00359783 -0.00256691 -0.00166745 -0.00093794 -0.000416862 -0.000104216 0 0 -6.2511e-05 -0.000250044 -0.000562599 -0.00100018 -0.00158267 -0.00232998 -0.0032421 -0.00431904 -0.00548401 -0.0066602 -0.00784763 -0.0090463 -0.0101921 -0.0112208 -0.0121326 -0.0129273 -0.0135639 -0.0140014 -0.0142396 -0.0142787 -0.014109 -0.0137212 -0.0131151 -0.0122908 -0.0112798 -0.0101138 -0.0087927 -0.00731657 -0.0057564 -0.00418321 -0.002597 -0.000997766 0.000525757 0.00188485 0.00307951 0.00410974 0.00490607 0.00539902 0.00558859 0.0054748 0.00504207 0.00427487 0.00317319 0.00173704 1.88214e-05 -0.00192906 -0.00410659 -0.00651378 -0.00904131 -0.0115799 -0.0141294 -0.01669 -0.0191177 -0.0212686 -0.0231426 -0.0247399 -0.0259 -0.0264629 -0.0264285 -0.0257968 -0.0244146 -0.0221286 -0.0189388 -0.0148453 -0.00975854 -0.00358932 0.0036624 0.0119966 0.0213487 0.031654 0.0429126 0.0551244 0.068014 0.0813059 0.0950002 0.109097 0.123166 0.13678 0.149936 0.162637 0.17446 0.184985 0.194212 0.202141 0.208525 0.213118 0.215919 0.216928 0.216158 0.213619 0.209312 0.203236 0.195653 0.186822 0.176743 0.165417 0.15326 0.140689 0.127705 0.114307 0.100914 0.0879463 0.0754026 0.0632834 0.0518592 0.0414005 0.0319072 0.0233793 0.0158755 0.00945441 0.00411597 -0.000139793 -0.00342927 -0.00586886 -0.00745857 -0.00819838 -0.00830727 -0.0080042 -0.00728919 -0.00616222 -0.00488663 -0.00372576 -0.00267961 -0.00174817 -0.000983344 -0.000437042 -0.00010926 0 0 -6.94528e-05 -0.000277811 -0.000625075 -0.00111124 -0.00175276 -0.00256607 -0.00355117 -0.00470807 -0.00594406 -0.00716644 -0.00837523 -0.00957041 -0.0106752 -0.0116128 -0.0123833 -0.0129866 -0.0133747 -0.0134997 -0.0133615 -0.0129603 -0.0122892 -0.0113416 -0.0101176 -0.00861717 -0.00688741 -0.00497548 -0.00288139 -0.000605141 0.00175622 0.00410562 0.00644308 0.00876858 0.0109656 0.0129174 0.0146241 0.0160857 0.0172147 0.0179237 0.0182126 0.0180814 0.0175154 0.0164999 0.0150348 0.0131202 0.0108296 0.00823647 0.00534089 0.00214282 -0.0012136 -0.00458429 -0.00796922 -0.0113684 -0.0145997 -0.0174811 -0.0200125 -0.022194 -0.0238313 -0.0247301 -0.0248906 -0.0243126 -0.0228176 -0.0202268 -0.0165403 -0.0117582 -0.00578221 0.00148557 0.0100452 0.0198966 0.0309537 0.0431303 0.0564265 0.0708421 0.0860448 0.101702 0.117813 0.134379 0.150895 0.166855 0.182261 0.197112 0.210924 0.223214 0.233982 0.243227 0.250671 0.256036 0.259321 0.260528 0.259667 0.256752 0.251782 0.244758 0.23597 0.225711 0.213981 0.20078 0.186582 0.171866 0.156629 0.140873 0.125086 0.109757 0.0948871 0.0804756 0.0668462 0.0543227 0.042905 0.0325931 0.0234635 0.0155928 0.00898102 0.00362813 -0.000595912 -0.00382115 -0.00604759 -0.00727523 -0.00775293 -0.00772957 -0.00720513 -0.00617962 -0.00494972 -0.00381211 -0.00276679 -0.00181377 -0.00102024 -0.000453442 -0.00011336 0 0 -7.63863e-05 -0.000305545 -0.000687476 -0.00122218 -0.00192151 -0.00279731 -0.00384959 -0.00507834 -0.00637312 -0.00762346 -0.00882936 -0.00999083 -0.0110168 -0.011816 -0.0123886 -0.0127345 -0.0127981 -0.0125235 -0.0119108 -0.0109599 -0.00966803 -0.00803212 -0.00605219 -0.00372825 -0.00112611 0.00168843 0.00471538 0.00795472 0.0112786 0.0145591 0.0177964 0.0209902 0.0239916 0.0266511 0.0289688 0.0309448 0.0324706 0.0334381 0.0338472 0.0336979 0.0329768 0.0316703 0.0297785 0.0273013 0.0243373 0.0209847 0.0172437 0.0131142 0.00878098 0.00442873 5.74607e-05 -0.00433283 -0.00851603 -0.012266 -0.0155828 -0.0184664 -0.0206842 -0.0220037 -0.0224249 -0.0219477 -0.0203659 -0.0174731 -0.0132692 -0.0077543 -0.000821903 0.00763446 0.0176148 0.0291191 0.0420358 0.0562533 0.0717716 0.0885906 0.106314 0.124544 0.143282 0.162527 0.181692 0.200191 0.218024 0.235191 0.251141 0.265326 0.277746 0.2884 0.296977 0.303169 0.306975 0.308395 0.307442 0.304129 0.298456 0.290423 0.280354 0.268569 0.25507 0.239856 0.223464 0.206431 0.188757 0.170442 0.15205 0.134147 0.116733 0.0998079 0.0837544 0.0689559 0.0554123 0.0431237 0.0321877 0.0227021 0.0146667 0.00808175 0.00280295 -0.00131377 -0.00426842 -0.00606099 -0.00697248 -0.00728386 -0.00699512 -0.00610628 -0.00494949 -0.00385688 -0.00282847 -0.00186425 -0.00104864 -0.000466062 -0.000116516 0 0 -8.30851e-05 -0.00033234 -0.000747766 -0.00132936 -0.002083 -0.00301455 -0.004124 -0.00541137 -0.00674642 -0.00799889 -0.00916879 -0.0102561 -0.0111535 -0.0117535 -0.0120562 -0.0120615 -0.011705 -0.0109223 -0.00971338 -0.00807825 -0.00601891 -0.0035374