<?xml version="1.0"?> 
<VTKFile type="StructuredGrid" version="0.1"> 
<StructuredGrid WholeExtent="0 128 0 128 0 0"> 
<Piece Extent="0 128 0 128 0 0"> 
<PointData>
<DataArray type="Float32" Name="u" format="ascii" NumberOfComponents="1"> 
0 0 0 0 0 0 0 0 0 0 0 0 0 0 0 0 0 0 0 0 0 0 0 0 0 0 0 0 0 0 0 0 0 0 0 0 0 0 0 0 0 0 0 0 0 0 0 0 0 0 0 0 0 0 0 0 0 0 0 0 0 0 0 0 0 0 0 0 0 0 0 0 0 0 0 0 0 0 0 0 0 0 0 0 0 0 0 0 0 0 0 0 0 0 0 0 0 0 0 0 0 0 0 0 0 0 0 0 0 0 0 0 0 0 0 0 0 0 0 0 0 0 0 0 0 0 0 0 0 0 2.31896e-07 9.27583e-07 2.08706e-06 3.71033e-06 5.69581e-06 7.94192e-06 1.04487e-05 1.3216e-05 1.58746e-05 1.8055e-05 1.97572e-05 2.09812e-05 2.16455e-05 2.16689e-05 2.10513e-05 1.97927e-05 1.79663e-05 1.56451e-05 1.28293e-05 9.51867e-06 5.82273e-06 1.85081e-06 -2.39709e-06 -6.92096e-06 -1.16165e-05 -1.63795e-05 -2.121e-05 -2.61078e-05 -3.09474e-05 -3.5603e-05 -4.00746e-05 -4.43622e-05 -4.82926e-05 -5.16925e-05 -5.45619e-05 -5.69008e-05 -5.85555e-05 -5.93723e-05 -5.93512e-05 -5.84922e-05 -5.68185e-05 -5.43533e-05 -5.10967e-05 -4.70486e-05 -4.25154e-05 -3.78034e-05 -3.29127e-05 -2.78432e-05 -2.30847e-05 -1.91266e-05 -1.59692e-05 -1.36123e-05 -1.2447e-05 -1.28641e-05 -1.48639e-05 -1.84462e-05 -2.36763e-05 -3.06195e-05 -3.92759e-05 -4.96454e-05 -6.15197e-05 -7.46907e-05 -8.91584e-05 -0.000104923 -0.000121768 -0.000139477 -0.00015805 -0.000177488 -0.00019771 -0.00021864 -0.000240275 -0.000262617 -0.00028553 -0.00030888 -0.000332666 -0.000356889 -0.000381053 -0.000404663 -0.000427719 -0.000450221 -0.00047136 -0.000490325 -0.000507116 -0.000521735 -0.000533561 -0.000541975 -0.000546976 -0.000548566 -0.000546805 -0.000541756 -0.000533418 -0.000521791 -0.000507564 -0.000491422 -0.000473365 -0.000453395 -0.000432274 -0.000410764 -0.000388865 -0.000366578 -0.000344276 -0.000322336 -0.000300758 -0.00027954 -0.000258711 -0.000238298 -0.000218301 -0.00019872 -0.000179585 -0.000160927 -0.000142745 -0.000125039 -0.000108038 -9.19706e-05 -7.68362e-05 -6.26352e-05 -4.96812e-05 -3.82883e-05 -2.84565e-05 -2.01857e-05 -1.34691e-05 -8.29968e-06 -4.67752e-06 -2.6026e-06 -1.46396e-06 -6.5065e-07 -1.62663e-07 0 0 9.27583e-07 3.71033e-06 8.34825e-06 1.48413e-05 2.27833e-05 3.17677e-05 4.17947e-05 5.28641e-05 6.34985e-05 7.222e-05 7.90287e-05 8.39246e-05 8.65821e-05 8.66757e-05 8.42053e-05 7.91709e-05 7.18652e-05 6.25805e-05 5.1317e-05 3.80747e-05 2.32909e-05 7.40325e-06 -9.58834e-06 -2.76838e-05 -4.64662e-05 -6.55182e-05 -8.48399e-05 -0.000104431 -0.00012379 -0.000142412 -0.000160298 -0.000177449 -0.00019317 -0.00020677 -0.000218248 -0.000227603 -0.000234222 -0.000237489 -0.000237405 -0.000233969 -0.000227274 -0.000217413 -0.000204387 -0.000188194 -0.000170062 -0.000151214 -0.000131651 -0.000111373 -9.23386e-05 -7.65066e-05 -6.38767e-05 -5.44492e-05 -4.97878e-05 -5.14566e-05 -5.94556e-05 -7.37847e-05 -9.47051e-05 -0.000122478 -0.000157104 -0.000198581 -0.000246079 -0.000298763 -0.000356634 -0.000419691 -0.00048707 -0.000557906 -0.0006322 -0.00070995 -0.000790842 -0.000874558 -0.0009611 -0.00105047 -0.00114212 -0.00123552 -0.00133066 -0.00142756 -0.00152421 -0.00161865 -0.00171088 -0.00180089 -0.00188544 -0.0019613 -0.00202847 -0.00208694 -0.00213424 -0.0021679 -0.00218791 -0.00219426 -0.00218722 -0.00216702 -0.00213367 -0.00208717 -0.00203025 -0.00196569 -0.00189346 -0.00181358 -0.0017291 -0.00164306 -0.00155546 -0.00146631 -0.00137711 -0.00128935 -0.00120303 -0.00111816 -0.00103484 -0.000953191 -0.000873203 -0.00079488 -0.000718341 -0.000643708 -0.00057098 -0.000500157 -0.000432153 -0.000367883 -0.000307345 -0.000250541 -0.000198725 -0.000153153 -0.000113826 -8.07429e-05 -5.38763e-05 -3.31987e-05 -1.87101e-05 -1.04104e-05 -5.85585e-06 -2.6026e-06 -6.5065e-07 0 0 2.08706e-06 8.34825e-06 1.87836e-05 3.3393e-05 5.12623e-05 7.14773e-05 9.4038e-05 0.000118944 0.000142872 0.000162495 0.000177815 0.00018883 0.00019481 0.00019502 0.000189462 0.000178135 0.000161697 0.000140806 0.000115463 8.5668e-05 5.24046e-05 1.66573e-05 -2.15738e-05 -6.22887e-05 -0.000104549 -0.000147416 -0.00019089 -0.00023497 -0.000278527 -0.000320427 -0.000360671 -0.00039926 -0.000434634 -0.000465233 -0.000491057 -0.000512107 -0.000526999 -0.000534351 -0.000534161 -0.00052643 -0.000511366 -0.00048918 -0.00045987 -0.000423437 -0.000382639 -0.000340231 -0.000296214 -0.000250589 -0.000207762 -0.00017214 -0.000143723 -0.000122511 -0.000112023 -0.000115777 -0.000133775 -0.000166016 -0.000213087 -0.000275576 -0.000353483 -0.000446808 -0.000553678 -0.000672217 -0.000802426 -0.000944305 -0.00109591 -0.00125529 -0.00142245 -0.00159739 -0.00177939 -0.00196776 -0.00216247 -0.00236355 -0.00256977 -0.00277992 -0.00299399 -0.003212 -0.00342948 -0.00364197 -0.00384947 -0.00405199 -0.00424224 -0.00441292 -0.00456405 -0.00469561 -0.00480205 -0.00487777 -0.00492279 -0.00493709 -0.00492125 -0.0048758 -0.00480076 -0.00469612 -0.00456807 -0.00442279 -0.00426029 -0.00408056 -0.00389047 -0.00369687 -0.00349979 -0.0032992 -0.00309849 -0.00290103 -0.00270682 -0.00251586 -0.0023284 -0.00214468 -0.00196471 -0.00178848 -0.00161627 -0.00144834 -0.0012847 -0.00112535 -0.000972345 -0.000827736 -0.000691526 -0.000563716 -0.000447131 -0.000344595 -0.000256109 -0.000181671 -0.000121222 -7.46971e-05 -4.20977e-05 -2.34234e-05 -1.31757e-05 -5.85585e-06 -1.46396e-06 0 0 3.71033e-06 1.48413e-05 3.3393e-05 5.93653e-05 9.1133e-05 0.000127071 0.000167179 0.000211457 0.000253994 0.00028888 0.000316115 0.000335698 0.000346329 0.000346703 0.000336821 0.000316684 0.000287461 0.000250322 0.000205268 0.000152299 9.31637e-05 2.9613e-05 -3.83534e-05 -0.000110735 -0.000185865 -0.000262073 -0.00033936 -0.000417725 -0.000495158 -0.000569648 -0.000641194 -0.000709796 -0.000772682 -0.00082708 -0.000872991 -0.000910413 -0.000936888 -0.000949957 -0.000949619 -0.000935875 -0.000909096 -0.000869653 -0.000817547 -0.000752778 -0.000680246 -0.000604855 -0.000526603 -0.000445492 -0.000369355 -0.000306026 -0.000255507 -0.000217797 -0.000199151 -0.000205826 -0.000237822 -0.000295139 -0.000378821 -0.000489912 -0.000628414 -0.000794326 -0.000984316 -0.00119505 -0.00142653 -0.00167876 -0.00194828 -0.00223163 -0.0025288 -0.0028398 -0.00316337 -0.00349823 -0.0038444 -0.00420187 -0.00456848 -0.00494207 -0.00532265 -0.00571022 -0.00609685 -0.00647461 -0.00684351 -0.00720354 -0.00754175 -0.00784519 -0.00811386 -0.00834776 -0.00853697 -0.00867159 -0.00875162 -0.00877706 -0.00874889 -0.0086681 -0.00853469 -0.00834866 -0.00812102 -0.00786274 -0.00757385 -0.00725433 -0.00691638 -0.00657222 -0.00622184 -0.00586524 -0.00550842 -0.00515738 -0.00481212 -0.00447264 -0.00413937 -0.00381276 -0.00349281 -0.00317952 -0.00287337 -0.00257483 -0.00228392 -0.00200063 -0.00172861 -0.00147153 -0.00122938 -0.00100216 -0.0007949 -0.000612613 -0.000455304 -0.000322972 -0.000215505 -0.000132795 -7.48404e-05 -4.16416e-05 -2.34234e-05 -1.04104e-05 -2.6026e-06 0 0 5.61775e-06 2.2471e-05 5.05597e-05 8.9884e-05 0.000137697 0.000191252 0.000250549 0.000315588 0.000377311 0.000426659 0.000463632 0.000488232 0.000498513 0.000492535 0.000470296 0.000431798 0.00037889 0.000313423 0.000235398 0.000144814 4.44198e-05 -6.3037e-05 -0.000177556 -0.000299138 -0.000425104 -0.000552773 -0.000682146 -0.000813222 -0.000942675 -0.00106718 -0.00118673 -0.00130133 -0.00140641 -0.00149741 -0.00157432 -0.00163715 -0.00168195 -0.00170475 -0.00170557 -0.00168439 -0.00164194 -0.00157894 -0.00149537 -0.00139125 -0.0012745 -0.00115308 -0.00102697 -0.000896183 -0.00077309 -0.000670066 -0.000587111 -0.000524226 -0.000490941 -0.000496791 -0.000541773 -0.000625889 -0.000750223 -0.00091586 -0.0011228 -0.00137104 -0.0016549 -0.0019687 -0.00231243 -0.0026861 -0.00308431 -0.00350168 -0.0039382 -0.00439387 -0.00486736 -0.00535734 -0.0058638 -0.00638675 -0.00692378 -0.0074725 -0.00803292 -0.00860503 -0.00917724 -0.00973798 -0.0102872 -0.010825 -0.0113314 -0.0117865 -0.0121903 -0.0125428 -0.0128285 -0.013032 -0.0131532 -0.0131921 -0.0131503 -0.0130292 -0.0128288 -0.0125491 -0.0122073 -0.0118202 -0.0113881 -0.0109108 -0.010407 -0.00989538 -0.00937595 -0.00884871 -0.0083222 -0.00780499 -0.00729708 -0.00679845 -0.00630887 -0.00582807 -0.00535606 -0.00489283 -0.00443851 -0.00399325 -0.00355705 -0.0031299 -0.00271749 -0.0023255 -0.00195392 -0.00160277 -0.00128035 -0.000995008 -0.000746733 -0.000535526 -0.000362244 -0.000227745 -0.000132027 -7.50906e-05 -4.22384e-05 -1.87726e-05 -4.69316e-06 0 0 7.62966e-06 3.05187e-05 6.8667e-05 0.000122075 0.000186256 0.000256725 0.000333481 0.000416525 0.000493267 0.000551115 0.00059007 0.000610132 0.000608739 0.000583329 0.000533901 0.000460456 0.000365717 0.000252404 0.000120519 -2.9938e-05 -0.000194975 -0.0003706 -0.000556812 -0.000753612 -0.000956956 -0.0011628 -0.00137114 -0.00158199 -0.00179007 -0.00199012 -0.00218214 -0.00236613 -0.00253491 -0.00268131 -0.00280533 -0.00290696 -0.00298024 -0.00301918 -0.00302379 -0.00299407 -0.00293139 -0.00283713 -0.00271129 -0.00255387 -0.00237702 -0.00219289 -0.00200147 -0.00180277 -0.00161494 -0.00145616 -0.00132642 -0.00122572 -0.00116716 -0.00116386 -0.0012158 -0.001323 -0.00148561 -0.00170379 -0.00197754 -0.00230686 -0.00268234 -0.00309459 -0.00354359 -0.00402935 -0.00454413 -0.00508022 -0.00563761 -0.00621629 -0.00681599 -0.00743643 -0.0080776 -0.00873951 -0.0094212 -0.0101217 -0.0108411 -0.0115792 -0.0123216 -0.0130535 -0.0137749 -0.0144859 -0.0151586 -0.0157652 -0.0163057 -0.0167801 -0.0171661 -0.0174415 -0.0176063 -0.0176603 -0.0176057 -0.0174444 -0.0171765 -0.0168019 -0.0163449 -0.0158299 -0.0152569 -0.0146257 -0.0139624 -0.0132926 -0.0126164 -0.0119339 -0.0112551 -0.0105904 -0.00993982 -0.00930327 -0.00867801 -0.00806125 -0.00745298 -0.00685322 -0.00626058 -0.00567368 -0.00509252 -0.00451709 -0.00395551 -0.00341587 -0.00289817 -0.00240241 -0.00194181 -0.00152958 -0.00116571 -0.000850217 -0.000586956 -0.000379799 -0.000228745 -0.000133796 -7.52601e-05 -3.34489e-05 -8.36223e-06 0 0 9.74608e-06 3.89843e-05 8.77147e-05 0.000155937 0.000236809 0.000323489 0.000415975 0.000514269 0.000601862 0.000662249 0.000695428 0.000701401 0.000677006 0.000619085 0.000527636 0.000402659 0.000247941 6.72653e-05 -0.000139368 -0.000371958 -0.000625022 -0.000893076 -0.00117612 -0.00147416 -0.00178142 -0.00209215 -0.00240635 -0.00272402 -0.00303734 -0.00333847 -0.00362742 -0.0039042 -0.00415819 -0.00437879 -0.00456601 -0.00471984 -0.00483176 -0.00489324 -0.00490429 -0.0048649 -0.00477743 -0.00464423 -0.00446531 -0.00424066 -0.00398781 -0.00372429 -0.0034501 -0.00316524 -0.00289491 -0.0026643 -0.00247342 -0.00232227 -0.00222781 -0.00220703 -0.00225992 -0.00238648 -0.00258498 -0.0028537 -0.00319264 -0.00360178 -0.00406664 -0.00457271 -0.00512 -0.0057085 -0.00632774 -0.00696724 -0.00762702 -0.00830705 -0.00900925 -0.0097355 -0.0104858 -0.0112602 -0.0120608 -0.0128897 -0.0137471 -0.0146328 -0.0155298 -0.0164211 -0.0173065 -0.0181861 -0.0190232 -0.0197812 -0.02046 -0.0210597 -0.0215499 -0.0219003 -0.0221108 -0.0221816 -0.0221151 -0.0219138 -0.0215778 -0.021107 -0.0205341 -0.0198918 -0.0191802 -0.0183993 -0.0175826 -0.016764 -0.0159433 -0.0151207 -0.0143072 -0.0135137 -0.0127404 -0.0119871 -0.0112468 -0.0105123 -0.00978359 -0.00906072 -0.00833958 -0.00761612 -0.00689033 -0.00616221 -0.00544267 -0.00474264 -0.00406212 -0.0034011 -0.00277928 -0.00221632 -0.00171225 -0.00126704 -0.00088964 -0.000588958 -0.000364996 -0.000217757 -0.000122488 -5.44393e-05 -1.36098e-05 0 0 1.1967e-05 4.7868e-05 0.000107703 0.000191472 0.000289358 0.000391544 0.000498031 0.000608818 0.000703097 0.00076006 0.000779707 0.000762037 0.000703315 0.000599802 0.000451499 0.000258407 2.5563e-05 -0.000241994 -0.000544263 -0.000881245 -0.00124572 -0.00163047 -0.00203548 -0.00246077 -0.0028985 -0.00334083 -0.00378778 -0.00423933 -0.00468448 -0.00511223 -0.00552258 -0.00591553 -0.00627623 -0.00658984 -0.00685636 -0.00707578 -0.00723651 -0.00732694 -0.00734706 -0.00729689 -0.00718007 -0.00700025 -0.00675743 -0.00645161 -0.00610686 -0.00574728 -0.00537286 -0.00498361 -0.00461299 -0.0042945 -0.00402813 -0.00381388 -0.00367289 -0.0036263 -0.00367411 -0.00381632 -0.00404834 -0.0043656 -0.00476809 -0.00525581 -0.0058078 -0.00640308 -0.00704167 -0.00772356 -0.00843513 -0.00916275 -0.00990643 -0.0106662 -0.0114471 -0.0122546 -0.0130884 -0.0139487 -0.0148424 -0.0157765 -0.016751 -0.0177658 -0.0188021 -0.0198408 -0.020882 -0.0219257 -0.0229255 -0.0238347 -0.0246534 -0.0253816 -0.0259797 -0.0264082 -0.0266669 -0.026756 -0.0266784 -0.0264373 -0.0260326 -0.0254643 -0.0247747 -0.024006 -0.0231582 -0.0222313 -0.0212676 -0.0203094 -0.0193566 -0.0184093 -0.0174784 -0.0165748 -0.0156987 -0.0148499 -0.0140152 -0.0131812 -0.0123479 -0.0115153 -0.0106755 -0.00982057 -0.00895048 -0.00806524 -0.00717898 -0.00630582 -0.00544578 -0.00459884 -0.00379275 -0.00305525 -0.00238633 -0.00178601 -0.0012703 -0.000855221 -0.00054078 -0.000326975 -0.000183923 -8.17437e-05 -2.04359e-05 0 0 1.36765e-05 5.47061e-05 0.000123089 0.000218824 0.00032866 0.000439342 0.000550871 0.000663247 0.000751734 0.000791598 0.000782839 0.000725456 0.000615502 0.000449026 0.000226031 -5.34854e-05 -0.000383072 -0.000756277 -0.0011731 -0.00163355 -0.00212871 -0.0026497 -0.00319652 -0.00376915 -0.00435771 -0.0049523 -0.00555292 -0.00615956 -0.00675763 -0.00733253 -0.00788426 -0.00841281 -0.00889832 -0.00932091 -0.00968059 -0.00997735 -0.010196 -0.0103214 -0.0103535 -0.0102923 -0.0101431 -0.00991139 -0.00959704 -0.0092001 -0.00875229 -0.00828537 -0.00779933 -0.00729417 -0.00681235 -0.00639633 -0.00604609 -0.00576166 -0.0055675 -0.00548811 -0.00552349 -0.00567363 -0.00592884 -0.00627938 -0.00672526 -0.00726648 -0.00787336 -0.00851619 -0.00919498 -0.00990973 -0.0106434 -0.0113788 -0.012116 -0.0128551 -0.0136069 -0.0143826 -0.015182 -0.0160051 -0.0168679 -0.017786 -0.0187594 -0.0197882 -0.0208545 -0.0219407 -0.0230467 -0.0241725 -0.0252626 -0.0262613 -0.0271687 -0.0279848 -0.0286601 -0.0291452 -0.0294401 -0.0295448 -0.0294628 -0.0291975 -0.0287488 -0.0281169 -0.0273537 -0.0265113 -0.0255897 -0.0245889 -0.0235587 -0.0225492 -0.0215602 -0.0205918 -0.0196517 -0.0187479 -0.0178802 -0.0170488 -0.0162302 -0.0154012 -0.0145616 -0.0137116 -0.0128369 -0.0119234 -0.0109712 -0.00998028 -0.00896814 -0.00795241 -0.00693309 -0.00591017 -0.00492176 -0.00400597 -0.00316279 -0.00239224 -0.0017209 -0.0011754 -0.000755719 -0.000461869 -0.000259802 -0.000115467 -2.88668e-05 0 0 1.42588e-05 5.7035e-05 0.000128329 0.00022814 0.000339473 0.000445332 0.000545716 0.000640626 0.000702534 0.000703911 0.000644757 0.000525072 0.000341405 9.03037e-05 -0.000228232 -0.000614202 -0.00105962 -0.00155649 -0.00210482 -0.00270461 -0.00334565 -0.00401772 -0.00472084 -0.00545499 -0.00620857 -0.00697 -0.00773928 -0.00851639 -0.00928293 -0.0100205 -0.0107291 -0.0114087 -0.0120337 -0.0125784 -0.0130429 -0.0134271 -0.0137118 -0.0138777 -0.0139249 -0.0138533 -0.0136704 -0.0133838 -0.0129935 -0.0124995 -0.0119422 -0.0113621 -0.0107591 -0.0101332 -0.00953615 -0.00901936 -0.00858287 -0.0082267 -0.00797674 -0.00785889 -0.00787316 -0.00801954 -0.00827961 -0.00863493 -0.00908551 -0.00963135 -0.0102309 -0.0108425 -0.0114663 -0.0121022 -0.0127295 -0.0133274 -0.013896 -0.0144353 -0.0149659 -0.0155085 -0.016063 -0.0166294 -0.0172388 -0.017922 -0.018679 -0.0195099 -0.0204035 -0.0213487 -0.0223456 -0.0233942 -0.0244321 -0.0253971 -0.0262892 -0.0271083 -0.0277955 -0.0282914 -0.028596 -0.0287095 -0.0286353 -0.0283769 -0.0279344 -0.0273077 -0.0265581 -0.0257467 -0.0248737 -0.0239389 -0.0229973 -0.0221036 -0.021258 -0.0204604 -0.0197102 -0.0190069 -0.0183505 -0.0177409 -0.017139 -0.0165055 -0.0158406 -0.0151441 -0.0143922 -0.0135612 -0.0126509 -0.0116614 -0.0106139 -0.00952942 -0.008408 -0.00724964 -0.00610584 -0.00502811 -0.00401645 -0.00307085 -0.00223343 -0.00154629 -0.00100944 -0.000622863 -0.00035036 -0.000155716 -3.89289e-05 0 0 1.37137e-05 5.48548e-05 0.000123423 0.000219419 0.000321798 0.000409514 0.000482567 0.000540958 0.000555498 0.000496999 0.000365462 0.000160886 -0.000118975 -0.000476366 -0.000911289 -0.00142374 -0.00200407 -0.00264263 -0.00333942 -0.00409444 -0.00489652 -0.00573453 -0.00660844 -0.00751828 -0.00845109 -0.00939395 -0.0103469 -0.0113098 -0.0122604 -0.0131761 -0.0140571 -0.0149032 -0.0156824 -0.0163624 -0.0169433 -0.0174251 -0.0177839 -0.017996 -0.0180613 -0.0179799 -0.017762 -0.0174176 -0.0169469 -0.0163499 -0.0156766 -0.0149774 -0.0142521 -0.0135008 -0.0127844 -0.0121636 -0.0116385 -0.011209 -0.0109006 -0.0107387 -0.0107231 -0.010854 -0.0111007 -0.0114323 -0.0118488 -0.0123504 -0.0128803 -0.0133821 -0.0138556 -0.0143009 -0.0146934 -0.0150086 -0.0152464 -0.0154068 -0.0155241 -0.0156323 -0.0157314 -0.0158215 -0.0159551 -0.0161845 -0.0165098 -0.0169309 -0.017449 -0.018065 -0.0187789 -0.0195907 -0.0204339 -0.0212419 -0.0220146 -0.0227522 -0.0233858 -0.0238466 -0.0241347 -0.02425 -0.0241959 -0.0239756 -0.0235892 -0.0230367 -0.0223878 -0.0217123 -0.0210102 -0.0202814 -0.0195832 -0.0189728 -0.0184501 -0.0180152 -0.0176539 -0.0173519 -0.0171094 -0.0169261 -0.0167414 -0.0164943 -0.0161848 -0.0158129 -0.0153416 -0.0147338 -0.0139895 -0.0131087 -0.0121162 -0.0110368 -0.00987051 -0.00861725 -0.00734499 -0.00612167 -0.00494729 -0.00382185 -0.00280788 -0.00196791 -0.00130193 -0.000809954 -0.000455599 -0.000202488 -5.06221e-05 0 0 1.20414e-05 4.81655e-05 0.000108372 0.000192662 0.000275634 0.000331888 0.000361423 0.00036424 0.000310625 0.000170863 -5.50468e-05 -0.000367103 -0.000765638 -0.00125098 -0.00182314 -0.00248211 -0.00321644 -0.00401471 -0.0048769 -0.00580302 -0.00678134 -0.00780011 -0.00885934 -0.00995903 -0.0110853 -0.0122241 -0.0133757 -0.0145398 -0.01569 -0.0167994 -0.0178682 -0.0188963 -0.0198443 -0.0206728 -0.0213818 -0.0219712 -0.0224122 -0.0226761 -0.0227627 -0.0226722 -0.0224177 -0.0220127 -0.0214572 -0.0207512 -0.0199555 -0.0191313 -0.0182784 -0.0173969 -0.016557 -0.015829 -0.0152129 -0.0147086 -0.0143391 -0.0141274 -0.0140734 -0.0141771 -0.014392 -0.0146714 -0.0150153 -0.0154236 -0.0158218 -0.0161349 -0.0163629 -0.0165059 -0.0165353 -0.0164224 -0.0161672 -0.0157697 -0.0152814 -0.014754 -0.0141874 -0.0135815 -0.0130168 -0.0125735 -0.0122517 -0.0120513 -0.011991 -0.0120894 -0.0123464 -0.0127621 -0.0132681 -0.0137957 -0.0143452 -0.0149164 -0.0154311 -0.0158109 -0.016056 -0.0161663 -0.0161446 -0.0159936 -0.0157134 -0.015304 -0.014843 -0.014408 -0.0139992 -0.0136164 -0.0133166 -0.0131566 -0.0131365 -0.0132562 -0.0134828 -0.013783 -0.0141569 -0.0146046 -0.0150375 -0.0153674 -0.0155942 -0.015718 -0.0156849 -0.0154412 -0.014987 -0.0143221 -0.0134752 -0.0124747 -0.0113206 -0.010013 -0.00863922 -0.00728666 -0.00595533 -0.00464524 -0.00344425 -0.00244024 -0.0016332 -0.00102314 -0.000575518 -0.000255786 -6.39465e-05 0 0 8.94356e-06 3.57743e-05 8.04921e-05 0.000143097 0.000193921 0.000203295 0.00017122 9.76947e-05 -4.5493e-05 -0.000286557 -0.000625496 -0.00106231 -0.00159421 -0.0022184 -0.00293489 -0.00374366 -0.00463141 -0.00558482 -0.00660388 -0.00768859 -0.00882766 -0.0100098 -0.0112349 -0.0125031 -0.0138008 -0.0151145 -0.0164442 -0.0177899 -0.0191215 -0.0204085 -0.0216512 -0.0228494 -0.0239563 -0.0249248 -0.025755 -0.0264469 -0.0269663 -0.027279 -0.0273851 -0.0272844 -0.0269941 -0.0265312 -0.0258955 -0.0250872 -0.0241787 -0.0232427 -0.0222791 -0.021288 -0.0203482 -0.0195388 -0.0188598 -0.0183111 -0.0179099 -0.0176731 -0.0176009 -0.0176932 -0.0178823 -0.0181003 -0.0183472 -0.0186231 -0.0188306 -0.0188723 -0.0187482 -0.0184583 -0.0179694 -0.0172486 -0.0162956 -0.0151107 -0.0137678 -0.0123411 -0.0108306 -0.00923619 -0.00767505 -0.00626424 -0.00500375 -0.00389358 -0.00297783 -0.0023006 -0.00186189 -0.0016617 -0.00163332 -0.00171002 -0.0018918 -0.00217866 -0.00248311 -0.00271764 -0.00288226 -0.00297696 -0.00300357 -0.00296393 -0.00285803 -0.00268588 -0.00253208 -0.0024812 -0.00253326 -0.00268825 -0.00299908 -0.00351866 -0.00424698 -0.00518405 -0.00627072 -0.00744786 -0.00871546 -0.0100735 -0.0113984 -0.0125663 -0.0135774 -0.0144315 -0.0150538 -0.0153694 -0.0153783 -0.0150804 -0.0145083 -0.0136946 -0.0126393 -0.0113425 -0.00991468 -0.00846672 -0.0069986 -0.0055103 -0.00412067 -0.00294853 -0.0019939 -0.00125677 -0.000706931 -0.000314191 -7.85478e-05 0 0 4.12207e-06 1.64883e-05 3.70987e-05 6.59532e-05 6.95973e-05 1.45766e-05 -9.91089e-05 -0.000271459 -0.000526265 -0.000887317 -0.00135461 -0.00192816 -0.00260032 -0.00336348 -0.00421763 -0.00516278 -0.00618367 -0.00726507 -0.00840696 -0.00960936 -0.010863 -0.0121588 -0.0134965 -0.0148763 -0.0162874 -0.017719 -0.0191711 -0.0206437 -0.0221046 -0.0235216 -0.0248947 -0.0262239 -0.0274549 -0.0285335 -0.0294598 -0.0302337 -0.0308156 -0.0311658 -0.0312843 -0.0311712 -0.0308476 -0.0303348 -0.0296328 -0.0287416 -0.027746 -0.0267305 -0.0256954 -0.0246405 -0.0236521 -0.0228162 -0.0221329 -0.0216022 -0.0212304 -0.0210239 -0.0209827 -0.0211067 -0.0213001 -0.021467 -0.0216073 -0.021721 -0.0216825 -0.0213659 -0.0207714 -0.019899 -0.0187102 -0.017167 -0.0152692 -0.0130168 -0.0105131 -0.00786113 -0.0050609 -0.00211242 0.000819066 0.00356828 0.00613523 0.00851992 0.0106424 0.0124228 0.0138611 0.0149573 0.0157716 0.016364 0.0167345 0.0168832 0.0169063 0.0169 0.0168644 0.0167995 0.0167049 0.0165803 0.0164257 0.0162411 0.0159363 0.0154209 0.014695 0.0137586 0.0125674 0.0110774 0.00928846 0.00720064 0.00490824 0.0025056 -7.2966e-06 -0.00263044 -0.00519509 -0.00753254 -0.00964277 -0.0115258 -0.0130801 -0.0142043 -0.0148984 -0.0151623 -0.0150332 -0.0145484 -0.0137077 -0.0125112 -0.0110975 -0.00960553 -0.00803512 -0.00638631 -0.00481524 -0.00347802 -0.00237466 -0.00150515 -0.000846649 -0.000376289 -9.40722e-05 0 0 -2.4231e-06 -9.69238e-06 -2.18079e-05 -3.87695e-05 -9.73364e-05 -0.000234267 -0.000449562 -0.000743222 -0.00113169 -0.00163142 -0.0022424 -0.00296464 -0.00378397 -0.00468621 -0.00567137 -0.00673945 -0.00787322 -0.00905546 -0.0102862 -0.0115653 -0.0128875 -0.0142471 -0.0156442 -0.0170787 -0.0185451 -0.0200376 -0.0215563 -0.0231011 -0.0246394 -0.0261386 -0.0275987 -0.0290196 -0.0303402 -0.031499 -0.0324961 -0.0333316 -0.03396 -0.0343363 -0.0344604 -0.0343323 -0.0339781 -0.0334237 -0.0326692 -0.0317145 -0.0306572 -0.0295948 -0.0285272 -0.0274545 -0.0264685 -0.0256611 -0.0250322 -0.0245819 -0.0243008 -0.0241798 -0.0242187 -0.0244177 -0.0246456 -0.0247715 -0.0247953 -0.0247172 -0.0243772 -0.0236157 -0.0224326 -0.020828 -0.0187577 -0.0161776 -0.0130877 -0.00948806 -0.00551728 -0.00131405 0.00312165 0.00778981 0.0124656 0.016924 0.0211652 0.0251892 0.0288697 0.0320809 0.0348227 0.037095 0.0389466 0.0404262 0.0415337 0.0422692 0.0427372 0.0430421 0.0431841 0.0431631 0.0429808 0.042639 0.0421378 0.0414771 0.0405621 0.0392983 0.0376857 0.0357241 0.033383 0.0306316 0.0274699 0.0238978 0.0200541 0.0160774 0.0119676 0.00772473 0.00357236 -0.000266014 -0.00379038 -0.00700075 -0.00976372 -0.0119459 -0.0135473 -0.0145679 -0.01505 -0.0150359 -0.0145256 -0.0135191 -0.0121878 -0.0107031 -0.0090649 -0.00727328 -0.00552797 -0.00402871 -0.00277549 -0.00176831 -0.000994675 -0.000442078 -0.000110519 0 0 -1.06919e-05 -4.27678e-05 -9.62275e-05 -0.000171071 -0.00030688 -0.000543237 -0.000880141 -0.00131759 -0.00186177 -0.00251886 -0.00328886 -0.00417176 -0.00514515 -0.0061866 -0.00729611 -0.00847369 -0.00970007 -0.010956 -0.0122415 -0.0135565 -0.014901 -0.0162748 -0.0176779 -0.0191103 -0.0205739 -0.0220704 -0.0235998 -0.0251621 -0.0267259 -0.0282595 -0.0297632 -0.0312367 -0.0326121 -0.0338212 -0.034864 -0.0357405 -0.0363997 -0.0367907 -0.0369134 -0.036768 -0.0363856 -0.0357979 -0.0350046 -0.0340059 -0.0329126 -0.0318355 -0.0307746 -0.02973 -0.0287976 -0.0280735 -0.0275577 -0.0272502 -0.0271211 -0.0271407 -0.027309 -0.027626 -0.0279186 -0.0280138 -0.0279115 -0.0276117 -0.0269149 -0.0256216 -0.0237317 -0.0212453 -0.0181118 -0.0142804 -0.0097513 -0.00452438 0.00121965 0.00730014 0.0137171 0.0204705 0.0272644 0.033803 0.0400862 0.0461141 0.0517041 0.0566736 0.0610227 0.0647513 0.0678918 0.0704767 0.0725059 0.0739794 0.0750095 0.0757086 0.0760767 0.0761138 0.0758242 0.0752124 0.0742783 0.0730219 0.0713454 0.069151 0.0664387 0.0632084 0.0594476 0.0551439 0.0502972 0.0449075 0.039167 0.0332675 0.0272092 0.020992 0.014904 0.00923323 0.00397977 -0.000856418 -0.00510463 -0.00859414 -0.011325 -0.0132971 -0.0145585 -0.0151571 -0.0150931 -0.0143663 -0.0131855 -0.0117593 -0.0100879 -0.00817121 -0.00625887 -0.0046006 -0.00319638 -0.00204623 -0.00115101 -0.000511559 -0.00012789 0 0 -2.0586e-05 -8.23441e-05 -0.000185274 -0.000329376 -0.000555972 -0.000906382 -0.00138061 -0.00197864 -0.00269258 -0.00351451 -0.00444441 -0.0054823 -0.00659508 -0.00774963 -0.00894597 -0.0101841 -0.0114426 -0.0127001 -0.0139565 -0.015212 -0.0164742 -0.0177511 -0.0190426 -0.0203488 -0.0216828 -0.0230581 -0.0244746 -0.0259323 -0.0274041 -0.0288631 -0.030309 -0.0317421 -0.0330887 -0.0342751 -0.0353014 -0.0361676 -0.0368172 -0.037194 -0.0372979 -0.0371288 -0.0367243 -0.0361215 -0.0353204 -0.0343212 -0.0332481 -0.0322254 -0.0312531 -0.0303313 -0.0295573 -0.0290286 -0.0287452 -0.028707 -0.0288571 -0.0291384 -0.0295509 -0.0300947 -0.030546 -0.0306811 -0.0305 -0.0300026 -0.028943 -0.0270754 -0.0243996 -0.0209158 -0.016566 -0.0112924 -0.00509513 0.00202592 0.00984046 0.0181183 0.0268593 0.0360636 0.0453512 0.054342 0.0630361 0.0714334 0.0792839 0.0863376 0.0925945 0.0980545 0.10273 0.106632 0.109761 0.112118 0.113822 0.114995 0.115636 0.115745 0.11533 0.114399 0.112952 0.110988 0.108407 0.105108 0.101091 0.0963564 0.0909134 0.0847714 0.0779303 0.0703901 0.0624055 0.054231 0.0458667 0.0373125 0.0289318 0.0210877 0.0137804 0.00700963 0.000989561 -0.00406588 -0.0081567 -0.0112829 -0.0134988 -0.0148588 -0.0153628 -0.0150109 -0.014054 -0.0127431 -0.0110781 -0.00905904 -0.00699165 -0.00518158 -0.00362885 -0.00233346 -0.00131257 -0.000583364 -0.000145841 0 0 -3.20069e-05 -0.000128028 -0.000288062 -0.00051211 -0.000841548 -0.00131775 -0.00194072 -0.00271045 -0.0036002 -0.00458322 -0.0056595 -0.00682906 -0.00804496 -0.00926029 -0.0104751 -0.0116893 -0.0128792 -0.0140211 -0.015115 -0.0161609 -0.017178 -0.0181855 -0.0191834 -0.0201717 -0.021181 -0.0222416 -0.0233537 -0.0245172 -0.0257144 -0.0269277 -0.0281572 -0.0294028 -0.0305878 -0.0316357 -0.0325465 -0.03332 -0.0338954 -0.0342115 -0.0342683 -0.0340658 -0.0336479 -0.0330587 -0.032298 -0.0313659 -0.0303999 -0.0295373 -0.0287783 -0.0281228 -0.0276656 -0.0275014 -0.0276303 -0.0280523 -0.0286747 -0.0294045 -0.0302419 -0.0311868 -0.0319546 -0.0322607 -0.0321051 -0.0314879 -0.030109 -0.0276687 -0.024167 -0.0196039 -0.0139136 -0.00703044 0.00104562 0.0103146 0.0204879 0.0312771 0.0426823 0.0547033 0.0668614 0.0786778 0.0901525 0.101285 0.111748 0.12121 0.129671 0.137133 0.143583 0.149009 0.153411 0.156789 0.159274 0.160996 0.161955 0.16215 0.161594 0.160299 0.158263 0.155486 0.151866 0.147297 0.141779 0.135313 0.127933 0.119671 0.110529 0.100506 0.0899285 0.079123 0.0680894 0.0568277 0.045788 0.0354201 0.025724 0.0166998 0.00861126 0.00172206 -0.00396777 -0.00845823 -0.0118109 -0.0140872 -0.0152873 -0.0154111 -0.0147569 -0.0136229 -0.0120092 -0.00991574 -0.00771002 -0.00575958 -0.00406441 -0.00262451 -0.00147629 -0.000656129 -0.000164032 0 0 -4.49545e-05 -0.000179818 -0.000404591 -0.000719273 -0.00116361 -0.00177734 -0.00256048 -0.00351301 -0.00458463 -0.005725 -0.00693413 -0.00821202 -0.0094948 -0.0107186 -0.0118834 -0.0129892 -0.0140098 -0.014919 -0.0157168 -0.0164031 -0.0170121 -0.0175778 -0.0181002 -0.0185792 -0.0190683 -0.019621 -0.0202371 -0.0209167 -0.0216566 -0.0224536 -0.0233076 -0.0242187 -0.0251097 -0.0259032 -0.0265993 -0.0271979 -0.0276342 -0.0278431 -0.0278246 -0.0275788 -0.0271567 -0.0266096 -0.0259374 -0.0251401 -0.024368 -0.0237713 -0.0233502 -0.0231044 -0.0231223 -0.0234919 -0.0242132 -0.0252862 -0.0265739 -0.0279391 -0.0293818 -0.0309021 -0.0321443 -0.0327526 -0.032727 -0.0320675 -0.0304129 -0.0274017 -0.023034 -0.0173098 -0.0101547 -0.0014945 0.00867095 0.0203416 0.033162 0.0467768 0.0611859 0.0763895 0.091795 0.10681 0.121436 0.13567 0.149095 0.161289 0.172253 0.181987 0.190451 0.197607 0.203454 0.207993 0.211365 0.213712 0.215033 0.21533 0.214617 0.21291 0.210211 0.206518 0.201724 0.195719 0.188504 0.180079 0.170505 0.159843 0.148093 0.135255 0.121736 0.107943 0.0938773 0.0795376 0.0654725 0.0522302 0.0398108 0.0282142 0.0177605 0.00876969 0.00124182 -0.00482313 -0.00949474 -0.0128426 -0.0148667 -0.015567 -0.0152942 -0.014399 -0.0128814 -0.0107413 -0.008414 -0.00633458 -0.00450305 -0.0029194 -0.00164217 -0.000729851 -0.000182463 0 0 -5.9429e-05 -0.000237716 -0.000534861 -0.000950864 -0.00152215 -0.00228516 -0.00323989 -0.00438633 -0.00564586 -0.00693985 -0.00826829 -0.0096312 -0.0109446 -0.0121245 -0.013171 -0.0140839 -0.0148345 -0.0153939 -0.015762 -0.0159388 -0.0159768 -0.0159281 -0.0157929 -0.0155712 -0.0153449 -0.0151961 -0.0151248 -0.0151309 -0.0152308 -0.0154406 -0.0157603 -0.0161899 -0.0166541 -0.0170774 -0.0174597 -0.0178012 -0.0180336 -0.0180888 -0.0179669 -0.0176678 -0.0172505 -0.0167741 -0.0162384 -0.0156436 -0.0151523 -0.0149273 -0.0149687 -0.0152763 -0.0159276 -0.0170001 -0.0184938 -0.0204086 -0.0225547 -0.0247421 -0.0269708 -0.0292408 -0.0311151 -0.0321567 -0.0323655 -0.0317416 -0.0298546 -0.0262743 -0.0210005 -0.0140335 -0.00528936 0.00531541 0.0177808 0.0321069 0.0478627 0.0646172 0.0823703 0.101122 0.120152 0.13874 0.156885 0.174588 0.191327 0.206577 0.22034 0.232616 0.243335 0.252426 0.259891 0.26573 0.270095 0.273143 0.274872 0.275283 0.274397 0.272235 0.268797 0.264083 0.25798 0.250374 0.241265 0.230654 0.218631 0.205287 0.190623 0.174637 0.157828 0.140692 0.12323 0.105442 0.0879852 0.0715181 0.0560406 0.0415527 0.0284372 0.017077 0.00747209 -0.000377566 -0.00655038 -0.0111248 -0.0141008 -0.0154784 -0.0156658 -0.0150712 -0.0136945 -0.0115357 -0.00910358 -0.00690659 -0.00494478 -0.00321813 -0.0018102 -0.000804532 -0.000201133 0 0 -7.50657e-05 -0.000300263 -0.000675591 -0.00120105 -0.00190755 -0.002826 -0.00395639 -0.00529873 -0.00674076 -0.00817022 -0.00958712 -0.0109914 -0.0122753 -0.0133307 -0.0141576 -0.0147562 -0.0150943 -0.01514 -0.0148933 -0.0143541 -0.0135975 -0.0126983 -0.0116566 -0.0104723 -0.00926373 -0.00814901 -0.00712817 -0.00620122 -0.00541071 -0.00479918 -0.