<?xml version="1.0"?> 
<VTKFile type="StructuredGrid" version="0.1"> 
<StructuredGrid WholeExtent="0 128 0 128 0 0"> 
<Piece Extent="0 128 0 128 0 0"> 
<PointData>
<DataArray type="Float32" Name="u" format="ascii" NumberOfComponents="1"> 
0 0 0 0 0 0 0 0 0 0 0 0 0 0 0 0 0 0 0 0 0 0 0 0 0 0 0 0 0 0 0 0 0 0 0 0 0 0 0 0 0 0 0 0 0 0 0 0 0 0 0 0 0 0 0 0 0 0 0 0 0 0 0 0 0 0 0 0 0 0 0 0 0 0 0 0 0 0 0 0 0 0 0 0 0 0 0 0 0 0 0 0 0 0 0 0 0 0 0 0 0 0 0 0 0 0 0 0 0 0 0 0 0 0 0 0 0 0 0 0 0 0 0 0 0 0 0 0 0 0 2.32642e-07 9.30566e-07 2.09377e-06 3.72226e-06 5.76544e-06 8.17269e-06 1.0944e-05 1.40794e-05 1.72249e-05 2.00264e-05 2.2484e-05 2.45976e-05 2.62758e-05 2.74273e-05 2.80519e-05 2.81498e-05 2.77928e-05 2.70527e-05 2.59294e-05 2.44231e-05 2.26441e-05 2.07025e-05 1.85985e-05 1.63321e-05 1.39793e-05 1.16163e-05 9.24301e-06 6.85954e-06 4.51349e-06 2.25248e-06 7.65338e-08 -2.01437e-06 -3.94118e-06 -5.62487e-06 -7.06545e-06 -8.2629e-06 -9.09708e-06 -9.44784e-06 -9.31518e-06 -8.69908e-06 -7.55455e-06 -5.83657e-06 -3.54512e-06 -6.80228e-07 2.56493e-06 5.99717e-06 9.61647e-06 1.34229e-05 1.69741e-05 1.9828e-05 2.19847e-05 2.3444e-05 2.37509e-05 2.24503e-05 1.95423e-05 1.50269e-05 8.73631e-06 5.03025e-07 -9.67299e-06 -2.17917e-05 -3.56764e-05 -5.115e-05 -6.82127e-05 -8.68645e-05 -0.000106825 -0.000127814 -0.000149831 -0.000172876 -0.00019678 -0.000221373 -0.000246655 -0.000272626 -0.000299095 -0.000325872 -0.000352957 -0.00038035 -0.000407523 -0.000433951 -0.000459632 -0.000484567 -0.000507903 -0.000528787 -0.000547219 -0.0005632 -0.000576069 -0.000585166 -0.00059049 -0.000592043 -0.000589892 -0.000584107 -0.000574688 -0.000561635 -0.000545695 -0.000527613 -0.000507391 -0.000485027 -0.000461347 -0.000437175 -0.000412511 -0.000387356 -0.000362122 -0.000337221 -0.000312655 -0.000288422 -0.000264604 -0.000241282 -0.000218457 -0.000196127 -0.00017443 -0.000153501 -0.00013334 -0.000113948 -9.56488e-05 -7.87698e-05 -6.33105e-05 -4.92708e-05 -3.69112e-05 -2.6492e-05 -1.8013e-05 -1.14745e-05 -6.59153e-06 -3.07961e-06 -9.38702e-07 -1.68799e-07 -9.49495e-08 -4.21998e-08 -1.05499e-08 0 0 9.30566e-07 3.72226e-06 8.37509e-06 1.48891e-05 2.30617e-05 3.26908e-05 4.37761e-05 5.63178e-05 6.88997e-05 8.01057e-05 8.9936e-05 9.83903e-05 0.000105103 0.000109709 0.000112208 0.000112599 0.000111171 0.000108211 0.000103718 9.76925e-05 9.05762e-05 8.28101e-05 7.43941e-05 6.53283e-05 5.59171e-05 4.6465e-05 3.69721e-05 2.74382e-05 1.8054e-05 9.00994e-06 3.06135e-07 -8.05746e-06 -1.57647e-05 -2.24995e-05 -2.82618e-05 -3.30516e-05 -3.63883e-05 -3.77914e-05 -3.72607e-05 -3.47963e-05 -3.02182e-05 -2.33463e-05 -1.41805e-05 -2.72091e-06 1.02597e-05 2.39887e-05 3.84659e-05 5.36914e-05 6.78964e-05 7.93122e-05 8.79387e-05 9.37759e-05 9.50036e-05 8.98014e-05 7.81694e-05 6.01075e-05 3.49453e-05 2.0121e-06 -3.8692e-05 -8.7167e-05 -0.000142705 -0.0002046 -0.000272851 -0.000347458 -0.0004273 -0.000511255 -0.000599323 -0.000691505 -0.000787122 -0.000885493 -0.000986621 -0.0010905 -0.00119638 -0.00130349 -0.00141183 -0.0015214 -0.00163009 -0.0017358 -0.00183853 -0.00193827 -0.00203161 -0.00211515 -0.00218888 -0.0022528 -0.00230428 -0.00234066 -0.00236196 -0.00236817 -0.00235957 -0.00233643 -0.00229875 -0.00224654 -0.00218278 -0.00211045 -0.00202956 -0.00194011 -0.00184539 -0.0017487 -0.00165005 -0.00154942 -0.00144849 -0.00134889 -0.00125062 -0.00115369 -0.00105842 -0.000965129 -0.000873827 -0.00078451 -0.000697721 -0.000614005 -0.000533361 -0.00045579 -0.000382595 -0.000315079 -0.000253242 -0.000197083 -0.000147645 -0.000105968 -7.20522e-05 -4.58978e-05 -2.63661e-05 -1.23184e-05 -3.75481e-06 -6.75196e-07 -3.79798e-07 -1.68799e-07 -4.21998e-08 0 0 2.09377e-06 8.37509e-06 1.8844e-05 3.35004e-05 5.18889e-05 7.35542e-05 9.84962e-05 0.000126715 0.000155024 0.000180238 0.000202356 0.000221378 0.000236482 0.000246845 0.000252467 0.000253348 0.000250135 0.000243474 0.000233365 0.000219808 0.000203796 0.000186323 0.000167387 0.000146989 0.000125813 0.000104546 8.31871e-05 6.17359e-05 4.06214e-05 2.02724e-05 6.88804e-07 -1.81293e-05 -3.54706e-05 -5.06239e-05 -6.3589e-05 -7.43661e-05 -8.18738e-05 -8.50306e-05 -8.38366e-05 -7.82918e-05 -6.7991e-05 -5.25291e-05 -3.19061e-05 -6.12205e-06 2.30844e-05 5.39745e-05 8.65482e-05 0.000120806 0.000152767 0.000178452 0.000197862 0.000210996 0.000213758 0.000202053 0.000175881 0.000135242 7.86268e-05 4.52723e-06 -8.70569e-05 -0.000196126 -0.000321087 -0.00046035 -0.000613915 -0.00078178 -0.000961424 -0.00115032 -0.00134848 -0.00155589 -0.00177102 -0.00199236 -0.0022199 -0.00245363 -0.00269185 -0.00293285 -0.00317661 -0.00342315 -0.00366771 -0.00390556 -0.00413669 -0.0043611 -0.00457112 -0.00475908 -0.00492497 -0.0050688 -0.00518462 -0.00526649 -0.00531441 -0.00532839 -0.00530903 -0.00525697 -0.0051722 -0.00505472 -0.00491125 -0.00474852 -0.00456652 -0.00436524 -0.00415212 -0.00393458 -0.0037126 -0.00348621 -0.0032591 -0.00303499 -0.00281389 -0.0025958 -0.00238144 -0.00217154 -0.00196611 -0.00176515 -0.00156987 -0.00138151 -0.00120006 -0.00102553 -0.00086084 -0.000708928 -0.000569794 -0.000443438 -0.000332201 -0.000238428 -0.000162117 -0.00010327 -5.93238e-05 -2.77165e-05 -8.44832e-06 -1.51919e-06 -8.54545e-07 -3.79798e-07 -9.49495e-08 0 0 3.72226e-06 1.48891e-05 3.35004e-05 5.95562e-05 9.2247e-05 0.000130763 0.000175104 0.000225271 0.000275599 0.000320423 0.000359744 0.000393561 0.000420413 0.000438836 0.000448831 0.000450397 0.000444685 0.000432842 0.000414871 0.00039077 0.000362305 0.00033124 0.000297576 0.000261313 0.000223668 0.00018586 0.000147888 0.000109753 7.22158e-05 3.60398e-05 1.22454e-06 -3.22298e-05 -6.30589e-05 -8.9998e-05 -0.000113047 -0.000132206 -0.000145553 -0.000151165 -0.000149043 -0.000139185 -0.000120873 -9.3385e-05 -5.6722e-05 -1.08836e-05 4.10389e-05 9.59547e-05 0.000153864 0.000214766 0.000271586 0.000317249 0.000351755 0.000375104 0.000380014 0.000359206 0.000312677 0.00024043 0.000139781 8.0484e-06 -0.000154768 -0.000348668 -0.000570822 -0.000818401 -0.0010914 -0.00138983 -0.0017092 -0.00204502 -0.00239729 -0.00276602 -0.00314849 -0.00354197 -0.00394648 -0.00436201 -0.00478552 -0.00521395 -0.00564731 -0.00608559 -0.00652037 -0.00694321 -0.00735411 -0.00775307 -0.00812644 -0.00846059 -0.00875551 -0.0090112 -0.00921711 -0.00936265 -0.00944785 -0.00947269 -0.00943827 -0.00934572 -0.00919502 -0.00898617 -0.00873112 -0.00844181 -0.00811825 -0.00776043 -0.00738155 -0.0069948 -0.00660018 -0.0061977 -0.00579395 -0.00539554 -0.00500247 -0.00461475 -0.00423366 -0.00386052 -0.00349531 -0.00313804 -0.00279088 -0.00245602 -0.00213344 -0.00182316 -0.00153038 -0.00126032 -0.00101297 -0.000788333 -0.00059058 -0.000423872 -0.000288209 -0.000183591 -0.000105464 -4.92738e-05 -1.50192e-05 -2.70079e-06 -1.51919e-06 -6.75196e-07 -1.68799e-07 0 0 5.70974e-06 2.28389e-05 5.13876e-05 9.13558e-05 0.000141203 0.000199389 0.000265914 0.000340777 0.000415198 0.000480395 0.000536369 0.000583119 0.000618442 0.000640135 0.000648199 0.000642632 0.000625285 0.000598009 0.000560804 0.00051367 0.000459413 0.000400841 0.000337952 0.000270747 0.000201232 0.00013141 6.12825e-05 -9.15093e-06 -7.84657e-05 -0.000145237 -0.000209465 -0.00027115 -0.000328004 -0.000377739 -0.000420355 -0.000455851 -0.000481052 -0.000492779 -0.000491032 -0.000475813 -0.000446145 -0.000401054 -0.000340541 -0.000264605 -0.000178461 -8.73245e-05 8.80522e-06 0.000109928 0.000204732 0.000281908 0.000341453 0.00038337 0.00039648 0.000369605 0.000302747 0.000195904 4.54903e-05 -0.000152082 -0.000396813 -0.000688703 -0.00102278 -0.00139408 -0.0018026 -0.00224833 -0.00272431 -0.00322354 -0.00374604 -0.0042918 -0.00485733 -0.00543912 -0.00603718 -0.00665151 -0.00727839 -0.00791411 -0.00855868 -0.00921209 -0.00986187 -0.0104956 -0.0111132 -0.0117148 -0.012279 -0.0127848 -0.0132321 -0.013621 -0.0139346 -0.0141565 -0.0142865 -0.0143247 -0.0142728 -0.0141325 -0.0139037 -0.0135865 -0.0131996 -0.0127618 -0.0122731 -0.0117334 -0.0111632 -0.0105828 -0.00999221 -0.00939149 -0.00879015 -0.00819771 -0.00761417 -0.00703953 -0.00647476 -0.00592085 -0.0053778 -0.00484561 -0.00432695 -0.00382449 -0.00333825 -0.00286821 -0.00242248 -0.00200915 -0.00162822 -0.00127968 -0.000970621 -0.000708102 -0.000492125 -0.00032269 -0.000193849 -9.96504e-05 -4.00949e-05 -1.51823e-05 -8.54002e-06 -3.79556e-06 -9.48891e-07 0 0 7.94989e-06 3.17996e-05 7.1549e-05 0.000127198 0.000195824 0.000274504 0.000363237 0.000462024 0.000558397 0.000639889 0.0007065 0.00075823 0.000792117 0.000805197 0.000797471 0.000768938 0.000722403 0.000660668 0.000583734 0.0004916 0.000388434 0.000278401 0.000161502 3.77362e-05 -8.97475e-05 -0.0002178 -0.000346423 -0.000475615 -0.000602726 -0.000725108 -0.00084276 -0.000955682 -0.00105978 -0.00115096 -0.00122923 -0.00129458 -0.00134199 -0.00136645 -0.00136796 -0.00134651 -0.00130109 -0.00123068 -0.00113528 -0.00101489 -0.000878001 -0.000733117 -0.000580233 -0.000419351 -0.000267413 -0.000141365 -4.1205e-05 3.30656e-05 6.58621e-05 4.15995e-05 -3.97222e-05 -0.000178103 -0.000377163 -0.000640522 -0.000968181 -0.00136014 -0.00180784 -0.00230271 -0.00284476 -0.003434 -0.00406043 -0.0047141 -0.005395 -0.00610313 -0.00683537 -0.00758859 -0.00836279 -0.00915798 -0.00997149 -0.0108007 -0.0116455 -0.012506 -0.013366 -0.0142095 -0.0150364 -0.0158467 -0.0166103 -0.0172969 -0.0179064 -0.018439 -0.0188701 -0.0191754 -0.0193547 -0.0194082 -0.0193382 -0.0191471 -0.0188348 -0.0184014 -0.0178741 -0.01728 -0.0166193 -0.0158918 -0.0151264 -0.0143518 -0.0135681 -0.0127752 -0.0119848 -0.0112087 -0.0104468 -0.00969911 -0.00896439 -0.00824135 -0.00752998 -0.00683028 -0.00614425 -0.0054739 -0.00481922 -0.00418021 -0.0035684 -0.00299533 -0.002461 -0.0019654 -0.00152017 -0.00113692 -0.000815663 -0.000556396 -0.000353538 -0.000201506 -0.000100302 -4.99259e-05 -2.80833e-05 -1.24815e-05 -3.12037e-06 0 0 1.04427e-05 4.17709e-05 9.39846e-05 0.000167084 0.000256111 0.000356108 0.000467075 0.000589012 0.000705196 0.000798905 0.000870138 0.000918896 0.000941437 0.000934021 0.000896647 0.000829316 0.000736037 0.000620818 0.000483659 0.000324561 0.000149367 -3.60778e-05 -0.000231773 -0.00043772 -0.000649269 -0.000861771 -0.00107523 -0.00128964 -0.00150057 -0.00170357 -0.00189866 -0.00208583 -0.00225839 -0.00240967 -0.00253967 -0.00264839 -0.00272838 -0.00277219 -0.00277982 -0.00275128 -0.0026857 -0.00258225 -0.00244093 -0.00226173 -0.00205758 -0.00184142 -0.00161325 -0.00137307 -0.00114485 -0.000952568 -0.000796221 -0.00067581 -0.000611839 -0.000624812 -0.00071473 -0.000881592 -0.00112818 -0.00145727 -0.00186887 -0.00236298 -0.00292599 -0.0035443 -0.00421791 -0.00494683 -0.00571757 -0.00651669 -0.00734416 -0.0082 -0.0090826 -0.00999037 -0.0109233 -0.0118814 -0.0128648 -0.0138736 -0.0149077 -0.0159672 -0.0170328 -0.0180849 -0.0191237 -0.020149 -0.0211203 -0.0219968 -0.0227785 -0.0234653 -0.0240236 -0.0244193 -0.0246525 -0.0247232 -0.0246345 -0.0243895 -0.0239883 -0.0234308 -0.0227544 -0.0219964 -0.0211569 -0.0202357 -0.0192713 -0.018302 -0.0173278 -0.0163488 -0.0153779 -0.0144285 -0.0135003 -0.0125935 -0.0117026 -0.010822 -0.00995183 -0.00909205 -0.00824281 -0.00740424 -0.00657635 -0.00575915 -0.00496815 -0.00421887 -0.00351131 -0.00284549 -0.00223921 -0.00171033 -0.00125882 -0.000884709 -0.000584531 -0.000354842 -0.000195642 -0.000106932 -6.01491e-05 -2.67329e-05 -6.68323e-06 0 0 1.31883e-05 5.2753e-05 0.000118694 0.000211012 0.000322062 0.0004442 0.000577426 0.000721741 0.000855595 0.000957443 0.00102728 0.00106511 0.0010664 0.00102661 0.000945728 0.000823766 0.000666188 0.000478459 0.00026058 1.25511e-05 -0.000257788 -0.000542596 -0.000841874 -0.00115562 -0.00147733 -0.0018005 -0.00212513 -0.00245122 -0.00277198 -0.00308063 -0.00337716 -0.00366158 -0.00392383 -0.00415387 -0.00435169 -0.00451729 -0.00464021 -0.00470999 -0.00472662 -0.00469011 -0.00459999 -0.00445578 -0.00425749 -0.00400512 -0.0037172 -0.00341224 -0.00309025 -0.00275123 -0.00242758 -0.0021517 -0.00192359 -0.00174326 -0.00163662 -0.00162963 -0.00172228 -0.00191456 -0.00220756 -0.00260233 -0.00309889 -0.00369722 -0.00437724 -0.00511884 -0.00592204 -0.00678683 -0.00769573 -0.0086313 -0.00959353 -0.0105824 -0.011599 -0.0126445 -0.0137188 -0.0148218 -0.0159584 -0.0171329 -0.0183454 -0.0195959 -0.0208622 -0.0221219 -0.023375 -0.0246216 -0.025809 -0.0268846 -0.0278482 -0.0287 -0.0293949 -0.0298882 -0.0301797 -0.0302696 -0.0301616 -0.0298598 -0.0293642 -0.0286748 -0.0278407 -0.0269111 -0.0258858 -0.0247651 -0.0235978 -0.0224333 -0.0212714 -0.0201123 -0.0189695 -0.017857 -0.0167747 -0.0157227 -0.0146892 -0.0136628 -0.0126434 -0.0116309 -0.0106226 -0.00961551 -0.00860965 -0.00760503 -0.00662171 -0.00567975 -0.00477916 -0.00391994 -0.00312776 -0.00242832 -0.00182161 -0.00130763 -0.000886828 -0.000559657 -0.000326114 -0.0001862 -0.000104737 -4.65499e-05 -1.16375e-05 0 0 1.55874e-05 6.23495e-05 0.000140286 0.000249398 0.000378751 0.000517411 0.00066538 0.000822656 0.000962963 0.00106002 0.00111383 0.0011244 0.00108671 0.000995776 0.00085159 0.000654154 0.000410651 0.000128263 -0.00019301 -0.000553168 -0.000942338 -0.00135065 -0.00177809 -0.00222468 -0.002682 -0.00314164 -0.00360361 -0.00406791 -0.0045249 -0.00496494 -0.00538803 -0.00579418 -0.00616899 -0.00649807 -0.00678143 -0.00701906 -0.00719677 -0.00730039 -0.0073299 -0.0072853 -0.00716689 -0.00697493 -0.00670944 -0.00637041 -0.00598331 -0.00557362 -0.00514134 -0.00468646 -0.00425089 -0.00387652 -0.00356334 -0.00331136 -0.00315132 -0.00311396 -0.00319929 -0.00340729 -0.00373493 -0.00417914 -0.00473992 -0.00541729 -0.00618211 -0.00700528 -0.00788679 -0.00882663 -0.00980304 -0.0107942 -0.0118001 -0.0128208 -0.0138629 -0.0149329 -0.0160309 -0.0171569 -0.0183243 -0.0195465 -0.0208235 -0.0221554 -0.0235199 -0.0248945 -0.0262793 -0.0276744 -0.029015 -0.0302366 -0.0313391 -0.0323225 -0.0331297 -0.0337035 -0.0340438 -0.0341506 -0.0340287 -0.0336828 -0.0331129 -0.0323189 -0.0313629 -0.0303066 -0.0291501 -0.0278934 -0.026596 -0.0253176 -0.024058 -0.0228173 -0.0216069 -0.0204381 -0.0193109 -0.0182254 -0.0171596 -0.0160913 -0.0150206 -0.0139476 -0.0128636 -0.0117601 -0.0106372 -0.00949468 -0.00835764 -0.00725097 -0.00617467 -0.00512874 -0.00414928 -0.00327239 -0.00249808 -0.00182634 -0.00126515 -0.00082248 -0.000498337 -0.000292717 -0.000164653 -7.31791e-05 -1.82948e-05 0 0 1.7041e-05 6.81639e-05 0.000153369 0.000272656 0.000411248 0.000554371 0.000702023 0.000854205 0.000980668 0.00105116 0.00106569 0.00102425 0.000922063 0.00075435 0.000521111 0.000222347 -0.000132779 -0.000535101 -0.00098462 -0.00148134 -0.00201359 -0.00256972 -0.00314972 -0.0037536 -0.00437132 -0.00499284 -0.00561815 -0.00624726 -0.00686724 -0.00746517 -0.00804104 -0.00859485 -0.00910673 -0.0095568 -0.00994505 -0.0102715 -0.0105174 -0.0106639 -0.0107112 -0.0106591 -0.0105093 -0.0102634 -0.00992123 -0.00948291 -0.00898239 -0.00845363 -0.00789663 -0.0073114 -0.00675007 -0.00626476 -0.00585547 -0.00552221 -0.00529876 -0.00521892 -0.00528269 -0.00549006 -0.00582991 -0.00629112 -0.00687369 -0.00757761 -0.00836114 -0.00918254 -0.0100418 -0.0109389 -0.0118476 -0.0127416 -0.013621 -0.0144857 -0.0153524 -0.0162377 -0.0171416 -0.0180642 -0.0190347 -0.0200823 -0.0212072 -0.0224093 -0.0236715 -0.0249769 -0.0263254 -0.0277171 -0.0290767 -0.0303292 -0.0314745 -0.0325126 -0.0333734 -0.0339864 -0.0343519 -0.0344696 -0.034345 -0.0339834 -0.0333846 -0.0325488 -0.0315508 -0.0304658 -0.0292935 -0.0280342 -0.0267558 -0.0255266 -0.0243465 -0.0232155 -0.0221372 -0.0211153 -0.0201497 -0.0192405 -0.0183486 -0.017435 -0.0164997 -0.0155428 -0.0145458 -0.0134905 -0.0123769 -0.0112049 -0.0100045 -0.0088055 -0.00760796 -0.00641186 -0.00526721 -0.00422402 -0.00328229 -0.00244202 -0.00172421 -0.00114984 -0.00071893 -0.000431469 -0.000242702 -0.000107867 -2.69668e-05 0 0 1.75491e-05 7.01964e-05 0.000157942 0.000280786 0.000419555 0.000555079 0.000687356 0.000816387 0.000908711 0.000930867 0.000882855 0.000764674 0.000572456 0.000302328 -4.57099e-05 -0.000471657 -0.000964101 -0.00151163 -0.00211425 -0.00277195 -0.00347154 -0.00419981 -0.00495676 -0.0057424 -0.00654531 -0.00735409 -0.00816875 -0.00898927 -0.00979901 -0.0105813 -0.0113362 -0.0120636 -0.0127371 -0.0133301 -0.0138426 -0.0142746 -0.014602 -0.0148006 -0.0148705 -0.0148116 -0.0146274 -0.0143211 -0.0138929 -0.0133426 -0.0127144 -0.0120522 -0.0113561 -0.010626 -0.00992511 -0.00931643 -0.00879999 -0.0083758 -0.00807894 -0.0079445 -0.00797247 -0.00816286 -0.00849252 -0.00893829 -0.00950018 -0.0101782 -0.0109143 -0.0116506 -0.012387 -0.0131236 -0.0138294 -0.0144736 -0.0150562 -0.0155771 -0.0160676 -0.0165588 -0.0170509 -0.0175437 -0.0180895 -0.0187404 -0.0194964 -0.0203574 -0.0213171 -0.0223691 -0.0235133 -0.0247497 -0.0259942 -0.0271624 -0.0282545 -0.0292703 -0.0301258 -0.0307371 -0.031104 -0.0312266 -0.0311106 -0.0307615 -0.0301794 -0.0293644 -0.0284046 -0.0273885 -0.0263162 -0.0251874 -0.0240772 -0.0230604 -0.022137 -0.0213069 -0.0205606 -0.0198887 -0.0192911 -0.0187678 -0.0182563 -0.0176938 -0.0170806 -0.0164164 -0.0156692 -0.0148067 -0.0138289 -0.0127357 -0.0115623 -0.0103434 -0.00907904 -0.00776931 -0.00648157 -0.00528321 -0.00417425 -0.00315468 -0.002264 -0.00154174 -0.000987893 -0.000602458 -0.000338883 -0.000150615 -3.76536e-05 0 0 1.71117e-05 6.84469e-05 0.000154005 0.000273788 0.000403671 0.000519535 0.000621378 0.000709202 0.000747091 0.000699132 0.000565325 0.000345671 3.78909e-05 -0.00036029 -0.000848872 -0.00142786 -0.00208332 -0.00280133 -0.0035819 -0.00442502 -0.0053162 -0.00624093 -0.00719922 -0.00819106 -0.00920396 -0.0102254 -0.0112554 -0.0122939 -0.0133202 -0.0143134 -0.0152734 -0.0162004 -0.01706 -0.0178178 -0.018474 -0.0190283 -0.0194506 -0.0197105 -0.0198078 -0.0197428 -0.0195209 -0.0191481 -0.0186243 -0.0179496 -0.0171794 -0.0163695 -0.0155198 -0.0146304 -0.013776 -0.0130315 -0.0123969 -0.0118721 -0.0114919 -0.0112907 -0.0112687 -0.0114257 -0.0117227 -0.0121206 -0.0126194 -0.013219 -0.0138417 -0.0144095 -0.0149226 -0.0153808 -0.0157485 -0.0159901 -0.0161056 -0.0160949 -0.0160084 -0.0158963 -0.0157587 -0.0155956 -0.0154889 -0.0155207 -0.0156911 -0.0159999 -0.0164567 -0.017071 -0.0178429 -0.0187724 -0.0197674 -0.0207363 -0.021679 -0.0225955 -0.0233871 -0.0239554 -0.0243002 -0.0244215 -0.0243253 -0.0240172 -0.0234973 -0.0227657 -0.0219242 -0.021075 -0.0202179 -0.0193531 -0.0185603 -0.017919 -0.0174294 -0.0170915 -0.0168771 -0.0167583 -0.0167351 -0.0168074 -0.0168826 -0.0168679 -0.0167632 -0.0165686 -0.0162338 -0.0157086 -0.0149931 -0.0140872 -0.013031 -0.0118645 -0.0105879 -0.00920109 -0.00779235 -0.00644997 -0.00517395 -0.0039643 -0.00288454 -0.00199818 -0.00130523 -0.000805683 -0.000453197 -0.000201421 -5.03552e-05 0 0 1.53309e-05 6.13235e-05 0.000137978 0.000245294 0.000354045 0.000435003 0.00048817 0.000513543 0.000474533 0.000334546 9.35835e-05 -0.000248355 -0.000690692 -0.00123285 -0.00187482 -0.00261662 -0.00344158 -0.00433303 -0.005291 -0.00631546 -0.00739163 -0.00850469 -0.00965466 -0.0108415 -0.0120531 -0.013277 -0.0145135 -0.0157624 -0.0169991 -0.0181993 -0.0193628 -0.0204896 -0.0215369 -0.0224617 -0.023264 -0.0239437 -0.0244636 -0.0247861 -0.0249113 -0.0248393 -0.0245785 -0.0241378 -0.0235172 -0.0227165 -0.0218047 -0.0208503 -0.0198534 -0.018814 -0.0178186 -0.0169539 -0.0162199 -0.0156165 -0.0151745 -0.014925 -0.0148677 -0.0150027 -0.0152691 -0.0156057 -0.0160127 -0.0164899 -0.0169346 -0.017244 -0.0174179 -0.0174565 -0.0173189 -0.0169642 -0.0163924 -0.0156036 -0.0146731 -0.0136767 -0.0126142 -0.0114857 -0.0104129 -0.00951773 -0.00880016 -0.00826018 -0.00793126 -0.00784685 -0.00800694 -0.00841155 -0.00896379 -0.00956679 -0.0102205 -0.0109251 -0.0115665 -0.0120309 -0.0123183 -0.0124287 -0.0123677 -0.012141 -0.0117486 -0.0111904 -0.0105823 -0.0100399 -0.00956326 -0.00915242 -0.00888898 -0.00885456 -0.00904918 -0.00947283 -0.0100715 -0.0107911 -0.0116316 -0.0125931 -0.0135437 -0.0143517 -0.0150171 -0.0155399 -0.0158466 -0.0158637 -0.0155913 -0.0150294 -0.0142235 -0.0132192 -0.0120165 -0.0106153 -0.00912937 -0.00767219 -0.00624379 -0.00484418 -0.0035673 -0.00250713 -0.00166365 -0.00103687 -0.000583238 -0.000259217 -6.48042e-05 0 0 1.18086e-05 4.72345e-05 0.000106278 0.000188938 0.000261125 0.000288749 0.000271809 0.000210305 6.97599e-05 -0.000184305 -0.000551891 -0.001033 -0.00162235 -0.00231469 -0.00311001 -0.00400831 -0.00499003 -0.00603558 -0.00714497 -0.00831821 -0.00954192 -0.0108027 -0.0121007 -0.0134357 -0.0147984 -0.0161793 -0.0175783 -0.0189956 -0.0204042 -0.021777 -0.0231141 -0.0244155 -0.0256292 -0.0267031 -0.0276373 -0.0284317 -0.0290411 -0.0294202 -0.0295692 -0.0294879 -0.0291886 -0.0286836 -0.0279728 -0.0270564 -0.0260175 -0.0249395 -0.0238224 -0.0226662 -0.0215687 -0.0206274 -0.0198426 -0.019214 -0.018764 -0.0185147 -0.018466 -0.0186181 -0.0188801 -0.0191612 -0.0194614 -0.0197807 -0.0199846 -0.0199386 -0.0196427 -0.0190969 -0.0182545 -0.0170688 -0.0155398 -0.0136674 -0.0115602 -0.00932662 -0.00696657 -0.00448008 -0.00204167 0.000174154 0.00216739 0.00393804 0.00541805 0.0065394 0.00730207 0.00770607 0.00784944 0.00783025 0.00764848 0.00730415 0.00692703 0.0066469 0.00646378 0.00637766 0.00638357 0.00647654 0.00665658 0.00692367 0.00714852 0.00720179 0.0070835 0.00679364 0.00625264 0.00538093 0.00417851 0.00264539 0.000871286 -0.00105405 -0.00313062 -0.00535842 -0.00755552 -0.00953997 -0.0113118 -0.012871 -0.0141145 -0.0149392 -0.0153453 -0.0153327 -0.0149529 -0.0142575 -0.0132466 -0.0119202 -0.0104224 -0.00889777 -0.00734615 -0.00576757 -0.00429379 -0.00305656 -0.00205588 -0.00129174 -0.000726601 -0.000322934 -8.07335e-05 0 0 6.54492e-06 2.61797e-05 5.89043e-05 0.000104719 0.000124911 8.07703e-05 -2.77043e-05 -0.000200513 -0.000467228 -0.000857423 -0.0013711 -0.00200825 -0.00275709 -0.00360582 -0.00455443 -0.00560294 -0.00672867 -0.00790897 -0.00914383 -0.0104333 -0.0117671 -0.0131351 -0.0145372 -0.0159736 -0.0174399 -0.0189321 -0.02045 -0.0219938 -0.0235353 -0.0250465 -0.0265274 -0.0279781 -0.0293369 -0.0305422 -0.031594 -0.0324922 -0.0331832 -0.0336128 -0.0337813 -0.0336886 -0.0333511 -0.0327853 -0.0319913 -0.0309691 -0.0298179 -0.0286372 -0.027427 -0.0261873 -0.0250262 -0.0240521 -0.023265 -0.0226648 -0.0222602 -0.0220598 -0.0220637 -0.0222718 -0.0225558 -0.022787 -0.0229655 -0.0230914 -0.0229917 -0.0224935 -0.0215969 -0.0203019 -0.0185553 -0.0163039 -0.0135476 -0.0102865 -0.00666965 -0.00284609 0.00118419 0.00542117 0.00962478 0.0135549 0.0172116 0.0205948 0.0235913 0.0260877 0.0280841 0.0295805 0.0306723 0.0314548 0.0319281 0.0320922 0.0320933 0.032078 0.032046 0.0319975 0.0319286 0.0318355 0.0317181 0.0315766 0.0312681 0.03065 0.0297223 0.028485 0.0268646 0.0247874 0.0222536 0.0192632 0.0159512 0.0124527 0.00876785 0.00489653 0.00108198 -0.00243259 -0.00564719 -0.00856182 -0.0110375 -0.0129352 -0.0142551 -0.014997 -0.0152191 -0.0149796 -0.0142784 -0.0131156 -0.0116716 -0.0101267 -0.00848102 -0.00673448 -0.00506401 -0.00364648 -0.00248191 -0.00157029 -0.000883287 -0.000392572 -9.8143e-05 0 0 -4.60193e-07 -1.84077e-06 -4.14174e-06 -7.36309e-06 -5.45959e-05 -0.000188931 -0.000410369 -0.00071891 -0.00113643 -0.00168481 -0.00236404 -0.00317412 -0.00409491 -0.00510623 -0.00620809 -0.00740049 -0.0086575 -0.00995319 -0.0112876 -0.0126606 -0.0140671 -0.0155017 -0.0169644 -0.0184552 -0.0199777 -0.0215355 -0.0231285 -0.0247567 -0.0263924 -0.0280078 -0.0296027 -0.0311774 -0.03266 -0.0339788 -0.035134 -0.0361254 -0.0368898 -0.0373639 -0.0375478 -0.0374414 -0.037066 -0.0364431 -0.0355726 -0.0344546 -0.0332059 -0.0319434 -0.0306671 -0.029377 -0.0281912 -0.0272279 -0.0264871 -0.0259687 -0.0256631 -0.0255604 -0.0256607 -0.0259639 -0.0262961 -0.0264831 -0.0265251 -0.0264219 -0.0259557 -0.0249086 -0.0232806 -0.0210716 -0.0182214 -0.0146695 -0.010416 -0.0054608 -1.37806e-06 0.00576491 0.0118381 0.0182181 0.0245864 0.0306246 0.0363325 0.0417101 0.0465884 0.0507981 0.0543392 0.0572117 0.0595046 0.0613068 0.0626182 0.063439 0.0639325 0.0642623 0.0644284 0.0644308 0.0642673 0.0639357 0.0634361 0.0627683 0.0617766 0.0603049 0.0583533 0.0559218 0.0529468 0.049365 0.0451762 0.0403806 0.0351682 0.0297293 0.0240638 0.0181718 0.0123688 0.00697041 0.00197666 -0.00261246 -0.00661568 -0.00985173 -0.0123206 -0.0140223 -0.0150221 -0.0153852 -0.0151118 -0.0142016 -0.0128768 -0.011359 -0.00964841 -0.00774491 -0.00587794 -0.00427688 -0.00294174 -0.00187252 -0.00105329 -0.000468131 -0.000117033 0 0 -9.24678e-06 -3.69871e-05 -8.3221e-05 -0.000147948 -0.000277698 -0.000518998 -0.000871848 -0.00133625 -0.0019224 -0.00264049 -0.00349053 -0.00447251 -0.00555522 -0.00670745 -0.0079292 -0.00922047 -0.0105519 -0.011894 -0.0132469 -0.0146105 -0.0159873 -0.0173799 -0.0187882 -0.0202123 -0.0216679 -0.0231707 -0.0247209 -0.0263183 -0.0279387 -0.0295576 -0.031175 -0.0327911 -0.0343244 -0.0356939 -0.0368995 -0.0379412 -0.0387459 -0.0392403 -0.0394244 -0.0392982 -0.0388887 -0.0382227 -0.0373002 -0.0361213 -0.0348215 -0.0335362 -0.0322656 -0.0310096 -0.0298944 -0.0290462 -0.0284651 -0.028151 -0.0280689 -0.0281837 -0.0284955 -0.0290042 -0.0294805 -0.0296949 -0.0296474 -0.0293381 -0.0284961 -0.0268508 -0.024402 -0.0211497 -0.0170258 -0.011962 -0.00595821 0.000985523 0.00861455 0.0166742 0.0251646 0.0340856 0.0430254 0.0515724 0.0597265 0.0674877 0.0746194 0.080885 0.0862845 0.0908179 0.0945643 0.0976029 0.0999337 0.101557 0.102654 0.103408 0.103818 0.103885 0.103608 0.102988 0.102024 0.100716 0.0988957 0.0963922 0.0932056 0.0893362 0.0847335 0.0793472 0.0731774 0.066224 0.058742 0.0509866 0.0429576 0.0346551 0.0264791 0.0188296 0.0117068 0.00511044 -0.000728861 -0.00558067 -0.009445 -0.0123218 -0.0142844 -0.0154057 -0.0156858 -0.0151248 -0.0139916 -0.0125551 -0.0108154 -0.00877247 -0.00671527 -0.00493273 -0.00342488 -0.00219169 -0.00123283 -0.000547923 -0.000136981 0 0 -1.98549e-05 -7.94195e-05 -0.000178694 -0.000317678 -0.000544696 -0.000908071 -0.0014078 -0.00204389 -0.00280968 -0.00369851 -0.00471038 -0.00584529 -0.00705743 -0.00830099 -0.00957597 -0.0108824 -0.0121871 -0.0134571 -0.0146924 -0.015893 -0.0170731 -0.018247 -0.0194148 -0.0205765 -0.0217664 -0.023019 -0.0243343 -0.0257122 -0.027137 -0.0285927 -0.0300793 -0.0315969 -0.0330563 -0.0343682 -0.0355328 -0.0365499 -0.0373363 -0.0378087 -0.0379669 -0.0378111 -0.0373744 -0.0366898 -0.0357575 -0.0345774 -0.0333045 -0.0320938 -0.0309453 -0.029859 -0.0289663 -0.0283983 -0.028155 -0.0282365 -0.0285735 -0.0290968 -0.0298065 -0.0307025 -0.0314884 -0.0318675 -0.03184 -0.0314057 -0.0302322 -0.0279867 -0.0246693 -0.02028 -0.0147418 -0.00797769 1.2345e-05 0.00922829 0.0193481 0.0300497 0.0413332 0.0531984 0.0651239 0.0765879 0.0875904 0.0981314 0.107894 0.116563 0.124137 0.130617 0.136069 0.14056 0.144089 0.146657 0.148467 0.149722 0.150422 0.150566 0.150159 0.149201 0.147694 0.145638 0.142847 0.139138 0.134509 0.128961 0.122459 0.114968 0.106488 0.0970198 0.0868922 0.0764355 0.0656494 0.0545341 0.043587 0.0333057 0.0236901 0.0147402 0.00674312 -1.40742e-05 -0.00553138 -0.0098088 -0.0129283 -0.014972 -0.0159397 -0.0158316 -0.0149695 -0.0136753 -0.0119491 -0.00979077 -0.00755565 -0.00559899 -0.00392079 -0.00252104 -0.00141809 -0.00063026 -0.000157565 0 0 -3.22845e-05 -0.000129138 -0.00029056 -0.000516552 -0.000855589 -0.00135615 -0.00201824 -0.00284184 -0.00379829 -0.00485887 -0.0060236 -0.00729248 -0.00860154 -0.00988685 -0.0111484 -0.0123862 -0.0135632 -0.0146426 -0.0156242 -0.0165081 -0.0173244 -0.0181031 -0.0188443 -0.0195479 -0.0202734 -0.0210804 -0.0219687 -0.0229385 -0.0239874 -0.0251131 -0.0263156 -0.0275949 -0.0288555 -0.0300018 -0.0310337 -0.0319514 -0.0326611 -0.0330691 -0.0331754 -0.0329801 -0.0325231 -0.0318446 -0.0309445 -0.0298228 -0.0286549 -0.027616 -0.0267062 -0.0259254 -0.0254069 -0.0252841 -0.0255568 -0.0262252 -0.027177 -0.0282999 -0.0295939 -0.031059 -0.0323198 -0.0330011 -0.0331028 -0.0326248 -0.0311638 -0.0283165 -0.0240827 -0.0184625 -0.0113693 -0.00271659 0.00749568 0.0192675 0.0321992 0.0458914 0.0603439 0.0755567 0.0908818 0.105671 0.119924 0.133641 0.146413 0.157832 0.167898 0.176609 0.184019 0.190177 0.195085 0.198741 0.201373 0.203206 0.20424 0.204476 0.203919 0.202576 0.200448 0.197533 0.193632 0.188541 0.182263 0.174795 0.166123 0.156227 0.145109 0.132768 0.119619 0.106076 0.0921393 0.0778089 0.0636927 0.0503986 0.0379266 0.0262768 0.0158003 0.00684807 -0.000579737 -0.00648316 -0.010954 -0.0140841 -0.0158735 -0.0163221 -0.0158106 -0.0147197 -0.0130494 -0.0107998 -0.0083991 -0.00627566 -0.00442948 -0.00286057 -0.00160907 -0.000715142 -0.000178786 0 0 -4.65356e-05 -0.000186142 -0.00041882 -0.000744569 -0.00121038 -0.00186324 -0.00270314 -0.0037301 -0.00488821 -0.00612157 -0.00743019 -0.00881407 -0.0101876 -0.011465 -0.0126465 -0.0137319 -0.0146802 -0.0154503 -0.0160422 -0.0164559 -0.0167413 -0.0169481 -0.0170765 -0.0171264 -0.0171888 -0.0173548 -0.0176242 -0.0179971 -0.0184898 -0.0191188 -0.0198838 -0.0207851 -0.0217221 -0.0225946 -0.0234024 -0.0241457 -0.0247202 -0.0250216 -0.0250499 -0.0248051 -0.0243348 -0.0236868 -0.0228611 -0.0218576 -0.0208728 -0.020103 -0.0195483 -0.0192086 -0.0192163 -0.0197036 -0.0206706 -0.0221173 -0.0238794 -0.0257928 -0.0278575 -0.0300735 -0.0319748 -0.0330956 -0.0334357 -0.0329953 -0.0312911 -0.02784 -0.022642 -0.0156971 -0.00690832 0.00382131 0.0164918 0.0311031 0.047168 0.0641992 0.0821966 0.10116 0.120299 0.138821 0.156727 0.174017 0.190176 0.204693 0.217565 0.228794 0.238413 0.246455 0.25292 0.257808 0.26137 0.263859 0.265273 0.265613 0.26489 0.263113 0.260284 0.256402 0.251248 0.244603 0.236467 0.22684 0.215725 0.203125 0.189039 0.173469 0.156922 0.139908 0.122427 0.10448 0.086796 0.0701083 0.0544164 0.0397203 0.0264426 0.0150058 0.00540993 -0.00234493 -0.00836142 -0.0127421 -0.015487 -0.0165961 -0.0165148 -0.0156882 -0.0141165 -0.0117996 -0.00924561 -0.00696274 -0.00495096 -0.00321028 -0.00180578 -0.00080257 -0.000200642 0 0 -6.23149e-05 -0.00024926 -0.000560834 -0.000997039 -0.00160109 -0.00241622 -0.00344241 -0.00467967 -0.0060389 -0.007431 -0.00885595 -0.0103138 -0.0116927 -0.012881 -0.0138787 -0.0146858 -0.0152566 -0.0155455 -0.0155524 -0.0152773 -0.014795 -0.01418 -0.0134326 -0.0125525 -0.011671 -0.0109191 -0.0102969 -0.00980441 -0.00948371 -