<?xml version="1.0"?> 
<VTKFile type="StructuredGrid" version="0.1"> 
<StructuredGrid WholeExtent="0 128 0 128 0 0"> 
<Piece Extent="0 128 0 128 0 0"> 
<PointData>
<DataArray type="Float32" Name="u" format="ascii" NumberOfComponents="1"> 
0 0 0 0 0 0 0 0 0 0 0 0 0 0 0 0 0 0 0 0 0 0 0 0 0 0 0 0 0 0 0 0 0 0 0 0 0 0 0 0 0 0 0 0 0 0 0 0 0 0 0 0 0 0 0 0 0 0 0 0 0 0 0 0 0 0 0 0 0 0 0 0 0 0 0 0 0 0 0 0 0 0 0 0 0 0 0 0 0 0 0 0 0 0 0 0 0 0 0 0 0 0 0 0 0 0 0 0 0 0 0 0 0 0 0 0 0 0 0 0 0 0 0 0 0 0 0 0 0 0 1.00053e-07 4.00211e-07 9.00474e-07 1.60084e-06 2.31655e-06 2.86284e-06 3.23972e-06 3.44717e-06 3.26677e-06 2.48012e-06 1.0872e-06 -9.11992e-07 -3.5524e-06 -6.86899e-06 -1.08618e-05 -1.55307e-05 -2.08471e-05 -2.67821e-05 -3.33357e-05 -4.0508e-05 -4.8208e-05 -5.63446e-05 -6.49179e-05 -7.39278e-05 -8.31889e-05 -9.25157e-05 -0.000101908 -0.000111366 -0.000120618 -0.00012939 -0.000137682 -0.000145495 -0.00015256 -0.000158606 -0.000163635 -0.000167647 -0.000170526 -0.000172159 -0.000172546 -0.000171686 -0.000169731 -0.00016683 -0.000162984 -0.000158192 -0.000152831 -0.000147274 -0.000141522 -0.000135574 -0.000129836 -0.000124712 -0.000120202 -0.000116306 -0.000113241 -0.000111222 -0.000110249 -0.000110322 -0.000111395 -0.000113421 -0.000116399 -0.000120329 -0.000125023 -0.00013029 -0.000136132 -0.000142546 -0.000149396 -0.000156541 -0.000163982 -0.000171719 -0.000179736 -0.000188019 -0.000196568 -0.000205382 -0.000214453 -0.000223771 -0.000233336 -0.000243148 -0.00025303 -0.000262808 -0.00027248 -0.000282047 -0.000291165 -0.000299488 -0.000307017 -0.000313752 -0.000319397 -0.000323658 -0.000326535 -0.000328028 -0.000328123 -0.000326803 -0.000324071 -0.000319925 -0.000314627 -0.00030844 -0.000301363 -0.000293396 -0.000284842 -0.000276003 -0.000266879 -0.00025747 -0.000247894 -0.000238267 -0.000228589 -0.00021886 -0.000209003 -0.000198938 -0.000188667 -0.000178188 -0.000167408 -0.000156232 -0.00014466 -0.000132691 -0.000120422 -0.000107945 -9.52624e-05 -8.23727e-05 -6.96928e-05 -5.76393e-05 -4.62121e-05 -3.54113e-05 -2.57834e-05 -1.78752e-05 -1.16867e-05 -7.21793e-06 -4.06009e-06 -1.80448e-06 -4.51121e-07 0 0 4.00211e-07 1.60084e-06 3.6019e-06 6.40337e-06 9.26621e-06 1.14514e-05 1.29589e-05 1.37887e-05 1.30671e-05 9.92047e-06 4.34878e-06 -3.64797e-06 -1.42096e-05 -2.7476e-05 -4.3447e-05 -6.21228e-05 -8.33883e-05 -0.000107128 -0.000133343 -0.000162032 -0.000192832 -0.000225378 -0.000259672 -0.000295711 -0.000332756 -0.000370063 -0.000407633 -0.000445466 -0.000482472 -0.000517559 -0.000550729 -0.000581981 -0.000610239 -0.000634426 -0.000654542 -0.000670587 -0.000682104 -0.000688636 -0.000690183 -0.000686745 -0.000678923 -0.00066732 -0.000651936 -0.00063277 -0.000611323 -0.000589095 -0.000566086 -0.000542296 -0.000519344 -0.000498848 -0.000480808 -0.000465225 -0.000452963 -0.000444886 -0.000440995 -0.000441289 -0.000445581 -0.000453682 -0.000465595 -0.000481317 -0.000500092 -0.000521162 -0.000544526 -0.000570186 -0.000597584 -0.000626165 -0.000655928 -0.000686874 -0.000718943 -0.000752075 -0.000786271 -0.000821529 -0.000857813 -0.000895085 -0.000933344 -0.000972591 -0.00101212 -0.00105123 -0.00108992 -0.00112819 -0.00116466 -0.00119795 -0.00122807 -0.00125501 -0.00127759 -0.00129463 -0.00130614 -0.00131211 -0.00131249 -0.00130721 -0.00129628 -0.0012797 -0.00125851 -0.00123376 -0.00120545 -0.00117358 -0.00113937 -0.00110401 -0.00106752 -0.00102988 -0.000991575 -0.000953067 -0.000914355 -0.000875441 -0.000836012 -0.000795754 -0.000754668 -0.000712753 -0.000669633 -0.000624928 -0.000578639 -0.000530766 -0.000481687 -0.000431782 -0.00038105 -0.000329491 -0.000278771 -0.000230557 -0.000184848 -0.000141645 -0.000103134 -7.15009e-05 -4.6747e-05 -2.88717e-05 -1.62404e-05 -7.21793e-06 -1.80448e-06 0 0 9.00474e-07 3.6019e-06 8.10426e-06 1.44076e-05 2.0849e-05 2.57656e-05 2.91574e-05 3.10245e-05 2.9401e-05 2.23211e-05 9.78476e-06 -8.20793e-06 -3.19716e-05 -6.18209e-05 -9.77558e-05 -0.000139776 -0.000187624 -0.000241039 -0.000300022 -0.000364572 -0.000433872 -0.000507101 -0.000584261 -0.00066535 -0.0007487 -0.000832641 -0.000917174 -0.0010023 -0.00108556 -0.00116451 -0.00123914 -0.00130946 -0.00137304 -0.00142746 -0.00147272 -0.00150882 -0.00153473 -0.00154943 -0.00155291 -0.00154518 -0.00152758 -0.00150147 -0.00146686 -0.00142373 -0.00137548 -0.00132546 -0.00127369 -0.00122017 -0.00116852 -0.00112241 -0.00108182 -0.00104676 -0.00101917 -0.00100099 -0.000992238 -0.0009929 -0.00100256 -0.00102079 -0.00104759 -0.00108296 -0.00112521 -0.00117261 -0.00122518 -0.00128292 -0.00134456 -0.00140887 -0.00147584 -0.00154547 -0.00161762 -0.00169217 -0.00176911 -0.00184844 -0.00193008 -0.00201394 -0.00210002 -0.00218833 -0.00227727 -0.00236527 -0.00245232 -0.00253843 -0.00262049 -0.0026954 -0.00276316 -0.00282377 -0.00287457 -0.00291292 -0.00293882 -0.00295226 -0.0029531 -0.00294123 -0.00291664 -0.00287932 -0.00283164 -0.00277596 -0.00271226 -0.00264056 -0.00256358 -0.00248403 -0.00240191 -0.00231723 -0.00223104 -0.0021444 -0.0020573 -0.00196974 -0.00188103 -0.00179045 -0.001698 -0.0016037 -0.00150667 -0.00140609 -0.00130194 -0.00119422 -0.0010838 -0.000971509 -0.000857361 -0.000741354 -0.000627236 -0.000518754 -0.000415909 -0.000318701 -0.000232051 -0.000160877 -0.000105181 -6.49614e-05 -3.65408e-05 -1.62404e-05 -4.06009e-06 0 0 1.60084e-06 6.40337e-06 1.44076e-05 2.56135e-05 3.70649e-05 4.58055e-05 5.18355e-05 5.51547e-05 5.22684e-05 3.96819e-05 1.73951e-05 -1.45919e-05 -5.68384e-05 -0.000109904 -0.000173788 -0.000248491 -0.000333553 -0.000428513 -0.000533372 -0.000648129 -0.000771328 -0.000901514 -0.00103869 -0.00118284 -0.00133102 -0.00148025 -0.00163053 -0.00178186 -0.00192989 -0.00207024 -0.00220292 -0.00232792 -0.00244096 -0.0025377 -0.00261817 -0.00268235 -0.00272842 -0.00275454 -0.00276073 -0.00274698 -0.00271569 -0.00266928 -0.00260774 -0.00253108 -0.00244529 -0.00235638 -0.00226434 -0.00216918 -0.00207737 -0.00199539 -0.00192323 -0.0018609 -0.00181185 -0.00177955 -0.00176398 -0.00176516 -0.00178232 -0.00181473 -0.00186238 -0.00192527 -0.00200037 -0.00208465 -0.00217811 -0.00228074 -0.00239034 -0.00250466 -0.00262371 -0.0027475 -0.00287577 -0.0030083 -0.00314508 -0.00328612 -0.00343125 -0.00358034 -0.00373338 -0.00389036 -0.00404848 -0.00420492 -0.00435968 -0.00451276 -0.00465864 -0.00479181 -0.00491228 -0.00502003 -0.00511035 -0.00517853 -0.00522457 -0.00524845 -0.00524996 -0.00522885 -0.00518513 -0.00511879 -0.00503403 -0.00493503 -0.0048218 -0.00469433 -0.00455747 -0.00441605 -0.00427007 -0.00411953 -0.0039663 -0.00381227 -0.00365742 -0.00350176 -0.00334405 -0.00318302 -0.00301867 -0.00285101 -0.00267853 -0.00249971 -0.00231456 -0.00212306 -0.00192675 -0.00172713 -0.0015242 -0.00131796 -0.00111509 -0.000922229 -0.000739394 -0.00056658 -0.000412534 -0.000286004 -0.000186988 -0.000115487 -6.49614e-05 -2.88717e-05 -7.21793e-06 0 0 2.23207e-06 8.92826e-06 2.00886e-05 3.57131e-05 5.11616e-05 6.17941e-05 6.76105e-05 6.8611e-05 5.96101e-05 3.54224e-05 -3.95204e-06 -5.85132e-05 -0.000129039 -0.000216306 -0.000320315 -0.000441067 -0.000577822 -0.000729843 -0.000897129 -0.00107968 -0.00127524 -0.00148153 -0.00169857 -0.00192634 -0.00216023 -0.00239562 -0.00263249 -0.00287087 -0.00310392 -0.00332484 -0.00353363 -0.00373029 -0.00390809 -0.00406031 -0.00418695 -0.00428802 -0.00436068 -0.00440213 -0.00441235 -0.00439136 -0.00434296 -0.00427098 -0.00417542 -0.00405628 -0.00392295 -0.00378482 -0.00364187 -0.00349413 -0.00335157 -0.00322419 -0.00311199 -0.00301497 -0.00293823 -0.00288689 -0.00286094 -0.00286037 -0.00288363 -0.00292911 -0.00299684 -0.0030868 -0.00319392 -0.00331311 -0.00344438 -0.00358773 -0.0037396 -0.00389646 -0.0040583 -0.00422512 -0.00439692 -0.00457369 -0.00475541 -0.0049421 -0.00513429 -0.00533251 -0.00553675 -0.00574702 -0.00595984 -0.00617174 -0.00638273 -0.00659279 -0.00679408 -0.00697872 -0.00714672 -0.00729808 -0.00742579 -0.00752285 -0.00758926 -0.00762503 -0.0076297 -0.00760286 -0.00754449 -0.00745459 -0.00733926 -0.00720456 -0.00705049 -0.00687707 -0.00669106 -0.00649927 -0.0063017 -0.00609835 -0.00589126 -0.00568249 -0.00547205 -0.00525993 -0.00504347 -0.00482001 -0.00458957 -0.00435213 -0.00410501 -0.00384555 -0.00357374 -0.00328958 -0.00299554 -0.00269409 -0.00238523 -0.00206896 -0.00175601 -0.00145711 -0.00117226 -0.000901467 -0.000658981 -0.000459068 -0.000301728 -0.000186961 -0.000105166 -4.67403e-05 -1.16851e-05 0 0 2.52489e-06 1.00996e-05 2.27241e-05 4.03983e-05 5.63869e-05 6.39542e-05 6.31004e-05 5.38253e-05 2.93666e-05 -1.7038e-05 -8.53887e-05 -0.000175685 -0.000288801 -0.000425609 -0.000586109 -0.000770301 -0.000977075 -0.00120532 -0.00145503 -0.00172621 -0.00201564 -0.00232007 -0.00263952 -0.00297398 -0.00331683 -0.00366146 -0.00400785 -0.00435601 -0.00469614 -0.00501842 -0.00532285 -0.00560944 -0.00586852 -0.00609042 -0.00627514 -0.00642267 -0.00652906 -0.00659033 -0.00660648 -0.00657751 -0.00650907 -0.00640681 -0.00627072 -0.00610082 -0.00591065 -0.00571374 -0.00551012 -0.00529977 -0.00509676 -0.00491518 -0.00475501 -0.00461626 -0.00450552 -0.00442937 -0.00438783 -0.00438087 -0.00440521 -0.00445754 -0.00453784 -0.00464613 -0.0047742 -0.00491386 -0.0050651 -0.00522793 -0.00539705 -0.00556719 -0.00573835 -0.00591051 -0.00608461 -0.00626154 -0.00644133 -0.00662395 -0.00681215 -0.00700866 -0.00721348 -0.00742661 -0.00764542 -0.00786728 -0.00809218 -0.00832014 -0.00854175 -0.00874763 -0.00893778 -0.00911221 -0.00926175 -0.00937728 -0.0094588 -0.00950629 -0.00951896 -0.009496 -0.00943741 -0.0093432 -0.0092209 -0.00907809 -0.00891477 -0.00873092 -0.00853437 -0.00833291 -0.00812655 -0.00791528 -0.00769983 -0.00748091 -0.00725851 -0.00703265 -0.00679769 -0.006548 -0.00628359 -0.00600445 -0.00570593 -0.00538336 -0.00503674 -0.00466607 -0.00427518 -0.00386787 -0.00344414 -0.003004 -0.00256371 -0.00213954 -0.00173148 -0.00133955 -0.000985786 -0.000692258 -0.000458962 -0.000285897 -0.000160817 -7.14743e-05 -1.78686e-05 0 0 2.47933e-06 9.91732e-06 2.2314e-05 3.96693e-05 5.27408e-05 5.2286e-05 3.83049e-05 1.07976e-05 -3.84619e-05 -0.000117699 -0.000226915 -0.000366108 -0.000536126 -0.000737813 -0.000971169 -0.0012362 -0.00153131 -0.00185494 -0.00220708 -0.00258772 -0.00299253 -0.00341714 -0.00386155 -0.00432577 -0.00480083 -0.00527777 -0.00575659 -0.0062373 -0.00670653 -0.00715096 -0.00757058 -0.00796539 -0.00832226 -0.00862803 -0.00888272 -0.00908632 -0.00923356 -0.00931915 -0.00934311 -0.00930544 -0.00921402 -0.00907676 -0.00889365 -0.00866469 -0.00840837 -0.00814317 -0.00786908 -0.00758611 -0.00731297 -0.00706837 -0.00685231 -0.00666478 -0.00651371 -0.006407 -0.00634465 -0.00632666 -0.00634709 -0.0064 -0.00648539 -0.00660326 -0.00674122 -0.00688689 -0.00704027 -0.00720135 -0.0073627 -0.00751687 -0.00766385 -0.00780366 -0.00793882 -0.00807187 -0.00820282 -0.00833165 -0.00846483 -0.00860881 -0.00876358 -0.00892915 -0.00910523 -0.00929153 -0.00948805 -0.00969479 -0.00990165 -0.0100985 -0.0102855 -0.0104624 -0.0106182 -0.0107418 -0.0108332 -0.0108923 -0.0109177 -0.0109083 -0.0108639 -0.0107846 -0.010679 -0.0105556 -0.0104146 -0.0102559 -0.0100874 -0.00991696 -0.00974461 -0.00957034 -0.00939201 -0.0092075 -0.00901681 -0.00881993 -0.0086067 -0.00836697 -0.00810073 -0.00780798 -0.00748127 -0.00711313 -0.00670355 -0.00625254 -0.00576566 -0.00524845 -0.00470092 -0.00412307 -0.00353817 -0.0029695 -0.00241705 -0.00188082 -0.00139295 -0.000985573 -0.000658688 -0.000412295 -0.000231916 -0.000103074 -2.57684e-05 0 0 2.09537e-06 8.38147e-06 1.88583e-05 3.35259e-05 4.02232e-05 2.67893e-05 -6.7758e-06 -6.04722e-05 -0.000143875 -0.000266562 -0.00042853 -0.000629782 -0.000871012 -0.00115292 -0.0014755 -0.00183875 -0.00224053 -0.00267871 -0.00315326 -0.00366421 -0.00420591 -0.00477273 -0.00536466 -0.00598171 -0.00661223 -0.00724457 -0.00787873 -0.00851472 -0.00913511 -0.00972248 -0.0102768 -0.0107981 -0.0112693 -0.0116732 -0.0120097 -0.012279 -0.0124742 -0.0125886 -0.0126223 -0.0125751 -0.0124578 -0.0122808 -0.0120442 -0.0117479 -0.0114161 -0.0110731 -0.0107188 -0.0103532 -0.0100002 -0.00968376 -0.00940388 -0.00916054 -0.00896281 -0.00881977 -0.0087314 -0.00869772 -0.00870925 -0.0087565 -0.00883948 -0.00895818 -0.00909498 -0.00923221 -0.00936988 -0.009508 -0.00963654 -0.00974548 -0.00983482 -0.00990457 -0.00995957 -0.0100047 -0.0100399 -0.0100652 -0.0100923 -0.0101329 -0.010187 -0.0102546 -0.0103393 -0.0104445 -0.0105703 -0.0107167 -0.0108738 -0.0110315 -0.0111898 -0.0113487 -0.0114953 -0.0116165 -0.0117124 -0.0117829 -0.011826 -0.0118397 -0.011824 -0.0117788 -0.0117134 -0.0116372 -0.0115501 -0.011452 -0.0113501 -0.0112514 -0.0111559 -0.0110635 -0.0109678 -0.0108623 -0.0107469 -0.0106218 -0.0104705 -0.0102769 -0.010041 -0.00976273 -0.00943105 -0.00903486 -0.00857417 -0.00804898 -0.00746697 -0.00683584 -0.00615557 -0.00542618 -0.0046794 -0.003947 -0.00322896 -0.00252528 -0.00188047 -0.00133901 -0.000900907 -0.000566154 -0.000318461 -0.000141538 -3.53846e-05 0 0 1.00139e-06 4.00557e-06 9.01253e-06 1.60223e-05 9.81118e-06 -2.48444e-05 -8.79445e-05 -0.000179489 -0.000309648 -0.000488592 -0.000716322 -0.000992836 -0.00131828 -0.00169279 -0.00211637 -0.00258902 -0.00310793 -0.00367032 -0.00427618 -0.0049255 -0.00561147 -0.00632728 -0.00707292 -0.00784839 -0.00863948 -0.00943197 -0.0102259 -0.0110212 -0.0117964 -0.01253 -0.0132221 -0.0138725 -0.0144602 -0.014964 -0.0153838 -0.0157196 -0.0159634 -0.016107 -0.0161505 -0.0160938 -0.0159506 -0.0157342 -0.0154448 -0.0150823 -0.0146769 -0.0142587 -0.0138278 -0.013384 -0.0129564 -0.0125736 -0.0122357 -0.0119427 -0.0117037 -0.0115279 -0.0114151 -0.0113654 -0.0113642 -0.0113965 -0.0114624 -0.0115619 -0.0116705 -0.0117637 -0.0118415 -0.0119039 -0.0119378 -0.0119302 -0.0118812 -0.0117906 -0.0116671 -0.0115192 -0.011347 -0.0111505 -0.0109497 -0.0107645 -0.0105949 -0.010441 -0.0103136 -0.0102236 -0.0101709 -0.0101556 -0.0101703 -0.0102077 -0.0102678 -0.0103505 -0.0104421 -0.0105288 -0.0106106 -0.0106875 -0.0107564 -0.0108144 -0.0108616 -0.0108978 -0.0109316 -0.0109717 -0.0110179 -0.0110703 -0.0111326 -0.0112084 -0.0112977 -0.0114005 -0.0115027 -0.0115902 -0.011663 -0.0117211 -0.0117393 -0.0116925 -0.0115807 -0.0114038 -0.0111459 -0.0107907 -0.0103385 -0.00978911 -0.00915285 -0.00843998 -0.0076505 -0.00678441 -0.00588371 -0.0049904 -0.00410448 -0.00322596 -0.00241435 -0.00172917 -0.00117044 -0.000738148 -0.000415208 -0.000184537 -4.61342e-05 0 0 -1.17422e-06 -4.69687e-06 -1.0568e-05 -1.87875e-05 -4.75185e-05 -0.000114924 -0.000221004 -0.000365758 -0.000558554 -0.00080876 -0.00111637 -0.0014814 -0.00190274 -0.00237929 -0.00291106 -0.00349805 -0.00413671 -0.00482349 -0.00555839 -0.00634141 -0.00716491 -0.00802125 -0.00891042 -0.00983242 -0.0107711 -0.0117101 -0.0126496 -0.0135895 -0.0145049 -0.0153706 -0.0161868 -0.0169534 -0.0176456 -0.0182386 -0.0187325 -0.0191272 -0.0194137 -0.0195827 -0.0196344 -0.0195688 -0.0194024 -0.0191522 -0.018818 -0.0183999 -0.0179337 -0.0174553 -0.0169647 -0.0164619 -0.0159795 -0.0155501 -0.0151738 -0.0148505 -0.0145874 -0.0143914 -0.0142627 -0.0142012 -0.0141843 -0.0141893 -0.0142164 -0.0142654 -0.0143029 -0.0142953 -0.0142427 -0.0141451 -0.0139858 -0.0137484 -0.0134328 -0.013039 -0.0125815 -0.0120748 -0.0115188 -0.0109135 -0.0102919 -0.0096868 -0.00909823 -0.00852619 -0.00799427 -0.00752609 -0.00712165 -0.00678093 -0.00650345 -0.00628871 -0.00613669 -0.00604741 -0.00600821 -0.00600643 -0.00604207 -0.00611515 -0.00622138 -0.00635651 -0.00652053 -0.00671346 -0.00694076 -0.00720794 -0.00751499 -0.00786191 -0.00824486 -0.00866 -0.00910735 -0.00958689 -0.010072 -0.010536 -0.0109789 -0.0114008 -0.0117634 -0.0120285 -0.0121962 -0.0122664 -0.0122163 -0.0120229 -0.0116864 -0.0112066 -0.010597 -0.00987083 -0.00902811 -0.00806886 -0.0070474 -0.00601808 -0.0049809 -0.00393586 -0.00296057 -0.00213265 -0.00145211 -0.000918951 -0.00051691 -0.000229738 -5.74344e-05 0 0 -4.43146e-06 -1.77259e-05 -3.98832e-05 -7.09034e-05 -0.000131766 -0.000243449 -0.000405954 -0.000619279 -0.000890593 -0.00122706 -0.00162869 -0.00209547 -0.00262439 -0.00321243 -0.00385958 -0.00456585 -0.00532685 -0.0061382 -0.0069999 -0.00791195 -0.00886623 -0.00985463 -0.0108772 -0.0119338 -0.013007 -0.014079 -0.01515 -0.0162198 -0.0172606 -0.0182443 -0.019171 -0.0200407 -0.0208254 -0.0214972 -0.022056 -0.0225019 -0.022825 -0.0230158 -0.0230741 -0.0229999 -0.0228134 -0.0225347 -0.0221638 -0.0217006 -0.0211865 -0.0206629 -0.0201296 -0.0195867 -0.0190695 -0.0186133 -0.0182181 -0.017884 -0.0176138 -0.0174105 -0.0172743 -0.017205 -0.0171696 -0.0171351 -0.0171014 -0.0170687 -0.0169921 -0.0168271 -0.0165736 -0.0162316 -0.0157806 -0.0151999 -0.0144897 -0.0136499 -0.0127029 -0.0116713 -0.010555 -0.00935413 -0.00811896 -0.00689992 -0.005697 -0.00451021 -0.00338132 -0.00235211 -0.00142259 -0.000592747 0.00012684 0.000725603 0.00120354 0.00156065 0.00180652 0.0019507 0.00199321 0.00193404 0.00177905 0.00153406 0.0011991 0.000774144 0.00025913 -0.000346022 -0.00104131 -0.00182675 -0.00268687 -0.00360626 -0.00458489 -0.00562279 -0.00667581 -0.00769983 -0.00869486 -0.0096609 -0.0105427 -0.0112848 -0.0118874 -0.0123504 -0.0126423 -0.0127315 -0.0126179 -0.0123016 -0.0117994 -0.0111284 -0.0102884 -0.00927952 -0.00817048 -0.00703004 -0.0058582 -0.00465498 -0.00351913 -0.00254945 -0.00174592 -0.00110856 -0.000623567 -0.000277141 -6.92852e-05 0 0 -8.77035e-06 -3.50814e-05 -7.89331e-05 -0.000140326 -0.000242931 -0.00041042 -0.000642794 -0.000940053 -0.00130577 -0.0017435 -0.00225327 -0.00283505 -0.00348324 -0.00419219 -0.00496192 -0.00579242 -0.00667837 -0.00761447 -0.00860072 -0.00963711 -0.0107154 -0.0118274 -0.0129731 -0.0141525 -0.0153472 -0.0165386 -0.0177269 -0.018912 -0.0200635 -0.0211511 -0.0221747 -0.0231345 -0.0239997 -0.0247396 -0.0253542 -0.0258435 -0.0261975 -0.0264061 -0.0264694 -0.0263873 -0.0261835 -0.0258818 -0.0254821 -0.0249845 -0.0244354 -0.0238814 -0.0233224 -0.0227584 -0.0222264 -0.0217632 -0.0213687 -0.021043 -0.0207829 -0.0205851 -0.0204498 -0.0203768 -0.0203201 -0.0202337 -0.0201176 -0.0199717 -0.0197381 -0.0193589 -0.018834 -0.0181634 -0.017322 -0.0162849 -0.0150519 -0.0136232 -0.0120313 -0.0103088 -0.00845589 -0.00647241 -0.0044309 -0.00240384 -0.000391222 0.00160694 0.00352528 0.00529839 0.00692628 0.00840896 0.00972055 0.0108352 0.0117529 0.0124737 0.013002 0.0133426 0.0134953 0.0134601 0.0132449 0.0128573 0.0122973 0.011565 0.0106681 0.00961409 0.00840312 0.00703515 0.00554134 0.00395286 0.00226969 0.00049185 -0.00131411 -0.00308164 -0.00481074 -0.0065014 -0.00807715 -0.0094615 -0.0106544 -0.011656 -0.012424 -0.0129163 -0.0131329 -0.0130739 -0.0127601 -0.0122126 -0.0114314 -0.0104164 -0.00925294 -0.00802627 -0.00673639 -0.00538332 -0.00409004 -0.00297956 -0.00205187 -0.00130698 -0.000735178 -0.000326746 -8.16865e-05 0 0 -1.42118e-05 -5.68473e-05 -0.000127907 -0.000227389 -0.000381236 -0.000615388 -0.000929845 -0.00132461 -0.00179775 -0.00234735 -0.00297341 -0.00367592 -0.00444563 -0.00527325 -0.00615879 -0.00710224 -0.00809723 -0.00913737 -0.0102227 -0.0113531 -0.0125211 -0.013719 -0.0149467 -0.0162044 -0.017474 -0.0187376 -0.0199951 -0.0212466 -0.0224608 -0.0236062 -0.024683 -0.0256912 -0.0265985 -0.0273727 -0.0280139 -0.0285221 -0.0288877 -0.0291012 -0.0291625 -0.0290717 -0.0288562 -0.0285437 -0.028134 -0.0276271 -0.027074 -0.0265254 -0.0259814 -0.025442 -0.0249434 -0.0245219 -0.0241775 -0.0239102 -0.0237073 -0.0235562 -0.0234569 -0.0234093 -0.0233508 -0.0232186 -0.0230127 -0.0227331 -0.0223057 -0.0216563 -0.0207849 -0.0196916 -0.0183462 -0.0167184 -0.0148083 -0.0126159 -0.010187 -0.00756714 -0.00475645 -0.0017549 0.00133668 0.00441745 0.00748743 0.0105466 0.0134988 0.0162479 0.0187938 0.0211366 0.0232299 0.0250272 0.0265285 0.0277339 0.0286407 0.0292462 0.0295504 0.0295532 0.0292647 0.0286949 0.0278437 0.0267112 0.0253155 0.0236744 0.0217881 0.0196564 0.0173314 0.0148646 0.0122562 0.00950621 0.00670986 0.00396255 0.00126425 -0.00138502 -0.00388217 -0.00612409 -0.0081108 -0.00984228 -0.0112634 -0.0123189 -0.0130089 -0.0133334 -0.013318 -0.0129885 -0.0123449 -0.0113872 -0.0102197 -0.00894688 -0.00756874 -0.00608526 -0.00464698 -0.00340443 -0.00235759 -0.00150649 -0.000847399 -0.000376622 -9.41555e-05 0 0 -2.07769e-05 -8.31076e-05 -0.000186992 -0.00033243 -0.000546907 -0.000857904 -0.00126542 -0.00176947 -0.00236022 -0.00302787 -0.00377241 -0.00459386 -0.0054779 -0.00641024 -0.00739088 -0.00841981 -0.0094894 -0.010592 -0.0117276 -0.0128962 -0.0140918 -0.0153085 -0.0165463 -0.0178052 -0.0190698 -0.0203245 -0.0215693 -0.0228043 -0.0239996 -0.0251251 -0.026181 -0.0271671 -0.0280519 -0.0288036 -0.0294222 -0.0299077 -0.0302523 -0.0304482 -0.0304955 -0.030394 -0.0301753 -0.0298708 -0.0294804 -0.0290042 -0.028496 -0.0280096 -0.027545 -0.0271021 -0.0267135 -0.0264117 -0.0261965 -0.0260681 -0.0259998 -0.0259648 -0.0259633 -0.0259953 -0.0259765 -0.0258229 -0.0255345 -0.0251113 -0.0244593 -0.0234847 -0.0221874 -0.0205675 -0.018589 -0.0162157 -0.0134478 -0.0102852 -0.00679037 -0.00302594 0.00100813 0.00531185 0.00974814 0.0141799 0.0186073 0.0230301 0.0273126 0.0313188 0.0350488 0.0385026 0.0416069 0.0442886 0.0465475 0.0483838 0.049785 0.0507386 0.0512448 0.0513034 0.0509271 0.0501286 0.0489079 0.0472648 0.0452308 0.0428369 0.0400832 0.0369698 0.0335747 0.0299763 0.0261746 0.0221695 0.0180929 0.0140767 0.0101209 0.00622553 0.002527 -0.000838205 -0.00387007 -0.00656861 -0.00886259 -0.0106808 -0.0120232 -0.0128898 -0.0133119 -0.0133209 -0.0129168 -0.0120994 -0.0109956 -0.00973198 -0.00830849 -0.00672517 -0.00516363 -0.00380548 -0.00265072 -0.00169935 -0.000955884 -0.000424837 -0.000106209 0 0 -2.84656e-05 -0.000113862 -0.00025619 -0.000455449 -0.000739941 -0.00113797 -0.00164953 -0.00227463 -0.00299317 -0.00378506 -0.00465028 -0.00558885 -0.00658005 -0.00760317 -0.00865819 -0.00974513 -0.0108549 -0.0119783 -0.0131154 -0.0142663 -0.0154276 -0.0165961 -0.0177719 -0.018955 -0.0201344 -0.0212993 -0.0224495 -0.0235851 -0.0246799 -0.0257077 -0.0266686 -0.0275624 -0.02836 -0.0290322 -0.029579 -0.0300003 -0.0302913 -0.0304473 -0.0304683 -0.0303542 -0.0301407 -0.029863 -0.0295214 -0.0291158 -0.0287015 -0.0283339 -0.028013 -0.0277388 -0.0275368 -0.0274325 -0.0274258 -0.0275167 -0.0276601 -0.0278109 -0.0279691 -0.0281347 -0.0281974 -0.0280469 -0.0276832 -0.0271063 -0.0261991 -0.0248441 -0.0230414 -0.0207911 -0.0180504 -0.0147768 -0.0109703 -0.00663084 -0.00184148 0.00331476 0.00883787 0.0147278 0.0208035 0.0268836 0.0329683 0.0390574 0.0449665 0.0505111 0.0556913 0.0605069 0.0648517 0.0686194 0.0718099 0.0744232 0.0764347 0.0778198 0.0785785 0.0787108 0.0782322 0.0771586 0.0754897 0.0732258 0.070414 0.0671016 0.0632887 0.0589751 0.0542714 0.049288 0.0440247 0.0384816 0.032835 0.0272609 0.0217593 0.0163302 0.0111503 0.00639617 0.00206773 -0.00183498 -0.00522163 -0.00800187 -0.0101757 -0.0117431 -0.0127419 -0.0132099 -0.013147 -0.0125533 -0.0115808 -0.0103816 -0.00895566 -0.00730305 -0.00563999 -0.00418272 -0.00293125 -0.00188557 -0.00106063 -0.000471392 -0.000117848 0 0 -3.72778e-05 -0.000149111 -0.0003355 -0.000596444 -0.00096034 -0.00145558 -0.00208217 -0.00284011 -0.00369661 -0.00461892 -0.00560702 -0.00666092 -0.00775209 -0.00885203 -0.00996074 -0.0110782 -0.0121937 -0.0132964 -0.0143863 -0.0154634 -0.0165284 -0.0175818 -0.0186235 -0.0196537 -0.020668 -0.0216619 -0.0226356 -0.0235889 -0.0245017 -0.025354 -0.0261458 -0.0268769 -0.0275228 -0.0280585 -0.0284842 -0.0287998 -0.0290047 -0.0290985 -0.029081 -0.0289524 -0.0287523 -0.0285205 -0.028257 -0.0279618 -0.0276904 -0.0274984 -0.0273856 -0.0273521 -0.0274133 -0.0275843 -0.0278652 -0.0282559 -0.0286884 -0.0290945 -0.0294742 -0.0298275 -0.0300133 -0.0298903 -0.0294587 -0.0287183 -0.027525 -0.0257345 -0.023347 -0.0203623 -0.0167306 -0.0124018 -0.0073759 -0.00165299 0.00465972 0.011455 0.0187328 0.0264931 0.0345027 0.0425285 0.0505705 0.0586285 0.0664607 0.0738249 0.0807212 0.0871496 0.0929643 0.0980196 0.102316 0.105852 0.10859 0.11049 0.111552 0.111775 0.11118 0.109785 0.107589 0.104594 0.100865 0.0964685 0.0914043 0.0856726 0.0794215 0.0727995 0.0658066 0.0584427 0.0509361 0.043515 0.0361793 0.0289291 0.0219879 0.015579 0.00970262 0.00435861 -0.000340495 -0.00428219 -0.00746647 -0.00989335 -0.0116079 -0.0126553 -0.0130356 -0.0127486 -0.0119751 -0.0108956 -0.00951024 -0.00781891 -0.00607607 -0.00453616 -0.00319918 -0.00206514 -0.00116164 -0.000516286 -0.000129072 0 0 -4.69479e-05 -0.000187791 -0.000422531 -0.000751166 -0.00120109 -0.00179969 -0.00254698 -0.00344294 -0.00443936 -0.00548801 -0.00658888 -0.00774199 -0.00890917 -0.0100523 -0.0111713 -0.0122662 -0.0133243 -0.0143327 -0.0152915 -0.0162005 -0.0170659 -0.0178933 -0.0186829 -0.0194346 -0.0201537 -0.0208455 -0.02151 -0.0221473 -0.0227468 -0.0232983 -0.0238018 -0.0242572 -0.0246473 -0.0249551 -0.0251806 -0.0253236 -0.0253899 -0.0253849 -0.0253086 -0.0251611 -0.0249865 -0.024829 -0.0246885 -0.0245651 -0.0245124 -0.0245838 -0.0247795 -0.0250994 -0.0255441 -0.0261143 -0.02681 -0.0276311 -0.0284806 -0.0292614 -0.0299736 -0.030617 -0.0310139 -0.0309866 -0.030535 -0.0296591 -0.0281837 -0.0259338 -0.0229094 -0.0191104 -0.014479 -0.00895742 -0.0025457 0.0047562 0.0128121 0.0214859 0.0307775 0.040687 0.0509201 0.0611824 0.071474 0.0817948 0.0918362 0.101289 0.110154 0.118431 0.12593 0.13246 0.138021 0.142614 0.146183 0.148674 0.150085 0.150418 0.149694 0.147937 0.145147 0.141323 0.136553 0.130922 0.124431 0.11708 0.109059 0.100559 0.0915793 0.0821206 0.0724706 0.062917 0.05346 0.0440994 0.0351134 0.0267797 0.0190984 0.0120696 0.00583156 0.000522751 -0.00385684 -0.00730722 -0.00988163 -0.0116333 -0.0125622 -0.0126684 -0.0121643 -0.0112625 -0.00996279 -0.00826534 -0.00646627 -0.00486175 -0.00345177 -0.00223633 -0.00125793 -0.000559082 -0.000139771 0 0 -5.721e-05 -0.00022884 -0.00051489 -0.00091536 -0.00145517 -0.00215925 -0.00302759 -0.00406019 -0.00519023 -0.00635088 -0.00754214 -0.00876402 -0.00996643 -0.0110993 -0.0121626 -0.0131564 -0.0140653 -0.0148739 -0.0155824 -0.0161906 -0.0167117 -0.0171587 -0.0175317 -0.0178307 -0.0180748 -0.018283 -0.0184553 -0.0185918 -0.0186969 -0.0187748 -0.0188257 -0.0188494 -0.0188408 -0.0187946 -0.0187106 -0.018589 -0.018444 -0.0182896 -0.018126 -0.0179531 -0.0178196 -0.0177744 -0.0178174 -0.0179486 -0.018217 -0.0186713 -0.0193117 -0.0201381 -0.0211307 -0.0222698 -0.0235554 -0.0249874 -0.0264325 -0.0277574 -0.0289619 -0.0300462 -0.0307889 -0.030969 -0.0305862 -0.0296408 -0.0279222 -0.0252199 -0.021534 -0.0168644 -0.0111453 -0.0043108 0.00363915 0.0127045 0.0227146 0.0334988 0.045057 0.0573892 0.0701298 0.0829131 0.0957389 0.108607 0.121134 0.132934 0.144006 0.154352 0.163733 0.17191 0.178883 0.184653 0.189147 0.192296 0.1941 0.194558 0.193698 0.191546 0.188102 0.183367 0.177447 0.170448 0.162371 0.153216 0.143218 0.132613 0.121402 0.109583 0.0975125 0.0855449 0.0736802 0.0619184 0.0506005 0.0400674 0.030319 0.0213554 0.0133453 0.00645744 0.000691852 -0.00395148 -0.00753464 -0.0101197 -0.0117067 -0.0122956 -0.0121341 -0.0114702 -0.0103039 -0.00863498 -0.00680504 -0.00515546 -0.00368624 -0.00239737 -0.00134852 -0.000599343 -0.000149836 0 0 -6.80643e-05 -0.000272257 -0.000612579 -0.00108903 -0.00172259 -0.00253425 -0.003524 -0.00469185 -0.00594922 -0.00720753 -0.00846679 -0.009727 -0.0109239 -0.0119931 -0.0129347 -0.0137487 -0.0144166 -0.0149201 -0.0152591 -0.0154335 -0.0154657 -0.0153779 -0.01517 -0.0148421 -0.0144312 -0.0139743 -0.0134714 -0.0129225 -0.0123518 -0.0117835 -0.0112175 -0.0106538 -0.0101033 -0.00957682 -0.00907441 -0.00859605 -0.00816706 -0.00781277 -0.00753318 -0.00732829 -0.00725163 -0.00735673 -0.0076436 -0.00811224 -0.00880411 -0.00976071 -0.010982 -0.0124681 -0.0141729 -0.0160507 -0.0181013 -0.0203249 -0.0225442 -0.0245824 -0.0264394 -0.0281151 -0.0293383 -0.0298374 -0.0296124 -0.0286634 -0.0267402 -0.0235927 -0.0192208 -0.0136245 -0.00672959 0.00153811 0.0111786 0.022192 0.0343672 0.0474936 0.0615711 0.0765996 0.0921318 0.10772 0.123365 0.139067 0.154354 0.168758 0.182277 0.194913 0.206375 0.216371 0.224902 0.231967 0.237481 0.241358 0.243597 0.244198 0.243192 0.240612 0.236456 0.230725 0.223546 0.215045 0.205223 0.19408 0.181899 0.168963 0.155274 0.14083 0.126062 0.111399 0.09684 0.0823861 0.0684494 0.0554422 0.0433644 0.032216 0.0222007 0.0135219 0.00617962 0.000173881 -0.00456697 -0.00811458 -0.0104689 -0.0116301 -0.0118846 -0.011519 -0.0105334 -0.00892781 -0.00709237 -0.00541729 -0.00390259 -0.00254827 -0.0014334 -0.000637068 -0.000159267 0 0 -7.95107e-05 -0.000318043 -0.000715596 -0.00127217 -0.00200334 -0.00292469 -0.00403622 -0.00533792 -0.00671633 -0.00805797 -0.00936284 -0.0106309 -0.0117815 -0.0127337 -0.0134876 -0.0140432 -0.0143784 -0.0144711 -0.0143215 -0.0139294 -0.0133281 -0.0125509 -0.0115978 -0.0104688 -0.00922302 -0.00791951 -0.0065583 -0.00513939 -0.00371174 -0.00232432 -0.000977123 0.00032985 0.00156534 0.00269808 0.00372807 0.00465532 0.00544085 0.00604568 0.00646981 0.00671325 0.00671749 0.00642402 0.00583286 0.004944 0.00372613 0.00214792 0.000209391 -0.00208947 -0.00467086 -0.00745698 -0.0104478 -0.0136434 -0.0168157 -0.0197365 -0.0224059 -0.0248238 -0.026662 -0.0275919 -0.0276135 -0.026727 -0.024638 -0.0210522 -0.0159697 -0.00939052 -0.00123178 0.00858931 0.0200727 0.0332185 0.04777 0.0634704 0.0803198 0.0983182 0.116926 0.135605 0.154353 0.173172 0.191496 0.208762 0.224967 0.240114 0.253854 0.265842 0.276077 0.284559 0.291186 0.295858 0.298575 0.299336 0.298177 0.295134 0.290208 0.283397 0.274851 0.264714 0.252988 0.239672 0.225101 0.209609 0.193196 0.175862 0.158119 0.140478 0.122939 0.105503 0.08866 0.072904 0.0582345 0.0446515 0.0323978 0.0217161 0.0126065 0.00506886 -0.000978612 -0.00561791 -0.00884902 -0.0106719 -0.0114156 -0.0114088 -0.0106515 -0.00914384 -0.00732825 -0.00564725 -0.00410084 -0.00268903 -0.00151258 -0.000672258 -0.000168064 0 0 -9.11955e-05 -0.000364782 -0.00082076 -0.00145913 -0.00228828 -0.00331661 -0.00454411 -0.00597079 -0.00745488 -0.00885464 -0.0101701 -0.0114012 -0.0124479 -0.0132103 -0.0136882 -0.0138818 -0.0137647 -0.0133103 -0.0125187 -0.0113899 -0.00997065 -0.00830762 -0.00640082 -0.00425026 -0.00194248 0.000435957 0.00288505 0.00540481 0.00791516 0.01033