<?xml version="1.0"?> 
<VTKFile type="StructuredGrid" version="0.1"> 
<StructuredGrid WholeExtent="0 128 0 128 0 0"> 
<Piece Extent="0 128 0 128 0 0"> 
<PointData>
<DataArray type="Float32" Name="u" format="ascii" NumberOfComponents="1"> 
0 0 0 0 0 0 0 0 0 0 0 0 0 0 0 0 0 0 0 0 0 0 0 0 0 0 0 0 0 0 0 0 0 0 0 0 0 0 0 0 0 0 0 0 0 0 0 0 0 0 0 0 0 0 0 0 0 0 0 0 0 0 0 0 0 0 0 0 0 0 0 0 0 0 0 0 0 0 0 0 0 0 0 0 0 0 0 0 0 0 0 0 0 0 0 0 0 0 0 0 0 0 0 0 0 0 0 0 0 0 0 0 0 0 0 0 0 0 0 0 0 0 0 0 0 0 0 0 0 0 1.14522e-07 4.58087e-07 1.0307e-06 1.83235e-06 2.68222e-06 3.39949e-06 3.98416e-06 4.43623e-06 4.51923e-06 3.99671e-06 2.86866e-06 1.13509e-06 -1.24474e-06 -4.31153e-06 -8.0653e-06 -1.2506e-05 -1.7603e-05 -2.33256e-05 -2.96736e-05 -3.66473e-05 -4.41548e-05 -5.21045e-05 -6.04965e-05 -6.93308e-05 -7.8425e-05 -8.75968e-05 -9.68463e-05 -0.000106173 -0.000115308 -0.00012398 -0.000132189 -0.000139935 -0.000146945 -0.000152947 -0.00015794 -0.000161925 -0.000164779 -0.000166381 -0.00016673 -0.000165826 -0.000163816 -0.000160848 -0.000156923 -0.000152039 -0.000146579 -0.000140928 -0.000135085 -0.000129051 -0.000123244 -0.000118086 -0.000113577 -0.000109717 -0.000106733 -0.000104854 -0.000104079 -0.000104408 -0.000105797 -0.000108199 -0.000111614 -0.000116042 -0.00012129 -0.000127165 -0.000133666 -0.000140793 -0.000148408 -0.000156372 -0.000164686 -0.000173348 -0.000182349 -0.000191675 -0.000201328 -0.000211308 -0.000221595 -0.000232171 -0.000243037 -0.000254192 -0.000265425 -0.000276525 -0.000287493 -0.000298328 -0.000308634 -0.000318016 -0.000326474 -0.000334009 -0.000340289 -0.000344985 -0.000348096 -0.000349624 -0.000349559 -0.000347893 -0.000344627 -0.00033976 -0.000333597 -0.000326444 -0.0003183 -0.000309166 -0.000299393 -0.000289335 -0.00027899 -0.00026836 -0.00025759 -0.000246828 -0.000236074 -0.000225328 -0.000214519 -0.000203575 -0.000192496 -0.000181283 -0.000169839 -0.000158068 -0.000145971 -0.000133546 -0.000120888 -0.00010809 -9.51522e-05 -8.20745e-05 -6.92674e-05 -5.7141e-05 -4.56956e-05 -3.49309e-05 -2.53697e-05 -1.75343e-05 -1.14249e-05 -7.04129e-06 -3.96073e-06 -1.76032e-06 -4.40081e-07 0 0 4.58087e-07 1.83235e-06 4.12278e-06 7.32939e-06 1.07289e-05 1.3598e-05 1.59366e-05 1.77449e-05 1.80769e-05 1.59868e-05 1.14746e-05 4.54035e-06 -4.97895e-06 -1.72461e-05 -3.22612e-05 -5.00242e-05 -7.04122e-05 -9.33023e-05 -0.000118695 -0.000146589 -0.000176619 -0.000208418 -0.000241986 -0.000277323 -0.0003137 -0.000350387 -0.000387385 -0.000424694 -0.000461232 -0.000495919 -0.000528754 -0.000559738 -0.00058778 -0.000611788 -0.000631761 -0.000647701 -0.000659118 -0.000665524 -0.000666919 -0.000663303 -0.000655265 -0.000643394 -0.00062769 -0.000608154 -0.000586318 -0.000563714 -0.000540342 -0.000516203 -0.000492977 -0.000472346 -0.000454309 -0.000438868 -0.000426932 -0.000419415 -0.000416315 -0.000417634 -0.000423188 -0.000432795 -0.000446455 -0.000464168 -0.00048516 -0.000508658 -0.000534662 -0.000563172 -0.000593632 -0.000625489 -0.000658743 -0.000693393 -0.000729394 -0.000766701 -0.000805313 -0.000845231 -0.00088638 -0.000928686 -0.000972148 -0.00101677 -0.0010617 -0.0011061 -0.00114997 -0.00119331 -0.00123454 -0.00127206 -0.0013059 -0.00133603 -0.00136115 -0.00137994 -0.00139239 -0.0013985 -0.00139824 -0.00139157 -0.00137851 -0.00135904 -0.00133439 -0.00130578 -0.0012732 -0.00123666 -0.00119757 -0.00115734 -0.00111596 -0.00107344 -0.00103036 -0.000987314 -0.000944298 -0.000901313 -0.000858075 -0.000814299 -0.000769984 -0.000725132 -0.000679357 -0.000632274 -0.000583883 -0.000534184 -0.000483552 -0.00043236 -0.000380609 -0.000328298 -0.000277069 -0.000228564 -0.000182782 -0.000139724 -0.000101479 -7.01374e-05 -4.56995e-05 -2.81652e-05 -1.58429e-05 -7.04129e-06 -1.76032e-06 0 0 1.0307e-06 4.12278e-06 9.27627e-06 1.64911e-05 2.414e-05 3.05954e-05 3.58575e-05 3.99261e-05 4.06731e-05 3.59704e-05 2.58179e-05 1.02158e-05 -1.12026e-05 -3.88038e-05 -7.25877e-05 -0.000112554 -0.000158427 -0.00020993 -0.000267063 -0.000329825 -0.000397393 -0.000468941 -0.000544469 -0.000623977 -0.000705825 -0.000788371 -0.000871617 -0.000955561 -0.00103777 -0.00111582 -0.0011897 -0.00125941 -0.0013225 -0.00137652 -0.00142146 -0.00145733 -0.00148301 -0.00149743 -0.00150057 -0.00149243 -0.00147435 -0.00144764 -0.0014123 -0.00136835 -0.00131921 -0.00126836 -0.00121577 -0.00116146 -0.0011092 -0.00106278 -0.0010222 -0.000987452 -0.000960597 -0.000943683 -0.000936709 -0.000939676 -0.000952172 -0.000973788 -0.00100452 -0.00104438 -0.00109161 -0.00114448 -0.00120299 -0.00126714 -0.00133567 -0.00140735 -0.00148217 -0.00156013 -0.00164114 -0.00172508 -0.00181195 -0.00190177 -0.00199435 -0.00208954 -0.00218733 -0.00228773 -0.00238883 -0.00248873 -0.00258744 -0.00268495 -0.00277771 -0.00286215 -0.00293827 -0.00300608 -0.0030626 -0.00310486 -0.00313287 -0.00314662 -0.00314603 -0.00313104 -0.00310164 -0.00305784 -0.00300237 -0.002938 -0.0028647 -0.00278249 -0.00269454 -0.00260401 -0.00251091 -0.00241524 -0.00231831 -0.00222146 -0.00212467 -0.00202795 -0.00193067 -0.00183217 -0.00173246 -0.00163155 -0.00152855 -0.00142262 -0.00131374 -0.00120191 -0.00108799 -0.00097281 -0.00085637 -0.000738671 -0.000623406 -0.000514269 -0.00041126 -0.000314378 -0.000228327 -0.000157809 -0.000102824 -6.33716e-05 -3.56465e-05 -1.58429e-05 -3.96073e-06 0 0 1.83235e-06 7.32939e-06 1.64911e-05 2.93176e-05 4.29156e-05 5.43919e-05 6.37466e-05 7.09797e-05 7.23077e-05 6.39474e-05 4.58986e-05 1.81614e-05 -1.99158e-05 -6.89845e-05 -0.000129045 -0.000200097 -0.000281649 -0.000373209 -0.000474778 -0.000586356 -0.000706476 -0.000833672 -0.000967944 -0.00110929 -0.0012548 -0.00140155 -0.00154954 -0.00169878 -0.00184493 -0.00198368 -0.00211502 -0.00223895 -0.00235112 -0.00244715 -0.00252704 -0.0025908 -0.00263647 -0.0026621 -0.00266767 -0.00265321 -0.00262106 -0.00257358 -0.00251076 -0.00243262 -0.00234527 -0.00225485 -0.00216137 -0.00206481 -0.00197191 -0.00188938 -0.00181724 -0.00175547 -0.00170773 -0.00167766 -0.00166526 -0.00167053 -0.00169275 -0.00173118 -0.00178582 -0.00185667 -0.00194064 -0.00203463 -0.00213865 -0.00225269 -0.00237453 -0.00250196 -0.00263497 -0.00277357 -0.00291758 -0.0030668 -0.00322125 -0.00338092 -0.00354552 -0.00371474 -0.00388859 -0.00406707 -0.0042468 -0.00442441 -0.00459989 -0.00477324 -0.00493814 -0.00508826 -0.00522359 -0.00534414 -0.00544462 -0.00551975 -0.00556954 -0.00559398 -0.00559294 -0.00556629 -0.00551403 -0.00543616 -0.00533755 -0.0052231 -0.0050928 -0.00494665 -0.00479029 -0.00462936 -0.00446384 -0.00429376 -0.00412144 -0.00394925 -0.00377719 -0.00360525 -0.0034323 -0.00325719 -0.00307994 -0.00290053 -0.00271743 -0.00252909 -0.00233553 -0.00213674 -0.00193421 -0.00172944 -0.00152244 -0.00131319 -0.00110828 -0.000914256 -0.000731129 -0.000558895 -0.000405915 -0.00028055 -0.000182798 -0.000112661 -6.33716e-05 -2.81652e-05 -7.04129e-06 0 0 2.59466e-06 1.03786e-05 2.33519e-05 4.15145e-05 6.03123e-05 7.51913e-05 8.61514e-05 9.31926e-05 9.06808e-05 7.29817e-05 4.00953e-05 -7.97834e-06 -7.21604e-05 -0.000153372 -0.000251613 -0.000366883 -0.000498399 -0.000645378 -0.000807818 -0.000985721 -0.00117681 -0.0013788 -0.0015917 -0.0018155 -0.00204566 -0.00227762 -0.0025114 -0.00274697 -0.00297759 -0.00319647 -0.00340362 -0.00359904 -0.00377589 -0.00392735 -0.0040534 -0.00415407 -0.0042263 -0.00426709 -0.00427643 -0.00425432 -0.00420451 -0.00413074 -0.00403301 -0.00391133 -0.00377529 -0.00363451 -0.00348899 -0.00333872 -0.00319411 -0.00306555 -0.00295304 -0.00285658 -0.00278157 -0.00273342 -0.00271213 -0.00271769 -0.00274855 -0.00280316 -0.00288153 -0.00298364 -0.00310431 -0.00323835 -0.00338577 -0.00354656 -0.0037172 -0.00389415 -0.00407741 -0.00426699 -0.00446298 -0.00466547 -0.00487448 -0.00508999 -0.00531233 -0.00554182 -0.00577846 -0.00602224 -0.00626882 -0.00651384 -0.0067573 -0.0069992 -0.00723039 -0.00744169 -0.00763313 -0.00780468 -0.00794845 -0.00805653 -0.00812892 -0.00816562 -0.00816635 -0.00813083 -0.00805907 -0.00795106 -0.00781398 -0.007655 -0.00747414 -0.00727139 -0.00705481 -0.00683245 -0.00660431 -0.0063704 -0.00613351 -0.00589645 -0.00565922 -0.00542181 -0.00518173 -0.00493649 -0.00468607 -0.00443049 -0.00416699 -0.00389285 -0.00360805 -0.00331261 -0.00300894 -0.00269948 -0.00238423 -0.00206319 -0.00174694 -0.00144607 -0.00116058 -0.000890473 -0.00064943 -0.00045114 -0.000295602 -0.000182817 -0.000102835 -4.57043e-05 -1.14261e-05 0 0 3.04923e-06 1.21969e-05 2.7443e-05 4.87876e-05 6.9587e-05 8.31975e-05 8.96191e-05 8.88518e-05 7.34923e-05 3.61374e-05 -2.32131e-05 -0.000104559 -0.000208978 -0.000337549 -0.000490272 -0.000667145 -0.000867002 -0.00108867 -0.00133216 -0.00159746 -0.00188133 -0.00218051 -0.00249501 -0.00282483 -0.00316344 -0.0035043 -0.00384742 -0.00419279 -0.00453063 -0.00485117 -0.0051544 -0.00544033 -0.00569908 -0.00592078 -0.00610544 -0.00625305 -0.00635934 -0.00642 -0.00643503 -0.00640445 -0.00633381 -0.00622866 -0.006089 -0.00591484 -0.00572008 -0.00551863 -0.00531049 -0.00509565 -0.00488881 -0.00470466 -0.0045432 -0.00440442 -0.00429537 -0.00422304 -0.00418746 -0.00418861 -0.0042232 -0.00428794 -0.00438283 -0.00450786 -0.00465466 -0.00481487 -0.00498848 -0.0051755 -0.00537067 -0.00556876 -0.00576975 -0.00597366 -0.0061816 -0.00639468 -0.0066129 -0.00683627 -0.00706725 -0.00730831 -0.00755945 -0.00782067 -0.00808807 -0.00835773 -0.00862965 -0.00890384 -0.00916897 -0.00941374 -0.00963814 -0.00984217 -0.0100153 -0.0101471 -0.0102375 -0.0102866 -0.0102936 -0.0102582 -0.0101801 -0.0100596 -0.00990568 -0.00972761 -0.00952536 -0.00929895 -0.00905805 -0.00881236 -0.00856186 -0.00830657 -0.00804828 -0.00778879 -0.00752812 -0.00726624 -0.00699774 -0.00671717 -0.00642454 -0.00611984 -0.00579826 -0.00545501 -0.00509008 -0.00470348 -0.00429893 -0.00388016 -0.00344718 -0.00299998 -0.00255465 -0.00212726 -0.00171781 -0.00132631 -0.00097406 -0.000682361 -0.000451217 -0.000280627 -0.000157852 -7.01566e-05 -1.75392e-05 0 0 3.19606e-06 1.27842e-05 2.87646e-05 5.1137e-05 7.07396e-05 7.84105e-05 7.41497e-05 5.79572e-05 2.07422e-05 -4.65856e-05 -0.000144027 -0.00027158 -0.00043037 -0.000621517 -0.000845021 -0.00110088 -0.00138746 -0.0017031 -0.0020478 -0.00242157 -0.00282003 -0.0032388 -0.00367789 -0.00413729 -0.00460814 -0.00508158 -0.00555761 -0.00603623 -0.00650407 -0.00694779 -0.00736738 -0.00776283 -0.00812069 -0.00842746 -0.00868315 -0.00888777 -0.00903556 -0.0091208 -0.00914348 -0.0091036 -0.00900895 -0.00886733 -0.00867873 -0.00844316 -0.00817965 -0.00790721 -0.00762586 -0.00733558 -0.007056 -0.00680671 -0.00658772 -0.00639901 -0.00624912 -0.00614653 -0.00609126 -0.00608331 -0.00611671 -0.00618551 -0.00628972 -0.00642933 -0.0065917 -0.00676419 -0.00694678 -0.00713949 -0.00733495 -0.00752579 -0.007712 -0.00789359 -0.00807344 -0.00825442 -0.00843653 -0.00861976 -0.00881028 -0.00901422 -0.00923158 -0.00946237 -0.00970455 -0.00995607 -0.0102169 -0.0104871 -0.0107539 -0.0110044 -0.0112386 -0.0114566 -0.0116452 -0.0117915 -0.0118953 -0.0119568 -0.0119748 -0.0119483 -0.0118773 -0.0117618 -0.0116127 -0.0114409 -0.0112465 -0.0110293 -0.0108 -0.0105691 -0.0103365 -0.0101023 -0.00986574 -0.00962628 -0.00938388 -0.00913855 -0.00888032 -0.00859925 -0.00829533 -0.00796858 -0.00761124 -0.00721559 -0.00678163 -0.00630935 -0.00580417 -0.00527148 -0.00471128 -0.00412357 -0.0035314 -0.00295782 -0.00240282 -0.00186641 -0.0013798 -0.000974214 -0.000649642 -0.000406089 -0.000228425 -0.000101522 -2.53805e-05 0 0 3.03516e-06 1.21407e-05 2.73165e-05 4.85626e-05 6.37702e-05 6.08304e-05 3.97433e-05 5.08756e-07 -6.75694e-05 -0.000175187 -0.000322345 -0.000509043 -0.000736334 -0.00100527 -0.00131586 -0.0016681 -0.00205977 -0.00248865 -0.00295475 -0.00345806 -0.00399292 -0.00455368 -0.00514033 -0.00575287 -0.00637976 -0.00700946 -0.00764197 -0.00827728 -0.0088979 -0.00948632 -0.0100425 -0.0105665 -0.0110407 -0.0114474 -0.0117865 -0.0120582 -0.012255 -0.0123695 -0.0124018 -0.0123518 -0.0122299 -0.0120468 -0.0118022 -0.0114963 -0.011154 -0.0108003 -0.0104351 -0.0100585 -0.00969569 -0.00937171 -0.0090866 -0.00884035 -0.00864282 -0.00850389 -0.00842354 -0.00840177 -0.00842906 -0.00849588 -0.00860221 -0.00874806 -0.00891543 -0.0090863 -0.00926068 -0.00943855 -0.00961004 -0.00976524 -0.00990415 -0.0100268 -0.0101385 -0.0102447 -0.0103453 -0.0104405 -0.0105414 -0.0106595 -0.0107948 -0.0109473 -0.0111183 -0.0113089 -0.0115192 -0.0117491 -0.0119852 -0.0122137 -0.0124346 -0.012648 -0.0128382 -0.0129897 -0.0131024 -0.0131763 -0.0132098 -0.0132012 -0.0131504 -0.0130576 -0.012935 -0.0127949 -0.0126374 -0.0124625 -0.0122807 -0.0121027 -0.0119282 -0.0117575 -0.0115859 -0.0114089 -0.0112265 -0.0110387 -0.0108295 -0.0105827 -0.0102985 -0.0099767 -0.00960592 -0.00917458 -0.00868268 -0.00813023 -0.00752467 -0.00687343 -0.00617653 -0.00543396 -0.0046772 -0.00393775 -0.00321561 -0.00251077 -0.00186666 -0.0013267 -0.000890877 -0.000559203 -0.000314552 -0.000139801 -3.49502e-05 0 0 2.16529e-06 8.66114e-06 1.94876e-05 3.46446e-05 3.89146e-05 1.70802e-05 -3.08588e-05 -0.000104902 -0.000216604 -0.000377518 -0.000587644 -0.000846983 -0.00115612 -0.00151563 -0.00192553 -0.00238581 -0.0028936 -0.00344602 -0.00404308 -0.00468478 -0.00536427 -0.00607472 -0.00681613 -0.00758849 -0.0083777 -0.00916963 -0.0099643 -0.0107617 -0.0115401 -0.012278 -0.0129751 -0.0136317 -0.0142256 -0.0147351 -0.0151601 -0.0155006 -0.0157476 -0.0158922 -0.0159343 -0.015874 -0.0157248 -0.0154999 -0.0151995 -0.0148235 -0.0144032 -0.0139698 -0.0135234 -0.0130638 -0.0126217 -0.0122273 -0.0118808 -0.0115822 -0.0113415 -0.0111689 -0.0110643 -0.0110278 -0.0110445 -0.0110994 -0.0111926 -0.0113241 -0.0114688 -0.0116018 -0.0117229 -0.0118323 -0.0119171 -0.0119644 -0.0119742 -0.0119466 -0.0118908 -0.0118163 -0.011723 -0.011611 -0.0115 -0.0114096 -0.0113399 -0.0112909 -0.0112705 -0.0112868 -0.0113396 -0.0114291 -0.0115432 -0.0116699 -0.0118091 -0.0119609 -0.012108 -0.0122333 -0.0123367 -0.0124183 -0.0124754 -0.0125056 -0.0125089 -0.0124852 -0.012447 -0.0124069 -0.0123648 -0.0123209 -0.0122831 -0.0122598 -0.0122508 -0.0122563 -0.0122646 -0.0122639 -0.0122544 -0.012236 -0.0121837 -0.0120724 -0.0119021 -0.0116729 -0.011368 -0.0109706 -0.0104808 -0.0098986 -0.0092338 -0.00849635 -0.00768625 -0.0068035 -0.00588983 -0.00498699 -0.00409497 -0.00321377 -0.00240177 -0.00171732 -0.00116043 -0.0007311 -0.000411244 -0.000182775 -4.56938e-05 0 0 1.85192e-07 7.40768e-07 1.66673e-06 2.96307e-06 -1.35913e-05 -6.62173e-05 -0.000154915 -0.000279685 -0.000451523 -0.000681428 -0.000969399 -0.00131544 -0.00171897 -0.00217941 -0.00269677 -0.00327104 -0.00389862 -0.00457591 -0.0053029 -0.00607959 -0.00689834 -0.0077515 -0.00863907 -0.00956106 -0.0105013 -0.0114438 -0.0123884 -0.0133352 -0.0142588 -0.0151339 -0.0159604 -0.0167384 -0.0174419 -0.0180452 -0.0185483 -0.018951 -0.0192433 -0.0194148 -0.0194655 -0.0193955 -0.0192214 -0.0189598 -0.0186107 -0.0181742 -0.0176875 -0.0171881 -0.0166758 -0.0161508 -0.0156477 -0.0152012 -0.0148115 -0.0144784 -0.0142103 -0.0140154 -0.0138937 -0.0138453 -0.0138472 -0.0138765 -0.0139332 -0.0140174 -0.0140948 -0.0141311 -0.0141264 -0.0140806 -0.0139774 -0.0138006 -0.0135503 -0.0132262 -0.0128442 -0.0124198 -0.0119531 -0.011444 -0.0109253 -0.0104298 -0.00995752 -0.00950838 -0.0091026 -0.00876035 -0.00848164 -0.00826645 -0.00810848 -0.0080014 -0.00794521 -0.00793992 -0.00796853 -0.00801407 -0.00807652 -0.00815589 -0.00824844 -0.0083504 -0.00846179 -0.00858261 -0.00872325 -0.00889414 -0.00909527 -0.00932664 -0.00959002 -0.00988716 -0.0102181 -0.0105828 -0.0109575 -0.0113185 -0.0116659 -0.0119996 -0.0122814 -0.0124731 -0.0125746 -0.012586 -0.0124832 -0.0122425 -0.0118637 -0.0113469 -0.010705 -0.00995056 -0.00908376 -0.00810456 -0.00706708 -0.00602546 -0.00497969 -0.00392978 -0.00295224 -0.00212358 -0.0014438 -0.000912909 -0.000513511 -0.000228227 -5.70568e-05 0 0 -2.90512e-06 -1.16205e-05 -2.61461e-05 -4.64819e-05 -9.37474e-05 -0.000189062 -0.000332426 -0.000523838 -0.000772327 -0.00108692 -0.00146761 -0.00191441 -0.00242488 -0.0029966 -0.00362957 -0.00432379 -0.00507485 -0.00587832 -0.0067342 -0.0076425 -0.00859513 -0.00958402 -0.0106092 -0.0116706 -0.0127507 -0.0138319 -0.0149143 -0.0159978 -0.0170539 -0.0180541 -0.0189984 -0.0198867 -0.0206896 -0.0213777 -0.0219511 -0.0224096 -0.0227421 -0.0229374 -0.0229954 -0.0229162 -0.0227198 -0.0224264 -0.0220359 -0.0215483 -0.0210069 -0.020455 -0.0198925 -0.0193194 -0.0187738 -0.0182935 -0.0178785 -0.0175289 -0.0172491 -0.0170433 -0.0169116 -0.0168541 -0.0168371 -0.0168271 -0.0168241 -0.0168281 -0.0167934 -0.0166744 -0.016471 -0.0161832 -0.0157909 -0.0152739 -0.0146322 -0.0138658 -0.0129988 -0.0120555 -0.0110357 -0.0099395 -0.00881747 -0.00772018 -0.00664762 -0.00559979 -0.00461453 -0.00372966 -0.00294519 -0.00226111 -0.00168094 -0.00120821 -0.00084292 -0.000585066 -0.000419719 -0.000331948 -0.000321754 -0.000389136 -0.000528814 -0.000735507 -0.00100921 -0.00134994 -0.00176373 -0.00225665 -0.00282869 -0.00347987 -0.00420148 -0.00498485 -0.00582997 -0.00673685 -0.00766471 -0.0085728 -0.0094611 -0.0103296 -0.0111228 -0.0117848 -0.0123158 -0.0127158 -0.0129516 -0.0129901 -0.0128313 -0.0124753 -0.0119381 -0.0112361 -0.0103691 -0.00933712 -0.00820894 -0.00705315 -0.00586978 -0.0046588 -0.00351809 -0.00254549 -0.001741 -0.00110463 -0.000621354 -0.000276158 -6.90394e-05 0 0 -7.10565e-06 -2.84226e-05 -6.39509e-05 -0.00011369 -0.000201554 -0.000351454 -0.00056339 -0.000837363 -0.00117901 -0.00159399 -0.00208228 -0.00264389 -0.00327385 -0.0039672 -0.00472394 -0.00554406 -0.00642226 -0.00735324 -0.00833698 -0.0093735 -0.0104546 -0.0115723 -0.0127264 -0.013917 -0.0151257 -0.016334 -0.017542 -0.0187495 -0.0199255 -0.0210387 -0.022089 -0.0230765 -0.0239686 -0.0247326 -0.0253685 -0.0258763 -0.0262441 -0.02646 -0.026524 -0.0264361 -0.0262201 -0.0258997 -0.025475 -0.0249458 -0.0243614 -0.0237705 -0.0231733 -0.0225697 -0.0219999 -0.021504 -0.0210819 -0.0207338 -0.0204579 -0.0202527 -0.0201182 -0.0200543 -0.0200143 -0.0199513 -0.0198652 -0.0197561 -0.0195646 -0.0192315 -0.0187567 -0.0181403 -0.0173576 -0.0163842 -0.0152201 -0.0138653 -0.0123547 -0.0107231 -0.00897072 -0.00709744 -0.00517638 -0.00328063 -0.00141022 0.00043488 0.00219371 0.00380532 0.00526972 0.00658691 0.00773939 0.00870968 0.00949777 0.0101037 0.0105384 0.0108131 0.0109276 0.010882 0.0106834 0.0103391 0.00984887 0.00921286 0.00843157 0.00750558 0.00643487 0.00521946 0.0038825 0.00244718 0.000913491 -0.000718566 -0.00238621 -0.00402666 -0.00563992 -0.00722598 -0.00870761 -0.0100076 -0.0111258 -0.0120624 -0.012773 -0.0132134 -0.0133836 -0.0132836 -0.0129333 -0.0123528 -0.0115421 -0.0105012 -0.00931541 -0.00807008 -0.00676522 -0.00540084 -0.00409931 -0.00298304 -0.00205202 -0.00130626 -0.000734773 -0.000326566 -8.16415e-05 0 0 -1.24559e-05 -4.98235e-05 -0.000112103 -0.000199294 -0.000337687 -0.000553574 -0.000846954 -0.00121783 -0.00166651 -0.00219331 -0.00279824 -0.00348129 -0.00423391 -0.00504753 -0.00592216 -0.00685779 -0.00784811 -0.0088868 -0.00997385 -0.0111093 -0.0122856 -0.0134954 -0.0147387 -0.0160154 -0.0173076 -0.0185972 -0.0198844 -0.021169 -0.0224185 -0.0236006 -0.024715 -0.025762 -0.0267066 -0.0275143 -0.0281849 -0.0287186 -0.0291033 -0.0293274 -0.0293908 -0.0292934 -0.029063 -0.0287272 -0.0282861 -0.0277395 -0.0271416 -0.0265463 -0.0259536 -0.0253636 -0.0248164 -0.0243522 -0.0239712 -0.0236731 -0.0234473 -0.0232827 -0.0231794 -0.0231374 -0.0230927 -0.0229814 -0.0228036 -0.0225591 -0.0221722 -0.0215668 -0.020743 -0.0197008 -0.0184106 -0.0168431 -0.0149981 -0.0128757 -0.0105246 -0.00799369 -0.00528288 -0.00239221 0.000576282 0.00352051 0.00644049 0.00933621 0.0121164 0.0146896 0.0170559 0.0192154 0.0211313 0.022767 0.0241225 0.0251978 0.025998 0.0265281 0.0267881 0.0267779 0.0265071 0.0259849 0.0252113 0.0241864 0.0229199 0.0214214 0.019691 0.0177286 0.0155768 0.0132781 0.0108325 0.00824014 0.00559207 0.00297955 0.00040258 -0.00213884 -0.00454028 -0.00669731 -0.00860993 -0.0102782 -0.0116439 -0.0126493 -0.0132942 -0.0135787 -0.0135272 -0.0131642 -0.0124897 -0.0115037 -0.0103109 -0.00901608 -0.00761918 -0.00612022 -0.0046696 -0.00341771 -0.00236455 -0.00151012 -0.000849443 -0.00037753 -9.43826e-05 0 0 -1.89952e-05 -7.59809e-05 -0.000170957 -0.000303924 -0.000502825 -0.000795604 -0.00118226 -0.0016628 -0.00222973 -0.00287558 -0.00360034 -0.00440402 -0.00527305 -0.00619387 -0.00716649 -0.00819091 -0.00925961 -0.0103651 -0.0115074 -0.0126865 -0.0138968 -0.0151325 -0.0163938 -0.0176805 -0.0189773 -0.0202686 -0.0215544 -0.0228348 -0.0240781 -0.0252529 -0.0263592 -0.027397 -0.0283313 -0.0291272 -0.0297847 -0.0303038 -0.0306739 -0.0308843 -0.0309351 -0.0308263 -0.0305895 -0.0302565 -0.0298274 -0.0293021 -0.0287383 -0.0281939 -0.0276687 -0.0271628 -0.0267134 -0.0263577 -0.0260956 -0.0259273 -0.0258278 -0.0257726 -0.0257615 -0.0257946 -0.0257861 -0.0256499 -0.0253862 -0.0249949 -0.0243798 -0.0234445 -0.0221892 -0.0206138 -0.0186831 -0.0163619 -0.0136501 -0.0105479 -0.00712171 -0.00343801 0.000503174 0.00470185 0.00901884 0.013315 0.0175903 0.0218448 0.0259477 0.0297682 0.0333063 0.0365621 0.0394735 0.0419785 0.044077 0.045769 0.0470513 0.0479204 0.0483763 0.0484192 0.0480609 0.0473135 0.046177 0.0446515 0.0427585 0.0405197 0.0379351 0.0350047 0.0317961 0.0283771 0.0247474 0.0209073 0.0169842 0.0131055 0.00927135 0.00548165 0.001875 -0.00141006 -0.00437352 -0.00701537 -0.00926067 -0.0110344 -0.0123367 -0.0131674 -0.0135563 -0.0135333 -0.0130983 -0.0122514 -0.0111198 -0.00983098 -0.0083848 -0.00678131 -0.00520266 -0.00383098 -0.00266626 -0.00170852 -0.000961041 -0.000427129 -0.000106782 0 0 -2.67237e-05 -0.000106895 -0.000240514 -0.00042758 -0.000696966 -0.00107754 -0.00156931 -0.00217227 -0.00286867 -0.00364077 -0.00448857 -0.00541206 -0.00639128 -0.00740624 -0.00845696 -0.00954342 -0.0106568 -0.0117882 -0.0129377 -0.0141052 -0.0152881 -0.0164836 -0.0176917 -0.0189125 -0.020135 -0.0213482 -0.0225522 -0.0237469 -0.0249041 -0.0259956 -0.0270214 -0.0279815 -0.0288425 -0.0295713 -0.0301678 -0.0306321 -0.0309558 -0.0311308 -0.0311571 -0.0310346 -0.0307995 -0.0304876 -0.0300989 -0.0296335 -0.0291516 -0.0287133 -0.0283185 -0.0279674 -0.027691 -0.0275203 -0.0274553 -0.0274961 -0.0275995 -0.0277223 -0.0278645 -0.0280261 -0.0280945 -0.0279568 -0.0276132 -0.0270635 -0.0261874 -0.0248647 -0.0230954 -0.0208793 -0.018175 -0.0149406 -0.0111763 -0.00688206 -0.00214594 0.0029439 0.00838745 0.0141847 0.0201513 0.0261028 0.0320392 0.0379606 0.0436876 0.049041 0.0540209 0.0586272 0.0627661 0.0663442 0.0693612 0.0718172 0.0736982 0.0749899 0.0756924 0.0758057 0.0753448 0.0743249 0.072746 0.070608 0.0679474 0.0648005 0.0611674 0.0570479 0.0525406 0.0477441 0.0426582 0.037283 0.0317901 0.0263513 0.0209664 0.0156355 0.0105382 0.00585419 0.00158344 -0.00227406 -0.00562319 -0.00836883 -0.010511 -0.0120497 -0.0130208 -0.0134603 -0.0133682 -0.0127444 -0.0117422 -0.0105148 -0.00906208 -0.00738411 -0.00569849 -0.00422284 -0.00295716 -0.00190145 -0.00106957 -0.000475363 -0.000118841 0 0 -3.56414e-05 -0.000142566 -0.000320773 -0.000570263 -0.00092011 -0.00139939 -0.0020081 -0.00274625 -0.00358335 -0.00448891 -0.00546294 -0.00650543 -0.0075886 -0.00868463 -0.00979354 -0.0109153 -0.0120396 -0.013156 -0.0142646 -0.0153654 -0.0164596 -0.0175486 -0.0186326 -0.0197113 -0.0207806 -0.021836 -0.0228776 -0.0239054 -0.0248967 -0.0258288 -0.0267017 -0.0275155 -0.0282404 -0.0288466 -0.0293343 -0.0297033 -0.029949 -0.0300668 -0.0300567 -0.0299186 -0.029693 -0.0294203 -0.0291006 -0.0287338 -0.0283813 -0.0281044 -0.0279031 -0.0277774 -0.0277492 -0.0278401 -0.0280503 -0.0283797 -0.0287623 -0.0291318 -0.0294883 -0.0298319 -0.030018 -0.0299022 -0.0294844 -0.0287648 -0.0275951 -0.0258273 -0.0234614 -0.0204973 -0.0168863 -0.0125794 -0.00757664 -0.00187807 0.0044027 0.011152 0.0183699 0.0260564 0.0339737 0.041884 0.0497873 0.0576836 0.0653362 0.0725082 0.0791996 0.0854104 0.0910091 0.095864 0.0999751 0.103342 0.105939 0.107737 0.108736 0.108937 0.108359 0.107019 0.104918 0.102056 0.0984866 0.0942638 0.0893876 0.0838581 0.0778102 0.0713791 0.0645648 0.0573672 0.0500099 0.0427168 0.0354877 0.0283227 0.0214494 0.0150954 0.00926092 0.00394578 -0.000731507 -0.00465249 -0.00781717 -0.0102256 -0.0119205 -0.0129451 -0.0132991 -0.0129827 -0.0121781 -0.0110675 -0.00965101 -0.0079286 -0.00615709 -0.0045933 -0.00323725 -0.00208892 -0.00117502 -0.000522231 -0.000130558 0 0 -4.54836e-05 -0.000181934 -0.000409352 -0.000727738 -0.00116526 -0.00175008 -0.00248221 -0.00336165 -0.0043423 -0.00537807 -0.00646896 -0.00761498 -0.00877863 -0.0099224 -0.0110463 -0.0121503 -0.0132223 -0.01425 -0.0152333 -0.0161724 -0.0170742 -0.0179457 -0.0187868 -0.0195976 -0.0203835 -0.0211499 -0.0218969 -0.0226243 -0.0233188 -0.0239669 -0.0245686 -0.0251239 -0.0256096 -0.0260027 -0.026303 -0.0265107 -0.0266263 -0.0266506 -0.0265837 -0.0264254 -0.0262209 -0.0260153 -0.0258086 -0.0256008 -0.0254524 -0.025424 -0.0255156 -0.0257272 -0.0260669 -0.026543 -0.0271554 -0.0279041 -0.0286941 -0.0294302 -0.0301125 -0.030741 -0.0311334 -0.0311078 -0.0306641 -0.0298023 -0.0283423 -0.026104 -0.0230876 -0.0192929 -0.0146634 -0.00914255 -0.00273035 0.0045732 0.0126241 0.0212784 0.030536 0.040397 0.0505609 0.0607272 0.0708958 0.0810668 0.0909365 0.100201 0.108861 0.116916 0.124191 0.130513 0.13588 0.140293 0.143711 0.146091 0.147435 0.147741 0.147033 0.145332 0.142639 0.138954 0.13435 0.128899 0.122601 0.115457 0.107642 0.099333 0.0905289 0.08123 0.0717199 0.0622818 0.0529157 0.0436218 0.0346834 0.026384 0.0187238 0.0117025 0.00546605 0.000160001 -0.00421561 -0.00766079 -0.0102262 -0.0119626 -0.0128699 -0.0129481 -0.012412 -0.0114764 -0.0101413 -0.00840671 -0.00657231 -0.00493789 -0.00350345 -0.00226897 -0.0012763 -0.000567243 -0.000141811 0 0 -5.59857e-05 -0.000223943 -0.000503871 -0.000895771 -0.00142541 -0.00211856 -0.00297521 -0.00399538 -0.00511407 -0.00626634 -0.00745217 -0.00867156 -0.00987498 -0.0110129 -0.0120853 -0.0130922 -0.0140191 -0.0148513 -0.0155889 -0.016232 -0.016795 -0.0172927 -0.0177251 -0.0180921 -0.0184133 -0.0187079 -0.018976 -0.0192176 -0.0194334 -0.0196243 -0.0197903 -0.0199313 -0.020035 -0.0200888 -0.0200929 -0.0200472 -0.0199602 -0.0198404 -0.0196878 -0.0195023 -0.019334 -0.0192329 -0.0191989 -0.0192322 -0.0193897 -0.0197287 -0.0202491 -0.020951 -0.0218233 -0.0228547 -0.0240454 -0.0253953 -0.0267729 -0.0280466 -0.0292165 -0.0302825 -0.0310179 -0.0311958 -0.0308163 -0.0298793 -0.0281682 -0.0254664 -0.021774 -0.017091 -0.0113527 -0.00449461 0.00348326 0.0125809 0.0226182 0.033415 0.0449711 0.0572868 0.069988 0.0827011 0.0954261 0.108163 0.120531 0.132152 0.143024 0.153148 0.162302 0.170265 0.177037 0.182618 0.186952 0.189984 0.191714 0.192143 0.191295 0.1892 0.185855 0.181262 0.175511 0.168695 0.160814 0.151867 0.142075 0.131657 0.120612 0.108942 0.0969962 0.0851259 0.073331 0.0616114 0.0503152 0.0397903 0.0300368 0.0210546 0.0130212 0.00611408 0.000333318 -0.00432112 -0.00790842 -0.0104878 -0.0120591 -0.0126226 -0.0124289 -0.011729 -0.0105228 -0.00881036 -0.00693803 -0.00525214 -0.00375267 -0.00243964 -0.0013723 -0.00060991 -0.000152477 0 0 -6.71476e-05 -0.000268591 -0.000604329 -0.00107436 -0.00170056 -0.00250481 -0.0034871 -0.00464743 -0.00589868 -0.00715372 -0.00841255 -0.00967518 -0.0108777 -0.0119561 -0.0129105 -0.0137409 -0.0144299 -0.01496 -0.0153314 -0.0155439 -0.0156219 -0.0155898 -0.0154474 -0.0151949 -0.0148698 -0.0145098 -0.014115 -0.0136852 -0.0132407 -0.0128012 -0.012367 -0.0119379 -0.0115165 -0.0111052 -0.010704 -0.010313 -0.00995084 -0.00963617 -0.00936903 -0.0091494 -0.0090324 -0.00907317 -0.00927169 -0.00962798 -0.0101932 -0.0110184 -0.0121037 -0.013449 -0.0150183 -0.0167754 -0.0187205 -0.0208534 -0.0229987 -0.024981 -0.0268003 -0.0284566 -0.0296714 -0.0301662 -0.029941 -0.0289958 -0.0270729 -0.0239146 -0.0195208 -0.0138917 -0.00695419 0.00136443 0.0110642 0.0221451 0.034385 0.0475617 0.0616752 0.0767255 0.092255 0.107806 0.123378 0.138972 0.154121 0.16836 0.181688 0.194105 0.20534 0.21512 0.223446 0.230316 0.235662 0.239416 0.241576 0.242143 0.241148 0.238622 0.234565 0.228978 0.22197 0.213653 0.204025 0.193088 0.181107 0.16835 0.154815 0.140503 0.125839 0.111249 0.0967334 0.0822916 0.0683448 0.0553143 0.0432 0.0320018 0.0219338 0.0132097 0.00582962 -0.000206542 -0.00496715 -0.00852061 -0.0108669 -0.0120061 -0.0122286 -0.011825 -0.0107953 -0.00913955 -0.00725425 -0.00553604 -0.00398493 -0.00260092 -0.00146302 -0.000650231 -0.000162558 0 0 -7.89695e-05 -0.000315878 -0.000710725 -0.00126351 -0.00199072 -0.00290884 -0.00401788 -0.00531782 -0.00669612 -0.00804022 -0.00935012 -0.0106258 -0.0117867 -0.0127521 -0.013522 -0.0140965 -0.0144548 -0.0145762 -0.0144607 -0.0141082 -0.0135549 -0.0128368 -0.0119537 -0.0109058 -0.00975309 -0.00855579 -0.00731387 -0.00602733 -0.00474046 -0.00349754 -0.00229859 -0.0011436 -5.41113e-05 0.00094831 0.00186367 0.00269196 0.00340187 0.00396208 0.00437257 0.00463336 0.00468396 0.0044639 0.00397318 0.00321179 0.0021372 0.000706865 -0.00107922 -0.00322105 -0.0056519 -0.00830505 -0.0111805 -0.0142782 -0.0173714 -0.0202333 -0.0228639 -0.0252631 -0.0270939 -0.0280189 -0.0280382 -0.0271519 -0.0250565 -0.0214485 -0.016328 -0.00969491 -0.00146787 0.00843458 0.0200125 0.0332658 0.0479245 0.0637187 0.0806483 0.0987134 0.117362 0.136041 0.154752 0.173494 0.191705 0.208825 0.224853 0.239789 0.253307 0.265079 0.275107 0.283388 0.289842 0.294386 0.297018 0.297741 0.296589 0.293598 0.28877 0.282103 0.273727 0.263771 0.252235 0.23912 0.22474 0.209412 0.193136 0.175912 0.158248 0.140652 0.123123 0.105662 0.0887723 0.072956 0.0582133 0.0445444 0.032204 0.021447 0.0122733 0.00468295 -0.0014024 -0.00606111 -0.00929319 -0.0110986 -0.0118112 -0.0117647 -0.010959 -0.00939428 -0.00752095 -0.0057896 -0.00420022 -0.00275282 -0.00154846 -0.000688206 -0.000172051 0 0 -9.10879e-05 -0.000364352 -0.000819791 -0.00145741 -0.00228648 -0.00331629 -0.00454685 -0.00597814 -0.00746867 -0.00887692 -0.0102029 -0.0114466 -0.0125079 -0.0132866 -0.0137826 -0.0139961 -0.0139022 -0.0134761 -0.012718 -0.0116277 -0.0102555 -0.00865177 -0.0068164 -0.00474942 -0.00253895 -0.0002731 0.00204813 0.00442473 0.00678183 0.00904455 0.0112129 0.0132868 