<?xml version="1.0"?> 
<VTKFile type="StructuredGrid" version="0.1"> 
<StructuredGrid WholeExtent="0 128 0 128 0 0"> 
<Piece Extent="0 128 0 128 0 0"> 
<PointData>
<DataArray type="Float32" Name="u" format="ascii" NumberOfComponents="1"> 
0 0 0 0 0 0 0 0 0 0 0 0 0 0 0 0 0 0 0 0 0 0 0 0 0 0 0 0 0 0 0 0 0 0 0 0 0 0 0 0 0 0 0 0 0 0 0 0 0 0 0 0 0 0 0 0 0 0 0 0 0 0 0 0 0 0 0 0 0 0 0 0 0 0 0 0 0 0 0 0 0 0 0 0 0 0 0 0 0 0 0 0 0 0 0 0 0 0 0 0 0 0 0 0 0 0 0 0 0 0 0 0 0 0 0 0 0 0 0 0 0 0 0 0 0 0 0 0 0 0 -6.48647e-08 -2.59459e-07 -5.83783e-07 -1.03784e-06 -1.83079e-06 -3.17183e-06 -5.06095e-06 -7.49814e-06 -1.04776e-05 -1.39935e-05 -1.80459e-05 -2.26348e-05 -2.76759e-05 -3.30851e-05 -3.88622e-05 -4.50074e-05 -5.14414e-05 -5.8085e-05 -6.49382e-05 -7.20011e-05 -7.91763e-05 -8.63666e-05 -9.35721e-05 -0.000100793 -0.000107907 -0.000114792 -0.00012145 -0.000127879 -0.00013396 -0.000139576 -0.000144726 -0.00014941 -0.000153557 -0.000157094 -0.000160021 -0.000162339 -0.000164055 -0.00016518 -0.000165713 -0.000165653 -0.000165095 -0.000164129 -0.000162757 -0.000160979 -0.000158939 -0.000156783 -0.000154511 -0.000152122 -0.000149757 -0.000147554 -0.000145513 -0.000143634 -0.000141984 -0.000140626 -0.000139561 -0.00013879 -0.000138254 -0.000137894 -0.00013771 -0.000137704 -0.000137695 -0.000137504 -0.000137133 -0.00013658 -0.000135629 -0.000134062 -0.000131879 -0.000129079 -0.00012555 -0.000121176 -0.00011596 -0.000109899 -0.000103108 -9.56997e-05 -8.76735e-05 -7.90298e-05 -7.01121e-05 -6.12641e-05 -5.24859e-05 -4.37773e-05 -3.55608e-05 -2.82586e-05 -2.18707e-05 -1.63971e-05 -1.21088e-05 -9.27668e-06 -7.90076e-06 -7.98105e-06 -9.47584e-06 -1.23434e-05 -1.65837e-05 -2.21968e-05 -2.88404e-05 -3.61721e-05 -4.4192e-05 -5.29e-05 -6.18239e-05 -7.04913e-05 -7.89023e-05 -8.70568e-05 -9.4566e-05 -0.000101041 -0.000106482 -0.000110889 -0.000114091 -0.000115916 -0.000116365 -0.000115437 -0.000113195 -0.000109704 -0.000104962 -9.89704e-05 -9.19901e-05 -8.42831e-05 -7.58494e-05 -6.6689e-05 -5.72734e-05 -4.8074e-05 -3.90909e-05 -3.03241e-05 -2.23413e-05 -1.57102e-05 -1.04309e-05 -6.50334e-06 -3.65813e-06 -1.62583e-06 -4.06459e-07 0 0 -2.59459e-07 -1.03784e-06 -2.33513e-06 -4.15134e-06 -7.32317e-06 -1.26873e-05 -2.02438e-05 -2.99926e-05 -4.19105e-05 -5.59742e-05 -7.21838e-05 -9.05393e-05 -0.000110704 -0.00013234 -0.000155449 -0.00018003 -0.000205766 -0.00023234 -0.000259753 -0.000288004 -0.000316705 -0.000345466 -0.000374288 -0.000403171 -0.000431627 -0.00045917 -0.000485799 -0.000511514 -0.000535842 -0.000558305 -0.000578905 -0.000597642 -0.000614227 -0.000628374 -0.000640083 -0.000649354 -0.000656222 -0.000660721 -0.000662851 -0.000662614 -0.000660378 -0.000656517 -0.000651029 -0.000643915 -0.000635756 -0.000627131 -0.000618043 -0.000608489 -0.000599028 -0.000590216 -0.000582052 -0.000574538 -0.000567934 -0.000562504 -0.000558245 -0.00055516 -0.000553014 -0.000551575 -0.000550841 -0.000550814 -0.000550778 -0.000550018 -0.000548532 -0.000546322 -0.000542517 -0.000536248 -0.000527514 -0.000516316 -0.000502198 -0.000484706 -0.000463839 -0.000439597 -0.000412433 -0.000382799 -0.000350694 -0.000316119 -0.000280448 -0.000245056 -0.000209943 -0.000175109 -0.000142243 -0.000113035 -8.74829e-05 -6.55886e-05 -4.84352e-05 -3.71067e-05 -3.16031e-05 -3.19242e-05 -3.79033e-05 -4.93736e-05 -6.63349e-05 -8.87873e-05 -0.000115362 -0.000144689 -0.000176768 -0.0002116 -0.000247296 -0.000281965 -0.000315609 -0.000348227 -0.000378264 -0.000404165 -0.000425929 -0.000443557 -0.000456364 -0.000463665 -0.000465459 -0.000461747 -0.000452782 -0.000438816 -0.000419849 -0.000395882 -0.00036796 -0.000337132 -0.000303398 -0.000266756 -0.000229094 -0.000192296 -0.000156364 -0.000121296 -8.93651e-05 -6.28408e-05 -4.17236e-05 -2.60134e-05 -1.46325e-05 -6.50334e-06 -1.62583e-06 0 0 -5.83783e-07 -2.33513e-06 -5.25404e-06 -9.34052e-06 -1.64771e-05 -2.85465e-05 -4.55485e-05 -6.74833e-05 -9.42985e-05 -0.000125942 -0.000162414 -0.000203713 -0.000249083 -0.000297766 -0.00034976 -0.000405067 -0.000462973 -0.000522765 -0.000584444 -0.00064801 -0.000712586 -0.000777299 -0.000842149 -0.000907134 -0.000971161 -0.00103313 -0.00109305 -0.00115091 -0.00120564 -0.00125619 -0.00130254 -0.00134469 -0.00138201 -0.00141384 -0.00144019 -0.00146105 -0.0014765 -0.00148662 -0.00149142 -0.00149088 -0.00148585 -0.00147716 -0.00146482 -0.00144881 -0.00143045 -0.00141105 -0.0013906 -0.0013691 -0.00134781 -0.00132799 -0.00130962 -0.00129271 -0.00127785 -0.00126563 -0.00125605 -0.00124911 -0.00124428 -0.00124104 -0.00123939 -0.00123933 -0.00123925 -0.00123754 -0.0012342 -0.00122922 -0.00122066 -0.00120656 -0.00118691 -0.00116171 -0.00112995 -0.00109059 -0.00104364 -0.000989094 -0.000927975 -0.000861297 -0.000789062 -0.000711268 -0.000631009 -0.000551377 -0.000472373 -0.000393996 -0.000320047 -0.000254328 -0.000196837 -0.000147574 -0.000108979 -8.34901e-05 -7.11069e-05 -7.18295e-05 -8.52825e-05 -0.000111091 -0.000149254 -0.000199772 -0.000259564 -0.000325549 -0.000397728 -0.0004761 -0.000556415 -0.000634422 -0.00071012 -0.000783511 -0.000851094 -0.000909371 -0.000958341 -0.000998004 -0.00102682 -0.00104325 -0.00104728 -0.00103893 -0.00101876 -0.000987335 -0.00094466 -0.000890734 -0.000827911 -0.000758548 -0.000682645 -0.000600201 -0.000515461 -0.000432666 -0.000351818 -0.000272917 -0.000201071 -0.000141392 -9.3878e-05 -5.853e-05 -3.29232e-05 -1.46325e-05 -3.65813e-06 0 0 -1.03784e-06 -4.15134e-06 -9.34052e-06 -1.66054e-05 -2.92927e-05 -5.07493e-05 -8.09752e-05 -0.00011997 -0.000167642 -0.000223897 -0.000288735 -0.000362157 -0.000442815 -0.000529361 -0.000621796 -0.000720119 -0.000823063 -0.000929361 -0.00103901 -0.00115202 -0.00126682 -0.00138187 -0.00149715 -0.00161268 -0.00172651 -0.00183668 -0.0019432 -0.00204606 -0.00214337 -0.00223322 -0.00231562 -0.00239057 -0.00245691 -0.0025135 -0.00256033 -0.00259742 -0.00262489 -0.00264288 -0.00265141 -0.00265045 -0.00264151 -0.00262607 -0.00260412 -0.00257566 -0.00254302 -0.00250853 -0.00247217 -0.00243396 -0.00239611 -0.00236086 -0.00232821 -0.00229815 -0.00227174 -0.00225001 -0.00223298 -0.00222064 -0.00221206 -0.0022063 -0.00220337 -0.00220326 -0.00220311 -0.00220007 -0.00219413 -0.00218529 -0.00217007 -0.00214499 -0.00211006 -0.00206526 -0.00200879 -0.00193882 -0.00185535 -0.00175839 -0.00164973 -0.0015312 -0.00140278 -0.00126448 -0.00112179 -0.000980226 -0.000839774 -0.000700437 -0.000568973 -0.000452138 -0.000349932 -0.000262354 -0.000193741 -0.000148427 -0.000126412 -0.000127697 -0.000151613 -0.000197494 -0.00026534 -0.000355149 -0.000461447 -0.000578754 -0.000707072 -0.0008464 -0.000989182 -0.00112786 -0.00126244 -0.00139291 -0.00151306 -0.00161666 -0.00170372 -0.00177423 -0.00182546 -0.00185466 -0.00186184 -0.00184699 -0.00181113 -0.00175526 -0.0016794 -0.00158353 -0.00147184 -0.00134853 -0.00121359 -0.00106702 -0.000916374 -0.000769185 -0.000625455 -0.000485186 -0.00035746 -0.000251363 -0.000166894 -0.000104053 -5.853e-05 -2.60134e-05 -6.50334e-06 0 0 -1.85225e-06 -7.40902e-06 -1.66703e-05 -2.96361e-05 -5.1443e-05 -8.72275e-05 -0.00013699 -0.00020073 -0.000278106 -0.000368777 -0.000472743 -0.000590004 -0.000718372 -0.00085566 -0.00100187 -0.001157 -0.001319 -0.00148584 -0.00165751 -0.00183401 -0.00201291 -0.00219176 -0.00237057 -0.00254934 -0.00272509 -0.00289486 -0.00305865 -0.00321646 -0.00336546 -0.00350284 -0.0036286 -0.00374273 -0.00384362 -0.00392963 -0.00400077 -0.00405705 -0.00409879 -0.00412633 -0.00413967 -0.00413882 -0.00412609 -0.0041038 -0.00407195 -0.00403055 -0.00398309 -0.00393306 -0.00388045 -0.00382528 -0.00377077 -0.00372015 -0.00367343 -0.00363061 -0.00359301 -0.00356196 -0.00353746 -0.00351952 -0.00350635 -0.00349616 -0.00348897 -0.00348478 -0.00347882 -0.00346635 -0.00344738 -0.0034219 -0.00338435 -0.00332916 -0.00325633 -0.00316587 -0.00305511 -0.00292136 -0.00276464 -0.00258493 -0.00238564 -0.00217016 -0.0019385 -0.00169064 -0.00143606 -0.00118425 -0.000935208 -0.000688924 -0.000456874 -0.000250529 -6.98886e-05 8.5047e-05 0.00020693 0.000288412 0.000329493 0.000330173 0.000291507 0.000214548 9.92971e-05 -5.42466e-05 -0.000236937 -0.000439628 -0.00066232 -0.000905012 -0.00115499 -0.00139953 -0.00163863 -0.0018723 -0.00208994 -0.00228097 -0.00244538 -0.00258318 -0.00268953 -0.00275963 -0.00279346 -0.00279103 -0.00275379 -0.0026832 -0.00257925 -0.00244195 -0.00227803 -0.00209422 -0.00189052 -0.00166694 -0.00143552 -0.00120832 -0.000985327 -0.000766552 -0.000566556 -0.0003999 -0.000266584 -0.000166609 -9.37177e-05 -4.16523e-05 -1.04131e-05 0 0 -3.25767e-06 -1.30307e-05 -2.93191e-05 -5.21228e-05 -8.8601e-05 -0.000145913 -0.000224059 -0.000323038 -0.000441857 -0.000579521 -0.000736031 -0.000911386 -0.00110223 -0.0013052 -0.00152029 -0.00174751 -0.00198375 -0.00222591 -0.00247399 -0.00272798 -0.00298436 -0.0032396 -0.00349368 -0.00374663 -0.00399434 -0.00423274 -0.00446183 -0.0046816 -0.00488838 -0.00507848 -0.0052519 -0.00540866 -0.00554683 -0.00566453 -0.00576176 -0.00583852 -0.00589559 -0.00593377 -0.00595306 -0.00595345 -0.00593829 -0.00591092 -0.00587135 -0.00581957 -0.00576027 -0.00569812 -0.00563313 -0.00556529 -0.00549863 -0.00543716 -0.0053809 -0.00532983 -0.00528509 -0.00524778 -0.00521793 -0.00519551 -0.00517715 -0.00515946 -0.00514243 -0.00512607 -0.00510282 -0.00506513 -0.00501301 -0.00494645 -0.00485711 -0.00473666 -0.00458511 -0.00440244 -0.00418526 -0.00393015 -0.00363712 -0.00330617 -0.00294364 -0.00255588 -0.00214288 -0.00170464 -0.00125708 -0.000816115 -0.000381736 4.6054e-05 0.000448397 0.000806437 0.00112017 0.00138961 0.00160268 0.00174735 0.00182362 0.00183148 0.00177248 0.00164817 0.00145855 0.00120361 0.000898039 0.000556505 0.000179009 -0.000234448 -0.000663221 -0.00108667 -0.00150478 -0.00191757 -0.00230755 -0.00265725 -0.00296666 -0.0032358 -0.00345632 -0.00361988 -0.0037265 -0.00377616 -0.00377065 -0.00371173 -0.00359941 -0.00343369 -0.00322475 -0.00298276 -0.00270773 -0.00239967 -0.00207659 -0.00175653 -0.00143949 -0.00112547 -0.000836382 -0.000594146 -0.00039876 -0.000250223 -0.000140751 -6.25558e-05 -1.5639e-05 0 0 -5.2541e-06 -2.10164e-05 -4.72869e-05 -8.40656e-05 -0.000140767 -0.000226806 -0.000342181 -0.000486895 -0.000658894 -0.000856129 -0.0010786 -0.00132631 -0.00159438 -0.00187797 -0.00217706 -0.00249166 -0.00281732 -0.00314958 -0.00348845 -0.00383393 -0.00418117 -0.00452536 -0.00486648 -0.00520454 -0.00553425 -0.00585031 -0.00615272 -0.00644148 -0.00671211 -0.00696014 -0.00718554 -0.00738834 -0.00756655 -0.00771821 -0.0078433 -0.00794184 -0.00801531 -0.00806522 -0.00809157 -0.00809435 -0.00807812 -0.00804744 -0.00800231 -0.00794272 -0.00787457 -0.00780373 -0.0077302 -0.00765399 -0.00757969 -0.00751189 -0.0074506 -0.00739582 -0.00734797 -0.00730749 -0.00727437 -0.00724863 -0.00722449 -0.00719619 -0.00716374 -0.00712714 -0.00707512 -0.00699641 -0.00689101 -0.00675893 -0.00658836 -0.00636751 -0.00609638 -0.00577496 -0.00539924 -0.00496519 -0.00447282 -0.00392211 -0.00332373 -0.00268833 -0.00201592 -0.00130649 -0.000584851 0.000124193 0.000820642 0.0015045 0.00214684 0.00271876 0.00322025 0.00365132 0.00399352 0.0042284 0.00435597 0.00437622 0.00429131 0.00410337 0.00381241 0.00341842 0.00294348 0.00240964 0.00181691 0.00116529 0.000486117 -0.000189275 -0.000860884 -0.00152871 -0.00216587 -0.00274549 -0.00326756 -0.00373209 -0.0041258 -0.00443542 -0.00466095 -0.00480239 -0.00486171 -0.00484088 -0.00473989 -0.00455875 -0.004312 -0.00401415 -0.00366522 -0.0032652 -0.00283957 -0.00241382 -0.00198794 -0.00156193 -0.00116694 -0.000834102 -0.000563421 -0.000354896 -0.000199629 -8.87239e-05 -2.2181e-05 0 0 -7.84152e-06 -3.13661e-05 -7.05737e-05 -0.000125464 -0.000207941 -0.000329905 -0.000491358 -0.0006923 -0.000929218 -0.0011986 -0.00150045 -0.00183476 -0.00219484 -0.00257398 -0.00297218 -0.00338945 -0.0038197 -0.00425685 -0.0047009 -0.00515185 -0.00560335 -0.00604905 -0.00648897 -0.00692309 -0.00734482 -0.00774757 -0.00813133 -0.00849611 -0.00883667 -0.00914781 -0.00942952 -0.00968179 -0.00990278 -0.0100906 -0.0102454 -0.010367 -0.0104579 -0.0105207 -0.0105552 -0.0105615 -0.0105456 -0.0105134 -0.0104648 -0.0104 -0.010326 -0.0102499 -0.0101717 -0.0100914 -0.010014 -0.00994434 -0.00988254 -0.00982857 -0.00978166 -0.00974107 -0.0097068 -0.00967885 -0.00964834 -0.00960635 -0.0095529 -0.00948799 -0.00939571 -0.00926018 -0.00908139 -0.00885935 -0.0085781 -0.0082217 -0.00779015 -0.00728344 -0.00669707 -0.00602649 -0.00527171 -0.00443274 -0.0035259 -0.00256753 -0.00155762 -0.000496183 0.000580633 0.00163667 0.00267193 0.0036864 0.00463846 0.00548644 0.00623035 0.00687019 0.00737944 0.00773155 0.00792654 0.00796441 0.00784799 0.00758015 0.00716089 0.00659019 0.00589939 0.00511979 0.0042514 0.00329421 0.00229303 0.00129264 0.000293058 -0.000705727 -0.00166491 -0.00254569 -0.00334807 -0.00407205 -0.00469798 -0.00520624 -0.00559681 -0.00586971 -0.00602697 -0.00607062 -0.00600068 -0.00581714 -0.00553978 -0.00518839 -0.00476298 -0.00426354 -0.00372447 -0.00318018 -0.00263067 -0.00207594 -0.00155822 -0.00111977 -0.000760568 -0.000480626 -0.000270352 -0.000120156 -3.00391e-05 0 0 -1.10361e-05 -4.41445e-05 -9.93251e-05 -0.000176578 -0.000290307 -0.000454916 -0.000670405 -0.000936774 -0.00124836 -0.0015995 -0.0019902 -0.00242045 -0.00288127 -0.00336365 -0.0038676 -0.00439312 -0.0049322 -0.00547685 -0.00602707 -0.00658284 -0.00713628 -0.00767947 -0.00821241 -0.00873511 -0.00923994 -0.00971929 -0.0101732 -0.0106015 -0.0109991 -0.0113603 -0.0116854 -0.0119742 -0.0122258 -0.0124391 -0.0126142 -0.012751 -0.0128535 -0.0129256 -0.0129673 -0.0129787 -0.0129671 -0.01294 -0.0128973 -0.0128391 -0.0127732 -0.0127073 -0.0126416 -0.0125761 -0.012515 -0.0124628 -0.0124195 -0.012385 -0.0123564 -0.0123304 -0.0123071 -0.0122865 -0.0122553 -0.0122002 -0.0121212 -0.0120183 -0.0118698 -0.0116539 -0.0113708 -0.0110203 -0.0105817 -0.0100343 -0.00937797 -0.00861281 -0.00773428 -0.00673787 -0.00562358 -0.0043914 -0.00306554 -0.00167019 -0.000205359 0.00132896 0.00288172 0.00440186 0.00588938 0.0073443 0.00870856 0.00992412 0.010991 0.0119092 0.0126418 0.0131519 0.0134396 0.0135048 0.0133512 0.0129823 0.0123982 0.0115988 0.0106271 0.00952598 0.0082954 0.00693538 0.00550781 0.00407457 0.00263567 0.00119111 -0.000204912 -0.0014982 -0.00268876 -0.00377658 -0.00473353 -0.00553147 -0.0061704 -0.00665032 -0.00697291 -0.00713985 -0.00715115 -0.00700681 -0.00673273 -0.00635483 -0.0058731 -0.00528755 -0.00464301 -0.0039843 -0.00331143 -0.0026244 -0.00197841 -0.0014287 -0.000975255 -0.00061808 -0.00034767 -0.00015452 -3.863e-05 0 0 -1.48541e-05 -5.94163e-05 -0.000133687 -0.000237665 -0.00038805 -0.000601541 -0.000878136 -0.00121784 -0.00161185 -0.0020514 -0.00253648 -0.00306708 -0.00363134 -0.0042174 -0.00482525 -0.0054549 -0.00609613 -0.00673872 -0.00738268 -0.00802801 -0.00866536 -0.00928538 -0.00988808 -0.0104734 -0.0110335 -0.0115602 -0.0120537 -0.0125138 -0.0129363 -0.0133166 -0.0136548 -0.0139509 -0.0142059 -0.0144209 -0.0145958 -0.0147307 -0.0148319 -0.0149054 -0.0149513 -0.0149696 -0.0149691 -0.0149587 -0.0149382 -0.0149077 -0.0148748 -0.014847 -0.0148243 -0.0148067 -0.0147963 -0.0147955 -0.0148041 -0.0148221 -0.0148423 -0.0148573 -0.0148672 -0.0148719 -0.014852 -0.014788 -0.0146799 -0.0145277 -0.0143024 -0.0139751 -0.0135457 -0.0130143 -0.0123546 -0.0115403 -0.0105714 -0.00944801 -0.00816645 -0.00672317 -0.00511815 -0.00335141 -0.00145801 0.000526956 0.0026035 0.00477162 0.00696075 0.0091003 0.0111903 0.0132307 0.0151425 0.0168465 0.0183427 0.0196313 0.020662 0.0213847 0.0217995 0.0219064 0.0217096 0.0212137 0.0204186 0.0193243 0.0179881 0.0164673 0.0147619 0.0128719 0.0108808 0.00887199 0.00684559 0.00480154 0.00281388 0.000956637 -0.000770191 -0.0023666 -0.00379312 -0.00501026 -0.00601802 -0.00681641 -0.00740602 -0.00778745 -0.00796069 -0.00792575 -0.00771549 -0.0073628 -0.00686767 -0.00623011 -0.0055069 -0.00475485 -0.00397395 -0.00316419 -0.00239567 -0.00173845 -0.00119254 -0.000757923 -0.000426332 -0.000189481 -4.73702e-05 0 0 -1.92954e-05 -7.71815e-05 -0.000173658 -0.000308726 -0.000501171 -0.00076978 -0.00111455 -0.00153549 -0.0020197 -0.0025543 -0.00313928 -0.00377464 -0.00444507 -0.00513524 -0.00584515 -0.0065748 -0.00731147 -0.00804246 -0.00876775 -0.00948736 -0.0101906 -0.0108668 -0.011516 -0.0121381 -0.0127255 -0.0132704 -0.0137729 -0.014233 -0.0146483 -0.0150165 -0.0153377 -0.0156117 -0.015843 -0.0160359 -0.0161903 -0.0163063 -0.0163931 -0.0164601 -0.0165071 -0.0165343 -0.0165517 -0.0165694 -0.0165874 -0.0166058 -0.0166308 -0.0166687 -0.0167195 -0.0167832 -0.016858 -0.0169424 -0.0170364 -0.0171399 -0.0172395 -0.0173219 -0.0173871 -0.0174351 -0.0174385 -0.0173698 -0.0172291 -0.0170163 -0.0166938 -0.0162238 -0.0156063 -0.0148414 -0.0138967 -0.0127397 -0.0113705 -0.00978903 -0.00799358 -0.00598238 -0.00375545 -0.00131277 0.00129667 0.00402392 0.00686896 0.00983181 0.0128177 0.015732 0.0185746 0.0213456 0.0239402 0.0262535 0.0282856 0.0300365 0.03144 0.0324299 0.0330062 0.0331689 0.0329233 0.0322743 0.031222 0.0297665 0.0279822 0.0259436 0.0236508 0.0211037 0.0184119 0.0156849 0.0129228 0.0101256 0.00739147 0.00481883 0.00240764 0.000157898 -0.00187673 -0.00364259 -0.00513968 -0.00636799 -0.00732631 -0.00801341 -0.00842929 -0.00857395 -0.00848806 -0.00821231 -0.00774669 -0.0070912 -0.00631615 -0.00549182 -0.00461821 -0.00369534 -0.00281 -0.00204903 -0.00141241 -0.000900155 -0.000506337 -0.000225039 -5.62597e-05 0 0 -2.436e-05 -9.74401e-05 -0.00021924 -0.00038976 -0.000629669 -0.000959633 -0.00137965 -0.00188973 -0.0024719 -0.00310819 -0.0037986 -0.00454314 -0.00532245 -0.00611716 -0.00692728 -0.00775281 -0.00857824 -0.00938806 -0.0101823 -0.0109609 -0.011712 -0.0124237 -0.0130961 -0.013729 -0.0143159 -0.0148498 -0.0153308 -0.015759 -0.0161351 -0.0164601 -0.016734 -0.0169568 -0.0171373 -0.0172842 -0.0173977 -0.0174777 -0.0175373 -0.0175897 -0.0176348 -0.0176727 -0.0177147 -0.0177721 -0.0178451 -0.0179335 -0.0180413 -0.0181726 -0.0183274 -0.0185056 -0.0187001 -0.0189037 -0.0191164 -0.0193382 -0.0195479 -0.0197241 -0.0198668 -0.0199761 -0.0200147 -0.0199456 -0.0197687 -0.019484 -0.0190437 -0.0183998 -0.0175525 -0.0165016 -0.0152081 -0.0136326 -0.0117752 -0.00963588 -0.00721565 -0.00451551 -0.00153546 0.00172451 0.00519852 0.00882069 0.012591 0.0165095 0.0204527 0.024297 0.0280424 0.031689 0.0351017 0.0381451 0.0408195 0.0431248 0.0449758 0.0462874 0.0470597 0.0472926 0.0469921 0.0461641 0.0448086 0.0429255 0.0406095 0.0379551 0.0349622 0.0316308 0.0281011 0.0245133 0.0208673 0.0171632 0.0135279 0.0100884 0.00684473 0.00379692 0.00101562 -0.00142847 -0.00353536 -0.00530506 -0.00673378 -0.00781774 -0.00855696 -0.00895142 -0.00905044 -0.00890336 -0.00851015 -0.00787084 -0.00707075 -0.00619521 -0.00524424 -0.00421782 -0.00322141 -0.00236043 -0.00163488 -0.00104478 -0.000587686 -0.000261194 -6.52985e-05 0 0 -2.99186e-05 -0.000119675 -0.000269268 -0.000478698 -0.000770114 -0.00116566 -0.00166535 -0.00226917 -0.00295289 -0.0036923 -0.00448739 -0.00533816 -0.00622041 -0.00710993 -0.00800672 -0.00891079 -0.00980343 -0.0106659 -0.0114983 -0.0123006 -0.01306 -0.0137635 -0.0144114 -0.0150034 -0.015535 -0.0160015 -0.016403 -0.0167394 -0.0170166 -0.0172408 -0.0174118 -0.0175298 -0.0176099 -0.0176676 -0.0177028 -0.0177156 -0.0177241 -0.0177466 -0.0177831 -0.0178336 -0.0179104 -0.0180261 -0.0181805 -0.0183738 -0.0186059 -0.0188768 -0.0191866 -0.0195354 -0.0199077 -0.0202884 -0.0206775 -0.021075 -0.0214489 -0.0217673 -0.0220301 -0.0222374 -0.0223399 -0.0222883 -0.0220826 -0.0217229 -0.0211494 -0.0203021 -0.0191812 -0.0177866 -0.0160718 -0.01399 -0.0115413 -0.00872567 -0.00554831 -0.00201439 0.00187609 0.00612313 0.01064 0.0153398 0.0202226 0.0252885 0.0303794 0.0353374 0.0401627 0.044855 0.0492439 0.0531585 0.0565989 0.0595651 0.0619501 0.063647 0.0646556 0.064976 0.0646148 0.0635789 0.0618681 0.0594824 0.0565393 0.0531559 0.0493324 0.0450687 0.0405404 0.0359231 0.0312168 0.0264215 0.0216982 0.0172079 0.0129506 0.00892622 0.00522624 0.00194205 -0.000926335 -0.00337893 -0.00540824 -0.0070068 -0.00817458 -0.00891161 -0.00927672 -0.00932876 -0.00906772 -0.00849362 -0.00770861 -0.00681488 -0.00581242 -0.00470123 -0.00360731 -0.00265664 -0.00184922 -0.00118506 -0.000666598 -0.000296266 -7.40665e-05 0 0 -3.58418e-05 -0.000143367 -0.000322577 -0.00057347 -0.000919079 -0.00138244 -0.00196355 -0.00266241 -0.00344714 -0.00428586 -0.00517859 -0.0061253 -0.00709592 -0.00806034 -0.00901856 -0.00997058 -0.010894 -0.0117665 -0.0125881 -0.0133587 -0.014065 -0.0146937 -0.0152447 -0.0157182 -0.0161132 -0.0164287 -0.0166648 -0.0168215 -0.0169126 -0.0169517 -0.016939 -0.0168743 -0.0167824 -0.0166879 -0.0165907 -0.0164909 -0.0164135 -0.0163835 -0.0164009 -0.0164657 -0.0165911 -0.0167903 -0.0170632 -0.0174099 -0.0178241 -0.0182995 -0.0188361 -0.019434 -0.0200662 -0.0207059 -0.0213532 -0.0220079 -0.0226238 -0.0231548 -0.0236007 -0.0239616 -0.0241731 -0.0241709 -0.0239549 -0.0235252 -0.022808 -0.0217294 -0.0202894 -0.0184881 -0.0162709 -0.013583 -0.0104246 -0.00679554 -0.0027072 0.00182913 0.00681346 0.0122458 0.0180134 0.0240038 0.0302167 0.0366524 0.0431117 0.0493957 0.0555043 0.0614377 0.0669837 0.0719305 0.0762782 0.0800266 0.0830438 0.0851981 0.0864894 0.0869176 0.0864902 0.0852145 0.0830905 0.0801183 0.0764407 0.0722005 0.0673979 0.0620328 0.0563214 0.0504802 0.044509 0.0384078 0.0323779 0.0266202 0.0211347 0.0159216 0.0110974 0.00677894 0.00296616 -0.000340926 -0.00312955 -0.00538693 -0.00711308 -0.00830799 -0.00904097 -0.00938132 -0.00932904 -0.00888413 -0.00816765 -0.00730066 -0.00628315 -0.00511514 -0.00394513 -0.00292165 -0.00204471 -0.0013143 -0.000739291 -0.000328574 -8.21435e-05 0 0 -4.21296e-05 -0.000168519 -0.000379167 -0.000674074 -0.00107656 -0.00160996 -0.00227425 -0.00306945 -0.00395463 -0.00488888 -0.00587218 -0.00690456 -0.00794896 -0.00896836 -0.00996277 -0.0109322 -0.01185 -0.0126898 -0.0134514 -0.014135 -0.014727 -0.0152141 -0.0155962 -0.0158735 -0.0160503 -0.0161313 -0.0161164 -0.0160055 -0.015823 -0.015593 -0.0153155 -0.0149905 -0.0146548 -0.014345 -0.0140613 -0.0138036 -0.0136054 -0.0135002 -0.0134882 -0.0135691 -0.0137568 -0.0140648 -0.0144932 -0.0150418 -0.0156959 -0.0164405 -0.0172757 -0.0182014 -0.0191756 -0.0201562 -0.0211433 -0.0221369 -0.0230727 -0.0238866 -0.0245786 -0.0251487 -0.0255145 -0.0255934 -0.0253856 -0.0248908 -0.0240194 -0.0226815 -0.0208771 -0.0186061 -0.0158054 -0.0124117 -0.00842507 -0.00384548 0.00130769 0.00701508 0.0132767 0.0200925 0.0273189 0.0348126 0.0425734 0.0506013 0.0586497 0.0664717 0.0740675 0.081437 0.0883212 0.0944613 0.0998572 0.104509 0.108257 0.110941 0.112561 0.113118 0.112618 0.111071 0.108476 0.104833 0.100314 0.0950888 0.0891586 0.082523 0.0754442 0.0681845 0.0607438 0.053122 0.0455667 0.0383251 0.0313972 0.024783 0.0186291 0.0130822 0.00814212 0.00380895 0.000102314 -0.00295815 -0.00537245 -0.00714057 -0.00834321 -0.00906106 -0.00929412 -0.00904239 -0.00844787 -0.00765255 -0.00665645 -0.00545954 -0.00423488 -0.00315548 -0.00222134 -0.00143247 -0.000805766 -0.000358118 -8.95295e-05 0 0 -4.8782e-05 -0.000195128 -0.000439038 -0.000780512 -0.00124257 -0.00184821 -0.00259746 -0.0034903 -0.00447537 -0.00550134 -0.00656819 -0.00767592 -0.00877954 -0.00983402 -0.0108394 -0.0117956 -0.0126715 -0.0134357 -0.0140884 -0.0146295 -0.015046 -0.0153248 -0.0154658 -0.0154692 -0.0153465 -0.0151093 -0.0147576 -0.0142914 -0.0137479 -0.0131646 -0.0125414 -0.0118783 -0.011227 -0.0106391 -0.0101146 -0.00965361 -0.00929977 -0.00909686 -0.00904488 -0.00914383 -0.00940749 -0.00984968 -0.0104704 -0.0112696 -0.0122215 -0.0133001 -0.0145055 -0.0158376 -0.0172358 -0.0186393 -0.020048 -0.0214619 -0.0227955 -0.0239628 -0.0249639 -0.0257988 -0.026364 -0.0265559 -0.0263745 -0.0258198 -0.0247838 -0.0231586 -0.0209442 -0.0181406 -0.0146753 -0.010476 -0.00554276 0.000124504 0.00649637 0.0135434 0.0212657 0.0296632 0.0385565 0.0477662 0.0572925 0.0671352 0.0769932 0.0865655 0.0958521 0.104853 0.113256 0.120751 0.127336 0.133013 0.137589 0.140875 0.142871 0.143576 0.142999 0.141148 0.138024 0.133627 0.128158 0.121821 0.114615 0.106539 0.0979088 0.0890361 0.0799212 0.0705642 0.0612647 0.0523227 0.0437379 0.0355105 0.0278214 0.0208518 0.0146015 0.0090707 0.00428734 0.000279547 -0.00295268 -0.00540933 -0.00718343 -0.00836797 -0.00896296 -0.00896839 -0.00854926 -0.00787056 -0.00693229 -0.00573445 -0.00447655 -0.0033581 -0.00237912 -0.00153959 -0.000866021 -0.000384898 -9.62246e-05 0 0 -5.56031e-05 -0.000222412 -0.000500428 -0.00088965 -0.00141193 -0.00208912 -0.00292122 -0.00390823 -0.00498677 -0.00609347 -0.00722831 -0.00839131 -0.00952815 -0.0105845 -0.0115603 -0.0124557 -0.013234 -0.0138587 -0.0143297 -0.014647 -0.0147987 -0.0147726 -0.0145687 -0.014187 -0.0136485 -0.0129743 -0.0121643 -0.0112185 -0.010191 -0.00913602 -0.00805351 -0.00694348 -0.00587627 -0.00492223 -0.00408136 -0.00335366 -0.00279534 -0.00246261 -0.00235547 -0.00247392 -0.00283151 -0.00344183 -0.00430486 -0.00542061 -0.00674916 -0.00825059 -0.0099249 -0.0117721 -0.013708 -0.0156486 -0.0175939 -0.0195437 -0.0213863 -0.0230097 -0.0244138 -0.0255988 -0.0264362 -0.026798 -0.0266841 -0.0260945 -0.024901 -0.0229754 -0.0203177 -0.016928 -0.0127244 -0.00762533 -0.00163079 0.00525924 0.0130024 0.0215565 0.0309215 0.0410974 0.051863 0.0629971 0.0744999 0.0863712 0.098249 0.109771 0.120937 0.131748 0.141834 0.150827 0.158727 0.165534 0.171025 0.174976 0.177388 0.17826 0.177601 0.175421 0.17172 0.166497 0.159987 0.152425 0.143811 0.134145 0.123794 0.113128 0.102146 0.090848 0.0795921 0.0687365 0.0582809 0.0482255 0.0387911 0.0301986 0.0224478 0.0155389 0.00951077 0.00440221 0.000213272 -0.00305605 -0.00551175 -0.00725981 -0.00830023 -0.00863301 -0.00844824 -0.00793598 -0.00709624 -0.00592901 -0.00466232 -0.00352418 -0.00251459 -0.00163354 -0.000918867 -0.000408386 -0.000102096 0 0 -6.2397e-05 -0.000249588 -0.000561573 -0.000998353 -0.0015795 -0.00232458 -0.00323359 -0.00430654 -0.00546624 -0.00663548 -0.00781429 -0.00900264 -0.0101353 -0.011147 -0.0120377 -0.0128074 -0.0134134 -0.0138128 -0.0140058 -0.0139922 -0.0137618 -0.0133044 -0.0126198 -0.0117082 -0.010603 -0.00933761 -0.00791203 -0.00632627 -0.00465599 -0.00297685 -0.00128883 0.000408044 0.00202 0.00345324 0.00470778 0.0057836 0.00660925 0.00711328 0.00729567 0.00715643 0.00668272 0.00586169 0.00469334 0.00317766 0.00137243 -0.000664597 -0.00293342 -0.00543404 -0.00805323 -0.0106777 -0.0133076 -0.0159428 -0.0184395 -0.0206538 -0.0225858 -0.0242355 -0.0254457 -0.0260595 -0.0260767 -0.0254974 -0.0241709 -0.0219467 -0.0188246 -0.0148048 -0.00979648 -0.00370899 0.00345769 0.0117035 0.0209696 0.0311967 0.0423851 0.0545346 0.0673754 0.0806376 0.0943214 0.108427 0.122523 0.136182 0.149403 0.162185 0.1741 0.18472 0.194044 0.202072 0.208549 0.213218 0.216081 0.217136 0.216394 0.213864 0.209546 0.203441 0.195813 0.186931 0.176794 0.165402 0.15318 0.140554 0.127523 0.114087 0.100669 0.08769 0.0751502 0.0630496 0.0516551 0.0412333 0.0317844 0.0233083 0.0158578 0.0094859 0.00419245 -2.2501e-05 -0.00327832 -0.00569436 -0.00727064 -0.00800714 -0.00812119 -0.00783008 -0.00713381 -0.00603239 -0.00478439 -0.00364835 -0.00262429 -0.0017122 -0.000963114 -0.00042805 -0.000107013 0 0 -6.91638e-05 -0.000276655 -0.000622474 -0.00110662 -0.00174527 -0.00255458 -0.00353457 -0.00468523 -0.00591377 -0.00712739 -0.0083261 -0.00950989 -0.0106009 -0.0115214 -0.0122713 -0.0128506 -0.0132096 -0.0132982 -0.0131167 -0.012665 -0.0119353 -0.0109201 -0.00961932 -0.00803299 -0.00621001 -0.00419933 -0.00200092 0.000385191 0.00285711 0.00531294 0.00775266 0.0101763 0.0124618 0.0144873 0.0162528 0.0177582 0.018914 0.0196308 0.0199085 0.0197472 0.0191352 0.0180609 0.0165242 0.0145252 0.0121433 0.0094579 0.00646895 0.00317646 -0.000271441 -0.00372667 -0.00718922 -0.0106591 -0.0139549 -0.0168951 -0.0194798 -0.021709 -0.0233925 -0.0243403 -0.0245522 -0.0240284 -0.0225935 -0.0200724 -0.0164649 -0.0117711 -0.00589158 0.00127301 0.00972267 0.0194574 0.0303977 0.0424641 0.0556564 0.0699748 0.0850937 0.100688 0.116757 0.133301 0.149817 0.165799 0.181248 0.196163 0.210054 0.222428 0.233285 0.242625 0.25016 0.255602 0.258951 0.260206 0.259379 0.256478 0.251505 0.244458 0.235636 0.225338 0.213562 0.20031 0.186066 0.171313 0.156052 0.140282 0.124495 0.109183 0.0943457 0.0799828 0.0664132 0.0539561 0.0426112 0.0323788 0.0233286 0.0155306 0.00898485 0.00369133 -0.00048312 -0.00367162 -0.00587417 -0.00709078 -0.00756811 -0.00755286 -0.00704502 -0.00604459 -0.00484274 -0.00373061 -0.00270823 -0.00177557 -0.000998759 -0.000443893 -0.000110973 0 0 -7.59034e-05 -0.000303614 -0.000683131 -0.00121445 -0.00190924 -0.00277914 -0.00382416 -0.00504429 -0.00632936 -0.00756918 -0.00876376 -0.00991308 -0.0109251 -0.0117079 -0.0122613 -0.0125855 -0.0126226 -0.0123149 -0.0116625 -0.0106654 -0.00931921 -0.0076198 -0.00556715 -0.00316125 -0.000469533 0.00244057 0.00556906 0.00891593 0.0123483 0.0157333 0.019071 0.0223613 0.0254493 0.0281801 0.0305537 0.0325701 0.034119 0.03509 0.0354832 0.0352985 0.034526 0.0331558 0.0311878 0.0286221 0.0255635 0.0221169 0.0182822 0.0140594 0.00963734 0.00520462 0.000761291 -0.00369265 -0.00793251 -0.0117336 -0.0150958 -0.0180193 -0.0202766 -0.0216404 -0.0221108 -0.0216876 -0.0201689 -0.0173525 -0.0132385 -0.00782678 -0.00100967 0.00732065 0.0171642 0.0285209 0.0412869 0.0553585 0.0707355 0.0874179 0.105018 0.123148 0.141807 0.160995 0.180129 0.198621 0.216473 0.233684 0.249696 0.263952 0.276451 0.287194 0.295859 0.302127 0.305997 0.307469 0.306554 0.303262 0.297594 0.289549 0.279456 0.267646 0.254117 0.238871 0.222452 0.205406 0.187732 0.169432 0.151071 0.133216 0.115868 0.099025 0.0830657 0.0683668 0.0549283 0.0427503 0.0319229 0.0225363 0.0145905 0.00808543 0.00287384 -0.00119158 -0.00411083 -0.00588391 -0.00678902 -0.00710434 -0.00682987 -0.00596561 -0.00483737 -0.00377097 -0.0027664 -0.00182365 -0.00102581 -0.000455913 -0.000113978 0 0 -8.23934e-05 -0.000329574 -0.000741541 -0.00131829 -0.00206561 -0.00298925 -0.00408922 -0.00536552 -0.00668861 -0.00792898 -0.00908663 -0.0101615 -0.0110456 -0.0116307 -0.0119168 -0.0119039 -0.0115255 -0.010715 -0.00947231 -0.00779751 -0.00569097 -0.0