<?xml version="1.0"?> 
<VTKFile type="StructuredGrid" version="0.1"> 
<StructuredGrid WholeExtent="0 128 0 128 0 0"> 
<Piece Extent="0 128 0 128 0 0"> 
<PointData>
<DataArray type="Float32" Name="u" format="ascii" NumberOfComponents="1"> 
0 0 0 0 0 0 0 0 0 0 0 0 0 0 0 0 0 0 0 0 0 0 0 0 0 0 0 0 0 0 0 0 0 0 0 0 0 0 0 0 0 0 0 0 0 0 0 0 0 0 0 0 0 0 0 0 0 0 0 0 0 0 0 0 0 0 0 0 0 0 0 0 0 0 0 0 0 0 0 0 0 0 0 0 0 0 0 0 0 0 0 0 0 0 0 0 0 0 0 0 0 0 0 0 0 0 0 0 0 0 0 0 0 0 0 0 0 0 0 0 0 0 0 0 0 0 0 0 0 0 -1.16354e-08 -4.65417e-08 -1.04719e-07 -1.86167e-07 -4.97887e-07 -1.24688e-06 -2.43315e-06 -4.0567e-06 -6.19208e-06 -8.91387e-06 -1.22221e-05 -1.61167e-05 -2.05684e-05 -2.55481e-05 -3.10556e-05 -3.70911e-05 -4.36099e-05 -5.05677e-05 -5.79643e-05 -6.57999e-05 -7.39797e-05 -8.24091e-05 -9.10881e-05 -0.000100017 -0.000109023 -0.000117937 -0.000126756 -0.000135483 -0.000143898 -0.000151785 -0.000159144 -0.000165974 -0.000172099 -0.00017734 -0.000181698 -0.000185172 -0.000187721 -0.0001893 -0.00018991 -0.000189552 -0.000188357 -0.000186456 -0.000183851 -0.00018054 -0.000176779 -0.000172821 -0.000168667 -0.000164316 -0.000160022 -0.000156038 -0.000152364 -0.000149 -0.000146075 -0.000143719 -0.00014193 -0.00014071 -0.000140013 -0.000139794 -0.000140052 -0.000140789 -0.000141833 -0.000143019 -0.000144344 -0.000145809 -0.00014724 -0.000148464 -0.000149479 -0.000150287 -0.000150817 -0.000150999 -0.000150834 -0.000150321 -0.000149524 -0.000148507 -0.000147269 -0.000145811 -0.000144267 -0.000142773 -0.000141328 -0.000139933 -0.000138698 -0.000137736 -0.000137046 -0.000136628 -0.000136515 -0.00013674 -0.000137302 -0.000138201 -0.000139391 -0.000140823 -0.000142498 -0.000144416 -0.000146467 -0.000148543 -0.000150644 -0.000152769 -0.000154763 -0.000156471 -0.000157892 -0.000159026 -0.000159702 -0.000159746 -0.000159159 -0.00015794 -0.000155957 -0.000153079 -0.000149305 -0.000144636 -0.000139054 -0.000132541 -0.000125097 -0.000116721 -0.000107588 -9.78681e-05 -8.75626e-05 -7.6671e-05 -6.56483e-05 -5.49492e-05 -4.45739e-05 -3.45221e-05 -2.54078e-05 -1.78445e-05 -1.18323e-05 -7.37117e-06 -4.14628e-06 -1.84279e-06 -4.60698e-07 0 0 -4.65417e-08 -1.86167e-07 -4.18875e-07 -7.44667e-07 -1.99155e-06 -4.98753e-06 -9.73261e-06 -1.62268e-05 -2.47683e-05 -3.56555e-05 -4.88883e-05 -6.44666e-05 -8.22736e-05 -0.000102192 -0.000124222 -0.000148364 -0.00017444 -0.000202271 -0.000231857 -0.0002632 -0.000295919 -0.000329637 -0.000364353 -0.000400067 -0.000436094 -0.000471746 -0.000507025 -0.00054193 -0.000575591 -0.00060714 -0.000636575 -0.000663896 -0.000688395 -0.00070936 -0.000726791 -0.000740689 -0.000750882 -0.0007572 -0.000759642 -0.000758208 -0.000753426 -0.000745824 -0.000735403 -0.000722161 -0.000707116 -0.000691285 -0.000674668 -0.000657265 -0.000640088 -0.000624152 -0.000609456 -0.000596 -0.000584301 -0.000574875 -0.000567722 -0.000562842 -0.000560054 -0.000559176 -0.00056021 -0.000563154 -0.000567334 -0.000572074 -0.000577375 -0.000583235 -0.000588961 -0.000593854 -0.000597916 -0.000601147 -0.000603267 -0.000603996 -0.000603335 -0.000601283 -0.000598095 -0.000594026 -0.000589076 -0.000583243 -0.000577069 -0.000571092 -0.000565312 -0.00055973 -0.000554792 -0.000550942 -0.000548182 -0.000546511 -0.00054606 -0.000546958 -0.000549206 -0.000552804 -0.000557562 -0.000563292 -0.000569992 -0.000577664 -0.00058587 -0.000594174 -0.000602576 -0.000611076 -0.000619052 -0.000625882 -0.000631567 -0.000636106 -0.000638809 -0.000638985 -0.000636635 -0.000631758 -0.000623827 -0.000612315 -0.00059722 -0.000578544 -0.000556216 -0.000530163 -0.000500386 -0.000466886 -0.000430351 -0.000391473 -0.00035025 -0.000306684 -0.000262593 -0.000219797 -0.000178295 -0.000138088 -0.000101631 -7.1378e-05 -4.73292e-05 -2.94847e-05 -1.65851e-05 -7.37117e-06 -1.84279e-06 0 0 -1.04719e-07 -4.18875e-07 -9.42469e-07 -1.6755e-06 -4.48099e-06 -1.12219e-05 -2.18984e-05 -3.65103e-05 -5.57287e-05 -8.02248e-05 -0.000109999 -0.00014505 -0.000185116 -0.000229933 -0.0002795 -0.000333819 -0.000392489 -0.000455109 -0.000521679 -0.000592199 -0.000665818 -0.000741682 -0.000819793 -0.000900151 -0.00098121 -0.00106143 -0.00114081 -0.00121934 -0.00129508 -0.00136606 -0.00143229 -0.00149377 -0.00154889 -0.00159606 -0.00163528 -0.00166655 -0.00168949 -0.0017037 -0.00170919 -0.00170597 -0.00169521 -0.0016781 -0.00165466 -0.00162486 -0.00159101 -0.00155539 -0.001518 -0.00147885 -0.0014402 -0.00140434 -0.00137128 -0.001341 -0.00131468 -0.00129347 -0.00127737 -0.00126639 -0.00126012 -0.00125815 -0.00126047 -0.0012671 -0.0012765 -0.00128717 -0.00129909 -0.00131228 -0.00132516 -0.00133617 -0.00134531 -0.00135258 -0.00135735 -0.00135899 -0.0013575 -0.00135289 -0.00134571 -0.00133656 -0.00132542 -0.0013123 -0.0012984 -0.00128496 -0.00127195 -0.00125939 -0.00124828 -0.00123962 -0.00123341 -0.00122965 -0.00122863 -0.00123066 -0.00123571 -0.00124381 -0.00125452 -0.00126741 -0.00128248 -0.00129974 -0.00131821 -0.00133689 -0.00135579 -0.00137492 -0.00139287 -0.00140823 -0.00142103 -0.00143124 -0.00143732 -0.00143772 -0.00143243 -0.00142146 -0.00140361 -0.00137771 -0.00134375 -0.00130172 -0.00125149 -0.00119287 -0.00112587 -0.00105049 -0.00096829 -0.000880813 -0.000788063 -0.000690039 -0.000590835 -0.000494543 -0.000401165 -0.000310699 -0.00022867 -0.0001606 -0.000106491 -6.63405e-05 -3.73165e-05 -1.65851e-05 -4.14628e-06 0 0 -1.86167e-07 -7.44667e-07 -1.6755e-06 -2.97867e-06 -7.9662e-06 -1.99501e-05 -3.89304e-05 -6.49072e-05 -9.90733e-05 -0.000142622 -0.000195553 -0.000257867 -0.000329095 -0.000408769 -0.00049689 -0.000593457 -0.000697758 -0.000809083 -0.000927429 -0.0010528 -0.00118368 -0.00131855 -0.00145741 -0.00160027 -0.00174437 -0.00188699 -0.0020281 -0.00216772 -0.00230237 -0.00242856 -0.0025463 -0.00265559 -0.00275358 -0.00283744 -0.00290716 -0.00296276 -0.00300353 -0.0030288 -0.00303857 -0.00303283 -0.0030137 -0.0029833 -0.00294161 -0.00288864 -0.00282846 -0.00276514 -0.00269867 -0.00262906 -0.00256035 -0.00249661 -0.00243783 -0.002384 -0.0023372 -0.0022995 -0.00227089 -0.00225137 -0.00224022 -0.00223671 -0.00224084 -0.00225262 -0.00226934 -0.0022883 -0.0023095 -0.00233294 -0.00235584 -0.00237542 -0.00239167 -0.00240459 -0.00241307 -0.00241598 -0.00241334 -0.00240513 -0.00239238 -0.00237611 -0.0023563 -0.00233297 -0.00230828 -0.00228437 -0.00226125 -0.00223892 -0.00221917 -0.00220377 -0.00219273 -0.00218604 -0.00218424 -0.00218783 -0.00219682 -0.00221122 -0.00223025 -0.00225317 -0.00227997 -0.00231065 -0.00234348 -0.00237669 -0.0024103 -0.0024443 -0.00247621 -0.00250353 -0.00252627 -0.00254442 -0.00255524 -0.00255594 -0.00254654 -0.00252703 -0.00249531 -0.00244926 -0.00238888 -0.00231418 -0.00222486 -0.00212065 -0.00200154 -0.00186754 -0.0017214 -0.00156589 -0.001401 -0.00122674 -0.00105037 -0.000879188 -0.000713182 -0.000552354 -0.000406524 -0.000285512 -0.000189317 -0.000117939 -6.63405e-05 -2.94847e-05 -7.37117e-06 0 0 -5.43541e-07 -2.17416e-06 -4.89187e-06 -8.69665e-06 -1.87038e-05 -4.00287e-05 -7.26713e-05 -0.000116632 -0.000173544 -0.000245042 -0.000331127 -0.000431798 -0.000546236 -0.000673623 -0.000813958 -0.000967242 -0.00113231 -0.00130801 -0.00149433 -0.00169128 -0.00189648 -0.00210757 -0.00232455 -0.00254742 -0.00277194 -0.00299388 -0.00321325 -0.00343003 -0.0036389 -0.00383452 -0.00401689 -0.00418602 -0.00433758 -0.00446725 -0.00457505 -0.00466095 -0.004724 -0.00476322 -0.0047786 -0.00477015 -0.00474118 -0.00469502 -0.00463167 -0.00455112 -0.00445964 -0.00436349 -0.00426268 -0.0041572 -0.00405316 -0.00395671 -0.00386782 -0.0037865 -0.00371568 -0.00365826 -0.00361425 -0.00358365 -0.00356498 -0.00355675 -0.00355896 -0.00357161 -0.00359018 -0.00361014 -0.0036315 -0.00365426 -0.00367395 -0.00368611 -0.00369075 -0.00368785 -0.00367593 -0.00365345 -0.00362043 -0.00357687 -0.00352499 -0.00346704 -0.00340303 -0.00333294 -0.00326108 -0.00319175 -0.00312493 -0.00306063 -0.00300253 -0.00295429 -0.00291591 -0.0028874 -0.00287009 -0.0028653 -0.00287304 -0.0028933 -0.00292486 -0.0029665 -0.00301823 -0.00308003 -0.00314862 -0.00322069 -0.00329625 -0.0033753 -0.00345305 -0.00352474 -0.00359037 -0.00364994 -0.00369824 -0.00373008 -0.00374545 -0.00374435 -0.00372289 -0.00367716 -0.00360719 -0.00351295 -0.00339383 -0.0032492 -0.00307906 -0.00288341 -0.00266674 -0.00243352 -0.00218376 -0.00191745 -0.00164625 -0.00138179 -0.00112409 -0.000873127 -0.000644679 -0.000454505 -0.000302605 -0.000188979 -0.0001063 -4.72446e-05 -1.18112e-05 0 0 -1.4295e-06 -5.71798e-06 -1.28655e-05 -2.28719e-05 -4.29505e-05 -8.03143e-05 -0.000134963 -0.000206897 -0.000297882 -0.000409681 -0.000542296 -0.000695725 -0.000868566 -0.00105942 -0.00126827 -0.00149514 -0.00173822 -0.0019957 -0.0022676 -0.00255391 -0.00285122 -0.0031561 -0.00346856 -0.00378861 -0.00411027 -0.00442759 -0.00474058 -0.00504923 -0.00534613 -0.00562384 -0.00588238 -0.00612173 -0.006336 -0.00651926 -0.00667153 -0.00679279 -0.00688189 -0.00693767 -0.00696013 -0.00694927 -0.00690992 -0.00684691 -0.00676024 -0.00664991 -0.0065247 -0.00639341 -0.00625602 -0.00611255 -0.00597124 -0.00584039 -0.00571997 -0.00561 -0.00551389 -0.00543504 -0.00537346 -0.00532915 -0.00529906 -0.00528017 -0.00527247 -0.00527596 -0.00528336 -0.00528737 -0.00528801 -0.00528526 -0.00527241 -0.00524277 -0.00519632 -0.00513307 -0.00505144 -0.00494988 -0.00482837 -0.00468693 -0.00453043 -0.00436376 -0.00418691 -0.00399988 -0.00381124 -0.00362951 -0.00345471 -0.00328684 -0.00313344 -0.00300207 -0.00289274 -0.00280543 -0.0027434 -0.00270987 -0.00270484 -0.00272832 -0.00277844 -0.00285335 -0.00295304 -0.00307752 -0.00322057 -0.003376 -0.0035438 -0.00372398 -0.00390738 -0.00408486 -0.00425642 -0.00442207 -0.00457203 -0.00469655 -0.00479563 -0.00486926 -0.00491031 -0.00491163 -0.00487322 -0.00479509 -0.00467587 -0.00451419 -0.00431007 -0.00406349 -0.00378135 -0.00347053 -0.00313104 -0.00276287 -0.00238351 -0.00201042 -0.00164362 -0.00128309 -0.000952618 -0.000675972 -0.000453152 -0.000284159 -0.00015984 -7.10398e-05 -1.776e-05 0 0 -2.84403e-06 -1.13761e-05 -2.55963e-05 -4.55045e-05 -8.07062e-05 -0.000140807 -0.000225806 -0.000335705 -0.000472087 -0.000636539 -0.000829059 -0.00104965 -0.00129609 -0.00156615 -0.00185984 -0.00217715 -0.00251547 -0.00287217 -0.00324725 -0.00364071 -0.00404789 -0.00446414 -0.00488945 -0.00532383 -0.00575935 -0.00618812 -0.00661011 -0.00702534 -0.00742405 -0.00779653 -0.00814275 -0.00846273 -0.00874884 -0.00899346 -0.00919661 -0.00935827 -0.0094772 -0.00955217 -0.00958317 -0.0095702 -0.00951991 -0.00943895 -0.00932732 -0.00918501 -0.00902366 -0.00885489 -0.00867871 -0.00849511 -0.00831459 -0.00814765 -0.00799429 -0.0078545 -0.00773184 -0.00762984 -0.00754851 -0.00748784 -0.00744246 -0.00740697 -0.00738138 -0.00736568 -0.00734889 -0.00732 -0.00727902 -0.00722594 -0.00715125 -0.00704539 -0.00690838 -0.00674022 -0.00653961 -0.00630526 -0.00603717 -0.00573533 -0.00540871 -0.00506624 -0.00470794 -0.00433379 -0.00395873 -0.00359767 -0.0032506 -0.00291754 -0.0026119 -0.00234712 -0.0021232 -0.00194014 -0.00180417 -0.00172154 -0.00169224 -0.00171629 -0.001791 -0.0019137 -0.00208441 -0.00230311 -0.00255933 -0.00284262 -0.00315295 -0.00349035 -0.00383919 -0.00418388 -0.00452442 -0.0048608 -0.0051766 -0.00545535 -0.00569708 -0.00590177 -0.00605757 -0.00615264 -0.00618699 -0.0061606 -0.00607098 -0.00591563 -0.00569456 -0.00540777 -0.00506523 -0.00467692 -0.00424284 -0.00376299 -0.00326214 -0.00276507 -0.00227177 -0.00178224 -0.00133034 -0.000949913 -0.000640959 -0.000403481 -0.000226958 -0.00010087 -2.52176e-05 0 0 -4.78715e-06 -1.91486e-05 -4.30844e-05 -7.65944e-05 -0.000131971 -0.000221506 -0.000345201 -0.000503054 -0.00069616 -0.000925615 -0.00119142 -0.00149357 -0.00182879 -0.00219382 -0.00258865 -0.00301328 -0.00346408 -0.00393741 -0.00443327 -0.00495166 -0.0054865 -0.00603168 -0.00658721 -0.00715309 -0.0077192 -0.00827545 -0.00882183 -0.00935833 -0.00987268 -0.0103526 -0.010798 -0.011209 -0.0115761 -0.0118899 -0.0121503 -0.0123574 -0.0125099 -0.0126067 -0.0126477 -0.0126329 -0.0125712 -0.0124712 -0.0123329 -0.0121564 -0.0119565 -0.0117479 -0.0115307 -0.0113049 -0.0110832 -0.0108785 -0.0106908 -0.01052 -0.0103695 -0.0102427 -0.0101394 -0.0100597 -0.00999517 -0.00993715 -0.00988568 -0.00984077 -0.00978676 -0.00970802 -0.00960454 -0.00947632 -0.00931044 -0.00909398 -0.00882694 -0.00850932 -0.00814043 -0.0077196 -0.00724681 -0.00672206 -0.00615981 -0.0055745 -0.00496612 -0.00433467 -0.00370357 -0.00309621 -0.0025126 -0.00195274 -0.00143792 -0.000989443 -0.000607308 -0.000291514 -5.24016e-05 9.96888e-05 0.000164757 0.000142804 3.74799e-05 -0.000147562 -0.000412322 -0.000756801 -0.0011649 -0.00162054 -0.0021237 -0.0026744 -0.00324848 -0.0038218 -0.00439436 -0.00496615 -0.00551194 -0.00600649 -0.0064498 -0.00684187 -0.00716468 -0.00740022 -0.00754848 -0.00760947 -0.00757916 -0.00745352 -0.00723255 -0.00691625 -0.00651837 -0.00605268 -0.00551915 -0.00491781 -0.00428216 -0.00364575 -0.00300856 -0.00237059 -0.00177785 -0.00127633 -0.000866026 -0.000546944 -0.000307656 -0.000136736 -3.4184e-05 0 0 -7.39191e-06 -2.95676e-05 -6.65272e-05 -0.000118271 -0.000199825 -0.000326216 -0.000497445 -0.000713512 -0.000974289 -0.00127965 -0.0016296 -0.00202413 -0.00245849 -0.00292792 -0.00343244 -0.00397203 -0.00454184 -0.00513703 -0.0057576 -0.00640354 -0.00706733 -0.00774146 -0.00842591 -0.00912069 -0.00981371 -0.0104929 -0.0111581 -0.0118096 -0.0124326 -0.0130129 -0.0135503 -0.0140448 -0.0144858 -0.0148622 -0.0151742 -0.0154217 -0.0156039 -0.0157201 -0.0157702 -0.0157542 -0.0156832 -0.0155682 -0.0154093 -0.0152064 -0.0149773 -0.0147397 -0.0144936 -0.014239 -0.0139904 -0.013762 -0.0135539 -0.0133661 -0.0132006 -0.0130591 -0.0129418 -0.0128486 -0.0127665 -0.0126822 -0.0125959 -0.0125075 -0.0123954 -0.0122379 -0.0120351 -0.011787 -0.0114766 -0.0110871 -0.0106185 -0.0100706 -0.00944438 -0.00874049 -0.00795896 -0.00709978 -0.00618541 -0.00523832 -0.00425849 -0.00324594 -0.00223614 -0.00126457 -0.000331214 0.000563912 0.00138832 0.00210952 0.00272751 0.00324229 0.00363755 0.003897 0.00402064 0.00400846 0.00386526 0.00359583 0.00320017 0.00267828 0.00205395 0.00135094 0.00056926 -0.00029109 -0.00119413 -0.00210387 -0.00302032 -0.00394348 -0.00483589 -0.00566011 -0.00641615 -0.007104 -0.0076971 -0.0081689 -0.00851939 -0.00874857 -0.00885014 -0.00881781 -0.00865156 -0.0083514 -0.00793557 -0.00742233 -0.00681166 -0.00610358 -0.00534195 -0.00457063 -0.00378964 -0.00299897 -0.00225889 -0.0016297 -0.0011114 -0.000703969 -0.000395983 -0.000175992 -4.39981e-05 0 0 -1.07914e-05 -4.31655e-05 -9.71224e-05 -0.000172662 -0.000287347 -0.000458739 -0.000686838 -0.000971645 -0.00131066 -0.00170139 -0.00214382 -0.00263797 -0.00317696 -0.00375395 -0.00436893 -0.0050219 -0.00570658 -0.00641667 -0.00715218 -0.00791311 -0.0086907 -0.0094762 -0.0102696 -0.011071 -0.0118668 -0.0126436 -0.0134015 -0.0141403 -0.0148445 -0.0154983 -0.0161016 -0.0166545 -0.0171458 -0.0175643 -0.01791 -0.0181828 -0.0183832 -0.0185113 -0.0185671 -0.0185508 -0.0184756 -0.018355 -0.0181888 -0.0179773 -0.0177402 -0.0174973 -0.0172489 -0.0169947 -0.0167493 -0.0165271 -0.0163282 -0.0161525 -0.0159985 -0.0158648 -0.0157514 -0.0156582 -0.0155656 -0.0154537 -0.0153225 -0.0151721 -0.0149731 -0.0146962 -0.0143414 -0.0139086 -0.0133765 -0.0127234 -0.0119494 -0.0110544 -0.0100419 -0.00891556 -0.0076753 -0.00632113 -0.00488715 -0.00340748 -0.0018821 -0.000311027 0.00125315 0.00275784 0.00420305 0.00558876 0.00686663 0.00798831 0.00895381 0.00976311 0.0103913 0.0108136 0.0110299 0.0110402 0.0108506 0.0104672 0.00989003 0.00911903 0.00818845 0.00713252 0.00595125 0.00464464 0.003265 0.00186466 0.000443607 -0.000998148 -0.00240626 -0.00372637 -0.00495847 -0.00610258 -0.0071203 -0.00797324 -0.00866139 -0.00918476 -0.00953367 -0.00969847 -0.00967914 -0.00947569 -0.00911161 -0.00861039 -0.00797205 -0.00719656 -0.00633988 -0.00545793 -0.0045507 -0.00361821 -0.00273723 -0.00198453 -0.00136011 -0.000863979 -0.000485988 -0.000215995 -5.39987e-05 0 0 -1.49856e-05 -5.99422e-05 -0.00013487 -0.000239769 -0.000394538 -0.000619075 -0.00091338 -0.00127745 -0.00170527 -0.00219082 -0.00273409 -0.00333509 -0.00398422 -0.0046719 -0.00539813 -0.00616291 -0.00695829 -0.00777633 -0.00861702 -0.00948036 -0.0103566 -0.0112359 -0.0121184 -0.0130039 -0.0138784 -0.0147277 -0.0155518 -0.0163507 -0.0171083 -0.0178088 -0.018452 -0.0190381 -0.0195563 -0.0199962 -0.0203577 -0.0206408 -0.0208476 -0.0209801 -0.0210385 -0.0210227 -0.0209483 -0.0208313 -0.0206715 -0.020469 -0.020245 -0.0200209 -0.0197965 -0.0195719 -0.0193601 -0.019174 -0.0190136 -0.0188791 -0.0187634 -0.0186597 -0.0185681 -0.0184886 -0.0183925 -0.0182515 -0.0180655 -0.0178345 -0.0175199 -0.0170828 -0.0165232 -0.0158412 -0.01501 -0.0140029 -0.0128197 -0.0114605 -0.00993304 -0.00824479 -0.00639581 -0.0043861 -0.00226504 -8.19827e-05 0.00216305 0.00447008 0.00676432 0.00897102 0.0110902 0.0131218 0.014997 0.0166469 0.0180716 0.019271 0.020209 0.0208495 0.0211925 0.021238 0.0209935 0.0204666 0.0196573 0.0185654 0.0172386 0.0157242 0.0140223 0.0121328 0.0101289 0.00808379 0.00599743 0.00386983 0.00177695 -0.000205247 -0.00207677 -0.00383762 -0.00543428 -0.00681324 -0.00797449 -0.00891804 -0.00962975 -0.0100955 -0.0103153 -0.0102891 -0.0100465 -0.00961687 -0.0090003 -0.00819675 -0.00727596 -0.00630762 -0.00529174 -0.00422832 -0.00321285 -0.0023408 -0.00161217 -0.00102697 -0.000577672 -0.000256743 -6.41858e-05 0 0 -1.99744e-05 -7.98978e-05 -0.00017977 -0.000319591 -0.000521397 -0.000807223 -0.00117707 -0.00163094 -0.00215813 -0.00274795 -0.00340041 -0.00411549 -0.00488026 -0.00568178 -0.00652004 -0.00739505 -0.00829697 -0.00921599 -0.0101521 -0.0111053 -0.012065 -0.0130206 -0.0139721 -0.0149195 -0.0158486 -0.0167452 -0.0176091 -0.0184406 -0.0192241 -0.0199444 -0.0206015 -0.0211955 -0.0217172 -0.0221578 -0.0225172 -0.0227955 -0.0229971 -0.0231267 -0.0231843 -0.0231698 -0.0231014 -0.0229972 -0.0228573 -0.0226816 -0.022492 -0.0223103 -0.0221365 -0.0219706 -0.0218226 -0.0217025 -0.0216102 -0.0215459 -0.0214952 -0.0214439 -0.021392 -0.0213396 -0.0212473 -0.0210757 -0.0208249 -0.0204949 -0.0200358 -0.0193977 -0.0185807 -0.0175848 -0.0163772 -0.0149255 -0.0132294 -0.0112892 -0.00911775 -0.00672819 -0.00412051 -0.00129471 0.00168094 0.00473817 0.00787698 0.0110974 0.0142974 0.017375 0.0203302 0.023163 0.0257795 0.0280854 0.0300809 0.0317658 0.0330904 0.0340046 0.0345084 0.0346019 0.034294 0.033594 0.0325019 0.0310175 0.0292044 0.027126 0.0247823 0.0221734 0.0193976 0.0165535 0.0136411 0.0106605 0.00771374 0.00490324 0.00222895 -0.000309116 -0.00263904 -0.0046889 -0.00645868 -0.0079484 -0.00913837 -0.0100089 -0.01056 -0.0107917 -0.0107402 -0.0104418 -0.00989642 -0.00910416 -0.00815019 -0.00711972 -0.00601276 -0.00482931 -0.00368576 -0.00269851 -0.00186758 -0.00119295 -0.000671035 -0.000298238 -7.45594e-05 0 0 -2.56654e-05 -0.000102662 -0.000230989 -0.000410646 -0.000665375 -0.00101892 -0.00147127 -0.00202244 -0.00265559 -0.00335392 -0.0041174 -0.00494606 -0.00582268 -0.00673007 -0.00766822 -0.00863713 -0.00962479 -0.0106192 -0.0116202 -0.012628 -0.0136316 -0.0146198 -0.0155928 -0.0165505 -0.0174799 -0.0183679 -0.0192145 -0.0200197 -0.0207706 -0.0214544 -0.0220711 -0.0226207 -0.0230977 -0.0234965 -0.0238171 -0.0240595 -0.024232 -0.0243426 -0.0243915 -0.0243786 -0.0243244 -0.0242495 -0.0241537 -0.0240372 -0.0239208 -0.0238256 -0.0237516 -0.0236987 -0.0236714 -0.0236741 -0.0237068 -0.0237695 -0.0238376 -0.0238864 -0.0239161 -0.0239265 -0.0238647 -0.0236775 -0.0233651 -0.0229273 -0.0223012 -0.0214234 -0.020294 -0.0189131 -0.0172414 -0.0152397 -0.0129081 -0.0102465 -0.00727546 -0.00401531 -0.000466067 0.00337226 0.00740764 0.0115481 0.0157935 0.020144 0.024464 0.0286179 0.0326058 0.0364276 0.0399587 0.0430745 0.0457749 0.04806 0.0498632 0.0511179 0.0518241 0.0519818 0.0516018 0.0506949 0.0492611 0.0473004 0.044895 0.0421274 0.0389974 0.0355051 0.0317793 0.0279491 0.0240142 0.0199748 0.0159653 0.0121198 0.00843851 0.00492134 0.00166298 -0.0012419 -0.00379329 -0.0059912 -0.00780883 -0.00921936 -0.0102228 -0.0108192 -0.0110523 -0.0109662 -0.0105607 -0.00983584 -0.00889447 -0.00783938 -0.00667055 -0.00538799 -0.00413132 -0.0030402 -0.00211461 -0.00135456 -0.000761941 -0.000338641 -8.46601e-05 0 0 -3.19657e-05 -0.000127863 -0.000287692 -0.000511452 -0.000823924 -0.00124989 -0.00178934 -0.00244229 -0.00318402 -0.00398983 -0.00485972 -0.00579368 -0.00676908 -0.00776326 -0.00877623 -0.00980798 -0.0108439 -0.0118693 -0.0128842 -0.0138887 -0.0148719 -0.0158231 -0.0167424 -0.0176297 -0.018475 -0.0192681 -0.020009 -0.0206978 -0.0213268 -0.0218881 -0.0223818 -0.0228079 -0.023167 -0.0234596 -0.0236858 -0.0238454 -0.0239522 -0.0240194 -0.0240472 -0.0240355 -0.0240071 -0.0239847 -0.0239682 -0.0239578 -0.0239714 -0.024027 -0.0241245 -0.024264 -0.0244408 -0.0246501 -0.024892 -0.0251664 -0.0254343 -0.0256565 -0.0258332 -0.0259643 -0.0259793 -0.025808 -0.0254502 -0.024906 -0.0240964 -0.0229422 -0.0214434 -0.0196 -0.0173657 -0.0146941 -0.0115852 -0.00803887 -0.00408559 0.000244314 0.00495085 0.010034 0.0153719 0.0208428 0.0264465 0.0321832 0.0378759 0.0433481 0.0485996 0.0536305 0.0582794 0.0623849 0.0659471 0.0689658 0.071355 0.0730284 0.0739861 0.0742279 0.0737666 0.0726147 0.0707722 0.0682392 0.0651197 0.0615178 0.0574335 0.0528667 0.0479825 0.0429456 0.0377561 0.0324141 0.0270927 0.0219652 0.0170317 0.0122921 0.00786933 0.00388607 0.000342359 -0.0027618 -0.00539043 -0.00750757 -0.00911323 -0.0102074 -0.0108426 -0.0110712 -0.0108933 -0.0103089 -0.00944074 -0.00841175 -0.00722191 -0.0058712 -0.00452492 -0.00334837 -0.00234155 -0.00150446 -0.000846258 -0.000376115 -9.40287e-05 0 0 -3.88755e-05 -0.000155502 -0.000349879 -0.000622008 -0.000997041 -0.00150013 -0.00213129 -0.0028905 -0.00374342 -0.0046557 -0.00562735 -0.00665836 -0.00771945 -0.00878136 -0.00984407 -0.0109076 -0.0119543 -0.0129664 -0.0139441 -0.0148872 -0.015786 -0.0166305 -0.0174209 -0.018157 -0.0188337 -0.0194455 -0.0199926 -0.0204749 -0.0208925 -0.0212454 -0.0215335 -0.021757 -0.0219251 -0.0220472 -0.0221233 -0.0221532 -0.0221577 -0.022157 -0.0221512 -0.0221404 -0.0221493 -0.0222028 -0.0223009 -0.0224436 -0.0226438 -0.0229143 -0.0232553 -0.0236666 -0.0241309 -0.0246306 -0.0251659 -0.0257366 -0.0262853 -0.0267542 -0.0271434 -0.0274529 -0.0275913 -0.0274671 -0.0270803 -0.026431 -0.0254214 -0.023954 -0.0220287 -0.0196456 -0.0167504 -0.0132887 -0.00926066 -0.00466619 0.000451864 0.00605067 0.0121302 0.0186906 0.0255739 0.0326223 0.039836 0.0472148 0.0545332 0.0615655 0.0683117 0.0747718 0.0807416 0.0860167 0.0905973 0.0944832 0.0975658 0.0997361 0.100994 0.10134 0.100788 0.0993533 0.0970352 0.093834 0.0898784 0.0852973 0.0800905 0.0742583 0.0680069 0.0615432 0.0548669 0.0479781 0.0410959 0.0344394 0.0280085 0.0218033 0.01598 0.010695 0.00594827 0.00173982 -0.00188317 -0.00487354 -0.00723126 -0.00895635 -0.0101109 -0.0107569 -0.0108943 -0.0105232 -0.00978898 -0.00883684 -0.00766683 -0.00627894 -0.00486655 -0.00362304 -0.0025484 -0.00164264 -0.000923986 -0.00041066 -0.000102665 0 0 -4.63947e-05 -0.000185579 -0.000417552 -0.000742315 -0.00118473 -0.00176966 -0.0024971 -0.00336706 -0.00433378 -0.00535152 -0.00642029 -0.00754008 -0.0086738 -0.00978435 -0.0108717 -0.011936 -0.0129559 -0.0139105 -0.0147998 -0.0156236 -0.0163738 -0.017042 -0.0176282 -0.0181325 -0.0185561 -0.0189003 -0.0191653 -0.019351 -0.0194678 -0.0195263 -0.0195263 -0.019468 -0.0193721 -0.0192593 -0.0191295 -0.0189829 -0.0188485 -0.0187555 -0.0187037 -0.0186933 -0.0187511 -0.0189038 -0.0191516 -0.0194944 -0.0199379 -0.0204877 -0.0211439 -0.0219065 -0.0227416 -0.0236156 -0.0245285 -0.0254802 -0.0263905 -0.0271794 -0.0278467 -0.0283925 -0.0287006 -0.0286549 -0.0282555 -0.0275022 -0.0262763 -0.0244589 -0.0220501 -0.0190498 -0.0153952 -0.0110235 -0.00593457 -0.000128491 0.0063369 0.0134038 0.0210721 0.0293419 0.0380134 0.0468867 0.0559619 0.065239 0.0744358 0.0832702 0.0917421 0.0998516 0.107345 0.11397 0.119726 0.124612 0.128495 0.131241 0.132848 0.133318 0.132667 0.130911 0.12805 0.124085 0.119171 0.113466 0.106969 0.0996797 0.0918528 0.0837417 0.0753465 0.066667 0.0579751 0.0495424 0.041369 0.0334548 0.025995 0.0191849 0.0130245 0.00751365 0.00271294 -0.00131725 -0.0045769 -0.00706603 -0.00885724 -0.0100231 -0.0105637 -0.010479 -0.0099392 -0.00911464 -0.00800531 -0.0066112 -0.0051562 -0.00386419 -0.00273515 -0.00176911 -0.000995123 -0.000442277 -0.000110569 0 0 -5.4292e-05 -0.000217168 -0.000488628 -0.000868671 -0.00138091 -0.00204896 -0.00287281 -0.00385246 -0.00492878 -0.0060426 -0.00719393 -0.00838276 -0.00956266 -0.0106872 -0.0117563 -0.01277 -0.0137033 -0.0145308 -0.0152527 -0.0158689 -0.0163735 -0.0167608 -0.0170306 -0.0171831 -0.0172287 -0.0171781 -0.0170313 -0.0167883 -0.0164738 -0.0161124 -0.0157042 -0.0152491 -0.0147831 -0.0143421 -0.013926 -0.0135348 -0.0132085 -0.0129873 -0.012871 -0.0128596 -0.012982 -0.0132666 -0.0137136 -0.0143229 -0.0150901 -0.0160108 -0.0170851 -0.018313 -0.0196395 -0.0210099 -0.0224241 -0.0238821 -0.025276 -0.0264976 -0.0275469 -0.0284241 -0.0289837 -0.0290805 -0.0287147 -0.027886 -0.0264518 -0.0242691 -0.0213381 -0.0176586 -0.013159 -0.0077675 -0.00148419 0.00569097 0.0136816 0.0224113 0.0318801 0.042088 0.052786 0.0637252 0.0749056 0.0863272 0.0976436 0.108508 0.118922 0.128883 0.138086 0.146223 0.153295 0.1593 0.164079 0.167469 0.16947 0.170082 0.169325 0.167216 0.163756 0.158944 0.152967 0.14601 0.138072 0.129154 0.11956 0.109597 0.0992627 0.0885587 0.0778154 0.067364 0.0572044 0.0473365 0.0380007 0.0294374 0.0216465 0.0146281 0.00845859 0.00321454 -0.00110404 -0.00449716 -0.00704875 -0.00884275 -0.00987916 -0.010158 -0.00987698 -0.00923394 -0.00822884 -0.00686171 -0.00538939 -0.00406879 -0.00289989 -0.00188269 -0.00105901 -0.000470673 -0.000117668 0 0 -6.23361e-05 -0.000249344 -0.000561025 -0.000997378 -0.00157951 -0.00232853 -0.00324443 -0.00432722 -0.00550209 -0.00669422 -0.00790363 -0.00913031 -0.0103166 -0.0114047 -0.0123948 -0.0132868 -0.0140506 -0.0146564 -0.0151042 -0.0153939 -0.0155233 -0.01549 -0.0152942 -0.0149358 -0.0144381 -0.0138245 -0.0130948 -0.0122492 -0.0113314 -0.0103854 -0.00941109 -0.00840855 -0.00743359 -0.00654202 -0.00573384 -0.00500905 -0.00442146 -0.00402489 -0.00381933 -0.00380478 -0.00401154 -0.0044699 -0.00517988 -0.00614147 -0.00733664 -0.00874737 -0.0103737 -0.0122155 -0.014191 -0.0162181 -0.018297 -0.0204276 -0.0224674 -0.0242743 -0.0258481 -0.0271888 -0.028117 -0.0284531 -0.028197 -0.0273488 -0.0257387 -0.0231968 -0.0197232 -0.0153178 -0.00990015 -0.00338983 0.00421321 0.0129089 0.022598 0.033181 0.0446579 0.0570288 0.0699873 0.0832271 0.0967483 0.110551 0.124216 0.137327 0.149881 0.161881 0.172961 0.182756 0.191268 0.198495 0.204251 0.208345 0.210778 0.211551 0.210683 0.208197 0.204091 0.198366 0.191236 0.182916 0.173405 0.162703 0.15117 0.139163 0.126683 0.113731 0.100702 0.0879939 0.0756059 0.0635383 0.0520836 0.0415342 0.0318902 0.0231516 0.0154144 0.00877508 0.00323344 -0.00121046 -0.00465248 -0.00718843 -0.00881834 -0.00954219 -0.00958793 -0.00918351 -0.00832891 -0.00702414 -0.00556163 -0.00423381 -0.00304067 -0.00198222 -0.001115 -0.000495555 -0.000123889 0 0 -7.05272e-05 -0.000282109 -0.000634744 -0.00112843 -0.00178053 -0.00260837 -0.00361197 -0.00479132 -0.0060537 -0.0073064 -0.0085494 -0.00978273 -0.0109355 -0.011937 -0.0127872 -0.0134861 -0.013998 -0.0142874 -0.0143543 -0.0141987 -0.013823 -0.0132298 -0.012419 -0.0113907 -0.0101844 -0.0088394 -0.00735579 -0.00573354 -0.00404067 -0.00234516 -0.000647025 0.00105374 0.00267658 0.00414094 0.00544682 0.00659423 0.00751267 0.00813166 0.0084512 0.00847129 0.00816022 0.00748628 0.00644946 0.00504976 0.00332242 0.00130267 -0.0010095 -0.00361408 -0.00639607 -0.00924046 -0.0121473 -0.0151165 -0.0179649 -0.0205094 -0.0227501 -0.0246868 -0.0261007 -0.0267726 -0.0267026 -0.0258907 -0.024137 -0.021242 -0.0172054 -0.0120274 -0.00561881 0.00210954 0.0111576 0.0215254 0.0330861 0.0457128 0.0594056 0.0741643 0.0896172 0.105392 0.12149 0.13791 0.154154 0.169725 0.184621 0.198844 0.211968 0.223568 0.233645 0.242197 0.249011 0.25387 0.256774 0.257724 0.256743 0.253854 0.249056 0.24235 0.233978 0.224184 0.212967 0.200328 0.186681 0.172441 0.157609 0.142184 0.126636 0.111432 0.0965736 0.0820602 0.0682435 0.0554752 0.0437554 0.033084 0.0235805 0.0153644 0.00843554 0.00279406 -0.00166841 -0.00506017 -0.00738124 -0.0086316 -0.00907205 -0.00896335 -0.0083055 -0.00709851 -0.00567292 -0.00435925 -0.00315751 -0.0020677 -0.00116308 -0.000516924 -0.000129231 0 0 -7.88651e-05 -0.00031546 -0.000709786 -0.00126184 -0.00198396 -0.00288849 -0.00397543 -0.00524476 -0.00658362 -0.00787912 -0.00913124 -0.01034 -0.0114196 -0.0122841 -0.0129336 -0.013368 -0.0135454 -0.0134238 -0.013003 -0.0122832 -0.0112727 -0.00997995 -0.008405 -0.00654781 -0.00446744 -0.00222293 0.000185734 0.00275854 0.00539839 0.00800821 0.010588 0.0131377 0.0155474 0.0177068 0.019616 0.0212751 0.0225939 0.0234824 0.0239406 0.0239686 0.0235333 0.0226019 0.0211744 0.0192508 0.0168871 0.0141393 0.0110073 0.00749131 0.00374524 -7.68084e-05 -0.00397483 -0.00794882 -0.0117684 -0.0152031 -0.018253 -0.020918 -0.0229345 -0.024039 -0.0242313 -0.0235115 -0.0216468 -0.0184046 -0.0137848 -0.00778752 -0.000314937 0.00873058 0.019349 0.0315405 0.045146 0.0600068 0.076123 0.0934945 0.111676 0.130221 0.149131 0.168405 0.187457 0.205703 0.223141 0.239773 0.255109 0.26866 0.280425 0.290406 0.29836 0.304044 0.307458 0.308603 0.307504 0.304186 0.29865 0.290895 0.281193 0.269814 0.256759 0.242028 0.226094 0.209431 0.192039 0.173918 0.155615 0.137679 0.120108 0.102902 0.0864805 0.0712605 0.0572422 0.0444255 0.0329568 0.0229824 0.0145023 0.0075164 0.00190345 -0.00245797 -0.00556786 -0.00742622 -0.00832932 -0.00857346 -0.00815863 -0.00708482 -0.00572325 -0.00444511 -0.0032504 -0.00213912 -0.00120326 -0.000534781 -0.000133695 0 0 -8.70866e-05 -0.000348346 -0.00078378 -0.00139339 -0.00218297 -0.00315835 -0.00431952 -0.00566649 -0.00706374 -0.00837578 -0.00960262 -0.0107443 -0.0116976 -0.0123596 -0.0127301 -0.0128093 -0.0125478 -0.0118962 -0.0108544 -0.00942251 -0.00761644 -0.00545212 -0.00292955 -4.87245e-05 0.00310729 0.00645544