<?xml version="1.0"?> 
<VTKFile type="StructuredGrid" version="0.1"> 
<StructuredGrid WholeExtent="0 128 0 128 0 0"> 
<Piece Extent="0 128 0 128 0 0"> 
<PointData>
<DataArray type="Float32" Name="u" format="ascii" NumberOfComponents="1"> 
0 0 0 0 0 0 0 0 0 0 0 0 0 0 0 0 0 0 0 0 0 0 0 0 0 0 0 0 0 0 0 0 0 0 0 0 0 0 0 0 0 0 0 0 0 0 0 0 0 0 0 0 0 0 0 0 0 0 0 0 0 0 0 0 0 0 0 0 0 0 0 0 0 0 0 0 0 0 0 0 0 0 0 0 0 0 0 0 0 0 0 0 0 0 0 0 0 0 0 0 0 0 0 0 0 0 0 0 0 0 0 0 0 0 0 0 0 0 0 0 0 0 0 0 0 0 0 0 0 0 -4.6183e-08 -1.84732e-07 -4.15647e-07 -7.38928e-07 -1.36488e-06 -2.50382e-06 -4.15574e-06 -6.32064e-06 -9.02365e-06 -1.22899e-05 -1.61193e-05 -2.0512e-05 -2.54065e-05 -3.07414e-05 -3.65167e-05 -4.27323e-05 -4.93241e-05 -5.62279e-05 -6.34437e-05 -7.09714e-05 -7.87136e-05 -8.6573e-05 -9.45495e-05 -0.000102643 -0.000110708 -0.000118598 -0.000126314 -0.000133856 -0.000141059 -0.000147761 -0.000153961 -0.000159661 -0.00016474 -0.000169083 -0.00017269 -0.000175559 -0.000177679 -0.000179036 -0.000179632 -0.000179465 -0.000178646 -0.000177285 -0.00017538 -0.000172933 -0.000170134 -0.000167173 -0.00016405 -0.000160765 -0.000157504 -0.000154455 -0.000151617 -0.00014899 -0.000146667 -0.000144742 -0.000143214 -0.000142084 -0.000141302 -0.000140817 -0.00014063 -0.000140741 -0.000140978 -0.000141169 -0.000141313 -0.000141411 -0.000141264 -0.000140673 -0.000139637 -0.000138157 -0.000136136 -0.000133477 -0.000130181 -0.000126246 -0.000121767 -0.000116836 -0.000111453 -0.000105618 -9.95931e-05 -9.36385e-05 -8.77546e-05 -8.19414e-05 -7.64981e-05 -7.17239e-05 -6.76188e-05 -6.41828e-05 -6.15908e-05 -6.00174e-05 -5.94629e-05 -5.9927e-05 -6.13628e-05 -6.37228e-05 -6.70073e-05 -7.12161e-05 -7.60965e-05 -8.13957e-05 -8.71138e-05 -9.32507e-05 -9.9459e-05 -0.000105391 -0.000111048 -0.000116428 -0.000121231 -0.000125154 -0.000128198 -0.000130362 -0.000131493 -0.000131436 -0.000130191 -0.000127758 -0.000124168 -0.000119453 -0.000113612 -0.000106645 -9.87772e-05 -9.02346e-05 -8.10167e-05 -7.11236e-05 -6.10207e-05 -5.11734e-05 -4.15817e-05 -3.22456e-05 -2.37562e-05 -1.67045e-05 -1.10906e-05 -6.91449e-06 -3.8894e-06 -1.72862e-06 -4.32155e-07 0 0 -1.84732e-07 -7.38928e-07 -1.66259e-06 -2.95571e-06 -5.45953e-06 -1.00153e-05 -1.6623e-05 -2.52826e-05 -3.60946e-05 -4.91595e-05 -6.44774e-05 -8.20481e-05 -0.000101626 -0.000122966 -0.000146067 -0.000170929 -0.000197297 -0.000224912 -0.000253775 -0.000283886 -0.000314855 -0.000346292 -0.000378198 -0.000410573 -0.000442832 -0.000474394 -0.000505257 -0.000535423 -0.000564236 -0.000591044 -0.000615846 -0.000638642 -0.000658962 -0.000676334 -0.000690758 -0.000702235 -0.000710714 -0.000716145 -0.000718528 -0.000717862 -0.000714586 -0.000709139 -0.000701522 -0.000691733 -0.000680536 -0.000668691 -0.000656198 -0.000643059 -0.000630017 -0.00061782 -0.000606468 -0.000595959 -0.000586668 -0.000578967 -0.000572856 -0.000568336 -0.000565206 -0.000563268 -0.000562521 -0.000562965 -0.000563912 -0.000564675 -0.000565253 -0.000565646 -0.000565058 -0.000562692 -0.00055855 -0.00055263 -0.000544545 -0.00053391 -0.000520723 -0.000504985 -0.000487068 -0.000467344 -0.000445812 -0.000422473 -0.000398372 -0.000374554 -0.000351019 -0.000327766 -0.000305993 -0.000286896 -0.000270475 -0.000256731 -0.000246363 -0.00024007 -0.000237851 -0.000239708 -0.000245451 -0.000254891 -0.000268029 -0.000284864 -0.000304386 -0.000325583 -0.000348455 -0.000373003 -0.000397836 -0.000421566 -0.000444191 -0.000465713 -0.000484924 -0.000500618 -0.000512793 -0.00052145 -0.000525973 -0.000525744 -0.000520764 -0.000511032 -0.000496673 -0.000477811 -0.000454446 -0.000426579 -0.000395109 -0.000360938 -0.000324067 -0.000284494 -0.000244083 -0.000204694 -0.000166327 -0.000128982 -9.50247e-05 -6.6818e-05 -4.43625e-05 -2.76579e-05 -1.55576e-05 -6.91449e-06 -1.72862e-06 0 0 -4.15647e-07 -1.66259e-06 -3.74082e-06 -6.65035e-06 -1.22839e-05 -2.25344e-05 -3.74017e-05 -5.68858e-05 -8.12128e-05 -0.000110609 -0.000145074 -0.000184608 -0.000228659 -0.000276673 -0.00032865 -0.000384591 -0.000443917 -0.000506051 -0.000570993 -0.000638742 -0.000708423 -0.000779157 -0.000850946 -0.000923788 -0.000996373 -0.00106739 -0.00113683 -0.0012047 -0.00126953 -0.00132985 -0.00138565 -0.00143694 -0.00148266 -0.00152175 -0.00155421 -0.00158003 -0.00159911 -0.00161133 -0.00161669 -0.00161519 -0.00160782 -0.00159556 -0.00157842 -0.0015564 -0.00153121 -0.00150455 -0.00147645 -0.00144688 -0.00141754 -0.0013901 -0.00136455 -0.00134091 -0.00132 -0.00130268 -0.00128893 -0.00127876 -0.00127171 -0.00126735 -0.00126567 -0.00126667 -0.0012688 -0.00127052 -0.00127182 -0.0012727 -0.00127138 -0.00126606 -0.00125674 -0.00124342 -0.00122523 -0.0012013 -0.00117163 -0.00113622 -0.0010959 -0.00105152 -0.00100308 -0.000950565 -0.000896338 -0.000842747 -0.000789792 -0.000737473 -0.000688483 -0.000645515 -0.000608569 -0.000577645 -0.000554317 -0.000540157 -0.000535166 -0.000539343 -0.000552265 -0.000573506 -0.000603066 -0.000640945 -0.000684868 -0.000732561 -0.000784024 -0.000839256 -0.000895131 -0.000948523 -0.000999431 -0.00104786 -0.00109108 -0.00112639 -0.00115378 -0.00117326 -0.00118344 -0.00118292 -0.00117172 -0.00114982 -0.00111751 -0.00107508 -0.0010225 -0.000959802 -0.000888995 -0.000812111 -0.00072915 -0.000640112 -0.000549186 -0.000460561 -0.000374235 -0.00029021 -0.000213805 -0.000150341 -9.98155e-05 -6.22304e-05 -3.50046e-05 -1.55576e-05 -3.8894e-06 0 0 -7.38928e-07 -2.95571e-06 -6.65035e-06 -1.18229e-05 -2.18381e-05 -4.00611e-05 -6.64918e-05 -0.00010113 -0.000144378 -0.000196638 -0.000257909 -0.000328192 -0.000406504 -0.000491862 -0.000584267 -0.000683717 -0.000789186 -0.000899647 -0.0010151 -0.00113554 -0.00125942 -0.00138517 -0.00151279 -0.00164229 -0.00177133 -0.00189758 -0.00202103 -0.00214169 -0.00225695 -0.00236418 -0.00246338 -0.00255457 -0.00263585 -0.00270534 -0.00276303 -0.00280894 -0.00284286 -0.00286458 -0.00287411 -0.00287145 -0.00285834 -0.00283656 -0.00280609 -0.00276693 -0.00272214 -0.00267476 -0.00262479 -0.00257223 -0.00252007 -0.00247128 -0.00242587 -0.00238384 -0.00234667 -0.00231587 -0.00229142 -0.00227334 -0.00226082 -0.00225307 -0.00225008 -0.00225186 -0.00225565 -0.0022587 -0.00226101 -0.00226258 -0.00226023 -0.00225077 -0.0022342 -0.00221052 -0.00217818 -0.00213564 -0.00208289 -0.00201994 -0.00194827 -0.00186938 -0.00178325 -0.00168989 -0.00159349 -0.00149822 -0.00140407 -0.00131106 -0.00122397 -0.00114758 -0.0010819 -0.00102693 -0.000985452 -0.000960279 -0.000951406 -0.000958833 -0.000981804 -0.00101957 -0.00107212 -0.00113946 -0.00121754 -0.00130233 -0.00139382 -0.00149201 -0.00159134 -0.00168626 -0.00177677 -0.00186285 -0.0019397 -0.00200247 -0.00205117 -0.0020858 -0.00210389 -0.00210297 -0.00208305 -0.00204413 -0.00198669 -0.00191125 -0.00181779 -0.00170631 -0.00158044 -0.00144375 -0.00129627 -0.00113798 -0.000976331 -0.000818774 -0.000665307 -0.000515929 -0.000380099 -0.000267272 -0.00017745 -0.000110632 -6.22304e-05 -2.76579e-05 -6.91449e-06 0 0 -1.3946e-06 -5.57839e-06 -1.25514e-05 -2.23136e-05 -4.00412e-05 -7.09107e-05 -0.000114922 -0.000172075 -0.000242789 -0.000327483 -0.000426157 -0.000538812 -0.000663827 -0.000799584 -0.000946082 -0.00110332 -0.00126964 -0.00144337 -0.00162451 -0.00181306 -0.00200659 -0.00220264 -0.00240123 -0.00260234 -0.0028024 -0.00299784 -0.00318864 -0.00337482 -0.00355241 -0.00371746 -0.00386998 -0.00400995 -0.0041346 -0.00424113 -0.00432955 -0.00439984 -0.00445182 -0.00448527 -0.0045002 -0.00449659 -0.00447722 -0.00444482 -0.0043994 -0.00434095 -0.00427412 -0.00420355 -0.00412923 -0.00405117 -0.00397379 -0.00390152 -0.00383436 -0.00377231 -0.00371738 -0.00367161 -0.00363499 -0.00360751 -0.00358761 -0.00357369 -0.00356575 -0.00356381 -0.00356326 -0.00355952 -0.00355258 -0.00354246 -0.00352404 -0.00349224 -0.00344704 -0.00338846 -0.00331427 -0.00322224 -0.00311239 -0.0029847 -0.0028421 -0.00268753 -0.00252098 -0.00234246 -0.00215939 -0.00197921 -0.00180194 -0.00162755 -0.00146446 -0.00132103 -0.00119728 -0.00109321 -0.00101373 -0.000963781 -0.000943357 -0.000952459 -0.000989884 -0.00105443 -0.0011461 -0.00126488 -0.00140388 -0.00155619 -0.00172181 -0.00190075 -0.0020834 -0.00226017 -0.00243107 -0.00259609 -0.00274682 -0.00287482 -0.00298009 -0.00306264 -0.00311804 -0.00314188 -0.00313416 -0.00309487 -0.00302464 -0.00292412 -0.0027933 -0.00263217 -0.00244656 -0.00224228 -0.00201933 -0.00177771 -0.00152933 -0.00128608 -0.00104797 -0.000815005 -0.000602337 -0.000425131 -0.000283386 -0.000177104 -9.96207e-05 -4.42759e-05 -1.1069e-05 0 0 -2.62268e-06 -1.04907e-05 -2.36041e-05 -4.19629e-05 -7.28124e-05 -0.000123398 -0.00019372 -0.000283778 -0.000393642 -0.000523379 -0.000672992 -0.000842478 -0.00102929 -0.00123089 -0.00144726 -0.00167842 -0.0019218 -0.00217488 -0.00243764 -0.00271008 -0.00298868 -0.0032699 -0.00355374 -0.0038402 -0.00412429 -0.00440104 -0.00467045 -0.0049325 -0.00518186 -0.00541315 -0.00562638 -0.00582154 -0.00599502 -0.0061432 -0.00626606 -0.00636361 -0.00643585 -0.00648276 -0.00650434 -0.00650059 -0.0064755 -0.00643305 -0.00637324 -0.00629607 -0.00620791 -0.00611513 -0.00601774 -0.00591574 -0.00581489 -0.00572096 -0.00563396 -0.00555389 -0.00548285 -0.00542297 -0.00537424 -0.00533667 -0.00530713 -0.00528246 -0.00526268 -0.00524779 -0.00523043 -0.00520326 -0.00516629 -0.0051195 -0.00505525 -0.00496588 -0.00485139 -0.00471178 -0.00454435 -0.00434642 -0.00411798 -0.00385903 -0.00357533 -0.00327263 -0.00295094 -0.00261025 -0.00226359 -0.00192399 -0.00159144 -0.00126596 -0.000961942 -0.000693797 -0.000461524 -0.000265126 -0.000113115 -1.40087e-05 3.21941e-05 2.54932e-05 -3.23206e-05 -0.000139456 -0.000295914 -0.000501694 -0.000745352 -0.00101545 -0.00131198 -0.00163494 -0.00196821 -0.00229563 -0.00261722 -0.00293296 -0.00322848 -0.00348939 -0.00371568 -0.00390735 -0.00405661 -0.00415562 -0.00420441 -0.00420295 -0.0041518 -0.0040515 -0.00390204 -0.00370342 -0.00346449 -0.0031941 -0.00289224 -0.00255893 -0.00221198 -0.00186922 -0.00153066 -0.0011963 -0.000888953 -0.000631434 -0.000423745 -0.000265887 -0.000149561 -6.64717e-05 -1.66179e-05 0 0 -4.42317e-06 -1.76927e-05 -3.98086e-05 -7.07708e-05 -0.000120152 -0.000197524 -0.000302887 -0.000436241 -0.000596937 -0.000784328 -0.000998413 -0.00123919 -0.0015029 -0.00178577 -0.0020878 -0.002409 -0.00274569 -0.00309418 -0.00345449 -0.00382661 -0.0042057 -0.00458694 -0.00497033 -0.00535587 -0.005737 -0.00610719 -0.00646644 -0.00681475 -0.00714529 -0.00745123 -0.00773258 -0.00798934 -0.00821711 -0.00841152 -0.00857257 -0.00870025 -0.00879495 -0.00885705 -0.00888655 -0.00888345 -0.0088532 -0.00880126 -0.00872762 -0.00863229 -0.00852351 -0.00840953 -0.00829034 -0.00816595 -0.00804336 -0.00792961 -0.00782468 -0.00772857 -0.00764307 -0.00756995 -0.0075092 -0.00746083 -0.00741938 -0.0073794 -0.00734087 -0.0073038 -0.00725717 -0.00718994 -0.00710212 -0.00699371 -0.00685385 -0.00667169 -0.00644723 -0.00618046 -0.00586843 -0.00550817 -0.00509967 -0.00464293 -0.00414794 -0.00362467 -0.00307311 -0.00249327 -0.00190609 -0.00133254 -0.000772601 -0.000226284 0.000283571 0.000734124 0.00112537 0.00145732 0.00171639 0.00188904 0.00197525 0.00197502 0.00189089 0.00172535 0.00147843 0.0011501 0.000758045 0.000319908 -0.000164308 -0.000694602 -0.00124578 -0.00179265 -0.00233521 -0.00287346 -0.00338469 -0.00384618 -0.00425793 -0.00461995 -0.00491958 -0.0051442 -0.0052938 -0.00536839 -0.00536818 -0.00529338 -0.00514401 -0.00492006 -0.00463423 -0.00429921 -0.00391501 -0.00348163 -0.00302428 -0.0025682 -0.00211338 -0.00165982 -0.00123995 -0.000886183 -0.000598528 -0.000376982 -0.000212052 -9.42455e-05 -2.35614e-05 0 0 -6.79608e-06 -2.71843e-05 -6.11647e-05 -0.000108737 -0.000182059 -0.000293287 -0.000442421 -0.000629462 -0.000852675 -0.00111033 -0.00140242 -0.00172895 -0.00208465 -0.00246423 -0.00286771 -0.00329508 -0.00374128 -0.00420128 -0.00467506 -0.00516263 -0.00565764 -0.00615377 -0.006651 -0.00714934 -0.00764053 -0.00811629 -0.00857664 -0.00902156 -0.0094427 -0.00983172 -0.0101886 -0.0105133 -0.0108009 -0.0110461 -0.0112491 -0.0114097 -0.0115291 -0.0116081 -0.0116468 -0.0116451 -0.0116103 -0.0115494 -0.0114625 -0.0113496 -0.0112209 -0.0110867 -0.010947 -0.0108018 -0.0106592 -0.0105275 -0.0104065 -0.0102964 -0.010198 -0.0101125 -0.0100399 -0.00997998 -0.00992438 -0.00986449 -0.00980031 -0.00973185 -0.00964347 -0.00951955 -0.00936009 -0.00916508 -0.00891984 -0.00860967 -0.00823456 -0.00779452 -0.00728651 -0.00670749 -0.00605745 -0.00533641 -0.00455995 -0.00374364 -0.0028875 -0.00199152 -0.0010869 -0.000204864 0.000654594 0.00149147 0.00227208 0.00296273 0.00356341 0.00407412 0.0044748 0.00474536 0.0048858 0.00489614 0.00477974 0.00454 0.00417693 0.00369051 0.00310631 0.00244987 0.00172119 0.000920279 8.38879e-05 -0.000751221 -0.00158505 -0.00241759 -0.00321544 -0.0039452 -0.00460686 -0.00520042 -0.00570697 -0.00610762 -0.00640235 -0.00659117 -0.00667376 -0.00664977 -0.00651922 -0.0062821 -0.00595578 -0.00555763 -0.00508764 -0.00454582 -0.00396625 -0.00338302 -0.00279612 -0.00220556 -0.00165532 -0.00118938 -0.000807733 -0.000510389 -0.000287094 -0.000127597 -3.18993e-05 0 0 -9.7984e-06 -3.91936e-05 -8.81856e-05 -0.000156774 -0.000259727 -0.000411813 -0.00061303 -0.000863379 -0.00115934 -0.00149738 -0.00187751 -0.00229973 -0.0027568 -0.0032415 -0.00375384 -0.0042938 -0.0048547 -0.00542987 -0.0060193 -0.00662299 -0.00723307 -0.00784165 -0.00844874 -0.00905433 -0.00964869 -0.0102221 -0.0107745 -0.011306 -0.0118071 -0.0122684 -0.01269 -0.0130719 -0.0134088 -0.0136957 -0.0139326 -0.0141194 -0.0142582 -0.014351 -0.0143978 -0.0143986 -0.0143625 -0.0142983 -0.014206 -0.0140858 -0.0139493 -0.0138086 -0.0136636 -0.0135143 -0.0133691 -0.0132366 -0.0131167 -0.0130094 -0.0129138 -0.0128288 -0.0127547 -0.0126912 -0.0126254 -0.0125444 -0.0124482 -0.0123367 -0.0121885 -0.0119821 -0.0117176 -0.0113948 -0.0109947 -0.010498 -0.00990477 -0.00921497 -0.00842614 -0.00753581 -0.00654397 -0.00545063 -0.00427931 -0.00305353 -0.00177329 -0.000438586 0.00090553 0.00221402 0.00348688 0.00472411 0.00587761 0.00689929 0.00778915 0.00854718 0.00914468 0.00955293 0.00977194 0.0098017 0.00964658 0.00931094 0.00879476 0.00809806 0.00725652 0.00630584 0.00524602 0.00407705 0.00285078 0.00161906 0.000381896 -0.000860725 -0.00206123 -0.00317207 -0.00419323 -0.00512472 -0.00593913 -0.00660906 -0.00713451 -0.00751548 -0.00775054 -0.00783828 -0.0077787 -0.0075718 -0.00724043 -0.00680744 -0.00627285 -0.00563663 -0.00494329 -0.00423731 -0.00351868 -0.00278742 -0.00210102 -0.001517 -0.00103537 -0.000656118 -0.000369066 -0.000164029 -4.10074e-05 0 0 -1.34871e-05 -5.39485e-05 -0.000121384 -0.000215794 -0.00035435 -0.000554225 -0.000815418 -0.00113793 -0.00151541 -0.00194149 -0.00241619 -0.00293949 -0.00350162 -0.00409281 -0.00471303 -0.00536231 -0.00603205 -0.00671367 -0.00740717 -0.00811254 -0.00882053 -0.00952186 -0.0102165 -0.0109045 -0.0115753 -0.0122183 -0.0128336 -0.013421 -0.0139713 -0.0144751 -0.0149325 -0.0153433 -0.0157036 -0.0160092 -0.0162601 -0.0164564 -0.0166019 -0.0167005 -0.0167521 -0.0167568 -0.0167254 -0.0166685 -0.0165862 -0.0164785 -0.0163579 -0.0162371 -0.0161159 -0.0159944 -0.0158798 -0.0157792 -0.0156925 -0.0156198 -0.0155562 -0.015497 -0.015442 -0.0153914 -0.0153258 -0.015226 -0.0150917 -0.0149232 -0.0146915 -0.0143678 -0.013952 -0.0134441 -0.0128199 -0.0120549 -0.0111492 -0.0101028 -0.0089149 -0.00758457 -0.00611185 -0.00449675 -0.00277399 -0.000978285 0.000890354 0.00283193 0.00478274 0.00667909 0.00852098 0.0103084 0.0119742 0.0134511 0.0147392 0.0158384 0.0167086 0.0173097 0.0176417 0.0177046 0.0175038 0.0170446 0.0163271 0.0153513 0.0141658 0.0128192 0.0113117 0.00964306 0.00788489 0.00610862 0.00431424 0.00250175 0.000737438 -0.000912428 -0.00244785 -0.00386881 -0.00513641 -0.00621172 -0.00709474 -0.00778547 -0.00828052 -0.00857654 -0.00867351 -0.00857143 -0.00829947 -0.00788678 -0.00733336 -0.00663922 -0.00586084 -0.00505472 -0.00422087 -0.00335928 -0.00254299 -0.00184504 -0.00126544 -0.000804179 -0.000452351 -0.000201045 -5.02612e-05 0 0 -1.78623e-05 -7.1449e-05 -0.00016076 -0.000285796 -0.000465927 -0.000720523 -0.00104959 -0.00145311 -0.00192088 -0.00244266 -0.00301844 -0.00364824 -0.00431912 -0.00501814 -0.0057453 -0.00650062 -0.00727332 -0.00805267 -0.00883866 -0.00963128 -0.01042 -0.0111944 -0.0119544 -0.0127 -0.0134204 -0.014105 -0.0147538 -0.0153667 -0.0159355 -0.0164519 -0.0169159 -0.0173276 -0.0176851 -0.0179864 -0.0182317 -0.0184208 -0.0185604 -0.0186567 -0.0187098 -0.0187198 -0.018699 -0.0186601 -0.0186031 -0.0185278 -0.0184467 -0.0183721 -0.0183039 -0.0182423 -0.0181913 -0.0181551 -0.0181339 -0.0181275 -0.0181254 -0.0181169 -0.018102 -0.0180808 -0.0180256 -0.017909 -0.0177309 -0.0174914 -0.0171525 -0.0166765 -0.0160633 -0.015313 -0.0143954 -0.0132804 -0.0119679 -0.0104581 -0.00875278 -0.00685377 -0.0047611 -0.00247477 -4.39807e-05 0.00248208 0.00510342 0.00782003 0.0105447 0.0131904 0.0157569 0.0182444 0.0205617 0.0226181 0.0244134 0.0259477 0.0271666 0.0280157 0.0284952 0.0286049 0.0283513 0.027741 0.026774 0.0254502 0.023834 0.02199 0.0199181 0.0176183 0.0151862 0.0127174 0.010212 0.00766984 0.00518057 0.00283373 0.000629304 -0.0014327 -0.00329882 -0.0049156 -0.00628304 -0.00740114 -0.00826371 -0.00886454 -0.00920363 -0.00928099 -0.0091329 -0.00879563 -0.00826918 -0.00755356 -0.00671888 -0.00583525 -0.00490267 -0.00392114 -0.00298123 -0.0021735 -0.00149795 -0.000954574 -0.000536948 -0.000238643 -5.96609e-05 0 0 -2.29238e-05 -9.16952e-05 -0.000206314 -0.000366781 -0.000594458 -0.000910708 -0.00131553 -0.00180893 -0.00237576 -0.00300088 -0.00368428 -0.00442598 -0.00520928 -0.0060175 -0.00685065 -0.00770872 -0.00857852 -0.00944687 -0.0103138 -0.0111792 -0.0120316 -0.0128593 -0.0136623 -0.0144406 -0.015184 -0.0158822 -0.0165352 -0.017143 -0.0176995 -0.0181987 -0.0186405 -0.0190248 -0.0193534 -0.0196275 -0.0198473 -0.0200127 -0.0201335 -0.0202196 -0.0202709 -0.0202874 -0.0202834 -0.0202731 -0.0202566 -0.0202337 -0.0202157 -0.0202137 -0.0202277 -0.0202578 -0.0203035 -0.0203645 -0.0204409 -0.0205326 -0.0206213 -0.0206886 -0.0207346 -0.0207592 -0.0207248 -0.0205936 -0.0203658 -0.0200411 -0.0195714 -0.0189082 -0.0180515 -0.0170014 -0.0157212 -0.0141744 -0.0123609 -0.0102808 -0.00793978 -0.0053434 -0.00249171 0.000615304 0.00391071 0.00732758 0.0108659 0.0145257 0.0181915 0.0217478 0.0251946 0.028532 0.0316404 0.0344004 0.036812 0.0388752 0.0405186 0.041671 0.0423323 0.0425024 0.0421892 0.0414001 0.0401353 0.0383947 0.0362614 0.0338182 0.0310654 0.0280028 0.0247547 0.0214455 0.0180751 0.0146435 0.0112682 0.0080664 0.00503822 0.00218363 -0.000426349 -0.0027207 -0.00469942 -0.00636251 -0.00770009 -0.00870228 -0.00936908 -0.00970049 -0.00974072 -0.009534 -0.00908032 -0.00837968 -0.00751742 -0.00657889 -0.00556409 -0.00447302 -0.00341575 -0.00250238 -0.0017329 -0.0011073 -0.000622857 -0.000276825 -6.92063e-05 0 0 -2.85532e-05 -0.000114213 -0.000256979 -0.000456852 -0.00073677 -0.00111967 -0.00160556 -0.00219444 -0.00286495 -0.00359577 -0.00438688 -0.0052383 -0.00612872 -0.00703688 -0.00796278 -0.0089064 -0.00985176 -0.0107829 -0.0116997 -0.0126023 -0.0134782 -0.0143151 -0.015113 -0.0158718 -0.016583 -0.0172381 -0.0178369 -0.0183795 -0.0188638 -0.0192879 -0.0196516 -0.019955 -0.0202049 -0.0204082 -0.0205649 -0.0206749 -0.0207526 -0.0208125 -0.0208546 -0.0208788 -0.0209009 -0.0209369 -0.0209867 -0.0210503 -0.0211362 -0.0212526 -0.0213996 -0.0215772 -0.0217779 -0.0219942 -0.0222261 -0.0224736 -0.0227078 -0.0228997 -0.0230493 -0.0231566 -0.0231713 -0.0230428 -0.0227713 -0.0223566 -0.021738 -0.0208547 -0.0197065 -0.0182937 -0.0165724 -0.014499 -0.0120735 -0.0092959 -0.00617728 -0.0027287 0.00104985 0.00515836 0.00950783 0.0140092 0.0186626 0.0234679 0.0282755 0.0329355 0.0374481 0.0418131 0.0458774 0.0494877 0.0526441 0.0553464 0.0575036 0.0590242 0.0599084 0.060156 0.0597761 0.0587773 0.0571597 0.0549234 0.0521727 0.0490121 0.0454416 0.0414612 0.0372288 0.0329025 0.028482 0.0239676 0.0195098 0.0152595 0.0112165 0.00738097 0.00384537 0.000702257 -0.00204838 -0.00440653 -0.00635733 -0.0078859 -0.00899224 -0.00967635 -0.00999127 -0.00999004 -0.00967267 -0.00903915 -0.00819197 -0.00723361 -0.00616407 -0.00498336 -0.00382313 -0.00281506 -0.00195914 -0.00125538 -0.00070615 -0.000313844 -7.84611e-05 0 0 -3.4632e-05 -0.000138528 -0.000311688 -0.000554113 -0.000889691 -0.00134231 -0.00191198 -0.00259869 -0.00337337 -0.00420695 -0.00509942 -0.00605079 -0.00703407 -0.00802228 -0.0090154 -0.0100135 -0.0109971 -0.0119472 -0.0128636 -0.0137464 -0.014583 -0.0153606 -0.0160792 -0.016739 -0.0173346 -0.0178609 -0.0183179 -0.0187056 -0.0190287 -0.0192918 -0.0194949 -0.0196381 -0.0197362 -0.0198043 -0.0198424 -0.0198503 -0.0198489 -0.0198589 -0.0198802 -0.0199128 -0.0199739 -0.0200808 -0.0202335 -0.020432 -0.0206796 -0.0209796 -0.0213321 -0.021737 -0.0221761 -0.0226311 -0.0231021 -0.0235891 -0.0240487 -0.0244375 -0.0247556 -0.0250029 -0.025113 -0.0250195 -0.0247225 -0.0242218 -0.023442 -0.0223075 -0.0208182 -0.0189741 -0.0167239 -0.0140162 -0.010851 -0.00722826 -0.00316666 0.00131513 0.00621711 0.0115393 0.0171651 0.0229781 0.0289783 0.0351656 0.0413491 0.0473375 0.053131 0.0587296 0.0639403 0.0685701 0.0726191 0.0760872 0.0788603 0.0808242 0.0819789 0.0823243 0.0818706 0.0806277 0.0785957 0.0757745 0.072293 0.0682797 0.0637348 0.0586581 0.0532468 0.0476978 0.0420111 0.0361867 0.0304151 0.0248868 0.0196018 0.0145601 0.00988073 0.00568253 0.00196556 -0.00127019 -0.0040031 -0.00621153 -0.0078955 -0.009055 -0.00975286 -0.0100519 -0.00995215 -0.00945358 -0.00867803 -0.00774736 -0.00666156 -0.00542063 -0.00417996 -0.00309494 -0.00216556 -0.00139182 -0.0007829 -0.000347956 -8.69889e-05 0 0 -4.11602e-05 -0.000164641 -0.000370442 -0.000658564 -0.00105322 -0.00157863 -0.00223478 -0.00302168 -0.003901 -0.00483441 -0.0058219 -0.00686347 -0.00792533 -0.00897368 -0.0100085 -0.0110299 -0.0120147 -0.0129399 -0.0138056 -0.0146117 -0.0153458 -0.0159956 -0.016561 -0.017042 -0.0174386 -0.0177507 -0.0179783 -0.0181214 -0.0181941 -0.0182104 -0.0181704 -0.0180741 -0.0179473 -0.0178159 -0.0176798 -0.0175391 -0.0174224 -0.0173586 -0.0173476 -0.0173894 -0.0175024 -0.0177049 -0.017997 -0.0183787 -0.0188459 -0.0193946 -0.020025 -0.0207369 -0.0214979 -0.0222752 -0.023069 -0.0238791 -0.024644 -0.0253022 -0.0258535 -0.026298 -0.02655 -0.0265238 -0.0262194 -0.0256368 -0.0246834 -0.0232666 -0.0213864 -0.0190427 -0.0161758 -0.0127261 -0.00869346 -0.00407792 0.00109207 0.00678807 0.0130101 0.0197581 0.0268826 0.0342343 0.041813 0.0496188 0.0574122 0.0649538 0.0722436 0.0792815 0.085829 0.0916475 0.096737 0.101098 0.104589 0.107071 0.108544 0.109007 0.108473 0.106951 0.104443 0.100948 0.0966222 0.0916212 0.085945 0.0795937 0.0728087 0.0658316 0.0586623 0.0513009 0.043984 0.0369484 0.0301941 0.0237211 0.0176797 0.0122201 0.0073424 0.00304652 -0.000637385 -0.00367918 -0.00607887 -0.00783645 -0.0090255 -0.0097196 -0.00991875 -0.00962296 -0.00897562 -0.00812015 -0.00705656 -0.00578484 -0.00448624 -0.003342 -0.00235213 -0.00151663 -0.000853107 -0.000379159 -9.47896e-05 0 0 -4.81378e-05 -0.000192551 -0.00043324 -0.000770205 -0.00122736 -0.00182861 -0.00257397 -0.00346343 -0.00444786 -0.00547816 -0.00655431 -0.00767632 -0.00880249 -0.0098911 -0.0109422 -0.0119557 -0.0129044 -0.013761 -0.0145256 -0.0151981 -0.0157669 -0.0162203 -0.0165583 -0.0167811 -0.0168952 -0.0169075 -0.0168181 -0.0166269 -0.01636 -0.0160438 -0.0156782 -0.0152631 -0.0148381 -0.0144428 -0.0140772 -0.0137411 -0.0134732 -0.0133118 -0.013257 -0.0133087 -0.0134864 -0.0138092 -0.0142772 -0.0148903 -0.015635 -0.0164978 -0.0174785 -0.0185772 -0.0197434 -0.0209265 -0.0221266 -0.0233436 -0.0244938 -0.0254936 -0.026343 -0.027042 -0.0274822 -0.0275556 -0.027262 -0.0266016 -0.0254623 -0.0237321 -0.0214112 -0.0184994 -0.0149281 -0.0106286 -0.00560085 0.00015513 0.00659892 0.0136901 0.0214287 0.0298147 0.0386603 0.0477776 0.0571667 0.0668274 0.076465 0.0857844 0.0947857 0.103469 0.111544 0.11872 0.124998 0.130377 0.134689 0.137765 0.139603 0.140205 0.139583 0.137748 0.134702 0.130444 0.12516 0.119036 0.112072 0.104268 0.0959145 0.0873038 0.0784357 0.0693102 0.0602166 0.0514443 0.0429935 0.034864 0.0272423 0.020315 0.0140821 0.00854359 0.00373981 -0.000288838 -0.00354234 -0.00602069 -0.00780919 -0.00899312 -0.00957249 -0.00954729 -0.00908472 -0.00835198 -0.00734907 -0.00607598 -0.00474196 -0.00355626 -0.00251888 -0.00162981 -0.00091677 -0.000407453 -0.000101863 0 0 -5.53553e-05 -0.000221421 -0.000498198 -0.000885685 -0.00140659 -0.00208364 -0.00291682 -0.00390613 -0.00498991 -0.00610652 -0.00725594 -0.00843818 -0.0096022 -0.010697 -0.0117225 -0.0126787 -0.0135336 -0.0142549 -0.0148427 -0.0152969 -0.0156075 -0.0157642 -0.015767 -0.0156159 -0.015327 -0.0149165 -0.0143843 -0.0137305 -0.0129971 -0.0122261 -0.0114175 -0.0105714 -0.00974476 -0.00899455 -0.00832078 -0.00772345 -0.00725308 -0.00696015 -0.00684469 -0.00690667 -0.00716604 -0.00764273 -0.00833673 -0.00924805 -0.0103505 -0.0116178 -0.0130501 -0.0146473 -0.0163362 -0.0180436 -0.0197695 -0.0215138 -0.023166 -0.0246152 -0.0258615 -0.026905 -0.0276107 -0.0278442 -0.0276053 -0.026894 -0.0255767 -0.0235198 -0.0207231 -0.0171867 -0.0128327 -0.0075832 -0.00143827 0.00560212 0.0134825 0.0221472 0.0315964 0.0418301 0.0526155 0.0637201 0.0751439 0.0868868 0.0985913 0.1099 0.120813 0.13133 0.141104 0.149791 0.157389 0.163898 0.16912 0.172854 0.1751 0.175859 0.175144 0.172969 0.169333 0.164237 0.157898 0.150532 0.14214 0.132722 0.122623 0.112188 0.101417 0.0903105 0.0792157 0.0684816 0.0581079 0.0480949 0.0386708 0.0300641 0.0222749 0.0153031 0.00920196 0.00402461 -0.000228936 -0.00355867 -0.00606231 -0.00783757 -0.00888447 -0.00920298 -0.00898639 -0.00842796 -0.00752769 -0.00628558 -0.00494107 -0.0037336 -0.00266316 -0.00172976 -0.000972992 -0.000432441 -0.00010811 0 0 -6.26033e-05 -0.000250413 -0.00056343 -0.00100165 -0.00158542 -0.00233507 -0.0032506 -0.00433201 -0.00550313 -0.00668782 -0.00788607 -0.00909787 -0.0102611 -0.0113137 -0.0122557 -0.013087 -0.0137697 -0.0142661 -0.0145761 -0.0146998 -0.0146293 -0.0143569 -0.0138826 -0.0132064 -0.012357 -0.0113629 -0.0102242 -0.00894088 -0.00757568 -0.00619138 -0.00478798 -0.00336548 -0.00200317 -0.000780343 0.000302992 0.00124684 0.00198579 0.00245444 0.00265279 0.00258083 0.00221838 0.00154525 0.000561448 -0.000733034 -0.00229564 -0.00408383 -0.00609759 -0.00833693 -0.0107 -0.0130851 -0.0154922 -0.0179212 -0.0202285 -0.0222702 -0.0240464 -0.0255571 -0.0266364 -0.0271187 -0.0270039 -0.026292 -0.0248251 -0.0224452 -0.0191525 -0.0149468 -0.00974136 -0.00344937 0.00392917 0.0123943 0.0218712 0.0322853 0.0436366 0.055925 0.0688657 0.0821737 0.0958492 0.109892 0.123875 0.137371 0.15038 0.162902 0.174531 0.184863 0.193896 0.201632 0.207839 0.212288 0.214979 0.215912 0.215101 0.212563 0.208295 0.2023 0.194823 0.186115 0.176174 0.165 0.152995 0.14056 0.127694 0.114398 0.101085 0.0881671 0.0756457 0.0635201 0.0520673 0.0415642 0.0320109 0.0234072 0.0158226 0.00932627 0.00391831 -0.000401327 -0.00374325 -0.00621807 -0.0078258 -0.00856643 -0.00866167 -0.00833321 -0.00758105 -0.00640519 -0.00507752 -0.00386991 -0.00278237 -0.00181489 -0.00102088 -0.000453723 -0.000113431 0 0 -6.98818e-05 -0.000279527 -0.000628936 -0.00111811 -0.00176383 -0.0025829 -0.00357531 -0.00474106 -0.00598752 -0.00722206 -0.00844468 -0.00965538 -0.0107792 -0.0117414 -0.0125417 -0.0131804 -0.0136128 -0.0137947 -0.0137259 -0.0134065 -0.0128322 -0.0119984 -0.0109052 -0.00955264 -0.00798503 -0.00624671 -0.00433769 -0.00225796 -9.58606e-05 0.00206029 0.00421049 0.00635475 0.00838665 0.0101998 0.0117942 0.0131698 0.0142434 0.014932 0.0152354 0.0151538 0.0146669 0.0137548 0.0124174 0.0106548 0.00852951 0.0061043 0.00337912 0.000353976 -0.00283485 -0.00605108 -0.00929471 -0.0125657 -0.0156813 -0.0184586 -0.0208976 -0.0229983 -0.0245594 -0.0253792 -0.025458 -0.0247955 -0.0232073 -0.0205086 -0.0166995 -0.0117798 -0.00565422 0.00177288 0.0105015 0.0205316 0.0317652 0.0441044 0.0575492 0.0720995 0.0874108 0.103138 0.119283 0.135843 0.152316 0.168198 0.183488 0.198186 0.211825 0.223936 0.234521 0.243577 0.250846 0.256067 0.259239 0.260363 0.259455 0.25653 0.251589 0.244633 0.235938 0.225785 0.214172 0.2011 0.187029 0.172417 0.157265 0.141572 0.125823 0.110501 0.0956067 0.0811397 0.0674319 0.0548154 0.04329 0.0328559 0.0236017 0.0156162 0.00889939 0.00345133 -0.000851997 -0.0041346 -0.00639649 -0.00763765 -0.00811057 -0.00806773 -0.00750915 -0.00643481 -0.0051513 -0.00396519 -0.00287649 -0.00188519 -0.00106042 -0.000471298 -0.000117824 0 0 -7.71907e-05 -0.000308763 -0.000694716 -0.00123505 -0.00194184 -0.00282714 -0.00389096 -0.00513329 -0.00644308 -0.00770924 -0.00893179 -0.0101107 -0.0111566 -0.0119799 -0.0125807 -0.012959 -0.0130629 -0.0128405 -0.012292 -0.0114172 -0.0102162 -0.00868873 -0.00683486 -0.00465459 -0.00221118 0.000432092 0.00327523 0.00631825 0.00944239 0.0125289 0.0155779 0.0185893 0.0214247 0.0239458 0.0261527 0.0280453 0.0295199 0.0304725 0.0309033 0.0308121 0.0301795 0.0289858 0.0272311 0.0249153 0.022125 0.0189465 0.01538 0.0114254 0.00725935 0.00305854 -0.00117702 -0.00544735 -0.00952446 -0.0131804 -0.0164152 -0.0192288 -0.0213795 -0.0226257 -0.0229674 -0.0224046 -0.0207234 -0.0177098 -0.013364 -0.00768576 -0.000571246 0.00808357 0.0182787 0.0300141 0.0431645 0.0576045 0.0733342 0.0903535 0.108251 0.126614 0.145444 0.16474 0.183915 0.20238 0.220136 0.237182 0.252985 0.267012 0.279262 0.289736 0.298142 0.304191 0.307881 0.309213 0.308204 0.304871 0.299215 0.291236 0.281242 0.269541 0.256135 0.241023 0.224725 0.207761 0.19013 0.171833 0.153431 0.135483 0.117991 0.100954 0.0847646 0.0698175 0.0561124 0.0436491 0.0325392 0.0228943 0.0147143 0.00799932 0.00261144 -0.00158718 -0.00459653 -0.00641662 -0.00733307 -0.00763153 -0.00731198 -0.00637443 -0.00516241 -0.00401944 -0.00294553 -0.00194067 -0.00109163 -0.000485167 -0.000121292 0 0 -8.42951e-05 -0.00033718 -0.000758656 -0.00134872 -0.0021133 -0.0030583 -0.00418373 -0.00548958 -0.00684422 -0.00811597 -0.00930485 -0.0104108 -0.0113279 -0.0119501 -0.0122772 -0.0123095 -0.0119866 -0.0112483 -0.0100946 -0.00852559 -0.00654674 -0.00416362 -