<?xml version="1.0"?> 
<VTKFile type="StructuredGrid" version="0.1"> 
<StructuredGrid WholeExtent="0 128 0 128 0 0"> 
<Piece Extent="0 128 0 128 0 0"> 
<PointData>
<DataArray type="Float32" Name="u" format="ascii" NumberOfComponents="1"> 
0 0 0 0 0 0 0 0 0 0 0 0 0 0 0 0 0 0 0 0 0 0 0 0 0 0 0 0 0 0 0 0 0 0 0 0 0 0 0 0 0 0 0 0 0 0 0 0 0 0 0 0 0 0 0 0 0 0 0 0 0 0 0 0 0 0 0 0 0 0 0 0 0 0 0 0 0 0 0 0 0 0 0 0 0 0 0 0 0 0 0 0 0 0 0 0 0 0 0 0 0 0 0 0 0 0 0 0 0 0 0 0 0 0 0 0 0 0 0 0 0 0 0 0 0 0 0 0 0 0 -3.38704e-08 -1.35482e-07 -3.04834e-07 -5.41927e-07 -1.05634e-06 -2.05767e-06 -3.5459e-06 -5.52104e-06 -8.02654e-06 -1.11059e-05 -1.4759e-05 -1.89859e-05 -2.37379e-05 -2.8966e-05 -3.46703e-05 -4.08508e-05 -4.74515e-05 -5.44161e-05 -6.17447e-05 -6.94373e-05 -7.73973e-05 -8.55281e-05 -9.38298e-05 -0.000102302 -0.000110789 -0.000119132 -0.000127332 -0.000135388 -0.000143116 -0.000150329 -0.000157026 -0.000163209 -0.000168734 -0.000173461 -0.000177389 -0.000180518 -0.000182825 -0.000184284 -0.000184895 -0.00018466 -0.000183695 -0.000182121 -0.000179937 -0.000177143 -0.000173954 -0.000170587 -0.000167041 -0.000163315 -0.000159623 -0.000156176 -0.000152976 -0.000150021 -0.000147419 -0.000145279 -0.000143599 -0.000142379 -0.000141574 -0.000141135 -0.000141062 -0.000141356 -0.000141846 -0.000142363 -0.000142907 -0.000143478 -0.000143887 -0.000143944 -0.00014365 -0.000143005 -0.000141922 -0.000140316 -0.000138184 -0.000135529 -0.000132431 -0.000128973 -0.000125153 -0.000120973 -0.000116645 -0.000112382 -0.000108185 -0.000104054 -0.000100215 -9.68976e-05 -9.41008e-05 -9.18249e-05 -9.01897e-05 -8.93155e-05 -8.92022e-05 -8.98498e-05 -9.121e-05 -9.32345e-05 -9.59233e-05 -9.92765e-05 -0.000103095 -0.00010718 -0.000111532 -0.000116151 -0.000120762 -0.000125091 -0.000129138 -0.000132904 -0.000136135 -0.000138581 -0.00014024 -0.000141114 -0.000141056 -0.000139922 -0.000137712 -0.000134425 -0.000130073 -0.000124669 -0.000118212 -0.000110703 -0.000102346 -9.3345e-05 -8.37008e-05 -7.3413e-05 -6.29433e-05 -5.27532e-05 -4.28427e-05 -3.32117e-05 -2.44624e-05 -1.71964e-05 -1.14139e-05 -7.11477e-06 -4.00206e-06 -1.77869e-06 -4.44673e-07 0 0 -1.35482e-07 -5.41927e-07 -1.21934e-06 -2.16771e-06 -4.22538e-06 -8.23068e-06 -1.41836e-05 -2.20842e-05 -3.21062e-05 -4.44234e-05 -5.90359e-05 -7.59437e-05 -9.49514e-05 -0.000115864 -0.000138681 -0.000163403 -0.000189806 -0.000217664 -0.000246979 -0.000277749 -0.000309589 -0.000342113 -0.000375319 -0.000409209 -0.000443155 -0.000476527 -0.000509327 -0.000541554 -0.000572464 -0.000601314 -0.000628104 -0.000652834 -0.000674936 -0.000693844 -0.000709556 -0.000722074 -0.000731299 -0.000737135 -0.000739581 -0.000738638 -0.000734781 -0.000728484 -0.000719747 -0.000708572 -0.000695818 -0.000682348 -0.000668162 -0.00065326 -0.000638491 -0.000624706 -0.000611903 -0.000600084 -0.000589677 -0.000581114 -0.000574395 -0.000569518 -0.000566296 -0.000564539 -0.000564249 -0.000565423 -0.000567385 -0.000569453 -0.000571629 -0.000573912 -0.000575546 -0.000575776 -0.0005746 -0.00057202 -0.00056769 -0.000561262 -0.000552738 -0.000542117 -0.000529725 -0.000515891 -0.000500613 -0.000483891 -0.000466579 -0.000449529 -0.000432741 -0.000416214 -0.000400861 -0.00038759 -0.000376403 -0.000367299 -0.000360759 -0.000357262 -0.000356809 -0.000359399 -0.00036484 -0.000372938 -0.000383693 -0.000397106 -0.000412381 -0.000428722 -0.00044613 -0.000464604 -0.000483048 -0.000500365 -0.000516554 -0.000531615 -0.00054454 -0.000554322 -0.000560961 -0.000564456 -0.000564226 -0.00055969 -0.000550847 -0.000537698 -0.000520291 -0.000498674 -0.000472848 -0.000442811 -0.000409383 -0.00037338 -0.000334803 -0.000293652 -0.000251773 -0.000211013 -0.000171371 -0.000132847 -9.78494e-05 -6.87856e-05 -4.56555e-05 -2.84591e-05 -1.60082e-05 -7.11477e-06 -1.77869e-06 0 0 -3.04834e-07 -1.21934e-06 -2.74351e-06 -4.87734e-06 -9.5071e-06 -1.8519e-05 -3.19131e-05 -4.96894e-05 -7.22389e-05 -9.99527e-05 -0.000132831 -0.000170873 -0.000213641 -0.000260694 -0.000312033 -0.000367658 -0.000427063 -0.000489745 -0.000555702 -0.000624936 -0.000696576 -0.000769753 -0.000844468 -0.000920721 -0.000997098 -0.00107219 -0.00114599 -0.0012185 -0.00128804 -0.00135296 -0.00141323 -0.00146888 -0.00151861 -0.00156115 -0.0015965 -0.00162467 -0.00164542 -0.00165855 -0.00166406 -0.00166194 -0.00165326 -0.00163909 -0.00161943 -0.00159429 -0.00156559 -0.00153528 -0.00150336 -0.00146983 -0.00143661 -0.00140559 -0.00137678 -0.00135019 -0.00132677 -0.00130751 -0.00129239 -0.00128142 -0.00127417 -0.00127021 -0.00126956 -0.0012722 -0.00127662 -0.00128127 -0.00128617 -0.0012913 -0.00129498 -0.0012955 -0.00129285 -0.00128705 -0.0012773 -0.00126284 -0.00124366 -0.00121976 -0.00119188 -0.00116075 -0.00112638 -0.00108876 -0.0010498 -0.00101144 -0.000973666 -0.000936482 -0.000901937 -0.000872078 -0.000846907 -0.000826424 -0.000811708 -0.00080384 -0.00080282 -0.000808648 -0.00082089 -0.00083911 -0.00086331 -0.000893488 -0.000927856 -0.000964624 -0.00100379 -0.00104536 -0.00108686 -0.00112582 -0.00116225 -0.00119613 -0.00122522 -0.00124723 -0.00126216 -0.00127003 -0.00126951 -0.0012593 -0.00123941 -0.00120982 -0.00117066 -0.00112202 -0.00106391 -0.000996325 -0.000921111 -0.000840105 -0.000753307 -0.000660717 -0.00056649 -0.000474778 -0.000385584 -0.000298906 -0.000220161 -0.000154768 -0.000102725 -6.4033e-05 -3.60185e-05 -1.60082e-05 -4.00206e-06 0 0 -5.41927e-07 -2.16771e-06 -4.87734e-06 -8.67083e-06 -1.69015e-05 -3.29227e-05 -5.67344e-05 -8.83367e-05 -0.000128425 -0.000177694 -0.000236144 -0.000303775 -0.000379806 -0.000463456 -0.000554725 -0.000653614 -0.000759223 -0.000870657 -0.000987915 -0.001111 -0.00123836 -0.00136845 -0.00150128 -0.00163684 -0.00177262 -0.00190611 -0.00203731 -0.00216621 -0.00228986 -0.00240526 -0.00251242 -0.00261134 -0.00269975 -0.00277538 -0.00283823 -0.0028883 -0.0029252 -0.00294854 -0.00295833 -0.00295455 -0.00293912 -0.00291394 -0.00287899 -0.00283429 -0.00278327 -0.00272939 -0.00267265 -0.00261304 -0.00255396 -0.00249882 -0.00244761 -0.00240033 -0.00235871 -0.00232446 -0.00229758 -0.00227807 -0.00226518 -0.00225816 -0.00225699 -0.00226169 -0.00226954 -0.00227781 -0.00228652 -0.00229565 -0.00230218 -0.0023031 -0.0022984 -0.00228808 -0.00227076 -0.00224505 -0.00221095 -0.00216847 -0.0021189 -0.00206356 -0.00200245 -0.00193556 -0.00186632 -0.00179812 -0.00173096 -0.00166486 -0.00160344 -0.00155036 -0.00150561 -0.0014692 -0.00144304 -0.00142905 -0.00142724 -0.0014376 -0.00145936 -0.00149175 -0.00153477 -0.00158842 -0.00164952 -0.00171489 -0.00178452 -0.00185842 -0.00193219 -0.00200146 -0.00206621 -0.00212646 -0.00217816 -0.00221729 -0.00224384 -0.00225782 -0.0022569 -0.00223876 -0.00220339 -0.00215079 -0.00208116 -0.0019947 -0.00189139 -0.00177124 -0.00163753 -0.00149352 -0.00133921 -0.00117461 -0.00100709 -0.000844051 -0.000685482 -0.000531388 -0.000391398 -0.000275142 -0.000182622 -0.000113836 -6.4033e-05 -2.84591e-05 -7.11477e-06 0 0 -1.0918e-06 -4.36718e-06 -9.82616e-06 -1.74687e-05 -3.24607e-05 -5.99678e-05 -9.99901e-05 -0.000152528 -0.00021845 -0.000298627 -0.000393058 -0.000501745 -0.00062338 -0.000756659 -0.000901581 -0.00105815 -0.0012249 -0.00140038 -0.00158458 -0.00177752 -0.00197676 -0.00217989 -0.00238691 -0.00259781 -0.00280875 -0.00301584 -0.00321909 -0.00341851 -0.00360956 -0.00378772 -0.00395298 -0.00410535 -0.00424142 -0.0043578 -0.00445446 -0.00453143 -0.00458819 -0.00462425 -0.0046396 -0.00463424 -0.00461116 -0.00457333 -0.00452076 -0.00445345 -0.00437667 -0.00429569 -0.00421052 -0.00412116 -0.00403269 -0.00395018 -0.00387365 -0.00380309 -0.00374088 -0.0036894 -0.00364864 -0.00361861 -0.00359779 -0.00358464 -0.00357919 -0.00358141 -0.00358679 -0.00359076 -0.00359335 -0.00359453 -0.00358948 -0.00357335 -0.00354614 -0.00350785 -0.00345652 -0.00339021 -0.00330892 -0.00321264 -0.00310404 -0.00298578 -0.00285786 -0.00272028 -0.00257929 -0.00244112 -0.00230577 -0.00217326 -0.00205016 -0.00194307 -0.001852 -0.00177694 -0.00172144 -0.00168903 -0.00167973 -0.00169352 -0.00172918 -0.00178546 -0.00186237 -0.0019599 -0.00207251 -0.00219463 -0.00232628 -0.00246746 -0.00261039 -0.00274733 -0.00287827 -0.00300322 -0.00311498 -0.00320638 -0.00327742 -0.00332809 -0.00335419 -0.0033515 -0.00332002 -0.00325975 -0.00317084 -0.00305344 -0.00290753 -0.00273313 -0.00253552 -0.00231999 -0.00208654 -0.00183518 -0.00157771 -0.00132595 -0.00107989 -0.000839537 -0.000620331 -0.000437717 -0.000291696 -0.000182266 -0.000102525 -4.55666e-05 -1.13917e-05 0 0 -2.19947e-06 -8.7979e-06 -1.97953e-05 -3.51916e-05 -6.22367e-05 -0.00010818 -0.000173023 -0.000256764 -0.000360101 -0.000483733 -0.000627659 -0.000791879 -0.000974296 -0.00117281 -0.00138742 -0.00161813 -0.0018627 -0.00211888 -0.00238668 -0.00266609 -0.00295361 -0.00324576 -0.00354252 -0.00384391 -0.00414451 -0.00443892 -0.00472714 -0.00500918 -0.00527881 -0.00552984 -0.00576225 -0.00597606 -0.00616672 -0.00632968 -0.00646496 -0.00657255 -0.00665199 -0.00670284 -0.0067251 -0.00671875 -0.00668814 -0.00663759 -0.00656709 -0.00647665 -0.00637359 -0.0062652 -0.0061515 -0.00603249 -0.00591489 -0.00580545 -0.00570417 -0.00561104 -0.00552869 -0.00545977 -0.00540425 -0.00536216 -0.00533041 -0.00530595 -0.00528877 -0.00527888 -0.00526899 -0.0052518 -0.00522732 -0.00519554 -0.0051492 -0.005081 -0.00499095 -0.00487906 -0.00474304 -0.00458064 -0.00439186 -0.00417669 -0.00394055 -0.00368887 -0.00342164 -0.00313887 -0.00285188 -0.002572 -0.00229924 -0.00203359 -0.00178686 -0.00157084 -0.00138555 -0.00123098 -0.00111361 -0.00103995 -0.00100998 -0.0010237 -0.00107927 -0.00117483 -0.00131037 -0.0014859 -0.00169193 -0.00191899 -0.00216706 -0.00243616 -0.00271279 -0.00298348 -0.00324823 -0.00350704 -0.00374729 -0.00395638 -0.0041343 -0.00428107 -0.00438913 -0.00445095 -0.00446652 -0.00443584 -0.00435872 -0.00423496 -0.00406456 -0.00384753 -0.00359194 -0.00330587 -0.00298932 -0.00264229 -0.00228248 -0.0019276 -0.00157763 -0.0012326 -0.000915733 -0.000650299 -0.000436295 -0.00027372 -0.000153968 -6.84301e-05 -1.71075e-05 0 0 -3.86496e-06 -1.54599e-05 -3.47847e-05 -6.18394e-05 -0.00010623 -0.000177561 -0.000275832 -0.000401045 -0.000553378 -0.000733012 -0.000939945 -0.00117418 -0.00143255 -0.00171191 -0.00201225 -0.00233357 -0.00267263 -0.00302616 -0.00339419 -0.0037767 -0.00416891 -0.00456606 -0.00496812 -0.00537512 -0.00577991 -0.00617536 -0.00656146 -0.00693822 -0.00729762 -0.00763162 -0.00794024 -0.00822346 -0.00847562 -0.00869103 -0.00886971 -0.00901164 -0.00911659 -0.00918432 -0.00921482 -0.00920809 -0.00917008 -0.00910671 -0.00901798 -0.0089039 -0.00877403 -0.00863792 -0.00849559 -0.00834702 -0.00820058 -0.00806462 -0.00793915 -0.00782417 -0.00772214 -0.00763556 -0.00756441 -0.00750871 -0.00746305 -0.00742206 -0.00738574 -0.00735409 -0.00731614 -0.00726092 -0.00718843 -0.00709867 -0.00698132 -0.00682604 -0.00663284 -0.00640172 -0.00613033 -0.00581635 -0.00545978 -0.00506061 -0.00462844 -0.00417283 -0.00369379 -0.00319132 -0.0026841 -0.00219078 -0.00171137 -0.00124587 -0.000813544 -0.000433678 -0.000106265 0.000168694 0.000380441 0.000518218 0.000582025 0.000571862 0.000490358 0.000340142 0.000121215 -0.000166425 -0.000507803 -0.000887944 -0.00130685 -0.00176452 -0.0022394 -0.00270992 -0.00317609 -0.00363791 -0.00407507 -0.00446727 -0.0048145 -0.00511676 -0.00536174 -0.00553712 -0.00564289 -0.00567905 -0.00564479 -0.00553927 -0.00536249 -0.00511446 -0.00480681 -0.00445117 -0.00404754 -0.00359594 -0.0031214 -0.00264899 -0.00217871 -0.00171056 -0.0012776 -0.000912888 -0.00061642 -0.000388198 -0.000218361 -9.70495e-05 -2.42624e-05 0 0 -6.08826e-06 -2.43531e-05 -5.47944e-05 -9.74122e-05 -0.000164439 -0.000268108 -0.000408419 -0.000585371 -0.000798281 -0.00104646 -0.00132992 -0.00164864 -0.00199816 -0.00237396 -0.00277606 -0.00320446 -0.00365468 -0.00412223 -0.00460713 -0.00510936 -0.00562266 -0.00614078 -0.00666371 -0.00719145 -0.00771495 -0.00822514 -0.00872204 -0.00920564 -0.00966598 -0.0100931 -0.0104869 -0.0108476 -0.0111681 -0.0114418 -0.0116687 -0.0118487 -0.011982 -0.0120687 -0.0121088 -0.0121023 -0.012057 -0.0119807 -0.0118734 -0.0117352 -0.011578 -0.0114139 -0.0112428 -0.0110648 -0.0108897 -0.0107277 -0.0105786 -0.0104425 -0.0103212 -0.0102168 -0.0101291 -0.0100583 -0.00999572 -0.009933 -0.00987011 -0.00980705 -0.00972825 -0.00961813 -0.00947669 -0.00930393 -0.00908586 -0.00880849 -0.00847181 -0.00807582 -0.00761838 -0.00709733 -0.00651268 -0.00586442 -0.0051677 -0.00443766 -0.00367431 -0.00287765 -0.00207594 -0.00129744 -0.000542151 0.000189923 0.000869783 0.00146843 0.00198586 0.00242208 0.00276073 0.00298546 0.00309627 0.00309317 0.00297971 0.00275945 0.00243239 0.00199852 0.00147988 0.000898492 0.00025435 -0.000452543 -0.0011902 -0.00192664 -0.00266185 -0.00339585 -0.00409834 -0.00473906 -0.005318 -0.00583517 -0.00627201 -0.00661 -0.00684913 -0.00698939 -0.00702905 -0.00696635 -0.00680131 -0.00653391 -0.00618011 -0.00575588 -0.00526122 -0.00469612 -0.00409446 -0.00349013 -0.00288313 -0.00227344 -0.00170594 -0.00122548 -0.000832071 -0.0005257 -0.000295706 -0.000131425 -3.28562e-05 0 0 -8.95348e-06 -3.58139e-05 -8.05814e-05 -0.000143256 -0.000238731 -0.000381899 -0.000572762 -0.000811318 -0.00109531 -0.00142246 -0.00179278 -0.00220627 -0.00265667 -0.00313772 -0.00364943 -0.00419179 -0.00475887 -0.00534471 -0.00594931 -0.00657267 -0.00720703 -0.00784462 -0.00848544 -0.00912949 -0.00976602 -0.0103843 -0.0109843 -0.011566 -0.012118 -0.0126289 -0.0130985 -0.0135269 -0.0139068 -0.0142306 -0.0144984 -0.0147103 -0.0148671 -0.0149699 -0.0150185 -0.0150131 -0.0149634 -0.0148793 -0.0147606 -0.0146075 -0.0144341 -0.0142545 -0.0140688 -0.0138768 -0.0136894 -0.0135174 -0.0133606 -0.0132191 -0.013093 -0.0129827 -0.012888 -0.0128089 -0.0127326 -0.0126459 -0.0125491 -0.0124419 -0.0123031 -0.0121111 -0.0118659 -0.0115676 -0.0111978 -0.0107383 -0.010189 -0.00954998 -0.00881996 -0.00799768 -0.00708314 -0.00607634 -0.00500039 -0.00387842 -0.00271041 -0.00149638 -0.000277751 0.00090402 0.00204894 0.003157 0.00418601 0.00509376 0.00588025 0.00654548 0.00706547 0.00741626 0.00759784 0.00761021 0.00745799 0.00714578 0.00667359 0.00604143 0.00528053 0.00442218 0.00346636 0.00241308 0.00130819 0.000197549 -0.000918846 -0.00204099 -0.0031252 -0.00412778 -0.00504872 -0.00588803 -0.00661866 -0.00721356 -0.00767273 -0.00799617 -0.00818059 -0.00822272 -0.00812254 -0.00788006 -0.00751635 -0.00705246 -0.00648841 -0.00582419 -0.00510405 -0.00437227 -0.00362883 -0.00287374 -0.00216569 -0.00156337 -0.00106679 -0.00067595 -0.000380222 -0.000168987 -4.22469e-05 0 0 -1.25447e-05 -5.01789e-05 -0.000112903 -0.000200716 -0.000330968 -0.00052101 -0.000770841 -0.00108046 -0.00144495 -0.00185937 -0.00232374 -0.00283804 -0.00339366 -0.00398195 -0.00460291 -0.00525656 -0.00593521 -0.00663121 -0.00734456 -0.00807525 -0.00881419 -0.00955227 -0.0102895 -0.0110258 -0.0117495 -0.0124488 -0.0131236 -0.013774 -0.014388 -0.0149537 -0.0154711 -0.0159401 -0.016354 -0.0167057 -0.0169954 -0.017223 -0.017391 -0.0175019 -0.0175558 -0.0175525 -0.0175041 -0.0174222 -0.0173068 -0.017158 -0.0169911 -0.0168215 -0.0166493 -0.0164744 -0.0163068 -0.0161563 -0.0160231 -0.015907 -0.0158047 -0.0157125 -0.0156305 -0.0155587 -0.0154777 -0.0153681 -0.0152298 -0.0150629 -0.0148385 -0.0145275 -0.01413 -0.0136459 -0.0130521 -0.0123254 -0.0114656 -0.0104728 -0.00934783 -0.00809147 -0.00670373 -0.00518461 -0.00356859 -0.00189015 -0.000149295 0.00165397 0.00346011 0.0052096 0.00690243 0.00853861 0.010058 0.0114006 0.0125663 0.0135552 0.0143329 0.0148651 0.0151518 0.0151929 0.0149944 0.0145618 0.0138953 0.0129948 0.0119036 0.010665 0.00927901 0.00774566 0.00612918 0.00449383 0.0028396 0.00116649 -0.000463772 -0.00198946 -0.00341058 -0.00472712 -0.00590041 -0.00689177 -0.0077012 -0.00832871 -0.00876851 -0.00901485 -0.00906771 -0.00892711 -0.00862001 -0.00817337 -0.0075872 -0.00686149 -0.00605254 -0.00521664 -0.00435377 -0.00346395 -0.00262177 -0.00190183 -0.00130413 -0.000828674 -0.000466129 -0.000207169 -5.17921e-05 0 0 -1.6862e-05 -6.74481e-05 -0.000151758 -0.000269792 -0.000441152 -0.000685441 -0.00100266 -0.0013928 -0.00184721 -0.0023572 -0.00292279 -0.00354397 -0.00420912 -0.00490664 -0.00563651 -0.00639874 -0.0071837 -0.00798175 -0.00879288 -0.0096171 -0.0104441 -0.0112637 -0.0120758 -0.0128805 -0.0136655 -0.0144187 -0.01514 -0.0158296 -0.0164758 -0.0170675 -0.0176047 -0.0180872 -0.0185098 -0.0188673 -0.0191596 -0.0193867 -0.0195535 -0.0196647 -0.0197204 -0.0197206 -0.019679 -0.0196094 -0.0195119 -0.0193865 -0.0192489 -0.0191148 -0.0189843 -0.0188575 -0.0187417 -0.0186446 -0.0185662 -0.0185064 -0.0184562 -0.0184063 -0.0183568 -0.0183077 -0.0182312 -0.0180994 -0.0179123 -0.01767 -0.0173344 -0.0168673 -0.0162689 -0.015539 -0.0146489 -0.0135697 -0.0123015 -0.0108443 -0.00920198 -0.00737872 -0.00537447 -0.00318924 -0.000872278 0.00152715 0.00400903 0.00657338 0.00913766 0.0116193 0.0140183 0.0163347 0.0184858 0.020389 0.0220441 0.0234513 0.024563 0.025332 0.0257581 0.0258414 0.0255889 0.0250076 0.0240974 0.0228585 0.021349 0.0196269 0.0176923 0.0155452 0.0132728 0.0109622 0.00861348 0.0062266 0.00388595 0.0016759 -0.000403561 -0.00235242 -0.00411725 -0.00564462 -0.00693454 -0.007987 -0.0087928 -0.00934275 -0.00963683 -0.00967506 -0.00949109 -0.0091186 -0.00855758 -0.00780804 -0.00693993 -0.00602324 -0.00505796 -0.00404408 -0.00307419 -0.00224086 -0.00154409 -0.000983872 -0.000553428 -0.000245968 -6.1492e-05 0 0 -2.19053e-05 -8.76213e-05 -0.000197148 -0.000350485 -0.000569283 -0.000875191 -0.00126821 -0.00174834 -0.00230208 -0.00291595 -0.00358994 -0.00432405 -0.00510307 -0.0059118 -0.00675023 -0.00761836 -0.00850434 -0.00939631 -0.0102943 -0.0111982 -0.0120969 -0.012979 -0.0138445 -0.0146935 -0.0155139 -0.0162939 -0.0170335 -0.0177327 -0.0183816 -0.0189704 -0.0194993 -0.019968 -0.0203742 -0.0207152 -0.0209909 -0.0212015 -0.0213547 -0.0214584 -0.0215125 -0.0215172 -0.021488 -0.021441 -0.021376 -0.0212931 -0.0212074 -0.0211344 -0.0210739 -0.021026 -0.0209942 -0.0209821 -0.0209898 -0.0210171 -0.0210475 -0.021064 -0.0210668 -0.0210559 -0.020993 -0.0208399 -0.0205966 -0.0202632 -0.0197908 -0.0191306 -0.0182825 -0.0172467 -0.015988 -0.0144714 -0.0126968 -0.0106644 -0.00838243 -0.00585942 -0.00309535 -9.02205e-05 0.00308853 0.00637346 0.00976458 0.0132619 0.0167549 0.0201331 0.0233966 0.0265454 0.0294694 0.0320588 0.0343136 0.0362337 0.0377559 0.0388169 0.0394168 0.0395556 0.0392415 0.038483 0.0372801 0.0356327 0.0336167 0.0313079 0.0287062 0.0258117 0.022739 0.0196027 0.0164028 0.0131393 0.00992396 0.00686829 0.00397232 0.00123606 -0.00126918 -0.00347212 -0.00537274 -0.00697105 -0.00825347 -0.00920641 -0.00982989 -0.0101239 -0.0101296 -0.00988815 -0.00939955 -0.00866381 -0.00776623 -0.00679208 -0.00574139 -0.00461414 -0.00352296 -0.00258047 -0.00178666 -0.00114154 -0.000642119 -0.000285386 -7.13465e-05 0 0 -2.75647e-05 -0.000110259 -0.000248083 -0.000441036 -0.000712393 -0.00108543 -0.00156014 -0.00213653 -0.00279494 -0.00351568 -0.00429877 -0.0051442 -0.0060323 -0.0069434 -0.00787749 -0.00883457 -0.00980022 -0.01076 -0.0117139 -0.0126619 -0.0135922 -0.0144927 -0.0153636 -0.0162047 -0.0170057 -0.017756 -0.0184556 -0.0191045 -0.0196965 -0.020225 -0.0206901 -0.0210918 -0.0214322 -0.0217133 -0.021935 -0.0220975 -0.0222127 -0.0222928 -0.0223377 -0.0223475 -0.0223398 -0.0223325 -0.0223253 -0.0223184 -0.022325 -0.0223582 -0.022418 -0.0225044 -0.0226145 -0.0227452 -0.0228966 -0.0230686 -0.023234 -0.0233656 -0.0234632 -0.023527 -0.0235056 -0.0233477 -0.0230534 -0.0226226 -0.0219937 -0.0211052 -0.0199571 -0.0185494 -0.01684 -0.0147872 -0.0123909 -0.00965104 -0.00658227 -0.00319913 0.000498381 0.00451025 0.00874633 0.0131165 0.0176206 0.0222588 0.0268866 0.0313594 0.0356772 0.0398401 0.0437055 0.0471307 0.0501159 0.0526609 0.0546839 0.0561028 0.0569178 0.0571288 0.0567455 0.0557777 0.0542255 0.0520888 0.0494639 0.0464471 0.0430385 0.039238 0.0351927 0.0310498 0.0268092 0.0224709 0.0181795 0.0140794 0.0101707 0.00645344 0.00302079 -3.39375e-05 -0.00271073 -0.0050096 -0.00691118 -0.00839611 -0.00946438 -0.010116 -0.0104005 -0.0103675 -0.0100169 -0.00934868 -0.00846554 -0.00747003 -0.00636217 -0.00514194 -0.00394417 -0.00290369 -0.00202048 -0.00129456 -0.000728191 -0.00032364 -8.09101e-05 0 0 -3.37303e-05 -0.000134921 -0.000303573 -0.000539685 -0.000867515 -0.00131132 -0.0018711 -0.00254686 -0.00331114 -0.00413648 -0.00502289 -0.00597036 -0.00695363 -0.00794741 -0.00895171 -0.00996653 -0.0109744 -0.0119579 -0.012917 -0.0138516 -0.0147499 -0.0155998 -0.0164012 -0.0171543 -0.0178517 -0.0184861 -0.0190577 -0.0195663 -0.0200118 -0.0203938 -0.0207124 -0.0209675 -0.0211687 -0.0213253 -0.0214372 -0.0215046 -0.0215454 -0.0215777 -0.0216015 -0.0216167 -0.0216429 -0.0216994 -0.0217862 -0.0219032 -0.0220595 -0.0222639 -0.0225165 -0.0228171 -0.0231527 -0.0235101 -0.0238893 -0.0242903 -0.0246714 -0.0249908 -0.0252486 -0.0254448 -0.0255115 -0.0253809 -0.0250531 -0.0245281 -0.023729 -0.0225792 -0.0210786 -0.0192271 -0.0169755 -0.0142741 -0.011123 -0.00752212 -0.00349458 0.000936618 0.00577148 0.01101 0.0165336 0.0222238 0.0280804 0.0341037 0.0401076 0.0459064 0.0515 0.0568885 0.0618906 0.0663252 0.0701921 0.0734915 0.0761196 0.0779728 0.079051 0.0793544 0.078894 0.0776812 0.0757159 0.072998 0.0696474 0.0657837 0.0614069 0.056517 0.051299 0.0459382 0.0404343 0.0347875 0.0291817 0.023801 0.0186454 0.0137148 0.00912966 0.00501023 0.00135654 -0.00183141 -0.00452662 -0.00670208 -0.0083578 -0.00949377 -0.0101689 -0.0104421 -0.0103133 -0.0097825 -0.008972 -0.00800396 -0.0068784 -0.00559531 -0.00431394 -0.00319357 -0.00223419 -0.00143579 -0.000807634 -0.000358948 -8.97371e-05 0 0 -4.0402e-05 -0.000161608 -0.000363618 -0.000646433 -0.00103465 -0.00155287 -0.00220109 -0.00297931 -0.00385068 -0.00477833 -0.00576228 -0.00680253 -0.00786705 -0.00892385 -0.00997291 -0.0110143 -0.0120269 -0.01299 -0.0139034 -0.0147673 -0.01557 -0.0163 -0.0169574 -0.0175421 -0.0180519 -0.0184845 -0.0188398 -0.019118 -0.0193275 -0.0194768 -0.0195661 -0.0195952 -0.0195837 -0.0195512 -0.0194976 -0.0194229 -0.0193529 -0.0193132 -0.0193039 -0.0193249 -0.0193972 -0.0195418 -0.0197585 -0.0200475 -0.0204111 -0.0208518 -0.0213694 -0.0219641 -0.0226089 -0.0232768 -0.0239679 -0.0246822 -0.0253595 -0.0259398 -0.026423 -0.0268092 -0.0270106 -0.0269395 -0.0265959 -0.0259798 -0.0249968 -0.0235525 -0.0216469 -0.0192801 -0.0163943 -0.012932 -0.0088931 -0.00427762 0.000880624 0.00654781 0.0127239 0.019409 0.0264504 0.0336954 0.0411441 0.0487964 0.0564179 0.0637741 0.070865 0.0776905 0.0840249 0.0896422 0.0945423 0.0987254 0.102063 0.104427 0.105816 0.106232 0.105687 0.104193 0.101751 0.0983605 0.0941673 0.0893176 0.0838114 0.0776486 0.0710579 0.0642677 0.0572781 0.0500891 0.0429307 0.0360331 0.0293963 0.0230202 0.0170574 0.0116604 0.00682909 0.00256353 -0.00109979 -0.00412434 -0.00651015 -0.00825719 -0.00943469 -0.0101119 -0.0102887 -0.00996526 -0.0092856 -0.00839387 -0.00729009 -0.00597424 -0.00463227 -0.00345011 -0.00242777 -0.00156524 -0.000880448 -0.00039131 -9.78276e-05 0 0 -4.75799e-05 -0.00019032 -0.000428219 -0.000761279 -0.0012138 -0.00181007 -0.0025501 -0.00343388 -0.00441356 -0.00544125 -0.00651696 -0.00764069 -0.00877257 -0.0098727 -0.0109411 -0.0119777 -0.0129578 -0.0138563 -0.0146733 -0.0154089 -0.0160524 -0.0165935 -0.0170321 -0.0173682 -0.0176064 -0.017751 -0.017802 -0.0177596 -0.0176436 -0.0174742 -0.0172512 -0.0169748 -0.0166773 -0.0163911 -0.0161161 -0.0158525 -0.0156352 -0.0154994 -0.015445 -0.015472 -0.0156028 -0.0158596 -0.0162424 -0.0167512 -0.0173797 -0.0181216 -0.0189768 -0.0199454 -0.020983 -0.0220453 -0.0231324 -0.0242442 -0.0252984 -0.0262124 -0.0269864 -0.0276203 -0.0280031 -0.0280236 -0.0276818 -0.0269777 -0.025797 -0.0240251 -0.0216622 -0.0187082 -0.0150966 -0.010761 -0.00570129 8.24631e-05 0.00654335 0.0136344 0.0213558 0.0297073 0.0384966 0.0475313 0.0568115 0.066337 0.0758175 0.0849625 0.0937721 0.102246 0.110108 0.117082 0.123167 0.128363 0.132514 0.135465 0.137214 0.137763 0.137125 0.135314 0.132332 0.128176 0.123024 0.117049 0.110252 0.102633 0.0944693 0.0860385 0.0773406 0.0683757 0.0594264 0.0507756 0.0424234 0.0343696 0.0268041 0.0199165 0.0137069 0.00817521 0.00336932 -0.00066289 -0.00392142 -0.00640626 -0.00819793 -0.00937693 -0.00994328 -0.00989697 -0.00940634 -0.00863976 -0.00759723 -0.00627874 -0.00489915 -0.00367332 -0.00260123 -0.0016829 -0.000946634 -0.000420726 -0.000105182 0 0 -5.50463e-05 -0.000220185 -0.000495416 -0.00088074 -0.00139923 -0.00207396 -0.00290494 -0.00389216 -0.00497489 -0.00609242 -0.00724474 -0.00843185 -0.00960454 -0.0107136 -0.011759 -0.0127408 -0.0136294 -0.0143956 -0.0150392 -0.0155602 -0.01595 -0.0162 -0.01631 -0.0162802 -0.0161242 -0.0158559 -0.0154752 -0.0149821 -0.014412 -0.0138 -0.0131462 -0.0124507 -0.0117623 -0.0111302 -0.0105544 -0.0100348 -0.00961829 -0.00935149 -0.00923443 -0.00926711 -0.00947293 -0.00987526 -0.0104741 -0.0112695 -0.0122434 -0.0133777 -0.0146726 -0.0161279 -0.0176772 -0.0192541 -0.0208586 -0.0224906 -0.0240404 -0.0253982 -0.026564 -0.0275378 -0.0281811 -0.0283552 -0.0280602 -0.027296 -0.0259257 -0.0238122 -0.0209556 -0.0173559 -0.0129375 -0.00762489 -0.00141804 0.00568304 0.013615 0.0223147 0.0317819 0.0420168 0.0527804 0.0638339 0.0751773 0.0868105 0.0983799 0.109532 0.120266 0.130583 0.14015 0.148636 0.156041 0.162364 0.16742 0.171025 0.173177 0.173877 0.173141 0.170984 0.167407 0.162409 0.156197 0.148975 0.140744 0.131503 0.121584 0.111316 0.1007 0.0897353 0.078764 0.0681281 0.0578275 0.0478622 0.0384651 0.029869 0.0220739 0.0150798 0.00894866 0.00374227 -0.000539347 -0.00389618 -0.00642079 -0.00820571 -0.00925094 -0.0095565 -0.00931734 -0.00872843 -0.00778977 -0.00650136 -0.00510928 -0.00385959 -0.0027523 -0.0017874 -0.00100541 -0.00044685 -0.000111712 0 0 -6.25834e-05 -0.000250334 -0.000563251 -0.00100133 -0.00158523 -0.00233559 -0.00325241 -0.0043357 -0.00550979 -0.00669903 -0.00790344 -0.00912299 -0.0102974 -0.0113662 -0.0123294 -0.0131872 -0.0139045 -0.0144466 -0.0148134 -0.015005 -0.0150155 -0.014839 -0.0144757 -0.0139254 -0.0132146 -0.0123695 -0.0113902 -0.0102767 -0.0090843 -0.00786857 -0.00662948 -0.00536702 -0.00415171 -0.00305404 -0.00207401 -0.00121164 -0.000528198 -8.49889e-05 0.00011799 8.07402e-05 -0.000220917 -0.000811158 -0.00168998 -0.00285739 -0.00427999 -0.00592438 -0.00779056 -0.00987854 -0.0120937 -0.0143416 -0.0166222 -0.0189354 -0.021138 -0.0230865 -0.024781 -0.0262214 -0.027237 -0.0276567 -0.0274807 -0.0267089 -0.025179 -0.0227289 -0.0193584 -0.0150677 -0.00977224 -0.00338764 0.00408612 0.012649 0.0222172 0.0327066 0.0441174 0.0564495 0.0694098 0.0827054 0.0963361 0.110302 0.124179 0.137542 0.150392 0.162728 0.17416 0.184298 0.193141 0.20069 0.20673 0.211046 0.213638 0.214507 0.21367 0.211143 0.206928 0.201024 0.193667 0.185093 0.175302 0.164293 0.152453 0.140166 0.127434 0.114256 0.101039 0.0881901 0.0757095 0.0635972 0.0521358 0.0416081 0.032014 0.0233536 0.0157062 0.00915112 0.00368832 -0.000682171 -0.00406546 -0.00656666 -0.00818575 -0.00892275 -0.0090017 -0.00864667 -0.00785766 -0.00663466 -0.00525733 -0.00400534 -0.00287867 -0.00187734 -0.001056 -0.000469334 -0.000117334 0 0 -7.01913e-05 -0.000280765 -0.000631722 -0.00112306 -0.0017718 -0.00259495 -0.00359252 -0.0047645 -0.00601824 -0.00726109 -0.00849305 -0.00971411 -0.010851 -0.0118304 -0.0126524 -0.013317 -0.013783 -0.0140093 -0.0139961 -0.0137432 -0.0132488 -0.0125107 -0.0115292 -0.010304 -0.00887755 -0.00729191 -0.00554713 -0.0036432 -0.00166061 0.00032013 0.00229903 0.00427609 0.00615451 0.0078375 0.00932504 0.0106171 0.0116351 0.0123001 0.0126123 0.0125715 0.0121532 0.0113327 0.01011 0.00848508 0.0065104 0.00423844 0.00166919 -0.00119736 -0.00423258 -0.0073079 -0.0104233 -0.0135788 -0.0165912 -0.0192774 -0.0216373 -0.0236711 -0.0251706 -0.025928 -0.0259433 -0.0252163 -0.023557 -0.0207751 -0.0168706 -0.0118436 -0.0056008 0.00195079 0.0108112 0.0209804 0.0323497 0.0448103 0.0583622 0.0730054 0.0883849 0.104146 0.120288 0.136811 0.153214 0.168993 0.184149 0.198681 0.212138 0.224067 0.234468 0.243341 0.250442 0.255527 0.258597 0.259652 0.25871 0.255791 0.250895 0.244021 0.235435 0.225404 0.213926 0.201002 0.187076 0.172589 0.157543 0.141938 0.126251 0.110962 0.0960695 0.0815745 0.0678162 0.0551338 0.0435272 0.0329966 0.023642 0.0155637 0.0087616 0.00323578 -0.00113196 -0.00445978 -0.0067477 -0.00799571 -0.00845943 -0.00839449 -0.00780089 -0.00667863 -0.00534332 -0.00411056 -0.00298036 -0.00195272 -0.00109841 -0.000488181 -0.000122045 0 0 -7.78699e-05 -0.00031148 -0.000700829 -0.00124592 -0.00195893 -0.00285204 -0.00392526 -0.00517857 -0.00650026 -0.0077786 -0.00901358 -0.0102052 -0.0112655 -0.0121064 -0.0127279 -0.0131301 -0.0132648 -0.0130838 -0.0125872 -0.0117749 -0.0106499 -0.00921509 -0.00747044 -0.00541596 -0.00311303 -0.000623018 0.00205408 0.00491827 0.00785909 0.0107661 0.0136393 0.0164787 0.0191564 0.0215444 0.0236428 0.0254515 0.0268715 0.0278039 0.0282484 0.0282053 0.0276495 0.0265564 0.0249258 0.0227579 0.0201278 0.0171107 0.0137067 0.00991567 0.00590627 0.0018471 -0.00226185 -0.00642059 -0.0103999 -0.0139708 -0.0171331 -0.0198868 -0.0219822 -0.0231692 -0.0234479 -0.0228183 -0.0210596 -0.0179509 -0.0134922 -0.00768349 -0.000423183 0.00839038 0.0187572 0.0306773 0.0440127 0.0586258 0.0745164 0.0916846 0.109706 0.128155 0.147033 0.166339 0.185485 0.203885 0.221537 0.238443 0.254084 0.267943 0.280021 0.290316 0.298557 0.30447 0.308055 0.309313 0.308264 0.304928 0.299307 0.291399 0.281501 0.269906 0.256616 0.241631 0.225452 0.208585 0.191027 0.172781 0.1544 0.136443 0.118907 0.101794 0.0855063 0.0704461 0.0566135 0.0440087 0.032756 0.0229799 0.0146805 0.00785766 0.00237973 -0.00188509 -0.00493679 -0.00677538 -0.00769051 -0.00797187 -0.00761946 -0.00663327 -0.00536723 -0.00417526 -0.00305737 -0.00201355 -0.00113262 -0.000503389 -0.000125847 0 0 -8.53747e-05 -0.000341499 -0.000768372 -0.001366 -0.00214025 -0.00309703 -0.00423632 -0.00555813 -0.0069294 -0.00821705 -0.00942111 -0.0105416 -0.0114735 -0.0121123 -0.0124577 -0.0125098 -0.0122125 -0.0115096 -0.0104012 -0.0088871 -0.00697666 -0.00467907 -0.00199433 0.00107756 0.0044