<?xml version="1.0"?> 
<VTKFile type="StructuredGrid" version="0.1"> 
<StructuredGrid WholeExtent="0 128 0 128 0 0"> 
<Piece Extent="0 128 0 128 0 0"> 
<PointData>
<DataArray type="Float32" Name="u" format="ascii" NumberOfComponents="1"> 
0 0 0 0 0 0 0 0 0 0 0 0 0 0 0 0 0 0 0 0 0 0 0 0 0 0 0 0 0 0 0 0 0 0 0 0 0 0 0 0 0 0 0 0 0 0 0 0 0 0 0 0 0 0 0 0 0 0 0 0 0 0 0 0 0 0 0 0 0 0 0 0 0 0 0 0 0 0 0 0 0 0 0 0 0 0 0 0 0 0 0 0 0 0 0 0 0 0 0 0 0 0 0 0 0 0 0 0 0 0 0 0 0 0 0 0 0 0 0 0 0 0 0 0 0 0 0 0 0 0 -2.93938e-08 -1.17575e-07 -2.64544e-07 -4.70301e-07 -9.44012e-07 -1.89484e-06 -3.3228e-06 -5.22787e-06 -7.65995e-06 -1.06689e-05 -1.42548e-05 -1.84175e-05 -2.31125e-05 -2.82953e-05 -3.39658e-05 -4.01241e-05 -4.67166e-05 -5.369e-05 -6.10441e-05 -6.87791e-05 -7.67986e-05 -8.50066e-05 -9.34029e-05 -0.000101988 -0.0001106 -0.00011908 -0.000127428 -0.000135643 -0.000143532 -0.000150903 -0.000157755 -0.000164088 -0.000169753 -0.0001746 -0.000178628 -0.000181838 -0.000184202 -0.00018569 -0.000186304 -0.000186044 -0.00018503 -0.000183385 -0.000181108 -0.0001782 -0.000174885 -0.000171386 -0.000167703 -0.000163837 -0.000160008 -0.000156437 -0.000153125 -0.000150072 -0.00014739 -0.00014519 -0.000143474 -0.000142241 -0.000141444 -0.000141037 -0.000141021 -0.000141394 -0.000141987 -0.000142632 -0.000143328 -0.000144075 -0.000144688 -0.000144981 -0.000144954 -0.000144606 -0.000143856 -0.00014262 -0.000140897 -0.000138689 -0.000136072 -0.000133125 -0.000129847 -0.000126239 -0.000122497 -0.000118818 -0.000115202 -0.000111649 -0.000108362 -0.000105544 -0.000103195 -0.000101314 -0.000100004 -9.93662e-05 -9.93997e-05 -0.000100105 -0.000101434 -0.000103337 -0.000105816 -0.00010887 -0.000112319 -0.000115982 -0.000119861 -0.000123954 -0.000128014 -0.00013179 -0.000135282 -0.000138492 -0.000141183 -0.000143121 -0.000144305 -0.000144736 -0.000144271 -0.000142768 -0.000140226 -0.000136647 -0.000132034 -0.000126395 -0.000119729 -0.000112036 -0.000103513 -9.43576e-05 -8.45705e-05 -7.41513e-05 -6.35603e-05 -5.32575e-05 -4.32431e-05 -3.35169e-05 -2.46842e-05 -1.73499e-05 -1.1514e-05 -7.1765e-06 -4.03678e-06 -1.79412e-06 -4.48531e-07 0 0 -1.17575e-07 -4.70301e-07 -1.05818e-06 -1.8812e-06 -3.77605e-06 -7.57938e-06 -1.32912e-05 -2.09115e-05 -3.06398e-05 -4.26757e-05 -5.70191e-05 -7.367e-05 -9.24502e-05 -0.000113181 -0.000135863 -0.000160496 -0.000186866 -0.00021476 -0.000244176 -0.000275116 -0.000307195 -0.000340026 -0.000373612 -0.00040795 -0.000442401 -0.000476321 -0.000509712 -0.000542572 -0.00057413 -0.000603613 -0.000631021 -0.000656354 -0.000679013 -0.000698399 -0.000714512 -0.000727352 -0.000736807 -0.000742762 -0.000745218 -0.000744175 -0.000740119 -0.000733539 -0.000724433 -0.000712802 -0.00069954 -0.000685544 -0.000670813 -0.000655347 -0.000640031 -0.000625749 -0.000612502 -0.000600289 -0.000589559 -0.000580762 -0.000573897 -0.000568964 -0.000565777 -0.00056415 -0.000564082 -0.000565574 -0.000567949 -0.000570528 -0.000573312 -0.000576302 -0.000578753 -0.000579924 -0.000579815 -0.000578426 -0.000575424 -0.000570478 -0.000563588 -0.000554754 -0.000544287 -0.000532498 -0.000519388 -0.000504956 -0.000489989 -0.000475274 -0.00046081 -0.000446597 -0.000433448 -0.000422175 -0.000412778 -0.000405257 -0.000400017 -0.000397465 -0.000397599 -0.00040042 -0.000405735 -0.00041335 -0.000423265 -0.00043548 -0.000449275 -0.000463929 -0.000479444 -0.000495818 -0.000512055 -0.000527159 -0.00054113 -0.000553968 -0.000564732 -0.000572482 -0.000577219 -0.000578943 -0.000577083 -0.000571071 -0.000560905 -0.000546587 -0.000528138 -0.000505581 -0.000478916 -0.000448142 -0.000414051 -0.000377431 -0.000338282 -0.000296605 -0.000254241 -0.00021303 -0.000172972 -0.000134068 -9.87367e-05 -6.93994e-05 -4.60559e-05 -2.8706e-05 -1.61471e-05 -7.1765e-06 -1.79412e-06 0 0 -2.64544e-07 -1.05818e-06 -2.3809e-06 -4.23271e-06 -8.49611e-06 -1.70536e-05 -2.99052e-05 -4.70509e-05 -6.89396e-05 -9.60202e-05 -0.000128293 -0.000165757 -0.000208013 -0.000254658 -0.000305693 -0.000361117 -0.00042045 -0.00048321 -0.000549397 -0.000619012 -0.000691188 -0.000765059 -0.000840626 -0.000917888 -0.000995402 -0.00107172 -0.00114685 -0.00122079 -0.00129179 -0.00135813 -0.0014198 -0.0014768 -0.00152778 -0.0015714 -0.00160765 -0.00163654 -0.00165781 -0.00167121 -0.00167674 -0.00167439 -0.00166527 -0.00165046 -0.00162997 -0.0016038 -0.00157397 -0.00154247 -0.00150933 -0.00147453 -0.00144007 -0.00140793 -0.00137813 -0.00135065 -0.00132651 -0.00130671 -0.00129127 -0.00128017 -0.001273 -0.00126934 -0.00126918 -0.00127254 -0.00127788 -0.00128369 -0.00128995 -0.00129668 -0.00130219 -0.00130483 -0.00130458 -0.00130146 -0.0012947 -0.00128358 -0.00126807 -0.0012482 -0.00122465 -0.00119812 -0.00116862 -0.00113615 -0.00110248 -0.00106937 -0.00103682 -0.00100484 -0.000975259 -0.000949894 -0.000928751 -0.000911828 -0.000900039 -0.000894295 -0.000894597 -0.000900945 -0.000912903 -0.000930037 -0.000952345 -0.000979829 -0.00101087 -0.00104384 -0.00107875 -0.00111559 -0.00115212 -0.00118611 -0.00121754 -0.00124643 -0.00127065 -0.00128809 -0.00129874 -0.00130262 -0.00129844 -0.00128491 -0.00126204 -0.00122982 -0.00118831 -0.00113756 -0.00107756 -0.00100832 -0.000931614 -0.000849219 -0.000761135 -0.000667362 -0.000572042 -0.000479318 -0.000389188 -0.000301652 -0.000222158 -0.000156149 -0.000103626 -6.45885e-05 -3.6331e-05 -1.61471e-05 -4.03678e-06 0 0 -4.70301e-07 -1.8812e-06 -4.23271e-06 -7.52482e-06 -1.51042e-05 -3.03175e-05 -5.31648e-05 -8.3646e-05 -0.000122559 -0.000170703 -0.000228076 -0.00029468 -0.000369801 -0.000452725 -0.000543453 -0.000641986 -0.000747466 -0.000859039 -0.000976706 -0.00110047 -0.00122878 -0.00136011 -0.00149445 -0.0016318 -0.0017696 -0.00190529 -0.00203885 -0.00217029 -0.00229652 -0.00241445 -0.00252408 -0.00262541 -0.00271605 -0.0027936 -0.00285805 -0.00290941 -0.00294723 -0.00297105 -0.00298087 -0.0029767 -0.00296048 -0.00293416 -0.00289773 -0.00285121 -0.00279816 -0.00274218 -0.00268325 -0.00262139 -0.00256012 -0.002503 -0.00245001 -0.00240115 -0.00235824 -0.00232305 -0.00229559 -0.00227586 -0.00226311 -0.0022566 -0.00225633 -0.0022623 -0.00227179 -0.00228211 -0.00229325 -0.00230521 -0.00231501 -0.0023197 -0.00231926 -0.0023137 -0.0023017 -0.00228191 -0.00225435 -0.00221902 -0.00217715 -0.00212999 -0.00207755 -0.00201983 -0.00195996 -0.0019011 -0.00184324 -0.00178639 -0.00173379 -0.0016887 -0.00165111 -0.00162103 -0.00160007 -0.00158986 -0.0015904 -0.00160168 -0.00162294 -0.0016534 -0.00169306 -0.00174192 -0.0017971 -0.00185572 -0.00191777 -0.00198327 -0.00204822 -0.00210864 -0.00216452 -0.00221587 -0.00225893 -0.00228993 -0.00230888 -0.00231577 -0.00230833 -0.00228428 -0.00224362 -0.00218635 -0.00211255 -0.00202232 -0.00191566 -0.00179257 -0.0016562 -0.00150972 -0.00135313 -0.00118642 -0.00101696 -0.00085212 -0.000691889 -0.000536271 -0.000394947 -0.000277598 -0.000184223 -0.000114824 -6.45885e-05 -2.8706e-05 -7.1765e-06 0 0 -9.81548e-07 -3.92619e-06 -8.83393e-06 -1.57048e-05 -2.96969e-05 -5.59684e-05 -9.45194e-05 -0.00014535 -0.000209487 -0.00028796 -0.000380767 -0.000487909 -0.000608186 -0.000740398 -0.000884544 -0.00104062 -0.00120725 -0.00138303 -0.00156796 -0.00176204 -0.00196287 -0.00216803 -0.00237752 -0.00259134 -0.00280555 -0.00301619 -0.00322326 -0.00342677 -0.00362199 -0.00380422 -0.00397346 -0.00412972 -0.00426937 -0.00438883 -0.00448808 -0.00456712 -0.00462536 -0.00466219 -0.00467761 -0.00467162 -0.00464728 -0.00460764 -0.00455271 -0.00448248 -0.00440245 -0.0043181 -0.00422943 -0.00413644 -0.00404444 -0.00395873 -0.00387931 -0.00380618 -0.00374184 -0.00368878 -0.003647 -0.0036165 -0.00359578 -0.00358332 -0.00357913 -0.00358321 -0.00359102 -0.00359804 -0.00360426 -0.0036097 -0.00360958 -0.00359915 -0.00357841 -0.00354736 -0.00350414 -0.0034469 -0.00337563 -0.00329034 -0.00319359 -0.00308795 -0.00297344 -0.00285004 -0.00272359 -0.00259993 -0.00247904 -0.00236094 -0.00225159 -0.00215697 -0.00207708 -0.00201193 -0.00196458 -0.0019381 -0.0019325 -0.00194777 -0.00198268 -0.00203598 -0.00210767 -0.00219776 -0.00230116 -0.0024128 -0.00253266 -0.00266076 -0.00278997 -0.00291315 -0.00303031 -0.00314145 -0.00323981 -0.00331862 -0.00337789 -0.00341761 -0.00343365 -0.00342186 -0.00338224 -0.00331479 -0.00321949 -0.00309631 -0.00294527 -0.00276635 -0.00256467 -0.00234535 -0.00210838 -0.00185377 -0.00159329 -0.00133872 -0.00109007 -0.00084732 -0.00062601 -0.000441665 -0.000294285 -0.000183868 -0.000103426 -4.59671e-05 -1.14918e-05 0 0 -2.04499e-06 -8.17995e-06 -1.84049e-05 -3.27198e-05 -5.83707e-05 -0.000102604 -0.000165419 -0.000246816 -0.000347713 -0.000469029 -0.000610764 -0.000772917 -0.000953542 -0.00115069 -0.00136436 -0.00159456 -0.00183913 -0.00209595 -0.002365 -0.0026463 -0.00293635 -0.00323168 -0.00353229 -0.00383817 -0.00414379 -0.00444363 -0.00473766 -0.00502591 -0.00530188 -0.00555908 -0.00579753 -0.00601721 -0.00621329 -0.00638092 -0.00652011 -0.00663085 -0.00671254 -0.00676458 -0.00678696 -0.00677969 -0.00674721 -0.00669395 -0.00661992 -0.00652511 -0.00641716 -0.00630369 -0.00618471 -0.00606022 -0.00593727 -0.00582294 -0.00571722 -0.00562011 -0.00553441 -0.00546292 -0.00540565 -0.00536259 -0.00533068 -0.00530689 -0.00529121 -0.00528363 -0.00527689 -0.0052637 -0.00524405 -0.00521796 -0.00517826 -0.00511781 -0.0050366 -0.00493463 -0.00480979 -0.00465995 -0.00448511 -0.00428528 -0.00406575 -0.00383185 -0.00358355 -0.00332087 -0.00305455 -0.00279533 -0.00254321 -0.00229819 -0.00207117 -0.00187307 -0.00170389 -0.00156361 -0.00145804 -0.00139298 -0.00136843 -0.00138438 -0.00143897 -0.00153033 -0.00165846 -0.00182337 -0.00201625 -0.00222831 -0.00245955 -0.00270996 -0.00296698 -0.00321805 -0.00346316 -0.00370232 -0.00392352 -0.00411475 -0.00427603 -0.00440735 -0.00450126 -0.00455029 -0.00455446 -0.00451375 -0.00442774 -0.00429596 -0.00411841 -0.00389511 -0.00363386 -0.00334249 -0.003021 -0.00266939 -0.0023053 -0.00194641 -0.00159271 -0.00124419 -0.000924254 -0.000656271 -0.000440246 -0.000276178 -0.00015535 -6.90445e-05 -1.72611e-05 0 0 -3.66062e-06 -1.46425e-05 -3.29456e-05 -5.85699e-05 -0.000101126 -0.000170223 -0.000265862 -0.000388043 -0.000537236 -0.00071391 -0.000918066 -0.0011497 -0.00140587 -0.0016836 -0.0019829 -0.00230378 -0.00264311 -0.0029978 -0.00336785 -0.00375325 -0.00414924 -0.00455108 -0.00495876 -0.00537228 -0.00578433 -0.00618759 -0.00658205 -0.00696772 -0.00733619 -0.00767904 -0.00799627 -0.00828789 -0.0085478 -0.00876988 -0.00895414 -0.00910059 -0.00920876 -0.00927821 -0.00930892 -0.00930091 -0.00926026 -0.00919308 -0.00909935 -0.00897908 -0.00884228 -0.00869895 -0.00854909 -0.00839271 -0.00823861 -0.00809562 -0.00796372 -0.00784293 -0.00773595 -0.00764548 -0.00757154 -0.00751411 -0.00746782 -0.00742731 -0.00739256 -0.00736358 -0.00732941 -0.00727909 -0.00721262 -0.00712999 -0.00702106 -0.00687567 -0.00669382 -0.00647551 -0.00621863 -0.00592105 -0.00558279 -0.00520384 -0.00479365 -0.00436166 -0.00390788 -0.00343231 -0.00295282 -0.00248729 -0.00203574 -0.00159814 -0.00119255 -0.000837012 -0.000531516 -0.000276065 -8.04589e-05 4.55064e-05 0.00010183 8.8513e-05 8.20571e-06 -0.00013644 -0.000345425 -0.000618748 -0.000942375 -0.00130227 -0.00169844 -0.00213087 -0.00257927 -0.00302334 -0.00346307 -0.00389847 -0.00431006 -0.00467834 -0.00500332 -0.005285 -0.00551116 -0.00566959 -0.00576029 -0.00578325 -0.0057373 -0.00562125 -0.0054351 -0.00517886 -0.00486378 -0.00450116 -0.00409099 -0.00363327 -0.00315301 -0.00267519 -0.00219982 -0.0017269 -0.00128968 -0.000921414 -0.000622106 -0.000391752 -0.000220361 -9.79381e-05 -2.44845e-05 0 0 -5.82845e-06 -2.33138e-05 -5.2456e-05 -9.32551e-05 -0.000157962 -0.000258827 -0.000395851 -0.000569033 -0.000778056 -0.0010226 -0.00130267 -0.00161827 -0.00196516 -0.00233913 -0.00274018 -0.00316829 -0.0036192 -0.00408859 -0.00457649 -0.00508287 -0.00560153 -0.00612621 -0.00665693 -0.00719368 -0.00772716 -0.00824807 -0.00875642 -0.0092522 -0.00972492 -0.0101641 -0.0105697 -0.0109418 -0.0112729 -0.0115557 -0.0117902 -0.0119763 -0.012114 -0.0122031 -0.0122435 -0.0122353 -0.0121864 -0.012105 -0.011991 -0.0118444 -0.0116778 -0.0115039 -0.0113226 -0.0111339 -0.0109485 -0.0107768 -0.0106188 -0.0104747 -0.0103465 -0.0102365 -0.0101447 -0.0100711 -0.0100072 -0.00994457 -0.00988319 -0.00982305 -0.00974859 -0.00964423 -0.00950996 -0.0093458 -0.00913798 -0.00887274 -0.00855008 -0.00817 -0.00773066 -0.00723022 -0.00666868 -0.00604603 -0.00537728 -0.00467741 -0.00394644 -0.00318436 -0.00241841 -0.00167583 -0.000956628 -0.000260801 0.000384272 0.000951214 0.00144002 0.0018507 0.00216817 0.00237736 0.00247827 0.00247089 0.00235883 0.00214568 0.00183144 0.00141611 0.000920476 0.000365332 -0.000249323 -0.00092349 -0.00162683 -0.00232902 -0.00303005 -0.00372992 -0.00439943 -0.00500937 -0.00555974 -0.00605054 -0.00646336 -0.00677975 -0.00699972 -0.00712328 -0.00714818 -0.0070722 -0.00689534 -0.00661759 -0.00625443 -0.00582136 -0.00531836 -0.00474543 -0.0041364 -0.00352505 -0.00291139 -0.00229542 -0.00172228 -0.0012371 -0.000839865 -0.000530592 -0.000298458 -0.000132648 -3.3162e-05 0 0 -8.64244e-06 -3.45698e-05 -7.7782e-05 -0.000138279 -0.000230989 -0.000370839 -0.000557829 -0.000791959 -0.00107141 -0.00139435 -0.00176079 -0.00217073 -0.00261823 -0.00309737 -0.00360814 -0.00415055 -0.0047189 -0.00530747 -0.00591628 -0.00654532 -0.00718688 -0.00783322 -0.00848436 -0.00914029 -0.00978995 -0.0104223 -0.0110373 -0.011635 -0.0122032 -0.0127297 -0.0132147 -0.0136581 -0.0140517 -0.0143874 -0.0146652 -0.0148851 -0.0150477 -0.0151536 -0.0152027 -0.015195 -0.0151408 -0.0150499 -0.0149225 -0.0147586 -0.014573 -0.0143806 -0.0141815 -0.0139757 -0.0137747 -0.0135899 -0.0134214 -0.0132693 -0.0131339 -0.013016 -0.0129155 -0.0128324 -0.0127537 -0.0126664 -0.0125707 -0.0124663 -0.012332 -0.0121462 -0.011909 -0.0116202 -0.011262 -0.0108163 -0.0102832 -0.00966264 -0.00895377 -0.00815577 -0.00726864 -0.00629239 -0.00524999 -0.00416441 -0.00303565 -0.00186372 -0.000688795 0.000448922 0.00154944 0.00261275 0.00359869 0.00446711 0.005218 0.00585137 0.00634485 0.00667612 0.00684517 0.00685199 0.00670126 0.00639766 0.00594118 0.00533183 0.00459931 0.00377332 0.00285386 0.00184094 0.000778321 -0.000290205 -0.00136464 -0.00244499 -0.00348889 -0.00445397 -0.00534022 -0.00614766 -0.00684935 -0.00741834 -0.00785463 -0.00815824 -0.00832522 -0.00835165 -0.00823753 -0.00798287 -0.00760811 -0.00713372 -0.00655969 -0.00588603 -0.0051569 -0.00441651 -0.00366483 -0.00290187 -0.0021867 -0.00157839 -0.00107694 -0.00068234 -0.000383816 -0.000170585 -4.26462e-05 0 0 -1.21966e-05 -4.87863e-05 -0.000109769 -0.000195145 -0.000322316 -0.000508681 -0.000754243 -0.001059 -0.00141853 -0.0018284 -0.00228863 -0.0027992 -0.00335187 -0.00393839 -0.00455877 -0.00521301 -0.00589374 -0.0065936 -0.0073126 -0.00805073 -0.00879896 -0.00954826 -0.0102986 -0.01105 -0.0117904 -0.0125074 -0.0132011 -0.0138716 -0.014506 -0.0150915 -0.0156282 -0.0161161 -0.0165473 -0.016914 -0.0172162 -0.0174539 -0.0176291 -0.017744 -0.0177984 -0.0177925 -0.0177383 -0.017648 -0.0175216 -0.0173591 -0.0171769 -0.0169912 -0.0168023 -0.0166099 -0.016425 -0.0162585 -0.0161104 -0.0159807 -0.0158664 -0.0157643 -0.0156744 -0.0155968 -0.0155121 -0.0154006 -0.0152625 -0.0150978 -0.0148774 -0.0145723 -0.0141825 -0.0137081 -0.0131262 -0.0124138 -0.0115711 -0.010598 -0.00949582 -0.00826602 -0.00690857 -0.00542348 -0.00384514 -0.00220796 -0.000511944 0.00124291 0.00299853 0.00469682 0.00633778 0.00792142 0.0093901 0.0106862 0.0118097 0.0127606 0.0135066 0.0140153 0.0142868 0.014321 0.0141238 0.0137011 0.0130529 0.0121791 0.0111211 0.00992052 0.00857719 0.00709117 0.00552418 0.00393799 0.00233258 0.000707968 -0.000875696 -0.00235825 -0.00373969 -0.00502002 -0.00616064 -0.00712292 -0.00790689 -0.00851252 -0.00893324 -0.00916243 -0.00920011 -0.00904626 -0.00872712 -0.00826889 -0.00767159 -0.00693521 -0.00611596 -0.00527007 -0.00439752 -0.00349832 -0.00264758 -0.00192038 -0.00131674 -0.00083664 -0.00047061 -0.00020916 -5.229e-05 0 0 -1.64909e-05 -6.59635e-05 -0.000148418 -0.000263854 -0.000431943 -0.000672355 -0.000985092 -0.00137015 -0.00181941 -0.00232475 -0.00288618 -0.00350367 -0.00416608 -0.00486221 -0.00559207 -0.00635566 -0.00714371 -0.00794697 -0.00876543 -0.00959909 -0.0104378 -0.0112713 -0.0120997 -0.0129229 -0.0137284 -0.0145034 -0.015248 -0.0159621 -0.0166334 -0.0172495 -0.0178103 -0.0183158 -0.0187597 -0.0191355 -0.0194431 -0.0196827 -0.0198584 -0.0199744 -0.0200308 -0.0200276 -0.0199789 -0.0198991 -0.0197881 -0.0196459 -0.0194895 -0.0193358 -0.0191848 -0.0190364 -0.0188995 -0.0187826 -0.0186858 -0.0186091 -0.0185438 -0.0184813 -0.0184215 -0.0183645 -0.0182824 -0.0181472 -0.0179588 -0.0177173 -0.0173846 -0.0169224 -0.0163307 -0.0156095 -0.0147305 -0.0136652 -0.0124137 -0.010976 -0.00935682 -0.00756098 -0.00558847 -0.00343929 -0.00116273 0.00119192 0.00362468 0.00613553 0.00864356 0.0110679 0.0134084 0.0156652 0.0177585 0.0196084 0.0212151 0.0225784 0.0236534 0.024395 0.0248032 0.024878 0.0246266 0.024056 0.0231665 0.0219578 0.020486 0.0188069 0.0169207 0.0148272 0.0126107 0.0103556 0.00806163 0.00572896 0.00344015 0.00127778 -0.000758142 -0.00266762 -0.00439722 -0.0058935 -0.00715648 -0.00818614 -0.00897224 -0.00950455 -0.00978306 -0.00980777 -0.00961145 -0.00922688 -0.00865406 -0.00789299 -0.00701357 -0.00608574 -0.00510947 -0.00408479 -0.00310491 -0.00226306 -0.00155926 -0.000993493 -0.00055884 -0.000248373 -6.20933e-05 0 0 -2.15253e-05 -8.61012e-05 -0.000193728 -0.000344405 -0.00055987 -0.000861861 -0.00125038 -0.00172542 -0.00227407 -0.00288341 -0.00355344 -0.00428416 -0.00506086 -0.00586882 -0.00670803 -0.0075785 -0.00846882 -0.00936758 -0.0102748 -0.0111904 -0.0121033 -0.0130024 -0.0138876 -0.014759 -0.0156041 -0.0164103 -0.0171778 -0.0179065 -0.0185854 -0.0192035 -0.0197608 -0.0202572 -0.0206889 -0.0210518 -0.021346 -0.0215715 -0.0217353 -0.0218448 -0.0218998 -0.0219003 -0.0218627 -0.0218033 -0.0217221 -0.0216191 -0.021511 -0.0214143 -0.0213291 -0.0212554 -0.0211981 -0.0211622 -0.0211476 -0.0211543 -0.0211662 -0.021167 -0.0211567 -0.0211355 -0.0210647 -0.020906 -0.0206595 -0.0203251 -0.0198537 -0.0191965 -0.0183534 -0.0173244 -0.0160749 -0.0145705 -0.0128111 -0.0107967 -0.00853677 -0.00604064 -0.00330832 -0.000339831 0.00279723 0.00603524 0.00937421 0.0128141 0.0162463 0.019562 0.0227613 0.0258441 0.0287039 0.0312339 0.0334342 0.0353048 0.0367852 0.037815 0.0383942 0.0385229 0.0382094 0.0374625 0.036282 0.034668 0.0326938 0.0304325 0.0278843 0.025049 0.022038 0.0189625 0.0158225 0.012618 0.00945865 0.00645412 0.00360442 0.000909545 -0.00155909 -0.00373008 -0.00560341 -0.00717908 -0.00844224 -0.00937801 -0.00998639 -0.0102674 -0.0102611 -0.0100077 -0.0095071 -0.00875936 -0.00784974 -0.00686351 -0.00580068 -0.00466126 -0.00355869 -0.00260644 -0.00180451 -0.0011529 -0.000648506 -0.000288225 -7.20562e-05 0 0 -2.71933e-05 -0.000108773 -0.000244739 -0.000435092 -0.00070321 -0.00107247 -0.00154288 -0.00211443 -0.00276804 -0.00348463 -0.0042642 -0.00510675 -0.00599314 -0.00690424 -0.00784005 -0.00880057 -0.00977189 -0.0107401 -0.0117052 -0.0126672 -0.0136144 -0.014535 -0.0154291 -0.0162965 -0.0171263 -0.0179074 -0.0186398 -0.0193234 -0.0199505 -0.0205133 -0.0210118 -0.021446 -0.0218163 -0.0221231 -0.0223664 -0.0225463 -0.022674 -0.0227608 -0.0228066 -0.0228116 -0.0227939 -0.0227719 -0.0227457 -0.0227151 -0.0226951 -0.0227005 -0.0227313 -0.0227874 -0.0228675 -0.0229701 -0.0230952 -0.0232429 -0.0233863 -0.0234989 -0.0235806 -0.0236314 -0.0235996 -0.0234338 -0.0231338 -0.0226996 -0.0220695 -0.0211814 -0.0200354 -0.0186315 -0.0169284 -0.0148847 -0.0125004 -0.00977556 -0.00672588 -0.0033672 0.000300495 0.00427719 0.00847235 0.0127954 0.0172464 0.0218252 0.0263893 0.030796 0.0350453 0.0391373 0.042933 0.0462936 0.0492191 0.0517095 0.0536862 0.0550703 0.0558619 0.056061 0.0556776 0.0547217 0.0531933 0.0510925 0.0485126 0.0455471 0.042196 0.0384592 0.0344801 0.030402 0.0262248 0.0219486 0.0177158 0.0136686 0.0098072 0.0061315 0.00273507 -0.000288537 -0.00293932 -0.00521728 -0.00710149 -0.00857103 -0.00962591 -0.0102661 -0.01054 -0.0104958 -0.0101337 -0.00945358 -0.0085581 -0.00754989 -0.00642898 -0.00519534 -0.00398487 -0.00293343 -0.00204104 -0.00130768 -0.00073557 -0.00032692 -8.17299e-05 0 0 -3.33881e-05 -0.000133552 -0.000300493 -0.00053421 -0.000859076 -0.00129946 -0.00185537 -0.0025268 -0.00328687 -0.00410867 -0.00499222 -0.00593751 -0.00691985 -0.00791452 -0.00892153 -0.00994088 -0.0109557 -0.0119492 -0.0129214 -0.0138722 -0.0147899 -0.0156627 -0.0164907 -0.0172738 -0.0180042 -0.0186739 -0.0192829 -0.0198312 -0.020317 -0.0207383 -0.0210952 -0.0213876 -0.0216231 -0.0218092 -0.021946 -0.0220333 -0.0220883 -0.0221281 -0.0221528 -0.0221622 -0.0221766 -0.0222161 -0.0222807 -0.0223703 -0.0224959 -0.0226682 -0.0228873 -0.0231531 -0.0234542 -0.0237793 -0.0241283 -0.0245013 -0.0248571 -0.0251544 -0.0253934 -0.0255741 -0.025628 -0.025487 -0.0251509 -0.0246198 -0.0238165 -0.0226638 -0.0211616 -0.0193099 -0.01706 -0.0143631 -0.0112191 -0.00762799 -0.0036144 0.000797138 0.00560663 0.0108141 0.0163002 0.0219458 0.0277508 0.0337152 0.0396551 0.0453865 0.0509094 0.0562238 0.0611526 0.0655186 0.0693219 0.0725625 0.0751404 0.0769555 0.0780079 0.0782976 0.0778361 0.076635 0.0746943 0.0720139 0.0687105 0.0649004 0.0605837 0.0557603 0.0506111 0.0453171 0.0398782 0.0342944 0.0287474 0.0234191 0.0183094 0.0134183 0.00886661 0.00477524 0.00114415 -0.00202665 -0.00470829 -0.00687188 -0.00851742 -0.00964491 -0.0103119 -0.0105759 -0.0104369 -0.00989492 -0.0090723 -0.00809139 -0.00695217 -0.00565465 -0.0043594 -0.00322698 -0.0022574 -0.00145066 -0.000815994 -0.000362664 -9.0666e-05 0 0 -4.01099e-05 -0.00016044 -0.000360989 -0.000641758 -0.00102747 -0.00154284 -0.00218786 -0.00296255 -0.00383056 -0.00475555 -0.00573751 -0.00677646 -0.00784098 -0.00889965 -0.00995247 -0.0109994 -0.0120203 -0.0129949 -0.0139232 -0.0148052 -0.0156296 -0.0163854 -0.0170725 -0.0176909 -0.0182376 -0.0187097 -0.0191072 -0.0194301 -0.019685 -0.0198786 -0.020011 -0.0200822 -0.0201095 -0.0201103 -0.0200846 -0.0200323 -0.0199782 -0.0199468 -0.0199381 -0.0199522 -0.0200108 -0.0201358 -0.0203271 -0.0205848 -0.0209134 -0.0213175 -0.0217972 -0.0223525 -0.0229583 -0.0235898 -0.0242468 -0.0249296 -0.0255783 -0.0261336 -0.0265954 -0.0269636 -0.0271498 -0.0270656 -0.0267108 -0.0260856 -0.0250949 -0.0236436 -0.0217318 -0.0193595 -0.0164697 -0.0130055 -0.00896697 -0.004354 0.000797677 0.00645237 0.0126101 0.0192708 0.0262808 0.0334864 0.0408875 0.0484842 0.0560438 0.0633335 0.0703535 0.0771037 0.0833627 0.088909 0.0937426 0.0978637 0.101148 0.103471 0.104832 0.105233 0.104685 0.103202 0.100785 0.0974324 0.0932874 0.0884924 0.0830473 0.0769522 0.0704311 0.0637079 0.0567826 0.0496553 0.0425536 0.0357055 0.0291109 0.0227698 0.0168355 0.0114612 0.006647 0.0023928 -0.00126262 -0.00428053 -0.00666092 -0.0084038 -0.00957686 -0.0102478 -0.0104166 -0.0100834 -0.00939236 -0.00848799 -0.00737026 -0.00603918 -0.00468227 -0.00348708 -0.0024536 -0.00158183 -0.000889778 -0.000395457 -9.88643e-05 0 0 -4.73585e-05 -0.000189434 -0.000426227 -0.000757737 -0.00120838 -0.00180259 -0.00254035 -0.00342167 -0.00439911 -0.00542525 -0.00650008 -0.0076236 -0.00875654 -0.00985963 -0.0109329 -0.0119763 -0.0129657 -0.0138772 -0.0147107 -0.0154663 -0.0161338 -0.0167032 -0.0171745 -0.0175478 -0.0178267 -0.018015 -0.0181127 -0.0181199 -0.0180544 -0.0179342 -0.0177593 -0.0175297 -0.0172754 -0.0170263 -0.0167823 -0.0165434 -0.0163437 -0.0162167 -0.0161627 -0.0161816 -0.0162966 -0.0165311 -0.0168851 -0.0173584 -0.0179475 -0.0186483 -0.019461 -0.0203855 -0.0213797 -0.0224014 -0.0234508 -0.0245277 -0.0255502 -0.0264364 -0.0271863 -0.0277999 -0.028165 -0.0281696 -0.0278136 -0.027097 -0.0259045 -0.0241209 -0.0217462 -0.0187803 -0.0151575 -0.0108121 -0.00574414 4.641e-05 0.00651036 0.0135985 0.0213108 0.0296474 0.0384142 0.0474172 0.0566565 0.0661321 0.0755552 0.0846371 0.0933776 0.101777 0.109563 0.116465 0.122481 0.127613 0.131708 0.134616 0.136335 0.136866 0.136224 0.134424 0.131465 0.127348 0.122243 0.116323 0.109587 0.102035 0.09394 0.0855744 0.0769381 0.0680313 0.0591344 0.050528 0.0422119 0.0341862 0.0266418 0.0197695 0.0135692 0.00804108 0.0032355 -0.000796995 -0.00405642 -0.00654277 -0.00833489 -0.00951162 -0.010073 -0.0100189 -0.00951826 -0.0087397 -0.00768326 -0.00634893 -0.0049535 -0.00371373 -0.00262963 -0.0017012 -0.000956924 -0.000425299 -0.000106325 0 0 -5.49135e-05 -0.000219654 -0.000494222 -0.000878616 -0.00139603 -0.00206965 -0.00289947 -0.0038855 -0.00496734 -0.00608458 -0.00723722 -0.00842526 -0.00960009 -0.0107131 -0.0117643 -0.0127537 -0.0136527 -0.0144329 -0.0150941 -0.0156366 -0.016052 -0.0163323 -0.0164775 -0.0164877 -0.0163757 -0.0161547 -0.0158247 -0.0153857 -0.0148706 -0.0143124 -0.0137112 -0.0130669 -0.0124258 -0.0118343 -0.0112922 -0.0107996 -0.0104019 -0.0101444 -0.0100272 -0.0100502 -0.010238 -0.0106152 -0.0111817 -0.0119375 -0.0128675 -0.0139564 -0.0152044 -0.0166113 -0.0181132 -0.0196459 -0.0212094 -0.0228038 -0.0243196 -0.0256474 -0.0267872 -0.0277389 -0.0283627 -0.0285186 -0.0282066 -0.0274267 -0.0260407 -0.0239105 -0.021036 -0.0174172 -0.0129794 -0.00764795 -0.00142273 0.00569622 0.0136429 0.0223512 0.0318213 0.042053 0.0528055 0.0638376 0.0751494 0.0867409 0.0982598 0.109354 0.120023 0.130268 0.139761 0.148175 0.155511 0.161768 0.166767 0.170326 0.172446 0.173127 0.172385 0.170237 0.166682 0.161722 0.155556 0.148387 0.140215 0.13104 0.121186 0.11098 0.10042 0.0895082 0.0785827 0.0679836 0.0577108 0.0477644 0.0383788 0.0297882 0.0219928 0.0149926 0.00885235 0.00363713 -0.000653098 -0.00401834 -0.00654933 -0.00833681 -0.00938078 -0.00968124 -0.00943373 -0.00883382 -0.00788149 -0.00657676 -0.00516797 -0.00390349 -0.00278331 -0.00180744 -0.00101668 -0.000451859 -0.000112965 0 0 -6.25543e-05 -0.000250217 -0.000562988 -0.00100087 -0.0015846 -0.00233493 -0.00325186 -0.00433539 -0.00551004 -0.00670032 -0.00790624 -0.00912779 -0.0103052 -0.0113787 -0.0123484 -0.0132141 -0.0139421 -0.0144986 -0.0148836 -0.0150971 -0.0151339 -0.014989 -0.0146623 -0.0141538 -0.0134892 -0.0126942 -0.0117686 -0.0107125 -0.00957886 -0.00842063 -0.00723779 -0.00603036 -0.00486577 -0.00381145 -0.00286741 -0.00203364 -0.00136994 -0.000936089 -0.000732092 -0.000757947 -0.00103916 -0.00160125 -0.00244422 -0.00356805 -0.00494256 -0.00653755 -0.00835303 -0.010389 -0.0125534 -0.0147544 -0.016992 -0.019266 -0.0214334 -0.023351 -0.0250188 -0.0264367 -0.0274321 -0.0278324 -0.0276375 -0.0268475 -0.0252986 -0.0228269 -0.0194324 -0.0151152 -0.00979173 -0.00337828 0.0041251 0.0127184 0.0223145 0.0328263 0.0442538 0.0565969 0.0695598 0.0828467 0.0964575 0.110392 0.124228 0.137541 0.150332 0.1626 0.173961 0.184029 0.192804 0.200286 0.206267 0.210537 0.213095 0.213943 0.213098 0.210578 0.206384 0.200515 0.193203 0.184679 0.174944 0.163996 0.152217 0.139987 0.127305 0.114171 0.100991 0.0881696 0.0757063 0.0636014 0.0521397 0.0416058 0.0319998 0.0233216 0.0156542 0.00908025 0.00359985 -0.000787022 -0.00418354 -0.00669286 -0.00831498 -0.0090499 -0.0091225 -0.00875763 -0.00795529 -0.0067155 -0.00532058 -0.0040529 -0.00291245 -0.00189922 -0.00106831 -0.000474805 -0.000118701 0 0 -7.02808e-05 -0.000281123 -0.000632527 -0.00112449 -0.00177411 -0.00259845 -0.00359753 -0.00477135 -0.00602722 -0.00727249 -0.00850715 -0.0097312 -0.0108719 -0.0118565 -0.0126851 -0.0133575 -0.013834 -0.0140745 -0.0140792 -0.0138479 -0.0133795 -0.0126732 -0.0117287 -0.0105462 -0.00916722 -0.00763323 -0.00594428 -0.00410036 -0.00217929 -0.000258903 0.0016608 0.00357983 0.00540476 0.00704216 0.00849204 0.0097544 0.0107521 0.0114082 0.0117226 0.0116952 0.0113 0.0105107 0.00932732 0.00774987 0.00582723 0.00360828 0.00109303 -0.00171854 -0.00470057 -0.00772722 -0.0107985 -0.0139144 -0.0168918 -0.0195473 -0.0218811 -0.0238931 -0.0253731 -0.0261108 -0.0261063 -0.0253594 -0.0236781 -0.0208701 -0.0169356 -0.0118744 -0.00559435 0.0019969 0.0108994 0.021113 0.0325253 0.0450237 0.0586083 0.073279 0.0886773 0.104445 0.120581 0.137086 0.153459 0.169198 0.184303 0.198774 0.212164 0.224026 0.234361 0.243168 0.25021 0.255248 0.258283 0.259315 0.258363 0.255448 0.25057 0.243729 0.235185 0.2252 0.213773 0.200906 0.187034 0.172596 0.157592 0.142021 0.12636 0.111086 0.0961984 0.0816972 0.0679245 0.0552221 0.04359 0.0330283 0.023641 0.0155324 0.00870244 0.00315118 -0.00123751 -0.00457977 -0.00687557 -0.00812493 -0.00858455 -0.00851113 -0.00790466 -0.00676515 -0.00541134 -0.00416197 -0.00301704 -0.00197655 -0.00111181 -0.000494137 -0.000123534 0 0 -7.80931e-05 -0.000312372 -0.000702838 -0.00124949 -0.00196454 -0.0028602 -0.00393647 -0.00519336 -0.00651888 -0.00780108 -0.00903994 -0.0102355 -0.0113002 -0.0121465 -0.0127744 -0.013184 -0.0133283 -0.0131606 -0.0126808 -0.0118889 -0.0107889 -0.00938497 -0.00767697 -0.00566493 -0.00340965 -0.000971948 0.00164819 0.00445077 0.00732817 0.0101728 0.0129846 0.0157637 0.0183858 0.0207266 0.0227862 0.0245645 0.0259644 0.0268884 0.0273367 0.0273093 0.0267794 0.0257207 0.0241329 0.0220163 0.0194419 0.0164811 0.0131338 0.00940004 0.0054455 0.00143582 -0.00262899 -0.00674893 -0.0106945 -0.0142363 -0.0173742 -0.0201083 -0.0221858 -0.023354 -0.0236128 -0.0229623 -0.0211793 -0.0180403 -0.0135454 -0.00769472 -0.000387305 0.00847761 0.0189 0.0308799 0.0442751 0.0589434 0.0748848 0.0920993 0.110158 0.128631 0.14752 0.166823 0.185954 0.204326 0.221937 0.238789 0.25437 0.268167 0.280181 0.290412 0.298594 0.304459 0.308009 0.309242 0.308181 0.304847 0.299241 0.291362 0.281501 0.269949 0.256704 0.241767 0.225636 0.208807 0.191281 0.173057 0.15469 0.136733 0.119187 0.102052 0.0857334 0.0706373 0.0567637 0.0441125 0.0328128 0.0229935 0.0146547 0.00779627 0.00228874 -0.00199754 -0.00506256 -0.00690633 -0.0078199 -0.00809432 -0.0077296 -0.00672573 -0.00544025 -0.0042307 -0.00309709 -0.00203942 -0.00114717 -0.000509855 -0.000127464 0 0 -8.57428e-05 -0.000342971 -0.000771685 -0.00137188 -0.00214944 -0.0031102 -0.00425419 -0.00558139 -0.00695824 -0.00825118 -0.00946019 -0.0105853 -0.011522 -0.0121659 -0.012517 -0.0125753 -0.0122861 -0.0115946 -0.0105008 -0.00900478 -0.00711705 -0.0048482 -0.00219823 0.0008328