<?xml version="1.0"?> 
<VTKFile type="StructuredGrid" version="0.1"> 
<StructuredGrid WholeExtent="0 128 0 128 0 0"> 
<Piece Extent="0 128 0 128 0 0"> 
<PointData>
<DataArray type="Float32" Name="u" format="ascii" NumberOfComponents="1"> 
0 0 0 0 0 0 0 0 0 0 0 0 0 0 0 0 0 0 0 0 0 0 0 0 0 0 0 0 0 0 0 0 0 0 0 0 0 0 0 0 0 0 0 0 0 0 0 0 0 0 0 0 0 0 0 0 0 0 0 0 0 0 0 0 0 0 0 0 0 0 0 0 0 0 0 0 0 0 0 0 0 0 0 0 0 0 0 0 0 0 0 0 0 0 0 0 0 0 0 0 0 0 0 0 0 0 0 0 0 0 0 0 0 0 0 0 0 0 0 0 0 0 0 0 0 0 0 0 0 0 -6.63916e-08 -2.65566e-07 -5.97525e-07 -1.06227e-06 -1.86865e-06 -3.22553e-06 -5.13292e-06 -7.5908e-06 -1.05906e-05 -1.41236e-05 -1.81899e-05 -2.27894e-05 -2.78358e-05 -3.32428e-05 -3.90103e-05 -4.51384e-05 -5.15464e-05 -5.81538e-05 -6.49605e-05 -7.19666e-05 -7.9075e-05 -8.61887e-05 -9.33076e-05 -0.000100432 -0.000107442 -0.000114219 -0.000120763 -0.000127074 -0.000133038 -0.000138539 -0.00014358 -0.000148158 -0.000152207 -0.00015566 -0.000158516 -0.000160776 -0.000162451 -0.00016355 -0.000164075 -0.000164024 -0.00016349 -0.000162563 -0.000161244 -0.000159532 -0.000157569 -0.000155494 -0.000153309 -0.000151014 -0.000148742 -0.000146629 -0.000144674 -0.000142878 -0.000141304 -0.000140013 -0.000139006 -0.000138283 -0.000137785 -0.000137452 -0.000137285 -0.000137282 -0.000137265 -0.000137054 -0.000136649 -0.00013605 -0.000135037 -0.000133392 -0.000131114 -0.000128204 -0.000124546 -0.000120025 -0.000114642 -0.000108395 -0.0001014 -9.37718e-05 -8.55105e-05 -7.6616e-05 -6.74393e-05 -5.83315e-05 -4.92926e-05 -4.03226e-05 -3.18548e-05 -2.43227e-05 -1.77262e-05 -1.20654e-05 -7.61997e-06 -4.66971e-06 -3.21462e-06 -3.25469e-06 -4.74898e-06 -7.65655e-06 -1.19774e-05 -1.77115e-05 -2.45088e-05 -3.20191e-05 -4.02425e-05 -4.91789e-05 -5.83449e-05 -6.7257e-05 -7.59152e-05 -8.43196e-05 -9.20733e-05 -9.87797e-05 -0.000104439 -0.00010905 -0.000112442 -0.00011444 -0.000115045 -0.000114257 -0.000112141 -0.000108764 -0.000104126 -9.82263e-05 -9.13304e-05 -8.37033e-05 -7.53448e-05 -6.62549e-05 -5.69058e-05 -4.77693e-05 -3.88454e-05 -3.01342e-05 -2.2201e-05 -1.56113e-05 -1.0365e-05 -6.46217e-06 -3.63497e-06 -1.61554e-06 -4.03886e-07 0 0 -2.65566e-07 -1.06227e-06 -2.3901e-06 -4.24906e-06 -7.4746e-06 -1.29021e-05 -2.05317e-05 -3.03632e-05 -4.23622e-05 -5.64943e-05 -7.27594e-05 -9.11575e-05 -0.000111343 -0.000132971 -0.000156041 -0.000180553 -0.000206186 -0.000232615 -0.000259842 -0.000287866 -0.0003163 -0.000344755 -0.00037323 -0.000401727 -0.000429769 -0.000456877 -0.000483053 -0.000508297 -0.000532151 -0.000554158 -0.000574318 -0.000592631 -0.000608829 -0.00062264 -0.000634066 -0.000643106 -0.000649803 -0.000654201 -0.000656299 -0.000656097 -0.000653961 -0.000650254 -0.000644977 -0.000638129 -0.000630275 -0.000621978 -0.000613237 -0.000604054 -0.000594967 -0.000586514 -0.000578696 -0.000571513 -0.000565214 -0.000560052 -0.000556025 -0.000553134 -0.000551141 -0.000549809 -0.000549139 -0.000549129 -0.000549062 -0.000548217 -0.000546597 -0.000544199 -0.000540149 -0.000533568 -0.000524457 -0.000512817 -0.000498185 -0.000480102 -0.000458566 -0.000433579 -0.0004056 -0.000375087 -0.000342042 -0.000306464 -0.000269757 -0.000233326 -0.00019717 -0.00016129 -0.000127419 -9.72908e-05 -7.09049e-05 -4.82616e-05 -3.04799e-05 -1.86789e-05 -1.28585e-05 -1.30188e-05 -1.89959e-05 -3.06262e-05 -4.79096e-05 -7.08461e-05 -9.80352e-05 -0.000128076 -0.00016097 -0.000196716 -0.000233379 -0.000269028 -0.000303661 -0.000337278 -0.000368293 -0.000395119 -0.000417755 -0.000436202 -0.000449767 -0.00045776 -0.00046018 -0.000457026 -0.000448564 -0.000435056 -0.000416503 -0.000392905 -0.000365322 -0.000334813 -0.000301379 -0.00026502 -0.000227623 -0.000191077 -0.000155382 -0.000120537 -8.88039e-05 -6.2445e-05 -4.14599e-05 -2.58487e-05 -1.45399e-05 -6.46217e-06 -1.61554e-06 0 0 -5.97525e-07 -2.3901e-06 -5.37772e-06 -9.56039e-06 -1.68178e-05 -2.90298e-05 -4.61962e-05 -6.83172e-05 -9.5315e-05 -0.000127112 -0.000163709 -0.000205104 -0.000250522 -0.000299185 -0.000351093 -0.000406245 -0.000463917 -0.000523384 -0.000584644 -0.000647699 -0.000711675 -0.000775698 -0.000839769 -0.000903887 -0.00096698 -0.00102797 -0.00108687 -0.00114367 -0.00119734 -0.00124686 -0.00129222 -0.00133342 -0.00136986 -0.00140094 -0.00142665 -0.00144699 -0.00146206 -0.00147195 -0.00147667 -0.00147622 -0.00147141 -0.00146307 -0.0014512 -0.00143579 -0.00141812 -0.00139945 -0.00137978 -0.00135912 -0.00133868 -0.00131966 -0.00130207 -0.0012859 -0.00127173 -0.00126012 -0.00125106 -0.00124455 -0.00124007 -0.00123707 -0.00123556 -0.00123554 -0.00123539 -0.00123349 -0.00122984 -0.00122445 -0.00121533 -0.00120053 -0.00118003 -0.00115384 -0.00112092 -0.00108023 -0.00103177 -0.000975553 -0.000912599 -0.000843947 -0.000769595 -0.000689544 -0.000606954 -0.000524984 -0.000443633 -0.000362903 -0.000286693 -0.000218904 -0.000159536 -0.000108589 -6.85797e-05 -4.20274e-05 -2.89316e-05 -2.92922e-05 -4.27408e-05 -6.8909e-05 -0.000107797 -0.000159404 -0.000220579 -0.000288172 -0.000362182 -0.00044261 -0.000525104 -0.000605313 -0.000683237 -0.000758876 -0.00082866 -0.000889018 -0.000939949 -0.000981454 -0.00101198 -0.00102996 -0.0010354 -0.00102831 -0.00100927 -0.000978876 -0.000937132 -0.000884037 -0.000821974 -0.000753329 -0.000678103 -0.000596295 -0.000512152 -0.000429923 -0.000349609 -0.000271207 -0.000199809 -0.000140501 -9.32849e-05 -5.81595e-05 -3.27147e-05 -1.45399e-05 -3.63497e-06 0 0 -1.06227e-06 -4.24906e-06 -9.56039e-06 -1.69963e-05 -2.98984e-05 -5.16085e-05 -8.21266e-05 -0.000121453 -0.000169449 -0.000225977 -0.000291038 -0.00036463 -0.000445373 -0.000531885 -0.000624165 -0.000722214 -0.000824742 -0.00093046 -0.00103937 -0.00115147 -0.0012652 -0.00137902 -0.00149292 -0.00160691 -0.00171907 -0.00182751 -0.00193221 -0.00203319 -0.0021286 -0.00221663 -0.00229727 -0.00237053 -0.00243531 -0.00249056 -0.00253626 -0.00257242 -0.00259921 -0.0026168 -0.0026252 -0.00262439 -0.00261584 -0.00260102 -0.00257991 -0.00255252 -0.0025211 -0.00248791 -0.00245295 -0.00241622 -0.00237987 -0.00234606 -0.00231478 -0.00228605 -0.00226086 -0.00224021 -0.0022241 -0.00221253 -0.00220456 -0.00219924 -0.00219655 -0.00219652 -0.00219625 -0.00219287 -0.00218639 -0.0021768 -0.00216059 -0.00213427 -0.00209783 -0.00205127 -0.00199274 -0.00192041 -0.00183427 -0.00173432 -0.0016224 -0.00150035 -0.00136817 -0.00122586 -0.00107903 -0.000933304 -0.000788682 -0.000645161 -0.000509677 -0.000389163 -0.00028362 -0.000193046 -0.00012192 -7.47154e-05 -5.14339e-05 -5.20751e-05 -7.59837e-05 -0.000122505 -0.000191638 -0.000283384 -0.000392141 -0.000512306 -0.00064388 -0.000786862 -0.000933518 -0.00107611 -0.00121464 -0.00134911 -0.00147317 -0.00158048 -0.00167102 -0.00174481 -0.00179907 -0.00183104 -0.00184072 -0.00182811 -0.00179426 -0.00174022 -0.00166601 -0.00157162 -0.00146129 -0.00133925 -0.00120552 -0.00106008 -0.000910493 -0.000764308 -0.000621526 -0.000482147 -0.000355216 -0.00024978 -0.00016584 -0.000103395 -5.81595e-05 -2.58487e-05 -6.46217e-06 0 0 -1.8895e-06 -7.558e-06 -1.70055e-05 -3.0232e-05 -5.23653e-05 -8.8533e-05 -0.000138735 -0.000202972 -0.000280833 -0.000371907 -0.000476194 -0.000593694 -0.000722166 -0.00085937 -0.00100531 -0.00115997 -0.0013213 -0.00148719 -0.00165766 -0.00183271 -0.0020099 -0.00218679 -0.0023634 -0.00253971 -0.00271282 -0.00287983 -0.00304074 -0.00319555 -0.00334155 -0.00347603 -0.003599 -0.00371045 -0.00380888 -0.00389276 -0.00396211 -0.00401693 -0.00405759 -0.00408449 -0.00409764 -0.00409702 -0.00408492 -0.00406362 -0.00403311 -0.00399341 -0.00394789 -0.00389993 -0.00384955 -0.00379673 -0.0037446 -0.00369627 -0.00365175 -0.00361104 -0.00357539 -0.00354607 -0.00352307 -0.00350639 -0.00349422 -0.00348477 -0.00347803 -0.00347401 -0.00346792 -0.00345501 -0.00343528 -0.00340872 -0.00336972 -0.00331269 -0.00323761 -0.0031445 -0.00303064 -0.00289331 -0.00273253 -0.00254828 -0.00234401 -0.00212316 -0.00188571 -0.00163169 -0.00137073 -0.00111251 -0.000857012 -0.000604251 -0.000365969 -0.000153914 3.19126e-05 0.000191512 0.000317315 0.000401751 0.00044482 0.000446523 0.000407893 0.000329964 0.000212736 5.62087e-05 -0.000130277 -0.00033738 -0.000565102 -0.000813441 -0.0010694 -0.00131999 -0.00156519 -0.00180503 -0.0020287 -0.00222542 -0.00239519 -0.00253802 -0.00264903 -0.00272336 -0.00276102 -0.002762 -0.00272782 -0.00266003 -0.0025586 -0.00242355 -0.00226169 -0.00207984 -0.00187798 -0.00165613 -0.00142635 -0.0012007 -0.000979173 -0.000761781 -0.000563022 -0.0003974 -0.000264914 -0.000165564 -9.31296e-05 -4.13909e-05 -1.03477e-05 0 0 -3.30893e-06 -1.32357e-05 -2.97804e-05 -5.2943e-05 -8.98675e-05 -0.000147698 -0.000226435 -0.000326078 -0.000445536 -0.000583718 -0.000740624 -0.000916254 -0.00110717 -0.00130994 -0.00152457 -0.00175104 -0.00198622 -0.00222693 -0.00247319 -0.00272498 -0.0029788 -0.0032311 -0.0034819 -0.00373119 -0.00397499 -0.0042093 -0.00443412 -0.00464945 -0.00485179 -0.00503761 -0.00520692 -0.00535971 -0.00549425 -0.00560882 -0.00570341 -0.00577802 -0.00583351 -0.00587076 -0.00588976 -0.00589051 -0.0058763 -0.0058504 -0.00581283 -0.00576357 -0.00570715 -0.00564808 -0.00558638 -0.00552204 -0.00545891 -0.00540086 -0.00534787 -0.00529996 -0.00525815 -0.00522345 -0.00519587 -0.0051754 -0.00515863 -0.00514214 -0.00512591 -0.00510997 -0.00508671 -0.00504858 -0.00499557 -0.00492768 -0.00483651 -0.00471366 -0.00455913 -0.00437293 -0.00415158 -0.00389162 -0.00359305 -0.00325586 -0.00288645 -0.00249123 -0.00207018 -0.00162332 -0.0011668 -0.000716803 -0.000273322 0.000163642 0.000574832 0.000940995 0.00126213 0.00153823 0.00175694 0.00190586 0.00198502 0.00199439 0.00193551 0.00180988 0.0016175 0.00135837 0.00104746 0.000699702 0.000315112 -0.000106314 -0.000543531 -0.000975494 -0.0014022 -0.00182366 -0.0022221 -0.00257978 -0.00289669 -0.00317284 -0.00339983 -0.00356928 -0.00368119 -0.00373557 -0.00373428 -0.00367921 -0.00357036 -0.00340773 -0.00320162 -0.00296233 -0.00268986 -0.00238421 -0.00206342 -0.00174555 -0.00143059 -0.00111854 -0.000831227 -0.00059048 -0.000396296 -0.000248676 -0.00013988 -6.2169e-05 -1.55423e-05 0 0 -5.32057e-06 -2.12823e-05 -4.78851e-05 -8.51291e-05 -0.000142405 -0.000229104 -0.000345225 -0.000490769 -0.000663557 -0.00086141 -0.00108433 -0.00133231 -0.00160039 -0.0018836 -0.00218195 -0.00249542 -0.0028195 -0.00314968 -0.00348594 -0.00382828 -0.0041719 -0.00451195 -0.00484844 -0.00518137 -0.00550558 -0.0058159 -0.00611234 -0.0063949 -0.00665932 -0.00690136 -0.00712102 -0.00731829 -0.00749144 -0.00763872 -0.00776014 -0.00785569 -0.00792698 -0.00797561 -0.00800157 -0.00800488 -0.00798999 -0.00796138 -0.00791904 -0.00786299 -0.00779888 -0.00773237 -0.00766346 -0.00759215 -0.00752281 -0.00745981 -0.00740315 -0.00735281 -0.00730911 -0.00727234 -0.0072425 -0.00721958 -0.00719779 -0.00717133 -0.0071402 -0.00710439 -0.00705261 -0.00697357 -0.00686726 -0.00673368 -0.00656095 -0.00633719 -0.00606239 -0.00573656 -0.00535558 -0.00491534 -0.00441583 -0.00385705 -0.00324972 -0.00260457 -0.00192158 -0.00120075 -0.000467247 0.000253801 0.000962389 0.00165852 0.00231273 0.00289556 0.00340703 0.00384712 0.00419695 0.00443763 0.00456915 0.00459153 0.00450686 0.00431723 0.00402265 0.00362311 0.00314106 0.00259894 0.00199676 0.00133452 0.00064409 -4.26393e-05 -0.000725671 -0.00140501 -0.00205339 -0.00264356 -0.00317552 -0.00364927 -0.00405148 -0.00436881 -0.00460125 -0.00474881 -0.00481361 -0.00479777 -0.00470128 -0.00452415 -0.00428107 -0.00398674 -0.00364115 -0.00324431 -0.00282172 -0.00239887 -0.00197577 -0.00155242 -0.00115983 -0.000829019 -0.000559987 -0.000352732 -0.000198412 -8.81829e-05 -2.20457e-05 0 0 -7.92441e-06 -3.16976e-05 -7.13197e-05 -0.000126791 -0.000209978 -0.00033275 -0.000495106 -0.000697047 -0.000934897 -0.00120498 -0.00150731 -0.00184186 -0.00220182 -0.00258035 -0.00297744 -0.0033931 -0.00382116 -0.00425543 -0.00469591 -0.00514261 -0.00558919 -0.00602933 -0.006463 -0.00689023 -0.00730458 -0.00769964 -0.00807541 -0.00843188 -0.00876414 -0.00906728 -0.0093413 -0.0095862 -0.00980044 -0.00998248 -0.0101323 -0.01025 -0.010338 -0.010399 -0.0104331 -0.0104401 -0.010426 -0.0103965 -0.0103518 -0.0102917 -0.0102231 -0.0101528 -0.0100808 -0.0100071 -0.00993631 -0.00987314 -0.00981757 -0.0097696 -0.0097283 -0.00969276 -0.00966297 -0.00963893 -0.00961171 -0.00957236 -0.00952088 -0.00945728 -0.00936562 -0.00922997 -0.00905034 -0.00882672 -0.00854305 -0.00818327 -0.00774739 -0.00723539 -0.00664263 -0.00596446 -0.00520086 -0.00435185 -0.00343382 -0.00246317 -0.00143989 -0.000363994 0.000727937 0.00179931 0.00285012 0.00388037 0.00484771 0.00570979 0.00646661 0.00711817 0.00763735 0.00799703 0.00819724 0.00823795 0.00812195 0.00785203 0.00742818 0.00685041 0.00615052 0.00536034 0.00447985 0.00350905 0.00249346 0.00147858 0.000464403 -0.000549068 -0.00152255 -0.00241675 -0.00323167 -0.00396732 -0.00460398 -0.00512193 -0.00552119 -0.00580174 -0.00596583 -0.0060157 -0.00595137 -0.00577282 -0.00550005 -0.00515306 -0.00473186 -0.00423644 -0.00370123 -0.00316065 -0.00261472 -0.00206342 -0.00154883 -0.00111302 -0.000755985 -0.000477731 -0.000268723 -0.000119433 -2.98582e-05 0 0 -1.11333e-05 -4.45333e-05 -0.0001002 -0.000178133 -0.00029269 -0.000458226 -0.000674743 -0.00094224 -0.00125486 -0.00160674 -0.00199789 -0.00242829 -0.00288881 -0.00337027 -0.00387267 -0.00439602 -0.00493219 -0.00547307 -0.00601865 -0.00656894 -0.00711604 -0.00765206 -0.008177 -0.00869086 -0.00918625 -0.00965577 -0.0100994 -0.0105172 -0.0109041 -0.0112552 -0.0115704 -0.0118499 -0.0120928 -0.0122987 -0.0124676 -0.0125993 -0.0126981 -0.0127681 -0.0128093 -0.0128216 -0.0128124 -0.0127889 -0.012751 -0.0126989 -0.01264 -0.0125816 -0.0125238 -0.0124667 -0.0124141 -0.0123702 -0.0123349 -0.0123082 -0.0122868 -0.0122673 -0.0122499 -0.0122344 -0.0122076 -0.0121561 -0.0120799 -0.011979 -0.0118317 -0.0116162 -0.0113325 -0.0109806 -0.0105397 -0.00998869 -0.0093277 -0.00855672 -0.00767103 -0.00666595 -0.00554149 -0.00429765 -0.00295866 -0.0015488 -6.80545e-05 0.00148357 0.00305451 0.00459317 0.00609958 0.00757371 0.00895667 0.0101895 0.0112723 0.0122049 0.0129498 0.0134694 0.0137636 0.0138325 0.0136796 0.0133083 0.0127187 0.0119108 0.0109281 0.00981408 0.00856882 0.00719228 0.00574723 0.00429644 0.00283991 0.00137764 -3.55908e-05 -0.00134498 -0.00255053 -0.00365224 -0.0046219 -0.00543129 -0.00608041 -0.00656927 -0.00689981 -0.00707399 -0.0070918 -0.00695325 -0.00668451 -0.00631176 -0.00583501 -0.00525424 -0.00461432 -0.0039601 -0.00329158 -0.00260875 -0.00196663 -0.0014202 -0.000969457 -0.000614408 -0.000345604 -0.000153602 -3.84005e-05 0 0 -1.49602e-05 -5.98407e-05 -0.000134642 -0.000239363 -0.000390643 -0.000605123 -0.000882801 -0.00122368 -0.00161874 -0.00205898 -0.00254439 -0.00307498 -0.00363868 -0.00422343 -0.00482923 -0.00545608 -0.00609362 -0.0067315 -0.0073697 -0.00800824 -0.00863778 -0.00924897 -0.00984183 -0.0104164 -0.0109648 -0.0114795 -0.0119604 -0.0124076 -0.012817 -0.0131849 -0.0135111 -0.0137957 -0.0140402 -0.0142461 -0.0144135 -0.0145423 -0.014639 -0.01471 -0.0147553 -0.0147748 -0.0147773 -0.0147714 -0.0147569 -0.014734 -0.0147097 -0.014691 -0.0146781 -0.0146709 -0.0146711 -0.0146804 -0.0146989 -0.0147264 -0.0147556 -0.0147787 -0.0147959 -0.0148071 -0.0147928 -0.0147336 -0.0146293 -0.01448 -0.0142568 -0.0139306 -0.0135014 -0.0129692 -0.0123076 -0.0114902 -0.0105169 -0.00938784 -0.00809907 -0.00664681 -0.00503106 -0.00325181 -0.00134416 0.000656777 0.00275102 0.00493855 0.00714822 0.00930886 0.0114205 0.013483 0.0154164 0.0171406 0.0186554 0.0199609 0.0210062 0.0217401 0.0221628 0.0222741 0.0220784 0.02158 0.0207787 0.0196747 0.0183259 0.0167904 0.0150681 0.0131592 0.011148 0.00911923 0.00707275 0.00500859 0.00300148 0.00112613 -0.000617459 -0.00222928 -0.00366981 -0.00489949 -0.00591834 -0.00672635 -0.00732446 -0.0077136 -0.00789378 -0.00786499 -0.00766044 -0.00731331 -0.00682362 -0.00619136 -0.00547334 -0.00472638 -0.00395048 -0.00314563 -0.00238163 -0.00172828 -0.00118557 -0.000753497 -0.000423842 -0.000188374 -4.70936e-05 0 0 -1.9405e-05 -7.76199e-05 -0.000174645 -0.00031048 -0.000503839 -0.000773439 -0.00111928 -0.00154136 -0.00202655 -0.0025617 -0.00314683 -0.00378193 -0.00445145 -0.00513986 -0.00584714 -0.0065733 -0.00730545 -0.0080307 -0.00874906 -0.00946051 -0.0101544 -0.0108201 -0.0114575 -0.0120667 -0.0126403 -0.0131709 -0.0136585 -0.0141031 -0.014503 -0.0148563 -0.0151632 -0.0154237 -0.0156425 -0.0158247 -0.0159701 -0.0160789 -0.0161605 -0.0162246 -0.016271 -0.0162998 -0.0163208 -0.016344 -0.0163693 -0.0163968 -0.0164322 -0.0164811 -0.0165436 -0.0166197 -0.0167072 -0.0168038 -0.0169095 -0.0170243 -0.0171347 -0.0172269 -0.017301 -0.0173569 -0.0173673 -0.0173046 -0.017169 -0.0169603 -0.016641 -0.0161732 -0.0155571 -0.0147925 -0.013847 -0.0126878 -0.0113151 -0.00972875 -0.00792675 -0.00590702 -0.00366955 -0.00121434 0.00140968 0.00415356 0.00701732 0.0100009 0.0130091 0.0159464 0.0188128 0.0216083 0.0242271 0.0265629 0.028616 0.0303862 0.0318063 0.0328091 0.0333946 0.0335628 0.0333186 0.0326671 0.0316083 0.0301421 0.028344 0.0262892 0.0239778 0.0214098 0.0186959 0.0159469 0.0131629 0.0103438 0.00758866 0.00499657 0.00256753 0.000301542 -0.00174772 -0.00352655 -0.00503497 -0.00627297 -0.00723975 -0.00793452 -0.00835728 -0.00850803 -0.00842782 -0.00815771 -0.0076977 -0.0070478 -0.0062783 -0.00545951 -0.00459142 -0.00367405 -0.00279384 -0.00203726 -0.00140431 -0.000895 -0.000503437 -0.00022375 -5.59375e-05 0 0 -2.44677e-05 -9.78708e-05 -0.000220209 -0.000391483 -0.000632277 -0.000963176 -0.00138418 -0.00189529 -0.00247827 -0.00311491 -0.0038052 -0.00454913 -0.00532712 -0.00611953 -0.00692638 -0.00774767 -0.00856767 -0.00937069 -0.0101567 -0.0109258 -0.0116659 -0.0123653 -0.013024 -0.0136419 -0.0142127 -0.0147299 -0.0151936 -0.0156037 -0.0159619 -0.0162696 -0.0165269 -0.0167338 -0.0168998 -0.0170343 -0.0171374 -0.0172091 -0.0172628 -0.0173119 -0.0173564 -0.0173964 -0.0174428 -0.0175068 -0.0175884 -0.0176875 -0.0178076 -0.0179519 -0.0181204 -0.0183131 -0.0185223 -0.0187402 -0.0189667 -0.0192019 -0.0194241 -0.0196119 -0.0197651 -0.0198839 -0.019931 -0.0198694 -0.019699 -0.0194198 -0.0189841 -0.018344 -0.0174995 -0.0164505 -0.0151576 -0.0135815 -0.0117221 -0.00957946 -0.00715408 -0.00444659 -0.00145697 0.00181476 0.00530286 0.00894155 0.0127309 0.0166708 0.0206371 0.0245057 0.0282765 0.0319496 0.0353885 0.0384566 0.0411541 0.0434807 0.0453503 0.0466765 0.0474592 0.0476985 0.0474001 0.0465697 0.0452074 0.0433131 0.0409823 0.0383105 0.0352978 0.031944 0.0283908 0.0247796 0.0211104 0.0173832 0.013726 0.0102664 0.00700445 0.00394024 0.00114438 -0.00131247 -0.00343031 -0.00520914 -0.00664571 -0.00773677 -0.00848232 -0.00888236 -0.00898665 -0.00884495 -0.00845725 -0.00782356 -0.00702919 -0.00615948 -0.00521442 -0.004194 -0.00320325 -0.00234714 -0.0016257 -0.00103891 -0.00058439 -0.000259729 -6.49322e-05 0 0 -3.00183e-05 -0.000120073 -0.000270165 -0.000480293 -0.000772512 -0.00116888 -0.00166939 -0.00227404 -0.00295835 -0.00369782 -0.00449244 -0.00534223 -0.00622269 -0.00710936 -0.00800223 -0.0089013 -0.00978765 -0.0106423 -0.0114654 -0.0122567 -0.0130036 -0.0136932 -0.0143254 -0.0149003 -0.0154137 -0.0158612 -0.0162429 -0.0165588 -0.0168157 -0.0170202 -0.0171725 -0.0172724 -0.0173361 -0.0173798 -0.0174033 -0.0174068 -0.0174087 -0.0174277 -0.0174637 -0.0175167 -0.0175988 -0.0177221 -0.0178866 -0.0180923 -0.0183384 -0.0186243 -0.0189499 -0.0193153 -0.0197045 -0.0201014 -0.0205063 -0.0209189 -0.0213071 -0.0216387 -0.0219136 -0.0221319 -0.0222443 -0.0222018 -0.0220042 -0.0216516 -0.0210842 -0.0202425 -0.0191262 -0.0177355 -0.0160235 -0.0139433 -0.0114949 -0.00867821 -0.005498 -0.00195886 0.00193919 0.00619616 0.0107255 0.0154407 0.0203417 0.0254285 0.0305425 0.0355253 0.0403766 0.0450966 0.0495131 0.0534539 0.0569189 0.0599083 0.0623136 0.0640263 0.0650466 0.0653743 0.0650161 0.0639781 0.0622606 0.0598634 0.056905 0.0535038 0.0496597 0.0453728 0.0408202 0.036179 0.0314491 0.0266306 0.0218854 0.0173752 0.0131002 0.00906026 0.00534673 0.00205093 -0.000827143 -0.00328749 -0.00532327 -0.00692763 -0.00810058 -0.0088421 -0.00921156 -0.00926828 -0.00901226 -0.00844351 -0.00766415 -0.00677631 -0.00577999 -0.00467518 -0.00358736 -0.00264198 -0.00183904 -0.00117854 -0.000662931 -0.000294636 -7.3659e-05 0 0 -3.59267e-05 -0.000143707 -0.00032334 -0.000574827 -0.000921098 -0.00138509 -0.00196679 -0.00266621 -0.00345121 -0.00428965 -0.00518153 -0.00612685 -0.00709522 -0.00805625 -0.00900996 -0.00995632 -0.0108727 -0.0117365 -0.0125476 -0.0133061 -0.0139987 -0.0146119 -0.0151458 -0.0156003 -0.0159751 -0.0162696 -0.0164839 -0.0166179 -0.0166864 -0.0167038 -0.0166702 -0.0165856 -0.0164756 -0.0163656 -0.0162556 -0.0161457 -0.0160612 -0.0160275 -0.0160447 -0.0161127 -0.0162443 -0.0164522 -0.0167366 -0.0170974 -0.0175275 -0.0180196 -0.0185739 -0.0191904 -0.0198413 -0.0204991 -0.0211637 -0.0218351 -0.0224669 -0.0230124 -0.0234718 -0.0238449 -0.0240677 -0.0240759 -0.0238694 -0.0234484 -0.0227391 -0.021668 -0.020235 -0.0184401 -0.0162284 -0.0135451 -0.01039 -0.00676325 -0.00267543 0.0018628 0.00685145 0.0122905 0.0180677 0.0240708 0.0302998 0.0367546 0.0432358 0.0495435 0.0556779 0.061639 0.0672131 0.0721868 0.07656 0.0803327 0.0833715 0.0855429 0.0868469 0.0872835 0.0868597 0.0855827 0.0834524 0.0804689 0.0767762 0.0725183 0.0676953 0.0623071 0.0565717 0.050707 0.044713 0.0385897 0.032539 0.026763 0.0212617 0.016035 0.0111996 0.00687181 0.00305172 -0.000260683 -0.0030534 -0.00531441 -0.00704374 -0.00824136 -0.00897714 -0.00932093 -0.00927273 -0.00883253 -0.0081213 -0.00726001 -0.00624867 -0.00508726 -0.00392367 -0.0029058 -0.00203364 -0.00130719 -0.000735294 -0.000326797 -8.16993e-05 0 0 -4.21928e-05 -0.000168771 -0.000379735 -0.000675085 -0.00107804 -0.00161181 -0.00227639 -0.0030718 -0.00395686 -0.00489041 -0.00587246 -0.00690299 -0.00794468 -0.0089602 -0.00994955 -0.0109127 -0.0118229 -0.0126531 -0.0134035 -0.014074 -0.0146512 -0.0151215 -0.0154851 -0.0157419 -0.0158969 -0.0159551 -0.0159164 -0.015781 -0.0155739 -0.0153203 -0.0150202 -0.0146736 -0.0143182 -0.0139918 -0.0136943 -0.0134258 -0.0132202 -0.0131114 -0.0130995 -0.0131843 -0.0133792 -0.0136972 -0.0141385 -0.0147029 -0.0153746 -0.0161378 -0.0169924 -0.0179383 -0.0189329 -0.0199331 -0.020939 -0.0219505 -0.0229033 -0.023733 -0.0244396 -0.025023 -0.0254011 -0.0254916 -0.0252947 -0.0248103 -0.0239489 -0.0226207 -0.0208258 -0.0185642 -0.0157724 -0.0123868 -0.00840756 -0.00383457 0.0013136 0.00701839 0.0132798 0.0200978 0.0273295 0.034832 0.0426052 0.0506492 0.0587168 0.0665605 0.0741805 0.0815768 0.0884886 0.0946554 0.100077 0.104754 0.108524 0.111226 0.11286 0.113426 0.112931 0.111383 0.108783 0.10513 0.100596 0.0953541 0.0894044 0.0827469 0.0756453 0.0683637 0.060902 0.0532603 0.0456868 0.0384297 0.0314889 0.0248646 0.0187029 0.0131502 0.00820628 0.00387129 0.000163915 -0.00289711 -0.0053118 -0.00708013 -0.00828341 -0.00900291 -0.00923865 -0.00899061 -0.00840064 -0.00761059 -0.00662045 -0.00543023 -0.00421219 -0.00313862 -0.0022095 -0.00142485 -0.000801478 -0.000356212 -8.90531e-05 0 0 -4.88167e-05 -0.000195267 -0.00043935 -0.000781067 -0.00124333 -0.00184903 -0.00259819 -0.0034908 -0.0044753 -0.0055001 -0.00656522 -0.00767066 -0.00877109 -0.00982122 -0.010821 -0.0117705 -0.0126381 -0.0133923 -0.014033 -0.0145603 -0.014961 -0.0152221 -0.0153434 -0.015325 -0.0151791 -0.0149176 -0.0145406 -0.014048 -0.0134783 -0.0128698 -0.0122224 -0.0115362 -0.010864 -0.0102584 -0.00971946 -0.0092472 -0.00888578 -0.00867939 -0.00862801 -0.00873166 -0.0090036 -0.00945709 -0.0100921 -0.0109088 -0.01188 -0.0129788 -0.0142052 -0.0155592 -0.0169792 -0.0184035 -0.0198322 -0.0212651 -0.0226165 -0.0238005 -0.0248169 -0.025666 -0.0262444 -0.0264491 -0.0262801 -0.0257374 -0.0247134 -0.0231004 -0.0208985 -0.0181077 -0.0146553 -0.0104686 -0.00554754 0.00010783 0.00646912 0.0135079 0.0212242 0.0296181 0.0385109 0.0477242 0.057258 0.0671123 0.0769855 0.0865762 0.0958843 0.10491 0.11334 0.12086 0.127471 0.133172 0.137772 0.141076 0.143086 0.143802 0.14323 0.14138 0.138252 0.133845 0.128364 0.122011 0.114787 0.106692 0.0980409 0.089149 0.0800162 0.0706426 0.0613287 0.0523752 0.0437819 0.0355489 0.0278568 0.020886 0.0146365 0.00910843 0.00432866 0.000324268 -0.00290476 -0.00535841 -0.00713035 -0.00831422 -0.00891002 -0.00891775 -0.00850217 -0.00782804 -0.00689535 -0.0057041 -0.00445292 -0.00334043 -0.00236663 -0.00153152 -0.000861483 -0.000382881 -9.57203e-05 0 0 -5.56036e-05 -0.000222414 -0.000500433 -0.000889658 -0.00141184 -0.00208872 -0.00292031 -0.0039066 -0.00498405 -0.0060891 -0.00722177 -0.00838204 -0.00951529 -0.0105669 -0.0115369 -0.0124252 -0.013195 -0.0138092 -0.0142679 -0.014571 -0.0147065 -0.014662 -0.0144376 -0.0140333 -0.0134707 -0.0127711 -0.0119347 -0.0109614 -0.00990643 -0.00882507 -0.00771731 -0.00658315 -0.00549411 -0.00452172 -0.00366597 -0.00292686 -0.00236105 -0.00202522 -0.00191935 -0.00204345 -0.00241048 -0.00303338 -0.00391217 -0.00504683 -0.00639624 -0.00791925 -0.00961587 -0.0114861 -0.0134449 -0.0154071 -0.0173729 -0.0193422 -0.021203 -0.0228433 -0.0242631 -0.0254624 -0.0263135 -0.0266889 -0.0265885 -0.0260123 -0.0248326 -0.0229218 -0.0202798 -0.0169066 -0.0127202 -0.00763861 -0.00166181 0.0052102 0.0129363 0.0214754 0.0308276 0.0409927 0.0517509 0.062882 0.0743862 0.0862633 0.098151 0.109687 0.120871 0.131704 0.141814 0.150831 0.158756 0.165587 0.171101 0.175071 0.177498 0.178381 0.177729 0.175551 0.171847 0.166616 0.160096 0.152521 0.143891 0.134208 0.12384 0.113158 0.102162 0.0908522 0.0795869 0.0687249 0.0582663 0.0482112 0.0387796 0.0301916 0.0224473 0.0155467 0.00952733 0.00442693 0.000245486 -0.00301701 -0.00546723 -0.00721185 -0.00825085 -0.00858426 -0.0084018 -0.00789323 -0.00705856 -0.00589777 -0.00463784 -0.00350574 -0.00250148 -0.00162504 -0.000914086 -0.00040626 -0.000101565 0 0 -6.2359e-05 -0.000249436 -0.000561231 -0.000997743 -0.00157845 -0.00232282 -0.00323087 -0.00430258 -0.00546066 -0.00662781 -0.00780403 -0.00898931 -0.0101181 -0.0111249 -0.0120096 -0.0127724 -0.0133699 -0.013759 -0.0139397 -0.013912 -0.0136655 -0.0131897 -0.0124846 -0.0115503 -0.0104207 -0.00912965 -0.00767726 -0.00606349 -0.00436518 -0.00265916 -0.000945431 0.000776007 0.00241011 0.00386184 0.0051312 0.00621817 0.00705085 0.00755731 0.00773753 0.00759154 0.00710717 0.0062723 0.00508692 0.00355102 0.00172372 -0.000335897 -0.00262782 -0.00515205 -0.00779441 -0.0104407 -0.0130909 -0.0157451 -0.0182594 -0.0204901 -0.0224372 -0.0241007 -0.0253242 -0.0259516 -0.0259828 -0.0254178 -0.0241066 -0.0218993 -0.018796 -0.0147965 -0.0098099 -0.00374515 0.00339775 0.0116188 0.0208604 0.031065 0.0422326 0.0543632 0.0671885 0.08044 0.0941178 0.108222 0.122322 0.135989 0.149223 0.162023 0.17396 0.184601 0.193948 0.202 0.208499 0.213188 0.216066 0.217134 0.2164 0.213874 0.209555 0.203443 0.195807 0.186914 0.176765 0.165359 0.153124 0.140487 0.127447 0.114005 0.100583 0.0876041 0.0750679 0.0629745 0.0515896 0.0411793 0.0317434 0.0232819 0.0158464 0.00948808 0.00420705 3.27841e-06 -0.0032433 -0.00565278 -0.00722515 -0.0079604 -0.00807542 -0.00778704 -0.00709528 -0.00600013 -0.00475894 -0.00362906 -0.00261049 -0.00170322 -0.000958063 -0.000425806 -0.000106451 0 0 -6.90827e-05 -0.000276331 -0.000621744 -0.00110532 -0.00174316 -0.00255134 -0.00352986 -0.00467873 -0.00590513 -0.00711622 -0.00831201 -0.00949249 -0.0105796 -0.0114952 -0.0122393 -0.0128119 -0.0131628 -0.0132416 -0.0130485 -0.0125833 -0.0118381 -0.0108052 -0.00948451 -0.00787599 -0.00602908 -0.00399316 -0.00176825 0.000645669 0.00314545 0.00562798 0.00809325 0.0105413 0.0128487 0.0148923 0.016672 0.0181879 0.0193499 0.0200682 0.0203426 0.0201733 0.0195494 0.01846 0.0169051 0.0148848 0.0124799 0.00977129 0.00675895 0.00344288 -2.78616e-05 -0.00350421 -0.00698616 -0.0104737 -0.0137857 -0.0167408 -0.0193392 -0.0215807 -0.0232764 -0.0242371 -0.0244629 -0.0239537 -0.0225353 -0.0200331 -0.0164471 -0.0117775 -0.00592442 0.00121178 0.00963113 0.0193336 0.0302414 0.0422766 0.0554394 0.0697295 0.0848236 0.100398 0.116453 0.132988 0.149499 0.165483 0.18094 0.195869 0.209777 0.222169 0.233047 0.24241 0.249967 0.255428 0.258793 0.260061 0.259243 0.256348 0.251375 0.244325 0.235497 0.225191 0.213408 0.200146 0.185893 0.171134 0.15587 0.140101 0.124318 0.109013 0.0941866 0.0798388 0.066287 0.053849 0.0425247 0.0323143 0.0232858 0.0155077 0.00897992 0.00370246 -0.000458566 -0.00363702 -0.00583289 -0.0070462 -0.00752303 -0.00750947 -0.00700552 -0.00601119 -0.00481622 -0.00371038 -0.00269366 -0.00176607 -0.000993414 -0.000441517 -0.000110379 0 0 -7.57748e-05 -0.000303099 -0.000681973 -0.0012124 -0.00190596 -0.00277426 -0.0038173 -0.00503507 -0.00631745 -0.00755433 -0.0087457 -0.00989157 -0.0108997 -0.0116778 -0.0122259 -0.0125439 -0.0125738 -0.0122572 -0.0115942 -0.0105848 -0.00922443 -0.00750857 -0.00543721 -0.00301036 -0.000295889 0.00263834 0.00579234 0.00916609 0.0126255 0.0160363 0.0193987 0.0227126 0.0258217 0.0285696 0.0309565 0.0329823 0.0345362 0.0355074 0.035896 0.0357019 0.0349161 0.0335296 0.0315424 0.0289545 0.0258723 0.0224023 0.0185444 0.0142987 0.00985479 0.00540234 0.000941372 -0.00352812 -0.00778183 -0.0115955 -0.0149691 -0.0179026 -0.0201701 -0.0215456 -0.0220289 -0.0216203 -0.0201186 -0.0173229 -0.0132332 -0.00784955 -0.00106377 0.00723219 0.0170383 0.0283547 0.0410793 0.0551103 0.0704478 0.0870916 0.104656 0.122756 0.141391 0.160561 0.179682 0.198169 0.216022 0.233241 0.249265 0.263536 0.276054 0.286817 0.295504 0.30179 0.305676 0.307162 0.306258 0.302973 0.297308 0.289262 0.279166 0.267352 0.25382 0.238569 0.222147 0.205101 0.187432 0.16914 0.15079 0.132951 0.115622 0.0988041 0.0828717 0.0682008 0.0547914 0.0426436 0.0318457 0.0224858 0.0145641 0.00808052 0.00288698 -0.00116456 -0.0040741 -0.00584164 -0.00674463 -0.00706051 -0.00678928 -0.00593094 -0.00480969 -0.00374971 -0.00275101 -0.00181358 -0.00102014 -0.000453395 -0.000113349 0 0 -8.22137e-05 -0.000328855 -0.000739924 -0.00131542 -0.00206108 -0.00298263 -0.00408008 -0.00535343 -0.00667331 -0.00791038 -0.00906463 -0.0101361 -0.0110164 -0.0115973 -0.0118788 -0.0118609 -0.0114764 -0.0106584 -0.00940682 -0.00772163 -0.00560286 -0.00305049 -6.45274e-