<?xml version="1.0"?> 
<VTKFile type="StructuredGrid" version="0.1"> 
<StructuredGrid WholeExtent="0 128 0 128 0 0"> 
<Piece Extent="0 128 0 128 0 0"> 
<PointData>
<DataArray type="Float32" Name="u" format="ascii" NumberOfComponents="1"> 
0 0 0 0 0 0 0 0 0 0 0 0 0 0 0 0 0 0 0 0 0 0 0 0 0 0 0 0 0 0 0 0 0 0 0 0 0 0 0 0 0 0 0 0 0 0 0 0 0 0 0 0 0 0 0 0 0 0 0 0 0 0 0 0 0 0 0 0 0 0 0 0 0 0 0 0 0 0 0 0 0 0 0 0 0 0 0 0 0 0 0 0 0 0 0 0 0 0 0 0 0 0 0 0 0 0 0 0 0 0 0 0 0 0 0 0 0 0 0 0 0 0 0 0 0 0 0 0 0 0 -6.28212e-08 -2.51285e-07 -5.65391e-07 -1.00514e-06 -1.78005e-06 -3.09966e-06 -4.96395e-06 -7.37293e-06 -1.03245e-05 -1.38164e-05 -1.78488e-05 -2.24216e-05 -2.74534e-05 -3.28628e-05 -3.86497e-05 -4.48141e-05 -5.12787e-05 -5.7966e-05 -6.48761e-05 -7.20089e-05 -7.92671e-05 -8.65531e-05 -9.38671e-05 -0.000101209 -0.000108454 -0.000115477 -0.000122277 -0.000128856 -0.000135088 -0.000140849 -0.000146138 -0.000150957 -0.000155227 -0.000158871 -0.000161888 -0.000164279 -0.00016605 -0.000167207 -0.00016775 -0.000167678 -0.000167088 -0.000166073 -0.000164633 -0.000162769 -0.000160632 -0.000158371 -0.000155988 -0.000153481 -0.000150997 -0.00014868 -0.000146531 -0.000144548 -0.000142802 -0.000141361 -0.000140225 -0.000139395 -0.000138813 -0.000138422 -0.000138222 -0.000138214 -0.00013822 -0.000138061 -0.000137737 -0.000137249 -0.000136382 -0.00013492 -0.000132862 -0.00013021 -0.000126852 -0.000122674 -0.000117678 -0.000111864 -0.000105342 -9.82225e-05 -9.05057e-05 -8.21917e-05 -7.36144e-05 -6.51077e-05 -5.66716e-05 -4.8306e-05 -4.04189e-05 -3.34178e-05 -2.73027e-05 -2.20738e-05 -1.79903e-05 -1.53119e-05 -1.40383e-05 -1.41697e-05 -1.56634e-05 -1.84767e-05 -2.26097e-05 -2.80623e-05 -3.45026e-05 -4.15986e-05 -4.93502e-05 -5.77575e-05 -6.63628e-05 -7.47085e-05 -8.27947e-05 -9.06213e-05 -9.78098e-05 -0.000103982 -0.000109138 -0.000113277 -0.000116231 -0.00011783 -0.000118074 -0.000116965 -0.00011456 -0.000110919 -0.000106043 -9.99316e-05 -9.28419e-05 -8.50316e-05 -7.65006e-05 -6.7249e-05 -5.77475e-05 -4.8467e-05 -3.94074e-05 -3.05688e-05 -2.25219e-05 -1.58376e-05 -1.05157e-05 -6.55628e-06 -3.68791e-06 -1.63907e-06 -4.09768e-07 0 0 -2.51285e-07 -1.00514e-06 -2.26156e-06 -4.02055e-06 -7.12021e-06 -1.23986e-05 -1.98558e-05 -2.94917e-05 -4.12979e-05 -5.52657e-05 -7.13953e-05 -8.96865e-05 -0.000109814 -0.000131451 -0.000154599 -0.000179256 -0.000205115 -0.000231864 -0.000259504 -0.000288036 -0.000317068 -0.000346213 -0.000375468 -0.000404836 -0.000433815 -0.000461906 -0.000489109 -0.000515423 -0.000540351 -0.000563395 -0.000584554 -0.000603829 -0.000620909 -0.000635484 -0.000647553 -0.000657118 -0.000664202 -0.000668829 -0.000671 -0.000670714 -0.000668351 -0.00066429 -0.000658532 -0.000651077 -0.000642526 -0.000633484 -0.000623951 -0.000613925 -0.000603989 -0.000594721 -0.000586122 -0.000578192 -0.000571207 -0.000565443 -0.0005609 -0.000557578 -0.00055525 -0.000553687 -0.000552889 -0.000552857 -0.000552879 -0.000552243 -0.000550949 -0.000548998 -0.000545528 -0.000539679 -0.00053145 -0.000520841 -0.000507406 -0.000490697 -0.000470714 -0.000447457 -0.000421368 -0.00039289 -0.000362023 -0.000328767 -0.000294458 -0.000260431 -0.000226686 -0.000193224 -0.000161675 -0.000133671 -0.000109211 -8.82952e-05 -7.19614e-05 -6.12474e-05 -5.61532e-05 -5.66788e-05 -6.26535e-05 -7.39069e-05 -9.04388e-05 -0.000112249 -0.00013801 -0.000166394 -0.000197401 -0.00023103 -0.000265451 -0.000298834 -0.000331179 -0.000362485 -0.000391239 -0.000415928 -0.00043655 -0.000453107 -0.000464922 -0.000471319 -0.000472298 -0.000467858 -0.000458238 -0.000443677 -0.000424172 -0.000399726 -0.000371368 -0.000340126 -0.000306002 -0.000268996 -0.00023099 -0.000193868 -0.00015763 -0.000122275 -9.00878e-05 -6.33502e-05 -4.20627e-05 -2.62251e-05 -1.47516e-05 -6.55628e-06 -1.63907e-06 0 0 -5.65391e-07 -2.26156e-06 -5.08851e-06 -9.04625e-06 -1.60205e-05 -2.78969e-05 -4.46755e-05 -6.63564e-05 -9.29202e-05 -0.000124348 -0.000160639 -0.000201795 -0.000247081 -0.000295765 -0.000347847 -0.000403327 -0.000461508 -0.000521694 -0.000583885 -0.00064808 -0.000713404 -0.000778978 -0.000844804 -0.000910881 -0.000976084 -0.00103929 -0.00110049 -0.0011597 -0.00121579 -0.00126764 -0.00131525 -0.00135861 -0.00139704 -0.00142984 -0.001457 -0.00147852 -0.00149445 -0.00150486 -0.00150975 -0.00150911 -0.00150379 -0.00149465 -0.0014817 -0.00146492 -0.00144568 -0.00142534 -0.00140389 -0.00138133 -0.00135897 -0.00133812 -0.00131877 -0.00130093 -0.00128522 -0.00127225 -0.00126202 -0.00125455 -0.00124931 -0.0012458 -0.001244 -0.00124393 -0.00124398 -0.00124255 -0.00123964 -0.00123524 -0.00122744 -0.00121428 -0.00119576 -0.00117189 -0.00114166 -0.00110407 -0.00105911 -0.00100678 -0.000948078 -0.000884002 -0.000814552 -0.000739726 -0.00066253 -0.000585969 -0.000510044 -0.000434754 -0.00036377 -0.00030076 -0.000245725 -0.000198664 -0.000161913 -0.000137807 -0.000126345 -0.000127527 -0.00014097 -0.00016629 -0.000203487 -0.000252561 -0.000310523 -0.000374387 -0.000444152 -0.000519817 -0.000597265 -0.000672377 -0.000745152 -0.000815591 -0.000880288 -0.000935837 -0.000982238 -0.00101949 -0.00104608 -0.00106047 -0.00106267 -0.00105268 -0.00103104 -0.000998272 -0.000954388 -0.000899384 -0.000835577 -0.000765284 -0.000688506 -0.000605241 -0.000519728 -0.000436203 -0.000354667 -0.000275119 -0.000202697 -0.000142538 -9.4641e-05 -5.90065e-05 -3.31912e-05 -1.47516e-05 -3.68791e-06 0 0 -1.00514e-06 -4.02055e-06 -9.04625e-06 -1.60822e-05 -2.84808e-05 -4.95945e-05 -7.94232e-05 -0.000117967 -0.000165191 -0.000221063 -0.000285581 -0.000358746 -0.000439255 -0.000525804 -0.000618395 -0.000717026 -0.000820459 -0.000927457 -0.00103802 -0.00115214 -0.00126827 -0.00138485 -0.00150187 -0.00161934 -0.00173526 -0.00184762 -0.00195644 -0.00206169 -0.0021614 -0.00225358 -0.00233822 -0.00241532 -0.00248364 -0.00254193 -0.00259021 -0.00262847 -0.00265681 -0.00267532 -0.002684 -0.00268286 -0.0026734 -0.00265716 -0.00263413 -0.00260431 -0.0025701 -0.00253394 -0.0024958 -0.0024557 -0.00241596 -0.00237888 -0.00234449 -0.00231277 -0.00228483 -0.00226177 -0.0022436 -0.00223031 -0.002221 -0.00221475 -0.00221156 -0.00221143 -0.00221151 -0.00220897 -0.0022038 -0.00219599 -0.00218211 -0.00215871 -0.0021258 -0.00208337 -0.00202963 -0.00196279 -0.00188286 -0.00178983 -0.00168547 -0.00157156 -0.00144809 -0.00131507 -0.00117783 -0.00104172 -0.000906745 -0.000772897 -0.000646702 -0.000534684 -0.000436844 -0.000353181 -0.000287846 -0.00024499 -0.000224613 -0.000226715 -0.000250614 -0.000295627 -0.000361755 -0.000448997 -0.000552042 -0.000665577 -0.000789603 -0.000924119 -0.0010618 -0.00119534 -0.00132471 -0.00144994 -0.00156496 -0.00166371 -0.0017462 -0.00181243 -0.00185969 -0.00188528 -0.00188919 -0.00187143 -0.00183295 -0.00177471 -0.00169669 -0.0015989 -0.00148547 -0.00136051 -0.00122401 -0.00107598 -0.00092396 -0.000775472 -0.000630519 -0.000489101 -0.000360351 -0.000253401 -0.000168251 -0.000104901 -5.90065e-05 -2.62251e-05 -6.55628e-06 0 0 -1.80235e-06 -7.20941e-06 -1.62212e-05 -2.88377e-05 -5.02054e-05 -8.54708e-05 -0.000134634 -0.000197695 -0.000274403 -0.000364506 -0.000468006 -0.000584901 -0.000713073 -0.000850405 -0.000996897 -0.00115255 -0.00131536 -0.00148334 -0.00165648 -0.00183478 -0.00201581 -0.00219711 -0.00237869 -0.00256055 -0.00273963 -0.00291289 -0.00308032 -0.00324193 -0.00339475 -0.00353581 -0.00366512 -0.00378267 -0.00388669 -0.00397542 -0.00404885 -0.00410698 -0.00415008 -0.00417843 -0.00419203 -0.00419086 -0.00417731 -0.00415376 -0.00412019 -0.00407662 -0.00402667 -0.00397397 -0.00391854 -0.00386036 -0.00380283 -0.00374931 -0.00369981 -0.00365432 -0.00361428 -0.00358108 -0.00355474 -0.00353526 -0.00352088 -0.00350985 -0.00350218 -0.00349786 -0.00349217 -0.00348039 -0.00346251 -0.00343853 -0.00340295 -0.00335026 -0.00328045 -0.00319354 -0.00308689 -0.00295789 -0.00280654 -0.00263284 -0.00244012 -0.00223173 -0.00200767 -0.00176793 -0.00152175 -0.00127837 -0.00103779 -0.000800012 -0.000576136 -0.000377272 -0.000203421 -5.45818e-05 6.2186e-05 0.000139825 0.000178334 0.000177715 0.000139045 6.34045e-05 -4.92075e-05 -0.000198791 -0.000376457 -0.000573318 -0.000789375 -0.00102463 -0.00126672 -0.00150331 -0.00173439 -0.00195996 -0.00216969 -0.00235325 -0.00251064 -0.00264185 -0.00274212 -0.00280667 -0.00283551 -0.00282863 -0.0027874 -0.00271317 -0.00260594 -0.00246572 -0.00229913 -0.0021128 -0.00190672 -0.00168089 -0.00144736 -0.00121815 -0.000993264 -0.000772704 -0.000571109 -0.00040312 -0.000268735 -0.000167955 -9.44747e-05 -4.19887e-05 -1.04972e-05 0 0 -3.18886e-06 -1.27554e-05 -2.86997e-05 -5.10217e-05 -8.68981e-05 -0.000143505 -0.000220844 -0.000318913 -0.000436845 -0.000573774 -0.000729698 -0.000904618 -0.00109527 -0.0012984 -0.00151401 -0.00174209 -0.00197961 -0.00222353 -0.00247384 -0.00273056 -0.00299013 -0.00324903 -0.00350726 -0.0037648 -0.00401747 -0.00426105 -0.00449555 -0.00472096 -0.00493339 -0.00512894 -0.00530762 -0.00546942 -0.00561223 -0.00573393 -0.00583453 -0.00591403 -0.00597311 -0.00601247 -0.00603211 -0.00603203 -0.00601564 -0.00598639 -0.00594425 -0.00588924 -0.00582625 -0.00576015 -0.00569095 -0.00561865 -0.00554748 -0.00548169 -0.00542127 -0.00536622 -0.0053178 -0.00527725 -0.00524458 -0.00521978 -0.0051995 -0.0051804 -0.00516247 -0.00514572 -0.00512263 -0.00508567 -0.00503485 -0.00497016 -0.00488335 -0.00476617 -0.00461862 -0.00444069 -0.00422906 -0.00398042 -0.00369475 -0.00337205 -0.00301861 -0.0026407 -0.00223831 -0.00181145 -0.00137569 -0.000946608 -0.000524198 -0.000108462 0.000282265 0.00062965 0.000933693 0.0011944 0.00140013 0.00153926 0.00161179 0.00161772 0.00155864 0.00143613 0.00125019 0.00100083 0.00070234 0.000369035 9.11679e-07 -0.000402029 -0.00081967 -0.00123189 -0.0016387 -0.00204008 -0.00241894 -0.00275816 -0.00305774 -0.00331768 -0.00352972 -0.00368558 -0.00378528 -0.0038288 -0.00381778 -0.00375385 -0.00363702 -0.00346728 -0.00325465 -0.00300917 -0.00273083 -0.00241964 -0.00209359 -0.00177071 -0.00145098 -0.00113441 -0.000843033 -0.000598875 -0.000401937 -0.000252218 -0.000141873 -6.30545e-05 -1.57636e-05 0 0 -5.16466e-06 -2.06586e-05 -4.64819e-05 -8.26345e-05 -0.000138559 -0.000223698 -0.000338052 -0.00048162 -0.000652519 -0.000848865 -0.00107066 -0.0013179 -0.00158586 -0.0018698 -0.00216973 -0.00248565 -0.0028132 -0.00314802 -0.00349011 -0.00383947 -0.00419125 -0.00454063 -0.00488758 -0.00523212 -0.00556879 -0.00589212 -0.00620211 -0.00649877 -0.00677732 -0.00703296 -0.00726571 -0.00747557 -0.00766025 -0.00781748 -0.00794728 -0.00804962 -0.00812589 -0.00817743 -0.00820425 -0.00820635 -0.00818839 -0.00815505 -0.00810631 -0.00804219 -0.00796885 -0.00789246 -0.00781303 -0.00773055 -0.00764992 -0.00757603 -0.00750888 -0.00744847 -0.0073954 -0.00735028 -0.0073131 -0.00728387 -0.00725687 -0.0072264 -0.00719245 -0.00715502 -0.00710289 -0.00702482 -0.00692082 -0.00679088 -0.00662332 -0.00640646 -0.00614029 -0.00582482 -0.00545614 -0.00503036 -0.00454747 -0.00400747 -0.00342094 -0.00279846 -0.00214002 -0.00144563 -0.000739649 -4.64222e-05 0.000634045 0.00130175 0.0019285 0.00248608 0.0029745 0.00339375 0.00372598 0.00395331 0.00407575 0.0040933 0.00400816 0.00382254 0.00353644 0.00314985 0.00268435 0.00216148 0.00158126 0.000943673 0.000279352 -0.000381084 -0.00103764 -0.0016903 -0.0023127 -0.00287843 -0.00338751 -0.00383992 -0.00422249 -0.00452201 -0.00473849 -0.00487193 -0.0049241 -0.00489676 -0.00478991 -0.00460356 -0.00435203 -0.00404963 -0.00369636 -0.00329222 -0.00286266 -0.00243314 -0.00200366 -0.00157422 -0.00117612 -0.000840667 -0.000567856 -0.000357689 -0.0002012 -8.94223e-05 -2.23556e-05 0 0 -7.72974e-06 -3.0919e-05 -6.95677e-05 -0.000123676 -0.000205188 -0.000326049 -0.000486259 -0.000685817 -0.000921424 -0.00118978 -0.00149089 -0.00182474 -0.00218482 -0.00256459 -0.00296407 -0.00338323 -0.00381614 -0.00425682 -0.00470528 -0.00516151 -0.00561917 -0.00607188 -0.00651966 -0.0069625 -0.00739358 -0.00780609 -0.00820002 -0.00857538 -0.00892654 -0.00924788 -0.0095394 -0.00980111 -0.0100307 -0.0102261 -0.0103871 -0.0105138 -0.0106084 -0.0106733 -0.0107084 -0.0107138 -0.0106956 -0.0106597 -0.0106064 -0.0105354 -0.0104545 -0.0103709 -0.0102848 -0.0101961 -0.0101101 -0.0100323 -0.00996263 -0.00990105 -0.00984707 -0.00980016 -0.00976031 -0.00972753 -0.00969299 -0.00964785 -0.0095921 -0.00952575 -0.00943295 -0.00929784 -0.00912042 -0.00890069 -0.00862285 -0.00827112 -0.00784548 -0.00734593 -0.00676813 -0.00610772 -0.00536471 -0.00453908 -0.0036471 -0.00270501 -0.0017128 -0.000670474 0.00038638 0.00142218 0.00243693 0.00343063 0.00436257 0.00519202 0.00591899 0.00654348 0.00703973 0.00738198 0.00757022 0.00760445 0.00748762 0.00722265 0.00680954 0.00624829 0.00556957 0.00480402 0.00395166 0.00301248 0.00203034 0.00104911 6.87912e-05 -0.000910625 -0.00185097 -0.00271408 -0.00349995 -0.00420858 -0.00482043 -0.00531595 -0.00569515 -0.00595803 -0.00610635 -0.00614188 -0.00606463 -0.00587459 -0.00559126 -0.00523416 -0.00480328 -0.00429863 -0.00375456 -0.00320546 -0.00265132 -0.00209214 -0.00157038 -0.0011285 -0.000766493 -0.000484369 -0.000272457 -0.000121092 -3.0273e-05 0 0 -1.09047e-05 -4.36189e-05 -9.81425e-05 -0.000174476 -0.000287079 -0.000450415 -0.000664482 -0.000929281 -0.0012394 -0.00158945 -0.00197941 -0.00240928 -0.0028703 -0.00335368 -0.00385942 -0.00438753 -0.00493015 -0.00547944 -0.00603539 -0.00659802 -0.00715941 -0.00771162 -0.00825467 -0.00878855 -0.00930537 -0.00979722 -0.0102641 -0.010706 -0.0111171 -0.0114914 -0.011829 -0.0121299 -0.0123925 -0.0126153 -0.0127983 -0.0129416 -0.0130488 -0.0131236 -0.0131661 -0.0131762 -0.0131616 -0.0131298 -0.0130809 -0.0130148 -0.01294 -0.0128646 -0.0127887 -0.0127123 -0.0126403 -0.0125776 -0.0125241 -0.0124799 -0.0124421 -0.0124079 -0.0123773 -0.0123503 -0.0123137 -0.0122543 -0.0121719 -0.0120667 -0.011917 -0.0117011 -0.0114189 -0.0110706 -0.0106355 -0.010093 -0.00944313 -0.00868591 -0.00781705 -0.00683228 -0.00573159 -0.00451499 -0.0032066 -0.00183054 -0.00038682 0.00112457 0.00265327 0.00414893 0.00561153 0.00704109 0.00838072 0.00957354 0.0106196 0.0115188 0.0122353 0.0127331 0.0130123 0.0130729 0.0129185 0.012553 0.0119762 0.0111883 0.0102312 0.00914714 0.00793605 0.00659792 0.0051935 0.00378349 0.00236791 0.000946758 -0.000426556 -0.00169861 -0.0028694 -0.00393893 -0.00487916 -0.00566204 -0.00628757 -0.00675576 -0.00706793 -0.00722542 -0.00722821 -0.00707631 -0.00679528 -0.00641068 -0.0059225 -0.00533074 -0.0046802 -0.00401568 -0.00333716 -0.00264466 -0.00199367 -0.00143971 -0.00098276 -0.000622834 -0.000350344 -0.000155708 -3.89271e-05 0 0 -1.47102e-05 -5.88409e-05 -0.000132392 -0.000235363 -0.000384526 -0.000596652 -0.00087174 -0.00120979 -0.00160231 -0.00204079 -0.00252524 -0.00305566 -0.00362044 -0.00420796 -0.00481822 -0.00545122 -0.00609695 -0.00674537 -0.0073965 -0.00805033 -0.0086975 -0.00932865 -0.00994378 -0.0105429 -0.0111177 -0.0116598 -0.0121692 -0.0126459 -0.013085 -0.0134813 -0.0138348 -0.0141457 -0.0144142 -0.0146408 -0.0148255 -0.0149683 -0.0150751 -0.0151518 -0.0151985 -0.0152152 -0.0152109 -0.0151946 -0.0151664 -0.0151262 -0.0150822 -0.0150426 -0.0150073 -0.0149764 -0.0149526 -0.0149387 -0.0149348 -0.0149407 -0.0149496 -0.0149544 -0.0149551 -0.0149518 -0.0149249 -0.0148551 -0.0147424 -0.0145868 -0.0143592 -0.0140309 -0.0136017 -0.0130716 -0.0124147 -0.0116049 -0.0106422 -0.00952667 -0.00825495 -0.00682381 -0.00523326 -0.00348329 -0.00160894 0.000354727 0.00240772 0.00455005 0.00671192 0.00882354 0.0108849 0.012896 0.0147792 0.0164567 0.0179286 0.0191948 0.0202064 0.0209145 0.0213191 0.0214202 0.0212223 0.02073 0.0199432 0.0188619 0.0175425 0.0160413 0.0143583 0.0124935 0.010529 0.00854684 0.00654706 0.00452965 0.00256774 0.000734445 -0.000970226 -0.00254628 -0.0039543 -0.0051549 -0.00614806 -0.0069338 -0.00751225 -0.00788355 -0.00804771 -0.00800472 -0.00778703 -0.00742708 -0.00692488 -0.00628042 -0.00555047 -0.0047918 -0.0040044 -0.00318828 -0.00241388 -0.00175165 -0.00120157 -0.000763661 -0.000429559 -0.000190915 -4.77288e-05 0 0 -1.91462e-05 -7.65848e-05 -0.000172316 -0.000306339 -0.000497529 -0.00076476 -0.00110803 -0.00152734 -0.00201013 -0.00254381 -0.00312839 -0.00376388 -0.00443523 -0.00512742 -0.00584045 -0.00657432 -0.00731655 -0.00805464 -0.0087886 -0.00951843 -0.0102334 -0.010923 -0.011587 -0.0122255 -0.0128305 -0.0133937 -0.0139153 -0.0143951 -0.0148302 -0.0152175 -0.0155569 -0.0158485 -0.0160959 -0.0163026 -0.0164685 -0.0165938 -0.0166873 -0.0167579 -0.0168058 -0.0168309 -0.0168435 -0.0168542 -0.0168628 -0.0168695 -0.0168812 -0.0169048 -0.0169405 -0.0169882 -0.017047 -0.0171158 -0.0171947 -0.0172837 -0.0173697 -0.0174397 -0.0174938 -0.0175319 -0.0175266 -0.0174505 -0.0173036 -0.0170859 -0.0167596 -0.0162872 -0.0156686 -0.0149037 -0.0139605 -0.0128069 -0.0114428 -0.00986819 -0.00808181 -0.00608231 -0.0038697 -0.00144396 0.00114587 0.00385081 0.00667084 0.00960596 0.0125623 0.015446 0.0182571 0.0209955 0.023558 0.0258416 0.0278461 0.0295715 0.0309532 0.0319262 0.0324906 0.0326465 0.032399 0.0317537 0.0307104 0.0292692 0.0275035 0.0254866 0.0232185 0.0206993 0.0180369 0.0153392 0.0126062 0.00983806 0.00713191 0.00458509 0.00219758 -3.06095e-05 -0.00204585 -0.00379452 -0.00527662 -0.00649214 -0.0074393 -0.0081163 -0.00852313 -0.00865981 -0.00856649 -0.00828336 -0.00781042 -0.00714766 -0.00636537 -0.00553383 -0.00465304 -0.00372301 -0.00283101 -0.00206432 -0.00142293 -0.000906851 -0.000510104 -0.000226713 -5.66782e-05 0 0 -2.42127e-05 -9.68508e-05 -0.000217914 -0.000387403 -0.000626088 -0.00095474 -0.00137336 -0.00188194 -0.00246287 -0.00309851 -0.00378886 -0.00453393 -0.00531468 -0.00611208 -0.00692613 -0.00775682 -0.00858894 -0.00940722 -0.0102117 -0.0110023 -0.0117672 -0.0124946 -0.0131843 -0.0138365 -0.0144438 -0.0149991 -0.0155024 -0.0159536 -0.0163528 -0.0167 -0.0169953 -0.0172385 -0.0174376 -0.0176006 -0.0177274 -0.0178181 -0.0178854 -0.017942 -0.0179879 -0.0180232 -0.0180594 -0.0181085 -0.0181702 -0.0182448 -0.0183369 -0.0184514 -0.0185884 -0.0187479 -0.0189235 -0.0191088 -0.0193039 -0.0195087 -0.0197023 -0.0198639 -0.0199934 -0.0200907 -0.0201188 -0.0200403 -0.0198554 -0.019564 -0.0191182 -0.0184701 -0.0176197 -0.016567 -0.015273 -0.0136989 -0.0118448 -0.00971048 -0.00729764 -0.00460779 -0.00164092 0.00160297 0.00505785 0.0086577 0.0124025 0.0162923 0.0202044 0.0240163 0.027728 0.0313394 0.0347172 0.037728 0.040372 0.042649 0.0444756 0.0457682 0.0465269 0.0467517 0.0464487 0.0456241 0.0442779 0.0424102 0.0401141 0.0374829 0.0345166 0.0312152 0.0277171 0.0241605 0.0205454 0.016872 0.013266 0.00985332 0.00663402 0.00360807 0.000846181 -0.00158092 -0.00367325 -0.00543079 -0.00684908 -0.00792364 -0.00865447 -0.00904157 -0.00913368 -0.00897953 -0.00857913 -0.00793246 -0.00712489 -0.00624177 -0.00528308 -0.00424884 -0.00324505 -0.00237772 -0.00164683 -0.0010524 -0.000591977 -0.000263101 -6.57752e-05 0 0 -2.97813e-05 -0.000119125 -0.000268032 -0.000476501 -0.000766797 -0.00116118 -0.00165966 -0.00226223 -0.00294501 -0.00368413 -0.00447958 -0.00533136 -0.00621563 -0.00710854 -0.00801008 -0.00892025 -0.00982068 -0.010693 -0.0115371 -0.0123532 -0.0131283 -0.0138497 -0.0145173 -0.0151311 -0.0156861 -0.016177 -0.0166037 -0.0169664 -0.0172699 -0.0175194 -0.0177147 -0.0178559 -0.0179573 -0.0180331 -0.0180834 -0.0181083 -0.0181253 -0.0181524 -0.0181896 -0.0182368 -0.0183068 -0.0184126 -0.018554 -0.0187312 -0.0189451 -0.0191968 -0.0194862 -0.0198135 -0.0201641 -0.0205239 -0.0208929 -0.021271 -0.0216266 -0.0219281 -0.0221756 -0.0223691 -0.0224591 -0.0223963 -0.0221807 -0.0218123 -0.0212312 -0.0203775 -0.0192511 -0.0178521 -0.0161341 -0.014051 -0.0116027 -0.00878921 -0.00561637 -0.00209009 0.00178966 0.00602286 0.0105224 0.0152013 0.0200595 0.025097 0.0301568 0.0350818 0.039872 0.0445275 0.0488796 0.0527595 0.0561673 0.0591029 0.0614613 0.0631371 0.0641306 0.0644416 0.0640771 0.0630441 0.0613427 0.0589728 0.0560503 0.0526911 0.0488952 0.0446627 0.040167 0.0355819 0.0309072 0.0261431 0.0214493 0.0169856 0.012752 0.00874854 0.00506676 0.00179819 -0.00105718 -0.00349934 -0.00551996 -0.00711072 -0.00827161 -0.00900264 -0.00936199 -0.00940784 -0.0091402 -0.00855907 -0.00776668 -0.00686524 -0.00585475 -0.00473523 -0.00363334 -0.00267576 -0.00186251 -0.00119357 -0.000671381 -0.000298391 -7.45979e-05 0 0 -3.57237e-05 -0.000142895 -0.000321513 -0.000571579 -0.00091625 -0.00137868 -0.00195888 -0.00265684 -0.00344103 -0.00427991 -0.00517347 -0.00612172 -0.00709494 -0.00806342 -0.00902714 -0.00998612 -0.0109183 -0.0118018 -0.0126364 -0.0134222 -0.014146 -0.0147944 -0.0153674 -0.0158651 -0.0162859 -0.0166284 -0.0168926 -0.0170785 -0.0171987 -0.017266 -0.0172801 -0.0172413 -0.0171729 -0.0170984 -0.0170179 -0.0169312 -0.016863 -0.0168378 -0.0168556 -0.0169164 -0.0170338 -0.0172216 -0.0174796 -0.017808 -0.0182016 -0.0186553 -0.0191691 -0.0197429 -0.020351 -0.0209675 -0.0215924 -0.0222256 -0.0228213 -0.0233336 -0.0237625 -0.0241079 -0.0243053 -0.0242901 -0.0240622 -0.0236218 -0.0228947 -0.021807 -0.0203587 -0.0185498 -0.0163261 -0.0136332 -0.0104712 -0.00684003 -0.00275194 0.00178094 0.0067586 0.012181 0.0179351 0.0239076 0.0300986 0.036508 0.0429377 0.0491896 0.0552636 0.0611598 0.0666682 0.0715793 0.0758929 0.0796091 0.082598 0.0847297 0.0860044 0.086422 0.0859902 0.0847167 0.0826016 0.0796449 0.0759879 0.0717719 0.0669969 0.061663 0.0559842 0.0501746 0.0442342 0.0381631 0.0321612 0.0264283 0.0209644 0.0157696 0.0109608 0.0066551 0.00285236 -0.000447375 -0.00323031 -0.00548266 -0.00720444 -0.00839563 -0.00912481 -0.00946056 -0.00940287 -0.00895174 -0.00822834 -0.00735386 -0.00632828 -0.00515161 -0.00397319 -0.00294238 -0.00205918 -0.00132358 -0.000744516 -0.000330896 -8.2724e-05 0 0 -4.20398e-05 -0.000168159 -0.000378358 -0.000672637 -0.00107445 -0.00160724 -0.00227102 -0.00306578 -0.00395092 -0.00488584 -0.00587054 -0.00690501 -0.00795262 -0.00897672 -0.00997733 -0.0109544 -0.0118819 -0.0127335 -0.0135094 -0.0142094 -0.0148203 -0.0153288 -0.0157347 -0.0160382 -0.0162431 -0.0163534 -0.016369 -0.0162899 -0.0161392 -0.0159398 -0.0156916 -0.0153947 -0.0150845 -0.0147965 -0.0145306 -0.014287 -0.0140985 -0.0139982 -0.013986 -0.014062 -0.0142404 -0.0145354 -0.014947 -0.0154752 -0.0161064 -0.016827 -0.017637 -0.0185363 -0.0194841 -0.0204395 -0.0214023 -0.0223727 -0.0232866 -0.0240804 -0.0247539 -0.0253071 -0.0256573 -0.0257216 -0.0254999 -0.0249924 -0.0241087 -0.0227588 -0.0209427 -0.0186603 -0.0158488 -0.0124454 -0.00845012 -0.00386295 0.00129567 0.00700529 0.0132659 0.0200775 0.0272958 0.0347766 0.0425197 0.0505253 0.0585473 0.0663398 0.0739027 0.081236 0.0880831 0.0941874 0.0995489 0.104167 0.107886 0.110546 0.112148 0.112693 0.112188 0.110642 0.108055 0.104427 0.099927 0.0947254 0.0888218 0.0822162 0.0751685 0.0679385 0.0605264 0.0529321 0.0454017 0.0381814 0.0312713 0.0246713 0.0185284 0.0129898 0.00805535 0.0037251 1.98746e-05 -0.00303947 -0.00545294 -0.00722054 -0.00842216 -0.00913768 -0.00936711 -0.00911045 -0.0085099 -0.00770763 -0.00670366 -0.00549798 -0.00426461 -0.00317757 -0.00223685 -0.00144246 -0.000811383 -0.000360615 -9.01536e-05 0 0 -4.87297e-05 -0.000194919 -0.000438567 -0.000779674 -0.00124139 -0.00184686 -0.00259608 -0.00348905 -0.0044747 -0.00550194 -0.00657078 -0.00768122 -0.00878865 -0.00984845 -0.0108606 -0.0118252 -0.0127114 -0.0134883 -0.0141562 -0.0147148 -0.0151513 -0.0154528 -0.0156192 -0.0156505 -0.0155578 -0.0153519 -0.0150329 -0.0146007 -0.0140914 -0.0135408 -0.012949 -0.012316 -0.011692 -0.0111273 -0.0106218 -0.0101755 -0.0098317 -0.00963345 -0.00958079 -0.00967371 -0.00992669 -0.0103542 -0.0109563 -0.0117328 -0.0126595 -0.0137119 -0.0148899 -0.0161937 -0.0175635 -0.0189398 -0.0203227 -0.0217121 -0.0230225 -0.0241684 -0.0251499 -0.0259668 -0.0265152 -0.0266909 -0.0264939 -0.0259242 -0.0248733 -0.0232329 -0.0210029 -0.0181834 -0.0147023 -0.0104877 -0.00553957 0.000142039 0.00652645 0.013583 0.0213116 0.0297123 0.0386046 0.0478082 0.0573229 0.0671489 0.0769855 0.0865323 0.0957892 0.104756 0.113124 0.120584 0.127135 0.132778 0.137324 0.140586 0.142563 0.143254 0.14267 0.14082 0.137702 0.133318 0.127868 0.121551 0.11437 0.106322 0.0977199 0.0888738 0.0797838 0.0704499 0.0611708 0.052245 0.0436726 0.0354535 0.0277695 0.0208023 0.0145518 0.00901808 0.00423059 0.000218855 -0.00301713 -0.00547738 -0.00725402 -0.0084392 -0.00903294 -0.00903522 -0.00861133 -0.00792656 -0.0069809 -0.00577435 -0.0045076 -0.00338132 -0.00239552 -0.00155019 -0.000871981 -0.000387547 -9.68868e-05 0 0 -5.55958e-05 -0.000222383 -0.000500362 -0.000889533 -0.00141188 -0.00208937 -0.00292201 -0.0039098 -0.00498959 -0.0060982 -0.00723564 -0.00840191 -0.00954308 -0.0106052 -0.0115883 -0.0124924 -0.0132814 -0.0139193 -0.0144059 -0.0147414 -0.0149138 -0.0149112 -0.0147336 -0.014381 -0.0138738 -0.0132323 -0.0124565 -0.0115465 -0.0105548 -0.00953426 -0.00848474 -0.00740628 -0.00636768 -0.00543775 -0.00461648 -0.00390387 -0.00335552 -0.00302702 -0.00291838 -0.00302958 -0.00337499 -0.00396896 -0.00481149 -0.00590257 -0.0072039 -0.00867715 -0.0103223 -0.0121394 -0.0140456 -0.0159579 -0.0178763 -0.019801 -0.02162 -0.0232215 -0.0246055 -0.025772 -0.026592 -0.0269366 -0.0268056 -0.0261991 -0.0249883 -0.0230442 -0.020367 -0.0169565 -0.0127315 -0.00761076 -0.00159429 0.00531793 0.013082 0.0216541 0.0310342 0.0412223 0.0519958 0.0631321 0.0746312 0.086493 0.0983559 0.109858 0.120999 0.13178 0.141833 0.150794 0.158661 0.165434 0.170895 0.174821 0.177212 0.17807 0.177403 0.175221 0.171524 0.166313 0.159819 0.152276 0.143683 0.134041 0.123715 0.113071 0.102108 0.0908279 0.0795862 0.0687403 0.0582902 0.0482358 0.038799 0.0302015 0.0224434 0.0155245 0.00948551 0.00436691 0.000168692 -0.00310913 -0.00557163 -0.00732389 -0.00836591 -0.00869767 -0.00850969 -0.00799245 -0.00714596 -0.00597021 -0.00469459 -0.00354847 -0.00253185 -0.00164473 -0.000925162 -0.000411183 -0.000102796 0 0 -6.24409e-05 -0.000249763 -0.000561968 -0.000999054 -0.00158071 -0.00232662 -0.00323679 -0.00431121 -0.00547284 -0.00664461 -0.00782653 -0.00901861 -0.0101559 -0.0111737 -0.0120718 -0.0128502 -0.0134669 -0.0138794 -0.0140879 -0.0140923 -0.0138826 -0.0134487 -0.0127906 -0.0119084 -0.0108349 -0.00960275 -0.00821209 -0.00666288 -0.00502925 -0.0033853 -0.00173104 -6.64643e-05 0.0015163 0.00292513 0.00416001 0.00522096 0.00603714 0.00653774 0.00672274 0.00659215 0.00613222 0.00532919 0.00418306 0.00269383 0.000917503 -0.00108993 -0.00332847 -0.00579811 -0.0083869 -0.0109829 -0.013586 -0.0161964 -0.0186701 -0.0208631 -0.0227756 -0.0244076 -0.0256008 -0.0261971 -0.0261966 -0.0255992 -0.0242534 -0.0220078 -0.0188623 -0.0148169 -0.00978133 -0.00366538 0.00353098 0.0118077 0.021104 0.0313589 0.0425725 0.0547447 0.0676037 0.0808779 0.0945673 0.108672 0.122762 0.136407 0.149609 0.162365 0.174252 0.184841 0.194134 0.20213 0.208577 0.213221 0.216063 0.217103 0.216351 0.213817 0.209502 0.203405 0.195791 0.186924 0.176804 0.165432 0.15323 0.14062 0.127602 0.114177 0.100766 0.0877886 0.0752459 0.0631376 0.0517317 0.0412964 0.0318316 0.0233373 0.0158683 0.00947927 0.00417024 -5.88028e-05 -0.00332625 -0.0057505 -0.00733156 -0.00806944 -0.00818199 -0.00788711 -0.0071848 -0.00607504 -0.004818 -0.00367381 -0.0026425 -0.00172404 -0.000969775 -0.000431011 -0.000107753 0 0 -6.92648e-05 -0.000277059 -0.000623383 -0.00110824 -0.00174789 -0.00255861 -0.0035404 -0.00469327 -0.00592444 -0.00714118 -0.00834347 -0.00953132 -0.0106272 -0.0115538 -0.0123109 -0.0128985 -0.0132676 -0.0133688 -0.0132021 -0.0127675 -0.0120577 -0.0110653 -0.00979039 -0.00823285 -0.00644104 -0.00446328 -0.00229957 5.0088e-05 0.0024854 0.00490606 0.00731208 0.00970344 0.0119599 0.0139614 0.0157077 0.017199 0.0183463 0.0190608 0.0193426 0.0191915 0.018595 0.0175403 0.0160274 0.0140564 0.0117047 0.00904976 0.00609162 0.00283027 -0.000587491 -0.00401484 -0.00745178 -0.0108983 -0.0141728 -0.0170935 -0.0196604 -0.0218735 -0.0235414 -0.0244725 -0.0246669 -0.0241244 -0.0226688 -0.0201237 -0.0164889 -0.0117646 -0.00585183 0.00134846 0.00983622 0.0196114 0.0305924 0.0426974 0.0559263 0.0702793 0.0854284 0.101046 0.117131 0.133685 0.150203 0.16618 0.181617 0.196514 0.21038 0.222728 0.233556 0.242866 0.250371 0.255788 0.259116 0.260354 0.259515 0.256609 0.251635 0.244595 0.235783 0.225495 0.213733 0.200496 0.186265 0.171521 0.156266 0.140498 0.12471 0.10939 0.0945397 0.0801588 0.0665677 0.054087 0.0427166 0.0324566 0.023379 0.0155559 0.0089875 0.00367361 -0.000517854 -0.00371903 -0.00592992 -0.00715052 -0.00762825 -0.00761055 -0.00709741 -0.00608884 -0.00487782 -0.00375737 -0.00272747 -0.00178813 -0.00100582 -0.000447031 -0.000111758 0 0 -7.60676e-05 -0.00030427 -0.000684608 -0.00121708 -0.00191342 -0.00278534 -0.00383286 -0.00505597 -0.00634441 -0.0075879 -0.00878644 -0.00994005 -0.010957 -0.0117455 -0.0123057 -0.0126374 -0.0126836 -0.0123873 -0.0117485 -0.010767 -0.0094392 -0.00776113 -0.00573281 -0.00335425 -0.000692322 0.0021861 0.00528102 0.00859243 0.0119891 0.0153398 0.0186446 0.0219034 0.0249633 0.027671 0.0300266 0.0320302 0.033572 0.0345423 0.0349411 0.0347685 0.0340132 0.0326642 0.0307215 0.0281851 0.0251576 0.0217419 0.0179379 0.0137457 0.00935267 0.00494624 0.000526433 -0.00390675 -0.0081281 -0.0119124 -0.0152597 -0.0181699 -0.020414 -0.0217628 -0.0222164 -0.0217748 -0.0202344 -0.0173918 -0.0132469 -0.00779973 -0.000942969 0.00743075 0.0173214 0.0287291 0.0415472 0.0556695 0.0710958 0.0878262 0.10547 0.123635 0.142323 0.161534 0.18068 0.199177 0.217025 0.234224 0.250218 0.264452 0.276926 0.28764 0.296277 0.30252 0.306369 0.307824 0.306895 0.303595 0.297924 0.289882 0.279795 0.267991 0.25447 0.239232 0.222819 0.205775 0.188099 0.169791 0.151417 0.133544 0.116172 0.0992995 0.0833069 0.0685732 0.0550983 0.0428822 0.0320175 0.0225969 0.0146205 0.0080881 0.00285355 -0.00122947 -0.00416096 -0.00594091 -0.00684846 -0.00716277 -0.00688381 -0.00601161 -0.00487407 -0.00379912 -0.00278676 -0.00183698 -0.0010333 -0.000459244 -0.000114811 0 0 -8.26256e-05 -0.000330502 -0.00074363 -0.00132201 -0.00207145 -0.00299777 -0.00410096 -0.00538102 -0.0067082 -0.00795274 -0.00911463 -0.0101939 -0.0110826 -0.0116729 -0.0119648 -0.0119583 -0.0115874 -0.0107864 -0.0095552 -0.00789381 -0.0