<?xml version="1.0"?> 
<VTKFile type="StructuredGrid" version="0.1"> 
<StructuredGrid WholeExtent="0 128 0 128 0 0"> 
<Piece Extent="0 128 0 128 0 0"> 
<PointData>
<DataArray type="Float32" Name="u" format="ascii" NumberOfComponents="1"> 
0 0 0 0 0 0 0 0 0 0 0 0 0 0 0 0 0 0 0 0 0 0 0 0 0 0 0 0 0 0 0 0 0 0 0 0 0 0 0 0 0 0 0 0 0 0 0 0 0 0 0 0 0 0 0 0 0 0 0 0 0 0 0 0 0 0 0 0 0 0 0 0 0 0 0 0 0 0 0 0 0 0 0 0 0 0 0 0 0 0 0 0 0 0 0 0 0 0 0 0 0 0 0 0 0 0 0 0 0 0 0 0 0 0 0 0 0 0 0 0 0 0 0 0 0 0 0 0 0 0 1.32293e-09 5.29171e-09 1.19064e-08 2.11669e-08 -5.23848e-08 -2.94207e-07 -7.04298e-07 -1.28266e-06 -2.03971e-06 -2.98586e-06 -4.12111e-06 -5.44547e-06 -6.8623e-06 -8.27498e-06 -9.68352e-06 -1.10879e-05 -1.24055e-05 -1.35537e-05 -1.45325e-05 -1.5342e-05 -1.60153e-05 -1.65857e-05 -1.70533e-05 -1.7418e-05 -1.77926e-05 -1.829e-05 -1.89102e-05 -1.96531e-05 -2.05582e-05 -2.16648e-05 -2.29728e-05 -2.44824e-05 -2.60622e-05 -2.75807e-05 -2.90381e-05 -3.04343e-05 -3.16031e-05 -3.23785e-05 -3.27605e-05 -3.2749e-05 -3.24028e-05 -3.17804e-05 -3.08819e-05 -2.97072e-05 -2.84824e-05 -2.74334e-05 -2.65602e-05 -2.58628e-05 -2.52933e-05 -2.48037e-05 -2.4394e-05 -2.40643e-05 -2.33897e-05 -2.19458e-05 -1.97325e-05 -1.67498e-05 -1.28065e-05 -7.71148e-06 -1.46473e-06 5.93376e-06 1.40066e-05 2.22766e-05 3.07435e-05 3.94076e-05 4.76617e-05 5.48988e-05 6.1119e-05 6.63223e-05 7.05913e-05 7.40086e-05 7.65743e-05 7.82884e-05 7.98431e-05 8.19307e-05 8.45513e-05 8.77048e-05 9.17219e-05 9.69333e-05 0.000103339 0.000110939 0.000119088 0.00012714 0.000135096 0.000142955 0.000149793 0.000154685 0.00015763 0.00015863 0.00015767 0.000154738 0.000149833 0.000142957 0.00013503 0.000126974 0.00011879 0.000110476 0.000102725 9.62303e-05 9.09904e-05 8.70058e-05 8.40076e-05 8.17272e-05 8.01643e-05 7.93191e-05 7.84873e-05 7.69648e-05 7.47515e-05 7.18474e-05 6.80693e-05 6.32339e-05 5.73411e-05 5.03909e-05 4.29399e-05 3.55443e-05 2.82041e-05 2.09194e-05 1.42687e-05 8.83092e-06 4.60587e-06 1.59359e-06 -4.10987e-07 -1.61296e-06 -2.01233e-06 -1.60909e-06 -9.05111e-07 -4.02272e-07 -1.00568e-07 0 0 5.29171e-09 2.11669e-08 4.76254e-08 8.46674e-08 -2.09539e-07 -1.17683e-06 -2.81719e-06 -5.13064e-06 -8.15884e-06 -1.19434e-05 -1.64845e-05 -2.17819e-05 -2.74492e-05 -3.30999e-05 -3.87341e-05 -4.43516e-05 -4.9622e-05 -5.42149e-05 -5.81301e-05 -6.13678e-05 -6.4061e-05 -6.63428e-05 -6.8213e-05 -6.96718e-05 -7.11704e-05 -7.31601e-05 -7.56407e-05 -7.86125e-05 -8.22327e-05 -8.6659e-05 -9.18914e-05 -9.79297e-05 -0.000104249 -0.000110323 -0.000116152 -0.000121737 -0.000126412 -0.000129514 -0.000131042 -0.000130996 -0.000129611 -0.000127122 -0.000123528 -0.000118829 -0.00011393 -0.000109734 -0.000106241 -0.000103451 -0.000101173 -9.92149e-05 -9.75762e-05 -9.62571e-05 -9.3559e-05 -8.77833e-05 -7.893e-05 -6.69991e-05 -5.1226e-05 -3.08459e-05 -5.85891e-06 2.3735e-05 5.60265e-05 8.91062e-05 0.000122974 0.00015763 0.000190647 0.000219595 0.000244476 0.000265289 0.000282365 0.000296035 0.000306297 0.000313154 0.000319372 0.000327723 0.000338205 0.000350819 0.000366888 0.000387733 0.000413356 0.000443756 0.000476351 0.00050856 0.000540384 0.000571821 0.000599173 0.00061874 0.000630522 0.000634519 0.000630679 0.000618951 0.000599334 0.000571829 0.000540121 0.000507898 0.000475159 0.000441904 0.000410902 0.000384921 0.000363961 0.000348023 0.000336031 0.000326909 0.000320657 0.000317276 0.000313949 0.000307859 0.000299006 0.00028739 0.000272277 0.000252935 0.000229364 0.000201564 0.00017176 0.000142177 0.000112816 8.36774e-05 5.7075e-05 3.53237e-05 1.84235e-05 6.37437e-06 -1.64395e-06 -6.45184e-06 -8.0493e-06 -6.43634e-06 -3.62044e-06 -1.60909e-06 -4.02272e-07 0 0 1.19064e-08 4.76254e-08 1.07157e-07 1.90502e-07 -4.71463e-07 -2.64786e-06 -6.33869e-06 -1.15439e-05 -1.83574e-05 -2.68727e-05 -3.709e-05 -4.90092e-05 -6.17607e-05 -7.44749e-05 -8.71516e-05 -9.97911e-05 -0.00011165 -0.000121983 -0.000130793 -0.000138078 -0.000144137 -0.000149271 -0.000153479 -0.000156762 -0.000160133 -0.00016461 -0.000170192 -0.000176878 -0.000185024 -0.000194983 -0.000206756 -0.000220342 -0.00023456 -0.000248227 -0.000261343 -0.000273908 -0.000284428 -0.000291407 -0.000294845 -0.000294741 -0.000291625 -0.000286024 -0.000277937 -0.000267365 -0.000256342 -0.000246901 -0.000239042 -0.000232766 -0.00022764 -0.000223234 -0.000219546 -0.000216578 -0.000210508 -0.000197512 -0.000177592 -0.000150748 -0.000115258 -6.94033e-05 -1.31825e-05 5.34038e-05 0.00012606 0.000200489 0.000276692 0.000354668 0.000428955 0.000494089 0.000550071 0.000596901 0.000635322 0.000666078 0.000689169 0.000704596 0.000718588 0.000737377 0.000760962 0.000789343 0.000825497 0.000872399 0.000930051 0.00099845 0.00107179 0.00114426 0.00121586 0.0012866 0.00134814 0.00139216 0.00141867 0.00142767 0.00141903 0.00139264 0.0013485 0.00128661 0.00121527 0.00114277 0.00106911 0.000994284 0.000924529 0.000866073 0.000818913 0.000783052 0.000756069 0.000735544 0.000721479 0.000713872 0.000706386 0.000692683 0.000672763 0.000646627 0.000612624 0.000569105 0.00051607 0.000453518 0.000386459 0.000319898 0.000253837 0.000188274 0.000128419 7.94783e-05 4.14528e-05 1.43423e-05 -3.69888e-06 -1.45166e-05 -1.81109e-05 -1.44818e-05 -8.146e-06 -3.62044e-06 -9.05111e-07 0 0 2.11669e-08 8.46674e-08 1.90502e-07 3.3867e-07 -8.38157e-07 -4.7073e-06 -1.12688e-05 -2.05226e-05 -3.26353e-05 -4.77738e-05 -6.59378e-05 -8.71275e-05 -0.000109797 -0.0001324 -0.000154936 -0.000177406 -0.000198488 -0.000216859 -0.000232521 -0.000245471 -0.000256244 -0.000265371 -0.000272852 -0.000278687 -0.000284682 -0.00029264 -0.000302563 -0.00031445 -0.000328931 -0.000346636 -0.000367565 -0.000391719 -0.000416995 -0.000441292 -0.00046461 -0.000486948 -0.00050565 -0.000518056 -0.000524168 -0.000523985 -0.000518445 -0.000508487 -0.00049411 -0.000475316 -0.000455719 -0.000438934 -0.000424963 -0.000413805 -0.000404693 -0.00039686 -0.000390305 -0.000385028 -0.000374236 -0.000351133 -0.00031572 -0.000267996 -0.000204904 -0.000123384 -2.34356e-05 9.49401e-05 0.000224106 0.000356425 0.000491897 0.000630521 0.000762586 0.000878381 0.000977904 0.00106116 0.00112946 0.00118414 0.00122519 0.00125261 0.00127749 0.00131089 0.00135282 0.00140328 0.00146755 0.00155093 0.00165342 0.00177502 0.0019054 0.00203424 0.00216154 0.00228728 0.00239669 0.00247496 0.00252209 0.00253807 0.00252272 0.0024758 0.00239734 0.00228731 0.00216048 0.00203159 0.00190064 0.00176762 0.00164361 0.00153968 0.00145585 0.00139209 0.00134412 0.00130763 0.00128263 0.00126911 0.0012558 0.00123144 0.00119602 0.00114956 0.00108911 0.00101174 0.000917457 0.000806255 0.000687038 0.000568708 0.000451265 0.00033471 0.0002283 0.000141295 7.36938e-05 2.54975e-05 -6.57578e-06 -2.58074e-05 -3.21972e-05 -2.57454e-05 -1.44818e-05 -6.43634e-06 -1.60909e-06 0 0 -7.25563e-08 -2.90225e-07 -6.53007e-07 -1.1609e-06 -3.65611e-06 -9.98085e-06 -2.01351e-05 -3.41189e-05 -5.18884e-05 -7.33996e-05 -9.86527e-05 -0.000127648 -0.000158008 -0.000187358 -0.000215697 -0.000243026 -0.000267501 -0.000287277 -0.000302356 -0.000312738 -0.000319438 -0.000323476 -0.00032485 -0.000323562 -0.000322519 -0.000324629 -0.000329893 -0.000338311 -0.000350986 -0.000369023 -0.000392422 -0.000421182 -0.000452277 -0.000482682 -0.000512397 -0.000541421 -0.000565899 -0.000581973 -0.000589644 -0.000588912 -0.000581239 -0.000568088 -0.000549459 -0.000525351 -0.00050091 -0.00048128 -0.00046646 -0.000456452 -0.000449662 -0.000444498 -0.000440959 -0.000439045 -0.000428839 -0.000400422 -0.000353795 -0.000288956 -0.000202538 -9.11732e-05 4.51396e-05 0.0002064 0.000380262 0.000554381 0.000728756 0.000903387 0.00106418 0.00119703 0.00130195 0.00137893 0.00143128 0.00146232 0.00147204 0.00146045 0.00144558 0.00144545 0.00146008 0.00148945 0.00154256 0.0016284 0.00174697 0.00189828 0.00206691 0.00223746 0.00240992 0.00258429 0.00273778 0.00284756 0.00291365 0.00293604 0.00291443 0.00284854 0.00273835 0.00258386 0.00240785 0.00223309 0.00205958 0.00188731 0.00173281 0.00161261 0.0015267 0.00147508 0.00145009 0.00144402 0.0014569 0.00148871 0.00152089 0.00153488 0.00153066 0.00150824 0.00146182 0.00138559 0.00127956 0.00114373 0.000991139 0.000834822 0.000674781 0.000511016 0.000358465 0.000232062 0.000131809 5.77052e-05 6.31553e-06 -2.57947e-05 -3.86255e-05 -3.21768e-05 -1.80995e-05 -8.0442e-06 -2.01105e-06 0 0 -3.74893e-07 -1.49957e-06 -3.37403e-06 -5.99828e-06 -1.12718e-05 -2.10942e-05 -3.54654e-05 -5.43854e-05 -7.70121e-05 -0.000102503 -0.000130859 -0.00016208 -0.000192845 -0.000219833 -0.000243044 -0.000262479 -0.000276051 -0.000281672 -0.000279343 -0.000269064 -0.000252776 -0.000232419 -0.000207993 -0.000179499 -0.000151348 -0.000127956 -0.000109321 -9.54444e-05 -8.82213e-05 -8.95481e-05 -9.94247e-05 -0.000117851 -0.00014113 -0.000165563 -0.00019115 -0.000217892 -0.000240995 -0.000255666 -0.000261904 -0.000259709 -0.000251178 -0.000238406 -0.000221394 -0.000200142 -0.000180765 -0.00016938 -0.000165987 -0.000170586 -0.000179875 -0.000190552 -0.000202616 -0.000216068 -0.000218414 -0.000197157 -0.000152299 -8.38389e-05 9.46167e-06 0.000128842 0.000274301 0.000445839 0.000624625 0.000791824 0.000947438 0.00109147 0.00120637 0.0012746 0.00129618 0.00127108 0.00120728 0.00111273 0.000987418 0.000831358 0.000672362 0.000538251 0.000429024 0.00034468 0.000300026 0.000309866 0.000374201 0.00049303 0.000646025 0.000812856 0.000993525 0.00118803 0.00136434 0.00149041 0.00156625 0.00159186 0.00156687 0.00149093 0.00136404 0.00118619 0.000989479 0.000806008 0.000635775 0.00047878 0.000356822 0.000291701 0.000283416 0.000331969 0.000423851 0.000545555 0.00069708 0.000878427 0.00106039 0.00121376 0.00133853 0.00143471 0.00149082 0.0014954 0.00144842 0.00134991 0.0012164 0.00106445 0.000894062 0.000705227 0.000520659 0.000363071 0.000232462 0.000128831 5.15653e-05 5.05914e-08 -2.57131e-05 -2.57257e-05 -1.44707e-05 -6.43143e-06 -1.60786e-06 0 0 -8.85842e-07 -3.54337e-06 -7.97258e-06 -1.41735e-05 -2.36853e-05 -3.80473e-05 -5.72595e-05 -8.13219e-05 -0.000108006 -0.000135085 -0.000162558 -0.000190425 -0.000214307 -0.000229824 -0.000236977 -0.000235765 -0.000224138 -0.000200043 -0.000163481 -0.000114452 -5.62582e-05 7.79906e-06 7.77194e-05 0.000153503 0.00022883 0.00029738 0.000359153 0.00041415 0.000459364 0.000491789 0.000511425 0.000518273 0.000516448 0.000510067 0.000499131 0.000483638 0.00046906 0.000460864 0.000459052 0.000463624 0.000471739 0.000480559 0.000490083 0.000500312 0.000504715 0.000496763 0.000476455 0.000443792 0.000404668 0.000364978 0.000324723 0.000283902 0.000257041 0.000258662 0.000288767 0.000347355 0.000431097 0.000536661 0.000664048 0.000813259 0.000957194 0.00106875 0.00114794 0.00119475 0.00118915 0.0011111 0.000960588 0.000737624 0.000457461 0.000135357 -0.000228688 -0.000634674 -0.00104216 -0.00141072 -0.00174034 -0.00203102 -0.00226004 -0.00240467 -0.00246489 -0.00244073 -0.00235725 -0.00223956 -0.00208764 -0.0019015 -0.00172362 -0.00159649 -0.00152011 -0.00149446 -0.00151996 -0.00159701 -0.00172559 -0.00190571 -0.00209464 -0.00224967 -0.00237078 -0.00245798 -0.00248437 -0.00242304 -0.002274 -0.00203725 -0.00173458 -0.00138777 -0.000996827 -0.00056175 -0.000125721 0.000268077 0.000619645 0.000928983 0.00117614 0.00134116 0.00142404 0.00142479 0.00136283 0.00125761 0.00110911 0.00091734 0.000714884 0.00053432 0.000375651 0.000238875 0.000129173 5.17285e-05 6.54004e-06 -6.39209e-06 -3.59555e-06 -1.59802e-06 -3.99506e-07 0 0 -1.6054e-06 -6.42162e-06 -1.44486e-05 -2.56865e-05 -4.08965e-05 -6.08402e-05 -8.55176e-05 -0.000114929 -0.000144872 -0.000171145 -0.000193748 -0.000212682 -0.000222394 -0.000217332 -0.000197495 -0.000162885 -0.000111762 -4.23907e-05 4.52297e-05 0.000151099 0.000270116 0.000397179 0.000532288 0.000675442 0.000818015 0.000951378 0.00107553 0.00119047 0.00129177 0.00137499 0.00144013 0.00148719 0.00152046 0.00154421 0.00155845 0.00156317 0.00156427 0.00156762 0.00157322 0.00158109 0.00158751 0.00158881 0.00158497 0.00157601 0.00155553 0.00151715 0.00146087 0.00138668 0.00130397 0.00122209 0.00114106 0.00106087 0.000997524 0.000967037 0.000969404 0.00100463 0.00106237 0.00113228 0.00121438 0.00130866 0.00137797 0.00138517 0.00133027 0.00121326 0.00101254 0.000706513 0.000295184 -0.000221451 -0.000818179 -0.00146979 -0.00217627 -0.00293764 -0.003698 -0.00440145 -0.00504801 -0.00563766 -0.00613765 -0.0065152 -0.00677031 -0.00690299 -0.00694292 -0.00691978 -0.00683358 -0.0066843 -0.00652611 -0.00641315 -0.00634542 -0.00632293 -0.00634608 -0.00641528 -0.00653053 -0.00669182 -0.00684451 -0.00693393 -0.00696008 -0.00692296 -0.00679075 -0.00653162 -0.00614556 -0.00563258 -0.00502521 -0.00435595 -0.00362482 -0.00283182 -0.00203743 -0.00130216 -0.000625999 -8.94946e-06 0.000517753 0.000922872 0.00120641 0.00136836 0.00143042 0.00141428 0.00131992 0.00114736 0.000941138 0.000745811 0.000561377 0.000387836 0.00023914 0.000129239 5.81338e-05 2.5824e-05 1.4526e-05 6.45601e-06 1.614e-06 0 0 -2.39204e-06 -9.56816e-06 -2.15284e-05 -3.82726e-05 -5.91936e-05 -8.36838e-05 -0.000111743 -0.000143372 -0.000172242 -0.000192023 -0.000202716 -0.000204321 -0.000190845 -0.000156293 -0.000100666 -2.39629e-05 7.45923e-05 0.000195777 0.000339591 0.000506035 0.000688477 0.000880287 0.00108146 0.00129201 0.00150187 0.001701 0.0018894 0.00206706 0.00222849 0.00236819 0.00248616 0.00258241 0.00266054 0.00272417 0.0027733 0.00280794 0.0028331 0.00285383 0.00287011 0.00288196 0.00288483 0.0028742 0.00285007 0.00281244 0.00275683 0.00267877 0.00257826 0.00245529 0.00232366 0.00219716 0.00207578 0.00195953 0.00186321 0.00180164 0.0017748 0.00178271 0.00180436 0.00181875 0.00182589 0.00182576 0.00177237 0.00161967 0.00136768 0.0010164 0.000547524 -5.72248e-05 -0.00079785 -0.00167435 -0.00265037 -0.00368955 -0.0047919 -0.0059574 -0.00711801 -0.00820566 -0.00922035 -0.0101621 -0.0109889 -0.0116588 -0.0121717 -0.0125277 -0.0127571 -0.0128902 -0.0129268 -0.0128671 -0.0127729 -0.0127057 -0.0126657 -0.0126529 -0.0126676 -0.0127101 -0.0127804 -0.0128786 -0.012942 -0.0129081 -0.0127768 -0.0125483 -0.0121899 -0.0116692 -0.0109862 -0.0101408 -0.00917601 -0.00813466 -0.00701676 -0.00582232 -0.00462588 -0.00350197 -0.0024506 -0.00147177 -0.000608452 9.63586e-05 0.000642664 0.00103047 0.00127942 0.0014092 0.0014198 0.00131121 0.00113822 0.000955625 0.000763413 0.000561586 0.000376147 0.000233097 0.000132434 7.41601e-05 4.17151e-05 1.854e-05 4.63501e-06 0 0 -3.10421e-06 -1.24168e-05 -2.79379e-05 -4.96673e-05 -7.48646e-05 -0.000100789 -0.000127441 -0.000154819 -0.000174751 -0.00017906 -0.000167747 -0.000140811 -9.33963e-05 -2.06437e-05 7.74464e-05 0.000200874 0.000348442 0.000518952 0.000712405 0.0009288 0.00116096 0.00140169 0.001651 0.00190889 0.00216606 0.00241321 0.00265034 0.00287744 0.00308902 0.00327954 0.00344901 0.00359744 0.00372635 0.00383727 0.00393021 0.00400517 0.00406404 0.00410872 0.00413921 0.00415551 0.00415238 0.0041246 0.00407217 0.00399508 0.00389376 0.0037686 0.00361962 0.00344682 0.00326939 0.00310655 0.00295828 0.0028246 0.00271428 0.00263614 0.00259015 0.00257634 0.00255816 0.00249909 0.00239914 0.0022583 0.0020258 0.00165085 0.00113345 0.000473602 -0.000334881 -0.00129819 -0.00241633 -0.00368929 -0.00506985 -0.0065108 -0.00801211 -0.00957381 -0.0111251 -0.012595 -0.0139837 -0.0152912 -0.0164699 -0.0174724 -0.0182988 -0.018949 -0.019446 -0.019813 -0.0200499 -0.0201568 -0.0201936 -0.0202204 -0.0202371 -0.0202437 -0.0202405 -0.0202275 -0.0202048 -0.0201723 -0.0200689 -0.0198334 -0.0194658 -0.0189661 -0.0183094 -0.017471 -0.0164508 -0.0152487 -0.013915 -0.0124996 -0.0110025 -0.00942381 -0.00784219 -0.00633637 -0.00490636 -0.00355215 -0.0023266 -0.00128257 -0.000420065 0.000260918 0.000770079 0.00111712 0.00130203 0.00132482 0.00124494 0.00112185 0.00095553 0.000745995 0.000534878 0.000363816 0.000232807 0.000141854 7.97926e-05 3.54634e-05 8.86585e-06 0 0 -3.74191e-06 -1.49676e-05 -3.36772e-05 -5.98706e-05 -8.79095e-05 -0.000112156 -0.00013261 -0.000149271 -0.000152399 -0.000132256 -8.88401e-05 -2.21524e-05 6.99516e-05 0.000189616 0.000336841 0.000511626 0.000709786 0.000927134 0.00116367 0.00141939 0.00168755 0.00196139 0.0022409 0.00252609 0.00281058 0.003088 0.00335835 0.00362163 0.00387335 0.00410903 0.00432867 0.00453228 0.00471787 0.00488351 0.00502917 0.00515487 0.00525708 0.0053323 0.00538052 0.00540174 0.00539017 0.00534001 0.00525127 0.00512394 0.00496631 0.00478665 0.00458497 0.00436127 0.00414116 0.00395026 0.00378856 0.00365606 0.00355073 0.00347053 0.00341546 0.00338551 0.00332377 0.00317332 0.00293415 0.00260628 0.00213827 0.0014787 0.000627569 -0.000415125 -0.00163468 -0.00301638 -0.00456025 -0.00626626 -0.00807662 -0.00993351 -0.0118369 -0.0137869 -0.0157192 -0.0175696 -0.0193382 -0.0210249 -0.0225806 -0.0239562 -0.0251515 -0.0261666 -0.0270096 -0.0276883 -0.0282029 -0.0285532 -0.0287883 -0.0289571 -0.0290594 -0.0290955 -0.0290649 -0.0289677 -0.0288037 -0.028573 -0.0282252 -0.0277098 -0.0270268 -0.0261763 -0.0251493 -0.023937 -0.0225393 -0.0209563 -0.0192421 -0.0174506 -0.015582 -0.0136363 -0.0116864 -0.00980537 -0.00799328 -0.0062501 -0.00463669 -0.00321392 -0.00198178 -0.00094028 -9.76129e-05 0.000538023 0.000966627 0.0011882 0.0012613 0.00124447 0.00113773 0.000941063 0.000715333 0.000521396 0.000359253 0.000228904 0.000128759 5.72261e-05 1.43065e-05 0 0 -4.30514e-06 -1.72206e-05 -3.87463e-05 -6.88823e-05 -9.83283e-05 -0.000117784 -0.00012725 -0.000126725 -0.000105187 -5.16105e-05 3.40037e-05 0.000151656 0.000299199 0.000474486 0.000677517 0.000908293 0.00115862 0.00142032 0.00169339 0.00197782 0.00226827 0.00255938 0.00285116 0.00314361 0.00343544 0.00372539 0.00401345 0.00429962 0.00458149 0.00485667 0.00512515 0.00538692 0.00563513 0.00586288 0.00607018 0.00625703 0.00641223 0.00652456 0.00659404 0.00662065 0.00659818 0.00652042 0.00638737 0.00619901 0.00597449 0.00573292 0.00547431 0.00519865 0.00493897 0.00472829 0.00456661 0.00445393 0.00437257 0.00430483 0.00425071 0.00421023 0.00410119 0.00384142 0.00343092 0.00286969 0.00210978 0.00110323 -0.000149958 -0.00164979 -0.00335187 -0.00521181 -0.00722961 -0.00940528 -0.0116707 -0.0139577 -0.0162663 -0.0185966 -0.0209003 -0.0231293 -0.0252837 -0.0273633 -0.0293212 -0.03111 -0.0327299 -0.0341808 -0.0354478 -0.0365161 -0.0373857 -0.0380565 -0.0385571 -0.0389159 -0.0391328 -0.039208 -0.0391408 -0.0389305 -0.0385772 -0.0380808 -0.037411 -0.0365374 -0.0354601 -0.034179 -0.0327095 -0.0310671 -0.0292518 -0.0272636 -0.0251573 -0.0229879 -0.0207554 -0.0184597 -0.0161584 -0.013909 -0.0117114 -0.00956561 -0.00753872 -0.00569768 -0.00404248 -0.00257313 -0.00132365 -0.000328081 0.000413584 0.000901342 0.00118729 0.00132351 0.00131001 0.00114679 0.00091751 0.000705838 0.000511772 0.000335312 0.000188613 8.38281e-05 2.0957e-05 0 0 -4.38654e-06 -1.75462e-05 -3.94789e-05 -7.01847e-05 -9.67963e-05 -0.000106447 -9.91355e-05 -7.4863e-05 -2.31076e-05 6.66523e-05 0.000194417 0.000360185 0.000555587 0.000772251 0.00101018 0.00126936 0.00153746 0.00180212 0.00206334 0.00232111 0.00257355 0.00281875 0.00305672 0.00328745 0.00351773 0.00375433 0.00399727 0.00424653 0.00450371 0.0047704 0.00504659 0.00533229 0.00561508 0.00588256 0.00613473 0.00637158 0.0065723 0.00671607 0.00680288 0.00683274 0.00679928 0.00669614 0.00652333 0.00628083 0.00600119 0.00571694 0.00542809 0.00513463 0.00487631 0.00469287 0.00458433 0.00455068 0.00455257 0.00455066 0.00454494 0.00453541 0.00441302 0.0040687 0.00350246 0.00271429 0.00167153 0.000341499 -0.00127579 -0.00318034 -0.005285 -0.00750264 -0.00983325 -0.0122768 -0.0147627 -0.0172203 -0.0196495 -0.0220504 -0.0244157 -0.026738 -0.0290174 -0.031254 -0.0334147 -0.0354669 -0.0374105 -0.0392454 -0.0409207 -0.042385 -0.0436384 -0.044681 -0.0455016 -0.0460895 -0.0464445 -0.0465667 -0.0464549 -0.0461078 -0.0455256 -0.0447082 -0.0436644 -0.0424031 -0.0409243 -0.0392279 -0.0373678 -0.0353975 -0.0333171 -0.0311265 -0.0288691 -0.0265879 -0.0242831 -0.0219545 -0.0196176 -0.0172876 -0.0149646 -0.0126484 -0.0104025 -0.00829017 -0.0063113 -0.00446595 -0.00282711 -0.00146779 -0.000387978 0.000412322 0.000964361 0.00129939 0.0014174 0.00131841 0.00110861 0.000894227 0.000675257 0.0004517 0.000254082 0.000112925 2.82313e-05 0 0 -3.57874e-06 -1.4315e-05 -3.22086e-05 -5.72598e-05 -7.39887e-05 -6.69154e-05 -3.604e-05 1.86375e-05 0.000103845 0.000226309 0.00038603 0.000583008 0.000800359 0.0010212 0.00124552 0.00147333 0.0016888 0.00187613 0.00203529 0.00216631 0.00227385 0.00236258 0.00243251 0.00248363 0.00253454 0.00260382 0.00269148 0.00279751 0.00293028 0.00309817 0.00330116 0.00353927 0.00379471 0.00404972 0.0043043 0.00455843 0.00478013 0.00493737 0.00503016 0.0050585 0.0050163 0.00489747 0.00470201 0.00442993 0.00412931 0.00384827 0.00358679 0.00334489 0.00316668 0.00309625 0.00313363 0.00327879 0.00346354 0.00361966 0.00374714 0.00384599 0.00378188 0.00342048 0.0027618 0.00180582 0.000554701 -0.000989434 -0.00282658 -0.00495674 -0.00723266 -0.00950708 -0.01178 -0.0140514 -0.0162635 -0.0183582 -0.0203357 -0.0221958 -0.0240124 -0.0258594 -0.0277368 -0.0296444 -0.0315847 -0.0335599 -0.0355699 -0.0376148 -0.0395882 -0.0413837 -0.0430013 -0.044441 -0.0456238 -0.0464707 -0.0469816 -0.0471567 -0.0469939 -0.0464916 -0.0456496 -0.044468 -0.0430237 -0.0413938 -0.0395782 -0.037577 -0.0355017 -0.033464 -0.0314638 -0.0295011 -0.0275856 -0.0257271 -0.0239256 -0.0221811 -0.0204233 -0.0185819 -0.0166569 -0.0146483 -0.012598 -0.0105477 -0.00849738 -0.00644708 -0.00452708 -0.0028677 -0.00146894 -0.000330784 0.000533971 0.00111255 0.00140494 0.00141115 0.00125583 0.00106365 0.000834603 0.000568691 0.000319889 0.000142173 3.55432e-05 0 0 -1.88173e-06 -7.52693e-06 -1.69356e-05 -3.01077e-05 -2.99054e-05 8.0935e-07 6.20365e-05 0.000153776 0.00027567 0.000427359 0.000608844 0.000820125 0.00103351 0.00122132 0.00138354 0.00152018 0.00161265 0.00164234 0.00160926 0.00151341 0.00136916 0.00119086 0.000978526 0.000732149 0.000485877 0.000273852 9.6076e-05 -4.74517e-05 -0.000138796 -0.000160023 -0.000111133 7.87602e-06 0.000174034 0.000364372 0.00057889 0.000817589 0.0010357 0.00118846 0.00127587 0.00129793 0.00124923 0.0011244 0.000923419 0.000646296 0.000358846 0.000126888 -4.95782e-05 -0.000170553 -0.000189924 -6.15779e-05 0.000214485 0.000638266 0.00110548 0.00151183 0.00185733 0.00214196 0.00220777 0.00189676 0.00120893 0.000144296 -0.00124069 -0.00288957 -0.00480233 -0.00697899 -0.00919482 -0.0112251 -0.0130699 -0.0147291 -0.0161729 -0.0173715 -0.0183248 -0.0190328 -0.0196906 -0.0204936 -0.0214416 -0.0225347 -0.0238311 -0.0253889 -0.0272081 -0.0292888 -0.0314504 -0.0335122 -0.0354743 -0.0373366 -0.0389235 -0.0400594 -0.0407442 -0.0409779 -0.040758 -0.0400817 -0.038949 -0.0373601 -0.0354888 -0.0335094 -0.0314219 -0.0292262 -0.0271114 -0.0252667 -0.023692 -0.0223873 -0.021307 -0.0204056 -0.0196831 -0.0191395 -0.0185754 -0.0177917 -0.0167883 -0.0155653 -0.0141251 -0.0124703 -0.0106007 -0.00851651 -0.00642356 -0.00452782 -0.00282929 -0.00132798 -0.000103882 0.000762981 0.00127261 0.00142501 0.00135917 0.00121411 0.00098981 0.000686283 0.000386034 0.000171571 4.28927e-05 0 0 7.04476e-07 2.81791e-06 6.34029e-06 1.12716e-05 3.54535e-05 9.67277e-05 0.000195094 0.000330553 0.000492368 0.000669803 0.000862859 0.00107154 0.00125505 0.00137262 0.00142425 0.00140993 0.001309 0.00110077 0.000785241 0.000362423 -0.000140514 -0.000696396 -0.00130522 -0.00196699 -0.00262826 -0.00323558 -0.00378894 -0.00428835 -0.00470353 -0.00500418 -0.0051903 -0.0052619 -0.00524697 -0.0051735 -0.00504149 -0.00485095 -0.00466097 -0.00453065 -0.00445998 -0.00444897 -0.00450191 -0.00462307 -0.00481245 -0.00507006 -0.0053102 -0.00544719 -0.00548103 -0.00541171 -0.00519349 -0.00478062 -0.00417309 -0.0033709 -0.00252162 -0.00177283 -0.00112451 -0.000576672 -0.000309324 -0.000502479 -0.00115614 -0.0022703 -0.00371465 -0.0053589 -0.00720305 -0.00924708 -0.0111715 -0.0126568 -0.0137029 -0.0143098 -0.0144911 -0.0142601 -0.0136168 -0.0125613 -0.0114503 -0.0106405 -0.010132 -0.00992484 -0.0101538 -0.0109539 -0.0123252 -0.0142675 -0.0165072 -0.0187705 -0.0210574 -0.0233678 -0.0254009 -0.0268557 -0.0277323 -0.0280305 -0.027747 -0.0268782 -0.025424 -0.0233845 -0.0210598 -0.0187501 -0.0164553 -0.0141755 -0.0121968 -0.0108056 -0.0100016 -0.00978511 -0.0100333 -0.0106234 -0.0115555 -0.0128296 -0.014074 -0.0149171 -0.0153589 -0.0153993 -0.0149839 -0.0140579 -0.0126213 -0.0106742 -0.00851654 -0.00644814 -0.00446905 -0.00257926 -0.000949198 0.000250696 0.00102043 0.00135999 0.00141863 0.0013456 0.00114088 0.000804478 0.000452519 0.00020112 5.02799e-05 0 0 4.26362e-06 1.70545e-05 3.83726e-05 6.82179e-05 0.000122683 0.000217861 0.000353751 0.000530354 0.000723322 0.000908309 0.00108531 0.00125434 0.00136323 0.00135985 0.0012442 0.00101627 0.00065757 0.000149591 -0.000507665 -0.0013142 -0.00222958 -0.00321338 -0.0042656 -0.00538625 -0.00650581 -0.00755479 -0.00853319 -0.009441 -0.0102359 -0.0108756 -0.01136 -0.0116893 -0.0118921 -0.0119975 -0.0120054 -0.0119157 -0.0117982 -0.0117224 -0.0116883 -0.0116959 -0.0117479 -0.011847 -0.0119932 -0.0121865 -0.0123248 -0.0123059 -0.0121298 -0.0117965 -0.0112673 -0.0105036 -0.00950534 -0.00827249 -0.00699921 -0.00587961 -0.00491368 -0.00410144 -0.00363278 -0.0036976 -0.00429591 -0.00542771 -0.00686141 -0.00836544 -0.00993978 -0.0115844 -0.0128687 -0.013362 -0.0130641 -0.0119752 -0.0101767 -0.00774981 -0.00469467 -0.00101125 0.00273015 0.00595921 0.00867593 0.0108803 0.0123346 0.0128011 0.0122797 0.0107705 0.00866222 0.00634378 0.00381513 0.00107629 -0.00141335 -0.00319436 -0.00426674 -0.00463051 -0.00428125 -0.00321458 -0.00143049 0.00107101 0.00383001 0.00638661 0.00874081 0.0108926 0.0124367 0.0129678 0.0124859 0.010991 0.00871133 0.00587516 0.00248247 -0.00146672 -0.00537371 -0.00863978 -0.0112649 -0.0132492 -0.0144575 -0.014755 -0.0141418 -0.0126176 -0.0105974 -0.00849581 -0.00631281 -0.00404842 -0.00199186 -0.000432353 0.000630103 0.00119551 0.00141561 0.00144216 0.00127517 0.000914631 0.00051448 0.000228658 5.71644e-05 0 0 8.87944e-06 3.55177e-05 7.99149e-05 0.000142071 0.000232379 0.00036123 0.000528626 0.000734566 0.000937917 0.00109754 0.00121345 0.00128563 0.00125632 0.00106777 0.000719962 0.00021291 -0.000461904 -0.00131299 -0.00234035 -0.00354398 -0.00487243 -0.00627427 -0.00774948 -0.00929807 -0.0108447 -0.0123141 -0.0137063 -0.0150212 -0.016208 -0.0172156 -0.018044 -0.0186934 -0.0191852 -0.0195412 -0.0197612 -0.0198453 -0.0198644 -0.0198893 -0.01992 -0.0199565 -0.0199994 -0.0200493 -0.0201063 -0.0201703 -0.0201318 -0.019881 -0.019418 -0.0187428 -0.0178347 -0.0166733 -0.0152585 -0.0135903 -0.0119087 -0.0104538 -0.00922551 -0.00822386 -0.00762598 -0.007609 -0.00817291 -0.00931772 -0.0106752 -0.0118772 -0.0129236 -0.0138145 -0.0139926 -0.0129007 -0.0105388 -0.00690691 -0.00218831 0.00343364 0.00995894 0.0173876 0.0248721 0.031565 0.0374662 0.0425758 0.0465218 0.0489323 0.0498072 0.0491465 0.0474789 0.0453331 0.0427089 0.0396065 0.0366816 0.0345899 0.0333314 0.0329061 0.0333191 0.0345755 0.0366754 0.0396188 0.0427474 0.0454031 0.0475858 0.0492956 0.0499839 0.0491017 0.0466493 0.0426266 0.0374024 0.0313456 0.0244561 0.0167339 0.00907088 0.00235863 -0.00340282 -0.00821346 -0.0118293 -0.0140064 -0.0147446 -0.0140441 -0.0124576 -0.010538 -0.00828519 -0.00569926 -0.00322175 -0.00129421 8.33627e-05 0.000910962 0.00133149 0.00148786 0.00138006 0.0010081 0.000567054 0.000252024 6.3006e-05 0 0 1.45519e-05 5.82077e-05 0.000130967 0.000232831 0.00036454 0.000526836 0.000719719 0.00094319 0.00113615 0.00123751 0.00124726 0.0011654 0.000934313 0.000496356 -0.000148469 -0.00100016 -0.00204943 -0.00328698 -0.00471281 -0.00632692 -0.00806909 -0.00987906 -0.0117569 -0.0137024 -0.015645 -0.0175136 -0.0193083 -0.021029 -0.0226197 -0.0240241 -0.0252423 -0.0262743 -0.0271263 -0.0278046 -0.028309 -0.0286397 -0.0288595 -0.0290312 -0.029155 -0.0292307 -0.0292564 -0.0292302 -0.0291519 -0.0290216 -0.0287312 -0.0281726 -0.0273457 -0.0262505 -0.0248957 -0.0232897 -0.0214326 -0.0193243 -0.0172502 -0.0154954 -0.01406 -0.0129439 -0.0122889 -0.0122367 -0.0127871 -0.0139403 -0.015156 -0.0158941 -0.0161545 -0.0159372 -0.0145431 -0.011273 -0.00612694 0.000895153 0.00947398 0.0192903 0.030344 0.0426352 0.0549755 0.0661768 0.0762388 0.0851617 0.0924079 0.0974398 0.100257 0.100861 0.0999429 0.0981973 0.095624 0.092223 0.088884 0.0864971 0.0850621 0.0845792 0.0850539 0.0864921 0.0888937 0.0922588 0.0956923 0.0982992 0.10008 0.101034 0.100445 0.0975963 0.0924887 0.0851217 0.0760399 0.0657878 0.0543653 0.0417724 0.0292598 0.0180781 0.00822745 -0.000292248 -0.00709924 -0.0118118 -0.0144299 -0.0149536 -0.0140971 -0.0125746 -0.0103862 -0.00753178 -0.00463887 -0.00233487 -0.000619794 0.00050636 0.00116629 0.00148268 0.00145554 0.00108487 0.000610241 0.000271218 6.78046e-05 0 0 2.12811e-05 8.51243e-05 0.00019153 0.000340497 0.000519167 0.000714678 0.00092703 0.00115622 0.00131803 0.0013282 0.00118675 0.000893668 0.000397211 -0.000354376 -0.00136109 -0.00262293 -0.004105 -0.00577237 -0.00762505 -0.00966303 -0.0118195 -0.0140278 -0.0162877 -0.0185994 -0.0209066 -0.0231532 -0.0253391 -0.0274643 -0.029471 -0.0313012 -0.0329549 -0.034432 -0.0357154 -0.0367877 -0.0376488 -0.0382989 -0.0387834 -0.0391483 -0.0393933 -0.0395186 -0.039519 -0.0393895 -0.0391299 -0.0387403 -0.0381231 -0.0371806 -0.0359129 -0.0343198 -0.0324503 -0.0303529 -0.0280276 -0.0254746 -0.0230236 -0.0210044 -0.0194171 -0.0182617 -0.0176216 -0.0175806 -0.0181385 -0.0192955 -0.0203039 -0.0204162 -0.0196325 -0.0179526 -0.0145203 -0.00847889 0.00017151 0.0114309 0.0248102 0.03982 0.0564605 0.0747316 0.0930405 0.109795 0.124994 0.138638 0.149993 0.158323 0.16363 0.165913 0.166054 0.164937 0.16256 0.158926 0.155194 0.152527 0.150925 0.150389 0.150923 0.152535 0.155224 0.158991 0.162665 0.165075 0.166222 0.166106 0.163819 0.158451 0.150004 0.138476 0.124624 0.109202 0.0922101 0.0736486 0.0551929 0.0385187 0.0236259 0.0105145 -0.000267325 -0.00817136 -0.0131976 -0.0153462 -0.0155159 -0.0146058 -0.0126158 -0.00954598 -0.00624321 -0.00355434 -0.00147937 -1.8302e-05 0.000919988 0.00142663 0.00150162 0.00114496 0.000644042 0.000286241 7.15602e-05 0 0 2.85444e-05 0.000114178