<?xml version="1.0"?> 
<VTKFile type="StructuredGrid" version="0.1"> 
<StructuredGrid WholeExtent="0 128 0 128 0 0"> 
<Piece Extent="0 128 0 128 0 0"> 
<PointData>
<DataArray type="Float32" Name="u" format="ascii" NumberOfComponents="1"> 
0 0 0 0 0 0 0 0 0 0 0 0 0 0 0 0 0 0 0 0 0 0 0 0 0 0 0 0 0 0 0 0 0 0 0 0 0 0 0 0 0 0 0 0 0 0 0 0 0 0 0 0 0 0 0 0 0 0 0 0 0 0 0 0 0 0 0 0 0 0 0 0 0 0 0 0 0 0 0 0 0 0 0 0 0 0 0 0 0 0 0 0 0 0 0 0 0 0 0 0 0 0 0 0 0 0 0 0 0 0 0 0 0 0 0 0 0 0 0 0 0 0 0 0 0 0 0 0 0 0 -6.43054e-08 -2.57222e-07 -5.78749e-07 -1.02889e-06 -1.81691e-06 -3.15211e-06 -5.03447e-06 -7.464e-06 -1.04359e-05 -1.39454e-05 -1.79925e-05 -2.25771e-05 -2.76159e-05 -3.30254e-05 -3.88056e-05 -4.49565e-05 -5.13993e-05 -5.80554e-05 -6.49247e-05 -7.20074e-05 -7.92059e-05 -8.64232e-05 -9.36592e-05 -0.000100914 -0.000108065 -0.000114989 -0.000121686 -0.000128157 -0.000134281 -0.000139937 -0.000145126 -0.000149848 -0.000154029 -0.000157595 -0.000160548 -0.000162886 -0.000164618 -0.000165752 -0.000166287 -0.000166225 -0.000165657 -0.000164678 -0.000163287 -0.000161485 -0.000159418 -0.000157232 -0.000154929 -0.000152508 -0.000150109 -0.000147874 -0.000145803 -0.000143895 -0.000142218 -0.000140836 -0.000139752 -0.000138963 -0.000138414 -0.000138045 -0.000137857 -0.000137849 -0.000137844 -0.000137662 -0.000137303 -0.000136768 -0.00013584 -0.000134301 -0.000132152 -0.000129393 -0.00012591 -0.000121591 -0.000116435 -0.000110442 -0.000103725 -9.63965e-05 -8.84556e-05 -7.99027e-05 -7.10789e-05 -6.2325e-05 -5.36412e-05 -4.50273e-05 -3.69017e-05 -2.96827e-05 -2.33701e-05 -1.79642e-05 -1.37325e-05 -1.09429e-05 -9.59539e-06 -9.68996e-06 -1.11846e-05 -1.40374e-05 -1.82483e-05 -2.38173e-05 -3.0405e-05 -3.76718e-05 -4.56178e-05 -5.4243e-05 -6.30791e-05 -7.16578e-05 -7.99792e-05 -8.80432e-05 -9.5464e-05 -0.000101855 -0.000107218 -0.000111551 -0.000114684 -0.000116447 -0.000116839 -0.000115861 -0.000113574 -0.000110041 -0.000105262 -9.92373e-05 -9.22266e-05 -8.4491e-05 -7.60303e-05 -6.68446e-05 -5.74051e-05 -4.81832e-05 -3.91789e-05 -3.03921e-05 -2.23915e-05 -1.57456e-05 -1.04545e-05 -6.51807e-06 -3.66641e-06 -1.62952e-06 -4.07379e-07 0 0 -2.57222e-07 -1.02889e-06 -2.315e-06 -4.11555e-06 -7.26766e-06 -1.26084e-05 -2.01379e-05 -2.9856e-05 -4.17436e-05 -5.57816e-05 -7.19699e-05 -9.03086e-05 -0.000110464 -0.000132102 -0.000155222 -0.000179826 -0.000205597 -0.000232222 -0.000259699 -0.000288029 -0.000316824 -0.000345693 -0.000374637 -0.000403655 -0.000432258 -0.000459955 -0.000486744 -0.000512627 -0.000537122 -0.000559748 -0.000580504 -0.000599391 -0.000616115 -0.000630382 -0.000642191 -0.000651544 -0.000658472 -0.000663007 -0.000665149 -0.000664898 -0.000662627 -0.000658711 -0.000653148 -0.000645939 -0.00063767 -0.000628929 -0.000619717 -0.000610031 -0.000600437 -0.000591497 -0.000583212 -0.000575581 -0.00056887 -0.000563345 -0.000559007 -0.000555854 -0.000553656 -0.00055218 -0.000551427 -0.000551397 -0.000551375 -0.000550647 -0.000549213 -0.000547072 -0.000543359 -0.000537204 -0.000528608 -0.000517572 -0.000503641 -0.000486364 -0.00046574 -0.00044177 -0.000414902 -0.000385586 -0.000353822 -0.000319611 -0.000284316 -0.0002493 -0.000214565 -0.000180109 -0.000147607 -0.000118731 -9.34805e-05 -7.18566e-05 -5.49299e-05 -4.37716e-05 -3.83815e-05 -3.87598e-05 -4.47385e-05 -5.61497e-05 -7.29933e-05 -9.52694e-05 -0.00012162 -0.000150687 -0.000182471 -0.000216972 -0.000252316 -0.000286631 -0.000319917 -0.000352173 -0.000381856 -0.000407422 -0.000428871 -0.000446203 -0.000458736 -0.000465787 -0.000467355 -0.000463442 -0.000454296 -0.000440165 -0.000421049 -0.000396949 -0.000368907 -0.000337964 -0.000304121 -0.000267378 -0.000229621 -0.000192733 -0.000156716 -0.000121568 -8.9566e-05 -6.29825e-05 -4.18179e-05 -2.60723e-05 -1.46656e-05 -6.51807e-06 -1.62952e-06 0 0 -5.78749e-07 -2.315e-06 -5.20874e-06 -9.25998e-06 -1.63522e-05 -2.8369e-05 -4.53103e-05 -6.7176e-05 -9.39232e-05 -0.000125509 -0.000161932 -0.000203194 -0.000248543 -0.000297229 -0.00034925 -0.000404608 -0.000462594 -0.000522498 -0.000584323 -0.000648066 -0.000712854 -0.000777809 -0.000842933 -0.000908225 -0.000972581 -0.0010349 -0.00109517 -0.00115341 -0.00120853 -0.00125943 -0.00130613 -0.00134863 -0.00138626 -0.00141836 -0.00144493 -0.00146597 -0.00148156 -0.00149177 -0.00149659 -0.00149602 -0.00149091 -0.0014821 -0.00146958 -0.00145336 -0.00143476 -0.00141509 -0.00139436 -0.00137257 -0.00135098 -0.00133087 -0.00131223 -0.00129506 -0.00127996 -0.00126753 -0.00125776 -0.00125067 -0.00124573 -0.0012424 -0.00124071 -0.00124064 -0.00124059 -0.00123896 -0.00123573 -0.00123091 -0.00122256 -0.00120871 -0.00118937 -0.00116454 -0.00113319 -0.00109432 -0.00104792 -0.000993982 -0.000933529 -0.000867568 -0.0007961 -0.000719125 -0.00063971 -0.000560925 -0.000482771 -0.000405246 -0.000332115 -0.000267144 -0.000210331 -0.000161677 -0.000123592 -9.8486e-05 -8.63585e-05 -8.72096e-05 -0.000100662 -0.000126337 -0.000164235 -0.000214356 -0.000273645 -0.000339046 -0.00041056 -0.000488187 -0.000567712 -0.00064492 -0.000719813 -0.000792389 -0.000859176 -0.000916699 -0.00096496 -0.00100396 -0.00103216 -0.00104802 -0.00105155 -0.00104275 -0.00102217 -0.000990371 -0.000947361 -0.000893135 -0.00083004 -0.000760419 -0.000684273 -0.000601601 -0.000516646 -0.000433649 -0.00035261 -0.000273529 -0.000201523 -0.000141711 -9.40902e-05 -5.86626e-05 -3.29977e-05 -1.46656e-05 -3.66641e-06 0 0 -1.02889e-06 -4.11555e-06 -9.25998e-06 -1.64622e-05 -2.90706e-05 -5.04338e-05 -8.05516e-05 -0.000119424 -0.000166975 -0.000223126 -0.00028788 -0.000361234 -0.000441855 -0.000528407 -0.00062089 -0.000719303 -0.000822389 -0.000928886 -0.0010388 -0.00115212 -0.0012673 -0.00138277 -0.00149855 -0.00161462 -0.00172903 -0.00183982 -0.00194698 -0.00205051 -0.00214849 -0.00223899 -0.00232202 -0.00239756 -0.00246446 -0.00252153 -0.00256877 -0.00260618 -0.00263389 -0.00265203 -0.0026606 -0.00265959 -0.00265051 -0.00263484 -0.00261259 -0.00258375 -0.00255068 -0.00251572 -0.00247887 -0.00244013 -0.00240175 -0.00236599 -0.00233285 -0.00230232 -0.00227548 -0.00225338 -0.00223603 -0.00222342 -0.00221462 -0.00220872 -0.00220571 -0.00220559 -0.0022055 -0.00220259 -0.00219685 -0.00218829 -0.00217343 -0.00214882 -0.00211443 -0.00207029 -0.00201457 -0.00194546 -0.00186296 -0.00176708 -0.00165961 -0.00154234 -0.00141529 -0.00127844 -0.00113726 -0.000997201 -0.000858259 -0.000720437 -0.000590427 -0.000474922 -0.000373922 -0.000287426 -0.00021972 -0.000175086 -0.000153526 -0.000155039 -0.000178954 -0.000224599 -0.000291973 -0.000381077 -0.00048648 -0.000602749 -0.000729885 -0.000867888 -0.00100926 -0.00114652 -0.00127967 -0.00140869 -0.00152742 -0.00162969 -0.00171548 -0.00178481 -0.00183494 -0.00186315 -0.00186942 -0.00185377 -0.00181718 -0.00176066 -0.0016842 -0.0015878 -0.00147563 -0.00135186 -0.00121648 -0.00106951 -0.000918482 -0.000770932 -0.000626862 -0.000486274 -0.000358264 -0.00025193 -0.000167272 -0.000104289 -5.86626e-05 -2.60723e-05 -6.51807e-06 0 0 -1.8386e-06 -7.35441e-06 -1.65474e-05 -2.94176e-05 -5.11046e-05 -8.67478e-05 -0.000136347 -0.000199903 -0.000277098 -0.000367617 -0.000471459 -0.000588625 -0.000716945 -0.000854253 -0.00100055 -0.00115583 -0.00131807 -0.00148523 -0.00165732 -0.00183433 -0.00201383 -0.00219337 -0.00237296 -0.00255259 -0.00272928 -0.00290002 -0.00306483 -0.0032237 -0.00337377 -0.00351218 -0.00363893 -0.00375402 -0.00385578 -0.00394255 -0.00401433 -0.00407112 -0.00411324 -0.00414101 -0.00415442 -0.00415348 -0.00414053 -0.00411789 -0.00408556 -0.00404356 -0.0039954 -0.00394463 -0.00389123 -0.00383522 -0.00377987 -0.00372844 -0.00368094 -0.00363737 -0.00359908 -0.00356743 -0.00354241 -0.00352403 -0.00351051 -0.00350008 -0.00349274 -0.0034885 -0.00348261 -0.00347032 -0.00345164 -0.00342656 -0.00338954 -0.00333504 -0.00326304 -0.00317355 -0.00306391 -0.00293147 -0.00277622 -0.00259817 -0.00240069 -0.00218716 -0.00195759 -0.00171197 -0.00145971 -0.00121023 -0.000963514 -0.000719575 -0.000489781 -0.000285501 -0.000106736 4.65151e-05 0.000166983 0.000247401 0.000287769 0.000288086 0.000249414 0.000172814 5.82861e-05 -9.41699e-05 -0.000275479 -0.000476566 -0.000697431 -0.000938074 -0.00118588 -0.00142823 -0.00166512 -0.00189655 -0.00211201 -0.00230098 -0.00246345 -0.00259943 -0.00270411 -0.00277267 -0.00280512 -0.00280146 -0.00276311 -0.00269151 -0.00258666 -0.00244855 -0.00228389 -0.00209938 -0.00189502 -0.00167082 -0.00143881 -0.00121105 -0.000987532 -0.000768262 -0.000567821 -0.000400795 -0.000267182 -0.000166983 -9.39282e-05 -4.17459e-05 -1.04365e-05 0 0 -3.23886e-06 -1.29555e-05 -2.91498e-05 -5.18218e-05 -8.81358e-05 -0.000145256 -0.000223182 -0.000321915 -0.000440495 -0.000577962 -0.000734318 -0.000909561 -0.00110036 -0.00130338 -0.00151863 -0.0017461 -0.00198271 -0.00222537 -0.00247408 -0.00272884 -0.00298612 -0.00324239 -0.00349764 -0.00375187 -0.00400097 -0.00424082 -0.00447142 -0.00469277 -0.00490113 -0.00509275 -0.00526764 -0.0054258 -0.00556527 -0.00568409 -0.00578226 -0.00585978 -0.00591741 -0.00595592 -0.00597531 -0.00597557 -0.00596007 -0.00593218 -0.00589189 -0.00583922 -0.00577889 -0.00571564 -0.00564947 -0.00558039 -0.00551247 -0.00544979 -0.00539236 -0.00534018 -0.0052944 -0.00525619 -0.00522553 -0.00520244 -0.00518354 -0.00516544 -0.00514814 -0.00513166 -0.00510843 -0.00507093 -0.00501915 -0.00495309 -0.00486444 -0.00474488 -0.00459442 -0.00441305 -0.00419738 -0.00394405 -0.00365304 -0.00332436 -0.00296433 -0.00257928 -0.0021692 -0.0017341 -0.00128979 -0.000852099 -0.000421019 3.44654e-06 0.000402585 0.000757685 0.00106875 0.00133577 0.00154681 0.00168995 0.00176518 0.0017725 0.00171347 0.00158965 0.00140104 0.00114763 0.000844005 0.000504734 0.000129817 -0.000280745 -0.000706452 -0.00112681 -0.0015418 -0.00195145 -0.00233836 -0.00268517 -0.00299187 -0.00325847 -0.00347665 -0.00363809 -0.00374279 -0.00379075 -0.00378372 -0.00372342 -0.00360985 -0.00344301 -0.00323305 -0.00299009 -0.00271415 -0.00240521 -0.00208131 -0.00176046 -0.00144268 -0.00112795 -0.000838229 -0.00059546 -0.000399642 -0.000250778 -0.000141062 -6.26944e-05 -1.56736e-05 0 0 -5.22967e-06 -2.09187e-05 -4.7067e-05 -8.36747e-05 -0.000140164 -0.000225958 -0.000341057 -0.00048546 -0.000657164 -0.000854162 -0.00107646 -0.00132404 -0.0015921 -0.0018758 -0.00217514 -0.00249012 -0.00281632 -0.00314931 -0.00348909 -0.00383566 -0.00418419 -0.00452983 -0.00487259 -0.00521246 -0.00554412 -0.00586221 -0.00616674 -0.00645771 -0.00673055 -0.0069807 -0.00720816 -0.00741292 -0.00759294 -0.00774615 -0.00787255 -0.00797215 -0.00804641 -0.00809677 -0.00812325 -0.00812584 -0.00810914 -0.00807772 -0.00803158 -0.00797073 -0.00790114 -0.00782875 -0.00775358 -0.00767562 -0.00759955 -0.00753005 -0.00746712 -0.00741076 -0.00736145 -0.00731966 -0.0072854 -0.00725867 -0.00723371 -0.00720479 -0.0071719 -0.00713505 -0.00708298 -0.00700442 -0.00689939 -0.00676787 -0.00659812 -0.00637835 -0.00610857 -0.00578878 -0.00541499 -0.0049832 -0.00449343 -0.00394566 -0.00335054 -0.00271869 -0.00205013 -0.00134484 -0.000627508 7.71794e-05 0.000769225 0.00144863 0.00208667 0.00265464 0.00315252 0.00358033 0.00391977 0.00415256 0.00427871 0.00429821 0.00421322 0.00402591 0.00373628 0.00334432 0.00287197 0.00234115 0.00175186 0.0011041 0.000429012 -0.000242263 -0.000909725 -0.00157337 -0.00220647 -0.00278226 -0.00330074 -0.00376193 -0.00415257 -0.0044594 -0.00468243 -0.00482166 -0.004879 -0.00485637 -0.00475376 -0.00457118 -0.0043231 -0.00402399 -0.00367386 -0.00327269 -0.00284598 -0.00241918 -0.0019923 -0.00156534 -0.00116949 -0.000835925 -0.000564653 -0.000355671 -0.000200065 -8.89178e-05 -2.22295e-05 0 0 -7.81102e-06 -3.12441e-05 -7.02992e-05 -0.000124976 -0.00020719 -0.000328855 -0.000489972 -0.000690539 -0.000927105 -0.00119622 -0.00149787 -0.00183207 -0.00219217 -0.0025715 -0.00297008 -0.00338789 -0.0038189 -0.00425705 -0.00470235 -0.00515478 -0.00560801 -0.00605569 -0.00649781 -0.00693437 -0.00735872 -0.00776419 -0.0081508 -0.00851853 -0.00886205 -0.00917604 -0.00946048 -0.00971538 -0.00993879 -0.0101287 -0.0102852 -0.0104082 -0.0105002 -0.0105636 -0.0105983 -0.0106043 -0.0105877 -0.0105545 -0.0105046 -0.0104381 -0.0103621 -0.010284 -0.0102036 -0.0101209 -0.0100411 -0.00996922 -0.00990521 -0.0098491 -0.00980021 -0.00975784 -0.00972201 -0.00969269 -0.00966103 -0.00961814 -0.00956403 -0.00949869 -0.00940623 -0.00927079 -0.00909235 -0.00887092 -0.00859058 -0.00823544 -0.0078055 -0.00730075 -0.00671671 -0.00604892 -0.00529737 -0.00446206 -0.0035593 -0.0026054 -0.00160036 -0.00054418 0.000527143 0.00157761 0.00260722 0.00361597 0.00456248 0.00540535 0.00614459 0.0067802 0.00728585 0.00763524 0.00782835 0.0078652 0.00774866 0.0074816 0.00706401 0.00649591 0.00580842 0.00503268 0.00416869 0.00321646 0.00222051 0.0012254 0.000231119 -0.000762332 -0.00171633 -0.00259224 -0.00339007 -0.00410981 -0.00473187 -0.00523661 -0.00562404 -0.00589417 -0.00604896 -0.00609037 -0.0060184 -0.00583306 -0.00555405 -0.00520109 -0.00477416 -0.00427327 -0.00373282 -0.0031872 -0.0026364 -0.00208043 -0.0015616 -0.00112219 -0.000762212 -0.000481665 -0.000270936 -0.000120416 -3.01041e-05 0 0 -1.10003e-05 -4.40012e-05 -9.90027e-05 -0.000176005 -0.000289428 -0.000453692 -0.000668796 -0.000934742 -0.00124594 -0.00159679 -0.0019873 -0.00241747 -0.00287836 -0.00336104 -0.00386551 -0.00439177 -0.00493186 -0.00547783 -0.00602966 -0.00658737 -0.00714304 -0.00768876 -0.00822453 -0.00875036 -0.00925854 -0.00974138 -0.0101989 -0.010631 -0.0110323 -0.0113973 -0.0117258 -0.012018 -0.0122726 -0.0124886 -0.0126659 -0.0128045 -0.0129083 -0.0129812 -0.0130231 -0.0130341 -0.0130217 -0.0129933 -0.0129489 -0.0128885 -0.0128201 -0.0127516 -0.0126831 -0.0126145 -0.0125503 -0.0124952 -0.012449 -0.0124118 -0.0123806 -0.0123524 -0.012327 -0.0123046 -0.0122719 -0.0122155 -0.0121356 -0.012032 -0.0118831 -0.0116672 -0.0113843 -0.0110344 -0.0105967 -0.0100506 -0.00939604 -0.00863304 -0.00775714 -0.00676391 -0.00565334 -0.00442544 -0.00310437 -0.00171432 -0.000255284 0.00127273 0.00281887 0.00433228 0.00581295 0.00726088 0.00861835 0.00982765 0.0108888 0.0118017 0.0125299 0.0130366 0.013322 0.0133859 0.013232 0.012864 0.0122819 0.0114857 0.010518 0.00942154 0.00819631 0.00684231 0.0054211 0.00399425 0.00256177 0.00112365 -0.000266124 -0.00155357 -0.00273868 -0.00382147 -0.00477381 -0.0055676 -0.00620283 -0.00667951 -0.00699922 -0.00716355 -0.0071725 -0.00702607 -0.00675007 -0.00637031 -0.0058868 -0.00529953 -0.00465332 -0.003993 -0.00331857 -0.00263002 -0.00198265 -0.00143175 -0.000977337 -0.000619399 -0.000348412 -0.00015485 -3.87124e-05 0 0 -1.48149e-05 -5.92596e-05 -0.000133334 -0.000237038 -0.000387092 -0.000600213 -0.000876402 -0.00121566 -0.00160928 -0.00204855 -0.00253347 -0.00306404 -0.00362847 -0.00421496 -0.00482351 -0.00545412 -0.00609662 -0.00674087 -0.00738685 -0.00803457 -0.00867468 -0.00929782 -0.00990399 -0.0104932 -0.0110574 -0.0115884 -0.0120863 -0.0125511 -0.0129781 -0.0133629 -0.0137054 -0.0140056 -0.0142644 -0.0144826 -0.0146602 -0.0147973 -0.0149 -0.0149745 -0.0150206 -0.0150385 -0.0150369 -0.0150248 -0.0150022 -0.014969 -0.014933 -0.0149019 -0.0148757 -0.0148544 -0.0148403 -0.0148359 -0.0148409 -0.0148556 -0.0148726 -0.0148848 -0.0148921 -0.0148946 -0.0148727 -0.014807 -0.0146976 -0.0145444 -0.0143185 -0.0139908 -0.0135614 -0.0130303 -0.0123713 -0.0115582 -0.010591 -0.00946974 -0.00819086 -0.00675089 -0.00514982 -0.00338767 -0.00149949 0.000479642 0.00254973 0.00471077 0.0068924 0.00902428 0.0111064 0.0131387 0.0150426 0.0167394 0.0182289 0.0195113 0.0205367 0.0212554 0.0216674 0.0217726 0.0215755 0.0210806 0.0202877 0.019197 0.0178654 0.01635 0.0146507 0.0127676 0.0107838 0.00878236 0.00676327 0.00472655 0.00274597 0.000895309 -0.000825424 -0.00241623 -0.00383766 -0.00505024 -0.00605399 -0.00684889 -0.00743542 -0.00781405 -0.00798479 -0.00794762 -0.00773531 -0.00738061 -0.00688352 -0.00624405 -0.00551897 -0.00476509 -0.00398239 -0.00317087 -0.00240072 -0.00174211 -0.00119504 -0.000759514 -0.000427227 -0.000189878 -4.74696e-05 0 0 -1.92548e-05 -7.70192e-05 -0.000173293 -0.000308077 -0.000500182 -0.000768419 -0.00111279 -0.00153329 -0.00201712 -0.00255149 -0.00313638 -0.0037718 -0.00444252 -0.00513328 -0.00584408 -0.00657493 -0.00731318 -0.00804617 -0.00877391 -0.00949639 -0.0102029 -0.0108829 -0.0115362 -0.0121629 -0.0127552 -0.0133052 -0.013813 -0.0142786 -0.0146994 -0.015073 -0.0153992 -0.0156782 -0.0159139 -0.0161106 -0.0162683 -0.0163868 -0.0164755 -0.0165435 -0.0165907 -0.0166173 -0.0166334 -0.0166492 -0.0166646 -0.0166797 -0.016701 -0.016735 -0.0167816 -0.0168408 -0.0169112 -0.0169912 -0.017081 -0.0171804 -0.0172762 -0.0173552 -0.0174173 -0.0174625 -0.0174634 -0.0173926 -0.0172501 -0.0170359 -0.0167123 -0.0162416 -0.0156238 -0.0148588 -0.0139145 -0.0127584 -0.0113905 -0.00981086 -0.00801786 -0.00600984 -0.0037868 -0.00134875 0.00125534 0.00397648 0.00681467 0.00976992 0.0127477 0.0156536 0.0184876 0.0212496 0.0238353 0.0261405 0.028165 0.0299089 0.0313063 0.0322916 0.0328646 0.0330254 0.0327792 0.0321312 0.0310814 0.0296298 0.0278506 0.0258179 0.0235319 0.0209924 0.0183086 0.0155897 0.0128356 0.0100464 0.00731994 0.00475439 0.00234971 0.000105889 -0.00192341 -0.00368455 -0.00517751 -0.00640231 -0.00735755 -0.00804187 -0.00845525 -0.00859771 -0.00850977 -0.00823198 -0.00776433 -0.00710683 -0.00632978 -0.00550345 -0.00462786 -0.003703 -0.00281582 -0.00205326 -0.00141533 -0.00090201 -0.000507381 -0.000225502 -5.63756e-05 0 0 -2.432e-05 -9.72802e-05 -0.00021888 -0.000389121 -0.000628698 -0.00095831 -0.00137796 -0.00188764 -0.00246948 -0.00310561 -0.00379603 -0.00454075 -0.00532048 -0.00611597 -0.00692722 -0.00775422 -0.00858154 -0.00939375 -0.0101908 -0.0109728 -0.0117278 -0.0124439 -0.0131211 -0.0137594 -0.014352 -0.0148919 -0.0153791 -0.0158137 -0.0161963 -0.0165274 -0.0168073 -0.0170357 -0.0172214 -0.0173728 -0.01749 -0.0175729 -0.0176346 -0.0176882 -0.0177335 -0.0177707 -0.0178111 -0.0178662 -0.0179361 -0.0180206 -0.0181241 -0.0182507 -0.0184006 -0.0185736 -0.0187628 -0.0189613 -0.0191691 -0.0193862 -0.0195914 -0.0197635 -0.0199025 -0.0200084 -0.0200441 -0.0199723 -0.0197931 -0.0195065 -0.0190646 -0.0184196 -0.0175713 -0.0165199 -0.0152261 -0.013651 -0.0117944 -0.0096564 -0.00723814 -0.00454077 -0.00156429 0.00169132 0.00516012 0.0087762 0.0125396 0.0164502 0.0203849 0.0242203 0.0279565 0.0315934 0.0349964 0.038031 0.040697 0.0429944 0.0448387 0.0461451 0.0469136 0.0471443 0.046843 0.0460159 0.044663 0.0427841 0.0404735 0.0378254 0.0348398 0.0315166 0.0279956 0.0244163 0.0207788 0.0170831 0.0134558 0.0100237 0.00678671 0.0037449 0.000968925 -0.00147051 -0.0035734 -0.00533976 -0.00676562 -0.007847 -0.00858391 -0.00897634 -0.00907346 -0.00892442 -0.00852923 -0.00788789 -0.00708573 -0.00620809 -0.00525499 -0.00422641 -0.00322795 -0.00236521 -0.00163819 -0.00104689 -0.000588874 -0.000261722 -6.54305e-05 0 0 -2.98815e-05 -0.000119526 -0.000268933 -0.000478104 -0.000769218 -0.00116446 -0.00166382 -0.00226731 -0.0029508 -0.00369015 -0.00448537 -0.00533645 -0.00621929 -0.00710978 -0.00800793 -0.00891373 -0.00980857 -0.0106738 -0.0115095 -0.0123157 -0.0130794 -0.013788 -0.0144413 -0.0150395 -0.0155776 -0.0160509 -0.0164594 -0.0168031 -0.0170876 -0.0173188 -0.0174966 -0.017621 -0.0177071 -0.0177698 -0.0178092 -0.0178253 -0.0178362 -0.01786 -0.0178967 -0.0179462 -0.0180212 -0.0181341 -0.0182849 -0.0184737 -0.0187007 -0.0189663 -0.0192705 -0.0196133 -0.0199796 -0.0203545 -0.020738 -0.02113 -0.0214988 -0.0218125 -0.022071 -0.0222744 -0.0223734 -0.0223187 -0.0221102 -0.0217481 -0.0211723 -0.0203232 -0.0192007 -0.0178049 -0.0160891 -0.0140069 -0.0115582 -0.00874306 -0.00556687 -0.00203497 0.00185264 0.00609595 0.0106081 0.0153023 0.0201784 0.0252365 0.0303189 0.0352679 0.0400835 0.0447658 0.0491446 0.0530497 0.0564811 0.0594389 0.0618166 0.0635076 0.064512 0.0648298 0.0644677 0.0634325 0.0617243 0.0593429 0.0564053 0.0530286 0.0492126 0.0449574 0.0404381 0.0358295 0.0311319 0.0263452 0.0216299 0.0171469 0.012896 0.00887739 0.00518239 0.00190247 -0.000962362 -0.0034121 -0.00543904 -0.00703546 -0.00820136 -0.00893674 -0.00930027 -0.0093506 -0.00908775 -0.00851171 -0.00772466 -0.0068288 -0.00582412 -0.00471063 -0.0036145 -0.00266193 -0.0018529 -0.00118741 -0.000667921 -0.000296854 -7.42134e-05 0 0 -3.581e-05 -0.00014324 -0.00032229 -0.00057296 -0.000918319 -0.00138143 -0.00196231 -0.00266093 -0.00344554 -0.00428433 -0.00517731 -0.00612449 -0.00709586 -0.00806144 -0.00902122 -0.00997521 -0.0109011 -0.0117767 -0.0126019 -0.0133768 -0.014088 -0.0147222 -0.0152794 -0.0157596 -0.0161617 -0.0164848 -0.0167287 -0.0168935 -0.0169927 -0.0170396 -0.0170344 -0.0169769 -0.0168915 -0.0168025 -0.0167099 -0.0166138 -0.0165389 -0.0165102 -0.0165278 -0.0165915 -0.0167146 -0.0169106 -0.0171794 -0.017521 -0.0179295 -0.0183989 -0.0189292 -0.0195204 -0.0201459 -0.0207792 -0.0214202 -0.0220689 -0.0226792 -0.023205 -0.0236461 -0.0240027 -0.0242103 -0.0242044 -0.0239851 -0.0235523 -0.0228323 -0.0217511 -0.0203088 -0.0185053 -0.0162862 -0.0135968 -0.0104373 -0.00680758 -0.00271921 0.00181628 0.00679887 0.0122286 0.0179926 0.0239781 0.0301851 0.0366137 0.0430649 0.0493401 0.0554393 0.0613625 0.0668982 0.0718353 0.0761735 0.0799131 0.0829225 0.0850706 0.0863573 0.0867825 0.0863539 0.0850788 0.0829572 0.0799891 0.0763171 0.0720835 0.0672884 0.0619318 0.0562293 0.0503967 0.0444339 0.038341 0.0323186 0.0265677 0.0210881 0.01588 0.01106 0.00674499 0.00293493 -0.000370171 -0.00315726 -0.00541328 -0.00713825 -0.00833215 -0.0090641 -0.00940318 -0.00934942 -0.0089028 -0.00818441 -0.00731535 -0.00629562 -0.00512521 -0.00395288 -0.00292738 -0.00204871 -0.00131686 -0.000740735 -0.000329216 -8.23039e-05 0 0 -4.21056e-05 -0.000168422 -0.000378951 -0.00067369 -0.001076 -0.00160924 -0.00227341 -0.0030685 -0.00395369 -0.00488815 -0.00587187 -0.00690486 -0.00795018 -0.00897093 -0.00996709 -0.0109387 -0.0118592 -0.0127023 -0.0134679 -0.0141561 -0.0147534 -0.0152464 -0.0156352 -0.0159198 -0.0161045 -0.0161936 -0.0161871 -0.0160851 -0.0159114 -0.0156899 -0.0154205 -0.0151033 -0.0147746 -0.0144709 -0.0141921 -0.0139383 -0.0137428 -0.013639 -0.0136269 -0.0137065 -0.0138916 -0.014196 -0.0146197 -0.0151627 -0.0158104 -0.0165484 -0.0173765 -0.0182949 -0.0192618 -0.0202354 -0.0212158 -0.0222029 -0.0231326 -0.0239409 -0.0246278 -0.0251932 -0.0255546 -0.0256294 -0.0254176 -0.0249193 -0.0240444 -0.0227031 -0.0208954 -0.0186211 -0.0158173 -0.0124209 -0.00843176 -0.00384996 0.00130484 0.00701297 0.0132744 0.0200892 0.0273136 0.0348038 0.0425598 0.0505817 0.058623 0.066437 0.0740238 0.0813834 0.0882575 0.0943878 0.0997743 0.104417 0.108157 0.110834 0.112449 0.113003 0.112502 0.110955 0.108362 0.104723 0.100209 0.0949902 0.0890672 0.0824398 0.0753695 0.0681178 0.0606848 0.0530705 0.045522 0.0382861 0.031363 0.0247527 0.0186018 0.013057 0.00811846 0.00378604 7.97437e-05 -0.00298045 -0.00539455 -0.00716256 -0.00836494 -0.00908216 -0.00931424 -0.00906116 -0.00846498 -0.00766775 -0.00666947 -0.00547015 -0.00424308 -0.00316157 -0.00222562 -0.00143523 -0.000807316 -0.000358807 -8.97018e-05 0 0 -4.87683e-05 -0.000195073 -0.000438915 -0.000780293 -0.00124226 -0.00184787 -0.00259712 -0.00349002 -0.00447527 -0.00550162 -0.00656905 -0.00767756 -0.00878227 -0.00983826 -0.0108455 -0.0118041 -0.0126829 -0.0134507 -0.0141076 -0.0146536 -0.0150757 -0.0153608 -0.015509 -0.0155201 -0.0154058 -0.0151773 -0.0148346 -0.0143778 -0.0138438 -0.0132696 -0.012655 -0.0120003 -0.0113565 -0.010775 -0.0102558 -0.00979885 -0.00944777 -0.00924614 -0.00919396 -0.00929123 -0.00955193 -0.00999004 -0.0106056 -0.0113985 -0.0123434 -0.0134148 -0.0146126 -0.0159369 -0.0173272 -0.0187232 -0.0201247 -0.0215319 -0.0228589 -0.0240203 -0.025016 -0.0258459 -0.0264064 -0.0265937 -0.0264079 -0.025849 -0.0248088 -0.0231794 -0.0209605 -0.0181524 -0.0146826 -0.010479 -0.00554154 0.000129815 0.00650528 0.0135551 0.0212793 0.0296778 0.038571 0.0477792 0.0573025 0.0671407 0.076993 0.0865585 0.095837 0.104829 0.113222 0.120707 0.127283 0.132951 0.137519 0.140798 0.142788 0.14349 0.142911 0.14106 0.137938 0.133544 0.12808 0.121749 0.114549 0.106481 0.0978584 0.0889928 0.0798847 0.0705339 0.0612399 0.0523022 0.0437207 0.0354955 0.0278077 0.0208386 0.0145882 0.00905652 0.00427196 0.000263022 -0.00297029 -0.00542797 -0.0072028 -0.00838754 -0.0089822 -0.00898679 -0.00856636 -0.00788599 -0.00694569 -0.00574545 -0.00448511 -0.00336451 -0.00238364 -0.00154252 -0.000867665 -0.000385629 -9.64072e-05 0 0 -5.56018e-05 -0.000222407 -0.000500416 -0.000889629 -0.00141193 -0.00208922 -0.00292148 -0.00390873 -0.00498763 -0.00609488 -0.00723047 -0.00839441 -0.00953248 -0.0105905 -0.0115684 -0.0124662 -0.0132475 -0.0138758 -0.0143512 -0.0146737 -0.0148311 -0.0148115 -0.0146149 -0.0142413 -0.0137116 -0.0130464 -0.0122459 -0.01131 -0.0102924 -0.00924697 -0.00817358 -0.00707227 -0.00601295 -0.00506556 -0.00423009 -0.00350655 -0.00295096 -0.00261938 -0.00251181 -0.00262824 -0.00298245 -0.00358824 -0.0044456 -0.00555453 -0.00687555 -0.00836919 -0.0100354 -0.0118743 -0.013802 -0.0157348 -0.0176726 -0.0196155 -0.0214515 -0.0230688 -0.0244674 -0.0256472 -0.0264798 -0.0268367 -0.0267181 -0.0261237 -0.0249254 -0.0229946 -0.0203314 -0.0169358 -0.0127262 -0.007621 -0.00162026 0.00527605 0.0130252 0.0215844 0.0309538 0.0411332 0.0519012 0.0630361 0.074538 0.086407 0.0982808 0.109798 0.120957 0.13176 0.141837 0.150821 0.158712 0.16551 0.170992 0.174937 0.177343 0.178211 0.17755 0.175369 0.171669 0.166449 0.159944 0.152387 0.143778 0.134118 0.123775 0.113114 0.102137 0.090844 0.0795919 0.0687387 0.0582845 0.0482293 0.0387941 0.0302001 0.0224472 0.0155354 0.00950419 0.00439279 0.000201226 -0.00307049 -0.00552811 -0.00727736 -0.00831825 -0.00865078 -0.00846513 -0.00795151 -0.00710992 -0.00594036 -0.00467121 -0.00353087 -0.00251934 -0.00163663 -0.000920602 -0.000409156 -0.000102289 0 0 -6.24098e-05 -0.000249639 -0.000561688 -0.000998557 -0.00157985 -0.00232517 -0.00323451 -0.00430789 -0.00546814 -0.00663811 -0.0078178 -0.00900721 -0.0101412 -0.0111546 -0.0120473 -0.0128195 -0.0134285 -0.0138316 -0.0140289 -0.0140204 -0.0137957 -0.0133448 -0.0126677 -0.0117642 -0.0106678 -0.00941161 -0.00799569 -0.00642004 -0.00475989 -0.00309046 -0.00141176 0.000276211 0.00188013 0.00330665 0.00455579 0.00562753 0.0064506 0.0069537 0.00713684 0.00700001 0.00653013 0.00571408 0.00455187 0.0030435 0.00124625 -0.000782608 -0.00304307 -0.00553515 -0.00814595 -0.0107626 -0.0133851 -0.0160134 -0.0185037 -0.0207122 -0.0226388 -0.0242835 -0.025489 -0.0260979 -0.0261101 -0.0255258 -0.0241939 -0.0219636 -0.018835 -0.014808 -0.00979203 -0.00369653 0.0034785 0.0117331 0.0210076 0.0312427 0.0424382 0.0545941 0.0674402 0.080706 0.0943915 0.108497 0.122592 0.136247 0.149463 0.162238 0.174146 0.184757 0.194073 0.202092 0.20856 0.213223 0.21608 0.217131 0.216386 0.213855 0.209538 0.203434 0.19581 0.186932 0.1768 0.165413 0.153196 0.140574 0.127547 0.114114 0.100697 0.0877187 0.0751779 0.063075 0.0516772 0.0412516 0.0317981 0.0233169 0.0158612 0.00948448 0.00418666 -3.22441e-05 -0.00329132 -0.00570968 -0.00728731 -0.00802422 -0.00813788 -0.00784575 -0.00714783 -0.00604412 -0.00479363 -0.00365536 -0.0026293 -0.00171546 -0.000964947 -0.000428865 -0.000107216 0 0 -6.91923e-05 -0.000276769 -0.00062273 -0.00110708 -0.00174601 -0.00255572 -0.00353622 -0.0046875 -0.00591678 -0.00713129 -0.00833101 -0.00951596 -0.0106084 -0.0115306 -0.0122825 -0.0128642 -0.0132259 -0.0133181 -0.0131407 -0.0126938 -0.0119696 -0.0109608 -0.00966716 -0.0080888 -0.00627446 -0.00427287 -0.00208405 0.000292 0.00275383 0.00519996 0.00763041 0.0100452 0.0123227 0.0143416 0.0161018 0.0176034 0.0187569 0.0194731 0.019752 0.0195935 0.0189858 0.0179169 0.0163868 0.0143956 0.012022 0.00934495 0.00636448 0.00308057 -0.000359036 -0.00380659 -0.00726209 -0.0107255 -0.0140154 -0.0169503 -0.0195301 -0.0217548 -0.023434 -0.0243771 -0.0245841 -0.0240551 -0.0226144 -0.0200865 -0.0164714 -0.0117691 -0.00588024 0.00129436 0.00975472 0.0195008 0.0304526 0.0425298 0.0557325 0.0700606 0.0851882 0.100789 0.116863 0.13341 0.149927 0.165908 0.181353 0.196264 0.210148 0.222515 0.233364 0.242696 0.250223 0.255658 0.259001 0.260252 0.259421 0.256519 0.251545 0.2445 0.23568 0.225385 0.213613 0.200365 0.186124 0.171373 0.156113 0.140344 0.124556 0.109242 0.0944009 0.0800327 0.0664571 0.0539932 0.0426412 0.032401 0.0233431 0.0155381 0.008986 0.00368678 -0.000492425 -0.00368448 -0.00588937 -0.00710712 -0.0075846 -0.00756869 -0.00705941 -0.00605675 -0.00485238 -0.00373797 -0.00271352 -0.00177903 -0.0010007 -0.000444756 -0.000111189 0 0 -7.59492e-05 -0.000303797 -0.000683543 -0.00121519 -0.00191041 -0.00278087 -0.00382659 -0.00504756 -0.00633357 -0.00757443 -0.00877012 -0.00992066 -0.0109341 -0.0117185 -0.0122738 -0.0126001 -0.0126397 -0.0123353 -0.0116866 -0.0106939 -0.00935279 -0.0076593 -0.00561338 -0.00321504 -0.000531557 0.00236981 0.00548904 0.00882615 0.0122487 0.0156243 0.0189529 0.0222346 0.0253149 0.0280394 0.0304081 0.032421 0.033968 0.0349389 0.0353336 0.0351523 0.0343846 0.0330202 0.0310593 0.0285016 0.0254516 0.0220135 0.0181872 0.0139729 0.00955872 0.00513321 0.000696331 -0.00375193 -0.00798671 -0.0117832 -0.0151413 -0.0180611 -0.0203148 -0.0216744 -0.0221401 -0.0217118 -0.020187 -0.0173633 -0.0132406 -0.007819 -0.00099079 0.00735168 0.0172084 0.0285794 0.0413601 0.0554459 0.0708367 0.0875327 0.105145 0.123285 0.141952 0.161147 0.180284 0.198779 0.216629 0.233837 0.249845 0.264095 0.276587 0.287322 0.29598 0.302241 0.306105 0.307572 0.306653 0.303359 0.29769 0.289645 0.279554 0.267745 0.254219 0.238974 0.222557 0.205511 0.187836 0.169534 0.151169 0.133309 0.115953 0.0991024 0.0831337 0.068425 0.0549763 0.0427876 0.0319498 0.0225537 0.0145993 0.00808658 0.00286858 -0.00120177 -0.00412445 -0.00589947 -0.00680528 -0.00712035 -0.00684467 -0.00597824 -0.00484746 -0.00377871 -0.00277199 -0.00182732 -0.00102787 -0.000456829 -0.000114207 0 0 -8.24578e-05 -0.000329831 -0.00074212 -0.00131933 -0.00206723 -0.00299161 -0.00409248 -0.00536983 -0.00669407 -0.00793561 -0.00909444 -0.0101706 -0.011056 -0.0116425 -0.0119302 -0.0119192 -0.0115429 -0.010735 -0.00949551 -0.00782444 -0.00572229