<?xml version="1.0"?> 
<VTKFile type="StructuredGrid" version="0.1"> 
<StructuredGrid WholeExtent="0 128 0 128 0 0"> 
<Piece Extent="0 128 0 128 0 0"> 
<PointData>
<DataArray type="Float32" Name="u" format="ascii" NumberOfComponents="1"> 
0 0 0 0 0 0 0 0 0 0 0 0 0 0 0 0 0 0 0 0 0 0 0 0 0 0 0 0 0 0 0 0 0 0 0 0 0 0 0 0 0 0 0 0 0 0 0 0 0 0 0 0 0 0 0 0 0 0 0 0 0 0 0 0 0 0 0 0 0 0 0 0 0 0 0 0 0 0 0 0 0 0 0 0 0 0 0 0 0 0 0 0 0 0 0 0 0 0 0 0 0 0 0 0 0 0 0 0 0 0 0 0 0 0 0 0 0 0 0 0 0 0 0 0 0 0 0 0 0 0 -5.45764e-08 -2.18306e-07 -4.91188e-07 -8.73222e-07 -1.57468e-06 -2.80584e-06 -4.56669e-06 -6.85723e-06 -9.68933e-06 -1.30748e-05 -1.70138e-05 -2.15061e-05 -2.64808e-05 -3.1867e-05 -3.76645e-05 -4.38735e-05 -5.04233e-05 -5.72435e-05 -6.4334e-05 -7.16949e-05 -7.92284e-05 -8.6837e-05 -9.45205e-05 -0.000102279 -0.000109976 -0.000117476 -0.000124778 -0.000131882 -0.000138643 -0.000144915 -0.0001507 -0.000155996 -0.000160704 -0.000164727 -0.000168064 -0.000170715 -0.000172676 -0.000173944 -0.000174519 -0.0001744 -0.00017369 -0.000172492 -0.000170807 -0.000168633 -0.000166142 -0.000163506 -0.000160725 -0.000157799 -0.000154895 -0.000152178 -0.000149651 -0.000147311 -0.000145242 -0.000143524 -0.00014216 -0.000141147 -0.000140434 -0.000139968 -0.000139748 -0.000139775 -0.000139874 -0.00013987 -0.000139765 -0.000139557 -0.00013904 -0.000138007 -0.000136458 -0.000134394 -0.000131709 -0.0001283 -0.000124166 -0.000119309 -0.000113829 -0.000107827 -0.000101305 -9.42605e-05 -8.69919e-05 -7.97952e-05 -7.26705e-05 -6.56177e-05 -5.89888e-05 -5.31358e-05 -4.80587e-05 -4.37574e-05 -4.04476e-05 -3.83451e-05 -3.74498e-05 -3.77618e-05 -3.92355e-05 -4.18255e-05 -4.55318e-05 -5.03544e-05 -5.60016e-05 -6.21817e-05 -6.88946e-05 -7.61404e-05 -8.3518e-05 -9.06262e-05 -9.74651e-05 -0.000104035 -0.000109996 -0.00011501 -0.000119078 -0.000122198 -0.00012421 -0.000124952 -0.000124426 -0.00012263 -0.00011961 -0.00011541 -0.000110032 -0.000103474 -9.59772e-05 -8.77834e-05 -7.8892e-05 -6.93031e-05 -5.94849e-05 -4.99053e-05 -4.05645e-05 -3.14623e-05 -2.31806e-05 -1.6301e-05 -1.08236e-05 -6.74836e-06 -3.79596e-06 -1.68709e-06 -4.21773e-07 0 0 -2.18306e-07 -8.73222e-07 -1.96475e-06 -3.49289e-06 -6.29873e-06 -1.12233e-05 -1.82667e-05 -2.74289e-05 -3.87573e-05 -5.22994e-05 -6.80551e-05 -8.60244e-05 -0.000105923 -0.000127468 -0.000150658 -0.000175494 -0.000201693 -0.000228974 -0.000257336 -0.000286779 -0.000316914 -0.000347348 -0.000378082 -0.000409116 -0.000439905 -0.000469903 -0.00049911 -0.000527526 -0.000554571 -0.000579661 -0.000602799 -0.000623983 -0.000642818 -0.000658909 -0.000672257 -0.00068286 -0.000690705 -0.000695777 -0.000698075 -0.000697599 -0.000694761 -0.00068997 -0.000683226 -0.00067453 -0.000664568 -0.000654025 -0.000642901 -0.000631197 -0.000619579 -0.000608714 -0.000598602 -0.000589244 -0.000580966 -0.000574098 -0.000568639 -0.000564588 -0.000561736 -0.00055987 -0.000558991 -0.000559098 -0.000559494 -0.000559481 -0.000559059 -0.000558227 -0.00055616 -0.000552028 -0.000545833 -0.000537574 -0.000526835 -0.000513199 -0.000496666 -0.000477236 -0.000455315 -0.000431309 -0.000405218 -0.000377042 -0.000347968 -0.000319181 -0.000290682 -0.000262471 -0.000235955 -0.000212543 -0.000192235 -0.000175029 -0.00016179 -0.00015338 -0.000149799 -0.000151047 -0.000156942 -0.000167302 -0.000182127 -0.000201418 -0.000224006 -0.000248727 -0.000275578 -0.000304562 -0.000334072 -0.000362505 -0.00038986 -0.000416139 -0.000439984 -0.000460041 -0.00047631 -0.000488791 -0.000496839 -0.00049981 -0.000497704 -0.00049052 -0.000478439 -0.000461641 -0.000440126 -0.000413894 -0.000383909 -0.000351133 -0.000315568 -0.000277213 -0.00023794 -0.000199621 -0.000162258 -0.000125849 -9.27224e-05 -6.52042e-05 -4.32945e-05 -2.69935e-05 -1.51838e-05 -6.74836e-06 -1.68709e-06 0 0 -4.91188e-07 -1.96475e-06 -4.42069e-06 -7.859e-06 -1.41721e-05 -2.52525e-05 -4.11002e-05 -6.17151e-05 -8.7204e-05 -0.000117674 -0.000153124 -0.000193555 -0.000238328 -0.000286803 -0.000338981 -0.000394861 -0.00045381 -0.000515191 -0.000579006 -0.000645254 -0.000713056 -0.000781533 -0.000850685 -0.000920512 -0.000989786 -0.00105728 -0.001123 -0.00118693 -0.00124778 -0.00130424 -0.0013563 -0.00140396 -0.00144634 -0.00148255 -0.00151258 -0.00153644 -0.00155409 -0.0015655 -0.00157067 -0.0015696 -0.00156321 -0.00155243 -0.00153726 -0.00151769 -0.00149528 -0.00147156 -0.00144653 -0.00142019 -0.00139405 -0.00136961 -0.00134685 -0.0013258 -0.00130717 -0.00129172 -0.00127944 -0.00127032 -0.00126391 -0.00125971 -0.00125773 -0.00125797 -0.00125886 -0.00125883 -0.00125788 -0.00125601 -0.00125136 -0.00124206 -0.00122812 -0.00120954 -0.00118538 -0.0011547 -0.0011175 -0.00107378 -0.00102446 -0.000970446 -0.000911741 -0.000848345 -0.000782927 -0.000718157 -0.000654034 -0.000590559 -0.000530899 -0.000478222 -0.000432528 -0.000393816 -0.000364029 -0.000345106 -0.000337048 -0.000339856 -0.00035312 -0.00037643 -0.000409786 -0.00045319 -0.000504015 -0.000559635 -0.000620051 -0.000685264 -0.000751662 -0.000815636 -0.000877186 -0.000936312 -0.000989964 -0.00103509 -0.0010717 -0.00109978 -0.00111789 -0.00112457 -0.00111983 -0.00110367 -0.00107649 -0.00103869 -0.000990285 -0.000931263 -0.000863795 -0.00079005 -0.000710028 -0.000623728 -0.000535364 -0.000449148 -0.00036508 -0.000283161 -0.000208625 -0.000146709 -9.74126e-05 -6.07353e-05 -3.41636e-05 -1.51838e-05 -3.79596e-06 0 0 -8.73222e-07 -3.49289e-06 -7.859e-06 -1.39716e-05 -2.51949e-05 -4.48934e-05 -7.3067e-05 -0.000109716 -0.000155029 -0.000209198 -0.00027222 -0.000344098 -0.000423693 -0.000509872 -0.000602632 -0.000701976 -0.000806773 -0.000915896 -0.00102934 -0.00114712 -0.00126765 -0.00138939 -0.00151233 -0.00163647 -0.00175962 -0.00187961 -0.00199644 -0.00211011 -0.00221828 -0.00231865 -0.0024112 -0.00249593 -0.00257127 -0.00263564 -0.00268903 -0.00273144 -0.00276282 -0.00278311 -0.0027923 -0.0027904 -0.00277904 -0.00275988 -0.0027329 -0.00269812 -0.00265827 -0.0026161 -0.0025716 -0.00252479 -0.00247831 -0.00243485 -0.00239441 -0.00235697 -0.00232386 -0.00229639 -0.00227455 -0.00225835 -0.00224694 -0.00223948 -0.00223596 -0.00223639 -0.00223798 -0.00223792 -0.00223624 -0.00223291 -0.00222464 -0.00220811 -0.00218333 -0.0021503 -0.00210734 -0.0020528 -0.00198666 -0.00190894 -0.00182126 -0.00172524 -0.00162087 -0.00150817 -0.00139187 -0.00127672 -0.00116273 -0.00104988 -0.000943821 -0.000850173 -0.000768939 -0.000700118 -0.000647162 -0.000613522 -0.000599197 -0.000604189 -0.000627768 -0.000669208 -0.000728509 -0.000805671 -0.000896026 -0.000994907 -0.00110231 -0.00121825 -0.00133629 -0.00145002 -0.00155944 -0.00166455 -0.00175994 -0.00184016 -0.00190524 -0.00195516 -0.00198736 -0.00199924 -0.00199081 -0.00196208 -0.00191376 -0.00184657 -0.00176051 -0.00165558 -0.00153564 -0.00140453 -0.00126227 -0.00110885 -0.000951758 -0.000798485 -0.000649032 -0.000503397 -0.00037089 -0.000260817 -0.000173178 -0.000107974 -6.07353e-05 -2.69935e-05 -6.74836e-06 0 0 -1.60056e-06 -6.40226e-06 -1.44051e-05 -2.5609e-05 -4.51843e-05 -7.83012e-05 -0.00012496 -0.00018516 -0.000258995 -0.000346557 -0.000447847 -0.000562866 -0.000689753 -0.000826653 -0.000973564 -0.00113049 -0.0012956 -0.00146707 -0.0016449 -0.0018291 -0.00201722 -0.00220679 -0.00239784 -0.00259034 -0.00278098 -0.0029664 -0.00314661 -0.0033216 -0.00348789 -0.00364198 -0.00378387 -0.00391356 -0.00402874 -0.0041271 -0.00420865 -0.00427337 -0.00432131 -0.00435247 -0.00436686 -0.00436447 -0.00434789 -0.00431967 -0.00427982 -0.00422835 -0.0041694 -0.00410714 -0.00404157 -0.00397269 -0.00390442 -0.00384069 -0.00378151 -0.00372687 -0.00367851 -0.00363817 -0.00360586 -0.00358157 -0.00356364 -0.00355044 -0.00354196 -0.0035382 -0.00353452 -0.00352626 -0.00351343 -0.00349604 -0.00346877 -0.00342635 -0.00336876 -0.00329602 -0.00320569 -0.00309537 -0.00296506 -0.00281475 -0.00264757 -0.00246664 -0.00227197 -0.00206356 -0.00184971 -0.00163875 -0.00143067 -0.00122547 -0.00103286 -0.00086256 -0.000714562 -0.000588868 -0.000491435 -0.000428219 -0.000399219 -0.000404437 -0.000442717 -0.000512905 -0.000614999 -0.000749001 -0.00090703 -0.0010812 -0.00127153 -0.00147799 -0.00168967 -0.00189561 -0.00209583 -0.00229031 -0.00246972 -0.0026247 -0.00275525 -0.00286137 -0.00293849 -0.00298201 -0.00299193 -0.00296826 -0.00291198 -0.00282409 -0.00270458 -0.00255346 -0.00237693 -0.0021812 -0.00196628 -0.00173216 -0.00149081 -0.0012542 -0.00102233 -0.000795209 -0.000587746 -0.000414865 -0.000276566 -0.00017285 -9.72282e-05 -4.32125e-05 -1.08031e-05 0 0 -2.90937e-06 -1.16375e-05 -2.61843e-05 -4.65499e-05 -7.99577e-05 -0.000133631 -0.000207571 -0.000301776 -0.000415861 -0.000549438 -0.000702509 -0.000875072 -0.00106424 -0.00126712 -0.00148372 -0.00171404 -0.00195529 -0.00220469 -0.00246224 -0.00272794 -0.00299824 -0.00326961 -0.00354203 -0.00381551 -0.00408543 -0.00434715 -0.00460067 -0.00484599 -0.00507844 -0.00529335 -0.00549071 -0.00567052 -0.00582987 -0.00596586 -0.00607848 -0.00616773 -0.00623395 -0.00627745 -0.00629823 -0.0062963 -0.00627537 -0.00623916 -0.00618767 -0.0061209 -0.00604452 -0.00596417 -0.00587986 -0.0057916 -0.00570442 -0.00562336 -0.00554841 -0.00547958 -0.00541859 -0.00536713 -0.00532522 -0.00529285 -0.00526679 -0.00524384 -0.00522399 -0.00520723 -0.00518615 -0.00515334 -0.00510879 -0.0050525 -0.00497653 -0.00487294 -0.00474172 -0.00458288 -0.00439341 -0.00417031 -0.00391358 -0.00362322 -0.00330523 -0.00296562 -0.0026044 -0.00222156 -0.00183137 -0.00144811 -0.00107176 -0.000702343 -0.000356165 -4.9549e-05 0.000217506 0.000444999 0.000622908 0.000741213 0.000799912 0.000799005 0.000740203 0.000625214 0.000454039 0.000226678 -4.40167e-05 -0.000345192 -0.000676848 -0.00103898 -0.00141352 -0.00178237 -0.00214554 -0.00250303 -0.00283913 -0.00313813 -0.00340003 -0.00362484 -0.00380452 -0.00393106 -0.00400446 -0.00402472 -0.00399291 -0.00391011 -0.00377631 -0.00359153 -0.00336518 -0.00310668 -0.00281603 -0.00249323 -0.0021562 -0.00182286 -0.00149321 -0.00116725 -0.000867425 -0.000616193 -0.000413553 -0.000259505 -0.000145972 -6.48763e-05 -1.62191e-05 0 0 -4.79963e-06 -1.91985e-05 -4.31967e-05 -7.67941e-05 -0.000129515 -0.000210884 -0.0003209 -0.000459565 -0.000625628 -0.000817841 -0.0010362 -0.00128072 -0.00154715 -0.00183129 -0.00213312 -0.00245264 -0.00278586 -0.00312876 -0.00348135 -0.00384363 -0.00421074 -0.00457783 -0.00494491 -0.00531198 -0.00567297 -0.00602185 -0.00635862 -0.00668327 -0.00698993 -0.00727274 -0.0075317 -0.0077668 -0.00797466 -0.0081519 -0.00829852 -0.00841451 -0.00850074 -0.00855804 -0.00858642 -0.00858588 -0.0085615 -0.00851836 -0.00845646 -0.00837579 -0.00828362 -0.00818718 -0.00808648 -0.00798153 -0.00787831 -0.00778284 -0.00769511 -0.00761512 -0.00754409 -0.00748327 -0.00743263 -0.0073922 -0.0073564 -0.00731968 -0.00728204 -0.00724348 -0.00719289 -0.00711917 -0.00702231 -0.00690231 -0.00674792 -0.00654789 -0.00630221 -0.00601089 -0.0056705 -0.00527761 -0.00483223 -0.00433435 -0.00379424 -0.00322218 -0.00261815 -0.00198217 -0.00133685 -0.000704793 -8.60133e-05 0.000519493 0.00108627 0.00158886 0.00202726 0.00240148 0.00269587 0.00289477 0.0029982 0.00300614 0.00292099 0.00274515 0.00247861 0.00212137 0.00169301 0.00121313 0.00068172 9.87791e-05 -0.000507843 -0.0011103 -0.00170859 -0.00230271 -0.00286816 -0.00338045 -0.00383958 -0.00424555 -0.00458546 -0.00484641 -0.00502841 -0.00513146 -0.00515653 -0.00510461 -0.0049757 -0.00476979 -0.00450039 -0.00418097 -0.00381153 -0.00339207 -0.00294794 -0.00250447 -0.00206166 -0.00161951 -0.00120993 -0.000864802 -0.000584139 -0.000367939 -0.000206966 -9.19847e-05 -2.29962e-05 0 0 -7.27135e-06 -2.90854e-05 -6.54422e-05 -0.000116342 -0.000193856 -0.000310058 -0.000464948 -0.000658526 -0.000888296 -0.00115177 -0.00144893 -0.0017798 -0.00213849 -0.00251914 -0.00292174 -0.00334628 -0.0037873 -0.00423928 -0.00470224 -0.00517617 -0.0056547 -0.00613147 -0.00660648 -0.00707973 -0.00754361 -0.00799052 -0.00842046 -0.00883343 -0.00922236 -0.00958016 -0.00990685 -0.0102024 -0.0104631 -0.0106852 -0.0108688 -0.0110137 -0.0111217 -0.0111942 -0.0112314 -0.0112332 -0.0112063 -0.0111573 -0.0110862 -0.010993 -0.0108867 -0.0107762 -0.0106614 -0.0105425 -0.0104261 -0.0103191 -0.0102216 -0.0101335 -0.010055 -0.00998657 -0.0099281 -0.00987962 -0.00983246 -0.00977796 -0.00971612 -0.00964695 -0.00955473 -0.00942374 -0.00925398 -0.00904546 -0.00878294 -0.00845119 -0.00805023 -0.00758004 -0.00703695 -0.00641727 -0.005721 -0.00494815 -0.00411461 -0.00323631 -0.00231324 -0.0013454 -0.000366136 0.00059119 0.00152658 0.00244004 0.00329444 0.00405267 0.00471472 0.00528058 0.00572744 0.00603246 0.00619563 0.00621696 0.00609965 0.0058469 0.0054587 0.00493507 0.00430406 0.00359377 0.00280418 0.0019353 0.00102736 0.00012061 -0.000784958 -0.00168934 -0.00255682 -0.00335168 -0.00407391 -0.00472352 -0.0052813 -0.00572806 -0.00606378 -0.00628847 -0.00640285 -0.0064076 -0.00630273 -0.00608824 -0.00578255 -0.00540406 -0.00495277 -0.00442868 -0.00386602 -0.00329902 -0.00272768 -0.002152 -0.00161525 -0.00116069 -0.000788324 -0.000498151 -0.00028021 -0.000124538 -3.11345e-05 0 0 -1.03631e-05 -4.14525e-05 -9.32681e-05 -0.00016581 -0.000273719 -0.000431636 -0.000639562 -0.000897496 -0.001201 -0.00154564 -0.00193141 -0.00235831 -0.00281838 -0.00330364 -0.00381409 -0.00434974 -0.00490333 -0.00546763 -0.00604263 -0.00662833 -0.00721681 -0.00780015 -0.00837834 -0.0089514 -0.00951041 -0.0100465 -0.0105596 -0.0110498 -0.0115093 -0.0119304 -0.0123131 -0.0126574 -0.0129598 -0.0132169 -0.0134287 -0.0135953 -0.0137194 -0.013804 -0.0138489 -0.0138543 -0.0138284 -0.0137796 -0.0137078 -0.013613 -0.0135055 -0.0133954 -0.0132827 -0.0131673 -0.0130561 -0.0129558 -0.0128663 -0.0127877 -0.0127181 -0.0126558 -0.0126006 -0.0125527 -0.0124989 -0.0124262 -0.0123345 -0.0122239 -0.0120728 -0.0118597 -0.0115846 -0.0112475 -0.0108285 -0.0103078 -0.00968535 -0.00896115 -0.00813187 -0.00719413 -0.00614795 -0.00499332 -0.00375406 -0.002454 -0.00109313 0.000328541 0.00176337 0.00316369 0.00452952 0.00586084 0.00710527 0.00821042 0.00917627 0.0100028 0.0106579 0.0111093 0.0113569 0.0114009 0.0112453 0.0108941 0.0103474 0.00960518 0.0087063 0.00768962 0.00655512 0.00530282 0.0039889 0.00266958 0.00134485 1.47022e-05 -0.00127044 -0.00246016 -0.00355446 -0.00455334 -0.0054291 -0.00615405 -0.00672818 -0.0071515 -0.00742394 -0.00754543 -0.00751597 -0.00733557 -0.00702839 -0.00661863 -0.00610626 -0.0054913 -0.00481839 -0.00413217 -0.00343264 -0.0027198 -0.00205022 -0.00148046 -0.00101052 -0.000640409 -0.00036023 -0.000160102 -4.00255e-05 0 0 -1.41135e-05 -5.64541e-05 -0.000127022 -0.000225816 -0.000369841 -0.000576098 -0.000844588 -0.00117531 -0.00156087 -0.00199388 -0.00247433 -0.00300223 -0.00356691 -0.00415773 -0.00477468 -0.00541775 -0.00607768 -0.00674517 -0.00742024 -0.00810288 -0.00878373 -0.00945347 -0.0101121 -0.0107596 -0.0113864 -0.0119831 -0.0125495 -0.0130858 -0.0135845 -0.0140384 -0.0144475 -0.0148117 -0.0151292 -0.0153979 -0.0156179 -0.0157892 -0.0159167 -0.0160051 -0.0160546 -0.0160651 -0.0160466 -0.016009 -0.0159522 -0.0158764 -0.0157919 -0.0157092 -0.0156282 -0.0155491 -0.0154767 -0.0154163 -0.0153677 -0.0153309 -0.0153002 -0.0152696 -0.0152392 -0.015209 -0.0151597 -0.0150718 -0.0149454 -0.0147806 -0.0145483 -0.0142199 -0.0137951 -0.0132741 -0.0126317 -0.0118427 -0.0109072 -0.00982504 -0.00859435 -0.00721304 -0.00568112 -0.00399859 -0.00220033 -0.000321247 0.00163867 0.00367941 0.00573428 0.00773657 0.0096863 0.0115834 0.0133557 0.0149306 0.0163083 0.0174888 0.0184276 0.0190802 0.0194469 0.0195274 0.0193269 0.0188503 0.0180977 0.0170691 0.0158169 0.0143936 0.0127991 0.0110336 0.00917359 0.00729584 0.00540033 0.00348707 0.00162568 -0.000114227 -0.00173265 -0.00322958 -0.0045659 -0.00570245 -0.00663923 -0.00737626 -0.00791188 -0.00824446 -0.00837398 -0.00830046 -0.00805466 -0.00766735 -0.00713853 -0.0064682 -0.005713 -0.00492957 -0.0041179 -0.003278 -0.00248167 -0.00180072 -0.00123516 -0.000784976 -0.000441549 -0.000196244 -4.9061e-05 0 0 -1.85225e-05 -7.40902e-05 -0.000166703 -0.000296361 -0.000482222 -0.000743444 -0.00108003 -0.00149197 -0.00196792 -0.0024965 -0.00307771 -0.00371156 -0.00438411 -0.00508142 -0.0058035 -0.00655034 -0.00731034 -0.00807193 -0.00883508 -0.00959981 -0.0103555 -0.0110915 -0.0118077 -0.0125043 -0.0131717 -0.0138003 -0.0143902 -0.0149413 -0.0154479 -0.0159041 -0.0163099 -0.0166654 -0.0169713 -0.0172282 -0.0174363 -0.0175954 -0.0177134 -0.0177977 -0.0178485 -0.0178657 -0.0178609 -0.0178455 -0.0178195 -0.017783 -0.0177457 -0.0177174 -0.017698 -0.0176876 -0.0176879 -0.0177006 -0.0177257 -0.0177631 -0.0178012 -0.0178281 -0.0178439 -0.0178486 -0.0178147 -0.0177148 -0.0175489 -0.017317 -0.0169813 -0.0165041 -0.0158854 -0.0151252 -0.0141924 -0.0130558 -0.0117156 -0.0101717 -0.0084244 -0.006474 -0.00432051 -0.00196394 0.000546588 0.00316196 0.00588216 0.0087072 0.0115466 0.0143098 0.0169969 0.0196078 0.0220457 0.0242134 0.0261109 0.0277384 0.0290364 0.0299454 0.0304654 0.0305964 0.0303445 0.0297156 0.0287097 0.0273268 0.0256359 0.0237057 0.0215363 0.0191276 0.0165814 0.0139994 0.0113815 0.00872777 0.00613153 0.0036861 0.00139151 -0.000752268 -0.0026917 -0.00437325 -0.00579694 -0.00696276 -0.00786668 -0.00850468 -0.00887675 -0.00898291 -0.00886133 -0.00855022 -0.00804957 -0.00735937 -0.00654985 -0.00569121 -0.00478346 -0.00382658 -0.00290958 -0.00212146 -0.00146222 -0.000931855 -0.000524168 -0.000232964 -5.82409e-05 0 0 -2.35902e-05 -9.43608e-05 -0.000212312 -0.000377443 -0.000610862 -0.000933674 -0.00134588 -0.00184748 -0.00242213 -0.00305348 -0.00374154 -0.0044863 -0.00526996 -0.00607471 -0.00690055 -0.00774749 -0.00860132 -0.00944788 -0.0102872 -0.0111191 -0.0119321 -0.0127141 -0.0134653 -0.0141856 -0.0148662 -0.0154982 -0.0160816 -0.0166164 -0.0170994 -0.0175274 -0.0179005 -0.0182185 -0.0184861 -0.0187079 -0.0188839 -0.019014 -0.0191095 -0.0191817 -0.0192306 -0.019256 -0.0192712 -0.0192891 -0.0193096 -0.0193329 -0.0193671 -0.0194201 -0.0194921 -0.0195831 -0.0196897 -0.0198088 -0.0199403 -0.0200843 -0.0202211 -0.0203312 -0.0204147 -0.0204714 -0.0204641 -0.0203553 -0.0201449 -0.0198331 -0.0193716 -0.0187124 -0.0178554 -0.0168007 -0.0155106 -0.0139473 -0.0121108 -0.0100012 -0.00762201 -0.004977 -0.00206613 0.00111061 0.00448669 0.00799561 0.0116374 0.0154119 0.0192003 0.0228834 0.0264614 0.029934 0.0331752 0.0360585 0.0385841 0.0407518 0.0424844 0.0437046 0.0444125 0.044608 0.0442981 0.0434899 0.0421833 0.0403784 0.0381632 0.0356259 0.0327665 0.0295849 0.0262124 0.0227802 0.0192884 0.0157368 0.0122471 0.00894084 0.00581801 0.00287861 0.000193504 -0.00216647 -0.0042013 -0.00591099 -0.00728833 -0.0083261 -0.0090243 -0.00938293 -0.00944843 -0.00926724 -0.00883938 -0.00816482 -0.00732894 -0.00641711 -0.00542931 -0.00436556 -0.00333397 -0.00244269 -0.00169172 -0.00108104 -0.000608087 -0.000270261 -6.75652e-05 0 0 -2.91927e-05 -0.000116771 -0.000262734 -0.000467083 -0.000752462 -0.00114152 -0.00163425 -0.00223065 -0.00290817 -0.00364422 -0.00443882 -0.00529195 -0.00618111 -0.00708379 -0.00799998 -0.0089297 -0.00985576 -0.010761 -0.0116455 -0.0125091 -0.0133393 -0.0141234 -0.0148614 -0.0155533 -0.0161921 -0.0167707 -0.0172892 -0.0177476 -0.0181471 -0.018489 -0.0187734 -0.0190002 -0.0191799 -0.0193228 -0.0194291 -0.0194987 -0.0195476 -0.0195919 -0.0196316 -0.0196667 -0.0197116 -0.0197807 -0.0198741 -0.0199917 -0.0201383 -0.0203189 -0.0205333 -0.0207816 -0.0210529 -0.0213365 -0.0216324 -0.0219405 -0.0222307 -0.0224728 -0.0226667 -0.0228125 -0.0228602 -0.0227601 -0.0225121 -0.0221162 -0.0215121 -0.0206394 -0.0194981 -0.0180882 -0.0163647 -0.0142828 -0.0118424 -0.00904351 -0.00589465 -0.00240437 0.00142734 0.00560047 0.0100269 0.0146186 0.0193754 0.0242975 0.0292314 0.0340237 0.0386744 0.0431835 0.0473902 0.0511335 0.0544136 0.0572303 0.0594856 0.0610816 0.0620181 0.0622951 0.0619208 0.0609032 0.0592421 0.0569377 0.0541001 0.0508395 0.0471558 0.0430492 0.0386851 0.0342294 0.029682 0.0250429 0.0204674 0.0161106 0.0119726 0.00805325 0.00444471 0.00123899 -0.00156393 -0.00396403 -0.00594966 -0.00750919 -0.00864262 -0.00934993 -0.00968672 -0.00970857 -0.00941547 -0.00880742 -0.00798681 -0.00705601 -0.00601503 -0.00486386 -0.00373178 -0.00274806 -0.00191269 -0.00122567 -0.00068944 -0.000306418 -7.66045e-05 0 0 -3.52062e-05 -0.000140825 -0.000316855 -0.000563298 -0.000903724 -0.0013617 -0.00193723 -0.00263032 -0.00341069 -0.0042481 -0.00514253 -0.006094 -0.0070742 -0.00805485 -0.00903593 -0.0100175 -0.0109788 -0.0118993 -0.0127791 -0.013618 -0.0144031 -0.0151214 -0.0157728 -0.0163574 -0.0168716 -0.017312 -0.0176786 -0.0179714 -0.0181988 -0.0183694 -0.018483 -0.0185398 -0.0185588 -0.018559 -0.0185405 -0.0185032 -0.0184698 -0.0184629 -0.0184824 -0.0185283 -0.0186162 -0.0187616 -0.0189645 -0.0192249 -0.019542 -0.0199151 -0.0203442 -0.0208293 -0.0213483 -0.0218795 -0.0224227 -0.022978 -0.0235008 -0.0239465 -0.0243151 -0.0246066 -0.0247555 -0.0246963 -0.024429 -0.0239537 -0.0231955 -0.0220796 -0.0206061 -0.0187749 -0.0165332 -0.0138284 -0.0106603 -0.00702889 -0.00294978 0.00156158 0.00650519 0.0118811 0.0175742 0.0234697 0.0295676 0.0358678 0.0421757 0.0482967 0.0542307 0.0599777 0.0653365 0.0701057 0.0742854 0.0778755 0.0807542 0.0827997 0.084012 0.084391 0.0839458 0.0826854 0.0806098 0.077719 0.074148 0.0700318 0.0653706 0.0601642 0.0546181 0.0489379 0.0431235 0.037175 0.0312875 0.0256561 0.0202809 0.0151618 0.0104169 0.00616418 0.00240356 -0.000864927 -0.00362352 -0.00585445 -0.00755773 -0.00873336 -0.009447 -0.00976433 -0.00968535 -0.00921006 -0.00845999 -0.0075567 -0.00650019 -0.00529045 -0.00407995 -0.00302119 -0.00211417 -0.00135887 -0.000764363 -0.000339717 -8.49292e-05 0 0 -4.16307e-05 -0.000166523 -0.000374676 -0.000666091 -0.00106465 -0.00159423 -0.00225483 -0.00304646 -0.00392969 -0.0048651 -0.00585269 -0.00689245 -0.00794924 -0.00898788 -0.0100084 -0.0110108 -0.0119704 -0.0128628 -0.013688 -0.0144458 -0.0151235 -0.0157081 -0.0161995 -0.0165978 -0.0169047 -0.017122 -0.0172497 -0.0172878 -0.0172546 -0.0171685 -0.0170294 -0.0168373 -0.0166228 -0.0164164 -0.016218 -0.0160278 -0.0158764 -0.0157947 -0.0157829 -0.0158408 -0.0159849 -0.0162315 -0.0165807 -0.0170324 -0.017578 -0.0182088 -0.0189249 -0.0197262 -0.020576 -0.0214378 -0.0223113 -0.0231968 -0.0240314 -0.0247524 -0.0253599 -0.0258538 -0.0261499 -0.0261639 -0.0258957 -0.0253455 -0.0244217 -0.023033 -0.0211794 -0.0188608 -0.0160161 -0.0125839 -0.00856435 -0.00395732 0.0012126 0.00692084 0.0131674 0.0199523 0.0271286 0.0345491 0.0422138 0.0501229 0.0580334 0.0657025 0.0731303 0.0803166 0.087014 0.092975 0.0981994 0.102687 0.10629 0.108859 0.110394 0.110896 0.110373 0.108837 0.106286 0.102722 0.0983067 0.0932029 0.0874106 0.08093 0.0740115 0.0669058 0.059613 0.052133 0.0447073 0.0375773 0.030743 0.0242044 0.0181102 0.0126091 0.00770116 0.0033863 -0.000309887 -0.00336187 -0.00576964 -0.0075332 -0.00872926 -0.00943454 -0.00964903 -0.00937273 -0.00874849 -0.00791918 -0.00688478 -0.0056453 -0.00437849 -0.00326211 -0.00229616 -0.00148063 -0.000832854 -0.000370157 -9.25393e-05 0 0 -4.84662e-05 -0.000193865 -0.000436196 -0.000775459 -0.00123523 -0.0018391 -0.00258705 -0.0034791 -0.00446518 -0.00549524 -0.00656929 -0.00768731 -0.00880621 -0.0098829 -0.0109174 -0.0119096 -0.0128307 -0.0136515 -0.0143721 -0.0149926 -0.0155004 -0.0158834 -0.0161414 -0.0162745 -0.0162914 -0.0162007 -0.0160025 -0.0156968 -0.0153145 -0.0148864 -0.0144124 -0.0138928 -0.013372 -0.012895 -0.0124617 -0.0120722 -0.0117671 -0.0115875 -0.0115332 -0.0116043 -0.0118177 -0.0121905 -0.0127227 -0.0134143 -0.0142464 -0.0152001 -0.0162754 -0.0174724 -0.018736 -0.0200113 -0.0212982 -0.0225968 -0.0238224 -0.0248905 -0.0258011 -0.0265542 -0.0270435 -0.0271628 -0.0269122 -0.0262916 -0.0251909 -0.0234997 -0.0212181 -0.0183461 -0.0148133 -0.0105495 -0.00555468 0.000171221 0.00659249 0.0136734 0.0214141 0.0298144 0.03869 0.0478566 0.0573142 0.0670627 0.0768044 0.0862412 0.0953731 0.1042 0.112423 0.119741 0.126156 0.131666 0.136093 0.13926 0.141165 0.141809 0.141202 0.139357 0.136271 0.131947 0.126576 0.120353 0.113276 0.105346 0.0968651 0.0881331 0.0791503 0.0699169 0.0607268 0.0518741 0.0433588 0.0351809 0.0275245 0.0205738 0.0143289 0.00878967 0.00399122 -3.14478e-05 -0.00327834 -0.00574946 -0.00753351 -0.00871919 -0.00930649 -0.00929543 -0.00885231 -0.00814343 -0.0071688 -0.00592843 -0.00462739 -0.0034708 -0.00245866 -0.00159096 -0.000894914 -0.00039774 -9.94349e-05 0 0 -5.55092e-05 -0.000222037 -0.000499583 -0.000888147 -0.00141012 -0.00208791 -0.0029215 -0.0039109 -0.00499375 -0.00610766 -0.00725265 -0.00842872 -0.00958343 -0.0106644 -0.0116715 -0.0126049 -0.0134304 -0.014114 -0.0146556 -0.0150553 -0.0153019 -0.0153843 -0.0153025 -0.0150566 -0.0146646 -0.0141444 -0.0134963 -0.01272 -0.0118629 -0.010972 -0.0100474 -0.00908898 -0.00815965 -0.00732214 -0.00657647 -0.00592261 -0.00541367 -0.00510271 -0.00498974 -0.00507475 -0.00537503 -0.00590786 -0.00667323 -0.00767114 -0.00886947 -0.0102361 -0.011771 -0.0134742 -0.0152677 -0.0170734 -0.0188915 -0.0207218 -0.0224531 -0.0239741 -0.0252847 -0.0263851 -0.0271431 -0.027427 -0.0272367 -0.0265722 -0.0253021 -0.0232952 -0.0205514 -0.0170708 -0.0127737 -0.00758068 -0.00149167 0.00549331 0.0133244 0.0219518 0.0313754 0.0415953 0.0523836 0.0635123 0.0749815 0.0867911 0.0985814 0.109992 0.121024 0.131676 0.141593 0.150418 0.158151 0.164792 0.170132 0.17396 0.176277 0.177082 0.176387 0.174205 0.170534 0.165376 0.158955 0.151496 0.142999 0.133464 0.123246 0.112701 0.101829 0.0906296 0.0794558 0.0686602 0.0582428 0.0482035 0.0387677 0.0301606 0.0223821 0.0154322 0.00935795 0.00420625 -2.28928e-05 -0.00332947 -0.00581488 -0.00758051 -0.00862636 -0.00895242 -0.00875068 -0.0082131 -0.00733969 -0.00613045 -0.00481993 -0.00364269 -0.00259873 -0.00168806 -0.000949535 -0.000422016 -0.000105504 0 0 -6.25562e-05 -0.000250225 -0.000563006 -0.0010009 -0.00158396 -0.00233226 -0.00324579 -0.00432456 -0.00549198 -0.00667151 -0.00786312 -0.00906683 -0.0102192 -0.0112568 -0.0121795 -0.0129875 -0.0136407 -0.014099 -0.0143624 -0.014431 -0.0142958 -0.0139477 -0.0133868 -0.0126131 -0.0116571 -0.0105494 -0.00929002 -0.00787886 -0.00638422 -0.00487436 -0.00334926 -0.00180893 -0.000338992 0.000974943 0.00213287 0.0031348 0.00391254 0.00439792 0.00459093 0.00449159 0.00408275 0.0033473 0.00228522 0.000896535 -0.000769622 -0.0026641 -0.00478688 -0.00713799 -0.00961054 -0.0120977 -0.0145994 -0.0171157 -0.0195026 -0.0216163 -0.0234568 -0.025024 -0.0261559 -0.0266904 -0.0266276 -0.0259673 -0.0245548 -0.0222353 -0.0190087 -0.0148752 -0.0097461 -0.00353295 0.00376427 0.0121455 0.0215429 0.0318883 0.0431819 0.0554235 0.0683345 0.0816362 0.0953287 0.109412 0.123457 0.137036 0.150147 0.162792 0.174554 0.185017 0.194182 0.202048 0.208374 0.21292 0.215684 0.216667 0.215882 0.213341 0.209044 0.202993 0.195442 0.186648 0.176611 0.165331 0.153221 0.140691 0.127742 0.114374 0.101004 0.0880488 0.0755091 0.0633846 0.051948 0.0414718 0.0319561 0.023401 0.0158684 0.00942065 0.00405766 -0.000220556 -0.00352851 -0.00598073 -0.00757721 -0.00831795 -0.00842285 -0.00811183 -0.00738487 -0.00624199 -0.00494936 -0.00377318 -0.00271344 -0.00177015 -0.000995708 -0.000442537 -0.000110634 0 0 -6.96071e-05 -0.000278429 -0.000626464 -0.00111371 -0.00175675 -0.00257216 -0.00355992 -0.00472006 -0.00595989 -0.00718677 -0.00840069 -0.00960165 -0.0107135 -0.0116601 -0.0124414 -0.0130574 -0.0134614 -0.0136064 -0.0134926 -0.0131198 -0.0124821 -0.0115736 -0.0103942 -0.008944 -0.00726913 -0.00541573 -0.00338381 -0.00117337 0.00112146 0.00340652 0.00568184 0.00794739 0.0100899 0.0119962 0.0136663 0.0151001 0.0162115 0.0169144 0.0172088 0.0170948 0.0165557 0.015575 0.0141526 0.0122887 0.0100532 0.00751589 0.00467691 0.00153621 -0.00176461 -0.00508398 -0.00842189 -0.0117783 -0.0149709 -0.0178172 -0.0203172 -0.022471 -0.0240818 -0.0249531 -0.0250848 -0.0244769 -0.0229488 -0.0203198 -0.01659 -0.0117593 -0.00573048 0.00159366 0.0102131 0.0201279 0.031248 0.0434831 0.0568334 0.0712988 0.0865427 0.102228 0.118356 0.134925 0.151432 0.167371 0.182743 0.197547 0.211306 0.223539 0.234248 0.243433 0.25082 0.256137 0.259385 0.260563 0.259685 0.256764 0.251801 0.244796 0.236036 0.225808 0.214113 0.20095 0.18679 0.172103 0.15689 0.14115 0.125371 0.11004 0.0951579 0.0807241 0.0670651 0.0545075 0.0430511 0.0326959 0.0235226 0.0156118 0.00896331 0.00357729 -0.000674406 -0.00391985 -0.00615905 -0.00739201 -0.00786882 -0.0078396 -0.00730434 -0.00626305 -0.0050157 -0.00386228 -0.00280278 -0.00183721 -0.00103343 -0.000459304 -0.000114826 0 0 -7.6662e-05 -0.000306648 -0.000689958 -0.00122659 -0.00192849 -0.00280759 -0.0038639 -0.0050974 -0.00639747 -0.00765346 -0.00886536 -0.0100332 -0.0110664 -0.0118743 -0.0124571 -0.0128147 -0.0128926 -0.0126364 -0.012046 -0.0111215 -0.00986083 -0.0082619 -0.00632472 -0.00404928 -0.0015005 0.00125671 0.00422237 0.00739646 0.0106542 0.0138707 0.0170459 0.02018 0.0231272 0.0257417 0.0280237 0.0299732 0.0314831 0.0324467 0.0328639 0.0327348 0.0320437 0.0307751 0.028929 0.0265055 0.0235989 0.0203039 0.0166204 0.0125484 0.00827012 0.00396765 -0.000359006 -0.00470984 -0.00885804 -0.0125768 -0.0158661 -0.018726 -0.0209208 -0.0222149 -0.0226083 -0.022101 -0.0204842 -0.017549 -0.0132952 -0.0077231 -0.000726858 0.00779915 0.0178549 0.0294405 0.0424396 0.0567361 0.07233 0.0892213 0.107008 0.125289 0.144063 0.163331 0.182505 0.200998 0.218811 0.235942 0.251848 0.265984 0.27835 0.288947 0.297469 0.303614 0.307381 0.308771 0.307797 0.304475 0.298805 0.290787 0.280738 0.268977 0.255504 0.240319 0.223952 0.206937 0.189272 0.170957 0.152557 0.134634 0.117189 0.100222 0.0841193 0.0692676 0.0556668 0.0433171 0.0323206 0.0227796 0.0146941 0.00806405 0.00274744 -0.00139787 -0.00437189 -0.0061746 -0.00708859 -0.00739643 -0.0070981 -0.00619363 -0.00501894 -0.00390998 -0.00286676 -0.00188926 -0.00106271 -0.000472316 -0.000118079 0 0 -8.34919e-05 -0.000333968 -0.000751427 -0.00133587 -0.0020932 -0.00302931 -0.00414422 -0.00543791 -0.00677969 -0.00803888 -0.00921547 -0.0103095 -0.0112139 -0.0118219 -0.0121334 -0.0121484 -0.0118039 -0.0110367 -0.00984696 -0.0082346 -0.00620275 -0.00375453 -0.00088