<?xml version="1.0"?> 
<VTKFile type="StructuredGrid" version="0.1"> 
<StructuredGrid WholeExtent="0 128 0 128 0 0"> 
<Piece Extent="0 128 0 128 0 0"> 
<PointData>
<DataArray type="Float32" Name="u" format="ascii" NumberOfComponents="1"> 
0 0 0 0 0 0 0 0 0 0 0 0 0 0 0 0 0 0 0 0 0 0 0 0 0 0 0 0 0 0 0 0 0 0 0 0 0 0 0 0 0 0 0 0 0 0 0 0 0 0 0 0 0 0 0 0 0 0 0 0 0 0 0 0 0 0 0 0 0 0 0 0 0 0 0 0 0 0 0 0 0 0 0 0 0 0 0 0 0 0 0 0 0 0 0 0 0 0 0 0 0 0 0 0 0 0 0 0 0 0 0 0 0 0 0 0 0 0 0 0 0 0 0 0 0 0 0 0 0 0 4.3528e-10 1.74112e-09 3.91752e-09 6.96449e-09 -1.94325e-07 -8.05158e-07 -1.82554e-06 -3.25546e-06 -5.18573e-06 -7.70718e-06 -1.08198e-05 -1.45236e-05 -1.87986e-05 -2.36248e-05 -2.90023e-05 -3.49311e-05 -4.13714e-05 -4.82837e-05 -5.5668e-05 -6.35243e-05 -7.17589e-05 -8.02782e-05 -8.90821e-05 -9.81708e-05 -0.000107367 -0.000116494 -0.00012555 -0.000134538 -0.000143225 -0.000151381 -0.000159006 -0.000166099 -0.000172468 -0.000177919 -0.000182451 -0.000186064 -0.000188708 -0.000190329 -0.000190928 -0.000190505 -0.000189197 -0.000187143 -0.000184342 -0.000180794 -0.000176772 -0.000172548 -0.000168123 -0.000163497 -0.000158942 -0.000154732 -0.000150868 -0.000147348 -0.000144313 -0.000141901 -0.000140114 -0.000138951 -0.000138367 -0.000138316 -0.000138799 -0.000139815 -0.000141196 -0.000142772 -0.000144542 -0.000146508 -0.000148501 -0.000150354 -0.000152067 -0.000153641 -0.000155014 -0.000156124 -0.00015697 -0.000157554 -0.000157929 -0.00015815 -0.000158218 -0.000158132 -0.000157988 -0.000157882 -0.000157814 -0.000157784 -0.000157846 -0.000158053 -0.000158405 -0.000158903 -0.000159535 -0.000160293 -0.000161175 -0.000162182 -0.000163268 -0.000164387 -0.000165539 -0.000166725 -0.000167881 -0.000168942 -0.000169909 -0.000170783 -0.000171465 -0.000171861 -0.00017197 -0.000171791 -0.000171192 -0.000170037 -0.000168328 -0.000166065 -0.000163121 -0.000159371 -0.000154816 -0.000149455 -0.000143257 -0.00013619 -0.000128254 -0.000119448 -0.000109932 -9.9862e-05 -8.92388e-05 -7.80623e-05 -6.67835e-05 -5.58536e-05 -4.52727e-05 -3.50406e-05 -2.57739e-05 -1.80886e-05 -1.19849e-05 -7.46275e-06 -4.1978e-06 -1.86569e-06 -4.66422e-07 0 0 1.74112e-09 6.96449e-09 1.56701e-08 2.78579e-08 -7.773e-07 -3.22063e-06 -7.30214e-06 -1.30218e-05 -2.07429e-05 -3.08287e-05 -4.32792e-05 -5.80944e-05 -7.51944e-05 -9.44994e-05 -0.000116009 -0.000139724 -0.000165486 -0.000193135 -0.000222672 -0.000254097 -0.000287036 -0.000321113 -0.000356328 -0.000392683 -0.000429468 -0.000465974 -0.000502202 -0.000538151 -0.000572899 -0.000605523 -0.000636022 -0.000664397 -0.000689873 -0.000711675 -0.000729803 -0.000744257 -0.00075483 -0.000761315 -0.000763711 -0.000762019 -0.000756789 -0.000748571 -0.000737367 -0.000723175 -0.000707086 -0.000690192 -0.000672492 -0.000653986 -0.000635768 -0.000618929 -0.00060347 -0.000589391 -0.000577251 -0.000567606 -0.000560457 -0.000555804 -0.000553467 -0.000553264 -0.000555195 -0.000559262 -0.000564785 -0.000571087 -0.000578169 -0.000586031 -0.000594002 -0.000601415 -0.00060827 -0.000614566 -0.000620056 -0.000624494 -0.00062788 -0.000630214 -0.000631715 -0.000632601 -0.000632871 -0.000632528 -0.000631952 -0.000631529 -0.000631257 -0.000631137 -0.000631384 -0.000632211 -0.000633621 -0.000635611 -0.000638142 -0.000641171 -0.0006447 -0.000648727 -0.000653071 -0.000657547 -0.000662157 -0.000666901 -0.000671522 -0.000675768 -0.000679637 -0.000683131 -0.000685862 -0.000687444 -0.000687878 -0.000687164 -0.000684767 -0.00068015 -0.000673314 -0.000664258 -0.000652482 -0.000637484 -0.000619263 -0.00059782 -0.000573028 -0.000544759 -0.000513014 -0.000477793 -0.000439727 -0.000399448 -0.000356955 -0.000312249 -0.000267134 -0.000223415 -0.000181091 -0.000140163 -0.000103095 -7.23544e-05 -4.79396e-05 -2.9851e-05 -1.67912e-05 -7.46275e-06 -1.86569e-06 0 0 3.91752e-09 1.56701e-08 3.52577e-08 6.26804e-08 -1.74893e-06 -7.24642e-06 -1.64298e-05 -2.92991e-05 -4.66716e-05 -6.93646e-05 -9.73782e-05 -0.000130712 -0.000169187 -0.000212624 -0.000261021 -0.00031438 -0.000372343 -0.000434554 -0.000501012 -0.000571719 -0.00064583 -0.000722503 -0.000801739 -0.000883537 -0.000966303 -0.00104844 -0.00112995 -0.00121084 -0.00128902 -0.00136243 -0.00143105 -0.00149489 -0.00155221 -0.00160127 -0.00164206 -0.00167458 -0.00169837 -0.00171296 -0.00171835 -0.00171454 -0.00170278 -0.00168429 -0.00165908 -0.00162714 -0.00159094 -0.00155293 -0.00151311 -0.00147147 -0.00143048 -0.00139259 -0.00135781 -0.00132613 -0.00129881 -0.00127711 -0.00126103 -0.00125056 -0.0012453 -0.00124484 -0.00124919 -0.00125834 -0.00127077 -0.00128495 -0.00130088 -0.00131857 -0.0013365 -0.00135318 -0.00136861 -0.00138277 -0.00139513 -0.00140511 -0.00141273 -0.00141798 -0.00142136 -0.00142335 -0.00142396 -0.00142319 -0.00142189 -0.00142094 -0.00142033 -0.00142006 -0.00142061 -0.00142248 -0.00142565 -0.00143013 -0.00143582 -0.00144264 -0.00145057 -0.00145964 -0.00146941 -0.00147948 -0.00148985 -0.00150053 -0.00151093 -0.00152048 -0.00152918 -0.00153704 -0.00154319 -0.00154675 -0.00154773 -0.00154612 -0.00154072 -0.00153034 -0.00151496 -0.00149458 -0.00146809 -0.00143434 -0.00139334 -0.00134509 -0.00128931 -0.00122571 -0.00115428 -0.00107503 -0.000989387 -0.000898758 -0.000803149 -0.00070256 -0.000601051 -0.000502683 -0.000407454 -0.000315366 -0.000231965 -0.000162797 -0.000107864 -6.71648e-05 -3.77802e-05 -1.67912e-05 -4.1978e-06 0 0 6.96449e-09 2.78579e-08 6.26804e-08 1.11432e-07 -3.1092e-06 -1.28825e-05 -2.92086e-05 -5.20873e-05 -8.29717e-05 -0.000123315 -0.000173117 -0.000232377 -0.000300777 -0.000377997 -0.000464037 -0.000558897 -0.000661943 -0.00077254 -0.000890689 -0.00101639 -0.00114814 -0.00128445 -0.00142531 -0.00157073 -0.00171787 -0.0018639 -0.00200881 -0.00215261 -0.0022916 -0.00242209 -0.00254409 -0.00265759 -0.00275949 -0.0028467 -0.00291921 -0.00297703 -0.00301932 -0.00304526 -0.00305485 -0.00304808 -0.00302716 -0.00299429 -0.00294947 -0.0028927 -0.00282835 -0.00276077 -0.00268997 -0.00261594 -0.00254307 -0.00247572 -0.00241388 -0.00235757 -0.002309 -0.00227042 -0.00224183 -0.00222322 -0.00221387 -0.00221306 -0.00222078 -0.00223705 -0.00225914 -0.00228435 -0.00231268 -0.00234412 -0.00237601 -0.00240566 -0.00243308 -0.00245826 -0.00248022 -0.00249798 -0.00251152 -0.00252086 -0.00252686 -0.0025304 -0.00253149 -0.00253011 -0.00252781 -0.00252612 -0.00252503 -0.00252455 -0.00252553 -0.00252885 -0.00253448 -0.00254244 -0.00255257 -0.00256469 -0.0025788 -0.00259491 -0.00261228 -0.00263019 -0.00264863 -0.0026676 -0.00268609 -0.00270307 -0.00271855 -0.00273252 -0.00274345 -0.00274978 -0.00275151 -0.00274866 -0.00273907 -0.0027206 -0.00269325 -0.00265703 -0.00260993 -0.00254994 -0.00247705 -0.00239128 -0.00229211 -0.00217904 -0.00205206 -0.00191117 -0.00175891 -0.00159779 -0.00142782 -0.001249 -0.00106854 -0.000893658 -0.000724363 -0.00056065 -0.000412382 -0.000289418 -0.000191758 -0.000119404 -6.71648e-05 -2.9851e-05 -7.46275e-06 0 0 -2.4528e-07 -9.81118e-07 -2.20752e-06 -3.92447e-06 -1.12102e-05 -2.91431e-05 -5.7723e-05 -9.69499e-05 -0.000148858 -0.00021548 -0.000296817 -0.000392868 -0.000503047 -0.000626764 -0.00076402 -0.000914816 -0.00107811 -0.00125288 -0.00143911 -0.0016368 -0.00184362 -0.00205722 -0.0022776 -0.00250477 -0.00273434 -0.00296194 -0.00318756 -0.00341121 -0.00362721 -0.00382988 -0.00401922 -0.00419523 -0.00435317 -0.00448833 -0.00460068 -0.00469024 -0.0047558 -0.00479614 -0.00481128 -0.00480121 -0.00476939 -0.00471929 -0.00465092 -0.00456426 -0.00446606 -0.00436305 -0.00425523 -0.00414261 -0.0040318 -0.00392943 -0.0038355 -0.00375002 -0.00367616 -0.00361711 -0.00357285 -0.00354339 -0.00352725 -0.00352294 -0.00353046 -0.00354981 -0.00357644 -0.00360581 -0.00363794 -0.0036728 -0.00370612 -0.00373361 -0.00375527 -0.00377109 -0.00377979 -0.00378006 -0.00377192 -0.00375537 -0.00373242 -0.00370511 -0.00367345 -0.00363742 -0.00360036 -0.00356558 -0.00353308 -0.00350287 -0.00347717 -0.00345818 -0.0034459 -0.00344035 -0.00344176 -0.00345038 -0.0034662 -0.00348923 -0.00351828 -0.00355217 -0.00359089 -0.00363444 -0.00368067 -0.00372743 -0.00377472 -0.00382254 -0.00386759 -0.00390659 -0.00393953 -0.00396642 -0.00398302 -0.0039851 -0.00397266 -0.0039457 -0.00390047 -0.00383323 -0.00374398 -0.00363271 -0.00349846 -0.00334021 -0.00315799 -0.00295178 -0.00272569 -0.00248384 -0.00222623 -0.00195285 -0.00167526 -0.00140503 -0.00114214 -0.000886605 -0.000654262 -0.000460953 -0.00030668 -0.000191442 -0.000107686 -4.78604e-05 -1.19651e-05 0 0 -1.00898e-06 -4.0359e-06 -9.08078e-06 -1.61436e-05 -3.24042e-05 -6.50422e-05 -0.000114058 -0.000179451 -0.000263544 -0.000368661 -0.000494801 -0.000641964 -0.000809077 -0.000995067 -0.00119993 -0.00142367 -0.00166468 -0.00192135 -0.00219367 -0.00248164 -0.00278191 -0.00309108 -0.00340916 -0.00373616 -0.00406589 -0.00439218 -0.00471502 -0.00503443 -0.00534245 -0.00563114 -0.00590051 -0.00615055 -0.00637473 -0.00656651 -0.00672588 -0.00685284 -0.0069459 -0.00700353 -0.00702574 -0.00701252 -0.00696893 -0.00690003 -0.0068058 -0.00668624 -0.00655086 -0.00640913 -0.00626106 -0.00610664 -0.0059549 -0.00581485 -0.00568649 -0.00556983 -0.00546864 -0.00538673 -0.00532408 -0.00528071 -0.00525355 -0.00523955 -0.00523871 -0.00525103 -0.00526919 -0.00528586 -0.00530103 -0.00531472 -0.00532046 -0.0053118 -0.00528875 -0.00525131 -0.00519825 -0.00512835 -0.00504161 -0.00493803 -0.00482224 -0.00469884 -0.00456784 -0.00442923 -0.00429019 -0.00415785 -0.00403222 -0.0039133 -0.00380652 -0.00371732 -0.00364569 -0.00359163 -0.00355678 -0.00354277 -0.00354961 -0.00357729 -0.003624 -0.00368791 -0.00376903 -0.00386735 -0.00397834 -0.00409745 -0.00422469 -0.00436006 -0.00449658 -0.00462725 -0.00475207 -0.00487105 -0.00497582 -0.00505801 -0.00511762 -0.00515465 -0.00516215 -0.00513316 -0.00506769 -0.00496574 -0.00482538 -0.00464471 -0.00442373 -0.00416242 -0.00386714 -0.00354421 -0.00319364 -0.00281542 -0.00242691 -0.00204548 -0.00167111 -0.00130382 -0.00096752 -0.000686142 -0.000459686 -0.00028815 -0.000162084 -7.20375e-05 -1.80094e-05 0 0 -2.28413e-06 -9.1365e-06 -2.05571e-05 -3.6546e-05 -6.66909e-05 -0.00012058 -0.000198213 -0.000299589 -0.00042703 -0.000582856 -0.000767068 -0.000979664 -0.00121887 -0.00148291 -0.00177177 -0.00208547 -0.00242165 -0.00277795 -0.00315437 -0.00355092 -0.003963 -0.00438603 -0.00481999 -0.00526489 -0.00571251 -0.0061546 -0.00659119 -0.00702225 -0.00743732 -0.00782589 -0.00818798 -0.00852357 -0.00882417 -0.00908124 -0.0092948 -0.00946484 -0.00958963 -0.00966742 -0.00969822 -0.00968202 -0.00962579 -0.00953649 -0.0094141 -0.00925865 -0.00908274 -0.00889901 -0.00870745 -0.00850806 -0.00831238 -0.00813198 -0.00796685 -0.00781698 -0.00768644 -0.00757929 -0.00749553 -0.00743516 -0.00739275 -0.00736288 -0.00734554 -0.00734073 -0.0073374 -0.00732448 -0.00730197 -0.00726987 -0.00721901 -0.00714023 -0.00703353 -0.00689892 -0.00673561 -0.00654283 -0.00632058 -0.00606886 -0.00579632 -0.00551159 -0.00521467 -0.00490556 -0.0045973 -0.00430292 -0.00402243 -0.00375583 -0.00351361 -0.00330628 -0.00313383 -0.00299628 -0.00289762 -0.00284187 -0.00282903 -0.00285909 -0.00292943 -0.00303742 -0.00318305 -0.00336633 -0.00357907 -0.00381312 -0.00406846 -0.0043451 -0.00463041 -0.00491175 -0.00518914 -0.00546256 -0.00571747 -0.00593933 -0.00612814 -0.0062839 -0.00639498 -0.00644975 -0.00644821 -0.00639035 -0.0062729 -0.00609253 -0.00584927 -0.0055431 -0.00518324 -0.00477889 -0.00433004 -0.0038367 -0.00332348 -0.00281501 -0.00231128 -0.00181229 -0.00135216 -0.000964985 -0.000650776 -0.00040953 -0.00023036 -0.000102382 -2.55956e-05 0 0 -4.07073e-06 -1.62829e-05 -3.66365e-05 -6.51316e-05 -0.000114071 -0.000195756 -0.000310188 -0.000457366 -0.000639317 -0.000858068 -0.00111362 -0.00140597 -0.00173242 -0.00209028 -0.00247954 -0.00290021 -0.00334901 -0.00382269 -0.00432123 -0.00484464 -0.00538691 -0.00594206 -0.00651008 -0.00709097 -0.0076742 -0.00824922 -0.00881605 -0.00937468 -0.00991181 -0.0104141 -0.0108816 -0.0113143 -0.0117015 -0.0120325 -0.0123075 -0.0125262 -0.012687 -0.0127878 -0.0128287 -0.0128097 -0.01274 -0.0126287 -0.0124758 -0.0122815 -0.0120617 -0.0118327 -0.0115944 -0.0113468 -0.0111042 -0.0108808 -0.0106766 -0.0104915 -0.0103296 -0.0101948 -0.0100872 -0.0100067 -0.00994486 -0.00989292 -0.00985094 -0.0098189 -0.00978107 -0.00972168 -0.00964074 -0.00953825 -0.00940178 -0.0092189 -0.00898961 -0.00871392 -0.00839186 -0.0080235 -0.00760883 -0.00714785 -0.00665466 -0.00614335 -0.00561392 -0.00506639 -0.00452169 -0.00400081 -0.00350373 -0.00303046 -0.00259842 -0.00222505 -0.00191034 -0.0016543 -0.00146429 -0.00134767 -0.00130445 -0.00133463 -0.00143458 -0.00160069 -0.00183295 -0.00213138 -0.00248289 -0.00287444 -0.00330603 -0.00377765 -0.00426908 -0.00476011 -0.00525072 -0.00574093 -0.00620796 -0.00662906 -0.00700422 -0.00733345 -0.00759896 -0.00778298 -0.00788551 -0.00790656 -0.00784099 -0.00768368 -0.00743462 -0.00709382 -0.006674 -0.00618787 -0.00563543 -0.00501669 -0.00436497 -0.00371362 -0.00306263 -0.00241202 -0.00180817 -0.00129748 -0.00087995 -0.00055558 -0.000312514 -0.000138895 -3.47238e-05 0 0 -6.52831e-06 -2.61132e-05 -5.87548e-05 -0.000104453 -0.00017828 -0.00029531 -0.000455542 -0.000658977 -0.000906607 -0.00119943 -0.00153744 -0.00192064 -0.002345 -0.00280645 -0.00330501 -0.00384068 -0.00440908 -0.00500584 -0.00563097 -0.00628446 -0.00695892 -0.00764697 -0.00834861 -0.00906383 -0.00977998 -0.0104844 -0.0111772 -0.0118582 -0.0125117 -0.0131218 -0.0136886 -0.0142121 -0.0146798 -0.0150793 -0.0154106 -0.0156737 -0.015867 -0.0159887 -0.0160389 -0.0160175 -0.0159362 -0.0158066 -0.0156286 -0.0154023 -0.0151472 -0.0148827 -0.0146088 -0.0143256 -0.0140492 -0.0137959 -0.0135656 -0.0133583 -0.0131768 -0.0130239 -0.0128996 -0.0128038 -0.0127233 -0.0126449 -0.0125685 -0.0124942 -0.0124002 -0.0122646 -0.0120874 -0.0118687 -0.0115922 -0.0112416 -0.010817 -0.0103182 -0.00974711 -0.00910548 -0.00839329 -0.00761056 -0.00677941 -0.00592199 -0.00503831 -0.00412835 -0.00322459 -0.00235948 -0.00153303 -0.000745237 -2.37e-05 0.000603977 0.00113779 0.00157775 0.00191135 0.0021261 0.002222 0.00219904 0.00206202 0.00181572 0.00146014 0.000995269 0.000441062 -0.000182544 -0.000875549 -0.00163795 -0.00243873 -0.00324685 -0.00406231 -0.00488512 -0.00568091 -0.00641529 -0.00708828 -0.00769987 -0.00822372 -0.00863348 -0.00892915 -0.00911072 -0.00917044 -0.00910054 -0.00890101 -0.00857185 -0.00812999 -0.00759233 -0.00695887 -0.00622962 -0.00544823 -0.00465839 -0.00386008 -0.00305331 -0.00229895 -0.00165789 -0.00113013 -0.000715652 -0.000402554 -0.000178913 -4.47283e-05 0 0 -9.81639e-06 -3.92655e-05 -8.83475e-05 -0.000157062 -0.000263058 -0.000423982 -0.000639836 -0.000910618 -0.00123511 -0.00161208 -0.00204153 -0.00252346 -0.00305185 -0.00362069 -0.00422996 -0.00487967 -0.00556415 -0.0062777 -0.00702035 -0.00779207 -0.00858432 -0.00938854 -0.0102047 -0.0110329 -0.0118589 -0.0126686 -0.013462 -0.0142392 -0.0149826 -0.0156749 -0.0163162 -0.0169063 -0.0174321 -0.0178803 -0.018251 -0.018544 -0.0187587 -0.0188942 -0.0189504 -0.0189274 -0.0188393 -0.0187002 -0.01851 -0.0182688 -0.0179987 -0.0177216 -0.0174377 -0.017147 -0.016866 -0.0166116 -0.0163838 -0.0161824 -0.0160071 -0.0158574 -0.0157333 -0.0156347 -0.0155416 -0.015434 -0.0153119 -0.0151753 -0.0149946 -0.0147402 -0.014412 -0.0140102 -0.0135138 -0.0129023 -0.0121756 -0.0113336 -0.0103814 -0.00932386 -0.00816089 -0.00689254 -0.00555273 -0.00417539 -0.0027605 -0.00130808 0.000132804 0.00151308 0.00283274 0.00409179 0.00524782 0.00625842 0.00712358 0.00784331 0.00839741 0.00876571 0.0089482 0.00894487 0.00876185 0.00840526 0.0078751 0.00717137 0.00632363 0.00536145 0.00428481 0.00309374 0.00183452 0.000553478 -0.000749395 -0.0020741 -0.00336991 -0.00458613 -0.00572276 -0.00677978 -0.00771892 -0.00850187 -0.00912863 -0.00959922 -0.00990204 -0.0100255 -0.00996966 -0.00973446 -0.00934176 -0.0088134 -0.00814938 -0.00734971 -0.00647013 -0.0055664 -0.0046385 -0.00368645 -0.0027879 -0.00202048 -0.00138422 -0.000879097 -0.000494492 -0.000219774 -5.49436e-05 0 0 -1.3935e-05 -5.57399e-05 -0.000125415 -0.00022296 -0.000368403 -0.000581772 -0.000863068 -0.00121229 -0.00162481 -0.00209601 -0.00262587 -0.00321441 -0.00385299 -0.00453298 -0.00525438 -0.00601719 -0.00681422 -0.00763827 -0.00848936 -0.00936747 -0.0102631 -0.0111668 -0.0120784 -0.0129982 -0.0139109 -0.0148017 -0.0156707 -0.0165176 -0.0173246 -0.0180735 -0.0187643 -0.019397 -0.0199585 -0.0204357 -0.0208286 -0.0211371 -0.0213621 -0.0215041 -0.0215632 -0.0215394 -0.0214493 -0.0213095 -0.0211201 -0.0208809 -0.0206161 -0.0203494 -0.0200811 -0.0198109 -0.0195547 -0.0193281 -0.0191312 -0.0189639 -0.0188205 -0.0186952 -0.0185882 -0.0184993 -0.0183997 -0.0182603 -0.0180811 -0.0178623 -0.0175645 -0.0171486 -0.0166146 -0.0159625 -0.0151665 -0.0142008 -0.0130654 -0.0117603 -0.0102949 -0.00867865 -0.00691163 -0.00499381 -0.00297463 -0.000903527 0.00121949 0.00339443 0.00555048 0.00761687 0.00959358 0.0114806 0.0132161 0.0147383 0.016047 0.0171424 0.0179939 0.0185712 0.0188741 0.0189029 0.0186649 0.0181679 0.017412 0.0163969 0.0151648 0.0137575 0.0121751 0.0104174 0.00855067 0.00664087 0.00468803 0.00269215 0.000725015 -0.00114158 -0.00290764 -0.00457317 -0.00608454 -0.00738814 -0.00848398 -0.00937204 -0.0100358 -0.0104586 -0.0106406 -0.0105816 -0.0103093 -0.00985109 -0.00920698 -0.00837697 -0.00743067 -0.00643765 -0.00539791 -0.00431145 -0.003275 -0.00238526 -0.00164223 -0.00104591 -0.000588327 -0.000261478 -6.53696e-05 0 0 -1.88841e-05 -7.55362e-05 -0.000169957 -0.000302145 -0.000494315 -0.00076868 -0.00112524 -0.00156399 -0.00207573 -0.00265122 -0.00329048 -0.0039935 -0.00474841 -0.00554334 -0.00637828 -0.00725323 -0.00815929 -0.00908755 -0.010038 -0.0110107 -0.0119953 -0.0129816 -0.0139698 -0.0149596 -0.0159361 -0.0168839 -0.0178031 -0.0186936 -0.0195377 -0.0203175 -0.021033 -0.0216842 -0.022259 -0.0227454 -0.0231434 -0.0234531 -0.0236772 -0.0238186 -0.0238774 -0.0238535 -0.0237661 -0.0236345 -0.0234587 -0.0232387 -0.0229994 -0.0227662 -0.0225388 -0.0223174 -0.0221152 -0.0219453 -0.0218078 -0.0217026 -0.0216168 -0.0215374 -0.0214644 -0.0213978 -0.0212975 -0.0211237 -0.0208762 -0.020555 -0.0201097 -0.0194898 -0.0186951 -0.0177258 -0.0165504 -0.0151373 -0.0134865 -0.011598 -0.00948734 -0.00716984 -0.00464551 -0.00191436 0.000954909 0.00389359 0.00690167 0.00997917 0.0130285 0.0159519 0.0187495 0.0214213 0.0238813 0.0260435 0.0279081 0.0294749 0.0307008 0.0315425 0.0319998 0.032073 0.0317712 0.0311038 0.0300707 0.028672 0.0269646 0.0250057 0.0227952 0.0203331 0.0177097 0.0150153 0.01225 0.00941362 0.00660388 0.00391836 0.00135706 -0.00108003 -0.00332059 -0.0052923 -0.00699517 -0.0084292 -0.00957166 -0.0103998 -0.0109138 -0.0111134 -0.0110326 -0.0107054 -0.0101316 -0.0093114 -0.00832984 -0.00727214 -0.00613829 -0.00492831 -0.00376026 -0.00275221 -0.00190415 -0.0012161 -0.000684058 -0.000304026 -7.60064e-05 0 0 -2.45812e-05 -9.83246e-05 -0.00022123 -0.000393299 -0.000638492 -0.000980773 -0.00142014 -0.0019566 -0.00257483 -0.00325952 -0.00401067 -0.00482828 -0.00569631 -0.00659873 -0.00753553 -0.00850671 -0.00950136 -0.0105085 -0.0115282 -0.0125605 -0.0135948 -0.0146206 -0.015638 -0.016647 -0.0176333 -0.0185829 -0.0194958 -0.0203719 -0.0211954 -0.0219505 -0.0226371 -0.0232554 -0.023796 -0.0242498 -0.0246167 -0.0248968 -0.0250963 -0.0252213 -0.0252719 -0.0252479 -0.0251713 -0.0250638 -0.0249254 -0.0247561 -0.0245807 -0.0244241 -0.0242863 -0.0241672 -0.0240751 -0.0240181 -0.0239962 -0.0240095 -0.0240346 -0.0240483 -0.0240505 -0.0240413 -0.0239665 -0.0237723 -0.0234585 -0.0230251 -0.0224081 -0.0215434 -0.020431 -0.0190708 -0.0174251 -0.0154559 -0.0131634 -0.0105474 -0.00763137 -0.00443883 -0.000969722 0.00277594 0.00670518 0.010725 0.0148355 0.0190365 0.0231972 0.0271867 0.0310049 0.0346519 0.0380122 0.0409704 0.0435265 0.0456805 0.0473735 0.0485467 0.0492002 0.0493338 0.0489588 0.0480863 0.0467162 0.0448486 0.0425585 0.0399207 0.0369354 0.0336026 0.0300417 0.0263725 0.0225949 0.018709 0.0148439 0.011129 0.00756429 0.00414974 0.000980829 -0.00184698 -0.00433369 -0.0064793 -0.00825327 -0.00962509 -0.0105947 -0.0111622 -0.0113687 -0.0112553 -0.0108219 -0.0100687 -0.0090985 -0.00801421 -0.00681584 -0.0055034 -0.00421871 -0.00310362 -0.00215812 -0.00138222 -0.000777497 -0.000345554 -8.63886e-05 0 0 -3.09438e-05 -0.000123775 -0.000278494 -0.000495101 -0.000798631 -0.00121412 -0.00174157 -0.00238097 -0.00310909 -0.00390269 -0.00476175 -0.00568629 -0.00665488 -0.00764612 -0.00866002 -0.00969655 -0.0107424 -0.0117842 -0.0128221 -0.0138559 -0.0148756 -0.0158712 -0.0168426 -0.0177898 -0.0187017 -0.0195669 -0.0203853 -0.0211571 -0.021871 -0.0225159 -0.0230916 -0.0235982 -0.0240319 -0.0243891 -0.0246696 -0.0248735 -0.025012 -0.0250961 -0.0251258 -0.0251012 -0.0250465 -0.0249859 -0.0249196 -0.0248474 -0.024792 -0.0247757 -0.0247987 -0.0248609 -0.0249619 -0.0251014 -0.0252792 -0.0254955 -0.0257125 -0.0258924 -0.0260353 -0.0261411 -0.026138 -0.0259541 -0.0255895 -0.0250441 -0.0242376 -0.0230894 -0.0215996 -0.0197683 -0.0175504 -0.0149012 -0.0118206 -0.00830863 -0.0043994 -0.000127015 0.00450852 0.0095072 0.0147455 0.0200998 0.0255703 0.0311567 0.0366872 0.0419897 0.0470642 0.0519107 0.056378 0.0603151 0.0637219 0.0665984 0.0688673 0.0704512 0.07135 0.0715639 0.0711059 0.0699891 0.0682135 0.0657791 0.0627818 0.0593174 0.055386 0.0509876 0.0462767 0.041408 0.0363813 0.0311968 0.0260223 0.0210257 0.016207 0.0115663 0.00722761 0.00331519 -0.000171008 -0.00323097 -0.00582421 -0.00791024 -0.00948907 -0.0105607 -0.0111745 -0.0113797 -0.0111764 -0.0105646 -0.0096675 -0.00860819 -0.00738672 -0.00600308 -0.00462539 -0.00342178 -0.00239226 -0.00153681 -0.000864456 -0.000384202 -9.60506e-05 0 0 -3.7972e-05 -0.000151888 -0.000341748 -0.000607552 -0.000974732 -0.00146872 -0.00208951 -0.00283712 -0.00367852 -0.00458072 -0.00554373 -0.00656752 -0.00762413 -0.00868553 -0.00975174 -0.0108228 -0.0118824 -0.0129147 -0.0139194 -0.0148968 -0.0158377 -0.0167332 -0.0175834 -0.0183882 -0.0191412 -0.0198357 -0.0204718 -0.0210494 -0.0215647 -0.0220137 -0.0223963 -0.0227126 -0.0229669 -0.0231634 -0.0233021 -0.0233832 -0.0234242 -0.0234428 -0.0234392 -0.0234132 -0.0233915 -0.0234009 -0.0234412 -0.0235126 -0.0236331 -0.0238209 -0.024076 -0.0243985 -0.0247757 -0.0251951 -0.0256568 -0.0261606 -0.0266504 -0.0270698 -0.0274187 -0.0276972 -0.0278119 -0.0276693 -0.0272693 -0.026612 -0.025598 -0.0241276 -0.022201 -0.0198181 -0.0169263 -0.013473 -0.0094582 -0.00488184 0.00020858 0.0057656 0.0117892 0.0182794 0.0250758 0.0320181 0.0391061 0.0463399 0.0534985 0.060361 0.0669274 0.0731976 0.0789787 0.0840776 0.0884943 0.0922287 0.0951822 0.0972557 0.0984494 0.0987633 0.0982125 0.0968122 0.0945625 0.0914633 0.0876345 0.0831957 0.078147 0.0724882 0.0664148 0.0601218 0.0536092 0.0468771 0.040139 0.0336084 0.0272852 0.0211696 0.0154198 0.0101942 0.00549288 0.0013158 -0.00228446 -0.0052553 -0.00759673 -0.00930874 -0.0104499 -0.0110786 -0.0111951 -0.0107991 -0.0100368 -0.0090541 -0.00785093 -0.00642735 -0.00498029 -0.00370669 -0.00260655 -0.00167988 -0.000944932 -0.00041997 -0.000104992 0 0 -4.56657e-05 -0.000182663 -0.000410991 -0.000730651 -0.00116679 -0.00174457 -0.00246398 -0.00332503 -0.00428311 -0.00529364 -0.0063566 -0.00747199 -0.00860404 -0.00971694 -0.0108107 -0.0118853 -0.0129215 -0.0138998 -0.0148204 -0.0156832 -0.016481 -0.0172068 -0.0178605 -0.0184422 -0.0189518 -0.0193894 -0.0197551 -0.0200487 -0.0202764 -0.0204439 -0.0205513 -0.0205986 -0.0206007 -0.0205726 -0.0205143 -0.0204257 -0.0203328 -0.0202616 -0.0202119 -0.0201839 -0.0202065 -0.0203086 -0.0204903 -0.0207515 -0.0211041 -0.0215597 -0.0221183 -0.02278 -0.0235164 -0.0242994 -0.0251289 -0.0260049 -0.0268483 -0.0275803 -0.0282008 -0.0287097 -0.0289883 -0.0289177 -0.0284979 -0.0277289 -0.0264894 -0.0246581 -0.0222352 -0.0192204 -0.0155529 -0.0111715 -0.00607616 -0.000266989 0.00619256 0.013239 0.0208724 0.0290926 0.0376962 0.0464797 0.0554429 0.0645859 0.0736311 0.0823006 0.0905945 0.0985128 0.105814 0.112258 0.117844 0.122571 0.126318 0.12896 0.130498 0.130932 0.130278 0.128556 0.125763 0.121901 0.117117 0.111556 0.105218 0.0981044 0.0904558 0.0825139 0.0742786 0.0657499 0.0571941 0.0488771 0.0407989 0.0329596 0.0255573 0.0187901 0.012658 0.007161 0.00236596 -0.00166028 -0.00491773 -0.0074064 -0.00919497 -0.0103521 -0.0108779 -0.0107723 -0.0102065 -0.00935192 -0.00820849 -0.00677622 -0.00528341 -0.00395834 -0.00280101 -0.00181143 -0.00101893 -0.000452857 -0.000113214 0 0 -5.37871e-05 -0.000215148 -0.000484084 -0.000860594 -0.00136857 -0.00203191 -0.00285061 -0.00382468 -0.00489582 -0.00600576 -0.0071545 -0.00834204 -0.00952321 -0.0106529 -0.011731 -0.0127576 -0.0137096 -0.0145639 -0.0153205 -0.0159794 -0.0165362 -0.0169866 -0.0173306 -0.0175681 -0.0177085 -0.017761 -0.0177257 -0.0176027 -0.0174114 -0.0171715 -0.016883 -0.016546 -0.0161897 -0.0158433 -0.0155069 -0.0151805 -0.0149004 -0.0147031 -0.0145885 -0.0145567 -0.0146387 -0.0148659 -0.015238 -0.0157553 -0.0164201 -0.0172351 -0.0182002 -0.0193155 -0.0205322 -0.0218015 -0.0231234 -0.024498 -0.0258182 -0.0269768 -0.0279739 -0.0288096 -0.0293349 -0.0294011 -0.0290082 -0.0281562 -0.0266991 -0.0244908 -0.0215314 -0.0178209 -0.0132894 -0.0078672 -0.00155422 0.00564952 0.0136609 0.0223967 0.031857 0.0420418 0.052697 0.0635686 0.0746566 0.0859609 0.0971393 0.107849 0.118091 0.127864 0.136875 0.14483 0.151728 0.15757 0.162206 0.165487 0.167413 0.167985 0.167222 0.165144 0.161751 0.157042 0.151194 0.14438 0.1366 0.127855 0.118436 0.108636 0.0984534 0.0878893 0.0772689 0.0669177 0.0568355 0.0470225 0.0377229 0.0291809 0.0213966 0.0143699 0.00818484 0.00292542 -0.00140837 -0.00481651 -0.00737866 -0.00917446 -0.0102039 -0.010467 -0.010163 -0.0094911 -0.00845135 -0.00704375 -0.00553051 -0.00417386 -0.0029738 -0.00193034 -0.00108581 -0.000482584 -0.000120646 0 0 -6.20983e-05 -0.000248393 -0.000558885 -0.000993573 -0.00157382 -0.00232097 -0.00323504 -0.00431601 -0.00548959 -0.00668144 -0.00789157 -0.00911999 -0.0103102 -0.0114058 -0.0124068 -0.0133131 -0.0140971 -0.0147312 -0.0152155 -0.0155498 -0.0157339 -0.0157673 -0.0156502 -0.0153824 -0.0149861 -0.0144834 -0.0138743 -0.0131587 -0.012375 -0.0115614 -0.010718 -0.00984471 -0.00898994 -0.00820205 -0.00748102 -0.00682688 -0.00628933 -0.00591811 -0.00571323 -0.00567468 -0.00583564 -0.00622927 -0.00685559 -0.00771458 -0.00879612 -0.01009 -0.0115964 -0.0133151 -0.0151709 -0.0170887 -0.0190684 -0.02111 -0.0230718 -0.024812 -0.0263307 -0.0276279 -0.0285194 -0.0288212 -0.0285333 -0.0276556 -0.0260143 -0.0234355 -0.0199192 -0.0154653 -0.00999545 -0.00343106 0.00422785 0.0129813 0.0227218 0.0333421 0.0448422 0.057222 0.0701685 0.0833689 0.096823 0.110531 0.124078 0.137048 0.149443 0.161261 0.172153 0.181768 0.190105 0.197166 0.202774 0.206756 0.209111 0.209838 0.208961 0.206502 0.20246 0.196836 0.189832 0.181651 0.172294 0.161759 0.150392 0.138539 0.126198 0.113369 0.100445 0.0878161 0.0754826 0.0634445 0.0519995 0.041445 0.0317811 0.0230078 0.0152299 0.00855237 0.00297507 -0.00150196 -0.00496989 -0.00751994 -0.00915209 -0.00986635 -0.00989269 -0.00946107 -0.0085715 -0.00722398 -0.00571732 -0.00435036 -0.00312308 -0.00203549 -0.00114496 -0.000508872 -0.000127218 0 0 -7.05993e-05 -0.000282397 -0.000635394 -0.00112959 -0.00178253 -0.00261175 -0.00361725 -0.00479904 -0.00606442 -0.00732068 -0.00856782 -0.00980585 -0.0109651 -0.0119758 -0.012838 -0.0135517 -0.0140839 -0.0144018 -0.0145053 -0.0143944 -0.014074 -0.013549 -0.0128194 -0.0118852 -0.0107848 -0.00955664 -0.00820066 -0.00671689 -0.00516724 -0.00361365 -0.00205612 -0.000494645 0.000998551 0.00235125 0.00356345 0.00463515 0.00550042 0.00609332 0.00641386 0.00646204 0.00620281 0.00560114 0.00465703 0.00337047 0.00176781 -0.000124615 -0.00230681 -0.00477876 -0.00743277 -0.0101611 -0.0129638 -0.0158407 -0.0186091 -0.0210859 -0.0232711 -0.0251647 -0.026542 -0.0271782 -0.0270732 -0.0262272 -0.0244352 -0.0214922 -0.0173984 -0.0121537 -0.00567093 0.00213698 0.01127 0.0217283 0.0333754 0.0460753 0.0598279 0.0746332 0.0901108 0.10588 0.121942 0.138296 0.154446 0.169897 0.184649 0.198703 0.211647 0.223071 0.232976 0.241361 0.248025 0.252768 0.25559 0.256491 0.255495 0.252629 0.24789 0.241281 0.23303 0.223369 0.212298 0.199816 0.186324 0.172223 0.157511 0.14219 0.126722 0.111572 0.0967401 0.0822256 0.0683869 0.0555822 0.0438114 0.0330747 0.0235013 0.0152206 0.00823257 0.00253728 -0.00196865 -0.00538856 -0.00772245 -0.00897033 -0.00939564 -0.00926184 -0.00856894 -0.00731692 -0.00584386 -0.00448784 -0.00324884 -0.00212689 -0.00119637 -0.000531721 -0.00013293 0 0 -7.92901e-05 -0.00031716 -0.000713611 -0.00126864 -0.0019947 -0.00290424 -0.00399726 -0.00527376 -0.00662031 -0.00792347 -0.00918324 -0.0103996 -0.0114878 -0.0123628 -0.0130247 -0.0134734 -0.0136701 -0.0135755 -0.0131899 -0.0125131 -0.0115565 -0.0103315 -0.00883815 -0.00707641 -0.00510451 -0.00298068 -0.000704913 0.00172278 0.00421186 0.00667178 0.00910255 0.0115042 0.0137758 0.0158165 0.0176265 0.0192056 0.0204688 0.0213312 0.0217928 0.0218535 0.0214766 0.0206254 0.0192998 0.0174999 0.0152717 0.0126612 0.00966847 0.00629345 0.00268235 -0.00101864 -0.00480953 -0.0086903 -0.0124302 -0.0157985 -0.0187951 -0.02142 -0.0234025 -0.0244719 -0.024628 -0.0238709 -0.0219616 -0.018661 -0.0139691 -0.00788598 -0.000315878 0.00883691 0.0195724 0.0318905 0.0456217 0.0605962 0.0768141 0.0942753 0.112524 0.131103 0.150014 0.169255 0.188244 0.206396 0.223711 0.24019 0.255357 0.26874 0.280339 0.290154 0.297957 0.303523 0.306852 0.307944 0.306825 0.303525 0.298043 0.290378 0.280789 0.269535 0.256614 0.242027 0.226232 0.209688 0.192394 0.174351 0.156101 0.138186 0.120608 0.103366 0.0868852 0.0715926 0.0574877 0.0445706 0.0329988 0.02293 0.0143641 0.00730118 0.00162506 -0.00278034 -0.005915 -0.00777894 -0.00867184 -0.00889341 -0.00844366 -0.00732256 -0.00591012 -0.0045863 -0.0033511 -0.00220453 -0.00124005 -0.000551131 -0.000137783 0 0 -8.78971e-05 -0.000351588 -0.000791074 -0.00140635 -0.00220324 -0.00318754 -0.00435925 -0.00571839 -0.00712822 -0.00845204 -0.00968985 -0.0108416 -0.0118051 -0.0124779 -0.01286 -0.0129515 -0.0127062 -0.0120783 -0.0110677 -0.00967448 -