<?xml version="1.0"?> 
<VTKFile type="StructuredGrid" version="0.1"> 
<StructuredGrid WholeExtent="0 128 0 128 0 0"> 
<Piece Extent="0 128 0 128 0 0"> 
<PointData>
<DataArray type="Float32" Name="u" format="ascii" NumberOfComponents="1"> 
0 0 0 0 0 0 0 0 0 0 0 0 0 0 0 0 0 0 0 0 0 0 0 0 0 0 0 0 0 0 0 0 0 0 0 0 0 0 0 0 0 0 0 0 0 0 0 0 0 0 0 0 0 0 0 0 0 0 0 0 0 0 0 0 0 0 0 0 0 0 0 0 0 0 0 0 0 0 0 0 0 0 0 0 0 0 0 0 0 0 0 0 0 0 0 0 0 0 0 0 0 0 0 0 0 0 0 0 0 0 0 0 0 0 0 0 0 0 0 0 0 0 0 0 0 0 0 0 0 0 -6.08023e-08 -2.43209e-07 -5.47221e-07 -9.72837e-07 -1.72985e-06 -3.02806e-06 -4.86746e-06 -7.24806e-06 -1.01713e-05 -1.36385e-05 -1.76497e-05 -2.22049e-05 -2.72253e-05 -3.26322e-05 -3.84256e-05 -4.46054e-05 -5.10961e-05 -5.78219e-05 -6.47828e-05 -7.19789e-05 -7.93126e-05 -8.66864e-05 -9.41002e-05 -0.000101554 -0.00010892 -0.00011607 -0.000123004 -0.000129722 -0.000136094 -0.000141991 -0.000147411 -0.000152356 -0.000156741 -0.000160485 -0.000163587 -0.000166047 -0.000167868 -0.000169055 -0.000169606 -0.000169523 -0.000168902 -0.00016784 -0.000166336 -0.000164392 -0.000162162 -0.000159803 -0.000157315 -0.000154699 -0.000152103 -0.000149681 -0.00014743 -0.000145351 -0.000143517 -0.000142001 -0.000140801 -0.000139918 -0.000139297 -0.000138881 -0.00013867 -0.000138665 -0.000138689 -0.000138564 -0.00013829 -0.000137869 -0.000137085 -0.000135727 -0.000133795 -0.000131288 -0.000128096 -0.00012411 -0.00011933 -0.000113755 -0.000107494 -0.000100655 -9.32384e-05 -8.5244e-05 -7.69963e-05 -6.88198e-05 -6.07145e-05 -5.26805e-05 -4.51114e-05 -3.84008e-05 -3.25488e-05 -2.75554e-05 -2.36688e-05 -2.11375e-05 -1.99614e-05 -2.01405e-05 -2.16314e-05 -2.43906e-05 -2.84181e-05 -3.37138e-05 -3.9956e-05 -4.68226e-05 -5.43136e-05 -6.2429e-05 -7.07255e-05 -7.87597e-05 -8.65314e-05 -9.40408e-05 -0.000100919 -0.000106799 -0.000111679 -0.00011556 -0.000118275 -0.000119657 -0.000119706 -0.000118421 -0.000115859 -0.000112076 -0.000107072 -0.000100846 -9.36516e-05 -8.57428e-05 -7.71191e-05 -6.77806e-05 -5.81975e-05 -4.88398e-05 -3.97076e-05 -3.08008e-05 -2.26931e-05 -1.59581e-05 -1.05959e-05 -6.60635e-06 -3.71607e-06 -1.65159e-06 -4.12897e-07 0 0 -2.43209e-07 -9.72837e-07 -2.18888e-06 -3.89135e-06 -6.91941e-06 -1.21122e-05 -1.94698e-05 -2.89922e-05 -4.0685e-05 -5.45538e-05 -7.05987e-05 -8.88195e-05 -0.000108901 -0.000130529 -0.000153702 -0.000178422 -0.000204384 -0.000231288 -0.000259131 -0.000287916 -0.00031725 -0.000346745 -0.000376401 -0.000406216 -0.00043568 -0.00046428 -0.000492016 -0.000518888 -0.000544377 -0.000567962 -0.000589644 -0.000609423 -0.000626966 -0.000641941 -0.000654348 -0.000664187 -0.000671473 -0.000676219 -0.000678425 -0.000678093 -0.000675608 -0.000671359 -0.000665345 -0.000657566 -0.000648648 -0.000639213 -0.000629262 -0.000618795 -0.000608414 -0.000598722 -0.000589719 -0.000581405 -0.000574069 -0.000568002 -0.000563203 -0.000559672 -0.000557187 -0.000555523 -0.000554681 -0.000554661 -0.000554755 -0.000554255 -0.000553161 -0.000551474 -0.000548341 -0.000542909 -0.00053518 -0.000525151 -0.000512385 -0.000496441 -0.000477319 -0.000455019 -0.000429975 -0.00040262 -0.000372954 -0.000340976 -0.000307985 -0.000275279 -0.000242858 -0.000210722 -0.000180446 -0.000153603 -0.000130195 -0.000110222 -9.46753e-05 -8.45499e-05 -7.98455e-05 -8.0562e-05 -8.65256e-05 -9.75624e-05 -0.000113672 -0.000134855 -0.000159824 -0.00018729 -0.000217254 -0.000249716 -0.000282902 -0.000315039 -0.000346126 -0.000376163 -0.000403678 -0.000427196 -0.000446717 -0.000462241 -0.000473101 -0.000478628 -0.000478822 -0.000473684 -0.000463437 -0.000448304 -0.000428286 -0.000403382 -0.000374606 -0.000342971 -0.000308476 -0.000271123 -0.00023279 -0.000195359 -0.00015883 -0.000123203 -9.07724e-05 -6.38325e-05 -4.23835e-05 -2.64254e-05 -1.48643e-05 -6.60635e-06 -1.65159e-06 0 0 -5.47221e-07 -2.18888e-06 -4.92499e-06 -8.75553e-06 -1.55687e-05 -2.72525e-05 -4.38072e-05 -6.52325e-05 -9.15413e-05 -0.000122746 -0.000158847 -0.000199844 -0.000245028 -0.00029369 -0.000345831 -0.000401449 -0.000459865 -0.000520397 -0.000583045 -0.00064781 -0.000713813 -0.000780177 -0.000846902 -0.000913986 -0.00098028 -0.00104463 -0.00110704 -0.0011675 -0.00122485 -0.00127791 -0.0013267 -0.0013712 -0.00141067 -0.00144437 -0.00147228 -0.00149442 -0.00151081 -0.00152149 -0.00152646 -0.00152571 -0.00152012 -0.00151056 -0.00149703 -0.00147952 -0.00145946 -0.00143823 -0.00141584 -0.00139229 -0.00136893 -0.00134712 -0.00132687 -0.00130816 -0.00129166 -0.001278 -0.00126721 -0.00125926 -0.00125367 -0.00124993 -0.00124803 -0.00124799 -0.0012482 -0.00124707 -0.00124461 -0.00124082 -0.00123377 -0.00122155 -0.00120415 -0.00118159 -0.00115287 -0.00111699 -0.00107397 -0.00102379 -0.000967445 -0.000905895 -0.000839146 -0.000767196 -0.000692966 -0.000619378 -0.000546431 -0.000474125 -0.000406003 -0.000345608 -0.00029294 -0.000247998 -0.000213019 -0.000190237 -0.000179652 -0.000181265 -0.000194683 -0.000219515 -0.000255763 -0.000303425 -0.000359604 -0.000421403 -0.000488822 -0.000561861 -0.00063653 -0.000708837 -0.000778783 -0.000846368 -0.000908275 -0.00096119 -0.00100511 -0.00104004 -0.00106448 -0.00107691 -0.00107735 -0.00106579 -0.00104273 -0.00100868 -0.000963644 -0.00090761 -0.000842864 -0.000771685 -0.000694072 -0.000610026 -0.000523777 -0.000439558 -0.000357368 -0.000277207 -0.000204238 -0.000143623 -9.5363e-05 -5.94572e-05 -3.34446e-05 -1.48643e-05 -3.71607e-06 0 0 -9.72837e-07 -3.89135e-06 -8.75553e-06 -1.55654e-05 -2.76776e-05 -4.8449e-05 -7.78794e-05 -0.000115969 -0.00016274 -0.000218215 -0.000282395 -0.000355278 -0.000435605 -0.000522116 -0.00061481 -0.000713687 -0.000817537 -0.00092515 -0.00103653 -0.00115166 -0.001269 -0.00138698 -0.0015056 -0.00162486 -0.00174272 -0.00185712 -0.00196806 -0.00207555 -0.00217751 -0.00227185 -0.00235858 -0.00243769 -0.00250786 -0.00256776 -0.00261739 -0.00265675 -0.00268589 -0.00270487 -0.0027137 -0.00271237 -0.00270243 -0.00268543 -0.00266138 -0.00263027 -0.00259459 -0.00255685 -0.00251705 -0.00247518 -0.00243366 -0.00239489 -0.00235888 -0.00232562 -0.00229628 -0.00227201 -0.00225281 -0.00223869 -0.00222875 -0.00222209 -0.00221872 -0.00221864 -0.00221902 -0.00221702 -0.00221264 -0.0022059 -0.00219336 -0.00217164 -0.00214072 -0.0021006 -0.00204954 -0.00198576 -0.00190928 -0.00182008 -0.0017199 -0.00161048 -0.00149181 -0.0013639 -0.00123194 -0.00110112 -0.000971433 -0.000842888 -0.000721783 -0.000614414 -0.000520781 -0.000440886 -0.000378701 -0.0003382 -0.000319382 -0.000322248 -0.000346102 -0.000390249 -0.000454689 -0.000539421 -0.000639296 -0.000749161 -0.000869017 -0.000998865 -0.00113161 -0.00126015 -0.0013845 -0.00150465 -0.00161471 -0.00170878 -0.00178687 -0.00184896 -0.0018924 -0.00191451 -0.00191529 -0.00189474 -0.00185375 -0.00179322 -0.00171314 -0.00161353 -0.00149843 -0.00137188 -0.00123391 -0.00108449 -0.00093116 -0.000781437 -0.000635321 -0.000492813 -0.00036309 -0.00025533 -0.000169534 -0.000105702 -5.94572e-05 -2.64254e-05 -6.60635e-06 0 0 -1.753e-06 -7.01202e-06 -1.5777e-05 -2.80481e-05 -4.89796e-05 -8.37262e-05 -0.000132288 -0.000194665 -0.000270692 -0.000360207 -0.00046321 -0.000579699 -0.000707624 -0.000844932 -0.000991625 -0.0011477 -0.00131121 -0.00148019 -0.00165465 -0.00183458 -0.00201755 -0.00220109 -0.00238523 -0.00256994 -0.00275211 -0.00292861 -0.00309944 -0.0032646 -0.00342098 -0.00356549 -0.00369812 -0.00381887 -0.00392583 -0.00401709 -0.00409266 -0.00415253 -0.00419692 -0.00422602 -0.00423983 -0.00423837 -0.00422404 -0.00419928 -0.00416408 -0.00411846 -0.00406616 -0.00401096 -0.00395287 -0.00389188 -0.00383151 -0.00377529 -0.0037232 -0.00367526 -0.00363297 -0.00359782 -0.00356982 -0.00354896 -0.00353353 -0.0035218 -0.00351377 -0.00350945 -0.00350413 -0.0034931 -0.00347637 -0.00345394 -0.00342035 -0.00337014 -0.00330333 -0.0032199 -0.0031173 -0.00299294 -0.00284684 -0.00267898 -0.00249266 -0.00229116 -0.00207448 -0.00184261 -0.00160457 -0.00136936 -0.00113697 -0.000907409 -0.00069143 -0.000499789 -0.000332485 -0.000189518 -7.76677e-05 -3.71193e-06 3.23488e-05 3.05144e-05 -8.11408e-06 -8.24359e-05 -0.000192451 -0.000338159 -0.000510925 -0.00070211 -0.000911716 -0.00113974 -0.00137419 -0.00160307 -0.00182638 -0.00204411 -0.00224619 -0.00242253 -0.00257313 -0.002698 -0.0027924 -0.00285162 -0.00287565 -0.0028645 -0.00281944 -0.00274172 -0.00263136 -0.00248835 -0.00231921 -0.00213046 -0.00192211 -0.00169415 -0.0014586 -0.00122748 -0.0010008 -0.00077854 -0.000575427 -0.000406171 -0.000270772 -0.000169229 -9.51913e-05 -4.23072e-05 -1.05768e-05 0 0 -3.12067e-06 -1.24827e-05 -2.8086e-05 -4.99307e-05 -8.5208e-05 -0.000141109 -0.000217634 -0.000314783 -0.00043181 -0.000567969 -0.00072326 -0.000897684 -0.00108807 -0.00129127 -0.00150726 -0.00173606 -0.00197468 -0.00222016 -0.00247249 -0.00273168 -0.00299418 -0.00325645 -0.00351849 -0.0037803 -0.00403757 -0.00428597 -0.00452551 -0.00475619 -0.00497391 -0.00517457 -0.00535816 -0.0055247 -0.00567186 -0.00579732 -0.00590108 -0.00598314 -0.00604411 -0.00608457 -0.00610453 -0.00610398 -0.00608643 -0.00605538 -0.00601082 -0.00595276 -0.00588627 -0.00581645 -0.0057433 -0.00566681 -0.00559142 -0.00552159 -0.00545731 -0.00539858 -0.00534677 -0.00530325 -0.00526802 -0.00524108 -0.00521912 -0.00519882 -0.00518019 -0.00516323 -0.00514044 -0.00510434 -0.00505491 -0.00499217 -0.00490793 -0.00479402 -0.00465044 -0.0044772 -0.00427104 -0.00402873 -0.00375025 -0.00343562 -0.00309104 -0.00272272 -0.00233065 -0.00191483 -0.00149052 -0.00107296 -0.000662145 -0.000258081 0.000121409 0.000458497 0.000753185 0.00100547 0.00120413 0.00133795 0.00140692 0.00141105 0.00135195 0.00123125 0.00104895 0.000805048 0.000513484 0.000188203 -0.000170795 -0.000563509 -0.000970335 -0.00137166 -0.0017675 -0.00215783 -0.00252592 -0.002855 -0.00314507 -0.00339613 -0.00359998 -0.00374842 -0.00384145 -0.00387906 -0.00386275 -0.00379402 -0.00367286 -0.00349927 -0.00328313 -0.00303431 -0.00275281 -0.00243863 -0.00210976 -0.00178418 -0.0014619 -0.00114291 -0.000849349 -0.000603364 -0.00040495 -0.000254109 -0.000142936 -6.35273e-05 -1.58818e-05 0 0 -5.07584e-06 -2.03033e-05 -4.56825e-05 -8.12134e-05 -0.000136363 -0.000220598 -0.000333918 -0.000476323 -0.000646091 -0.000841499 -0.00106255 -0.00130923 -0.00157696 -0.00186112 -0.00216172 -0.00247875 -0.00280795 -0.00314505 -0.00349005 -0.00384295 -0.0041989 -0.00455305 -0.0049054 -0.00525596 -0.0055991 -0.0059292 -0.00624628 -0.00655033 -0.00683628 -0.00709908 -0.00733872 -0.00755519 -0.00774596 -0.00790844 -0.00804265 -0.00814858 -0.00822746 -0.00828053 -0.00830778 -0.00830922 -0.00828961 -0.00825374 -0.00820159 -0.00813317 -0.00805493 -0.00797332 -0.00788833 -0.00779996 -0.00771339 -0.0076338 -0.00756119 -0.00749556 -0.00743767 -0.00738828 -0.00734741 -0.00731504 -0.00728552 -0.00725317 -0.00721799 -0.00717999 -0.00712796 -0.00705072 -0.00694826 -0.00682058 -0.00665611 -0.00644327 -0.00618206 -0.00587249 -0.00551077 -0.00509311 -0.00461952 -0.00408999 -0.00351504 -0.00290515 -0.00226032 -0.00158057 -0.000889792 -0.000211924 0.000453038 0.0011051 0.00171674 0.00226045 0.00273623 0.00314408 0.0034667 0.00368679 0.00380434 0.00381936 0.0037341 0.00355082 0.00326952 0.0028902 0.00243393 0.00192178 0.00135375 0.000729833 7.99643e-05 -0.000565934 -0.00120786 -0.00184582 -0.00245389 -0.00300617 -0.00350266 -0.00394336 -0.00431516 -0.00460493 -0.00481268 -0.00493841 -0.00498369 -0.0049501 -0.00483764 -0.0046463 -0.00439019 -0.00408343 -0.00372602 -0.00331795 -0.00288465 -0.00245154 -0.00201863 -0.00158592 -0.00118486 -0.000846908 -0.00057207 -0.000360343 -0.000202693 -9.00857e-05 -2.25214e-05 0 0 -7.6185e-06 -3.0474e-05 -6.85665e-05 -0.000121896 -0.000202444 -0.000322192 -0.000481139 -0.000679287 -0.000913538 -0.0011808 -0.00148107 -0.00181434 -0.00217427 -0.00255449 -0.00295499 -0.00337579 -0.00381103 -0.00425488 -0.00470734 -0.0051684 -0.00563171 -0.00609089 -0.00654596 -0.0069969 -0.00743669 -0.0078583 -0.00826174 -0.00864701 -0.0090081 -0.00933902 -0.00963977 -0.00991035 -0.0101481 -0.0103505 -0.0105174 -0.0106488 -0.010747 -0.0108139 -0.0108496 -0.0108541 -0.0108336 -0.0107943 -0.0107364 -0.0106597 -0.0105721 -0.0104816 -0.010388 -0.0102913 -0.0101974 -0.0101119 -0.0100349 -0.00996621 -0.00990568 -0.00985294 -0.009808 -0.00977086 -0.00973273 -0.00968483 -0.00962716 -0.00955971 -0.00946668 -0.00933225 -0.00915641 -0.00893918 -0.00866489 -0.00831789 -0.00789819 -0.00740578 -0.00683647 -0.00618609 -0.00545463 -0.0046421 -0.00376466 -0.00283846 -0.00186351 -0.00083981 0.000197617 0.00121375 0.00220858 0.00318212 0.00409455 0.00490606 0.00561664 0.00622631 0.00671004 0.0070428 0.0072246 0.00725544 0.00713833 0.00687626 0.00646926 0.0059173 0.00525042 0.00449862 0.00366191 0.00274029 0.0017767 0.000814119 -0.00014747 -0.00110806 -0.00203011 -0.00287607 -0.00364593 -0.0043397 -0.00493792 -0.00542113 -0.00578934 -0.00604255 -0.00618226 -0.00620998 -0.0061257 -0.00592943 -0.00564039 -0.00527782 -0.00484172 -0.00433208 -0.00378325 -0.00322955 -0.00267099 -0.00210757 -0.00158195 -0.0011368 -0.00077213 -0.000487929 -0.00027446 -0.000121982 -3.04956e-05 0 0 -1.07737e-05 -4.30946e-05 -9.69629e-05 -0.000172378 -0.000283853 -0.0004459 -0.000658517 -0.000921707 -0.00123031 -0.00157915 -0.00196825 -0.0023976 -0.00285862 -0.00334275 -0.00384999 -0.00438033 -0.00492608 -0.00547955 -0.00604074 -0.00660964 -0.00717834 -0.0077389 -0.00829132 -0.00883562 -0.00936361 -0.00986715 -0.0103462 -0.0108008 -0.0112246 -0.0116112 -0.0119606 -0.0122728 -0.0125458 -0.0127776 -0.0129681 -0.0131175 -0.0132291 -0.0133065 -0.0133496 -0.0133586 -0.013341 -0.0133049 -0.01325 -0.0131766 -0.0130932 -0.0130088 -0.0129233 -0.0128367 -0.0127545 -0.0126818 -0.0126189 -0.0125655 -0.0125192 -0.0124775 -0.0124402 -0.0124074 -0.012366 -0.0123027 -0.0122175 -0.0121105 -0.0119599 -0.0117443 -0.0114635 -0.0111175 -0.0106861 -0.0101487 -0.00950533 -0.00875608 -0.00789684 -0.0069236 -0.00583633 -0.00463505 -0.0033438 -0.00198663 -0.000563533 0.000925479 0.00243073 0.00390253 0.0053409 0.00674581 0.00806153 0.0092323 0.0102581 0.011139 0.0118399 0.0123259 0.012597 0.0126532 0.0124983 0.0121362 0.0115668 0.0107901 0.00984746 0.00878011 0.00758807 0.00627134 0.0048895 0.00350215 0.00210929 0.000710914 -0.000640307 -0.00189171 -0.00304331 -0.00409508 -0.00501909 -0.00578738 -0.00639996 -0.00685681 -0.00715893 -0.00730729 -0.0073019 -0.00714275 -0.00685505 -0.00646403 -0.00596967 -0.00537197 -0.0047157 -0.00404561 -0.00336171 -0.00266399 -0.00200822 -0.0014502 -0.000989913 -0.000627363 -0.000352892 -0.000156841 -3.92102e-05 0 0 -1.45663e-05 -5.82652e-05 -0.000131097 -0.000233061 -0.000380993 -0.00059173 -0.000865272 -0.00120162 -0.00159255 -0.00202985 -0.00251353 -0.00304357 -0.00360861 -0.00419729 -0.0048096 -0.00544554 -0.00609528 -0.00674898 -0.00740665 -0.00806828 -0.00872451 -0.00936597 -0.00999268 -0.0106046 -0.0111931 -0.0117496 -0.012274 -0.0127664 -0.013221 -0.0136324 -0.0140005 -0.0143252 -0.0146065 -0.014844 -0.0150379 -0.0151881 -0.0153003 -0.0153801 -0.0154276 -0.0154427 -0.0154347 -0.015413 -0.0153774 -0.0153279 -0.0152734 -0.0152226 -0.0151755 -0.015132 -0.0150955 -0.0150694 -0.0150537 -0.0150484 -0.0150467 -0.0150421 -0.0150344 -0.0150237 -0.0149906 -0.0149156 -0.0147989 -0.0146403 -0.014411 -0.0140821 -0.0136534 -0.0131252 -0.0124714 -0.0116663 -0.01071 -0.00960241 -0.00834057 -0.00692155 -0.00534534 -0.00361194 -0.00175637 0.00018637 0.00221628 0.00433335 0.00646857 0.00855292 0.0105864 0.012569 0.0144244 0.0160761 0.0175243 0.0187689 0.0197621 0.0204561 0.020851 0.0209467 0.0207479 0.0202592 0.0194807 0.0184124 0.0171096 0.0156276 0.0139666 0.0121265 0.010188 0.0082318 0.00625802 0.00426661 0.0023298 0.000519856 -0.00116323 -0.00271947 -0.00410951 -0.00529403 -0.00627303 -0.00704651 -0.00761416 -0.00797568 -0.00813107 -0.00808033 -0.00785549 -0.00748858 -0.00697959 -0.00632852 -0.00559212 -0.00482712 -0.00403351 -0.0032113 -0.00243128 -0.00176425 -0.0012102 -0.000769139 -0.000432641 -0.000192285 -4.80712e-05 0 0 -1.89964e-05 -7.59857e-05 -0.000170968 -0.000303943 -0.000493864 -0.000759684 -0.0011014 -0.00151902 -0.00200027 -0.0025329 -0.00311689 -0.00375226 -0.00442425 -0.00511811 -0.00583383 -0.00657143 -0.00731863 -0.00806318 -0.00880507 -0.00954432 -0.0102702 -0.0109721 -0.01165 -0.0123039 -0.0129253 -0.0135057 -0.0140452 -0.0145436 -0.0149974 -0.0154026 -0.0157594 -0.0160676 -0.0163301 -0.0165498 -0.0167267 -0.0168608 -0.0169606 -0.0170348 -0.0170835 -0.0171065 -0.0171147 -0.0171186 -0.0171183 -0.0171138 -0.0171129 -0.0171231 -0.0171445 -0.0171771 -0.0172206 -0.0172747 -0.0173395 -0.0174149 -0.0174882 -0.0175468 -0.0175906 -0.0176196 -0.0176064 -0.0175236 -0.0173712 -0.0171493 -0.01682 -0.0163457 -0.0157264 -0.0149621 -0.0140209 -0.0128709 -0.0115122 -0.00994478 -0.00816765 -0.00617994 -0.00398165 -0.00157278 0.000997627 0.00368053 0.00647592 0.0093838 0.0123111 0.0151649 0.0179451 0.0206517 0.0231831 0.0254376 0.0274153 0.0291161 0.0304766 0.0314334 0.0319864 0.0321358 0.0318869 0.0312453 0.0302111 0.0287841 0.0270368 0.0250412 0.0227975 0.0203057 0.0176721 0.0150031 0.0122987 0.00955901 0.00688022 0.00435864 0.00199428 -0.000212858 -0.00220918 -0.00394108 -0.00540857 -0.00661164 -0.00754795 -0.00821514 -0.00861322 -0.00874218 -0.00864171 -0.00835148 -0.00787149 -0.00720175 -0.00641251 -0.00557406 -0.00468639 -0.00374951 -0.00285112 -0.00207895 -0.00143299 -0.000913257 -0.000513707 -0.000228314 -5.70786e-05 0 0 -2.4064e-05 -9.62562e-05 -0.000216576 -0.000385025 -0.000622465 -0.00094976 -0.00136691 -0.00187391 -0.00245347 -0.00308829 -0.00377835 -0.00452367 -0.00530553 -0.0061052 -0.00692268 -0.00775798 -0.00859612 -0.00942213 -0.010236 -0.0110378 -0.0118155 -0.0125574 -0.0132633 -0.0139334 -0.01456 -0.0151354 -0.0156596 -0.0161326 -0.0165537 -0.0169219 -0.0172373 -0.0174999 -0.0177167 -0.0178949 -0.0180345 -0.0181354 -0.0182099 -0.0182705 -0.0183172 -0.01835 -0.0183808 -0.0184218 -0.018473 -0.0185343 -0.0186114 -0.0187101 -0.0188303 -0.018972 -0.0191297 -0.0192977 -0.0194762 -0.019665 -0.0198437 -0.0199916 -0.0201087 -0.0201951 -0.0202135 -0.0201267 -0.0199346 -0.0196373 -0.0191868 -0.0185351 -0.0176823 -0.0166283 -0.0153346 -0.0137624 -0.011912 -0.00978318 -0.00737809 -0.00469879 -0.00174528 0.00148243 0.00491819 0.00849584 0.0122154 0.0160768 0.0199584 0.0237385 0.0274169 0.0309938 0.0343376 0.0373166 0.0399309 0.0421805 0.0439834 0.0452577 0.0460034 0.0462205 0.0459154 0.0450945 0.0437578 0.0419053 0.039629 0.0370209 0.0340809 0.030809 0.0273419 0.023816 0.0202314 0.0165881 0.0130109 0.00962464 0.00642924 0.00342475 0.000681911 -0.00172853 -0.00380657 -0.00555222 -0.00696031 -0.00802568 -0.00874835 -0.0091283 -0.00921371 -0.00905273 -0.00864537 -0.00799164 -0.00717688 -0.00628645 -0.00532036 -0.00427861 -0.00326774 -0.0023943 -0.00165829 -0.00105972 -0.000596091 -0.000264929 -6.62323e-05 0 0 -2.96418e-05 -0.000118567 -0.000266776 -0.000474269 -0.000763415 -0.00115658 -0.00165377 -0.00225498 -0.00293667 -0.00367528 -0.00447084 -0.00532332 -0.00620922 -0.00710505 -0.00801078 -0.00892644 -0.00983393 -0.0107152 -0.0115702 -0.012399 -0.0131887 -0.0139267 -0.0146129 -0.0152472 -0.0158241 -0.0163379 -0.0167886 -0.0171761 -0.0175046 -0.017778 -0.0179963 -0.0181596 -0.0182812 -0.0183743 -0.0184391 -0.0184754 -0.0185006 -0.0185321 -0.0185699 -0.018614 -0.0186776 -0.0187739 -0.018903 -0.0190648 -0.0192614 -0.0194948 -0.0197648 -0.0200717 -0.0204018 -0.0207418 -0.0210917 -0.0214515 -0.0217899 -0.0220758 -0.022309 -0.0224897 -0.0225683 -0.0224952 -0.0222707 -0.0218945 -0.0213067 -0.0204474 -0.0193163 -0.0179137 -0.0161935 -0.0141098 -0.0116626 -0.00885187 -0.00568416 -0.00216602 0.00170257 0.00592158 0.0104037 0.0150615 0.0198951 0.0249044 0.0299333 0.0348257 0.0395815 0.0442008 0.0485167 0.0523627 0.0557386 0.0586445 0.0609769 0.0626326 0.0636115 0.0639136 0.0635462 0.0625166 0.0608247 0.0584706 0.0555687 0.0522336 0.0484651 0.0442634 0.0398001 0.0352468 0.0306034 0.02587 0.0212053 0.0167679 0.0125578 0.00857505 0.00491127 0.00165814 -0.00118433 -0.00361616 -0.00562819 -0.00721125 -0.00836535 -0.00909049 -0.00944422 -0.00948406 -0.00921002 -0.00862209 -0.00782256 -0.00691369 -0.00589547 -0.00476792 -0.00365837 -0.00269415 -0.00187527 -0.00120174 -0.000675977 -0.000300434 -7.51085e-05 0 0 -3.56024e-05 -0.00014241 -0.000320422 -0.000569639 -0.000913332 -0.00137477 -0.00195396 -0.00265089 -0.00343436 -0.00427316 -0.00516727 -0.00611671 -0.00709212 -0.00806414 -0.00903278 -0.00999802 -0.0109382 -0.0118317 -0.0126784 -0.0134784 -0.0142184 -0.0148852 -0.0154789 -0.0159993 -0.0164445 -0.0168125 -0.0171033 -0.0173168 -0.0174648 -0.0175587 -0.0175985 -0.0175843 -0.0175383 -0.017483 -0.0174183 -0.0173443 -0.017285 -0.0172644 -0.0172826 -0.0173395 -0.0174493 -0.0176262 -0.0178701 -0.0181811 -0.018555 -0.018988 -0.01948 -0.020031 -0.0206161 -0.0212105 -0.0218142 -0.0224272 -0.0230038 -0.0234986 -0.0239115 -0.0242425 -0.0244269 -0.0243997 -0.0241611 -0.0237109 -0.0229751 -0.0218794 -0.0204237 -0.0186082 -0.016379 -0.013682 -0.0105174 -0.00688512 -0.00279817 0.00173042 0.00670067 0.0121126 0.0178525 0.0238068 0.0299755 0.0363585 0.0427587 0.0489786 0.0550183 0.0608777 0.0663492 0.0712252 0.0755055 0.0791902 0.0821515 0.0842615 0.0855203 0.0859277 0.0854921 0.0842213 0.0821154 0.0791744 0.0755381 0.0713463 0.0665989 0.061296 0.0556496 0.0498715 0.0439619 0.0379207 0.0319466 0.0262385 0.0207962 0.0156197 0.0108264 0.00653346 0.00274085 -0.000551414 -0.00332855 -0.00557579 -0.00729314 -0.00848058 -0.00920598 -0.00953718 -0.0094742 -0.00901702 -0.00828692 -0.00740518 -0.00637179 -0.00518677 -0.00400024 -0.00296236 -0.00207312 -0.00133253 -0.000749549 -0.000333133 -8.32832e-05 0 0 -4.19459e-05 -0.000167783 -0.000377513 -0.000671134 -0.00107222 -0.00160433 -0.00226748 -0.00306166 -0.00394657 -0.0048819 -0.00586767 -0.00690386 -0.00795422 -0.00898249 -0.00998866 -0.0109727 -0.011909 -0.0127716 -0.0135606 -0.014276 -0.0149045 -0.015433 -0.0158613 -0.0161895 -0.016421 -0.016559 -0.0166036 -0.0165548 -0.0164343 -0.016264 -0.0160438 -0.0157738 -0.015488 -0.0152209 -0.0149722 -0.0147421 -0.014563 -0.0144674 -0.0144553 -0.0145266 -0.0146961 -0.0149787 -0.0153743 -0.0158829 -0.0164922 -0.0171898 -0.0179757 -0.0188499 -0.0197726 -0.0207038 -0.0216436 -0.0225919 -0.0234853 -0.02426 -0.0249161 -0.0254536 -0.0257894 -0.0258401 -0.0256058 -0.0250866 -0.0241918 -0.0228311 -0.0210045 -0.0187119 -0.0158909 -0.012479 -0.00847638 -0.00388292 0.00127988 0.00699053 0.013249 0.0200554 0.0272646 0.0347316 0.0424565 0.0504392 0.0584346 0.0661972 0.0737273 0.0810247 0.0878351 0.0939041 0.0992316 0.103818 0.107507 0.110144 0.11173 0.112263 0.111753 0.110209 0.10763 0.104017 0.0995373 0.0943591 0.0884823 0.0819068 0.0748903 0.0676904 0.060307 0.0527402 0.045235 0.0380363 0.0311443 0.0245588 0.0184274 0.0128974 0.00796898 0.00364203 -6.14055e-05 -0.00311931 -0.0055317 -0.00729855 -0.00849899 -0.00921211 -0.00943792 -0.00917641 -0.00856996 -0.00776093 -0.00674932 -0.00553514 -0.00429335 -0.00319891 -0.00225183 -0.0014521 -0.000816807 -0.000363025 -9.07564e-05 0 0 -4.86721e-05 -0.000194689 -0.000438049 -0.000778754 -0.00124007 -0.00184526 -0.00259433 -0.00348727 -0.00447327 -0.00550152 -0.00657202 -0.00768476 -0.00879552 -0.00986008 -0.0108784 -0.0118506 -0.0127462 -0.0135349 -0.0142168 -0.0147918 -0.0152471 -0.0155699 -0.0157602 -0.015818 -0.0157537 -0.0155775 -0.0152897 -0.01489 -0.0144132 -0.013894 -0.0133323 -0.0127282 -0.0121304 -0.011588 -0.0111008 -0.0106688 -0.0103347 -0.0101411 -0.0100879 -0.0101751 -0.0104179 -0.0108314 -0.0114156 -0.0121705 -0.0130731 -0.0141003 -0.0152521 -0.0165285 -0.0178712 -0.0192216 -0.0205799 -0.0219459 -0.0232343 -0.02436 -0.0253229 -0.0261231 -0.0266558 -0.0268164 -0.026605 -0.0260215 -0.024957 -0.0233027 -0.0210586 -0.0182246 -0.0147292 -0.0105008 -0.00553954 0.000154735 0.00655 0.0136143 0.0213476 0.02975 0.03864 0.047836 0.0573382 0.0671464 0.0769609 0.0864816 0.0957085 0.104642 0.112974 0.120399 0.126917 0.132527 0.137044 0.140281 0.14224 0.142919 0.142329 0.140479 0.137368 0.132998 0.127566 0.121272 0.114115 0.106096 0.0975223 0.0887033 0.0796387 0.0703285 0.0610703 0.0521615 0.0436022 0.0353922 0.0277141 0.02075 0.0145 0.00896417 0.00417326 0.000158188 -0.00308104 -0.00554441 -0.00732325 -0.00850884 -0.00910117 -0.00910027 -0.00867167 -0.00798093 -0.00702806 -0.00581305 -0.0045377 -0.00340382 -0.0024114 -0.00156045 -0.000877752 -0.000390112 -9.7528e-05 0 0 -5.55823e-05 -0.000222329 -0.00050024 -0.000889316 -0.00141165 -0.00208934 -0.00292238 -0.00391077 -0.00499157 -0.0061018 -0.00724148 -0.0084106 -0.00955562 -0.010623 -0.0116127 -0.0125248 -0.0133236 -0.0139737 -0.0144749 -0.0148273 -0.0150191 -0.0150387 -0.014886 -0.0145611 -0.0140836 -0.0134733 -0.0127303 -0.0118545 -0.0108971 -0.00990959 -0.00889181 -0.00784379 -0.00683282 -0.00592621 -0.00512396 -0.00442605 -0.00388748 -0.00356322 -0.00345329 -0.00355766 -0.00389147 -0.0044698 -0.00529265 -0.00636004 -0.00763519 -0.00908134 -0.0106985 -0.0124866 -0.0143641 -0.0162493 -0.0181421 -0.0200426 -0.021839 -0.0234197 -0.0247847 -0.0259339 -0.0267376 -0.027066 -0.0269192 -0.0262971 -0.0250703 -0.0231093 -0.020414 -0.0169845 -0.01274 -0.00759951 -0.00156314 0.00536914 0.0131519 0.0217399 0.0311329 0.0413312 0.0521105 0.0632471 0.0747408 0.0865916 0.0984383 0.109919 0.121035 0.131785 0.141805 0.150733 0.158567 0.165308 0.170739 0.17464 0.177013 0.177857 0.177182 0.174999 0.171308 0.166108 0.159631 0.152108 0.143537 0.13392 0.123619 0.112998 0.102057 0.0907946 0.0795682 0.0687332 0.0582896 0.0482376 0.0387996 0.0301984 0.022434 0.0155064 0.00945763 0.00432994 0.000123289 -0.00316231 -0.00563103 -0.00738704 -0.00843034 -0.00876092 -0.00856968 -0.00804749 -0.00719436 -0.00601028 -0.00472595 -0.00357206 -0.00254861 -0.00165559 -0.000931272 -0.000413899 -0.000103475 0 0 -6.24773e-05 -0.000249909 -0.000562296 -0.000999637 -0.00158172 -0.00232835 -0.00323951 -0.00431521 -0.00547852 -0.00665252 -0.00783721 -0.00903258 -0.0101741 -0.0111973 -0.0121021 -0.0128886 -0.0135151 -0.0139398 -0.0141628 -0.0141841 -0.0139938 -0.0135822 -0.0129493 -0.0120951 -0.0110517 -0.00985144 -0.00849428 -0.00698021 -0.00538186 -0.00377187 -0.00215024 -0.000516954 0.00103747 0.00242253 0.00363823 0.00468456 0.00549134 0.00598838 0.00617569 0.00605325 0.00560645 0.00482067 0.00369591 0.00223216 0.000483713 -0.00149515 -0.00370443 -0.00614413 -0.00870355 -0.011272 -0.0138494 -0.0164359 -0.0188874 -0.0210601 -0.022954 -0.0245692 -0.0257463 -0.0263263 -0.0263093 -0.0256951 -0.0243315 -0.0220661 -0.0188989 -0.0148298 -0.00976917 -0.00362704 0.00359655 0.0119016 0.0212254 0.0315054 0.0427414 0.0549335 0.0678082 0.0810919 0.0947846 0.108886 0.122967 0.136598 0.149779 0.16251 0.174367 0.184926 0.194188 0.202152 0.208569 0.213189 0.216011 0.217036 0.216275 0.213738 0.209426 0.203339 0.195739 0.186888 0.176788 0.165437 0.153255 0.140663 0.127661 0.114248 0.100844 0.0878705 0.0753266 0.0632123 0.051797 0.0413499 0.0318709 0.02336 0.0158739 0.00946916 0.00414572 -9.63887e-05 -0.00337461 -0.00580641 -0.00739177 -0.0081307 -0.00824161 -0.0079429 -0.00723457 -0.00611663 -0.00485075 -0.00369861 -0.00266022 -0.00173557 -0.000976255 -0.000433891 -0.000108473 0 0 -6.93573e-05 -0.000277429 -0.000624215 -0.00110972 -0.00175029 -0.00256229 -0.00354572 -0.00470058 -0.00593414 -0.00715368 -0.00835919 -0.00955069 -0.010651 -0.011583 -0.0123467 -0.0129421 -0.0133205 -0.0134333 -0.0132805 -0.0128621 -0.0121711 -0.0112004 -0.00995004 -0.00842002 -0.00665809 -0.00471198 -0.0025817 -0.000267256 0.00213262 0.00451918 0.00689241 0.00925233 0.0114804 0.0134583 0.0151858 0.016663 0.0178017 0.0185137 0.018799 0.0186576 0.0180758 0.01704 0.0155501 0.0136061 0.0112836 0.00865831 0.00573009 0.002499 -0.000889436 -0.00428969 -0.00770175 -0.0111256 -0.0143794 -0.0172812 -0.0198311 -0.0220289 -0.023682 -0.0245974 -0.0247752 -0.0242154 -0.0227406 -0.0201731 -0.0165131 -0.0117605 -0.00581677 0.00141656 0.00993952 0.0197521 0.0307705 0.0429108 0.0561729 0.070557 0.0857329 0.10137 0.11747 0.13403 0.150548 0.166519 0.181942 0.196817 0.210658 0.222979 0.233779 0.243058 0.250534 0.255926 0.259234 0.260457 0.259607 0.256696 0.251724 0.24469 0.235889 0.225615 0.213867 0.200646 0.18643 0.171698 0.156451 0.140687 0.124898 0.109574 0.0947129 0.0803165 0.0667063 0.0542044 0.0428106 0.0325252 0.0234222 0.0155759 0.00898625 0.00365336 -0.000553989 -0.00376693 -0.00598547 -0.0072096 -0.00768746 -0.00766716 -0.0071487 -0.00613209 -0.00491209 -0.00378347 -0.00274623 -0.00180036 -0.0010127 -0.00045009 -0.000112522 0 0 -7.62221e-05 -0.000304889 -0.000685999 -0.00121955 -0.00191734 -0.00279116 -0.003841 -0.00506687 -0.00635841 -0.00760527 -0.00880745 -0.00996494 -0.0109863 -0.0117801 -0.0123464 -0.0126851 -0.0127398 -0.0124541 -0.011828 -0.0108614 -0.00955095 -0.00789322 -0.00588821 -0.00353592 -0.000902707 0.00194509 0.00500746 0.0082844 0.0116463 0.0149635 0.0182361 0.0214641 0.0244961 0.027181 0.0295187 0.0315093 0.0330437 0.0340128 0.0344168 0.0342555 0.0335167 0.0321882 0.0302698 0.0277618 0.0247646 0.021379 0.0176051 0.0134428 0.0090782 0.00469757 0.000300862 -0.00411191 -0.0083151 -0.012083 -0.0154157 -0.0183132 -0.0205446 -0.0218792 -0.022317 -0.0218581 -0.0202975 -0.0174304 -0.0132567 -0.00777648 -0.000882797 0.00753129 0.0174658 0.0289207 0.0417871 0.0559561 0.0714276 0.0882017 0.105885 0.124083 0.142796 0.162024 0.181181 0.19968 0.217522 0.234706 0.25068 0.264892 0.27734 0.288026 0.296635 0.302854 0.306682 0.30812 0.307179 0.303872 0.2982 0.290161 0.280082 0.268286 0.254775 0.239547 0.223143 0.206103 0.188427 0.170114 0.151731 0.133842 0.116449 0.0995501 0.0835275 0.0687618 0.0552533 0.0430017 0.0321023 0.02265 0.0146449 0.00808692 0.00283084 -0.00126861 -0.00421143 -0.00599763 -0.00690723 -0.00722027 -0.00693675 -0.00605667 -0.00490998 -0.00382664 -0.00280664 -0.00184998 -0.00104061 -0.000462495 -0.000115624 0 0 -8.2847e-05 -0.000331388 -0.000745623 -0.00132555 -0.00207702 -0.00300587 -0.0041121 -0.0053957 -0.00672671 -0.00797512 -0.00914094 -0.0102242 -0.0111171 -0.0117122 -0.0120094 -0.0120087 -0.0116449 -0.0108528 -0.00963242 -0.00798374 -0.00590819 -0.00340717 -0.000480702 0.00287123 0.0