<?xml version="1.0"?> 
<VTKFile type="StructuredGrid" version="0.1"> 
<StructuredGrid WholeExtent="0 128 0 128 0 0"> 
<Piece Extent="0 128 0 128 0 0"> 
<PointData>
<DataArray type="Float32" Name="u" format="ascii" NumberOfComponents="1"> 
0 0 0 0 0 0 0 0 0 0 0 0 0 0 0 0 0 0 0 0 0 0 0 0 0 0 0 0 0 0 0 0 0 0 0 0 0 0 0 0 0 0 0 0 0 0 0 0 0 0 0 0 0 0 0 0 0 0 0 0 0 0 0 0 0 0 0 0 0 0 0 0 0 0 0 0 0 0 0 0 0 0 0 0 0 0 0 0 0 0 0 0 0 0 0 0 0 0 0 0 0 0 0 0 0 0 0 0 0 0 0 0 0 0 0 0 0 0 0 0 0 0 0 0 0 0 0 0 0 0 2.35653e-07 9.42612e-07 2.12088e-06 3.77045e-06 5.80866e-06 8.15283e-06 1.0803e-05 1.37591e-05 1.66526e-05 1.9115e-05 2.11464e-05 2.27466e-05 2.38302e-05 2.43118e-05 2.41913e-05 2.34688e-05 2.22193e-05 2.05175e-05 1.83637e-05 1.57576e-05 1.28102e-05 9.63224e-06 6.22363e-06 2.58441e-06 -1.19335e-06 -5.01758e-06 -8.88829e-06 -1.28055e-05 -1.66749e-05 -2.04024e-05 -2.39879e-05 -2.74315e-05 -3.0595e-05 -3.33402e-05 -3.5667e-05 -3.75756e-05 -3.89221e-05 -3.95628e-05 -3.94976e-05 -3.87266e-05 -3.72458e-05 -3.5051e-05 -3.21425e-05 -2.852e-05 -2.44497e-05 -2.01975e-05 -1.57635e-05 -1.11476e-05 -6.8259e-06 -3.27462e-06 -4.9372e-07 1.51681e-06 2.33969e-06 1.55765e-06 -8.29315e-07 -4.82121e-06 -1.05202e-05 -1.80283e-05 -2.73456e-05 -3.84721e-05 -5.12087e-05 -6.53564e-05 -8.09151e-05 -9.78848e-05 -0.000116025 -0.000135096 -0.000155098 -0.00017603 -0.000197782 -0.000220243 -0.000243413 -0.000267291 -0.000291723 -0.000316552 -0.000341778 -0.000367402 -0.000392909 -0.000417788 -0.000442037 -0.000465658 -0.000487814 -0.00050767 -0.000525227 -0.000540485 -0.000552803 -0.000561539 -0.000566695 -0.00056827 -0.00056633 -0.000560942 -0.000552106 -0.000539823 -0.000524809 -0.000507783 -0.000488744 -0.000467693 -0.000445424 -0.00042273 -0.000399611 -0.000376068 -0.000352493 -0.000329278 -0.000306424 -0.000283929 -0.000261842 -0.00024021 -0.000219032 -0.000198308 -0.000178108 -0.000158502 -0.00013949 -0.000121071 -0.000103511 -8.70778e-05 -7.17705e-05 -5.75894e-05 -4.48284e-05 -3.37818e-05 -2.44495e-05 -1.68316e-05 -1.08125e-05 -6.27672e-06 -3.22424e-06 -1.65506e-06 -9.30969e-07 -4.13764e-07 -1.03441e-07 0 0 9.42612e-07 3.77045e-06 8.48351e-06 1.50818e-05 2.32346e-05 3.26113e-05 4.32119e-05 5.50363e-05 6.66105e-05 7.64602e-05 8.45854e-05 9.09862e-05 9.53207e-05 9.72471e-05 9.67653e-05 9.38754e-05 8.88771e-05 8.20702e-05 7.34547e-05 6.30306e-05 5.1241e-05 3.85289e-05 2.48945e-05 1.03376e-05 -4.77339e-06 -2.00703e-05 -3.55531e-05 -5.12219e-05 -6.66996e-05 -8.16096e-05 -9.59518e-05 -0.000109726 -0.00012238 -0.000133361 -0.000142668 -0.000150302 -0.000155689 -0.000158251 -0.000157991 -0.000154907 -0.000148983 -0.000140204 -0.00012857 -0.00011408 -9.77987e-05 -8.079e-05 -6.30538e-05 -4.45902e-05 -2.73036e-05 -1.30985e-05 -1.97488e-06 6.06725e-06 9.35878e-06 6.23061e-06 -3.31726e-06 -1.92848e-05 -4.20806e-05 -7.21131e-05 -0.000109382 -0.000153888 -0.000204835 -0.000261425 -0.00032366 -0.000391539 -0.000464101 -0.000540386 -0.000620392 -0.000704121 -0.000791128 -0.000880972 -0.00097365 -0.00106916 -0.00116689 -0.00126621 -0.00136711 -0.00146961 -0.00157164 -0.00167115 -0.00176815 -0.00186263 -0.00195125 -0.00203068 -0.00210091 -0.00216194 -0.00221121 -0.00224616 -0.00226678 -0.00227308 -0.00226532 -0.00224377 -0.00220843 -0.00215929 -0.00209924 -0.00203113 -0.00195498 -0.00187077 -0.0017817 -0.00169092 -0.00159845 -0.00150427 -0.00140997 -0.00131711 -0.00122569 -0.00113572 -0.00104737 -0.000960839 -0.000876126 -0.000793232 -0.000712434 -0.000634009 -0.000557959 -0.000484282 -0.000414044 -0.000348311 -0.000287082 -0.000230357 -0.000179314 -0.000135127 -9.7798e-05 -6.73264e-05 -4.325e-05 -2.51069e-05 -1.28969e-05 -6.62022e-06 -3.72388e-06 -1.65506e-06 -4.13764e-07 0 0 2.12088e-06 8.48351e-06 1.90879e-05 3.3934e-05 5.22779e-05 7.33755e-05 9.72268e-05 0.000123832 0.000149874 0.000172035 0.000190317 0.000204719 0.000214472 0.000218806 0.000217722 0.00021122 0.000199973 0.000184658 0.000165273 0.000141819 0.000115292 8.66901e-05 5.60126e-05 2.32597e-05 -1.07401e-05 -4.51582e-05 -7.99946e-05 -0.000115249 -0.000150074 -0.000183622 -0.000215891 -0.000246884 -0.000275355 -0.000300061 -0.000321003 -0.000338181 -0.000350299 -0.000356065 -0.000355479 -0.00034854 -0.000335212 -0.000315459 -0.000289282 -0.00025668 -0.000220047 -0.000181777 -0.000141871 -0.000100328 -6.14331e-05 -2.94716e-05 -4.44348e-06 1.36513e-05 2.10572e-05 1.40189e-05 -7.46384e-06 -4.33909e-05 -9.46814e-05 -0.000162255 -0.00024611 -0.000346249 -0.000460878 -0.000588207 -0.000728236 -0.000880963 -0.00104423 -0.00121587 -0.00139588 -0.00158427 -0.00178004 -0.00198219 -0.00219071 -0.00240562 -0.00262551 -0.00284897 -0.003076 -0.00330662 -0.00353618 -0.00376009 -0.00397834 -0.00419092 -0.00439032 -0.00456903 -0.00472705 -0.00486437 -0.00497522 -0.00505385 -0.00510025 -0.00511443 -0.00509697 -0.00504848 -0.00496896 -0.0048584 -0.00472328 -0.00457005 -0.0043987 -0.00420924 -0.00400881 -0.00380457 -0.0035965 -0.00338462 -0.00317244 -0.00296351 -0.00275781 -0.00255536 -0.00235658 -0.00216189 -0.00197128 -0.00178477 -0.00160298 -0.00142652 -0.00125541 -0.00108963 -0.0009316 -0.0007837 -0.000645935 -0.000518304 -0.000403456 -0.000304036 -0.000220046 -0.000151484 -9.73125e-05 -5.64905e-05 -2.90181e-05 -1.48955e-05 -8.37872e-06 -3.72388e-06 -9.30969e-07 0 0 3.77045e-06 1.50818e-05 3.3934e-05 6.03272e-05 9.29385e-05 0.000130445 0.000172848 0.000220145 0.000266442 0.000305841 0.000338342 0.000363945 0.000381283 0.000388988 0.000387061 0.000375501 0.000355508 0.000328281 0.000293819 0.000252122 0.000204964 0.000154116 9.9578e-05 4.13505e-05 -1.90936e-05 -8.02813e-05 -0.000142213 -0.000204887 -0.000266799 -0.000326438 -0.000383807 -0.000438904 -0.00048952 -0.000533442 -0.000570672 -0.00060121 -0.000622754 -0.000633005 -0.000631962 -0.000619626 -0.000595932 -0.000560817 -0.000514279 -0.00045632 -0.000391195 -0.00032316 -0.000252215 -0.000178361 -0.000109214 -5.2394e-05 -7.89951e-06 2.4269e-05 3.74351e-05 2.49224e-05 -1.3269e-05 -7.71393e-05 -0.000168322 -0.000288453 -0.00043753 -0.000615553 -0.000819339 -0.0010457 -0.00129464 -0.00156616 -0.00185641 -0.00216154 -0.00248157 -0.00281648 -0.00316451 -0.00352389 -0.0038946 -0.00427666 -0.00466757 -0.00506483 -0.00546845 -0.00587843 -0.00628655 -0.00668461 -0.0070726 -0.00745052 -0.00780502 -0.00812272 -0.00840364 -0.00864776 -0.00884484 -0.00898463 -0.00906712 -0.00909231 -0.00906128 -0.00897507 -0.0088337 -0.00863716 -0.00839694 -0.00812452 -0.00781991 -0.00748309 -0.00712678 -0.00676368 -0.00639378 -0.00601709 -0.00563989 -0.00526845 -0.00490278 -0.00454287 -0.00418948 -0.00384335 -0.00350451 -0.00317293 -0.00284973 -0.00253604 -0.00223183 -0.00193713 -0.00165618 -0.00139324 -0.00114833 -0.00092143 -0.000717254 -0.000540508 -0.000391192 -0.000269305 -0.000173 -0.000100427 -5.15878e-05 -2.64809e-05 -1.48955e-05 -6.62022e-06 -1.65506e-06 0 0 5.7386e-06 2.29544e-05 5.16474e-05 9.18176e-05 0.000141163 0.000197383 0.000260476 0.000330442 0.000398208 0.000454697 0.00049991 0.000533847 0.00055446 0.000559701 0.00054957 0.000524067 0.0004851 0.000434574 0.00037249 0.000298847 0.000216441 0.000128068 3.37265e-05 -6.65826e-05 -0.000170474 -0.000275561 -0.000381843 -0.000489322 -0.000595435 -0.000697621 -0.000795879 -0.00089021 -0.000976891 -0.0010522 -0.00111614 -0.00116871 -0.00120618 -0.00122482 -0.00122463 -0.00120561 -0.0011678 -0.00111124 -0.00103594 -0.000941895 -0.000836078 -0.00072546 -0.000610042 -0.000489824 -0.000376891 -0.000283326 -0.000209129 -0.000154302 -0.000129047 -0.000143569 -0.000197868 -0.000291943 -0.000427779 -0.000607356 -0.000830675 -0.00109774 -0.00140306 -0.00174116 -0.00211204 -0.0025157 -0.00294616 -0.00339742 -0.0038695 -0.00436239 -0.004874 -0.00540225 -0.00594714 -0.00650866 -0.00708393 -0.00767006 -0.00826704 -0.00887487 -0.0094815 -0.0100749 -0.0106549 -0.0112217 -0.0117547 -0.012233 -0.0126569 -0.0130262 -0.0133249 -0.013537 -0.0136623 -0.013701 -0.0136546 -0.0135247 -0.0133114 -0.0130146 -0.0126522 -0.0122423 -0.0117847 -0.0112794 -0.010746 -0.010204 -0.00965338 -0.00909412 -0.00853524 -0.00798575 -0.00744565 -0.00691492 -0.00639378 -0.00588241 -0.00538081 -0.00488899 -0.00440802 -0.00393897 -0.00348185 -0.00303666 -0.00261 -0.00220851 -0.00183218 -0.00148101 -0.00116286 -0.000885591 -0.000649212 -0.000453721 -0.000297315 -0.000178195 -9.63606e-05 -5.18118e-05 -2.91441e-05 -1.2953e-05 -3.23824e-06 0 0 7.87261e-06 3.14904e-05 7.08535e-05 0.000125962 0.000192899 0.000267749 0.000350513 0.000441189 0.000527064 0.000595426 0.000646275 0.000679609 0.000692708 0.00068285 0.000650036 0.000594264 0.000518366 0.000425173 0.000314684 0.000186899 4.59099e-05 -0.000104192 -0.000263406 -0.000431733 -0.00060552 -0.000781117 -0.000958523 -0.00113774 -0.00131455 -0.00148473 -0.00164829 -0.00180522 -0.00194949 -0.00207504 -0.00218188 -0.00227001 -0.00233371 -0.00236726 -0.00237066 -0.00234392 -0.00228745 -0.0022017 -0.00208665 -0.0019423 -0.00177953 -0.0016092 -0.00143131 -0.00124585 -0.0010707 -0.000923727 -0.000804919 -0.000714282 -0.000665927 -0.000673964 -0.000738394 -0.000859217 -0.00103783 -0.00127561 -0.00157258 -0.00192873 -0.00233487 -0.00278183 -0.0032696 -0.00379818 -0.00435901 -0.00494353 -0.00555173 -0.00618363 -0.00683796 -0.00751347 -0.00821016 -0.00892802 -0.00966547 -0.0104209 -0.0111943 -0.0119858 -0.0127798 -0.013561 -0.0143293 -0.0150849 -0.0157985 -0.0164412 -0.017013 -0.0175138 -0.0179204 -0.0182094 -0.0183808 -0.0184347 -0.0183731 -0.0181985 -0.0179106 -0.0175096 -0.0170212 -0.016471 -0.015859 -0.0151853 -0.014477 -0.0137613 -0.0130384 -0.0123081 -0.0115814 -0.0108692 -0.0101715 -0.00948822 -0.00881722 -0.00815623 -0.00750523 -0.00686425 -0.00623312 -0.00561172 -0.00500005 -0.00439811 -0.00381531 -0.00326108 -0.00273541 -0.00223831 -0.00178241 -0.00138033 -0.00103208 -0.000737661 -0.00049726 -0.00031107 -0.000179091 -0.000101324 -5.69946e-05 -2.53309e-05 -6.33273e-06 0 0 1.01725e-05 4.06899e-05 9.15523e-05 0.00016276 0.000248146 0.000341546 0.000442958 0.000552384 0.000653011 0.000728028 0.000777434 0.00080123 0.000796027 0.000758437 0.000688458 0.000586091 0.000455308 0.000300077 0.000120401 -8.37221e-05 -0.00030663 -0.000542663 -0.000791819 -0.0010541 -0.00132423 -0.00159695 -0.00187225 -0.00215014 -0.00242413 -0.00268776 -0.00294103 -0.00318394 -0.00340731 -0.00360195 -0.00376789 -0.0039051 -0.00400533 -0.00406032 -0.00407007 -0.00403456 -0.00395491 -0.00383218 -0.00366639 -0.00345754 -0.00322155 -0.00297438 -0.00271601 -0.00244645 -0.00219066 -0.0019736 -0.00179527 -0.00165567 -0.00157321 -0.00156626 -0.00163485 -0.00177896 -0.00199846 -0.00229323 -0.00266325 -0.00310853 -0.00361479 -0.00416771 -0.00476731 -0.00541358 -0.00609496 -0.00679985 -0.00752827 -0.0082802 -0.00905639 -0.00985753 -0.0106836 -0.0115347 -0.0124122 -0.0133174 -0.0142504 -0.0152111 -0.0161814 -0.017143 -0.0180958 -0.0190399 -0.0199367 -0.0207474 -0.021472 -0.0221106 -0.0226312 -0.0230019 -0.0232226 -0.0232934 -0.023217 -0.0229964 -0.0226315 -0.0221224 -0.0215038 -0.0208107 -0.0200429 -0.0192006 -0.0183196 -0.0174356 -0.0165488 -0.0156591 -0.0147784 -0.0139188 -0.0130802 -0.0122628 -0.0114598 -0.0106648 -0.00987776 -0.0090987 -0.00832506 -0.00755431 -0.00678645 -0.00602149 -0.00527209 -0.00455093 -0.00385801 -0.00319333 -0.0025759 -0.00202472 -0.0015398 -0.00112113 -0.000772834 -0.000499052 -0.00029978 -0.000175017 -9.84468e-05 -4.37541e-05 -1.09385e-05 0 0 1.26382e-05 5.05528e-05 0.000113744 0.000202211 0.000306904 0.000418771 0.000537813 0.000664028 0.000776048 0.000852502 0.00089339 0.000898712 0.000864418 0.00078646 0.000664837 0.000499549 0.000295924 5.92878e-05 -0.000210359 -0.000513016 -0.00084118 -0.00118735 -0.00155151 -0.00193368 -0.00232661 -0.00272306 -0.00312303 -0.00352652 -0.00392419 -0.00430672 -0.00467412 -0.00502636 -0.00535035 -0.00563295 -0.00587416 -0.00607399 -0.00622106 -0.00630401 -0.00632284 -0.00627754 -0.00617015 -0.0060027 -0.00577519 -0.00548761 -0.00516215 -0.004821 -0.00446415 -0.00409161 -0.00373675 -0.00343294 -0.00318018 -0.00297847 -0.00285088 -0.00282047 -0.00288723 -0.00305117 -0.00330969 -0.00366019 -0.00410268 -0.00463715 -0.00524279 -0.00589881 -0.00660518 -0.00736192 -0.008154 -0.00896639 -0.0097991 -0.0106521 -0.0115293 -0.0124344 -0.0133676 -0.0143288 -0.015324 -0.0163595 -0.0174351 -0.018551 -0.0196864 -0.0208209 -0.0219544 -0.0230869 -0.0241691 -0.0251514 -0.0260339 -0.0268165 -0.0274574 -0.0279144 -0.0281877 -0.0282771 -0.0281862 -0.0279185 -0.027474 -0.0268528 -0.0261001 -0.0252613 -0.0243365 -0.0233256 -0.0222739 -0.0212269 -0.0201846 -0.019147 -0.0181262 -0.0171345 -0.016172 -0.0152385 -0.0143215 -0.0134081 -0.0124984 -0.0115923 -0.0106838 -0.00976671 -0.00884104 -0.00790679 -0.00698034 -0.00607808 -0.00519999 -0.00434609 -0.00354335 -0.00281878 -0.00217237 -0.00160412 -0.00112404 -0.000742142 -0.000458426 -0.00027289 -0.000153501 -6.82226e-05 -1.70556e-05 0 0 1.46532e-05 5.86128e-05 0.000131879 0.000234451 0.000353876 0.000477699 0.000605921 0.000738541 0.000849901 0.000914344 0.000931869 0.000902477 0.000821811 0.000685517 0.000493594 0.000246043 -5.02588e-05 -0.000388433 -0.000768479 -0.0011904 -0.00164487 -0.00212257 -0.0026235 -0.00314766 -0.00368583 -0.00422878 -0.0047765 -0.005329 -0.00587364 -0.00639778 -0.00690141 -0.00738454 -0.00782923 -0.00821756 -0.00854952 -0.00882512 -0.00902929 -0.00914698 -0.00917817 -0.00912288 -0.00898445 -0.00876626 -0.00846831 -0.00809059 -0.00766276 -0.00721444 -0.00674565 -0.00625638 -0.00578927 -0.00538693 -0.00504938 -0.00477661 -0.0045956 -0.00453333 -0.0045898 -0.00476502 -0.00505158 -0.0054421 -0.00593656 -0.00653497 -0.00720765 -0.00792488 -0.00868668 -0.00949305 -0.0103252 -0.0111644 -0.0120105 -0.0128637 -0.0137334 -0.0146294 -0.0155515 -0.0164999 -0.0174894 -0.018535 -0.0196367 -0.0207945 -0.0219884 -0.0231985 -0.0244248 -0.0256673 -0.0268662 -0.0279618 -0.0289541 -0.029843 -0.0305757 -0.0310994 -0.0314141 -0.0315197 -0.0314204 -0.0311202 -0.0306191 -0.0299171 -0.0290706 -0.028136 -0.0271133 -0.0260026 -0.024858 -0.0237336 -0.0226295 -0.0215456 -0.0204915 -0.0194764 -0.0185005 -0.0175637 -0.0166431 -0.0157158 -0.0147817 -0.013841 -0.0128814 -0.0118907 -0.0108691 -0.00981638 -0.008753 -0.00769929 -0.00665524 -0.00562085 -0.0046335 -0.00373059 -0.0029121 -0.00217803 -0.00154785 -0.00104097 -0.000657413 -0.00039717 -0.000223408 -9.92926e-05 -2.48231e-05 0 0 1.56009e-05 6.24036e-05 0.000140408 0.000249614 0.000373765 0.000496603 0.000618128 0.000738341 0.000828296 0.000859049 0.000830601 0.00074295 0.000592139 0.000374206 8.9153e-05 -0.000263021 -0.000673714 -0.00113432 -0.00164484 -0.00220528 -0.00280483 -0.00343266 -0.00408879 -0.00477322 -0.00547505 -0.00618342 -0.00689831 -0.00761972 -0.00833141 -0.0090171 -0.0096768 -0.0103105 -0.0108946 -0.0114053 -0.0118428 -0.012207 -0.0124784 -0.0126379 -0.0126853 -0.0126206 -0.0124491 -0.0121759 -0.0118011 -0.0113246 -0.0107848 -0.0102201 -0.00963043 -0.00901582 -0.00842851 -0.00792077 -0.0074926 -0.00714399 -0.00690399 -0.0068016 -0.00683683 -0.00700968 -0.00730423 -0.00770453 -0.00821059 -0.00882241 -0.00949808 -0.0101957 -0.0109153 -0.0116568 -0.0123976 -0.0131149 -0.0138088 -0.0144791 -0.0151455 -0.0158275 -0.0165249 -0.0172378 -0.0179966 -0.0188318 -0.0197432 -0.0207309 -0.0217811 -0.0228797 -0.0240269 -0.0252225 -0.0263986 -0.0274871 -0.028488 -0.0294013 -0.030163 -0.0307093 -0.0310401 -0.0311554 -0.0310595 -0.030757 -0.0302476 -0.0295315 -0.0286759 -0.0277478 -0.0267473 -0.0256744 -0.0245898 -0.023554 -0.022567 -0.0216289 -0.020741 -0.0199046 -0.0191197 -0.0183863 -0.0176652 -0.0169172 -0.0161423 -0.0153404 -0.0144897 -0.0135682 -0.0125758 -0.0115126 -0.010403 -0.00927134 -0.00811765 -0.00694191 -0.00579512 -0.00472825 -0.00374131 -0.00283429 -0.00204123 -0.00139617 -0.000899125 -0.000550082 -0.000309421 -0.00013752 -3.43801e-05 0 0 1.54813e-05 6.19251e-05 0.000139331 0.0002477 0.000366571 0.000475482 0.000574434 0.000663427 0.000711231 0.000686617 0.000589584 0.000420132 0.0001754 -0.000147473 -0.000548488 -0.00102764 -0.00157444 -0.00217838 -0.00283945 -0.00355767 -0.00432106 -0.00511763 -0.00594739 -0.00681035 -0.00769428 -0.00858698 -0.00948845 -0.0103987 -0.0112975 -0.0121647 -0.0130003 -0.0138043 -0.0145463 -0.0151962 -0.015754 -0.0162195 -0.0165685 -0.0167767 -0.0168441 -0.0167707 -0.016564 -0.0162316 -0.0157734 -0.0151896 -0.0145283 -0.013838 -0.0131185 -0.0123699 -0.0116545 -0.0110344 -0.0105098 -0.0100806 -0.00977605 -0.00962527 -0.00962831 -0.00978515 -0.0100676 -0.0104475 -0.0109248 -0.0114994 -0.0121141 -0.0127113 -0.013291 -0.0138533 -0.0143712 -0.0148181 -0.0151939 -0.0154986 -0.0157657 -0.0160287 -0.0162876 -0.0165425 -0.0168457 -0.0172498 -0.0177546 -0.0183603 -0.0190645 -0.0198645 -0.0207606 -0.0217526 -0.0227663 -0.0237274 -0.0246357 -0.0254915 -0.0262193 -0.026744 -0.0270655 -0.0271839 -0.0271035 -0.0268288 -0.0263597 -0.0256962 -0.024916 -0.0240968 -0.0232384 -0.022341 -0.0214693 -0.0206881 -0.0199972 -0.0193968 -0.0188747 -0.018419 -0.0180296 -0.0177064 -0.017388 -0.0170125 -0.0165801 -0.0160907 -0.0155088 -0.014799 -0.0139612 -0.0129955 -0.0119303 -0.0107942 -0.00958721 -0.00830928 -0.00702821 -0.00581178 -0.00466 -0.00357287 -0.00260418 -0.00180775 -0.00118356 -0.000731625 -0.000411539 -0.000182906 -4.57266e-05 0 0 1.42944e-05 5.71774e-05 0.000128649 0.00022871 0.000332294 0.000414337 0.00047484 0.000513802 0.000498709 0.000397048 0.000208819 -6.59781e-05 -0.000428404 -0.00087952 -0.00141933 -0.00204782 -0.00275244 -0.0035206 -0.00435231 -0.00524756 -0.00619355 -0.00717746 -0.0081993 -0.00925905 -0.0103435 -0.0114395 -0.0125469 -0.0136659 -0.0147719 -0.0158405 -0.0168718 -0.0178658 -0.0187846 -0.0195903 -0.020283 -0.0208627 -0.0212995 -0.0215635 -0.0216547 -0.0215731 -0.0213292 -0.0209333 -0.0203854 -0.0196856 -0.0188933 -0.0180681 -0.0172098 -0.0163187 -0.0154672 -0.014728 -0.0141011 -0.0135865 -0.0132118 -0.0130044 -0.0129642 -0.0130914 -0.0133417 -0.013671 -0.0140791 -0.0145661 -0.0150557 -0.0154716 -0.0158138 -0.0160824 -0.0162461 -0.0162739 -0.0161659 -0.015922 -0.0155939 -0.0152331 -0.0148398 -0.014414 -0.0140366 -0.013789 -0.013671 -0.0136827 -0.0138385 -0.014153 -0.014626 -0.0152576 -0.0159693 -0.0166825 -0.0173972 -0.0181135 -0.0187445 -0.0192035 -0.0194904 -0.0196053 -0.0195524 -0.0193357 -0.0189552 -0.018411 -0.017791 -0.0171828 -0.0165866 -0.0160024 -0.0154966 -0.0151359 -0.0149201 -0.0148492 -0.0148927 -0.0150196 -0.0152301 -0.015524 -0.0158113 -0.0160017 -0.0160952 -0.0160918 -0.0159387 -0.0155832 -0.0150253 -0.014265 -0.013335 -0.0122679 -0.0110639 -0.00972295 -0.00833276 -0.00698117 -0.00566818 -0.00439378 -0.00323672 -0.0022757 -0.00151072 -0.0009418 -0.000529762 -0.00023545 -5.88625e-05 0 0 1.17012e-05 4.68047e-05 0.000105311 0.000187219 0.000262859 0.00030256 0.000306322 0.000274144 0.000174178 -2.54282e-05 -0.000324674 -0.00072356 -0.00122012 -0.00181237 -0.00250033 -0.00328398 -0.00414856 -0.0050793 -0.00607618 -0.00713922 -0.00825577 -0.0094132 -0.0106115 -0.0118507 -0.0131179 -0.0144003 -0.0156978 -0.0170106 -0.0183104 -0.0195693 -0.0207872 -0.0219641 -0.0230541 -0.0240115 -0.0248361 -0.025528 -0.0260512 -0.0263699 -0.0264839 -0.0263933 -0.0261119 -0.0256536 -0.0250183 -0.0242061 -0.0232887 -0.0223379 -0.0213537 -0.0203361 -0.0193678 -0.0185313 -0.0178267 -0.0172539 -0.0168353 -0.0165935 -0.0165283 -0.0166398 -0.0168622 -0.0171298 -0.0174427 -0.0178007 -0.018104 -0.0182528 -0.018247 -0.0180867 -0.017736 -0.0171592 -0.0163563 -0.0153273 -0.0141475 -0.0128923 -0.0115615 -0.0101554 -0.00879289 -0.00759315 -0.00655616 -0.00568194 -0.00500976 -0.00457892 -0.00438941 -0.00444123 -0.00465489 -0.00495088 -0.0053292 -0.00578987 -0.00623448 -0.00656464 -0.00678037 -0.00688165 -0.00687198 -0.00675485 -0.00653025 -0.0061982 -0.00585615 -0.00560157 -0.00543447 -0.00535485 -0.00542759 -0.00571756 -0.00622478 -0.00694924 -0.00783421 -0.00882294 -0.00991546 -0.0111117 -0.0122849 -0.0133078 -0.0141807 -0.0149035 -0.0154013 -0.0155994 -0.0154978 -0.0150965 -0.0144326 -0.0135435 -0.012429 -0.0110893 -0.00963625 -0.00818162 -0.00672547 -0.0052678 -0.0039182 -0.00278628 -0.00187203 -0.00117546 -0.000661198 -0.000293866 -7.34664e-05 0 0 7.3628e-06 2.94512e-05 6.62652e-05 0.000117805 0.00015019 0.00012954 5.58564e-05 -7.08622e-05 -0.00027891 -0.000596581 -0.00102388 -0.00156079 -0.00220057 -0.00293646 -0.00376844 -0.00469653 -0.00570366 -0.00677276 -0.00790384 -0.00909689 -0.0103411 -0.0116259 -0.012951 -0.0143166 -0.0157125 -0.0171288 -0.0185653 -0.0200222 -0.021469 -0.0228756 -0.024242 -0.0255681 -0.0268 -0.0278837 -0.0288193 -0.0296067 -0.0302035 -0.0305675 -0.0306984 -0.0305964 -0.0302794 -0.029765 -0.0290534 -0.0281445 -0.0271234 -0.026075 -0.0249993 -0.0238964 -0.0228577 -0.0219745 -0.0212468 -0.0206748 -0.0202708 -0.0200472 -0.020004 -0.0201414 -0.0203645 -0.020579 -0.0207846 -0.0209815 -0.0210401 -0.0208309 -0.0203538 -0.0196089 -0.0185549 -0.0171509 -0.0153968 -0.0132925 -0.0109441 -0.00845759 -0.00583288 -0.00307 -0.000338043 0.00219393 0.00452592 0.00665792 0.00851536 0.0100236 0.0111828 0.0119927 0.0125295 0.0128692 0.0130116 0.0129569 0.0128149 0.0126956 0.0125991 0.0125253 0.0124718 0.0124365 0.0124193 0.0124202 0.012333 0.0120514 0.0115755 0.0109053 0.00998188 0.0087466 0.00719941 0.00534031 0.00326136 0.00105464 -0.00127987 -0.00374217 -0.00615828 -0.00835424 -0.0103301 -0.0120857 -0.0135187 -0.0145262 -0.0151084 -0.0152652 -0.0150389 -0.0144717 -0.0135637 -0.0123149 -0.0108662 -0.00935836 -0.00779153 -0.00616568 -0.00462801 -0.00332576 -0.00225891 -0.00142747 -0.000802953 -0.000356868 -8.9217e-05 0 0 1.27921e-06 5.11684e-06 1.15129e-05 2.04674e-05 -5.71276e-06 -0.00010472 -0.000276556 -0.000521218 -0.000860555 -0.00131641 -0.00188878 -0.00257768 -0.00336978 -0.00425178 -0.00522368 -0.00628548 -0.00741773 -0.008601 -0.00983528 -0.0111206 -0.0124497 -0.0138154 -0.0152178 -0.0166567 -0.0181274 -0.019625 -0.0211493 -0.0227006 -0.0242476 -0.0257595 -0.0272362 -0.0286777 -0.030022 -0.0312069 -0.0322325 -0.0330988 -0.0337564 -0.0341563 -0.0342983 -0.0341826 -0.0338315 -0.0332675 -0.0324906 -0.0315009 -0.0303974 -0.0292794 -0.0281467 -0.0269995 -0.0259367 -0.0250574 -0.0243616 -0.0238493 -0.0235181 -0.0233655 -0.0233916 -0.0235963 -0.0238488 -0.0240184 -0.024105 -0.0241086 -0.023864 -0.0232059 -0.0221341 -0.0206489 -0.0187029 -0.016249 -0.0132873 -0.00981766 -0.00598376 -0.00192915 0.00234617 0.00684221 0.0113279 0.0155723 0.0195753 0.0233369 0.0267368 0.0296547 0.0320905 0.0340443 0.035584 0.0367777 0.0376252 0.0381268 0.0384037 0.0385774 0.038648 0.0386154 0.0384791 0.0382385 0.0378935 0.0374442 0.0367764 0.0357762 0.0344433 0.0327779 0.0307318 0.0282566 0.0253525 0.0220194 0.018394 0.0146131 0.0106767 0.00658468 0.00256842 -0.00114086 -0.00454317 -0.00763851 -0.0102907 -0.0123635 -0.013857 -0.0147712 -0.0151538 -0.0150528 -0.014468 -0.0133997 -0.0120225 -0.0105114 -0.00886635 -0.00708742 -0.00536616 -0.00389414 -0.00267136 -0.00169782 -0.000955026 -0.000424456 -0.000106114 0 0 -6.54958e-06 -2.61983e-05 -5.89463e-05 -0.000104793 -0.000204849 -0.000400223 -0.000690914 -0.00107692 -0.00157076 -0.00218492 -0.0029194 -0.00377421 -0.00472773 -0.00575834 -0.00686603 -0.00805081 -0.00929077 -0.010564 -0.0118705 -0.0132103 -0.0145814 -0.0159819 -0.0174119 -0.0188712 -0.0203626 -0.0218889 -0.0234499 -0.0250458 -0.0266462 -0.0282209 -0.0297699 -0.0312931 -0.0327203 -0.0339812 -0.0350759 -0.0360042 -0.0367099 -0.0371363 -0.0372836 -0.0371517 -0.0367683 -0.0361611 -0.0353301 -0.0342752 -0.0331108 -0.031951 -0.0307959 -0.0296454 -0.028605 -0.0277802 -0.027171 -0.0267775 -0.0265773 -0.0265485 -0.0266908 -0.0270044 -0.0273149 -0.0274481 -0.0274037 -0.027182 -0.0265757 -0.0253777 -0.0235881 -0.0212067 -0.0181798 -0.0144535 -0.0100278 -0.00490268 0.000733638 0.00669307 0.0129756 0.0195812 0.026205 0.0325419 0.0385919 0.044355 0.0496547 0.0543143 0.0583339 0.0617135 0.0645085 0.0667746 0.0685117 0.0697198 0.0705318 0.0710806 0.0713663 0.0713888 0.0711498 0.0706509 0.0698922 0.0688737 0.0674742 0.0655726 0.063169 0.0602632 0.0568221 0.0528126 0.0482345 0.043088 0.0375638 0.0318525 0.0259542 0.0198688 0.0138953 0.00833229 0.00317994 -0.00156181 -0.00571743 -0.0091114 -0.0117437 -0.0136144 -0.0147774 -0.0152865 -0.0151419 -0.0143436 -0.0131052 -0.0116407 -0.00994994 -0.00803303 -0.00613263 -0.00449141 -0.00310938 -0.00198652 -0.00111742 -0.000496631 -0.000124158 0 0 -1.60761e-05 -6.43045e-05 -0.000144685 -0.000257218 -0.000445391 -0.000752694 -0.00117912 -0.00172469 -0.00238863 -0.00317021 -0.00406942 -0.00508627 -0.0061883 -0.00734305 -0.00855053 -0.00981074 -0.0110992 -0.0123913 -0.0136872 -0.0149867 -0.016296 -0.0176211 -0.0189618 -0.0203184 -0.0217051 -0.0231367 -0.0246129 -0.0261339 -0.0276733 -0.0292048 -0.0307285 -0.0322444 -0.0336749 -0.0349427 -0.0360478 -0.0369901 -0.0377061 -0.038132 -0.0382678 -0.0381136 -0.0377028 -0.0370691 -0.0362124 -0.0351326 -0.0339597 -0.0328235 -0.0317239 -0.030661 -0.0297443 -0.0290832 -0.0286778 -0.0285281 -0.0285854 -0.0288008 -0.0291746 -0.0297065 -0.0301698 -0.0303375 -0.0302095 -0.0297859 -0.0288106 -0.0270276 -0.0244368 -0.0210383 -0.0167707 -0.0115729 -0.00544492 0.00161335 0.00936105 0.0175574 0.0262024 0.0352961 0.0444457 0.0532587 0.061735 0.0698745 0.0774334 0.0841675 0.0900768 0.0951614 0.0994605 0.103013 0.10582 0.10788 0.109339 0.110342 0.110889 0.110981 0.110621 0.109814 0.10856 0.10686 0.104584 0.101605 0.0979232 0.093538 0.088435 0.0825994 0.0760313 0.0687307 0.0609516 0.0529482 0.0447205 0.0362685 0.0279697 0.0202018 0.0129646 0.00625824 0.000303861 -0.00467736 -0.00868542 -0.0117203 -0.0138428 -0.0151136 -0.0155328 -0.0151002 -0.0140739 -0.0127116 -0.0110134 -0.00897927 -0.00690948 -0.00510426 -0.00356362 -0.00228756 -0.00128675 -0.000571889 -0.000142972 0 0 -2.72529e-05 -0.000109012 -0.000245276 -0.000436047 -0.000725512 -0.00115786 -0.00173309 -0.00245121 -0.00329328 -0.00424039 -0.00529253 -0.00644971 -0.00766534 -0.00889284 -0.0101322 -0.0113834 -0.0126193 -0.0138124 -0.0149628 -0.0160706 -0.0171533 -0.0182285 -0.0192964 -0.0203568 -0.0214421 -0.0225845 -0.0237841 -0.0250408 -0.0263373 -0.0276563 -0.0289978 -0.0303619 -0.031666 -0.0328276 -0.0338468 -0.0347236 -0.0353874 -0.0357677 -0.0358646 -0.0356781 -0.0352482 -0.0346149 -0.0337783 -0.0327383 -0.0316405 -0.0306305 -0.0297081 -0.0288734 -0.0282364 -0.0279068 -0.0278847 -0.0281701 -0.028679 -0.0293275 -0.0301156 -0.0310432 -0.0318202 -0.032156 -0.0320508 -0.0315046 -0.0302042 -0.0278365 -0.0244017 -0.0198996 -0.0142608 -0.00741611 0.000634634 0.00989139 0.0200515 0.0308122 0.0421736 0.0541357 0.0662026 0.0778786 0.0891637 0.100058 0.110238 0.119379 0.127483 0.134549 0.140597 0.145647 0.149698 0.152751 0.154965 0.156498 0.157352 0.157527 0.157029 0.155867 0.154042 0.151552 0.148263 0.144038 0.138877 0.13278 0.125753 0.117802 0.108929 0.0991318 0.0887385 0.0780758 0.0671436 0.055942 0.0449393 0.034604 0.0249361 0.0159355 0.00787593 0.0010311 -0.004599 -0.00901437 -0.0122834 -0.0144746 -0.0155878 -0.0156232 -0.0148879 -0.0136895 -0.0120278 -0.00990288 -0.00767874 -0.00571936 -0.00402476 -0.00259491 -0.00145964 -0.000648729 -0.000162182 0 0 -4.008e-05 -0.00016032 -0.00036072 -0.00064128 -0.00104521 -0.00161572 -0.00235282 -0.00325649 -0.00428471 -0.00539546 -0.00658874 -0.00786454 -0.00915886 -0.0104077 -0.011611 -0.0127689 -0.0138511 -0.0148273 -0.0156975 -0.0164618 -0.0171531 -0.0178043 -0.0184155 -0.0189865 -0.0195735 -0.0202325 -0.0209635 -0.0217664 -0.0226381 -0.0235752 -0.0245777 -0.0256456 -0.0266935 -0.0276359 -0.0284729 -0.0292045 -0.0297536 -0.0300435 -0.030074 -0.0298452 -0.0294043 -0.0287985 -0.0280278 -0.0270923 -0.0261532 -0.0253719 -0.0247483 -0.0242826 -0.0240813 -0.024251 -0.0247917 -0.0257034 -0.0268582 -0.0281284 -0.0295138 -0.0310146 -0.0322661 -0.0329038 -0.0329278 -0.032338 -0.0307563 -0.0278045 -0.0234826 -0.0177906 -0.0106501 -0.00198297 0.00821089 0.0199315 0.0328049 0.0464575 0.0608893 0.0761001 0.0914758 0.106402 0.120878 0.134905 0.148067 0.15995 0.170554 0.179877 0.187919 0.194676 0.200147 0.204333 0.207409 0.20955 0.210756 0.211026 0.210374 0.208811 0.206337 0.202953 0.198512 0.192872 0.18603 0.177988 0.168775 0.158421 0.146927 0.134291 0.120924 0.107235 0.0932234 0.0788893 0.0648041 0.0515392 0.0390944 0.02747 0.0169988 0.00801397 0.000515543 -0.00549651 -0.0100992 -0.0133694 -0.0153071 -0.0159124 -0.0155474 -0.0145743 -0.0129932 -0.0108039 -0.00844041 -0.00633672 -0.00449278 -0.0029086 -0.00163609 -0.000727149 -0.000181787 0 0 -5.45574e-05 -0.00021823 -0.000491017 -0.000872918 -0.00140449 -0.00212628 -0.00303829 -0.00414053 -0.00536293 -0.00663543 -0.00795804 -0.00933075 -0.0106689 -0.0118876 -0.0129871 -0.0139672 -0.0147946 -0.0154359 -0.0158912 -0.0161605 -0.0162956 -0.0163485 -0.0163191 -0.0162074 -0.0160993 -0.0160806 -0.0161511 -0.0163109 -0.0165758 -0.0169616 -0.0174681 -0.0180955 -0.0187575 -0.0193677 -0.0199261 -0.0204329 -0.020805 -0.0209593 -0.0208959 -0.0206149 -0.0201712 -0.0196199 -0.018961 -0.0181945 -0.0174977 -0.0170477 -0.0168447 -0.0168886 -0.0172791 -0.0181158 -0.0193988 -0.021128 -0.0231231 -0.0252035 -0.0273693 -0.0296205 -0.0315075 -0.0325808 -0.0328404 -0.0322862 -0.0304671 -0.0269315 -0.0216796 -0.0147112 -0.00593853 0.0047265 0.0172838 0.0317335 0.0476214 0.0644933 0.0823493 0.101189 0.120265 0.138828 0.156878 0.174416 0.190922 0.205879 0.219287 0.231146 0.241426 0.250099 0.257166 0.262626 0.266672 0.269496 0.271099 0.27148 0.270656 0.268645 0.265446 0.26106 0.255331 0.248105 0.239383 0.229163 0.217502 0.204456 0.190025 0.174209 0.157509 0.140426 0.12296 0.10511 0.087564 0.0710071 0.0554396 0.0408616 0.0276724 0.0162713 0.0066582 -0.00116677 -0.00729004 -0.011798 -0.0146906 -0.015968 -0.0160523 -0.0153662 -0.0139095 -0.0116822 -0.0091945 -0.00695632 -0.00496769 -0.00322861 -0.00181609 -0.000807152 -0.000201788 0 0 -7.0344e-05 -0.000281376 -0.000633096 -0.0011255 -0.00179425 -0.00267499 -0.00376773 -0.00507245 -0.00648549 -0.00790315 -0.00932542 -0.0107523 -0.0120743 -0.013182 -0.0140752 -0.014754 -0.0151815 -0.0153208 -0.0151719 -0.0147347 -0.0140848 -0.0132975 -0.012373 -0.0113111 -0.0102355 -0.00926949 -0.00841322 -0.00766664 -0.00707157 -0.00