<?xml version="1.0"?> 
<VTKFile type="StructuredGrid" version="0.1"> 
<StructuredGrid WholeExtent="0 128 0 128 0 0"> 
<Piece Extent="0 128 0 128 0 0"> 
<PointData>
<DataArray type="Float32" Name="u" format="ascii" NumberOfComponents="1"> 
0 0 0 0 0 0 0 0 0 0 0 0 0 0 0 0 0 0 0 0 0 0 0 0 0 0 0 0 0 0 0 0 0 0 0 0 0 0 0 0 0 0 0 0 0 0 0 0 0 0 0 0 0 0 0 0 0 0 0 0 0 0 0 0 0 0 0 0 0 0 0 0 0 0 0 0 0 0 0 0 0 0 0 0 0 0 0 0 0 0 0 0 0 0 0 0 0 0 0 0 0 0 0 0 0 0 0 0 0 0 0 0 0 0 0 0 0 0 0 0 0 0 0 0 0 0 0 0 0 0 -9.33749e-09 -3.73499e-08 -8.40374e-08 -1.494e-07 -4.40114e-07 -1.16286e-06 -2.31763e-06 -3.90443e-06 -6.00094e-06 -8.68485e-06 -1.19562e-05 -1.58149e-05 -2.02335e-05 -2.51848e-05 -3.06686e-05 -3.66849e-05 -4.31903e-05 -5.01413e-05 -5.75379e-05 -6.53799e-05 -7.35731e-05 -8.2023e-05 -9.07295e-05 -9.96926e-05 -0.00010874 -0.000117698 -0.000126567 -0.000135348 -0.00014382 -0.000151763 -0.000159177 -0.000166061 -0.000172236 -0.000177521 -0.000181914 -0.000185417 -0.000187986 -0.000189574 -0.000190183 -0.000189812 -0.000188594 -0.000186664 -0.000184019 -0.000180662 -0.000176848 -0.000172838 -0.000168629 -0.000164223 -0.000159876 -0.000155846 -0.000152133 -0.000148736 -0.000145788 -0.000143418 -0.000141627 -0.000140415 -0.000139737 -0.000139548 -0.000139847 -0.000140635 -0.000141742 -0.000143 -0.000144409 -0.000145969 -0.000147507 -0.00014885 -0.000149999 -0.000150954 -0.000151646 -0.000152006 -0.000152036 -0.000151735 -0.000151165 -0.000150388 -0.000149403 -0.000148211 -0.000146939 -0.000145714 -0.000144537 -0.000143407 -0.000142425 -0.00014169 -0.000141203 -0.000140964 -0.000140997 -0.000141326 -0.000141951 -0.000142872 -0.000144042 -0.000145415 -0.000146989 -0.000148765 -0.000150643 -0.000152522 -0.000154403 -0.000156285 -0.000158024 -0.000159477 -0.000160643 -0.000161522 -0.00016195 -0.000161761 -0.000160955 -0.000159533 -0.000157363 -0.000154316 -0.000150391 -0.000145587 -0.000139886 -0.000133265 -0.000125725 -0.000117266 -0.000108058 -9.82701e-05 -8.79022e-05 -7.69544e-05 -6.58808e-05 -5.51356e-05 -4.47188e-05 -3.46304e-05 -2.54848e-05 -1.78963e-05 -1.18651e-05 -7.39099e-06 -4.15743e-06 -1.84775e-06 -4.61937e-07 0 0 -3.73499e-08 -1.494e-07 -3.36149e-07 -5.97599e-07 -1.76046e-06 -4.65142e-06 -9.27051e-06 -1.56177e-05 -2.40037e-05 -3.47394e-05 -4.78246e-05 -6.32594e-05 -8.09342e-05 -0.000100739 -0.000122674 -0.00014674 -0.000172761 -0.000200565 -0.000230151 -0.00026152 -0.000294293 -0.000328092 -0.000362918 -0.00039877 -0.000434959 -0.000470792 -0.00050627 -0.000541393 -0.00057528 -0.000607051 -0.000636706 -0.000664245 -0.000688945 -0.000710082 -0.000727657 -0.00074167 -0.000751942 -0.000758296 -0.000760731 -0.000759247 -0.000754378 -0.000746654 -0.000736077 -0.000722647 -0.000707394 -0.00069135 -0.000674516 -0.000656891 -0.000639505 -0.000623385 -0.000608531 -0.000594945 -0.00058315 -0.000573671 -0.000566508 -0.000561661 -0.000558949 -0.000558192 -0.000559388 -0.000562539 -0.000566968 -0.000572001 -0.000577636 -0.000583875 -0.000590027 -0.000595401 -0.000599997 -0.000603815 -0.000606582 -0.000608026 -0.000608145 -0.000606941 -0.00060466 -0.00060155 -0.000597611 -0.000592843 -0.000587756 -0.000582857 -0.000578148 -0.000573628 -0.000569698 -0.00056676 -0.000564812 -0.000563856 -0.000563987 -0.000565303 -0.000567803 -0.000571488 -0.000576169 -0.000581658 -0.000587955 -0.00059506 -0.000602572 -0.000610089 -0.000617611 -0.000625139 -0.000632096 -0.000637906 -0.00064257 -0.000646088 -0.000647799 -0.000647043 -0.000643821 -0.000638132 -0.000629454 -0.000617264 -0.000601563 -0.000582349 -0.000559543 -0.00053306 -0.000502901 -0.000469066 -0.000432233 -0.00039308 -0.000351609 -0.000307817 -0.000263523 -0.000220543 -0.000178875 -0.000138522 -0.000101939 -7.15854e-05 -4.74603e-05 -2.9564e-05 -1.66297e-05 -7.39099e-06 -1.84775e-06 0 0 -8.40374e-08 -3.36149e-07 -7.56336e-07 -1.3446e-06 -3.96102e-06 -1.04657e-05 -2.08586e-05 -3.51398e-05 -5.40084e-05 -7.81636e-05 -0.000107605 -0.000142334 -0.000182102 -0.000226663 -0.000276017 -0.000330164 -0.000388713 -0.000451272 -0.000517841 -0.00058842 -0.000662158 -0.000738207 -0.000816565 -0.000897233 -0.000978657 -0.00105928 -0.00113911 -0.00121813 -0.00129438 -0.00136587 -0.00143259 -0.00149455 -0.00155013 -0.00159768 -0.00163723 -0.00166876 -0.00169187 -0.00170617 -0.00171164 -0.00170831 -0.00169735 -0.00167997 -0.00165617 -0.00162595 -0.00159164 -0.00155554 -0.00151766 -0.00147801 -0.00143889 -0.00140262 -0.0013692 -0.00133863 -0.00131209 -0.00129076 -0.00127464 -0.00126374 -0.00125764 -0.00125593 -0.00125862 -0.00126571 -0.00127568 -0.001287 -0.00129968 -0.00131372 -0.00132756 -0.00133965 -0.00134999 -0.00135858 -0.00136481 -0.00136806 -0.00136833 -0.00136562 -0.00136048 -0.00135349 -0.00134463 -0.0013339 -0.00132245 -0.00131143 -0.00130083 -0.00129066 -0.00128182 -0.00127521 -0.00127083 -0.00126868 -0.00126897 -0.00127193 -0.00127756 -0.00128585 -0.00129638 -0.00130873 -0.0013229 -0.00133889 -0.00135579 -0.0013727 -0.00138962 -0.00140656 -0.00142222 -0.00143529 -0.00144578 -0.0014537 -0.00145755 -0.00145585 -0.0014486 -0.0014358 -0.00141627 -0.00138884 -0.00135352 -0.00131029 -0.00125897 -0.00119938 -0.00113153 -0.0010554 -0.000972524 -0.000884431 -0.000791119 -0.000692589 -0.000592927 -0.000496221 -0.00040247 -0.000311674 -0.000229363 -0.000161067 -0.000106786 -6.65189e-05 -3.74169e-05 -1.66297e-05 -4.15743e-06 0 0 -1.494e-07 -5.97599e-07 -1.3446e-06 -2.3904e-06 -7.04182e-06 -1.86057e-05 -3.7082e-05 -6.24708e-05 -9.6015e-05 -0.000138958 -0.000191298 -0.000253038 -0.000323737 -0.000402957 -0.000490697 -0.000586959 -0.000691045 -0.000802261 -0.000920606 -0.00104608 -0.00117717 -0.00131237 -0.00145167 -0.00159508 -0.00173983 -0.00188317 -0.00202508 -0.00216557 -0.00230112 -0.00242821 -0.00254683 -0.00265698 -0.00275578 -0.00284033 -0.00291063 -0.00296668 -0.00300777 -0.00303318 -0.00304292 -0.00303699 -0.00301751 -0.00298662 -0.00294431 -0.00289059 -0.00282958 -0.0027654 -0.00269806 -0.00262757 -0.00255802 -0.00249354 -0.00243413 -0.00237978 -0.0023326 -0.00229468 -0.00226603 -0.00224665 -0.0022358 -0.00223277 -0.00223755 -0.00225016 -0.00226787 -0.002288 -0.00231055 -0.0023355 -0.00236011 -0.0023816 -0.00239999 -0.00241526 -0.00242633 -0.0024321 -0.00243258 -0.00242776 -0.00241864 -0.0024062 -0.00239045 -0.00237137 -0.00235102 -0.00233143 -0.00231259 -0.00229451 -0.00227879 -0.00226704 -0.00225925 -0.00225542 -0.00225595 -0.00226121 -0.00227121 -0.00228595 -0.00230468 -0.00232663 -0.00235182 -0.00238024 -0.00241029 -0.00244036 -0.00247044 -0.00250055 -0.00252838 -0.00255162 -0.00257028 -0.00258435 -0.0025912 -0.00258817 -0.00257528 -0.00255253 -0.00251781 -0.00246906 -0.00240625 -0.0023294 -0.00223817 -0.00213224 -0.0020116 -0.00187626 -0.00172893 -0.00157232 -0.00140643 -0.00123127 -0.00105409 -0.00088217 -0.000715501 -0.000554087 -0.000407757 -0.000286342 -0.000189841 -0.000118256 -6.65189e-05 -2.9564e-05 -7.39099e-06 0 0 -4.86792e-07 -1.94717e-06 -4.38113e-06 -7.78867e-06 -1.72784e-05 -3.79591e-05 -6.98307e-05 -0.000112893 -0.000168857 -0.000239434 -0.000324624 -0.000424427 -0.000538069 -0.000664778 -0.000804552 -0.000957393 -0.00112216 -0.00129773 -0.00148409 -0.00168124 -0.00188683 -0.00209848 -0.0023162 -0.00253999 -0.00276558 -0.00298871 -0.00320938 -0.00342759 -0.00363794 -0.00383501 -0.00401882 -0.00418936 -0.00434223 -0.00447303 -0.00458176 -0.00466842 -0.00473199 -0.00477145 -0.00478679 -0.00477803 -0.0047485 -0.00470157 -0.00463722 -0.00455546 -0.00446264 -0.00436512 -0.0042629 -0.00415599 -0.00405059 -0.00395293 -0.00386301 -0.00378083 -0.00370935 -0.00365155 -0.00360743 -0.00357698 -0.00355873 -0.00355119 -0.00355436 -0.00356823 -0.0035883 -0.00361002 -0.0036334 -0.00365845 -0.00368072 -0.0036958 -0.00370369 -0.00370439 -0.00369642 -0.00367833 -0.0036501 -0.00361175 -0.00356547 -0.00351346 -0.00345571 -0.00339223 -0.00332712 -0.00326449 -0.00320434 -0.00314667 -0.00309487 -0.00305232 -0.00301903 -0.002995 -0.00298134 -0.00297918 -0.00298851 -0.00300933 -0.00304043 -0.00308059 -0.0031298 -0.00318808 -0.00325234 -0.0033195 -0.00338957 -0.00346255 -0.00353396 -0.0035993 -0.00365857 -0.00371179 -0.00375393 -0.00377998 -0.00378994 -0.00378382 -0.00375774 -0.00370784 -0.00363412 -0.00353658 -0.00341452 -0.00326725 -0.00309476 -0.00289706 -0.00267856 -0.00244365 -0.00219235 -0.00192465 -0.00165218 -0.00138657 -0.00112782 -0.000875929 -0.000646684 -0.000455866 -0.000303473 -0.000189507 -0.000106597 -4.73767e-05 -1.18442e-05 0 0 -1.34957e-06 -5.39827e-06 -1.21461e-05 -2.15931e-05 -4.09465e-05 -7.74137e-05 -0.000130995 -0.000201689 -0.00029137 -0.000401908 -0.000533304 -0.000685557 -0.000857331 -0.00104729 -0.00125542 -0.00148174 -0.00172448 -0.00198188 -0.00225394 -0.00254066 -0.00283863 -0.00314445 -0.00345812 -0.00377963 -0.00410298 -0.00442218 -0.00473721 -0.00504808 -0.00534727 -0.00562723 -0.00588799 -0.00612953 -0.00634582 -0.00653082 -0.00668453 -0.00680696 -0.00689688 -0.00695305 -0.00697548 -0.00696416 -0.00692398 -0.0068598 -0.00677164 -0.00665948 -0.00653225 -0.00639888 -0.00625936 -0.00611369 -0.00597029 -0.00583757 -0.00571554 -0.00560418 -0.00550699 -0.00542746 -0.00536558 -0.00532134 -0.00529173 -0.00527368 -0.00526721 -0.00527232 -0.0052817 -0.00528807 -0.00529143 -0.00529178 -0.00528246 -0.0052568 -0.00521482 -0.00515651 -0.00508037 -0.00498489 -0.00487009 -0.00473596 -0.00458732 -0.00442902 -0.00426105 -0.00408341 -0.00390438 -0.00373224 -0.00356699 -0.00340862 -0.00326429 -0.00314113 -0.00303913 -0.00295831 -0.00290158 -0.00287188 -0.00286918 -0.00289351 -0.002943 -0.00301581 -0.00311192 -0.00323134 -0.00336819 -0.00351658 -0.00367652 -0.003848 -0.0040223 -0.00419069 -0.00435317 -0.00450975 -0.00465093 -0.00476723 -0.00485864 -0.00492516 -0.00495969 -0.00495513 -0.00491147 -0.00482872 -0.0047054 -0.00454004 -0.00433264 -0.0040832 -0.0037985 -0.00348532 -0.00314366 -0.00277351 -0.00239233 -0.00201758 -0.00164926 -0.00128737 -0.00095571 -0.000678096 -0.000454527 -0.000285003 -0.000160314 -7.12508e-05 -1.78127e-05 0 0 -2.73773e-06 -1.09509e-05 -2.46396e-05 -4.38037e-05 -7.8046e-05 -0.000136969 -0.000220574 -0.000328859 -0.000463552 -0.000626377 -0.000817336 -0.00103643 -0.00128152 -0.00155048 -0.0018433 -0.00215999 -0.00249798 -0.0028547 -0.00323014 -0.00362432 -0.00403258 -0.00445028 -0.00487742 -0.00531401 -0.00575205 -0.00618357 -0.00660857 -0.00702704 -0.00742911 -0.00780487 -0.00815432 -0.00847748 -0.00876653 -0.00901368 -0.00921894 -0.00938231 -0.00950244 -0.00957799 -0.00960897 -0.00959538 -0.00954393 -0.00946132 -0.00934756 -0.00920265 -0.00903841 -0.00886667 -0.00868742 -0.00850067 -0.00831712 -0.00814746 -0.0079917 -0.00784985 -0.00772554 -0.00762241 -0.00754048 -0.00747974 -0.00743479 -0.00740025 -0.00737612 -0.0073624 -0.00734808 -0.00732216 -0.00728463 -0.0072355 -0.00716531 -0.0070646 -0.00693337 -0.00677163 -0.00657817 -0.00635181 -0.00609254 -0.00580038 -0.0054842 -0.0051529 -0.00480647 -0.00444493 -0.00408281 -0.00373468 -0.00340054 -0.00308038 -0.00278707 -0.00253346 -0.00231955 -0.00214536 -0.00201667 -0.0019393 -0.00191324 -0.0019385 -0.0020124 -0.00213229 -0.00229817 -0.00251003 -0.00275785 -0.0030316 -0.00333128 -0.00365689 -0.00399341 -0.0043258 -0.00465408 -0.00497824 -0.00528221 -0.00554992 -0.00578136 -0.00597655 -0.00612368 -0.00621093 -0.00623831 -0.00620582 -0.0061108 -0.00595061 -0.00572523 -0.00543468 -0.00508877 -0.00469733 -0.00426036 -0.00377785 -0.00327456 -0.00277523 -0.00227984 -0.00178841 -0.00133483 -0.000953033 -0.000643004 -0.000404745 -0.000227669 -0.000101186 -2.52966e-05 0 0 -4.65128e-06 -1.86051e-05 -4.18615e-05 -7.44204e-05 -0.000128577 -0.000216626 -0.000338568 -0.000494403 -0.000685404 -0.000912843 -0.00117672 -0.00147704 -0.00181064 -0.00217436 -0.0025682 -0.00299216 -0.00344268 -0.0039162 -0.00441271 -0.00493223 -0.00546868 -0.00601597 -0.00657412 -0.00714311 -0.00771277 -0.00827288 -0.00882345 -0.00936447 -0.00988346 -0.0103679 -0.0108178 -0.0112332 -0.0116044 -0.0119216 -0.012185 -0.0123945 -0.0125487 -0.0126463 -0.0126873 -0.0126717 -0.0126084 -0.0125061 -0.012365 -0.012185 -0.0119811 -0.0117685 -0.0115471 -0.0113169 -0.0110911 -0.0108826 -0.0106915 -0.0105178 -0.010365 -0.0102364 -0.0101321 -0.0100522 -0.00998792 -0.0099309 -0.00988109 -0.00983849 -0.00978744 -0.00971228 -0.009613 -0.00948961 -0.00932928 -0.0091192 -0.00885935 -0.00854974 -0.00818982 -0.00777907 -0.00731746 -0.00680501 -0.00625609 -0.00568508 -0.00509197 -0.00447677 -0.00386241 -0.00327181 -0.00270499 -0.00216193 -0.00166319 -0.00122931 -0.000860294 -0.000556136 -0.0003266 -0.000181447 -0.000120675 -0.000144285 -0.000248627 -0.000430053 -0.000688561 -0.00102415 -0.00142132 -0.00186455 -0.00235385 -0.00288923 -0.00344728 -0.00400464 -0.00456129 -0.00511725 -0.00564775 -0.00612805 -0.00655813 -0.006938 -0.00724969 -0.00747524 -0.00761463 -0.00766788 -0.00763073 -0.00749896 -0.00727254 -0.00695149 -0.00654935 -0.00607967 -0.00554245 -0.00493768 -0.00429887 -0.00365949 -0.00301955 -0.00237904 -0.00178406 -0.00128068 -0.000868903 -0.000548733 -0.000308663 -0.000137183 -3.42958e-05 0 0 -7.22831e-06 -2.89133e-05 -6.50548e-05 -0.000115653 -0.000195744 -0.000320366 -0.000489517 -0.000703198 -0.000961496 -0.0012645 -0.00161221 -0.00200463 -0.00243714 -0.00290513 -0.0034086 -0.00394755 -0.00451722 -0.00511287 -0.00573448 -0.00638207 -0.00704814 -0.00772518 -0.0084132 -0.00911221 -0.00980997 -0.0104943 -0.0111652 -0.0118226 -0.0124518 -0.0130381 -0.0135815 -0.0140819 -0.0145282 -0.0149093 -0.0152252 -0.0154758 -0.0156603 -0.0157776 -0.0158277 -0.0158107 -0.0157377 -0.0156198 -0.0154571 -0.0152496 -0.0150154 -0.0147724 -0.0145208 -0.0142606 -0.0140064 -0.013773 -0.0135604 -0.0133687 -0.0131998 -0.013056 -0.0129371 -0.0128432 -0.0127611 -0.0126778 -0.0125931 -0.0125072 -0.0123984 -0.012245 -0.012047 -0.0118043 -0.0115004 -0.0111182 -0.0106579 -0.0101194 -0.00950375 -0.00881181 -0.00804361 -0.00719916 -0.00630084 -0.00537107 -0.00440983 -0.00341713 -0.00242786 -0.00147691 -0.000564281 0.000310026 0.00111447 0.0018175 0.00241912 0.00291934 0.00330259 0.0035533 0.00367148 0.00365714 0.00351506 0.00325004 0.00286208 0.00235119 0.0017404 0.00105274 0.000288226 -0.000553154 -0.00143638 -0.00232642 -0.00322329 -0.00412698 -0.00500064 -0.00580744 -0.00654736 -0.00722042 -0.00780009 -0.00825986 -0.00859972 -0.00881969 -0.00891315 -0.00887354 -0.00870084 -0.00839507 -0.00797419 -0.00745619 -0.00684107 -0.00612883 -0.00536331 -0.00458833 -0.00380389 -0.00300999 -0.00226705 -0.00163546 -0.00111524 -0.000706371 -0.000397333 -0.000176593 -4.41482e-05 0 0 -1.0607e-05 -4.24278e-05 -9.54626e-05 -0.000169711 -0.000282754 -0.000452169 -0.000677958 -0.00096012 -0.0012964 -0.00168455 -0.00212456 -0.00261643 -0.00315348 -0.003729 -0.004343 -0.00499548 -0.00568027 -0.0063912 -0.00712829 -0.00789152 -0.00867218 -0.00946157 -0.0102597 -0.0110665 -0.0118685 -0.012652 -0.0134171 -0.0141637 -0.0148758 -0.0155373 -0.0161483 -0.0167087 -0.0172069 -0.0176314 -0.017982 -0.0182589 -0.0184621 -0.0185917 -0.0186477 -0.0186301 -0.0185523 -0.018428 -0.0182572 -0.0180398 -0.0177961 -0.0175466 -0.0172911 -0.0170296 -0.0167772 -0.0165486 -0.0163438 -0.0161629 -0.0160046 -0.0158675 -0.0157518 -0.0156573 -0.0155643 -0.015453 -0.0153233 -0.0151753 -0.0149796 -0.0147068 -0.0143569 -0.0139299 -0.0134045 -0.0127593 -0.0119942 -0.0111093 -0.0101083 -0.00899517 -0.00776976 -0.0064321 -0.00501628 -0.00355635 -0.00205231 -0.000504174 0.00103615 0.00251676 0.00393765 0.00529881 0.00655305 0.00765317 0.00859918 0.00939106 0.0100048 0.0104166 0.0106262 0.0106338 0.0104454 0.0100671 0.00949893 0.00874089 0.00782629 0.00678847 0.00562743 0.00434318 0.00298685 0.00160961 0.000211462 -0.0012076 -0.00259394 -0.00389391 -0.00510751 -0.00623474 -0.00723723 -0.0080766 -0.00875287 -0.00926602 -0.00960602 -0.00976282 -0.00973642 -0.00952682 -0.0091572 -0.0086507 -0.00800735 -0.00722713 -0.00636594 -0.00547969 -0.00456837 -0.00363197 -0.00274747 -0.00199182 -0.00136502 -0.00086706 -0.000487721 -0.000216765 -5.41913e-05 0 0 -1.47872e-05 -5.91488e-05 -0.000133085 -0.000236595 -0.000389604 -0.000612037 -0.000903892 -0.00126517 -0.00169012 -0.00217298 -0.00271375 -0.00331244 -0.00395965 -0.00464596 -0.0053714 -0.00613594 -0.00693181 -0.00775121 -0.00859413 -0.00946057 -0.0103408 -0.0112252 -0.0121136 -0.0130061 -0.0138883 -0.014746 -0.0155791 -0.0163877 -0.0171553 -0.0178654 -0.0185182 -0.0191136 -0.0196405 -0.0200878 -0.0204555 -0.0207437 -0.0209541 -0.0210886 -0.0211471 -0.0211297 -0.0210523 -0.0209308 -0.0207652 -0.0205555 -0.0203234 -0.0200909 -0.0198578 -0.0196242 -0.0194036 -0.0192094 -0.0190418 -0.0189006 -0.0187793 -0.0186712 -0.0185763 -0.0184946 -0.0183976 -0.0182566 -0.0180716 -0.0178427 -0.017531 -0.0170977 -0.0165428 -0.0158664 -0.0150417 -0.0140423 -0.0128682 -0.0115193 -0.0100036 -0.00832916 -0.0064959 -0.00450385 -0.00240239 -0.000240915 0.00198058 0.00426209 0.00652963 0.0087092 0.0108008 0.0128044 0.0146526 0.0162777 0.0176799 0.018859 0.0197802 0.0204083 0.0207435 0.0207857 0.0205423 0.0200211 0.019222 0.0181449 0.0168364 0.0153426 0.0136638 0.0117998 0.00982241 0.00780347 0.00574296 0.00364087 0.00157234 -0.000387467 -0.00223857 -0.00398095 -0.0055611 -0.00692547 -0.00807406 -0.00900689 -0.00970933 -0.0101668 -0.0103793 -0.0103468 -0.0100984 -0.00966322 -0.00904129 -0.00823258 -0.00730678 -0.00633358 -0.00531299 -0.00424499 -0.00322533 -0.00234975 -0.00161824 -0.0010308 -0.000579826 -0.000257701 -6.44252e-05 0 0 -1.97691e-05 -7.90762e-05 -0.000177921 -0.000316305 -0.000516297 -0.000799969 -0.00116732 -0.00161835 -0.00214265 -0.0027298 -0.00337981 -0.00409267 -0.00485565 -0.00565603 -0.00649379 -0.00736895 -0.00827186 -0.00919288 -0.010132 -0.0110892 -0.012054 -0.0130159 -0.0139749 -0.0149309 -0.0158695 -0.0167763 -0.0176514 -0.0184947 -0.0192903 -0.0200225 -0.0206913 -0.0212966 -0.0218289 -0.0222786 -0.0226457 -0.0229301 -0.0231363 -0.0232682 -0.023326 -0.0233097 -0.0232376 -0.023128 -0.0229811 -0.0227966 -0.0225972 -0.0224054 -0.022221 -0.0220442 -0.0218855 -0.0217555 -0.0216542 -0.0215817 -0.0215239 -0.0214669 -0.0214106 -0.0213551 -0.0212609 -0.0210886 -0.0208381 -0.0205094 -0.0200526 -0.0194177 -0.0186047 -0.0176136 -0.016412 -0.0149675 -0.0132799 -0.0113495 -0.00918958 -0.00681377 -0.00422204 -0.0014144 0.00154081 0.00457522 0.00768884 0.0108817 0.0140526 0.0171004 0.0200252 0.0228268 0.025413 0.0276911 0.0296612 0.0313232 0.0326286 0.0335286 0.0340234 0.0341128 0.033806 0.0331121 0.0320312 0.0305633 0.0287706 0.0267152 0.0243972 0.0218166 0.0190703 0.0162551 0.0133712 0.0104184 0.00749822 0.0047119 0.00205947 -0.000459064 -0.0027717 -0.00480645 -0.00656331 -0.00804228 -0.00922309 -0.0100855 -0.0106294 -0.0108549 -0.0107977 -0.0104937 -0.00994289 -0.00914518 -0.00818581 -0.00715 -0.00603774 -0.00484904 -0.00370063 -0.00270926 -0.00187491 -0.0011976 -0.000673648 -0.000299399 -7.48498e-05 0 0 -2.54617e-05 -0.000101847 -0.000229156 -0.000407388 -0.000660328 -0.00101176 -0.00146168 -0.00201009 -0.00264046 -0.00333626 -0.00409747 -0.00492411 -0.00579919 -0.00670576 -0.0076438 -0.00861333 -0.00960252 -0.0105996 -0.0116045 -0.0126173 -0.0136271 -0.014623 -0.0156049 -0.016573 -0.0175138 -0.0184141 -0.0192739 -0.0200933 -0.0208587 -0.0215566 -0.0221872 -0.0227504 -0.02324 -0.0236497 -0.0239794 -0.0242293 -0.0244071 -0.0245206 -0.0245698 -0.0245548 -0.0244962 -0.0244148 -0.0243107 -0.0241838 -0.0240559 -0.0239486 -0.023862 -0.0237961 -0.023756 -0.0237469 -0.0237687 -0.0238216 -0.0238811 -0.0239228 -0.0239468 -0.023953 -0.0238883 -0.0236995 -0.0233864 -0.0229491 -0.0223243 -0.0214487 -0.0203223 -0.018945 -0.017278 -0.0152823 -0.012958 -0.0103049 -0.00734428 -0.00409697 -0.000563019 0.00325757 0.0072726 0.0113899 0.0156093 0.019931 0.0242203 0.0283425 0.0322976 0.0360857 0.0395838 0.042669 0.0453415 0.0476012 0.049383 0.0506219 0.0513177 0.0514706 0.0510914 0.050191 0.0487693 0.0468265 0.0444433 0.0417006 0.0385985 0.0351369 0.031443 0.0276438 0.0237393 0.0197296 0.0157479 0.0119277 0.00826895 0.0047716 0.00153051 -0.00135949 -0.00389841 -0.00608625 -0.00789548 -0.00929857 -0.0102955 -0.0108864 -0.0111144 -0.011023 -0.0106121 -0.00988173 -0.00893474 -0.00787394 -0.00669931 -0.00541087 -0.00414867 -0.00305281 -0.00212328 -0.00136008 -0.000765042 -0.000340019 -8.50047e-05 0 0 -3.17745e-05 -0.000127098 -0.000285971 -0.000508393 -0.000819193 -0.0012432 -0.00178042 -0.00243084 -0.00317005 -0.0039736 -0.00484151 -0.00577377 -0.00674797 -0.00774173 -0.00875503 -0.00978788 -0.0108259 -0.0118547 -0.0128743 -0.0138847 -0.0148753 -0.0158355 -0.0167652 -0.0176646 -0.0185231 -0.0193306 -0.020087 -0.0207922 -0.021438 -0.0220159 -0.0225258 -0.0229679 -0.0233417 -0.023647 -0.0238839 -0.0240522 -0.0241652 -0.0242357 -0.0242639 -0.0242496 -0.0242161 -0.0241862 -0.02416 -0.0241375 -0.0241375 -0.024179 -0.0242619 -0.0243862 -0.0245481 -0.0247437 -0.0249729 -0.0252357 -0.0254934 -0.0257072 -0.025877 -0.0260028 -0.0260139 -0.0258397 -0.0254803 -0.0249354 -0.024126 -0.0229725 -0.0214751 -0.0196337 -0.0174022 -0.0147346 -0.0116308 -0.00809083 -0.00414579 0.000173259 0.00486632 0.00993338 0.0152523 0.0207008 0.0262789 0.0319867 0.0376483 0.0430877 0.0483051 0.0533004 0.0579143 0.0619873 0.0655193 0.0685106 0.0708764 0.0725324 0.0734785 0.0737148 0.0732539 0.0721086 0.0702789 0.0677648 0.0646687 0.0610932 0.0570383 0.0525039 0.0476531 0.0426486 0.0374905 0.0321789 0.0268858 0.0217836 0.0168722 0.0121517 0.00774512 0.00377549 0.000242842 -0.00285284 -0.0054747 -0.0075859 -0.00918644 -0.0102763 -0.0109074 -0.0111315 -0.0109488 -0.010359 -0.00948529 -0.00845039 -0.00725436 -0.0058972 -0.00454475 -0.00336288 -0.00235159 -0.00151087 -0.000849862 -0.000377717 -9.44292e-05 0 0 -3.87074e-05 -0.00015483 -0.000348367 -0.000619319 -0.000992893 -0.0014943 -0.00212353 -0.00288059 -0.00373139 -0.00464183 -0.00561192 -0.00664165 -0.00770199 -0.00876394 -0.00982749 -0.0108926 -0.011942 -0.0129583 -0.0139414 -0.0148915 -0.0157987 -0.0166535 -0.0174558 -0.0182056 -0.0188974 -0.0195257 -0.0200904 -0.0205916 -0.0210285 -0.0214003 -0.0217071 -0.0219488 -0.0221339 -0.0222706 -0.0223589 -0.0223989 -0.0224104 -0.0224135 -0.0224082 -0.0223943 -0.0223972 -0.0224421 -0.0225289 -0.0226576 -0.0228422 -0.0230966 -0.0234208 -0.0238147 -0.0242619 -0.0247459 -0.0252666 -0.0258241 -0.026361 -0.02682 -0.0272011 -0.0275042 -0.0276376 -0.0275095 -0.0271197 -0.0264684 -0.0254575 -0.0239891 -0.0220632 -0.0196797 -0.0167847 -0.0133243 -0.00929846 -0.00470715 0.000405882 0.00599692 0.012066 0.018613 0.0254798 0.032508 0.0396976 0.0470486 0.0543364 0.061336 0.0680476 0.0744712 0.0804046 0.0856457 0.0901946 0.0940512 0.0971088 0.0992603 0.100506 0.100845 0.100293 0.098865 0.0965599 0.0933782 0.0894469 0.084893 0.0797166 0.0739176 0.0677005 0.0612696 0.0546248 0.0477662 0.0409117 0.0342794 0.0278693 0.0216813 0.0158721 0.0105985 0.00586045 0.00165796 -0.00196075 -0.00494744 -0.00730212 -0.00902478 -0.0101768 -0.0108195 -0.010953 -0.0105771 -0.00983743 -0.00887936 -0.0077029 -0.00630804 -0.00488888 -0.00363948 -0.00255984 -0.00164997 -0.000928109 -0.000412493 -0.000103123 0 0 -4.62604e-05 -0.000185042 -0.000416344 -0.000740166 -0.00118143 -0.00176504 -0.00249102 -0.00335934 -0.0043245 -0.00534095 -0.0064087 -0.00752774 -0.00866125 -0.00977239 -0.0108612 -0.0119276 -0.0129508 -0.0139102 -0.0148058 -0.0156375 -0.0163972 -0.0170768 -0.0176765 -0.0181961 -0.0186367 -0.0189995 -0.0192843 -0.0194913 -0.0196299 -0.0197098 -0.019731 -0.0196934 -0.0196166 -0.0195204 -0.0194046 -0.0192693 -0.0191429 -0.0190541 -0.0190027 -0.0189888 -0.0190397 -0.0191825 -0.0194174 -0.0197443 -0.02017 -0.0207015 -0.0213386 -0.0220815 -0.0228973 -0.0237535 -0.0246499 -0.0255867 -0.0264838 -0.0272614 -0.0279192 -0.0284575 -0.0287595 -0.0287086 -0.0283048 -0.027548 -0.026319 -0.0244985 -0.0220865 -0.019083 -0.0154255 -0.0110515 -0.00596094 -0.000153889 0.00631074 0.013374 0.0210359 0.0292965 0.0379552 0.0468115 0.0558654 0.0651169 0.0742846 0.0830874 0.0915252 0.0995979 0.107055 0.113644 0.119367 0.124223 0.12808 0.130805 0.132399 0.132862 0.13221 0.13046 0.127612 0.123667 0.118778 0.1131 0.106633 0.099378 0.0915853 0.0835067 0.0751421 0.0664916 0.0578258 0.0494153 0.0412601 0.0333603 0.0259115 0.0191095 0.0129544 0.00744613 0.00264637 -0.00138319 -0.00464256 -0.00713173 -0.00892255 -0.0100869 -0.0106247 -0.0105359 -0.00999119 -0.00916085 -0.00804492 -0.0066434 -0.00518104 -0.00388259 -0.00274804 -0.00177739 -0.000999782 -0.000444348 -0.000111087 0 0 -5.42009e-05 -0.000216804 -0.000487808 -0.000867214 -0.00137869 -0.00204589 -0.00286882 -0.00384749 -0.0049229 -0.00603606 -0.00718699 -0.00837567 -0.00955591 -0.0106815 -0.0117525 -0.0127689 -0.0137059 -0.0145389 -0.0152677 -0.0158924 -0.0164074 -0.0168072 -0.0170917 -0.017261 -0.0173253 -0.0172951 -0.0171702 -0.0169508 -0.0166604 -0.0163229 -0.0159381 -0.0155061 -0.0150615 -0.0146389 -0.0142383 -0.0138596 -0.0135423 -0.0133256 -0.0132096 -0.0131942 -0.0133087 -0.0135821 -0.0140144 -0.0146058 -0.0153531 -0.0162532 -0.0173063 -0.0185122 -0.0198173 -0.0211679 -0.0225641 -0.0240057 -0.025385 -0.0265942 -0.0276331 -0.0285018 -0.0290544 -0.0291449 -0.0287733 -0.0279397 -0.0265006 -0.0243125 -0.0213755 -0.0176896 -0.0131834 -0.00778553 -0.00149606 0.00568504 0.0136801 0.0224114 0.0318789 0.0420828 0.0527729 0.0636994 0.0748624 0.0862617 0.0975518 0.108387 0.118768 0.128693 0.137859 0.145961 0.152999 0.158973 0.163724 0.167093 0.169079 0.169684 0.168925 0.166822 0.163374 0.158583 0.15263 0.1457 0.137792 0.128907 0.119347 0.109414 0.0991095 0.0884323 0.0777125 0.0672802 0.0571353 0.0472778 0.0379489 0.0293895 0.0215997 0.0145794 0.00840674 0.00315954 -0.00116215 -0.00455835 -0.00711214 -0.00890663 -0.00994182 -0.0102177 -0.00993233 -0.00928377 -0.00827201 -0.00689705 -0.00541681 -0.00408922 -0.00291427 -0.00189197 -0.00106423 -0.000472992 -0.000118248 0 0 -6.22964e-05 -0.000249185 -0.000560667 -0.000996742 -0.00157856 -0.00232728 -0.0032429 -0.00432542 -0.00550012 -0.00669229 -0.00790192 -0.00912902 -0.0103161 -0.0114058 -0.0123981 -0.013293 -0.0140609 -0.0146724 -0.0151274 -0.015426 -0.0155662 -0.0155461 -0.0153659 -0.0150253 -0.0145476 -0.0139557 -0.0132497 -0.0124295 -0.011538 -0.0106178 -0.00966908 -0.00869171 -0.00774011 -0.00686866 -0.00607736 -0.00536621 -0.00478825 -0.0043965 -0.00419097 -0.00417166 -0.00436944 -0.00481517 -0.00550885 -0.00645049 -0.00762358 -0.00901162 -0.0106146 -0.0124325 -0.0143848 -0.0163906 -0.0184501 -0.0205633 -0.0225878 -0.0243815 -0.0259443 -0.0272763 -0.0281971 -0.0285261 -0.0282634 -0.0274091 -0.0257924 -0.0232429 -0.0197606 -0.0153453 -0.00991714 -0.0033959 0.00421838 0.0129257 0.0226252 0.0332158 0.0446977 0.0570707 0.0700274 0.0832601 0.0967688 0.110554 0.124197 0.13728 0.149805 0.161769 0.172813 0.182574 0.191052 0.198248 0.203975 0.208047 0.210465 0.211229 0.210359 0.207877 0.203784 0.198078 0.190972 0.182678 0.173196 0.162526 0.151025 0.139047 0.126594 0.113665 0.100656 0.0879629 0.0755852 0.063523 0.0520699 0.0415193 0.0318712 0.0231256 0.0153804 0.00873346 0.00318471 -0.00126581 -0.00471303 -0.00725189 -0.00888239 -0.00960453 -0.00964664 -0.00923705 -0.00837576 -0.00706277 -0.00559176 -0.00425638 -0.00305664 -0.00199255 -0.00112081 -0.000498137 -0.000124534 0 0 -7.05468e-05 -0.000282187 -0.000634921 -0.00112875 -0.00178105 -0.00260922 -0.00361325 -0.00479314 -0.00605617 -0.00730962 -0.0085535 -0.00978779 -0.0109419 -0.0119453 -0.0127979 -0.0134997 -0.0140157 -0.0143108 -0.0143849 -0.0142381 -0.0138734 -0.0132936 -0.0124988 -0.0114891 -0.0103035 -0.0089814 -0.00752275 -0.00592754 -0.00426259 -0.00259471 -0.000923899 0.000749843 0.00234757 0.00379034 0.00507815 0.00621101 0.00711928 0.00773335 0.00805322 0.00807889 0.00777798 0.00711813 0.00609934 0.0047216 0.00301843 0.00102336 -0.00126363 -0.00384252 -0.00659971 -0.00942158 -0.0123081 -0.0152594 -0.0180922 -0.0206234 -0.022853 -0.0247811 -0.0261875 -0.0268522 -0.026775 -0.025956 -0.0241945 -0.0212897 -0.0172416 -0.0120502 -0.00562681 0.0021174 0.0111824 0.0215682 0.0331461 0.0457874 0.0594922 0.0742605 0.0897187 0.105493 0.121585 0.137992 0.154219 0.169767 0.184636 0.198827 0.211916 0.223483 0.233527 0.242047 0.248832 0.253668 0.256557 0.257497 0.256513 0.253627 0.248841 0.242153 0.233804 0.224035 0.212846 0.200236 0.186619 0.172405 0.157596 0.14219 0.126657 0.111464 0.0966099 0.0820959 0.0682746 0.055499 0.043769 0.0330847 0.0235675 0.0153386 0.00839803 0.0027459 -0.00172521 -0.00512263 -0.00744638 -0.00869644 -0.00913412 -0.0090207 -0.00835619 -0.00714058 -0.00570587 -0.00438406 -0.00317514 -0.00207913 -0.00116951 -0.000519782 -0.000129946 0 0 -7.89521e-05 -0.000315809 -0.000710569 -0.00126323 -0.00198616 -0.0028917 -0.00397986 -0.00525064 -0.00659104 -0.00788807 -0.00914172 -0.010352 -0.0114333 -0.0122999 -0.0129518 -0.0133891 -0.0135703 -0.013454 -0.0130402 -0.0123289 -0.011329 -0.0100496 -0.00849068 -0.0066522 -0.00459306 -0.0023721 1.06562e-05 0.00255522 0.00516577 0.00774651 0.0102974 0.0128185 0.0152015 0.0173381 0.0192283 0.020872 0.0221803 0.0230639 0.023523 0.0235574 0.0231336 0.0222178 0.0208101 0.0189105 0.016573 0.0138517 0.0107467 0.00725784 0.00353783 -0.000260814 -0.00413809 -0.00809401 -0.0118981 -0.0153198 -0.0183591 -0.0210162 -0.0230258 -0.0241231 -0.024308 -0.0235806 -0.0217068 -0.0184529 -0.0138187 -0.0078043 -0.000312382 0.00875437 0.0193959 0.0316124 0.0452427 0.0601261 0.0762625 0.0936519 0.111847 0.130399 0.14931 0.168578 0.187619 0.205847 0.223263 0.239865 0.255169 0.268688 0.280422 0.290371 0.298295 0.303957 0.307354 0.308489 0.307386 0.304071 0.298545 0.290807 0.281126 0.269771 0.256741 0.242037 0.226129 0.209488 0.192114 0.174008 0.155715 0.137782 0.120209 0.102996 0.086563 0.0713286 0.0572931 0.0444567 0.0329678 0.0229748 0.0144778 0.00747676 0.00185132 -0.00251886 -0.00563377 -0.00749343 -0.00839477 -0.00863471 -0.00821328 -0.00713046 -0.00575915 -0.00447226 -0.00326978 -0.00215171 -0.00121034 -0.000537928 -0.000134482 0 0 -8.72473e-05 -0.000348989 -0.000785226 -0.00139596 -0.00218699 -0.00316413 -0.00432737 -0.00567672 -0.00707644 -0.00839079 -0.00961978 -0.0107634 -0.0117187 -0.0123828 -0.0127556 -0.0128373 -0.012579 -0.011932 -0.0108964 -0.00947211 -0.007675