<?xml version="1.0"?> 
<VTKFile type="StructuredGrid" version="0.1"> 
<StructuredGrid WholeExtent="0 128 0 128 0 0"> 
<Piece Extent="0 128 0 128 0 0"> 
<PointData>
<DataArray type="Float32" Name="u" format="ascii" NumberOfComponents="1"> 
0 0 0 0 0 0 0 0 0 0 0 0 0 0 0 0 0 0 0 0 0 0 0 0 0 0 0 0 0 0 0 0 0 0 0 0 0 0 0 0 0 0 0 0 0 0 0 0 0 0 0 0 0 0 0 0 0 0 0 0 0 0 0 0 0 0 0 0 0 0 0 0 0 0 0 0 0 0 0 0 0 0 0 0 0 0 0 0 0 0 0 0 0 0 0 0 0 0 0 0 0 0 0 0 0 0 0 0 0 0 0 0 0 0 0 0 0 0 0 0 0 0 0 0 0 0 0 0 0 0 4.24123e-08 1.69649e-07 3.8171e-07 6.78596e-07 8.62566e-07 7.35882e-07 2.98542e-07 -4.49453e-07 -1.65363e-06 -3.45951e-06 -5.86709e-06 -8.87638e-06 -1.24945e-05 -1.67285e-05 -2.15784e-05 -2.70442e-05 -3.30967e-05 -3.97063e-05 -4.68733e-05 -5.45975e-05 -6.27878e-05 -7.13532e-05 -8.02936e-05 -8.96091e-05 -9.91119e-05 -0.000108614 -0.000118116 -0.000127617 -0.000136856 -0.000145572 -0.000153764 -0.000161433 -0.000168341 -0.000174252 -0.000179167 -0.000183085 -0.000185925 -0.000187609 -0.000188135 -0.000187504 -0.000185866 -0.000183371 -0.00018002 -0.000175812 -0.000171072 -0.000166128 -0.000160979 -0.000155624 -0.000150399 -0.000145638 -0.00014134 -0.000137506 -0.000134309 -0.000131919 -0.000130338 -0.000129565 -0.000129553 -0.000130257 -0.000131675 -0.000133809 -0.000136482 -0.000139519 -0.000142919 -0.000146684 -0.000150663 -0.000154707 -0.000158814 -0.000162986 -0.000167185 -0.000171372 -0.000175549 -0.000179715 -0.000183896 -0.00018812 -0.000192385 -0.000196693 -0.000201015 -0.000205324 -0.000209621 -0.000213906 -0.000218051 -0.000221928 -0.000225538 -0.00022888 -0.000231813 -0.000234194 -0.000236024 -0.000237303 -0.000237994 -0.000238062 -0.000237508 -0.00023633 -0.000234611 -0.000232432 -0.000229794 -0.000226697 -0.000223227 -0.000219471 -0.00021543 -0.000211102 -0.000206473 -0.000201527 -0.000196262 -0.00019068 -0.000184676 -0.000178143 -0.000171083 -0.000163495 -0.000155311 -0.000146461 -0.000136945 -0.000126763 -0.000116035 -0.00010488 -9.3298e-05 -8.12889e-05 -6.92905e-05 -5.77407e-05 -4.66393e-05 -3.59865e-05 -2.63888e-05 -1.84525e-05 -1.21779e-05 -7.56473e-06 -4.25516e-06 -1.89118e-06 -4.72796e-07 0 0 1.69649e-07 6.78596e-07 1.52684e-06 2.71438e-06 3.45027e-06 2.94353e-06 1.19417e-06 -1.79781e-06 -6.61451e-06 -1.3838e-05 -2.34684e-05 -3.55055e-05 -4.99779e-05 -6.69139e-05 -8.63136e-05 -0.000108177 -0.000132387 -0.000158825 -0.000187493 -0.00021839 -0.000251151 -0.000285413 -0.000321175 -0.000358437 -0.000396448 -0.000434457 -0.000472464 -0.000510469 -0.000547426 -0.000582288 -0.000615057 -0.000645731 -0.000673364 -0.00069701 -0.000716668 -0.000732339 -0.000743702 -0.000750436 -0.00075254 -0.000750016 -0.000743464 -0.000733485 -0.000720079 -0.000703246 -0.00068429 -0.000664513 -0.000643915 -0.000622497 -0.000601597 -0.000582551 -0.000565361 -0.000550026 -0.000537234 -0.000527676 -0.000521351 -0.000518259 -0.000518214 -0.000521028 -0.000526701 -0.000535235 -0.000545926 -0.000558074 -0.000571678 -0.000586738 -0.000602654 -0.000618827 -0.000635258 -0.000651945 -0.000668739 -0.00068549 -0.000702197 -0.00071886 -0.000735586 -0.000752479 -0.000769541 -0.00078677 -0.000804059 -0.000821297 -0.000838485 -0.000855624 -0.000872202 -0.000887711 -0.00090215 -0.000915519 -0.000927251 -0.000936776 -0.000944096 -0.000949211 -0.000951976 -0.000952249 -0.00095003 -0.000945319 -0.000938443 -0.000929729 -0.000919177 -0.000906788 -0.000892908 -0.000877885 -0.000861719 -0.00084441 -0.000825893 -0.000806107 -0.000785049 -0.000762721 -0.000738702 -0.000712573 -0.000684332 -0.000653982 -0.000621244 -0.000585843 -0.00054778 -0.000507053 -0.000464141 -0.00041952 -0.000373192 -0.000325155 -0.000277162 -0.000230963 -0.000186557 -0.000143946 -0.000105555 -7.38102e-05 -4.87115e-05 -3.02589e-05 -1.70206e-05 -7.56473e-06 -1.89118e-06 0 0 3.8171e-07 1.52684e-06 3.43539e-06 6.10736e-06 7.7631e-06 6.62294e-06 2.68688e-06 -4.04508e-06 -1.48827e-05 -3.11356e-05 -5.28038e-05 -7.98874e-05 -0.00011245 -0.000150556 -0.000194206 -0.000243398 -0.00029787 -0.000357357 -0.000421859 -0.000491377 -0.00056509 -0.000642179 -0.000722643 -0.000806482 -0.000892007 -0.000977527 -0.00106304 -0.00114855 -0.00123171 -0.00131015 -0.00138388 -0.00145289 -0.00151507 -0.00156827 -0.0016125 -0.00164776 -0.00167333 -0.00168848 -0.00169322 -0.00168754 -0.00167279 -0.00165034 -0.00162018 -0.0015823 -0.00153965 -0.00149515 -0.00144881 -0.00140062 -0.00135359 -0.00131074 -0.00127206 -0.00123756 -0.00120878 -0.00118727 -0.00117304 -0.00116608 -0.00116598 -0.00117231 -0.00118508 -0.00120428 -0.00122833 -0.00125567 -0.00128627 -0.00132016 -0.00135597 -0.00139236 -0.00142933 -0.00146688 -0.00150466 -0.00154235 -0.00157994 -0.00161744 -0.00165507 -0.00169308 -0.00173147 -0.00177023 -0.00180913 -0.00184792 -0.00188659 -0.00192515 -0.00196246 -0.00199735 -0.00202984 -0.00205992 -0.00208631 -0.00210775 -0.00212422 -0.00213572 -0.00214195 -0.00214256 -0.00213757 -0.00212697 -0.0021115 -0.00209189 -0.00206815 -0.00204027 -0.00200904 -0.00197524 -0.00193887 -0.00189992 -0.00185826 -0.00181374 -0.00176636 -0.00171612 -0.00166208 -0.00160329 -0.00153975 -0.00147146 -0.0013978 -0.00131815 -0.0012325 -0.00114087 -0.00104432 -0.000943921 -0.000839682 -0.0007316 -0.000623615 -0.000519666 -0.000419754 -0.000323879 -0.000237499 -0.000166073 -0.000109601 -6.80826e-05 -3.82964e-05 -1.70206e-05 -4.25516e-06 0 0 6.78596e-07 2.71438e-06 6.10736e-06 1.08575e-05 1.38011e-05 1.17741e-05 4.77667e-06 -7.19125e-06 -2.64581e-05 -5.53521e-05 -9.38735e-05 -0.000142022 -0.000199912 -0.000267656 -0.000345254 -0.000432708 -0.000529547 -0.000635301 -0.000749972 -0.000873559 -0.0010046 -0.00114165 -0.0012847 -0.00143375 -0.00158579 -0.00173783 -0.00188986 -0.00204188 -0.0021897 -0.00232915 -0.00246023 -0.00258292 -0.00269346 -0.00278804 -0.00286667 -0.00292936 -0.00297481 -0.00300174 -0.00301016 -0.00300006 -0.00297386 -0.00293394 -0.00288032 -0.00281298 -0.00273716 -0.00265805 -0.00257566 -0.00248999 -0.00240639 -0.0023302 -0.00226144 -0.0022001 -0.00214894 -0.00211071 -0.00208541 -0.00207304 -0.00207285 -0.00208411 -0.00210681 -0.00214094 -0.00218371 -0.0022323 -0.00228671 -0.00234695 -0.00241062 -0.00247531 -0.00254103 -0.00260778 -0.00267496 -0.00274196 -0.00280879 -0.00287544 -0.00294234 -0.00300992 -0.00307816 -0.00314708 -0.00321623 -0.00328519 -0.00335394 -0.0034225 -0.00348881 -0.00355084 -0.0036086 -0.00366208 -0.003709 -0.00374711 -0.00377639 -0.00379684 -0.0038079 -0.003809 -0.00380012 -0.00378128 -0.00375377 -0.00371892 -0.00367671 -0.00362715 -0.00357163 -0.00351154 -0.00344688 -0.00337764 -0.00330357 -0.00322443 -0.0031402 -0.00305088 -0.00295481 -0.00285029 -0.00273733 -0.00261593 -0.00248498 -0.00234337 -0.00219112 -0.00202821 -0.00185656 -0.00167808 -0.00149277 -0.00130062 -0.00110865 -0.000923851 -0.00074623 -0.000575785 -0.00042222 -0.000295241 -0.000194846 -0.000121036 -6.80826e-05 -3.02589e-05 -7.56473e-06 0 0 7.95067e-07 3.18027e-06 7.1556e-06 1.27211e-05 1.49565e-05 8.94186e-06 -5.32294e-06 -2.78379e-05 -6.1984e-05 -0.000111143 -0.000175313 -0.000254496 -0.000348777 -0.00045824 -0.000582885 -0.000722713 -0.000876957 -0.00104485 -0.00122639 -0.00142158 -0.00162815 -0.00184382 -0.00206859 -0.00230247 -0.0025408 -0.00277891 -0.00301681 -0.0032545 -0.00348549 -0.0037033 -0.00390793 -0.00409938 -0.0042718 -0.00441935 -0.00454202 -0.00463981 -0.00471078 -0.004753 -0.00476648 -0.00475119 -0.00471096 -0.00464955 -0.00456699 -0.00446326 -0.00434647 -0.00422471 -0.00409798 -0.00396629 -0.00383782 -0.00372076 -0.00361511 -0.00352087 -0.00344205 -0.00338263 -0.00334263 -0.00332204 -0.00331931 -0.00333292 -0.00336286 -0.00340912 -0.003467 -0.0035318 -0.0036035 -0.00368212 -0.00376381 -0.00384473 -0.00392488 -0.00400427 -0.00408224 -0.00415816 -0.00423202 -0.00430383 -0.00437495 -0.00444675 -0.00451923 -0.0045924 -0.0046665 -0.00474179 -0.00481826 -0.00489591 -0.00497239 -0.00504535 -0.00511478 -0.00518068 -0.00523995 -0.00528949 -0.00532931 -0.00535939 -0.0053788 -0.00538657 -0.00538271 -0.00536722 -0.00534161 -0.00530741 -0.0052646 -0.00521319 -0.00515452 -0.00508991 -0.00501936 -0.00494288 -0.00485918 -0.00476698 -0.00466628 -0.00455707 -0.0044361 -0.00430007 -0.004149 -0.00398288 -0.00379975 -0.00359764 -0.00337655 -0.00313648 -0.00288055 -0.00261189 -0.00233049 -0.00203637 -0.00174075 -0.00145487 -0.00117873 -0.000912331 -0.000671329 -0.000471379 -0.000312482 -0.000194637 -0.000109483 -4.86593e-05 -1.21648e-05 0 0 4.65883e-07 1.86353e-06 4.19295e-06 7.45413e-06 4.62188e-06 -1.1329e-05 -4.03984e-05 -8.25865e-05 -0.000142104 -0.000223162 -0.000325759 -0.000449897 -0.000595461 -0.000762336 -0.000950524 -0.00116002 -0.00138964 -0.00163819 -0.00190567 -0.00219208 -0.00249416 -0.00280866 -0.00313557 -0.00347489 -0.00382002 -0.00416432 -0.00450781 -0.00485048 -0.00518314 -0.00549658 -0.00579081 -0.00606584 -0.0063134 -0.00652524 -0.00670138 -0.0068418 -0.0069439 -0.00700505 -0.00702526 -0.00700452 -0.0069484 -0.00686246 -0.00674669 -0.0066011 -0.00643723 -0.00626662 -0.00608928 -0.0059052 -0.00572574 -0.00556223 -0.00541468 -0.00528309 -0.00517244 -0.0050877 -0.00502889 -0.004996 -0.00498584 -0.00499524 -0.0050242 -0.00507271 -0.00513318 -0.005198 -0.00526716 -0.00534068 -0.00541278 -0.00547769 -0.00553542 -0.00558596 -0.00562914 -0.0056648 -0.00569294 -0.00571355 -0.00573042 -0.00574733 -0.00576429 -0.00578128 -0.00580107 -0.0058264 -0.00585726 -0.00589366 -0.00593433 -0.00597801 -0.0060247 -0.00607439 -0.00612378 -0.00616955 -0.00621169 -0.00625021 -0.00628359 -0.00631031 -0.00633037 -0.00634378 -0.00635137 -0.00635396 -0.00635156 -0.00634416 -0.00633154 -0.00631347 -0.00628995 -0.00626097 -0.00622244 -0.00617022 -0.00610433 -0.00602476 -0.00592515 -0.00579912 -0.00564668 -0.00546782 -0.0052591 -0.00501707 -0.00474172 -0.00443306 -0.00409594 -0.00373522 -0.00335091 -0.00294299 -0.0025284 -0.00212407 -0.00173 -0.00134619 -0.000996434 -0.000704554 -0.000470544 -0.000294406 -0.000165603 -7.36015e-05 -1.84004e-05 0 0 -3.08956e-07 -1.23582e-06 -2.7806e-06 -4.94329e-06 -1.72029e-05 -4.90384e-05 -0.00010045 -0.000171437 -0.000266818 -0.000391409 -0.000545212 -0.000728225 -0.000939964 -0.00117995 -0.00144817 -0.00174463 -0.0020676 -0.00241533 -0.00278781 -0.00318506 -0.00360265 -0.00403618 -0.00448563 -0.00495102 -0.00542346 -0.00589408 -0.00636287 -0.00682983 -0.00728265 -0.007709 -0.00810888 -0.00848229 -0.00881823 -0.00910572 -0.00934476 -0.00953534 -0.00967415 -0.00975787 -0.0097865 -0.00976005 -0.0096862 -0.00957266 -0.00941943 -0.0092265 -0.00900944 -0.00878379 -0.00854955 -0.00830673 -0.00807014 -0.00785462 -0.00766015 -0.00748675 -0.00734011 -0.00722592 -0.00714419 -0.00709492 -0.00707243 -0.00707107 -0.00709084 -0.00713172 -0.00718224 -0.0072309 -0.00727769 -0.00732262 -0.00735751 -0.00737418 -0.00737262 -0.00735284 -0.00731566 -0.00726189 -0.00719154 -0.00710461 -0.00700876 -0.00691166 -0.00681332 -0.00671373 -0.00661994 -0.00653902 -0.00647095 -0.00641574 -0.00637462 -0.00634884 -0.00633837 -0.00634323 -0.00636051 -0.00638727 -0.00642353 -0.00646928 -0.00652226 -0.0065802 -0.0066431 -0.00671096 -0.00678304 -0.00685858 -0.00693759 -0.00702006 -0.00710271 -0.00718223 -0.00725864 -0.00733192 -0.00739333 -0.00743414 -0.00745435 -0.00745394 -0.00742196 -0.00734744 -0.00723036 -0.00707074 -0.00686302 -0.00660165 -0.00628663 -0.00591796 -0.00550274 -0.00504809 -0.00455401 -0.00402049 -0.00347161 -0.00293146 -0.00240004 -0.00187735 -0.00139754 -0.000994764 -0.000669033 -0.000420342 -0.000236442 -0.000105086 -2.62714e-05 0 0 -1.52945e-06 -6.11779e-06 -1.3765e-05 -2.44712e-05 -5.05178e-05 -0.000104186 -0.000185477 -0.00029439 -0.000436126 -0.000615886 -0.00083367 -0.00108948 -0.00138229 -0.00171107 -0.00207582 -0.00247655 -0.00291084 -0.00337626 -0.00387282 -0.00440052 -0.00495362 -0.00552638 -0.00611878 -0.00673085 -0.00735112 -0.00796817 -0.00858198 -0.00919255 -0.00978403 -0.0103406 -0.0108621 -0.0113487 -0.0117863 -0.0121608 -0.0124722 -0.0127204 -0.0129015 -0.0130115 -0.0130502 -0.0130178 -0.0129243 -0.0127801 -0.0125852 -0.0123395 -0.0120631 -0.0117762 -0.0114788 -0.0111709 -0.010871 -0.0105979 -0.0103515 -0.0101319 -0.00994506 -0.00979728 -0.00968853 -0.0096188 -0.00957909 -0.00956041 -0.00956277 -0.00958615 -0.00961419 -0.0096305 -0.00963509 -0.00962796 -0.00959802 -0.00953421 -0.00943651 -0.00930493 -0.00914179 -0.00894942 -0.00872783 -0.008477 -0.00820996 -0.00793974 -0.00766633 -0.00738973 -0.00712312 -0.00687965 -0.00665933 -0.00646216 -0.00629327 -0.00615782 -0.00605579 -0.00598719 -0.00595012 -0.00594267 -0.00596483 -0.00601661 -0.00609482 -0.00619624 -0.00632089 -0.00646876 -0.00663662 -0.00682127 -0.00702269 -0.00724089 -0.00746801 -0.00769619 -0.00792542 -0.00815571 -0.00837188 -0.00855875 -0.00871634 -0.00884463 -0.00892655 -0.00894503 -0.00890006 -0.00879165 -0.00861152 -0.0083514 -0.00801128 -0.00759117 -0.00710095 -0.00655049 -0.00593979 -0.00526886 -0.00457037 -0.00387704 -0.00318885 -0.00250582 -0.00187463 -0.00134201 -0.000907948 -0.000572445 -0.000322001 -0.000143111 -3.57778e-05 0 0 -3.44604e-06 -1.37842e-05 -3.10143e-05 -5.51366e-05 -0.000101322 -0.000184743 -0.000305399 -0.00046329 -0.000663243 -0.000910085 -0.00120382 -0.00154444 -0.00192997 -0.00235843 -0.00282981 -0.00334413 -0.00389814 -0.00448862 -0.00511556 -0.00577896 -0.00647181 -0.00718711 -0.00792484 -0.008685 -0.00945376 -0.0102172 -0.0109755 -0.0117284 -0.0124568 -0.0131416 -0.0137826 -0.0143799 -0.0149165 -0.0153756 -0.0157569 -0.0160607 -0.0162824 -0.0164174 -0.0164657 -0.0164274 -0.0163155 -0.0161428 -0.0159095 -0.0156154 -0.0152854 -0.014944 -0.0145914 -0.0142274 -0.013874 -0.0135532 -0.0132648 -0.0130089 -0.012791 -0.0126165 -0.0124854 -0.0123976 -0.0123394 -0.0122967 -0.0122697 -0.0122582 -0.0122395 -0.012191 -0.0121127 -0.0120045 -0.0118519 -0.0116405 -0.0113702 -0.011041 -0.0106579 -0.0102259 -0.00974485 -0.00921486 -0.00865705 -0.0080926 -0.00752149 -0.00694374 -0.00638217 -0.0058596 -0.00537604 -0.00493147 -0.00453792 -0.00420736 -0.00393982 -0.00373527 -0.00359431 -0.00351751 -0.00350488 -0.0035564 -0.00366774 -0.00383455 -0.00405682 -0.00433456 -0.00466032 -0.00502665 -0.00543357 -0.00588106 -0.00635377 -0.00683634 -0.00732876 -0.00783104 -0.00831825 -0.00876548 -0.00917271 -0.00953995 -0.00984143 -0.0100514 -0.0101698 -0.0101967 -0.01012 -0.00992776 -0.00961991 -0.00919646 -0.00867065 -0.0080557 -0.0073516 -0.00655836 -0.00571895 -0.00487636 -0.00403057 -0.0031816 -0.00239109 -0.0017207 -0.00117041 -0.000740238 -0.000416384 -0.000185059 -4.62648e-05 0 0 -6.30917e-06 -2.52367e-05 -5.67825e-05 -0.000100947 -0.000175616 -0.000298679 -0.000470134 -0.000689983 -0.000961384 -0.0012875 -0.00166833 -0.00210388 -0.00259055 -0.00312474 -0.00370647 -0.00433573 -0.00500832 -0.00572004 -0.00647089 -0.00726087 -0.00808198 -0.00892623 -0.0097936 -0.0106841 -0.0115821 -0.0124719 -0.0133536 -0.0142271 -0.0150706 -0.0158624 -0.0166023 -0.0172905 -0.0179078 -0.0184351 -0.0188725 -0.0192199 -0.0194729 -0.019627 -0.0196823 -0.0196388 -0.0195122 -0.0193185 -0.0190577 -0.0187298 -0.0183634 -0.0179873 -0.0176016 -0.0172061 -0.0168248 -0.0164814 -0.016176 -0.0159085 -0.0156817 -0.0154983 -0.0153582 -0.0152614 -0.0151869 -0.0151135 -0.0150412 -0.0149699 -0.0148687 -0.0147066 -0.0144837 -0.0141999 -0.0138367 -0.0133756 -0.0128167 -0.0121599 -0.0114145 -0.0105897 -0.00968568 -0.00870231 -0.00767303 -0.00663126 -0.00557698 -0.00451021 -0.00346869 -0.00249019 -0.00157472 -0.000722262 4.38112e-05 0.000700135 0.00124671 0.00168354 0.00200523 0.00220639 0.00228704 0.00224716 0.0020925 0.00182879 0.00145604 0.000974241 0.000397676 -0.000259382 -0.000996932 -0.00181498 -0.0026863 -0.00358367 -0.00450711 -0.00545661 -0.00639266 -0.00727575 -0.00810588 -0.00888305 -0.00956913 -0.010126 -0.0105536 -0.010852 -0.011004 -0.0109922 -0.0108167 -0.0104776 -0.00999193 -0.00937699 -0.00863276 -0.00775925 -0.0068116 -0.00584496 -0.00485933 -0.00385471 -0.00291028 -0.00210523 -0.00143955 -0.00091324 -0.000513697 -0.00022831 -5.70775e-05 0 0 -1.01188e-05 -4.04754e-05 -9.10695e-05 -0.000161901 -0.0002734 -0.000445994 -0.000679683 -0.000974468 -0.00133055 -0.00174813 -0.00222722 -0.0027678 -0.00336402 -0.00401003 -0.0047058 -0.00545136 -0.00624138 -0.00707053 -0.00793882 -0.00884625 -0.00978412 -0.0107437 -0.0117251 -0.0127282 -0.0137362 -0.0147323 -0.0157165 -0.0166887 -0.0176254 -0.018503 -0.0193214 -0.0200806 -0.0207601 -0.0213396 -0.0218188 -0.022198 -0.0224732 -0.0226405 -0.0227001 -0.0226518 -0.0225146 -0.0223073 -0.02203 -0.0216825 -0.0212972 -0.0209062 -0.0205094 -0.020107 -0.0197233 -0.0193826 -0.019085 -0.0188306 -0.0186171 -0.0184426 -0.0183069 -0.0182102 -0.0181217 -0.0180107 -0.0178773 -0.0177213 -0.0175018 -0.0171774 -0.0167482 -0.0162142 -0.0155524 -0.0147397 -0.0137761 -0.0126615 -0.0114114 -0.010041 -0.00855031 -0.00693936 -0.00525791 -0.00355572 -0.00183279 -8.9116e-05 0.00161733 0.00322858 0.00474463 0.00616548 0.00745191 0.00856468 0.00950378 0.0102692 0.0108485 0.0112291 0.0114109 0.0113941 0.0111859 0.0107938 0.0102177 0.00945764 0.00853736 0.00748055 0.00628722 0.00495736 0.00353441 0.0020618 0.000539522 -0.00103242 -0.0025951 -0.00408958 -0.00551586 -0.00687394 -0.00810966 -0.00916885 -0.0100515 -0.0107576 -0.0112634 -0.0115447 -0.0116018 -0.0114345 -0.0110648 -0.0105144 -0.00978328 -0.00887153 -0.00784833 -0.00678287 -0.00567514 -0.00452515 -0.0034322 -0.0024956 -0.00171535 -0.00109145 -0.000613941 -0.000272863 -6.82157e-05 0 0 -1.4875e-05 -5.95002e-05 -0.000133875 -0.000238001 -0.000394673 -0.000626687 -0.000934045 -0.00131675 -0.00177074 -0.00229198 -0.00288047 -0.00353621 -0.0042504 -0.00501427 -0.0058278 -0.00669101 -0.0075973 -0.00854008 -0.00951935 -0.0105351 -0.0115782 -0.0126396 -0.0137193 -0.0148172 -0.015916 -0.0169982 -0.018064 -0.0191132 -0.0201212 -0.0210634 -0.0219397 -0.0227501 -0.0234735 -0.0240888 -0.0245959 -0.0249949 -0.0252831 -0.0254578 -0.0255189 -0.0254666 -0.0253227 -0.0251092 -0.0248262 -0.0244737 -0.0240867 -0.0237005 -0.0233149 -0.02293 -0.0225695 -0.0222568 -0.021992 -0.0217752 -0.0215973 -0.0214494 -0.0213317 -0.021244 -0.0211437 -0.0209884 -0.020778 -0.0205125 -0.0201387 -0.0196032 -0.0189062 -0.0180475 -0.0169991 -0.0157327 -0.0142483 -0.012546 -0.0106487 -0.00857963 -0.00633873 -0.00392601 -0.00141168 0.00113401 0.00371108 0.00631952 0.00887589 0.0112967 0.013582 0.0157318 0.0176864 0.0193863 0.0208314 0.0220218 0.0229355 0.0235505 0.0238668 0.0238843 0.0236125 0.0230604 0.0222281 0.0211156 0.0197587 0.0181931 0.0164189 0.014436 0.0123084 0.0101001 0.00781115 0.00544153 0.00307444 0.000793048 -0.00140263 -0.00351261 -0.00546301 -0.00717997 -0.00866348 -0.00991356 -0.0108982 -0.0115853 -0.0119751 -0.0120673 -0.0118892 -0.0114678 -0.0108031 -0.00989521 -0.00882914 -0.00769006 -0.00647798 -0.0051929 -0.00395684 -0.00289182 -0.00199783 -0.00127487 -0.000717116 -0.000318718 -7.96796e-05 0 0 -2.05345e-05 -8.2138e-05 -0.000184811 -0.000328552 -0.000538086 -0.000838137 -0.00122871 -0.00170979 -0.00227141 -0.00290357 -0.00360628 -0.00437953 -0.00521064 -0.00608693 -0.00700839 -0.00797503 -0.00897874 -0.0100114 -0.0110731 -0.0121638 -0.0132745 -0.0143963 -0.0155291 -0.016673 -0.0178113 -0.0189273 -0.020021 -0.0210924 -0.0221174 -0.023072 -0.0239561 -0.0247698 -0.0254929 -0.026105 -0.0266062 -0.0269966 -0.0272755 -0.0274425 -0.0274975 -0.0274406 -0.027297 -0.0270918 -0.0268249 -0.0264965 -0.0261434 -0.0258024 -0.0254735 -0.0251568 -0.0248727 -0.0246415 -0.0244633 -0.0243381 -0.0242469 -0.0241707 -0.0241097 -0.0240638 -0.0239753 -0.0237864 -0.0234973 -0.0231078 -0.0225502 -0.0217566 -0.0207269 -0.0194611 -0.0179254 -0.0160857 -0.0139421 -0.0114945 -0.00877622 -0.00582041 -0.00262711 0.00080369 0.00437577 0.0079929 0.0116551 0.0153623 0.0189989 0.022449 0.0257127 0.0287899 0.0315954 0.0340437 0.0361348 0.0378687 0.0392115 0.0401291 0.0406214 0.0406886 0.040342 0.0395929 0.0384414 0.0368875 0.0349817 0.0327747 0.0302664 0.0274569 0.0244358 0.0212927 0.0180276 0.0146406 0.011245 0.00795459 0.00476921 0.00168891 -0.00118789 -0.00376276 -0.00603572 -0.00800674 -0.00963375 -0.0108746 -0.0117294 -0.0121981 -0.0123138 -0.0121097 -0.0115858 -0.010742 -0.0096818 -0.00850859 -0.00722237 -0.00582314 -0.00445838 -0.00327557 -0.00227472 -0.00145583 -0.000818904 -0.000363957 -9.09893e-05 0 0 -2.70539e-05 -0.000108216 -0.000243485 -0.000432863 -0.000702293 -0.00107772 -0.00155915 -0.00214657 -0.00282199 -0.0035674 -0.00438281 -0.00526821 -0.00620572 -0.00717749 -0.0081835 -0.00922376 -0.0102884 -0.0113674 -0.0124609 -0.0135688 -0.0146832 -0.0157961 -0.0169075 -0.0180175 -0.0191119 -0.0201768 -0.0212122 -0.022218 -0.0231732 -0.0240571 -0.0248695 -0.0256104 -0.026263 -0.0268102 -0.0272521 -0.0275886 -0.027823 -0.0279583 -0.0279946 -0.0279318 -0.0277983 -0.0276226 -0.0274045 -0.0271442 -0.0268784 -0.0266439 -0.0264408 -0.026269 -0.0261422 -0.0260743 -0.0260653 -0.0261151 -0.0261905 -0.0262583 -0.0263184 -0.0263708 -0.0263386 -0.0261446 -0.025789 -0.0252717 -0.0245071 -0.0234097 -0.0219795 -0.0202164 -0.0180801 -0.01553 -0.0125661 -0.00918857 -0.00544372 -0.00137806 0.0030084 0.00771567 0.0126146 0.0175759 0.0225997 0.0276859 0.0326782 0.0374202 0.0419119 0.0461534 0.0500272 0.0534158 0.0563192 0.0587375 0.0606218 0.0619232 0.0626419 0.0627776 0.0623443 0.0613557 0.0598118 0.0577125 0.0551263 0.0521215 0.0486982 0.0448564 0.040717 0.0364012 0.0319088 0.02724 0.0225458 0.0179775 0.0135351 0.0092186 0.00515701 0.00147934 -0.00181438 -0.00472418 -0.00719535 -0.00917324 -0.0106578 -0.0116491 -0.0121873 -0.0123124 -0.0120245 -0.0113236 -0.0103341 -0.0091805 -0.0078628 -0.00638099 -0.00491095 -0.00362855 -0.00253378 -0.00162664 -0.000914985 -0.00040666 -0.000101665 0 0 -3.44333e-05 -0.000137733 -0.0003099 -0.000550932 -0.000887292 -0.00134544 -0.00192537 -0.00262709 -0.00342249 -0.00428349 -0.00521007 -0.00620223 -0.00723564 -0.00828594 -0.00935312 -0.0104372 -0.0115261 -0.0126079 -0.0136826 -0.01475 -0.0158042 -0.0168391 -0.0178545 -0.0188506 -0.0198179 -0.0207469 -0.0216376 -0.02249 -0.0232888 -0.0240188 -0.0246798 -0.025272 -0.0257839 -0.0262045 -0.0265335 -0.0267711 -0.0269256 -0.0270052 -0.02701 -0.0269399 -0.0268266 -0.0267017 -0.0265651 -0.0264168 -0.0262919 -0.0262252 -0.0262167 -0.0262664 -0.026378 -0.0265552 -0.0267979 -0.0271063 -0.0274283 -0.0277121 -0.0279577 -0.0281651 -0.0282337 -0.0280631 -0.0276532 -0.0270041 -0.0260094 -0.0245627 -0.022664 -0.0203134 -0.0174631 -0.0140654 -0.0101204 -0.0056281 -0.000651215 0.00474742 0.0105678 0.0168099 0.0233047 0.029883 0.0365448 0.0432902 0.0499138 0.0562103 0.0621798 0.0678222 0.0729818 0.0775026 0.0813847 0.0846281 0.0871664 0.088933 0.089928 0.0901513 0.0896195 0.0883487 0.0863391 0.0835906 0.0801924 0.0762336 0.0717143 0.0666344 0.0611521 0.0554255 0.0494548 0.0432397 0.0369767 0.0308618 0.024895 0.0190765 0.0135717 0.00854636 0.00400052 -6.58592e-05 -0.003583 -0.00648113 -0.00876026 -0.0104204 -0.0115096 -0.0120759 -0.0121194 -0.01164 -0.010786 -0.00970579 -0.00839927 -0.00686648 -0.00531458 -0.00395076 -0.002775 -0.00178731 -0.00100536 -0.000446827 -0.000111707 0 0 -4.26726e-05 -0.00017069 -0.000384053 -0.000682762 -0.00109308 -0.00164129 -0.00232737 -0.00315134 -0.00407292 -0.00505182 -0.00608805 -0.00718161 -0.00830039 -0.00941228 -0.0105173 -0.0116154 -0.0126921 -0.013733 -0.0147382 -0.0157075 -0.0166376 -0.0175252 -0.0183701 -0.0191724 -0.0199292 -0.0206375 -0.0212972 -0.0219085 -0.0224641 -0.022957 -0.0233871 -0.0237544 -0.0240557 -0.0242878 -0.0244506 -0.0245441 -0.0245834 -0.0245833 -0.0245439 -0.0244651 -0.0243819 -0.024329 -0.0243065 -0.0243143 -0.0243838 -0.024546 -0.0248011 -0.0251491 -0.02558 -0.0260841 -0.0266613 -0.0273116 -0.0279602 -0.0285322 -0.0290277 -0.0294465 -0.0296606 -0.0295418 -0.0290899 -0.0283051 -0.027057 -0.0252155 -0.0227805 -0.019752 -0.0160744 -0.0116921 -0.00660498 -0.000813111 0.0056013 0.012556 0.0200511 0.0280865 0.0364462 0.0449142 0.0534906 0.0621753 0.0707057 0.0788194 0.0865162 0.0937963 0.100459 0.106304 0.111331 0.115541 0.118845 0.121158 0.12248 0.12281 0.122167 0.120572 0.118023 0.114522 0.11018 0.105111 0.0993146 0.0927908 0.0857409 0.0783657 0.0706654 0.0626399 0.0545378 0.0466075 0.038849 0.0312625 0.0240561 0.0174383 0.011409 0.00596821 0.00120332 -0.00279831 -0.00603671 -0.00851185 -0.0102807 -0.0114002 -0.0118704 -0.0116912 -0.0110376 -0.0100845 -0.00883178 -0.00727959 -0.00566926 -0.00424219 -0.00299838 -0.00193783 -0.00109003 -0.000484458 -0.000121115 0 0 -5.15159e-05 -0.000206063 -0.000463643 -0.000824254 -0.00131294 -0.00195475 -0.00274967 -0.00369772 -0.00474405 -0.00583383 -0.00696706 -0.00814375 -0.00932232 -0.0104612 -0.0115605 -0.01262 -0.0136225 -0.0145506 -0.0154043 -0.0161836 -0.0168889 -0.0175207 -0.0180791 -0.0185641 -0.018982 -0.0193393 -0.019636 -0.019872 -0.0200522 -0.0201814 -0.0202596 -0.0202868 -0.0202712 -0.0202212 -0.0201368 -0.0200179 -0.0198883 -0.0197718 -0.0196683 -0.0195779 -0.0195386 -0.0195886 -0.0197277 -0.0199561 -0.0202988 -0.0207808 -0.0214021 -0.0221628 -0.0230346 -0.0239897 -0.0250278 -0.0261491 -0.02725 -0.0282273 -0.0290808 -0.0298106 -0.0302558 -0.0302553 -0.0298091 -0.0289174 -0.0274225 -0.025167 -0.0221508 -0.0183739 -0.0137725 -0.00828234 -0.00190356 0.00536387 0.0134143 0.0221419 0.0315469 0.0416291 0.0521177 0.0627415 0.0735007 0.0843952 0.0950967 0.105277 0.114936 0.124074 0.132441 0.139785 0.146109 0.15141 0.155582 0.158515 0.160208 0.160663 0.159901 0.157945 0.154795 0.15045 0.14505 0.138731 0.131494 0.123338 0.114513 0.105266 0.0955975 0.0855069 0.0753026 0.0652926 0.0554767 0.045855 0.0366854 0.0282258 0.0204762 0.0134367 0.00721529 0.00192029 -0.00244833 -0.00589056 -0.00847305 -0.0102624 -0.0112587 -0.0114619 -0.0110764 -0.0103067 -0.00915272 -0.00761457 -0.00597078 -0.00449992 -0.00320201 -0.00207703 -0.00116833 -0.000519256 -0.000129814 0 0 -6.07071e-05 -0.000242828 -0.000546364 -0.000971314 -0.00154014 -0.00227529 -0.00317677 -0.00424459 -0.00540666 -0.00659093 -0.00779739 -0.00902603 -0.0102238 -0.0113375 -0.0123673 -0.013313 -0.0141538 -0.0148686 -0.0154575 -0.0159204 -0.0162633 -0.016492 -0.0166065 -0.0166068 -0.0165125 -0.0163431 -0.0160986 -0.0157791 -0.0154062 -0.0150017 -0.0145657 -0.0140982 -0.0136234 -0.013166 -0.0127258 -0.0123028 -0.0119325 -0.01165 -0.0114554 -0.0113487 -0.0113711 -0.0115641 -0.0119276 -0.0124616 -0.0131818 -0.0141037 -0.0152275 -0.016553 -0.018028 -0.0196003 -0.0212698 -0.0230366 -0.0247616 -0.026306 -0.0276697 -0.0288527 -0.0296555 -0.0298782 -0.029521 -0.0285838 -0.0268783 -0.0242159 -0.0205967 -0.0160207 -0.0104155 -0.00370859 0.00410001 0.0130103 0.0228881 0.0335993 0.0451438 0.0575216 0.0703977 0.0834367 0.0966388 0.110004 0.12313 0.135613 0.147454 0.158654 0.168908 0.177912 0.185667 0.192174 0.1973 0.200917 0.203024 0.203621 0.202734 0.200388 0.196583 0.19132 0.184761 0.17707 0.168246 0.15829 0.147499 0.136171 0.124308 0.111907 0.0993451 0.0869951 0.0748575 0.0629323 0.0515346 0.0409797 0.0312675 0.0223982 0.0145046 0.00771976 0.00204372 -0.00252353 -0.006059 -0.00863966 -0.0102655 -0.0109366 -0.0108899 -0.0103625 -0.00935445 -0.00786566 -0.00621494 -0.00472103 -0.00338395 -0.0022037 -0.00123958 -0.000550924 -0.000137731 0 0 -7.02463e-05 -0.000280985 -0.000632217 -0.00112394 -0.00177467 -0.00260292 -0.00360868 -0.00479196 -0.00606077 -0.00732313 -0.00857903 -0.00982848 -0.0110048 -0.0120412 -0.0129377 -0.0136943 -0.0142859 -0.014687 -0.0148978 -0.0149182 -0.014761 -0.014439 -0.0139522 -0.0133006 -0.0125207 -0.0116489 -0.0106852 -0.00962967 -0.008526 -0.00741792 -0.00630543 -0.00518852 -0.00411234 -0.00312204 -0.0022176 -0.00139904 -0.000715973 -0.000218029 9.47924e-05 0.000222493 0.000120515 -0.000255696 -0.00090614 -0.00183082 -0.00303273 -0.00451486 -0.00627723 -0.00831982 -0.0105602 -0.0129161 -0.0153874 -0.0179741 -0.0204949 -0.0227682 -0.0247942 -0.0265728 -0.0278597 -0.0284106 -0.0282255 -0.0273044 -0.0254244 -0.0223623 -0.0181183 -0.0126924 -0.00600355 0.00202917 0.0114057 0.0221262 0.0340228 0.046928 0.0608417 0.075764 0.0912863 0.107 0.122905 0.139002 0.154804 0.169827 0.184071 0.197536 0.20986 0.220684 0.230007 0.23783 0.244 0.248366 0.250927 0.251684 0.250665 0.2479 0.243389 0.237131 0.229315 0.220129 0.209572 0.197645 0.184698 0.171081 0.156796 0.141841 0.126665 0.111715 0.0969916 0.0824943 0.0686037 0.0556999 0.0437829 0.0328527 0.0230712 0.0146001 0.00743945 0.00158924 -0.00303854 -0.0065319 -0.00889085 -0.0101154 -0.0104782 -0.0102521 -0.00943697 -0.00803287 -0.00640174 -0.00490552 -0.00354422 -0.00231784 -0.00130379 -0.000579461 -0.000144865 0 0 -8.01335e-05 -0.000320534 -0.000721201 -0.00128214 -0.00201654 -0.00293763 -0.00404539 -0.00533983 -0.00670637 -0.00803043 -0.00931199 -0.0105511 -0.0116653 -0.0125721 -0.0132717 -0.013764 -0.0140188 -0.0140058 -0.0137252 -0.0131768 -0.0123819 -0.0113618 -0.0101163 -0.00864546 -0.00700652 -0.0052566 -0.00339571 -0.00142384 0.000588301 0.00257001 0.00452128 0.00644212 0.00826205 0.0099106 0.0113878 0.0126936 0.0137613 0.0145242 0.0149823 0.0151356 0.0149363 0.0143367 0.0133367 0.0119363 0.0101484 0.00798584 0.00544864 0.00253679 -0.000631247 -0.00393702 -0.00738052 -0.0109618 -0.0144499 -0.0176142 -0.0204545 -0.022971 -0.0248686 -0.0258525 -0.0259227 -0.0250792 -0.0230608 -0.0196062 -0.0147156 -0.00838893 -0.000536589 0.00893093 0.0200136 0.0327115 0.0468184 0.0621282 0.0786408 0.0963563 0.114783 0.133431 0.152299 0.171388 0.190121 0.20792 0.224786 0.24072 0.255298 0.268101 0.279128 0.28838 0.295682 0.300861 0.303918 0.304852 0.303695 0.300482 0.295211 0.287884 0.278711 0.267907 0.255471 0.241404 0.22611 0.209996 0.193062 0.175308 0.157262 0.139453 0.121879 0.104541 0.0878927 0.0723864 0.0580222 0.0448003 0.0329151 0.0225613 0.0137388 0.00644775 0.000588321 -0.00393916 -0.00713468 -0.00899826 -0.00984133 -0.00997534 -0.00940029 -0.00811619 -0.00653118 -0.00505338 -0.00368281 -0.00241947 -0.00136095 -0.000604867 -0.000151217 0 0 -9.00593e-05 -0.000360237 -0.000810534 -0.00144095 -0.00225774 -0.00326716 -0.00446921 -0.00586389 -0.00731114 -0.00867088 -0.00994312 -0.0111279 -0.0121245 -0.0128325 -0.0132518 -0.0133824 -0.0131883 -0.0126335 -0.011718 -0.0104418 -0.00883653 -0.0069337 -0.00473334 -0.002