<?xml version="1.0"?> 
<VTKFile type="StructuredGrid" version="0.1"> 
<StructuredGrid WholeExtent="0 128 0 128 0 0"> 
<Piece Extent="0 128 0 128 0 0"> 
<PointData>
<DataArray type="Float32" Name="u" format="ascii" NumberOfComponents="1"> 
0 0 0 0 0 0 0 0 0 0 0 0 0 0 0 0 0 0 0 0 0 0 0 0 0 0 0 0 0 0 0 0 0 0 0 0 0 0 0 0 0 0 0 0 0 0 0 0 0 0 0 0 0 0 0 0 0 0 0 0 0 0 0 0 0 0 0 0 0 0 0 0 0 0 0 0 0 0 0 0 0 0 0 0 0 0 0 0 0 0 0 0 0 0 0 0 0 0 0 0 0 0 0 0 0 0 0 0 0 0 0 0 0 0 0 0 0 0 0 0 0 0 0 0 0 0 0 0 0 0 1.52723e-07 6.10892e-07 1.37451e-06 2.44357e-06 3.89308e-06 5.79804e-06 8.15846e-06 1.09743e-05 1.40465e-05 1.71758e-05 2.03623e-05 2.3606e-05 2.68013e-05 2.98427e-05 3.27304e-05 3.54642e-05 3.80526e-05 4.05043e-05 4.28192e-05 4.49973e-05 4.71137e-05 4.92434e-05 5.13866e-05 5.35433e-05 5.57579e-05 5.80752e-05 6.04951e-05 6.30177e-05 6.55729e-05 6.80907e-05 7.05712e-05 7.30143e-05 7.52909e-05 7.7272e-05 7.89574e-05 8.03472e-05 8.14228e-05 8.21657e-05 8.25758e-05 8.26532e-05 8.25481e-05 8.24106e-05 8.22408e-05 8.20387e-05 8.19117e-05 8.19671e-05 8.22048e-05 8.26249e-05 8.30025e-05 8.31127e-05 8.29554e-05 8.25306e-05 8.13025e-05 7.8735e-05 7.48281e-05 6.95819e-05 6.25554e-05 5.33079e-05 4.18393e-05 2.81496e-05 1.22622e-05 -5.79962e-06 -2.60359e-05 -4.84466e-05 -7.26223e-05 -9.81538e-05 -0.000125041 -0.000153284 -0.000182447 -0.000212093 -0.000242224 -0.000272839 -0.000303595 -0.000334149 -0.000364503 -0.000394655 -0.000424122 -0.000452421 -0.000479553 -0.000505517 -0.000529583 -0.000551022 -0.000569834 -0.000586018 -0.000598979 -0.000608117 -0.000613435 -0.00061493 -0.000612643 -0.000606612 -0.000596837 -0.000583317 -0.000566727 -0.000547738 -0.00052635 -0.000502564 -0.000477154 -0.000450895 -0.000423785 -0.000395825 -0.000367467 -0.000339162 -0.000310911 -0.000282712 -0.000254821 -0.000227491 -0.000200722 -0.000174515 -0.000149264 -0.000125362 -0.00010281 -8.16071e-05 -6.22401e-05 -4.51949e-05 -3.04714e-05 -1.80697e-05 -8.0841e-06 -6.08998e-07 4.3556e-06 6.80971e-06 7.57097e-06 7.45706e-06 6.46797e-06 4.60371e-06 2.58958e-06 1.15093e-06 2.87732e-07 0 0 6.10892e-07 2.44357e-06 5.49803e-06 9.77427e-06 1.55723e-05 2.31922e-05 3.26338e-05 4.38973e-05 5.6186e-05 6.87033e-05 8.14493e-05 9.44238e-05 0.000107205 0.000119371 0.000130921 0.000141857 0.000152211 0.000162017 0.000171277 0.000179989 0.000188455 0.000196974 0.000205547 0.000214173 0.000223032 0.000232301 0.00024198 0.000252071 0.000262291 0.000272363 0.000282285 0.000292057 0.000301164 0.000309088 0.000315829 0.000321389 0.000325691 0.000328663 0.000330303 0.000330613 0.000330192 0.000329642 0.000328963 0.000328155 0.000327647 0.000327868 0.000328819 0.0003305 0.00033201 0.000332451 0.000331822 0.000330123 0.00032521 0.00031494 0.000299312 0.000278328 0.000250222 0.000213232 0.000167357 0.000112599 4.90489e-05 -2.31985e-05 -0.000104144 -0.000193786 -0.000290489 -0.000392615 -0.000500164 -0.000613136 -0.000729787 -0.000848374 -0.000968896 -0.00109135 -0.00121438 -0.0013366 -0.00145801 -0.00157862 -0.00169649 -0.00180969 -0.00191821 -0.00202207 -0.00211833 -0.00220409 -0.00227933 -0.00234407 -0.00239591 -0.00243247 -0.00245374 -0.00245972 -0.00245057 -0.00242645 -0.00238735 -0.00233327 -0.00226691 -0.00219095 -0.0021054 -0.00201026 -0.00190862 -0.00180358 -0.00169514 -0.0015833 -0.00146987 -0.00135665 -0.00124364 -0.00113085 -0.00101928 -0.000909963 -0.00080289 -0.000698062 -0.000597056 -0.000501448 -0.000411239 -0.000326428 -0.000248961 -0.00018078 -0.000121886 -7.22788e-05 -3.23364e-05 -2.43599e-06 1.74224e-05 2.72388e-05 3.02839e-05 2.98282e-05 2.58719e-05 1.84148e-05 1.03583e-05 4.60371e-06 1.15093e-06 0 0 1.37451e-06 5.49803e-06 1.23706e-05 2.19921e-05 3.50377e-05 5.21824e-05 7.34261e-05 9.87689e-05 0.000126418 0.000154582 0.000183261 0.000212454 0.000241211 0.000268585 0.000294573 0.000319177 0.000342474 0.000364539 0.000385373 0.000404975 0.000424023 0.000443191 0.00046248 0.000481889 0.000501821 0.000522677 0.000544456 0.000567159 0.000590156 0.000612816 0.000635141 0.000657129 0.000677618 0.000695448 0.000710616 0.000723125 0.000732805 0.000739491 0.000743182 0.000743879 0.000742932 0.000741695 0.000740167 0.000738349 0.000737205 0.000737704 0.000739843 0.000743624 0.000747023 0.000748014 0.000746598 0.000742776 0.000731722 0.000708615 0.000673453 0.000626237 0.000562999 0.000479771 0.000376554 0.000253347 0.00011036 -5.21966e-05 -0.000234323 -0.000436019 -0.000653601 -0.000883384 -0.00112537 -0.00137956 -0.00164202 -0.00190884 -0.00218002 -0.00245555 -0.00273235 -0.00300734 -0.00328052 -0.00355189 -0.0038171 -0.00407179 -0.00431598 -0.00454965 -0.00476625 -0.0049592 -0.0051285 -0.00527416 -0.00539081 -0.00547306 -0.00552091 -0.00553437 -0.00551379 -0.00545951 -0.00537153 -0.00524985 -0.00510054 -0.00492964 -0.00473715 -0.00452308 -0.00429439 -0.00405805 -0.00381406 -0.00356243 -0.00330721 -0.00305246 -0.0027982 -0.00254441 -0.00229339 -0.00204742 -0.0018065 -0.00157064 -0.00134338 -0.00112826 -0.000925288 -0.000734464 -0.000560161 -0.000406754 -0.000274243 -0.000162627 -7.27569e-05 -5.48098e-06 3.92004e-05 6.12874e-05 6.81387e-05 6.71135e-05 5.82117e-05 4.14334e-05 2.33063e-05 1.03583e-05 2.58958e-06 0 0 2.44357e-06 9.77427e-06 2.19921e-05 3.90971e-05 6.22893e-05 9.27687e-05 0.000130535 0.000175589 0.000224744 0.000274813 0.000325797 0.000377695 0.00042882 0.000477484 0.000523686 0.000567427 0.000608842 0.000648069 0.000685107 0.000719956 0.000753818 0.000787895 0.000822186 0.000856692 0.000892126 0.000929203 0.000967922 0.00100828 0.00104917 0.00108945 0.00112914 0.00116823 0.00120465 0.00123635 0.00126332 0.00128555 0.00130276 0.00131465 0.00132121 0.00132245 0.00132077 0.00131857 0.00131585 0.00131262 0.00131059 0.00131147 0.00131528 0.001322 0.00132804 0.0013298 0.00132729 0.00132049 0.00130084 0.00125976 0.00119725 0.00111331 0.00100089 0.000852927 0.000669429 0.000450394 0.000196196 -9.27939e-05 -0.000416574 -0.000775145 -0.00116196 -0.00157046 -0.00200066 -0.00245254 -0.00291915 -0.00339349 -0.00387559 -0.00436542 -0.00485751 -0.00534639 -0.00583204 -0.00631447 -0.00678595 -0.00723874 -0.00767285 -0.00808827 -0.00847333 -0.00881635 -0.00911734 -0.00937629 -0.00958366 -0.00972988 -0.00981495 -0.00983888 -0.00980229 -0.00970579 -0.00954939 -0.00933307 -0.00906762 -0.0087638 -0.0084216 -0.00804103 -0.00763447 -0.00721431 -0.00678056 -0.0063332 -0.00587948 -0.0054266 -0.00497457 -0.00452339 -0.00407713 -0.00363985 -0.00321156 -0.00279225 -0.00238822 -0.00200579 -0.00164496 -0.00130571 -0.000995842 -0.000723118 -0.000487543 -0.000289115 -0.000129346 -9.74397e-06 6.96897e-05 0.000108955 0.000121136 0.000119313 0.000103488 7.36593e-05 4.14334e-05 1.84148e-05 4.60371e-06 0 0 3.89724e-06 1.55889e-05 3.50751e-05 6.23558e-05 9.89338e-05 0.000146312 0.000204491 0.00027347 0.000348048 0.000423026 0.000498403 0.000574179 0.000647751 0.000716515 0.00078047 0.000839617 0.000894313 0.000944915 0.000991422 0.00103383 0.00107419 0.00111453 0.00115485 0.00119516 0.00123673 0.00128086 0.00132754 0.00137677 0.00142708 0.00147699 0.0015265 0.00157561 0.00162148 0.00166127 0.00169497 0.00172259 0.00174392 0.00175878 0.00176717 0.00176907 0.00176813 0.00176795 0.00176855 0.00176993 0.00177423 0.00178362 0.0017981 0.00181767 0.00183621 0.00184758 0.0018518 0.00184886 0.0018254 0.00176805 0.00167681 0.00155169 0.00138231 0.0011583 0.000879659 0.000546392 0.000159798 -0.000278825 -0.000769475 -0.00131215 -0.0018966 -0.00251255 -0.00316002 -0.00383899 -0.00453948 -0.00525148 -0.005975 -0.00671004 -0.00744922 -0.00818517 -0.00891789 -0.00964739 -0.0103621 -0.0110505 -0.0117126 -0.0123484 -0.0129392 -0.0134665 -0.0139301 -0.0143303 -0.0146513 -0.0148777 -0.0150095 -0.0150466 -0.0149902 -0.0148412 -0.0145995 -0.0142653 -0.0138559 -0.0133887 -0.0128637 -0.0122809 -0.0116599 -0.0110203 -0.0103621 -0.00968532 -0.00900044 -0.00831804 -0.00763812 -0.00696067 -0.00629075 -0.00563341 -0.00498865 -0.00435647 -0.00374583 -0.00316568 -0.00261602 -0.00209687 -0.0016204 -0.00119882 -0.000832118 -0.000520299 -0.00026651 -7.38976e-05 5.75376e-05 0.000127796 0.000156034 0.000161408 0.00014392 0.000103568 5.82567e-05 2.58919e-05 6.47297e-06 0 0 5.81467e-06 2.32587e-05 5.2332e-05 9.30348e-05 0.000146578 0.000214174 0.000295822 0.000391522 0.000493217 0.000592851 0.000690424 0.000785936 0.000875724 0.000956124 0.00102714 0.00108876 0.00114188 0.00118738 0.00122526 0.00125551 0.00128149 0.00130655 0.00133067 0.00135387 0.00137843 0.00140663 0.00143847 0.00147394 0.00151164 0.00155013 0.00158943 0.00162952 0.00166731 0.00169967 0.00172661 0.00174813 0.00176464 0.00177653 0.00178382 0.00178649 0.00178944 0.00179754 0.0018108 0.00182922 0.00185457 0.00188859 0.0019313 0.00198269 0.00203267 0.00207113 0.00209807 0.00211349 0.00209824 0.00203316 0.00191825 0.00175351 0.00152568 0.00122148 0.00084092 0.000383992 -0.000145592 -0.000744124 -0.0014116 -0.00214803 -0.00293856 -0.00376837 -0.00463745 -0.0055458 -0.00648133 -0.00743196 -0.00839767 -0.00937847 -0.0103668 -0.0113551 -0.0123434 -0.0133317 -0.0143047 -0.0152471 -0.016159 -0.0170404 -0.0178635 -0.0186004 -0.0192512 -0.0198158 -0.0202704 -0.0205912 -0.020778 -0.020831 -0.0207517 -0.0205416 -0.0202007 -0.019729 -0.0191531 -0.0184995 -0.0177683 -0.0169595 -0.0161018 -0.0152241 -0.0143263 -0.0134085 -0.0124839 -0.0115658 -0.0106542 -0.00974912 -0.00885449 -0.00797424 -0.00710838 -0.0062569 -0.00543041 -0.00463954 -0.00388427 -0.00316462 -0.00249824 -0.0019028 -0.0013783 -0.000924736 -0.000548657 -0.000256614 -4.86081e-05 7.5362e-05 0.000139593 0.000168382 0.000161728 0.000119633 6.72935e-05 2.99082e-05 7.47706e-06 0 0 8.19588e-06 3.27835e-05 7.37629e-05 0.000131134 0.000205222 0.000296354 0.000404528 0.000529745 0.00066025 0.000784289 0.000901861 0.00101297 0.00111274 0.00119631 0.00126369 0.00131486 0.00135155 0.00137547 0.00138662 0.00138499 0.00137572 0.00136394 0.00134964 0.00133283 0.00131722 0.00130651 0.00130071 0.00129981 0.00130286 0.0013089 0.00131794 0.00132997 0.00134213 0.00135156 0.00135824 0.00136219 0.0013649 0.00136789 0.00137116 0.0013747 0.00138469 0.00140733 0.0014426 0.00149052 0.0015516 0.00162638 0.00171487 0.00181706 0.00191742 0.00200043 0.00206607 0.00211436 0.00211935 0.00205508 0.00192156 0.00171878 0.00143101 0.00104248 0.000553213 -3.68061e-05 -0.000719974 -0.00148869 -0.00234296 -0.00328277 -0.00428785 -0.00533791 -0.00643295 -0.00757296 -0.0087447 -0.00993491 -0.0111436 -0.0123707 -0.0136103 -0.0148562 -0.0161086 -0.0173673 -0.0186136 -0.0198285 -0.0210121 -0.0221645 -0.0232463 -0.0242183 -0.0250806 -0.025833 -0.0264412 -0.0268704 -0.0271207 -0.0271921 -0.0270867 -0.0268069 -0.0263527 -0.025724 -0.0249591 -0.0240963 -0.0231355 -0.0220768 -0.0209601 -0.0198255 -0.018673 -0.0175026 -0.0163297 -0.0151698 -0.0140228 -0.0128887 -0.0117683 -0.0106623 -0.00957074 -0.00849353 -0.00744198 -0.00642737 -0.0054497 -0.00450897 -0.00362937 -0.00283507 -0.00212609 -0.00150243 -0.000975787 -0.000557895 -0.000248748 -4.83462e-05 7.18128e-05 0.000140233 0.000156914 0.000121855 6.85437e-05 3.04639e-05 7.61597e-06 0 0 1.10408e-05 4.41634e-05 9.93676e-05 0.000176654 0.000274867 0.000392852 0.00053061 0.00068814 0.000849148 0.000997339 0.00113271 0.00125527 0.00135879 0.00143708 0.00149012 0.00151792 0.00152332 0.00150918 0.0014755 0.00142227 0.00135688 0.00128671 0.00121176 0.00113204 0.0010531 0.000980509 0.000914262 0.000854362 0.000800728 0.000753282 0.000712023 0.000676952 0.000645957 0.000616927 0.000589859 0.000564756 0.000544725 0.000532871 0.000529196 0.000533699 0.0005539 0.000597317 0.000663949 0.000753798 0.000865327 0.000997 0.00114882 0.00132078 0.00149047 0.00163549 0.00175583 0.0018515 0.00188874 0.00183382 0.00168674 0.0014475 0.00109829 0.0006213 1.65366e-05 -0.000716003 -0.00156335 -0.00251252 -0.00356354 -0.00471638 -0.00594446 -0.00722117 -0.00854651 -0.00992049 -0.0113296 -0.0127604 -0.0142128 -0.0156868 -0.0171797 -0.0186885 -0.0202134 -0.0217543 -0.0232888 -0.0247947 -0.0262719 -0.0277205 -0.0290875 -0.03032 -0.0314182 -0.0323819 -0.0331635 -0.0337153 -0.0340374 -0.0341297 -0.0339953 -0.0336373 -0.0330557 -0.0322505 -0.0312741 -0.0301791 -0.0289653 -0.0276328 -0.0262349 -0.0248247 -0.0234024 -0.0219678 -0.0205381 -0.0191301 -0.0177439 -0.0163795 -0.0150323 -0.0136977 -0.0123757 -0.0110664 -0.00978053 -0.00852918 -0.00731231 -0.00612992 -0.00501377 -0.00399563 -0.00307549 -0.00225337 -0.0015479 -0.000977738 -0.000542881 -0.000243329 -4.73063e-05 7.69618e-05 0.000129476 0.000110235 6.20073e-05 2.75588e-05 6.8897e-06 0 0 1.39556e-05 5.58223e-05 0.0001256 0.000223289 0.000345414 0.000488497 0.00065254 0.000837543 0.00102209 0.00118475 0.00132554 0.00144444 0.00153411 0.00158718 0.00160365 0.00158352 0.00153127 0.00145137 0.00134382 0.00120862 0.00105575 0.000895188 0.000726933 0.000550985 0.000374977 0.000206541 4.56771e-05 -0.000107615 -0.000251964 -0.000386 -0.000509722 -0.000623131 -0.000726475 -0.000820004 -0.000903719 -0.000977618 -0.00103603 -0.00107328 -0.00108937 -0.00108429 -0.00104941 -0.000976076 -0.000864293 -0.000714059 -0.00053057 -0.000319019 -7.94072e-05 0.000188266 0.000452998 0.000683788 0.000880634 0.00104354 0.001131 0.00110152 0.000955101 0.000691743 0.000294001 -0.000255567 -0.000956961 -0.00181018 -0.00279383 -0.0038865 -0.00508821 -0.00639894 -0.00778516 -0.00921332 -0.0106834 -0.0121955 -0.013739 -0.0153037 -0.0168895 -0.0184963 -0.0201297 -0.021795 -0.0234923 -0.0252216 -0.0269595 -0.0286829 -0.0303916 -0.0320858 -0.0336972 -0.035158 -0.0364679 -0.0376271 -0.0385721 -0.0392396 -0.0396294 -0.0397416 -0.0395803 -0.0391495 -0.0384492 -0.0374794 -0.0363093 -0.0350083 -0.0335764 -0.0320134 -0.0303871 -0.028765 -0.027147 -0.0255332 -0.0239391 -0.0223799 -0.0208559 -0.0193668 -0.0178977 -0.0164334 -0.0149738 -0.013519 -0.0120764 -0.0106536 -0.00925051 -0.00786719 -0.00654378 -0.00532043 -0.00419717 -0.00317397 -0.00227963 -0.00154292 -0.000963846 -0.000542406 -0.000247075 -4.63273e-05 5.98376e-05 7.14194e-05 4.01734e-05 1.78548e-05 4.46371e-06 0 0 1.65461e-05 6.61843e-05 0.000148915 0.000264737 0.000406767 0.000568118 0.000748792 0.000948788 0.00114124 0.00129927 0.00142289 0.0015121 0.00155892 0.00155539 0.00150151 0.00139728 0.00124947 0.00106488 0.000843496 0.00058532 0.000303131 9.70886e-06 -0.000294946 -0.000610834 -0.000928244 -0.00123746 -0.0015385 -0.00183134 -0.00211244 -0.00237822 -0.0026287 -0.00286387 -0.00308042 -0.00327502 -0.00344768 -0.00359839 -0.00371749 -0.0037953 -0.00383182 -0.00382706 -0.0037717 -0.00365643 -0.00348126 -0.00324619 -0.00296241 -0.00264113 -0.00228234 -0.00188605 -0.00149381 -0.0011472 -0.000846217 -0.000590858 -0.000429295 -0.0004097 -0.000532073 -0.000796413 -0.00121538 -0.00180162 -0.00255513 -0.00347592 -0.00452953 -0.0056815 -0.00693183 -0.00828051 -0.00968668 -0.0111095 -0.0125489 -0.014005 -0.0154761 -0.0169604 -0.018458 -0.0199689 -0.0215151 -0.0231187 -0.0247797 -0.0264981 -0.0282547 -0.0300301 -0.0318245 -0.0336378 -0.0353858 -0.0369844 -0.0384336 -0.0397335 -0.0408018 -0.0415566 -0.0419978 -0.0421254 -0.0419446 -0.0414604 -0.0406727 -0.0395816 -0.038276 -0.0368446 -0.0352875 -0.0336046 -0.0318779 -0.0301897 -0.0285397 -0.0269281 -0.025363 -0.0238526 -0.022397 -0.0209961 -0.019616 -0.0182224 -0.0168154 -0.0153949 -0.0139599 -0.0125092 -0.0110427 -0.00956053 -0.00811172 -0.00674548 -0.00546178 -0.00426064 -0.0031856 -0.00228021 -0.00154448 -0.000978399 -0.000556804 -0.00025453 -7.1577e-05 -7.94447e-06 -4.46876e-06 -1.98612e-06 -4.96529e-07 0 0 1.88123e-05 7.52493e-05 0.000169311 0.000300997 0.000458926 0.000631716 0.000819366 0.00102188 0.0012066 0.0013409 0.00142478 0.00145822 0.0014332 0.00134169 0.00118368 0.000959178 0.000677938 0.000349723 -2.54662e-05 -0.00044763 -0.000900981 -0.00136973 -0.00185387 -0.00235342 -0.00285656 -0.00335151 -0.00383826 -0.00431682 -0.00478069 -0.00522339 -0.00564492 -0.00604528 -0.00641588 -0.00674812 -0.00704202 -0.00729756 -0.00749965 -0.00763318 -0.00769817 -0.0076946 -0.00761296 -0.00744375 -0.00718696 -0.0068426 -0.0064302 -0.00596933 -0.00545998 -0.00490216 -0.00434996 -0.00385748 -0.00342472 -0.00305169 -0.00279214 -0.00269984 -0.00277478 -0.00301697 -0.00342984 -0.00401685 -0.00477798 -0.00571323 -0.00677047 -0.00789752 -0.00909439 -0.0103611 -0.011649 -0.0129097 -0.0141431 -0.0153491 -0.0165407 -0.0177304 -0.0189184 -0.0201045 -0.0213359 -0.0226596 -0.0240756 -0.0255839 -0.0271742 -0.0288364 -0.0305705 -0.0323764 -0.0341531 -0.0357994 -0.0373154 -0.038701 -0.0398526 -0.0406664 -0.0411427 -0.0412812 -0.0410882 -0.0405699 -0.0397263 -0.0385573 -0.0371742 -0.0356879 -0.0340986 -0.0324062 -0.0307074 -0.0290988 -0.0275804 -0.0261523 -0.0248098 -0.0235481 -0.0223673 -0.0212674 -0.020187 -0.0190647 -0.0179004 -0.0166943 -0.0154311 -0.014096 -0.012689 -0.0112099 -0.00971761 -0.00827075 -0.00686933 -0.00551337 -0.00426582 -0.00318962 -0.00228478 -0.00155131 -0.000976494 -0.000547647 -0.000264768 -0.000127856 -7.19192e-05 -3.19641e-05 -7.99102e-06 0 0 2.07543e-05 8.30173e-05 0.000186789 0.000332069 0.000501891 0.000679289 0.000864261 0.00105681 0.00121818 0.00130965 0.00133119 0.00128282 0.00115697 0.000946093 0.000650177 0.000269226 -0.000183342 -0.000694107 -0.00126307 -0.00189023 -0.00255659 -0.00324313 -0.00394985 -0.00467677 -0.00540998 -0.00613559 -0.00685361 -0.00756404 -0.00825672 -0.0089215 -0.00955837 -0.0101673 -0.0107328 -0.0112393 -0.0116867 -0.0120751 -0.0123825 -0.0125869 -0.0126884 -0.0126869 -0.0125732 -0.012338 -0.0119814 -0.0115033 -0.0109339 -0.0103036 -0.00961233 -0.00886007 -0.00811544 -0.00744704 -0.00685488 -0.00633895 -0.00595753 -0.00576889 -0.00577302 -0.00596992 -0.0063494 -0.00690126 -0.00762549 -0.00852211 -0.00951662 -0.0105346 -0.0115759 -0.0126407 -0.0136722 -0.0146139 -0.0154658 -0.0162278 -0.0169328 -0.0176138 -0.0182705 -0.0189032 -0.0195921 -0.0204177 -0.02138 -0.0224789 -0.0237183 -0.0251019 -0.0266297 -0.0283018 -0.0299992 -0.031603 -0.0331131 -0.0345296 -0.0357244 -0.0365691 -0.0370639 -0.0372088 -0.0370111 -0.0364781 -0.0356099 -0.0344064 -0.0330038 -0.0315383 -0.0300098 -0.0284183 -0.0268754 -0.0254923 -0.0242692 -0.023206 -0.0222795 -0.0214664 -0.0207668 -0.0201806 -0.0196109 -0.0189603 -0.018229 -0.0174169 -0.01649 -0.0154141 -0.0141892 -0.0128154 -0.0113614 -0.00989625 -0.00841983 -0.00693217 -0.00552028 -0.00427114 -0.00318476 -0.00226113 -0.00150614 -0.000925678 -0.000519736 -0.000288316 -0.000162178 -7.20791e-05 -1.80198e-05 0 0 2.18237e-05 8.72947e-05 0.000196413 0.000349179 0.00052226 0.000692324 0.000859372 0.0010234 0.00114039 0.00116629 0.00110111 0.000944859 0.000691747 0.000336003 -0.000122374 -0.000683384 -0.00132923 -0.00204211 -0.00282204 -0.003669 -0.00456149 -0.00547799 -0.00641851 -0.00738304 -0.00835695 -0.00932564 -0.0102891 -0.0112473 -0.0121866 -0.0130932 -0.0139672 -0.0148085 -0.0155929 -0.0162959 -0.0169177 -0.0174581 -0.0178866 -0.0181724 -0.0183155 -0.018316 -0.0181655 -0.0178553 -0.0173856 -0.0167564 -0.0160113 -0.0151942 -0.014305 -0.0133437 -0.0123952 -0.0115444 -0.0107911 -0.0101355 -0.00963751 -0.00935709 -0.00929426 -0.00944902 -0.00979045 -0.0102877 -0.0109406 -0.0117494 -0.0126103 -0.0134199 -0.014178 -0.0148848 -0.0154748 -0.0158828 -0.0161087 -0.0161526 -0.0160755 -0.0159384 -0.0157412 -0.015484 -0.0152928 -0.0152936 -0.0154865 -0.0158714 -0.0164743 -0.0173209 -0.0184114 -0.0197458 -0.0211873 -0.0225992 -0.0239815 -0.0253342 -0.0265015 -0.0273273 -0.0278116 -0.0279545 -0.0277644 -0.0272498 -0.0264108 -0.0252472 -0.0239232 -0.0226028 -0.021286 -0.0199727 -0.0187884 -0.0178584 -0.0171828 -0.0167616 -0.0165446 -0.0164817 -0.0165727 -0.0168179 -0.0170728 -0.0171931 -0.0171789 -0.0170301 -0.0166868 -0.0160889 -0.0152364 -0.0141294 -0.0128476 -0.011471 -0.00999955 -0.00843326 -0.00688912 -0.00548411 -0.00421821 -0.00309143 -0.00213584 -0.00138349 -0.000834375 -0.000488503 -0.000274783 -0.000122126 -3.05314e-05 0 0 2.14719e-05 8.58877e-05 0.000193247 0.000343551 0.000506628 0.00065231 0.000780595 0.000891484 0.000937616 0.00087163 0.000693525 0.000403302 -9.5764e-07 -0.000521171 -0.00115734 -0.00190946 -0.00275459 -0.0036698 -0.00465509 -0.00571046 -0.00681351 -0.00794184 -0.00909547 -0.0102744 -0.011466 -0.0126576 -0.0138492 -0.0150409 -0.0162163 -0.0173592 -0.0184695 -0.0195473 -0.0205576 -0.0214654 -0.0222707 -0.0229736 -0.0235323 -0.0239053 -0.0240925 -0.024094 -0.0239027 -0.0235116 -0.0229207 -0.02213 -0.0211999 -0.0201911 -0.0191035 -0.017937 -0.0167943 -0.015778 -0.014888 -0.0141243 -0.0135441 -0.0132047 -0.013106 -0.013248 -0.0135694 -0.0140089 -0.0145664 -0.015242 -0.015894 -0.0163808 -0.0167024 -0.0168588 -0.0167752 -0.0163767 -0.0156633 -0.0146351 -0.0133915 -0.0120321 -0.0105569 -0.00896585 -0.00744689 -0.00618787 -0.00518881 -0.00444971 -0.00402979 -0.00398827 -0.00432515 -0.00504043 -0.00598062 -0.00699222 -0.00807524 -0.00922968 -0.0102682 -0.0110035 -0.0114355 -0.0115643 -0.0113993 -0.01095 -0.0102163 -0.00919822 -0.00809072 -0.00708867 -0.00619206 -0.0054009 -0.00485276 -0.00468519 -0.00489821 -0.0054918 -0.00637779 -0.00746802 -0.00876246 -0.0102611 -0.011758 -0.0130469 -0.0141279 -0.015001 -0.0155718 -0.015746 -0.0155235 -0.0149043 -0.0139805 -0.012844 -0.0114948 -0.00993287 -0.00831249 -0.00678785 -0.00535895 -0.00402578 -0.00285567 -0.00191594 -0.00120658 -0.000727595 -0.000409272 -0.000181899 -4.54747e-05 0 0 1.96991e-05 7.87964e-05 0.000177292 0.000315186 0.000454997 0.000559245 0.000627929 0.00066105 0.000609874 0.000425665 0.000108423 -0.000341852 -0.000921141 -0.00162543 -0.00245471 -0.00340899 -0.00445943 -0.00557718 -0.00676223 -0.0080146 -0.00931263 -0.0106347 -0.0119807 -0.0133508 -0.014737 -0.0161314 -0.017534 -0.0189448 -0.0203459 -0.0217195 -0.0230654 -0.0243837 -0.025627 -0.0267477 -0.0277458 -0.0286215 -0.0293197 -0.0297856 -0.0300193 -0.0300208 -0.029785 -0.0293069 -0.0285866 -0.0276241 -0.0264998 -0.0252944 -0.0240078 -0.02264 -0.0213128 -0.0201479 -0.0191454 -0.0183052 -0.0176774 -0.0173117 -0.0172082 -0.0173669 -0.0176863 -0.0180649 -0.0185028 -0.0189998 -0.0193675 -0.0194173 -0.019149 -0.0185628 -0.0175735 -0.0160957 -0.0141297 -0.0116752 -0.00888087 -0.00589502 -0.00271767 0.000651173 0.00394556 0.00689952 0.00951307 0.0117862 0.0136151 0.0148961 0.0156292 0.0158143 0.0156208 0.0152179 0.0146057 0.0137841 0.0129755 0.0124022 0.0120643 0.0119617 0.0120842 0.0124215 0.0129737 0.0137407 0.0144938 0.0150042 0.0152719 0.015297 0.0149314 0.0140273 0.0125847 0.0106035 0.008221 0.00557452 0.00266404 -0.000510437 -0.00366649 -0.0065217 -0.00907606 -0.0113296 -0.0131451 -0.0143853 -0.0150504 -0.0151403 -0.0147601 -0.0140152 -0.0129055 -0.011431 -0.00979038 -0.00818237 -0.00660697 -0.00506417 -0.00366564 -0.00252303 -0.00163635 -0.00100559 -0.000565646 -0.000251398 -6.28495e-05 0 0 1.65052e-05 6.60207e-05 0.000148547 0.000264083 0.000367365 0.000413129 0.000401375 0.000332102 0.000157159 -0.000171606 -0.000654193 -0.0012906 -0.0020688 -0.00297677 -0.0040145 -0.00518199 -0.00644374 -0.00776423 -0.00914346 -0.0105814 -0.0120589 -0.0135565 -0.0150743 -0.0166123 -0.01817 -0.0197471 -0.0213434 -0.0229591 -0.0245754 -0.026174 -0.0277548 -0.0293177 -0.030801 -0.0321428 -0.0333431 -0.0344018 -0.0352488 -0.0358135 -0.036096 -0.0360964 -0.0358122 -0.0352412 -0.0343834 -0.0332387 -0.031911 -0.0305041 -0.029018 -0.0274526 -0.0259505 -0.0246541 -0.0235634 -0.0226784 -0.0220372 -0.0216781 -0.0216009 -0.0218057 -0.0221411 -0.0224558 -0.0227497 -0.023023 -0.023031 -0.0225293 -0.0215179 -0.0199968 -0.0178696 -0.0150399 -0.0115077 -0.00727304 -0.00254359 0.00247292 0.00777648 0.0133671 0.0188845 0.0239686 0.0286191 0.0328363 0.0364605 0.0393323 0.0414516 0.0428184 0.0436169 0.0440312 0.0440612 0.043707 0.0432296 0.0428898 0.0426878 0.0426235 0.0426861 0.0428646 0.043159 0.0435694 0.0438302 0.0436757 0.043106 0.042121 0.0405642 0.0382792 0.0352658 0.0315242 0.0272518 0.022646 0.0177068 0.0124342 0.00720169 0.00238249 -0.00202335 -0.00601584 -0.00940653 -0.012007 -0.0138172 -0.0148372 -0.0151865 -0.0149847 -0.0142317 -0.0129276 -0.0113228 -0.00966767 -0.00796228 -0.00620661 -0.00456575 -0.00320477 -0.00212369 -0.00132249 -0.000743903 -0.000330624 -8.26559e-05 0 0 1.15062e-05 4.6025e-05 0.000103556 0.0001841 0.000234983 0.000203531 8.97455e-05 -0.000106374 -0.000428633 -0.000920834 -0.00158298 -0.00241506 -0.00339373 -0.00449561 -0.00572071 -0.00706903 -0.00849761 -0.00996352 -0.0114668 -0.0130073 -0.0145716 -0.016146 -0.0177305 -0.0193251 -0.0209423 -0.0225946 -0.0242818 -0.0260041 -0.0277454 -0.0294897 -0.0312369 -0.032987 -0.0346627 -0.0361866 -0.0375586 -0.0387787 -0.0397588 -0.0404104 -0.0407335 -0.0407282 -0.0403954 -0.0397361 -0.0387503 -0.037438 -0.0359296 -0.0343558 -0.0327164 -0.0310114 -0.0294047 -0.0280599 -0.026977 -0.0261561 -0.0256165 -0.0253776 -0.0254394 -0.025802 -0.0262516 -0.0265745 -0.0267708 -0.0268404 -0.0264723 -0.0253554 -0.0234898 -0.0208755 -0.0174038 -0.0129663 -0.00756291 -0.00119365 0.00586238 0.0133261 0.0211975 0.0294765 0.03769 0.0453645 0.0525002 0.0590969 0.0649269 0.0697622 0.0736029 0.0764491 0.0784986 0.0799498 0.0808026 0.081057 0.0810166 0.0809852 0.0809628 0.0809493 0.0809336 0.0809046 0.080862 0.0808061 0.0804311 0.0794312 0.0778064 0.0755568 0.0725187 0.0685283 0.0635857 0.0576908 0.0511129 0.044121 0.0367152 0.0288955 0.0211419 0.0139345 0.00727319 0.00115805 -0.00416222 -0.00843889 -0.011672 -0.0138614 -0.0151426 -0.0156507 -0.0153857 -0.0143476 -0.0128461 -0.0111909 -0.00938202 -0.00741945 -0.00553055 -0.00394273 -0.00265598 -0.0016703 -0.000939541 -0.000417574 -0.000104393 0 0 4.31832e-06 1.72733e-05 3.88649e-05 6.90931e-05 4.90978e-05 -7.99814e-05 -0.000318144 -0.000665391 -0.00115561 -0.00182267 -0.00266659 -0.00368736 -0.00484571 -0.00610238 -0.00745736 -0.00891066 -0.0104111 -0.0119076 -0.0134001 -0.0148886 -0.0163702 -0.0178418 -0.0193036 -0.0207555 -0.0222311 -0.0237637 -0.0253536 -0.0270005 -0.0286965 -0.0304333 -0.0322109 -0.0340293 -0.0357951 -0.0374149 -0.0388886 -0.0402163 -0.041289 -0.0419978 -0.0423426 -0.0423235 -0.0419453 -0.041213 -0.0401265 -0.0386858 -0.0370517 -0.0353848 -0.0336853 -0.031953 -0.0303727 -0.0291288 -0.0282215 -0.0276507 -0.0274077 -0.0274839 -0.0278791 -0.0285934 -0.0293355 -0.0298142 -0.0300294 -0.0299812 -0.0292794 -0.0275343 -0.0247457 -0.0209137 -0.0159164 -0.00963204 -0.00206064 0.00679782 0.0165791 0.0269189 0.0378172 0.049274 0.0606817 0.0714327 0.0815268 0.0909642 0.0994346 0.106628 0.112544 0.117183 0.120757 0.123476 0.125341 0.126352 0.126859 0.127214 0.127417 0.127467 0.127354 0.127067 0.126605 0.125969 0.124809 0.122776 0.11987 0.11609 0.111268 0.105233 0.0979845 0.0895236 0.0802026 0.0703744 0.0600388 0.049196 0.0384496 0.028403 0.0190565 0.0104099 0.00278187 -0.00350901 -0.00846273 -0.0120793 -0.0145113 -0.0159113 -0.0162795 -0.0156157 -0.0142967 -0.0126992 -0.0108233 -0.00866903 -0.00653463 -0.00471849 -0.00322061 -0.00204099 -0.00114806 -0.000510247 -0.000127562 0 0 -5.05857e-06 -2.02343e-05 -4.55272e-05 -8.09372e-05 -0.000190289 -0.000437409 -0.000822295 -0.00134495 -0.00202376 -0.00287712 -0.00390503 -0.00510748 -0.00642475 -0.00779707 -0.00922445 -0.0107069 -0.0121843 -0.0135965 -0.0149435 -0.0162253 -0.0174546 -0.018644 -0.0197937 -0.0209035 -0.0220362 -0.0232546 -0.0245586 -0.0259483 -0.0274286 -0.0290048 -0.0306768 -0.0324446 -0.0341982 -0.0358278 -0.0373332 -0.0387146 -0.0398396 -0.0405758 -0.0409234 -0.0408824 -0.040462 -0.0396719 -0.0385119 -0.0369822 -0.0352771 -0.0335913 -0.0319247 -0.0302773 -0.0288543 -0.0278608 -0.0272968 -0.0271623 -0.0274111 -0.0279969 -0.0289199 -0.03018 -0.031393 -0.0321749 -0.0325256 -0.0324452 -0.0314524 -0.0290658 -0.0252854 -0.0201113 -0.0134073 -0.00503713 0.00499908 0.0167014 0.0296065 0.0432512 0.0576356 0.0727596 0.0878598 0.102173 0.115699 0.128438 0.139984 0.149929 0.158275 0.165021 0.170392 0.17461 0.177677 0.179591 0.180757 0.181577 0.18205 0.182177 0.181948 0.181351 0.180388 0.179057 0.176963 0.173709 0.169295 0.163721 0.156812 0.148392 0.138462 0.127023 0.114521 0.101406 0.0876776 0.0733358 0.0591246 0.0457882 0.0333266 0.0217397 0.0114257 0.00278264 -0.0041895 -0.00949071 -0.0132926 -0.0157667 -0.0169132 -0.0167319 -0.0156745 -0.0141926 -0.0122862 -0.00995537 -0.00757799 -0.00553206 -0.00381759 -0.00243457 -0.00136945 -0.000608643 -0.000152161 0 0 -1.66244e-05 -6.64978e-05 -0.00014962 -0.000265991 -0.000483179 -0.00086875 -0.00142271 -0.00214505 -0.0030331 -0.00408418 -0.00529829 -0.00667544 -0.00813083 -0.00957968 -0.011022 -0.0124577 -0.0138171 -0.0150301 -0.0160969 -0.0170173 -0.0178248 -0.0185526 -0.0192007 -0.019769 -0.0203578 -0.0210671 -0.021897 -0.0228473 -0.0239419 -0.0252043 -0.0266347 -0.0282329 -0.0298721 -0.0314252 -0.0328924 -0.0342735 -0.0354103 -0.0361444 -0.0364759 -0.0364047 -0.0359455 -0.0351128 -0.0339067 -0.0323272 -0.0306061 -0.0289752 -0.0274347 -0.0259844 -0.0248496 -0.0242558 -0.0242028 -0.0246907 -0.0256264 -0.0269168 -0.0285619 -0.0305617 -0.032424 -0.0336566 -0.0342595 -0.0342327 -0.0329912 -0.02995 -0.025109 -0.0184684 -0.00987645 0.000818436 0.0136162 0.028517 0.0449446 0.0623232 0.0806528 0.0999333 0.119224 0.137586 0.155017 0.171519 0.186574 0.199667 0.210796 0.219963 0.227403 0.233351 0.237809 0.240776 0.242711 0.244073 0.244862 0.245079 0.244714 0.243758 0.24221 0.240072 0.236895 0.232232 0.226084 0.218449 0.20915 0.198007 0.185019 0.170188 0.154068 0.137216 0.119632 0.101315 0.0831671 0.06609 0.0500835 0.0351475 0.0217693 0.0104361 0.0011477 -0.00609574 -0.0114865 -0.0152169 -0.0172868 -0.0176963 -0.0169796 -0.0156711 -0.0137707 -0.0112785 -0.00866061 -0.00638343 -0.0044469 -0.00285105 -0.00160371 -0.000712762 -0.000178191 0 0 -3.03376e-05 -0.00012135 -0.000273038 -0.000485402 -0.000827618 -0.00136886 -0.00210914 -0.00304845 -0.00415597 -0.0054009 -0.00678324 -0.00830299 -0.00984447 -0.011292 -0.0126456 -0.0139053 -0.0149904 -0.0158204 -0.0163953 -0.016715 -0.01684 -0.0168309 -0.0166877 -0.0164102 -0.0161474 -0.0160478 -0.0161115 -0.0163385 -0.0167792 -0.017484 -0.0184529 -0.0196859 -0.0210396 -0.0223708 -0.0236794 -0.0249655 -0.0260419 -0.0267216 -0.0270044 -0.0268906 -0.0264003 -0.0255539 -0.0243515 -0.022793 -0.0211511 -0.0196985 -0.0184352 -0.0173612 -0.0167205 -0.0167573 -0.017