<?xml version="1.0"?> 
<VTKFile type="StructuredGrid" version="0.1"> 
<StructuredGrid WholeExtent="0 128 0 128 0 0"> 
<Piece Extent="0 128 0 128 0 0"> 
<PointData>
<DataArray type="Float32" Name="u" format="ascii" NumberOfComponents="1"> 
0 0 0 0 0 0 0 0 0 0 0 0 0 0 0 0 0 0 0 0 0 0 0 0 0 0 0 0 0 0 0 0 0 0 0 0 0 0 0 0 0 0 0 0 0 0 0 0 0 0 0 0 0 0 0 0 0 0 0 0 0 0 0 0 0 0 0 0 0 0 0 0 0 0 0 0 0 0 0 0 0 0 0 0 0 0 0 0 0 0 0 0 0 0 0 0 0 0 0 0 0 0 0 0 0 0 0 0 0 0 0 0 0 0 0 0 0 0 0 0 0 0 0 0 0 0 0 0 0 0 1.49514e-07 5.98054e-07 1.34562e-06 2.39222e-06 3.56845e-06 4.70492e-06 5.80164e-06 6.8586e-06 7.59622e-06 7.73494e-06 7.27475e-06 6.21565e-06 4.50447e-06 2.08803e-06 -1.03365e-06 -4.86059e-06 -9.35423e-06 -1.4476e-05 -2.02259e-05 -2.6604e-05 -3.35158e-05 -4.0867e-05 -4.86575e-05 -5.68874e-05 -6.53862e-05 -7.39835e-05 -8.26793e-05 -9.14735e-05 -0.00010011 -0.000108335 -0.000116146 -0.000123545 -0.000130257 -0.00013601 -0.000140802 -0.000144635 -0.000147368 -0.000148862 -0.000149116 -0.000148132 -0.000146041 -0.000142978 -0.000138942 -0.000133933 -0.000128346 -0.000122576 -0.000116621 -0.000110482 -0.000104614 -9.94709e-05 -9.5053e-05 -9.13602e-05 -8.86519e-05 -8.71873e-05 -8.69665e-05 -8.79896e-05 -9.0218e-05 -9.36136e-05 -9.81763e-05 -0.000103906 -0.0001106 -0.000118055 -0.00012627 -0.000135246 -0.000144841 -0.000154911 -0.000165458 -0.000176481 -0.000187973 -0.000199925 -0.000212338 -0.000225212 -0.000238506 -0.000252176 -0.000266224 -0.000280649 -0.000295158 -0.000309458 -0.000323548 -0.000337428 -0.000350583 -0.000362497 -0.000373172 -0.000382605 -0.000390386 -0.000396102 -0.000399754 -0.00040134 -0.000400871 -0.000398354 -0.00039379 -0.000387178 -0.000378929 -0.000369449 -0.000358739 -0.0003468 -0.000334099 -0.000321105 -0.000307819 -0.00029424 -0.000280584 -0.000267064 -0.000253681 -0.000240435 -0.000227273 -0.000214142 -0.000201042 -0.000187974 -0.000174845 -0.000161565 -0.000148133 -0.000134549 -0.000120913 -0.000107326 -9.37878e-05 -8.02981e-05 -6.72504e-05 -5.50384e-05 -4.36619e-05 -3.31211e-05 -2.38612e-05 -1.63272e-05 -1.05194e-05 -6.43757e-06 -3.62113e-06 -1.60939e-06 -4.02348e-07 0 0 5.98054e-07 2.39222e-06 5.38249e-06 9.56887e-06 1.42738e-05 1.88197e-05 2.32065e-05 2.74344e-05 3.03849e-05 3.09398e-05 2.9099e-05 2.48626e-05 1.80179e-05 8.35213e-06 -4.13462e-06 -1.94424e-05 -3.74169e-05 -5.7904e-05 -8.09037e-05 -0.000106416 -0.000134063 -0.000163468 -0.00019463 -0.00022755 -0.000261545 -0.000295934 -0.000330717 -0.000365894 -0.000400442 -0.000433339 -0.000464585 -0.000494179 -0.000521029 -0.000544038 -0.000563209 -0.000578539 -0.000589472 -0.000595447 -0.000596466 -0.000592527 -0.000584165 -0.000571911 -0.000555768 -0.000535733 -0.000513386 -0.000490303 -0.000466483 -0.000441929 -0.000418456 -0.000397884 -0.000380212 -0.000365441 -0.000354607 -0.000348749 -0.000347866 -0.000351958 -0.000360872 -0.000374454 -0.000392705 -0.000415625 -0.0004424 -0.000472218 -0.00050508 -0.000540984 -0.000579363 -0.000619646 -0.000661833 -0.000705925 -0.000751891 -0.0007997 -0.000849353 -0.000900849 -0.000954022 -0.0010087 -0.0010649 -0.0011226 -0.00118063 -0.00123783 -0.00129419 -0.00134971 -0.00140233 -0.00144999 -0.00149269 -0.00153042 -0.00156155 -0.00158441 -0.00159901 -0.00160536 -0.00160348 -0.00159341 -0.00157516 -0.00154871 -0.00151571 -0.0014778 -0.00143496 -0.0013872 -0.0013364 -0.00128442 -0.00123128 -0.00117696 -0.00112234 -0.00106826 -0.00101472 -0.000961739 -0.00090909 -0.000856566 -0.000804168 -0.000751894 -0.00069938 -0.000646259 -0.00059253 -0.000538194 -0.000483652 -0.000429305 -0.000375151 -0.000321192 -0.000269002 -0.000220153 -0.000174648 -0.000132485 -9.54446e-05 -6.5309e-05 -4.20775e-05 -2.57503e-05 -1.44845e-05 -6.43757e-06 -1.60939e-06 0 0 1.34562e-06 5.38249e-06 1.21106e-05 2.153e-05 3.2116e-05 4.23443e-05 5.22147e-05 6.17274e-05 6.8366e-05 6.96145e-05 6.54727e-05 5.59408e-05 4.05402e-05 1.87923e-05 -9.30289e-06 -4.37453e-05 -8.41881e-05 -0.000130284 -0.000182033 -0.000239436 -0.000301642 -0.000367803 -0.000437918 -0.000511987 -0.000588476 -0.000665852 -0.000744113 -0.000823261 -0.000900994 -0.000975013 -0.00104532 -0.0011119 -0.00117231 -0.00122409 -0.00126722 -0.00130171 -0.00132631 -0.00133976 -0.00134205 -0.00133319 -0.00131437 -0.0012868 -0.00125048 -0.0012054 -0.00115512 -0.00110318 -0.00104959 -0.000994339 -0.000941526 -0.000895238 -0.000855477 -0.000822242 -0.000797867 -0.000784686 -0.000782699 -0.000791906 -0.000811962 -0.000842522 -0.000883587 -0.000935155 -0.000995399 -0.00106249 -0.00113643 -0.00121721 -0.00130357 -0.0013942 -0.00148912 -0.00158833 -0.00169175 -0.00179932 -0.00191104 -0.00202691 -0.00214655 -0.00226958 -0.00239602 -0.00252584 -0.00265643 -0.00278512 -0.00291193 -0.00303685 -0.00315525 -0.00326248 -0.00335854 -0.00344345 -0.00351348 -0.00356492 -0.00359778 -0.00361206 -0.00360783 -0.00358518 -0.00354411 -0.00348461 -0.00341036 -0.00332504 -0.00322865 -0.0031212 -0.00300689 -0.00288995 -0.00277037 -0.00264816 -0.00252525 -0.00240358 -0.00228313 -0.00216391 -0.00204545 -0.00192727 -0.00180938 -0.00169176 -0.00157361 -0.00145408 -0.00133319 -0.00121094 -0.00108822 -0.000965936 -0.000844091 -0.000722683 -0.000605254 -0.000495345 -0.000392957 -0.00029809 -0.00021475 -0.000146945 -9.46744e-05 -5.79381e-05 -3.25902e-05 -1.44845e-05 -3.62113e-06 0 0 2.39222e-06 9.56887e-06 2.153e-05 3.82755e-05 5.70952e-05 7.52787e-05 9.28262e-05 0.000109738 0.00012154 0.000123759 0.000116396 9.94504e-05 7.20714e-05 3.34085e-05 -1.65385e-05 -7.77695e-05 -0.000149668 -0.000231616 -0.000323615 -0.000425664 -0.000536253 -0.000653872 -0.00077852 -0.000910199 -0.00104618 -0.00118374 -0.00132287 -0.00146358 -0.00160177 -0.00173336 -0.00185834 -0.00197672 -0.00208411 -0.00217615 -0.00225283 -0.00231416 -0.00235789 -0.00238179 -0.00238586 -0.00237011 -0.00233666 -0.00228765 -0.00222307 -0.00214293 -0.00205354 -0.00196121 -0.00186593 -0.00176771 -0.00167382 -0.00159154 -0.00152085 -0.00146176 -0.00141843 -0.001395 -0.00139146 -0.00140783 -0.00144349 -0.00149782 -0.00157082 -0.0016625 -0.0017696 -0.00188887 -0.00202032 -0.00216394 -0.00231745 -0.00247858 -0.00264733 -0.0028237 -0.00300756 -0.0031988 -0.00339741 -0.0036034 -0.00381609 -0.00403482 -0.00425958 -0.00449039 -0.00472253 -0.00495132 -0.00517676 -0.00539884 -0.00560933 -0.00579996 -0.00597075 -0.00612168 -0.00624618 -0.00633764 -0.00639606 -0.00642144 -0.00641393 -0.00637366 -0.00630063 -0.00619486 -0.00606286 -0.00591118 -0.00573983 -0.00554879 -0.00534558 -0.00513768 -0.00492511 -0.00470785 -0.00448934 -0.00427302 -0.0040589 -0.00384696 -0.00363636 -0.00342627 -0.00321667 -0.00300758 -0.00279752 -0.00258503 -0.00237012 -0.00215278 -0.00193461 -0.00171722 -0.00150061 -0.00128477 -0.00107601 -0.000880614 -0.000698591 -0.000529938 -0.000381779 -0.000261236 -0.00016831 -0.000103001 -5.79381e-05 -2.57503e-05 -6.43757e-06 0 0 3.47576e-06 1.3903e-05 3.12818e-05 5.56121e-05 8.25919e-05 0.000107919 0.000131594 0.000153617 0.000167274 0.000165853 0.000149355 0.000117778 6.98927e-05 4.46654e-06 -7.85001e-05 -0.000179007 -0.000296082 -0.00042875 -0.000577013 -0.00074087 -0.000917975 -0.00110598 -0.00130489 -0.0015147 -0.00173114 -0.00194995 -0.00217111 -0.00239464 -0.00261409 -0.00282302 -0.00302142 -0.00320931 -0.00337978 -0.00352594 -0.00364778 -0.00374531 -0.00381504 -0.00385349 -0.00386064 -0.00383649 -0.00378447 -0.00370799 -0.00360703 -0.00348161 -0.00334165 -0.0031971 -0.00304794 -0.00289418 -0.00274711 -0.00261803 -0.00250694 -0.00241383 -0.00234491 -0.00230637 -0.0022982 -0.00232041 -0.0023716 -0.00245038 -0.00255674 -0.00269069 -0.00284678 -0.00301955 -0.003209 -0.00341514 -0.00363436 -0.00386305 -0.00410122 -0.00434886 -0.00460621 -0.00487352 -0.00515079 -0.00543801 -0.00573496 -0.00604143 -0.00635741 -0.00668291 -0.00701149 -0.00733673 -0.00765863 -0.00797718 -0.00828017 -0.00855537 -0.00880279 -0.00902242 -0.00920425 -0.00933826 -0.00942443 -0.00946278 -0.00945345 -0.00939658 -0.00929217 -0.00914023 -0.00895057 -0.00873302 -0.00848758 -0.00821424 -0.00792403 -0.00762798 -0.00732608 -0.00701834 -0.00670926 -0.00640335 -0.00610061 -0.00580103 -0.00550255 -0.00520307 -0.0049026 -0.00460115 -0.00429602 -0.00398455 -0.00366673 -0.00334256 -0.0030146 -0.00268544 -0.00235506 -0.00202346 -0.00170084 -0.00139739 -0.00111309 -0.000847965 -0.000613833 -0.000422534 -0.000274068 -0.000168434 -9.47442e-05 -4.21085e-05 -1.05271e-05 0 0 4.33415e-06 1.73366e-05 3.90074e-05 6.93464e-05 0.000101987 0.000130562 0.000155072 0.000175517 0.000182938 0.000168378 0.000131836 7.33122e-05 -8.71495e-06 -0.000115768 -0.000247847 -0.000404951 -0.000585656 -0.000788537 -0.00101359 -0.00126083 -0.00152689 -0.00180844 -0.00210548 -0.00241801 -0.00273985 -0.00306484 -0.00339298 -0.00372426 -0.00404928 -0.00435864 -0.00465234 -0.00493037 -0.00518265 -0.00539913 -0.00557978 -0.00572463 -0.00582863 -0.00588679 -0.00589909 -0.00586554 -0.00579126 -0.00568136 -0.00553584 -0.0053547 -0.00515244 -0.00494354 -0.00472801 -0.00450585 -0.00429314 -0.00410597 -0.00394435 -0.00380827 -0.00370592 -0.00364547 -0.00362693 -0.0036503 -0.00371244 -0.00381023 -0.00394368 -0.00411277 -0.00430871 -0.0045227 -0.00475474 -0.00500482 -0.00526764 -0.00553789 -0.00581556 -0.00610065 -0.00639461 -0.0066989 -0.00701351 -0.00733844 -0.00767549 -0.00802645 -0.00839132 -0.00877009 -0.00915584 -0.00954164 -0.00992747 -0.0103133 -0.0106834 -0.0110216 -0.0113282 -0.011603 -0.0118323 -0.0120025 -0.0121135 -0.0121654 -0.0121581 -0.0120917 -0.0119661 -0.0117815 -0.0115509 -0.0112874 -0.010991 -0.0106618 -0.0103138 -0.00996117 -0.0096039 -0.00924197 -0.00887968 -0.00852131 -0.00816685 -0.00781631 -0.00746475 -0.00710722 -0.00674373 -0.00637428 -0.00599401 -0.00559805 -0.00518642 -0.00475911 -0.00431997 -0.00387287 -0.00341781 -0.00295478 -0.00249935 -0.00206709 -0.00165801 -0.00127211 -0.000928217 -0.000645192 -0.00042303 -0.000261732 -0.000147224 -6.54331e-05 -1.63583e-05 0 0 4.96741e-06 1.98696e-05 4.47067e-05 7.94785e-05 0.00011528 0.000143208 0.00016326 0.000175438 0.000168531 0.000131331 6.38382e-05 -3.39483e-05 -0.000163752 -0.000327295 -0.000524578 -0.000755601 -0.00101839 -0.00131098 -0.00163336 -0.00198553 -0.00236299 -0.00276125 -0.00318029 -0.00362011 -0.0040723 -0.00452842 -0.00498846 -0.00545243 -0.00590735 -0.00634023 -0.00675108 -0.00713989 -0.00749274 -0.00779573 -0.00804885 -0.00825209 -0.00839865 -0.0084817 -0.00850123 -0.00845726 -0.00835702 -0.00820777 -0.0080095 -0.00776221 -0.0074859 -0.00720054 -0.00690615 -0.00660272 -0.00631191 -0.00605537 -0.00583309 -0.00564509 -0.00550146 -0.00541232 -0.00537767 -0.0053975 -0.00546602 -0.00557739 -0.00573163 -0.00592873 -0.0061554 -0.00639833 -0.00665752 -0.00693298 -0.0072173 -0.00750308 -0.00779034 -0.00807906 -0.00837275 -0.00867492 -0.00898557 -0.00930469 -0.00963767 -0.00998987 -0.0103613 -0.0107519 -0.0111556 -0.011566 -0.0119833 -0.0124073 -0.0128189 -0.0131988 -0.0135469 -0.0138633 -0.0141303 -0.0143303 -0.0144632 -0.0145292 -0.0145278 -0.0144589 -0.0143226 -0.0141187 -0.0138637 -0.0135742 -0.0132501 -0.0128914 -0.0125149 -0.0121373 -0.0117586 -0.0113787 -0.0110006 -0.0106269 -0.0102576 -0.00989278 -0.00952296 -0.00913871 -0.00874005 -0.00832697 -0.00789148 -0.00742555 -0.00692921 -0.00640244 -0.00585072 -0.00527953 -0.00468885 -0.00407871 -0.00347152 -0.00288973 -0.00233335 -0.00180236 -0.00132493 -0.00092921 -0.000615198 -0.000382896 -0.000215379 -9.57239e-05 -2.3931e-05 0 0 5.37552e-06 2.15021e-05 4.83797e-05 8.60084e-05 0.000122472 0.000145855 0.000156158 0.000153379 0.000124054 5.4715e-05 -5.46373e-05 -0.000204003 -0.000395217 -0.000630114 -0.000908694 -0.00123096 -0.00159429 -0.00199607 -0.0024363 -0.00291498 -0.00342629 -0.0039644 -0.00452931 -0.00512103 -0.0057285 -0.00634067 -0.00695756 -0.00757916 -0.00818829 -0.00876779 -0.00931765 -0.00983787 -0.01031 -0.0107157 -0.011055 -0.0113277 -0.0115251 -0.0116382 -0.0116671 -0.0116116 -0.0114818 -0.0112872 -0.011028 -0.0107041 -0.010342 -0.00996811 -0.00958237 -0.00918481 -0.00880343 -0.00846621 -0.00817316 -0.00792428 -0.00773153 -0.00760691 -0.00755041 -0.00756203 -0.00763232 -0.00775185 -0.0079206 -0.00813858 -0.00838684 -0.00864643 -0.00891735 -0.0091996 -0.00948332 -0.00975864 -0.0100256 -0.0102841 -0.0105406 -0.0108016 -0.011067 -0.0113368 -0.0116215 -0.0119317 -0.0122673 -0.0126284 -0.0130107 -0.0134099 -0.0138261 -0.0142591 -0.0146868 -0.0150868 -0.015459 -0.0158034 -0.0160983 -0.0163217 -0.0164737 -0.0165542 -0.0165626 -0.0164984 -0.0163614 -0.0161517 -0.0158891 -0.0155935 -0.0152648 -0.0149031 -0.0145273 -0.0141563 -0.0137901 -0.0134287 -0.013072 -0.0127201 -0.0123729 -0.0120305 -0.0116772 -0.0112975 -0.0108916 -0.0104592 -0.00998843 -0.00946705 -0.00889509 -0.00827255 -0.00760685 -0.0069054 -0.0061682 -0.00539525 -0.00461736 -0.0038653 -0.0031391 -0.00243873 -0.00180397 -0.00127459 -0.000850571 -0.000531924 -0.000299207 -0.000132981 -3.32452e-05 0 0 5.08724e-06 2.0349e-05 4.57852e-05 8.13959e-05 0.000112042 0.000122584 0.000113021 8.33544e-05 1.8574e-05 -9.63297e-05 -0.000261357 -0.000476507 -0.000743331 -0.00106338 -0.00143665 -0.00186315 -0.00233953 -0.00286247 -0.00343197 -0.00404802 -0.0047036 -0.00539168 -0.00611226 -0.00686535 -0.00763737 -0.00841474 -0.00919745 -0.00998552 -0.0107574 -0.0114917 -0.0121884 -0.0128474 -0.0134455 -0.0139597 -0.0143899 -0.014736 -0.0149871 -0.0151322 -0.0151712 -0.0151041 -0.0149436 -0.0147025 -0.0143808 -0.0139785 -0.0135288 -0.0130652 -0.0125877 -0.0120963 -0.0116252 -0.0112087 -0.0108469 -0.0105397 -0.0102999 -0.0101404 -0.010061 -0.0100619 -0.010128 -0.0102443 -0.0104109 -0.0106278 -0.0108685 -0.0111068 -0.0113427 -0.011576 -0.0117942 -0.0119845 -0.0121468 -0.0122813 -0.0123989 -0.0125106 -0.0126164 -0.0127164 -0.0128295 -0.0129746 -0.0131519 -0.0133612 -0.0136037 -0.0138803 -0.0141912 -0.0145363 -0.0148923 -0.0152358 -0.0155668 -0.0158855 -0.0161662 -0.0163837 -0.0165378 -0.0166287 -0.016655 -0.0166155 -0.0165102 -0.016339 -0.0161242 -0.0158879 -0.0156303 -0.0153512 -0.0150698 -0.0148048 -0.0145565 -0.0143247 -0.0141034 -0.0138867 -0.0136745 -0.0134669 -0.013239 -0.0129663 -0.0126486 -0.012286 -0.0118607 -0.0113548 -0.0107683 -0.0101011 -0.0093631 -0.00856387 -0.00770343 -0.0067818 -0.00584002 -0.00491914 -0.00401914 -0.00314005 -0.00233615 -0.00166173 -0.00111681 -0.000701377 -0.000394525 -0.000175344 -4.38361e-05 0 0 3.63132e-06 1.45253e-05 3.26819e-05 5.81011e-05 7.24687e-05 5.74703e-05 1.3106e-05 -6.06244e-05 -0.00017884 -0.000356661 -0.000594086 -0.000891116 -0.00124831 -0.00166624 -0.0021449 -0.0026843 -0.00328031 -0.00392885 -0.0046299 -0.00538347 -0.00618172 -0.00701685 -0.00788884 -0.0087977 -0.00972785 -0.0106637 -0.0116053 -0.0125526 -0.0134801 -0.0143625 -0.0151995 -0.0159914 -0.0167102 -0.0173282 -0.0178453 -0.0182616 -0.018564 -0.0187395 -0.0187881 -0.0187099 -0.0185208 -0.0182366 -0.0178574 -0.0173832 -0.0168543 -0.016311 -0.0157533 -0.0151813 -0.0146346 -0.014153 -0.0137366 -0.0133852 -0.0131105 -0.0129239 -0.0128255 -0.0128151 -0.0128696 -0.0129655 -0.0131029 -0.0132818 -0.013466 -0.0136193 -0.0137419 -0.0138336 -0.0138784 -0.0138605 -0.0137798 -0.0136362 -0.0134481 -0.0132335 -0.0129926 -0.0127253 -0.0124641 -0.0122414 -0.0120574 -0.0119119 -0.0118169 -0.0117843 -0.0118141 -0.0119063 -0.0120404 -0.012196 -0.0123731 -0.0125716 -0.0127641 -0.0129232 -0.0130488 -0.0131409 -0.0131974 -0.0132158 -0.0131963 -0.0131388 -0.0130658 -0.0130001 -0.0129415 -0.0128901 -0.012861 -0.0128697 -0.0129159 -0.0129998 -0.0131043 -0.0132125 -0.0133242 -0.0134395 -0.0135201 -0.0135274 -0.0134615 -0.0133224 -0.0130842 -0.012721 -0.0122329 -0.0116199 -0.0108942 -0.0100683 -0.00914216 -0.00811574 -0.00704267 -0.00597655 -0.00491738 -0.00386515 -0.00289225 -0.00207106 -0.00140158 -0.000883816 -0.000497147 -0.000220954 -5.52385e-05 0 0 1.00775e-06 4.03101e-06 9.06977e-06 1.6124e-05 3.75298e-06 -4.94842e-05 -0.000143588 -0.000278557 -0.000468189 -0.000726278 -0.00105282 -0.00144783 -0.00191017 -0.00243871 -0.00303346 -0.00369441 -0.00441664 -0.0051952 -0.00603009 -0.00692133 -0.00786067 -0.00883991 -0.00985904 -0.0109181 -0.0119999 -0.0130876 -0.0141811 -0.0152804 -0.0163564 -0.01738 -0.0183512 -0.01927 -0.0201041 -0.0208212 -0.0214213 -0.0219043 -0.0222555 -0.0224601 -0.022518 -0.0224292 -0.0222132 -0.0218894 -0.0214578 -0.0209183 -0.0203183 -0.0197053 -0.0190791 -0.0184398 -0.0178317 -0.0172992 -0.0168423 -0.0164609 -0.0161633 -0.0159575 -0.0158437 -0.0158217 -0.0158571 -0.0159154 -0.0159966 -0.0161006 -0.0161792 -0.016184 -0.016115 -0.0159722 -0.015736 -0.0153867 -0.0149243 -0.0143488 -0.0136882 -0.0129705 -0.0121955 -0.0113634 -0.0105252 -0.00973201 -0.00898375 -0.00828046 -0.0076504 -0.00712183 -0.00669474 -0.00636915 -0.0061313 -0.00596746 -0.00587762 -0.00586179 -0.00589199 -0.00594024 -0.00600655 -0.0060909 -0.0061897 -0.00629933 -0.0064198 -0.00655109 -0.00671415 -0.00692992 -0.00719839 -0.00751958 -0.00790113 -0.00835073 -0.00886837 -0.00945405 -0.0100747 -0.0106974 -0.0113219 -0.0119485 -0.0125203 -0.0129809 -0.0133302 -0.0135682 -0.0136588 -0.0135658 -0.0132891 -0.0128288 -0.0122002 -0.0114187 -0.0104844 -0.00939707 -0.00822531 -0.00703755 -0.00583379 -0.00461402 -0.00347227 -0.00250256 -0.00170488 -0.00107924 -0.000607073 -0.00026981 -6.74525e-05 0 0 -2.78346e-06 -1.11338e-05 -2.50512e-05 -4.45354e-05 -9.41054e-05 -0.00019828 -0.00035706 -0.000570444 -0.000849471 -0.00120518 -0.00163757 -0.00214665 -0.00272889 -0.00338077 -0.0041023 -0.00489348 -0.0057485 -0.00666152 -0.00763255 -0.0086616 -0.00974044 -0.0108609 -0.0120229 -0.0132264 -0.0144536 -0.0156864 -0.0169248 -0.0181689 -0.0193862 -0.0205443 -0.0216433 -0.0226831 -0.0236272 -0.0244387 -0.0251177 -0.0256643 -0.0260619 -0.026294 -0.0263607 -0.026262 -0.026021 -0.0256609 -0.0251819 -0.0245838 -0.023921 -0.0232481 -0.0225651 -0.0218719 -0.0212166 -0.0206473 -0.020164 -0.0197667 -0.0194582 -0.0192411 -0.0191157 -0.0190817 -0.0190907 -0.0190941 -0.019092 -0.0190843 -0.0190081 -0.0188007 -0.018462 -0.017992 -0.0173669 -0.0165631 -0.0155805 -0.0144192 -0.0131194 -0.0117214 -0.0102252 -0.00863087 -0.00701303 -0.00544642 -0.00393106 -0.00246693 -0.00110417 0.000107096 0.00116687 0.00207516 0.00283511 0.00344989 0.0039195 0.00424394 0.00445018 0.00456517 0.00458891 0.00452142 0.004368 0.00413396 0.00381931 0.00342405 0.00293088 0.00232252 0.00159896 0.000760212 -0.000190025 -0.00124804 -0.00241382 -0.00368738 -0.00501461 -0.0063414 -0.00766775 -0.00899366 -0.0102398 -0.0113268 -0.0122548 -0.0130236 -0.0135846 -0.013889 -0.0139367 -0.0137279 -0.0132811 -0.0126152 -0.0117301 -0.0106258 -0.00938794 -0.00810214 -0.00676839 -0.00538668 -0.00407622 -0.00295623 -0.00202671 -0.00128765 -0.000724303 -0.000321912 -8.04781e-05 0 0 -7.83199e-06 -3.1328e-05 -7.04879e-05 -0.000125312 -0.000223016 -0.000390816 -0.000628713 -0.000936705 -0.00132104 -0.00178796 -0.00233746 -0.00296955 -0.00367723 -0.00445349 -0.00529836 -0.00621181 -0.00718708 -0.00821738 -0.00930271 -0.0104431 -0.0116311 -0.0128594 -0.014128 -0.0154368 -0.0167683 -0.0181049 -0.0194466 -0.0207934 -0.0221108 -0.0233645 -0.0245545 -0.0256807 -0.0267029 -0.0275811 -0.0283151 -0.0289051 -0.0293333 -0.0295822 -0.0296519 -0.0295423 -0.0292807 -0.0288944 -0.0283833 -0.0277475 -0.0270481 -0.026346 -0.0256414 -0.0249341 -0.0242742 -0.0237117 -0.0232466 -0.0228788 -0.0226023 -0.0224112 -0.0223053 -0.0222847 -0.0222829 -0.0222331 -0.0221354 -0.0219897 -0.0217155 -0.021232 -0.0205393 -0.0196374 -0.0184979 -0.0170924 -0.0154209 -0.0134834 -0.011336 -0.0090348 -0.00657976 -0.00397088 -0.00131345 0.00128725 0.00383123 0.00631849 0.00866957 0.010805 0.0127249 0.0144291 0.0159053 0.0171411 0.0181364 0.0188914 0.0194301 0.0197766 0.019931 0.0198932 0.0196708 0.0192711 0.0186941 0.0179399 0.016997 0.0158543 0.0145116 0.012969 0.0112463 0.00936326 0.00731994 0.00511631 0.00283413 0.000555124 -0.00172069 -0.00399333 -0.00615474 -0.00809691 -0.00981982 -0.0113235 -0.0125436 -0.0134159 -0.0139403 -0.0141169 -0.0139683 -0.0135171 -0.0127635 -0.0117073 -0.0104542 -0.0091099 -0.00767441 -0.00614771 -0.0046781 -0.00341387 -0.00235502 -0.00150155 -0.000844622 -0.000375388 -9.38469e-05 0 0 -1.42275e-05 -5.691e-05 -0.000128048 -0.00022764 -0.000384888 -0.00062899 -0.000959949 -0.00137776 -0.00188124 -0.00246919 -0.00314162 -0.00389851 -0.00472794 -0.00561794 -0.00656852 -0.00757967 -0.00864356 -0.00975233 -0.010906 -0.0121045 -0.0133427 -0.0146151 -0.0159219 -0.017263 -0.0186233 -0.0199878 -0.0213564 -0.0227292 -0.0240718 -0.0253499 -0.0265634 -0.0277125 -0.028755 -0.0296488 -0.0303938 -0.0309901 -0.03142 -0.0316657 -0.0317271 -0.0316044 -0.0313291 -0.0309329 -0.0304157 -0.0297776 -0.0290852 -0.0284054 -0.0277381 -0.0270833 -0.02649 -0.0260073 -0.0256351 -0.0253734 -0.0252029 -0.0251039 -0.0250765 -0.0251207 -0.0251465 -0.025064 -0.0248731 -0.0245739 -0.0240638 -0.0232403 -0.0221034 -0.0206531 -0.0188556 -0.0166772 -0.0141178 -0.0111776 -0.0079326 -0.00445915 -0.000757223 0.00317318 0.00718743 0.0111409 0.0150336 0.0188656 0.0225186 0.0258745 0.0289334 0.0316952 0.0341258 0.0361912 0.0378914 0.0392263 0.0402153 0.0408775 0.041213 0.0412217 0.0409137 0.040299 0.0393776 0.0381496 0.0366121 0.0347624 0.0326005 0.0301265 0.0273818 0.024408 0.0212051 0.0177732 0.0142296 0.0106919 0.00716017 0.00363432 0.00025859 -0.00282283 -0.00560994 -0.00810273 -0.0102178 -0.0118716 -0.0130642 -0.0137956 -0.0140932 -0.0139843 -0.0134688 -0.0125469 -0.0113477 -0.0100004 -0.00850508 -0.00686171 -0.00525189 -0.00385724 -0.00267776 -0.00171345 -0.000963817 -0.000428363 -0.000107091 0 0 -2.197e-05 -8.788e-05 -0.00019773 -0.00035152 -0.000579721 -0.000912803 -0.00135077 -0.00189361 -0.00253007 -0.00324888 -0.00405004 -0.00493354 -0.00588102 -0.0068741 -0.00791279 -0.00899708 -0.010118 -0.0112664 -0.0124424 -0.013646 -0.0148752 -0.0161281 -0.0174048 -0.0187051 -0.0200187 -0.0213351 -0.0226543 -0.0239763 -0.025269 -0.0265003 -0.0276702 -0.0287787 -0.0297834 -0.0306418 -0.0313538 -0.0319196 -0.032322 -0.0325443 -0.0325864 -0.0324483 -0.0321662 -0.0317765 -0.031279 -0.0306738 -0.0300324 -0.0294262 -0.0288551 -0.0283193 -0.0278638 -0.0275339 -0.0273295 -0.0272507 -0.0272598 -0.0273193 -0.0274292 -0.0275895 -0.0276816 -0.0275869 -0.0273053 -0.0268369 -0.0260531 -0.0248256 -0.0231542 -0.021039 -0.0184401 -0.0153176 -0.0116714 -0.00750172 -0.00290914 0.00200556 0.00724238 0.0128013 0.0184896 0.0241146 0.0296762 0.0351744 0.0404429 0.0453156 0.0497924 0.0538734 0.0574965 0.0606002 0.0631843 0.0652488 0.066806 0.0678681 0.068435 0.0685069 0.0680967 0.0672177 0.0658698 0.0640531 0.061776 0.0590469 0.0558658 0.0522327 0.0482165 0.0438862 0.0392418 0.0342832 0.0291718 0.024069 0.0189748 0.0138893 0.0090002 0.00449539 0.000374869 -0.00336136 -0.0066071 -0.00925613 -0.0113085 -0.0127641 -0.0136558 -0.0140165 -0.0138461 -0.0131447 -0.0120684 -0.0107737 -0.00926042 -0.00752868 -0.00579761 -0.00428636 -0.00299495 -0.00192335 -0.00108189 -0.000480839 -0.00012021 0 0 -3.10595e-05 -0.000124238 -0.000279535 -0.000496952 -0.000807515 -0.00124225 -0.00180117 -0.00248426 -0.00326754 -0.00412703 -0.00506273 -0.00607464 -0.00713648 -0.00822199 -0.00933117 -0.010464 -0.0116102 -0.0127596 -0.0139119 -0.0150674 -0.0162287 -0.0173984 -0.0185765 -0.0197631 -0.0209545 -0.0221469 -0.0233403 -0.0245347 -0.0257024 -0.0268157 -0.0278747 -0.0288792 -0.0297881 -0.0305601 -0.0311951 -0.0316933 -0.0320394 -0.0322181 -0.0322297 -0.0320739 -0.031792 -0.0314251 -0.0309732 -0.0304363 -0.0298897 -0.0294084 -0.0289926 -0.0286422 -0.0283957 -0.0282916 -0.0283298 -0.0285104 -0.0287731 -0.0290574 -0.0293635 -0.0296913 -0.0298882 -0.0298017 -0.0294319 -0.0287786 -0.0276835 -0.0259878 -0.0236917 -0.0207951 -0.0172513 -0.0130135 -0.00808166 -0.00245585 0.00373435 0.0103593 0.017419 0.0249135 0.0325932 0.0402082 0.0477588 0.0552448 0.0624426 0.0691283 0.075302 0.0809637 0.0860176 0.0903681 0.0940151 0.0969587 0.099202 0.100748 0.101597 0.101749 0.10122 0.100027 0.0981708 0.0956506 0.0924888 0.0887077 0.0843073 0.0792876 0.0737505 0.0677979 0.0614298 0.0546463 0.0476607 0.0406864 0.0337233 0.0267716 0.0200701 0.0138578 0.0081346 0.00290062 -0.0017116 -0.0055695 -0.00867306 -0.0110223 -0.0126562 -0.0136139 -0.0138954 -0.0135006 -0.0126164 -0.0114297 -0.00994041 -0.00814862 -0.00631525 -0.00470123 -0.00330656 -0.00213126 -0.00119883 -0.000532814 -0.000133204 0 0 -4.12421e-05 -0.000164969 -0.000371179 -0.000659874 -0.0010615 -0.00160652 -0.00229492 -0.00312671 -0.00406206 -0.00506116 -0.00612401 -0.0072506 -0.0084048 -0.00955045 -0.0106876 -0.0118161 -0.0129243 -0.0140003 -0.0150442 -0.0160558 -0.0170444 -0.0180189 -0.0189794 -0.019926 -0.0208648 -0.0218024 -0.0227386 -0.0236734 -0.0245872 -0.0254601 -0.0262922 -0.0270833 -0.0277964 -0.0283939 -0.0288759 -0.0292425 -0.0294817 -0.0295816 -0.0295423 -0.0293638 -0.0290924 -0.0287744 -0.0284099 -0.0279988 -0.0276186 -0.0273466 -0.0271829 -0.0271274 -0.0272077 -0.0274515 -0.0278588 -0.0284295 -0.0290744 -0.0297043 -0.030319 -0.0309187 -0.0313103 -0.031301 -0.0308909 -0.0300798 -0.0286745 -0.026482 -0.0235021 -0.0197348 -0.015126 -0.00962151 -0.00322128 0.00407468 0.0121025 0.0206985 0.0298625 0.0395946 0.0495781 0.0594965 0.0693497 0.0791378 0.0885698 0.0973547 0.105493 0.112983 0.119693 0.125486 0.130362 0.134323 0.13736 0.139468 0.140646 0.140894 0.140233 0.138683 0.136245 0.132919 0.128742 0.123751 0.117946 0.111327 0.104034 0.0962055 0.0878417 0.0789424 0.0697812 0.0606313 0.0514929 0.042366 0.0335488 0.0253397 0.0177388 0.0107461 0.00452468 -0.000762125 -0.00511434 -0.00853197 -0.011061 -0.0127476 -0.0135916 -0.013593 -0.0129731 -0.0119528 -0.0105322 -0.00871128 -0.00679694 -0.00509603 -0.00360858 -0.00233457 -0.0013132 -0.000583642 -0.000145911 0 0 -5.22642e-05 -0.000209057 -0.000470378 -0.000836227 -0.00133492 -0.00199478 -0.00281579 -0.00379797 -0.00488206 -0.0060088 -0.0071782 -0.00839026 -0.00959647 -0.0107483 -0.0118458 -0.012889 -0.013864 -0.0147572 -0.0155686 -0.0162981 -0.0169636 -0.0175828 -0.0181558 -0.0186825 -0.019184 -0.0196809 -0.0201735 -0.0206615 -0.0211384 -0.0215972 -0.0220379 -0.0224605 -0.0228355 -0.0231335 -0.0233544 -0.0234983 -0.0235587 -0.0235291 -0.0234098 -0.0232005 -0.0229533 -0.02272 -0.0225006 -0.0222952 -0.022181 -0.0222354 -0.0224585 -0.0228502 -0.0234218 -0.0241848 -0.0251391 -0.0262846 -0.0274955 -0.0286458 -0.0297355 -0.0307646 -0.0314922 -0.0316774 -0.0313203 -0.0304209 -0.028746 -0.0260628 -0.0223712 -0.0176713 -0.0119009 -0.0049982 0.00303693 0.0122045 0.0223 0.0331193 0.0446623 0.0569291 0.0695246 0.0820539 0.0945171 0.106914 0.118877 0.130037 0.140395 0.14995 0.158525 0.165943 0.172204 0.177308 0.181238 0.183979 0.185529 0.18589 0.185086 0.183142 0.180059 0.175836 0.170526 0.164182 0.156802 0.148388 0.139118 0.129172 0.11855 0.107251 0.0956181 0.0839913 0.0723711 0.0607572 0.0495168 0.0390168 0.0292571 0.0202378 0.0121577 0.00521554 -0.000588669 -0.00525493 -0.00883698 -0.0113886 -0.0129097 -0.0134005 -0.0131199 -0.0123274 -0.0110229 -0.00920642 -0.00723481 -0.00546498 -0.00389695 -0.0025307 -0.00142352 -0.000632676 -0.000158169 0 0 -6.41257e-05 -0.000256503 -0.000577131 -0.00102601 -0.00162777 -0.00240702 -0.00336378 -0.00449804 -0.00572752 -0.00696994 -0.0082253 -0.00949361 -0.0107115 -0.0118156 -0.012806 -0.0136826 -0.0144294 -0.0150303 -0.0154853 -0.0157943 -0.0159863 -0.0160901 -0.0161056 -0.0160329 -0.0159119 -0.0157826 -0.015645 -0.0154991 -0.015356 -0.0152269 -0.0151118 -0.0150106 -0.0149056 -0.014779 -0.0146307 -0.0144607 -0.0142703 -0.0140607 -0.013832 -0.0135841 -0.0133748 -0.0132619 -0.0132454 -0.0133253 -0.0135767 -0.0140747 -0.0148194 -0.0158107 -0.0170382 -0.0184915 -0.0201707 -0.0220758 -0.0240363 -0.0258821 -0.027613 -0.029229 -0.0304338 -0.0309309 -0.0307203 -0.029802 -0.027898 -0.0247304 -0.0202993 -0.0146046 -0.00757607 0.000856445 0.010693 0.0219335 0.0343269 0.047622 0.0618187 0.0769171 0.0924326 0.10788 0.123261 0.138574 0.153364 0.167175 0.180008 0.191863 0.202516 0.211742 0.219541 0.225914 0.230836 0.23428 0.236246 0.236736 0.235778 0.233403 0.229611 0.224402 0.217843 0.210001 0.200876 0.190469 0.179002 0.166696 0.153553 0.139573 0.125171 0.110766 0.0963577 0.0819454 0.0679742 0.0548889 0.0426895 0.0313759 0.0211875 0.0123635 0.00490396 -0.00119115 -0.00598405 -0.00953696 -0.0118499 -0.0129228 -0.013057 -0.0125536 -0.0114126 -0.00963403 -0.00762886 -0.00580808 -0.00417168 -0.00271966 -0.00152981 -0.000679915 -0.000169979 0 0 -7.68265e-05 -0.000307306 -0.000691439 -0.00122922 -0.00194004 -0.00284326 -0.00393888 -0.00522692 -0.00659845 -0.00794458 -0.00926531 -0.0105606 -0.0117499 -0.0127524 -0.0135681 -0.014197 -0.0146204 -0.0148195 -0.0147942 -0.0145445 -0.0141126 -0.0135407 -0.0128289 -0.011977 -0.0110486 -0.0101073 -0.00915307 -0.00818594 -0.00723998 -0.0063493 -0.0055139 -0.00473377 -0.00400665 -0.00333026 -0.00270461 -0.0021297 -0.00161658 -0.00117633 -0.000808935 -0.000514401 -0.000356749 -0.000399999 -0.000644152 -0.00108921 -0.00180582 -0.00286463 -0.00426564 -0.00600886 -0.00805673 -0.0103717 -0.0129538 -0.015803 -0.0186969 -0.021413 -0.0239514 -0.026312 -0.0281352 -0.0290615 -0.0290908 -0.0282231 -0.0261304 -0.0224848 -0.0172862 -0.0105347 -0.00215141 0.00794243 0.0197468 0.0332618 0.0481831 0.0642063 0.0813315 0.0995586 0.118302 0.136976 0.155581 0.174117 0.19203 0.208769 0.224334 0.238723 0.251664 0.26288 0.272373 0.280142 0.286152 0.290371 0.292797 0.293432 0.29231 0.289466 0.284901 0.278615 0.27069 0.261208 0.250168 0.237571 0.223685 0.20878 0.192853 0.175907 0.158441 0.140956 0.123453 0.10593 0.088921 0.0729561 0.0580359 0.0441603 0.031614 0.0206818 0.0113635 0.00365936 -0.00250224 -0.00719269 -0.010412 -0.0121602 -0.0127842 -0.0126312 -0.0117012 -0.00999411 -0.0079791 -0.00612532 -0.00443276 -0.00290143 -0.00163206 -0.000725359 -0.00018134 0 0 -8.99839e-05 -0.000359936 -0.000809855 -0.00143974 -0.00226182 -0.0032883 -0.00451919 -0.00595449 -0.00745478 -0.00888066 -0.0102321 -0.0115092 -0.0126108 -0.013436 -0.0139848 -0.0142571 -0.0142307 -0.0138837 -0.0132159 -0.0122273 -0.0109764 -0.0095215 -0.00786266 -0.00599986 -0.00402611 -0.00203439 -2.47273e-05 0.0020029 0.00398499 0.00585805 0.0076221 0.00927712 0.0108052 0.0121884 0.0134267 0