<?xml version="1.0"?> 
<VTKFile type="StructuredGrid" version="0.1"> 
<StructuredGrid WholeExtent="0 128 0 128 0 0"> 
<Piece Extent="0 128 0 128 0 0"> 
<PointData>
<DataArray type="Float32" Name="u" format="ascii" NumberOfComponents="1"> 
0 0 0 0 0 0 0 0 0 0 0 0 0 0 0 0 0 0 0 0 0 0 0 0 0 0 0 0 0 0 0 0 0 0 0 0 0 0 0 0 0 0 0 0 0 0 0 0 0 0 0 0 0 0 0 0 0 0 0 0 0 0 0 0 0 0 0 0 0 0 0 0 0 0 0 0 0 0 0 0 0 0 0 0 0 0 0 0 0 0 0 0 0 0 0 0 0 0 0 0 0 0 0 0 0 0 0 0 0 0 0 0 0 0 0 0 0 0 0 0 0 0 0 0 0 0 0 0 0 0 -5.83876e-08 -2.3355e-07 -5.25488e-07 -9.34201e-07 -1.66973e-06 -2.9421e-06 -4.75133e-06 -7.0974e-06 -9.98586e-06 -1.34222e-05 -1.74065e-05 -2.19388e-05 -2.69432e-05 -3.23443e-05 -3.81418e-05 -4.4336e-05 -5.0853e-05 -5.76194e-05 -6.46351e-05 -7.19001e-05 -7.93168e-05 -8.67875e-05 -9.43123e-05 -0.000101891 -0.000109392 -0.000116685 -0.000123769 -0.000130644 -0.000137174 -0.000143224 -0.000148792 -0.000153879 -0.000158396 -0.000162253 -0.00016545 -0.000167987 -0.000169865 -0.000171085 -0.000171646 -0.000171549 -0.000170893 -0.000169776 -0.0001682 -0.000166163 -0.000163828 -0.000161358 -0.000158752 -0.00015601 -0.000153289 -0.000150747 -0.000148383 -0.000146197 -0.000144266 -0.000142666 -0.000141397 -0.000140459 -0.000139797 -0.000139357 -0.000139139 -0.000139142 -0.000139192 -0.000139111 -0.000138901 -0.00013856 -0.000137879 -0.000136647 -0.000134864 -0.000132529 -0.000129535 -0.000125775 -0.000121249 -0.000115956 -0.000110002 -0.000103493 -9.64283e-05 -8.88086e-05 -8.0947e-05 -7.31571e-05 -6.5439e-05 -5.77925e-05 -5.0595e-05 -4.42236e-05 -3.86783e-05 -3.39591e-05 -3.03014e-05 -2.79406e-05 -2.68767e-05 -2.71097e-05 -2.85954e-05 -3.12892e-05 -3.51914e-05 -4.03017e-05 -4.63103e-05 -5.2907e-05 -6.00918e-05 -6.78647e-05 -7.57991e-05 -8.34681e-05 -9.08717e-05 -9.801e-05 -0.000104526 -0.000110064 -0.000114623 -0.000118203 -0.000120639 -0.000121768 -0.000121588 -0.000120101 -0.000117357 -0.000113409 -0.000108255 -0.000101897 -9.45825e-05 -8.65599e-05 -7.78294e-05 -6.83909e-05 -5.87138e-05 -4.92673e-05 -4.00516e-05 -3.10665e-05 -2.2889e-05 -1.60961e-05 -1.06876e-05 -6.66355e-06 -3.74824e-06 -1.66589e-06 -4.16472e-07 0 0 -2.3355e-07 -9.34201e-07 -2.10195e-06 -3.73681e-06 -6.67891e-06 -1.17684e-05 -1.90053e-05 -2.83896e-05 -3.99434e-05 -5.3689e-05 -6.96262e-05 -8.77551e-05 -0.000107773 -0.000129377 -0.000152567 -0.000177344 -0.000203412 -0.000230478 -0.00025854 -0.0002876 -0.000317267 -0.00034715 -0.000377249 -0.000407564 -0.00043757 -0.000466741 -0.000495076 -0.000522577 -0.000548698 -0.000572894 -0.000595167 -0.000615516 -0.000633582 -0.00064901 -0.000661799 -0.000671948 -0.000679461 -0.00068434 -0.000686586 -0.000686197 -0.000683572 -0.000679106 -0.000672799 -0.000664652 -0.000655313 -0.000645431 -0.000635006 -0.000624039 -0.000613156 -0.000602987 -0.000593531 -0.000584789 -0.000577065 -0.000570665 -0.000565588 -0.000561835 -0.000559188 -0.000557428 -0.000556555 -0.000556569 -0.000556767 -0.000556445 -0.000555603 -0.000554241 -0.000551517 -0.000546588 -0.000539454 -0.000530115 -0.000518142 -0.000503102 -0.000484996 -0.000463824 -0.000440008 -0.000413971 -0.000385713 -0.000355234 -0.000323788 -0.000292628 -0.000261756 -0.00023117 -0.00020238 -0.000176894 -0.000154713 -0.000135836 -0.000121206 -0.000111762 -0.000107507 -0.000108439 -0.000114381 -0.000125157 -0.000140765 -0.000161207 -0.000185241 -0.000211628 -0.000240367 -0.000271459 -0.000303196 -0.000333872 -0.000363487 -0.00039204 -0.000418105 -0.000440255 -0.00045849 -0.000472811 -0.000482557 -0.000487071 -0.000486354 -0.000480404 -0.000469429 -0.000453634 -0.000433021 -0.000407588 -0.00037833 -0.00034624 -0.000311318 -0.000273564 -0.000234855 -0.000197069 -0.000160206 -0.000124266 -9.15562e-05 -6.43842e-05 -4.27502e-05 -2.66542e-05 -1.4993e-05 -6.66355e-06 -1.66589e-06 0 0 -5.25488e-07 -2.10195e-06 -4.72939e-06 -8.40781e-06 -1.50275e-05 -2.64789e-05 -4.27619e-05 -6.38766e-05 -8.98728e-05 -0.0001208 -0.000156659 -0.000197449 -0.000242489 -0.000291098 -0.000343276 -0.000399024 -0.000457677 -0.000518575 -0.000581716 -0.000647101 -0.000713851 -0.000781088 -0.00084881 -0.000917019 -0.000984532 -0.00105017 -0.00111392 -0.0011758 -0.00123457 -0.00128901 -0.00133913 -0.00138491 -0.00142556 -0.00146027 -0.00148905 -0.00151188 -0.00152879 -0.00153977 -0.00154482 -0.00154394 -0.00153804 -0.00152799 -0.0015138 -0.00149547 -0.00147445 -0.00145222 -0.00142876 -0.00140409 -0.0013796 -0.00135672 -0.00133545 -0.00131577 -0.0012984 -0.001284 -0.00127257 -0.00126413 -0.00125817 -0.00125421 -0.00125225 -0.00125228 -0.00125273 -0.001252 -0.00125011 -0.00124704 -0.00124091 -0.00122982 -0.00121377 -0.00119276 -0.00116582 -0.00113198 -0.00109124 -0.0010436 -0.000990018 -0.000931436 -0.000867855 -0.000799277 -0.000728523 -0.000658414 -0.000588951 -0.000520133 -0.000455355 -0.000398013 -0.000348105 -0.000305632 -0.000272712 -0.000251465 -0.00024189 -0.000243988 -0.000257358 -0.000281603 -0.000316722 -0.000362716 -0.000416793 -0.000476163 -0.000540826 -0.000610783 -0.000682192 -0.000751213 -0.000817845 -0.00088209 -0.000940737 -0.000990575 -0.0010316 -0.00106382 -0.00108575 -0.00109591 -0.0010943 -0.00108091 -0.00105621 -0.00102068 -0.000974296 -0.000917073 -0.000851242 -0.000779039 -0.000700465 -0.000615518 -0.000528424 -0.000443406 -0.000360464 -0.000279599 -0.000206001 -0.000144865 -9.6188e-05 -5.99719e-05 -3.37342e-05 -1.4993e-05 -3.74824e-06 0 0 -9.34201e-07 -3.73681e-06 -8.40781e-06 -1.49472e-05 -2.67156e-05 -4.70736e-05 -7.60212e-05 -0.000113558 -0.000159774 -0.000214756 -0.000278505 -0.00035102 -0.000431092 -0.000517508 -0.000610269 -0.000709375 -0.000813648 -0.00092191 -0.00103416 -0.0011504 -0.00126907 -0.0013886 -0.001509 -0.00163026 -0.00175028 -0.00186696 -0.0019803 -0.00209031 -0.00219479 -0.00229158 -0.00238067 -0.00246206 -0.00253433 -0.00259604 -0.0026472 -0.00268779 -0.00271785 -0.00273736 -0.00274634 -0.00274479 -0.00273429 -0.00271642 -0.0026912 -0.00265861 -0.00262125 -0.00258173 -0.00254003 -0.00249615 -0.00245262 -0.00241195 -0.00237412 -0.00233916 -0.00230826 -0.00228266 -0.00226235 -0.00224734 -0.00223675 -0.00222971 -0.00222622 -0.00222628 -0.00222707 -0.00222578 -0.00222241 -0.00221696 -0.00220607 -0.00218635 -0.00215782 -0.00212046 -0.00207257 -0.00201241 -0.00193998 -0.00185529 -0.00176003 -0.00165589 -0.00154285 -0.00142094 -0.00129515 -0.00117051 -0.00104702 -0.000924681 -0.000809521 -0.000707578 -0.000618853 -0.000543345 -0.000484822 -0.000447049 -0.000430027 -0.000433756 -0.000457526 -0.000500628 -0.000563062 -0.000644828 -0.000740965 -0.000846512 -0.000961469 -0.00108584 -0.00121278 -0.00133549 -0.00145395 -0.00156816 -0.00167242 -0.00176102 -0.00183396 -0.00189124 -0.00193023 -0.00194829 -0.00194541 -0.00192162 -0.00187771 -0.00181454 -0.00173208 -0.00163035 -0.00151332 -0.00138496 -0.00124527 -0.00109425 -0.000939421 -0.000788277 -0.000640825 -0.000497064 -0.000366225 -0.000257537 -0.000171001 -0.000106617 -5.99719e-05 -2.66542e-05 -6.66355e-06 0 0 -1.69392e-06 -6.77569e-06 -1.52453e-05 -2.71028e-05 -4.75101e-05 -8.16294e-05 -0.000129461 -0.000191004 -0.000266197 -0.000354977 -0.000457344 -0.000573299 -0.000700866 -0.00083807 -0.000984913 -0.00114139 -0.00130561 -0.00147566 -0.00165154 -0.00183325 -0.00201835 -0.00220439 -0.00239136 -0.00257926 -0.00276489 -0.00294503 -0.00311968 -0.00328884 -0.00344925 -0.00359764 -0.00373403 -0.0038584 -0.00396869 -0.00406283 -0.00414082 -0.00420266 -0.00424849 -0.00427843 -0.00429249 -0.00429066 -0.00427543 -0.00424929 -0.00421223 -0.00416425 -0.00410928 -0.00405124 -0.00399012 -0.00392594 -0.00386237 -0.0038031 -0.00374812 -0.00369743 -0.00365264 -0.00361534 -0.00358553 -0.00356321 -0.00354669 -0.00353427 -0.00352597 -0.00352177 -0.00351699 -0.00350697 -0.0034917 -0.00347117 -0.00344 -0.0033928 -0.00332957 -0.0032503 -0.00315249 -0.00303363 -0.00289372 -0.00273275 -0.00255395 -0.00236055 -0.00215253 -0.0019299 -0.0017014 -0.00147575 -0.00125296 -0.00103301 -0.000826268 -0.000643063 -0.000483398 -0.000347272 -0.00024114 -0.000171454 -0.000138214 -0.000141421 -0.000179951 -0.000252678 -0.000359605 -0.000500729 -0.000667712 -0.000852214 -0.00105423 -0.00127377 -0.00149925 -0.00171909 -0.00193329 -0.00214185 -0.00233498 -0.00250288 -0.00264556 -0.00276301 -0.00285057 -0.00290357 -0.00292201 -0.0029059 -0.00285638 -0.00277462 -0.00266062 -0.00251438 -0.0023423 -0.00215077 -0.0019398 -0.00170938 -0.00147151 -0.0012382 -0.00100944 -0.00078523 -0.000580374 -0.000409665 -0.000273102 -0.000170686 -9.60108e-05 -4.26715e-05 -1.06679e-05 0 0 -3.03888e-06 -1.21555e-05 -2.73499e-05 -4.86221e-05 -8.31779e-05 -0.000138223 -0.000213758 -0.000309782 -0.000425692 -0.000560883 -0.000715357 -0.000889113 -0.0010791 -0.00128225 -0.00149857 -0.00172807 -0.00196784 -0.00221499 -0.00246951 -0.00273141 -0.00299714 -0.00326315 -0.00352945 -0.00379603 -0.00405846 -0.00431229 -0.00455751 -0.00479414 -0.00501783 -0.00522426 -0.00541343 -0.00558534 -0.00573743 -0.00586715 -0.0059745 -0.00605947 -0.00612256 -0.00616426 -0.00618457 -0.00618348 -0.00616459 -0.00613147 -0.00608413 -0.00602257 -0.00595211 -0.00587805 -0.00580039 -0.00571915 -0.00563899 -0.0055646 -0.00549597 -0.00543311 -0.00537753 -0.00533073 -0.00529271 -0.00526347 -0.00523974 -0.00521825 -0.00519898 -0.00518196 -0.00515971 -0.00512477 -0.00507714 -0.00501682 -0.00493574 -0.0048258 -0.004687 -0.00451935 -0.0043197 -0.0040849 -0.00381493 -0.00350982 -0.00317568 -0.00281864 -0.0024387 -0.00203587 -0.001625 -0.00122095 -0.000823728 -0.000433331 -6.69918e-05 0.000258059 0.00054182 0.000784293 0.000974729 0.00110238 0.00116725 0.00116934 0.0011103 0.000991798 0.000813829 0.000576395 0.000293011 -2.28083e-05 -0.000371062 -0.00075175 -0.00114587 -0.00153441 -0.00191737 -0.00229475 -0.00265022 -0.00296743 -0.00324637 -0.00348706 -0.00368136 -0.00382114 -0.00390639 -0.00393712 -0.00391467 -0.00384035 -0.00371417 -0.00353613 -0.00331593 -0.00306325 -0.0027781 -0.00246048 -0.00212835 -0.00179968 -0.00147445 -0.00115266 -0.000856599 -0.000608512 -0.000408405 -0.000256277 -0.000144156 -6.40692e-05 -1.60173e-05 0 0 -4.96908e-06 -1.98763e-05 -4.47218e-05 -7.95053e-05 -0.000133719 -0.000216855 -0.000328913 -0.000469892 -0.000638259 -0.000832476 -0.00105254 -0.00129846 -0.00156578 -0.00185004 -0.00215125 -0.00246941 -0.00280035 -0.0031399 -0.00348807 -0.00384486 -0.00420542 -0.00456489 -0.00492327 -0.00528056 -0.00563098 -0.00596872 -0.00629379 -0.00660619 -0.00690054 -0.00717143 -0.00741889 -0.00764289 -0.00784056 -0.00800901 -0.00814823 -0.00825823 -0.00834008 -0.00839487 -0.0084226 -0.00842326 -0.00840175 -0.00836297 -0.00830691 -0.00823358 -0.00814974 -0.00806216 -0.00797083 -0.00787577 -0.00778247 -0.00769644 -0.00761768 -0.00754619 -0.00748292 -0.00742881 -0.00738388 -0.00734812 -0.00731591 -0.00728163 -0.00724528 -0.00720686 -0.0071552 -0.00707917 -0.00697874 -0.00685393 -0.00669328 -0.00648534 -0.00623013 -0.00592762 -0.0055742 -0.0051662 -0.00470364 -0.00418651 -0.00362522 -0.00303017 -0.00240138 -0.00173883 -0.00106594 -0.000406109 0.000240659 0.000874366 0.00146831 0.00199579 0.0024568 0.00285135 0.00316278 0.00337446 0.00348637 0.00349852 0.00341323 0.0032328 0.00295724 0.00258654 0.0021412 0.0016417 0.00108805 0.000480234 -0.000152631 -0.000781437 -0.00140619 -0.00202687 -0.00261815 -0.00315467 -0.00363642 -0.00406341 -0.0044226 -0.00470098 -0.00489855 -0.0050153 -0.00505257 -0.00501171 -0.00489272 -0.00469559 -0.0044342 -0.00412239 -0.00376019 -0.00334758 -0.00290996 -0.00247271 -0.00203585 -0.00159937 -0.0011949 -0.000854078 -0.000576908 -0.000363389 -0.000204406 -9.08472e-05 -2.27118e-05 0 0 -7.48453e-06 -2.99381e-05 -6.73607e-05 -0.000119752 -0.000199133 -0.000317524 -0.000474925 -0.000671335 -0.000903898 -0.00116975 -0.0014689 -0.00180135 -0.00216092 -0.00254146 -0.00294295 -0.00336541 -0.00380313 -0.0042504 -0.00470723 -0.00517362 -0.0056432 -0.0061096 -0.00657281 -0.00703285 -0.00748244 -0.00791434 -0.00832853 -0.00872501 -0.00909737 -0.00943916 -0.00975039 -0.0100311 -0.0102781 -0.0104884 -0.010662 -0.0107989 -0.010901 -0.0109702 -0.0110066 -0.01101 -0.0109869 -0.0109438 -0.0108806 -0.0107973 -0.0107022 -0.0106036 -0.0105014 -0.0103958 -0.0102928 -0.0101986 -0.0101133 -0.0100367 -0.00996881 -0.00990961 -0.00985906 -0.00981717 -0.0097752 -0.00972443 -0.00966484 -0.00959646 -0.00950349 -0.00937017 -0.0091965 -0.00898247 -0.00871262 -0.00837143 -0.00795893 -0.00747511 -0.00691598 -0.00627755 -0.00555983 -0.00476281 -0.00390256 -0.00299514 -0.00204055 -0.00103879 -2.42288e-05 0.00096877 0.00194021 0.00289008 0.00377964 0.00457012 0.00526155 0.0058539 0.00632303 0.00664478 0.00681915 0.00684613 0.00672883 0.00647033 0.00607063 0.00552972 0.00487687 0.00414133 0.0033231 0.00242218 0.00148046 0.000539818 -0.000399738 -0.00133821 -0.00223878 -0.0030646 -0.00381569 -0.00449204 -0.0050743 -0.00554312 -0.00589849 -0.00614042 -0.0062701 -0.00628872 -0.00619627 -0.00599277 -0.00569711 -0.0053282 -0.00488606 -0.00437066 -0.00381632 -0.00325731 -0.00269365 -0.00212534 -0.00159527 -0.00114636 -0.000778614 -0.000492023 -0.000276763 -0.000123006 -3.07514e-05 0 0 -1.06155e-05 -4.24618e-05 -9.55392e-05 -0.000169847 -0.000279953 -0.000440423 -0.000651257 -0.000912455 -0.00121914 -0.00156644 -0.00195436 -0.00238289 -0.0028437 -0.00332846 -0.00383717 -0.00436983 -0.00491892 -0.00547693 -0.00604386 -0.0066197 -0.00719652 -0.00776641 -0.00832935 -0.00888536 -0.00942596 -0.00994269 -0.0104356 -0.0109046 -0.0113428 -0.0117433 -0.0121062 -0.0124313 -0.0127161 -0.0129581 -0.0131573 -0.0133135 -0.0134302 -0.0135105 -0.0135544 -0.0135619 -0.013541 -0.0134998 -0.0134382 -0.0133562 -0.0132631 -0.0131684 -0.0130719 -0.0129738 -0.0128798 -0.012796 -0.0127223 -0.0126586 -0.0126029 -0.0125526 -0.012508 -0.0124689 -0.0124222 -0.0123549 -0.0122668 -0.012158 -0.012007 -0.011792 -0.0115131 -0.0111704 -0.0107436 -0.0102125 -0.00957715 -0.00883754 -0.00798989 -0.00703043 -0.00595916 -0.00477609 -0.00350516 -0.00217034 -0.000771638 0.000690959 0.00216856 0.00361228 0.00502212 0.00639807 0.00768572 0.00883062 0.00983278 0.0106922 0.011375 0.0118473 0.012109 0.0121603 0.0120049 0.011647 0.0110863 0.0103231 0.00939755 0.00835002 0.00718052 0.00588905 0.00453386 0.00317322 0.00180713 0.000435572 -0.00088966 -0.00211679 -0.00324583 -0.00427677 -0.00518176 -0.00593296 -0.00653036 -0.00697397 -0.00726435 -0.00740208 -0.00738715 -0.00721957 -0.00692414 -0.00652566 -0.00602414 -0.00541958 -0.00475668 -0.00408016 -0.00339003 -0.00268628 -0.002025 -0.00146229 -0.000998154 -0.00063258 -0.000355826 -0.000158145 -3.95362e-05 0 0 -1.43922e-05 -5.75686e-05 -0.000129529 -0.000230274 -0.00037671 -0.000585742 -0.00085737 -0.00119159 -0.00158052 -0.00201627 -0.00249882 -0.00302819 -0.00359329 -0.00418303 -0.00479741 -0.00543644 -0.00609049 -0.00674995 -0.00741482 -0.0080851 -0.00875143 -0.00940444 -0.0100441 -0.0106705 -0.0112746 -0.0118474 -0.0123888 -0.0128989 -0.0133713 -0.0137998 -0.0141844 -0.014525 -0.0148209 -0.015071 -0.0152754 -0.015434 -0.0155524 -0.0156357 -0.015684 -0.0156973 -0.0156851 -0.015657 -0.0156129 -0.0155529 -0.0154864 -0.0154227 -0.015362 -0.0153042 -0.0152533 -0.0152133 -0.0151843 -0.0151662 -0.0151527 -0.0151374 -0.0151204 -0.0151016 -0.0150617 -0.0149812 -0.0148603 -0.0146989 -0.014468 -0.0141389 -0.0137114 -0.0131856 -0.012536 -0.0117369 -0.0107885 -0.00969063 -0.00844077 -0.00703633 -0.00547731 -0.0037637 -0.00193047 -1.25952e-05 0.00198994 0.00407712 0.00618085 0.00823301 0.0102336 0.0121826 0.0140053 0.0156268 0.0170472 0.0182665 0.0192382 0.0199158 0.0202994 0.020389 0.0201893 0.0197052 0.0189368 0.0178839 0.0166008 0.0151418 0.0135068 0.0116958 0.00978806 0.00786264 0.00591956 0.00395881 0.00205162 0.000269183 -0.00138849 -0.00292141 -0.00429031 -0.00545595 -0.00641832 -0.00717742 -0.00773243 -0.00808252 -0.00822768 -0.00816791 -0.00793476 -0.00755975 -0.00704289 -0.00638417 -0.00564029 -0.00486795 -0.00406715 -0.00323789 -0.00245138 -0.0017788 -0.00122016 -0.000775461 -0.000436197 -0.000193865 -4.84663e-05 0 0 -1.88146e-05 -7.52584e-05 -0.000169331 -0.000301033 -0.000489404 -0.00075348 -0.00109326 -0.00150875 -0.00198804 -0.00251923 -0.0031023 -0.00373727 -0.0044097 -0.00510517 -0.00582368 -0.00656523 -0.00731781 -0.00806944 -0.00882011 -0.00956983 -0.0103079 -0.0110237 -0.0117172 -0.0123884 -0.0130284 -0.0136283 -0.0141881 -0.0147079 -0.0151829 -0.0156086 -0.0159851 -0.0163123 -0.0165923 -0.0168269 -0.0170163 -0.0171604 -0.0172675 -0.0173458 -0.0173953 -0.0174161 -0.017419 -0.0174152 -0.0174047 -0.0173874 -0.0173719 -0.0173666 -0.0173717 -0.017387 -0.0174132 -0.0174506 -0.0174993 -0.0175593 -0.0176183 -0.017664 -0.0176963 -0.0177153 -0.0176934 -0.0176035 -0.0174453 -0.0172189 -0.0168867 -0.0164108 -0.0157913 -0.0150281 -0.0140898 -0.0129448 -0.011593 -0.0100344 -0.00826864 -0.00629526 -0.00411427 -0.00172565 0.0008215 0.00347811 0.00624418 0.0091197 0.0120126 0.014831 0.0175747 0.0202437 0.0227384 0.0249588 0.0269049 0.0285768 0.0299126 0.0308505 0.0313904 0.0315323 0.031282 0.0306452 0.0296219 0.028212 0.0264866 0.0245165 0.0223018 0.0198425 0.017243 0.0146081 0.0119376 0.00923152 0.00658506 0.00409333 0.00175632 -0.000425959 -0.00239995 -0.00411209 -0.00556236 -0.00675079 -0.00767434 -0.00833003 -0.00871785 -0.0088378 -0.00872898 -0.00843048 -0.0079423 -0.00726444 -0.00646715 -0.00562067 -0.00472502 -0.00378019 -0.0028744 -0.00209588 -0.00144464 -0.000920667 -0.000517875 -0.000230167 -5.75417e-05 0 0 -2.38828e-05 -9.55311e-05 -0.000214945 -0.000382125 -0.000618034 -0.000943639 -0.00135894 -0.00186393 -0.0024417 -0.00307532 -0.00376479 -0.00451011 -0.00529292 -0.00609488 -0.00691597 -0.0077562 -0.00860091 -0.00943542 -0.0102597 -0.0110739 -0.011866 -0.0126242 -0.0133485 -0.014039 -0.0146874 -0.0152856 -0.0158337 -0.0163316 -0.0167775 -0.0171698 -0.0175083 -0.0177931 -0.0180303 -0.018226 -0.0183801 -0.0184927 -0.0185757 -0.0186409 -0.0186885 -0.0187183 -0.0187429 -0.0187746 -0.0188136 -0.0188597 -0.0189197 -0.0190001 -0.019101 -0.0192223 -0.0193595 -0.0195078 -0.0196674 -0.0198381 -0.0199998 -0.0201323 -0.0202357 -0.0203099 -0.0203176 -0.0202216 -0.0200218 -0.0197182 -0.0192629 -0.0186077 -0.0177528 -0.016698 -0.0154051 -0.013836 -0.0119906 -0.00986882 -0.00747347 -0.00480721 -0.00187003 0.00133806 0.00475076 0.00830177 0.0119911 0.0158187 0.0196639 0.0234061 0.0270453 0.0305814 0.0338849 0.0368264 0.0394058 0.0416231 0.0433983 0.0446512 0.0453819 0.0455903 0.045283 0.0444668 0.0431417 0.0413076 0.039055 0.0364744 0.0335657 0.030329 0.0268988 0.0234095 0.0198611 0.0162537 0.0127107 0.00935565 0.00618862 0.00320959 0.000489327 -0.00190137 -0.00396249 -0.00569406 -0.00709009 -0.00814463 -0.00885768 -0.00922924 -0.00930679 -0.00913783 -0.00872236 -0.00806038 -0.00723725 -0.00633834 -0.00536364 -0.00431315 -0.00329406 -0.00241353 -0.00167158 -0.0010682 -0.000600861 -0.000267049 -6.67623e-05 0 0 -2.94707e-05 -0.000117883 -0.000265236 -0.000471531 -0.000759251 -0.00115088 -0.00164642 -0.00224586 -0.00292606 -0.00366385 -0.00445924 -0.00531222 -0.00619968 -0.00709851 -0.00800871 -0.00893028 -0.0098455 -0.0107367 -0.0116038 -0.0124468 -0.013253 -0.0140097 -0.0147169 -0.0153745 -0.0159764 -0.0165163 -0.0169942 -0.0174102 -0.0177672 -0.0180681 -0.0183129 -0.0185016 -0.0186464 -0.0187595 -0.0188408 -0.0188904 -0.018925 -0.0189617 -0.0190002 -0.0190407 -0.0190968 -0.0191823 -0.0192971 -0.0194413 -0.0196179 -0.0198302 -0.020078 -0.0203614 -0.020668 -0.0209853 -0.0213135 -0.0216524 -0.0219714 -0.0222394 -0.0224567 -0.022623 -0.0226889 -0.0226046 -0.0223703 -0.0219857 -0.0213909 -0.0205257 -0.0193901 -0.017984 -0.0162619 -0.0141783 -0.0117332 -0.00892655 -0.00576567 -0.0022579 0.00159675 0.0057983 0.0102591 0.0148914 0.0196953 0.0246708 0.0296628 0.0345162 0.039231 0.0438073 0.0480805 0.0518862 0.0552245 0.0580953 0.0603974 0.0620295 0.0629915 0.0632836 0.0629131 0.0618879 0.0602078 0.0578728 0.0549957 0.0516895 0.0479539 0.0437892 0.0393644 0.0348491 0.0302431 0.0255464 0.0209164 0.0165104 0.0123283 0.00837028 0.00472801 0.00149333 -0.00133375 -0.00375324 -0.00575499 -0.00732888 -0.00847491 -0.00919308 -0.00954016 -0.00957292 -0.00929137 -0.0086955 -0.00788764 -0.00697009 -0.00594287 -0.00480596 -0.00368748 -0.00271553 -0.00189012 -0.00121123 -0.000681319 -0.000302809 -7.57021e-05 0 0 -3.54524e-05 -0.00014181 -0.000319071 -0.000567238 -0.000909705 -0.00136987 -0.00194772 -0.00264327 -0.00342569 -0.00426413 -0.00515859 -0.00610908 -0.00708667 -0.00806241 -0.00903631 -0.0100084 -0.0109573 -0.0118619 -0.0127222 -0.0135381 -0.0142964 -0.0149841 -0.0156011 -0.0161473 -0.0166203 -0.0170174 -0.0173387 -0.017584 -0.0177638 -0.0178884 -0.0179577 -0.0179718 -0.0179518 -0.0179186 -0.0178723 -0.0178129 -0.0177639 -0.0177487 -0.0177674 -0.0178199 -0.017921 -0.0180853 -0.0183128 -0.0186036 -0.018955 -0.019364 -0.0198309 -0.0203556 -0.0209143 -0.0214834 -0.0220628 -0.0226526 -0.0232075 -0.0236824 -0.0240773 -0.0243922 -0.024562 -0.0245216 -0.0242711 -0.0238104 -0.0230651 -0.0219608 -0.0204975 -0.0186751 -0.0164403 -0.0137395 -0.0105728 -0.00694019 -0.0028556 0.00166695 0.00662745 0.0120259 0.0177482 0.0236801 0.0298216 0.0361727 0.0425372 0.0487188 0.0547174 0.0605331 0.0659606 0.0707948 0.0750357 0.0786833 0.0816121 0.0836967 0.084937 0.085333 0.0848932 0.0836261 0.0815317 0.0786099 0.0749987 0.0708361 0.066122 0.0608565 0.0552489 0.0495088 0.0436361 0.0376308 0.0316902 0.0260118 0.0205955 0.0154412 0.0106666 0.00638911 0.00260881 -0.000674333 -0.00344437 -0.00568536 -0.00739731 -0.0085802 -0.00930104 -0.00962684 -0.00955759 -0.00909329 -0.00835533 -0.00746509 -0.00642258 -0.00522778 -0.00403178 -0.00298564 -0.00208937 -0.00134296 -0.000755414 -0.00033574 -8.39349e-05 0 0 -4.18278e-05 -0.000167311 -0.00037645 -0.000669244 -0.00106939 -0.0016006 -0.00226285 -0.00305617 -0.00394058 -0.00487614 -0.00586285 -0.00690071 -0.0079539 -0.00898659 -0.00999879 -0.0109905 -0.0119364 -0.0128112 -0.013615 -0.0143477 -0.0149962 -0.0155473 -0.0160011 -0.0163575 -0.0166193 -0.0167891 -0.016867 -0.016853 -0.0167674 -0.0166307 -0.0164428 -0.0162038 -0.0159464 -0.0157034 -0.0154747 -0.0152604 -0.0150923 -0.0150022 -0.0149901 -0.015056 -0.0152154 -0.0154837 -0.0158608 -0.0163467 -0.0169307 -0.0176017 -0.0183598 -0.0192049 -0.0200985 -0.021002 -0.0219153 -0.0228384 -0.0237081 -0.0244612 -0.0250976 -0.0256174 -0.0259369 -0.0259726 -0.0257243 -0.0251922 -0.0242854 -0.0229129 -0.0210749 -0.0187713 -0.0159402 -0.0125196 -0.00850941 -0.00390974 0.00125674 0.00696734 0.0132221 0.0200209 0.0272181 0.0346677 0.0423699 0.0503245 0.0582873 0.0660139 0.0735044 0.0807588 0.0875252 0.0935521 0.0988394 0.103387 0.107042 0.109653 0.111218 0.111739 0.111223 0.109681 0.107113 0.103519 0.099064 0.0939143 0.08807 0.0815311 0.0745523 0.0673887 0.0600402 0.0525068 0.0450322 0.0378599 0.0309899 0.0244223 0.018305 0.012786 0.0078652 0.00354265 -0.000158238 -0.00321408 -0.00562486 -0.0073906 -0.00858945 -0.0092996 -0.00952103 -0.00925376 -0.00864034 -0.00782334 -0.00680277 -0.00557862 -0.00432696 -0.00322387 -0.00226934 -0.00146337 -0.000823147 -0.000365843 -9.14607e-05 0 0 -4.85969e-05 -0.000194388 -0.000437372 -0.00077755 -0.00123832 -0.00184307 -0.00259181 -0.00348454 -0.00447074 -0.0054999 -0.00657202 -0.0076871 -0.00880137 -0.00987104 -0.0108961 -0.0118766 -0.0127827 -0.0135846 -0.0142822 -0.0148757 -0.0153522 -0.0156993 -0.0159169 -0.0160049 -0.0159732 -0.0158313 -0.0155792 -0.0152171 -0.0147779 -0.014295 -0.0137682 -0.0131976 -0.0126304 -0.0121139 -0.011648 -0.0112328 -0.0109101 -0.010722 -0.0106682 -0.010749 -0.0109801 -0.0113774 -0.0119409 -0.0126706 -0.0135452 -0.0145432 -0.0156646 -0.0169094 -0.0182206 -0.0195411 -0.0208709 -0.0222099 -0.0234733 -0.0245758 -0.0255176 -0.0262986 -0.0268137 -0.0269574 -0.0267299 -0.0261312 -0.0250517 -0.0233821 -0.0211224 -0.0182726 -0.0147617 -0.0105184 -0.00554295 0.000164783 0.00657134 0.0136433 0.0213806 0.0297833 0.0386688 0.0478544 0.0573402 0.0671261 0.0769129 0.0864016 0.0955921 0.104484 0.112774 0.120158 0.126635 0.132207 0.136688 0.139898 0.141835 0.1425 0.141903 0.140054 0.136953 0.1326 0.127191 0.120924 0.113798 0.105813 0.0972746 0.0884888 0.0794555 0.0701746 0.0609422 0.0520546 0.0435118 0.0353137 0.0276434 0.020684 0.0144354 0.00889773 0.00410341 8.49763e-05 -0.00315759 -0.00562428 -0.00740538 -0.00859119 -0.00918169 -0.00917689 -0.00874265 -0.00804484 -0.00708344 -0.00585847 -0.00457302 -0.00343021 -0.00243003 -0.00157247 -0.000884516 -0.000393118 -9.82796e-05 0 0 -5.5559e-05 -0.000222236 -0.000500031 -0.000888944 -0.00141119 -0.002089 -0.00292237 -0.00391129 -0.00499305 -0.00610492 -0.00724692 -0.00841903 -0.00956817 -0.0106412 -0.0116382 -0.0125591 -0.0133689 -0.0140326 -0.0145502 -0.0149218 -0.0151357 -0.0151806 -0.0150564 -0.0147631 -0.0143198 -0.0137455 -0.0130403 -0.0122041 -0.0112866 -0.0103375 -0.00935662 -0.00834409 -0.00736541 -0.00648609 -0.00570613 -0.00502553 -0.00449855 -0.00417943 -0.00406816 -0.00416475 -0.00448517 -0.0050454 -0.00584542 -0.00688525 -0.00812995 -0.00954457 -0.0111291 -0.0128836 -0.0147278 -0.0165814 -0.0184445 -0.020317 -0.0220874 -0.0236442 -0.0249873 -0.0261168 -0.026902 -0.0272123 -0.0270477 -0.0264083 -0.0251637 -0.0231838 -0.0204686 -0.017018 -0.0127518 -0.00758962 -0.00153142 0.00542278 0.0132258 0.0218306 0.031237 0.0414451 0.0522294 0.0633643 0.0748497 0.0866858 0.0985116 0.109966 0.12105 0.131762 0.141743 0.150631 0.158426 0.165128 0.170523 0.174396 0.176746 0.177575 0.176892 0.174708 0.171024 0.16584 0.159384 0.151885 0.143342 0.133756 0.123487 0.112894 0.101979 0.0907404 0.0795335 0.0687129 0.0582786 0.0482306 0.0387926 0.0301883 0.0224175 0.0154805 0.00942113 0.00428348 6.75462e-05 -0.00322668 -0.00570227 -0.00746233 -0.00850684 -0.00883581 -0.00864056 -0.00811242 -0.00725139 -0.00605747 -0.00476287 -0.00359982 -0.00256832 -0.00166836 -0.000938454 -0.00041709 -0.000104273 0 0 -6.25133e-05 -0.000250053 -0.00056262 -0.00100021 -0.00158274 -0.0023301 -0.00324229 -0.00431932 -0.0054844 -0.00666076 -0.00784839 -0.00904729 -0.0101934 -0.0112225 -0.0121348 -0.0129302 -0.0135675 -0.0140059 -0.0142453 -0.0142857 -0.0141177 -0.0137316 -0.0131275 -0.0123055 -0.011297 -0.0101336 -0.00881528 -0.00734205 -0.0057848 -0.00421443 -0.00263094 -0.00103433 0.000486819 0.00184391 0.00303695 0.00406593 0.00486145 0.00535408 0.00554382 0.00543067 0.00499902 0.00423324 0.00313333 0.0016993 -1.66068e-05 -0.00196211 -0.0041372 -0.0065419 -0.00906699 -0.0116032 -0.0141507 -0.0167093 -0.0191352 -0.0212844 -0.0231569 -0.0247528 -0.0259116 -0.0264732 -0.0264375 -0.0258045 -0.0244209 -0.0221334 -0.0189419 -0.0148465 -0.00975784 -0.00358659 0.00366724 0.0120036 0.0213578 0.031665 0.0429253 0.0551385 0.0680291 0.0813216 0.0950159 0.109112 0.123181 0.136792 0.149947 0.162645 0.174466 0.184988 0.194213 0.202139 0.20852 0.213111 0.21591 0.216918 0.216147 0.213608 0.209302 0.203227 0.195645 0.186816 0.176739 0.165415 0.15326 0.140691 0.127708 0.114311 0.100919 0.0879515 0.075408 0.0632885 0.0518637 0.0414041 0.0319097 0.0233806 0.0158755 0.00945313 0.00411356 -0.000143231 -0.00343356 -0.00587373 -0.00746375 -0.00820362 -0.00831235 -0.00800894 -0.00729341 -0.00616574 -0.0048894 -0.00372786 -0.0026811 -0.00174914 -0.00098389 -0.000437284 -0.000109321 0 0 -6.94599e-05 -0.00027784 -0.000625139 -0.00111136 -0.00175295 -0.00256635 -0.00355158 -0.00470862 -0.00594479 -0.00716739 -0.00837642 -0.00957187 -0.010677 -0.011615 -0.012386 -0.0129899 -0.0133787 -0.0135046 -0.0133676 -0.0129676 -0.012298 -0.0113523 -0.0101303 -0.00863206 -0.00690475 -0.00499544 -0.00290412 -0.000630801 0.0017276 0.00407415 0.00640885 0.00873171 0.0109263 0.0128761 0.0145812 0.0160416 0.0171698 0.0178785 0.0181677 0.0180373 0.0174725 0.0164586 0.0149954 0.013083 0.0107949 0.00820423 0.00531115 0.00211563 -0.00123833 -0.00460674 -0.00798959 -0.0113869 -0.0146165 -0.0174963 -0.0200263 -0.0222065 -0.0238426 -0.0247402 -0.0248993 -0.02432 -0.0228234 -0.0202309 -0.0165425 -0.0117581 -0.0057797 0.00149066 0.010053 0.0199074 0.0309674 0.0431467 0.0564454 0.0708634 0.0860679 0.101726 0.117839 0.134405 0.15092 0.16688 0.182284 0.197133 0.210943 0.223231 0.233996 0.243238 0.25068 0.256043 0.259327 0.260531 0.25967 0.256754 0.251785 0.244761 0.235975 0.225718 0.213989 0.200789 0.186593 0.171877 0.156642 0.140886 0.125099 0.109771 0.0948999 0.0804873 0.0668566 0.0543314 0.0429119 0.032598 0.0234664 0.0155939 0.00898045 0.00362606 -0.000599241 -0.00382541 -0.00605243 -0.00728033 -0.00775801 -0.0077344 -0.00720949 -0.00618329 -0.00495263 -0.00381432 -0.00276838 -0.0018148 -0.00102083 -0.0004537 -0.000113425 0 0 -7.63987e-05 -0.000305595 -0.000687588 -0.00122238 -0.00192182 -0.00279778 -0.00385024 -0.00507921 -0.00637423 -0.00762483 -0.00883101 -0.00999278 -0.011019 -0.0118187 -0.0123918 -0.0127382 -0.0128024 -0.0125287 -0.011917 -0.0109673 -0.00967685 -0.00804259 -0.00606458 -0.00374281 -0.00114305 0.00166894 0.00469316 0.00792961 0.0112506 0.0145283 0.0177628 0.020954 0.023953 0.0266105 0.0289267 0.0309015 0.0324267 0.033394 0.0338035 0.0336551 0.0329353 0.0316306 0.0297408 0.027266 0.0243044 0.0209544 0.017216 0.013089 0.0087582 0.00440815 3.8844e-05 -0.00434971 -0.00853136 -0.01228 -0.0155955 -0.0184781 -0.0206949 -0.0220132 -0.0224331 -0.0219546 -0.0203712 -0.0174764 -0.0132702 -0.00775272 -0.000817412 0.00764213 0.0176259 0.0291339 0.0420544 0.0562755 0.0717973 0.0886197 0.106346 0.124579 0.143318 0.162564 0.18173 0.200229 0.218061 0.235226 0.251175 0.265358 0.277775 0.288426 0.297002 0.303192 0.306996 0.308414 0.30746 0.304146 0.298474 0.290442 0.280373 0.26859 0.255091 0.239878 0.223487 0.206455 0.188781 0.170466 0.152074 0.13417 0.116754 0.0998271 0.0837713 0.0689703 0.0554241 0.0431327 0.032194 0.0227058 0.0146682 0.00808119 0.00280068 -0.00131735 -0.00427288 -0.00606593 -0.00697755 -0.00728879 -0.00699964 -0.00611012 -0.00495254 -0.00385922 -0.00283015 -0.00186535 -0.00104926 -0.000466338 -0.000116584 0 0 -8.31033e-05 -0.000332413 -0.000747929 -0.00132965 -0.00208345 -0.00301521 -0.00412491 -0.00541257 -0.00674791 -0.00800069 -0.0091709 -0.0102585 -0.0111563 -0.0117566 -0.0120597 -0.0120655 -0.0117095 -0.0109275 -0.00971948 -0.00808537 -0.00602728 -0.00354725 -0.0006453 0.002