<?xml version="1.0"?> 
<VTKFile type="StructuredGrid" version="0.1"> 
<StructuredGrid WholeExtent="0 128 0 128 0 0"> 
<Piece Extent="0 128 0 128 0 0"> 
<PointData>
<DataArray type="Float32" Name="u" format="ascii" NumberOfComponents="1"> 
0 0 0 0 0 0 0 0 0 0 0 0 0 0 0 0 0 0 0 0 0 0 0 0 0 0 0 0 0 0 0 0 0 0 0 0 0 0 0 0 0 0 0 0 0 0 0 0 0 0 0 0 0 0 0 0 0 0 0 0 0 0 0 0 0 0 0 0 0 0 0 0 0 0 0 0 0 0 0 0 0 0 0 0 0 0 0 0 0 0 0 0 0 0 0 0 0 0 0 0 0 0 0 0 0 0 0 0 0 0 0 0 0 0 0 0 0 0 0 0 0 0 0 0 0 0 0 0 0 0 9.41864e-08 3.76746e-07 8.47677e-07 1.50698e-06 2.48123e-06 3.89698e-06 5.75425e-06 8.05302e-06 1.06966e-05 1.35881e-05 1.67277e-05 2.01154e-05 2.36481e-05 2.72232e-05 3.08405e-05 3.45002e-05 3.8167e-05 4.18058e-05 4.54167e-05 4.89996e-05 5.25956e-05 5.62456e-05 5.99498e-05 6.37081e-05 6.75544e-05 7.15227e-05 7.5613e-05 7.98253e-05 8.4065e-05 8.82376e-05 9.23432e-05 9.63817e-05 0.000100155 0.000103466 0.000106314 0.000108699 0.000110533 0.000111726 0.000112278 0.00011219 0.000111629 0.000110761 0.000109586 0.000108105 0.000106549 0.000105149 0.000103904 0.000102816 0.000101785 0.000100715 9.96049e-05 9.84549e-05 9.67334e-05 9.39088e-05 8.99809e-05 8.49499e-05 7.82586e-05 6.93498e-05 5.82237e-05 4.48801e-05 2.92406e-05 1.12266e-05 -9.16194e-06 -3.19249e-05 -5.66263e-05 -8.283e-05 -0.000110536 -0.000139744 -0.000169895 -0.000200427 -0.000231342 -0.000262638 -0.000293886 -0.000324654 -0.000354943 -0.000384753 -0.000413641 -0.000441166 -0.000467327 -0.000492124 -0.000514961 -0.000535241 -0.000552963 -0.000568128 -0.000580239 -0.000588798 -0.000593804 -0.000595258 -0.000593174 -0.000587566 -0.000578434 -0.000565779 -0.000550151 -0.000532103 -0.000511634 -0.000488745 -0.000464108 -0.000438397 -0.000411613 -0.000383754 -0.000355286 -0.000326673 -0.000297915 -0.000269012 -0.000240332 -0.000212243 -0.000184746 -0.000157839 -0.000132031 -0.000107831 -8.52383e-05 -6.42529e-05 -4.53789e-05 -2.91206e-05 -1.54779e-05 -4.45091e-06 3.97233e-06 9.80373e-06 1.30433e-05 1.3691e-05 1.27365e-05 1.11694e-05 8.98964e-06 6.1973e-06 3.48598e-06 1.54932e-06 3.87331e-07 0 0 3.76746e-07 1.50698e-06 3.39071e-06 6.02793e-06 9.92491e-06 1.55879e-05 2.3017e-05 3.22121e-05 4.27863e-05 5.43525e-05 6.69109e-05 8.04614e-05 9.45925e-05 0.000108893 0.000123362 0.000138001 0.000152668 0.000167223 0.000181667 0.000195998 0.000210382 0.000224983 0.000239799 0.000254832 0.000270218 0.000286091 0.000302452 0.000319301 0.00033626 0.000352951 0.000369373 0.000385527 0.000400621 0.000413864 0.000425256 0.000434797 0.000442131 0.000446903 0.000449113 0.000448761 0.000446515 0.000443044 0.000438346 0.000432422 0.000426196 0.000420595 0.000415617 0.000411263 0.000407141 0.00040286 0.00039842 0.00039382 0.000386934 0.000375635 0.000359924 0.0003398 0.000313034 0.000277399 0.000232895 0.00017952 0.000116962 4.49062e-05 -3.66478e-05 -0.0001277 -0.000226505 -0.00033132 -0.000442144 -0.000558978 -0.00067958 -0.00080171 -0.000925367 -0.00105055 -0.00117554 -0.00129862 -0.00141977 -0.00153901 -0.00165456 -0.00176466 -0.00186931 -0.0019685 -0.00205984 -0.00214096 -0.00221185 -0.00227251 -0.00232096 -0.00235519 -0.00237522 -0.00238103 -0.0023727 -0.00235026 -0.00231374 -0.00226312 -0.0022006 -0.00212841 -0.00204654 -0.00195498 -0.00185643 -0.00175359 -0.00164645 -0.00153502 -0.00142115 -0.00130669 -0.00119166 -0.00107605 -0.000961329 -0.000848974 -0.000738983 -0.000631356 -0.000528125 -0.000431325 -0.000340953 -0.000257011 -0.000181516 -0.000116482 -6.19116e-05 -1.78036e-05 1.58893e-05 3.92149e-05 5.21732e-05 5.4764e-05 5.0946e-05 4.46775e-05 3.59586e-05 2.47892e-05 1.39439e-05 6.1973e-06 1.54932e-06 0 0 8.47677e-07 3.39071e-06 7.6291e-06 1.35628e-05 2.23311e-05 3.50729e-05 5.17882e-05 7.24772e-05 9.62691e-05 0.000122293 0.00015055 0.000181038 0.000212833 0.000245009 0.000277565 0.000310502 0.000343503 0.000376252 0.00040875 0.000440996 0.00047336 0.000506211 0.000539548 0.000573373 0.00060799 0.000643704 0.000680517 0.000718427 0.000756585 0.000794139 0.000831089 0.000867436 0.000901398 0.000931195 0.000956826 0.000978293 0.000994794 0.00100553 0.0010105 0.00100971 0.00100466 0.000996848 0.000986278 0.000972949 0.000958942 0.000946338 0.000935138 0.000925342 0.000916068 0.000906435 0.000896444 0.000886094 0.000870601 0.000845179 0.000809828 0.000764549 0.000704327 0.000624148 0.000524013 0.000403921 0.000263165 0.000101039 -8.24575e-05 -0.000287324 -0.000509637 -0.00074547 -0.000994825 -0.0012577 -0.00152906 -0.00180385 -0.00208208 -0.00236374 -0.00264497 -0.00292189 -0.00319449 -0.00346278 -0.00372277 -0.00397049 -0.00420594 -0.00442912 -0.00463465 -0.00481716 -0.00497667 -0.00511316 -0.00522215 -0.00529918 -0.00534424 -0.00535732 -0.00533857 -0.0052881 -0.00520591 -0.00509201 -0.00495136 -0.00478892 -0.0046047 -0.0043987 -0.00417697 -0.00394558 -0.00370452 -0.00345379 -0.00319758 -0.00294006 -0.00268124 -0.00242111 -0.00216299 -0.00191019 -0.00166271 -0.00142055 -0.00118828 -0.000970481 -0.000767145 -0.000578276 -0.00040841 -0.000262085 -0.000139301 -4.00582e-05 3.5751e-05 8.82336e-05 0.00011739 0.000123219 0.000114628 0.000100524 8.09068e-05 5.57757e-05 3.13738e-05 1.39439e-05 3.48598e-06 0 0 1.50698e-06 6.02793e-06 1.35628e-05 2.41117e-05 3.96996e-05 6.23517e-05 9.2068e-05 0.000128848 0.000171145 0.00021741 0.000267644 0.000321846 0.00037837 0.000435571 0.000493449 0.000552003 0.000610672 0.000668893 0.000726667 0.000783993 0.000841529 0.00089993 0.000959197 0.00101933 0.00108087 0.00114436 0.00120981 0.0012772 0.00134504 0.0014118 0.00147749 0.00154211 0.00160249 0.00165546 0.00170102 0.00173919 0.00176852 0.00178761 0.00179645 0.00179504 0.00178606 0.00177217 0.00175338 0.00172969 0.00170479 0.00168238 0.00166247 0.00164505 0.00162856 0.00161144 0.00159368 0.00157528 0.00154773 0.00150254 0.00143969 0.0013592 0.00125214 0.0011096 0.000931579 0.000718082 0.000467849 0.000179625 -0.000146591 -0.000510799 -0.000906021 -0.00132528 -0.00176858 -0.00223591 -0.00271832 -0.00320684 -0.00370147 -0.00420221 -0.00470217 -0.00519446 -0.00567909 -0.00615604 -0.00661826 -0.00705865 -0.00747723 -0.00787398 -0.00823937 -0.00856385 -0.00884741 -0.00909006 -0.00928383 -0.00942076 -0.00950086 -0.00952413 -0.00949079 -0.00940106 -0.00925495 -0.00905246 -0.00880242 -0.00851364 -0.00818614 -0.00781991 -0.00742573 -0.00701436 -0.00658581 -0.00614007 -0.00568458 -0.00522677 -0.00476664 -0.0043042 -0.00384532 -0.0033959 -0.00295593 -0.00252542 -0.0021125 -0.0017253 -0.00136381 -0.00102805 -0.000726062 -0.000465929 -0.000247646 -7.12146e-05 6.35573e-05 0.00015686 0.000208693 0.000219056 0.000203784 0.00017871 0.000143834 9.91568e-05 5.57757e-05 2.47892e-05 6.1973e-06 0 0 2.51282e-06 1.00513e-05 2.26154e-05 4.02052e-05 6.56046e-05 0.000101598 0.000148185 0.000205365 0.000270374 0.000340444 0.000415576 0.00049577 0.000578448 0.000661033 0.000743523 0.00082592 0.000907517 0.000987609 0.0010662 0.00114328 0.0012201 0.0012979 0.0013767 0.00145648 0.0015383 0.00162323 0.00171127 0.0018024 0.00189455 0.00198562 0.0020756 0.0021645 0.00224774 0.00232071 0.00238343 0.00243589 0.00247614 0.00250224 0.00251417 0.00251195 0.00249965 0.00248135 0.00245705 0.00242675 0.0023957 0.00236917 0.00234716 0.00232966 0.00231366 0.00229611 0.00227703 0.00225642 0.00222089 0.00215708 0.00206499 0.00194461 0.00178263 0.00156574 0.00129392 0.000967186 0.00058436 0.000144269 -0.000353087 -0.000907708 -0.00150858 -0.00214469 -0.00281604 -0.00352262 -0.00425135 -0.00498912 -0.00573594 -0.00649181 -0.0072472 -0.00799261 -0.00872804 -0.00945349 -0.0101584 -0.0108321 -0.0114747 -0.0120861 -0.0126508 -0.0131534 -0.0135936 -0.0139717 -0.0142742 -0.0144881 -0.0146132 -0.0146495 -0.0145975 -0.0144577 -0.0142299 -0.0139142 -0.0135253 -0.0130777 -0.0125715 -0.0120067 -0.0114005 -0.0107704 -0.0101162 -0.009438 -0.00874668 -0.00805312 -0.00735733 -0.00665931 -0.00596683 -0.00528768 -0.00462186 -0.00396936 -0.00334197 -0.00275146 -0.00219782 -0.00168107 -0.00121395 -0.000809219 -0.000466881 -0.000186935 3.00135e-05 0.00018336 0.000273105 0.000299247 0.000285298 0.000254768 0.000207657 0.000143965 8.09802e-05 3.59912e-05 8.9978e-06 0 0 4.02337e-06 1.60935e-05 3.62103e-05 6.43739e-05 0.00010362 0.000156984 0.000224467 0.000306068 0.000396915 0.000492136 0.000591731 0.000695699 0.000800313 0.000901846 0.0010003 0.00109567 0.00118738 0.00127486 0.00135811 0.00143713 0.00151427 0.0015919 0.00167001 0.0017486 0.00182974 0.00191548 0.00200584 0.0021008 0.00219805 0.00229526 0.00239244 0.00248958 0.00258101 0.00266102 0.00272962 0.00278681 0.00283047 0.0028585 0.00287089 0.00286763 0.00285437 0.00283671 0.00281467 0.00278824 0.00276366 0.00274716 0.00273876 0.00273844 0.00274037 0.0027387 0.00273342 0.00272455 0.00269262 0.00261816 0.00250116 0.00234164 0.00212198 0.00182455 0.00144937 0.00099642 0.000466045 -0.000141422 -0.000825983 -0.00158764 -0.00241024 -0.00327764 -0.00418984 -0.00514684 -0.00613211 -0.00712913 -0.00813789 -0.00915838 -0.0101801 -0.0111926 -0.0121958 -0.0131898 -0.0141604 -0.0150938 -0.0159898 -0.0168485 -0.0176459 -0.018358 -0.0189849 -0.0195265 -0.0199616 -0.0202692 -0.0204492 -0.0205015 -0.020427 -0.0202265 -0.0198998 -0.019447 -0.0188914 -0.0182563 -0.0175415 -0.0167471 -0.0158993 -0.0150241 -0.0141216 -0.0131917 -0.0122484 -0.0113054 -0.0103627 -0.00942044 -0.00848605 -0.00756714 -0.00666371 -0.00577576 -0.00491787 -0.00410463 -0.00333604 -0.00261209 -0.00195154 -0.00137316 -0.000876939 -0.000462884 -0.000134175 0.000106002 0.000257649 0.000320764 0.000326056 0.000304231 0.00025529 0.000179232 0.000100818 4.48081e-05 1.1202e-05 0 0 6.03861e-06 2.41545e-05 5.43475e-05 9.66178e-05 0.000153746 0.000228512 0.000320915 0.000430957 0.00055077 0.000672486 0.000796106 0.000921631 0.00104396 0.00115801 0.00126377 0.00136125 0.00145027 0.00153066 0.00160242 0.00166556 0.00172406 0.00178191 0.00183912 0.00189569 0.00195517 0.00202111 0.00209352 0.00217239 0.00225553 0.00234073 0.00242801 0.00251735 0.00260229 0.00267637 0.00273959 0.00279194 0.00283152 0.0028564 0.00286659 0.00286209 0.00285021 0.00283826 0.00282625 0.00281417 0.00280866 0.00281636 0.00283727 0.00287139 0.0029087 0.00293919 0.00296285 0.00297969 0.00296292 0.00288577 0.00274823 0.0025503 0.00227018 0.00188605 0.00139792 0.000805781 0.000112903 -0.00067745 -0.00156528 -0.00255058 -0.00361099 -0.00472412 -0.00588998 -0.00710857 -0.00836062 -0.00962686 -0.0109073 -0.0122019 -0.0135009 -0.0147944 -0.0160824 -0.0173649 -0.0186244 -0.0198437 -0.0210226 -0.0221611 -0.0232245 -0.0241779 -0.0250212 -0.0257545 -0.026346 -0.0267642 -0.0270089 -0.0270801 -0.0269792 -0.0267074 -0.0262646 -0.0256509 -0.0249009 -0.0240493 -0.023096 -0.0220412 -0.0209219 -0.0197755 -0.0186019 -0.0174013 -0.0161897 -0.0149836 -0.0137829 -0.0125876 -0.011403 -0.0102343 -0.00908149 -0.00794462 -0.00684021 -0.00578483 -0.00477846 -0.0038211 -0.00293884 -0.00215775 -0.00147782 -0.000899059 -0.000429009 -7.52146e-05 0.000162324 0.000283607 0.000326059 0.000327101 0.000286734 0.000204959 0.00011529 5.12398e-05 1.28099e-05 0 0 8.55856e-06 3.42342e-05 7.70271e-05 0.000136937 0.000215982 0.000316179 0.000437529 0.000580031 0.000731936 0.000881494 0.0010287 0.00117357 0.0013094 0.00142953 0.00153395 0.00162266 0.00169617 0.00175499 0.00179912 0.00182856 0.00184945 0.00186795 0.00188405 0.00189775 0.00191459 0.00194011 0.0019743 0.00201717 0.00206699 0.00212203 0.0021823 0.0022478 0.0023116 0.00236678 0.00241335 0.0024513 0.00247927 0.00249594 0.00250128 0.00249531 0.00248716 0.00248598 0.00249177 0.00250453 0.0025307 0.00257676 0.00264269 0.0027285 0.00281865 0.00289758 0.00296531 0.00302182 0.0030318 0.00295992 0.00280618 0.00257059 0.00222723 0.00175023 0.00113958 0.000395271 -0.000475065 -0.00146381 -0.00257098 -0.00379655 -0.00511084 -0.00648415 -0.00791647 -0.0094078 -0.0109369 -0.0124823 -0.0140442 -0.0156225 -0.0172096 -0.0187981 -0.0203878 -0.0219788 -0.0235504 -0.0250818 -0.026573 -0.028024 -0.0293867 -0.0306129 -0.0317025 -0.0326556 -0.0334274 -0.033973 -0.0342923 -0.0343854 -0.0342542 -0.0339005 -0.0333244 -0.0325259 -0.0315537 -0.0304568 -0.0292352 -0.0278888 -0.0264684 -0.0250245 -0.0235573 -0.0220666 -0.0205707 -0.0190877 -0.0176178 -0.0161608 -0.0147176 -0.0132891 -0.0118752 -0.0104759 -0.00910899 -0.00779204 -0.00652508 -0.00530812 -0.00417585 -0.00316299 -0.00226952 -0.00149546 -0.000854488 -0.00036029 -1.28685e-05 0.000187777 0.000285305 0.000323376 0.000301989 0.000221145 0.000124394 5.52864e-05 1.38216e-05 0 0 1.13296e-05 4.53182e-05 0.000101966 0.000181273 0.000283604 0.000409323 0.000558431 0.000730927 0.000910312 0.00108009 0.00124025 0.0013908 0.00152357 0.00163038 0.00171125 0.00176616 0.00179687 0.00180512 0.00179091 0.00175424 0.00170392 0.00164873 0.0015887 0.0015238 0.00146191 0.00141089 0.00137073 0.00134143 0.00132233 0.00131276 0.00131272 0.00132221 0.00133489 0.00134442 0.00135081 0.00135404 0.0013543 0.00135177 0.00134643 0.0013383 0.00133824 0.00135711 0.00139492 0.00145167 0.00153211 0.00164097 0.00177827 0.00194399 0.00211519 0.00226889 0.0024051 0.00252382 0.00258087 0.00253208 0.00237744 0.00211697 0.00172292 0.00116758 0.000450947 -0.000426985 -0.00145099 -0.00260583 -0.00389152 -0.00530806 -0.00681752 -0.00838198 -0.0100014 -0.0116759 -0.0133854 -0.0151099 -0.0168494 -0.018604 -0.0203736 -0.0221583 -0.0239581 -0.025773 -0.0275814 -0.0293617 -0.0311139 -0.032838 -0.0344702 -0.0359471 -0.0372684 -0.0384343 -0.0393833 -0.0400542 -0.0404469 -0.0405615 -0.0404006 -0.0399669 -0.0392604 -0.0382812 -0.0370956 -0.0357702 -0.0343049 -0.0326998 -0.0310206 -0.0293332 -0.0276376 -0.0259338 -0.0242388 -0.0225694 -0.0209258 -0.0193079 -0.0177064 -0.016112 -0.0145249 -0.0129448 -0.0113876 -0.00986862 -0.00838802 -0.00694575 -0.00558635 -0.00435433 -0.00324971 -0.00227247 -0.00144595 -0.00079351 -0.000315136 -1.083e-05 0.000166041 0.000262113 0.000277385 0.000211856 0.000119169 5.29641e-05 1.3241e-05 0 0 1.40979e-05 5.63918e-05 0.000126882 0.000225567 0.000349887 0.000497279 0.000667743 0.00086128 0.00105579 0.00122919 0.00138146 0.00151262 0.0016134 0.00167457 0.00169611 0.00167803 0.00162416 0.00153832 0.00142051 0.00127074 0.00110092 0.000923005 0.000736985 0.000542862 0.000351019 0.000171837 5.3173e-06 -0.000148541 -0.000288536 -0.000413466 -0.000523332 -0.000618133 -0.000701867 -0.000778529 -0.000848122 -0.000910644 -0.00096284 -0.00100146 -0.0010265 -0.00103795 -0.00102359 -0.000971146 -0.000880634 -0.000752049 -0.000584827 -0.0003784 -0.000132771 0.000152062 0.000443294 0.000708117 0.000946534 0.00115854 0.00129173 0.00129369 0.00116442 0.000903918 0.000487031 -0.000111395 -0.000891359 -0.00185286 -0.00296799 -0.00420883 -0.00557537 -0.00706763 -0.00863875 -0.0102419 -0.0118771 -0.0135442 -0.0152308 -0.016924 -0.0186239 -0.0203304 -0.0220602 -0.0238299 -0.0256394 -0.0274888 -0.0293605 -0.0312368 -0.0331179 -0.0350037 -0.0368129 -0.0384645 -0.0399584 -0.0412946 -0.0423912 -0.0431664 -0.0436202 -0.0437525 -0.043567 -0.0430675 -0.0422539 -0.0411263 -0.0397726 -0.0382809 -0.0366513 -0.0348837 -0.0330603 -0.0312635 -0.0294931 -0.0277492 -0.0260416 -0.0243804 -0.0227654 -0.0211967 -0.0196457 -0.0180836 -0.0165105 -0.0149264 -0.0133393 -0.0117569 -0.0101794 -0.00860662 -0.00709411 -0.00569724 -0.00441602 -0.00325045 -0.00223875 -0.00141916 -0.000791684 -0.000356315 -6.94867e-05 0.000112368 0.000189249 0.000161157 9.06509e-05 4.02893e-05 1.00723e-05 0 0 1.68637e-05 6.74549e-05 0.000151774 0.00026982 0.000414831 0.000580047 0.000765467 0.00097109 0.00116838 0.0013288 0.00145235 0.00153903 0.00157891 0.00156208 0.00148853 0.00135827 0.00117804 0.000954586 0.000687919 0.000378032 4.04669e-05 -0.000309239 -0.000671084 -0.00104507 -0.00141809 -0.00177705 -0.00212193 -0.00245275 -0.00276562 -0.00305666 -0.00332586 -0.00357324 -0.00379867 -0.00400207 -0.00418343 -0.00434276 -0.00447216 -0.00456374 -0.0046175 -0.00463345 -0.0045983 -0.00449879 -0.0043349 -0.00410664 -0.00382009 -0.00348135 -0.00309042 -0.00264729 -0.00219704 -0.00178474 -0.0014104 -0.00107401 -0.000835604 -0.000755229 -0.00083288 -0.00106856 -0.00148044 -0.0020867 -0.00288734 -0.00388236 -0.00502607 -0.00627279 -0.00762252 -0.00907526 -0.0105745 -0.0120639 -0.0135433 -0.0150128 -0.016473 -0.0179246 -0.0193675 -0.0208018 -0.0222695 -0.0238129 -0.0254318 -0.0271262 -0.0288876 -0.0307072 -0.0325851 -0.0345212 -0.0364148 -0.0381652 -0.0397725 -0.0412366 -0.0424511 -0.0433096 -0.043812 -0.0439584 -0.0437536 -0.0432025 -0.042305 -0.0410611 -0.0395845 -0.0379889 -0.0362742 -0.0344405 -0.0325876 -0.0308153 -0.0291236 -0.0275126 -0.0259792 -0.0245206 -0.0231366 -0.0218273 -0.0205354 -0.0192037 -0.0178322 -0.0164208 -0.0149641 -0.0134569 -0.0118991 -0.0102907 -0.00869914 -0.00719172 -0.00576847 -0.00442941 -0.00323288 -0.00223725 -0.00144251 -0.000848677 -0.000421279 -0.00012586 3.75828e-05 6.90477e-05 3.88393e-05 1.72619e-05 4.31548e-06 0 0 1.96269e-05 7.85076e-05 0.000176642 0.00031403 0.000478437 0.000657627 0.000851601 0.00106036 0.00124807 0.00137892 0.00145291 0.00147002 0.00142009 0.00129292 0.00108851 0.000806862 0.000458493 5.39155e-05 -0.000406871 -0.000923866 -0.00147745 -0.002048 -0.00263551 -0.00323999 -0.00384542 -0.00443576 -0.00501102 -0.0055712 -0.00610892 -0.00661681 -0.00709487 -0.0075431 -0.00795553 -0.00832621 -0.00865513 -0.0089423 -0.00917364 -0.00933507 -0.00942659 -0.00944819 -0.00938592 -0.00922581 -0.00896787 -0.00861209 -0.00817369 -0.00766788 -0.00709468 -0.00645406 -0.00580581 -0.00520969 -0.0046657 -0.00417383 -0.00380114 -0.00361469 -0.00361446 -0.00380047 -0.00417949 -0.00475834 -0.005537 -0.00651548 -0.00762524 -0.00879774 -0.010033 -0.011331 -0.0126249 -0.013848 -0.0150002 -0.0160816 -0.0171121 -0.0181117 -0.0190803 -0.0200181 -0.0210015 -0.0221071 -0.0233351 -0.0246853 -0.0261628 -0.0277729 -0.0295154 -0.0313904 -0.0332758 -0.0350492 -0.0367107 -0.0382604 -0.0395631 -0.0404838 -0.0410226 -0.0411794 -0.0409603 -0.0403717 -0.0394135 -0.0380856 -0.0365314 -0.0348941 -0.0331737 -0.0313702 -0.0296023 -0.0279886 -0.0265292 -0.0252241 -0.0240516 -0.02299 -0.0220394 -0.0211997 -0.0203758 -0.0194725 -0.0184898 -0.0174278 -0.0162622 -0.0149687 -0.0135473 -0.0119981 -0.0104014 -0.00883775 -0.00730706 -0.00580934 -0.00442833 -0.00324776 -0.00226762 -0.00148792 -0.000889337 -0.000452569 -0.000177614 -6.44718e-05 -3.62654e-05 -1.6118e-05 -4.02949e-06 0 0 2.18115e-05 8.7246e-05 0.000196303 0.000348984 0.000526517 0.000710134 0.000899833 0.00109562 0.00125464 0.00133405 0.00133387 0.00125408 0.00108551 0.000818988 0.000454516 -7.9094e-06 -0.000553026 -0.00116557 -0.00184555 -0.00259297 -0.00338459 -0.0041972 -0.00503079 -0.00588538 -0.00674329 -0.00758687 -0.00841612 -0.00923103 -0.0100208 -0.0107744 -0.0114921 -0.0121738 -0.0128055 -0.0133734 -0.0138775 -0.0143178 -0.0146719 -0.0149172 -0.0150537 -0.0150815 -0.0149863 -0.0147539 -0.0143843 -0.0138776 -0.0132612 -0.0125628 -0.0117822 -0.0109195 -0.0100517 -0.00925553 -0.00853107 -0.00787831 -0.00736894 -0.00707466 -0.00699546 -0.00713134 -0.00747033 -0.00800042 -0.00872163 -0.00963396 -0.0106385 -0.0116362 -0.0126272 -0.0136114 -0.0145109 -0.0152475 -0.0158214 -0.0162325 -0.0165289 -0.0167585 -0.0169215 -0.0170178 -0.0171719 -0.0175083 -0.0180271 -0.0187281 -0.0196385 -0.0207854 -0.0221688 -0.0237886 -0.0255001 -0.0271581 -0.0287628 -0.030314 -0.0316436 -0.0325832 -0.0331327 -0.0332923 -0.0330694 -0.0324718 -0.0314994 -0.0301522 -0.0286075 -0.0270425 -0.0254572 -0.0238517 -0.0223637 -0.0211313 -0.0201544 -0.0194329 -0.0189177 -0.0185597 -0.0183588 -0.0183149 -0.0182823 -0.018115 -0.017813 -0.0173763 -0.0167543 -0.0158964 -0.0148025 -0.0134726 -0.0120017 -0.0104845 -0.00892094 -0.00731116 -0.00577095 -0.00441619 -0.00324686 -0.00226298 -0.00146819 -0.000866155 -0.000456867 -0.000240328 -0.000135185 -6.00821e-05 -1.50205e-05 0 0 2.28415e-05 9.13661e-05 0.000205574 0.000365464 0.000544884 0.00071768 0.000883852 0.0010434 0.00114784 0.0011487 0.00104597 0.000839661 0.000523743 9.21973e-05 -0.000454976 -0.00111778 -0.00187508 -0.00270577 -0.00360983 -0.00458727 -0.00561271 -0.00666076 -0.00773143 -0.00882471 -0.00992406 -0.011013 -0.0120914 -0.0131594 -0.0142034 -0.0152101 -0.0161794 -0.0171112 -0.0179815 -0.0187661 -0.0194649 -0.0200779 -0.0205714 -0.0209117 -0.0210988 -0.0211326 -0.0209992 -0.0206848 -0.0201891 -0.0195124 -0.0186984 -0.0177908 -0.0167897 -0.015695 -0.0146033 -0.0136111 -0.0127182 -0.0119248 -0.0113031 -0.0109251 -0.010791 -0.0109007 -0.0112131 -0.0116871 -0.0123225 -0.0131195 -0.0139387 -0.0146407 -0.0152256 -0.0156934 -0.0159536 -0.0159161 -0.0155807 -0.0149474 -0.0141041 -0.0131383 -0.0120501 -0.0108395 -0.00969672 -0.00881199 -0.00818534 -0.00781676 -0.00776686 -0.00809625 -0.00880493 -0.00989289 -0.0111919 -0.0125337 -0.0139184 -0.0153458 -0.0166093 -0.0175018 -0.0180234 -0.0181742 -0.0179631 -0.0173992 -0.0164825 -0.015213 -0.0138067 -0.0124797 -0.0112321 -0.0100637 -0.0091312 -0.00859111 -0.00844344 -0.00868819 -0.0092368 -0.0100007 -0.0109799 -0.0121743 -0.013371 -0.0143567 -0.0151314 -0.0156952 -0.0159616 -0.0158443 -0.0153432 -0.0144583 -0.0133006 -0.0119809 -0.0104993 -0.00885575 -0.00720656 -0.005708 -0.00436009 -0.00316281 -0.00215238 -0.00136501 -0.000800702 -0.000459449 -0.00025844 -0.000114862 -2.87155e-05 0 0 2.2717e-05 9.0868e-05 0.000204453 0.000363472 0.000533539 0.000680267 0.000803657 0.000903708 0.000927686 0.000822857 0.000589219 0.000226773 -0.000265209 -0.000887456 -0.00163997 -0.00252274 -0.00350768 -0.00456666 -0.0056997 -0.00690679 -0.00816182 -0.0094387 -0.0107374 -0.012058 -0.0133877 -0.014714 -0.0160369 -0.0173562 -0.0186569 -0.0199237 -0.0211566 -0.0223556 -0.0234837 -0.0245043 -0.0254172 -0.0262225 -0.0268723 -0.0273188 -0.0275619 -0.0276016 -0.0274248 -0.0270184 -0.0263823 -0.0255165 -0.024485 -0.0233519 -0.022117 -0.0207805 -0.0194607 -0.0182763 -0.0172272 -0.0163134 -0.0156035 -0.0151661 -0.0150011 -0.0151086 -0.0154079 -0.0158183 -0.0163397 -0.0169722 -0.017526 -0.0178114 -0.0178283 -0.0175768 -0.0169531 -0.0158535 -0.0142779 -0.0122264 -0.00983782 -0.00725109 -0.00446621 -0.00148318 0.00142415 0.00398189 0.00619005 0.00804863 0.00945199 0.0102945 0.0105761 0.0102968 0.00964873 0.00882394 0.00782244 0.00664422 0.00553995 0.00476031 0.0043053 0.00417492 0.00435868 0.00484612 0.00563723 0.00673202 0.00787084 0.00879406 0.00950167 0.00999369 0.0100954 0.00963198 0.00860352 0.00701 0.00499122 0.00268699 9.73114e-05 -0.00277782 -0.00564162 -0.0081973 -0.0104449 -0.0123843 -0.0138841 -0.0148124 -0.0151695 -0.0149551 -0.0142981 -0.0133271 -0.0120421 -0.0104431 -0.00873516 -0.00712321 -0.0056073 -0.00418741 -0.00294191 -0.00194914 -0.00120912 -0.000721833 -0.000406031 -0.000180458 -4.51145e-05 0 0 2.14379e-05 8.57516e-05 0.000192941 0.000343006 0.00049248 0.000597894 0.000659248 0.000676543 0.000594171 0.000356525 -3.63938e-05 -0.000584587 -0.00128135 -0.00211997 -0.00310046 -0.0042228 -0.00545081 -0.00674826 -0.00811516 -0.00955151 -0.0110319 -0.012531 -0.0140488 -0.0155852 -0.0171343 -0.0186901 -0.0202525 -0.0218216 -0.0233813 -0.0249154 -0.0264238 -0.0279067 -0.0293121 -0.030588 -0.0317346 -0.0327517 -0.0335746 -0.0341383 -0.0344429 -0.0344884 -0.034263 -0.0337547 -0.0329637 -0.0318898 -0.0306213 -0.0292461 -0.0277644 -0.0261759 -0.0246239 -0.0232513 -0.022058 -0.0210441 -0.0202703 -0.0197976 -0.0196258 -0.0197551 -0.0200547 -0.020394 -0.0207731 -0.0211919 -0.0214003 -0.0211481 -0.0204352 -0.0192617 -0.0175094 -0.0150599 -0.0119132 -0.00806938 -0.00373004 0.000903172 0.00583025 0.0110512 0.0161907 0.0208733 0.0250991 0.0288681 0.0320181 0.0343868 0.0359742 0.0367804 0.0370219 0.0369149 0.0364597 0.0356561 0.034804 0.0342031 0.0338534 0.033755 0.0338958 0.0342641 0.0348597 0.0356828 0.0364252 0.0367789 0.0367441 0.0363205 0.0353159 0.0335379 0.0309865 0.0276617 0.0237663 0.0195034 0.0148728 0.00987459 0.00490569 0.000362999 -0.0037535 -0.00744379 -0.0105216 -0.0128008 -0.0142813 -0.0149631 -0.0149943 -0.0145231 -0.0135494 -0.0120733 -0.0103568 -0.00866181 -0.00698849 -0.00533678 -0.00383676 -0.00261854 -0.00168212 -0.00102748 -0.000577958 -0.00025687 -6.42175e-05 0 0 1.84747e-05 7.3899e-05 0.000166273 0.000295596 0.000409328 0.000454929 0.0004324 0.000341738 0.000127894 -0.000264185 -0.000834499 -0.00158305 -0.00249207 -0.0035438 -0.00473825 -0.00607541 -0.00750979 -0.00899591 -0.0105338 -0.0121234 -0.0137434 -0.0153726 -0.0170109 -0.0186584 -0.0203215 -0.0220069 -0.0237145 -0.0254443 -0.0271825 -0.0289153 -0.0306425 -0.0323643 -0.0340117 -0.0355159 -0.0368768 -0.0380944 -0.0390836 -0.0397589 -0.0401206 -0.0401684 -0.0398925 -0.0392828 -0.0383394 -0.0370622 -0.0355679 -0.033973 -0.0322776 -0.0304816 -0.0287543 -0.0272649 -0.0260134 -0.0249997 -0.0242702 -0.023871 -0.0238022 -0.0240637 -0.0244613 -0.0248009 -0.0250824 -0.0253059 -0.0251486 -0.0242879 -0.0227238 -0.0204564 -0.0173516 -0.0132756 -0.0082282 -0.00220955 0.0045024 0.0116296 0.0191722 0.02713 0.0350055 0.0423011 0.0490167 0.0551523 0.0604761 0.0647563 0.0679927 0.0701855 0.071576 0.0724056 0.0726743 0.0723822 0.0718837 0.0715333 0.0713309 0.0712767 0.0713574 0.0715599 0.0718841 0.07233 0.0725363 0.0721418 0.0711464 0.0695502 0.0671434 0.0637163 0.059269 0.0538014 0.047592 0.0409193 0.0337833 0.026184 0.0186363 0.0116548 0.00523968 -0.000609111 -0.00564064 -0.00960398 -0.0124991 -0.0143261 -0.0152543 -0.0154534 -0.0149232 -0.0136638 -0.0120028 -0.010268 -0.00845921 -0.00657656 -0.00481137 -0.003355 -0.00220744 -0.00136869 -0.000769886 -0.000342172 -8.55429e-05 0 0 1.3298e-05 5.31922e-05 0.000119682 0.000212769 0.000271705 0.000235744 0.000104886 -0.000120869 -0.000490545 -0.00105317 -0.00180873 -0.00275724 -0.00386477 -0.00509741 -0.00645515 -0.007938 -0.00948994 -0.011055 -0.0126331 -0.0142243 -0.0158166 -0.0173983 -0.0189693 -0.0205296 -0.0221073 -0.0237305 -0.0253991 -0.0271131 -0.0288666 -0.0306536 -0.032474 -0.0343278 -0.0361277 -0.0377863 -0.0393036 -0.0406796 -0.0418047 -0.0425693 -0.0429733 -0.0430168 -0.0426921 -0.0419917 -0.0409155 -0.0394635 -0.0377857 -0.0360322 -0.0342029 -0.0322978 -0.0305134 -0.0290462 -0.0278962 -0.0270634 -0.0265699 -0.0264379 -0.0266673 -0.0272582 -0.0279359 -0.0284256 -0.0287273 -0.0288411 -0.0283577 -0.0268679 -0.0243717 -0.020869 -0.0162091 -0.0102409 -0.00296457 0.00561995 0.0151426 0.0252335 0.0358925 0.0471196 0.0582713 0.0687039 0.0784174 0.0874118 0.0953709 0.101979 0.107235 0.111139 0.11396 0.115962 0.117147 0.117515 0.11748 0.117457 0.117448 0.117451 0.117453 0.117439 0.117409 0.117364 0.116884 0.115549 0.11336 0.110316 0.10619 0.100757 0.0940142 0.0859636 0.0769717 0.0674058 0.0572658 0.0465517 0.0359154 0.0260087 0.0168316 0.00838413 0.00099264 -0.00501655 -0.00964345 -0.012888 -0.0149434 -0.0160025 -0.0160654 -0.0151321 -0.0136049 -0.0118858 -0.00997499 -0.00787241 -0.00584015 -0.00414028 -0.00277281 -0.00173774 -0.00097748 -0.000434436 -0.000108609 0 0 5.90779e-06 2.36312e-05 5.31702e-05 9.45247e-05 7.96087e-05 -5.96643e-05 -0.000323294 -0.000711281 -0.00126115 -0.00201042 -0.00295909 -0.00410716 -0.00539945 -0.00678079 -0.00825116 -0.00981058 -0.0113913 -0.0129254 -0.0144131 -0.0158542 -0.0172516 -0.0186083 -0.019924 -0.021199 -0.0224917 -0.0238608 -0.0253062 -0.026828 -0.0284336 -0.0301304 -0.0319183 -0.0337973 -0.0356601 -0.0373994 -0.0390152 -0.0405074 -0.0417381 -0.0425694 -0.0430012 -0.0430336 -0.0426619 -0.0418813 -0.0406918 -0.0390935 -0.0372747 -0.0354235 -0.0335401 -0.0316244 -0.0299011 -0.0285952 -0.0277065 -0.027235 -0.0271694 -0.0274981 -0.0282212 -0.0293386 -0.0304782 -0.031268 -0.0317078 -0.0317977 -0.0310278 -0.0288881 -0.0253787 -0.0204996 -0.0140817 -0.00595592 0.00387768 0.0154191 0.0281907 0.0417147 0.0559912 0.0710201 0.0859881 0.100082 0.113301 0.125647 0.136702 0.146054 0.1537 0.159642 0.164173 0.167585 0.169878 0.171053 0.171592 0.171975 0.172204 0.172277 0.172181 0.171901 0.171435 0.170786 0.169469 0.167002 0.163385 0.158618 0.152457 0.144659 0.135222 0.124148 0.111906 0.0989628 0.0853201 0.0709775 0.056743 0.0434246 0.0310222 0.0195359 0.00937821 0.000961486 -0.00571423 -0.0106489 -0.0140614 -0.0161705 -0.0169761 -0.0164783 -0.0151628 -0.0135153 -0.0115358 -0.00922433 -0.00692309 -0.0049744 -0.00337825 -0.00213465 -0.00120074 -0.000533662 -0.000133416 0 0 -3.69601e-06 -1.4784e-05 -3.3264e-05 -5.91361e-05 -0.00016696 -0.000431294 -0.000852139 -0.0014295 -0.00218391 -0.00313594 -0.00428557 -0.00563281 -0.00709612 -0.00859394 -0.0101263 -0.0116931 -0.0132137 -0.0146073 -0.0158738 -0.0170132 -0.0180484 -0.0190024 -0.019875 -0.0206664 -0.0214745 -0.0223977 -0.0234359 -0.0245891 -0.0258835 -0.0273456 -0.0289754 -0.0307728 -0.032609 -0.0343552 -0.0360114 -0.0375777 -0.0388837 -0.0397592 -0.0402043 -0.0402189 -0.0398018 -0.0389517 -0.0376685 -0.0359524 -0.0340348 -0.0321471 -0.0302893 -0.0284614 -0.0269176 -0.0259119 -0.0254442 -0.0255147 -0.0260688 -0.0270518 -0.0284639 -0.0303049 -0.0320885 -0.0333281 -0.0340238 -0.0341756 -0.0331587 -0.0303485 -0.025745 -0.0193481 -0.0109695 -0.000420596 0.0122985 0.0271879 0.0436465 0.0610733 0.0794683 0.0988314 0.118156 0.136435 0.153668 0.169857 0.18447 0.196981 0.207389 0.215694 0.222215 0.227273 0.230868 0.232999 0.23422 0.235087 0.235599 0.235756 0.235543 0.234945 0.233962 0.232594 0.23029 0.226499 0.221221 0.214456 0.205944 0.195423 0.182893 0.168356 0.152393 0.13559 0.117946 0.0994615 0.0811192 0.0639025 0.0478116 0.0328463 0.0195161 0.00833013 -0.000711476 -0.00760876 -0.0126085 -0.0159573 -0.0176553 -0.0177024 -0.0166768 -0.0151566 -0.0131418 -0.0106323 -0.0080602 -0.00585734 -0.00402374 -0.00255941 -0.00143967 -0.000639852 -0.000159963 0 0 -1.56108e-05 -6.2443e-05 -0.000140497 -0.000249772 -0.000469411 -0.000878554 -0.0014772 -0.00226536 -0.00323927 -0.00439519 -0.00573313 -0.00725308 -0.00884052 -0.0103809 -0.0118743 -0.0133206 -0.0146246 -0.015691 -0.0165199 -0.0171111 -0.0175149 -0.0177814 -0.0179107 -0.0179028 -0.0179079 -0.0180764 -0.0184082 -0.0189033 -0.0196157 -0.0205991 -0.0218537 -0.0233793 -0.0250253 -0.0266409 -0.0282261 -0.0297808 -0.0310983 -0.0319718 -0.0324013 -0.0323867 -0.0319309 -0.0310363 -0.029703 -0.027931 -0.026 -0.0241895 -0.0224998 -0.0209307 -0.0197656 -0.019288 -0.0194979 -0.0203954 -0.0218707 -0.0238144 -0.0262265 -0.0291069 -0