<?xml version="1.0"?> 
<VTKFile type="StructuredGrid" version="0.1"> 
<StructuredGrid WholeExtent="0 128 0 128 0 0"> 
<Piece Extent="0 128 0 128 0 0"> 
<PointData>
<DataArray type="Float32" Name="u" format="ascii" NumberOfComponents="1"> 
0 0 0 0 0 0 0 0 0 0 0 0 0 0 0 0 0 0 0 0 0 0 0 0 0 0 0 0 0 0 0 0 0 0 0 0 0 0 0 0 0 0 0 0 0 0 0 0 0 0 0 0 0 0 0 0 0 0 0 0 0 0 0 0 0 0 0 0 0 0 0 0 0 0 0 0 0 0 0 0 0 0 0 0 0 0 0 0 0 0 0 0 0 0 0 0 0 0 0 0 0 0 0 0 0 0 0 0 0 0 0 0 0 0 0 0 0 0 0 0 0 0 0 0 0 0 0 0 0 0 4.19826e-08 1.6793e-07 3.77844e-07 6.71722e-07 8.51741e-07 7.20078e-07 2.76731e-07 -4.78299e-07 -1.68999e-06 -3.5033e-06 -5.91825e-06 -8.93483e-06 -1.25599e-05 -1.68003e-05 -2.16561e-05 -2.71272e-05 -3.31843e-05 -3.9798e-05 -4.69683e-05 -5.46951e-05 -6.28874e-05 -7.1454e-05 -8.0395e-05 -8.97103e-05 -9.92122e-05 -0.000108713 -0.000118213 -0.000127711 -0.000136948 -0.00014566 -0.000153849 -0.000161513 -0.000168418 -0.000174327 -0.000179239 -0.000183155 -0.000185994 -0.000187677 -0.000188204 -0.000187575 -0.00018594 -0.000183449 -0.000180103 -0.0001759 -0.000171167 -0.000166229 -0.000161086 -0.000155737 -0.000150517 -0.00014576 -0.000141466 -0.000137634 -0.000134436 -0.000132045 -0.000130461 -0.000129682 -0.000129664 -0.000130359 -0.000131767 -0.000133888 -0.000136547 -0.000139568 -0.000142952 -0.000146698 -0.000150656 -0.000154677 -0.00015876 -0.000162906 -0.000167076 -0.000171232 -0.000175376 -0.000179507 -0.000183651 -0.000187835 -0.000192059 -0.000196324 -0.000200603 -0.000204869 -0.000209124 -0.000213367 -0.000217473 -0.000221315 -0.000224893 -0.000228209 -0.00023112 -0.000233486 -0.000235307 -0.000236584 -0.000237279 -0.000237358 -0.00023682 -0.000235665 -0.000233974 -0.000231827 -0.000229224 -0.000226165 -0.000222735 -0.000219019 -0.000215018 -0.00021073 -0.00020614 -0.00020123 -0.000196 -0.00019045 -0.000184475 -0.00017797 -0.000170935 -0.000163369 -0.000155204 -0.000146371 -0.000136871 -0.000126703 -0.000115986 -0.000104842 -9.32686e-05 -8.1267e-05 -6.92749e-05 -5.77302e-05 -4.66329e-05 -3.5983e-05 -2.63872e-05 -1.84523e-05 -1.21783e-05 -7.56525e-06 -4.25545e-06 -1.89131e-06 -4.72828e-07 0 0 1.6793e-07 6.71722e-07 1.51137e-06 2.68689e-06 3.40697e-06 2.88031e-06 1.10692e-06 -1.9132e-06 -6.75994e-06 -1.40132e-05 -2.3673e-05 -3.57393e-05 -5.02396e-05 -6.72013e-05 -8.66244e-05 -0.000108509 -0.000132737 -0.000159192 -0.000187873 -0.00021878 -0.00025155 -0.000285816 -0.00032158 -0.000358841 -0.000396849 -0.000434852 -0.000472851 -0.000510845 -0.00054779 -0.00058264 -0.000615394 -0.000646054 -0.000673673 -0.000697307 -0.000716955 -0.000732618 -0.000743976 -0.000750709 -0.000752818 -0.000750301 -0.000743761 -0.000733797 -0.00072041 -0.0007036 -0.000684668 -0.000664916 -0.000644342 -0.000622948 -0.000602069 -0.00058304 -0.000565862 -0.000550534 -0.000537745 -0.000528181 -0.000521842 -0.00051873 -0.000518656 -0.000521435 -0.000527067 -0.000535551 -0.000546186 -0.000558271 -0.000571806 -0.00058679 -0.000602624 -0.000618707 -0.00063504 -0.000651622 -0.000668302 -0.00068493 -0.000701505 -0.000718027 -0.000734602 -0.000751339 -0.000768237 -0.000785295 -0.00080241 -0.000819478 -0.000836497 -0.00085347 -0.000869891 -0.000885259 -0.000899574 -0.000912834 -0.000924479 -0.000933943 -0.000941229 -0.000946334 -0.000949117 -0.000949432 -0.00094728 -0.000942661 -0.000935897 -0.000927308 -0.000916896 -0.00090466 -0.00089094 -0.000876077 -0.000860071 -0.000842922 -0.000824561 -0.00080492 -0.000784001 -0.000761801 -0.000737901 -0.00071188 -0.000683738 -0.000653475 -0.000620816 -0.000585485 -0.000547484 -0.000506811 -0.000463946 -0.000419367 -0.000373074 -0.000325068 -0.0002771 -0.000230921 -0.000186532 -0.000143932 -0.000105549 -7.38092e-05 -4.87133e-05 -3.0261e-05 -1.70218e-05 -7.56525e-06 -1.89131e-06 0 0 3.77844e-07 1.51137e-06 3.40059e-06 6.0455e-06 7.66567e-06 6.4807e-06 2.49058e-06 -4.30469e-06 -1.52099e-05 -3.15297e-05 -5.32643e-05 -8.04135e-05 -0.000113039 -0.000151203 -0.000194905 -0.000244145 -0.000298659 -0.000358182 -0.000422714 -0.000492256 -0.000565987 -0.000643086 -0.000723555 -0.000807393 -0.00089291 -0.000978417 -0.00106391 -0.0011494 -0.00123253 -0.00131094 -0.00138464 -0.00145362 -0.00151576 -0.00156894 -0.00161315 -0.00164839 -0.00167395 -0.0016891 -0.00169384 -0.00168818 -0.00167346 -0.00165104 -0.00162092 -0.0015831 -0.0015405 -0.00149606 -0.00144977 -0.00140163 -0.00135466 -0.00131184 -0.00127319 -0.0012387 -0.00120993 -0.00118841 -0.00117415 -0.00116714 -0.00116698 -0.00117323 -0.0011859 -0.00120499 -0.00122892 -0.00125611 -0.00128656 -0.00132028 -0.0013559 -0.00139209 -0.00142884 -0.00146615 -0.00150368 -0.00154109 -0.00157839 -0.00161556 -0.00165286 -0.00169051 -0.00172853 -0.00176691 -0.00180542 -0.00184382 -0.00188212 -0.00192031 -0.00195726 -0.00199183 -0.00202404 -0.00205388 -0.00208008 -0.00210137 -0.00211776 -0.00212925 -0.00213551 -0.00213622 -0.00213138 -0.00212099 -0.00210577 -0.00208644 -0.00206302 -0.00203548 -0.00200462 -0.00197117 -0.00193516 -0.00189657 -0.00185526 -0.00181107 -0.001764 -0.00171405 -0.00166028 -0.00160173 -0.00153841 -0.00147032 -0.00139684 -0.00131734 -0.00123184 -0.00114032 -0.00104388 -0.000943576 -0.000839417 -0.000731403 -0.000623474 -0.000519572 -0.000419696 -0.000323847 -0.000237485 -0.000166071 -0.000109605 -6.80872e-05 -3.82991e-05 -1.70218e-05 -4.25545e-06 0 0 6.71722e-07 2.68689e-06 6.0455e-06 1.07476e-05 1.36279e-05 1.15212e-05 4.42769e-06 -7.65279e-06 -2.70398e-05 -5.60529e-05 -9.4692e-05 -0.000142957 -0.000200958 -0.000268805 -0.000346498 -0.000434036 -0.000530949 -0.000636768 -0.000751492 -0.000875122 -0.0010062 -0.00114326 -0.00128632 -0.00143536 -0.0015874 -0.00173941 -0.0018914 -0.00204338 -0.00219116 -0.00233056 -0.00246158 -0.00258421 -0.00269469 -0.00278923 -0.00286782 -0.00293047 -0.0029759 -0.00300284 -0.00301127 -0.00300121 -0.00297504 -0.00293519 -0.00288164 -0.0028144 -0.00273867 -0.00265966 -0.00257737 -0.00249179 -0.00240828 -0.00233216 -0.00226345 -0.00220214 -0.00215098 -0.00211272 -0.00208737 -0.00207492 -0.00207462 -0.00208574 -0.00210827 -0.0021422 -0.00218475 -0.00223309 -0.00228722 -0.00234716 -0.0024105 -0.00247483 -0.00254016 -0.00260649 -0.00267321 -0.00273972 -0.00280602 -0.00287211 -0.00293841 -0.00300536 -0.00307295 -0.00314118 -0.00320964 -0.00327791 -0.00334599 -0.00341388 -0.00347956 -0.00354104 -0.00359829 -0.00365134 -0.00369791 -0.00373577 -0.00376491 -0.00378534 -0.00379647 -0.00379773 -0.00378912 -0.00377064 -0.00374359 -0.00370923 -0.00366758 -0.00361864 -0.00356376 -0.00350431 -0.00344028 -0.00337169 -0.00329824 -0.00321968 -0.003136 -0.0030472 -0.00295161 -0.00284752 -0.00273495 -0.0026139 -0.00248326 -0.00234194 -0.00218993 -0.00202724 -0.00185578 -0.00167747 -0.0014923 -0.00130027 -0.0011084 -0.000923683 -0.000746126 -0.000575727 -0.000422195 -0.000295237 -0.000194853 -0.000121044 -6.80872e-05 -3.0261e-05 -7.56525e-06 0 0 7.84394e-07 3.13758e-06 7.05955e-06 1.25503e-05 1.46879e-05 8.55045e-06 -5.86212e-06 -2.85498e-05 -6.288e-05 -0.00011222 -0.000176571 -0.000255931 -0.000350381 -0.000459999 -0.000584785 -0.000724739 -0.000879093 -0.00104708 -0.00122869 -0.00142394 -0.00163055 -0.00184624 -0.00207102 -0.00230488 -0.00254317 -0.00278124 -0.00301908 -0.00325668 -0.00348759 -0.0037053 -0.00390984 -0.00410119 -0.00427351 -0.00442097 -0.00454357 -0.0046413 -0.00471224 -0.00475446 -0.00476795 -0.00475272 -0.00471256 -0.00465126 -0.00456881 -0.00446523 -0.0043486 -0.004227 -0.00410043 -0.0039689 -0.00384057 -0.00372363 -0.00361806 -0.00352388 -0.00344507 -0.00338563 -0.00334555 -0.00332484 -0.00332195 -0.00333535 -0.00336503 -0.00341099 -0.00346853 -0.00353295 -0.00360423 -0.00368239 -0.00376358 -0.00384395 -0.0039235 -0.00400224 -0.00407952 -0.00415468 -0.00422773 -0.00429866 -0.00436885 -0.00443968 -0.00451115 -0.00458326 -0.00465628 -0.00473049 -0.00480591 -0.00488252 -0.00495802 -0.00503009 -0.00509874 -0.00516396 -0.00522268 -0.00527184 -0.00531144 -0.00534147 -0.00536098 -0.00536901 -0.00536557 -0.00535066 -0.00532575 -0.00529233 -0.00525039 -0.00519994 -0.00514227 -0.00507866 -0.00500911 -0.00493363 -0.0048509 -0.00475961 -0.00465976 -0.00455135 -0.00443111 -0.00429576 -0.00414529 -0.00397971 -0.00379706 -0.00359539 -0.00337468 -0.00313494 -0.0028793 -0.0026109 -0.00232973 -0.00203579 -0.00174033 -0.00145458 -0.00117854 -0.000912218 -0.00067127 -0.000471358 -0.000312483 -0.000194643 -0.000109487 -4.86608e-05 -1.21652e-05 0 0 4.5069e-07 1.80276e-06 4.05621e-06 7.21104e-06 4.24024e-06 -1.18832e-05 -4.11592e-05 -8.35879e-05 -0.000143361 -0.00022467 -0.000327515 -0.000451896 -0.00059769 -0.000764774 -0.000953149 -0.00116281 -0.00139258 -0.00164124 -0.00190881 -0.00219528 -0.0024974 -0.0028119 -0.00313879 -0.00347806 -0.00382311 -0.00416732 -0.00451068 -0.00485321 -0.0051857 -0.00549898 -0.00579304 -0.00606789 -0.00631528 -0.00652699 -0.006703 -0.00684332 -0.00694536 -0.00700649 -0.00702672 -0.00700606 -0.00695005 -0.00686426 -0.00674868 -0.00660332 -0.00643969 -0.00626933 -0.00609224 -0.00590842 -0.00572919 -0.00556587 -0.00541846 -0.00528697 -0.00517637 -0.00509161 -0.00503272 -0.00499967 -0.0049893 -0.00499843 -0.00502704 -0.00507515 -0.00513515 -0.00519945 -0.00526804 -0.00534092 -0.00541233 -0.00547648 -0.00553338 -0.00558302 -0.00562524 -0.00565984 -0.00568683 -0.00570622 -0.00572178 -0.00573731 -0.00575282 -0.0057683 -0.00578654 -0.00581033 -0.00583968 -0.00587458 -0.00591383 -0.00595623 -0.00600178 -0.00605049 -0.00609908 -0.00614428 -0.00618609 -0.00622452 -0.00625805 -0.00628514 -0.00630581 -0.00632006 -0.00632865 -0.00633237 -0.00633123 -0.00632522 -0.00631404 -0.00629741 -0.00627532 -0.00624777 -0.00621062 -0.0061597 -0.00609503 -0.00601659 -0.00591802 -0.00579294 -0.00564135 -0.00546325 -0.00525521 -0.00501378 -0.00473897 -0.00443077 -0.00409407 -0.00373371 -0.00334971 -0.00294207 -0.00252771 -0.00212357 -0.00172966 -0.00134596 -0.000996302 -0.000704487 -0.000470519 -0.000294397 -0.000165598 -7.35992e-05 -1.83998e-05 0 0 -3.29392e-07 -1.31757e-06 -2.96453e-06 -5.27027e-06 -1.77152e-05 -4.97796e-05 -0.000101464 -0.000172767 -0.000268482 -0.000393401 -0.000547524 -0.000730851 -0.000942885 -0.00118313 -0.00145159 -0.00174826 -0.0020714 -0.00241925 -0.00279183 -0.00318914 -0.00360674 -0.00404024 -0.00448963 -0.00495491 -0.00542721 -0.00589765 -0.00636623 -0.00683295 -0.00728551 -0.00771159 -0.00811119 -0.00848432 -0.00882 -0.00910726 -0.00934611 -0.00953654 -0.00967524 -0.00975893 -0.00978759 -0.00976123 -0.00968754 -0.00957421 -0.00942125 -0.00922866 -0.00901196 -0.00878667 -0.00855281 -0.00831036 -0.00807412 -0.00785888 -0.00766464 -0.00749141 -0.00734487 -0.00723069 -0.00714887 -0.00709943 -0.00707668 -0.00707498 -0.00709431 -0.00713468 -0.0071846 -0.00723259 -0.00727864 -0.00732275 -0.00735674 -0.00737241 -0.00736978 -0.00734883 -0.00731037 -0.00725521 -0.00718334 -0.00709477 -0.00699718 -0.00689824 -0.00679795 -0.00669631 -0.00660043 -0.00651743 -0.0064473 -0.00639005 -0.00634699 -0.00631945 -0.00630743 -0.00631093 -0.0063271 -0.00635308 -0.00638889 -0.00643451 -0.00648767 -0.00654612 -0.00660984 -0.00667884 -0.00675229 -0.00682938 -0.0069101 -0.00699446 -0.00707907 -0.00716055 -0.00723889 -0.00731411 -0.0073774 -0.00741997 -0.00744181 -0.00744292 -0.00741234 -0.00733908 -0.00722314 -0.00706452 -0.00685769 -0.00659712 -0.00628281 -0.00591475 -0.00550008 -0.00504592 -0.00455226 -0.00401911 -0.00347055 -0.00293067 -0.00239948 -0.00187696 -0.00139729 -0.000994622 -0.00066896 -0.000420305 -0.000236422 -0.000105076 -2.62691e-05 0 0 -1.55585e-06 -6.2234e-06 -1.40027e-05 -2.48936e-05 -5.11783e-05 -0.000105139 -0.000186775 -0.000296088 -0.000438245 -0.000618415 -0.000836599 -0.0010928 -0.00138597 -0.00171507 -0.00208011 -0.00248108 -0.00291555 -0.00338112 -0.00387777 -0.00440551 -0.00495859 -0.00553127 -0.00612355 -0.00673543 -0.00735547 -0.00797223 -0.00858572 -0.00919592 -0.00978701 -0.0103431 -0.0108643 -0.0113505 -0.0117877 -0.0121618 -0.0124729 -0.0127209 -0.0129019 -0.0130118 -0.0130505 -0.0130182 -0.012925 -0.0127811 -0.0125865 -0.0123413 -0.0120654 -0.011779 -0.0114821 -0.0111747 -0.0108754 -0.0106027 -0.0103566 -0.0101372 -0.00995057 -0.00980284 -0.00969402 -0.0096241 -0.00958409 -0.009565 -0.00956683 -0.00958958 -0.00961688 -0.00963236 -0.00963603 -0.00962788 -0.00959682 -0.00953176 -0.00943271 -0.00929965 -0.00913491 -0.00894077 -0.00871724 -0.00846433 -0.00819506 -0.00792246 -0.00764654 -0.00736729 -0.00709795 -0.00685178 -0.00662877 -0.00642892 -0.00625749 -0.00611974 -0.00601567 -0.00594527 -0.00590674 -0.00589825 -0.00591981 -0.00597141 -0.00604986 -0.00615194 -0.00627765 -0.006427 -0.00659667 -0.00678333 -0.006987 -0.00720767 -0.00743735 -0.00766808 -0.00789985 -0.00813265 -0.00835125 -0.0085404 -0.0087001 -0.00883035 -0.00891406 -0.00893416 -0.00889064 -0.00878351 -0.00860452 -0.00834541 -0.0080062 -0.00758688 -0.00709735 -0.00654751 -0.00593736 -0.00526691 -0.00456885 -0.00387588 -0.003188 -0.00250521 -0.00187423 -0.00134176 -0.000907809 -0.000572368 -0.000321957 -0.000143092 -3.5773e-05 0 0 -3.47821e-06 -1.39128e-05 -3.13039e-05 -5.56513e-05 -0.000102126 -0.000185898 -0.000306969 -0.000465337 -0.000665791 -0.000913119 -0.00120732 -0.0015484 -0.00193435 -0.00236317 -0.00283488 -0.00334946 -0.00390368 -0.00449429 -0.00512129 -0.00578469 -0.00647747 -0.00719262 -0.00793013 -0.00869 -0.00945839 -0.0102215 -0.0109792 -0.0117316 -0.0124595 -0.0131436 -0.0137841 -0.0143808 -0.0149169 -0.0153754 -0.0157564 -0.0160599 -0.0162813 -0.0164162 -0.0164646 -0.0164264 -0.0163147 -0.0161425 -0.0159096 -0.0156162 -0.0152868 -0.0149461 -0.0145942 -0.0142309 -0.0138782 -0.0135579 -0.01327 -0.0130146 -0.0127969 -0.0126225 -0.0124913 -0.0124034 -0.0123449 -0.0123017 -0.0122741 -0.0122618 -0.0122423 -0.0121929 -0.0121134 -0.0120041 -0.0118502 -0.0116373 -0.0113654 -0.0110345 -0.0106495 -0.0102153 -0.00973201 -0.0091995 -0.00863898 -0.00807164 -0.00749746 -0.00691645 -0.00635153 -0.00582562 -0.00533871 -0.00489081 -0.00449407 -0.00416065 -0.00389053 -0.00368372 -0.00354092 -0.00346282 -0.00344941 -0.00350069 -0.00361232 -0.00377993 -0.00400353 -0.00428312 -0.00461112 -0.00497998 -0.00538969 -0.00584025 -0.00631615 -0.00680188 -0.00729745 -0.00780284 -0.00829305 -0.00874306 -0.00915288 -0.0095225 -0.00982615 -0.0100381 -0.0101582 -0.0101867 -0.0101113 -0.00992029 -0.00961352 -0.00919101 -0.00866602 -0.00805182 -0.00734839 -0.00655575 -0.00571687 -0.00487474 -0.00402935 -0.00318072 -0.00239049 -0.00172031 -0.00117018 -0.000740101 -0.000416307 -0.000185025 -4.62563e-05 0 0 -6.34599e-06 -2.5384e-05 -5.71139e-05 -0.000101536 -0.000176535 -0.000299996 -0.000471919 -0.000692303 -0.000964266 -0.00129092 -0.00167227 -0.00210832 -0.00259544 -0.00313003 -0.00371209 -0.00434161 -0.00501438 -0.0057262 -0.00647707 -0.00726698 -0.00808793 -0.00893192 -0.00979895 -0.010689 -0.0115865 -0.0124757 -0.0133567 -0.0142295 -0.0150722 -0.0158631 -0.0166023 -0.0172897 -0.0179062 -0.0184329 -0.0188697 -0.0192166 -0.0194693 -0.0196233 -0.0196786 -0.0196353 -0.0195091 -0.0193159 -0.0190557 -0.0187285 -0.018363 -0.0179878 -0.017603 -0.0172085 -0.016828 -0.0164854 -0.0161806 -0.0159137 -0.0156873 -0.0155041 -0.015364 -0.0152672 -0.0151923 -0.0151184 -0.0150455 -0.0149734 -0.0148713 -0.0147082 -0.0144841 -0.014199 -0.0138344 -0.0133718 -0.0128111 -0.0121523 -0.0114048 -0.0105777 -0.0096711 -0.00868488 -0.00765252 -0.00660742 -0.00554959 -0.00447903 -0.00343359 -0.00245116 -0.00153174 -0.000675321 9.4545e-05 0.000754306 0.00130396 0.00174352 0.00206744 0.00227019 0.00235178 0.00231221 0.00215723 0.00189257 0.00151824 0.00103425 0.000455008 -0.000205048 -0.000945921 -0.00176761 -0.00264271 -0.00354383 -0.00447097 -0.00542412 -0.00636367 -0.00725 -0.00808312 -0.00886302 -0.00955158 -0.0101107 -0.0105403 -0.0108404 -0.0109938 -0.0109834 -0.0108091 -0.010471 -0.00998628 -0.00937218 -0.00862872 -0.00775591 -0.00680889 -0.00584281 -0.00485767 -0.00385348 -0.00290941 -0.00210465 -0.00143919 -0.000913023 -0.000513575 -0.000228256 -5.70639e-05 0 0 -1.01592e-05 -4.06368e-05 -9.14327e-05 -0.000162547 -0.000274405 -0.00044743 -0.000681624 -0.000976986 -0.00133367 -0.00175183 -0.00223145 -0.00277256 -0.00336925 -0.00401564 -0.00471173 -0.00545752 -0.00624768 -0.00707687 -0.0079451 -0.00885237 -0.00978996 -0.0107492 -0.01173 -0.0127325 -0.0137397 -0.014735 -0.0157183 -0.0166895 -0.0176252 -0.0185017 -0.019319 -0.0200771 -0.0207557 -0.0213342 -0.0218128 -0.0221913 -0.022466 -0.0226332 -0.0226927 -0.0226447 -0.0225079 -0.0223013 -0.0220247 -0.0216783 -0.021294 -0.0209041 -0.0205085 -0.0201073 -0.0197247 -0.0193851 -0.0190884 -0.0188347 -0.0186218 -0.0184476 -0.0183121 -0.0182153 -0.0181265 -0.0180151 -0.0178811 -0.0177243 -0.0175038 -0.0171784 -0.0167481 -0.0162128 -0.0155495 -0.0147352 -0.0137697 -0.0126532 -0.0114009 -0.010028 -0.00853451 -0.00692049 -0.00523567 -0.00352982 -0.00180293 -5.50071e-05 0.00165586 0.00327158 0.00479214 0.00621755 0.00750836 0.00862511 0.00956781 0.0103364 0.0109183 0.0113008 0.0114838 0.0114673 0.0112588 0.0108656 0.0102877 0.0095251 0.00860172 0.00754146 0.00634431 0.00501026 0.00358296 0.00210607 0.000579589 -0.00099649 -0.00256311 -0.00406122 -0.00549083 -0.00685192 -0.00809034 -0.00915194 -0.0100367 -0.0107447 -0.0112519 -0.0115347 -0.0115931 -0.0114269 -0.0110581 -0.0105086 -0.00977835 -0.00886739 -0.0078449 -0.00678008 -0.00567295 -0.0045235 -0.00343101 -0.00249479 -0.00171483 -0.00109113 -0.000613762 -0.000272783 -6.81958e-05 0 0 -1.49178e-05 -5.96713e-05 -0.00013426 -0.000238685 -0.000395736 -0.000628203 -0.000936086 -0.00131939 -0.001774 -0.00229583 -0.00288486 -0.00354112 -0.00425576 -0.00501999 -0.0058338 -0.0066972 -0.00760356 -0.00854629 -0.00952539 -0.0105409 -0.0115836 -0.0126444 -0.0137233 -0.0148204 -0.0159181 -0.0169993 -0.0180638 -0.0191117 -0.0201184 -0.0210592 -0.0219341 -0.0227431 -0.0234653 -0.0240794 -0.0245856 -0.0249838 -0.0252714 -0.0254458 -0.0255069 -0.0254548 -0.0253114 -0.0250987 -0.0248167 -0.0244654 -0.0240798 -0.023695 -0.0233108 -0.0229275 -0.0225683 -0.0222569 -0.0219933 -0.0217774 -0.0216003 -0.021453 -0.0213355 -0.0212478 -0.0211474 -0.0209918 -0.0207808 -0.0205146 -0.0201399 -0.0196034 -0.0189053 -0.0180454 -0.0169955 -0.0157275 -0.0142414 -0.0125371 -0.0106376 -0.00856601 -0.00632224 -0.00390631 -0.00138844 0.00116117 0.00374252 0.0063556 0.00891683 0.0113426 0.0136329 0.0157878 0.0177474 0.0194518 0.020901 0.0220951 0.0230118 0.0236289 0.0239465 0.0239646 0.0236923 0.0231391 0.0223048 0.0211894 0.019829 0.0182595 0.016481 0.0144933 0.0123609 0.0101478 0.00785423 0.00548004 0.00310862 0.000823273 -0.00137599 -0.00348918 -0.00544244 -0.00716191 -0.00864761 -0.00989952 -0.0108857 -0.0115743 -0.0119653 -0.0120586 -0.0118815 -0.0114611 -0.0107973 -0.00989018 -0.0088249 -0.00768657 -0.00647519 -0.00519076 -0.00395528 -0.00289073 -0.00199711 -0.00127443 -0.000716866 -0.000318607 -7.96518e-05 0 0 -2.05781e-05 -8.23125e-05 -0.000185203 -0.00032925 -0.000539169 -0.000839676 -0.00123077 -0.00171245 -0.00227468 -0.00290741 -0.00361065 -0.00438439 -0.00521593 -0.00609253 -0.00701421 -0.00798096 -0.00898466 -0.0100172 -0.0110786 -0.0121688 -0.013279 -0.0143999 -0.0155318 -0.0166746 -0.0178116 -0.0189262 -0.0200183 -0.0210881 -0.0221113 -0.0230642 -0.0239466 -0.0247586 -0.02548 -0.0260907 -0.0265907 -0.0269801 -0.0272583 -0.0274249 -0.0274799 -0.0274233 -0.0272803 -0.0270759 -0.0268103 -0.0264834 -0.0261319 -0.0257926 -0.0254655 -0.0251507 -0.0248683 -0.0246387 -0.0244619 -0.0243379 -0.0242477 -0.0241723 -0.0241117 -0.024066 -0.0239774 -0.0237883 -0.0234987 -0.0231087 -0.0225503 -0.0217557 -0.020725 -0.0194582 -0.0179212 -0.0160801 -0.0139349 -0.0114855 -0.00876512 -0.00580687 -0.00261076 0.000823229 0.0043989 0.00802006 0.0116867 0.0153989 0.0190406 0.0224961 0.0257652 0.0288481 0.031659 0.0341123 0.036208 0.037946 0.0392921 0.0402122 0.040706 0.0407738 0.0404268 0.0396765 0.0385227 0.0369656 0.035056 0.0328447 0.0303317 0.027517 0.0244906 0.0213423 0.0180722 0.0146802 0.0112801 0.00798549 0.00479638 0.00171279 -0.00116689 -0.00374428 -0.00601936 -0.00799215 -0.00962065 -0.0108629 -0.0117188 -0.0121885 -0.0123052 -0.012102 -0.0115789 -0.010736 -0.00967671 -0.00850433 -0.00721891 -0.00582044 -0.00445638 -0.00327416 -0.00227378 -0.00145524 -0.000818571 -0.00036381 -9.09524e-05 0 0 -2.70964e-05 -0.000108386 -0.000243868 -0.000433543 -0.000703346 -0.00107921 -0.00156114 -0.00214913 -0.00282513 -0.00357107 -0.00438696 -0.0052728 -0.00621067 -0.00718269 -0.00818884 -0.00922913 -0.0102936 -0.0113724 -0.0124654 -0.0135728 -0.0146864 -0.0157983 -0.0169086 -0.0180171 -0.01911 -0.0201731 -0.0212066 -0.0222103 -0.0231635 -0.0240452 -0.0248555 -0.0255943 -0.0262449 -0.0267904 -0.0272308 -0.0275661 -0.0277996 -0.0279344 -0.0279706 -0.0279081 -0.0277754 -0.0276007 -0.0273841 -0.0271256 -0.0268617 -0.0266293 -0.0264283 -0.0262586 -0.026134 -0.026068 -0.0260607 -0.026112 -0.0261887 -0.0262574 -0.0263181 -0.0263709 -0.0263388 -0.0261447 -0.0257888 -0.025271 -0.0245058 -0.0234077 -0.0219767 -0.0202127 -0.0180754 -0.0155242 -0.012559 -0.00917998 -0.00543337 -0.00136555 0.00302348 0.00773372 0.012636 0.0176013 0.0226296 0.0277208 0.0327184 0.037466 0.0419636 0.046211 0.0500907 0.0534847 0.056393 0.0588158 0.0607038 0.062008 0.0627283 0.0628648 0.0624311 0.0614412 0.0598948 0.0577922 0.0552018 0.0521925 0.0487641 0.0449168 0.0407717 0.0364504 0.0319528 0.0272788 0.0225799 0.0180074 0.0135613 0.0092416 0.00517725 0.00149725 -0.00179841 -0.00470973 -0.00718217 -0.00916118 -0.0106468 -0.0116389 -0.0121779 -0.0123038 -0.0120168 -0.0113167 -0.0103281 -0.00917542 -0.00785861 -0.0063777 -0.00490849 -0.00362678 -0.00253258 -0.00162588 -0.00091456 -0.000406471 -0.000101618 0 0 -3.44727e-05 -0.000137891 -0.000310254 -0.000551563 -0.000888266 -0.00134681 -0.0019272 -0.00262943 -0.00342534 -0.0042868 -0.00521379 -0.00620632 -0.00724 -0.00829046 -0.0093577 -0.0104417 -0.0115304 -0.0126118 -0.0136859 -0.0147526 -0.0158058 -0.0168395 -0.0178535 -0.0188479 -0.0198133 -0.0207402 -0.0216286 -0.0224786 -0.0232749 -0.0240023 -0.0246608 -0.0252504 -0.02576 -0.0261784 -0.0265057 -0.0267419 -0.0268952 -0.0269743 -0.026979 -0.0269093 -0.0267968 -0.0266731 -0.0265382 -0.026392 -0.0262694 -0.0262051 -0.0261991 -0.0262514 -0.0263655 -0.0265449 -0.0267897 -0.0270999 -0.0274234 -0.0277084 -0.0279548 -0.0281627 -0.0282316 -0.028061 -0.027651 -0.0270016 -0.0260065 -0.0245593 -0.0226602 -0.020309 -0.0174581 -0.0140597 -0.0101139 -0.00562054 -0.000642388 0.00475795 0.0105805 0.0168252 0.023323 0.029905 0.0365711 0.0433214 0.0499504 0.0562526 0.062228 0.0678766 0.0730423 0.0775689 0.0814563 0.0847045 0.0872468 0.0890164 0.0900133 0.0902375 0.0897053 0.0884332 0.0864211 0.083669 0.0802664 0.0763028 0.0717782 0.0666925 0.0612043 0.0554721 0.049496 0.0432758 0.0370081 0.0308891 0.0249188 0.0190972 0.01359 0.00856268 0.00401525 -5.2278e-05 -0.0035703 -0.00646923 -0.00874904 -0.0104098 -0.0114995 -0.0120665 -0.0121108 -0.0116322 -0.0107791 -0.00969985 -0.00839431 -0.00686253 -0.0053116 -0.00394859 -0.00277352 -0.00178637 -0.00100483 -0.000446592 -0.000111648 0 0 -4.27069e-05 -0.000170828 -0.000384362 -0.000683311 -0.00109393 -0.00164247 -0.00232894 -0.00315333 -0.00407533 -0.0050546 -0.00609114 -0.00718496 -0.00830392 -0.00941586 -0.0105208 -0.0116187 -0.0126951 -0.0137355 -0.0147399 -0.0157083 -0.0166373 -0.0175234 -0.0183666 -0.019167 -0.0199215 -0.0206274 -0.0212845 -0.0218928 -0.0224454 -0.0229353 -0.0233624 -0.0237267 -0.0240252 -0.0242548 -0.0244155 -0.0245073 -0.0245453 -0.0245445 -0.024505 -0.0244267 -0.0243445 -0.0242931 -0.0242725 -0.0242827 -0.0243548 -0.0245199 -0.0247779 -0.0251289 -0.0255627 -0.0260694 -0.026649 -0.0273014 -0.0279518 -0.0285252 -0.0290217 -0.0294413 -0.0296558 -0.0295372 -0.0290854 -0.0283005 -0.0270523 -0.0252107 -0.0227756 -0.019747 -0.0160693 -0.0116868 -0.00659939 -0.000807182 0.00560783 0.0125636 0.0200602 0.0280975 0.0364598 0.0449311 0.0535114 0.0622007 0.0707364 0.0788556 0.0865585 0.0938449 0.100514 0.106365 0.111398 0.115612 0.118921 0.121237 0.122561 0.122892 0.122249 0.120652 0.118101 0.114596 0.11025 0.105176 0.0993739 0.0928442 0.0857882 0.0784074 0.0707018 0.0626712 0.0545646 0.0466304 0.0388688 0.0312797 0.0240714 0.017452 0.0114216 0.00598022 0.00121496 -0.00278701 -0.00602568 -0.00850106 -0.0102702 -0.0113901 -0.0118609 -0.0116825 -0.0110298 -0.0100776 -0.008826 -0.00727494 -0.00566571 -0.0042396 -0.00299659 -0.00193669 -0.00108939 -0.000484173 -0.000121043 0 0 -5.15433e-05 -0.000206173 -0.00046389 -0.000824693 -0.00131361 -0.00195568 -0.00275089 -0.00369925 -0.00474588 -0.00583592 -0.00696935 -0.00814618 -0.00932482 -0.0104637 -0.0115627 -0.012622 -0.0136241 -0.0145515 -0.0154043 -0.0161825 -0.0168865 -0.0175167 -0.0180731 -0.0185559 -0.0189712 -0.0193257 -0.0196194 -0.0198521 -0.0200288 -0.0201546 -0.0202293 -0.0202531 -0.0202342 -0.0201814 -0.0200945 -0.0199736 -0.0198425 -0.0197252 -0.0196216 -0.0195317 -0.0194935 -0.0195452 -0.0196866 -0.0199177 -0.0202635 -0.0207487 -0.0213733 -0.0221374 -0.0230126 -0.0239706 -0.0250115 -0.0261351 -0.0272381 -0.028217 -0.0290718 -0.0298025 -0.0302482 -0.0302481 -0.0298023 -0.0289107 -0.0274159 -0.0251606 -0.0221448 -0.0183684 -0.0137674 -0.0082777 -0.00189938 0.0053676 0.0134178 0.0221457 0.0315514 0.0416348 0.0521251 0.0627515 0.0735141 0.0844128 0.0951193 0.105305 0.11497 0.124114 0.132487 0.139838 0.146167 0.151474 0.15565 0.158586 0.160282 0.160738 0.159976 0.158019 0.154866 0.150518 0.145112 0.138788 0.131546 0.123385 0.114553 0.105301 0.0956269 0.0855316 0.0753231 0.0653096 0.055491 0.0458674 0.0366965 0.028236 0.020486 0.0134464 0.00722533 0.00193058 -0.0024378 -0.00587982 -0.00846221 -0.0102517 -0.0112484 -0.0114522 -0.0110676 -0.0102989 -0.00914605 -0.00760917 -0.00596663 -0.00449687 -0.00319988 -0.00207566 -0.00116756 -0.000518915 -0.000129729 0 0 -6.07259e-05 -0.000242904 -0.000546533 -0.000971615 -0.00154059 -0.00227591 -0.00317757 -0.00424557 -0.00540782 -0.0065922 -0.00779874 -0.00902741 -0.0102251 -0.0113387 -0.0123682 -0.0133136 -0.0141538 -0.0148679 -0.0154559 -0.0159176 -0.016259 -0.0164859 -0.0165983 -0.0165961 -0.016499 -0.0163265 -0.0160786 -0.0157554 -0.0153786 -0.0149703 -0.0145304 -0.014059 -0.0135806 -0.0131199 -0.012677 -0.0122518 -0.0118797 -0.0115963 -0.0114016 -0.0112954 -0.0113192 -0.0115141 -0.0118801 -0.0124173 -0.0131409 -0.0140665 -0.015194 -0.0165233 -0.0180021 -0.0195777 -0.0212502 -0.0230195 -0.0247468 -0.0262929 -0.027658 -0.028842 -0.0296454 -0.0298688 -0.029512 -0.0285752 -0.02687 -0.0242082 -0.0205898 -0.0160148 -0.0104107 -0.00370494 0.00410238 0.0130113 0.0228879 0.0335984 0.0451426 0.0575207 0.0703976 0.0834384 0.0966432 0.110012 0.123142 0.13563 0.147477 0.158683 0.168943 0.177954 0.185715 0.192227 0.197358 0.200979 0.203088 0.203686 0.202799 0.200452 0.196645 0.191378 0.184814 0.177118 0.168289 0.158326 0.147529 0.136197 0.124328 0.111923 0.0993575 0.0870047 0.074865 0.0629386 0.0515404 0.0409854 0.0312736 0.0224051 0.0145125 0.00772865 0.00205346 -0.00251303 -0.00604796 -0.00862843 -0.0102545 -0.010926 -0.0108801 -0.0103538 -0.00934686 -0.00785947 -0.00621016 -0.00471749 -0.00338147 -0.0022021 -0.00123868 -0.000550524 -0.000137631 0 0 -7.02548e-05 -0.000281019 -0.000632294 -0.00112408 -0.00177487 -0.00260317 -0.00360898 -0.0047923 -0.00606113 -0.00732346 -0.00857931 -0.00982866 -0.0110048 -0.0120409 -0.0129372 -0.0136934 -0.0142844 -0.0146847 -0.0148945 -0.0149137 -0.014755 -0.0144311 -0.013942 -0.0132878 -0.0125049 -0.0116297 -0.0106623 -0.00960276 -0.00849484 -0.00738249 -0.00626571 -0.00514449 -0.00406424 -0.00307038 -0.00216289 -0.00134179 -0.000656866 -0.000157916 0.000155059 0.00028206 0.000178615 -0.00019975 -0.000853033 -0.00178124 -0.00298706 -0.00447322 -0.00623971 -0.00828653 -0.010531 -0.0128905 -0.015365 -0.0179546 -0.0204777 -0.0227529 -0.0247804 -0.0265599 -0.0278475 -0.0283991 -0.0282145 -0.0272939 -0.0254145 -0.0223534 -0.0181106 -0.0126862 -0.00599919 0.00203152 0.0114059 0.0221239 0.0340183 0.0469216 0.060834 0.0757553 0.0912773 0.106992 0.122899 0.138998 0.154804 0.169832 0.184081 0.197551 0.209882 0.220712 0.230041 0.23787 0.244045 0.248414 0.250978 0.251736 0.250717 0.247951 0.243437 0.237176 0.229356 0.220164 0.209602 0.197669 0.184716 0.171095 0.156805 0.141847 0.126668 0.111716 0.0969909 0.0824934 0.0686031 0.0557002 0.0437845 0.0328561 0.0230765 0.0146072 0.00744812 0.0015993 -0.00302742 -0.0065202 -0.00887902 -0.0101039 -0.0104674 -0.0102423 -0.00942842 -0.00802585 -0.00639628 -0.00490145 -0.00354136 -0.00231599 -0.00130275 -0.000578998 -0.00014475 0 0 -8.013e-05 -0.00032052 -0.00072117 -0.00128208 -0.00201644 -0.00293746 -0.00404512 -0.00533943 -0.00670581 -0.00802969 -0.00931106 -0.0105499 -0.0116638 -0.0125704 -0.0132696 -0.0137615 -0.0140157 -0.0140019 -0.0137203 -0.0131707 -0.0123743 -0.0113522 -0.0101044 -0.00863086 -0.00698877 -0.0052353 -0.00337044 -0.0013942 0.000622533 0.00260888 0.00456483 0.00649038 0.00831477 0.00996722 0.0114477 0.0127563 0.013826 0.01459 0.0150483 0.0152008 0.0149999 0.0143978 0.0133946 0.0119903 0.0101981 0.00803109 0.00548937 0.00257292 -0.000599521 -0.00390921 -0.00735613 -0.0109403 -0.0144309 -0.0175971 -0.0204388 -0.0229562 -0.0248545 -0.0258391 -0.0259099 -0.025067 -0.0230494 -0.0195961 -0.0147072 -0.00838272 -0.00053295 0.00893167 0.0200112 0.0327055 0.0468089 0.0621155 0.0786254 0.0963386 0.114764 0.133411 0.15228 0.171371 0.190106 0.207909 0.22478 0.240719 0.255304 0.268113 0.279146 0.288403 0.29571 0.300893 0.303953 0.304888 0.303732 0.300517 0.295245 0.287913 0.278736 0.267928 0.255487 0.241413 0.226114 0.209996 0.193059 0.175302 0.157253 0.139442 0.121869 0.104532 0.0878847 0.0723804 0.0580187 0.0447996 0.0329174 0.0225662 0.0137462 0.00645716 0.000599382 -0.00392704 -0.00712211 -0.00898582 -0.0098295 -0.00996447 -0.00939074 -0.0081083 -0.00652502 -0.00504877 -0.00367955 -0.00241735 -0.00135976 -0.000604339 -0.000151085 0 0 -9.00425e-05 -0.00036017 -0.000810383 -0.00144068 -0.00225731 -0.00326652 -0.00446831 -0.00586268 -0.00730959 -0.00866899 -0.0099409 -0.0111253 -0.0121216 -0.0128292 -0.0132481 -0.0133783 -0.0131837 -0.0126282 -0.0117118 -0.0104345 -0.00882777 -0.00692307 -0.00472039 -0