<?xml version="1.0"?> 
<VTKFile type="StructuredGrid" version="0.1"> 
<StructuredGrid WholeExtent="0 128 0 128 0 0"> 
<Piece Extent="0 128 0 128 0 0"> 
<PointData>
<DataArray type="Float32" Name="u" format="ascii" NumberOfComponents="1"> 
0 0 0 0 0 0 0 0 0 0 0 0 0 0 0 0 0 0 0 0 0 0 0 0 0 0 0 0 0 0 0 0 0 0 0 0 0 0 0 0 0 0 0 0 0 0 0 0 0 0 0 0 0 0 0 0 0 0 0 0 0 0 0 0 0 0 0 0 0 0 0 0 0 0 0 0 0 0 0 0 0 0 0 0 0 0 0 0 0 0 0 0 0 0 0 0 0 0 0 0 0 0 0 0 0 0 0 0 0 0 0 0 0 0 0 0 0 0 0 0 0 0 0 0 0 0 0 0 0 0 1.72425e-07 6.89699e-07 1.55182e-06 2.7588e-06 4.151e-06 5.56883e-06 7.01228e-06 8.48135e-06 9.66884e-06 1.02675e-05 1.02774e-05 9.69851e-06 8.47035e-06 6.53245e-06 3.88484e-06 5.27489e-07 -3.49362e-06 -8.13255e-06 -1.33893e-05 -1.92638e-05 -2.5659e-05 -3.24777e-05 -3.97198e-05 -4.73854e-05 -5.53153e-05 -6.33503e-05 -7.14904e-05 -7.97356e-05 -8.78478e-05 -9.55888e-05 -0.000102959 -0.000109958 -0.000116319 -0.000121777 -0.000126331 -0.000129981 -0.000132578 -0.000133972 -0.000134163 -0.000133151 -0.000131054 -0.000127991 -0.000123961 -0.000118965 -0.000113396 -0.000107647 -0.000101718 -9.56104e-05 -8.97966e-05 -8.47507e-05 -8.04726e-05 -7.69625e-05 -7.45036e-05 -7.33794e-05 -7.359e-05 -7.51352e-05 -7.79866e-05 -8.21157e-05 -8.75225e-05 -9.42069e-05 -0.00010196 -0.000110573 -0.000120045 -0.000130377 -0.000141419 -0.000153022 -0.000165186 -0.00017791 -0.000191185 -0.000205001 -0.000219357 -0.000234253 -0.000249631 -0.000265432 -0.000281656 -0.000298302 -0.000315025 -0.000331477 -0.000347659 -0.000363571 -0.00037862 -0.000392214 -0.000404352 -0.000415036 -0.000423799 -0.000430177 -0.000434169 -0.000435777 -0.000435021 -0.000431923 -0.000426482 -0.000418699 -0.000409051 -0.000398014 -0.000385589 -0.000371776 -0.000357118 -0.000342158 -0.000326897 -0.000311334 -0.000295726 -0.000280331 -0.000265147 -0.000250175 -0.000235377 -0.000220712 -0.000206182 -0.000191787 -0.000177445 -0.000163078 -0.000148684 -0.000134265 -0.000119933 -0.000105801 -9.18706e-05 -7.81405e-05 -6.49914e-05 -5.28033e-05 -4.15763e-05 -3.13105e-05 -2.23814e-05 -1.5165e-05 -9.66114e-06 -5.86989e-06 -3.30181e-06 -1.46747e-06 -3.66868e-07 0 0 6.89699e-07 2.7588e-06 6.20729e-06 1.10352e-05 1.6604e-05 2.22753e-05 2.80491e-05 3.39254e-05 3.86753e-05 4.10701e-05 4.11097e-05 3.8794e-05 3.38814e-05 2.61298e-05 1.55393e-05 2.10996e-06 -1.39745e-05 -3.25302e-05 -5.35571e-05 -7.70553e-05 -0.000102636 -0.000129911 -0.000158879 -0.000189542 -0.000221261 -0.000253401 -0.000285962 -0.000318942 -0.000351391 -0.000382355 -0.000411835 -0.00043983 -0.000465276 -0.000487106 -0.000505322 -0.000519923 -0.000530311 -0.000535887 -0.000536651 -0.000532604 -0.000524217 -0.000511965 -0.000495846 -0.00047586 -0.000453583 -0.000430587 -0.000406874 -0.000382442 -0.000359186 -0.000339003 -0.00032189 -0.00030785 -0.000298014 -0.000293518 -0.00029436 -0.000300541 -0.000311946 -0.000328463 -0.00035009 -0.000376828 -0.00040784 -0.000442291 -0.00048018 -0.000521507 -0.000565675 -0.000612087 -0.000660742 -0.000711641 -0.000764742 -0.000820004 -0.000877428 -0.000937014 -0.000998525 -0.00106173 -0.00112662 -0.00119321 -0.0012601 -0.00132591 -0.00139064 -0.00145428 -0.00151448 -0.00156886 -0.00161741 -0.00166014 -0.00169519 -0.00172071 -0.00173668 -0.00174311 -0.00174009 -0.00172769 -0.00170593 -0.0016748 -0.0016362 -0.00159206 -0.00154236 -0.0014871 -0.00142847 -0.00136863 -0.00130759 -0.00124534 -0.00118291 -0.00112132 -0.00106059 -0.0010007 -0.000941507 -0.00088285 -0.00082473 -0.000767147 -0.000709781 -0.000652311 -0.000594737 -0.000537059 -0.000479731 -0.000423205 -0.000367482 -0.000312562 -0.000259966 -0.000211213 -0.000166305 -0.000125242 -8.95257e-05 -6.06599e-05 -3.86445e-05 -2.34796e-05 -1.32073e-05 -5.86989e-06 -1.46747e-06 0 0 1.55182e-06 6.20729e-06 1.39664e-05 2.48292e-05 3.7359e-05 5.01195e-05 6.31105e-05 7.63322e-05 8.70195e-05 9.24077e-05 9.24967e-05 8.72866e-05 7.62331e-05 5.87921e-05 3.49635e-05 4.7474e-06 -3.14426e-05 -7.31929e-05 -0.000120504 -0.000173374 -0.000230931 -0.000292299 -0.000357478 -0.000426469 -0.000497838 -0.000570153 -0.000643414 -0.00071762 -0.00079063 -0.000860299 -0.000926629 -0.000989618 -0.00104687 -0.00109599 -0.00113697 -0.00116983 -0.0011932 -0.00120574 -0.00120746 -0.00119836 -0.00117949 -0.00115192 -0.00111565 -0.00107069 -0.00102056 -0.000968822 -0.000915466 -0.000860494 -0.000808169 -0.000762756 -0.000724253 -0.000692662 -0.000670532 -0.000660415 -0.00066231 -0.000676217 -0.000701879 -0.000739041 -0.000787702 -0.000847862 -0.00091764 -0.000995154 -0.0010804 -0.00117339 -0.00127277 -0.0013772 -0.00148667 -0.00160119 -0.00172067 -0.00184501 -0.00197421 -0.00210828 -0.00224668 -0.00238889 -0.0025349 -0.00268472 -0.00283522 -0.0029833 -0.00312893 -0.00327214 -0.00340758 -0.00352993 -0.00363917 -0.00373532 -0.00381419 -0.00387159 -0.00390753 -0.003922 -0.00391519 -0.00388731 -0.00383834 -0.00376829 -0.00368146 -0.00358213 -0.0034703 -0.00334599 -0.00321406 -0.00307942 -0.00294207 -0.00280201 -0.00266154 -0.00252298 -0.00238632 -0.00225158 -0.00211839 -0.00198641 -0.00185564 -0.00172608 -0.00159701 -0.0014677 -0.00133816 -0.00120838 -0.00107939 -0.000952212 -0.000826835 -0.000703265 -0.000584922 -0.00047523 -0.000374187 -0.000281794 -0.000201433 -0.000136485 -8.69502e-05 -5.2829e-05 -2.97163e-05 -1.32073e-05 -3.30181e-06 0 0 2.7588e-06 1.10352e-05 2.48292e-05 4.41407e-05 6.64161e-05 8.91013e-05 0.000112197 0.000135702 0.000154701 0.00016428 0.000164439 0.000155176 0.000135526 0.000104519 6.21574e-05 8.43983e-06 -5.5898e-05 -0.000130121 -0.000214228 -0.000308221 -0.000410544 -0.000519643 -0.000635517 -0.000758166 -0.000885045 -0.0010136 -0.00114385 -0.00127577 -0.00140556 -0.00152942 -0.00164734 -0.00175932 -0.0018611 -0.00194843 -0.00202129 -0.00207969 -0.00212124 -0.00214355 -0.0021466 -0.00213041 -0.00209687 -0.00204786 -0.00198338 -0.00190344 -0.00181433 -0.00172235 -0.00162749 -0.00152977 -0.00143675 -0.00135601 -0.00128756 -0.0012314 -0.00119206 -0.00117407 -0.00117744 -0.00120216 -0.00124779 -0.00131385 -0.00140036 -0.00150731 -0.00163136 -0.00176916 -0.00192072 -0.00208603 -0.0022627 -0.00244835 -0.00264297 -0.00284656 -0.00305897 -0.00328002 -0.00350971 -0.00374805 -0.0039941 -0.00424691 -0.00450649 -0.00477283 -0.0050404 -0.00530364 -0.00556255 -0.00581714 -0.00605792 -0.00627542 -0.00646964 -0.00664057 -0.00678078 -0.00688283 -0.00694671 -0.00697244 -0.00696034 -0.00691077 -0.00682372 -0.00669919 -0.00654481 -0.00636823 -0.00616943 -0.00594842 -0.00571389 -0.00547453 -0.00523035 -0.00498135 -0.00473162 -0.00448529 -0.00424235 -0.0040028 -0.00376603 -0.0035314 -0.00329892 -0.00306859 -0.00283912 -0.00260924 -0.00237895 -0.00214824 -0.00191892 -0.00169282 -0.00146993 -0.00125025 -0.00103986 -0.000844853 -0.000665221 -0.000500967 -0.000358103 -0.00024264 -0.000154578 -9.39183e-05 -5.2829e-05 -2.34796e-05 -5.86989e-06 0 0 4.05711e-06 1.62284e-05 3.6514e-05 6.49138e-05 9.73444e-05 0.000129722 0.000162048 0.000194321 0.000219131 0.000229068 0.000224132 0.000204323 0.000168227 0.000114431 4.29347e-05 -4.62618e-05 -0.000152003 -0.000273133 -0.000409651 -0.000561559 -0.000726438 -0.000901872 -0.00108786 -0.0012844 -0.0014875 -0.00169316 -0.00190136 -0.00211212 -0.0023194 -0.00251717 -0.00270544 -0.00288419 -0.00304669 -0.00318618 -0.00330266 -0.00339614 -0.00346286 -0.00349906 -0.00350474 -0.00347989 -0.00342758 -0.00335083 -0.00324966 -0.00312406 -0.00298398 -0.00283937 -0.00269022 -0.00253655 -0.00239014 -0.00226283 -0.00215459 -0.00206543 -0.00200217 -0.00197159 -0.00197369 -0.00200849 -0.0020748 -0.00217146 -0.00229847 -0.00245583 -0.00263793 -0.00283915 -0.00305949 -0.00329895 -0.00355376 -0.00382016 -0.00409814 -0.0043877 -0.00468906 -0.00500243 -0.00532781 -0.0056652 -0.00601398 -0.00637354 -0.00674388 -0.007125 -0.00750912 -0.00788848 -0.00826307 -0.00863291 -0.00898377 -0.00930148 -0.00958601 -0.00983739 -0.0100442 -0.0101951 -0.01029 -0.010329 -0.0103125 -0.010241 -0.0101145 -0.00993296 -0.00970796 -0.00945109 -0.00916235 -0.00884174 -0.0085022 -0.00815666 -0.00780513 -0.00744761 -0.00708966 -0.00673684 -0.00638917 -0.00604664 -0.00570748 -0.00536994 -0.005034 -0.00469969 -0.00436454 -0.00402614 -0.00368447 -0.00333955 -0.00299423 -0.00265141 -0.00231108 -0.00197324 -0.00164776 -0.00134453 -0.00106354 -0.000804785 -0.000578436 -0.000394649 -0.000253425 -0.000154763 -8.70539e-05 -3.86906e-05 -9.67266e-06 0 0 5.19326e-06 2.07731e-05 4.67394e-05 8.30922e-05 0.000123713 0.000162485 0.000199406 0.000234477 0.000257719 0.000259151 0.000238774 0.000196587 0.000130806 3.96471e-05 -7.68905e-05 -0.000218807 -0.000384419 -0.000572048 -0.000781691 -0.00101335 -0.00126358 -0.00152892 -0.00180938 -0.00210495 -0.00240983 -0.0027182 -0.00303006 -0.0033454 -0.00365535 -0.00395101 -0.00423239 -0.00449948 -0.00474234 -0.00495102 -0.0051255 -0.00526581 -0.00536647 -0.00542204 -0.00543253 -0.00539792 -0.00532284 -0.00521191 -0.00506512 -0.00488248 -0.0046786 -0.00446808 -0.00425092 -0.00402712 -0.0038136 -0.00362726 -0.00346811 -0.00333614 -0.00324044 -0.00319006 -0.00318501 -0.00322529 -0.00330805 -0.00343044 -0.00359245 -0.00379409 -0.00402628 -0.00427995 -0.00455508 -0.00485168 -0.00516424 -0.00548724 -0.00582068 -0.00616456 -0.00652038 -0.00688966 -0.0072724 -0.00766858 -0.00807953 -0.00850652 -0.00894956 -0.00940865 -0.00987489 -0.0103394 -0.0108021 -0.0112631 -0.0117034 -0.0121042 -0.0124655 -0.0127873 -0.0130537 -0.013249 -0.0133733 -0.0134264 -0.0134088 -0.0133211 -0.0131632 -0.0129351 -0.0126526 -0.0123315 -0.0119717 -0.0115733 -0.0111532 -0.0107285 -0.0102991 -0.00986505 -0.00943213 -0.00900621 -0.00858728 -0.00817534 -0.00776582 -0.00735415 -0.00694034 -0.00652439 -0.00610167 -0.00566757 -0.00522209 -0.00476523 -0.00430124 -0.00383437 -0.00336461 -0.00289196 -0.0024316 -0.0019987 -0.00159326 -0.00121527 -0.000881334 -0.000608039 -0.000395387 -0.000243377 -0.0001369 -6.08443e-05 -1.52111e-05 0 0 6.16725e-06 2.4669e-05 5.55053e-05 9.86761e-05 0.000145523 0.000187388 0.00022427 0.000256171 0.000270465 0.00025453 0.000208364 0.000131969 2.32632e-05 -0.000119832 -0.000297318 -0.000509194 -0.000753148 -0.00102687 -0.00133035 -0.0016636 -0.00202196 -0.00240078 -0.00280007 -0.00321981 -0.00365204 -0.00408874 -0.00452994 -0.00497562 -0.00541341 -0.00583093 -0.0062282 -0.0066052 -0.00694807 -0.00724294 -0.00748981 -0.00768868 -0.00783207 -0.0079125 -0.00792998 -0.00788449 -0.00778265 -0.00763108 -0.00742976 -0.00717871 -0.00689819 -0.00660848 -0.00630958 -0.00600149 -0.0057071 -0.00544931 -0.00522812 -0.00504352 -0.00490686 -0.00482949 -0.00481139 -0.00485258 -0.00494754 -0.00509078 -0.00528229 -0.00552208 -0.00579642 -0.00609155 -0.00640749 -0.00674423 -0.00709414 -0.0074496 -0.00781059 -0.00817713 -0.00855293 -0.0089417 -0.00934347 -0.00975821 -0.0101907 -0.0106458 -0.0111235 -0.0116238 -0.0121377 -0.0126563 -0.0131796 -0.0137076 -0.0142168 -0.0146836 -0.0151081 -0.0154902 -0.0158093 -0.0160447 -0.0161964 -0.0162645 -0.0162492 -0.0161509 -0.0159697 -0.0157056 -0.0153787 -0.0150093 -0.0145974 -0.0141431 -0.013667 -0.0131901 -0.0127123 -0.0122337 -0.0117591 -0.0112934 -0.0108367 -0.0103889 -0.00994103 -0.00948405 -0.00901793 -0.0085427 -0.00805051 -0.00753355 -0.00699182 -0.0064253 -0.00583995 -0.00524168 -0.0046305 -0.00400641 -0.00339138 -0.00280737 -0.00225439 -0.00173242 -0.0012668 -0.000882809 -0.000580465 -0.000359762 -0.000202366 -8.99406e-05 -2.24851e-05 0 0 6.97908e-06 2.79163e-05 6.28117e-05 0.000111665 0.000162773 0.000204432 0.000236641 0.000259402 0.00025737 0.000215204 0.000132903 1.04678e-05 -0.000154402 -0.000364008 -0.000618349 -0.000917425 -0.00125819 -0.00163759 -0.00205562 -0.00251229 -0.00300158 -0.00351746 -0.00405993 -0.00462898 -0.00521411 -0.00580478 -0.006401 -0.00700276 -0.00759357 -0.00815694 -0.00869286 -0.00920133 -0.00966386 -0.0100619 -0.0103956 -0.0106648 -0.0108597 -0.0109704 -0.0109971 -0.0109396 -0.010807 -0.0106083 -0.0103436 -0.0100127 -0.00964274 -0.00926057 -0.00886621 -0.00845965 -0.00807066 -0.00772899 -0.00743462 -0.00718758 -0.00700145 -0.00688988 -0.00685284 -0.00689034 -0.00699327 -0.00715249 -0.007368 -0.00763981 -0.00794833 -0.00827397 -0.00861672 -0.00897659 -0.00934346 -0.00970723 -0.0100679 -0.0104254 -0.0107867 -0.0111586 -0.011541 -0.0119341 -0.0123476 -0.0127915 -0.0132658 -0.0137704 -0.0142976 -0.0148393 -0.0153956 -0.0159666 -0.016524 -0.0170397 -0.0175138 -0.0179462 -0.018311 -0.0185821 -0.0187595 -0.0188433 -0.0188336 -0.0187305 -0.0185341 -0.0182444 -0.0178863 -0.0174847 -0.0170396 -0.0165511 -0.0160435 -0.0155414 -0.0150447 -0.0145535 -0.0140704 -0.0135984 -0.0131374 -0.0126873 -0.0122331 -0.0117596 -0.0112668 -0.0107546 -0.0102111 -0.00962407 -0.00899364 -0.00831975 -0.00761035 -0.00687336 -0.00610877 -0.0053166 -0.0045271 -0.00377054 -0.00304692 -0.00235625 -0.00173482 -0.00121896 -0.000808657 -0.000503918 -0.000283454 -0.000125979 -3.14949e-05 0 0 7.11321e-06 2.84528e-05 6.40189e-05 0.000113811 0.000162827 0.000196063 0.000213519 0.000215195 0.000183705 0.000101661 -3.0937e-05 -0.000214088 -0.000449922 -0.000740568 -0.00108603 -0.0014863 -0.00193751 -0.00243582 -0.00298121 -0.00357369 -0.00420599 -0.00487082 -0.0055682 -0.00629812 -0.0070476 -0.00780365 -0.00856627 -0.00933545 -0.0100904 -0.0108103 -0.0114951 -0.0121448 -0.012736 -0.0132452 -0.0136722 -0.0140172 -0.0142677 -0.0144115 -0.0144485 -0.0143788 -0.0142141 -0.0139662 -0.0136352 -0.0132211 -0.012758 -0.0122803 -0.0117879 -0.0112809 -0.0107959 -0.0103696 -0.0100021 -0.00969326 -0.00945807 -0.00931132 -0.00925303 -0.0092832 -0.0093871 -0.00955002 -0.00977197 -0.0100529 -0.0103656 -0.0106828 -0.0110043 -0.0113304 -0.0116478 -0.0119438 -0.0122183 -0.0124713 -0.0127147 -0.0129603 -0.013208 -0.013458 -0.0137286 -0.0140382 -0.0143869 -0.0147747 -0.015198 -0.0156533 -0.0161407 -0.0166601 -0.0171806 -0.0176713 -0.0181323 -0.0185635 -0.018934 -0.0192129 -0.0194001 -0.0194958 -0.0194995 -0.0194111 -0.0192305 -0.0189578 -0.0186217 -0.0182512 -0.0178463 -0.017407 -0.0169593 -0.0165296 -0.0161178 -0.0157239 -0.0153455 -0.01498 -0.0146274 -0.0142879 -0.0139368 -0.0135497 -0.0131266 -0.0126675 -0.0121542 -0.0115689 -0.0109114 -0.0101817 -0.00939007 -0.00854677 -0.00765176 -0.00670504 -0.00574716 -0.00481862 -0.00391944 -0.00304962 -0.00225951 -0.00159948 -0.00106953 -0.00066966 -0.000376684 -0.000167415 -4.18537e-05 0 0 6.05409e-06 2.42164e-05 5.44868e-05 9.68655e-05 0.000133047 0.000144726 0.000131903 9.4578e-05 1.47426e-05 -0.000125611 -0.000326482 -0.000587872 -0.000911028 -0.0012972 -0.00174639 -0.0022586 -0.0028291 -0.00345317 -0.00413082 -0.00486203 -0.00563871 -0.00645274 -0.00730414 -0.00819289 -0.00910405 -0.0100227 -0.0109488 -0.0118823 -0.0127984 -0.0136722 -0.0145036 -0.0152927 -0.0160109 -0.0166297 -0.0171491 -0.017569 -0.0178747 -0.0180513 -0.0180989 -0.0180175 -0.017822 -0.0175273 -0.0171334 -0.0166403 -0.0160899 -0.0155237 -0.0149419 -0.0143444 -0.0137743 -0.0132744 -0.0128448 -0.0124855 -0.0122106 -0.0120339 -0.0119557 -0.0119757 -0.0120709 -0.0122178 -0.0124166 -0.0126671 -0.012932 -0.0131736 -0.013392 -0.0135871 -0.0137429 -0.0138431 -0.0138877 -0.0138768 -0.0138299 -0.0137668 -0.0136874 -0.0135917 -0.013512 -0.0134806 -0.0134975 -0.0135627 -0.0136825 -0.0138634 -0.0141054 -0.0144084 -0.0147424 -0.0150774 -0.0154133 -0.0157502 -0.0160536 -0.0162888 -0.0164559 -0.0165548 -0.0165845 -0.016544 -0.0164331 -0.0162519 -0.0160315 -0.0158027 -0.0155657 -0.0153204 -0.015091 -0.014902 -0.0147531 -0.0146445 -0.0145634 -0.0144969 -0.014445 -0.0144079 -0.0143468 -0.0142232 -0.0140371 -0.0137886 -0.013451 -0.0129977 -0.0124288 -0.0117442 -0.0109567 -0.0100793 -0.00911179 -0.00805428 -0.00695996 -0.00588204 -0.00482053 -0.00377542 -0.00281495 -0.00200736 -0.00135265 -0.000850805 -0.000478578 -0.000212701 -5.31753e-05 0 0 3.80173e-06 1.52069e-05 3.42156e-05 6.08277e-05 7.34333e-05 5.04221e-05 -8.20565e-06 -0.00010245 -0.000249517 -0.000466611 -0.000753733 -0.00111088 -0.00153772 -0.00203391 -0.00259945 -0.00323434 -0.00393295 -0.00468965 -0.00550443 -0.00637731 -0.00729975 -0.00826322 -0.00926773 -0.0103133 -0.0113835 -0.0124619 -0.0135485 -0.0146433 -0.0157177 -0.0167427 -0.0177185 -0.0186449 -0.0194885 -0.0202156 -0.0208262 -0.0213202 -0.0216805 -0.0218899 -0.0219483 -0.0218558 -0.0216307 -0.0212915 -0.0208381 -0.0202705 -0.0196382 -0.0189907 -0.0183281 -0.0176503 -0.0170059 -0.0164435 -0.015963 -0.0155644 -0.0152589 -0.0150577 -0.0149607 -0.014968 -0.0150447 -0.0151559 -0.0153019 -0.0154824 -0.0156473 -0.0157463 -0.0157795 -0.0157469 -0.0156286 -0.015405 -0.0150761 -0.0146418 -0.0141324 -0.0135782 -0.0129792 -0.0123353 -0.0116981 -0.0111188 -0.0105976 -0.0101345 -0.00975115 -0.00946953 -0.00928961 -0.00921137 -0.00920927 -0.00925775 -0.0093568 -0.00950643 -0.00966974 -0.00980984 -0.00992673 -0.0100204 -0.0100886 -0.0101291 -0.0101418 -0.0101269 -0.0101155 -0.0101392 -0.0101978 -0.0102914 -0.0104387 -0.0106584 -0.0109506 -0.0113153 -0.0117242 -0.0121491 -0.0125902 -0.0130473 -0.013463 -0.0137801 -0.0139984 -0.014118 -0.0141012 -0.0139105 -0.0135458 -0.0130072 -0.0123103 -0.0114709 -0.0104889 -0.0093643 -0.0081655 -0.00696079 -0.00575017 -0.00453365 -0.00340115 -0.0024426 -0.001658 -0.00104735 -0.000589136 -0.000261838 -6.54596e-05 0 0 3.56134e-07 1.42453e-06 3.2052e-06 5.69814e-06 -1.60143e-05 -8.68496e-05 -0.000206808 -0.000375889 -0.000609073 -0.00092134 -0.00131269 -0.00178312 -0.00233 -0.00295069 -0.0036452 -0.00441351 -0.00524906 -0.00614524 -0.00710207 -0.00811953 -0.00918911 -0.0103023 -0.011459 -0.0126593 -0.0138858 -0.0151212 -0.0163654 -0.0176185 -0.0188481 -0.0200218 -0.0211396 -0.0222015 -0.0231689 -0.0240029 -0.0247035 -0.0252709 -0.0256853 -0.0259272 -0.0259967 -0.0258937 -0.0256403 -0.0252589 -0.0247492 -0.0241115 -0.023403 -0.0226814 -0.0219465 -0.0211985 -0.0204908 -0.0198768 -0.0193565 -0.0189299 -0.0186032 -0.0183827 -0.0182682 -0.0182599 -0.0183084 -0.0183643 -0.0184278 -0.0184987 -0.0185116 -0.0184011 -0.0181671 -0.0178096 -0.0173051 -0.0166297 -0.0157834 -0.0147664 -0.0136222 -0.0123945 -0.0110834 -0.00968876 -0.00828658 -0.00695272 -0.00568718 -0.00448996 -0.00340387 -0.0024717 -0.00169346 -0.00106914 -0.000581308 -0.000212525 3.72105e-05 0.000167899 0.000217494 0.000223951 0.000187269 0.000107449 -1.17187e-05 -0.000166441 -0.000356719 -0.000582553 -0.000873843 -0.00126049 -0.0017425 -0.00231986 -0.00300217 -0.00379898 -0.00471031 -0.00573614 -0.00682783 -0.00793672 -0.00906279 -0.010206 -0.0112855 -0.0122203 -0.0130103 -0.0136556 -0.014105 -0.0143073 -0.0142626 -0.0139708 -0.0134509 -0.0127216 -0.011783 -0.0106351 -0.00936378 -0.00805487 -0.00670838 -0.00532432 -0.00401811 -0.00290521 -0.00198561 -0.0012593 -0.000708359 -0.000314826 -7.87065e-05 0 0 -4.4111e-06 -1.76444e-05 -3.96999e-05 -7.05776e-05 -0.000138158 -0.00027032 -0.000467064 -0.000728391 -0.00106497 -0.00148747 -0.0019959 -0.00259024 -0.00326447 -0.00401253 -0.00483442 -0.00573015 -0.00669211 -0.00771271 -0.00879195 -0.00992982 -0.0111187 -0.0123509 -0.0136264 -0.0149452 -0.0162904 -0.017645 -0.0190089 -0.0203822 -0.0217299 -0.0230174 -0.0242445 -0.0254112 -0.0264745 -0.027391 -0.0281608 -0.0287839 -0.0292388 -0.0295039 -0.0295793 -0.0294648 -0.0291869 -0.0287719 -0.0282196 -0.0275301 -0.0267687 -0.0260006 -0.0252257 -0.024444 -0.0237123 -0.0230873 -0.0225688 -0.022157 -0.0218496 -0.0216446 -0.0215419 -0.0215415 -0.0215754 -0.0215754 -0.0215415 -0.0214737 -0.021288 -0.0209 -0.0203099 -0.0195177 -0.0184951 -0.017214 -0.0156744 -0.0138763 -0.0118806 -0.00974812 -0.00747889 -0.00507289 -0.00263778 -0.000281184 0.00199689 0.00419644 0.00624612 0.00807457 0.00968181 0.0110678 0.0122371 0.0131943 0.0139393 0.0144722 0.0148303 0.0150512 0.0151349 0.0150813 0.0148962 0.0145854 0.0141488 0.0135866 0.0128723 0.0119796 0.0109085 0.00965908 0.0082354 0.00664164 0.00487781 0.00294391 0.000915755 -0.00113083 -0.00319585 -0.0052793 -0.00727035 -0.00905816 -0.0106427 -0.0120241 -0.0131342 -0.0139053 -0.0143373 -0.0144301 -0.0142064 -0.0136888 -0.0128771 -0.0117715 -0.0104783 -0.00910407 -0.0076488 -0.00611248 -0.00464027 -0.00337736 -0.00232373 -0.00147939 -0.000832158 -0.000369848 -9.2462e-05 0 0 -1.06284e-05 -4.25135e-05 -9.56553e-05 -0.000170054 -0.000295859 -0.000503219 -0.000792136 -0.00116261 -0.00161825 -0.00216268 -0.0027959 -0.00351791 -0.00431774 -0.00518441 -0.00611792 -0.00711828 -0.00817681 -0.00928482 -0.0104423 -0.0116493 -0.0129004 -0.01419 -0.0155184 -0.0168854 -0.0182765 -0.0196775 -0.0210881 -0.0225086 -0.0239035 -0.0252375 -0.0265106 -0.0277228 -0.0288279 -0.0297796 -0.0305777 -0.0312224 -0.0316909 -0.0319605 -0.0320312 -0.031903 -0.0316067 -0.031173 -0.0306018 -0.0298933 -0.0291197 -0.0283533 -0.0275939 -0.0268418 -0.026154 -0.0255879 -0.0251435 -0.0248207 -0.0246044 -0.0244793 -0.0244455 -0.0245029 -0.024559 -0.0245215 -0.0243902 -0.0241653 -0.0237394 -0.0230054 -0.0219633 -0.0206132 -0.0189215 -0.016855 -0.0144136 -0.0115974 -0.00848913 -0.00517156 -0.0016447 0.00209144 0.00588822 0.00959697 0.0132177 0.0167504 0.0200856 0.0231138 0.0258349 0.028249 0.0303417 0.0320988 0.0335202 0.0346059 0.035391 0.0359107 0.0361649 0.0361536 0.0358852 0.0353678 0.0346014 0.0335861 0.0323016 0.0307275 0.0288638 0.0267105 0.024291 0.0216288 0.0187238 0.015576 0.0122968 0.00899734 0.00567774 0.00233795 -0.000873438 -0.00380787 -0.00646533 -0.00884584 -0.0108607 -0.0124214 -0.0135279 -0.0141801 -0.0144051 -0.0142298 -0.0136541 -0.0126781 -0.0114325 -0.0100482 -0.00852507 -0.0068632 -0.00524208 -0.00384124 -0.00266066 -0.00170035 -0.000956446 -0.000425087 -0.000106272 0 0 -1.82957e-05 -7.31827e-05 -0.000164661 -0.000292731 -0.000489118 -0.000785548 -0.00118202 -0.00167854 -0.00226892 -0.00294697 -0.00371271 -0.00456612 -0.0054898 -0.00646632 -0.00749569 -0.0085779 -0.00970314 -0.0108616 -0.0120532 -0.013278 -0.0145341 -0.0158198 -0.017135 -0.0184797 -0.0198442 -0.0212187 -0.0226032 -0.0239978 -0.0253686 -0.026682 -0.0279379 -0.0291364 -0.0302293 -0.0311686 -0.0319542 -0.0325863 -0.0330416 -0.033297 -0.0333525 -0.0332082 -0.0328996 -0.0324622 -0.031896 -0.0312011 -0.030456 -0.0297394 -0.0290513 -0.0283918 -0.0278159 -0.0273788 -0.0270806 -0.0269212 -0.0268676 -0.0268869 -0.026979 -0.0271439 -0.0272593 -0.0272026 -0.0269739 -0.0265732 -0.0258658 -0.0247172 -0.0231273 -0.0210962 -0.0185844 -0.0155527 -0.0120012 -0.00792973 -0.00344779 0.00133518 0.00641919 0.0118042 0.0172914 0.0226818 0.0279753 0.033172 0.0381146 0.0426459 0.0467658 0.0504744 0.0537324 0.0565009 0.0587797 0.060569 0.0618995 0.0628023 0.0632773 0.0633245 0.0629552 0.0621807 0.061001 0.0594161 0.0574141 0.0549831 0.0521232 0.0488343 0.0451646 0.0411624 0.0368275 0.0321601 0.0273152 0.0224478 0.017558 0.0126457 0.00790519 0.00353057 -0.00047814 -0.00412094 -0.00728458 -0.00985578 -0.0118346 -0.0132209 -0.0140469 -0.0143446 -0.0141139 -0.0133549 -0.0122264 -0.0108872 -0.00933718 -0.00757648 -0.00582354 -0.00429684 -0.00299639 -0.00192218 -0.00108122 -0.000480544 -0.000120136 0 0 -2.7413e-05 -0.000109652 -0.000246717 -0.000438608 -0.000717935 -0.00111731 -0.00163672 -0.00227619 -0.00301697 -0.00384034 -0.00474631 -0.00573487 -0.00678065 -0.00785827 -0.00896773 -0.010109 -0.0112711 -0.0124429 -0.0136245 -0.0148159 -0.01602 -0.0172402 -0.0184762 -0.0197282 -0.0209933 -0.0222686 -0.0235541 -0.0248497 -0.0261254 -0.027351 -0.0285264 -0.0296518 -0.0306785 -0.031558 -0.0322904 -0.0328756 -0.0332908 -0.0335134 -0.0335432 -0.0333804 -0.0330656 -0.0326395 -0.032102 -0.0314533 -0.0307775 -0.0301591 -0.0295979 -0.029094 -0.0286978 -0.0284598 -0.02838 -0.0284583 -0.0286392 -0.0288673 -0.0291425 -0.0294647 -0.0296761 -0.0296187 -0.0292926 -0.0286976 -0.0276673 -0.0260354 -0.0238019 -0.0209666 -0.0174838 -0.0133072 -0.00843704 -0.00287323 0.00324342 0.0097721 0.0167128 0.0240655 0.0315718 0.0389732 0.0462696 0.0534611 0.0603331 0.0666709 0.0724745 0.0777439 0.0824093 0.0864006 0.089718 0.0923615 0.0943558 0.095726 0.096472 0.0965939 0.0961063 0.0950243 0.0933476 0.0910765 0.0882098 0.0847466 0.0806868 0.0760306 0.0708563 0.0652425 0.0591891 0.0526963 0.045971 0.0392205 0.0324449 0.025644 0.0190655 0.0129572 0.00731885 0.00215063 -0.00240571 -0.00620833 -0.00925725 -0.0115525 -0.0131318 -0.0140332 -0.0142566 -0.013802 -0.01286 -0.011621 -0.0100852 -0.00825233 -0.00638464 -0.00474417 -0.00333092 -0.00214487 -0.00120649 -0.000536218 -0.000134055 0 0 -3.77423e-05 -0.000150969 -0.000339681 -0.000603877 -0.000975905 -0.00148811 -0.0021405 -0.00293307 -0.00383127 -0.00480053 -0.00584086 -0.00695225 -0.00809932 -0.00924666 -0.0103943 -0.0115422 -0.0126779 -0.0137889 -0.0148753 -0.015937 -0.0169841 -0.0180265 -0.0190641 -0.0200971 -0.0211328 -0.0221786 -0.0232346 -0.0243008 -0.025354 -0.0263714 -0.0273527 -0.0282981 -0.0291611 -0.0298951 -0.0305003 -0.0309765 -0.0313027 -0.0314579 -0.0314421 -0.0312553 -0.0309438 -0.0305536 -0.0300849 -0.0295376 -0.0290003 -0.0285619 -0.0282222 -0.0279812 -0.0278808 -0.0279626 -0.0282267 -0.0286731 -0.0292173 -0.0297752 -0.0303466 -0.0309316 -0.0313298 -0.031341 -0.0309651 -0.0302022 -0.028849 -0.0267023 -0.0237622 -0.0200286 -0.0154484 -0.00996816 -0.00358798 0.00369215 0.0116943 0.0202407 0.0293311 0.0389658 0.0488159 0.058553 0.068177 0.077688 0.0868039 0.0952427 0.103004 0.110089 0.116391 0.121805 0.126331 0.129968 0.132736 0.134652 0.135716 0.135928 0.135308 0.133873 0.131625 0.128563 0.124697 0.12004 0.114591 0.10835 0.10143 0.0939438 0.085892 0.0772744 0.0683583 0.0594113 0.0504334 0.0414245 0.0326945 0.0245532 0.0170006 0.0100367 0.00383653 -0.00142507 -0.00574806 -0.00913246 -0.0116227 -0.0132631 -0.0140537 -0.0139946 -0.0133119 -0.0122316 -0.0107539 -0.00887862 -0.00691606 -0.00517632 -0.00365941 -0.00236533 -0.0013305 -0.000591332 -0.000147833 0 0 -4.90455e-05 -0.000196182 -0.000441409 -0.000784727 -0.00125663 -0.00188759 -0.00267763 -0.00362673 -0.00468068 -0.00578527 -0.00694049 -0.00814634 -0.0093548 -0.0105179 -0.0116356 -0.0127079 -0.0137205 -0.0146594 -0.0155244 -0.0163156 -0.0170524 -0.0177541 -0.0184208 -0.0190524 -0.0196714 -0.0203002 -0.0209388 -0.0215873 -0.0222347 -0.02287 -0.0234932 -0.0241044 -0.0246626 -0.0251272 -0.025498 -0.0257751 -0.0259412 -0.0259788 -0.025888 -0.0256687 -0.0253731 -0.0250534 -0.0247095 -0.0243415 -0.0240405 -0.0238976 -0.0239128 -0.0240862 -0.0244455 -0.0250187 -0.0258056 -0.0268064 -0.0279 -0.0289653 -0.0300022 -0.0310109 -0.0317405 -0.0319404 -0.0316104 -0.0307507 -0.0291157 -0.02646 -0.0227835 -0.0180861 -0.0123071 -0.0053853 0.00267922 0.0118865 0.0220147 0.0328423 0.0443693 0.0565955 0.0691104 0.0815032 0.093774 0.105923 0.11759 0.128415 0.138399 0.147541 0.155697 0.162721 0.168614 0.173374 0.177016 0.179549 0.180976 0.181295 0.180529 0.178703 0.175817 0.17187 0.166885 0.160885 0.153871 0.145842 0.136948 0.127341 0.11702 0.105984 0.0945712 0.0831159 0.0716185 0.0600789 0.0488789 0.0383999 0.028642 0.0196052 0.0115028 0.00454802 -0.00125914 -0.00591866 -0.00948227 -0.0120017 -0.0134769 -0.0139079 -0.0135605 -0.0127006 -0.0113282 -0.00944327 -0.00740844 -0.00558636 -0.00397703 -0.00258044 -0.0014515 -0.000645109 -0.000161277 0 0 -6.13225e-05 -0.00024529 -0.000551903 -0.00098116 -0.00156009 -0.00231574 -0.00324809 -0.00435715 -0.00556521 -0.00679456 -0.0080452 -0.00931712 -0.0105471 -0.0116719 -0.0126916 -0.0136061 -0.0143992 -0.0150544 -0.0155719 -0.0159517 -0.016225 -0.0164231 -0.0165461 -0.0165941 -0.016609 -0.0166332 -0.0166667 -0.0167093 -0.0167673 -0.0168469 -0.0169479 -0.0170705 -0.0171831 -0.0172541 -0.0172836 -0.0172716 -0.0172064 -0.0170761 -0.0168808 -0.0166205 -0.0163537 -0.0161389 -0.015976 -0.0158651 -0.0158979 -0.0161661 -0.0166698 -0.0174088 -0.018392 -0.019628 -0.0211168 -0.0228584 -0.0246872 -0.0264375 -0.0281093 -0.0297026 -0.0309082 -0.0314168 -0.0312285 -0.0303433 -0.0284677 -0.0253085 -0.0208657 -0.0151392 -0.00805989 0.000441361 0.0103646 0.0217097 0.0342047 0.0475771 0.0618272 0.0769548 0.0924552 0.107824 0.12306 0.138165 0.15269 0.166188 0.178658 0.190101 0.200327 0.209149 0.216567 0.22258 0.227195 0.230419 0.232251 0.232692 0.231771 0.229514 0.225923 0.220998 0.214773 0.207283 0.198527 0.188507 0.177412 0.165434 0.152572 0.138826 0.12461 0.110334 0.0960001 0.0816073 0.0676187 0.0544973 0.0422431 0.0308561 0.0205931 0.0117109 0.00420953 -0.00191107 -0.00671064 -0.010249 -0.012526 -0.0135418 -0.0136059 -0.0130281 -0.0118082 -0.00994625 -0.0078618 -0.00597431 -0.00428377 -0.00279019 -0.00156948 -0.000697549 -0.000174387 0 0 -7.45735e-05 -0.000298294 -0.000671161 -0.00119318 -0.00188631 -0.00277255 -0.0038519 -0.00512434 -0.00648485 -0.0078284 -0.00915499 -0.0104646 -0.0116762 -0.0127088 -0.0135624 -0.0142369 -0.0147137 -0.014974 -0.0150178 -0.0148451 -0.0145017 -0.0140335 -0.0134403 -0.0127222 -0.0119458 -0.0111778 -0.0104181 -0.00966675 -0.00895199 -0.00830203 -0.00771689 -0.00719657 -0.00672246 -0.00627599 -0.00585714 -0.00546591 -0.00509816 -0.0047497 -0.00442056 -0.00411072 -0.00388542 -0.00380993 -0.00388424 -0.00410834 -0.00457264 -0.00536755 -0.00649306 -0.00794917 -0.00972022 -0.0117905 -0.0141601 -0.016829 -0.019579 -0.022192 -0.0246679 -0.0270068 -0.0288329 -0.0297705 -0.0298194 -0.0289798 -0.0269049 -0.0232479 -0.0180088 -0.0111877 -0.00270678 0.00751182 0.0194681 0.033162 0.0482641 0.0644451 0.0817049 0.100044 0.11885 0.137515 0.156036 0.174415 0.192106 0.208561 0.223782 0.237767 0.250281 0.261089 0.27019 0.277585 0.283274 0.28726 0.289543 0.290122 0.289032 0.286306 0.281944 0.275947 0.268361 0.259232 0.24856 0.236345 0.222821 0.208222 0.192549 0.1758 0.158474 0.141066 0.123578 0.10601 0.088914 0.0728455 0.0578039 0.0437894 0.0311075 0.0200637 0.0106579 0.00289032 -0.00330778 -0.00800493 -0.0112011 -0.0128964 -0.0134482 -0.013214 -0.0121938 -0.0103876 -0.00827613 -0.00634015 -0.00457964 -0.0029946 -0.00168446 -0.000748651 -0.000187163 0 0 -8.84067e-05 -0.000353627 -0.00079566 -0.00141451 -0.00222512 -0.00324244 -0.00446647 -0.00589722 -0.00739817 -0.00883281 -0.0102011 -0.0115032 -0.0126369 -0.0135003 -0.0140935 -0.0144163 -0.0144471 -0.0141642 -0.0135674 -0.012657 -0.0114962 -0.0101484 -0.0086137 -0.00689204 -0.00508067 -0.00327682 -0.00148049 0.000308307 0.00203275 0.003636 0.00511805 0.00647892 0.00771979 0.00884189 0.0098452 0.01072