<?xml version="1.0"?> 
<VTKFile type="StructuredGrid" version="0.1"> 
<StructuredGrid WholeExtent="0 128 0 128 0 0"> 
<Piece Extent="0 128 0 128 0 0"> 
<PointData>
<DataArray type="Float32" Name="u" format="ascii" NumberOfComponents="1"> 
0 0 0 0 0 0 0 0 0 0 0 0 0 0 0 0 0 0 0 0 0 0 0 0 0 0 0 0 0 0 0 0 0 0 0 0 0 0 0 0 0 0 0 0 0 0 0 0 0 0 0 0 0 0 0 0 0 0 0 0 0 0 0 0 0 0 0 0 0 0 0 0 0 0 0 0 0 0 0 0 0 0 0 0 0 0 0 0 0 0 0 0 0 0 0 0 0 0 0 0 0 0 0 0 0 0 0 0 0 0 0 0 0 0 0 0 0 0 0 0 0 0 0 0 0 0 0 0 0 0 -2.33087e-08 -9.32347e-08 -2.09778e-07 -3.72939e-07 -7.91222e-07 -1.67313e-06 -3.01868e-06 -4.82784e-06 -7.15911e-06 -1.0071e-05 -1.35634e-05 -1.76363e-05 -2.22508e-05 -2.73677e-05 -3.29871e-05 -3.91088e-05 -4.56828e-05 -5.2659e-05 -6.00374e-05 -6.78179e-05 -7.59049e-05 -8.42027e-05 -9.27113e-05 -0.000101431 -0.000110196 -0.000118843 -0.000127371 -0.000135781 -0.00014387 -0.000151436 -0.00015848 -0.000165 -0.000170838 -0.000175833 -0.000179986 -0.000183296 -0.000185729 -0.000187254 -0.000187869 -0.000187574 -0.000186496 -0.000184759 -0.000182363 -0.000179309 -0.000175832 -0.000172165 -0.000168309 -0.000164264 -0.000160263 -0.000156538 -0.000153089 -0.000149916 -0.000147138 -0.000144873 -0.00014312 -0.00014188 -0.000141107 -0.000140754 -0.000140823 -0.000141313 -0.000142054 -0.000142878 -0.000143786 -0.000144776 -0.000145669 -0.000146281 -0.000146613 -0.000146666 -0.000146361 -0.000145619 -0.000144441 -0.000142826 -0.000140848 -0.000138578 -0.000136018 -0.000133167 -0.0001302 -0.000127292 -0.000124442 -0.000121651 -0.00011909 -0.000116929 -0.000115167 -0.000113806 -0.000112922 -0.000112592 -0.000112815 -0.000113593 -0.000114876 -0.000116617 -0.000118815 -0.000121471 -0.000124429 -0.000127534 -0.000130786 -0.000134186 -0.000137517 -0.000140563 -0.000143324 -0.000145801 -0.00014778 -0.000149048 -0.000149607 -0.000149454 -0.000148453 -0.000146464 -0.000143487 -0.000139523 -0.000134568 -0.000128619 -0.000121678 -0.000113743 -0.000105003 -9.56466e-05 -8.56739e-05 -7.50846e-05 -6.43373e-05 -5.38902e-05 -4.37433e-05 -3.38967e-05 -2.4959e-05 -1.7539e-05 -1.16366e-05 -7.25187e-06 -4.07918e-06 -1.81297e-06 -4.53242e-07 0 0 -9.32347e-08 -3.72939e-07 -8.39112e-07 -1.49175e-06 -3.16489e-06 -6.69254e-06 -1.20747e-05 -1.93114e-05 -2.86365e-05 -4.02838e-05 -5.42535e-05 -7.05454e-05 -8.90033e-05 -0.000109471 -0.000131948 -0.000156435 -0.000182731 -0.000210636 -0.00024015 -0.000271272 -0.00030362 -0.000336811 -0.000370845 -0.000405723 -0.000440784 -0.000475372 -0.000509485 -0.000543124 -0.000575481 -0.000605745 -0.000633919 -0.000660001 -0.000683352 -0.000703333 -0.000719943 -0.000733182 -0.000742918 -0.000749015 -0.000751475 -0.000750297 -0.000745983 -0.000739035 -0.000729453 -0.000717237 -0.000703327 -0.00068866 -0.000673236 -0.000657057 -0.000641052 -0.000626152 -0.000612356 -0.000599665 -0.000588552 -0.00057949 -0.000572479 -0.00056752 -0.000564427 -0.000563018 -0.000563292 -0.00056525 -0.000568216 -0.000571514 -0.000575144 -0.000579106 -0.000582674 -0.000585123 -0.000586454 -0.000586665 -0.000585443 -0.000582476 -0.000577763 -0.000571304 -0.000563391 -0.000554314 -0.000544073 -0.000532669 -0.000520801 -0.000509167 -0.000497769 -0.000486605 -0.00047636 -0.000467714 -0.000460669 -0.000455224 -0.000451687 -0.000450366 -0.000451261 -0.000454371 -0.000459504 -0.000466467 -0.00047526 -0.000485883 -0.000497715 -0.000510136 -0.000523145 -0.000536744 -0.000550067 -0.000562252 -0.000573297 -0.000583203 -0.000591119 -0.000596194 -0.000598426 -0.000597817 -0.000593812 -0.000585855 -0.000573949 -0.000558091 -0.000538271 -0.000514478 -0.000486711 -0.000454971 -0.000420012 -0.000382587 -0.000342695 -0.000300338 -0.000257349 -0.000215561 -0.000174973 -0.000135587 -9.98362e-05 -7.01561e-05 -4.65465e-05 -2.90075e-05 -1.63167e-05 -7.25187e-06 -1.81297e-06 0 0 -2.09778e-07 -8.39112e-07 -1.888e-06 -3.35645e-06 -7.121e-06 -1.50582e-05 -2.71681e-05 -4.34506e-05 -6.4432e-05 -9.06386e-05 -0.00012207 -0.000158727 -0.000200257 -0.00024631 -0.000296883 -0.000351979 -0.000411145 -0.000473931 -0.000540337 -0.000610361 -0.000683144 -0.000757824 -0.000834401 -0.000912876 -0.000991765 -0.00106959 -0.00114634 -0.00122203 -0.00129483 -0.00136293 -0.00142632 -0.001485 -0.00153754 -0.0015825 -0.00161987 -0.00164966 -0.00167157 -0.00168528 -0.00169082 -0.00168817 -0.00167846 -0.00166283 -0.00164127 -0.00161378 -0.00158248 -0.00154948 -0.00151478 -0.00147838 -0.00144237 -0.00140884 -0.0013778 -0.00134925 -0.00132424 -0.00130385 -0.00128808 -0.00127692 -0.00126996 -0.00126679 -0.00126741 -0.00127181 -0.00127849 -0.00128591 -0.00129407 -0.00130299 -0.00131102 -0.00131653 -0.00131952 -0.00132 -0.00131725 -0.00131057 -0.00129997 -0.00128543 -0.00126763 -0.00124721 -0.00122416 -0.00119851 -0.0011718 -0.00114563 -0.00111998 -0.00109486 -0.00107181 -0.00105236 -0.0010365 -0.00102425 -0.0010163 -0.00101332 -0.00101534 -0.00102233 -0.00103388 -0.00104955 -0.00106933 -0.00109324 -0.00111986 -0.00114781 -0.00117708 -0.00120767 -0.00123765 -0.00126507 -0.00128992 -0.00131221 -0.00133002 -0.00134144 -0.00134646 -0.00134509 -0.00133608 -0.00131817 -0.00129138 -0.0012557 -0.00121111 -0.00115757 -0.0010951 -0.00102369 -0.000945027 -0.00086082 -0.000771065 -0.000675762 -0.000579035 -0.000485011 -0.00039369 -0.00030507 -0.000224631 -0.000157851 -0.00010473 -6.52668e-05 -3.67126e-05 -1.63167e-05 -4.07918e-06 0 0 -3.72939e-07 -1.49175e-06 -3.35645e-06 -5.96702e-06 -1.26596e-05 -2.67702e-05 -4.82988e-05 -7.72455e-05 -0.000114546 -0.000161135 -0.000217014 -0.000282182 -0.000356013 -0.000437884 -0.000527793 -0.000625741 -0.000730925 -0.000842545 -0.000960598 -0.00108509 -0.00121448 -0.00134724 -0.00148338 -0.00162289 -0.00176314 -0.00190149 -0.00203794 -0.0021725 -0.00230192 -0.00242298 -0.00253568 -0.00264 -0.00273341 -0.00281333 -0.00287977 -0.00293273 -0.00297167 -0.00299606 -0.0030059 -0.00300119 -0.00298393 -0.00295614 -0.00291781 -0.00286895 -0.00281331 -0.00275464 -0.00269295 -0.00262823 -0.00256421 -0.00250461 -0.00244942 -0.00239866 -0.00235421 -0.00231796 -0.00228992 -0.00227008 -0.00225771 -0.00225207 -0.00225317 -0.002261 -0.00227286 -0.00228606 -0.00230058 -0.00231642 -0.0023307 -0.00234049 -0.00234581 -0.00234666 -0.00234177 -0.0023299 -0.00231105 -0.00228522 -0.00225356 -0.00221725 -0.00217629 -0.00213068 -0.0020832 -0.00203667 -0.00199108 -0.00194642 -0.00190544 -0.00187086 -0.00184268 -0.0018209 -0.00180675 -0.00180146 -0.00180504 -0.00181748 -0.00183802 -0.00186587 -0.00190104 -0.00194353 -0.00199086 -0.00204054 -0.00209258 -0.00214698 -0.00220027 -0.00224901 -0.00229319 -0.00233281 -0.00236448 -0.00238477 -0.0023937 -0.00239127 -0.00237525 -0.00234342 -0.00229579 -0.00223236 -0.00215308 -0.00205791 -0.00194684 -0.00181989 -0.00168005 -0.00153035 -0.00137078 -0.00120135 -0.0010294 -0.000862243 -0.000699893 -0.000542347 -0.000399345 -0.000280624 -0.000186186 -0.00011603 -6.52668e-05 -2.90075e-05 -7.25187e-06 0 0 -8.31573e-07 -3.32629e-06 -7.48416e-06 -1.33052e-05 -2.59348e-05 -5.05185e-05 -8.70563e-05 -0.000135548 -0.000197233 -0.000273349 -0.000363897 -0.000468877 -0.000587225 -0.000717878 -0.000860836 -0.0010161 -0.00118236 -0.00135832 -0.00154397 -0.00173931 -0.00194195 -0.00214949 -0.00236194 -0.00257928 -0.00279747 -0.00301245 -0.0032242 -0.00343275 -0.00363313 -0.00382042 -0.0039946 -0.00415569 -0.00429981 -0.0044231 -0.00452556 -0.00460719 -0.00466725 -0.00470501 -0.00472047 -0.00471363 -0.00468764 -0.00464565 -0.00458768 -0.00451371 -0.00442951 -0.00434085 -0.00424773 -0.00415015 -0.0040537 -0.00396398 -0.00388099 -0.00380473 -0.00373784 -0.00368298 -0.00364014 -0.00360932 -0.00358903 -0.00357778 -0.00357555 -0.00358236 -0.00359368 -0.00360499 -0.0036163 -0.00362759 -0.00363422 -0.00363154 -0.00361955 -0.00359824 -0.0035659 -0.00352077 -0.00346286 -0.00339217 -0.00331116 -0.00322227 -0.00312551 -0.00302087 -0.00291365 -0.00280914 -0.00270733 -0.00260823 -0.00251699 -0.00243878 -0.0023736 -0.00232145 -0.00228477 -0.00226603 -0.00226523 -0.00228235 -0.00231617 -0.00236545 -0.00243018 -0.00251036 -0.00260154 -0.00269927 -0.00280354 -0.00291435 -0.00302542 -0.00313044 -0.00322941 -0.00332234 -0.00340302 -0.00346524 -0.003509 -0.0035343 -0.00353709 -0.00351332 -0.00346297 -0.00338606 -0.00328235 -0.00315159 -0.00299379 -0.00280895 -0.00260194 -0.00237767 -0.00213612 -0.00187731 -0.00161295 -0.00135478 -0.00110281 -0.000857034 -0.000633072 -0.000446552 -0.000297472 -0.000185834 -0.000104532 -4.64586e-05 -1.16147e-05 0 0 -1.83454e-06 -7.33815e-06 -1.65108e-05 -2.93526e-05 -5.3101e-05 -9.49935e-05 -0.00015503 -0.000233211 -0.000330749 -0.000448856 -0.000587534 -0.000746781 -0.000924846 -0.00111998 -0.00133217 -0.00156143 -0.00180575 -0.00206309 -0.00233348 -0.0026169 -0.00290989 -0.00320901 -0.00351423 -0.00382558 -0.00413734 -0.00444383 -0.00474505 -0.005041 -0.00532484 -0.00558974 -0.00583571 -0.00606274 -0.0062656 -0.00643907 -0.00658315 -0.00669782 -0.0067823 -0.00683578 -0.00685827 -0.00684975 -0.00681482 -0.00675805 -0.00667946 -0.00657903 -0.00646481 -0.00634485 -0.00621914 -0.00608769 -0.00595798 -0.00583751 -0.00572628 -0.00562428 -0.00553454 -0.00546008 -0.00540089 -0.00535698 -0.0053253 -0.00530282 -0.00528953 -0.00528544 -0.00528328 -0.00527576 -0.00526288 -0.00524466 -0.00521408 -0.00516417 -0.00509493 -0.00500634 -0.00489649 -0.00476346 -0.00460723 -0.00442782 -0.00423038 -0.00402006 -0.00379686 -0.00356078 -0.0033218 -0.00308988 -0.00286502 -0.00264722 -0.00244621 -0.0022717 -0.0021237 -0.0020022 -0.0019121 -0.00185828 -0.00184074 -0.00185948 -0.00191263 -0.00199832 -0.00211655 -0.00226731 -0.00244272 -0.00263489 -0.00284382 -0.00306951 -0.0033006 -0.00352573 -0.0037449 -0.00395812 -0.00415418 -0.00432187 -0.00446119 -0.00457215 -0.00464739 -0.00467958 -0.00466872 -0.00461481 -0.00451707 -0.00437473 -0.00418779 -0.00395625 -0.00368759 -0.0033893 -0.00306137 -0.00270381 -0.00233421 -0.00197017 -0.00161168 -0.00125875 -0.00093491 -0.000663709 -0.000445145 -0.000279218 -0.00015706 -6.98045e-05 -1.74511e-05 0 0 -3.38183e-06 -1.35273e-05 -3.04365e-05 -5.41093e-05 -9.4158e-05 -0.000160195 -0.00025222 -0.000370233 -0.000515093 -0.000687656 -0.000887923 -0.00111589 -0.00136888 -0.00164418 -0.0019418 -0.00226175 -0.00260108 -0.00295687 -0.00332913 -0.00371785 -0.0041183 -0.00452578 -0.00494026 -0.00536177 -0.00578275 -0.00619565 -0.00660049 -0.00699725 -0.00737704 -0.00773095 -0.00805899 -0.00836116 -0.00863079 -0.00886125 -0.00905254 -0.00920464 -0.00931684 -0.00938839 -0.0094193 -0.00940956 -0.00936548 -0.00929334 -0.00919315 -0.00906492 -0.00891922 -0.00876664 -0.00860718 -0.00844084 -0.00827704 -0.00812519 -0.00798528 -0.00785731 -0.0077443 -0.00764925 -0.00757217 -0.00751304 -0.00746651 -0.0074272 -0.00739511 -0.00737025 -0.00734164 -0.00729834 -0.00724034 -0.00716763 -0.00707029 -0.0069384 -0.00677195 -0.00657095 -0.00633356 -0.00605797 -0.00574417 -0.00539216 -0.00501122 -0.00461062 -0.00419035 -0.00375041 -0.00330765 -0.00287889 -0.00246415 -0.00206341 -0.0016931 -0.00136962 -0.00109298 -0.000863168 -0.000688732 -0.000578203 -0.000531583 -0.00054887 -0.000627396 -0.00076449 -0.000960155 -0.00121439 -0.0015144 -0.00184742 -0.00221343 -0.00261244 -0.0030258 -0.00343487 -0.00383966 -0.00424015 -0.00461796 -0.00495466 -0.00525028 -0.00550479 -0.00570613 -0.00584221 -0.00591303 -0.00591859 -0.00585724 -0.00572732 -0.00552883 -0.00526178 -0.00493698 -0.00456522 -0.00414652 -0.00368087 -0.00319318 -0.00270839 -0.0022265 -0.00174749 -0.00130486 -0.000932098 -0.000629205 -0.000396181 -0.000222852 -9.90452e-05 -2.47613e-05 0 0 -5.47346e-06 -2.18938e-05 -4.92611e-05 -8.75753e-05 -0.000149106 -0.000246123 -0.000378626 -0.000546616 -0.000750265 -0.000989749 -0.00126507 -0.00157622 -0.00191932 -0.00229049 -0.00268973 -0.00311703 -0.00356836 -0.00403965 -0.00453092 -0.00504216 -0.00556718 -0.00609981 -0.00664003 -0.00718786 -0.00773369 -0.0082679 -0.00879051 -0.0093015 -0.00978974 -0.0102441 -0.0106645 -0.0110509 -0.0113954 -0.0116896 -0.0119337 -0.0121276 -0.0122709 -0.0123628 -0.0124036 -0.0123931 -0.0123396 -0.0122515 -0.0121288 -0.0119714 -0.0117927 -0.0116062 -0.0114118 -0.0112096 -0.0110109 -0.010827 -0.010658 -0.0105038 -0.0103671 -0.0102505 -0.010154 -0.0100775 -0.0100127 -0.00995091 -0.00989228 -0.00983677 -0.00976879 -0.00967275 -0.00954865 -0.00939651 -0.00920285 -0.00895422 -0.00865063 -0.00829207 -0.00787711 -0.00740431 -0.00687367 -0.0062852 -0.00565369 -0.00499395 -0.00430597 -0.00358975 -0.00287119 -0.00217618 -0.00150471 -0.000856791 -0.000257652 0.000267469 0.000718574 0.00109566 0.00138534 0.0015742 0.00166225 0.00164949 0.00153954 0.00133605 0.001039 0.00064841 0.00018341 -0.000336849 -0.000912369 -0.00154315 -0.00220103 -0.00285788 -0.00351368 -0.00416843 -0.00479434 -0.00536362 -0.00587625 -0.00633225 -0.00671333 -0.00700121 -0.00719591 -0.00729742 -0.00730286 -0.00720936 -0.00701693 -0.00672556 -0.00635012 -0.00590545 -0.00539157 -0.00480847 -0.00418987 -0.00356946 -0.00294726 -0.00232325 -0.00174292 -0.00125172 -0.000849651 -0.000536722 -0.000301906 -0.000134181 -3.35451e-05 0 0 -8.21679e-06 -3.28672e-05 -7.39511e-05 -0.000131469 -0.000220387 -0.000355674 -0.000537329 -0.000765352 -0.00103851 -0.00135557 -0.00171654 -0.0021214 -0.00256466 -0.00304082 -0.00354986 -0.00409178 -0.00466121 -0.00525275 -0.00586639 -0.00650214 -0.00715235 -0.00780936 -0.00847318 -0.00914379 -0.00980976 -0.0104596 -0.0110934 -0.011711 -0.0122996 -0.0128461 -0.0133504 -0.0138127 -0.0142237 -0.0145745 -0.0148649 -0.0150949 -0.0152648 -0.0153745 -0.0154241 -0.0154135 -0.0153533 -0.0152538 -0.0151151 -0.014937 -0.0147357 -0.014527 -0.0143108 -0.0140872 -0.0138688 -0.013668 -0.0134849 -0.0133194 -0.0131726 -0.0130455 -0.0129382 -0.0128507 -0.0127698 -0.0126827 -0.0125894 -0.0124897 -0.0123623 -0.0121857 -0.0119597 -0.0116844 -0.0113423 -0.0109157 -0.0104046 -0.00980904 -0.0091287 -0.00836333 -0.00751293 -0.00657749 -0.00557981 -0.00454268 -0.00346611 -0.00235008 -0.00123313 -0.000153799 0.000887919 0.00189202 0.00282105 0.00363754 0.0043415 0.00493292 0.00539159 0.00569731 0.00585008 0.00584989 0.00570148 0.0054096 0.00497423 0.00439538 0.00370067 0.00291775 0.0020466 0.00108724 8.06825e-05 -0.000932029 -0.0019509 -0.00297593 -0.00396649 -0.00488197 -0.00572237 -0.00648768 -0.00715112 -0.00768587 -0.00809195 -0.00836934 -0.00851329 -0.00851902 -0.00838652 -0.0081158 -0.00772652 -0.00723835 -0.00665128 -0.00596532 -0.00522453 -0.00447298 -0.00371069 -0.00293764 -0.00221337 -0.0015974 -0.00108974 -0.000690394 -0.000388346 -0.000172598 -4.31496e-05 0 0 -1.17192e-05 -4.68769e-05 -0.000105473 -0.000187508 -0.000310444 -0.000491743 -0.000731407 -0.00102943 -0.00138207 -0.00178556 -0.00223991 -0.00274511 -0.00329341 -0.00387708 -0.0044961 -0.00515048 -0.00583326 -0.00653745 -0.00726307 -0.00801012 -0.00876964 -0.00953272 -0.0102993 -0.0110695 -0.0118306 -0.0125699 -0.0132874 -0.0139832 -0.0146433 -0.015254 -0.0158152 -0.016327 -0.0167802 -0.0171659 -0.017484 -0.0177346 -0.0179191 -0.0180388 -0.0180939 -0.0180843 -0.0180226 -0.0179214 -0.0177808 -0.0176006 -0.0173986 -0.0171923 -0.0169818 -0.016767 -0.01656 -0.0163732 -0.0162063 -0.0160595 -0.0159303 -0.0158161 -0.0157169 -0.0156328 -0.0155442 -0.0154315 -0.0152947 -0.0151339 -0.01492 -0.0146238 -0.0142453 -0.0137846 -0.0132193 -0.0125269 -0.0117076 -0.0107612 -0.00968993 -0.00849591 -0.00717913 -0.0057396 -0.0042116 -0.00262945 -0.000993132 0.000697349 0.00238584 0.00401618 0.00558837 0.00710242 0.00850395 0.00973859 0.0108063 0.0117072 0.0124115 0.0128895 0.0131412 0.0131666 0.0129717 0.0125625 0.0119388 0.0111008 0.0100873 0.0089373 0.00765072 0.00622759 0.00472633 0.00320538 0.00166473 0.000104393 -0.00141754 -0.00284296 -0.00417188 -0.00540428 -0.00650165 -0.00742547 -0.00817573 -0.00875244 -0.00914791 -0.00935444 -0.00937205 -0.00920074 -0.00886573 -0.00839229 -0.0077804 -0.00703008 -0.00619743 -0.00533858 -0.00445351 -0.00354224 -0.00268049 -0.00194399 -0.00133274 -0.000846745 -0.000476294 -0.000211686 -5.29215e-05 0 0 -1.59808e-05 -6.39231e-05 -0.000143827 -0.000255692 -0.000419275 -0.000654331 -0.000960861 -0.00133886 -0.00178095 -0.00227972 -0.00283518 -0.00344733 -0.00410556 -0.00479927 -0.00552846 -0.00629313 -0.0070845 -0.00789378 -0.00872097 -0.00956607 -0.0104191 -0.0112699 -0.0121185 -0.012965 -0.0137961 -0.0145986 -0.0153725 -0.0161179 -0.0168209 -0.0174679 -0.0180589 -0.0185938 -0.0190648 -0.019464 -0.0197913 -0.0200467 -0.0202337 -0.0203558 -0.0204131 -0.0204054 -0.0203476 -0.0202544 -0.0201259 -0.0199621 -0.0197813 -0.0196022 -0.0194247 -0.0192488 -0.0190846 -0.0189425 -0.0188224 -0.0187243 -0.0186402 -0.0185621 -0.01849 -0.0184239 -0.0183356 -0.0181971 -0.0180083 -0.0177693 -0.0174416 -0.0169871 -0.0164055 -0.015697 -0.0148337 -0.0137879 -0.0125595 -0.0111485 -0.00956078 -0.00780203 -0.00587227 -0.00377151 -0.00154907 0.000745756 0.00311295 0.00555253 0.00798572 0.0103338 0.0125966 0.0147744 0.016791 0.0185706 0.0201131 0.0214186 0.0224451 0.0231508 0.0235357 0.0235998 0.0233503 0.0227946 0.0219328 0.0207647 0.0193434 0.0177218 0.0159 0.0138779 0.0117359 0.00955435 0.00733322 0.00507253 0.00285251 0.000753403 -0.00122478 -0.00308204 -0.00476494 -0.00622002 -0.00744727 -0.00844671 -0.0092067 -0.00971564 -0.00997353 -0.00998036 -0.00976774 -0.00936726 -0.00877894 -0.00800277 -0.00710858 -0.00616624 -0.00517573 -0.00413706 -0.00314429 -0.00229148 -0.00157865 -0.00100578 -0.000565749 -0.000251444 -6.2861e-05 0 0 -2.10014e-05 -8.40056e-05 -0.000189013 -0.000336022 -0.000546882 -0.000843438 -0.00122569 -0.00169364 -0.00223514 -0.00283805 -0.00350236 -0.00422807 -0.00500111 -0.00580741 -0.00664695 -0.00751973 -0.00841494 -0.00932172 -0.0102401 -0.01117 -0.0121006 -0.0130208 -0.0139307 -0.0148303 -0.0157064 -0.0165459 -0.0173488 -0.0181151 -0.0188323 -0.0194877 -0.0200813 -0.0206132 -0.0210776 -0.0214687 -0.0217866 -0.0220312 -0.0222087 -0.0223255 -0.0223815 -0.0223767 -0.0223281 -0.0222527 -0.0221505 -0.0220214 -0.021884 -0.0217567 -0.0216396 -0.0215327 -0.0214426 -0.0213761 -0.0213331 -0.0213137 -0.0213024 -0.0212836 -0.0212575 -0.0212239 -0.0211442 -0.0209796 -0.0207301 -0.0203958 -0.0199274 -0.0192755 -0.0184403 -0.0174216 -0.0161857 -0.0146986 -0.0129604 -0.0109711 -0.00874127 -0.0062817 -0.00359236 -0.000673247 0.0024078 0.00558293 0.00885215 0.0122155 0.0155665 0.0187989 0.0219127 0.0249079 0.0276823 0.0301336 0.0322618 0.034067 0.0354924 0.0364812 0.0370335 0.0371492 0.0368372 0.0361061 0.0349561 0.033387 0.0314688 0.0292713 0.0267944 0.0240382 0.0211094 0.0181149 0.0150546 0.0119285 0.00884365 0.00590713 0.00311893 0.00047903 -0.00194097 -0.0040695 -0.00590656 -0.00745214 -0.00868968 -0.00960262 -0.0101909 -0.0104547 -0.0104325 -0.0101633 -0.00964689 -0.00888337 -0.00795798 -0.00695597 -0.00587734 -0.00472209 -0.00360476 -0.00263988 -0.00182746 -0.00116749 -0.000656711 -0.000291872 -7.29679e-05 0 0 -2.66792e-05 -0.000106717 -0.000240112 -0.000426866 -0.000690489 -0.00105449 -0.00151887 -0.00208363 -0.00273046 -0.00344108 -0.00421548 -0.00505367 -0.00593719 -0.00684762 -0.00778495 -0.00874918 -0.0097271 -0.0107055 -0.0116843 -0.0126636 -0.0136318 -0.0145776 -0.0155008 -0.0164015 -0.0172679 -0.0180882 -0.0188623 -0.0195902 -0.0202624 -0.0208692 -0.0214105 -0.0218865 -0.0222953 -0.0226354 -0.0229066 -0.023109 -0.0232528 -0.0233482 -0.0233952 -0.0233938 -0.0233631 -0.0233222 -0.023271 -0.0232097 -0.0231552 -0.0231245 -0.0231176 -0.0231346 -0.023176 -0.0232424 -0.0233339 -0.0234505 -0.0235662 -0.0236551 -0.0237171 -0.0237522 -0.0237084 -0.0235335 -0.0232276 -0.0227906 -0.0221603 -0.0212744 -0.0201328 -0.0187355 -0.0170421 -0.0150118 -0.0126448 -0.00994099 -0.00691782 -0.00359269 3.43974e-05 0.00396343 0.00810335 0.0123631 0.0167426 0.021242 0.025721 0.0300395 0.0341974 0.0381948 0.0418978 0.0451726 0.0480191 0.0504372 0.0523527 0.053691 0.0544521 0.0546361 0.0542532 0.0533138 0.0518179 0.0497655 0.0472462 0.0443494 0.0410753 0.0374237 0.033533 0.0295414 0.0254489 0.0212555 0.0171007 0.0131241 0.0093257 0.00570545 0.0023573 -0.000624814 -0.00324089 -0.00549093 -0.00735194 -0.00880093 -0.0098379 -0.0104628 -0.0107225 -0.0106637 -0.0102863 -0.00959038 -0.00867865 -0.00765379 -0.0065158 -0.00526467 -0.00403764 -0.00297196 -0.00206763 -0.00132464 -0.000745108 -0.000331159 -8.27898e-05 0 0 -3.2912e-05 -0.000131648 -0.000296208 -0.000526593 -0.000847321 -0.00128291 -0.00183337 -0.00249868 -0.00325273 -0.00406937 -0.00494861 -0.00589045 -0.00687092 -0.00786606 -0.00887588 -0.00990038 -0.0109235 -0.0119292 -0.0129175 -0.0138883 -0.0148304 -0.0157322 -0.0165937 -0.0174151 -0.0181875 -0.0189021 -0.0195591 -0.0201585 -0.0206961 -0.0211681 -0.0215743 -0.0219149 -0.0221949 -0.0224193 -0.0225881 -0.0227013 -0.0227748 -0.0228245 -0.0228502 -0.0228521 -0.0228512 -0.0228686 -0.0229042 -0.0229582 -0.0230437 -0.0231743 -0.0233499 -0.0235704 -0.0238269 -0.0241103 -0.0244205 -0.0247576 -0.0250812 -0.0253508 -0.0255664 -0.0257281 -0.0257668 -0.0256135 -0.0252681 -0.0247308 -0.0239236 -0.0227687 -0.0212661 -0.0194158 -0.0171699 -0.0144803 -0.0113472 -0.00777055 -0.00377685 0.000607264 0.0053818 0.0105468 0.015982 0.0215672 0.0273026 0.033188 0.039042 0.0446832 0.0501114 0.0553269 0.0601578 0.0644327 0.0681514 0.0713141 0.0738255 0.0755905 0.0766092 0.0768814 0.0764192 0.0752346 0.0733274 0.0706979 0.067458 0.0637201 0.059484 0.0547499 0.0496929 0.0444884 0.0391364 0.0336369 0.0281686 0.0229103 0.017862 0.0130237 0.00851693 0.00446317 0.000862434 -0.00228528 -0.00494861 -0.00709617 -0.00872796 -0.00984399 -0.0105 -0.0107517 -0.0105991 -0.0100423 -0.00920363 -0.00820572 -0.00704855 -0.00573211 -0.00441868 -0.00327051 -0.00228761 -0.00146998 -0.000826866 -0.000367496 -9.18741e-05 0 0 -3.97001e-05 -0.0001588 -0.000357301 -0.000635201 -0.00101738 -0.0015287 -0.00216918 -0.00293881 -0.00380193 -0.00472291 -0.00570174 -0.00673841 -0.00780229 -0.00886274 -0.00991975 -0.0109733 -0.0120042 -0.0129929 -0.0139397 -0.0148443 -0.0156962 -0.0164846 -0.0172095 -0.0178709 -0.0184649 -0.0189877 -0.0194393 -0.0198198 -0.0201334 -0.0203844 -0.0205728 -0.0206985 -0.0207763 -0.0208204 -0.020831 -0.0208081 -0.0207747 -0.0207542 -0.0207465 -0.0207517 -0.0207925 -0.020892 -0.0210501 -0.0212668 -0.0215496 -0.0219061 -0.0223363 -0.0228402 -0.0233954 -0.0239795 -0.0245927 -0.0252349 -0.0258472 -0.0263708 -0.0268056 -0.0271516 -0.0273194 -0.0272194 -0.0268517 -0.0262162 -0.0252171 -0.0237585 -0.0218402 -0.0194624 -0.0165691 -0.0131042 -0.00906772 -0.00445973 0.000681622 0.00631815 0.0124498 0.0190767 0.0260436 0.0331954 0.040532 0.0480534 0.0555295 0.06273 0.0696548 0.076304 0.0824622 0.0879138 0.0926589 0.0966975 0.0999108 0.10218 0.103505 0.103885 0.103335 0.101868 0.0994847 0.0961841 0.0921044 0.0873832 0.0820206 0.0760166 0.0695891 0.0629559 0.0561171 0.0490726 0.0420472 0.0352656 0.0287278 0.0224338 0.0165379 0.0111945 0.00640342 0.00216481 -0.00147967 -0.00448833 -0.00686115 -0.00859814 -0.009765 -0.0104274 -0.0105855 -0.010239 -0.00953291 -0.00861176 -0.0074756 -0.00612443 -0.00474786 -0.00353552 -0.00248741 -0.00160353 -0.000901986 -0.000400883 -0.000100221 0 0 -4.70433e-05 -0.000188173 -0.000423389 -0.000752692 -0.00120066 -0.00179187 -0.00252631 -0.003404 -0.00437808 -0.0054017 -0.00647486 -0.00759756 -0.00873132 -0.00983765 -0.0109165 -0.011968 -0.0129691 -0.0138967 -0.0147508 -0.0155316 -0.0162294 -0.0168349 -0.0173481 -0.0177689 -0.0181002 -0.0183449 -0.0185029 -0.0185743 -0.0185742 -0.0185181 -0.0184058 -0.0182373 -0.0180394 -0.0178388 -0.0176354 -0.0174292 -0.0172525 -0.0171375 -0.0170841 -0.0170924 -0.0171869 -0.0173923 -0.0177085 -0.0181355 -0.0186728 -0.01932 -0.020077 -0.0209438 -0.0218813 -0.0228503 -0.0238507 -0.0248825 -0.0258644 -0.0267151 -0.0274345 -0.0280227 -0.0283662 -0.0283514 -0.0279783 -0.0272471 -0.026041 -0.0242437 -0.0218552 -0.0188754 -0.0152397 -0.0108833 -0.00580623 -8.5284e-06 0.00645761 0.01354 0.0212385 0.0295533 0.0382883 0.0472475 0.0564308 0.0658384 0.0751836 0.08418 0.0928275 0.101126 0.108811 0.115616 0.121542 0.126588 0.130609 0.133459 0.135138 0.135647 0.135001 0.133215 0.13029 0.126224 0.121185 0.115339 0.108685 0.101224 0.0932215 0.0849439 0.0763909 0.0675627 0.0587366 0.0501901 0.0419232 0.0339358 0.0264203 0.019569 0.0133821 0.00785934 0.00305486 -0.000977403 -0.00423745 -0.00672528 -0.00851754 -0.00969086 -0.0102452 -0.0101807 -0.00966649 -0.00887191 -0.00779695 -0.00644161 -0.00502519 -0.003767 -0.00266703 -0.00172528 -0.000970468 -0.000431319 -0.00010783 0 0 -5.47172e-05 -0.000218869 -0.000492455 -0.000875475 -0.00139127 -0.00206317 -0.00289119 -0.00387532 -0.00495558 -0.00607202 -0.00722462 -0.00841339 -0.0095905 -0.0107081 -0.0117663 -0.0127649 -0.0136768 -0.0144745 -0.0151581 -0.0157276 -0.0161756 -0.0164948 -0.0166852 -0.0167468 -0.0166917 -0.016532 -0.0162677 -0.0158989 -0.0154555 -0.0149675 -0.014435 -0.013858 -0.013279 -0.0127407 -0.0122431 -0.0117862 -0.0114136 -0.0111686 -0.0110515 -0.0110621 -0.0112265 -0.0115707 -0.0120948 -0.0127986 -0.0136709 -0.0147003 -0.0158867 -0.0172301 -0.0186697 -0.0201447 -0.0216549 -0.0232004 -0.0246723 -0.0259616 -0.0270682 -0.0279923 -0.0285919 -0.0287254 -0.0283927 -0.0275939 -0.026189 -0.0240385 -0.0211422 -0.0175002 -0.0130389 -0.00768442 -0.00143692 0.00570365 0.0136676 0.0223854 0.031857 0.0420823 0.0528176 0.0638191 0.0750868 0.0866207 0.0980705 0.109086 0.119667 0.129814 0.139206 0.147524 0.154768 0.160938 0.165859 0.169359 0.171437 0.172093 0.171345 0.169209 0.165686 0.160776 0.154675 0.147578 0.139487 0.1304 0.120635 0.110512 0.100031 0.0891898 0.0783268 0.0677782 0.0575439 0.0476239 0.0382547 0.0296727 0.021878 0.0148704 0.00871914 0.00349305 -0.000807846 -0.00418354 -0.00672237 -0.00851268 -0.00955448 -0.00984776 -0.00958884 -0.00897405 -0.00800339 -0.00667685 -0.00524582 -0.00396166 -0.00282438 -0.00183396 -0.0010316 -0.00045849 -0.000114623 0 0 -6.24976e-05 -0.00024999 -0.000562478 -0.000999961 -0.00158331 -0.0023334 -0.00325022 -0.00433379 -0.00550884 -0.00670012 -0.00790764 -0.00913139 -0.0103124 -0.0113915 -0.0123689 -0.0132445 -0.0139859 -0.0145606 -0.0149686 -0.0152098 -0.0152803 -0.0151758 -0.0148964 -0.014442 -0.0138374 -0.0131073 -0.0122517 -0.0112707 -0.0102139 -0.00913101 -0.0080221 -0.00688713 -0.00578947 -0.00479248 -0.00389616 -0.0031005 -0.00246326 -0.00204217 -0.00183723 -0.00184844 -0.00210305 -0.00262827 -0.00342412 -0.00449059 -0.00580175 -0.00733165 -0.00908031 -0.0110477 -0.0131454 -0.0152848 -0.0174659 -0.0196888 -0.0218106 -0.0236882 -0.0253217 -0.0267112 -0.0276815 -0.0280576 -0.0278395 -0.0270273 -0.0254549 -0.0229567 -0.0195325 -0.0151824 -0.0098238 -0.00337432 0.00416608 0.0127974 0.0224282 0.0329672 0.0444142 0.0567694 0.0697331 0.0830058 0.0965876 0.110478 0.124257 0.137501 0.150211 0.162387 0.173651 0.183624 0.192308 0.199702 0.205604 0.209812 0.212326 0.213147 0.212293 0.209783 0.205618 0.199798 0.192548 0.184093 0.174434 0.163571 0.151876 0.139722 0.127109 0.114037 0.100908 0.0881242 0.0756857 0.0635924 0.0521318 0.0415912 0.0319707 0.0232702 0.0155773 0.00897948 0.00347669 -0.000931031 -0.00434428 -0.00686365 -0.00848914 -0.00922074 -0.0092844 -0.00890605 -0.0080857 -0.00682335 -0.0054049 -0.00411624 -0.00295738 -0.00192832 -0.00108468 -0.000482081 -0.00012052 0 0 -7.03844e-05 -0.000281538 -0.000633459 -0.00112615 -0.00177679 -0.00260254 -0.00360342 -0.00477942 -0.00603785 -0.00728602 -0.00852391 -0.00975155 -0.0108969 -0.0118879 -0.0127245 -0.0134068 -0.0138964 -0.0141549 -0.0141822 -0.0139784 -0.0135437 -0.0128781 -0.0119817 -0.0108546 -0.00953732 -0.00807075 -0.00645487 -0.00468966 -0.00284946 -0.00100858 0.000832958 0.00267517 0.00442913 0.00600591 0.00740552 0.00862795 0.00959838 0.0102419 0.0105587 0.0105485 0.0101834 0.00943501 0.00830344 0.00678867 0.0049348 0.00278597 0.000342158 -0.00239662 -0.00530827 -0.00827067 -0.0112838 -0.0143477 -0.0172792 -0.019895 -0.0221951 -0.0241795 -0.0256349 -0.026348 -0.0263188 -0.0255473 -0.0238388 -0.0209983 -0.017026 -0.0119218 -0.0055945 0.00204701 0.0110028 0.0212727 0.0327394 0.0452853 0.0589103 0.0736145 0.0890347 0.104808 0.120933 0.137411 0.153742 0.169424 0.184459 0.198845 0.212144 0.223916 0.234161 0.24288 0.249842 0.254818 0.257807 0.258809 0.257846 0.254938 0.250086 0.24329 0.234805 0.224884 0.213529 0.200738 0.186943 0.172572 0.157625 0.142103 0.12648 0.111228 0.0963487 0.0818414 0.0680516 0.0553245 0.0436602 0.0330587 0.0236294 0.0154819 0.00861617 0.00303224 -0.00138328 -0.00474376 -0.00704922 -0.00829965 -0.00875318 -0.00866793 -0.00804391 -0.00688111 -0.00550242 -0.00423073 -0.00306605 -0.00200836 -0.00112971 -0.000502091 -0.000125523 0 0 -7.83776e-05 -0.00031351 -0.000705398 -0.00125404 -0.00197169 -0.00287061 -0.00395078 -0.00521222 -0.00654262 -0.0078297 -0.00907345 -0.0102739 -0.0113441 -0.0121971 -0.012833 -0.0132518 -0.0134083 -0.0132574 -0.0127991 -0.0120333 -0.0109656 -0.00960162 -0.00794125 -0.00598452 -0.00379155 -0.00142245 0.00112278 0.00384415 0.00663777 0.00939977 0.0121302 0.0148289 0.0173768 0.0196545 0.0216619 0.0233991 0.0247713 0.0256837 0.0261362 0.0261288 0.0256328 0.0246191 0.0230879 0.0210391 0.0185387 0.0156526 0.0123807 0.00872317 0.00484159 0.000897678 -0.00310857 -0.00717715 -0.0110782 -0.0145819 -0.0176882 -0.0203971 -0.022452 -0.0235965 -0.0238305 -0.023154 -0.0213405 -0.0181634 -0.0136227 -0.00771848 -0.000350947 0.00857959 0.0190731 0.0311297 0.0446012 0.0593397 0.0753453 0.0926178 0.110722 0.129224 0.148123 0.16742 0.186527 0.204857 0.222411 0.239188 0.254685 0.268398 0.280327 0.290472 0.298574 0.304376 0.307878 0.309079 0.308004 0.304674 0.29909 0.291252 0.281445 0.26995 0.256769 0.241901 0.225836 0.209062 0.19158 0.173389 0.155042 0.13709 0.119533 0.102371 0.0860142 0.0708727 0.0569466 0.0442358 0.0328753 0.0230003 0.0146106 0.00770628 0.00216065 -0.00215302 -0.00523473 -0.00708449 -0.00799518 -0.00825968 -0.00787799 -0.00685011 -0.00553838 -0.00430513 -0.00315037 -0.00207409 -0.00116667 -0.000518521 -0.00012963 0 0 -8.62239e-05 -0.000344895 -0.000776015 -0.00137958 -0.00216144 -0.00312742 -0.00427754 -0.00561179 -0.00699592 -0.0082957 -0.00951111 -0.0106422 -0.0115849 -0.0122354 -0.0125937 -0.0126597 -0.0123806 -0.0117036 -0.0106286 -0.00915579 -0.007297