<?xml version="1.0"?> 
<VTKFile type="StructuredGrid" version="0.1"> 
<StructuredGrid WholeExtent="0 128 0 128 0 0"> 
<Piece Extent="0 128 0 128 0 0"> 
<PointData>
<DataArray type="Float32" Name="u" format="ascii" NumberOfComponents="1"> 
0 0 0 0 0 0 0 0 0 0 0 0 0 0 0 0 0 0 0 0 0 0 0 0 0 0 0 0 0 0 0 0 0 0 0 0 0 0 0 0 0 0 0 0 0 0 0 0 0 0 0 0 0 0 0 0 0 0 0 0 0 0 0 0 0 0 0 0 0 0 0 0 0 0 0 0 0 0 0 0 0 0 0 0 0 0 0 0 0 0 0 0 0 0 0 0 0 0 0 0 0 0 0 0 0 0 0 0 0 0 0 0 0 0 0 0 0 0 0 0 0 0 0 0 0 0 0 0 0 0 2.2767e-07 9.10681e-07 2.04903e-06 3.64273e-06 5.65742e-06 8.05877e-06 1.08468e-05 1.40214e-05 1.7241e-05 2.01636e-05 2.27892e-05 2.51179e-05 2.70555e-05 2.8508e-05 2.94754e-05 2.99576e-05 3.00225e-05 2.97378e-05 2.91035e-05 2.81197e-05 2.6895e-05 2.55384e-05 2.40497e-05 2.2429e-05 2.07461e-05 1.90708e-05 1.74032e-05 1.57432e-05 1.41179e-05 1.25543e-05 1.10523e-05 9.61191e-06 8.28291e-06 7.11495e-06 6.10803e-06 5.26215e-06 4.68302e-06 4.47635e-06 4.64214e-06 5.1804e-06 6.15457e-06 7.62811e-06 9.60102e-06 1.20733e-05 1.48899e-05 1.78956e-05 2.10906e-05 2.44748e-05 2.76272e-05 3.0127e-05 3.19741e-05 3.31686e-05 3.32391e-05 3.17141e-05 2.85936e-05 2.38777e-05 1.73645e-05 8.85216e-06 -1.65928e-06 -1.41698e-05 -2.85167e-05 -4.45371e-05 -6.2231e-05 -8.15984e-05 -0.000102339 -0.000124154 -0.000147042 -0.000171004 -0.000195838 -0.000221342 -0.000247518 -0.000274364 -0.000301673 -0.000329236 -0.000357055 -0.000385127 -0.000412926 -0.000439923 -0.000466117 -0.000491508 -0.000515245 -0.000536475 -0.000555199 -0.000571415 -0.000584462 -0.000593673 -0.000599051 -0.000600594 -0.000598371 -0.00059245 -0.000582831 -0.000569514 -0.000553252 -0.000534796 -0.000514148 -0.000491307 -0.000467104 -0.000442373 -0.000417113 -0.000391323 -0.000365425 -0.000339839 -0.000314564 -0.000289602 -0.00026505 -0.000241008 -0.000217477 -0.000194456 -0.000172114 -0.000150622 -0.000129978 -0.000110184 -9.15926e-05 -7.45568e-05 -5.90769e-05 -4.51529e-05 -3.30272e-05 -2.29425e-05 -1.48986e-05 -8.89573e-06 -4.56948e-06 -1.55568e-06 1.45682e-07 5.34602e-07 3.00714e-07 1.33651e-07 3.34126e-08 0 0 9.10681e-07 3.64273e-06 8.19613e-06 1.45709e-05 2.26297e-05 3.22351e-05 4.33871e-05 5.60858e-05 6.89639e-05 8.06542e-05 9.11568e-05 0.000100471 0.000108222 0.000114032 0.000117902 0.00011983 0.00012009 0.000118951 0.000116414 0.000112479 0.00010758 0.000102153 9.61987e-05 8.97159e-05 8.29843e-05 7.62832e-05 6.96128e-05 6.29729e-05 5.64717e-05 5.0217e-05 4.4209e-05 3.84476e-05 3.31316e-05 2.84598e-05 2.44321e-05 2.10486e-05 1.87321e-05 1.79054e-05 1.85686e-05 2.07216e-05 2.46183e-05 3.05124e-05 3.84041e-05 4.82932e-05 5.95594e-05 7.15825e-05 8.43624e-05 9.7899e-05 0.000110509 0.000120508 0.000127897 0.000132675 0.000132956 0.000126856 0.000114374 9.55107e-05 6.94579e-05 3.54086e-05 -6.63711e-06 -5.66793e-05 -0.000114067 -0.000178148 -0.000248924 -0.000326394 -0.000409357 -0.000496616 -0.000588168 -0.000684015 -0.000783351 -0.000885369 -0.000990071 -0.00109746 -0.00120669 -0.00131695 -0.00142822 -0.00154051 -0.00165171 -0.00175969 -0.00186447 -0.00196603 -0.00206098 -0.0021459 -0.0022208 -0.00228566 -0.00233785 -0.00237469 -0.0023962 -0.00240237 -0.00239348 -0.0023698 -0.00233132 -0.00227806 -0.00221301 -0.00213919 -0.00205659 -0.00196523 -0.00186842 -0.00176949 -0.00166845 -0.00156529 -0.0014617 -0.00135936 -0.00125826 -0.00115841 -0.0010602 -0.000964032 -0.000869907 -0.000777822 -0.000688456 -0.000602487 -0.000519914 -0.000440737 -0.00036637 -0.000298227 -0.000236308 -0.000180611 -0.000132109 -9.17699e-05 -5.95946e-05 -3.55829e-05 -1.82779e-05 -6.22272e-06 5.8273e-07 2.13841e-06 1.20285e-06 5.34602e-07 1.33651e-07 0 0 2.04903e-06 8.19613e-06 1.84413e-05 3.27845e-05 5.09168e-05 7.25289e-05 9.7621e-05 0.000126193 0.000155169 0.000181472 0.000205103 0.000226061 0.0002435 0.000256572 0.000265278 0.000269618 0.000270202 0.00026764 0.000261932 0.000253077 0.000242055 0.000229845 0.000216447 0.000201861 0.000186715 0.000171637 0.000156629 0.000141689 0.000127061 0.000112988 9.94703e-05 8.65072e-05 7.45462e-05 6.40346e-05 5.49723e-05 4.73594e-05 4.21472e-05 4.02872e-05 4.17793e-05 4.66236e-05 5.53911e-05 6.8653e-05 8.64091e-05 0.00010866 0.000134009 0.000161061 0.000189815 0.000220273 0.000248645 0.000271143 0.000287767 0.000298518 0.000299152 0.000285426 0.000257342 0.000214899 0.00015628 7.96694e-05 -1.49335e-05 -0.000127528 -0.00025665 -0.000400834 -0.000560079 -0.000734385 -0.000921054 -0.00111738 -0.00132338 -0.00153903 -0.00176254 -0.00199208 -0.00222766 -0.00246928 -0.00271506 -0.00296313 -0.00321349 -0.00346615 -0.00371634 -0.0039593 -0.00419505 -0.00442358 -0.00463721 -0.00482828 -0.00499679 -0.00514274 -0.00526015 -0.00534306 -0.00539146 -0.00540534 -0.00538534 -0.00533205 -0.00524548 -0.00512563 -0.00497927 -0.00481317 -0.00462733 -0.00442176 -0.00420394 -0.00398136 -0.00375401 -0.00352191 -0.00328883 -0.00305855 -0.00283108 -0.00260641 -0.00238545 -0.00216907 -0.00195729 -0.0017501 -0.00154903 -0.00135559 -0.00116981 -0.000991658 -0.000824333 -0.000671011 -0.000531692 -0.000406376 -0.000297245 -0.000206482 -0.000134088 -8.00615e-05 -4.11253e-05 -1.40011e-05 1.31114e-06 4.81142e-06 2.70642e-06 1.20285e-06 3.00714e-07 0 0 3.64273e-06 1.45709e-05 3.27845e-05 5.82836e-05 9.05187e-05 0.00012894 0.000173548 0.000224343 0.000275856 0.000322617 0.000364627 0.000401886 0.000432888 0.000456128 0.000471606 0.000479322 0.00048036 0.000475804 0.000465656 0.000449915 0.00043032 0.000408614 0.000384795 0.000358863 0.000331937 0.000305133 0.000278451 0.000251892 0.000225887 0.000200868 0.000176836 0.000153791 0.000132527 0.000113839 9.77285e-05 8.41944e-05 7.49283e-05 7.16216e-05 7.42743e-05 8.28863e-05 9.84731e-05 0.00012205 0.000153616 0.000193173 0.000238238 0.00028633 0.00033745 0.000391596 0.000442035 0.000482032 0.000511586 0.000530698 0.000531825 0.000507425 0.000457497 0.000382043 0.000277832 0.000141635 -2.65484e-05 -0.000226717 -0.000456267 -0.000712593 -0.000995696 -0.00130557 -0.00163743 -0.00198646 -0.00235267 -0.00273606 -0.0031334 -0.00354148 -0.00396028 -0.00438982 -0.00482677 -0.00526778 -0.00571287 -0.00616204 -0.00660682 -0.00703876 -0.00745787 -0.00786413 -0.00824392 -0.00858361 -0.00888318 -0.00914265 -0.00935138 -0.00949877 -0.00958481 -0.0096095 -0.00957393 -0.00947919 -0.00932529 -0.00911222 -0.00885203 -0.00855674 -0.00822637 -0.00786091 -0.00747367 -0.00707797 -0.0066738 -0.00626117 -0.0058468 -0.00543742 -0.00503303 -0.00463363 -0.0042408 -0.00385613 -0.00347963 -0.00311129 -0.00275382 -0.00240995 -0.00207965 -0.00176295 -0.00146548 -0.00119291 -0.00094523 -0.000722446 -0.000528435 -0.00036708 -0.000238378 -0.000142332 -7.31117e-05 -2.48909e-05 2.33092e-06 8.55364e-06 4.81142e-06 2.13841e-06 5.34602e-07 0 0 5.60919e-06 2.24367e-05 5.04827e-05 8.9747e-05 0.000139078 0.000197324 0.000264486 0.000340562 0.000417042 0.000485412 0.000545674 0.000597828 0.000639598 0.00066871 0.000685165 0.000688961 0.000681861 0.000665624 0.000640249 0.000605738 0.000564871 0.000520427 0.000472409 0.000420814 0.0003675 0.000314323 0.000261283 0.00020838 0.000156532 0.000106661 5.87642e-05 1.28433e-05 -2.95295e-05 -6.67818e-05 -9.89134e-05 -0.000125925 -0.000144982 -0.000153252 -0.000150734 -0.000137429 -0.000111903 -7.27226e-05 -1.98868e-05 4.66039e-05 0.00012246 0.000203392 0.000289399 0.000380482 0.000465826 0.000534615 0.00058685 0.00062253 0.000630054 0.00059782 0.000525829 0.00041408 0.000258144 5.35947e-05 -0.00019957 -0.000501349 -0.000847102 -0.00123219 -0.00165661 -0.00212036 -0.00261598 -0.00313599 -0.0036804 -0.00424921 -0.00483816 -0.00544298 -0.00606367 -0.00670024 -0.00734856 -0.00800449 -0.00866802 -0.00933917 -0.0100054 -0.0106542 -0.0112856 -0.0118995 -0.0124748 -0.0129901 -0.0134455 -0.013841 -0.0141597 -0.0143848 -0.0145164 -0.0145544 -0.0145006 -0.0143566 -0.0141223 -0.0137979 -0.0134023 -0.0129544 -0.0124542 -0.0119017 -0.0113176 -0.0107224 -0.0101163 -0.00949906 -0.00888058 -0.00827053 -0.00766891 -0.00707571 -0.00649235 -0.00592021 -0.0053593 -0.00480961 -0.00427464 -0.00375786 -0.00325927 -0.00277887 -0.00232546 -0.00190781 -0.00152593 -0.00117981 -0.000876113 -0.00062149 -0.000415942 -0.000259469 -0.000144162 -6.21141e-05 -1.33261e-05 2.20239e-06 1.23884e-06 5.50598e-07 1.37649e-07 0 0 7.86585e-06 3.14634e-05 7.07926e-05 0.000125854 0.000194237 0.000273536 0.000363748 0.000464875 0.000564744 0.000651182 0.00072419 0.000783767 0.000826838 0.000850327 0.000854234 0.000838559 0.000806006 0.000759277 0.000698373 0.000623294 0.000538201 0.000447255 0.000350455 0.000247803 0.000142253 3.6761e-05 -6.86728e-05 -0.000174048 -0.000277417 -0.00037683 -0.000472287 -0.000563789 -0.000648224 -0.000722484 -0.000786568 -0.000840476 -0.00087964 -0.000899493 -0.000900033 -0.000881263 -0.000841506 -0.000779089 -0.000694012 -0.000586275 -0.000463111 -0.000331753 -0.000192202 -4.44557e-05 9.51629e-05 0.000210333 0.000301054 0.000367327 0.000392915 0.000361581 0.000273325 0.000128147 -7.87486e-05 -0.000352159 -0.000692085 -0.00109853 -0.00156334 -0.00207838 -0.00264365 -0.00325915 -0.0039142 -0.00459812 -0.00531093 -0.00605261 -0.00681902 -0.007606 -0.00841355 -0.00924168 -0.0100872 -0.0109468 -0.0118206 -0.0127085 -0.0135944 -0.0144618 -0.0153109 -0.0161416 -0.0169234 -0.017626 -0.0182493 -0.0187932 -0.0192331 -0.0195442 -0.0197264 -0.0197798 -0.0197067 -0.0195095 -0.0191882 -0.0187428 -0.018201 -0.0175905 -0.0169112 -0.0161631 -0.0153756 -0.0145778 -0.0137698 -0.0129516 -0.0121351 -0.0113324 -0.0105435 -0.00976835 -0.00900621 -0.00825632 -0.00751869 -0.0067933 -0.00608326 -0.00539164 -0.00471846 -0.0040637 -0.00343991 -0.0028596 -0.00232278 -0.00182945 -0.00139071 -0.00101764 -0.000710256 -0.000468548 -0.0002842 -0.000148893 -6.26283e-05 -2.5405e-05 -1.42903e-05 -6.35124e-06 -1.58781e-06 0 0 1.04127e-05 4.16508e-05 9.37143e-05 0.000166603 0.000255997 0.000357575 0.000471337 0.000597283 0.000718963 0.000819926 0.000900173 0.000959703 0.000994608 0.00100098 0.000978813 0.000928114 0.000852793 0.000756764 0.000640028 0.000502583 0.000350311 0.000189095 1.89347e-05 -0.000160171 -0.000343805 -0.000527554 -0.000711416 -0.000895393 -0.00107596 -0.0012496 -0.00141632 -0.00157611 -0.00172356 -0.00185327 -0.00196523 -0.00205946 -0.00212905 -0.0021671 -0.00217362 -0.00214861 -0.00209033 -0.00199705 -0.00186876 -0.00170547 -0.00151848 -0.00131911 -0.00110735 -0.000883218 -0.000669954 -0.000490815 -0.0003458 -0.000234909 -0.000179591 -0.000201292 -0.000300013 -0.000475754 -0.000732848 -0.00107563 -0.00150409 -0.00201825 -0.00260498 -0.00325116 -0.00395682 -0.00472193 -0.00553208 -0.00637285 -0.00724424 -0.00814625 -0.00907598 -0.0100305 -0.0110099 -0.0120141 -0.0130426 -0.0140948 -0.0151706 -0.0162701 -0.0173737 -0.0184615 -0.0195337 -0.0205903 -0.0215899 -0.0224913 -0.0232945 -0.0239995 -0.0245717 -0.0249768 -0.0252147 -0.0252854 -0.0251921 -0.0249379 -0.0245228 -0.0239469 -0.0232482 -0.0224651 -0.0215974 -0.0206452 -0.0196477 -0.0186441 -0.0176344 -0.0166187 -0.0156104 -0.0146231 -0.0136568 -0.0127115 -0.0117824 -0.0108645 -0.00995779 -0.00906235 -0.00817968 -0.0073113 -0.00645722 -0.00561743 -0.00480882 -0.00404828 -0.0033358 -0.00267138 -0.00207222 -0.00155554 -0.00112132 -0.000769569 -0.000493226 -0.000285228 -0.000145575 -7.42685e-05 -4.1776e-05 -1.85671e-05 -4.64178e-06 0 0 1.32498e-05 5.2999e-05 0.000119248 0.000211996 0.000324356 0.000449441 0.000587251 0.000737785 0.000879698 0.000991644 0.00107362 0.00112564 0.00114291 0.00112066 0.0010589 0.000957627 0.000822224 0.000658086 0.000465212 0.000243604 1.20186e-06 -0.00025405 -0.000522153 -0.000803106 -0.00109067 -0.00137862 -0.00166695 -0.00195565 -0.0022391 -0.00251166 -0.00277333 -0.00302411 -0.00325553 -0.00345913 -0.00363491 -0.00378288 -0.0038932 -0.00395608 -0.00397151 -0.00393948 -0.00385839 -0.00372661 -0.00354413 -0.00331097 -0.00304363 -0.00275866 -0.00245605 -0.0021358 -0.00182952 -0.00156883 -0.00135371 -0.00118418 -0.00108746 -0.0010908 -0.00119419 -0.00139762 -0.00170415 -0.00211681 -0.0026356 -0.00326052 -0.00397202 -0.00475055 -0.00559611 -0.00650871 -0.00746963 -0.00846018 -0.00948035 -0.0105301 -0.0116091 -0.0127166 -0.0138528 -0.0150176 -0.0162149 -0.0174483 -0.018718 -0.020024 -0.0213433 -0.0226534 -0.0239542 -0.0252456 -0.0264741 -0.0275859 -0.0285811 -0.0294596 -0.0301755 -0.0306828 -0.0309815 -0.0310715 -0.030957 -0.0306419 -0.0301263 -0.0294101 -0.0285439 -0.0275781 -0.0265128 -0.0253479 -0.0241339 -0.0229213 -0.0217101 -0.0205004 -0.0193064 -0.0181426 -0.0170088 -0.0159053 -0.0148209 -0.0137447 -0.0126766 -0.0116168 -0.0105639 -0.00951684 -0.00847556 -0.00744007 -0.00643221 -0.00547385 -0.00456497 -0.00370558 -0.00292066 -0.00223517 -0.00164913 -0.00116253 -0.00077124 -0.000471118 -0.000262168 -0.000144388 -8.12183e-05 -3.6097e-05 -9.02426e-06 0 0 1.57936e-05 6.31744e-05 0.000142142 0.000252698 0.000384744 0.000528186 0.000683023 0.000849256 0.00100065 0.00111097 0.00118021 0.00120838 0.00119016 0.00112023 0.000998582 0.000825223 0.00060731 0.000352003 5.93015e-05 -0.000270794 -0.000628211 -0.00100287 -0.00139478 -0.00180394 -0.00222223 -0.00264152 -0.00306183 -0.00348315 -0.00389721 -0.00429576 -0.00467878 -0.00504627 -0.00538572 -0.00568458 -0.00594286 -0.00616056 -0.00632418 -0.00642022 -0.00644869 -0.00640959 -0.00630176 -0.00612407 -0.00587651 -0.00555908 -0.00519493 -0.00480722 -0.00439595 -0.0039611 -0.00354383 -0.00318527 -0.00288541 -0.00264427 -0.0024943 -0.00246797 -0.00256528 -0.00278622 -0.00313011 -0.00359625 -0.00418464 -0.00489528 -0.00569959 -0.00656897 -0.00750341 -0.00850293 -0.00954419 -0.0106038 -0.0116819 -0.0127784 -0.013898 -0.0150458 -0.0162216 -0.0174255 -0.0186701 -0.019968 -0.0213192 -0.0227238 -0.0241585 -0.0256005 -0.0270497 -0.0285061 -0.0299033 -0.0311752 -0.0323217 -0.0333428 -0.0341797 -0.0347734 -0.0351239 -0.0352313 -0.0351005 -0.0347363 -0.0341388 -0.0333079 -0.0323076 -0.0312019 -0.0299908 -0.0286743 -0.0273141 -0.0259717 -0.0246471 -0.0233404 -0.0220636 -0.0208289 -0.0196362 -0.0184857 -0.0173557 -0.0162249 -0.0150933 -0.0139608 -0.0128208 -0.0116666 -0.0104984 -0.00931594 -0.00814655 -0.00701738 -0.00592843 -0.00487968 -0.00390655 -0.00304443 -0.00229333 -0.00165324 -0.0011266 -0.000715848 -0.000420993 -0.000242031 -0.000136143 -6.05078e-05 -1.5127e-05 0 0 1.74608e-05 6.98433e-05 0.000157147 0.000279373 0.000422588 0.000572859 0.000730186 0.00089457 0.00103552 0.00112253 0.00115561 0.00113476 0.00105479 0.000910511 0.000701923 0.000429026 0.000101063 -0.000272723 -0.000692331 -0.00115776 -0.00165701 -0.00217807 -0.00272093 -0.00328561 -0.00386233 -0.00444134 -0.00502263 -0.00560621 -0.00618068 -0.00673464 -0.00726811 -0.00778108 -0.0082557 -0.00867412 -0.00903633 -0.00934234 -0.00957404 -0.00971332 -0.00976019 -0.00971464 -0.00957654 -0.00934575 -0.00902228 -0.00860611 -0.00812873 -0.00762158 -0.00708467 -0.006518 -0.00597314 -0.00550169 -0.00510363 -0.00477897 -0.0045637 -0.00449384 -0.00456937 -0.0047903 -0.00514816 -0.00563448 -0.00624926 -0.0069925 -0.00782283 -0.00869886 -0.0096206 -0.010588 -0.0115731 -0.0125476 -0.0135115 -0.014465 -0.0154228 -0.0163998 -0.017396 -0.0184114 -0.0194746 -0.0206144 -0.0218306 -0.0231233 -0.0244744 -0.0258659 -0.0272978 -0.02877 -0.0302048 -0.0315244 -0.0327288 -0.033818 -0.0347192 -0.0353597 -0.0357394 -0.0358583 -0.0357221 -0.0353362 -0.0347006 -0.0338154 -0.0327587 -0.0316085 -0.0303648 -0.0290276 -0.0276681 -0.0263574 -0.0250954 -0.0238823 -0.0227223 -0.0216201 -0.0205756 -0.0195888 -0.018621 -0.0176334 -0.0166259 -0.0155986 -0.0145351 -0.0134191 -0.0122505 -0.0110294 -0.00978833 -0.00855996 -0.00734428 -0.0061413 -0.00500045 -0.0039712 -0.00305354 -0.00224748 -0.00156765 -0.0010287 -0.00063064 -0.000373465 -0.000210074 -9.33663e-05 -2.33416e-05 0 0 1.82514e-05 7.30057e-05 0.000164263 0.000292023 0.000437888 0.00058346 0.00072874 0.000873727 0.000984297 0.00102633 0.000999817 0.000904767 0.000736793 0.000491514 0.000168929 -0.000230962 -0.000696516 -0.00121609 -0.00178969 -0.0024173 -0.0030852 -0.00377963 -0.0045006 -0.00524811 -0.00601099 -0.00677807 -0.00754935 -0.00832482 -0.00908949 -0.00982833 -0.0105413 -0.0112285 -0.0118655 -0.0124277 -0.0129153 -0.0133282 -0.0136428 -0.0138354 -0.013906 -0.0138547 -0.0136827 -0.0133917 -0.0129814 -0.0124521 -0.011845 -0.0112017 -0.0105222 -0.00980649 -0.00911747 -0.00851809 -0.00800836 -0.00758827 -0.00729566 -0.00716839 -0.00720646 -0.00740985 -0.0077583 -0.0082315 -0.00882945 -0.00955217 -0.0103417 -0.0111402 -0.0119477 -0.012764 -0.0135563 -0.0142914 -0.0149693 -0.01559 -0.0161832 -0.0167785 -0.0173758 -0.0179751 -0.0186284 -0.0193874 -0.0202521 -0.0212226 -0.022291 -0.0234496 -0.0246984 -0.0260374 -0.0273784 -0.0286334 -0.0298023 -0.0308852 -0.0317943 -0.0324419 -0.0328279 -0.0329525 -0.0328216 -0.0324414 -0.0318118 -0.0309328 -0.0298973 -0.0287979 -0.0276347 -0.0264078 -0.025196 -0.0240785 -0.0230552 -0.0221261 -0.0212826 -0.0205163 -0.019827 -0.0192148 -0.0186167 -0.0179699 -0.0172744 -0.0165302 -0.0157069 -0.0147742 -0.013732 -0.0125804 -0.0113575 -0.0101016 -0.00881253 -0.00749042 -0.00620236 -0.00501548 -0.00392978 -0.00294525 -0.00209439 -0.00140968 -0.000891109 -0.00053869 -0.000303013 -0.000134673 -3.36682e-05 0 0 1.81654e-05 7.26616e-05 0.000163489 0.000290646 0.000430644 0.00055999 0.000678684 0.000786727 0.000846994 0.000822362 0.000712831 0.000518401 0.00023617 -0.000136764 -0.000600402 -0.00115474 -0.00178543 -0.0024781 -0.00323276 -0.00404941 -0.00491277 -0.00580756 -0.00673379 -0.00769145 -0.00866821 -0.00965171 -0.010642 -0.011639 -0.0126236 -0.0135768 -0.0144985 -0.0153886 -0.0162151 -0.0169455 -0.0175798 -0.0181182 -0.0185304 -0.0187864 -0.0188861 -0.0188296 -0.0186203 -0.0182618 -0.017754 -0.0170969 -0.0163438 -0.0155477 -0.0147086 -0.0138266 -0.0129768 -0.0122345 -0.0115996 -0.0110722 -0.0106902 -0.0104916 -0.0104765 -0.0106449 -0.0109605 -0.0113873 -0.0119252 -0.0125743 -0.0132563 -0.0138931 -0.0144846 -0.0150309 -0.0154938 -0.0158352 -0.0160551 -0.0161535 -0.0161794 -0.016182 -0.0161611 -0.0161168 -0.0161313 -0.016287 -0.0165838 -0.0170216 -0.0176083 -0.0183517 -0.0192516 -0.0203082 -0.0214242 -0.0225022 -0.0235422 -0.0245443 -0.0254048 -0.0260198 -0.0263895 -0.0265138 -0.0263992 -0.026052 -0.0254723 -0.02466 -0.0237233 -0.0227702 -0.0218007 -0.0208147 -0.0198977 -0.0191349 -0.0185263 -0.0180718 -0.0177445 -0.0175174 -0.0173903 -0.0173634 -0.0173428 -0.0172347 -0.017039 -0.0167557 -0.0163362 -0.015732 -0.0149429 -0.013969 -0.0128542 -0.0116422 -0.0103332 -0.00892706 -0.00751228 -0.00617727 -0.00492203 -0.00374657 -0.00270683 -0.00185877 -0.0012024 -0.000737706 -0.00041496 -0.000184427 -4.61067e-05 0 0 1.67788e-05 6.71151e-05 0.000151009 0.00026846 0.00039065 0.000488759 0.000562788 0.000612737 0.000600156 0.000486596 0.000272059 -4.34562e-05 -0.000460098 -0.000978013 -0.0015972 -0.00231766 -0.00312205 -0.00399302 -0.00493056 -0.00593468 -0.00698954 -0.0080793 -0.00920396 -0.0103635 -0.0115459 -0.0127388 -0.0139424 -0.0151567 -0.0163588 -0.0175258 -0.0186577 -0.0197546 -0.0207754 -0.0216789 -0.0224653 -0.0231345 -0.0236489 -0.0239711 -0.0241009 -0.0240385 -0.0237899 -0.0233614 -0.022753 -0.0219647 -0.021063 -0.0201144 -0.019119 -0.0180768 -0.0170754 -0.0162028 -0.0154588 -0.0148434 -0.0143916 -0.0141383 -0.0140833 -0.0142267 -0.0145105 -0.0148764 -0.0153246 -0.0158549 -0.0163636 -0.0167468 -0.0170045 -0.0171368 -0.0171 -0.0168505 -0.0163882 -0.0157133 -0.0149004 -0.0140246 -0.0130859 -0.0120842 -0.0111425 -0.0103837 -0.00980767 -0.00941454 -0.0092356 -0.00930218 -0.00961429 -0.0101719 -0.0108709 -0.0116071 -0.0123805 -0.0131911 -0.0139183 -0.0144412 -0.0147599 -0.0148745 -0.0147913 -0.0145169 -0.0140511 -0.0133941 -0.0126695 -0.0120012 -0.0113891 -0.0108332 -0.0104224 -0.0102457 -0.0103029 -0.0105942 -0.0110664 -0.0116663 -0.0123941 -0.0132496 -0.014099 -0.0148083 -0.0153774 -0.0158063 -0.0160228 -0.0159544 -0.0156011 -0.014963 -0.01409 -0.0130318 -0.0117886 -0.0103603 -0.00886124 -0.00740585 -0.00599409 -0.00462596 -0.00338752 -0.00236483 -0.00155788 -0.000966671 -0.000543753 -0.000241668 -6.04169e-05 0 0 1.36675e-05 5.46701e-05 0.000123008 0.00021868 0.000307701 0.000356081 0.000363822 0.000330924 0.000220332 -5.00741e-06 -0.000345094 -0.000799927 -0.00136503 -0.00203592 -0.0028126 -0.00369507 -0.00466276 -0.0056951 -0.00679208 -0.00795371 -0.00916533 -0.0104123 -0.0116946 -0.0130122 -0.0143558 -0.015716 -0.0170927 -0.018486 -0.0198705 -0.021221 -0.0225374 -0.0238197 -0.0250174 -0.0260799 -0.0270072 -0.0277993 -0.0284102 -0.028794 -0.0289507 -0.0288802 -0.0285921 -0.0280959 -0.0273916 -0.0264793 -0.0254405 -0.0243569 -0.0232286 -0.0220556 -0.0209377 -0.0199749 -0.0191673 -0.0185148 -0.0180444 -0.0177829 -0.0177303 -0.0178867 -0.0181638 -0.0184734 -0.0188154 -0.01919 -0.0194605 -0.0194907 -0.0192805 -0.01883 -0.0180892 -0.0170085 -0.0155878 -0.0138271 -0.0118352 -0.00972101 -0.00748439 -0.00512539 -0.00282089 -0.000747749 0.00109402 0.00270442 0.00401783 0.00496862 0.00555678 0.00578234 0.0057528 0.00557571 0.00525106 0.00477886 0.00429778 0.0039465 0.00372501 0.00363333 0.00366541 0.00381521 0.00408275 0.00446802 0.00483138 0.00503321 0.00507352 0.0049523 0.00458079 0.00387025 0.00282068 0.00143207 -0.000206534 -0.0020061 -0.00396662 -0.00608811 -0.00818492 -0.0100714 -0.0117476 -0.0132135 -0.0143663 -0.0151034 -0.0154248 -0.0153304 -0.0148767 -0.0141203 -0.0130611 -0.0116991 -0.0101803 -0.0086505 -0.00710973 -0.00555797 -0.00411903 -0.00291667 -0.00195091 -0.00122174 -0.00068723 -0.000305436 -7.63589e-05 0 0 8.83166e-06 3.53266e-05 7.9485e-05 0.000141307 0.000181795 0.000161955 8.17859e-05 -5.87123e-05 -0.000292478 -0.000652449 -0.00113863 -0.00175101 -0.00247862 -0.00331049 -0.00424661 -0.00528697 -0.00640757 -0.00758435 -0.00881732 -0.0101065 -0.0114401 -0.0128065 -0.0142056 -0.0156375 -0.0170981 -0.0185831 -0.0200927 -0.0216268 -0.0231588 -0.0246624 -0.0261374 -0.0275839 -0.0289411 -0.0301483 -0.0312054 -0.0321126 -0.0328143 -0.0332553 -0.0334354 -0.0333548 -0.0330269 -0.0324652 -0.0316698 -0.0306407 -0.0294763 -0.0282753 -0.0270375 -0.0257629 -0.0245635 -0.0235509 -0.0227252 -0.0220863 -0.0216484 -0.0214255 -0.0214176 -0.0216248 -0.0219204 -0.0221781 -0.0223978 -0.0225795 -0.0225472 -0.0221249 -0.0213126 -0.0201103 -0.0184613 -0.0163091 -0.0136537 -0.010495 -0.00698389 -0.00327105 0.000643502 0.00475976 0.00883357 0.0126208 0.0161213 0.0193353 0.022152 0.0244607 0.0262616 0.0275545 0.0284469 0.0290462 0.0293525 0.0293656 0.0292433 0.0291432 0.0290653 0.0290097 0.028971 0.0289442 0.0289293 0.0289263 0.0287794 0.028333 0.0275871 0.0265417 0.0251119 0.0232128 0.0208445 0.018007 0.014835 0.0114633 0.00789205 0.00412116 0.000399477 -0.00302414 -0.00614969 -0.00897718 -0.0113669 -0.0131791 -0.0144138 -0.015071 -0.0152143 -0.0149075 -0.0141506 -0.0129436 -0.0114695 -0.00991124 -0.00826896 -0.00654261 -0.00490134 -0.0035143 -0.00238149 -0.00150292 -0.000845392 -0.00037573 -9.39325e-05 0 0 2.27119e-06 9.08477e-06 2.04407e-05 3.63391e-05 1.29343e-05 -9.36189e-05 -0.000283321 -0.000556171 -0.000938273 -0.00145573 -0.00210854 -0.00289671 -0.00380088 -0.00480171 -0.00589921 -0.00709336 -0.00835646 -0.00966076 -0.0110063 -0.012393 -0.0138139 -0.015262 -0.0167372 -0.0182395 -0.0197726 -0.0213403 -0.0229424 -0.0245791 -0.0262238 -0.02785 -0.0294578 -0.0310472 -0.0325465 -0.0338841 -0.0350601 -0.0360744 -0.0368612 -0.0373548 -0.0375551 -0.0374622 -0.0370942 -0.0364694 -0.0355876 -0.034449 -0.0331705 -0.0318694 -0.0305455 -0.0291989 -0.0279529 -0.0269307 -0.0261324 -0.0255579 -0.0252037 -0.0250662 -0.0251453 -0.025441 -0.0257804 -0.0259907 -0.0260717 -0.0260236 -0.0256237 -0.0246494 -0.0231008 -0.0209778 -0.0182164 -0.0147525 -0.010586 -0.00571705 -0.000346372 0.00532524 0.0112978 0.0175712 0.0238208 0.0297218 0.0352742 0.040478 0.0451668 0.0491742 0.0525001 0.0551446 0.0572114 0.0588045 0.0599237 0.0605691 0.0609184 0.061149 0.061261 0.0612545 0.0611255 0.0608702 0.0604886 0.0599807 0.0591745 0.0578982 0.0561517 0.053935 0.0511709 0.0477821 0.0437686 0.0391305 0.0340581 0.0287419 0.0231819 0.0173782 0.0116542 0.00633358 0.00141639 -0.0030974 -0.00702444 -0.0101814 -0.0125682 -0.0141848 -0.0151029 -0.0153937 -0.0150573 -0.0140937 -0.0127287 -0.011188 -0.00947177 -0.00757986 -0.00573446 -0.00415772 -0.00284963 -0.0018102 -0.00101824 -0.000452551 -0.000113138 0 0 -6.09842e-06 -2.43937e-05 -5.48858e-05 -9.75748e-05 -0.000200269 -0.000410778 -0.000729102 -0.00115524 -0.00170446 -0.00239204 -0.00321797 -0.00418226 -0.00525441 -0.00640395 -0.00763085 -0.00893514 -0.0102851 -0.0116492 -0.0130273 -0.0144195 -0.0158263 -0.0172484 -0.0186857 -0.0201383 -0.0216222 -0.0231534 -0.0247321 -0.0263581 -0.0280083 -0.0296593 -0.0313113 -0.0329642 -0.0345358 -0.035944 -0.0371887 -0.03827 -0.0391109 -0.0396344 -0.0398406 -0.0397294 -0.0393244 -0.0386491 -0.0377035 -0.0364876 -0.0351385 -0.0337933 -0.032452 -0.0311145 -0.0299142 -0.0289843 -0.0283248 -0.0279357 -0.0277888 -0.0278559 -0.028137 -0.0286321 -0.0291117 -0.0293463 -0.0293358 -0.0290804 -0.0283025 -0.0267251 -0.0243479 -0.0211711 -0.0171223 -0.0121292 -0.00619178 0.000689954 0.00825583 0.0162457 0.0246595 0.0334974 0.0423385 0.0507624 0.0587689 0.0663582 0.0732962 0.0793493 0.0845173 0.0888003 0.0922954 0.0950999 0.0972137 0.0986369 0.0995687 0.100208 0.100556 0.100612 0.100374 0.0998397 0.0990095 0.0978833 0.096272 0.0939866 0.0910271 0.0873935 0.0830191 0.0778372 0.0718479 0.065051 0.0577028 0.0500592 0.0421203 0.033886 0.0257672 0.0181748 0.0111088 0.00456915 -0.00120999 -0.00599442 -0.00978415 -0.0125792 -0.0144595 -0.0155052 -0.0157163 -0.0150927 -0.0139089 -0.0124391 -0.0106835 -0.00864198 -0.00659705 -0.00483117 -0.00334433 -0.00213654 -0.0012018 -0.000534135 -0.000133534 0 0 -1.63617e-05 -6.54469e-05 -0.000147255 -0.000261788 -0.000459203 -0.00078966 -0.00125316 -0.0018497 -0.00257845 -0.00343857 -0.00443006 -0.00555291 -0.00676183 -0.00801152 -0.00930198 -0.0106332 -0.0119693 -0.0132745 -0.0145488 -0.0157922 -0.0170169 -0.0182355 -0.0194479 -0.0206541 -0.0218893 -0.0231885 -0.0245517 -0.0259789 -0.0274553 -0.0289658 -0.0305106 -0.0320896 -0.0336113 -0.0349844 -0.0362088 -0.0372847 -0.0381232 -0.0386358 -0.0388225 -0.0386833 -0.0382478 -0.0375454 -0.0365762 -0.0353403 -0.0339958 -0.032701 -0.031456 -0.0302607 -0.0292557 -0.0285815 -0.0282381 -0.0282255 -0.0284819 -0.0289457 -0.0296166 -0.0304949 -0.0312822 -0.0316801 -0.0316887 -0.0313081 -0.0301966 -0.0280129 -0.024757 -0.0204288 -0.014947 -0.00823002 -0.000277986 0.00890915 0.0190013 0.0296682 0.0409099 0.0527265 0.0645842 0.0759491 0.0868214 0.097201 0.106774 0.115226 0.122558 0.128769 0.133948 0.138182 0.141471 0.143816 0.14544 0.146566 0.147195 0.147327 0.146961 0.146099 0.144741 0.142886 0.140327 0.136856 0.132473 0.127178 0.120918 0.113637 0.105337 0.0960169 0.0860088 0.0756446 0.0649243 0.0538478 0.0429268 0.0326728 0.0230858 0.0141658 0.0062055 -0.000502412 -0.00595794 -0.0101611 -0.0132015 -0.0151687 -0.0160629 -0.0158839 -0.0149608 -0.0136226 -0.0118694 -0.00970122 -0.00746777 -0.0055189 -0.0038546 -0.00247487 -0.00139212 -0.000618718 -0.00015468 0 0 -2.85187e-05 -0.000114075 -0.000256668 -0.000456299 -0.000763865 -0.00123026 -0.0018555 -0.00263956 -0.00356024 -0.00459532 -0.00574479 -0.00700866 -0.00832314 -0.00962445 -0.0109126 -0.0121875 -0.013409 -0.0145368 -0.0155708 -0.016511 -0.0173857 -0.0182233 -0.0190238 -0.0197871 -0.020574 -0.0214454 -0.0224013 -0.0234416 -0.0245648 -0.0257695 -0.0270557 -0.0284233 -0.029773 -0.0310054 -0.0321206 -0.0331184 -0.0338982 -0.0343591 -0.034501 -0.0343239 -0.0338642 -0.0331581 -0.0322057 -0.0310068 -0.0297422 -0.0285925 -0.0275576 -0.0266375 -0.0259774 -0.0257224 -0.0258724 -0.0264274 -0.0272832 -0.0283355 -0.0295842 -0.0310294 -0.0322918 -0.0329922 -0.0331305 -0.0327067 -0.0313058 -0.0285129 -0.0243279 -0.0187509 -0.0116903 -0.00305492 0.00715537 0.0189405 0.0318899 0.0455927 0.060049 0.0752587 0.0905578 0.105282 0.119432 0.133007 0.1456 0.156806 0.166623 0.175052 0.182169 0.188051 0.192697 0.196107 0.198533 0.200223 0.201178 0.201399 0.200888 0.199649 0.197683 0.194989 0.191339 0.186506 0.18049 0.17329 0.164867 0.155182 0.144236 0.132028 0.118976 0.105498 0.091594 0.0772636 0.0631328 0.0498273 0.0373472 0.0256925 0.015222 0.00629466 -0.00108954 -0.00693059 -0.0113287 -0.0143842 -0.016097 -0.0164671 -0.0158844 -0.0147385 -0.0130296 -0.0107576 -0.00834661 -0.0062209 -0.00438043 -0.0028252 -0.00158918 -0.000706301 -0.000176575 0 0 -4.25694e-05 -0.000170277 -0.000383124 -0.00068111 -0.00111426 -0.00173259 -0.00253611 -0.00352482 -0.00464984 -0.00586229 -0.00716218 -0.00854951 -0.00993834 -0.0112427 -0.0124627 -0.0135982 -0.0146043 -0.0154359 -0.0160931 -0.016576 -0.0169327 -0.0172118 -0.0174133 -0.0175371 -0.0176764 -0.0179243 -0.0182809 -0.0187461 -0.0193369 -0.0200704 -0.0209465 -0.0219653 -0.0230208 -0.024007 -0.0249238 -0.0257713 -0.0264359 -0.0268041 -0.0268759 -0.0266512 -0.0261738 -0.0254873 -0.0245919 -0.0234874 -0.022378 -0.0214678 -0.0207568 -0.020245 -0.0200794 -0.0204069 -0.0212276 -0.0225414 -0.0241926 -0.0260254 -0.0280397 -0.0302356 -0.0321407 -0.0332825 -0.033661 -0.0332762 -0.0316302 -0.0282251 -0.0230607 -0.0161373 -0.00735242 0.00339611 0.0161083 0.0307841 0.0469217 0.0640192 0.0820766 0.101094 0.120259 0.138762 0.1566 0.173775 0.189775 0.204087 0.216711 0.227647 0.236958 0.244706 0.25089 0.25551 0.258846 0.261178 0.262505 0.262827 0.262153 0.260489 0.257835 0.254192 0.249309 0.242938 0.235077 0.225727 0.214866 0.202472 0.188545 0.173085 0.156605 0.13962 0.122129 0.104133 0.0863852 0.0696385 0.0538932 0.0391493 0.0258395 0.0143968 0.00482106 -0.00288768 -0.00884129 -0.0131516 -0.0158187 -0.0168426 -0.0166798 -0.0157869 -0.014164 -0.011811 -0.00923357 -0.00693717 -0.00492183 -0.00318753 -0.00179299 -0.000796883 -0.000199221 0 0 -5.82476e-05 -0.000232991 -0.000524229 -0.000931962 -0.00150305 -0.00228437 -0.0032759 -0.00447765 -0.00580791 -0.00718497 -0.00860883 -0.0100795 -0.0114843 -0.0127105 -0.0137582 -0.0146273 -0.0152677 -0.0156292 -0.0157117 -0.0155154 -0.0151138 -0.0145808 -0.0139163 -0.0131203 -0.0123272 -0.0116716 -0.0111533 -0.0107724 -0.0105717 -0.0105941 -0.0108396 -0.0113081 -0.0118895 -0.0124736 -0.