<?xml version="1.0"?> 
<VTKFile type="StructuredGrid" version="0.1"> 
<StructuredGrid WholeExtent="0 128 0 128 0 0"> 
<Piece Extent="0 128 0 128 0 0"> 
<PointData>
<DataArray type="Float32" Name="u" format="ascii" NumberOfComponents="1"> 
0 0 0 0 0 0 0 0 0 0 0 0 0 0 0 0 0 0 0 0 0 0 0 0 0 0 0 0 0 0 0 0 0 0 0 0 0 0 0 0 0 0 0 0 0 0 0 0 0 0 0 0 0 0 0 0 0 0 0 0 0 0 0 0 0 0 0 0 0 0 0 0 0 0 0 0 0 0 0 0 0 0 0 0 0 0 0 0 0 0 0 0 0 0 0 0 0 0 0 0 0 0 0 0 0 0 0 0 0 0 0 0 0 0 0 0 0 0 0 0 0 0 0 0 0 0 0 0 0 0 -4.92268e-08 -1.96907e-07 -4.43041e-07 -7.87628e-07 -1.04234e-06 -1.01883e-06 -7.17114e-07 -1.37184e-07 8.62327e-07 2.42279e-06 4.54419e-06 7.22655e-06 1.04203e-05 1.4076e-05 1.81935e-05 2.27729e-05 2.77031e-05 3.28728e-05 3.82821e-05 4.3931e-05 4.97484e-05 5.56631e-05 6.16752e-05 6.77846e-05 7.39628e-05 8.01812e-05 8.64397e-05 9.27385e-05 9.89784e-05 0.00010506 0.000110985 0.000116751 0.000122133 0.000126906 0.000131068 0.00013462 0.000137376 0.000139151 0.000139945 0.000139759 0.000138705 0.0001369 0.000134342 0.000131033 0.000127349 0.00012367 0.000119995 0.000116324 0.000112852 0.000109776 0.000107094 0.000104808 0.000102549 9.99511e-05 9.70146e-05 9.37392e-05 8.94237e-05 8.3367e-05 7.55691e-05 6.603e-05 5.43759e-05 4.02332e-05 2.36018e-05 4.48163e-06 -1.68019e-05 -3.99234e-05 -6.4883e-05 -9.16806e-05 -0.000119552 -0.000147733 -0.000176223 -0.000205023 -0.000233435 -0.00026076 -0.000287 -0.000312154 -0.000335841 -0.000357683 -0.00037768 -0.000395831 -0.000412005 -0.000426071 -0.00043803 -0.000447881 -0.000455579 -0.000461078 -0.00046438 -0.000465483 -0.000464355 -0.000460963 -0.000455308 -0.000447389 -0.000437241 -0.0004249 -0.000410365 -0.000393637 -0.000374941 -0.000354503 -0.000332322 -0.0003084 -0.000283242 -0.000257355 -0.000230738 -0.000203392 -0.000176059 -0.00014948 -0.000123654 -9.85827e-05 -7.49903e-05 -5.36023e-05 -3.44186e-05 -1.74392e-05 -2.99467e-06 8.58457e-06 1.72985e-05 2.3147e-05 2.64895e-05 2.76849e-05 2.67334e-05 2.3635e-05 1.95067e-05 1.54657e-05 1.1512e-05 7.64559e-06 4.30064e-06 1.9114e-06 4.77849e-07 0 0 -1.96907e-07 -7.87628e-07 -1.77216e-06 -3.15051e-06 -4.16934e-06 -4.07533e-06 -2.86846e-06 -5.48736e-07 3.44931e-06 9.69114e-06 1.81768e-05 2.89062e-05 4.16813e-05 5.63039e-05 7.27741e-05 9.10918e-05 0.000110812 0.000131491 0.000153129 0.000175724 0.000198994 0.000222652 0.000246701 0.000271138 0.000295851 0.000320725 0.000345759 0.000370954 0.000395914 0.000420242 0.000443939 0.000467004 0.000488534 0.000507622 0.000524271 0.000538478 0.000549503 0.000556604 0.000559782 0.000559035 0.000554822 0.0005476 0.00053737 0.000524131 0.000509396 0.000494679 0.000479978 0.000465295 0.000451409 0.000439104 0.000428377 0.00041923 0.000410195 0.000399805 0.000388058 0.000374957 0.000357695 0.000333468 0.000302276 0.00026412 0.000217504 0.000160933 9.4407e-05 1.79265e-05 -6.72075e-05 -0.000159694 -0.000259532 -0.000366722 -0.000478208 -0.000590931 -0.000704893 -0.000820093 -0.000933739 -0.00104304 -0.001148 -0.00124861 -0.00134337 -0.00143073 -0.00151072 -0.00158332 -0.00164802 -0.00170428 -0.00175212 -0.00179152 -0.00182231 -0.00184431 -0.00185752 -0.00186193 -0.00185742 -0.00184385 -0.00182123 -0.00178956 -0.00174896 -0.0016996 -0.00164146 -0.00157455 -0.00149976 -0.00141801 -0.00132929 -0.0012336 -0.00113297 -0.00102942 -0.000922953 -0.00081357 -0.000704236 -0.000597918 -0.000494617 -0.000394331 -0.000299961 -0.000214409 -0.000137674 -6.97569e-05 -1.19787e-05 3.43383e-05 6.91939e-05 9.25881e-05 0.000105958 0.00011074 0.000106934 9.454e-05 7.80269e-05 6.1863e-05 4.60481e-05 3.05824e-05 1.72026e-05 7.64559e-06 1.9114e-06 0 0 -4.43041e-07 -1.77216e-06 -3.98737e-06 -7.08865e-06 -9.38102e-06 -9.16948e-06 -6.45402e-06 -1.23466e-06 7.76094e-06 2.18051e-05 4.08977e-05 6.50389e-05 9.37829e-05 0.000126684 0.000163742 0.000204956 0.000249328 0.000295855 0.000344539 0.000395379 0.000447736 0.000500968 0.000555077 0.000610061 0.000665665 0.00072163 0.000777958 0.000834646 0.000890805 0.000945544 0.000998862 0.00105076 0.0010992 0.00114215 0.00117961 0.00121158 0.00123638 0.00125236 0.00125951 0.00125783 0.00124835 0.0012321 0.00120908 0.00117929 0.00114614 0.00111303 0.00107995 0.00104691 0.00101567 0.000987983 0.000963849 0.000943268 0.000922939 0.00089956 0.000873131 0.000843653 0.000804813 0.000750303 0.000680122 0.00059427 0.000489383 0.000362099 0.000212416 4.03347e-05 -0.000151217 -0.000359311 -0.000583947 -0.000825125 -0.00107597 -0.0013296 -0.00158601 -0.00184521 -0.00210091 -0.00234684 -0.002583 -0.00280938 -0.00302257 -0.00321915 -0.00339912 -0.00356248 -0.00370804 -0.00383464 -0.00394227 -0.00403093 -0.00410021 -0.0041497 -0.00417942 -0.00418934 -0.00417919 -0.00414867 -0.00409777 -0.0040265 -0.00393517 -0.0038241 -0.00369329 -0.00354273 -0.00337447 -0.00319052 -0.0029909 -0.0027756 -0.00254918 -0.00231619 -0.00207664 -0.00183053 -0.00158453 -0.00134532 -0.00111289 -0.000887244 -0.000674913 -0.000482421 -0.000309768 -0.000156953 -2.6952e-05 7.72611e-05 0.000155686 0.000208323 0.000238405 0.000249164 0.000240601 0.000212715 0.000175561 0.000139192 0.000103608 6.88103e-05 3.87058e-05 1.72026e-05 4.30064e-06 0 0 -7.87628e-07 -3.15051e-06 -7.08865e-06 -1.26021e-05 -1.66774e-05 -1.63013e-05 -1.14738e-05 -2.19494e-06 1.37972e-05 3.87646e-05 7.27071e-05 0.000115625 0.000166725 0.000225216 0.000291096 0.000364367 0.000443249 0.000525965 0.000612514 0.000702896 0.000795974 0.00089061 0.000986803 0.00108455 0.0011834 0.0012829 0.00138304 0.00148382 0.00158365 0.00168097 0.00177575 0.00186802 0.00195413 0.00203049 0.00209708 0.00215391 0.00219801 0.00222642 0.00223913 0.00223614 0.00221929 0.0021904 0.00214948 0.00209652 0.00203758 0.00197871 0.00191991 0.00186118 0.00180564 0.00175641 0.00171351 0.00167692 0.00164078 0.00159922 0.00155223 0.00149983 0.00143078 0.00133387 0.00120911 0.00105648 0.000870015 0.000643731 0.000377628 7.17061e-05 -0.00026883 -0.000638774 -0.00103813 -0.00146689 -0.00191283 -0.00236373 -0.00281957 -0.00328037 -0.00373496 -0.00417217 -0.004592 -0.00499446 -0.00537346 -0.00572293 -0.00604288 -0.00633329 -0.00659208 -0.00681714 -0.00700848 -0.00716609 -0.00728926 -0.00737725 -0.00743007 -0.00744772 -0.00742968 -0.00737541 -0.00728493 -0.00715822 -0.00699586 -0.0067984 -0.00656584 -0.00629819 -0.00599905 -0.00567204 -0.00531716 -0.0049344 -0.00453187 -0.00411768 -0.00369181 -0.00325428 -0.00281694 -0.00239167 -0.00197847 -0.00157732 -0.00119985 -0.000857637 -0.000550698 -0.000279028 -4.79147e-05 0.000137353 0.000276775 0.000370353 0.000423831 0.000442959 0.000427735 0.00037816 0.000312108 0.000247452 0.000184192 0.000122329 6.88103e-05 3.05824e-05 7.64559e-06 0 0 -9.60215e-07 -3.84086e-06 -8.64193e-06 -1.53634e-05 -1.95556e-05 -1.67688e-05 -7.00283e-06 9.74215e-06 3.6492e-05 7.62725e-05 0.000129084 0.000194926 0.000272402 0.000360117 0.000458071 0.000566263 0.000682045 0.000802767 0.000928429 0.00105903 0.00119313 0.00132928 0.00146748 0.00160773 0.00174967 0.00189294 0.00203753 0.00218346 0.00232847 0.0024703 0.00260896 0.00274446 0.00287124 0.00298377 0.00308204 0.00316606 0.00323128 0.00327317 0.00329173 0.00328695 0.00326175 0.00321901 0.00315874 0.00308094 0.00299481 0.00290956 0.00282519 0.0027417 0.00266338 0.00259449 0.00253506 0.00248507 0.00243487 0.00237479 0.00230482 0.00222498 0.00211798 0.00196653 0.00177064 0.0015303 0.00123708 0.000882535 0.000466667 -1.05252e-05 -0.000540366 -0.00111418 -0.00173197 -0.00239373 -0.00308103 -0.00377543 -0.00447694 -0.00518556 -0.00588515 -0.00655959 -0.00720888 -0.00783301 -0.00842289 -0.0089694 -0.00947255 -0.00993234 -0.0103443 -0.0107041 -0.0110116 -0.0112668 -0.0114673 -0.0116104 -0.0116962 -0.0117247 -0.0116951 -0.0116066 -0.0114593 -0.0112531 -0.0109905 -0.0106738 -0.0103031 -0.00987829 -0.00940618 -0.00889354 -0.00834037 -0.00774667 -0.00712448 -0.00648586 -0.00583078 -0.00515927 -0.00448823 -0.0038346 -0.00319836 -0.00257952 -0.00199539 -0.00146325 -0.000983106 -0.000554965 -0.000187701 0.000109808 0.000337562 0.000495561 0.000591626 0.000633577 0.000621416 0.00055514 0.000461959 0.000369082 0.000276508 0.000184238 0.000103634 4.60594e-05 1.15149e-05 0 0 -6.90346e-07 -2.76138e-06 -6.21311e-06 -1.10455e-05 -1.1513e-05 -1.86983e-06 1.7884e-05 4.77484e-05 9.07791e-05 0.000150032 0.000225506 0.000317203 0.000422707 0.000539606 0.000667898 0.000807585 0.000955182 0.00110721 0.00126366 0.00142454 0.00158862 0.00175467 0.0019227 0.0020927 0.00226505 0.00244015 0.00261799 0.00279858 0.00297924 0.00315733 0.00333284 0.00350577 0.00366842 0.00381311 0.00393983 0.00404858 0.00413307 0.00418701 0.00421041 0.00420326 0.00416985 0.00411445 0.00403705 0.00393766 0.0038289 0.00372339 0.00362112 0.00352209 0.00343095 0.00335232 0.00328621 0.00323261 0.00317635 0.00310227 0.00301036 0.00290061 0.00274879 0.00253062 0.00224612 0.00189528 0.00146826 0.000955216 0.000356155 -0.000328925 -0.00108614 -0.00190162 -0.00277536 -0.00370736 -0.00467279 -0.00564684 -0.00662949 -0.00762075 -0.00860077 -0.00954969 -0.0104675 -0.0113542 -0.0121977 -0.0129859 -0.0137187 -0.0143962 -0.015009 -0.0155477 -0.0160124 -0.0164029 -0.0167121 -0.0169327 -0.0170646 -0.0171078 -0.0170615 -0.0169247 -0.0166974 -0.0163796 -0.0159786 -0.0155018 -0.014949 -0.0143204 -0.0136285 -0.012886 -0.0120929 -0.0112491 -0.0103705 -0.00947272 -0.00855589 -0.00761996 -0.00668516 -0.0057717 -0.00487958 -0.0040088 -0.00318216 -0.00242243 -0.00172963 -0.00110375 -0.000559147 -0.000110182 0.000243145 0.000500833 0.000671178 0.000762475 0.000774722 0.00070792 0.000599407 0.000486522 0.000369264 0.000247633 0.000139294 6.19083e-05 1.54771e-05 0 0 2.19778e-08 8.79111e-08 1.978e-07 3.51644e-07 7.45051e-06 2.83955e-05 6.31865e-05 0.000111824 0.000176658 0.000260042 0.000361975 0.000482457 0.000617642 0.000763682 0.000920579 0.00108833 0.00126266 0.00143928 0.0016182 0.00179942 0.00198244 0.00216679 0.00235246 0.00253946 0.00272956 0.00292455 0.00312442 0.00332917 0.00353599 0.00374206 0.00394738 0.00415195 0.00434569 0.00451852 0.00467045 0.00480147 0.00490337 0.00496794 0.00499517 0.00498507 0.00494359 0.00487671 0.00478441 0.00466669 0.00453986 0.00442019 0.00430769 0.00420235 0.00410836 0.0040299 0.00396695 0.00391953 0.00386523 0.00378167 0.00366883 0.00352673 0.00332322 0.00302616 0.00263556 0.00215142 0.00156355 0.000861773 4.60929e-05 -0.000883493 -0.00190617 -0.0030011 -0.00416831 -0.00540778 -0.00668812 -0.00797793 -0.00927721 -0.010586 -0.0118818 -0.0131425 -0.0143679 -0.0155581 -0.0166979 -0.0177723 -0.0187813 -0.0197249 -0.0205861 -0.0213481 -0.0220109 -0.0225744 -0.0230238 -0.0233441 -0.0235352 -0.0235972 -0.023529 -0.0233297 -0.0229993 -0.0225377 -0.0219602 -0.0212822 -0.0205036 -0.0196245 -0.0186661 -0.0176494 -0.0165746 -0.0154416 -0.0142698 -0.0130783 -0.0118671 -0.0106364 -0.00940772 -0.00820298 -0.00702212 -0.00586516 -0.00476017 -0.0037352 -0.00279028 -0.00192538 -0.00116225 -0.000522616 -6.47558e-06 0.00038617 0.000662489 0.00082965 0.000887653 0.000836499 0.00072445 0.00059977 0.000462459 0.000312516 0.00017579 7.81291e-05 1.95323e-05 0 0 1.17676e-06 4.70703e-06 1.05908e-05 1.88281e-05 3.73349e-05 7.40272e-05 0.000128905 0.000201968 0.00029413 0.000406304 0.00053849 0.000690688 0.000857204 0.00103235 0.00121611 0.0014085 0.00160448 0.001799 0.00199206 0.00218367 0.0023746 0.00256564 0.00275678 0.00294802 0.00314319 0.00334612 0.0035568 0.00377524 0.0039987 0.00422449 0.00445258 0.00468299 0.00490302 0.00509999 0.0052739 0.00542474 0.0055422 0.00561596 0.00564601 0.00563237 0.00558297 0.00550579 0.00540081 0.00526803 0.00512768 0.00499998 0.00488491 0.00478248 0.00469561 0.00462722 0.00457729 0.00454583 0.00450151 0.00441298 0.00428025 0.00410332 0.00384126 0.00345314 0.00293895 0.00229871 0.00152295 0.000602207 -0.00046352 -0.00167423 -0.00300043 -0.00441262 -0.00591081 -0.00749499 -0.00912701 -0.0107687 -0.0124201 -0.0140812 -0.0157283 -0.0173379 -0.01891 -0.0204446 -0.0219235 -0.0233288 -0.0246604 -0.0259183 -0.0270756 -0.0281052 -0.0290071 -0.0297813 -0.0304023 -0.0308445 -0.031108 -0.0311927 -0.0310976 -0.0308217 -0.0303649 -0.0297273 -0.0289352 -0.0280151 -0.0269669 -0.0257907 -0.0245188 -0.0231838 -0.0217856 -0.0203243 -0.0188225 -0.0173025 -0.0157645 -0.0142085 -0.0126559 -0.0111284 -0.00962599 -0.0081486 -0.00672941 -0.00540155 -0.00416504 -0.00301986 -0.00199701 -0.00112749 -0.000411299 0.00015157 0.000565557 0.000835104 0.000960211 0.000940878 0.000837089 0.000708828 0.000556093 0.000378886 0.000213124 9.47216e-05 2.36804e-05 0 0 2.88457e-06 1.15383e-05 2.59612e-05 4.61532e-05 8.02929e-05 0.000136559 0.000214952 0.000315471 0.000436304 0.000575641 0.000733481 0.000909824 0.00109684 0.00128669 0.00147938 0.00167491 0.00186795 0.00205319 0.00223063 0.00240026 0.00256498 0.00272768 0.00288836 0.00304703 0.00321036 0.00338502 0.00357102 0.00376836 0.00397501 0.00418896 0.0044102 0.00463873 0.00485977 0.0050585 0.00523493 0.00538906 0.00550897 0.00558273 0.00561035 0.00559182 0.0055373 0.00545692 0.00535069 0.00521861 0.00508403 0.00497032 0.00487746 0.00480547 0.00475411 0.00472318 0.00471265 0.00472255 0.00471119 0.0046369 0.00449967 0.00429951 0.00398793 0.00351641 0.00288498 0.00209362 0.00113713 1.02941e-05 -0.00128689 -0.00275442 -0.0043521 -0.00603972 -0.00781728 -0.0096848 -0.0116002 -0.0135215 -0.0154487 -0.0173817 -0.0193016 -0.0211892 -0.0230445 -0.0248675 -0.0266397 -0.0283425 -0.0299759 -0.03154 -0.0329939 -0.0342968 -0.0354488 -0.0364499 -0.0372589 -0.0378346 -0.038177 -0.0382862 -0.0381612 -0.0378011 -0.037206 -0.0363758 -0.0353533 -0.0341811 -0.0328594 -0.0313881 -0.0298144 -0.0281855 -0.0265013 -0.0247619 -0.02299 -0.0212081 -0.0194163 -0.0176146 -0.0158177 -0.0140404 -0.0122827 -0.0105445 -0.00886103 -0.00726727 -0.00576323 -0.00434892 -0.00306705 -0.00196033 -0.00102877 -0.000272365 0.000306386 0.000704984 0.000923429 0.00096172 0.00088959 0.000776773 0.000623268 0.000429075 0.000241354 0.000107269 2.68172e-05 0 0 5.25601e-06 2.1024e-05 4.73041e-05 8.40961e-05 0.000138477 0.000217525 0.000321239 0.00044962 0.000596291 0.000754876 0.000925377 0.00110779 0.00129198 0.0014678 0.00163526 0.00179435 0.00194039 0.0020687 0.00217929 0.00227214 0.00235344 0.00242938 0.00249995 0.00256515 0.00263547 0.00272141 0.00282296 0.00294012 0.00307252 0.00321981 0.00338197 0.003559 0.00373524 0.00389501 0.0040383 0.00416512 0.00426312 0.00431995 0.00433561 0.00431011 0.00425587 0.00418533 0.00409849 0.00399535 0.00390057 0.0038388 0.00381004 0.0038143 0.00384527 0.00389667 0.00396848 0.00406072 0.00412029 0.00409409 0.00398213 0.00378441 0.00344822 0.00292086 0.00220232 0.0012926 0.000196751 -0.00108019 -0.00253822 -0.00417735 -0.00594433 -0.00778593 -0.00970215 -0.011693 -0.0137185 -0.0157387 -0.0177535 -0.019763 -0.021763 -0.0237493 -0.0257219 -0.0276807 -0.0296117 -0.0315008 -0.0333479 -0.0351531 -0.0368572 -0.0384007 -0.0397839 -0.0410065 -0.0420047 -0.0427146 -0.0431361 -0.0432693 -0.0431136 -0.0426685 -0.0419341 -0.0409104 -0.0396639 -0.038261 -0.0367018 -0.0349862 -0.0331805 -0.0313507 -0.0294969 -0.0276191 -0.0257338 -0.0238577 -0.0219908 -0.0201331 -0.018281 -0.0164313 -0.0145837 -0.0127384 -0.0109262 -0.00917813 -0.00749416 -0.00587428 -0.00437596 -0.00305664 -0.00191634 -0.000955038 -0.000189022 0.000365437 0.00070834 0.000839686 0.00083422 0.000766686 0.000637083 0.000445411 0.000250544 0.000111353 2.78382e-05 0 0 8.29107e-06 3.31643e-05 7.46196e-05 0.000132657 0.000211888 0.000316925 0.000447768 0.000604415 0.00077409 0.000944011 0.00111418 0.00128459 0.00144264 0.00157569 0.00168376 0.00176683 0.0018218 0.00184554 0.00183804 0.00179932 0.00174 0.00167074 0.00159153 0.00150238 0.00141854 0.00135528 0.00131261 0.00129052 0.00129125 0.00131704 0.00136789 0.0014438 0.00152945 0.00160951 0.001684 0.00175291 0.00180464 0.0018276 0.00182179 0.00178722 0.00173868 0.00169101 0.00164421 0.00159826 0.00157729 0.00160542 0.00168265 0.00180898 0.0019691 0.00214769 0.00234478 0.00256034 0.0027288 0.00278456 0.00272764 0.00255802 0.00222215 0.00166647 0.000890964 -0.000104355 -0.00129819 -0.00266925 -0.00421752 -0.00594301 -0.00777712 -0.00965125 -0.0115654 -0.0135196 -0.0154818 -0.0174202 -0.0193346 -0.0212251 -0.0231127 -0.0250184 -0.0269422 -0.0288842 -0.0308395 -0.0328036 -0.0347763 -0.0367578 -0.0386655 -0.040417 -0.0420122 -0.0434511 -0.0446399 -0.0454846 -0.0459853 -0.046142 -0.0459547 -0.0454239 -0.0445494 -0.0433312 -0.0418671 -0.0402547 -0.038494 -0.036585 -0.0346171 -0.0326796 -0.0307725 -0.0288958 -0.0270539 -0.0252513 -0.0234879 -0.0217639 -0.0200459 -0.018301 -0.016529 -0.0147301 -0.0129249 -0.0111341 -0.00935783 -0.00759596 -0.00592375 -0.00441643 -0.003074 -0.00189645 -0.000920667 -0.000183536 0.000314946 0.000574778 0.000670978 0.000678565 0.000597538 0.000427896 0.000240692 0.000106974 2.67435e-05 0 0 1.19897e-05 4.7959e-05 0.000107908 0.000191836 0.000300526 0.000434759 0.000594537 0.000779858 0.000969701 0.00114304 0.00129989 0.00144023 0.0015488 0.00161035 0.00162487 0.00159236 0.00151218 0.00138369 0.00120689 0.000981791 0.000724658 0.000451766 0.000163118 -0.000141289 -0.00044045 -0.000713362 -0.000960026 -0.00118044 -0.00136881 -0.00151934 -0.00163203 -0.00170688 -0.00175762 -0.00179798 -0.00182797 -0.00184757 -0.00186647 -0.00189431 -0.00193111 -0.00197685 -0.00201425 -0.00202602 -0.00201216 -0.00197267 -0.0018858 -0.00172982 -0.00150472 -0.0012105 -0.000874422 -0.000523746 -0.00015847 0.000221407 0.000536723 0.000708318 0.000736193 0.000620346 0.000309716 -0.000246759 -0.00104908 -0.00209724 -0.0033477 -0.00475687 -0.00632478 -0.00805141 -0.00985048 -0.0116357 -0.0134071 -0.0151646 -0.0168902 -0.018566 -0.0201918 -0.0217678 -0.0233505 -0.0249964 -0.0267055 -0.0284779 -0.0303231 -0.0322509 -0.0342612 -0.036354 -0.038419 -0.0403456 -0.0421338 -0.0437838 -0.0451644 -0.0461447 -0.0467246 -0.0469043 -0.0466847 -0.0460672 -0.0450517 -0.0436381 -0.0419628 -0.0401621 -0.038236 -0.0361845 -0.0341243 -0.0321721 -0.0303281 -0.0285921 -0.0269503 -0.0253889 -0.0239078 -0.022507 -0.0211123 -0.0196496 -0.0181187 -0.0165198 -0.0148572 -0.0131353 -0.0113542 -0.00951394 -0.00771042 -0.00603969 -0.00450175 -0.00309659 -0.00188855 -0.000941936 -0.000256754 0.000166994 0.000399865 0.000512411 0.000504633 0.00037653 0.000211798 9.41325e-05 2.35331e-05 0 0 1.58685e-05 6.34739e-05 0.000142816 0.000253895 0.000392102 0.000552828 0.000736072 0.000941835 0.00113975 0.00129943 0.0014209 0.00150414 0.00153217 0.001488 0.00137161 0.00118302 0.000925516 0.000602398 0.000213667 -0.00024068 -0.000738444 -0.00125743 -0.00179764 -0.00235907 -0.00291568 -0.00344142 -0.00393629 -0.00440029 -0.00482384 -0.00519736 -0.00552083 -0.00579427 -0.00602765 -0.00623094 -0.00640413 -0.00654724 -0.00666549 -0.00676412 -0.00684314 -0.00690254 -0.00692254 -0.00688338 -0.00678505 -0.00662756 -0.00639484 -0.00607084 -0.00565557 -0.00514902 -0.00459413 -0.00403384 -0.00346815 -0.00289705 -0.00241258 -0.00210675 -0.00197956 -0.00203102 -0.00230244 -0.00283512 -0.00362906 -0.00468426 -0.0059255 -0.00727758 -0.00874048 -0.0103142 -0.0118923 -0.0133684 -0.0147423 -0.0160142 -0.01719 -0.0182755 -0.0192709 -0.0201761 -0.0210996 -0.0221501 -0.0233275 -0.0246319 -0.026096 -0.0277529 -0.0296024 -0.0316445 -0.0337362 -0.0357343 -0.0376386 -0.0394494 -0.0409895 -0.0420822 -0.0427273 -0.042925 -0.0426777 -0.0419877 -0.040855 -0.0392797 -0.0374455 -0.0355364 -0.0335522 -0.031493 -0.0295068 -0.0277417 -0.0261977 -0.0248749 -0.0237307 -0.0227229 -0.0218514 -0.0211162 -0.0203852 -0.0195263 -0.0185395 -0.0174248 -0.0161613 -0.0147283 -0.0131256 -0.0113532 -0.0095317 -0.00778131 -0.00610207 -0.00449398 -0.00305804 -0.00189524 -0.00100558 -0.000389058 1.30577e-05 0.000259509 0.000350296 0.000285419 0.000160548 7.13547e-05 1.78387e-05 0 0 1.94437e-05 7.77747e-05 0.000174993 0.000311099 0.000474332 0.000652932 0.000846899 0.00105623 0.00124084 0.00136064 0.00141563 0.0014058 0.00131444 0.00112484 0.000837003 0.000450925 -2.4178e-05 -0.000579089 -0.00121381 -0.00192834 -0.00269515 -0.00348673 -0.00430308 -0.00514419 -0.00598134 -0.00678578 -0.00755752 -0.00829656 -0.00899002 -0.00962502 -0.0102016 -0.0107196 -0.0111823 -0.0115928 -0.011951 -0.012257 -0.0125077 -0.0127002 -0.0128343 -0.0129103 -0.0129058 -0.0127986 -0.0125889 -0.0122765 -0.0118559 -0.0113216 -0.0106734 -0.00991148 -0.00909889 -0.00829878 -0.00751115 -0.00673601 -0.00607574 -0.00563273 -0.00540698 -0.00539849 -0.00562766 -0.0061149 -0.00686021 -0.00786358 -0.00900536 -0.0101659 -0.0113451 -0.0125431 -0.0136306 -0.0144783 -0.0150864 -0.0154547 -0.0156274 -0.0156482 -0.0155173 -0.0152347 -0.0149834 -0.0149465 -0.0151241 -0.0155162 -0.0161917 -0.0172195 -0.0185996 -0.0203321 -0.0222361 -0.0241309 -0.0260165 -0.0278927 -0.0295265 -0.0306845 -0.0313667 -0.031573 -0.0313076 -0.0305744 -0.0293734 -0.0277045 -0.0258096 -0.0239304 -0.0220668 -0.0202189 -0.0185696 -0.0173018 -0.0164156 -0.015911 -0.0157027 -0.0157057 -0.0159198 -0.0163452 -0.0167695 -0.0169806 -0.0169783 -0.0167628 -0.0162759 -0.0154596 -0.0143139 -0.0128389 -0.0111833 -0.00949616 -0.00777743 -0.00602711 -0.00439451 -0.00302891 -0.00193034 -0.00109877 -0.000497266 -8.88565e-05 0.000126455 0.00014867 8.36266e-05 3.71674e-05 9.29185e-06 0 0 2.27153e-05 9.08614e-05 0.000204438 0.000363446 0.000547213 0.00073507 0.000927017 0.00112305 0.001273 0.00132667 0.00128406 0.00114518 0.000895597 0.000520885 2.10435e-05 -0.000603927 -0.00133691 -0.00216078 -0.00307553 -0.00408118 -0.00514546 -0.00623614 -0.0073532 -0.00849665 -0.00963742 -0.0107464 -0.0118237 -0.0128692 -0.0138673 -0.0148023 -0.0156742 -0.0164829 -0.0172217 -0.0178836 -0.0184687 -0.0189768 -0.0193931 -0.0197024 -0.0199047 -0.0200001 -0.0199639 -0.0197718 -0.0194237 -0.0189196 -0.0182691 -0.017482 -0.0165583 -0.0154979 -0.0143887 -0.0133186 -0.0122875 -0.0112955 -0.0104528 -0.00986962 -0.00954605 -0.00948205 -0.00966595 -0.0100861 -0.0107425 -0.0116352 -0.0125873 -0.0134217 -0.0141386 -0.014738 -0.0150652 -0.0149656 -0.0144393 -0.0134862 -0.0122024 -0.010684 -0.00893109 -0.00694357 -0.00500167 -0.00338559 -0.00209533 -0.00113088 -0.0006101 -0.000650819 -0.00125304 -0.00241676 -0.00391869 -0.00553553 -0.00726728 -0.00911394 -0.0107754 -0.0119516 -0.0126426 -0.0128483 -0.0125746 -0.0118274 -0.0106068 -0.00891263 -0.00705509 -0.00534418 -0.00377991 -0.00236228 -0.00131268 -0.000852512 -0.000981767 -0.00170045 -0.00286634 -0.00433722 -0.0061131 -0.00819396 -0.0102652 -0.0120122 -0.013435 -0.0145336 -0.0152008 -0.0153293 -0.0149194 -0.0139708 -0.0126652 -0.0111842 -0.00952782 -0.00769598 -0.00589795 -0.00434297 -0.00303104 -0.00196215 -0.00113111 -0.000532686 -0.000166889 -3.3718e-05 -1.89664e-05 -8.42949e-06 -2.10737e-06 0 0 2.56835e-05 0.000102734 0.000231152 0.000410936 0.000610747 0.000799244 0.000976427 0.0011423 0.00123621 0.00119751 0.00102621 0.000722299 0.00027565 -0.000323871 -0.00107627 -0.00198154 -0.00301267 -0.00414266 -0.00537151 -0.00669921 -0.00808938 -0.00950565 -0.010948 -0.0124165 -0.0138839 -0.0153234 -0.0167349 -0.0181184 -0.0194558 -0.0207293 -0.0219387 -0.0230842 -0.0241457 -0.0251033 -0.025957 -0.0267068 -0.0273217 -0.0277709 -0.0280543 -0.0281719 -0.0280971 -0.0278029 -0.0272894 -0.0265567 -0.0256344 -0.0245522 -0.0233102 -0.0219082 -0.0204635 -0.0190932 -0.0177971 -0.0165754 -0.0155436 -0.0148174 -0.0143968 -0.0142817 -0.0144173 -0.0147488 -0.015276 -0.0159992 -0.0166712 -0.0170452 -0.0171211 -0.016899 -0.0161962 -0.0148302 -0.012801 -0.0101085 -0.00691506 -0.00338296 0.000487798 0.00469721 0.00884546 0.0125327 0.0157589 0.0185241 0.0206487 0.0219532 0.0224374 0.0221015 0.0212161 0.0200519 0.0186089 0.016887 0.0152638 0.0141164 0.0134449 0.0132493 0.0135214 0.0142533 0.0154448 0.017096 0.0188181 0.0202223 0.0213085 0.0220769 0.022264 0.0216063 0.0201039 0.0177568 0.0147784 0.0113825 0.0075688 0.00333748 -0.000872309 -0.00462137 -0.00790971 -0.0107373 -0.012936 -0.0143375 -0.0149418 -0.014749 -0.0139775 -0.0128456 -0.0113533 -0.00950059 -0.00756837 -0.0058374 -0.00430767 -0.00297919 -0.00188846 -0.00107198 -0.000529738 -0.000261744 -0.000147231 -6.54359e-05 -1.6359e-05 0 0 2.75903e-05 0.000110361 0.000248312 0.000441444 0.000646614 0.000820678 0.000963638 0.00107549 0.00108712 0.00092938 0.000602285 0.000105831 -0.000561558 -0.00140146 -0.00241387 -0.00359879 -0.00491682 -0.00632857 -0.00783403 -0.00943321 -0.0110888 -0.0127634 -0.014457 -0.0161697 -0.0178832 -0.019579 -0.0212572 -0.0229179 -0.0245439 -0.0261182 -0.0276408 -0.0291117 -0.0304943 -0.0317517 -0.0328841 -0.0338915 -0.0347213 -0.0353214 -0.0356917 -0.0358321 -0.0357139 -0.0353081 -0.0346147 -0.0336337 -0.0324214 -0.0310341 -0.0294718 -0.0277344 -0.0259731 -0.0243389 -0.0228317 -0.0214515 -0.0203135 -0.0195327 -0.019109 -0.0190425 -0.019219 -0.0195243 -0.0199583 -0.0205211 -0.0208798 -0.0207017 -0.0199866 -0.0187347 -0.016733 -0.0137686 -0.00984152 -0.00495182 0.000654574 0.00673171 0.0132796 0.0202982 0.0272413 0.0335628 0.0392626 0.0443408 0.0485411 0.0516073 0.0535395 0.0543377 0.0543247 0.0538235 0.052834 0.0513563 0.0498556 0.0487971 0.0481808 0.0480067 0.0482642 0.0489429 0.0500426 0.0515634 0.0530275 0.0539571 0.0543522 0.0542128 0.0532302 0.0510957 0.0478092 0.0433708 0.0380809 0.0322399 0.0258478 0.0189047 0.0119986 0.00571771 6.20821e-05 -0.00496831 -0.0091312 -0.0121843 -0.0141276 -0.0149611 -0.0149444 -0.0143371 -0.013139 -0.0113503 -0.00933555 -0.00745928 -0.0057215 -0.00412223 -0.00275026 -0.00169441 -0.00095469 -0.000531087 -0.000298736 -0.000132772 -3.31929e-05 0 0 2.76777e-05 0.000110711 0.000249099 0.000442843 0.000636493 0.000774598 0.000857159 0.000884176 0.000782377 0.00047849 -2.74831e-05 -0.000735544 -0.00163219 -0.0027039 -0.0039507 -0.00537257 -0.00691471 -0.00852233 -0.0101954 -0.011934 -0.0137055 -0.0154775 -0.0172499 -0.0190227 -0.0207974 -0.0225755 -0.024357 -0.0261419 -0.02792 -0.0296814 -0.031426 -0.0331537 -0.0348071 -0.0363285 -0.037718 -0.0389754 -0.0400197 -0.0407698 -0.0412255 -0.041387 -0.0412233 -0.0407036 -0.039828 -0.0385964 -0.0371 -0.0354298 -0.033586 -0.0315685 -0.0295671 -0.0277718 -0.0261826 -0.0247995 -0.0237275 -0.0230719 -0.0228326 -0.0230097 -0.0234084 -0.0238342 -0.024287 -0.0247667 -0.0248359 -0.0240568 -0.0224294 -0.0199537 -0.0163846 -0.011477 -0.00523089 0.00235376 0.0109265 0.0201367 0.0299845 0.0404699 0.0508693 0.0604594 0.0692399 0.0772111 0.0840232 0.0893264 0.0931209 0.0954066 0.0965635 0.0969713 0.0966301 0.0955399 0.0942646 0.093368 0.0928502 0.0927111 0.0929376 0.0935164 0.0944477 0.0957315 0.0967907 0.0970484 0.0965048 0.0951596 0.092656 0.0886369 0.0831022 0.0760519 0.0678903 0.0590216 0.0494459 0.0391631 0.0289368 0.0195307 0.0109448 0.00317903 -0.00343605 -0.00857001 -0.0122228 -0.0143945 -0.0153904 -0.0155157 -0.0147704 -0.0131546 -0.0111293 -0.00915568 -0.00723378 -0.00536357 -0.00369742 -0.00238767 -0.00143434 -0.000837426 -0.000471052 -0.000209356 -5.23391e-05 0 0 2.59459e-05 0.000103784 0.000233513 0.000415134 0.000580385 0.000661004 0.00065699 0.000568344 0.000321987 -0.00015516 -0.000863097 -0.00180182 -0.00293623 -0.00423121 -0.00568676 -0.00730288 -0.00900634 -0.0107239 -0.0124557 -0.0142015 -0.0159396 -0.0176479 -0.0193264 -0.0209752 -0.0226266 -0.0243129 -0.0260341 -0.0277903 -0.0295842 -0.0314189 -0.0332942 -0.0352103 -0.0370843 -0.0388338 -0.0404585 -0.0419587 -0.0432169 -0.044116 -0.0446558 -0.0448364 -0.0446252 -0.0439895 -0.0429294 -0.0414448 -0.03967 -0.0377393 -0.0356528 -0.0334103 -0.0312456 -0.0293921 -0.02785 -0.0266192 -0.0257856 -0.0254351 -0.0255676 -0.0261831 -0.0269855 -0.0276784 -0.0282619 -0.028736 -0.0285393 -0.0271104 -0.0244493 -0.020556 -0.0151512 -0.00795558 0.00103092 0.0118083 0.0239006 0.036832 0.0506026 0.0652123 0.0797294 0.0932223 0.105691 0.117135 0.127095 0.135111 0.141182 0.145308 0.147932 0.149495 0.149997 0.149438 0.148491 0.147829 0.147453 0.147362 0.147541 0.147974 0.14866 0.1496 0.150108 0.149496 0.147766 0.144917 0.140541 0.13423 0.125983 0.1158 0.104207 0.0917277 0.078363 0.0641127 0.0499423 0.0368176 0.0247383 0.0137047 0.00414945 -0.00349463 -0.00922755 -0.0130493 -0.0153154 -0.0163814 -0.0162474 -0.0149133 -0.0129495 -0.0109266 -0.0088445 -0.00670323 -0.00472994 -0.00315176 -0.0019687 -0.00118076 -0.000664178 -0.00029519 -7.37975e-05 0 0 2.23948e-05 8.9579e-05 0.000201553 0.000358316 0.00047829 0.000479895 0.000363131 0.000127999 -0.000294051 -0.00097157 -0.00190456 -0.00309301 -0.0044737 -0.00598337 -0.00762205 -0.00938971 -0.0111917 -0.0129334 -0.0146148 -0.0162359 -0.017791 -0.0192747 -0.0206868 -0.0220274 -0.0233708 -0.0247913 -0.0262887 -0.0278632 -0.0295365 -0.0313307 -0.0332456 -0.0352813 -0.0373259 -0.0392674 -0.0411059 -0.0428413 -0.0443129 -0.04536 -0.0459825 -0.0461805 -0.0459196 -0.0451657 -0.0439188 -0.0421788 -0.0401315 -0.0379626 -0.0356721 -0.0332599 -0.0310084 -0.0291997 -0.0278339 -0.0269108 -0.0264879 -0.0266223 -0.0273139 -0.0285629 -0.0299502 -0.031057 -0.0318833 -0.032429 -0.0319901 -0.0298626 -0.0260465 -0.0205417 -0.0130328 -0.00320426 0.00894389 0.0234117 0.0395769 0.0568177 0.0751338 0.0945254 0.113822 0.131852 0.148615 0.164113 0.177757 0.18896 0.197722 0.204043 0.208432 0.211396 0.212935 0.21305 0.212534 0.212181 0.211989 0.211961 0.212076 0.212316 0.21268 0.21317 0.212978 0.211301 0.208137 0.203486 0.196886 0.187875 0.176451 0.162615 0.14703 0.130358 0.112599 0.0937536 0.0750152 0.0575783 0.0414428 0.0266087 0.0136253 0.00304183 -0.00514173 -0.0109254 -0.0147195 -0.0169343 -0.01757 -0.0166265 -0.0147963 -0.012772 -0.0105537 -0.00814121 -0.00584782 -0.00398667 -0.00255776 -0.00156109 -0.000878114 -0.000390273 -9.75682e-05 0 0 1.65702e-05 6.62809e-05 0.000149132 0.000265124 0.000320058 0.000219735 -3.58429e-05 -0.000446677 -0.00106968 -0.00196175 -0.00312291 -0.00455314 -0.00615208 -0.00781936 -0.00955499 -0.011359 -0.0131117 -0.0146935 -0.0161044 -0.0173444 -0.0184331 -0.01939 -0.0202151 -0.0209085 -0.0216028 -0.0224309 -0.0233928 -0.0244885 -0.0257689 -0.0272851 -0.0290371 -0.0310249 -0.0331035 -0.0351279 -0.0370982 -0.0390143 -0.0406633 -0.0418322 -0.0425209 -0.0427296 -0.0424224 -0.0415637 -0.0401534 -0.0381917 -0.035925 -0.0336002 -0.0312172 -0.028776 -0.0266117 -0.0250596 -0.0241196 -0.0237917 -0.0240915 -0.0250349 -0.0266216 -0