<?xml version="1.0"?> 
<VTKFile type="StructuredGrid" version="0.1"> 
<StructuredGrid WholeExtent="0 128 0 128 0 0"> 
<Piece Extent="0 128 0 128 0 0"> 
<PointData>
<DataArray type="Float32" Name="u" format="ascii" NumberOfComponents="1"> 
0 0 0 0 0 0 0 0 0 0 0 0 0 0 0 0 0 0 0 0 0 0 0 0 0 0 0 0 0 0 0 0 0 0 0 0 0 0 0 0 0 0 0 0 0 0 0 0 0 0 0 0 0 0 0 0 0 0 0 0 0 0 0 0 0 0 0 0 0 0 0 0 0 0 0 0 0 0 0 0 0 0 0 0 0 0 0 0 0 0 0 0 0 0 0 0 0 0 0 0 0 0 0 0 0 0 0 0 0 0 0 0 0 0 0 0 0 0 0 0 0 0 0 0 0 0 0 0 0 0 9.01055e-08 3.60422e-07 8.1095e-07 1.44169e-06 2.06536e-06 2.49468e-06 2.72966e-06 2.77029e-06 2.41061e-06 1.44466e-06 -1.27558e-07 -2.30605e-06 -5.12156e-06 -8.60482e-06 -1.27558e-05 -1.75746e-05 -2.30333e-05 -2.91039e-05 -3.57866e-05 -4.30812e-05 -5.08971e-05 -5.91435e-05 -6.78206e-05 -7.69282e-05 -8.62792e-05 -9.56868e-05 -0.000105151 -0.000114671 -0.000123975 -0.000132789 -0.000141114 -0.000148949 -0.000156029 -0.000162088 -0.000167127 -0.000171145 -0.000174033 -0.000175684 -0.000176096 -0.00017527 -0.000173358 -0.000170512 -0.000166731 -0.000162016 -0.000156735 -0.000151257 -0.000145581 -0.000139707 -0.00013403 -0.000128942 -0.000124444 -0.000120535 -0.000117424 -0.000115319 -0.00011422 -0.000114127 -0.000114993 -0.00011677 -0.000119459 -0.000123059 -0.000127384 -0.000132246 -0.000137646 -0.000143585 -0.000149921 -0.000156515 -0.000163368 -0.000170478 -0.000177829 -0.000185402 -0.000193198 -0.000201216 -0.000209453 -0.000217906 -0.000226574 -0.000235458 -0.000244407 -0.000253268 -0.000262042 -0.00027073 -0.000279021 -0.000286607 -0.000293488 -0.000299664 -0.000304865 -0.00030882 -0.000311531 -0.000312996 -0.000313197 -0.000312116 -0.000309752 -0.000306105 -0.000301406 -0.000295889 -0.000289553 -0.000282397 -0.000274689 -0.000266697 -0.000258421 -0.000249859 -0.00024111 -0.000232267 -0.000223332 -0.000214304 -0.0002051 -0.000195638 -0.000185917 -0.000175938 -0.000165608 -0.000154835 -0.000143619 -0.00013196 -0.000119955 -0.000107701 -9.51965e-05 -8.24428e-05 -6.98601e-05 -5.78688e-05 -4.64689e-05 -3.56605e-05 -2.60046e-05 -1.80621e-05 -1.18331e-05 -7.31757e-06 -4.11613e-06 -1.82939e-06 -4.57348e-07 0 0 3.60422e-07 1.44169e-06 3.2438e-06 5.76675e-06 8.26144e-06 9.97874e-06 1.09186e-05 1.10812e-05 9.64246e-06 5.77866e-06 -5.10231e-07 -9.2242e-06 -2.04862e-05 -3.44193e-05 -5.10234e-05 -7.02985e-05 -9.21331e-05 -0.000116416 -0.000143146 -0.000172325 -0.000203588 -0.000236574 -0.000271282 -0.000307713 -0.000345117 -0.000382747 -0.000420603 -0.000458684 -0.0004959 -0.000531157 -0.000564455 -0.000595795 -0.000624115 -0.000648352 -0.000668507 -0.000684578 -0.000696133 -0.000702735 -0.000704384 -0.000701081 -0.000693433 -0.000682048 -0.000666925 -0.000648065 -0.000626941 -0.000605027 -0.000582323 -0.00055883 -0.00053612 -0.000515768 -0.000497775 -0.00048214 -0.000469696 -0.000461276 -0.00045688 -0.000456509 -0.000459973 -0.000467082 -0.000477836 -0.000492236 -0.000509535 -0.000528984 -0.000550586 -0.000574339 -0.000599683 -0.000626061 -0.000653471 -0.000681913 -0.000711317 -0.000741609 -0.000772792 -0.000804863 -0.000837811 -0.000871622 -0.000906296 -0.000941833 -0.000977627 -0.00101307 -0.00104817 -0.00108292 -0.00111608 -0.00114643 -0.00117395 -0.00119865 -0.00121946 -0.00123528 -0.00124612 -0.00125198 -0.00125279 -0.00124846 -0.00123901 -0.00122442 -0.00120563 -0.00118356 -0.00115821 -0.00112959 -0.00109876 -0.00106679 -0.00103368 -0.000999438 -0.000964438 -0.000929068 -0.000893327 -0.000857215 -0.000820401 -0.000782552 -0.000743669 -0.000703752 -0.000662432 -0.000619341 -0.000574477 -0.000527842 -0.000479821 -0.000430803 -0.000380786 -0.000329771 -0.00027944 -0.000231475 -0.000185876 -0.000142642 -0.000104018 -7.22483e-05 -4.73324e-05 -2.92703e-05 -1.64645e-05 -7.31757e-06 -1.82939e-06 0 0 8.1095e-07 3.2438e-06 7.29855e-06 1.29752e-05 1.85882e-05 2.24522e-05 2.4567e-05 2.49326e-05 2.16955e-05 1.3002e-05 -1.14802e-06 -2.07545e-05 -4.6094e-05 -7.74434e-05 -0.000114803 -0.000158172 -0.0002073 -0.000261935 -0.000322079 -0.000387731 -0.000458074 -0.000532292 -0.000610385 -0.000692353 -0.000776513 -0.000861181 -0.000946357 -0.00103204 -0.00111577 -0.0011951 -0.00127002 -0.00134054 -0.00140426 -0.00145879 -0.00150414 -0.0015403 -0.0015663 -0.00158115 -0.00158486 -0.00157743 -0.00156022 -0.00153461 -0.00150058 -0.00145815 -0.00141062 -0.00136131 -0.00131023 -0.00125737 -0.00120627 -0.00116048 -0.00111999 -0.00108481 -0.00105682 -0.00103787 -0.00102798 -0.00102715 -0.00103494 -0.00105093 -0.00107513 -0.00110753 -0.00114645 -0.00119021 -0.00123882 -0.00129226 -0.00134929 -0.00140864 -0.00147031 -0.0015343 -0.00160046 -0.00166862 -0.00173878 -0.00181094 -0.00188508 -0.00196115 -0.00203917 -0.00211912 -0.00219966 -0.00227941 -0.00235838 -0.00243657 -0.00251119 -0.00257946 -0.00264139 -0.00269697 -0.00274378 -0.00277938 -0.00280378 -0.00281696 -0.00281878 -0.00280904 -0.00278777 -0.00275494 -0.00271266 -0.002663 -0.00260597 -0.00254157 -0.0024722 -0.00240028 -0.00232579 -0.00224873 -0.00216999 -0.0020904 -0.00200999 -0.00192873 -0.0018459 -0.00176074 -0.00167326 -0.00158344 -0.00149047 -0.00139352 -0.00129257 -0.00118764 -0.0010796 -0.000969306 -0.000856769 -0.000741985 -0.000628741 -0.000520819 -0.00041822 -0.000320944 -0.000234041 -0.000162559 -0.000106498 -6.58581e-05 -3.70452e-05 -1.64645e-05 -4.11613e-06 0 0 1.44169e-06 5.76675e-06 1.29752e-05 2.3067e-05 3.30458e-05 3.99149e-05 4.36746e-05 4.43247e-05 3.85698e-05 2.31146e-05 -2.04092e-06 -3.68968e-05 -8.19449e-05 -0.000137677 -0.000204094 -0.000281194 -0.000368532 -0.000465663 -0.000572585 -0.000689299 -0.000814353 -0.000946297 -0.00108513 -0.00123085 -0.00138047 -0.00153099 -0.00168241 -0.00183474 -0.0019836 -0.00212463 -0.00225782 -0.00238318 -0.00249646 -0.00259341 -0.00267403 -0.00273831 -0.00278453 -0.00281094 -0.00281754 -0.00280432 -0.00277373 -0.00272819 -0.0026677 -0.00259226 -0.00250776 -0.00242011 -0.00232929 -0.00223532 -0.00214448 -0.00206307 -0.0019911 -0.00192856 -0.00187878 -0.0018451 -0.00182752 -0.00182604 -0.00183989 -0.00186833 -0.00191134 -0.00196894 -0.00203814 -0.00211594 -0.00220234 -0.00229735 -0.00239873 -0.00250424 -0.00261388 -0.00272765 -0.00284527 -0.00296644 -0.00309117 -0.00321945 -0.00335125 -0.00348649 -0.00362518 -0.00376733 -0.00391051 -0.00405229 -0.00419268 -0.00433167 -0.00446433 -0.00458571 -0.0046958 -0.00479462 -0.00487783 -0.00494112 -0.00498449 -0.00500794 -0.00501116 -0.00499386 -0.00495603 -0.00489767 -0.0048225 -0.00473422 -0.00463284 -0.00451835 -0.00439503 -0.00426716 -0.00413473 -0.00399775 -0.00385775 -0.00371627 -0.00357331 -0.00342886 -0.0032816 -0.00313021 -0.00297468 -0.00281501 -0.00264973 -0.00247736 -0.00229791 -0.00211137 -0.00191929 -0.00172321 -0.00152314 -0.00131909 -0.00111776 -0.0009259 -0.000743502 -0.000570568 -0.000416073 -0.000288993 -0.000189329 -0.000117081 -6.58581e-05 -2.92703e-05 -7.31757e-06 0 0 1.98328e-06 7.93313e-06 1.78495e-05 3.17325e-05 4.48873e-05 5.26191e-05 5.49279e-05 5.18138e-05 3.84008e-05 9.81287e-06 -3.395e-05 -9.28877e-05 -0.000167673 -0.000258979 -0.000366805 -0.000491152 -0.000631301 -0.000786533 -0.000956849 -0.00114225 -0.00134048 -0.00154927 -0.00176864 -0.00199858 -0.00223442 -0.00247152 -0.00270988 -0.00294948 -0.00318353 -0.0034052 -0.00361449 -0.00381141 -0.00398933 -0.00414163 -0.00426831 -0.00436937 -0.00444213 -0.00448393 -0.00449475 -0.0044746 -0.00442733 -0.00435679 -0.00426298 -0.00414591 -0.00401477 -0.00387879 -0.00373796 -0.00359229 -0.00345148 -0.00332522 -0.00321353 -0.00311641 -0.00303875 -0.00298546 -0.00295656 -0.00295203 -0.0029703 -0.00300978 -0.00307047 -0.00315237 -0.00325047 -0.00335977 -0.00348026 -0.00361194 -0.00375124 -0.0038946 -0.004042 -0.00419346 -0.00434887 -0.00450814 -0.00467126 -0.00483825 -0.00500977 -0.00518649 -0.00536843 -0.00555557 -0.00574506 -0.00593405 -0.00612253 -0.00631051 -0.00649102 -0.00665711 -0.00680879 -0.00694606 -0.00706254 -0.00715186 -0.00721403 -0.00724905 -0.00725638 -0.00723548 -0.00718634 -0.00710898 -0.0070087 -0.00689082 -0.00675534 -0.00660227 -0.00643749 -0.00626692 -0.00609055 -0.00590837 -0.00572192 -0.00553271 -0.00534075 -0.00514602 -0.00494578 -0.00473724 -0.00452042 -0.00429531 -0.0040593 -0.00380979 -0.00354678 -0.00327027 -0.00298278 -0.00268685 -0.00238247 -0.00206964 -0.00175918 -0.00146193 -0.00117788 -0.000907033 -0.000663989 -0.000463347 -0.000305108 -0.000189271 -0.000106465 -4.73177e-05 -1.18294e-05 0 0 2.16637e-06 8.66548e-06 1.94973e-05 3.46619e-05 4.73661e-05 5.08166e-05 4.50134e-05 2.99566e-05 -6.76096e-07 -5.3207e-05 -0.000127636 -0.000223963 -0.000342913 -0.000485207 -0.000650846 -0.000839831 -0.00105107 -0.00128348 -0.00153706 -0.0018118 -0.00210449 -0.0024119 -0.00273404 -0.0030709 -0.00341582 -0.00376214 -0.00410986 -0.00445898 -0.00479971 -0.00512228 -0.00542667 -0.0057129 -0.00597146 -0.00619287 -0.00637712 -0.00652422 -0.00663041 -0.00669196 -0.00670886 -0.00668111 -0.0066144 -0.00651441 -0.00638114 -0.00621459 -0.00602804 -0.00583473 -0.00563469 -0.0054279 -0.00522799 -0.0050486 -0.00488973 -0.00475138 -0.00463985 -0.00456144 -0.00451615 -0.00450398 -0.00452164 -0.00456581 -0.00463649 -0.0047337 -0.00484934 -0.00497532 -0.00511166 -0.00525834 -0.00541003 -0.00556141 -0.00571248 -0.00586322 -0.00601441 -0.0061668 -0.00632039 -0.00647518 -0.00663408 -0.00680001 -0.00697297 -0.00715295 -0.00733822 -0.00752704 -0.00771941 -0.00791532 -0.00810674 -0.00828562 -0.00845195 -0.00860575 -0.00873881 -0.00884295 -0.00891817 -0.00896446 -0.00898088 -0.00896648 -0.00892125 -0.00884521 -0.00874478 -0.00862637 -0.00849 -0.00833566 -0.00816985 -0.00799905 -0.00782326 -0.00764249 -0.00745667 -0.00726576 -0.00706976 -0.00686866 -0.0066567 -0.00642814 -0.00618297 -0.00592119 -0.00563828 -0.00532971 -0.00499549 -0.00463561 -0.004254 -0.00385456 -0.00343729 -0.0030022 -0.00256568 -0.00214412 -0.00173751 -0.00134586 -0.000991664 -0.000697414 -0.000463112 -0.000288759 -0.000162427 -7.21897e-05 -1.80474e-05 0 0 1.99096e-06 7.96383e-06 1.79186e-05 3.18553e-05 4.04822e-05 3.45074e-05 1.3931e-05 -2.1247e-05 -7.86609e-05 -0.000165945 -0.000283099 -0.000430124 -0.000607663 -0.000816361 -0.00105622 -0.00132723 -0.00162785 -0.00195651 -0.00231321 -0.00269795 -0.0031064 -0.00353419 -0.00398133 -0.00444782 -0.00492466 -0.00540284 -0.00588236 -0.00636323 -0.00683216 -0.00727587 -0.00769437 -0.00808766 -0.00844287 -0.00874714 -0.00900047 -0.00920286 -0.00934936 -0.00943503 -0.00945986 -0.00942385 -0.00933493 -0.00920104 -0.00902217 -0.00879832 -0.00854756 -0.00828794 -0.00801946 -0.00774213 -0.00747402 -0.00723321 -0.0070197 -0.00683349 -0.0066821 -0.00657303 -0.0065063 -0.00648189 -0.0064939 -0.00653641 -0.00660942 -0.00671293 -0.00683473 -0.0069626 -0.00709654 -0.00723655 -0.00737511 -0.00750469 -0.00762531 -0.00773695 -0.0078419 -0.00794243 -0.00803854 -0.00813025 -0.0082242 -0.00832705 -0.00843881 -0.00855948 -0.00868998 -0.00883126 -0.00898331 -0.00914613 -0.00931151 -0.00947123 -0.00962529 -0.0097737 -0.00990666 -0.0100144 -0.0100969 -0.0101542 -0.0101847 -0.0101869 -0.0101608 -0.0101064 -0.0100307 -0.00994089 -0.00983682 -0.00971854 -0.0095921 -0.00946355 -0.00933288 -0.0092001 -0.00906201 -0.00891542 -0.00876034 -0.00859676 -0.00841438 -0.0082029 -0.00796233 -0.00769266 -0.00738667 -0.00703713 -0.00664404 -0.0062074 -0.00573292 -0.00522633 -0.00468762 -0.00411679 -0.00353727 -0.00297247 -0.0024224 -0.00188705 -0.0013991 -0.000991195 -0.000663344 -0.000415545 -0.000233744 -0.000103886 -2.59716e-05 0 0 1.45704e-06 5.82816e-06 1.31134e-05 2.33126e-05 2.42355e-05 3.69158e-06 -3.83192e-05 -0.000101797 -0.000195554 -0.000328401 -0.00050034 -0.00071137 -0.000961925 -0.00125244 -0.00158292 -0.00195335 -0.00236163 -0.00280561 -0.0032853 -0.00380071 -0.00434619 -0.00491613 -0.00551051 -0.00612934 -0.00676094 -0.00739363 -0.00802739 -0.00866223 -0.00928086 -0.00986598 -0.0104176 -0.0109357 -0.0114035 -0.0118044 -0.0121383 -0.0124053 -0.012599 -0.0127131 -0.0127477 -0.0127028 -0.0125889 -0.0124167 -0.0121861 -0.0118971 -0.0115733 -0.0112384 -0.0108923 -0.010535 -0.0101896 -0.00987905 -0.00960344 -0.00936274 -0.00916549 -0.00902025 -0.008927 -0.00888575 -0.00888709 -0.00892159 -0.00898925 -0.00909007 -0.00920665 -0.0093216 -0.00943491 -0.00954657 -0.00964647 -0.00972444 -0.0097805 -0.00981463 -0.00983132 -0.00983502 -0.00982573 -0.00980345 -0.0097801 -0.0097676 -0.00976595 -0.00977515 -0.00980035 -0.00984671 -0.00991423 -0.0100029 -0.0101053 -0.0102139 -0.0103288 -0.0104499 -0.0105661 -0.0106662 -0.0107502 -0.0108181 -0.0108677 -0.0108966 -0.0109049 -0.0108925 -0.0108666 -0.0108344 -0.0107958 -0.0107509 -0.0107043 -0.0106604 -0.0106194 -0.0105812 -0.0105379 -0.0104817 -0.0104125 -0.0103303 -0.0102188 -0.0100615 -0.0098585 -0.00960972 -0.00930448 -0.00893205 -0.00849243 -0.00798562 -0.00741956 -0.00680216 -0.00613344 -0.00541339 -0.00467393 -0.00394698 -0.00323254 -0.00253061 -0.00188629 -0.00134469 -0.000905803 -0.00056963 -0.000320417 -0.000142408 -3.56019e-05 0 0 2.13563e-07 8.54252e-07 1.92207e-06 3.41701e-06 -9.88301e-06 -5.32001e-05 -0.000126534 -0.000229885 -0.000372485 -0.000563563 -0.000803122 -0.00109116 -0.0014275 -0.00181195 -0.00224453 -0.00272522 -0.00325124 -0.0038198 -0.0044309 -0.00508453 -0.00577388 -0.00649213 -0.00723927 -0.0080153 -0.00880599 -0.00959709 -0.0103886 -0.0111805 -0.0119516 -0.0126805 -0.0133673 -0.0140119 -0.0145939 -0.0150924 -0.0155076 -0.0158395 -0.0160806 -0.0162233 -0.0162677 -0.0162138 -0.0160751 -0.0158652 -0.015584 -0.0152316 -0.0148373 -0.0144305 -0.0140111 -0.0135792 -0.0131624 -0.0127884 -0.0124572 -0.0121689 -0.0119318 -0.0117544 -0.0116368 -0.0115789 -0.0115661 -0.0115837 -0.0116318 -0.0117103 -0.0117951 -0.0118621 -0.0119111 -0.0119423 -0.0119424 -0.0118981 -0.0118096 -0.0116767 -0.0115075 -0.0113099 -0.0110842 -0.0108301 -0.0105679 -0.0103177 -0.0100797 -0.00985372 -0.00965269 -0.00948947 -0.00936405 -0.00927644 -0.00922253 -0.0091982 -0.00920346 -0.00923829 -0.00929131 -0.00935108 -0.00941762 -0.00949092 -0.0095677 -0.00964468 -0.00972184 -0.00979921 -0.0098826 -0.00997786 -0.010085 -0.010204 -0.0103353 -0.0104796 -0.0106367 -0.0108066 -0.0109737 -0.0111219 -0.0112513 -0.0113619 -0.0114285 -0.0114257 -0.0113536 -0.0112122 -0.0109859 -0.0106593 -0.0102324 -0.00970513 -0.00908815 -0.00839204 -0.00761682 -0.00676247 -0.00587119 -0.00498514 -0.00410433 -0.00322875 -0.00241857 -0.00173396 -0.0011749 -0.000741414 -0.000417045 -0.000185354 -4.63384e-05 0 0 -2.09053e-06 -8.36212e-06 -1.88148e-05 -3.34485e-05 -7.03827e-05 -0.000147737 -0.000265511 -0.000423704 -0.000630585 -0.00089442 -0.00121521 -0.00159295 -0.00202617 -0.0025134 -0.00305463 -0.00364986 -0.00429553 -0.0049881 -0.00572756 -0.0065139 -0.00733947 -0.0081966 -0.00908528 -0.0100055 -0.0109411 -0.0118758 -0.0128097 -0.0137427 -0.0146501 -0.0155074 -0.0163145 -0.0170714 -0.0177542 -0.0183388 -0.0188252 -0.0192136 -0.0194954 -0.0196626 -0.0197149 -0.0196526 -0.0194921 -0.0192503 -0.0189272 -0.0185226 -0.0180715 -0.0176086 -0.0171339 -0.0166473 -0.0161801 -0.0157634 -0.0153973 -0.0150816 -0.0148227 -0.0146269 -0.0144942 -0.0144246 -0.0143957 -0.0143851 -0.0143929 -0.0144189 -0.0144302 -0.0143938 -0.0143096 -0.0141777 -0.0139812 -0.0137033 -0.013344 -0.0129034 -0.0123951 -0.0118326 -0.011216 -0.0105453 -0.0098535 -0.00917349 -0.00850531 -0.00784894 -0.00723039 -0.00667562 -0.00618464 -0.00575744 -0.00539755 -0.00510848 -0.00489024 -0.00474282 -0.00465657 -0.00462186 -0.00463866 -0.004707 -0.00482227 -0.0049799 -0.00517989 -0.00542223 -0.00570904 -0.00604243 -0.00642239 -0.00684893 -0.00731433 -0.00781084 -0.00833848 -0.00889724 -0.00945842 -0.00999331 -0.0105019 -0.0109842 -0.0114021 -0.0117173 -0.0119299 -0.0120399 -0.0120253 -0.0118639 -0.0115557 -0.0111008 -0.0105129 -0.00980592 -0.00897979 -0.00803451 -0.00702458 -0.00600447 -0.00497418 -0.00393371 -0.00296127 -0.00213505 -0.00145506 -0.000921298 -0.00051823 -0.000230324 -5.75811e-05 0 0 -5.45524e-06 -2.1821e-05 -4.90972e-05 -8.72838e-05 -0.000157263 -0.000279918 -0.000455249 -0.000683254 -0.000969855 -0.00132097 -0.0017366 -0.00221675 -0.00275795 -0.00335678 -0.00401321 -0.00472726 -0.0054945 -0.0063105 -0.00717527 -0.00808881 -0.00904296 -0.0100295 -0.0110486 -0.0121 -0.0131663 -0.0142299 -0.0152906 -0.0163487 -0.0173765 -0.0183467 -0.0192592 -0.0201141 -0.0208844 -0.0215435 -0.0220911 -0.0225274 -0.0228436 -0.0230309 -0.0230894 -0.0230191 -0.02284 -0.0225721 -0.0222155 -0.0217701 -0.0212759 -0.0207727 -0.0202606 -0.0197395 -0.0192429 -0.0188043 -0.0184236 -0.018101 -0.0178383 -0.0176378 -0.0174993 -0.017423 -0.017376 -0.0173259 -0.0172725 -0.0172158 -0.0171119 -0.0169167 -0.0166303 -0.0162526 -0.0157628 -0.0151399 -0.0143839 -0.0134949 -0.0124942 -0.011403 -0.0102214 -0.00894929 -0.00763704 -0.00633488 -0.00504281 -0.00376083 -0.00253344 -0.00140516 -0.000375986 0.000554085 0.00136963 0.00205521 0.00261085 0.00303653 0.00333812 0.0035215 0.00358667 0.00353363 0.00336857 0.00309768 0.00272097 0.00223844 0.00165409 0.000971926 0.000191959 -0.000685815 -0.00164127 -0.00265429 -0.00372487 -0.00485302 -0.00599221 -0.00709596 -0.00816426 -0.00919711 -0.0101395 -0.0109362 -0.0115874 -0.012093 -0.0124225 -0.0125457 -0.0124623 -0.0121726 -0.0116939 -0.0110438 -0.0102224 -0.0092295 -0.00813409 -0.00700495 -0.00584208 -0.00464548 -0.00351437 -0.00254797 -0.00174627 -0.00110928 -0.00062397 -0.00027732 -6.933e-05 0 0 -9.88057e-06 -3.95223e-05 -8.89251e-05 -0.000158089 -0.000270525 -0.000449745 -0.000695748 -0.00100853 -0.00139029 -0.00184321 -0.0023673 -0.00296254 -0.00362284 -0.00434209 -0.00512028 -0.00595743 -0.00684813 -0.00778701 -0.00877405 -0.00980927 -0.0108843 -0.0119909 -0.0131291 -0.0142988 -0.0154816 -0.0166592 -0.0178315 -0.0189985 -0.0201307 -0.0211983 -0.0222014 -0.02314 -0.0239847 -0.0247065 -0.0253053 -0.025781 -0.026125 -0.0263284 -0.0263912 -0.0263135 -0.0261187 -0.0258306 -0.0254491 -0.0249741 -0.0244505 -0.0239229 -0.0233913 -0.0228556 -0.0223506 -0.0219108 -0.0215363 -0.0212269 -0.0209786 -0.020787 -0.0206521 -0.0205739 -0.020507 -0.0204059 -0.0202706 -0.020101 -0.0198401 -0.0194309 -0.0188732 -0.0181672 -0.0172872 -0.0162079 -0.0149292 -0.0134512 -0.0118048 -0.0100211 -0.00810014 -0.00604191 -0.00391847 -0.0018019 0.000307798 0.00241063 0.00443815 0.0063219 0.0080619 0.00965814 0.011079 0.0122929 0.0132998 0.0140997 0.0146928 0.015079 0.0152584 0.015231 0.0150048 0.0145881 0.0139807 0.0131828 0.0122068 0.0110652 0.00975807 0.00828539 0.00668384 0.0049901 0.00320417 0.00132604 -0.000575039 -0.00242985 -0.00423839 -0.00600066 -0.00764067 -0.00908244 -0.010326 -0.0113712 -0.0121777 -0.0127047 -0.0129523 -0.0129205 -0.0126311 -0.0121057 -0.0113445 -0.0103474 -0.00919973 -0.00798659 -0.00670804 -0.00536407 -0.0040779 -0.00297272 -0.00204854 -0.00130536 -0.000734267 -0.000326341 -8.15852e-05 0 0 -1.53754e-05 -6.15015e-05 -0.000138378 -0.000246006 -0.000410095 -0.000656357 -0.00098479 -0.0013954 -0.00188477 -0.00244951 -0.00308961 -0.00380507 -0.00458611 -0.00542294 -0.00631556 -0.00726396 -0.00826164 -0.00930209 -0.0103853 -0.0115113 -0.0126722 -0.0138604 -0.0150758 -0.0163183 -0.0175702 -0.0188135 -0.0200482 -0.0212743 -0.0224615 -0.0235794 -0.024628 -0.0256074 -0.0264871 -0.0272368 -0.0278566 -0.0283465 -0.0286984 -0.0289044 -0.0289644 -0.0288786 -0.0286741 -0.0283783 -0.0279911 -0.0275126 -0.0269914 -0.026476 -0.0259665 -0.0254629 -0.0249987 -0.0246074 -0.0242892 -0.0240439 -0.0238577 -0.0237169 -0.0236214 -0.0235712 -0.0235045 -0.0233594 -0.0231358 -0.0228338 -0.0223804 -0.0217027 -0.0208006 -0.0196741 -0.0182925 -0.0166252 -0.0146721 -0.0124333 -0.00995227 -0.00727272 -0.00439464 -0.00131802 0.00185713 0.0050308 0.00820301 0.0113737 0.0144435 0.0173128 0.0199816 0.0224499 0.0246647 0.0265729 0.0281744 0.0294693 0.0304495 0.0311072 0.0314422 0.0314545 0.0311546 0.0305528 0.0296491 0.0284435 0.0269596 0.0252212 0.0232282 0.0209807 0.0185368 0.0159548 0.0132346 0.0103763 0.00747815 0.00463835 0.00185694 -0.000866099 -0.00342853 -0.00572811 -0.00776486 -0.00953877 -0.0109967 -0.0120857 -0.0128055 -0.0131564 -0.0131649 -0.0128577 -0.012235 -0.0112966 -0.0101468 -0.00888973 -0.00752544 -0.00605391 -0.00462554 -0.00339073 -0.00234949 -0.00150181 -0.000844766 -0.000375451 -9.38628e-05 0 0 -2.19486e-05 -8.77943e-05 -0.000197537 -0.000351177 -0.000575901 -0.000898894 -0.00132016 -0.00183969 -0.00244615 -0.0031282 -0.00388584 -0.00471907 -0.00561305 -0.00655294 -0.00753875 -0.00857046 -0.00964024 -0.0107402 -0.0118704 -0.0130309 -0.0142153 -0.0154175 -0.0166375 -0.0178752 -0.0191154 -0.0203426 -0.0215569 -0.0227581 -0.0239178 -0.0250071 -0.026026 -0.0269747 -0.0278236 -0.0285434 -0.0291342 -0.0295958 -0.0299225 -0.0301084 -0.0301534 -0.0300576 -0.029852 -0.0295678 -0.029205 -0.0287636 -0.0282946 -0.0278491 -0.027427 -0.0270283 -0.0266824 -0.0264184 -0.0262363 -0.0261361 -0.02609 -0.0260701 -0.0260763 -0.0261087 -0.0260844 -0.0259204 -0.0256168 -0.0251735 -0.0244982 -0.0234985 -0.0221745 -0.0205261 -0.0185167 -0.0161096 -0.0133049 -0.0101024 -0.0065621 -0.00274365 0.0013529 0.00572757 0.0102447 0.0147686 0.0192993 0.0238368 0.0282417 0.0323746 0.0362356 0.0398247 0.0430609 0.0458634 0.0482323 0.0501676 0.0516505 0.0526625 0.0532036 0.0532738 0.0528861 0.0520534 0.0507757 0.049053 0.046923 0.0444235 0.0415545 0.0383159 0.0347933 0.0310722 0.0271525 0.0230342 0.0188524 0.014742 0.0107029 0.00673532 0.0029742 -0.000445334 -0.00352328 -0.00625963 -0.00858582 -0.0104333 -0.011802 -0.012692 -0.0131358 -0.0131659 -0.0127824 -0.0119852 -0.0109006 -0.00965472 -0.00824767 -0.00667943 -0.00513101 -0.00378344 -0.00263673 -0.00169087 -0.000951113 -0.000422717 -0.000105679 0 0 -2.96001e-05 -0.000118401 -0.000266401 -0.000473602 -0.000767942 -0.00117736 -0.00170185 -0.00234142 -0.00307444 -0.00387931 -0.004756 -0.00570454 -0.00670366 -0.00773209 -0.00878984 -0.00987692 -0.0109839 -0.0121014 -0.0132295 -0.014368 -0.0155135 -0.0166622 -0.0178142 -0.0189695 -0.0201172 -0.0212466 -0.0223575 -0.02345 -0.0244995 -0.0254813 -0.0263954 -0.0272418 -0.0279942 -0.0286262 -0.0291378 -0.029529 -0.0297974 -0.0299404 -0.0299581 -0.0298504 -0.0296524 -0.0293992 -0.0290908 -0.0287271 -0.0283602 -0.028042 -0.0277727 -0.027552 -0.0274018 -0.0273437 -0.0273776 -0.0275037 -0.0276755 -0.0278465 -0.0280168 -0.0281864 -0.0282466 -0.028089 -0.0277134 -0.0271199 -0.0261933 -0.0248183 -0.022995 -0.0207232 -0.0179597 -0.0146611 -0.0108274 -0.00645863 -0.00163427 0.0035661 0.00914248 0.0150949 0.0212442 0.0274115 0.0335967 0.0397998 0.0458328 0.0515075 0.056824 0.0617823 0.0662675 0.0701646 0.0734736 0.0761946 0.0782957 0.0797451 0.0805429 0.0806889 0.0801992 0.0790897 0.0773605 0.0750114 0.0720971 0.0686723 0.0647371 0.0602913 0.0554535 0.0503423 0.0449577 0.0392997 0.0335477 0.027881 0.0222996 0.0168036 0.0115675 0.0067659 0.0023988 -0.00153379 -0.00494489 -0.00774753 -0.0099417 -0.0115274 -0.0125439 -0.0130303 -0.0129868 -0.0124132 -0.011461 -0.0102815 -0.00887474 -0.00724063 -0.0055943 -0.00415084 -0.00291026 -0.00187255 -0.00105331 -0.000468137 -0.000117034 0 0 -3.83301e-05 -0.00015332 -0.000344971 -0.000613281 -0.000986218 -0.00149175 -0.00212987 -0.00290058 -0.00376964 -0.00470281 -0.00570009 -0.00676148 -0.00785792 -0.00896038 -0.0100689 -0.0111833 -0.0122927 -0.0133857 -0.0144624 -0.0155227 -0.0165668 -0.0175945 -0.018606 -0.0196011 -0.0205757 -0.0215253 -0.0224501 -0.0233499 -0.0242067 -0.0250021 -0.0257361 -0.0264088 -0.0269989 -0.0274852 -0.0278676 -0.0281461 -0.028323 -0.0284005 -0.0283785 -0.028257 -0.0280753 -0.0278724 -0.0276483 -0.0274031 -0.0271881 -0.027055 -0.0270036 -0.0270339 -0.0271568 -0.0273833 -0.0277132 -0.0281466 -0.028614 -0.0290461 -0.0294428 -0.0298041 -0.0299912 -0.0298651 -0.0294258 -0.0286733 -0.027466 -0.0256622 -0.023262 -0.0202655 -0.0166216 -0.0122797 -0.00723982 -0.00150186 0.00483123 0.0116565 0.0189741 0.0267838 0.0348557 0.0429594 0.0510951 0.0592627 0.0672167 0.0747114 0.0817468 0.088323 0.0942846 0.0994763 0.103898 0.10755 0.110385 0.112355 0.11346 0.1137 0.113094 0.111662 0.109403 0.106319 0.102482 0.0979676 0.0927758 0.0869066 0.0805172 0.0737652 0.0666504 0.0591728 0.051564 0.0440554 0.036647 0.0293387 0.0223514 0.0159056 0.0100014 0.00463875 -7.3963e-05 -0.00402842 -0.00722461 -0.00966255 -0.0113891 -0.0124509 -0.0128481 -0.0125807 -0.0118283 -0.0107702 -0.00940664 -0.00773751 -0.00601542 -0.00449294 -0.00317009 -0.00204685 -0.00115135 -0.000511713 -0.000127928 0 0 -4.78728e-05 -0.000191491 -0.000430855 -0.000765965 -0.00122373 -0.00183105 -0.00258793 -0.00349437 -0.0045008 -0.00555766 -0.00666494 -0.00782265 -0.00899213 -0.0101347 -0.0112505 -0.0123394 -0.013388 -0.0143832 -0.0153249 -0.016213 -0.0170527 -0.0178491 -0.0186021 -0.0193117 -0.0199832 -0.020622 -0.021228 -0.0218012 -0.0223336 -0.022817 -0.0232513 -0.0236367 -0.0239601 -0.0242085 -0.0243821 -0.0244808 -0.0245133 -0.0244886 -0.0244066 -0.0242673 -0.0241141 -0.0239904 -0.0238961 -0.0238313 -0.0238447 -0.0239851 -0.0242525 -0.0246469 -0.0251638 -0.0257988 -0.0265518 -0.0274229 -0.0283137 -0.029126 -0.0298596 -0.0305146 -0.0309162 -0.0308895 -0.0304345 -0.0295512 -0.0280676 -0.025812 -0.0227843 -0.0189846 -0.014354 -0.00883388 -0.00242421 0.004875 0.0129329 0.0216187 0.0309324 0.040874 0.0511532 0.0614801 0.0718545 0.0822764 0.0924338 0.102014 0.111018 0.119446 0.127095 0.133767 0.13946 0.144176 0.147848 0.150414 0.151872 0.152224 0.151491 0.149697 0.146842 0.142925 0.138043 0.132291 0.12567 0.118178 0.110017 0.101387 0.0922881 0.0827203 0.0729748 0.0633424 0.0538233 0.0444175 0.0353991 0.0270426 0.0193479 0.0123151 0.00607735 0.000768163 -0.00361251 -0.00706467 -0.00964351 -0.0114042 -0.0123468 -0.0124712 -0.0119885 -0.0111095 -0.00983441 -0.0081631 -0.00638912 -0.00480597 -0.00341365 -0.00221215 -0.00124434 -0.000553038 -0.00013826 0 0 -5.79628e-05 -0.000231851 -0.000521665 -0.000927405 -0.00147347 -0.00218426 -0.00305976 -0.0041 -0.00523699 -0.0064028 -0.0075974 -0.00882082 -0.0100225 -0.0111521 -0.0122094 -0.0131946 -0.0140916 -0.0148843 -0.0155727 -0.0161569 -0.0166488 -0.0170604 -0.0173918 -0.0176428 -0.0178325 -0.0179798 -0.0180847 -0.0181473 -0.0181746 -0.0181734 -0.018144 -0.0180862 -0.0179998 -0.0178844 -0.01774 -0.0175666 -0.0173822 -0.0172048 -0.0170344 -0.016871 -0.0167624 -0.0167563 -0.0168527 -0.0170516 -0.0173962 -0.0179299 -0.0186525 -0.019564 -0.020639 -0.0218518 -0.0232024 -0.0246908 -0.0261826 -0.0275431 -0.0287723 -0.0298704 -0.0306198 -0.0308031 -0.0304203 -0.0294714 -0.02775 -0.0250497 -0.0213705 -0.0167124 -0.0110085 -0.00419195 0.00373725 0.0127791 0.0227693 0.0335437 0.0451021 0.0574447 0.070211 0.083041 0.0959345 0.108892 0.121524 0.133445 0.144653 0.155149 0.164683 0.173005 0.180114 0.186011 0.190615 0.193844 0.195699 0.196178 0.195311 0.193122 0.189612 0.184782 0.178748 0.171626 0.163418 0.154122 0.143985 0.133254 0.121928 0.110009 0.0978531 0.0858191 0.0739069 0.0621165 0.0507841 0.0402459 0.0305019 0.0215522 0.0135594 0.00668631 0.00093285 -0.00370095 -0.00727938 -0.0098667 -0.0114629 -0.012068 -0.0119279 -0.0112882 -0.0101491 -0.00851043 -0.00671017 -0.00508615 -0.00363837 -0.00236683 -0.00133134 -0.000591709 -0.000147927 0 0 -6.86e-05 -0.0002744 -0.0006174 -0.0010976 -0.00173544 -0.00255136 -0.00354537 -0.00471746 -0.00597821 -0.00723822 -0.00849748 -0.00975599 -0.0109492 -0.0120124 -0.0129457 -0.0137491 -0.0144032 -0.0148888 -0.0152058 -0.0153544 -0.015355 -0.0152286 -0.0149751 -0.0145944 -0.0141234 -0.0135987 -0.0130203 -0.0123882 -0.0117295 -0.0110716 -0.0104142 -0.00975757 -0.00911818 -0.00851272 -0.00794119 -0.00740358 -0.00692963 -0.00654909 -0.00626195 -0.00606822 -0.00602018 -0.00617011 -0.00651803 -0.00706393 -0.00784267 -0.00888913 -0.0102033 -0.0117852 -0.0135823 -0.0155422 -0.0176649 -0.0199503 -0.0222205 -0.0242974 -0.026181 -0.0278714 -0.0291019 -0.0296058 -0.0293831 -0.0284339 -0.026513 -0.0233752 -0.0190205 -0.0134489 -0.0065851 0.00164604 0.0112446 0.0222105 0.0343405 0.0474314 0.0614832 0.0764959 0.0920291 0.107642 0.123335 0.139108 0.154488 0.169002 0.182651 0.195434 0.207047 0.217189 0.225859 0.233057 0.238685 0.242645 0.244938 0.245564 0.244553 0.241937 0.237716 0.231889 0.224595 0.215972 0.206019 0.194737 0.182421 0.169366 0.155572 0.141039 0.126199 0.111486 0.0968978 0.0824358 0.0685062 0.0555154 0.0434634 0.0323502 0.0223723 0.013726 0.00641147 0.000428601 -0.00429666 -0.0078384 -0.0101966 -0.0113713 -0.0116465 -0.0113063 -0.0103506 -0.0087795 -0.00697857 -0.00533349 -0.00384427 -0.00251089 -0.00141238 -0.000627723 -0.000156931 0 0 -7.97845e-05 -0.000319138 -0.00071806 -0.00127655 -0.00200965 -0.00293238 -0.00404475 -0.00534675 -0.00672446 -0.00806393 -0.00936516 -0.0106282 -0.011772 -0.0127157 -0.0134593 -0.0140028 -0.014323 -0.0143969 -0.0142243 -0.0138054 -0.0131714 -0.0123536 -0.011352 -0.0101666 -0.00885602 -0.00747866 -0.00603458 -0.00452375 -0.00299854 -0.00151129 -6.1985e-05 0.00134936 0.00268482 0.00390645 0.00501425 0.00600823 0.00684434 0.00747853 0.0079108 0.00814115 0.0081126 0.00776818 0.00710788 0.0061317 0.00481598 0.00313705 0.00109491 -0.00131044 -0.00399384 -0.00687013 -0.00993931 -0.0132014 -0.0164275 -0.019389 -0.0220857 -0.0245177 -0.0263625 -0.0272976 -0.027323 -0.0264388 -0.0243567 -0.0207885 -0.0157343 -0.009194 -0.00108382 0.00868008 0.0200977 0.033169 0.0476464 0.0632819 0.0800757 0.0980278 0.116607 0.135284 0.154056 0.172926 0.191325 0.208687 0.225012 0.240299 0.254189 0.266321 0.276696 0.285313 0.292058 0.296818 0.299592 0.30038 0.299218 0.296142 0.291151 0.284246 0.275586 0.265329 0.253475 0.240025 0.225325 0.209723 0.193217 0.17581 0.158013 0.140342 0.122796 0.105375 0.0885655 0.0728512 0.0582323 0.0447091 0.0325159 0.0218873 0.0128233 0.00532399 -0.000695363 -0.00531932 -0.00854787 -0.010381 -0.0111444 -0.0111638 -0.0104391 -0.0089703 -0.00719431 -0.00554799 -0.00403133 -0.00264433 -0.00148744 -0.000661082 -0.000165271 0 0 -9.11696e-05 -0.000364678 -0.000820526 -0.00145871 -0.00228711 -0.00331359 -0.00453815 -0.0059608 -0.00743978 -0.00883333 -0.0101415 -0.0113642 -0.0124015 -0.0131534 -0.0136199 -0.013801 -0.013669 -0.0131962 -0.0123825 -0.0112279 -0.00977672 -0.00807313 -0.00611714 -0.00390874 -0.00153356 0.000922775 0.00346028 0.00607894 0