<?xml version="1.0"?> 
<VTKFile type="StructuredGrid" version="0.1"> 
<StructuredGrid WholeExtent="0 128 0 128 0 0"> 
<Piece Extent="0 128 0 128 0 0"> 
<PointData>
<DataArray type="Float32" Name="u" format="ascii" NumberOfComponents="1"> 
0 0 0 0 0 0 0 0 0 0 0 0 0 0 0 0 0 0 0 0 0 0 0 0 0 0 0 0 0 0 0 0 0 0 0 0 0 0 0 0 0 0 0 0 0 0 0 0 0 0 0 0 0 0 0 0 0 0 0 0 0 0 0 0 0 0 0 0 0 0 0 0 0 0 0 0 0 0 0 0 0 0 0 0 0 0 0 0 0 0 0 0 0 0 0 0 0 0 0 0 0 0 0 0 0 0 0 0 0 0 0 0 0 0 0 0 0 0 0 0 0 0 0 0 0 0 0 0 0 0 6.15943e-08 2.46377e-07 5.54349e-07 9.85509e-07 1.34605e-06 1.44216e-06 1.27385e-06 8.41114e-07 -2.60363e-08 -1.49758e-06 -3.57353e-06 -6.25387e-06 -9.55597e-06 -1.34972e-05 -1.80776e-05 -2.3297e-05 -2.91281e-05 -3.55431e-05 -4.25422e-05 -5.01253e-05 -5.82017e-05 -6.6681e-05 -7.55631e-05 -8.48479e-05 -9.43466e-05 -0.00010387 -0.000113419 -0.000122992 -0.000132322 -0.000141139 -0.000149442 -0.000157233 -0.000164261 -0.000170274 -0.000175274 -0.000179259 -0.000182138 -0.000183819 -0.000184302 -0.000183587 -0.000181826 -0.000179171 -0.000175624 -0.000171184 -0.000166195 -0.000161004 -0.00015561 -0.000150013 -0.000144572 -0.000139647 -0.000135238 -0.000131345 -0.000128154 -0.000125852 -0.000124439 -0.000123915 -0.000124232 -0.000125344 -0.000127249 -0.00012995 -0.000133264 -0.000137014 -0.000141199 -0.000145818 -0.000150729 -0.000155784 -0.000160986 -0.000166333 -0.000171797 -0.00017735 -0.000182991 -0.00018872 -0.000194552 -0.000200501 -0.000206567 -0.00021275 -0.000218972 -0.000225153 -0.000231294 -0.000237395 -0.000243253 -0.000248664 -0.000253629 -0.000258149 -0.000262026 -0.000265067 -0.00026727 -0.000268636 -0.000269134 -0.000268737 -0.000267443 -0.000265252 -0.000262309 -0.000258756 -0.000254594 -0.000249822 -0.000244604 -0.0002391 -0.000233312 -0.000227238 -0.000220912 -0.000214363 -0.000207591 -0.000200598 -0.000193286 -0.000185559 -0.000177419 -0.000168863 -0.000159812 -0.000150186 -0.000139983 -0.000129204 -0.000117957 -0.000106349 -9.43809e-05 -8.20518e-05 -6.97931e-05 -5.80361e-05 -4.67806e-05 -3.60268e-05 -2.63673e-05 -1.83947e-05 -1.21091e-05 -7.51042e-06 -4.22461e-06 -1.8776e-06 -4.69401e-07 0 0 2.46377e-07 9.85509e-07 2.2174e-06 3.94204e-06 5.3842e-06 5.76866e-06 5.09541e-06 3.36446e-06 -1.04145e-07 -5.99033e-06 -1.42941e-05 -2.50155e-05 -3.82239e-05 -5.39888e-05 -7.23102e-05 -9.31881e-05 -0.000116512 -0.000142173 -0.000170169 -0.000200501 -0.000232807 -0.000266724 -0.000302252 -0.000339392 -0.000377387 -0.000415481 -0.000453676 -0.00049197 -0.000529288 -0.000564555 -0.00059777 -0.000628934 -0.000657044 -0.000681097 -0.000701095 -0.000717036 -0.000728553 -0.000735277 -0.000737208 -0.000734346 -0.000727302 -0.000716685 -0.000702496 -0.000684735 -0.000664782 -0.000644016 -0.00062244 -0.000600051 -0.000578289 -0.000558589 -0.000540953 -0.00052538 -0.000512616 -0.000503408 -0.000497755 -0.000495658 -0.000496928 -0.000501374 -0.000508998 -0.000519798 -0.000533057 -0.000548056 -0.000564795 -0.000583274 -0.000602914 -0.000623138 -0.000643943 -0.000665332 -0.000687188 -0.000709398 -0.000731962 -0.000754879 -0.000778207 -0.000802004 -0.000826269 -0.000851002 -0.000875889 -0.000900614 -0.000925178 -0.000949581 -0.00097301 -0.000994656 -0.00101452 -0.00103259 -0.00104811 -0.00106027 -0.00106908 -0.00107454 -0.00107654 -0.00107495 -0.00106977 -0.00106101 -0.00104923 -0.00103502 -0.00101837 -0.000999289 -0.000978414 -0.0009564 -0.000933247 -0.000908954 -0.000883647 -0.00085745 -0.000830365 -0.000802391 -0.000773143 -0.000742238 -0.000709674 -0.000675452 -0.00063925 -0.000600743 -0.000559932 -0.000516817 -0.000471829 -0.000425398 -0.000377524 -0.000328207 -0.000279172 -0.000232144 -0.000187123 -0.000144107 -0.000105469 -7.35789e-05 -4.84364e-05 -3.00417e-05 -1.68984e-05 -7.51042e-06 -1.8776e-06 0 0 5.54349e-07 2.2174e-06 4.98914e-06 8.86958e-06 1.21145e-05 1.29795e-05 1.14647e-05 7.57003e-06 -2.34327e-07 -1.34782e-05 -3.21617e-05 -5.62848e-05 -8.60037e-05 -0.000121475 -0.000162698 -0.000209673 -0.000262153 -0.000319888 -0.00038288 -0.000451128 -0.000523816 -0.000600129 -0.000680068 -0.000763631 -0.00084912 -0.000934833 -0.00102077 -0.00110693 -0.0011909 -0.00127025 -0.00134498 -0.0014151 -0.00147835 -0.00153247 -0.00157746 -0.00161333 -0.00163924 -0.00165437 -0.00165872 -0.00165228 -0.00163643 -0.00161254 -0.00158062 -0.00154065 -0.00149576 -0.00144904 -0.00140049 -0.00135012 -0.00130115 -0.00125683 -0.00121714 -0.0011821 -0.00115339 -0.00113267 -0.00111995 -0.00111523 -0.00111809 -0.00112809 -0.00114525 -0.00116955 -0.00119938 -0.00123313 -0.00127079 -0.00131237 -0.00135656 -0.00140206 -0.00144887 -0.001497 -0.00154617 -0.00159615 -0.00164691 -0.00169848 -0.00175097 -0.00180451 -0.0018591 -0.00191475 -0.00197075 -0.00202638 -0.00208165 -0.00213656 -0.00218927 -0.00223798 -0.00228266 -0.00232334 -0.00235824 -0.0023856 -0.00240543 -0.00241772 -0.00242221 -0.00241863 -0.00240699 -0.00238727 -0.00236078 -0.0023288 -0.00229134 -0.0022484 -0.00220143 -0.0021519 -0.00209981 -0.00204515 -0.0019882 -0.00192926 -0.00186832 -0.00180538 -0.00173957 -0.00167004 -0.00159677 -0.00151977 -0.00143831 -0.00135167 -0.00125985 -0.00116284 -0.00106161 -0.000957144 -0.000849428 -0.000738466 -0.000628138 -0.000522325 -0.000421026 -0.000324241 -0.000237306 -0.000165553 -0.000108982 -6.75937e-05 -3.80215e-05 -1.68984e-05 -4.22461e-06 0 0 9.85509e-07 3.94204e-06 8.86958e-06 1.57681e-05 2.15368e-05 2.30746e-05 2.03816e-05 1.34578e-05 -4.16581e-07 -2.39613e-05 -5.71764e-05 -0.000100062 -0.000152895 -0.000215955 -0.000289241 -0.000372753 -0.000466049 -0.00056869 -0.000680675 -0.000802004 -0.000931228 -0.0010669 -0.00120901 -0.00135757 -0.00150955 -0.00166192 -0.0018147 -0.00196788 -0.00211715 -0.00225822 -0.00239108 -0.00251574 -0.00262817 -0.00272439 -0.00280438 -0.00286814 -0.00291421 -0.00294111 -0.00294883 -0.00293738 -0.00290921 -0.00286674 -0.00280999 -0.00273894 -0.00265913 -0.00257607 -0.00248976 -0.00240021 -0.00231315 -0.00223436 -0.00216381 -0.00210152 -0.00205046 -0.00201363 -0.00199102 -0.00198263 -0.00198771 -0.0020055 -0.00203599 -0.00207919 -0.00213223 -0.00219222 -0.00225918 -0.0023331 -0.00241166 -0.00249255 -0.00257577 -0.00266133 -0.00274875 -0.00283759 -0.00292785 -0.00301952 -0.00311283 -0.00320802 -0.00330507 -0.00340401 -0.00350355 -0.00360246 -0.00370071 -0.00379832 -0.00389204 -0.00397862 -0.00405807 -0.00413038 -0.00419242 -0.00424107 -0.00427632 -0.00429817 -0.00430615 -0.00429979 -0.00427908 -0.00424404 -0.00419694 -0.00414009 -0.0040735 -0.00399716 -0.00391366 -0.0038256 -0.00373299 -0.00363582 -0.00353459 -0.0034298 -0.00332146 -0.00320956 -0.00309257 -0.00296895 -0.0028387 -0.00270181 -0.002557 -0.00240297 -0.00223973 -0.00206727 -0.00188731 -0.00170159 -0.00151009 -0.00131283 -0.00111669 -0.000928577 -0.00074849 -0.000576429 -0.000421877 -0.000294316 -0.000193746 -0.000120167 -6.75937e-05 -3.00417e-05 -7.51042e-06 0 0 1.27211e-06 5.08844e-06 1.1449e-05 2.03538e-05 2.69669e-05 2.64527e-05 1.88112e-05 4.04222e-06 -2.18392e-05 -6.28181e-05 -0.000118895 -0.000190069 -0.00027668 -0.00037907 -0.000497237 -0.000631183 -0.000780188 -0.000943536 -0.00112123 -0.00131326 -0.00151738 -0.00173133 -0.0019551 -0.00218871 -0.00242745 -0.00266663 -0.00290624 -0.0031463 -0.00338011 -0.003601 -0.00380895 -0.00400397 -0.00417984 -0.00433035 -0.0044555 -0.00455527 -0.00462744 -0.00466976 -0.00468222 -0.00466483 -0.00462145 -0.00455593 -0.00446827 -0.00435847 -0.00423513 -0.00410686 -0.00397364 -0.00383549 -0.00370123 -0.00357967 -0.00347083 -0.0033747 -0.00329564 -0.00323801 -0.00320182 -0.00318707 -0.00319218 -0.00321559 -0.0032573 -0.0033173 -0.00339079 -0.00347293 -0.00356374 -0.00366321 -0.00376763 -0.00387331 -0.00398024 -0.00408843 -0.00419748 -0.00430698 -0.00441694 -0.00452736 -0.00463932 -0.00475391 -0.00487113 -0.00499099 -0.00511244 -0.00523445 -0.00535701 -0.00548014 -0.00559956 -0.00571101 -0.0058145 -0.00591002 -0.0059931 -0.00605928 -0.00610856 -0.00614094 -0.00615561 -0.00615177 -0.00612944 -0.00608859 -0.00603232 -0.0059637 -0.00588273 -0.00578942 -0.005687 -0.0055787 -0.00546453 -0.00534449 -0.00521848 -0.0050864 -0.00494825 -0.00480403 -0.00465067 -0.0044851 -0.00430733 -0.00411735 -0.00391288 -0.00369164 -0.00345363 -0.00319884 -0.0029301 -0.00265022 -0.00235922 -0.00205707 -0.00175488 -0.0014637 -0.00118355 -0.000914423 -0.000671659 -0.0004706 -0.000311246 -0.000193596 -0.000108898 -4.83989e-05 -1.20997e-05 0 0 1.1464e-06 4.58561e-06 1.03176e-05 1.83424e-05 2.17205e-05 1.35124e-05 -6.28188e-06 -3.76624e-05 -8.56904e-05 -0.000155427 -0.000246873 -0.000360027 -0.000495139 -0.000652459 -0.000831985 -0.00103372 -0.00125655 -0.00149938 -0.00176221 -0.00204503 -0.00234461 -0.00265773 -0.00298438 -0.00332457 -0.0036716 -0.0040188 -0.00436616 -0.00471369 -0.00505185 -0.00537111 -0.00567147 -0.00595294 -0.00620668 -0.00642385 -0.00660447 -0.00674852 -0.00685293 -0.00691461 -0.00693357 -0.0069098 -0.00684897 -0.00675674 -0.00663313 -0.00647812 -0.00630403 -0.00612317 -0.00593554 -0.00574115 -0.00555228 -0.00538125 -0.00522806 -0.00509271 -0.00498069 -0.00489752 -0.0048432 -0.00481773 -0.00481787 -0.00484036 -0.00488522 -0.00495244 -0.00503424 -0.00512285 -0.00521824 -0.00532044 -0.00542389 -0.00552304 -0.00561788 -0.00570842 -0.00579489 -0.00587754 -0.00595636 -0.00603135 -0.00610595 -0.00618357 -0.00626423 -0.00634792 -0.00643553 -0.00652796 -0.00662521 -0.00672727 -0.00683008 -0.00692956 -0.00702572 -0.00711855 -0.00720271 -0.00727285 -0.00732897 -0.00737106 -0.00739782 -0.00740794 -0.0074014 -0.00737822 -0.00734152 -0.00729442 -0.00723693 -0.00716905 -0.00709335 -0.00701239 -0.00692617 -0.0068347 -0.00673558 -0.00662639 -0.00650715 -0.00637786 -0.00623238 -0.00606461 -0.00587454 -0.00566217 -0.00542354 -0.00515468 -0.0048556 -0.00452629 -0.00417114 -0.00379453 -0.00339648 -0.00297698 -0.00255274 -0.0021405 -0.00174024 -0.00135197 -0.00099913 -0.000705139 -0.000470001 -0.000293716 -0.000165215 -7.34291e-05 -1.83573e-05 0 0 6.08386e-07 2.43354e-06 5.47547e-06 9.73418e-06 5.7976e-06 -1.57463e-05 -5.48975e-05 -0.000111656 -0.00019197 -0.000301788 -0.00044111 -0.000609937 -0.000808272 -0.00103612 -0.00129349 -0.00158036 -0.00189515 -0.00223623 -0.00260362 -0.0029973 -0.00341292 -0.0038461 -0.00429684 -0.00476514 -0.00524202 -0.00571846 -0.00619446 -0.00667004 -0.00713235 -0.00756856 -0.00797865 -0.00836264 -0.00870867 -0.00900489 -0.00925129 -0.00944788 -0.00959067 -0.00967566 -0.00970286 -0.00967227 -0.00959176 -0.00946919 -0.00930456 -0.00909788 -0.00886581 -0.008625 -0.00837545 -0.00811717 -0.00786633 -0.00763911 -0.00743552 -0.00725555 -0.00710563 -0.00699217 -0.00691517 -0.00687463 -0.00686478 -0.00687982 -0.00691977 -0.00698461 -0.00706259 -0.00714195 -0.00722269 -0.00730481 -0.00738044 -0.00744173 -0.00748868 -0.00752129 -0.00754101 -0.00754928 -0.00754612 -0.00753151 -0.00751272 -0.00749701 -0.00748437 -0.0074748 -0.00747284 -0.007483 -0.00750529 -0.00753971 -0.00758359 -0.00763426 -0.00769173 -0.00775599 -0.00782126 -0.00788178 -0.00793755 -0.00798855 -0.0080328 -0.00806827 -0.00809498 -0.00811292 -0.00812453 -0.00813226 -0.0081361 -0.00813606 -0.00813272 -0.00812667 -0.00811792 -0.00810645 -0.00808587 -0.00804978 -0.00799817 -0.00793105 -0.00783772 -0.00770748 -0.00754033 -0.00733627 -0.00708897 -0.00679209 -0.00644564 -0.00604961 -0.00561043 -0.00513452 -0.00462189 -0.00407254 -0.00351029 -0.00295896 -0.00241856 -0.00188908 -0.00140429 -0.000997932 -0.000670011 -0.000420529 -0.000236547 -0.000105132 -2.6283e-05 0 0 -3.41938e-07 -1.36775e-06 -3.07744e-06 -5.47101e-06 -2.08019e-05 -6.13234e-05 -0.000127036 -0.000217939 -0.000340679 -0.000501902 -0.000701608 -0.000939798 -0.00121608 -0.00153006 -0.00188174 -0.00227112 -0.00269597 -0.00315409 -0.00364546 -0.00417009 -0.0047223 -0.00529643 -0.00589248 -0.00651044 -0.00713868 -0.00776559 -0.00839115 -0.00901536 -0.00962163 -0.0101933 -0.0107305 -0.0112331 -0.0116858 -0.0120735 -0.012396 -0.0126534 -0.0128407 -0.0129529 -0.0129901 -0.0129523 -0.0128498 -0.0126933 -0.0124826 -0.0122178 -0.0119205 -0.0116123 -0.0112934 -0.0109636 -0.0106434 -0.0103532 -0.0100932 -0.00986323 -0.00967044 -0.00952194 -0.00941771 -0.00935776 -0.00933291 -0.00933397 -0.00936093 -0.00941381 -0.00947584 -0.00953026 -0.00957708 -0.0096163 -0.00963728 -0.0096294 -0.00959265 -0.00952704 -0.00943581 -0.0093222 -0.0091862 -0.00902783 -0.00885965 -0.00869422 -0.00853155 -0.00837164 -0.00822436 -0.00809956 -0.00799727 -0.00791746 -0.0078601 -0.00782512 -0.00781252 -0.00782232 -0.00784875 -0.00788608 -0.0079343 -0.00799341 -0.00806053 -0.00813279 -0.00821018 -0.00829269 -0.00838137 -0.00847721 -0.00858024 -0.00869044 -0.00880511 -0.00892155 -0.00903976 -0.00915974 -0.00926937 -0.00935657 -0.00942131 -0.00946361 -0.00946667 -0.00941369 -0.00930469 -0.00913964 -0.00890917 -0.00860387 -0.00822375 -0.00776881 -0.00724797 -0.00667019 -0.00603545 -0.00534376 -0.00462752 -0.0039191 -0.00321851 -0.00252575 -0.00188714 -0.00134898 -0.000911277 -0.000574032 -0.000322893 -0.000143508 -3.5877e-05 0 0 -1.99586e-06 -7.98343e-06 -1.79627e-05 -3.19337e-05 -6.50955e-05 -0.000132647 -0.000234588 -0.000370919 -0.000548222 -0.000773082 -0.0010455 -0.00136547 -0.0017318 -0.00214328 -0.00259992 -0.00310172 -0.00364572 -0.00422897 -0.00485146 -0.0055132 -0.00620728 -0.00692681 -0.00767178 -0.0084422 -0.00922393 -0.0100029 -0.010779 -0.0115524 -0.0123027 -0.0130097 -0.0136734 -0.0142938 -0.0148523 -0.0153303 -0.0157278 -0.0160448 -0.0162756 -0.0164145 -0.0164614 -0.0164163 -0.0162926 -0.0161036 -0.0158494 -0.0155298 -0.0151716 -0.0148016 -0.0144197 -0.0140259 -0.0136446 -0.0132999 -0.012992 -0.0127208 -0.012493 -0.0123152 -0.0121873 -0.0121095 -0.0120674 -0.0120469 -0.012048 -0.0120705 -0.0120914 -0.0120874 -0.0120583 -0.0120043 -0.0119114 -0.0117658 -0.0115674 -0.0113162 -0.0110186 -0.0106806 -0.0103024 -0.00988387 -0.00944584 -0.00900907 -0.00857353 -0.00813925 -0.00772493 -0.00734932 -0.0070124 -0.00671419 -0.00646006 -0.00625538 -0.00610015 -0.00599438 -0.00593368 -0.00591365 -0.00593431 -0.00599565 -0.00609369 -0.00622444 -0.00638791 -0.0065841 -0.00681097 -0.00706649 -0.00735067 -0.00766351 -0.00799621 -0.00833997 -0.0086948 -0.0090607 -0.00941656 -0.0097413 -0.0100349 -0.0102974 -0.0105031 -0.0106267 -0.010668 -0.010627 -0.0104903 -0.010244 -0.0098884 -0.00942333 -0.00886082 -0.00821283 -0.00747937 -0.00666043 -0.00579869 -0.0049368 -0.00407476 -0.00321257 -0.00241158 -0.00173316 -0.00117731 -0.000744018 -0.00041851 -0.000186005 -4.65011e-05 0 0 -4.64466e-06 -1.85787e-05 -4.1802e-05 -7.43146e-05 -0.000134101 -0.000239144 -0.000389446 -0.000585005 -0.000831008 -0.00113264 -0.00148991 -0.0019028 -0.00236866 -0.00288479 -0.00345121 -0.00406792 -0.00473109 -0.0054369 -0.00618535 -0.00697646 -0.00780238 -0.00865531 -0.00953524 -0.0104422 -0.0113601 -0.012273 -0.013181 -0.0140839 -0.0149586 -0.0157819 -0.0165538 -0.0172743 -0.0179221 -0.018476 -0.018936 -0.0193021 -0.0195682 -0.0197284 -0.0197826 -0.0197309 -0.0195896 -0.019375 -0.0190871 -0.0187259 -0.0183229 -0.0179092 -0.0174848 -0.0170499 -0.0166312 -0.0162555 -0.015923 -0.0156335 -0.0153912 -0.0152002 -0.0150605 -0.0149722 -0.0149135 -0.0148628 -0.0148201 -0.0147853 -0.0147268 -0.0146128 -0.0144433 -0.0142182 -0.01392 -0.0135307 -0.0130506 -0.0124795 -0.0118285 -0.0111088 -0.0103204 -0.00946318 -0.00857045 -0.00767542 -0.00677808 -0.00587844 -0.0050094 -0.00420391 -0.00346197 -0.00278356 -0.00218392 -0.00167829 -0.00126665 -0.000949005 -0.000724543 -0.000592441 -0.000552698 -0.000605315 -0.000744935 -0.000966202 -0.00126912 -0.00165368 -0.00211227 -0.00263729 -0.00322873 -0.00388659 -0.0045917 -0.00532488 -0.00608614 -0.00687548 -0.00765793 -0.00839852 -0.00909726 -0.00975415 -0.0103311 -0.0107899 -0.0111306 -0.0113532 -0.0114383 -0.0113666 -0.011138 -0.0107526 -0.010226 -0.00957374 -0.00879585 -0.00789234 -0.00691808 -0.00592796 -0.00492197 -0.00390012 -0.00294154 -0.00212538 -0.00145162 -0.000920277 -0.000517656 -0.000230069 -5.75173e-05 0 0 -8.28835e-06 -3.31534e-05 -7.45952e-05 -0.000132614 -0.000227818 -0.000380816 -0.000591609 -0.000860196 -0.00118903 -0.00158058 -0.00203484 -0.00255181 -0.00312667 -0.0037546 -0.00443562 -0.00516971 -0.00595207 -0.00677788 -0.00764715 -0.00855986 -0.0095076 -0.0104819 -0.0114829 -0.0125104 -0.0135472 -0.014576 -0.0155969 -0.0166098 -0.0175893 -0.0185099 -0.0193717 -0.0201746 -0.0208954 -0.0215107 -0.0220206 -0.0224252 -0.0227185 -0.0228947 -0.0229539 -0.0228961 -0.0227407 -0.0225072 -0.0221958 -0.0218063 -0.0213742 -0.020935 -0.0204888 -0.0200354 -0.0196031 -0.01922 -0.018886 -0.0186011 -0.018365 -0.018177 -0.0180373 -0.0179458 -0.0178711 -0.0177816 -0.0176772 -0.0175581 -0.017382 -0.0171066 -0.016732 -0.0162581 -0.0156628 -0.0149242 -0.0140422 -0.0130167 -0.0118657 -0.0106068 -0.0092402 -0.00776576 -0.00623348 -0.00469329 -0.0031452 -0.00158921 -7.77787e-05 0.00133664 0.00265404 0.00387443 0.0049683 0.00590616 0.00668799 0.0073138 0.00777865 0.00807756 0.00821055 0.0081776 0.00798573 0.00764194 0.00714621 0.00649856 0.00571471 0.00481038 0.00378559 0.00264032 0.00140842 0.000123718 -0.00121378 -0.00260408 -0.00399347 -0.00532825 -0.00660842 -0.00783397 -0.00895041 -0.00990324 -0.0106925 -0.0113181 -0.0117534 -0.0119716 -0.0119727 -0.0117567 -0.0113435 -0.0107529 -0.0099849 -0.00903947 -0.00798568 -0.00689258 -0.00576016 -0.00458842 -0.00347702 -0.00252561 -0.00173421 -0.00110281 -0.000620329 -0.000275702 -6.89255e-05 0 0 -1.29269e-05 -5.17077e-05 -0.000116342 -0.000206831 -0.000346246 -0.000557662 -0.000841077 -0.00119649 -0.0016223 -0.0021169 -0.00268029 -0.00331247 -0.00400582 -0.00475271 -0.00555313 -0.0064071 -0.00730868 -0.00825192 -0.00923683 -0.0102634 -0.0113229 -0.0124067 -0.0135146 -0.0146468 -0.0157852 -0.0169119 -0.0180269 -0.0191302 -0.0201949 -0.0211938 -0.0221271 -0.0229947 -0.023772 -0.0244343 -0.0249817 -0.0254141 -0.0257264 -0.0259135 -0.0259753 -0.0259118 -0.025746 -0.0255005 -0.0251754 -0.0247707 -0.0243256 -0.0238792 -0.0234315 -0.0229826 -0.0225605 -0.0221933 -0.0218811 -0.0216238 -0.0214143 -0.0212456 -0.0211177 -0.0210305 -0.0209402 -0.0208033 -0.0206195 -0.020389 -0.020057 -0.0195688 -0.0189244 -0.0181238 -0.0171401 -0.0159462 -0.0145421 -0.012928 -0.01113 -0.00917466 -0.00706186 -0.00479162 -0.00243491 -6.26602e-05 0.00232512 0.00472843 0.00706995 0.00927234 0.0113356 0.0132598 0.0149966 0.0164979 0.0177638 0.0187941 0.0195759 0.0200964 0.0203554 0.0203531 0.0200983 0.0196 0.0188581 0.0178726 0.01667 0.0152765 0.0136923 0.0119172 0.0100041 0.00800583 0.00592228 0.0037535 0.0015768 -0.00053048 -0.00256835 -0.00453681 -0.00636119 -0.00796681 -0.00935367 -0.0105218 -0.0114354 -0.012059 -0.0123923 -0.0124356 -0.0122134 -0.0117504 -0.0110465 -0.0101018 -0.0090015 -0.00783066 -0.00658931 -0.00527745 -0.004018 -0.00293388 -0.00202508 -0.00129161 -0.000726532 -0.000322903 -8.07257e-05 0 0 -1.8537e-05 -7.41481e-05 -0.000166833 -0.000296592 -0.000488525 -0.00076773 -0.00113421 -0.00158796 -0.00212155 -0.00272757 -0.00340599 -0.00415684 -0.00496867 -0.00583007 -0.00674103 -0.00770154 -0.00870437 -0.00974223 -0.0108151 -0.0119231 -0.0130577 -0.0142105 -0.0153815 -0.0165707 -0.0177609 -0.0189345 -0.0200917 -0.0212325 -0.0223298 -0.0233568 -0.0243134 -0.0251997 -0.025991 -0.0266629 -0.0272153 -0.0276483 -0.0279582 -0.0281417 -0.0281986 -0.028129 -0.0279592 -0.0277154 -0.0273975 -0.0270055 -0.0265814 -0.0261668 -0.0257618 -0.0253664 -0.0250062 -0.0247071 -0.0244691 -0.0242921 -0.0241593 -0.0240536 -0.0239751 -0.0239238 -0.0238402 -0.023665 -0.0233983 -0.0230399 -0.0225201 -0.021769 -0.0207867 -0.0195731 -0.0180958 -0.0163223 -0.0142525 -0.0118864 -0.00926151 -0.00641532 -0.00334782 -5.90104e-05 0.0033534 0.00679169 0.0102559 0.0137459 0.0171527 0.0203671 0.0233892 0.0262189 0.0287839 0.031012 0.0329033 0.0344576 0.0356517 0.0364621 0.0368888 0.0369319 0.0366024 0.0359116 0.0348593 0.0334456 0.0317102 0.0296929 0.0273937 0.0248125 0.0220263 0.0191116 0.0160686 0.0128972 0.0097046 0.00659781 0.00357687 0.000641776 -0.00210757 -0.00457129 -0.00674938 -0.00864184 -0.0102019 -0.0113828 -0.0121846 -0.0126072 -0.0126808 -0.0124358 -0.0118721 -0.0109896 -0.00989219 -0.00868344 -0.00736338 -0.005932 -0.0045384 -0.0033317 -0.00231189 -0.00147896 -0.000831915 -0.00036974 -9.24351e-05 0 0 -2.50952e-05 -0.000100381 -0.000225857 -0.000401524 -0.000653791 -0.00100907 -0.00146736 -0.00202866 -0.00267753 -0.00339853 -0.00419166 -0.00505693 -0.00597778 -0.00693765 -0.00793656 -0.00897449 -0.0100426 -0.011132 -0.0122428 -0.0133748 -0.014521 -0.0156742 -0.0168344 -0.0180016 -0.019161 -0.0202979 -0.0214122 -0.0225039 -0.0235487 -0.0245221 -0.025424 -0.0262545 -0.0269915 -0.0276125 -0.0281177 -0.0285071 -0.0287801 -0.0289364 -0.0289759 -0.0288986 -0.0287342 -0.0285125 -0.0282334 -0.027897 -0.027546 -0.0272231 -0.0269284 -0.0266617 -0.0264432 -0.0262929 -0.0262107 -0.0261967 -0.0262197 -0.0262485 -0.026283 -0.0263234 -0.0262903 -0.0261041 -0.0257649 -0.0252728 -0.0245395 -0.0234769 -0.022085 -0.0203638 -0.0182744 -0.0157782 -0.012875 -0.00956503 -0.00590001 -0.00193186 0.00233941 0.00691382 0.0116596 0.016445 0.02127 0.0261347 0.0308895 0.035385 0.0396212 0.0435981 0.047213 0.0503634 0.0530492 0.0552703 0.0569904 0.0581728 0.0588176 0.0589247 0.0585078 0.0575804 0.0561426 0.0541944 0.0517919 0.0489911 0.045792 0.0421947 0.0383056 0.0342314 0.0299719 0.0255272 0.0210416 0.0166596 0.0123812 0.00820626 0.00426626 0.00069256 -0.00251485 -0.00535596 -0.00777027 -0.00969726 -0.0111369 -0.0120893 -0.012591 -0.0126789 -0.0123529 -0.011613 -0.0105844 -0.00939218 -0.00803633 -0.00651684 -0.00501214 -0.00370062 -0.00258228 -0.00165713 -0.000932135 -0.000414282 -0.000103571 0 0 -3.26016e-05 -0.000130406 -0.000293414 -0.000521626 -0.000842045 -0.00128168 -0.00184053 -0.00251859 -0.00329022 -0.0041298 -0.0050373 -0.00601275 -0.00703313 -0.00807546 -0.00913973 -0.0102259 -0.0113234 -0.0124213 -0.0135197 -0.0146187 -0.0157131 -0.016798 -0.0178735 -0.0189394 -0.0199856 -0.0210019 -0.0219882 -0.0229446 -0.0238515 -0.0246897 -0.0254589 -0.0261593 -0.0267733 -0.0272831 -0.0276889 -0.0279906 -0.0281921 -0.0282977 -0.0283071 -0.0282204 -0.028071 -0.0278919 -0.0276833 -0.0274452 -0.0272194 -0.0270481 -0.0269312 -0.0268687 -0.0268716 -0.0269507 -0.027106 -0.0273376 -0.0275956 -0.0278302 -0.0280416 -0.0282295 -0.0282904 -0.0281204 -0.0277195 -0.0270878 -0.0261154 -0.0246926 -0.0228193 -0.0204956 -0.0176757 -0.0143138 -0.0104099 -0.00596393 -0.00104554 0.00427573 0.00999986 0.0161269 0.0224837 0.0288973 0.0353676 0.0418947 0.0482803 0.0543259 0.0600316 0.0653974 0.070284 0.074552 0.0782014 0.0812322 0.0835921 0.0852286 0.0861417 0.0863315 0.0858143 0.0846065 0.0827082 0.0801193 0.0769152 0.0731712 0.0688874 0.0640637 0.0588422 0.053365 0.047632 0.0416433 0.0355879 0.029655 0.0238446 0.0181566 0.0127603 0.00782476 0.00334994 -0.000664132 -0.00414052 -0.00700228 -0.00924942 -0.0108819 -0.011944 -0.0124797 -0.012489 -0.0119721 -0.0110782 -0.00995688 -0.00860815 -0.00703198 -0.00543921 -0.00404064 -0.00283627 -0.00182611 -0.00102719 -0.000456528 -0.000114132 0 0 -4.10561e-05 -0.000164224 -0.000369505 -0.000656898 -0.00105329 -0.00158556 -0.00225371 -0.00305775 -0.00395964 -0.00492136 -0.00594291 -0.0070243 -0.00813474 -0.00924349 -0.0103505 -0.0114559 -0.0125467 -0.0136101 -0.014646 -0.0156546 -0.0166338 -0.0175818 -0.0184986 -0.0193841 -0.0202347 -0.0210466 -0.0218198 -0.0225544 -0.0232384 -0.0238596 -0.0244182 -0.0249141 -0.0253365 -0.0256748 -0.0259288 -0.0260987 -0.0261943 -0.0262254 -0.0261922 -0.0260946 -0.0259695 -0.0258537 -0.0257471 -0.02565 -0.0256016 -0.0256418 -0.0257703 -0.0259874 -0.0262913 -0.0266804 -0.0271549 -0.0277147 -0.0282869 -0.0287989 -0.0292506 -0.029642 -0.0298406 -0.0297139 -0.029262 -0.0284847 -0.0272476 -0.0254159 -0.0229896 -0.0199688 -0.0162998 -0.0119292 -0.00685696 -0.00108308 0.00530191 0.0122074 0.0196335 0.0275801 0.0358257 0.0441485 0.0525486 0.0610261 0.069325 0.0771898 0.0846205 0.0916169 0.0979968 0.103578 0.10836 0.112343 0.115457 0.117629 0.118861 0.119152 0.118522 0.11699 0.114556 0.11122 0.10708 0.102233 0.0966797 0.0904195 0.083636 0.0765125 0.069049 0.0612455 0.0533433 0.0455839 0.0379671 0.0304929 0.0233746 0.0168253 0.010845 0.00543365 0.000687354 -0.00329789 -0.00652206 -0.00898518 -0.0107397 -0.0118381 -0.0122805 -0.0120667 -0.0113735 -0.0103775 -0.00907885 -0.00747742 -0.00581961 -0.00435175 -0.00307385 -0.00198592 -0.00111708 -0.000496479 -0.00012412 0 0 -5.01973e-05 -0.000200789 -0.000451776 -0.000803157 -0.00128064 -0.00190994 -0.00269105 -0.00362396 -0.00465577 -0.00573354 -0.00685728 -0.00802697 -0.00920237 -0.0103432 -0.0114495 -0.0125211 -0.0135428 -0.014499 -0.0153898 -0.0162151 -0.0169774 -0.0176791 -0.0183203 -0.018901 -0.0194269 -0.0199037 -0.0203314 -0.02071 -0.0210387 -0.0213167 -0.021544 -0.0217205 -0.0218458 -0.0219194 -0.0219411 -0.0219111 -0.0218473 -0.0217673 -0.0216713 -0.0215593 -0.0214717 -0.0214491 -0.0214915 -0.0215989 -0.021806 -0.0221476 -0.0226236 -0.0232342 -0.0239606 -0.024784 -0.0257046 -0.0267222 -0.0277355 -0.0286427 -0.029444 -0.0301394 -0.0305622 -0.0305461 -0.030091 -0.0291969 -0.0277008 -0.0254395 -0.022413 -0.0186214 -0.0140029 -0.00849581 -0.00210014 0.00518413 0.0132412 0.0219553 0.0313265 0.0413547 0.0517614 0.0622678 0.0728741 0.0835802 0.0940643 0.104005 0.113401 0.122254 0.130332 0.137406 0.143475 0.14854 0.152509 0.155292 0.156888 0.157298 0.156545 0.154651 0.151617 0.147442 0.142248 0.136155 0.129164 0.121275 0.112717 0.103718 0.0942789 0.0843995 0.0743806 0.064523 0.0548268 0.0452919 0.0361827 0.0277634 0.0200341 0.0129947 0.00676387 0.00146003 -0.00291679 -0.00636659 -0.00895098 -0.0107316 -0.0117084 -0.0118814 -0.0114576 -0.010644 -0.00944045 -0.00784707 -0.00614884 -0.00463078 -0.00329291 -0.00213521 -0.00120106 -0.000533804 -0.000133451 0 0 -5.97638e-05 -0.000239055 -0.000537874 -0.000956221 -0.00151723 -0.00224404 -0.00313665 -0.00419505 -0.0053486 -0.00652664 -0.00772917 -0.00895619 -0.0101558 -0.011276 -0.0123169 -0.0132785 -0.0141421 -0.0148889 -0.0155191 -0.0160327 -0.016438 -0.0167436 -0.0169495 -0.0170556 -0.017081 -0.0170449 -0.0169472 -0.0167878 -0.0165822 -0.0163458 -0.0160786 -0.0157805 -0.0154659 -0.0151488 -0.0148294 -0.0145076 -0.0142119 -0.0139708 -0.0137844 -0.0136526 -0.0136196 -0.0137298 -0.0139831 -0.0143795 -0.0149458 -0.015709 -0.016669 -0.0178259 -0.0191378 -0.0205633 -0.0221021 -0.0237544 -0.0253828 -0.0268499 -0.0281557 -0.0293002 -0.0300767 -0.0302785 -0.0299054 -0.0289575 -0.0272395 -0.0245558 -0.0209065 -0.0162917 -0.0106412 -0.00388505 0.00397679 0.0129443 0.0228713 0.0336115 0.045165 0.0575317 0.0703666 0.0833243 0.0964051 0.109609 0.122539 0.134798 0.146387 0.157305 0.167271 0.176001 0.183497 0.189758 0.194673 0.198132 0.200135 0.200682 0.199799 0.197513 0.193823 0.18873 0.182379 0.174914 0.166335 0.156643 0.146114 0.135025 0.123378 0.111171 0.0987722 0.0865492 0.074502 0.0626305 0.0512581 0.0407083 0.0309811 0.0220764 0.0141395 0.00731555 0.00160445 -0.00299375 -0.0065505 -0.00913726 -0.010754 -0.0114008 -0.011318 -0.0107461 -0.00968501 -0.00813484 -0.0064224 -0.00487456 -0.00349132 -0.00227268 -0.00127838 -0.00056817 -0.000142043 0 0 -6.97556e-05 -0.000279022 -0.0006278 -0.00111609 -0.00176306 -0.00258786 -0.00359051 -0.00477101 -0.00603812 -0.00730065 -0.0085586 -0.00981195 -0.010995 -0.012042 -0.012953 -0.013728 -0.0143444 -0.0147798 -0.0150341 -0.0151074 -0.0150157 -0.0147752 -0.0143859 -0.0138478 -0.0131971 -0.0124703 -0.0116672 -0.0107878 -0.00986891 -0.00894697 -0.00802203 -0.0070941 -0.00619663 -0.00536312 -0.00459356 -0.00388795 -0.00328813 -0.00283595 -0.00253141 -0.00237451 -0.00241327 -0.00269572 -0.00322185 -0.00399168 -0.00502109 -0.006326 -0.00790641 -0.00976231 -0.0118231 -0.0140182 -0.0163476 -0.0188113 -0.021229 -0.0234204 -0.0253856 -0.0271246 -0.0283841 -0.0289109 -0.028705 -0.0277665 -0.0258636 -0.0227649 -0.0184703 -0.0129797 -0.00621476 0.00190308 0.0113738 0.0221975 0.0341921 0.047176 0.061149 0.0761112 0.0916413 0.107318 0.123141 0.139112 0.154748 0.16957 0.183578 0.196771 0.208812 0.219364 0.228425 0.235997 0.241949 0.24615 0.248601 0.249302 0.248282 0.245573 0.241174 0.235085 0.227475 0.218511 0.208194 0.196523 0.183827 0.170435 0.156345 0.141559 0.126518 0.111662 0.0969926 0.0825086 0.0686009 0.05566 0.043686 0.0326788 0.0228144 0.0142687 0.00704167 0.00113333 -0.0035383 -0.00705519 -0.00941734 -0.0106247 -0.0109545 -0.0106838 -0.00981251 -0.00834073 -0.00664029 -0.00508308 -0.00366909 -0.00239832 -0.00134905 -0.000599579 -0.000149895 0 0 -8.01727e-05 -0.000320691 -0.000721554 -0.00128276 -0.00201812 -0.00294141 -0.00405265 -0.00535183 -0.00672435 -0.00805559 -0.00934556 -0.0105942 -0.01172 -0.0126411 -0.0133576 -0.0138695 -0.0141498 -0.0141715 -0.0139346 -0.0134391 -0.0127104 -0.0117739 -0.0106297 -0.00927759 -0.00777514 -0.00617975 -0.00449141 -0.00271011 -0.000898731 0.000879879 0.00262572 0.00433878 0.00596185 0.00743769 0.00876631 0.0099477 0.010924 0.0116373 0.0120876 0.0122749 0.0121474 0.0116532 0.0107922 0.00956446 0.00796815 0.00600137 0.00366413 0.000956428 -0.00201635 -0.00514881 -0.00844094 -0.0118928 -0.015274 -0.0183543 -0.0211338 -0.0236124 -0.0254842 -0.0264434 -0.0264899 -0.0256238 -0.0235733 -0.0200668 -0.0151041 -0.00868542 -0.000723543 0.00886858 0.0200909 0.0329436 0.0472037 0.0626487 0.0792784 0.097093 0.115585 0.134249 0.153083 0.172089 0.190692 0.20832 0.224973 0.240651 0.254957 0.267493 0.27826 0.287258 0.294336 0.299346 0.302287 0.303159 0.301996 0.298833 0.29367 0.286507 0.277535 0.266946 0.254739 0.240916 0.225857 0.209946 0.193182 0.175565 0.157618 0.139863 0.122299 0.104926 0.088211 0.0726185 0.0581487 0.0448018 0.0327884 0.0223194 0.0133948 0.00601464 8.56315e-05 -0.00448536 -0.00769834 -0.00955331 -0.0103672 -0.0104571 -0.00982296 -0.00846474 -0.00680252 -0.00525634 -0.00382621 -0.00251212 -0.00141307 -0.000628031 -0.000157008 0 0 -9.06901e-05 -0.00036276 -0.000816211 -0.00145104 -0.002274 -0.00329182 -0.00450452 -0.00591208 -0.00737347 -0.00874762 -0.0100345 -0.0112342 -0.0122465 -0.0129711 -0.0134082 -0.0135576 -0.0133872 -0.0128645 -0.0119897 -0.0107627 -0.00922027 -0.00739928 -0.00529971 -0.