<?xml version="1.0"?> 
<VTKFile type="StructuredGrid" version="0.1"> 
<StructuredGrid WholeExtent="0 128 0 128 0 0"> 
<Piece Extent="0 128 0 128 0 0"> 
<PointData>
<DataArray type="Float32" Name="u" format="ascii" NumberOfComponents="1"> 
0 0 0 0 0 0 0 0 0 0 0 0 0 0 0 0 0 0 0 0 0 0 0 0 0 0 0 0 0 0 0 0 0 0 0 0 0 0 0 0 0 0 0 0 0 0 0 0 0 0 0 0 0 0 0 0 0 0 0 0 0 0 0 0 0 0 0 0 0 0 0 0 0 0 0 0 0 0 0 0 0 0 0 0 0 0 0 0 0 0 0 0 0 0 0 0 0 0 0 0 0 0 0 0 0 0 0 0 0 0 0 0 0 0 0 0 0 0 0 0 0 0 0 0 0 0 0 0 0 0 2.64328e-08 1.05731e-07 2.37895e-07 4.22925e-07 4.60049e-07 1.48495e-07 -5.11737e-07 -1.52065e-06 -3.00317e-06 -5.08424e-06 -7.76387e-06 -1.1042e-05 -1.49164e-05 -1.93846e-05 -2.44466e-05 -3.01024e-05 -3.63198e-05 -4.30668e-05 -5.03434e-05 -5.81494e-05 -6.63932e-05 -7.49827e-05 -8.39181e-05 -9.31993e-05 -0.000102641 -0.000112059 -0.000121452 -0.00013082 -0.000139912 -0.000148474 -0.000156507 -0.000164011 -0.000170763 -0.000176541 -0.000181345 -0.000185175 -0.000187961 -0.000189634 -0.000190192 -0.000189637 -0.000188114 -0.000185772 -0.000182608 -0.000178625 -0.000174129 -0.000169427 -0.000164519 -0.000159406 -0.0001544 -0.000149813 -0.000145646 -0.000141898 -0.000138729 -0.000136299 -0.00013461 -0.00013366 -0.000133403 -0.000133794 -0.000134833 -0.000136519 -0.000138681 -0.000141145 -0.000143911 -0.00014698 -0.000150196 -0.000153404 -0.000156603 -0.000159794 -0.00016293 -0.000165966 -0.000168902 -0.000171737 -0.000174508 -0.000177253 -0.00017997 -0.000182661 -0.000185343 -0.000188033 -0.000190732 -0.000193439 -0.000196093 -0.000198632 -0.000201057 -0.000203367 -0.000205469 -0.000207266 -0.00020876 -0.00020995 -0.000210797 -0.000211259 -0.000211337 -0.000211031 -0.00021037 -0.000209381 -0.000208064 -0.00020642 -0.00020447 -0.000202232 -0.000199708 -0.000196897 -0.000193742 -0.000190184 -0.000186222 -0.000181858 -0.000176978 -0.00017147 -0.000165335 -0.000158571 -0.000151122 -0.000142932 -0.000134001 -0.000124327 -0.000114044 -0.000103284 -9.20448e-05 -8.03283e-05 -6.85769e-05 -5.72336e-05 -4.62986e-05 -3.57716e-05 -2.62665e-05 -1.83966e-05 -1.21621e-05 -7.56296e-06 -4.25417e-06 -1.89074e-06 -4.72685e-07 0 0 1.05731e-07 4.22925e-07 9.51582e-07 1.6917e-06 1.8402e-06 5.9398e-07 -2.04695e-06 -6.08258e-06 -1.20127e-05 -2.0337e-05 -3.10555e-05 -4.41682e-05 -5.96656e-05 -7.75383e-05 -9.77862e-05 -0.000120409 -0.000145279 -0.000172267 -0.000201373 -0.000232598 -0.000265573 -0.000299931 -0.000335672 -0.000372797 -0.000410565 -0.000448234 -0.000485806 -0.00052328 -0.000559646 -0.000593895 -0.000626028 -0.000656044 -0.000683053 -0.000706165 -0.000725382 -0.000740702 -0.000751846 -0.000758535 -0.000760769 -0.000758547 -0.000752457 -0.000743086 -0.000730434 -0.0007145 -0.000696514 -0.000677706 -0.000658077 -0.000637625 -0.000617601 -0.000599253 -0.000582583 -0.00056759 -0.000554915 -0.000545198 -0.000538439 -0.000534638 -0.000533612 -0.000535176 -0.000539331 -0.000546077 -0.000554723 -0.000564579 -0.000575645 -0.000587921 -0.000600786 -0.000613616 -0.000626413 -0.000639176 -0.000651722 -0.000663865 -0.000675607 -0.000686947 -0.000698033 -0.000709011 -0.000719882 -0.000730645 -0.000741372 -0.000752132 -0.000762927 -0.000773755 -0.000784371 -0.000794529 -0.000804229 -0.00081347 -0.000821875 -0.000829065 -0.00083504 -0.000839802 -0.000843187 -0.000845037 -0.00084535 -0.000844126 -0.000841479 -0.000837523 -0.000832257 -0.000825682 -0.000817878 -0.000808928 -0.000798832 -0.000787589 -0.000774968 -0.000760734 -0.000744889 -0.000727432 -0.000707913 -0.000685882 -0.000661338 -0.000634283 -0.000604489 -0.000571729 -0.000536002 -0.000497309 -0.000456177 -0.000413134 -0.000368179 -0.000321313 -0.000274308 -0.000228935 -0.000185194 -0.000143087 -0.000105066 -7.35864e-05 -4.86485e-05 -3.02519e-05 -1.70167e-05 -7.56296e-06 -1.89074e-06 0 0 2.37895e-07 9.51582e-07 2.14106e-06 3.80633e-06 4.14044e-06 1.33646e-06 -4.60563e-06 -1.36858e-05 -2.70285e-05 -4.57582e-05 -6.98748e-05 -9.93784e-05 -0.000134248 -0.000174461 -0.000220019 -0.000270921 -0.000326878 -0.000387601 -0.00045309 -0.000523345 -0.000597538 -0.000674845 -0.000755263 -0.000838794 -0.000923771 -0.00100853 -0.00109306 -0.00117738 -0.0012592 -0.00133626 -0.00140856 -0.0014761 -0.00153687 -0.00158887 -0.00163211 -0.00166658 -0.00169165 -0.0017067 -0.00171173 -0.00170673 -0.00169303 -0.00167194 -0.00164348 -0.00160762 -0.00156716 -0.00152484 -0.00148067 -0.00143466 -0.0013896 -0.00134832 -0.00131081 -0.00127708 -0.00124856 -0.0012267 -0.00121149 -0.00120294 -0.00120063 -0.00120415 -0.0012135 -0.00122867 -0.00124813 -0.0012703 -0.0012952 -0.00132282 -0.00135177 -0.00138064 -0.00140943 -0.00143815 -0.00146637 -0.0014937 -0.00152012 -0.00154563 -0.00157057 -0.00159527 -0.00161973 -0.00164395 -0.00166809 -0.0016923 -0.00171658 -0.00174095 -0.00176484 -0.00178769 -0.00180951 -0.00183031 -0.00184922 -0.0018654 -0.00187884 -0.00188955 -0.00189717 -0.00190133 -0.00190204 -0.00189928 -0.00189333 -0.00188443 -0.00187258 -0.00185778 -0.00184023 -0.00182009 -0.00179737 -0.00177208 -0.00174368 -0.00171165 -0.001676 -0.00163672 -0.0015928 -0.00154323 -0.00148801 -0.00142714 -0.0013601 -0.00128639 -0.001206 -0.00111895 -0.0010264 -0.000929552 -0.000828403 -0.000722955 -0.000617192 -0.000515103 -0.000416687 -0.000321945 -0.000236398 -0.00016557 -0.000109459 -6.80667e-05 -3.82875e-05 -1.70167e-05 -4.25417e-06 0 0 4.22925e-07 1.6917e-06 3.80633e-06 6.7668e-06 7.36078e-06 2.37592e-06 -8.18779e-06 -2.43303e-05 -4.80507e-05 -8.13479e-05 -0.000124222 -0.000176673 -0.000238662 -0.000310153 -0.000391145 -0.000481638 -0.000581117 -0.000689069 -0.000805494 -0.000930391 -0.00106229 -0.00119972 -0.00134269 -0.00149119 -0.00164226 -0.00179294 -0.00194322 -0.00209312 -0.00223858 -0.00237558 -0.00250411 -0.00262417 -0.00273221 -0.00282466 -0.00290153 -0.00296281 -0.00300738 -0.00303414 -0.00304307 -0.00303419 -0.00300983 -0.00297234 -0.00292173 -0.002858 -0.00278606 -0.00271083 -0.00263231 -0.0025505 -0.0024704 -0.00239701 -0.00233033 -0.00227036 -0.00221966 -0.00218079 -0.00215376 -0.00213855 -0.00213445 -0.00214071 -0.00215732 -0.00218431 -0.00221889 -0.00225832 -0.00230258 -0.00235169 -0.00240314 -0.00245447 -0.00250565 -0.00255671 -0.00260689 -0.00265546 -0.00270243 -0.00274779 -0.00279213 -0.00283604 -0.00287953 -0.00292258 -0.00296549 -0.00300853 -0.00305171 -0.00309502 -0.00313749 -0.00317812 -0.00321691 -0.00325388 -0.0032875 -0.00331626 -0.00334016 -0.00335921 -0.00337275 -0.00338015 -0.0033814 -0.0033765 -0.00336592 -0.00335009 -0.00332903 -0.00330273 -0.00327151 -0.00323571 -0.00319533 -0.00315036 -0.00309987 -0.00304294 -0.00297956 -0.00290973 -0.00283165 -0.00274353 -0.00264535 -0.00253713 -0.00241796 -0.00228692 -0.00214401 -0.00198924 -0.00182471 -0.00165254 -0.00147272 -0.00128525 -0.00109723 -0.000915738 -0.000740777 -0.000572346 -0.000420263 -0.000294346 -0.000194594 -0.000121007 -6.80667e-05 -3.02519e-05 -7.56296e-06 0 0 3.9847e-07 1.59388e-06 3.58623e-06 6.37552e-06 4.97698e-06 -5.59415e-06 -2.53379e-05 -5.42542e-05 -9.52167e-05 -0.000151099 -0.000221901 -0.000307623 -0.000408114 -0.000523224 -0.000652953 -0.000797301 -0.000955427 -0.00112649 -0.00131048 -0.00150742 -0.00171499 -0.00193091 -0.00215519 -0.00238781 -0.00262419 -0.00285975 -0.00309449 -0.00332839 -0.00355524 -0.00376877 -0.003969 -0.00415593 -0.00432406 -0.00446794 -0.00458756 -0.00468291 -0.00475233 -0.00479415 -0.00480837 -0.00479498 -0.00475769 -0.0047002 -0.0046225 -0.00452461 -0.00441414 -0.00429871 -0.00417834 -0.00405302 -0.00393036 -0.00381801 -0.00371595 -0.00362419 -0.00354642 -0.00348635 -0.00344397 -0.00341927 -0.00341076 -0.0034169 -0.0034377 -0.00347315 -0.00351863 -0.00356951 -0.00362579 -0.00368746 -0.00375055 -0.00381106 -0.003869 -0.00392436 -0.00397628 -0.00402387 -0.00406715 -0.00410611 -0.00414237 -0.00417752 -0.00421159 -0.00424455 -0.00427779 -0.00431269 -0.00434923 -0.00438742 -0.00442657 -0.00446598 -0.00450567 -0.00454563 -0.00458397 -0.00461879 -0.00465009 -0.00467787 -0.00470108 -0.00471865 -0.0047306 -0.00473691 -0.00473775 -0.00473329 -0.00472353 -0.00470847 -0.00468777 -0.00466108 -0.0046284 -0.00458973 -0.00454273 -0.00448506 -0.00441672 -0.00433771 -0.00424458 -0.00413389 -0.00400564 -0.00385983 -0.00369482 -0.00350896 -0.00330225 -0.00307469 -0.00282974 -0.00257083 -0.00229797 -0.00201115 -0.00172174 -0.00144109 -0.00116922 -0.000906118 -0.000667592 -0.000469454 -0.000311703 -0.000194339 -0.000109316 -4.85849e-05 -1.21462e-05 0 0 -9.78205e-08 -3.91282e-07 -8.80384e-07 -1.56513e-06 -9.5352e-06 -3.18803e-05 -6.86004e-05 -0.000119696 -0.000188664 -0.000279004 -0.000390716 -0.0005238 -0.000677805 -0.000852283 -0.00104723 -0.00126265 -0.00149724 -0.00174967 -0.00201996 -0.0023081 -0.0026108 -0.00292476 -0.00324999 -0.00358648 -0.00392774 -0.00426726 -0.00460505 -0.0049411 -0.00526661 -0.00557277 -0.00585956 -0.00612701 -0.00636742 -0.00657312 -0.00674412 -0.00688042 -0.00697979 -0.00704004 -0.00706116 -0.00704316 -0.00699144 -0.00691141 -0.00680308 -0.00666644 -0.00651232 -0.00635155 -0.00618413 -0.00601006 -0.00583985 -0.00568398 -0.00554247 -0.00541532 -0.00530705 -0.00522223 -0.00516084 -0.00512288 -0.00510524 -0.00510477 -0.00512148 -0.00515537 -0.00519897 -0.00524479 -0.00529284 -0.00534312 -0.00538963 -0.00542638 -0.00545338 -0.00547062 -0.00547755 -0.00547365 -0.00545889 -0.0054333 -0.00540094 -0.00536593 -0.00532824 -0.00528789 -0.00524923 -0.00521663 -0.00519008 -0.00516958 -0.00515632 -0.00515147 -0.00515503 -0.00516701 -0.00518588 -0.00521011 -0.0052397 -0.00527466 -0.00531332 -0.00535403 -0.00539679 -0.00544161 -0.00548732 -0.00553279 -0.00557801 -0.00562298 -0.00566503 -0.00570146 -0.00573228 -0.00575748 -0.00577143 -0.00576849 -0.00574866 -0.00571193 -0.00565173 -0.00556147 -0.00544116 -0.0052908 -0.00510744 -0.00488816 -0.00463295 -0.00434183 -0.00402012 -0.00367318 -0.003301 -0.00290358 -0.00249803 -0.00210143 -0.00171378 -0.00133509 -0.000989316 -0.000700432 -0.000468436 -0.000293328 -0.000164997 -7.33321e-05 -1.8333e-05 0 0 -1.06595e-06 -4.26379e-06 -9.59352e-06 -1.70551e-05 -3.61758e-05 -7.64825e-05 -0.000137975 -0.000220654 -0.000328393 -0.000465064 -0.000630667 -0.000825204 -0.00104774 -0.00129733 -0.00157398 -0.0018777 -0.00220655 -0.00255862 -0.00293392 -0.00333244 -0.00374971 -0.00418126 -0.00462709 -0.0050872 -0.00555289 -0.00601546 -0.00647491 -0.00693124 -0.00737271 -0.00778756 -0.00817579 -0.00853742 -0.00886227 -0.00914021 -0.00937123 -0.00955532 -0.00968977 -0.00977182 -0.00980147 -0.00977873 -0.00971108 -0.00960598 -0.00946346 -0.00928349 -0.00908061 -0.00886934 -0.00864969 -0.00842165 -0.00819885 -0.00799493 -0.00780989 -0.00764374 -0.00750155 -0.00738843 -0.00730438 -0.00724938 -0.00721789 -0.00720432 -0.00720868 -0.00723098 -0.0072599 -0.00728415 -0.00730373 -0.00731864 -0.00732038 -0.00730043 -0.00725879 -0.00719547 -0.00711072 -0.00700478 -0.00687765 -0.00672934 -0.00656786 -0.00640125 -0.00622949 -0.00605259 -0.0058798 -0.00572036 -0.00557426 -0.00544152 -0.00532675 -0.00523457 -0.005165 -0.00511801 -0.00509322 -0.00509022 -0.005109 -0.00514956 -0.00520947 -0.00528628 -0.00537999 -0.00549061 -0.00561463 -0.00574859 -0.00589246 -0.00604626 -0.00620329 -0.00635686 -0.00650697 -0.00665362 -0.00678598 -0.00689323 -0.00697537 -0.00703239 -0.00705309 -0.00702627 -0.00695191 -0.00683002 -0.00665582 -0.00642452 -0.00613613 -0.00579064 -0.00539585 -0.00495958 -0.00448181 -0.00396256 -0.0034261 -0.00289673 -0.00237445 -0.00185925 -0.00138543 -0.000987281 -0.000664794 -0.000417974 -0.00023511 -0.000104493 -2.61234e-05 0 0 -2.50591e-06 -1.00236e-05 -2.25532e-05 -4.00945e-05 -7.49447e-05 -0.000139401 -0.000233463 -0.00035713 -0.000514402 -0.000709277 -0.000941755 -0.00121184 -0.00151791 -0.00185837 -0.0022332 -0.00264243 -0.00308336 -0.00355334 -0.00405237 -0.00458044 -0.00513173 -0.00570041 -0.00628649 -0.00688997 -0.00749965 -0.00810435 -0.00870407 -0.00929882 -0.00987353 -0.0104132 -0.0109177 -0.0113872 -0.0118086 -0.0121692 -0.0124689 -0.0127076 -0.0128823 -0.0129895 -0.0130293 -0.0130017 -0.0129166 -0.0127839 -0.0126036 -0.0123758 -0.012119 -0.0118521 -0.011575 -0.0112878 -0.0110074 -0.0107509 -0.0105182 -0.0103095 -0.0101299 -0.00998496 -0.00987458 -0.00979877 -0.00974871 -0.00971555 -0.0096993 -0.00969996 -0.00970142 -0.00968759 -0.00965846 -0.00961404 -0.0095428 -0.0094332 -0.00928524 -0.00909894 -0.00887578 -0.00861728 -0.00832343 -0.00799424 -0.00764313 -0.00728349 -0.00691533 -0.00653866 -0.0061695 -0.00582387 -0.00550178 -0.00520323 -0.00493785 -0.00471529 -0.00453556 -0.00439864 -0.00430601 -0.00425913 -0.00425798 -0.00430259 -0.00438953 -0.00451539 -0.00468019 -0.00488391 -0.00511969 -0.00538069 -0.00566689 -0.0059783 -0.00630255 -0.00662727 -0.00695247 -0.00727814 -0.00758638 -0.00785928 -0.00809685 -0.00829909 -0.00844867 -0.00852827 -0.00853788 -0.00847751 -0.00833997 -0.00811805 -0.00781177 -0.00742112 -0.00695693 -0.00643003 -0.00584041 -0.00518807 -0.00450596 -0.00382701 -0.00315123 -0.00247862 -0.00185595 -0.00133 -0.000900776 -0.000568276 -0.000319655 -0.000142069 -3.55173e-05 0 0 -4.63377e-06 -1.85351e-05 -4.17039e-05 -7.41403e-05 -0.000130986 -0.000227381 -0.000363328 -0.000538824 -0.000757243 -0.00102196 -0.00133296 -0.00169026 -0.00209115 -0.00253294 -0.00301561 -0.00353918 -0.00410006 -0.00469468 -0.00532305 -0.00598515 -0.00667386 -0.00738204 -0.00810969 -0.0088568 -0.00960987 -0.0103554 -0.0110934 -0.0118238 -0.0125286 -0.0131895 -0.0138067 -0.0143801 -0.0148943 -0.0153339 -0.0156989 -0.0159893 -0.0162017 -0.0163325 -0.0163818 -0.0163497 -0.0162485 -0.0160909 -0.015877 -0.0156066 -0.0153027 -0.014988 -0.0146626 -0.0143265 -0.0139995 -0.0137015 -0.0134324 -0.0131922 -0.0129854 -0.0128164 -0.0126852 -0.0125919 -0.0125227 -0.0124641 -0.012416 -0.0123785 -0.0123292 -0.0122458 -0.0121283 -0.0119767 -0.0117759 -0.0115108 -0.0111814 -0.0107877 -0.0103334 -0.00982251 -0.00925487 -0.00863051 -0.00797096 -0.00729772 -0.0066108 -0.00591019 -0.00522227 -0.0045734 -0.00396358 -0.00339281 -0.00287883 -0.00243935 -0.00207438 -0.00178391 -0.00157287 -0.00144617 -0.00140381 -0.00144579 -0.00156753 -0.00176445 -0.00203656 -0.00238384 -0.00279423 -0.00325566 -0.00376812 -0.0043316 -0.00492504 -0.00552735 -0.00613853 -0.00675857 -0.00735916 -0.00791196 -0.00841699 -0.00887424 -0.00925774 -0.00954152 -0.0097256 -0.00980996 -0.00978406 -0.00963734 -0.00936981 -0.00898146 -0.00848676 -0.00790018 -0.00722172 -0.00645138 -0.0056324 -0.00480801 -0.00397822 -0.00314303 -0.00236402 -0.00170278 -0.00115932 -0.000733621 -0.000412662 -0.000183405 -4.58513e-05 0 0 -7.66559e-06 -3.06624e-05 -6.89903e-05 -0.000122649 -0.000209442 -0.000347171 -0.000535836 -0.000775437 -0.00106746 -0.00141341 -0.00181327 -0.00226705 -0.0027703 -0.00331859 -0.00391192 -0.00455028 -0.00522903 -0.0059435 -0.00669371 -0.00747964 -0.00829312 -0.00912596 -0.00997815 -0.0108497 -0.0117254 -0.0125901 -0.0134437 -0.0142863 -0.0150974 -0.0158567 -0.0165643 -0.0172201 -0.017807 -0.018308 -0.0187231 -0.0190522 -0.0192924 -0.0194405 -0.0194964 -0.0194602 -0.0193473 -0.0191728 -0.0189368 -0.0186394 -0.0183067 -0.0179653 -0.0176151 -0.0172561 -0.0169095 -0.0165966 -0.0163172 -0.0160716 -0.015861 -0.0156872 -0.01555 -0.0154495 -0.0153649 -0.0152756 -0.0151816 -0.0150828 -0.0149489 -0.0147495 -0.0144845 -0.0141539 -0.0137386 -0.0132192 -0.0125958 -0.0118683 -0.0110444 -0.0101319 -0.0091306 -0.00804065 -0.00689558 -0.005729 -0.0045409 -0.00333127 -0.00214205 -0.00101517 4.93866e-05 0.00105161 0.00196112 0.00274755 0.0034109 0.00395117 0.00435756 0.00461929 0.00473636 0.00470877 0.00454249 0.00424347 0.00381173 0.00324725 0.00257 0.00179993 0.000937037 -1.86742e-05 -0.001033 -0.00207174 -0.00313488 -0.00422244 -0.00529086 -0.0062966 -0.00723965 -0.00812003 -0.00889956 -0.00954007 -0.0100416 -0.0104041 -0.0106123 -0.010651 -0.0105202 -0.0102198 -0.00976874 -0.0091857 -0.00847071 -0.00762376 -0.00670023 -0.00575548 -0.00478952 -0.00380235 -0.00287283 -0.00207983 -0.00142335 -0.000903394 -0.000508159 -0.000225849 -5.64621e-05 0 0 -1.16014e-05 -4.64055e-05 -0.000104412 -0.000185622 -0.000310314 -0.000498769 -0.000750987 -0.00106697 -0.00144507 -0.00188364 -0.00238268 -0.00294219 -0.00355536 -0.00421533 -0.00492213 -0.00567574 -0.00647026 -0.0072998 -0.00816434 -0.00906391 -0.0099895 -0.0109322 -0.0118919 -0.0128687 -0.0138463 -0.0148084 -0.015755 -0.0166861 -0.01758 -0.0184148 -0.0191905 -0.0199071 -0.0205468 -0.0210915 -0.0215414 -0.0218965 -0.0221545 -0.0223133 -0.022373 -0.0223334 -0.0222129 -0.0220295 -0.0217832 -0.021474 -0.0211312 -0.020784 -0.0204324 -0.0200765 -0.0197373 -0.0194361 -0.0191729 -0.0189477 -0.018757 -0.0185975 -0.018469 -0.0183716 -0.0182754 -0.0181501 -0.017996 -0.0178129 -0.0175606 -0.0171986 -0.016727 -0.0161458 -0.015431 -0.0145586 -0.0135285 -0.0123408 -0.0110087 -0.00954532 -0.00795063 -0.00622465 -0.00441701 -0.00257734 -0.000705638 0.00119809 0.00307115 0.00485082 0.00653712 0.00813004 0.009582 0.0108454 0.0119203 0.0128066 0.0134853 0.0139373 0.0141625 0.0141611 0.0139405 0.0135084 0.0128647 0.0120094 0.010973 0.00978607 0.00844857 0.00696049 0.00537358 0.00373957 0.00205846 0.000330254 -0.00138148 -0.00301318 -0.00456485 -0.00603647 -0.00737414 -0.00852391 -0.0094858 -0.0102598 -0.0108246 -0.011159 -0.0112628 -0.0111362 -0.0108029 -0.0102866 -0.00958736 -0.0087052 -0.00770944 -0.00666941 -0.00558512 -0.00445656 -0.00338236 -0.00246113 -0.00169288 -0.0010776 -0.000606147 -0.000269399 -6.73497e-05 0 0 -1.64411e-05 -6.57645e-05 -0.00014797 -0.000263058 -0.000433602 -0.000682176 -0.00100878 -0.00141342 -0.00189005 -0.00243264 -0.00304119 -0.0037157 -0.00444631 -0.00522316 -0.00604623 -0.00691554 -0.00782376 -0.00876357 -0.00973496 -0.0107379 -0.011763 -0.0128007 -0.0138509 -0.0149137 -0.0159724 -0.0170103 -0.0180273 -0.0190234 -0.0199763 -0.0208636 -0.0216852 -0.0224412 -0.0231136 -0.0236845 -0.024154 -0.024522 -0.0247879 -0.024951 -0.0250115 -0.0249693 -0.0248454 -0.024661 -0.0244161 -0.0241106 -0.0237762 -0.0234442 -0.0231146 -0.0227876 -0.0224828 -0.02222 -0.0219992 -0.0218205 -0.0216732 -0.0215471 -0.0214422 -0.0213583 -0.021254 -0.0210876 -0.0208592 -0.0205688 -0.0201641 -0.0195932 -0.0188559 -0.0179523 -0.016853 -0.0155288 -0.0139795 -0.0122053 -0.0102263 -0.0080629 -0.00571495 -0.00318252 -0.000535231 0.00215727 0.00489498 0.0076779 0.0104173 0.0130246 0.0154996 0.0178425 0.0199838 0.0218542 0.0234537 0.0247824 0.0258103 0.0265078 0.0268747 0.0269112 0.0266266 0.0260303 0.0251222 0.0239025 0.0224148 0.0207028 0.0187665 0.0166059 0.0142947 0.0119066 0.0094415 0.00689951 0.00436897 0.00193827 -0.000392572 -0.00262357 -0.00468147 -0.00649305 -0.00805829 -0.0093772 -0.0104211 -0.0111613 -0.0115978 -0.0117306 -0.0115891 -0.0112028 -0.0105717 -0.0096957 -0.00866003 -0.00754981 -0.00636502 -0.00510568 -0.00389263 -0.0028467 -0.0019679 -0.00125622 -0.000706626 -0.000314056 -7.8514e-05 0 0 -2.21259e-05 -8.85037e-05 -0.000199133 -0.000354015 -0.000577576 -0.000894246 -0.00130402 -0.00180691 -0.00239086 -0.00304382 -0.00376581 -0.00455681 -0.00540297 -0.00629045 -0.00721923 -0.00818932 -0.00919173 -0.0102174 -0.0112665 -0.0123388 -0.013425 -0.0145154 -0.0156102 -0.0167093 -0.0177968 -0.0188568 -0.0198892 -0.0208942 -0.0218504 -0.0227366 -0.0235526 -0.0242986 -0.0249582 -0.0255151 -0.0259694 -0.0263209 -0.0265718 -0.0267239 -0.0267774 -0.0267321 -0.0266123 -0.0264419 -0.0262209 -0.0259493 -0.0256597 -0.0253845 -0.0251238 -0.0248775 -0.0246615 -0.0244918 -0.0243682 -0.0242908 -0.0242391 -0.0241923 -0.0241507 -0.024114 -0.0240261 -0.0238307 -0.0235277 -0.0231172 -0.0225328 -0.0217081 -0.0206432 -0.0193381 -0.0177574 -0.0158658 -0.0136634 -0.0111501 -0.0083555 -0.00530924 -0.0020113 0.00153833 0.00524465 0.00901266 0.0128424 0.0167338 0.0205655 0.0242162 0.0276858 0.0309744 0.0339853 0.0366221 0.0388848 0.0407733 0.0422446 0.0432554 0.0438057 0.0438956 0.0435365 0.0427399 0.0415056 0.0398337 0.037784 0.0354162 0.0327302 0.0297261 0.0265046 0.0231664 0.0197114 0.0161396 0.0125704 0.00912277 0.00579686 0.00259264 -0.000392639 -0.00306171 -0.00541457 -0.00745122 -0.00913374 -0.0104242 -0.0113226 -0.011829 -0.0119792 -0.0118091 -0.0113189 -0.0105084 -0.00948086 -0.00833949 -0.00708429 -0.00571525 -0.00437806 -0.0032184 -0.00223627 -0.00143167 -0.000805316 -0.000357918 -8.94795e-05 0 0 -2.85969e-05 -0.000114387 -0.000257372 -0.00045755 -0.000740508 -0.00113183 -0.00163152 -0.00223957 -0.00293595 -0.0037006 -0.00453354 -0.00543475 -0.00638513 -0.00736559 -0.00837612 -0.00941672 -0.0104764 -0.0115441 -0.0126198 -0.0137036 -0.0147867 -0.0158604 -0.0169247 -0.0179797 -0.0190121 -0.0200087 -0.0209696 -0.0218947 -0.0227664 -0.0235672 -0.024297 -0.0249557 -0.0255313 -0.0260114 -0.0263961 -0.0266853 -0.0268853 -0.0270022 -0.0270359 -0.0269866 -0.0268811 -0.0267465 -0.0265829 -0.0263902 -0.0262 -0.0260439 -0.0259219 -0.0258341 -0.0257888 -0.0257947 -0.0258516 -0.0259596 -0.0260838 -0.0261891 -0.0262756 -0.0263432 -0.026317 -0.0261219 -0.0257579 -0.025225 -0.0244396 -0.0233183 -0.0218611 -0.0200679 -0.0178968 -0.0153057 -0.0122946 -0.00886354 -0.00505439 -0.000909006 0.00357262 0.00839048 0.0134175 0.0185267 0.023718 0.0289914 0.0341847 0.0391358 0.0438446 0.0483111 0.0524053 0.0559973 0.0590869 0.0616743 0.0637 0.0651047 0.0658884 0.066051 0.0656063 0.0645679 0.0629358 0.0607101 0.0579694 0.0547924 0.0511793 0.0471299 0.0427777 0.0382561 0.0335652 0.028705 0.0238326 0.0191053 0.0145231 0.0100861 0.0059213 0.00215588 -0.00121016 -0.00417683 -0.00669459 -0.00871391 -0.0102348 -0.0112573 -0.0118247 -0.0119803 -0.0117242 -0.0110564 -0.0101008 -0.00898129 -0.00769798 -0.00625082 -0.00481311 -0.00355812 -0.00248586 -0.00159633 -0.000897936 -0.000399083 -9.97707e-05 0 0 -3.5854e-05 -0.000143416 -0.000322686 -0.000573664 -0.000922397 -0.00139493 -0.00199127 -0.00271141 -0.00352532 -0.00440298 -0.00534438 -0.00634952 -0.00739279 -0.00844858 -0.00951689 -0.0105977 -0.0116777 -0.0127434 -0.0137949 -0.0148322 -0.0158481 -0.0168355 -0.0177945 -0.0187249 -0.0196183 -0.0204661 -0.0212683 -0.0220248 -0.0227243 -0.0233554 -0.0239182 -0.0244125 -0.0248328 -0.0251733 -0.0254342 -0.0256153 -0.0257286 -0.0257859 -0.0257872 -0.0257325 -0.0256519 -0.0255751 -0.0255022 -0.0254333 -0.0253971 -0.0254223 -0.0255091 -0.0256573 -0.0258647 -0.0261287 -0.0264495 -0.0268269 -0.0272074 -0.0275374 -0.027817 -0.028046 -0.0281267 -0.0279613 -0.0275498 -0.0268921 -0.0258847 -0.0244238 -0.0225095 -0.0201418 -0.0172712 -0.0138483 -0.00987317 -0.00534571 -0.000323029 0.0051378 0.0110368 0.0173739 0.0239834 0.0306993 0.0375218 0.0444507 0.051275 0.0577834 0.063976 0.0698527 0.0752438 0.0799796 0.0840601 0.0874853 0.0901766 0.0920558 0.0931226 0.0933773 0.0928358 0.0915144 0.0894129 0.0865315 0.0829708 0.0788315 0.0741136 0.068817 0.0631138 0.0571758 0.051003 0.0445955 0.0381556 0.0318858 0.0257863 0.0198568 0.0142603 0.00915971 0.00455493 0.000445983 -0.00310363 -0.00603042 -0.00833438 -0.0100155 -0.0111256 -0.0117163 -0.0117876 -0.0113397 -0.0105197 -0.0094752 -0.00820609 -0.00671239 -0.00519776 -0.00386585 -0.00271666 -0.0017502 -0.000984488 -0.00043755 -0.000109388 0 0 -4.38972e-05 -0.000175589 -0.000395075 -0.000702356 -0.00112324 -0.00168355 -0.00238327 -0.00322242 -0.00415897 -0.00515094 -0.00619833 -0.00730112 -0.00842594 -0.00953942 -0.0106415 -0.0117323 -0.0127957 -0.0138155 -0.0147919 -0.0157247 -0.0166093 -0.0174409 -0.0182195 -0.0189451 -0.0196156 -0.020229 -0.0207853 -0.0212845 -0.021724 -0.0221013 -0.0224162 -0.0226689 -0.0228627 -0.023001 -0.0230836 -0.0231108 -0.0231015 -0.023075 -0.0230311 -0.02297 -0.0229245 -0.0229275 -0.0229788 -0.0230786 -0.0232509 -0.0235198 -0.0238853 -0.0243473 -0.0248891 -0.025494 -0.0261618 -0.0268926 -0.0276099 -0.0282373 -0.0287748 -0.0292223 -0.0294552 -0.0293489 -0.0289034 -0.0281186 -0.026868 -0.0250246 -0.0225885 -0.0195597 -0.0158807 -0.0114938 -0.0063991 -0.00059657 0.00583859 0.0128312 0.0203812 0.0284887 0.0369422 0.0455306 0.0542538 0.0631118 0.0718363 0.080159 0.0880799 0.0955992 0.102501 0.108569 0.113804 0.118206 0.121674 0.124109 0.125509 0.125874 0.125225 0.123579 0.120937 0.117298 0.112788 0.107533 0.101533 0.0947877 0.0875131 0.0799254 0.0720248 0.0638112 0.0555394 0.0474644 0.0395862 0.0319048 0.0246245 0.0179498 0.0118807 0.0064172 0.00163912 -0.00237372 -0.00562133 -0.00810369 -0.00988191 -0.0110171 -0.0115092 -0.0113583 -0.0107378 -0.00982123 -0.00860862 -0.00709995 -0.00553201 -0.00414159 -0.00292868 -0.00189328 -0.00106497 -0.00047332 -0.00011833 0 0 -5.24766e-05 -0.000209906 -0.000472289 -0.000839626 -0.00133648 -0.00198741 -0.00279243 -0.00375152 -0.00480845 -0.00590696 -0.00704706 -0.00822874 -0.00940922 -0.0105457 -0.0116382 -0.0126866 -0.0136718 -0.0145744 -0.0153943 -0.0161317 -0.0167851 -0.0173534 -0.0178366 -0.0182345 -0.0185546 -0.018804 -0.0189827 -0.0190909 -0.0191383 -0.0191352 -0.0190813 -0.0189769 -0.0188378 -0.0186799 -0.0185033 -0.018308 -0.0181225 -0.0179755 -0.0178669 -0.0177968 -0.0178008 -0.0179148 -0.0181386 -0.0184724 -0.0189327 -0.0195364 -0.0202834 -0.0211739 -0.0221717 -0.0232411 -0.024382 -0.0255944 -0.0267734 -0.0278143 -0.0287169 -0.0294812 -0.029951 -0.0299699 -0.0295378 -0.0286549 -0.027168 -0.0249241 -0.0219233 -0.0181654 -0.0135845 -0.00811452 -0.00175537 0.00549291 0.0135331 0.022268 0.0316976 0.0418218 0.0523762 0.063096 0.0739813 0.085032 0.0959145 0.106295 0.116174 0.125551 0.13416 0.141733 0.148271 0.153774 0.158118 0.161179 0.162958 0.163453 0.162688 0.160683 0.157438 0.152955 0.147383 0.140876 0.133434 0.125056 0.116007 0.106551 0.096689 0.0864205 0.0760598 0.0659212 0.0560048 0.0463104 0.0370909 0.0285989 0.0208344 0.0137973 0.00758704 0.00230275 -0.00205551 -0.00548775 -0.00806522 -0.00985917 -0.0108696 -0.0110965 -0.0107423 -0.0100095 -0.008898 -0.00740785 -0.00581178 -0.00438252 -0.00312008 -0.00202445 -0.00113875 -0.000506112 -0.000126528 0 0 -6.13421e-05 -0.000245368 -0.000552078 -0.000981473 -0.00155554 -0.00229626 -0.00320363 -0.00427766 -0.00544529 -0.00663349 -0.00784226 -0.00907158 -0.0102672 -0.011375 -0.0123948 -0.0133268 -0.0141476 -0.014834 -0.015386 -0.0158036 -0.0160905 -0.0162501 -0.0162825 -0.0161878 -0.015986 -0.0156976 -0.0153225 -0.0148608 -0.0143399 -0.0137875 -0.0132036 -0.0125882 -0.0119745 -0.0113957 -0.0108519 -0.010343 -0.00990991 -0.00959345 -0.00939364 -0.00931047 -0.00938248 -0.00964818 -0.0101076 -0.0107606 -0.0116135 -0.0126721 -0.0139366 -0.0154069 -0.0170219 -0.0187208 -0.0205035 -0.0223699 -0.0241801 -0.0257938 -0.0272111 -0.028432 -0.0292627 -0.0295094 -0.0291723 -0.0282512 -0.0265633 -0.023926 -0.0203391 -0.0158027 -0.0102422 -0.00358294 0.00417505 0.0130318 0.0228631 0.0335451 0.0450775 0.0574606 0.0703673 0.0834709 0.0967715 0.110269 0.123556 0.136225 0.148276 0.15971 0.170205 0.179439 0.187413 0.194126 0.199432 0.203184 0.205381 0.206024 0.205137 0.202745 0.198848 0.193445 0.186716 0.178838 0.169811 0.159635 0.148626 0.137099 0.125054 0.112492 0.0997923 0.0873363 0.0751236 0.0631544 0.051737 0.0411799 0.0314832 0.0226469 0.0147935 0.00804559 0.00240321 -0.00213365 -0.00564704 -0.00821903 -0.0098496 -0.0105388 -0.0105208 -0.0100301 -0.00906666 -0.00763042 -0.00603296 -0.00458583 -0.00328904 -0.00214258 -0.0012052 -0.000535646 -0.000133911 0 0 -7.04936e-05 -0.000281974 -0.000634442 -0.0011279 -0.00178042 -0.00261008 -0.00361688 -0.00480082 -0.00606951 -0.00733054 -0.00858391 -0.00982963 -0.011 -0.0120273 -0.0129115 -0.0136527 -0.014223 -0.0145943 -0.0147669 -0.0147406 -0.0145253 -0.0141309 -0.0135574 -0.0128048 -0.01191 -0.01091 -0.00980475 -0.00859426 -0.00732871 -0.00605829 -0.00478299 -0.00350282 -0.00227294 -0.00114849 -0.000129499 0.000784053 0.00153623 0.00207109 0.00238865 0.0024889 0.00233057 0.00187239 0.00111436 5.64902e-05 -0.00129328 -0.00292701 -0.00484469 -0.00704633 -0.00943985 -0.0119332 -0.0145263 -0.0172192 -0.0198298 -0.0221759 -0.0242575 -0.0260746 -0.0273903 -0.0279676 -0.0278067 -0.0269075 -0.0250539 -0.0220301 -0.017836 -0.0124715 -0.00585361 0.00210095 0.0113922 0.02202 0.0338287 0.0466624 0.0605211 0.0754048 0.0909156 0.106655 0.122624 0.138822 0.15476 0.169948 0.184387 0.198076 0.210635 0.221686 0.231229 0.239262 0.245617 0.250123 0.25278 0.253587 0.252573 0.249766 0.245165 0.238771 0.230787 0.221418 0.210664 0.198525 0.18537 0.171568 0.15712 0.142025 0.126737 0.11171 0.0969428 0.0824365 0.0685625 0.0556928 0.0438272 0.0329658 0.0232584 0.0148548 0.00775483 0.00195862 -0.00262738 -0.00609665 -0.00844919 -0.00968502 -0.0100733 -0.00988314 -0.0091146 -0.00776766 -0.00619555 -0.00475152 -0.00343556 -0.00224768 -0.00126432 -0.000561921 -0.00014048 0 0 -7.99312e-05 -0.000319725 -0.00071938 -0.0012789 -0.00201112 -0.00292888 -0.00403217 -0.00532101 -0.00668109 -0.00799809 -0.00927202 -0.0105029 -0.0116075 -0.0125026 -0.0131883 -0.0136645 -0.013898 -0.0138555 -0.013537 -0.0129425 -0.0120896 -0.0109958 -0.00966112 -0.00808559 -0.00632648 -0.00444106 -0.00242935 -0.000291333 0.0018952 0.00405247 0.00618047 0.0082792 0.0102669 0.0120618 0.0136639 0.0150732 0.0162159 0.0170182 0.01748 0.0176013 0.0173383 0.0166469 0.0155272 0.0139791 0.0120279 0.00969896 0.00699224 0.00390773 0.000574566 -0.00287815 -0.00645041 -0.0101422 -0.0137226 -0.0169605 -0.019856 -0.022409 -0.0243337 -0.0253445 -0.0254412 -0.0246239 -0.0226399 -0.0192365 -0.0144139 -0.00817189 -0.000418801 0.00893715 0.019896 0.0324576 0.0464298 0.06162 0.0780283 0.0956546 0.114021 0.13265 0.15154 0.170693 0.189527 0.207465 0.224505 0.240648 0.255452 0.268475 0.279719 0.289183 0.296673 0.301996 0.305153 0.306142 0.304996 0.301746 0.296391 0.288931 0.279596 0.268618 0.255994 0.241727 0.22624 0.20996 0.192887 0.17502 0.156894 0.139041 0.121462 0.104157 0.0875676 0.0721375 0.0578663 0.0447542 0.0329819 0.0227303 0.0139994 0.00678904 0.000993778 -0.00349203 -0.00666839 -0.00853529 -0.00939968 -0.00956853 -0.00904182 -0.00781957 -0.00629955 -0.00487958 -0.00355964 -0.00233975 -0.00131611 -0.000584937 -0.000146234 0 0 -8.9359e-05 -0.000357436 -0.000804231 -0.00142974 -0.00223997 -0.0032409 -0.00443254 -0.00581488 -0.00724896 -0.0085958 -0.00985541 -0.0110278 -0.0120118 -0.0127065 -0.0131116 -0.0132274 -0.0130142 -0.0124325 -0.0114824 -0.0101638 -0.00850388 -0.00652969