<?xml version="1.0"?> 
<VTKFile type="StructuredGrid" version="0.1"> 
<StructuredGrid WholeExtent="0 128 0 128 0 0"> 
<Piece Extent="0 128 0 128 0 0"> 
<PointData>
<DataArray type="Float32" Name="u" format="ascii" NumberOfComponents="1"> 
0 0 0 0 0 0 0 0 0 0 0 0 0 0 0 0 0 0 0 0 0 0 0 0 0 0 0 0 0 0 0 0 0 0 0 0 0 0 0 0 0 0 0 0 0 0 0 0 0 0 0 0 0 0 0 0 0 0 0 0 0 0 0 0 0 0 0 0 0 0 0 0 0 0 0 0 0 0 0 0 0 0 0 0 0 0 0 0 0 0 0 0 0 0 0 0 0 0 0 0 0 0 0 0 0 0 0 0 0 0 0 0 0 0 0 0 0 0 0 0 0 0 0 0 0 0 0 0 0 0 1.32063e-07 5.28253e-07 1.18857e-06 2.11301e-06 3.12609e-06 4.0523e-06 4.89166e-06 5.64416e-06 6.05162e-06 5.85586e-06 5.05688e-06 3.65469e-06 1.60208e-06 -1.14816e-06 -4.59601e-06 -8.74148e-06 -1.35505e-05 -1.89889e-05 -2.50566e-05 -3.17538e-05 -3.89876e-05 -4.66652e-05 -5.47866e-05 -6.33517e-05 -7.21836e-05 -8.11049e-05 -9.01159e-05 -9.92164e-05 -0.000108142 -0.000116628 -0.000124674 -0.000132281 -0.000139173 -0.000145077 -0.000149991 -0.000153916 -0.000156721 -0.000158274 -0.000158576 -0.000157627 -0.000155567 -0.000152539 -0.000148542 -0.000143577 -0.000138033 -0.000132302 -0.000126383 -0.000120276 -0.000114419 -0.000109251 -0.000104771 -0.00010098 -9.81196e-05 -9.6434e-05 -9.59229e-05 -9.65864e-05 -9.83814e-05 -0.000101265 -0.000105238 -0.000110299 -0.000116251 -0.000122895 -0.000130231 -0.000138259 -0.00014684 -0.000155834 -0.00016524 -0.000175059 -0.000185283 -0.000195903 -0.000206918 -0.00021833 -0.000230107 -0.00024222 -0.000254669 -0.000267454 -0.000280323 -0.000293022 -0.000305551 -0.000317912 -0.000329646 -0.0003403 -0.000349871 -0.00035836 -0.000365397 -0.000370608 -0.000373994 -0.000375555 -0.000375292 -0.000373203 -0.000369289 -0.00036355 -0.000356343 -0.000348026 -0.000338597 -0.000328057 -0.000316818 -0.000305291 -0.000293475 -0.00028137 -0.000269158 -0.000257022 -0.000244959 -0.000232972 -0.000220996 -0.000208971 -0.000196896 -0.000184771 -0.000172501 -0.00015999 -0.000147237 -0.000134244 -0.000121105 -0.000107915 -9.46749e-05 -8.13835e-05 -6.84437e-05 -5.62578e-05 -4.48257e-05 -3.41476e-05 -2.47107e-05 -1.70026e-05 -1.10232e-05 -6.77256e-06 -3.80957e-06 -1.69314e-06 -4.23285e-07 0 0 5.28253e-07 2.11301e-06 4.75427e-06 8.45204e-06 1.25043e-05 1.62092e-05 1.95666e-05 2.25766e-05 2.42065e-05 2.34234e-05 2.02275e-05 1.46188e-05 6.40831e-06 -4.59263e-06 -1.8384e-05 -3.49659e-05 -5.42019e-05 -7.59554e-05 -0.000100227 -0.000127015 -0.00015595 -0.000186661 -0.000219146 -0.000253407 -0.000288734 -0.00032442 -0.000360464 -0.000396866 -0.000432567 -0.000466511 -0.000498696 -0.000529123 -0.000556693 -0.000580306 -0.000599964 -0.000615664 -0.000626884 -0.000633098 -0.000634305 -0.000630507 -0.000622269 -0.000610156 -0.000594169 -0.000574308 -0.000552134 -0.000529208 -0.000505532 -0.000481104 -0.000457677 -0.000437004 -0.000419085 -0.000403919 -0.000392478 -0.000385736 -0.000383692 -0.000386345 -0.000393526 -0.000405061 -0.000420952 -0.000441197 -0.000465005 -0.00049158 -0.000520925 -0.000553037 -0.00058736 -0.000623334 -0.00066096 -0.000700238 -0.000741133 -0.000783611 -0.000827673 -0.000873318 -0.000920427 -0.00096888 -0.00101868 -0.00106982 -0.00112129 -0.00117209 -0.00122221 -0.00127165 -0.00131859 -0.0013612 -0.00139948 -0.00143344 -0.00146159 -0.00148243 -0.00149598 -0.00150222 -0.00150117 -0.00149281 -0.00147716 -0.0014542 -0.00142537 -0.0013921 -0.00135439 -0.00131223 -0.00126727 -0.00122116 -0.0011739 -0.00112548 -0.00107663 -0.00102809 -0.000979837 -0.000931887 -0.000883985 -0.000835885 -0.000787585 -0.000739085 -0.000690004 -0.000639959 -0.00058895 -0.000536977 -0.000484421 -0.000431662 -0.0003787 -0.000325534 -0.000273775 -0.000225031 -0.000179303 -0.00013659 -9.88429e-05 -6.80104e-05 -4.40928e-05 -2.70902e-05 -1.52383e-05 -6.77256e-06 -1.69314e-06 0 0 1.18857e-06 4.75427e-06 1.06971e-05 1.90171e-05 2.81348e-05 3.64707e-05 4.40249e-05 5.07974e-05 5.44646e-05 5.27027e-05 4.5512e-05 3.28922e-05 1.44187e-05 -1.03334e-05 -4.13641e-05 -7.86734e-05 -0.000121954 -0.0001709 -0.00022551 -0.000285784 -0.000350889 -0.000419987 -0.000493079 -0.000570166 -0.000649652 -0.000729945 -0.000811043 -0.000892947 -0.000973277 -0.00104965 -0.00112207 -0.00119053 -0.00125256 -0.00130569 -0.00134992 -0.00138524 -0.00141049 -0.00142447 -0.00142719 -0.00141864 -0.0014001 -0.00137285 -0.00133688 -0.00129219 -0.0012423 -0.00119072 -0.00113745 -0.00108248 -0.00102977 -0.000983259 -0.00094294 -0.000908817 -0.000883076 -0.000867906 -0.000863306 -0.000869277 -0.000885433 -0.000911387 -0.000947141 -0.000992694 -0.00104626 -0.00110606 -0.00117208 -0.00124433 -0.00132156 -0.0014025 -0.00148716 -0.00157554 -0.00166755 -0.00176313 -0.00186226 -0.00196497 -0.00207096 -0.00217998 -0.00229202 -0.00240709 -0.0025229 -0.0026372 -0.00274996 -0.00286121 -0.00296682 -0.0030627 -0.00314884 -0.00322524 -0.00328857 -0.00333547 -0.00336595 -0.00338 -0.00337762 -0.00335882 -0.0033236 -0.00327195 -0.00320709 -0.00313223 -0.00304737 -0.00295252 -0.00285136 -0.00274762 -0.00264127 -0.00253233 -0.00242243 -0.00231319 -0.00220463 -0.00209674 -0.00198897 -0.00188074 -0.00177207 -0.00166294 -0.00155251 -0.00143991 -0.00132514 -0.0012082 -0.00108995 -0.000971239 -0.000852074 -0.000732452 -0.000615994 -0.00050632 -0.000403432 -0.000307328 -0.000222396 -0.000153023 -9.92089e-05 -6.09531e-05 -3.42861e-05 -1.52383e-05 -3.80957e-06 0 0 2.11301e-06 8.45204e-06 1.90171e-05 3.38082e-05 5.00174e-05 6.48369e-05 7.82666e-05 9.03065e-05 9.68259e-05 9.36938e-05 8.09101e-05 5.8475e-05 2.56332e-05 -1.83705e-05 -7.35362e-05 -0.000139864 -0.000216807 -0.000303822 -0.000400906 -0.000508061 -0.000623802 -0.000746643 -0.000876585 -0.00101363 -0.00115494 -0.00129768 -0.00144185 -0.00158746 -0.00173027 -0.00186604 -0.00199479 -0.00211649 -0.00222677 -0.00232123 -0.00239985 -0.00246266 -0.00250754 -0.00253239 -0.00253722 -0.00252203 -0.00248907 -0.00244062 -0.00237668 -0.00229723 -0.00220853 -0.00211683 -0.00202213 -0.00192442 -0.00183071 -0.00174802 -0.00167634 -0.00161567 -0.00156991 -0.00154294 -0.00153477 -0.00154538 -0.0015741 -0.00162024 -0.00168381 -0.00176479 -0.00186002 -0.00196632 -0.0020837 -0.00221215 -0.00234944 -0.00249334 -0.00264384 -0.00280095 -0.00296453 -0.00313445 -0.00331069 -0.00349327 -0.00368171 -0.00387552 -0.00407471 -0.00427927 -0.00448516 -0.00468835 -0.00488882 -0.00508659 -0.00527434 -0.00544479 -0.00559793 -0.00573377 -0.00584635 -0.00592973 -0.00598391 -0.00600889 -0.00600466 -0.00597124 -0.00590862 -0.0058168 -0.00570149 -0.00556841 -0.00541755 -0.00524892 -0.00506909 -0.00488465 -0.00469559 -0.00450192 -0.00430654 -0.00411235 -0.00391935 -0.00372755 -0.00353594 -0.00334354 -0.00315034 -0.00295634 -0.00276001 -0.00255983 -0.0023558 -0.00214791 -0.00193768 -0.00172665 -0.0015148 -0.00130214 -0.0010951 -0.000900125 -0.000717212 -0.000546361 -0.000395371 -0.000272042 -0.000176371 -0.000108361 -6.09531e-05 -2.70902e-05 -6.77256e-06 0 0 3.03551e-06 1.2142e-05 2.73196e-05 4.85682e-05 7.14508e-05 9.15304e-05 0.000108807 0.000123281 0.000128775 0.000119114 9.42966e-05 5.4324e-05 -1.88662e-06 -7.54177e-05 -0.000166269 -0.000274441 -0.000399069 -0.000539287 -0.000695095 -0.000866495 -0.00105118 -0.00124684 -0.00145348 -0.00167109 -0.00189526 -0.00212154 -0.00234995 -0.00258048 -0.00280648 -0.00302131 -0.00322497 -0.00341747 -0.00359189 -0.00374134 -0.00386581 -0.0039653 -0.00403656 -0.00407632 -0.00408457 -0.00406131 -0.00401016 -0.00393472 -0.00383499 -0.00371098 -0.00357248 -0.00342932 -0.00328149 -0.00312899 -0.00298268 -0.00285342 -0.00274122 -0.00264608 -0.00257378 -0.0025301 -0.00251504 -0.0025286 -0.0025693 -0.00263562 -0.00272757 -0.00284516 -0.00298306 -0.00313595 -0.00330383 -0.0034867 -0.00368103 -0.00388325 -0.00409337 -0.00431139 -0.0045375 -0.0047719 -0.00501459 -0.00526555 -0.00552486 -0.00579256 -0.00606866 -0.00635316 -0.00664065 -0.00692573 -0.00720841 -0.00748868 -0.00775584 -0.00799918 -0.00821872 -0.00841443 -0.00857736 -0.00869852 -0.00877792 -0.00881555 -0.00881134 -0.00876521 -0.00867718 -0.00854723 -0.00838387 -0.0081956 -0.00798242 -0.00774434 -0.0074909 -0.00723168 -0.00696667 -0.00669586 -0.00642293 -0.00615156 -0.00588174 -0.00561347 -0.00534446 -0.00507241 -0.00479733 -0.0045192 -0.0042353 -0.00394285 -0.00364186 -0.00333234 -0.00301674 -0.0026975 -0.00237463 -0.00204814 -0.00172841 -0.00142585 -0.00114044 -0.000872205 -0.000633977 -0.000438607 -0.000286096 -0.000176445 -9.92501e-05 -4.41112e-05 -1.10278e-05 0 0 3.69e-06 1.476e-05 3.321e-05 5.904e-05 8.57336e-05 0.000106774 0.000122162 0.000131896 0.000127796 0.000101679 5.35458e-05 -1.66042e-05 -0.000110079 -0.000228189 -0.000370932 -0.000538309 -0.000729044 -0.00094186 -0.00117676 -0.00143373 -0.0017095 -0.00200078 -0.00230756 -0.00262985 -0.00296127 -0.00329545 -0.00363237 -0.00397205 -0.00430483 -0.00462107 -0.00492076 -0.0052039 -0.00546047 -0.00568044 -0.00586381 -0.00601059 -0.0061161 -0.0061757 -0.00618937 -0.00615713 -0.00608434 -0.00597639 -0.00583327 -0.00565499 -0.0054558 -0.00524995 -0.00503744 -0.00481828 -0.00460787 -0.00442162 -0.00425954 -0.00412163 -0.00401545 -0.00394861 -0.00392108 -0.00393289 -0.00398077 -0.0040615 -0.00417507 -0.00432149 -0.00449216 -0.00467851 -0.00488053 -0.00509822 -0.00532634 -0.00555963 -0.0057981 -0.00604175 -0.00629189 -0.00654983 -0.00681557 -0.00708912 -0.00737261 -0.00766818 -0.00797584 -0.00829557 -0.00862195 -0.00894954 -0.00927834 -0.00960837 -0.00992598 -0.0102176 -0.0104831 -0.0107227 -0.0109241 -0.0110752 -0.0111761 -0.0112267 -0.0112267 -0.0111759 -0.0110742 -0.0109217 -0.0107295 -0.0105088 -0.0102595 -0.00998167 -0.00968725 -0.00938812 -0.00908429 -0.00877575 -0.00846559 -0.00815685 -0.00784955 -0.00754369 -0.00723406 -0.00691548 -0.00658795 -0.00625146 -0.00590112 -0.00553206 -0.00514426 -0.00473773 -0.0043162 -0.00388341 -0.00343934 -0.00298401 -0.00253325 -0.00210289 -0.00169293 -0.00130337 -0.00095442 -0.000666262 -0.0004389 -0.000272335 -0.000153188 -6.80836e-05 -1.70209e-05 0 0 4.07648e-06 1.63059e-05 3.66884e-05 6.52237e-05 9.28657e-05 0.000110568 0.000118331 0.000116153 9.38891e-05 4.13906e-05 -4.13423e-05 -0.000154309 -0.000298945 -0.000476684 -0.000687525 -0.000931469 -0.00120673 -0.00151154 -0.00184589 -0.00220978 -0.00259878 -0.00300847 -0.00343885 -0.00388992 -0.00435299 -0.0048194 -0.00528913 -0.00576219 -0.00622534 -0.00666532 -0.00708213 -0.00747578 -0.0078325 -0.00813853 -0.00839387 -0.0085985 -0.00874616 -0.00883054 -0.00885165 -0.00880948 -0.00871161 -0.00856562 -0.0083715 -0.00812926 -0.00785847 -0.00757871 -0.00728999 -0.0069923 -0.00670629 -0.00645262 -0.0062313 -0.00604231 -0.00589494 -0.00579847 -0.0057529 -0.00575823 -0.00580853 -0.00589789 -0.0060263 -0.00619377 -0.00638733 -0.006594 -0.00681379 -0.0070467 -0.00728538 -0.0075225 -0.00775805 -0.00799203 -0.00822768 -0.00846822 -0.00871365 -0.00896398 -0.00922496 -0.00950238 -0.00979622 -0.0101065 -0.0104291 -0.0107598 -0.0110986 -0.0114456 -0.0117848 -0.0120999 -0.0123912 -0.0126585 -0.0128864 -0.0130597 -0.0131783 -0.0132422 -0.0132507 -0.0132032 -0.0130998 -0.0129402 -0.0127384 -0.0125079 -0.0122487 -0.0119609 -0.0116581 -0.011354 -0.0110485 -0.0107416 -0.0104345 -0.0101282 -0.0098228 -0.00951821 -0.00920476 -0.00887276 -0.00852221 -0.0081531 -0.0077575 -0.00732746 -0.00686299 -0.00636408 -0.00583609 -0.00528437 -0.00470892 -0.00410975 -0.00350961 -0.00293125 -0.00237467 -0.00183987 -0.0013567 -0.000955006 -0.000634782 -0.000396031 -0.000222767 -9.90077e-05 -2.47519e-05 0 0 4.19496e-06 1.67798e-05 3.77546e-05 6.71193e-05 9.28473e-05 0.000102912 9.73137e-05 7.60521e-05 2.70544e-05 -6.17521e-05 -0.000190368 -0.000358792 -0.000568484 -0.000820902 -0.00111605 -0.00145392 -0.00183214 -0.00224833 -0.00270249 -0.00319463 -0.00371901 -0.00426991 -0.00484733 -0.00545128 -0.00607041 -0.00669339 -0.00732022 -0.0079509 -0.00856799 -0.00915405 -0.0097091 -0.0102331 -0.010708 -0.0111156 -0.011456 -0.0117291 -0.0119267 -0.0120408 -0.0120714 -0.0120184 -0.011892 -0.0117024 -0.0114497 -0.0111338 -0.0107805 -0.0104156 -0.0100391 -0.00965104 -0.00927793 -0.00894642 -0.00865648 -0.00840813 -0.00821225 -0.0080797 -0.0080105 -0.00800463 -0.00805257 -0.00814478 -0.00828126 -0.00846201 -0.00866856 -0.00888243 -0.00910362 -0.00933214 -0.00955816 -0.00977185 -0.00997321 -0.0101622 -0.0103449 -0.0105271 -0.0107088 -0.0108901 -0.0110819 -0.0112951 -0.0115298 -0.0117859 -0.012062 -0.0123564 -0.0126693 -0.0130005 -0.0133322 -0.0136463 -0.0139429 -0.0142218 -0.0144645 -0.0146521 -0.0147847 -0.0148622 -0.0148835 -0.0148473 -0.0147538 -0.0146028 -0.0144105 -0.014193 -0.0139502 -0.0136821 -0.0134035 -0.0131292 -0.0128592 -0.0125934 -0.0123297 -0.0120657 -0.0118015 -0.011537 -0.0112565 -0.0109442 -0.0106001 -0.0102241 -0.00980442 -0.00932906 -0.00879804 -0.00821138 -0.00757639 -0.00690038 -0.00618337 -0.00542536 -0.00465749 -0.00391092 -0.00318566 -0.00248169 -0.00184082 -0.00130484 -0.000873743 -0.000547533 -0.000307987 -0.000136883 -3.42208e-05 0 0 3.60877e-06 1.44351e-05 3.24789e-05 5.77403e-05 7.50269e-05 6.91465e-05 4.0099e-05 -1.21155e-05 -0.000100761 -0.000239103 -0.00042714 -0.000664873 -0.000953386 -0.00129376 -0.00168601 -0.00213012 -0.00262304 -0.00316171 -0.00374615 -0.00437634 -0.00504539 -0.00574638 -0.00647931 -0.00724419 -0.00802711 -0.00881419 -0.00960541 -0.0104008 -0.0111786 -0.0119172 -0.0126164 -0.0132765 -0.0138746 -0.0143881 -0.014817 -0.0151614 -0.0154111 -0.0155562 -0.0155968 -0.0155327 -0.0153772 -0.0151434 -0.0148314 -0.014441 -0.0140048 -0.0135551 -0.0130919 -0.0126152 -0.0121574 -0.011751 -0.0113959 -0.011092 -0.0108509 -0.0106839 -0.0105911 -0.0105723 -0.0106126 -0.010697 -0.0108256 -0.0109983 -0.0111895 -0.0113734 -0.0115501 -0.0117195 -0.011869 -0.0119859 -0.01207 -0.0121215 -0.0121505 -0.0121674 -0.012172 -0.0121645 -0.0121642 -0.0121904 -0.012243 -0.0123222 -0.0124324 -0.0125781 -0.0127594 -0.0129762 -0.0132109 -0.0134457 -0.0136807 -0.0139158 -0.0141298 -0.0143013 -0.0144304 -0.0145169 -0.0145591 -0.0145548 -0.0145043 -0.0144073 -0.0142814 -0.0141437 -0.0139943 -0.0138332 -0.0136741 -0.0135304 -0.0134022 -0.0132895 -0.0131835 -0.0130755 -0.0129654 -0.0128533 -0.0127142 -0.0125233 -0.0122806 -0.0119861 -0.0116223 -0.0111719 -0.0106349 -0.0100113 -0.00931076 -0.00854291 -0.00770777 -0.00680534 -0.00587703 -0.00496424 -0.00406698 -0.00318523 -0.00237557 -0.00169459 -0.00114227 -0.000718626 -0.000404227 -0.000179656 -4.49141e-05 0 0 1.88128e-06 7.5251e-06 1.69315e-05 3.01004e-05 2.87532e-05 -5.38883e-06 -7.23257e-05 -0.000172057 -0.000317612 -0.000522016 -0.00078527 -0.00110738 -0.00148834 -0.00192819 -0.00242691 -0.00298451 -0.0035972 -0.00426118 -0.00497644 -0.005743 -0.00655314 -0.00739917 -0.00828109 -0.0091989 -0.0101367 -0.0110785 -0.0120245 -0.0129745 -0.013903 -0.0147845 -0.0156189 -0.0164064 -0.0171198 -0.0177323 -0.0182439 -0.0186545 -0.0189525 -0.0191264 -0.019176 -0.0191015 -0.0189191 -0.0186453 -0.01828 -0.0178234 -0.0173142 -0.0167915 -0.0162553 -0.0157055 -0.0151794 -0.0147143 -0.0143102 -0.013967 -0.0136946 -0.0135029 -0.0133918 -0.0133613 -0.0133882 -0.0134494 -0.0135449 -0.0136747 -0.0138036 -0.0138964 -0.0139532 -0.0139738 -0.0139424 -0.0138427 -0.0136748 -0.0134388 -0.0131515 -0.01283 -0.0124742 -0.0120842 -0.0116925 -0.0113319 -0.0110023 -0.0107037 -0.0104521 -0.0102636 -0.0101382 -0.0100759 -0.0100633 -0.010087 -0.010147 -0.0102434 -0.0103539 -0.0104563 -0.0105506 -0.0106368 -0.0107118 -0.0107726 -0.0108192 -0.0108517 -0.0108863 -0.0109397 -0.0110117 -0.0111024 -0.0112203 -0.0113739 -0.0115632 -0.0117882 -0.0120286 -0.012264 -0.0124946 -0.0127202 -0.0129026 -0.0130034 -0.0130227 -0.0129604 -0.0127916 -0.0124912 -0.0120592 -0.0114956 -0.0108129 -0.0100234 -0.00912717 -0.00812421 -0.00706837 -0.00601354 -0.0049597 -0.00390686 -0.00292975 -0.00210308 -0.00142686 -0.000901092 -0.000506864 -0.000225273 -5.63183e-05 0 0 -9.87524e-07 -3.9501e-06 -8.88772e-06 -1.58004e-05 -4.59738e-05 -0.000120694 -0.00023996 -0.000403773 -0.000623496 -0.000910491 -0.00126476 -0.0016863 -0.00217336 -0.00272418 -0.00333877 -0.00401712 -0.00475463 -0.00554672 -0.00639337 -0.00729459 -0.00824226 -0.00922829 -0.0102527 -0.0113154 -0.0123991 -0.0134865 -0.0145774 -0.015672 -0.0167412 -0.0177561 -0.0187166 -0.0196228 -0.0204437 -0.0211483 -0.0217365 -0.0222085 -0.022551 -0.0227513 -0.0228091 -0.0227246 -0.0225176 -0.022208 -0.0217957 -0.0212808 -0.0207088 -0.0201249 -0.0195293 -0.0189219 -0.0183439 -0.0178364 -0.0173994 -0.017033 -0.0167433 -0.0165365 -0.0164126 -0.0163716 -0.0163795 -0.016402 -0.0164393 -0.0164913 -0.0165111 -0.0164516 -0.0163129 -0.0160951 -0.0157782 -0.0153424 -0.0147877 -0.0141142 -0.0133479 -0.012515 -0.0116154 -0.0106491 -0.00966695 -0.00871977 -0.00780755 -0.00693029 -0.00612103 -0.00541283 -0.00480568 -0.00429958 -0.00388947 -0.00357029 -0.00334203 -0.00320469 -0.00313685 -0.00311707 -0.00314536 -0.00322172 -0.00334165 -0.00350064 -0.00369871 -0.00393584 -0.00422545 -0.00458096 -0.00500237 -0.00548967 -0.00604234 -0.00665988 -0.00734226 -0.0080895 -0.00886476 -0.00963121 -0.0103888 -0.0111377 -0.0118216 -0.0123845 -0.0128263 -0.0131472 -0.0133123 -0.0132868 -0.0130708 -0.0126642 -0.0120827 -0.0113418 -0.0104416 -0.00938195 -0.00823151 -0.0070588 -0.00586382 -0.00464659 -0.00350334 -0.00253031 -0.00172751 -0.00109493 -0.0006159 -0.000273733 -6.84333e-05 0 0 -4.99763e-06 -1.99905e-05 -4.49787e-05 -7.99621e-05 -0.000149154 -0.000276769 -0.000462805 -0.000707264 -0.00101841 -0.00140453 -0.0018656 -0.00240164 -0.00300842 -0.00368173 -0.00442156 -0.00522792 -0.00609533 -0.00701834 -0.00799693 -0.00903111 -0.0101127 -0.0112337 -0.012394 -0.0135937 -0.0148144 -0.0160379 -0.0172642 -0.0184933 -0.0196931 -0.0208319 -0.0219094 -0.0229258 -0.0238463 -0.024636 -0.025295 -0.0258233 -0.0262066 -0.0264309 -0.0264961 -0.0264021 -0.0261727 -0.0258315 -0.0253784 -0.0248134 -0.0241885 -0.0235553 -0.022914 -0.0222645 -0.0216508 -0.0211172 -0.0206636 -0.02029 -0.0199969 -0.0197848 -0.0196536 -0.0196034 -0.0195864 -0.0195548 -0.0195087 -0.019448 -0.0193118 -0.0190389 -0.0186294 -0.0180832 -0.0173764 -0.0164849 -0.0154087 -0.0141477 -0.0127398 -0.0112223 -0.0095955 -0.00785924 -0.00608743 -0.00435397 -0.00265885 -0.00100208 0.000560792 0.00197422 0.00323819 0.00435272 0.00531055 0.00610444 0.00673439 0.0072004 0.00752142 0.0077164 0.00778533 0.00772823 0.00755139 0.0072611 0.00685736 0.00634017 0.00570129 0.00493248 0.00403373 0.00300505 0.00185991 0.000611784 -0.000739321 -0.00219341 -0.00369211 -0.00517708 -0.0066483 -0.00810577 -0.00947126 -0.0106665 -0.0116916 -0.0125464 -0.0131844 -0.0135588 -0.0136698 -0.0135172 -0.0131203 -0.0124983 -0.011651 -0.0105786 -0.00936644 -0.00810003 -0.00677935 -0.00540442 -0.00409636 -0.00297629 -0.00204422 -0.00130015 -0.000731333 -0.000325037 -8.12592e-05 0 0 -1.02126e-05 -4.08503e-05 -9.19132e-05 -0.000163401 -0.000282055 -0.000474616 -0.000741084 -0.00108146 -0.00149892 -0.00199667 -0.00257468 -0.00323298 -0.00396379 -0.00475938 -0.00561974 -0.00654488 -0.00752834 -0.0085637 -0.00965096 -0.0107901 -0.0119738 -0.0131947 -0.0144528 -0.015748 -0.0170626 -0.0183787 -0.0196961 -0.0210151 -0.0223018 -0.0235227 -0.0246778 -0.025767 -0.0267528 -0.0275975 -0.0283013 -0.028864 -0.029271 -0.0295077 -0.0295739 -0.0294698 -0.0292228 -0.0288607 -0.0283835 -0.0277911 -0.0271411 -0.0264913 -0.0258416 -0.025192 -0.0245876 -0.0240735 -0.0236496 -0.023316 -0.0230641 -0.0228852 -0.0227795 -0.0227468 -0.0227219 -0.0226395 -0.0224995 -0.022302 -0.0219687 -0.0214214 -0.0206602 -0.019685 -0.0184669 -0.0169773 -0.015216 -0.013183 -0.0109308 -0.00851192 -0.00592623 -0.00317378 -0.00035819 0.0024169 0.00515151 0.00784561 0.0104138 0.0127707 0.0149163 0.0168505 0.0185488 0.0199864 0.0211634 0.0220798 0.0227501 0.0231887 0.0233958 0.0233712 0.0231235 0.0226612 0.0219842 0.0210926 0.0199857 0.0186629 0.0171242 0.0153696 0.0134302 0.0113375 0.0090913 0.00669168 0.00422501 0.00177767 -0.000650322 -0.00305898 -0.00534215 -0.00739367 -0.00921354 -0.0108018 -0.0120971 -0.0130382 -0.0136251 -0.0138578 -0.0137597 -0.013354 -0.0126408 -0.0116201 -0.0103971 -0.00907686 -0.00765941 -0.00614476 -0.00468259 -0.0034226 -0.00236478 -0.00150913 -0.000848884 -0.000377282 -9.43205e-05 0 0 -1.66959e-05 -6.67837e-05 -0.000150263 -0.000267135 -0.000445945 -0.00071524 -0.00107502 -0.00152529 -0.00206158 -0.00267944 -0.00337887 -0.00415987 -0.00500971 -0.00591567 -0.00687774 -0.00789593 -0.00896269 -0.0100705 -0.0112193 -0.0124092 -0.0136346 -0.0148904 -0.0161764 -0.0174926 -0.0188237 -0.0201544 -0.0214845 -0.0228141 -0.0241101 -0.0253394 -0.026502 -0.0275979 -0.0285884 -0.0294349 -0.0301373 -0.0306958 -0.031096 -0.031324 -0.0313798 -0.0312632 -0.0310062 -0.0306406 -0.0301664 -0.0295836 -0.0289545 -0.0283415 -0.0277445 -0.0271635 -0.0266417 -0.026222 -0.0259044 -0.0256889 -0.0255533 -0.0254753 -0.025455 -0.0254923 -0.0254992 -0.0253879 -0.0251583 -0.0248103 -0.0242448 -0.0233624 -0.0221631 -0.020647 -0.0187796 -0.0165265 -0.0138879 -0.0108636 -0.00752504 -0.00394357 -0.000119179 0.00394813 0.00811654 0.0122442 0.0163312 0.0203774 0.0242585 0.0278498 0.0311514 0.0341632 0.0368371 0.0391248 0.0410263 0.0425415 0.0436784 0.0444446 0.0448403 0.0448653 0.0445309 0.0438482 0.0428172 0.0414378 0.0397197 0.0376727 0.0352967 0.0325917 0.0296125 0.0264137 0.0229953 0.0193573 0.0156222 0.0119123 0.00822766 0.00456821 0.00107525 -0.00210995 -0.0049874 -0.00755709 -0.00973971 -0.0114559 -0.0127058 -0.0134893 -0.0138347 -0.0137705 -0.0132964 -0.0124127 -0.0112475 -0.00992893 -0.00845712 -0.00683201 -0.00523585 -0.00385083 -0.00267697 -0.00171426 -0.000964273 -0.000428566 -0.000107141 0 0 -2.44476e-05 -9.77905e-05 -0.000220029 -0.000391162 -0.000640822 -0.00099864 -0.00146462 -0.00203875 -0.00270638 -0.00345285 -0.00427817 -0.00518233 -0.00614618 -0.0071506 -0.00819557 -0.00928109 -0.0103984 -0.0115387 -0.012702 -0.0138882 -0.0150952 -0.0163208 -0.0175649 -0.0188275 -0.0200978 -0.021365 -0.0226292 -0.0238903 -0.025118 -0.026282 -0.0273821 -0.0284185 -0.0293531 -0.030148 -0.0308031 -0.0313185 -0.0316816 -0.03188 -0.0319136 -0.0317825 -0.0315228 -0.0311711 -0.0307271 -0.030191 -0.0296286 -0.0291058 -0.0286226 -0.028179 -0.027813 -0.0275626 -0.0274278 -0.0274086 -0.0274645 -0.027555 -0.0276801 -0.0278397 -0.0279183 -0.0278 -0.0274849 -0.026973 -0.0261401 -0.0248618 -0.0231382 -0.0209692 -0.0183143 -0.0151327 -0.0114244 -0.00718953 -0.00252236 0.0024827 0.00782565 0.0135065 0.0193368 0.025128 0.0308802 0.0365934 0.0420948 0.0472115 0.0519435 0.0562909 0.0601756 0.0635196 0.0663229 0.0685855 0.0703062 0.071484 0.0721188 0.0722106 0.0717737 0.0708222 0.0693562 0.0673756 0.0649033 0.0619618 0.0585513 0.0546716 0.0504067 0.0458404 0.0409727 0.0358036 0.0304995 0.0252269 0.0199856 0.0147758 0.00978092 0.00518462 0.000986863 -0.00281233 -0.00611223 -0.00881209 -0.0109119 -0.0124117 -0.0133456 -0.0137476 -0.0136178 -0.0129562 -0.0119175 -0.0106562 -0.00917247 -0.00746619 -0.00575612 -0.00426099 -0.0029808 -0.00191555 -0.0010775 -0.000478889 -0.000119722 0 0 -3.34677e-05 -0.000133871 -0.00030121 -0.000535484 -0.000866688 -0.00132482 -0.00190987 -0.00262184 -0.00343333 -0.00431691 -0.00527258 -0.00630034 -0.0073732 -0.00846416 -0.00957321 -0.0107004 -0.0118354 -0.0129683 -0.0140989 -0.0152273 -0.0163556 -0.0174859 -0.0186182 -0.0197526 -0.0208847 -0.0220107 -0.0231304 -0.0242438 -0.0253256 -0.0263504 -0.0273182 -0.0282289 -0.029047 -0.0297369 -0.0302987 -0.0307322 -0.0310278 -0.0311755 -0.0311754 -0.0310275 -0.0307728 -0.0304522 -0.0300657 -0.0296134 -0.0291635 -0.0287844 -0.028476 -0.0282384 -0.0281015 -0.0280953 -0.0282199 -0.0284752 -0.0287978 -0.0291244 -0.0294548 -0.0297892 -0.029979 -0.0298758 -0.0294795 -0.0287901 -0.0276545 -0.0259196 -0.0235854 -0.0206517 -0.0170711 -0.0127957 -0.00782563 -0.00216081 0.0040772 0.0107669 0.0179083 0.0255013 0.0333025 0.0410682 0.0487986 0.0564935 0.0639227 0.0708557 0.0772927 0.0832335 0.0885642 0.0931708 0.0970533 0.100212 0.102634 0.104307 0.105231 0.105407 0.104852 0.103583 0.101601 0.0989062 0.0955364 0.0915302 0.0868878 0.0816091 0.0758127 0.0696175 0.0630234 0.0560305 0.048857 0.0417214 0.0346236 0.0275638 0.0207749 0.01449 0.00870924 0.00343248 -0.00121466 -0.00510663 -0.0082434 -0.010625 -0.0122921 -0.0132855 -0.013605 -0.0132508 -0.0124072 -0.0112588 -0.00980547 -0.00804728 -0.00624341 -0.00465307 -0.00327627 -0.002113 -0.00118856 -0.00052825 -0.000132063 0 0 -4.34954e-05 -0.000173982 -0.000391458 -0.000695926 -0.00111662 -0.00168277 -0.00239438 -0.00325145 -0.00421081 -0.00522929 -0.0063069 -0.00744364 -0.00860271 -0.00974735 -0.0108776 -0.0119933 -0.0130828 -0.0141342 -0.0151476 -0.0161228 -0.0170681 -0.0179915 -0.0188932 -0.019773 -0.0206368 -0.0214903 -0.0223336 -0.0231665 -0.0239724 -0.0247344 -0.0254525 -0.0261267 -0.0267267 -0.0272222 -0.0276132 -0.0278998 -0.0280764 -0.0281376 -0.0280835 -0.027914 -0.027675 -0.0274126 -0.0271266 -0.0268171 -0.026553 -0.0264033 -0.026368 -0.0264472 -0.0266584 -0.0270194 -0.0275301 -0.0281906 -0.0289085 -0.0295914 -0.0302392 -0.0308521 -0.0312425 -0.0312229 -0.0307933 -0.0299539 -0.028518 -0.0262994 -0.0232981 -0.019514 -0.0148919 -0.00937648 -0.00296784 0.00433408 0.0123755 0.0210027 0.0302157 0.0400144 0.0500906 0.0601359 0.0701503 0.0801338 0.089789 0.0988186 0.107222 0.115001 0.121998 0.12806 0.133186 0.137377 0.140607 0.142853 0.144114 0.14439 0.143703 0.142076 0.139507 0.135996 0.1316 0.126374 0.120318 0.113432 0.105874 0.097801 0.0892138 0.0801122 0.0707744 0.0614786 0.0522249 0.0430133 0.0341343 0.0258787 0.0182465 0.0112376 0.00500644 -0.000292396 -0.00465896 -0.00809325 -0.0106433 -0.0123573 -0.013235 -0.0132766 -0.0126999 -0.0117226 -0.0103447 -0.00856621 -0.00669078 -0.00502199 -0.00355985 -0.00230435 -0.0012962 -0.000576088 -0.000144022 0 0 -5.42698e-05 -0.000217079 -0.000488428 -0.000868316 -0.00138369 -0.0020615 -0.00290175 -0.00390443 -0.0050072 -0.0061477 -0.00732594 -0.00854192 -0.00974666 -0.0108912 -0.0119755 -0.0129996 -0.0139496 -0.0148115 -0.0155852 -0.0162709 -0.0168848 -0.0174433 -0.0179464 -0.018394 -0.0188062 -0.019203 -0.0195845 -0.0199505 -0.020298 -0.0206237 -0.0209276 -0.0212096 -0.0214489 -0.0216243 -0.021736 -0.0217839 -0.0217692 -0.0216932 -0.021556 -0.0213574 -0.0211487 -0.020981 -0.0208542 -0.0207685 -0.020791 -0.0209889 -0.0213622 -0.0219109 -0.0226348 -0.0235338 -0.0246078 -0.0258568 -0.0271519 -0.0283641 -0.0294934 -0.0305398 -0.0312696 -0.031449 -0.031078 -0.0301567 -0.0284604 -0.0257648 -0.0220698 -0.0173754 -0.0116185 -0.00473581 0.00327256 0.0124066 0.0224744 0.0332839 0.0448349 0.0571277 0.0697781 0.0824019 0.0949993 0.10757 0.119741 0.131136 0.141756 0.151602 0.160473 0.168169 0.17469 0.180037 0.184172 0.187061 0.188702 0.189095 0.188267 0.186244 0.183026 0.178613 0.173077 0.166491 0.158855 0.150169 0.140633 0.130447 0.11961 0.108123 0.0963316 0.0845815 0.0728728 0.0612054 0.0499365 0.0394231 0.0296653 0.0206631 0.0126045 0.00567774 -0.000117272 -0.0047805 -0.00836811 -0.0109363 -0.0124849 -0.0130141 -0.0127787 -0.0120336 -0.0107786 -0.0090139 -0.00709129 -0.00536266 -0.00382802 -0.00248735 -0.00139913 -0.000621838 -0.000155459 0 0 -6.57909e-05 -0.000263164 -0.000592118 -0.00105265 -0.00166791 -0.00246102 -0.00343198 -0.00458079 -0.0058225 -0.00707213 -0.00832969 -0.00959519 -0.010805 -0.0118957 -0.0128671 -0.0137192 -0.0144357 -0.0149999 -0.0154119 -0.0156717 -0.015806 -0.0158413 -0.0157778 -0.0156154 -0.0153928 -0.0151487 -0.014883 -0.0145958 -0.0143025 -0.0140183 -0.0137434 -0.0134777 -0.0132135 -0.0129433 -0.012667 -0.0123846 -0.0121063 -0.0118424 -0.0115929 -0.0113578 -0.0111937 -0.0111573 -0.0112487 -0.0114678 -0.0118776 -0.0125412 -0.0134585 -0.0146296 -0.0160308 -0.0176386 -0.0194529 -0.0214737 -0.0235279 -0.0254424 -0.0272172 -0.0288523 -0.0300604 -0.0305541 -0.0303335 -0.0293985 -0.0274818 -0.0243158 -0.0199005 -0.014236 -0.0072509 0.00112631 0.0108956 0.0220569 0.0343739 0.0476103 0.0617661 0.0768412 0.0923649 0.107866 0.123346 0.138803 0.153777 0.167808 0.180895 0.193037 0.203988 0.213497 0.221565 0.228192 0.23333 0.236931 0.238995 0.239522 0.238543 0.236089 0.23216 0.226756 0.219966 0.21188 0.202498 0.19182 0.18009 0.167554 0.154212 0.140063 0.125529 0.11103 0.0965673 0.0821402 0.0681814 0.0551232 0.0429658 0.0317091 0.0215796 0.0128038 0.00538166 -0.000686754 -0.00546646 -0.00902246 -0.0113547 -0.0124633 -0.0126438 -0.0121918 -0.0111073 -0.00939035 -0.00744495 -0.00567509 -0.00408077 -0.002662 -0.00149737 -0.0006655 -0.000166375 0 0 -7.80587e-05 -0.000312235 -0.000702529 -0.00124894 -0.00196927 -0.00288131 -0.00398506 -0.00528053 -0.00665671 -0.00800259 -0.00931817 -0.0106034 -0.0117778 -0.0127608 -0.0135522 -0.0141522 -0.0145412 -0.0146997 -0.0146277 -0.0143252 -0.0138314 -0.0131855 -0.0123875 -0.0114374 -0.0103968 -0.00932744 -0.00822931 -0.00710241 -0.00598571 -0.00491822 -0.00389993 -0.00293085 -0.00202067 -0.00117911 -0.000406172 0.000298147 0.000912323 0.00141483 0.00180568 0.00208485 0.00218988 0.00205828 0.00169004 0.00108518 0.000187274 -0.00106009 -0.00265691 -0.00460319 -0.00684633 -0.00933374 -0.0120654 -0.0150413 -0.0180367 -0.0208265 -0.0234108 -0.0257897 -0.0276149 -0.0285382 -0.0285597 -0.0276794 -0.025582 -0.0219523 -0.0167902 -0.0100959 -0.00178916 0.00820986 0.0199012 0.0332848 0.0480741 0.0639821 0.081009 0.0991548 0.117851 0.136529 0.15519 0.173832 0.191899 0.208834 0.224637 0.239307 0.252544 0.264045 0.273811 0.281842 0.288079 0.292463 0.294994 0.295671 0.294531 0.291611 0.286909 0.280426 0.272268 0.262542 0.251247 0.238384 0.224246 0.209124 0.19302 0.175932 0.158366 0.140824 0.123308 0.105818 0.088869 0.072979 0.0581479 0.0443756 0.0319316 0.0210857 0.0118378 0.004188 -0.00193838 -0.00661586 -0.00984443 -0.0116241 -0.012295 -0.0121972 -0.0113307 -0.00969556 -0.00775175 -0.00595926 -0.00431811 -0.0028283 -0.00159092 -0.000707074 -0.000176769 0 0 -9.06994e-05 -0.000362798 -0.000816295 -0.00145119 -0.00227809 -0.00330758 -0.00453967 -0.00597437 -0.00747091 -0.00888856 -0.0102273 -0.0114872 -0.0125676 -0.0133682 -0.0138888 -0.0141295 -0.0140672 -0.0136785 -0.0129636 -0.0119224 -0.0106093 -0.00907874 -0.00733072 -0.00536525 -0.00327266 -0.00114333 0.00102276 0.00322559 0.0053962 0.0074656 0.00943378 0.0113008 0.0130347 0.0146038 0.016008 0.01