<?xml version="1.0"?> 
<VTKFile type="StructuredGrid" version="0.1"> 
<StructuredGrid WholeExtent="0 128 0 128 0 0"> 
<Piece Extent="0 128 0 128 0 0"> 
<PointData>
<DataArray type="Float32" Name="u" format="ascii" NumberOfComponents="1"> 
0 0 0 0 0 0 0 0 0 0 0 0 0 0 0 0 0 0 0 0 0 0 0 0 0 0 0 0 0 0 0 0 0 0 0 0 0 0 0 0 0 0 0 0 0 0 0 0 0 0 0 0 0 0 0 0 0 0 0 0 0 0 0 0 0 0 0 0 0 0 0 0 0 0 0 0 0 0 0 0 0 0 0 0 0 0 0 0 0 0 0 0 0 0 0 0 0 0 0 0 0 0 0 0 0 0 0 0 0 0 0 0 0 0 0 0 0 0 0 0 0 0 0 0 0 0 0 0 0 0 9.32562e-08 3.73025e-07 8.39306e-07 1.4921e-06 2.14491e-06 2.61124e-06 2.89108e-06 2.98445e-06 2.68141e-06 1.77207e-06 2.56418e-07 -1.86555e-06 -4.62592e-06 -8.05681e-06 -1.21582e-05 -1.69301e-05 -2.23444e-05 -2.8373e-05 -3.50158e-05 -4.22729e-05 -5.00535e-05 -5.82668e-05 -6.69128e-05 -7.59914e-05 -8.53162e-05 -9.47004e-05 -0.000104144 -0.000113647 -0.000122937 -0.00013174 -0.000140057 -0.000147887 -0.000154964 -0.000161021 -0.000166057 -0.000170074 -0.000172961 -0.000174606 -0.00017501 -0.000174173 -0.000172247 -0.000169383 -0.000165581 -0.00016084 -0.000155532 -0.000150028 -0.000144327 -0.000138428 -0.000132731 -0.00012763 -0.000123127 -0.000119221 -0.000116124 -0.000114045 -0.000112985 -0.000112944 -0.000113875 -0.00011573 -0.000118509 -0.000122213 -0.000126654 -0.000131643 -0.000137182 -0.00014327 -0.000149768 -0.000156536 -0.000163574 -0.000170882 -0.000178443 -0.000186241 -0.000194275 -0.000202545 -0.000211046 -0.000219773 -0.000228726 -0.000237904 -0.000247149 -0.000256302 -0.000265361 -0.000274328 -0.000282882 -0.000290703 -0.00029779 -0.000304143 -0.000309486 -0.000313539 -0.000316303 -0.000317777 -0.000317945 -0.000316788 -0.000314307 -0.000310501 -0.000305613 -0.000299883 -0.000293311 -0.000285897 -0.000277921 -0.000269659 -0.000261114 -0.000252283 -0.000243271 -0.000234179 -0.000225008 -0.000215758 -0.000206347 -0.000196694 -0.000186799 -0.000176662 -0.00016619 -0.00015529 -0.000143961 -0.000132205 -0.000120116 -0.000107791 -9.52297e-05 -8.24323e-05 -6.98179e-05 -5.78058e-05 -4.6396e-05 -3.55885e-05 -2.59399e-05 -1.8007e-05 -1.17896e-05 -7.28787e-06 -4.09943e-06 -1.82197e-06 -4.55492e-07 0 0 3.73025e-07 1.4921e-06 3.35722e-06 5.9684e-06 8.57964e-06 1.04449e-05 1.15643e-05 1.19378e-05 1.07257e-05 7.08828e-06 1.02567e-06 -7.46218e-06 -1.85037e-05 -3.22272e-05 -4.86328e-05 -6.77205e-05 -8.93777e-05 -0.000113492 -0.000140063 -0.000169092 -0.000200214 -0.000233067 -0.000267651 -0.000303966 -0.000341265 -0.000378802 -0.000416576 -0.000454589 -0.000491747 -0.00052696 -0.000560227 -0.000591547 -0.000619855 -0.000644082 -0.00066423 -0.000680297 -0.000691842 -0.000698424 -0.000700041 -0.000696694 -0.000688989 -0.000677531 -0.000662322 -0.000643361 -0.00062213 -0.000600112 -0.000577306 -0.000553714 -0.000530923 -0.000510521 -0.000492509 -0.000476886 -0.000464496 -0.000456181 -0.000451941 -0.000451777 -0.0004555 -0.00046292 -0.000474037 -0.000488852 -0.000506614 -0.000526573 -0.000548729 -0.000573081 -0.000599072 -0.000626144 -0.000654296 -0.000683528 -0.000713773 -0.000744963 -0.000777099 -0.000810179 -0.000844184 -0.000879092 -0.000914903 -0.000951617 -0.000988597 -0.00102521 -0.00106144 -0.00109731 -0.00113153 -0.00116281 -0.00119116 -0.00121657 -0.00123794 -0.00125416 -0.00126521 -0.00127111 -0.00127178 -0.00126715 -0.00125723 -0.00124201 -0.00122245 -0.00119953 -0.00117324 -0.00114359 -0.00111168 -0.00107864 -0.00104445 -0.00100913 -0.000973082 -0.000936716 -0.000900032 -0.000863031 -0.000825388 -0.000786777 -0.000747197 -0.000706649 -0.00066476 -0.000621159 -0.000575845 -0.000528819 -0.000480463 -0.000431164 -0.000380919 -0.000329729 -0.000279272 -0.000231223 -0.000185584 -0.000142354 -0.00010376 -7.20279e-05 -4.71585e-05 -2.91515e-05 -1.63977e-05 -7.28787e-06 -1.82197e-06 0 0 8.39306e-07 3.35722e-06 7.55376e-06 1.34289e-05 1.93042e-05 2.35011e-05 2.60197e-05 2.686e-05 2.41327e-05 1.59486e-05 2.30776e-06 -1.67899e-05 -4.16333e-05 -7.25113e-05 -0.000109424 -0.000152371 -0.0002011 -0.000255357 -0.000315142 -0.000380456 -0.000450482 -0.000524401 -0.000602215 -0.000683923 -0.000767846 -0.000852303 -0.000937296 -0.00102282 -0.00110643 -0.00118566 -0.00126051 -0.00133098 -0.00139467 -0.00144919 -0.00149452 -0.00153067 -0.00155665 -0.00157145 -0.00157509 -0.00156756 -0.00155022 -0.00152445 -0.00149022 -0.00144756 -0.00139979 -0.00135025 -0.00129894 -0.00124586 -0.00119458 -0.00114867 -0.00110814 -0.00107299 -0.00104512 -0.00102641 -0.00101687 -0.0010165 -0.00102487 -0.00104157 -0.00106658 -0.00109992 -0.00113988 -0.00118479 -0.00123464 -0.00128943 -0.00134791 -0.00140882 -0.00147217 -0.00153794 -0.00160599 -0.00167617 -0.00174847 -0.0018229 -0.00189941 -0.00197796 -0.00205853 -0.00214114 -0.00222434 -0.00230671 -0.00238825 -0.00246895 -0.00254594 -0.00261632 -0.00268011 -0.00273729 -0.00278537 -0.00282185 -0.00284673 -0.00286 -0.0028615 -0.00285109 -0.00282876 -0.00279451 -0.00275052 -0.00269894 -0.0026398 -0.00257308 -0.00250129 -0.00242693 -0.00235002 -0.00227055 -0.00218944 -0.00210761 -0.00202507 -0.00194182 -0.00185712 -0.00177025 -0.00168119 -0.00158996 -0.00149571 -0.00139761 -0.00129565 -0.00118984 -0.00108104 -0.000970118 -0.000857067 -0.000741891 -0.000628361 -0.000520252 -0.000417564 -0.000320296 -0.000233459 -0.000162063 -0.000106107 -6.55909e-05 -3.68949e-05 -1.63977e-05 -4.09943e-06 0 0 1.4921e-06 5.9684e-06 1.34289e-05 2.38736e-05 3.43185e-05 4.17798e-05 4.62573e-05 4.77511e-05 4.29026e-05 2.83531e-05 4.10268e-06 -2.98487e-05 -7.40147e-05 -0.000128909 -0.000194531 -0.000270882 -0.000357511 -0.000453968 -0.000560253 -0.000676367 -0.000800856 -0.000932269 -0.0010706 -0.00121586 -0.00136506 -0.00151521 -0.0016663 -0.00181836 -0.00196699 -0.00210784 -0.00224091 -0.00236619 -0.00247942 -0.00257633 -0.00265692 -0.00272119 -0.00276737 -0.00279369 -0.00280016 -0.00278678 -0.00275595 -0.00271013 -0.00264929 -0.00257344 -0.00248852 -0.00240045 -0.00230923 -0.00221486 -0.00212369 -0.00204208 -0.00197003 -0.00190754 -0.00185798 -0.00182472 -0.00180777 -0.00180711 -0.001822 -0.00185168 -0.00189615 -0.00195541 -0.00202646 -0.00210629 -0.00219492 -0.00229233 -0.00239629 -0.00250458 -0.00261718 -0.00273411 -0.00285509 -0.00297985 -0.00310839 -0.00324072 -0.00337674 -0.00351637 -0.00365961 -0.00380647 -0.00395439 -0.00410083 -0.00424578 -0.00438925 -0.00452611 -0.00465124 -0.00476464 -0.0048663 -0.00495177 -0.00501662 -0.00506084 -0.00508444 -0.00508712 -0.00506861 -0.00502891 -0.00496802 -0.00488981 -0.00479812 -0.00469297 -0.00457436 -0.00444673 -0.00431455 -0.00417782 -0.00403653 -0.00389233 -0.00374686 -0.00360013 -0.00345213 -0.00330155 -0.00314711 -0.00298879 -0.00282659 -0.00265904 -0.00248463 -0.00230338 -0.00211527 -0.00192185 -0.00172465 -0.00152368 -0.00131892 -0.00111709 -0.000924893 -0.000742336 -0.000569416 -0.000415039 -0.000288111 -0.000188634 -0.000116606 -6.55909e-05 -2.91515e-05 -7.28787e-06 0 0 2.06204e-06 8.24817e-06 1.85584e-05 3.29927e-05 4.68733e-05 5.55224e-05 5.894e-05 5.71261e-05 4.51066e-05 1.79076e-05 -2.4471e-05 -8.20291e-05 -0.000155473 -0.00024551 -0.00035214 -0.000475362 -0.000614454 -0.000768691 -0.000938073 -0.0011226 -0.00132002 -0.00152806 -0.00174673 -0.00197603 -0.00221131 -0.00244793 -0.00268587 -0.00292515 -0.00315894 -0.00338042 -0.00358961 -0.0037865 -0.00396443 -0.00411674 -0.00424344 -0.00434453 -0.00441728 -0.00445897 -0.00446961 -0.00444918 -0.00440154 -0.00433053 -0.00423615 -0.00411839 -0.00398653 -0.00384983 -0.00370831 -0.00356195 -0.00342055 -0.00329391 -0.00318204 -0.00308492 -0.00300753 -0.00295484 -0.00292684 -0.00292355 -0.00294338 -0.00298474 -0.00304763 -0.00313206 -0.00323299 -0.0033454 -0.00346927 -0.00360462 -0.00374788 -0.00389549 -0.00404745 -0.00420375 -0.00436434 -0.00452913 -0.00469814 -0.00487136 -0.00504943 -0.00523296 -0.00542197 -0.00561645 -0.00581335 -0.00600961 -0.00620524 -0.00640024 -0.00658735 -0.00675935 -0.00691622 -0.00705797 -0.00717802 -0.00726982 -0.00733334 -0.00736861 -0.0073751 -0.00735231 -0.00730025 -0.00721891 -0.00711385 -0.00699063 -0.00684924 -0.0066897 -0.00651818 -0.00634086 -0.00615776 -0.00596885 -0.00577585 -0.00558043 -0.0053826 -0.00518236 -0.00497698 -0.00476372 -0.00454259 -0.00431358 -0.00407406 -0.00382141 -0.00355562 -0.00327669 -0.00298714 -0.00268945 -0.00238364 -0.00206971 -0.00175844 -0.00146064 -0.00117631 -0.000905441 -0.000662536 -0.000462092 -0.000304108 -0.000188585 -0.000106079 -4.71463e-05 -1.17866e-05 0 0 2.27977e-06 9.11908e-06 2.05179e-05 3.64763e-05 5.02189e-05 5.49704e-05 5.07306e-05 3.74998e-05 8.81609e-06 -4.1782e-05 -0.000114295 -0.000208722 -0.000325835 -0.000466406 -0.000630435 -0.000817922 -0.00102777 -0.00125889 -0.00151128 -0.00178494 -0.00207664 -0.00238317 -0.00270451 -0.00304068 -0.00338502 -0.00373088 -0.00407826 -0.00442716 -0.00476779 -0.00509034 -0.00539482 -0.00568124 -0.00594003 -0.00616165 -0.00634609 -0.00649336 -0.00659964 -0.00666111 -0.00667777 -0.00664963 -0.00658235 -0.00648162 -0.00634743 -0.00617978 -0.00599203 -0.00579755 -0.00559633 -0.00538837 -0.00518744 -0.00500732 -0.004848 -0.00470949 -0.00459818 -0.00452045 -0.00447631 -0.00446577 -0.00448551 -0.00453222 -0.00460592 -0.0047066 -0.00482614 -0.00495642 -0.00509744 -0.00524919 -0.00540637 -0.00556366 -0.00572105 -0.00587856 -0.00603697 -0.00619712 -0.00635899 -0.00652259 -0.00669077 -0.00686638 -0.00704944 -0.00723994 -0.00743585 -0.00763516 -0.00783786 -0.00804395 -0.00824496 -0.00843242 -0.00860633 -0.00876669 -0.008905 -0.00901277 -0.00909 -0.00913668 -0.00915192 -0.00913482 -0.00908536 -0.00900355 -0.00889617 -0.00877002 -0.00862509 -0.00846138 -0.0082858 -0.00810526 -0.00791976 -0.0077293 -0.00753407 -0.00733427 -0.00712989 -0.00692094 -0.0067017 -0.00646645 -0.00621519 -0.00594793 -0.00566009 -0.0053471 -0.00500897 -0.00464568 -0.00426113 -0.0038592 -0.00343987 -0.00300317 -0.00256543 -0.002143 -0.00173589 -0.0013441 -0.00098999 -0.000695922 -0.000461898 -0.000287918 -0.000161954 -7.19794e-05 -1.79949e-05 0 0 2.14528e-06 8.58114e-06 1.93076e-05 3.43246e-05 4.43555e-05 4.01237e-05 2.16293e-05 -1.11278e-05 -6.5969e-05 -0.000150716 -0.000265368 -0.000409926 -0.000585099 -0.000791596 -0.00102942 -0.00129856 -0.00159747 -0.00192457 -0.00227987 -0.00266338 -0.00307073 -0.00349758 -0.00394394 -0.00440981 -0.00488618 -0.00536407 -0.00584348 -0.0063244 -0.00679354 -0.00723759 -0.00765654 -0.00805041 -0.00840622 -0.00871104 -0.00896486 -0.00916768 -0.00931445 -0.00940011 -0.00942466 -0.00938811 -0.00929838 -0.00916339 -0.00898313 -0.00875762 -0.00850504 -0.0082436 -0.00797329 -0.00769412 -0.00742436 -0.0071823 -0.00696794 -0.00678127 -0.00662993 -0.00652157 -0.00645618 -0.00643376 -0.00644839 -0.00649415 -0.00657103 -0.00667904 -0.00680591 -0.00693936 -0.00707941 -0.00722604 -0.00737176 -0.00750908 -0.00763801 -0.00775853 -0.00787301 -0.00798381 -0.00809094 -0.00819439 -0.00830075 -0.00841663 -0.00854203 -0.00867693 -0.00882189 -0.00897746 -0.00914362 -0.00932039 -0.00949894 -0.00967047 -0.00983498 -0.00999246 -0.0101327 -0.0102455 -0.0103308 -0.0103887 -0.0104176 -0.0104161 -0.0103842 -0.0103219 -0.0102368 -0.0101363 -0.0100205 -0.00988938 -0.00974958 -0.00960773 -0.00946382 -0.00931786 -0.009167 -0.00900838 -0.008842 -0.00866787 -0.00847571 -0.00825529 -0.00800661 -0.00772965 -0.00741712 -0.00706171 -0.00666341 -0.00622224 -0.00574384 -0.00523388 -0.00469237 -0.00411929 -0.00353803 -0.00297196 -0.00242108 -0.00188539 -0.0013974 -0.000989602 -0.000662003 -0.000414603 -0.000233214 -0.000103651 -2.59127e-05 0 0 1.65858e-06 6.63434e-06 1.49273e-05 2.65373e-05 2.9283e-05 1.09825e-05 -2.8364e-05 -8.87566e-05 -0.000179249 -0.000308894 -0.000477692 -0.000685643 -0.000933266 -0.00122108 -0.00154908 -0.00191728 -0.00232354 -0.00276573 -0.00324385 -0.00375791 -0.00430228 -0.00487132 -0.00546503 -0.00608341 -0.00671479 -0.0073475 -0.00798152 -0.00861687 -0.0092362 -0.00982216 -0.0103748 -0.010894 -0.011363 -0.0117649 -0.0120998 -0.0123675 -0.0125617 -0.012676 -0.0127103 -0.0126646 -0.0125496 -0.0123758 -0.0121433 -0.0118519 -0.0115255 -0.011188 -0.0108392 -0.0104792 -0.0101313 -0.00981886 -0.00954184 -0.00930024 -0.00910279 -0.00895818 -0.00886643 -0.00882752 -0.00883203 -0.0088705 -0.00894295 -0.00904937 -0.00917229 -0.00929422 -0.00941518 -0.00953515 -0.00964405 -0.00973176 -0.0097983 -0.00984366 -0.00987243 -0.00988921 -0.00989398 -0.00988676 -0.00987939 -0.00988371 -0.00989972 -0.00992742 -0.00997147 -0.0100365 -0.0101225 -0.0102295 -0.0103493 -0.0104735 -0.0106022 -0.0107353 -0.0108611 -0.010968 -0.0110558 -0.0111246 -0.0111721 -0.0111962 -0.0111969 -0.0111741 -0.0111357 -0.0110895 -0.0110355 -0.0109737 -0.0109095 -0.0108483 -0.0107899 -0.0107345 -0.0106746 -0.0106028 -0.0105189 -0.0104231 -0.010299 -0.0101303 -0.00991683 -0.00965874 -0.00934516 -0.00896523 -0.00851896 -0.00800636 -0.00743526 -0.00681352 -0.00614112 -0.00541809 -0.00467627 -0.00394753 -0.00323189 -0.00252932 -0.00188476 -0.00134313 -0.000904423 -0.000568641 -0.00031986 -0.00014216 -3.554e-05 0 0 4.62082e-07 1.84833e-06 4.15873e-06 7.39331e-06 -3.67097e-06 -4.42571e-05 -0.000114365 -0.000213995 -0.000352674 -0.000539931 -0.000775764 -0.00106018 -0.00139309 -0.00177442 -0.00220418 -0.00268237 -0.00320619 -0.00377285 -0.00438236 -0.00503471 -0.00572308 -0.00644066 -0.00718745 -0.00796345 -0.00875441 -0.00954611 -0.0103385 -0.0111317 -0.0119043 -0.0126348 -0.0133234 -0.0139701 -0.0145539 -0.0150543 -0.015471 -0.0158042 -0.0160462 -0.0161892 -0.0162333 -0.0161785 -0.0160383 -0.0158263 -0.0155425 -0.0151868 -0.0147889 -0.0143784 -0.0139553 -0.0135195 -0.0130992 -0.0127224 -0.012389 -0.0120991 -0.0118614 -0.0116844 -0.0115683 -0.0115129 -0.0115037 -0.0115259 -0.0115795 -0.0116646 -0.0117569 -0.011832 -0.0118901 -0.0119311 -0.0119418 -0.0119091 -0.0118329 -0.0117134 -0.0115586 -0.0113767 -0.0111679 -0.010932 -0.0106892 -0.0104596 -0.0102433 -0.0100401 -0.00986245 -0.00972244 -0.0096201 -0.00955544 -0.00952332 -0.00951858 -0.00954125 -0.0095913 -0.00965659 -0.00972493 -0.00979633 -0.00987079 -0.00994511 -0.0100161 -0.0100838 -0.0101481 -0.0102158 -0.0102935 -0.0103813 -0.0104792 -0.0105886 -0.0107111 -0.0108467 -0.0109954 -0.0111418 -0.0112708 -0.0113823 -0.0114762 -0.0115275 -0.0115108 -0.0114262 -0.0112735 -0.0110373 -0.0107017 -0.0102667 -0.00973251 -0.00910944 -0.00840803 -0.00762828 -0.00677019 -0.00587588 -0.00498747 -0.00410496 -0.00322835 -0.00241761 -0.00173273 -0.0011737 -0.000740515 -0.00041654 -0.000185129 -4.62822e-05 0 0 -1.80181e-06 -7.20724e-06 -1.62163e-05 -2.88289e-05 -6.31787e-05 -0.000137399 -0.00025149 -0.000405451 -0.000607897 -0.000867442 -0.00118408 -0.00155783 -0.00198731 -0.00247119 -0.00300946 -0.00360213 -0.00424563 -0.00493643 -0.00567452 -0.00645991 -0.00728493 -0.00814192 -0.0090309 -0.00995186 -0.0108886 -0.0118249 -0.0127607 -0.0136961 -0.0146062 -0.0154664 -0.0162765 -0.0170366 -0.0177225 -0.0183099 -0.0187988 -0.0191893 -0.0194726 -0.0196404 -0.0196926 -0.0196291 -0.0194668 -0.0192222 -0.0188955 -0.0184866 -0.0180306 -0.0175627 -0.0170829 -0.0165911 -0.016119 -0.0156982 -0.0153287 -0.0150106 -0.0147503 -0.0145543 -0.0144228 -0.0143557 -0.0143305 -0.0143248 -0.0143385 -0.0143717 -0.0143912 -0.0143638 -0.0142896 -0.0141684 -0.0139836 -0.0137184 -0.0133729 -0.012947 -0.0124547 -0.0119098 -0.0113124 -0.0106623 -0.00999272 -0.00933643 -0.00869345 -0.0080638 -0.0074727 -0.00694538 -0.00648184 -0.00608207 -0.00574832 -0.00548284 -0.00528562 -0.00515667 -0.00508537 -0.00506113 -0.00508395 -0.00515382 -0.00526626 -0.00541679 -0.0056054 -0.00583209 -0.00610004 -0.00641244 -0.00676928 -0.00717057 -0.00760981 -0.00808051 -0.00858268 -0.0091163 -0.00965335 -0.0101658 -0.0106535 -0.0111167 -0.0115171 -0.0118164 -0.0120149 -0.0121123 -0.0120865 -0.011915 -0.0115979 -0.0111352 -0.0105404 -0.00982737 -0.00899598 -0.00804625 -0.00703262 -0.00600952 -0.00497696 -0.00393493 -0.00296148 -0.00213462 -0.00145436 -0.000920709 -0.000517899 -0.000230177 -5.75443e-05 0 0 -5.13309e-06 -2.05324e-05 -4.61978e-05 -8.21294e-05 -0.00014924 -0.000268443 -0.000439738 -0.000663126 -0.000944918 -0.00129143 -0.00170265 -0.0021786 -0.00271595 -0.00331139 -0.00396492 -0.00467655 -0.00544187 -0.00625646 -0.00712034 -0.00803351 -0.00898781 -0.0099751 -0.0109954 -0.0120486 -0.0131173 -0.0141837 -0.0152479 -0.0163099 -0.0173421 -0.0183168 -0.019234 -0.0200937 -0.0208688 -0.021532 -0.0220832 -0.0225226 -0.0228411 -0.0230296 -0.023088 -0.0230164 -0.0228349 -0.0225635 -0.0222023 -0.0217512 -0.0212506 -0.0207408 -0.0202219 -0.0196938 -0.0191906 -0.0187463 -0.018361 -0.0180346 -0.0177695 -0.017568 -0.0174301 -0.0173559 -0.0173126 -0.0172672 -0.01722 -0.0171708 -0.0170754 -0.0168896 -0.0166135 -0.016247 -0.0157693 -0.0151597 -0.0144181 -0.0135446 -0.0125608 -0.0114884 -0.0103274 -0.00907783 -0.00778996 -0.00651409 -0.00525024 -0.0039984 -0.00280222 -0.00170533 -0.000707732 0.000190566 0.000975682 0.00163373 0.00216471 0.00256863 0.00285252 0.00302344 0.00308139 0.00302636 0.00286445 0.00260174 0.00223822 0.00177391 0.00121152 0.000553751 -0.00019938 -0.00104788 -0.00197311 -0.00295644 -0.00399786 -0.00509738 -0.00620925 -0.00728772 -0.00833281 -0.0093445 -0.0102677 -0.0110471 -0.011683 -0.0121751 -0.0124928 -0.0126053 -0.0125124 -0.0122143 -0.0117282 -0.0110715 -0.0102442 -0.00924626 -0.00814648 -0.00701369 -0.00584789 -0.00464908 -0.00351635 -0.0025488 -0.00174642 -0.00110922 -0.000623938 -0.000277306 -6.93265e-05 0 0 -9.53176e-06 -3.8127e-05 -8.57858e-05 -0.000152508 -0.000261856 -0.00043739 -0.000679111 -0.000987018 -0.00136374 -0.00181189 -0.00233147 -0.00292249 -0.00357898 -0.00429501 -0.00507056 -0.00590564 -0.00679489 -0.00773295 -0.00871983 -0.00975551 -0.0108317 -0.0119402 -0.0130809 -0.0142538 -0.0154406 -0.0166228 -0.0178003 -0.0189733 -0.0201118 -0.021186 -0.0221958 -0.0231413 -0.0239927 -0.0247203 -0.0253242 -0.0258044 -0.0261516 -0.0263566 -0.0264196 -0.0263404 -0.0261428 -0.0258503 -0.0254629 -0.0249807 -0.0244489 -0.0239128 -0.0233724 -0.0228277 -0.0223141 -0.0218668 -0.0214858 -0.0211712 -0.020919 -0.0207254 -0.0205902 -0.0205136 -0.0204498 -0.0203533 -0.0202239 -0.0200617 -0.0198093 -0.0194094 -0.018862 -0.018167 -0.0172992 -0.0162331 -0.0149687 -0.0135062 -0.0118769 -0.0101126 -0.00821307 -0.00617845 -0.0040809 -0.00199264 8.63496e-05 0.00215605 0.004149 0.00599772 0.00770221 0.00926246 0.0106487 0.0118311 0.0128098 0.0135846 0.0141571 0.0145288 0.0146997 0.0146698 0.014447 0.0140395 0.0134471 0.0126699 0.0117189 0.0106051 0.00932839 0.00788889 0.00632148 0.0046611 0.00290774 0.00106142 -0.000809513 -0.00263666 -0.00442004 -0.00615963 -0.00777931 -0.00920292 -0.0104305 -0.011462 -0.0122563 -0.0127724 -0.0130103 -0.0129699 -0.0126728 -0.0121405 -0.011373 -0.0103702 -0.00921747 -0.00799999 -0.00671776 -0.00537079 -0.00408224 -0.00297527 -0.00204988 -0.00130606 -0.000734658 -0.000326515 -8.16286e-05 0 0 -1.50105e-05 -6.00419e-05 -0.000135094 -0.000240167 -0.000401044 -0.000643507 -0.000967556 -0.00137319 -0.00185747 -0.00241746 -0.00305315 -0.00376455 -0.00454204 -0.00537598 -0.00626639 -0.00721327 -0.00821014 -0.00925056 -0.0103345 -0.011462 -0.0126253 -0.0138167 -0.0150361 -0.0162837 -0.0175414 -0.0187913 -0.0200334 -0.0212678 -0.0224638 -0.0235906 -0.0246484 -0.0256371 -0.0265257 -0.0272833 -0.02791 -0.0284058 -0.028762 -0.0289704 -0.0290309 -0.0289434 -0.0287354 -0.0284342 -0.0280398 -0.0275522 -0.0270208 -0.0264948 -0.0259743 -0.0254592 -0.024984 -0.0245831 -0.0242565 -0.0240041 -0.0238126 -0.0236684 -0.0235716 -0.0235221 -0.0234579 -0.0233167 -0.0230986 -0.0228035 -0.0223582 -0.0216893 -0.0207968 -0.0196806 -0.0183103 -0.0166554 -0.0147158 -0.0124915 -0.0100269 -0.00736615 -0.00450932 -0.0014564 0.00169235 0.00483667 0.00797654 0.011112 0.0141445 0.0169758 0.0196057 0.0220343 0.0242106 0.0260836 0.0276534 0.0289199 0.0298769 0.0305179 0.0308431 0.0308524 0.030556 0.0299643 0.0290772 0.0278947 0.0264386 0.024731 0.0227718 0.020561 0.0181547 0.0156092 0.0129245 0.0101005 0.00723461 0.00442411 0.00166902 -0.00103067 -0.00357244 -0.00585381 -0.00787477 -0.00963532 -0.0110817 -0.0121601 -0.0128706 -0.0132132 -0.0132142 -0.0129001 -0.0122707 -0.0113262 -0.0101708 -0.00890866 -0.0075399 -0.00606447 -0.00463284 -0.00339546 -0.00235234 -0.00150348 -0.000845705 -0.000375869 -9.39673e-05 0 0 -2.15819e-05 -8.63275e-05 -0.000194237 -0.00034531 -0.000566826 -0.000886064 -0.00130302 -0.00181771 -0.00241925 -0.00309678 -0.00385032 -0.00467985 -0.00557071 -0.00650825 -0.00749244 -0.00852331 -0.00959306 -0.0106939 -0.0118259 -0.012989 -0.0141771 -0.015384 -0.0166098 -0.0178545 -0.0191026 -0.0203387 -0.0215629 -0.022775 -0.0239462 -0.0250472 -0.026078 -0.0270387 -0.0278992 -0.0286292 -0.0292289 -0.0296982 -0.0300306 -0.0302197 -0.0302654 -0.0301677 -0.0299579 -0.0296672 -0.0292956 -0.0288431 -0.0283615 -0.027903 -0.0274673 -0.0270546 -0.0266951 -0.026419 -0.0262263 -0.0261171 -0.0260639 -0.0260391 -0.0260428 -0.0260749 -0.0260522 -0.0258914 -0.0255924 -0.0251553 -0.0244872 -0.0234953 -0.0221796 -0.0205401 -0.0185403 -0.0161437 -0.0133505 -0.0101605 -0.00663449 -0.00283304 0.00124383 0.00559612 0.0100877 0.0145825 0.0190806 0.0235818 0.027948 0.0320408 0.0358604 0.0394066 0.0426011 0.0453654 0.0476995 0.0496033 0.0510604 0.0520539 0.0525839 0.0526503 0.0522661 0.0514442 0.0501844 0.0484869 0.0463872 0.0439211 0.0410886 0.0378896 0.0344074 0.0307251 0.0268428 0.0227603 0.0186119 0.0145313 0.0105186 0.00657385 0.00283252 -0.000569857 -0.00363328 -0.00635774 -0.00867383 -0.0105121 -0.0118726 -0.0127553 -0.0131923 -0.0132158 -0.0128258 -0.0120222 -0.0109315 -0.00967999 -0.00826766 -0.00669454 -0.00514184 -0.00379081 -0.00264144 -0.00169374 -0.00095273 -0.000423435 -0.000105859 0 0 -2.9246e-05 -0.000116984 -0.000263214 -0.000467936 -0.000759201 -0.00116506 -0.00168551 -0.00232056 -0.00304906 -0.00384986 -0.00472297 -0.00566838 -0.00666502 -0.00769179 -0.00874871 -0.00983576 -0.0109436 -0.0120631 -0.0131941 -0.0143366 -0.0154871 -0.0166423 -0.017802 -0.0189662 -0.0201242 -0.021265 -0.0223886 -0.023495 -0.024559 -0.0255556 -0.0264847 -0.0273463 -0.0281132 -0.028758 -0.0292809 -0.0296817 -0.0299573 -0.0301044 -0.0301231 -0.0300133 -0.0298103 -0.0295493 -0.0292303 -0.0288532 -0.0284712 -0.0281373 -0.0278516 -0.0276139 -0.0274472 -0.0273744 -0.0273954 -0.0275102 -0.0276729 -0.0278375 -0.0280038 -0.028172 -0.0282329 -0.0280774 -0.0277054 -0.027117 -0.0261963 -0.0248275 -0.0230105 -0.0207454 -0.0179889 -0.0146981 -0.0108728 -0.00651316 -0.00169975 0.00348676 0.00904637 0.0149791 0.0211052 0.027245 0.0333984 0.0395655 0.0455593 0.0511929 0.0564663 0.0613795 0.0658203 0.0696764 0.072948 0.0756349 0.0777076 0.0791366 0.0799219 0.0800635 0.0795773 0.078479 0.0767688 0.0744466 0.0715647 0.0681754 0.0642788 0.0598748 0.0550795 0.0500087 0.0446625 0.0390409 0.0333222 0.0276849 0.0221287 0.0166539 0.0114356 0.00664894 0.00229401 -0.00162921 -0.00503267 -0.00782833 -0.0100162 -0.0115962 -0.0126072 -0.0130879 -0.0130383 -0.0124584 -0.0114997 -0.010314 -0.00890105 -0.00726098 -0.00560925 -0.00416131 -0.00291718 -0.00187685 -0.00105573 -0.000469214 -0.000117303 0 0 -3.80028e-05 -0.000152011 -0.000342025 -0.000608045 -0.000978169 -0.0014805 -0.00211503 -0.00288176 -0.00374691 -0.00467669 -0.00567111 -0.00673015 -0.00782495 -0.00892663 -0.0100352 -0.0111506 -0.0122619 -0.013358 -0.0144389 -0.0155047 -0.0165554 -0.0175914 -0.0186126 -0.019619 -0.0206063 -0.0215702 -0.0225106 -0.0234276 -0.0243023 -0.0251159 -0.0258684 -0.0265598 -0.0271677 -0.0276697 -0.0280659 -0.0283562 -0.028542 -0.0286246 -0.028604 -0.0284802 -0.0282926 -0.0280805 -0.0278438 -0.0275827 -0.0273498 -0.0271979 -0.027127 -0.0271371 -0.0272404 -0.0274493 -0.0277636 -0.0281834 -0.0286397 -0.0290635 -0.0294547 -0.0298134 -0.0299999 -0.0298746 -0.0294375 -0.0286887 -0.0274856 -0.0256859 -0.0232895 -0.0202965 -0.0166563 -0.0123184 -0.00728277 -0.00154943 0.00477733 0.0115932 0.0188983 0.0266925 0.0347448 0.0428239 0.0509301 0.0590631 0.0669786 0.0744321 0.0814235 0.087953 0.0938682 0.0990168 0.103399 0.107014 0.109819 0.111766 0.112857 0.113092 0.112489 0.111069 0.10883 0.105774 0.101971 0.0974939 0.0923424 0.0865166 0.080171 0.07346 0.0663838 0.0589422 0.0513658 0.0438848 0.0364994 0.0292095 0.0222367 0.0158026 0.0099071 0.00455026 -0.00015825 -0.00410878 -0.00730134 -0.00973591 -0.0114588 -0.0125161 -0.0129081 -0.0126345 -0.0118754 -0.0108106 -0.00944006 -0.00776382 -0.00603506 -0.00450697 -0.00317956 -0.00205281 -0.00115471 -0.000513204 -0.000128301 0 0 -4.75867e-05 -0.000190347 -0.00042828 -0.000761386 -0.00121672 -0.00182135 -0.00257526 -0.00347845 -0.00448178 -0.00553609 -0.00664138 -0.00779765 -0.00896642 -0.0101092 -0.011226 -0.0123167 -0.0133684 -0.0143678 -0.0153149 -0.0162097 -0.0170576 -0.0178639 -0.0186285 -0.0193516 -0.0200384 -0.0206942 -0.0213189 -0.0219126 -0.0224664 -0.0229715 -0.0234279 -0.0238356 -0.0241802 -0.0244476 -0.0246376 -0.0247503 -0.0247935 -0.024775 -0.0246948 -0.0245528 -0.0243928 -0.0242583 -0.0241493 -0.0240659 -0.0240583 -0.0241768 -0.0244215 -0.0247922 -0.0252863 -0.0259007 -0.0266355 -0.0274907 -0.0283684 -0.0291706 -0.0298974 -0.0305486 -0.0309486 -0.0309215 -0.0304674 -0.0295862 -0.028105 -0.025851 -0.0228242 -0.0190245 -0.0143934 -0.00887269 -0.00246222 0.00483798 0.0128954 0.0215775 0.0308843 0.0408158 0.0510806 0.0613871 0.0717354 0.0821254 0.0922462 0.101787 0.110747 0.119126 0.126728 0.133355 0.139007 0.143684 0.147324 0.149865 0.151309 0.151654 0.150924 0.149142 0.146307 0.14242 0.137573 0.131859 0.125279 0.117832 0.109715 0.101126 0.0920646 0.0825313 0.072816 0.0632086 0.0537091 0.0443176 0.0353094 0.0269601 0.0192695 0.0122378 0.00599992 0.000690724 -0.00368975 -0.0071415 -0.00971907 -0.011477 -0.0124154 -0.0125341 -0.0120447 -0.0111585 -0.00987557 -0.00819593 -0.00641393 -0.00482394 -0.00342595 -0.00221996 -0.00124873 -0.00055499 -0.000138748 0 0 -5.77318e-05 -0.000230927 -0.000519586 -0.000923709 -0.00146785 -0.00217658 -0.00304989 -0.00408778 -0.00522265 -0.00638687 -0.00758045 -0.00880339 -0.0100053 -0.0111359 -0.0121951 -0.013183 -0.0140837 -0.0148815 -0.0155762 -0.0161681 -0.0166692 -0.0170922 -0.0174368 -0.0177031 -0.0179102 -0.0180769 -0.0182034 -0.0182895 -0.0183416 -0.0183656 -0.0183618 -0.0183299 -0.0182682 -0.0181747 -0.0180495 -0.0178925 -0.0177205 -0.0175504 -0.0173821 -0.0172156 -0.017099 -0.0170804 -0.0171599 -0.0173373 -0.0176577 -0.0181662 -0.0188628 -0.0197474 -0.0207963 -0.0219857 -0.0233157 -0.0247863 -0.0262632 -0.0276124 -0.0288337 -0.0299273 -0.0306744 -0.0308565 -0.0304736 -0.0295255 -0.0278048 -0.0251037 -0.0214221 -0.0167602 -0.0110513 -0.00422894 0.00370697 0.0127564 0.022753 0.0335306 0.0450891 0.0574284 0.0701868 0.083002 0.0958743 0.108803 0.121403 0.133285 0.144451 0.154899 0.164385 0.172661 0.179727 0.185584 0.190153 0.193357 0.195196 0.195669 0.194803 0.192626 0.189137 0.184336 0.178338 0.171255 0.163088 0.153836 0.143743 0.133052 0.121763 0.109875 0.0977465 0.0857334 0.0738362 0.0620549 0.050727 0.0401904 0.0304449 0.0214907 0.0134923 0.0066144 0.000856947 -0.00378004 -0.00736012 -0.00994687 -0.0115403 -0.0121404 -0.0119936 -0.0113463 -0.0101985 -0.00855024 -0.00674053 -0.00510835 -0.00365372 -0.00237664 -0.00133686 -0.000594159 -0.00014854 0 0 -6.84382e-05 -0.000273753 -0.000615944 -0.00109501 -0.00173156 -0.0025462 -0.00353894 -0.00470976 -0.00596951 -0.00722903 -0.00848831 -0.00974737 -0.0109417 -0.0120068 -0.0129427 -0.0137494 -0.0144079 -0.0148991 -0.015223 -0.0153798 -0.0153904 -0.0152763 -0.0150373 -0.0146735 -0.0142216 -0.0137185 -0.0131641 -0.0125585 -0.0119278 -0.0112984 -0.01067 -0.0100429 -0.00943168 -0.00885125 -0.00830159 -0.00778269 -0.00732291 -0.00695061 -0.00666577 -0.00646841 -0.00641122 -0.00654689 -0.00687543 -0.00739684 -0.00814806 -0.00916608 -0.0104509 -0.0120025 -0.0137704 -0.0157043 -0.0178042 -0.02007 -0.0223241 -0.0243887 -0.0262638 -0.0279495 -0.0291774 -0.0296797 -0.0294561 -0.0285067 -0.0265849 -0.0234438 -0.0190834 -0.0135038 -0.00663001 0.00161286 0.0112248 0.0222058 0.0343503 0.0474525 0.0615125 0.0765303 0.0920633 0.107669 0.123347 0.139097 0.154448 0.168927 0.182535 0.195272 0.206838 0.216933 0.225559 0.232716 0.238308 0.242242 0.244517 0.245135 0.244126 0.241521 0.23732 0.231523 0.224266 0.215681 0.205769 0.194531 0.182257 0.16924 0.155479 0.140974 0.126157 0.111459 0.0968808 0.0824214 0.0684895 0.0554935 0.0434332 0.0323088 0.0223189 0.0136622 0.00633875 0.00034847 -0.0043819 -0.00792566 -0.0102828 -0.0114533 -0.0117221 -0.0113739 -0.0104088 -0.00882673 -0.00701484 -0.00536023 -0.00386289 -0.00252284 -0.0014191 -0.000630709 -0.000157677 0 0 -7.9706e-05 -0.000318824 -0.000717354 -0.0012753 -0.00200785 -0.00293021 -0.00404239 -0.00534437 -0.00672237 -0.00806257 -0.00936497 -0.0106296 -0.0117755 -0.0127219 -0.0134687 -0.0140159 -0.0143408 -0.0144206 -0.0142553 -0.0138448 -0.0132212 -0.0124162 -0.0114301 -0.0102626 -0.00897263 -0.00761876 -0.00620102 -0.00471941 -0.0032252 -0.00176963 -0.00035271 0.00102556 0.00232937 0.00352288 0.00460611 0.00557905 0.00639924 0.00702424 0.00745404 0.00768864 0.00767056 0.00734234 0.00670396 0.00575544 0.00447067 0.00282359 0.000814193 -0.00155753 -0.00420871 -0.00705653 -0.010101 -0.013342 -0.0165511 -0.0194997 -0.0221876 -0.0246151 -0.0264576 -0.0273909 -0.027415 -0.0265298 -0.0244453 -0.0208713 -0.015808 -0.00925516 -0.00112944 0.0086527 0.0200913 0.0331862 0.0476871 0.0633433 0.0801547 0.0981215 0.11671 0.135387 0.154153 0.173006 0.191382 0.208714 0.225001 0.240244 0.254086 0.266173 0.276504 0.285078 0.291786 0.296518 0.299274 0.300053 0.298892 0.295826 0.290856 0.283981 0.275356 0.265137 0.253324 0.239916 0.225256 0.209689 0.193212 0.175828 0.158048 0.140387 0.122843 0.105417 0.088597 0.0728694 0.0582345 0.0446922 0.0324798 0.0218343 0.0127557 0.00524402 -0.000784421 -0.00541341 -0.00864293 -0.010473 -0.0112303 -0.0112414 -0.0105065 -0.00902541 -0.00723687 -0.00557956 -0.00405345 -0.00265856 -0.00149544 -0.000664641 -0.00016616 0 0 -9.11862e-05 -0.000364745 -0.000820676 -0.00145898 -0.00228768 -0.00331482 -0.00454038 -0.00596438 -0.00744504 -0.00884059 -0.010151 -0.0113764 -0.0124166 -0.0131718 -0.0136418 -0.0138268 -0.0136994 -0.0132324 -0.0124256 -0.0112792 -0.00983805 -0.00814731 -0.00620692 -0.00401689 -0