<?xml version="1.0"?> 
<VTKFile type="StructuredGrid" version="0.1"> 
<StructuredGrid WholeExtent="0 128 0 128 0 0"> 
<Piece Extent="0 128 0 128 0 0"> 
<PointData>
<DataArray type="Float32" Name="u" format="ascii" NumberOfComponents="1"> 
0 0 0 0 0 0 0 0 0 0 0 0 0 0 0 0 0 0 0 0 0 0 0 0 0 0 0 0 0 0 0 0 0 0 0 0 0 0 0 0 0 0 0 0 0 0 0 0 0 0 0 0 0 0 0 0 0 0 0 0 0 0 0 0 0 0 0 0 0 0 0 0 0 0 0 0 0 0 0 0 0 0 0 0 0 0 0 0 0 0 0 0 0 0 0 0 0 0 0 0 0 0 0 0 0 0 0 0 0 0 0 0 0 0 0 0 0 0 0 0 0 0 0 0 0 0 0 0 0 0 -5.39838e-08 -2.15935e-07 -4.85854e-07 -8.6374e-07 -1.55989e-06 -2.78459e-06 -4.53785e-06 -6.81966e-06 -9.64285e-06 -1.30202e-05 -1.69518e-05 -2.14376e-05 -2.64073e-05 -3.17906e-05 -3.75875e-05 -4.3798e-05 -5.0352e-05 -5.71796e-05 -6.42806e-05 -7.16551e-05 -7.92055e-05 -8.68339e-05 -9.45406e-05 -0.000102325 -0.000110051 -0.000117581 -0.000124915 -0.000132053 -0.000138848 -0.000145153 -0.00015097 -0.000156297 -0.000161034 -0.000165081 -0.000168439 -0.000171106 -0.00017308 -0.000174355 -0.000174931 -0.000174809 -0.000174091 -0.000172881 -0.000171179 -0.000168984 -0.00016647 -0.00016381 -0.000161003 -0.00015805 -0.000155118 -0.000152376 -0.000149824 -0.000147462 -0.000145373 -0.000143639 -0.000142261 -0.000141238 -0.000140518 -0.000140049 -0.00013983 -0.000139861 -0.000139968 -0.000139978 -0.000139889 -0.000139702 -0.000139211 -0.000138209 -0.000136697 -0.000134674 -0.000132037 -0.000128682 -0.000124609 -0.000119818 -0.00011441 -0.000108487 -0.000102047 -9.50905e-05 -8.79124e-05 -8.08062e-05 -7.37719e-05 -6.68096e-05 -6.02673e-05 -5.44932e-05 -4.94872e-05 -4.52494e-05 -4.19924e-05 -3.9929e-05 -3.9059e-05 -3.93827e-05 -4.08542e-05 -4.3428e-05 -4.71041e-05 -5.18825e-05 -5.74742e-05 -6.35905e-05 -7.02312e-05 -7.73965e-05 -8.4689e-05 -9.17117e-05 -9.84644e-05 -0.000104947 -0.000110824 -0.000115759 -0.000119751 -0.000122801 -0.000124749 -0.000125433 -0.000124854 -0.000123011 -0.000119949 -0.000115711 -0.000110299 -0.00010371 -9.61866e-05 -8.79669e-05 -7.90513e-05 -6.94398e-05 -5.96003e-05 -5.00008e-05 -4.06412e-05 -3.15215e-05 -2.32241e-05 -1.63316e-05 -1.08439e-05 -6.76099e-06 -3.80306e-06 -1.69025e-06 -4.22562e-07 0 0 -2.15935e-07 -8.6374e-07 -1.94342e-06 -3.45496e-06 -6.23955e-06 -1.11384e-05 -1.81514e-05 -2.72786e-05 -3.85714e-05 -5.2081e-05 -6.78073e-05 -8.57504e-05 -0.000105629 -0.000127162 -0.00015035 -0.000175192 -0.000201408 -0.000228718 -0.000257122 -0.000286621 -0.000316822 -0.000347336 -0.000378162 -0.000409301 -0.000440205 -0.000470324 -0.000499659 -0.000528211 -0.000555391 -0.000580614 -0.000603879 -0.000625186 -0.000644135 -0.000660325 -0.000673755 -0.000684425 -0.000692319 -0.000697419 -0.000699724 -0.000699235 -0.000696364 -0.000691524 -0.000684715 -0.000675937 -0.000665882 -0.00065524 -0.000644013 -0.000632199 -0.000620472 -0.000609505 -0.000599297 -0.000589849 -0.000581491 -0.000574556 -0.000569042 -0.000564951 -0.000562072 -0.000560194 -0.000559318 -0.000559444 -0.000559874 -0.000559911 -0.000559557 -0.000558809 -0.000556845 -0.000552837 -0.000546788 -0.000538696 -0.000528147 -0.000514727 -0.000498435 -0.000479272 -0.000457642 -0.000433946 -0.000408186 -0.000380362 -0.000351649 -0.000323225 -0.000295088 -0.000267238 -0.000241069 -0.000217973 -0.000197949 -0.000180998 -0.00016797 -0.000159716 -0.000156236 -0.000157531 -0.000163417 -0.000173712 -0.000188416 -0.00020753 -0.000229897 -0.000254362 -0.000280925 -0.000309586 -0.000338756 -0.000366847 -0.000393858 -0.000419789 -0.000443296 -0.000463034 -0.000479004 -0.000491205 -0.000498995 -0.000501732 -0.000499415 -0.000492044 -0.000479796 -0.000462846 -0.000441195 -0.000414842 -0.000384746 -0.000351868 -0.000316205 -0.000277759 -0.000238401 -0.000200003 -0.000162565 -0.000126086 -9.28965e-05 -6.53264e-05 -4.33756e-05 -2.7044e-05 -1.52122e-05 -6.76099e-06 -1.69025e-06 0 0 -4.85854e-07 -1.94342e-06 -4.37268e-06 -7.77366e-06 -1.4039e-05 -2.50613e-05 -4.08406e-05 -6.1377e-05 -8.67857e-05 -0.000117182 -0.000152566 -0.000192938 -0.000237666 -0.000286115 -0.000338287 -0.000394182 -0.000453168 -0.000514616 -0.000578526 -0.000644896 -0.000712849 -0.000781506 -0.000850865 -0.000920928 -0.000990461 -0.00105823 -0.00112423 -0.00118847 -0.00124963 -0.00130638 -0.00135873 -0.00140667 -0.0014493 -0.00148573 -0.00151595 -0.00153996 -0.00155772 -0.00156919 -0.00157438 -0.00157328 -0.00156682 -0.00155593 -0.00154061 -0.00152086 -0.00149823 -0.00147429 -0.00144903 -0.00142245 -0.00139606 -0.00137139 -0.00134842 -0.00132716 -0.00130836 -0.00129275 -0.00128035 -0.00127114 -0.00126466 -0.00126044 -0.00125847 -0.00125875 -0.00125972 -0.0012598 -0.001259 -0.00125732 -0.0012529 -0.00124388 -0.00123027 -0.00121207 -0.00118833 -0.00115814 -0.00112148 -0.00107836 -0.00102969 -0.000976379 -0.000918419 -0.000855815 -0.000791211 -0.000727255 -0.000663947 -0.000601286 -0.000542406 -0.000490439 -0.000445385 -0.000407245 -0.000377932 -0.000359361 -0.000351531 -0.000354444 -0.000367688 -0.000390852 -0.000423937 -0.000466942 -0.000517268 -0.000572314 -0.000632081 -0.000696568 -0.000762201 -0.000825405 -0.000886179 -0.000944525 -0.000997416 -0.00104183 -0.00107776 -0.00110521 -0.00112274 -0.0011289 -0.00112368 -0.0011071 -0.00107954 -0.0010414 -0.000992688 -0.000933394 -0.00086568 -0.000791702 -0.000711462 -0.000624958 -0.000536403 -0.000450007 -0.000365771 -0.000283693 -0.000209017 -0.000146984 -9.75951e-05 -6.08489e-05 -3.42275e-05 -1.52122e-05 -3.80306e-06 0 0 -8.6374e-07 -3.45496e-06 -7.77366e-06 -1.38198e-05 -2.49582e-05 -4.45534e-05 -7.26056e-05 -0.000109115 -0.000154286 -0.000208324 -0.000271229 -0.000343002 -0.000422517 -0.000508649 -0.0006014 -0.000700768 -0.000805633 -0.000914873 -0.00102849 -0.00114648 -0.00126729 -0.00138934 -0.00151265 -0.00163721 -0.00176082 -0.0018813 -0.00199864 -0.00211284 -0.00222156 -0.00232245 -0.00241551 -0.00250074 -0.00257654 -0.0026413 -0.00269502 -0.0027377 -0.00276928 -0.00278968 -0.0027989 -0.00279694 -0.00278546 -0.0027661 -0.00273886 -0.00270375 -0.00266353 -0.00262096 -0.00257605 -0.0025288 -0.00248189 -0.00243802 -0.00239719 -0.00235939 -0.00232596 -0.00229822 -0.00227617 -0.0022598 -0.00224829 -0.00224078 -0.00223727 -0.00223777 -0.00223949 -0.00223965 -0.00223823 -0.00223524 -0.00222738 -0.00221135 -0.00218715 -0.00215478 -0.00211259 -0.00205891 -0.00199374 -0.00191709 -0.00183057 -0.00173579 -0.00163275 -0.00152145 -0.0014066 -0.0012929 -0.00118035 -0.00106895 -0.000964277 -0.000871891 -0.000791795 -0.00072399 -0.000671879 -0.000638863 -0.000624945 -0.000630123 -0.000653667 -0.000694848 -0.000753666 -0.000830119 -0.000919588 -0.00101745 -0.0011237 -0.00123834 -0.00135502 -0.00146739 -0.00157543 -0.00167916 -0.00177318 -0.00185214 -0.00191602 -0.00196482 -0.00199598 -0.00200693 -0.00199766 -0.00196818 -0.00191918 -0.00185138 -0.00176478 -0.00165937 -0.00153899 -0.00140747 -0.00126482 -0.00111104 -0.000953605 -0.000800013 -0.000650259 -0.000504344 -0.000371586 -0.000261306 -0.000173502 -0.000108176 -6.08489e-05 -2.7044e-05 -6.76099e-06 0 0 -1.58604e-06 -6.34415e-06 -1.42743e-05 -2.53766e-05 -4.48221e-05 -7.77819e-05 -0.000124256 -0.000184245 -0.000257864 -0.000345232 -0.000446348 -0.000561212 -0.000687983 -0.000824821 -0.000971726 -0.0011287 -0.00129392 -0.00146559 -0.0016437 -0.00182826 -0.00201681 -0.0022069 -0.00239853 -0.00259171 -0.00278308 -0.00296927 -0.0031503 -0.00332616 -0.00349332 -0.00364825 -0.00379095 -0.00392143 -0.00403733 -0.00413632 -0.00421839 -0.00428354 -0.00433179 -0.00436313 -0.00437756 -0.00437509 -0.0043583 -0.00432977 -0.00428951 -0.00423751 -0.00417797 -0.00411508 -0.00404884 -0.00397926 -0.0039103 -0.00384592 -0.00378612 -0.0037309 -0.00368202 -0.00364125 -0.00360858 -0.00358401 -0.0035659 -0.00355261 -0.00354413 -0.00354046 -0.00353696 -0.003529 -0.00351657 -0.00349967 -0.00347302 -0.00343134 -0.00337463 -0.0033029 -0.00321373 -0.00310472 -0.00297588 -0.00282721 -0.00266181 -0.00248279 -0.00229016 -0.00208392 -0.00187231 -0.00166359 -0.00145775 -0.0012548 -0.00106435 -0.000896011 -0.000749787 -0.000625678 -0.000529564 -0.000467327 -0.000438966 -0.000444481 -0.000482713 -0.000552504 -0.000653852 -0.000786759 -0.000943413 -0.00111601 -0.00130454 -0.001509 -0.00171857 -0.00192239 -0.00212047 -0.00231281 -0.00249012 -0.00264313 -0.00277184 -0.00287624 -0.00295177 -0.00299384 -0.00300248 -0.00297766 -0.00292036 -0.00283154 -0.0027112 -0.00255933 -0.00238213 -0.00218577 -0.00197025 -0.00173557 -0.0014937 -0.0012566 -0.00102426 -0.000796701 -0.000588847 -0.000415641 -0.000277083 -0.000173173 -9.74097e-05 -4.32932e-05 -1.08233e-05 0 0 -2.88919e-06 -1.15567e-05 -2.60027e-05 -4.6227e-05 -7.94554e-05 -0.000132914 -0.000206602 -0.00030052 -0.000414315 -0.000547634 -0.000700475 -0.00087284 -0.00106187 -0.00126469 -0.00148131 -0.00171172 -0.00195317 -0.00220288 -0.00246086 -0.00272711 -0.00299807 -0.00327021 -0.00354353 -0.00381802 -0.00408903 -0.00435191 -0.00460666 -0.00485327 -0.00508701 -0.00530317 -0.00550174 -0.00568272 -0.00584315 -0.00598007 -0.00609347 -0.00618336 -0.00625004 -0.0062938 -0.00631465 -0.00631259 -0.00629136 -0.00625469 -0.00620257 -0.00613502 -0.00605775 -0.00597646 -0.00589117 -0.00580186 -0.00571364 -0.00563159 -0.00555572 -0.00548602 -0.00542423 -0.00537211 -0.00532964 -0.00529683 -0.00527046 -0.00524732 -0.00522741 -0.00521073 -0.00518987 -0.00515742 -0.00511337 -0.00505773 -0.00498257 -0.00487997 -0.00474993 -0.00459246 -0.00440456 -0.00418326 -0.00392857 -0.00364047 -0.00332496 -0.00298802 -0.00262967 -0.00224988 -0.00186286 -0.00148277 -0.00110961 -0.000743391 -0.000400287 -9.64788e-05 0.000168033 0.000393249 0.000569257 0.000686146 0.000743916 0.000742567 0.000683815 0.000569377 0.000399252 0.000173442 -9.53034e-05 -0.000394233 -0.000723345 -0.00108264 -0.00145418 -0.00182003 -0.00218017 -0.00253462 -0.00286776 -0.00316399 -0.00342329 -0.00364568 -0.00382314 -0.00394767 -0.00401927 -0.00403793 -0.0040047 -0.00392061 -0.00378567 -0.00359987 -0.00337259 -0.00311321 -0.00282173 -0.00249815 -0.00216038 -0.00182634 -0.00149602 -0.00116943 -0.000869045 -0.000617342 -0.000414323 -0.000259987 -0.000146243 -6.49969e-05 -1.62492e-05 0 0 -4.77319e-06 -1.90927e-05 -4.29587e-05 -7.6371e-05 -0.000128858 -0.000209949 -0.000319644 -0.000457942 -0.000623638 -0.000815528 -0.00103361 -0.00127789 -0.00154416 -0.00182825 -0.00213014 -0.00244984 -0.00278336 -0.00312674 -0.00347996 -0.00384302 -0.00421108 -0.00457929 -0.00494764 -0.00531614 -0.00567869 -0.00602921 -0.0063677 -0.00669416 -0.00700265 -0.00728723 -0.00754789 -0.00778464 -0.00799402 -0.00817256 -0.00832028 -0.00843716 -0.00852403 -0.0085817 -0.00861018 -0.00860946 -0.00858464 -0.00854085 -0.00847807 -0.0083963 -0.00830288 -0.00820512 -0.00810303 -0.0079966 -0.00789191 -0.00779504 -0.00770599 -0.00762475 -0.00755259 -0.00749079 -0.00743934 -0.00739825 -0.00736196 -0.00732492 -0.00728713 -0.0072486 -0.00719823 -0.0071249 -0.00702863 -0.00690941 -0.00675602 -0.00655723 -0.00631304 -0.00602346 -0.00568508 -0.00529453 -0.00485179 -0.00435688 -0.00382002 -0.00325148 -0.00265126 -0.00201934 -0.00137823 -0.000750426 -0.000135923 0.000465277 0.00102791 0.0015267 0.00196167 0.00233279 0.00262459 0.00282156 0.0029237 0.00293102 0.00284592 0.00267079 0.00240565 0.00205048 0.00162474 0.00114787 0.000619872 4.07425e-05 -0.000561861 -0.00116028 -0.00175453 -0.00234459 -0.0029061 -0.00341469 -0.00387037 -0.00427313 -0.0046101 -0.0048684 -0.00504803 -0.005149 -0.00517221 -0.00511862 -0.0049882 -0.00478097 -0.00451035 -0.00418978 -0.00381925 -0.00339876 -0.00295365 -0.00250924 -0.00206553 -0.00162253 -0.00121218 -0.000866408 -0.000585222 -0.00036862 -0.000207349 -9.2155e-05 -2.30387e-05 0 0 -7.23804e-06 -2.89522e-05 -6.51424e-05 -0.000115809 -0.000193031 -0.000308888 -0.000463381 -0.000656509 -0.000885833 -0.00114892 -0.00144575 -0.00177635 -0.00213488 -0.0025155 -0.00291822 -0.00334305 -0.00378451 -0.00423716 -0.00470099 -0.00517601 -0.00565585 -0.00613413 -0.00661087 -0.00708606 -0.00755204 -0.00800117 -0.00843344 -0.00884885 -0.00924023 -0.00960042 -0.00992939 -0.0102272 -0.0104899 -0.0107138 -0.0108988 -0.0110449 -0.0111538 -0.0112268 -0.0112641 -0.0112657 -0.0112382 -0.0111883 -0.011116 -0.0110213 -0.0109134 -0.010801 -0.0106844 -0.0105635 -0.0104451 -0.0103363 -0.0102369 -0.0101471 -0.0100671 -0.00999731 -0.0099377 -0.00988828 -0.00984039 -0.0097854 -0.00972329 -0.00965406 -0.00956202 -0.00943145 -0.00926235 -0.00905472 -0.00879337 -0.00846312 -0.00806396 -0.0075959 -0.0070553 -0.00643852 -0.00574556 -0.00497643 -0.004147 -0.00327317 -0.00235493 -0.00139229 -0.000418438 0.000533429 0.00146331 0.0023712 0.00322024 0.00397354 0.00463111 0.00519295 0.00563642 0.0059389 0.00610039 0.00612088 0.0060036 0.00575175 0.00536534 0.00484437 0.00421672 0.00351031 0.00272512 0.00186115 0.000958393 5.68308e-05 -0.000843536 -0.00174271 -0.00260513 -0.00339526 -0.00411308 -0.00475861 -0.00531266 -0.00575605 -0.00608878 -0.00631085 -0.00642289 -0.00642554 -0.00631879 -0.00610264 -0.00579542 -0.00541548 -0.00496281 -0.00443741 -0.0038735 -0.00330529 -0.0027328 -0.00215601 -0.00161825 -0.00116284 -0.00078978 -0.00049907 -0.000280727 -0.000124768 -3.11919e-05 0 0 -1.03236e-05 -4.12945e-05 -9.29126e-05 -0.000165178 -0.000272742 -0.000430256 -0.000637721 -0.000895135 -0.00119813 -0.00154233 -0.00192774 -0.00235436 -0.00281427 -0.00329956 -0.00381023 -0.00434627 -0.00490049 -0.00546568 -0.00604184 -0.00662897 -0.00721914 -0.00780445 -0.00838489 -0.00896045 -0.00952218 -0.0100611 -0.0105773 -0.0110706 -0.0115333 -0.0119574 -0.0123431 -0.0126902 -0.0129952 -0.0132546 -0.0134683 -0.0136364 -0.0137616 -0.0138468 -0.0138919 -0.013897 -0.0138703 -0.0138203 -0.013747 -0.0136504 -0.0135407 -0.0134283 -0.0133131 -0.0131952 -0.0130814 -0.0129786 -0.0128868 -0.012806 -0.0127344 -0.0126703 -0.0126136 -0.0125644 -0.0125096 -0.0124362 -0.012344 -0.0122332 -0.0120822 -0.0118695 -0.0115951 -0.0112589 -0.0108412 -0.0103221 -0.00970166 -0.00897987 -0.00815344 -0.00721908 -0.00617677 -0.00502654 -0.00379216 -0.00249744 -0.00114239 0.000273008 0.00170128 0.00309495 0.00445404 0.00577854 0.00701636 0.00811543 0.00907575 0.00989732 0.0105482 0.0109964 0.0112419 0.0112848 0.0111291 0.010779 0.0102345 0.00949554 0.00860077 0.00758884 0.00645972 0.00521343 0.00390585 0.00259286 0.00127447 -4.93358e-05 -0.00132834 -0.00251233 -0.00360132 -0.0045953 -0.0054666 -0.00618755 -0.00675813 -0.00717836 -0.00744807 -0.00756709 -0.00753542 -0.00735308 -0.00704412 -0.00663264 -0.00611864 -0.00550211 -0.00482769 -0.00414 -0.00343905 -0.00272485 -0.00205401 -0.00148319 -0.00101238 -0.000641584 -0.000360891 -0.000160396 -4.0099e-05 0 0 -1.40698e-05 -5.62793e-05 -0.000126628 -0.000225117 -0.000368762 -0.00057458 -0.000842571 -0.00117274 -0.00155775 -0.00199031 -0.0024704 -0.00299803 -0.0035626 -0.00415353 -0.0047708 -0.00541443 -0.00607518 -0.00674383 -0.00742036 -0.00810479 -0.00878777 -0.00945996 -0.0101214 -0.010772 -0.0114022 -0.0120024 -0.0125725 -0.0131127 -0.0136153 -0.014073 -0.0144857 -0.0148535 -0.0151741 -0.0154456 -0.015668 -0.0158412 -0.01597 -0.0160592 -0.0161089 -0.016119 -0.0160995 -0.0160604 -0.0160018 -0.0159236 -0.0158364 -0.0157508 -0.0156668 -0.0155845 -0.015509 -0.0154455 -0.0153939 -0.0153544 -0.0153212 -0.0152884 -0.0152561 -0.0152242 -0.0151735 -0.0150846 -0.0149575 -0.0147922 -0.0145599 -0.0142316 -0.0138073 -0.0132872 -0.0126459 -0.0118586 -0.0109251 -0.00984545 -0.00861775 -0.00724005 -0.00571233 -0.00403461 -0.00224176 -0.000368654 0.0015847 0.0036183 0.00566566 0.00766031 0.00960223 0.0114914 0.0132559 0.0148238 0.016195 0.0173695 0.0183033 0.0189522 0.0193162 0.0193954 0.0191948 0.0187194 0.0179693 0.0169444 0.015697 0.0142792 0.012691 0.0109324 0.00907978 0.00720935 0.00532115 0.00341517 0.0015608 -0.000172588 -0.001785 -0.00327642 -0.00460775 -0.00573985 -0.00667273 -0.00740639 -0.00793905 -0.00826896 -0.0083961 -0.00832049 -0.00807277 -0.0076836 -0.00715297 -0.00648088 -0.00572397 -0.00493886 -0.00412555 -0.00328404 -0.00248623 -0.00180402 -0.00123741 -0.000786408 -0.000442355 -0.000196602 -4.91505e-05 0 0 -1.84766e-05 -7.39066e-05 -0.00016629 -0.000295626 -0.000481091 -0.00074186 -0.00107793 -0.00148931 -0.00196471 -0.00249285 -0.00307374 -0.00370737 -0.00437988 -0.00507741 -0.00579996 -0.00654753 -0.00730859 -0.0080716 -0.00883656 -0.00960348 -0.0103617 -0.0111007 -0.0118203 -0.0125206 -0.0131921 -0.0138249 -0.0144193 -0.0149751 -0.0154864 -0.0159471 -0.0163573 -0.016717 -0.0170268 -0.0172871 -0.0174979 -0.0176593 -0.0177789 -0.0178641 -0.0179151 -0.0179318 -0.0179258 -0.0179086 -0.0178803 -0.017841 -0.0178004 -0.0177686 -0.0177456 -0.0177314 -0.0177278 -0.0177368 -0.0177583 -0.0177924 -0.0178274 -0.0178516 -0.017865 -0.0178676 -0.017832 -0.0177307 -0.0175637 -0.017331 -0.0169949 -0.0165176 -0.0158992 -0.0151395 -0.0142077 -0.0130726 -0.0117342 -0.0101926 -0.00844823 -0.00650143 -0.00435224 -0.00200065 0.000504204 0.00311319 0.00582632 0.00864358 0.0114747 0.0142295 0.0169079 0.0195099 0.021939 0.0240986 0.0259888 0.0276095 0.0289017 0.0298063 0.0303233 0.0304527 0.0302006 0.0295729 0.0285698 0.0271911 0.0255055 0.0235814 0.021419 0.0190182 0.0164802 0.0139063 0.0112965 0.00865082 0.00606229 0.00362398 0.0013359 -0.000801971 -0.0027361 -0.00441297 -0.00583258 -0.00699494 -0.00789586 -0.00853115 -0.00890083 -0.00900488 -0.00888137 -0.00856834 -0.00806579 -0.00737373 -0.00656235 -0.00570187 -0.00479228 -0.00383359 -0.0029149 -0.00212532 -0.00146487 -0.000933542 -0.000525118 -0.000233386 -5.83464e-05 0 0 -2.35441e-05 -9.41763e-05 -0.000211897 -0.000376705 -0.000609729 -0.000932095 -0.0013438 -0.00184485 -0.00241899 -0.00304996 -0.00373775 -0.00448237 -0.0052661 -0.0060712 -0.00689769 -0.00774556 -0.0086007 -0.00944899 -0.0102904 -0.011125 -0.011941 -0.0127266 -0.0134817 -0.0142065 -0.0148918 -0.0155288 -0.0161175 -0.0166578 -0.0171464 -0.0175798 -0.0179579 -0.0182809 -0.0185531 -0.0187788 -0.0189581 -0.0190908 -0.0191883 -0.0192615 -0.0193105 -0.0193353 -0.0193491 -0.0193648 -0.0193827 -0.0194025 -0.0194328 -0.0194817 -0.0195494 -0.0196358 -0.0197379 -0.0198526 -0.0199799 -0.0201199 -0.020253 -0.0203599 -0.0204404 -0.0204946 -0.0204851 -0.0203745 -0.0201626 -0.0198497 -0.0193874 -0.0187277 -0.0178706 -0.016816 -0.0155264 -0.0139641 -0.0121291 -0.0100214 -0.00764488 -0.00500323 -0.00209649 0.00107534 0.00444572 0.0079481 0.0115825 0.0153489 0.0191284 0.0228025 0.026371 0.0298339 0.0330655 0.0359399 0.0384572 0.0406173 0.0423434 0.0435587 0.0442631 0.0444567 0.0441465 0.0433395 0.0420359 0.0402355 0.0380261 0.0354955 0.0326437 0.0294706 0.0261071 0.0226837 0.0192005 0.0156576 0.0121761 0.00887738 0.00576135 0.00282806 0.000148355 -0.00220689 -0.00423768 -0.00594401 -0.00731848 -0.00835367 -0.0090496 -0.00940625 -0.00946991 -0.00928687 -0.00885711 -0.00818065 -0.00734283 -0.00642903 -0.00543925 -0.00437349 -0.00334001 -0.0024471 -0.00169476 -0.00108299 -0.00060918 -0.000270747 -6.76866e-05 0 0 -2.91487e-05 -0.000116595 -0.000262338 -0.000466378 -0.000751385 -0.00114003 -0.0016323 -0.00222821 -0.00290528 -0.00364102 -0.00443544 -0.00528854 -0.00617789 -0.00708108 -0.0079981 -0.00892897 -0.00985659 -0.0107639 -0.0116509 -0.0125175 -0.0133513 -0.0141394 -0.014882 -0.015579 -0.0162232 -0.0168076 -0.0173322 -0.0177969 -0.0182028 -0.0185508 -0.0188412 -0.0190737 -0.0192586 -0.0194061 -0.0195161 -0.0195886 -0.0196397 -0.0196851 -0.019725 -0.0197593 -0.0198026 -0.0198692 -0.0199594 -0.020073 -0.0202151 -0.0203908 -0.0206002 -0.0208432 -0.0211093 -0.0213879 -0.0216789 -0.0219825 -0.0222684 -0.0225066 -0.0226971 -0.0228398 -0.022885 -0.0227826 -0.0225326 -0.0221352 -0.0215298 -0.0206561 -0.019514 -0.0181037 -0.0163802 -0.0142987 -0.0118591 -0.00906157 -0.00591471 -0.00242724 0.00140081 0.00556946 0.00999053 0.0145758 0.0193254 0.0242391 0.029164 0.0339468 0.0385876 0.0430864 0.0472829 0.0510166 0.0542877 0.0570962 0.0593444 0.0609348 0.0618674 0.0621423 0.0617675 0.060751 0.059093 0.0567934 0.053962 0.0507084 0.0470328 0.0429351 0.0385804 0.034134 0.0295956 0.0249655 0.0203984 0.0160492 0.011918 0.00800463 0.0044013 0.00120005 -0.00159912 -0.00399622 -0.00597937 -0.00753668 -0.00866816 -0.0093738 -0.00970901 -0.00972919 -0.00943432 -0.00882442 -0.00800187 -0.00706906 -0.00602598 -0.00487265 -0.0037385 -0.00275299 -0.00191611 -0.00122786 -0.000690671 -0.000306965 -7.67412e-05 0 0 -3.5167e-05 -0.000140668 -0.000316503 -0.000562671 -0.000902769 -0.00136039 -0.00193554 -0.00262821 -0.00340823 -0.00424543 -0.00513981 -0.00609136 -0.0070719 -0.00805321 -0.0090353 -0.0100182 -0.0109813 -0.0119042 -0.0127868 -0.0136291 -0.0144181 -0.0151409 -0.0157974 -0.0163877 -0.0169081 -0.0173549 -0.0177283 -0.0180282 -0.0182628 -0.0184403 -0.0185606 -0.0186238 -0.0186487 -0.0186539 -0.0186396 -0.0186057 -0.0185747 -0.0185689 -0.0185885 -0.0186335 -0.0187194 -0.0188619 -0.0190611 -0.0193169 -0.0196289 -0.0199966 -0.02042 -0.0208991 -0.0214122 -0.0219377 -0.0224755 -0.0230257 -0.0235436 -0.023985 -0.0243497 -0.0246378 -0.0247836 -0.0247217 -0.0244521 -0.0239746 -0.0232146 -0.0220971 -0.0206222 -0.0187898 -0.0165473 -0.013842 -0.0106738 -0.00704283 -0.00296474 0.00154473 0.00648558 0.0118578 0.0175463 0.0234361 0.0295271 0.0358194 0.0421185 0.04823 0.054154 0.0598904 0.0652386 0.0699978 0.0741681 0.0777494 0.0806204 0.08266 0.083868 0.0842445 0.0837985 0.0825392 0.0804666 0.0775807 0.074016 0.0699071 0.0652541 0.0600569 0.0545204 0.0488495 0.0430442 0.0371045 0.0312252 0.0256011 0.0202323 0.0151187 0.0103785 0.00612954 0.002372 -0.00089419 -0.00365098 -0.00588034 -0.00758226 -0.00875675 -0.00946927 -0.0097853 -0.00970482 -0.00922784 -0.00847593 -0.00757065 -0.006512 -0.00529998 -0.00408728 -0.0030266 -0.00211793 -0.00136128 -0.000765722 -0.000340321 -8.50802e-05 0 0 -4.1599e-05 -0.000166396 -0.000374391 -0.000665584 -0.00106388 -0.00159319 -0.00225352 -0.00304486 -0.00392787 -0.0048632 -0.00585086 -0.00689085 -0.00794811 -0.00898759 -0.0100093 -0.0110132 -0.0119748 -0.0128698 -0.0136981 -0.0144597 -0.0151416 -0.0157311 -0.0162282 -0.0166327 -0.0169464 -0.0171708 -0.017306 -0.0173519 -0.0173266 -0.0172481 -0.0171163 -0.0169314 -0.0167234 -0.0165225 -0.0163287 -0.016142 -0.0159932 -0.0159129 -0.0159011 -0.0159578 -0.0160995 -0.0163429 -0.0166878 -0.0171344 -0.0176742 -0.018299 -0.0190087 -0.0198034 -0.0206466 -0.0215021 -0.0223697 -0.0232495 -0.0240788 -0.0247951 -0.0253983 -0.0258884 -0.0261811 -0.0261919 -0.0259209 -0.025368 -0.0244418 -0.0230508 -0.021195 -0.0188743 -0.0160277 -0.012594 -0.00857315 -0.0039652 0.00120503 0.0069127 0.0131578 0.0199404 0.0271132 0.034529 0.0421878 0.0500897 0.057992 0.0656521 0.0730701 0.0802459 0.0869326 0.0928834 0.0980981 0.102577 0.106172 0.108734 0.110265 0.110763 0.11024 0.108704 0.106157 0.102597 0.0981882 0.0930916 0.0873075 0.0808359 0.0739268 0.0668302 0.0595461 0.0520745 0.0446564 0.037533 0.0307043 0.0241703 0.0180798 0.0125816 0.00767567 0.00336208 -0.000333318 -0.00338465 -0.0057919 -0.00755509 -0.00875069 -0.0094552 -0.0096686 -0.00939091 -0.00876501 -0.0079338 -0.00689729 -0.00565547 -0.00438635 -0.00326794 -0.00230024 -0.00148326 -0.000834333 -0.000370815 -9.27036e-05 0 0 -4.84447e-05 -0.000193779 -0.000436002 -0.000775115 -0.00123472 -0.00183843 -0.00258624 -0.00347815 -0.00446417 -0.00549432 -0.0065686 -0.00768701 -0.00880655 -0.00988422 -0.01092 -0.011914 -0.0128372 -0.0136608 -0.0143848 -0.0150093 -0.0155218 -0.01591 -0.0161741 -0.0163139 -0.0163381 -0.0162551 -0.016065 -0.0157678 -0.0153941 -0.0149742 -0.0145083 -0.0139963 -0.0134826 -0.0130116 -0.0125833 -0.0121976 -0.0118953 -0.011717 -0.0116626 -0.0117322 -0.011943 -0.0123121 -0.0128396 -0.0135254 -0.014351 -0.0152981 -0.0163664 -0.0175561 -0.0188125 -0.020081 -0.0213615 -0.022654 -0.023874 -0.0249369 -0.0258429 -0.0265918 -0.0270773 -0.027193 -0.0269391 -0.0263153 -0.0252115 -0.0235172 -0.0212325 -0.0183573 -0.0148214 -0.0105547 -0.00555711 0.000171329 0.00659459 0.0136767 0.0214175 0.0298172 0.038691 0.0478544 0.0573074 0.06705 0.0767844 0.0862131 0.0953359 0.104153 0.112365 0.119673 0.126078 0.131579 0.135998 0.139158 0.141058 0.141699 0.141091 0.139246 0.136163 0.131843 0.126479 0.120262 0.113193 0.105272 0.0967998 0.0880763 0.0791015 0.0698756 0.0606922 0.051845 0.0433341 0.0351594 0.0275053 0.0205562 0.0143119 0.0087726 0.00397362 -4.96079e-05 -0.00329709 -0.00576882 -0.00755327 -0.00873888 -0.00932567 -0.00931362 -0.00886911 -0.00815853 -0.00718187 -0.00593913 -0.00463571 -0.00347701 -0.00246304 -0.00159378 -0.000896503 -0.000398446 -9.96114e-05 0 0 -5.55002e-05 -0.000222001 -0.000499502 -0.000888003 -0.00140992 -0.00208769 -0.00292129 -0.00391073 -0.0049937 -0.00610788 -0.00725327 -0.00842988 -0.00958537 -0.0106674 -0.0116761 -0.0126113 -0.0134391 -0.0141256 -0.0146707 -0.0150745 -0.015326 -0.015414 -0.0153386 -0.0150998 -0.0147154 -0.0142034 -0.0135639 -0.0127967 -0.0119487 -0.0110666 -0.0101505 -0.00920036 -0.00827854 -0.00744741 -0.00670696 -0.00605721 -0.00555104 -0.00524135 -0.00512815 -0.00521144 -0.00550869 -0.00603737 -0.00679749 -0.00778904 -0.00898033 -0.0103397 -0.011867 -0.0135624 -0.0153482 -0.0171468 -0.018958 -0.0207819 -0.0225074 -0.024023 -0.0253288 -0.0264248 -0.0271788 -0.0274588 -0.0272647 -0.0265965 -0.0253228 -0.0233119 -0.020564 -0.017079 -0.0127774 -0.00757993 -0.00148648 0.00550293 0.013338 0.0219685 0.0313945 0.0416158 0.0524044 0.0635318 0.0749982 0.0868035 0.0985879 0.109992 0.121015 0.131658 0.141565 0.15038 0.158103 0.164735 0.170067 0.173888 0.1762 0.177001 0.176305 0.174123 0.170454 0.1653 0.158885 0.151432 0.142942 0.133415 0.123206 0.112668 0.101803 0.0906101 0.0794416 0.0686501 0.0582355 0.0481978 0.0387626 0.0301552 0.0223757 0.015424 0.00934761 0.00419388 -3.71739e-05 -0.00334556 -0.00583239 -0.00759881 -0.00864481 -0.00897039 -0.00876762 -0.00822857 -0.00735325 -0.00614164 -0.00482868 -0.00364926 -0.0026034 -0.00169108 -0.000951233 -0.00042277 -0.000105693 0 0 -6.25615e-05 -0.000250246 -0.000563053 -0.00100098 -0.00158412 -0.00233254 -0.00324625 -0.00432525 -0.005493 -0.00667296 -0.00786514 -0.00906952 -0.0102228 -0.0112615 -0.0121858 -0.0129957 -0.0136511 -0.0141124 -0.0143794 -0.0144521 -0.0143218 -0.0139794 -0.013425 -0.0126585 -0.0117105 -0.0106112 -0.00936068 -0.00795894 -0.0064738 -0.00497314 -0.00345693 -0.00192519 -0.000463078 0.00084425 0.00199679 0.00299455 0.00376953 0.00425376 0.00444723 0.00434994 0.00394454 0.00321368 0.00215735 0.000775558 -0.000883029 -0.00276973 -0.00488456 -0.0072275 -0.00969206 -0.0121717 -0.0146665 -0.0171763 -0.0195574 -0.0216657 -0.0235014 -0.0250644 -0.0261923 -0.0267228 -0.0266559 -0.0259916 -0.0245749 -0.0222507 -0.019019 -0.0148799 -0.00974488 -0.0035256 0.00377795 0.0121658 0.0215694 0.0319203 0.0432185 0.0554641 0.0683778 0.0816806 0.0953724 0.109453 0.123495 0.137067 0.150172 0.162808 0.174561 0.185015 0.194171 0.202027 0.208345 0.212883 0.215642 0.216622 0.215834 0.213293 0.208999 0.202951 0.195405 0.186617 0.176586 0.165314 0.15321 0.140687 0.127744 0.11438 0.101014 0.0880611 0.0755223 0.0633973 0.0519591 0.0414807 0.0319619 0.023403 0.0158664 0.00941492 0.00404848 -0.000232895 -0.00354345 -0.00599743 -0.00759483 -0.00833564 -0.00843991 -0.00812768 -0.00739895 -0.00625372 -0.00495858 -0.00378015 -0.00271841 -0.00177337 -0.000997522 -0.000443343 -0.000110836 0 0 -6.96286e-05 -0.000278514 -0.000626657 -0.00111406 -0.00175731 -0.002573 -0.00356114 -0.00472171 -0.00596208 -0.00718957 -0.00840419 -0.00960594 -0.0107188 -0.0116666 -0.0124494 -0.0130672 -0.0134734 -0.0136212 -0.0135108 -0.013142 -0.0125091 -0.0116062 -0.0104332 -0.00899028 -0.00732333 -0.0054784 -0.0034555 -0.00125463 0.0010305 0.00330618 0.00557241 0.00782919 0.00996375 0.0118633 0.013528 0.0149576 0.0160664 0.0167684 0.0170635 0.0169519 0.0164167 0.015441 0.0140249 0.0121684 0.00994086 0.00741174 0.00458102 0.00144871 -0.00184399 -0.00515586 -0.0084869 -0.0118371 -0.0150241 -0.0178653 -0.0203608 -0.0225105 -0.0241176 -0.0249849 -0.0251126 -0.0245005 -0.0229678 -0.0203335 -0.0165975 -0.01176 -0.00572374 0.00160831 0.0102362 0.0201599 0.0312887 0.0435319 0.0568897 0.0713619 0.0866113 0.102301 0.11843 0.134999 0.151504 0.16744 0.182806 0.197604 0.211354 0.223579 0.234279 0.243455 0.250833 0.256144 0.259386 0.26056 0.259679 0.256758 0.251797 0.244794 0.236038 0.225816 0.214126 0.200969 0.186814 0.172132 0.156923 0.141186 0.125409 0.110078 0.0951945 0.0807578 0.0670949 0.0545325 0.0430707 0.0327095 0.0235301 0.0156135 0.00895988 0.00356916 -0.00068645 -0.00393474 -0.00617572 -0.00740937 -0.00788599 -0.00785586 -0.00731898 -0.00627535 -0.00502542 -0.00386966 -0.00280808 -0.00184066 -0.00103537 -0.000460165 -0.000115041 0 0 -7.67015e-05 -0.000306806 -0.000690314 -0.00122722 -0.00192949 -0.00280906 -0.00386593 -0.00510011 -0.00640092 -0.0076577 -0.00887043 -0.0100391 -0.0110733 -0.0118825 -0.0124667 -0.0128259 -0.0129058 -0.0126522 -0.012065 -0.0111442 -0.00988801 -0.0082944 -0.00636338 -0.00409496 -0.00155392 0.00119496 0.00415168 0.00731624 0.0105643 0.0137714 0.0169375 0.0200628 0.0230019 0.0256099 0.0278866 0.029832 0.0313396 0.0323025 0.0327208 0.0325945 0.0319077 0.0306446 0.0288052 0.0263895 0.0234913 0.0202048 0.0165297 0.0124662 0.00819597 0.00390082 -0.00041927 -0.0047643 -0.00890736 -0.0126215 -0.0159069 -0.0187633 -0.0209548 -0.0222453 -0.0226348 -0.0221233 -0.0205015 -0.0175602 -0.0132995 -0.00771928 -0.00071402 0.00782181 0.0178882 0.0294852 0.0424959 0.0568035 0.0724079 0.0893092 0.107105 0.125392 0.144171 0.163442 0.182617 0.201109 0.218918 0.236044 0.251943 0.266071 0.278429 0.289017 0.297531 0.303669 0.307431 0.308816 0.30784 0.304517 0.298847 0.290831 0.280786 0.269029 0.25556 0.240379 0.224017 0.207005 0.189341 0.171027 0.152626 0.134701 0.117252 0.100279 0.0841699 0.0693108 0.055702 0.0433436 0.0323385 0.0227897 0.014697 0.00806061 0.00273862 -0.00141074 -0.00438748 -0.00619158 -0.00710586 -0.00741311 -0.00711333 -0.00620653 -0.00502919 -0.00391781 -0.0028724 -0.00189295 -0.00106478 -0.000473236 -0.000118309 0 0 -8.35508e-05 -0.000334203 -0.000751957 -0.00133681 -0.00209468 -0.00303145 -0.00414713 -0.00544173 -0.00678448 -0.00804461 -0.00922215 -0.0103171 -0.0112225 -0.0118316 -0.0121443 -0.0121607 -0.0118178 -0.0110528 -0.00986582 -0.00825671 -0.00622881 -0.00378541 -0.0009265