<?xml version="1.0"?> 
<VTKFile type="StructuredGrid" version="0.1"> 
<StructuredGrid WholeExtent="0 128 0 128 0 0"> 
<Piece Extent="0 128 0 128 0 0"> 
<PointData>
<DataArray type="Float32" Name="u" format="ascii" NumberOfComponents="1"> 
0 0 0 0 0 0 0 0 0 0 0 0 0 0 0 0 0 0 0 0 0 0 0 0 0 0 0 0 0 0 0 0 0 0 0 0 0 0 0 0 0 0 0 0 0 0 0 0 0 0 0 0 0 0 0 0 0 0 0 0 0 0 0 0 0 0 0 0 0 0 0 0 0 0 0 0 0 0 0 0 0 0 0 0 0 0 0 0 0 0 0 0 0 0 0 0 0 0 0 0 0 0 0 0 0 0 0 0 0 0 0 0 0 0 0 0 0 0 0 0 0 0 0 0 0 0 0 0 0 0 1.0584e-07 4.23362e-07 9.52563e-07 1.69345e-06 2.76351e-06 4.28026e-06 6.24369e-06 8.65381e-06 1.13938e-05 1.43466e-05 1.75125e-05 2.08913e-05 2.4379e-05 2.78716e-05 3.1369e-05 3.48713e-05 3.83517e-05 4.17834e-05 4.51666e-05 4.85011e-05 5.18352e-05 5.52173e-05 5.86474e-05 6.21255e-05 6.56877e-05 6.93705e-05 7.31737e-05 7.70974e-05 8.10504e-05 8.49415e-05 8.87708e-05 9.25383e-05 9.60571e-05 9.91404e-05 0.000101788 0.000104 0.000105701 0.000106814 0.00010734 0.000107278 0.000106794 0.000106054 0.000105057 0.000103803 0.000102503 0.000101364 0.000100389 9.95755e-05 9.88022e-05 9.79463e-05 9.70077e-05 9.59865e-05 9.43477e-05 9.15565e-05 8.76127e-05 8.25164e-05 7.57311e-05 6.67203e-05 5.54839e-05 4.20219e-05 2.62765e-05 8.18965e-06 -1.22386e-05 -3.50083e-05 -5.96859e-05 -8.58381e-05 -0.000113465 -0.000142566 -0.000172604 -0.000203042 -0.00023388 -0.000265117 -0.000296341 -0.000327139 -0.00035751 -0.000387456 -0.000416526 -0.000444269 -0.000470687 -0.000495778 -0.000518917 -0.000539481 -0.000557468 -0.000572879 -0.000585193 -0.000593891 -0.000598972 -0.000600436 -0.000598303 -0.000592591 -0.000583301 -0.000570432 -0.000554563 -0.000536273 -0.000515562 -0.00049243 -0.000467573 -0.000441688 -0.000414775 -0.000386832 -0.000358323 -0.00032971 -0.000300992 -0.000272169 -0.000243585 -0.000215586 -0.000188172 -0.000161341 -0.000135582 -0.000111382 -8.87394e-05 -6.76556e-05 -4.86344e-05 -3.218e-05 -1.82925e-05 -6.97178e-06 1.77211e-06 7.9292e-06 1.14995e-05 1.2483e-05 1.18411e-05 1.05353e-05 8.56545e-06 5.93163e-06 3.33654e-06 1.48291e-06 3.70727e-07 0 0 4.23362e-07 1.69345e-06 3.81025e-06 6.77378e-06 1.1054e-05 1.7121e-05 2.49748e-05 3.46153e-05 4.5575e-05 5.73866e-05 7.005e-05 8.35652e-05 9.75161e-05 0.000111486 0.000125476 0.000139485 0.000153407 0.000167134 0.000180666 0.000194004 0.000207341 0.000220869 0.00023459 0.000248502 0.000262751 0.000277482 0.000292695 0.000308389 0.000324201 0.000339766 0.000355083 0.000370153 0.000384229 0.000396562 0.000407153 0.000416002 0.000422805 0.000427258 0.00042936 0.000429113 0.000427177 0.000424215 0.000420227 0.000415213 0.00041001 0.000405458 0.000401555 0.000398302 0.000395209 0.000391785 0.000388031 0.000383946 0.000377391 0.000366226 0.000350451 0.000330066 0.000302924 0.000266881 0.000221935 0.000168088 0.000105106 3.27586e-05 -4.89545e-05 -0.000140033 -0.000238744 -0.000343352 -0.000453859 -0.000570263 -0.000690416 -0.000812168 -0.000935518 -0.00106047 -0.00118536 -0.00130855 -0.00143004 -0.00154982 -0.0016661 -0.00177708 -0.00188275 -0.00198311 -0.00207567 -0.00215792 -0.00222987 -0.00229151 -0.00234077 -0.00237556 -0.00239589 -0.00240175 -0.00239321 -0.00237037 -0.0023332 -0.00228173 -0.00221825 -0.00214509 -0.00206225 -0.00196972 -0.00187029 -0.00176675 -0.0016591 -0.00154733 -0.00143329 -0.00131884 -0.00120397 -0.00108867 -0.000974342 -0.000862346 -0.000752687 -0.000645366 -0.000542329 -0.000445527 -0.000354958 -0.000270622 -0.000194538 -0.00012872 -7.31699e-05 -2.78871e-05 7.08843e-06 3.17168e-05 4.5998e-05 4.99321e-05 4.73646e-05 4.21412e-05 3.42618e-05 2.37265e-05 1.33462e-05 5.93163e-06 1.48291e-06 0 0 9.52563e-07 3.81025e-06 8.57307e-06 1.5241e-05 2.48716e-05 3.85223e-05 5.61933e-05 7.78843e-05 0.000102544 0.00012912 0.000157612 0.000188022 0.000219411 0.000250844 0.000282321 0.000313842 0.000345165 0.000376051 0.000406499 0.000436509 0.000466517 0.000496956 0.000527827 0.000559129 0.00059119 0.000624334 0.000658563 0.000693876 0.000729453 0.000764474 0.000798938 0.000832845 0.000864514 0.000892264 0.000916094 0.000936004 0.000951311 0.00096133 0.000966061 0.000965504 0.000961149 0.000954485 0.000945511 0.000934229 0.000922523 0.00091228 0.000903499 0.00089618 0.00088922 0.000881516 0.000873069 0.000863878 0.00084913 0.000824008 0.000788514 0.000742648 0.00068158 0.000600482 0.000499355 0.000378197 0.000236488 7.37068e-05 -0.000110148 -0.000315075 -0.000537173 -0.000772543 -0.00102118 -0.00128309 -0.00155344 -0.00182738 -0.00210492 -0.00238605 -0.00266707 -0.00294425 -0.00321759 -0.00348711 -0.00374873 -0.00399842 -0.00423618 -0.004462 -0.00467026 -0.00485533 -0.00501721 -0.00515591 -0.00526674 -0.00534502 -0.00539075 -0.00540393 -0.00538473 -0.00533332 -0.00524971 -0.00513389 -0.00499106 -0.00482645 -0.00464006 -0.00443187 -0.00420816 -0.00397519 -0.00373297 -0.00348149 -0.00322491 -0.00296739 -0.00270892 -0.00244952 -0.00219227 -0.00194028 -0.00169355 -0.00145207 -0.00122024 -0.00100244 -0.000798655 -0.0006089 -0.000437709 -0.00028962 -0.000164632 -6.2746e-05 1.5949e-05 7.13628e-05 0.000103496 0.000112347 0.00010657 9.48176e-05 7.70891e-05 5.33847e-05 3.00289e-05 1.33462e-05 3.33654e-06 0 0 1.69345e-06 6.77378e-06 1.5241e-05 2.70951e-05 4.42162e-05 6.84842e-05 9.98991e-05 0.000138461 0.0001823 0.000229546 0.0002802 0.000334261 0.000390064 0.000445945 0.000501904 0.000557941 0.000613627 0.000668535 0.000722665 0.000776017 0.000829364 0.000883477 0.000938359 0.000994008 0.001051 0.00110993 0.00117078 0.00123356 0.00129681 0.00135906 0.00142033 0.00148061 0.00153691 0.00158625 0.00162861 0.00166401 0.00169122 0.00170903 0.00171744 0.00171645 0.00170871 0.00169686 0.00168091 0.00166085 0.00164004 0.00162183 0.00160622 0.00159321 0.00158084 0.00156714 0.00155212 0.00153578 0.00150956 0.0014649 0.0014018 0.00132026 0.0012117 0.00106752 0.000887742 0.000672351 0.000420424 0.000131034 -0.000195818 -0.000560133 -0.000954975 -0.00137341 -0.00181544 -0.00228105 -0.00276167 -0.00324867 -0.00374207 -0.00424187 -0.00474145 -0.00523422 -0.00572017 -0.0061993 -0.00666441 -0.00710831 -0.00753098 -0.00793244 -0.00830268 -0.00863169 -0.00891949 -0.00916606 -0.00936309 -0.00950225 -0.00958355 -0.00960698 -0.00957285 -0.00948146 -0.00933281 -0.00912691 -0.008873 -0.00858036 -0.00824899 -0.00787888 -0.00748118 -0.00706701 -0.00663639 -0.00618932 -0.00573318 -0.00527536 -0.00481587 -0.0043547 -0.00389737 -0.00344938 -0.00301075 -0.00258146 -0.00216932 -0.00178211 -0.00141983 -0.00108249 -0.00077815 -0.00051488 -0.00029268 -0.000111548 2.83537e-05 0.000126867 0.000183992 0.000199728 0.000189458 0.000168565 0.000137047 9.49061e-05 5.33847e-05 2.37265e-05 5.93163e-06 0 0 2.79002e-06 1.11601e-05 2.51102e-05 4.46403e-05 7.23072e-05 0.000110668 0.000159721 0.000219469 0.000286663 0.000358057 0.000433651 0.000513446 0.000594842 0.00067524 0.000754641 0.000833045 0.000909952 0.00098486 0.00105777 0.00112868 0.00119901 0.00127018 0.00134218 0.00141502 0.00148979 0.00156762 0.0016485 0.00173243 0.00181741 0.00190142 0.00198447 0.00206655 0.00214337 0.00221062 0.00226829 0.0023164 0.00235331 0.00237739 0.00238865 0.00238708 0.00237672 0.00236161 0.00234173 0.0023171 0.00229241 0.00227239 0.00225704 0.00224635 0.00223669 0.00222444 0.00220958 0.00219213 0.00215865 0.00209571 0.00200331 0.00188146 0.00171735 0.00149821 0.00122402 0.000894788 0.000509846 6.85206e-05 -0.000429189 -0.000983282 -0.00158283 -0.00221691 -0.00288551 -0.00358864 -0.00431378 -0.00504839 -0.00579249 -0.00654606 -0.00730004 -0.00804532 -0.00878193 -0.00950985 -0.0102183 -0.0108966 -0.0115446 -0.0121624 -0.0127338 -0.0132426 -0.0136887 -0.0140722 -0.0143793 -0.0145962 -0.0147229 -0.0147595 -0.0147064 -0.0145643 -0.014333 -0.0140125 -0.0136183 -0.0131655 -0.0126541 -0.0120841 -0.0114733 -0.0108397 -0.0101831 -0.00950365 -0.00881207 -0.00811923 -0.00742512 -0.00672974 -0.0060403 -0.00536401 -0.00470089 -0.00405092 -0.00342536 -0.00283546 -0.00228123 -0.00176266 -0.00129249 -0.000883447 -0.000535533 -0.000248747 -2.42204e-05 0.000136916 0.000234663 0.00026902 0.000262777 0.000238721 0.000196853 0.000137173 7.71596e-05 3.42931e-05 8.57328e-06 0 0 4.3863e-06 1.75452e-05 3.94767e-05 7.01808e-05 0.000112364 0.000168734 0.000239289 0.00032403 0.00041745 0.000514042 0.000613805 0.000716739 0.000819109 0.000917179 0.00101095 0.00110042 0.0011853 0.0012653 0.00134042 0.00141067 0.00147861 0.00154681 0.00161529 0.00168404 0.00175516 0.00183078 0.0019109 0.0019955 0.0020824 0.00216941 0.00225653 0.00234375 0.00242582 0.00249748 0.00255873 0.00260957 0.00264835 0.00267344 0.00268483 0.00268252 0.00267206 0.00265898 0.00264329 0.00262498 0.00260949 0.00260225 0.00260328 0.00261256 0.00262342 0.00262918 0.00262983 0.00262538 0.00259634 0.00252323 0.00240604 0.00224478 0.00202262 0.00172273 0.0013451 0.00088975 0.00035769 -0.000250055 -0.000933485 -0.0016926 -0.00251143 -0.003374 -0.00428031 -0.00523036 -0.00620846 -0.00719889 -0.00820167 -0.00921678 -0.0102343 -0.0112444 -0.012247 -0.0132422 -0.0142156 -0.015153 -0.0160545 -0.0169199 -0.0177245 -0.0184435 -0.0190768 -0.0196245 -0.0200648 -0.0203758 -0.0205576 -0.0206101 -0.0205344 -0.0203312 -0.0200006 -0.0195426 -0.0189812 -0.0183404 -0.0176202 -0.0168207 -0.0159686 -0.0150907 -0.0141869 -0.0132573 -0.0123156 -0.0113755 -0.010437 -0.00950015 -0.00857172 -0.00765852 -0.00676056 -0.00587783 -0.00502417 -0.00421343 -0.00344561 -0.0027207 -0.00205736 -0.00147427 -0.000971411 -0.000548793 -0.000210297 4.0196e-05 0.000202684 0.000277168 0.000293273 0.000280624 0.000239222 0.000169066 9.50995e-05 4.22665e-05 1.05666e-05 0 0 6.48228e-06 2.59291e-05 5.83405e-05 0.000103717 0.000164387 0.000242682 0.000338602 0.000452146 0.000574663 0.000697501 0.00082066 0.000944141 0.00106287 0.00117176 0.00127083 0.00136006 0.00143967 0.00150986 0.00157062 0.00162197 0.00166814 0.00171338 0.00175769 0.00180107 0.00184711 0.00189941 0.00195796 0.00202276 0.0020918 0.00216305 0.00223652 0.00231221 0.00238427 0.00244684 0.00249992 0.00254351 0.00257636 0.00259718 0.00260599 0.00260278 0.00259472 0.00258899 0.00258558 0.00258449 0.00259126 0.00261141 0.00264494 0.00269185 0.00274103 0.00278138 0.00281288 0.00283555 0.00282265 0.00274746 0.00260999 0.00241023 0.0021275 0.00174108 0.001251 0.000657236 -3.60453e-05 -0.000824692 -0.00170871 -0.00268808 -0.00374076 -0.00484468 -0.00599982 -0.00720621 -0.0084457 -0.00970017 -0.0109696 -0.012254 -0.0135444 -0.0148315 -0.0161155 -0.0173964 -0.0186563 -0.0198777 -0.0210606 -0.0222049 -0.0232747 -0.0242344 -0.0250838 -0.025823 -0.0264195 -0.026841 -0.0270875 -0.0271588 -0.0270566 -0.0267822 -0.0263357 -0.0257169 -0.0249616 -0.0241051 -0.0231476 -0.0220889 -0.0209671 -0.0198201 -0.0186478 -0.0174503 -0.0162437 -0.0150441 -0.0138516 -0.012666 -0.0114916 -0.0103329 -0.00918976 -0.00806219 -0.00696576 -0.00591601 -0.00491296 -0.00395659 -0.00307277 -0.00228734 -0.00160032 -0.00101169 -0.000529875 -0.000163294 8.80552e-05 0.000224172 0.000280948 0.000294275 0.000264155 0.000190586 0.000107205 4.76465e-05 1.19116e-05 0 0 9.07797e-06 3.63119e-05 8.17017e-05 0.000145247 0.000228376 0.000332513 0.00045766 0.000603816 0.000758301 0.000908435 0.00105422 0.00119565 0.00132611 0.00143899 0.00153427 0.00161197 0.00167306 0.00171853 0.00174837 0.00176258 0.00176761 0.00176987 0.00176937 0.00176611 0.00176564 0.0017735 0.00178969 0.00181421 0.00184559 0.00188233 0.00192445 0.00197194 0.00201872 0.00205869 0.00209186 0.00211824 0.00213732 0.00214861 0.00215212 0.00214784 0.0021447 0.00215162 0.0021686 0.00219564 0.00223773 0.00229986 0.00238202 0.00248421 0.00258952 0.00268103 0.00275872 0.00282261 0.00283756 0.0027684 0.00261516 0.00237781 0.00203199 0.00155328 0.000941703 0.000197247 -0.000671359 -0.00165539 -0.00275485 -0.00396973 -0.00527083 -0.00662894 -0.00804406 -0.00951618 -0.0110255 -0.0125522 -0.0140963 -0.0156578 -0.0172301 -0.0188066 -0.0203874 -0.0219723 -0.0235404 -0.0250707 -0.026563 -0.0280173 -0.0293846 -0.0306154 -0.0317097 -0.0326677 -0.0334436 -0.0339919 -0.0343126 -0.0344056 -0.0342732 -0.0339174 -0.0333382 -0.0325357 -0.0315596 -0.0304597 -0.029236 -0.0278886 -0.0264687 -0.0250277 -0.0235657 -0.0220827 -0.0205965 -0.0191252 -0.0176687 -0.0162271 -0.0148001 -0.0133872 -0.0119885 -0.010604 -0.00925011 -0.0079432 -0.00668328 -0.00547034 -0.0043387 -0.00332267 -0.00242225 -0.00163743 -0.000982955 -0.000473552 -0.000109224 0.000110031 0.0002258 0.000279674 0.000271652 0.000201733 0.000113475 5.04333e-05 1.26083e-05 0 0 1.18917e-05 4.7567e-05 0.000107026 0.000190268 0.000296932 0.000426656 0.000579441 0.000755286 0.000936667 0.00110606 0.00126346 0.00140888 0.00153426 0.00163156 0.00170079 0.00174193 0.00175731 0.00174923 0.00171768 0.00166267 0.00159329 0.00151862 0.00143866 0.00135341 0.00127069 0.00119832 0.0011363 0.00108463 0.00104295 0.00101089 0.000988455 0.000975646 0.000967201 0.000957861 0.000947624 0.000936492 0.000925712 0.000916532 0.000908952 0.000902973 0.000909145 0.00093802 0.000989598 0.00106388 0.00116376 0.00129213 0.00144901 0.00163437 0.00182364 0.00199222 0.0021401 0.0022673 0.00233001 0.00228442 0.00213053 0.00186835 0.00147209 0.000915949 0.000199934 -0.000675957 -0.00169521 -0.00284131 -0.00411425 -0.00551405 -0.0070035 -0.00854541 -0.0101398 -0.0117866 -0.0134678 -0.0151652 -0.0168787 -0.0186084 -0.0203555 -0.0221211 -0.0239051 -0.0257077 -0.0275069 -0.0292806 -0.0310289 -0.0327518 -0.0343846 -0.0358624 -0.0371852 -0.0383531 -0.0393041 -0.0399761 -0.0403693 -0.0404835 -0.0403217 -0.039887 -0.0391794 -0.0381987 -0.0370124 -0.0356877 -0.0342246 -0.0326231 -0.0309497 -0.0292707 -0.0275861 -0.025896 -0.0242169 -0.0225657 -0.0209421 -0.0193463 -0.0177677 -0.0161958 -0.0146305 -0.0130718 -0.0115338 -0.0100306 -0.00856199 -0.00712814 -0.00577289 -0.00454011 -0.0034298 -0.00244197 -0.00160112 -0.000931738 -0.000433833 -0.000107403 9.15154e-05 0.000206887 0.000238712 0.00018699 0.000105182 4.67476e-05 1.16869e-05 0 0 1.4642e-05 5.85679e-05 0.000131778 0.000234272 0.000362657 0.000513541 0.000686923 0.000882804 0.00107806 0.00124959 0.00139737 0.00152142 0.0016127 0.00166218 0.00166985 0.00163573 0.00156425 0.00145987 0.00132258 0.00115239 0.000961453 0.000761947 0.000553865 0.00033721 0.000122228 -8.08334e-05 -0.000271973 -0.000451192 -0.000616933 -0.00076764 -0.000903312 -0.00102395 -0.00113223 -0.00123082 -0.00131974 -0.00139896 -0.00146398 -0.00151025 -0.00153778 -0.00154656 -0.0015248 -0.00146067 -0.00135419 -0.00120536 -0.00101582 -0.00078724 -0.00051962 -0.000212958 9.81338e-05 0.000379044 0.000629772 0.000850319 0.000988934 0.000993867 0.000865117 0.000602685 0.000183806 -0.000414287 -0.00119159 -0.00214811 -0.00325455 -0.00448159 -0.00582925 -0.00729751 -0.00884059 -0.0104127 -0.0120138 -0.0136439 -0.0152925 -0.0169491 -0.0186137 -0.0202862 -0.0219845 -0.0237263 -0.0255115 -0.0273402 -0.0291945 -0.0310563 -0.0329258 -0.0348028 -0.0366054 -0.0382514 -0.0397409 -0.0410739 -0.0421681 -0.0429415 -0.0433939 -0.0435254 -0.04334 -0.0428416 -0.0420302 -0.040906 -0.0395572 -0.0380727 -0.0364522 -0.034696 -0.0328863 -0.0311057 -0.0293542 -0.0276318 -0.0259481 -0.0243126 -0.0227253 -0.0211862 -0.0196655 -0.0181332 -0.0165895 -0.0150342 -0.0134735 -0.0119136 -0.0103545 -0.00879619 -0.00729305 -0.00589951 -0.00461558 -0.00344127 -0.00241595 -0.00157901 -0.000930451 -0.000470279 -0.000158223 4.59821e-05 0.000142337 0.000130841 7.35983e-05 3.27104e-05 8.17759e-06 0 0 1.73287e-05 6.93148e-05 0.000155958 0.000277259 0.000425551 0.000593166 0.000780105 0.000986367 0.00118249 0.00133902 0.00145595 0.00153329 0.00156144 0.00153084 0.00144147 0.00129335 0.00109387 0.000850442 0.000563059 0.000231725 -0.000127897 -0.000500139 -0.000885001 -0.00128249 -0.00167975 -0.00206397 -0.00243514 -0.00279327 -0.00313406 -0.00345326 -0.00375085 -0.00402685 -0.00427957 -0.00450736 -0.00471022 -0.00488813 -0.00503176 -0.00513174 -0.00518808 -0.00520077 -0.00515713 -0.00504446 -0.00486277 -0.00461206 -0.004301 -0.00393826 -0.00352385 -0.00305777 -0.00258699 -0.00215849 -0.00177227 -0.00142834 -0.00118567 -0.00110325 -0.00118109 -0.00141919 -0.00183286 -0.00243743 -0.00323288 -0.00421922 -0.00534937 -0.00657624 -0.00789983 -0.00932014 -0.0107821 -0.0122308 -0.0136661 -0.015088 -0.0164996 -0.0179041 -0.0193012 -0.0206912 -0.0221171 -0.0236222 -0.0252064 -0.0268698 -0.0286033 -0.0303979 -0.0322535 -0.0341703 -0.0360469 -0.0377825 -0.0393768 -0.04083 -0.0420358 -0.0428879 -0.0433865 -0.0435314 -0.0433279 -0.042781 -0.0418909 -0.0406574 -0.0391941 -0.0376146 -0.035919 -0.0341071 -0.0322785 -0.0305329 -0.0288701 -0.0272903 -0.02579 -0.024366 -0.0230183 -0.0217468 -0.0204933 -0.0191995 -0.0178655 -0.0164911 -0.0150692 -0.0135925 -0.0120609 -0.0104745 -0.00889918 -0.00740088 -0.00597959 -0.00463531 -0.00342744 -0.00241536 -0.00159908 -0.000978596 -0.000523415 -0.000203041 -1.74739e-05 3.32864e-05 1.87236e-05 8.32159e-06 2.0804e-06 0 0 1.99519e-05 7.98075e-05 0.000179567 0.00031923 0.000485613 0.000665532 0.000858987 0.00106598 0.00124995 0.00137436 0.0014392 0.00144447 0.00138048 0.00123754 0.00101565 0.000714807 0.000346184 -7.90434e-05 -0.000560875 -0.00109931 -0.00167476 -0.00226764 -0.00287795 -0.00350568 -0.00413525 -0.0047511 -0.00535321 -0.00594159 -0.00650844 -0.00704596 -0.00755416 -0.00803305 -0.00847483 -0.00887176 -0.00922382 -0.00953101 -0.00977763 -0.00994794 -0.0100419 -0.0100596 -0.00998785 -0.00981335 -0.00953614 -0.00915624 -0.00869178 -0.00816094 -0.0075637 -0.00690007 -0.00623174 -0.00562039 -0.00506603 -0.00456866 -0.00419379 -0.00400694 -0.0040081 -0.00419728 -0.00457792 -0.00515347 -0.00592392 -0.00688929 -0.00797969 -0.00912527 -0.010326 -0.0115819 -0.0128281 -0.0139997 -0.0150966 -0.0161189 -0.0170892 -0.01803 -0.0189414 -0.0198234 -0.0207533 -0.0218089 -0.0229899 -0.0242965 -0.0257334 -0.0273053 -0.0290122 -0.0308542 -0.0327093 -0.0344556 -0.0360929 -0.0376214 -0.0389069 -0.0398155 -0.040347 -0.0405015 -0.0402855 -0.0397054 -0.0387612 -0.037453 -0.035923 -0.0343136 -0.0326247 -0.0308564 -0.0291263 -0.0275521 -0.0261338 -0.0248713 -0.0237426 -0.0227259 -0.021821 -0.021028 -0.0202512 -0.0193946 -0.0184584 -0.0174426 -0.0163208 -0.015067 -0.0136811 -0.012163 -0.0105913 -0.00904421 -0.00752182 -0.00602411 -0.00463559 -0.0034408 -0.00243972 -0.00163236 -0.00100406 -0.000540183 -0.000240721 -0.000105675 -5.94422e-05 -2.64187e-05 -6.60468e-06 0 0 2.19384e-05 8.77536e-05 0.000197446 0.000351014 0.000528749 0.00071094 0.000897586 0.00108869 0.00124098 0.00131119 0.00129932 0.00120537 0.00102082 0.00073715 0.000354365 -0.000127537 -0.000692681 -0.00132519 -0.00202507 -0.00279231 -0.00360393 -0.00443695 -0.00529138 -0.0061672 -0.0070474 -0.00791496 -0.00876987 -0.00961213 -0.0104305 -0.0112136 -0.0119616 -0.0126743 -0.013336 -0.0139307 -0.0144583 -0.014919 -0.0152885 -0.0155425 -0.0156811 -0.0157042 -0.0155986 -0.015351 -0.0149615 -0.01443 -0.0137874 -0.0130643 -0.0122608 -0.0113769 -0.0104913 -0.00968275 -0.00895116 -0.00829658 -0.00778859 -0.00749677 -0.0074211 -0.0075616 -0.0079025 -0.00842802 -0.00913816 -0.0100329 -0.0110122 -0.0119761 -0.0129244 -0.0138573 -0.0146991 -0.0153743 -0.0158827 -0.0162245 -0.0164505 -0.0166112 -0.0167069 -0.0167374 -0.0168277 -0.0171029 -0.0175629 -0.0182077 -0.019064 -0.0201586 -0.0214915 -0.0230627 -0.0247284 -0.0263447 -0.0279117 -0.0294294 -0.0307315 -0.0316517 -0.0321899 -0.0323462 -0.0321285 -0.0315446 -0.0305944 -0.0292781 -0.0277707 -0.0262474 -0.0247083 -0.0231534 -0.0217184 -0.0205393 -0.0196161 -0.0189487 -0.0184878 -0.0181839 -0.0180371 -0.0180473 -0.0180687 -0.0179555 -0.0177076 -0.017325 -0.0167552 -0.0159457 -0.0148964 -0.0136074 -0.0121707 -0.0106785 -0.00913083 -0.0075276 -0.00598509 -0.00461957 -0.00343101 -0.00241943 -0.00159382 -0.000963142 -0.000527412 -0.000286626 -0.000161227 -7.16566e-05 -1.79142e-05 0 0 2.27151e-05 9.08604e-05 0.000204436 0.000363442 0.000540864 0.00070969 0.00086992 0.00102155 0.0011161 0.00110509 0.000988506 0.000766357 0.000433429 -1.54925e-05 -0.000580407 -0.00126131 -0.00203659 -0.0028846 -0.00380535 -0.00479884 -0.00584018 -0.00690447 -0.0079917 -0.00910189 -0.0102193 -0.0113283 -0.0124288 -0.0135209 -0.0145906 -0.0156241 -0.0166214 -0.0175825 -0.018481 -0.0192907 -0.0200116 -0.0206436 -0.0211513 -0.0214992 -0.0216872 -0.0217154 -0.021571 -0.0212412 -0.0207261 -0.0200257 -0.019187 -0.0182575 -0.0172369 -0.0161255 -0.015021 -0.0140217 -0.0131273 -0.012338 -0.0117232 -0.0113523 -0.0112253 -0.0113422 -0.0116578 -0.0121267 -0.012749 -0.0135247 -0.0143138 -0.0149761 -0.0155118 -0.0159208 -0.0161158 -0.0160095 -0.0156018 -0.0148928 -0.0139728 -0.012932 -0.0117704 -0.010488 -0.00927483 -0.00832089 -0.00762617 -0.00719068 -0.00707457 -0.00733804 -0.00798106 -0.00900365 -0.0102399 -0.011524 -0.0128558 -0.0142354 -0.0154594 -0.0163241 -0.0168297 -0.0169762 -0.0167727 -0.0162285 -0.0153435 -0.0141179 -0.0127639 -0.0114942 -0.0103086 -0.00920726 -0.00834337 -0.00787027 -0.00778795 -0.00809642 -0.00870715 -0.00953163 -0.0105699 -0.0118218 -0.0130756 -0.0141189 -0.014952 -0.0155748 -0.0158991 -0.015837 -0.0153883 -0.0145532 -0.0134389 -0.0121529 -0.0106952 -0.00906573 -0.00742062 -0.00591592 -0.00455161 -0.00332771 -0.00228634 -0.00146962 -0.000877556 -0.000510152 -0.00028696 -0.000127538 -3.18845e-05 0 0 2.2282e-05 8.91281e-05 0.000200538 0.000356512 0.000521958 0.000661783 0.000775986 0.000864569 0.000875328 0.00075606 0.000506765 0.000127443 -0.000381681 -0.00102038 -0.00178866 -0.00268652 -0.00368553 -0.00475727 -0.00590174 -0.00711893 -0.00838352 -0.00967019 -0.0109789 -0.0123097 -0.013651 -0.0149911 -0.0163301 -0.0176678 -0.0189888 -0.0202774 -0.0215336 -0.0227575 -0.0239099 -0.0249519 -0.0258835 -0.0267048 -0.027366 -0.0278179 -0.0280603 -0.0280933 -0.027905 -0.0274839 -0.02683 -0.0259431 -0.0248907 -0.0237404 -0.022492 -0.0211457 -0.0198208 -0.0186371 -0.0175945 -0.016693 -0.0159977 -0.0155736 -0.0154207 -0.0155391 -0.0158437 -0.0162495 -0.0167565 -0.0173647 -0.0178843 -0.0181254 -0.0180881 -0.0177724 -0.0170781 -0.0159053 -0.0142538 -0.0121237 -0.00965619 -0.00699224 -0.00413191 -0.00107519 0.00190535 0.00453714 0.00682017 0.00875445 0.0102349 0.0111565 0.0115191 0.0113229 0.010756 0.0100067 0.00907489 0.00796064 0.00690953 0.00616716 0.00573352 0.00560861 0.0057819 0.00624282 0.00699139 0.00802759 0.00909726 0.00994621 0.0105745 0.010982 0.0109988 0.010455 0.00935062 0.00768556 0.00559921 0.00323088 0.000580573 -0.0023517 -0.00527166 -0.00788501 -0.0101918 -0.0121919 -0.0137526 -0.0147409 -0.0151568 -0.0150004 -0.0143958 -0.0134673 -0.0122149 -0.0106385 -0.00894218 -0.00732986 -0.00580152 -0.00435719 -0.00308162 -0.00205961 -0.00129115 -0.000776252 -0.000436642 -0.000194063 -4.85157e-05 0 0 2.06391e-05 8.25565e-05 0.000185752 0.000330226 0.00047203 0.000567217 0.000615787 0.000617739 0.000518652 0.000264104 -0.000145905 -0.000711374 -0.00142451 -0.00227752 -0.0032704 -0.00440316 -0.00563952 -0.0069432 -0.00831421 -0.00975255 -0.0112339 -0.0127341 -0.014253 -0.0157908 -0.0173425 -0.0189034 -0.0204736 -0.022053 -0.0236251 -0.0251736 -0.0266983 -0.0281993 -0.0296226 -0.0309143 -0.0320742 -0.0331025 -0.0339327 -0.0344987 -0.0348004 -0.0348378 -0.0346008 -0.0340792 -0.033273 -0.0321823 -0.0308985 -0.0295131 -0.0280261 -0.0264375 -0.0248907 -0.0235291 -0.0223527 -0.0213615 -0.020612 -0.0201606 -0.0200073 -0.0201523 -0.0204603 -0.0207964 -0.0211606 -0.0215528 -0.0217238 -0.0214239 -0.0206534 -0.0194121 -0.0175861 -0.0150617 -0.0118388 -0.00791731 -0.00350064 0.00120798 0.00620854 0.011501 0.0167128 0.0214712 0.0257762 0.0296277 0.0328644 0.0353249 0.0370091 0.037917 0.0382595 0.0382473 0.0378804 0.0371588 0.0363752 0.0358222 0.0354999 0.0354082 0.0355353 0.0358694 0.0364104 0.0371583 0.0378129 0.0380737 0.0379409 0.0374143 0.0363082 0.0344366 0.0317996 0.0283972 0.0244313 0.0201036 0.0154142 0.0103631 0.00534295 0.0007463 -0.00342681 -0.00717637 -0.0103155 -0.0126573 -0.0142018 -0.014949 -0.0150414 -0.0146217 -0.0136899 -0.0122459 -0.0105498 -0.00886138 -0.00718074 -0.00550786 -0.00397967 -0.00273312 -0.00176821 -0.00108493 -0.000610271 -0.000271231 -6.78078e-05 0 0 1.72831e-05 6.91325e-05 0.000155548 0.00027653 0.000379358 0.000411313 0.000372395 0.000262603 2.87994e-05 -0.000382153 -0.000970255 -0.00173551 -0.00265898 -0.00372174 -0.00492379 -0.00626514 -0.00770057 -0.00918485 -0.010718 -0.0123 -0.013911 -0.0155312 -0.0171605 -0.0187989 -0.0204544 -0.0221348 -0.02384 -0.0255701 -0.027311 -0.0290486 -0.0307827 -0.0325135 -0.0341702 -0.035682 -0.0370488 -0.0382708 -0.0392615 -0.0399347 -0.0402904 -0.0403286 -0.0400413 -0.0394204 -0.038466 -0.037178 -0.0356763 -0.0340805 -0.0323907 -0.0306068 -0.0288977 -0.027432 -0.0262098 -0.025231 -0.0245367 -0.024168 -0.0241248 -0.0244071 -0.0248165 -0.0251544 -0.0254209 -0.0256159 -0.0254187 -0.0245085 -0.0228852 -0.020549 -0.017371 -0.0132223 -0.008103 -0.0020131 0.00476866 0.0119635 0.0195714 0.0275924 0.0355333 0.042901 0.0496954 0.0559165 0.0613335 0.0657157 0.0690631 0.0713757 0.0728871 0.073831 0.0742073 0.0740161 0.0736024 0.0733113 0.0731426 0.0730965 0.07316 0.0733201 0.0735768 0.0739302 0.0740291 0.0735226 0.0724106 0.0706932 0.0681692 0.0646373 0.0600975 0.05455 0.0482713 0.041538 0.0343502 0.0267079 0.0191194 0.0120931 0.00562895 -0.000273059 -0.00536214 -0.00938752 -0.0123492 -0.0142472 -0.0152443 -0.0155032 -0.015024 -0.0138067 -0.0121756 -0.010455 -0.00864495 -0.00674537 -0.00495482 -0.0034718 -0.00229631 -0.00142836 -0.000803454 -0.000357091 -8.92727e-05 0 0 1.17107e-05 4.68429e-05 0.000105397 0.000187372 0.000232219 0.00017939 2.88835e-05 -0.0002193 -0.000611507 -0.00119409 -0.00196704 -0.00293036 -0.00404899 -0.00528787 -0.006647 -0.00812637 -0.00967069 -0.0112247 -0.0127883 -0.0143616 -0.0159343 -0.0174963 -0.0190476 -0.0205882 -0.0221474 -0.0237547 -0.0254099 -0.0271131 -0.0288581 -0.0306385 -0.0324544 -0.0343056 -0.0361035 -0.0377592 -0.0392726 -0.0406437 -0.0417626 -0.0425192 -0.0429135 -0.0429454 -0.0426097 -0.0419011 -0.0408195 -0.0393649 -0.03769 -0.0359475 -0.0341373 -0.0322595 -0.0305089 -0.0290802 -0.0279736 -0.0271891 -0.0267427 -0.0266505 -0.0269127 -0.0275291 -0.0282212 -0.0287105 -0.028997 -0.0290807 -0.0285556 -0.0270158 -0.0244614 -0.0208924 -0.0161638 -0.0101306 -0.00279291 0.0058493 0.0154265 0.0255691 0.0362772 0.0475507 0.0587527 0.0692462 0.0790313 0.088108 0.0961616 0.102877 0.108256 0.112296 0.115256 0.117391 0.118702 0.11919 0.119256 0.119305 0.119335 0.119348 0.119328 0.119264 0.119154 0.118999 0.118392 0.116927 0.114604 0.111422 0.107166 0.10162 0.0947828 0.0866552 0.0776013 0.0679855 0.0578077 0.047068 0.036409 0.0264736 0.0172616 0.00877318 0.00133339 -0.00473261 -0.00942482 -0.0127432 -0.0148729 -0.0159989 -0.0161212 -0.0152397 -0.013752 -0.0120554 -0.0101498 -0.00803536 -0.00598138 -0.00425729 -0.00286308 -0.00179876 -0.0010118 -0.000449689 -0.000112422 0 0 3.92195e-06 1.56878e-05 3.52976e-05 6.27513e-05 3.0613e-05 -0.000128553 -0.000414747 -0.000827968 -0.00140227 -0.00217169 -0.00313625 -0.00429593 -0.00559455 -0.00697591 -0.00844001 -0.00998685 -0.0115499 -0.0130626 -0.0145251 -0.0159372 -0.0173038 -0.0186295 -0.0199145 -0.0211586 -0.0224216 -0.0237632 -0.0251833 -0.026682 -0.0282663 -0.0299434 -0.0317131 -0.0335756 -0.0354226 -0.0371459 -0.0387455 -0.0402214 -0.0414361 -0.0422521 -0.0426694 -0.0426881 -0.0423061 -0.0415212 -0.0403335 -0.038743 -0.0369398 -0.0351142 -0.0332661 -0.0313955 -0.0297241 -0.0284737 -0.0276442 -0.0272357 -0.0272297 -0.0276082 -0.028371 -0.0295181 -0.0306745 -0.0314647 -0.0318889 -0.0319471 -0.0311344 -0.028946 -0.025382 -0.0204422 -0.0139646 -0.00578664 0.00409151 0.0156699 0.0284729 0.0420249 0.0563258 0.0713758 0.0863708 0.100507 0.113784 0.126202 0.137349 0.14681 0.154587 0.160678 0.165365 0.168928 0.171366 0.17268 0.173336 0.173802 0.174077 0.174161 0.174041 0.173701 0.173143 0.172365 0.170902 0.168287 0.16452 0.159601 0.1533 0.145384 0.135855 0.124713 0.112421 0.0994459 0.0857866 0.0714432 0.0572116 0.0438876 0.0314712 0.0199623 0.00977107 0.00130741 -0.00542865 -0.0104371 -0.0139273 -0.0161087 -0.0169813 -0.0165449 -0.0152789 -0.0136624 -0.0116954 -0.00937784 -0.00705937 -0.00508959 -0.0034685 -0.0021961 -0.00123531 -0.000549026 -0.000137256 0 0 -6.08322e-06 -2.43329e-05 -5.4749e-05 -9.73315e-05 -0.00022546 -0.000512515 -0.000958496 -0.0015634 -0.00234348 -0.00331498 -0.0044779 -0.00583223 -0.00729566 -0.00878587 -0.0103028 -0.0118466 -0.0133382 -0.0146988 -0.0159284 -0.0170269 -0.0180194 -0.0189308 -0.019761 -0.0205101 -0.0212769 -0.0221603 -0.0231602 -0.0242767 -0.0255357 -0.0269631 -0.0285591 -0.0303235 -0.0321275 -0.0338422 -0.0354676 -0.0370037 -0.0382818 -0.0391334 -0.0395584 -0.0395568 -0.0391304 -0.0382808 -0.0370081 -0.0353122 -0.0334256 -0.0315805 -0.0297769 -0.0280148 -0.0265436 -0.0256125 -0.0252216 -0.0253708 -0.025998 -0.027041 -0.0284998 -0.0303743 -0.0321762 -0.033417 -0.0340967 -0.0342152 -0.0331551 -0.030299 -0.0256468 -0.0191985 -0.0107733 -0.000190411 0.0125503 0.0274487 0.0439078 0.0613307 0.0797174 0.0990678 0.118388 0.136683 0.153954 0.170199 0.184895 0.197514 0.208056 0.216522 0.223215 0.22844 0.232197 0.234486 0.235843 0.236804 0.237369 0.237538 0.237297 0.236631 0.235542 0.234028 0.231559 0.227603 0.22216 0.21523 0.206569 0.195931 0.183315 0.168723 0.152731 0.135919 0.118287 0.0998337 0.0815273 0.0643353 0.0482577 0.0332944 0.0199509 0.00873254 -0.000360696 -0.00732879 -0.0124075 -0.0158327 -0.0176043 -0.0177223 -0.0167564 -0.0152762 -0.0132816 -0.0107728 -0.00818878 -0.0059687 -0.00411258 -0.0026204 -0.00147398 -0.000655101 -0.000163775 0 0 -1.83751e-05 -7.35004e-05 -0.000165376 -0.000294001 -0.000536754 -0.000971012 -0.00159677 -0.00241404 -0.00341397 -0.00458771 -0.00593527 -0.00745665 -0.00903693 -0.0105612 -0.0120295 -0.0134417 -0.0147053 -0.0157276 -0.0165086 -0.0170484 -0.0173991 -0.017613 -0.0176902 -0.0176307 -0.0175847 -0.0177027 -0.0179846 -0.0184304 -0.0190936 -0.0200273 -0.0212318 -0.0227068 -0.0243027 -0.0258695 -0.0274074 -0.0289162 -0.0301923 -0.0310318 -0.0314349 -0.0314015 -0.0309375 -0.0300491 -0.0287361 -0.0269987 -0.025116 -0.0233672 -0.0217523 -0.0202713 -0.019201 -0.0188179 -0.019122 -0.0201134 -0.0216742 -0.0236864 -0.02615 -0.0290651 -0.0318116 -0.0337696 -0.034