<?xml version="1.0"?> 
<VTKFile type="StructuredGrid" version="0.1"> 
<StructuredGrid WholeExtent="0 128 0 128 0 0"> 
<Piece Extent="0 128 0 128 0 0"> 
<PointData>
<DataArray type="Float32" Name="u" format="ascii" NumberOfComponents="1"> 
0 0 0 0 0 0 0 0 0 0 0 0 0 0 0 0 0 0 0 0 0 0 0 0 0 0 0 0 0 0 0 0 0 0 0 0 0 0 0 0 0 0 0 0 0 0 0 0 0 0 0 0 0 0 0 0 0 0 0 0 0 0 0 0 0 0 0 0 0 0 0 0 0 0 0 0 0 0 0 0 0 0 0 0 0 0 0 0 0 0 0 0 0 0 0 0 0 0 0 0 0 0 0 0 0 0 0 0 0 0 0 0 0 0 0 0 0 0 0 0 0 0 0 0 0 0 0 0 0 0 2.40319e-08 9.61278e-08 2.16288e-07 3.84511e-07 3.9959e-07 6.03171e-08 -6.33309e-07 -1.68129e-06 -3.20544e-06 -5.32759e-06 -8.04774e-06 -1.13659e-05 -1.52781e-05 -1.97807e-05 -2.48734e-05 -3.05565e-05 -3.67971e-05 -4.35625e-05 -5.08529e-05 -5.86682e-05 -6.69164e-05 -7.55055e-05 -8.44356e-05 -9.37065e-05 -0.000103134 -0.000112533 -0.000121903 -0.000131246 -0.000140309 -0.000148842 -0.000156846 -0.00016432 -0.000171044 -0.000176798 -0.000181582 -0.000185396 -0.000188172 -0.000189841 -0.000190404 -0.00018986 -0.000188356 -0.000186038 -0.000182905 -0.000178958 -0.000174501 -0.000169839 -0.000164971 -0.000159898 -0.000154928 -0.000150371 -0.000146226 -0.000142494 -0.000139333 -0.0001369 -0.000135197 -0.000134223 -0.000133932 -0.000134279 -0.000135263 -0.000136884 -0.000138971 -0.00014135 -0.000144023 -0.000146989 -0.000150091 -0.000153173 -0.000156236 -0.000159279 -0.000162255 -0.000165116 -0.000167862 -0.000170494 -0.00017305 -0.000175569 -0.000178049 -0.000180492 -0.000182922 -0.000185363 -0.000187815 -0.000190279 -0.000192703 -0.000195036 -0.000197278 -0.000199428 -0.0002014 -0.000203107 -0.000204548 -0.000205724 -0.000206593 -0.000207115 -0.00020729 -0.000207118 -0.000206618 -0.000205812 -0.000204699 -0.000203279 -0.000201562 -0.000199559 -0.000197269 -0.000194692 -0.000191763 -0.000188419 -0.000184658 -0.000180481 -0.000175773 -0.000170423 -0.000164428 -0.00015779 -0.000150454 -0.000142365 -0.000133522 -0.000123927 -0.000113712 -0.000103012 -9.18272e-05 -8.01569e-05 -6.84453e-05 -5.7136e-05 -4.62291e-05 -3.57245e-05 -2.62366e-05 -1.83797e-05 -1.21538e-05 -7.55889e-06 -4.25188e-06 -1.88972e-06 -4.72431e-07 0 0 9.61278e-08 3.84511e-07 8.6515e-07 1.53804e-06 1.59836e-06 2.41268e-07 -2.53324e-06 -6.72515e-06 -1.28218e-05 -2.13104e-05 -3.21909e-05 -4.54635e-05 -6.11126e-05 -7.91227e-05 -9.94937e-05 -0.000122226 -0.000147188 -0.00017425 -0.000203412 -0.000234673 -0.000267666 -0.000302022 -0.000337742 -0.000374826 -0.000412535 -0.000450131 -0.000487613 -0.000524982 -0.000561235 -0.000595369 -0.000627383 -0.000657278 -0.000684174 -0.00070719 -0.000726326 -0.000741583 -0.000752686 -0.000759364 -0.000761615 -0.000759441 -0.000753425 -0.000744151 -0.00073162 -0.000715832 -0.000698004 -0.000679355 -0.000659883 -0.000639591 -0.000619712 -0.000601483 -0.000584905 -0.000569976 -0.000557331 -0.000547602 -0.000540789 -0.000536892 -0.000535729 -0.000537115 -0.000541051 -0.000547537 -0.000555883 -0.000565402 -0.000576092 -0.000587955 -0.000600364 -0.000612694 -0.000624944 -0.000637116 -0.000649018 -0.000660463 -0.000671449 -0.000681978 -0.000692202 -0.000702275 -0.000712197 -0.000721968 -0.000731686 -0.000741451 -0.000751261 -0.000761117 -0.000770813 -0.000780145 -0.000789111 -0.000797713 -0.000805602 -0.000812428 -0.000818192 -0.000822895 -0.000826372 -0.00082846 -0.00082916 -0.000828471 -0.000826474 -0.000823249 -0.000818796 -0.000813116 -0.000806249 -0.000798235 -0.000789074 -0.000778767 -0.000767053 -0.000753675 -0.000738631 -0.000721922 -0.000703094 -0.000681691 -0.000657714 -0.000631162 -0.000601817 -0.000569459 -0.00053409 -0.000495707 -0.000454849 -0.000412049 -0.000367309 -0.000320628 -0.000273781 -0.000228544 -0.000184916 -0.000142898 -0.000104947 -7.3519e-05 -4.86153e-05 -3.02356e-05 -1.70075e-05 -7.55889e-06 -1.88972e-06 0 0 2.16288e-07 8.6515e-07 1.94659e-06 3.4606e-06 3.59631e-06 5.42854e-07 -5.69978e-06 -1.51316e-05 -2.8849e-05 -4.79483e-05 -7.24296e-05 -0.000102293 -0.000137503 -0.000178026 -0.000223861 -0.000275008 -0.000331174 -0.000392063 -0.000457676 -0.000528014 -0.000602248 -0.00067955 -0.00075992 -0.000843359 -0.000928204 -0.00101279 -0.00109713 -0.00118121 -0.00126278 -0.00133958 -0.00141161 -0.00147888 -0.00153939 -0.00159118 -0.00163423 -0.00166856 -0.00169354 -0.00170857 -0.00171363 -0.00170874 -0.00169521 -0.00167434 -0.00164615 -0.00161062 -0.00157051 -0.00152855 -0.00148474 -0.00143908 -0.00139435 -0.00135334 -0.00131604 -0.00128245 -0.00125399 -0.0012321 -0.00121677 -0.00120801 -0.00120539 -0.00120851 -0.00121737 -0.00123196 -0.00125074 -0.00127215 -0.00129621 -0.0013229 -0.00135082 -0.00137856 -0.00140613 -0.00143351 -0.00146029 -0.00148604 -0.00151076 -0.00153445 -0.00155745 -0.00158012 -0.00160244 -0.00162443 -0.00164629 -0.00166826 -0.00169034 -0.00171251 -0.00173433 -0.00175533 -0.0017755 -0.00179485 -0.0018126 -0.00182796 -0.00184093 -0.00185151 -0.00185934 -0.00186404 -0.00186561 -0.00186406 -0.00185957 -0.00185231 -0.00184229 -0.00182951 -0.00181406 -0.00179603 -0.00177542 -0.00175223 -0.00172587 -0.00169577 -0.00166192 -0.00162433 -0.00158196 -0.0015338 -0.00147986 -0.00142011 -0.00135409 -0.00128128 -0.0012017 -0.00111534 -0.00102341 -0.00092711 -0.000826445 -0.000721412 -0.000616008 -0.000514224 -0.000416062 -0.000321521 -0.00023613 -0.000165418 -0.000109384 -6.803e-05 -3.82669e-05 -1.70075e-05 -4.25188e-06 0 0 3.84511e-07 1.53804e-06 3.4606e-06 6.15218e-06 6.39345e-06 9.65074e-07 -1.01329e-05 -2.69006e-05 -5.1287e-05 -8.52414e-05 -0.000128764 -0.000181854 -0.00024445 -0.000316491 -0.000397975 -0.000488903 -0.000588753 -0.000697001 -0.000813647 -0.000938692 -0.00107066 -0.00120809 -0.00135097 -0.0014993 -0.00165014 -0.00180052 -0.00195045 -0.00209993 -0.00224494 -0.00238147 -0.00250953 -0.00262911 -0.0027367 -0.00282876 -0.00290531 -0.00296633 -0.00301074 -0.00303745 -0.00304646 -0.00303776 -0.0030137 -0.00297661 -0.00292648 -0.00286333 -0.00279202 -0.00271742 -0.00263953 -0.00255836 -0.00247885 -0.00240593 -0.00233962 -0.0022799 -0.00222932 -0.00219041 -0.00216316 -0.00214757 -0.00214292 -0.00214846 -0.00216421 -0.00219015 -0.00222353 -0.00226161 -0.00230437 -0.00235182 -0.00240146 -0.00245078 -0.00249978 -0.00254846 -0.00259607 -0.00264185 -0.0026858 -0.00272791 -0.00276881 -0.0028091 -0.00284879 -0.00288787 -0.00292674 -0.0029658 -0.00300504 -0.00304447 -0.00308325 -0.00312058 -0.00315645 -0.00319085 -0.00322241 -0.00324971 -0.00327277 -0.00329158 -0.00330549 -0.00331384 -0.00331664 -0.00331388 -0.00330589 -0.003293 -0.00327519 -0.00325247 -0.003225 -0.00319294 -0.0031563 -0.00311507 -0.00306821 -0.0030147 -0.00295452 -0.00288769 -0.00281238 -0.00272676 -0.00263085 -0.00252465 -0.00240727 -0.00227784 -0.00213636 -0.00198283 -0.00181939 -0.0016482 -0.00146924 -0.00128251 -0.00109512 -0.000914176 -0.000739665 -0.000571592 -0.000419786 -0.000294076 -0.000194461 -0.000120942 -6.803e-05 -3.02356e-05 -7.55889e-06 0 0 3.38943e-07 1.35577e-06 3.05049e-06 5.42309e-06 3.47953e-06 -7.77421e-06 -2.83382e-05 -5.82123e-05 -0.000100193 -0.000157079 -0.000228868 -0.00031556 -0.00041697 -0.000532907 -0.000663373 -0.000808367 -0.000967034 -0.00113852 -0.00132282 -0.00151993 -0.00172757 -0.00194343 -0.00216751 -0.00239982 -0.00263578 -0.00287081 -0.00310492 -0.00333811 -0.00356417 -0.00377692 -0.00397635 -0.00416246 -0.00432983 -0.00447305 -0.00459212 -0.00468704 -0.00475618 -0.00479791 -0.00481223 -0.00479914 -0.00476232 -0.00470545 -0.00462854 -0.00453159 -0.00442214 -0.00430775 -0.00418841 -0.00406413 -0.00394244 -0.00383088 -0.00372944 -0.00363813 -0.00356061 -0.00350051 -0.00345784 -0.0034326 -0.00342328 -0.00342836 -0.00344784 -0.00348173 -0.0035254 -0.00357423 -0.00362823 -0.00368738 -0.0037477 -0.00380515 -0.00385975 -0.00391149 -0.00395947 -0.00400277 -0.0040414 -0.00407535 -0.00410628 -0.00413583 -0.00416401 -0.00419081 -0.00421778 -0.00424646 -0.00427685 -0.00430897 -0.00434236 -0.0043766 -0.00441169 -0.00444764 -0.00448272 -0.00451525 -0.00454521 -0.00457261 -0.00459638 -0.00461544 -0.0046298 -0.00463945 -0.00464435 -0.00464446 -0.00463978 -0.00463032 -0.00461547 -0.00459462 -0.00456777 -0.00453492 -0.00449358 -0.00444122 -0.00437786 -0.00430349 -0.00421463 -0.00410783 -0.00398307 -0.00384036 -0.0036781 -0.00349472 -0.00329021 -0.00306457 -0.0028213 -0.00256389 -0.00229236 -0.0020067 -0.00171828 -0.0014385 -0.00116734 -0.000904819 -0.000666748 -0.000468955 -0.000311439 -0.0001942 -0.000109238 -4.85501e-05 -1.21375e-05 0 0 -1.82273e-07 -7.29093e-07 -1.64046e-06 -2.91637e-06 -1.16557e-05 -3.49571e-05 -7.28208e-05 -0.000125247 -0.000195626 -0.000287348 -0.000400415 -0.000534825 -0.000690077 -0.000865665 -0.00106159 -0.00127786 -0.00151312 -0.00176607 -0.00203668 -0.00232497 -0.00262763 -0.00294137 -0.00326618 -0.00360207 -0.00394255 -0.00428115 -0.00461787 -0.00495271 -0.00527692 -0.00558177 -0.00586725 -0.00613337 -0.00637254 -0.00657717 -0.00674728 -0.00688285 -0.00698175 -0.00704182 -0.00706307 -0.00704549 -0.00699447 -0.00691539 -0.00680825 -0.00667305 -0.0065205 -0.00636132 -0.00619551 -0.00602307 -0.00585437 -0.00569977 -0.00555929 -0.00543292 -0.00532513 -0.0052404 -0.00517873 -0.00514012 -0.00512144 -0.00511958 -0.00513454 -0.00516632 -0.00520746 -0.00525049 -0.00529543 -0.00534226 -0.00538496 -0.00541751 -0.00543989 -0.00545211 -0.00545357 -0.00544367 -0.0054224 -0.00538976 -0.0053499 -0.00530694 -0.00526089 -0.00521175 -0.00516413 -0.00512262 -0.00508725 -0.00505799 -0.00503642 -0.00502409 -0.00502099 -0.00502713 -0.00504127 -0.00506215 -0.00508977 -0.00512414 -0.00516358 -0.00520641 -0.00525263 -0.00530225 -0.00535381 -0.00540586 -0.0054584 -0.00551143 -0.00556188 -0.0056067 -0.00564588 -0.00567943 -0.00570146 -0.0057061 -0.00569334 -0.00566319 -0.00560904 -0.00552426 -0.00540886 -0.00526284 -0.00508335 -0.00486754 -0.00461541 -0.00432695 -0.00400761 -0.00366279 -0.0032925 -0.00289674 -0.00249263 -0.00209728 -0.00171071 -0.00133291 -0.000987849 -0.000699517 -0.000467912 -0.000293033 -0.000164831 -7.32581e-05 -1.83145e-05 0 0 -1.17914e-06 -4.71655e-06 -1.06122e-05 -1.88662e-05 -3.90121e-05 -8.05837e-05 -0.000143581 -0.000228004 -0.000337584 -0.000476051 -0.000643406 -0.000839649 -0.00106377 -0.00131477 -0.00159263 -0.00189737 -0.00222702 -0.00257965 -0.00295524 -0.0033538 -0.00377085 -0.00420191 -0.00464697 -0.00510604 -0.00557045 -0.00603154 -0.0064893 -0.00694374 -0.0073832 -0.00779604 -0.00818226 -0.00854185 -0.00886481 -0.00914111 -0.00937076 -0.00955376 -0.00968745 -0.00976919 -0.00979899 -0.00977683 -0.00971015 -0.00960641 -0.00946559 -0.0092877 -0.0090871 -0.00887814 -0.00866084 -0.00843519 -0.00821463 -0.00801263 -0.00782917 -0.00766426 -0.00752291 -0.0074101 -0.00732584 -0.00727013 -0.00723741 -0.00722214 -0.00722432 -0.00724393 -0.00726972 -0.0072904 -0.00730597 -0.00731645 -0.00731326 -0.00728784 -0.0072402 -0.00717033 -0.00707839 -0.00696455 -0.0068288 -0.00667115 -0.00649966 -0.00632243 -0.00613944 -0.0059507 -0.00576579 -0.0055943 -0.00543622 -0.00529155 -0.00516544 -0.00506304 -0.00498434 -0.00492935 -0.00489804 -0.00489041 -0.00490645 -0.00494616 -0.00500707 -0.00508674 -0.00518514 -0.00530229 -0.00543428 -0.00557719 -0.00573102 -0.00589578 -0.00606424 -0.0062292 -0.00639065 -0.00654858 -0.00669186 -0.00680932 -0.00690097 -0.00696681 -0.00699559 -0.00697606 -0.00690823 -0.0067921 -0.006623 -0.00639629 -0.00611195 -0.00576999 -0.00537833 -0.00494488 -0.00446965 -0.00395264 -0.00341816 -0.00289054 -0.00236977 -0.00185585 -0.00138309 -0.000985762 -0.000663879 -0.000417439 -0.000234809 -0.00010436 -2.60899e-05 0 0 -2.65165e-06 -1.06066e-05 -2.38648e-05 -4.24264e-05 -7.85899e-05 -0.000144654 -0.000240619 -0.000366484 -0.000526067 -0.000723186 -0.000957841 -0.00123003 -0.00153805 -0.00188021 -0.00225649 -0.0026669 -0.00310873 -0.00357926 -0.00407849 -0.00460643 -0.00515722 -0.00572504 -0.00630988 -0.00691175 -0.00751949 -0.00812199 -0.00871922 -0.0093112 -0.009883 -0.0104197 -0.0109214 -0.0113879 -0.0118067 -0.0121649 -0.0124626 -0.0126998 -0.0128733 -0.01298 -0.01302 -0.0129931 -0.0129094 -0.0127785 -0.0126006 -0.0123755 -0.0121219 -0.0118582 -0.0115844 -0.0113005 -0.0110232 -0.0107694 -0.0105391 -0.0103322 -0.0101539 -0.0100096 -0.00989916 -0.00982263 -0.00977119 -0.00973603 -0.00971715 -0.00971455 -0.00971217 -0.00969394 -0.00965987 -0.00960994 -0.00953257 -0.00941615 -0.00926067 -0.00906614 -0.00883393 -0.00856542 -0.00826061 -0.0079195 -0.00755557 -0.00718228 -0.00679964 -0.00640765 -0.00602278 -0.00566148 -0.00532377 -0.00500963 -0.00472942 -0.00449345 -0.00430173 -0.00415427 -0.00405304 -0.00400003 -0.00399524 -0.00403866 -0.00412687 -0.00425643 -0.00442733 -0.00463958 -0.00488576 -0.00515845 -0.00545766 -0.00578338 -0.00612255 -0.00646211 -0.00680205 -0.00714239 -0.00746478 -0.0077509 -0.00800075 -0.00821433 -0.00837428 -0.00846322 -0.00848118 -0.00842813 -0.00829706 -0.00808097 -0.00777984 -0.00739367 -0.00693346 -0.00641017 -0.00582382 -0.0051744 -0.00449489 -0.00381826 -0.00314452 -0.00247366 -0.00185246 -0.00132769 -0.000899341 -0.000567419 -0.000319173 -0.000141855 -3.54637e-05 0 0 -4.81068e-06 -1.92427e-05 -4.32961e-05 -7.69709e-05 -0.000135403 -0.00023373 -0.00037195 -0.000550064 -0.000771225 -0.00103859 -0.00135215 -0.00171191 -0.00211505 -0.00255877 -0.00304305 -0.0035679 -0.00412968 -0.00472476 -0.00535314 -0.00601481 -0.00670262 -0.00740942 -0.00813519 -0.00887995 -0.00963025 -0.0103726 -0.0111071 -0.0118337 -0.0125344 -0.0131914 -0.0138045 -0.0143739 -0.0148843 -0.0153207 -0.015683 -0.0159712 -0.016182 -0.0163122 -0.0163616 -0.0163304 -0.0162309 -0.0160758 -0.0158649 -0.0155983 -0.0152985 -0.0149881 -0.0146671 -0.0143354 -0.0140127 -0.0137183 -0.0134524 -0.0132148 -0.0130099 -0.012842 -0.0127111 -0.0126171 -0.0125466 -0.0124858 -0.0124348 -0.0123936 -0.0123398 -0.0122514 -0.0121281 -0.0119701 -0.0117622 -0.0114891 -0.0111509 -0.0107475 -0.0102825 -0.00975968 -0.00917891 -0.00854021 -0.00786516 -0.00717532 -0.00647071 -0.00575132 -0.00504405 -0.00437583 -0.00374664 -0.0031565 -0.002624 -0.00216777 -0.00178779 -0.00148408 -0.0012622 -0.00112776 -0.00108075 -0.00112117 -0.00124441 -0.00144587 -0.00172554 -0.00208344 -0.00250676 -0.00298274 -0.00351137 -0.00409265 -0.00470462 -0.00532531 -0.00595472 -0.00659286 -0.00721086 -0.00777988 -0.00829991 -0.00877095 -0.00916701 -0.00946209 -0.00965619 -0.0097493 -0.00973112 -0.00959133 -0.00932992 -0.00894691 -0.00845696 -0.00787473 -0.00720024 -0.00643348 -0.00561773 -0.00479626 -0.00396908 -0.00313619 -0.00235914 -0.00169948 -0.00115722 -0.000732346 -0.000411944 -0.000183086 -4.57716e-05 0 0 -7.8671e-06 -3.14684e-05 -7.08039e-05 -0.000125874 -0.000214467 -0.000354373 -0.000545591 -0.000788122 -0.00108321 -0.00143208 -0.00183475 -0.00229122 -0.0027969 -0.00334722 -0.00394218 -0.00458179 -0.00526131 -0.005976 -0.00672588 -0.00751093 -0.00832294 -0.00915369 -0.0100032 -0.0108714 -0.0117433 -0.0126037 -0.0134525 -0.0142899 -0.0150956 -0.0158495 -0.0165517 -0.0172021 -0.017784 -0.0182807 -0.0186922 -0.0190184 -0.0192564 -0.0194035 -0.0194595 -0.0194245 -0.0193137 -0.0191422 -0.0189102 -0.0186176 -0.0182903 -0.0179544 -0.0176098 -0.0172566 -0.0169156 -0.0166075 -0.0163324 -0.0160904 -0.0158826 -0.0157105 -0.015574 -0.0154732 -0.0153874 -0.015296 -0.015199 -0.0150964 -0.0149578 -0.0147529 -0.0144818 -0.0141444 -0.0137214 -0.0131934 -0.0125603 -0.0118222 -0.0109866 -0.0100608 -0.00904478 -0.00793864 -0.00677596 -0.00559036 -0.00438184 -0.00315039 -0.00193858 -0.000788978 0.000298418 0.00132361 0.00225514 0.00306156 0.00374287 0.00429907 0.00471855 0.00498966 0.00511243 0.00508684 0.00491888 0.00461456 0.00417387 0.0035968 0.00290418 0.00211684 0.00123477 0.000257966 -0.000778282 -0.0018387 -0.00292328 -0.00403202 -0.00512075 -0.00614531 -0.00710567 -0.00800186 -0.00879569 -0.00944898 -0.00996175 -0.010334 -0.0105507 -0.0105971 -0.0104731 -0.0101786 -0.00973279 -0.00915464 -0.00844416 -0.00760135 -0.00668161 -0.00574035 -0.00477758 -0.00379329 -0.00286627 -0.00207531 -0.00142042 -0.000901591 -0.000507145 -0.000225398 -5.63495e-05 0 0 -1.18209e-05 -4.72837e-05 -0.000106388 -0.000189135 -0.00031578 -0.000506583 -0.000761542 -0.00108066 -0.00146201 -0.00190368 -0.00240566 -0.00296795 -0.00358358 -0.00424556 -0.00495389 -0.00570858 -0.00650361 -0.00733298 -0.0081967 -0.00909477 -0.0100182 -0.0109579 -0.0119139 -0.0128862 -0.0138586 -0.014815 -0.0157554 -0.0166797 -0.0175665 -0.0183942 -0.019163 -0.0198727 -0.0205058 -0.021045 -0.0214901 -0.0218413 -0.0220965 -0.022254 -0.0223136 -0.0222755 -0.0221576 -0.0219779 -0.0217365 -0.0214334 -0.0210973 -0.020757 -0.0204126 -0.0200639 -0.0197318 -0.0194369 -0.0191793 -0.0189588 -0.0187719 -0.018615 -0.018488 -0.0183909 -0.0182937 -0.0181667 -0.0180098 -0.0178229 -0.0175659 -0.0171986 -0.0167209 -0.0161328 -0.0154102 -0.014529 -0.0134891 -0.0122905 -0.0109461 -0.00946864 -0.00785822 -0.0061148 -0.00428799 -0.0024274 -0.000533024 0.00139513 0.00329364 0.00509906 0.00681141 0.00843068 0.00990801 0.0111945 0.0122903 0.0131952 0.0138892 0.0143522 0.0145843 0.0145853 0.014363 0.0139249 0.0132709 0.0124011 0.0113471 0.0101403 0.00878076 0.00726848 0.00565647 0.00399774 0.00229229 0.000540129 -0.00119446 -0.00284719 -0.00441806 -0.00590706 -0.00726031 -0.00842391 -0.00939787 -0.0101822 -0.010756 -0.0110983 -0.0112093 -0.0110888 -0.010761 -0.0102499 -0.00955557 -0.008678 -0.00768654 -0.00665054 -0.00557002 -0.00444496 -0.00337385 -0.00245518 -0.00168895 -0.00107516 -0.000604775 -0.000268789 -6.71973e-05 0 0 -1.66721e-05 -6.66885e-05 -0.000150049 -0.000266754 -0.000439344 -0.00069036 -0.0010198 -0.00142767 -0.00190764 -0.00245337 -0.00306486 -0.00374212 -0.00447511 -0.0052538 -0.00607818 -0.00694826 -0.00785658 -0.0087957 -0.00976562 -0.0107663 -0.0117883 -0.0128219 -0.0138672 -0.0149242 -0.0159763 -0.0170068 -0.0180158 -0.0190032 -0.0199471 -0.0208255 -0.0216382 -0.0223854 -0.0230497 -0.0236135 -0.0240769 -0.02444 -0.0247023 -0.0248636 -0.024924 -0.0248833 -0.0247626 -0.0245828 -0.0243439 -0.0240458 -0.0237196 -0.0233961 -0.0230754 -0.0227575 -0.0224615 -0.0222066 -0.0219928 -0.0218202 -0.021678 -0.0215556 -0.0214529 -0.02137 -0.0212655 -0.0210978 -0.0208671 -0.0205733 -0.0201643 -0.0195884 -0.0188453 -0.0179353 -0.0168286 -0.0154959 -0.0139371 -0.0121521 -0.010161 -0.00798333 -0.00561924 -0.00306869 -0.000401234 0.00231357 0.00507573 0.00788524 0.0106526 0.0132883 0.0157923 0.0181647 0.0203346 0.0222312 0.0238544 0.0252042 0.0262498 0.02696 0.0273348 0.0273744 0.027088 0.026485 0.0255656 0.0243296 0.0228219 0.0210876 0.0191266 0.0169389 0.0145996 0.012184 0.00969198 0.00712359 0.00456802 0.00211447 -0.000237049 -0.00248655 -0.00456087 -0.00638687 -0.00796454 -0.00929389 -0.0103467 -0.0110949 -0.0115385 -0.0116774 -0.0115415 -0.0111605 -0.0105345 -0.00966344 -0.00863251 -0.00752682 -0.00634639 -0.0050912 -0.0038819 -0.0028391 -0.00196282 -0.00125304 -0.000704835 -0.00031326 -7.8315e-05 0 0 -2.23595e-05 -8.94382e-05 -0.000201236 -0.000357753 -0.000583373 -0.000902483 -0.00131508 -0.00182117 -0.00240839 -0.0030644 -0.0037892 -0.00458279 -0.00543112 -0.00632016 -0.00724991 -0.00822037 -0.00922238 -0.0102468 -0.0112936 -0.0123628 -0.0134449 -0.0145301 -0.0156186 -0.0167103 -0.0177895 -0.0188404 -0.019863 -0.0208572 -0.0218023 -0.0226774 -0.0234826 -0.0242177 -0.0248672 -0.0254154 -0.0258621 -0.0262075 -0.026454 -0.0266038 -0.026657 -0.0266136 -0.0264975 -0.0263325 -0.0261187 -0.0258561 -0.0255764 -0.0253115 -0.0250614 -0.0248262 -0.0246209 -0.0244608 -0.0243459 -0.0242762 -0.0242308 -0.024189 -0.0241506 -0.0241158 -0.0240285 -0.0238325 -0.0235278 -0.0231146 -0.0225265 -0.0216976 -0.0206278 -0.0193171 -0.0177299 -0.0158308 -0.0136197 -0.0110967 -0.00829081 -0.005231 -0.00191732 0.00165025 0.00537688 0.00916779 0.013023 0.0169424 0.0208038 0.0244851 0.0279861 0.0313069 0.0343493 0.0370149 0.0393039 0.0412161 0.0427071 0.0437323 0.0442917 0.0443852 0.0440244 0.0432207 0.0419739 0.0402842 0.0382126 0.0358204 0.0331074 0.0300736 0.0268215 0.0234535 0.0199694 0.0163695 0.0127736 0.00930201 0.00595463 0.00273149 -0.000270335 -0.00295374 -0.00531873 -0.0073653 -0.00905618 -0.0103541 -0.011259 -0.011771 -0.0119264 -0.0117615 -0.0112764 -0.010471 -0.00944853 -0.00831215 -0.00706185 -0.00569763 -0.00436488 -0.00320897 -0.00222989 -0.00142765 -0.000803051 -0.000356912 -8.92279e-05 0 0 -2.8822e-05 -0.000115288 -0.000259398 -0.000461152 -0.000746084 -0.00113973 -0.00164208 -0.00225315 -0.00295258 -0.00372004 -0.00455551 -0.00545901 -0.00641124 -0.00739288 -0.00840395 -0.00944445 -0.0105032 -0.0115689 -0.0126416 -0.0137214 -0.0147994 -0.0158667 -0.0169233 -0.0179694 -0.0189917 -0.0199774 -0.0209263 -0.0218385 -0.0226969 -0.0234844 -0.024201 -0.0248467 -0.0254101 -0.0258797 -0.0262553 -0.0265372 -0.0267318 -0.0268458 -0.0268792 -0.026832 -0.0267309 -0.0266028 -0.0264476 -0.0262654 -0.026087 -0.0259431 -0.0258338 -0.0257591 -0.0257266 -0.025744 -0.0258113 -0.0259285 -0.0260605 -0.0261719 -0.0262629 -0.0263333 -0.0263084 -0.0261136 -0.0257488 -0.025214 -0.024426 -0.0233016 -0.0218407 -0.0200434 -0.0178674 -0.0152705 -0.0122526 -0.00881371 -0.00499507 -0.000837812 0.00365807 0.00849257 0.013539 0.0186705 0.0238872 0.029189 0.0344129 0.0393958 0.0441376 0.0486384 0.0527662 0.0563892 0.0595074 0.0621206 0.0641681 0.0655887 0.0663824 0.0665494 0.0661031 0.0650574 0.063412 0.0611672 0.0584031 0.0552 0.051558 0.0474771 0.0430925 0.0385396 0.0338184 0.0289289 0.0240293 0.0192777 0.0146743 0.0102188 0.00603834 0.0022596 -0.00111738 -0.0040926 -0.00661732 -0.00864283 -0.0101691 -0.0111962 -0.0117679 -0.0119281 -0.0116768 -0.011014 -0.0100636 -0.00894947 -0.00767154 -0.00622987 -0.0047973 -0.00354669 -0.00247805 -0.00159138 -0.00089515 -0.000397845 -9.94611e-05 0 0 -3.60595e-05 -0.000144238 -0.000324535 -0.000576952 -0.000927475 -0.00140209 -0.00200081 -0.00272362 -0.00354021 -0.00442027 -0.0053638 -0.0063708 -0.00741546 -0.00847197 -0.00954031 -0.0106205 -0.0116989 -0.012762 -0.0138097 -0.0148421 -0.0158518 -0.0168316 -0.0177814 -0.0187013 -0.0195829 -0.0204177 -0.0212057 -0.021947 -0.0226308 -0.0232463 -0.0237935 -0.0242725 -0.0246784 -0.0250064 -0.0252566 -0.0254289 -0.0255358 -0.0255897 -0.0255905 -0.0255383 -0.0254628 -0.0253935 -0.0253306 -0.025274 -0.0252515 -0.025291 -0.0253926 -0.0255561 -0.0257784 -0.026056 -0.0263889 -0.0267772 -0.027167 -0.0275044 -0.0277896 -0.0280224 -0.0281054 -0.0279413 -0.0275301 -0.0268717 -0.0258628 -0.0244003 -0.0224842 -0.0201143 -0.0172411 -0.0138149 -0.0098355 -0.00530307 -0.000273757 0.00519624 0.0111069 0.0174583 0.024085 0.0308217 0.0376684 0.0446251 0.0514798 0.0580204 0.0642468 0.0701592 0.0755856 0.0803541 0.0844649 0.0879178 0.0906326 0.0925291 0.0936071 0.0938667 0.0933241 0.0919951 0.08988 0.0869785 0.0833933 0.0792267 0.0744786 0.0691492 0.0634124 0.0574423 0.0512387 0.0448018 0.038335 0.0320417 0.0259219 0.0199755 0.0143652 0.00925314 0.00463949 0.000524206 -0.00303019 -0.00596117 -0.00826874 -0.00995289 -0.011066 -0.0116602 -0.0117358 -0.0112926 -0.0104778 -0.00943878 -0.00817548 -0.0066879 -0.00517914 -0.00385227 -0.0027073 -0.00174424 -0.000981133 -0.000436059 -0.000109015 0 0 -4.4072e-05 -0.000176288 -0.000396648 -0.000705153 -0.00112755 -0.00168958 -0.00239126 -0.00323257 -0.00417127 -0.0051651 -0.00621406 -0.00731816 -0.0084438 -0.00955741 -0.010659 -0.0117485 -0.0128097 -0.0138261 -0.0147978 -0.0157248 -0.0166021 -0.0174248 -0.0181928 -0.0189062 -0.019563 -0.0201614 -0.0207013 -0.0211829 -0.0216041 -0.0219632 -0.0222601 -0.0224949 -0.0226719 -0.0227956 -0.0228658 -0.0228827 -0.022866 -0.0228354 -0.022791 -0.0227327 -0.0226931 -0.0227047 -0.0227676 -0.0228816 -0.0230698 -0.0233552 -0.0237377 -0.0242174 -0.0247764 -0.0253968 -0.0260787 -0.0268221 -0.0275503 -0.0281865 -0.0287308 -0.0291831 -0.0294194 -0.0293156 -0.0288716 -0.0280874 -0.0268369 -0.0249938 -0.0225581 -0.0195298 -0.0158511 -0.011464 -0.00636856 -0.000564811 0.00587314 0.0128711 0.0204292 0.0285473 0.0370149 0.0456213 0.0543666 0.0632507 0.0720045 0.0803589 0.0883138 0.0958693 0.102807 0.10891 0.114176 0.118608 0.122101 0.124554 0.125966 0.126337 0.125687 0.124034 0.121378 0.117718 0.113183 0.1079 0.101869 0.0950901 0.0877814 0.0801616 0.0722305 0.0639883 0.0556908 0.0475938 0.0396974 0.0320016 0.0247101 0.0180269 0.0119519 0.00648512 0.00170523 -0.00230911 -0.00555789 -0.00804112 -0.00982055 -0.0109579 -0.0114533 -0.0113065 -0.0106911 -0.00978009 -0.00857365 -0.00707174 -0.00551041 -0.00412571 -0.00291765 -0.00188622 -0.001061 -0.000471555 -0.000117889 0 0 -5.26106e-05 -0.000210442 -0.000473495 -0.000841769 -0.00133976 -0.00199197 -0.00279839 -0.00375902 -0.00481742 -0.00591714 -0.00705818 -0.00824054 -0.00942122 -0.0105572 -0.0116486 -0.0126953 -0.0136777 -0.0145762 -0.0153908 -0.0161215 -0.0167667 -0.017325 -0.0177962 -0.0181804 -0.018485 -0.0187174 -0.0188777 -0.0189658 -0.0189925 -0.0189686 -0.0188943 -0.0187694 -0.0186111 -0.0184365 -0.0182457 -0.0180387 -0.0178447 -0.0176931 -0.0175839 -0.017517 -0.0175278 -0.0176517 -0.0178886 -0.0182386 -0.0187171 -0.0193396 -0.020106 -0.0210163 -0.0220336 -0.0231206 -0.0242774 -0.025504 -0.0266953 -0.0277462 -0.0286567 -0.0294268 -0.0299008 -0.0299232 -0.0294938 -0.0286128 -0.0271277 -0.0248862 -0.0218883 -0.0181339 -0.0135567 -0.00809022 -0.00173452 0.00551041 0.0135486 0.0222842 0.0317172 0.0418475 0.0524115 0.0631456 0.0740497 0.0851239 0.0960337 0.106445 0.116357 0.12577 0.134415 0.142023 0.148594 0.154127 0.158498 0.161578 0.16337 0.163872 0.163106 0.161094 0.157836 0.153331 0.147734 0.141199 0.133726 0.125314 0.116231 0.106744 0.0968526 0.0865571 0.0761727 0.0660147 0.0560831 0.0463778 0.0371508 0.028654 0.0208874 0.013851 0.00764261 0.00236022 -0.0019962 -0.00542664 -0.00800308 -0.00979749 -0.0108099 -0.0110403 -0.0106908 -0.0099635 -0.00885848 -0.00737571 -0.00578701 -0.0043642 -0.00310726 -0.00201621 -0.00113412 -0.000504054 -0.000126013 0 0 -6.14261e-05 -0.000245704 -0.000552835 -0.000982817 -0.00155757 -0.00229902 -0.00320716 -0.004282 -0.00545035 -0.00663904 -0.00784806 -0.00907742 -0.0102727 -0.0113795 -0.0123977 -0.0133275 -0.0141452 -0.0148271 -0.0153734 -0.0157839 -0.0160619 -0.0162107 -0.0162302 -0.0161205 -0.0159019 -0.0155949 -0.0151994 -0.0147154 -0.0141715 -0.0135962 -0.0129894 -0.0123511 -0.011716 -0.0111186 -0.0105589 -0.0100369 -0.00959432 -0.00927278 -0.00907232 -0.00899293 -0.00907268 -0.00934965 -0.00982384 -0.0104952 -0.0113684 -0.0124481 -0.0137341 -0.0152266 -0.0168631 -0.0185815 -0.0203816 -0.0222635 -0.0240868 -0.0257115 -0.0271373 -0.0283644 -0.0291999 -0.0294508 -0.0291173 -0.0281992 -0.0265147 -0.0238817 -0.0203004 -0.0157706 -0.0102174 -0.00356596 0.00418383 0.0130319 0.0228558 0.0335329 0.0450631 0.0574465 0.0703575 0.0834706 0.0967856 0.110303 0.123614 0.136311 0.148394 0.159863 0.170394 0.179663 0.18767 0.194415 0.199748 0.20352 0.205732 0.206382 0.205495 0.203096 0.199185 0.193762 0.187007 0.179101 0.170044 0.159835 0.148793 0.137236 0.125164 0.112577 0.0998569 0.0873849 0.075161 0.0631852 0.0517649 0.0412078 0.0315137 0.0226826 0.0148356 0.00809366 0.00245673 -0.00207517 -0.00558489 -0.00815527 -0.00978632 -0.010478 -0.0104643 -0.0099791 -0.00902238 -0.00759416 -0.00600486 -0.00456492 -0.00327433 -0.0021331 -0.00119987 -0.000533275 -0.000133319 0 0 -7.05185e-05 -0.000282074 -0.000634667 -0.0011283 -0.00178098 -0.00261074 -0.00361758 -0.00480149 -0.00607004 -0.00733077 -0.00858369 -0.00982879 -0.0109982 -0.0120241 -0.0129065 -0.0136453 -0.0142122 -0.014579 -0.0147455 -0.0147119 -0.0144875 -0.0140818 -0.0134948 -0.0127264 -0.0118137 -0.0107937 -0.00966646 -0.00843193 -0.00714131 -0.00584581 -0.00454543 -0.00324017 -0.00198673 -0.000841781 0.000194661 0.0011226 0.00188517 0.0024255 0.00274359 0.00283943 0.0026723 0.00220144 0.00142687 0.000348566 -0.00102385 -0.00268076 -0.00462218 -0.0068481 -0.009265 -0.0117793 -0.0143912 -0.0171004 -0.0197249 -0.0220823 -0.0241727 -0.0259961 -0.0273167 -0.0278986 -0.027742 -0.0268466 -0.0249978 -0.0219803 -0.0177944 -0.0124399 -0.00583334 0.00210879 0.0113865 0.0219998 0.0337946 0.046617 0.0604669 0.0753443 0.0908528 0.106596 0.122574 0.138787 0.154745 0.169958 0.184425 0.198148 0.210743 0.221828 0.231404 0.239469 0.245852 0.250379 0.253051 0.253866 0.252854 0.25004 0.245426 0.239012 0.231003 0.221607 0.210823 0.198652 0.185466 0.171637 0.157164 0.142048 0.126743 0.111704 0.0969311 0.0824236 0.0685524 0.0556881 0.0438307 0.0329801 0.0232843 0.0148912 0.0078009 0.00201327 -0.00256599 -0.00603126 -0.00838253 -0.00961981 -0.0100117 -0.00982691 -0.00906535 -0.00772707 -0.00616394 -0.00472787 -0.00341885 -0.00223688 -0.00125825 -0.000559221 -0.000139805 0 0 -7.98879e-05 -0.000319552 -0.000718991 -0.00127821 -0.00200999 -0.00292714 -0.00402964 -0.00531751 -0.00667649 -0.00799235 -0.00926507 -0.0104947 -0.0115978 -0.0124912 -0.0131747 -0.0136485 -0.0138787 -0.0138317 -0.0135073 -0.0129057 -0.0120437 -0.0109385 -0.00958995 -0.00799812 -0.00622034 -0.00431392 -0.00227888 -0.000115209 0.0020982 0.00428245 0.00643755 0.00856349 0.0105768 0.0123939 0.014015 0.0154399 0.0165937 0.0174018 0.0178639 0.0179801 0.0177071 0.0170016 0.0158635 0.0142928 0.0123167 0.0099624 0.00722987 0.00411911 0.000760836 -0.00271426 -0.00630617 -0.0100149 -0.0136094 -0.0168588 -0.0197629 -0.0223219 -0.0242512 -0.0252665 -0.0253678 -0.0245551 -0.022577 -0.019182 -0.0143703 -0.00814181 -0.00040439 0.00893404 0.0198735 0.032414 0.0463651 0.0615367 0.0779286 0.0955409 0.113898 0.132523 0.151416 0.170577 0.189427 0.207385 0.224451 0.240625 0.255462 0.268519 0.279796 0.289291 0.29681 0.302155 0.305327 0.306326 0.305182 0.301926 0.296558 0.289079 0.279721 0.268716 0.256065 0.241767 0.226252 0.209947 0.192853 0.17497 0.156832 0.138973 0.121394 0.104093 0.0875133 0.072095 0.0578384 0.0447433 0.0329886 0.0227529 0.0140363 0.0068387 0.00105362 -0.00342546 -0.00659854 -0.00846562 -0.00933299 -0.00950691 -0.0089874 -0.00777445 -0.00626427 -0.00485306 -0.00354082 -0.00232756 -0.00130925 -0.00058189 -0.000145472 0 0 -8.92405e-05 -0.000356962 -0.000803164 -0.00142785 -0.00223698 -0.00323652 -0.00442647 -0.00580683 -0.00723882 -0.00858365 -0.00984133 -0.0110118 -0.011994 -0.0126866 -0.0130897 -0.0132032 -0.0129872 -0.0124014 -0.011446 -0.0101209 -0.00845246 -0.0