<?xml version="1.0"?> 
<VTKFile type="StructuredGrid" version="0.1"> 
<StructuredGrid WholeExtent="0 128 0 128 0 0"> 
<Piece Extent="0 128 0 128 0 0"> 
<PointData>
<DataArray type="Float32" Name="u" format="ascii" NumberOfComponents="1"> 
0 0 0 0 0 0 0 0 0 0 0 0 0 0 0 0 0 0 0 0 0 0 0 0 0 0 0 0 0 0 0 0 0 0 0 0 0 0 0 0 0 0 0 0 0 0 0 0 0 0 0 0 0 0 0 0 0 0 0 0 0 0 0 0 0 0 0 0 0 0 0 0 0 0 0 0 0 0 0 0 0 0 0 0 0 0 0 0 0 0 0 0 0 0 0 0 0 0 0 0 0 0 0 0 0 0 0 0 0 0 0 0 0 0 0 0 0 0 0 0 0 0 0 0 0 0 0 0 0 0 -2.00403e-07 -8.01611e-07 -1.80362e-06 -3.20644e-06 -5.02183e-06 -7.26156e-06 -9.92563e-06 -1.3014e-05 -1.65232e-05 -2.04496e-05 -2.47931e-05 -2.95539e-05 -3.46762e-05 -4.01044e-05 -4.58384e-05 -5.18782e-05 -5.81626e-05 -6.46301e-05 -7.12809e-05 -7.81148e-05 -8.50697e-05 -9.20836e-05 -9.91563e-05 -0.000106288 -0.000113417 -0.000120482 -0.000127483 -0.00013442 -0.000141236 -0.000147876 -0.000154338 -0.000160624 -0.000166689 -0.000172489 -0.000178023 -0.000183292 -0.00018827 -0.000192933 -0.00019728 -0.000201312 -0.000205026 -0.000208419 -0.000211494 -0.000214248 -0.000216703 -0.000218878 -0.000220775 -0.000222392 -0.000223767 -0.000224935 -0.000225898 -0.000226654 -0.000227248 -0.00022772 -0.000228073 -0.000228304 -0.000228453 -0.000228555 -0.000228611 -0.000228621 -0.000228606 -0.000228588 -0.000228566 -0.00022854 -0.000228511 -0.000228478 -0.00022844 -0.000228398 -0.00022833 -0.000228215 -0.000228051 -0.00022784 -0.000227544 -0.000227125 -0.000226584 -0.00022592 -0.000225092 -0.000224056 -0.000222814 -0.000221364 -0.000219672 -0.000217701 -0.000215451 -0.000212923 -0.000210097 -0.000206954 -0.000203494 -0.000199717 -0.000195627 -0.000191226 -0.000186515 -0.000181494 -0.000176189 -0.000170625 -0.000164804 -0.000158724 -0.000152431 -0.00014597 -0.00013934 -0.000132542 -0.000125631 -0.000118665 -0.000111642 -0.000104564 -9.74903e-05 -9.04824e-05 -8.35401e-05 -7.66634e-05 -6.99131e-05 -6.335e-05 -5.69742e-05 -5.07855e-05 -4.48435e-05 -3.92073e-05 -3.38772e-05 -2.8853e-05 -2.41879e-05 -1.99353e-05 -1.60952e-05 -1.26674e-05 -9.65401e-06 -7.05701e-06 -4.87638e-06 -3.11213e-06 -1.75057e-06 -7.78032e-07 -1.94508e-07 0 0 -8.01611e-07 -3.20644e-06 -7.2145e-06 -1.28258e-05 -2.00873e-05 -2.90463e-05 -3.97025e-05 -5.20561e-05 -6.60928e-05 -8.17983e-05 -9.91726e-05 -0.000118216 -0.000138705 -0.000160417 -0.000183353 -0.000207513 -0.00023265 -0.000258521 -0.000285123 -0.000312459 -0.000340279 -0.000368334 -0.000396625 -0.000425152 -0.000453668 -0.000481928 -0.000509931 -0.000537679 -0.000564944 -0.000591502 -0.000617353 -0.000642497 -0.000666756 -0.000689954 -0.000712091 -0.000733167 -0.000753081 -0.000771732 -0.000789121 -0.000805247 -0.000820102 -0.000833678 -0.000845974 -0.000856992 -0.000866811 -0.000875514 -0.000883099 -0.000889568 -0.000895066 -0.000899741 -0.000903591 -0.000906617 -0.00090899 -0.000910881 -0.000912291 -0.000913218 -0.000913812 -0.000914221 -0.000914445 -0.000914485 -0.000914425 -0.000914351 -0.000914263 -0.000914161 -0.000914044 -0.00091391 -0.00091376 -0.000913593 -0.000913322 -0.000912859 -0.000912205 -0.00091136 -0.000910175 -0.000908499 -0.000906335 -0.000903681 -0.000900367 -0.000896226 -0.000891256 -0.000885457 -0.000878687 -0.000870802 -0.000861804 -0.00085169 -0.000840386 -0.000827814 -0.000813975 -0.000798869 -0.000782508 -0.000764905 -0.000746061 -0.000725976 -0.000704755 -0.000682501 -0.000659215 -0.000634897 -0.000609725 -0.00058388 -0.000557361 -0.000530167 -0.000502525 -0.000474659 -0.000446569 -0.000418255 -0.000389961 -0.000361929 -0.00033416 -0.000306654 -0.000279652 -0.0002534 -0.000227897 -0.000203142 -0.000179374 -0.000156829 -0.000135509 -0.000115412 -9.67518e-05 -7.97414e-05 -6.43806e-05 -5.06695e-05 -3.8616e-05 -2.8228e-05 -1.95055e-05 -1.24485e-05 -7.00229e-06 -3.11213e-06 -7.78032e-07 0 0 -1.80362e-06 -7.2145e-06 -1.62326e-05 -2.8858e-05 -4.51965e-05 -6.53541e-05 -8.93307e-05 -0.000117126 -0.000148709 -0.000184046 -0.000223138 -0.000265985 -0.000312086 -0.000360939 -0.000412545 -0.000466904 -0.000523463 -0.000581671 -0.000641528 -0.000703033 -0.000765627 -0.000828752 -0.000892407 -0.000956592 -0.00102075 -0.00108434 -0.00114735 -0.00120978 -0.00127112 -0.00133088 -0.00138904 -0.00144562 -0.0015002 -0.0015524 -0.00160221 -0.00164963 -0.00169443 -0.0017364 -0.00177552 -0.00181181 -0.00184523 -0.00187578 -0.00190344 -0.00192823 -0.00195033 -0.00196991 -0.00198697 -0.00200153 -0.0020139 -0.00202442 -0.00203308 -0.00203989 -0.00204523 -0.00204948 -0.00205265 -0.00205474 -0.00205608 -0.002057 -0.0020575 -0.00205759 -0.00205746 -0.00205729 -0.00205709 -0.00205686 -0.0020566 -0.0020563 -0.00205596 -0.00205558 -0.00205497 -0.00205393 -0.00205246 -0.00205056 -0.00204789 -0.00204412 -0.00203925 -0.00203328 -0.00202583 -0.00201651 -0.00200532 -0.00199228 -0.00197705 -0.00195931 -0.00193906 -0.0019163 -0.00189087 -0.00186258 -0.00183144 -0.00179745 -0.00176064 -0.00172104 -0.00167864 -0.00163345 -0.0015857 -0.00153563 -0.00148323 -0.00142852 -0.00137188 -0.00131373 -0.00125406 -0.00119288 -0.00113068 -0.00106798 -0.00100478 -0.000941075 -0.000877413 -0.000814341 -0.000751861 -0.00068997 -0.000629218 -0.00057015 -0.000512768 -0.00045707 -0.000403591 -0.000352866 -0.000304895 -0.000259677 -0.000217692 -0.000179418 -0.000144856 -0.000114006 -8.68861e-05 -6.35131e-05 -4.38874e-05 -2.80092e-05 -1.57552e-05 -7.00229e-06 -1.75057e-06 0 0 -3.20644e-06 -1.28258e-05 -2.8858e-05 -5.13031e-05 -8.03494e-05 -0.000116185 -0.00015881 -0.000208225 -0.000264371 -0.000327193 -0.00039669 -0.000472863 -0.000554819 -0.00064167 -0.000733414 -0.000830051 -0.000930601 -0.00103408 -0.00114049 -0.00124984 -0.00136112 -0.00147334 -0.0015865 -0.00170061 -0.00181467 -0.00192771 -0.00203973 -0.00215071 -0.00225978 -0.00236601 -0.00246941 -0.00256999 -0.00266702 -0.00275982 -0.00284837 -0.00293267 -0.00301232 -0.00308693 -0.00315648 -0.00322099 -0.00328041 -0.00333471 -0.0033839 -0.00342797 -0.00346724 -0.00350205 -0.0035324 -0.00355827 -0.00358027 -0.00359896 -0.00361436 -0.00362647 -0.00363596 -0.00364353 -0.00364916 -0.00365287 -0.00365525 -0.00365688 -0.00365778 -0.00365794 -0.0036577 -0.0036574 -0.00365705 -0.00365665 -0.00365618 -0.00365564 -0.00365504 -0.00365437 -0.00365329 -0.00365144 -0.00364882 -0.00364544 -0.0036407 -0.003634 -0.00362534 -0.00361472 -0.00360147 -0.0035849 -0.00356502 -0.00354183 -0.00351475 -0.00348321 -0.00344721 -0.00340676 -0.00336154 -0.00331126 -0.0032559 -0.00319547 -0.00313003 -0.00305962 -0.00298425 -0.00290391 -0.00281902 -0.00273 -0.00263686 -0.00253959 -0.0024389 -0.00233552 -0.00222944 -0.00212067 -0.0020101 -0.00189863 -0.00178628 -0.00167302 -0.00155984 -0.00144772 -0.00133664 -0.00122661 -0.00111861 -0.0010136 -0.000911587 -0.000812568 -0.000717495 -0.000627317 -0.000542035 -0.000461647 -0.000387007 -0.000318965 -0.000257522 -0.000202678 -0.000154464 -0.000112912 -7.80221e-05 -4.97941e-05 -2.80092e-05 -1.24485e-05 -3.11213e-06 0 0 -5.0182e-06 -2.00728e-05 -4.51638e-05 -8.02912e-05 -0.000125602 -0.000181245 -0.000247218 -0.000323523 -0.000410044 -0.000506666 -0.000613389 -0.000730214 -0.000855763 -0.00098866 -0.0011289 -0.0012765 -0.00142992 -0.00158767 -0.00174973 -0.00191612 -0.0020853 -0.00225573 -0.00242742 -0.00260037 -0.00277307 -0.00294401 -0.0031132 -0.00328062 -0.00344491 -0.0036047 -0.00375998 -0.00391076 -0.00405596 -0.00419453 -0.00432646 -0.00445176 -0.00456983 -0.00468009 -0.00478253 -0.00487717 -0.00496397 -0.00504293 -0.00511406 -0.00517734 -0.00523331 -0.00528253 -0.00532497 -0.00536065 -0.00539051 -0.00541547 -0.00543554 -0.00545073 -0.0054621 -0.00547076 -0.00547669 -0.0054799 -0.00548132 -0.0054819 -0.00548163 -0.00548051 -0.00547908 -0.00547787 -0.00547689 -0.00547614 -0.0054756 -0.00547527 -0.00547516 -0.00547525 -0.005475 -0.00547386 -0.00547183 -0.00546891 -0.00546416 -0.00545663 -0.00544634 -0.00543327 -0.00541635 -0.00539452 -0.00536776 -0.00533609 -0.00529857 -0.00525431 -0.00520328 -0.00514551 -0.00508047 -0.00500766 -0.00492707 -0.00483871 -0.00474262 -0.00463885 -0.00452739 -0.00440825 -0.00428204 -0.00414936 -0.00401023 -0.00386463 -0.00371366 -0.00355838 -0.0033988 -0.00323492 -0.00306811 -0.00289974 -0.00272981 -0.00255832 -0.00238677 -0.00221664 -0.00204793 -0.00188065 -0.00171629 -0.00155635 -0.00140083 -0.00124973 -0.00110452 -0.000966663 -0.000836156 -0.000713002 -0.000598517 -0.000494018 -0.000399506 -0.000314981 -0.000240518 -0.000176194 -0.000122007 -7.79587e-05 -4.38518e-05 -1.94897e-05 -4.87242e-06 0 0 -7.24703e-06 -2.89881e-05 -6.52233e-05 -0.000115953 -0.000181012 -0.000260239 -0.000353633 -0.000461193 -0.000582689 -0.00071789 -0.000866796 -0.00102941 -0.00120378 -0.00138796 -0.00158196 -0.00178578 -0.00199728 -0.00221434 -0.00243696 -0.00266514 -0.00289672 -0.00312957 -0.00336369 -0.00359906 -0.00383361 -0.00406521 -0.00429389 -0.00451963 -0.00474055 -0.00495476 -0.00516227 -0.00536308 -0.00555575 -0.00573885 -0.00591239 -0.00607636 -0.00623002 -0.00637264 -0.0065042 -0.00662471 -0.00673425 -0.00683289 -0.00692064 -0.00699748 -0.00706428 -0.00712188 -0.0071703 -0.00720952 -0.00724096 -0.00726603 -0.00728472 -0.00729703 -0.00730457 -0.00730893 -0.00731011 -0.00730811 -0.00730431 -0.00730007 -0.00729539 -0.00729028 -0.00728551 -0.00728187 -0.00727935 -0.00727797 -0.0072777 -0.00727853 -0.00728047 -0.00728351 -0.00728685 -0.0072897 -0.00729204 -0.00729387 -0.00729384 -0.00729054 -0.00728399 -0.00727419 -0.00725954 -0.00723847 -0.00721097 -0.00717704 -0.0071353 -0.00708438 -0.00702428 -0.00695499 -0.0068757 -0.00678559 -0.00668468 -0.00657295 -0.00645038 -0.00631692 -0.00617259 -0.00601739 -0.00585207 -0.00567744 -0.00549348 -0.0053002 -0.00509904 -0.00489145 -0.00467745 -0.00445701 -0.00423204 -0.00400442 -0.00377414 -0.0035412 -0.00330769 -0.00307567 -0.00284516 -0.00261613 -0.00239071 -0.00217099 -0.00195697 -0.00174866 -0.00154811 -0.00135738 -0.00117649 -0.00100542 -0.000846038 -0.000700211 -0.000567935 -0.000449212 -0.000344217 -0.000253126 -0.00017594 -0.000112658 -6.33704e-05 -2.81646e-05 -7.04116e-06 0 0 -9.89294e-06 -3.95718e-05 -8.90365e-05 -0.000158287 -0.000246579 -0.000353168 -0.000478053 -0.000621235 -0.000782308 -0.000960867 -0.00115691 -0.00137044 -0.00159886 -0.00183958 -0.00209259 -0.0023579 -0.00263268 -0.00291411 -0.00320218 -0.00349689 -0.0037954 -0.00409487 -0.00439529 -0.00469668 -0.00499627 -0.00529131 -0.00558179 -0.00586773 -0.00614668 -0.0064162 -0.00667629 -0.00692695 -0.00716638 -0.00739278 -0.00760614 -0.00780647 -0.0079929 -0.00816457 -0.00832148 -0.00846363 -0.00859125 -0.00870459 -0.00880364 -0.00888839 -0.00896014 -0.00902013 -0.00906838 -0.00910488 -0.00913163 -0.00915064 -0.00916189 -0.00916539 -0.00916336 -0.00915804 -0.00914943 -0.00913751 -0.0091242 -0.00911139 -0.00909907 -0.00908724 -0.00907699 -0.00906939 -0.00906444 -0.00906214 -0.00906247 -0.00906542 -0.00907098 -0.00907916 -0.00908885 -0.00909894 -0.00910944 -0.00912034 -0.00912973 -0.00913572 -0.0091383 -0.00913748 -0.00913103 -0.00911675 -0.00909463 -0.00906468 -0.00902494 -0.00897345 -0.0089102 -0.0088352 -0.00874723 -0.00864507 -0.00852872 -0.00839819 -0.00825329 -0.00809384 -0.00791985 -0.00773131 -0.00752913 -0.00731423 -0.00708661 -0.00684627 -0.00659503 -0.00633473 -0.00606537 -0.00578694 -0.0055019 -0.00521267 -0.00491926 -0.00462166 -0.00432261 -0.00402483 -0.00372832 -0.00343307 -0.00314188 -0.00285753 -0.00258002 -0.00230935 -0.00204825 -0.00179948 -0.00156303 -0.00133889 -0.00112957 -0.000937543 -0.000762809 -0.00060537 -0.000465559 -0.000343709 -0.000239821 -0.000153893 -8.65651e-05 -3.84734e-05 -9.61834e-06 0 0 -1.29559e-05 -5.18237e-05 -0.000116603 -0.000207295 -0.000322302 -0.000460031 -0.00062048 -0.000803649 -0.0010089 -0.00123559 -0.00148373 -0.00175331 -0.00204101 -0.0023435 -0.00266078 -0.00299286 -0.00333612 -0.00368696 -0.00404538 -0.00441137 -0.00478132 -0.00515161 -0.00552225 -0.00589322 -0.00626106 -0.00662229 -0.00697692 -0.00732493 -0.00766331 -0.007989 -0.00830203 -0.00860237 -0.00888786 -0.00915631 -0.00940772 -0.00964209 -0.00985847 -0.0100559 -0.0102344 -0.0103939 -0.010535 -0.010658 -0.0107631 -0.0108501 -0.0109209 -0.0109773 -0.0110192 -0.0110467 -0.0110625 -0.0110693 -0.0110671 -0.0110558 -0.0110385 -0.0110181 -0.0109946 -0.0109681 -0.010941 -0.0109159 -0.0108927 -0.0108714 -0.0108535 -0.0108404 -0.0108321 -0.0108286 -0.0108299 -0.0108359 -0.0108467 -0.0108622 -0.010881 -0.0109016 -0.010924 -0.0109483 -0.0109718 -0.0109922 -0.0110093 -0.0110231 -0.0110308 -0.0110294 -0.0110188 -0.010999 -0.0109675 -0.0109215 -0.010861 -0.0107861 -0.0106951 -0.0105861 -0.0104592 -0.0103144 -0.0101514 -0.00996959 -0.00976915 -0.00955001 -0.00931321 -0.00905974 -0.00878963 -0.00850285 -0.00820164 -0.00788822 -0.00756257 -0.00722471 -0.00687767 -0.00652449 -0.00616517 -0.0057997 -0.00543153 -0.00506411 -0.00469742 -0.00433147 -0.0039698 -0.00361597 -0.00326996 -0.00293179 -0.00260495 -0.00229295 -0.00199577 -0.00171343 -0.00144912 -0.00120602 -0.000984129 -0.000783457 -0.000604546 -0.000447944 -0.00031365 -0.000201664 -0.000113436 -5.04159e-05 -1.2604e-05 0 0 -1.64212e-05 -6.56849e-05 -0.000147791 -0.00026274 -0.000407793 -0.000580213 -0.000779999 -0.00100715 -0.00126071 -0.0015397 -0.00184412 -0.00217398 -0.00252512 -0.00289337 -0.00327874 -0.00368122 -0.00409633 -0.0045196 -0.00495102 -0.00539059 -0.00583383 -0.00627628 -0.00671794 -0.0071588 -0.00759461 -0.00802111 -0.00843831 -0.0088462 -0.00924114 -0.00961946 -0.00998117 -0.0103263 -0.0106522 -0.0109565 -0.011239 -0.0114999 -0.011738 -0.0119525 -0.0121434 -0.0123106 -0.012455 -0.0125774 -0.0126777 -0.012756 -0.0128147 -0.0128563 -0.0128808 -0.0128882 -0.012882 -0.0128659 -0.0128398 -0.0128037 -0.0127615 -0.0127171 -0.0126705 -0.0126217 -0.0125739 -0.0125303 -0.012491 -0.012456 -0.0124271 -0.0124061 -0.0123931 -0.0123879 -0.0123907 -0.0124013 -0.0124198 -0.0124462 -0.0124785 -0.012515 -0.0125555 -0.0126001 -0.0126456 -0.0126886 -0.0127292 -0.0127674 -0.0127993 -0.012821 -0.0128326 -0.0128341 -0.0128219 -0.0127925 -0.012746 -0.0126822 -0.012599 -0.0124938 -0.0123667 -0.0122177 -0.0120461 -0.0118511 -0.0116328 -0.0113911 -0.0111271 -0.0108419 -0.0105354 -0.0102077 -0.00986136 -0.00949896 -0.0091205 -0.00872599 -0.00831909 -0.00790345 -0.00747908 -0.00704598 -0.00660837 -0.00617045 -0.00573223 -0.00529371 -0.00485927 -0.00443331 -0.00401583 -0.00360681 -0.00321063 -0.00283162 -0.00246979 -0.00212513 -0.00180165 -0.00150335 -0.00123021 -0.000982253 -0.000760315 -0.000565252 -0.000397064 -0.000255751 -0.00014386 -6.39377e-05 -1.59844e-05 0 0 -2.02741e-05 -8.10965e-05 -0.000182467 -0.000324386 -0.000502661 -0.000713098 -0.000955699 -0.00123046 -0.00153597 -0.0018708 -0.00223494 -0.00262841 -0.00304608 -0.00348282 -0.00393864 -0.00441354 -0.00490205 -0.00539872 -0.00590355 -0.00641655 -0.00693229 -0.00744537 -0.00795578 -0.00846353 -0.00896353 -0.0094507 -0.00992502 -0.0103865 -0.0108309 -0.0112538 -0.0116554 -0.0120356 -0.0123915 -0.0127202 -0.0130219 -0.0132964 -0.0135429 -0.0137605 -0.0139491 -0.0141088 -0.014241 -0.0143468 -0.0144263 -0.0144795 -0.0145097 -0.0145202 -0.0145111 -0.0144822 -0.0144384 -0.0143841 -0.0143195 -0.0142445 -0.0141641 -0.0140833 -0.0140019 -0.0139201 -0.013842 -0.0137717 -0.0137091 -0.0136544 -0.0136097 -0.0135775 -0.0135577 -0.0135504 -0.0135554 -0.0135728 -0.0136025 -0.0136446 -0.0136967 -0.0137563 -0.0138235 -0.0138982 -0.0139764 -0.0140538 -0.0141305 -0.0142065 -0.0142767 -0.0143364 -0.0143854 -0.0144238 -0.014447 -0.0144504 -0.0144341 -0.0143979 -0.0143388 -0.0142535 -0.0141419 -0.0140042 -0.0138391 -0.0136453 -0.013423 -0.0131721 -0.0128936 -0.0125886 -0.0122569 -0.0118986 -0.0115167 -0.011114 -0.0106906 -0.0102465 -0.00978585 -0.00931311 -0.00882821 -0.00833117 -0.00782702 -0.0073208 -0.00681253 -0.00630219 -0.00579511 -0.00529658 -0.00480662 -0.00432522 -0.00385768 -0.00340932 -0.00298012 -0.00257009 -0.00218417 -0.00182726 -0.00149939 -0.00120054 -0.000932004 -0.000695057 -0.000489701 -0.000315937 -0.000177714 -7.89842e-05 -1.97461e-05 0 0 -2.45146e-05 -9.80585e-05 -0.000220632 -0.000392234 -0.000606906 -0.000858688 -0.00114758 -0.00147358 -0.00183469 -0.00222889 -0.0026562 -0.0031166 -0.00360389 -0.00411186 -0.0046405 -0.00518981 -0.00575326 -0.00632432 -0.00690298 -0.00748925 -0.00807669 -0.00865886 -0.00923577 -0.00980742 -0.0103678 -0.010911 -0.011437 -0.0119458 -0.0124325 -0.0128921 -0.0133247 -0.0137302 -0.0141056 -0.0144476 -0.0147563 -0.0150317 -0.015273 -0.0154796 -0.0156515 -0.0157885 -0.0158928 -0.0159663 -0.0160088 -0.0160206 -0.0160059 -0.015969 -0.0159101 -0.015829 -0.0157317 -0.0156242 -0.0155064 -0.0153784 -0.0152463 -0.0151165 -0.0149888 -0.0148634 -0.0147454 -0.0146399 -0.0145469 -0.0144664 -0.0144014 -0.0143546 -0.0143262 -0.014316 -0.0143241 -0.0143504 -0.0143949 -0.0144576 -0.0145355 -0.0146256 -0.014728 -0.0148426 -0.0149643 -0.0150878 -0.0152132 -0.0153404 -0.0154632 -0.0155755 -0.0156772 -0.0157683 -0.0158429 -0.0158953 -0.0159254 -0.0159332 -0.0159145 -0.015865 -0.0157848 -0.0156738 -0.0155302 -0.0153523 -0.0151399 -0.0148931 -0.0146128 -0.0142998 -0.013954 -0.0135756 -0.0131676 -0.0127334 -0.0122729 -0.0117861 -0.011278 -0.0107535 -0.0102126 -0.00965525 -0.00908748 -0.00851517 -0.00793832 -0.00735692 -0.0067773 -0.00620578 -0.00564235 -0.00508701 -0.00454613 -0.00402605 -0.00352678 -0.00304832 -0.00259665 -0.00217776 -0.00179165 -0.00143832 -0.00111961 -0.000837358 -0.000591561 -0.000382222 -0.000215 -9.55554e-05 -2.38889e-05 0 0 -2.91427e-05 -0.000116571 -0.000262285 -0.000466284 -0.000720529 -0.00101698 -0.00135564 -0.0017365 -0.00215686 -0.00261398 -0.00310788 -0.00363854 -0.00419855 -0.00478047 -0.0053843 -0.00601004 -0.00664998 -0.0072964 -0.00794931 -0.00860869 -0.00926702 -0.00991676 -0.0105579 -0.0111905 -0.0118075 -0.0124022 -0.0129744 -0.0135242 -0.0140461 -0.0145344 -0.0149891 -0.0154103 -0.0157946 -0.0161386 -0.0164423 -0.0167058 -0.0169285 -0.0171101 -0.0172505 -0.0173497 -0.0174106 -0.0174358 -0.0174254 -0.0173793 -0.0173032 -0.0172027 -0.0170778 -0.0169284 -0.016762 -0.016586 -0.0164003 -0.0162051 -0.016008 -0.0158167 -0.0156312 -0.0154515 -0.015284 -0.0151349 -0.0150043 -0.0148922 -0.014802 -0.0147374 -0.0146984 -0.0146848 -0.0146968 -0.0147341 -0.0147968 -0.014885 -0.0149949 -0.0151229 -0.015269 -0.0154332 -0.0156092 -0.0157905 -0.0159771 -0.0161691 -0.0163588 -0.0165384 -0.0167079 -0.0168675 -0.0170096 -0.0171271 -0.0172199 -0.0172881 -0.0173261 -0.0173285 -0.0172953 -0.0172266 -0.0171196 -0.0169719 -0.0167834 -0.0165541 -0.0162846 -0.0159755 -0.0156268 -0.0152385 -0.0148141 -0.0143571 -0.0138673 -0.0133449 -0.0127954 -0.0122245 -0.0116321 -0.0110182 -0.0103898 -0.00975355 -0.0091096 -0.0084579 -0.00780586 -0.0071609 -0.00652301 -0.00589219 -0.00527595 -0.00468181 -0.00410976 -0.00355981 -0.00303911 -0.00255485 -0.00210701 -0.0016956 -0.00132314 -0.000992157 -0.000702645 -0.000454606 -0.000255716 -0.000113651 -2.84128e-05 0 0 -3.40844e-05 -0.000136337 -0.000306759 -0.00054535 -0.000841702 -0.00118541 -0.00157647 -0.00201488 -0.00249707 -0.00301946 -0.00358203 -0.0041848 -0.00481897 -0.00547575 -0.00615514 -0.00685714 -0.00757275 -0.00829295 -0.00901775 -0.00974715 -0.0104724 -0.0111848 -0.0118844 -0.0125711 -0.0132371 -0.0138744 -0.0144831 -0.0150632 -0.0156084 -0.0161125 -0.0165756 -0.0169976 -0.0173751 -0.0177044 -0.0179856 -0.0182188 -0.0184037 -0.0185406 -0.0186292 -0.0186697 -0.0186658 -0.0186213 -0.0185361 -0.0184102 -0.0182508 -0.0180649 -0.0178526 -0.0176137 -0.0173575 -0.0170931 -0.0168205 -0.0165397 -0.0162601 -0.0159912 -0.0157329 -0.0154852 -0.0152558 -0.0150523 -0.0148749 -0.0147234 -0.0146022 -0.0145155 -0.0144633 -0.0144457 -0.0144625 -0.0145136 -0.0145991 -0.014719 -0.0148688 -0.0150441 -0.015245 -0.0154714 -0.0157156 -0.0159699 -0.0162341 -0.0165084 -0.0167833 -0.0170495 -0.0173069 -0.0175556 -0.0177865 -0.0179906 -0.0181678 -0.0183182 -0.0184348 -0.0185108 -0.0185462 -0.0185409 -0.0184914 -0.0183941 -0.018249 -0.0180562 -0.0178158 -0.017528 -0.0171929 -0.0168104 -0.0163842 -0.015918 -0.0154117 -0.0148653 -0.0142851 -0.0136774 -0.0130421 -0.0123793 -0.0116967 -0.0110023 -0.010296 -0.0095779 -0.00885648 -0.00814036 -0.00742954 -0.00672401 -0.00603257 -0.00536397 -0.00471822 -0.00409533 -0.00350378 -0.00295206 -0.00244018 -0.00196813 -0.00153927 -0.00115695 -0.000821174 -0.000531936 -0.000299214 -0.000132984 -3.3246e-05 0 0 -3.92655e-05 -0.000157062 -0.00035339 -0.000628248 -0.000968599 -0.0013614 -0.00180666 -0.00230438 -0.00284993 -0.0034387 -0.0040707 -0.00474592 -0.00545405 -0.00618477 -0.00693809 -0.00771401 -0.0085021 -0.00929194 -0.0100835 -0.0108769 -0.011662 -0.0124288 -0.0131774 -0.0139078 -0.014611 -0.0152781 -0.0159092 -0.0165042 -0.0170562 -0.0175586 -0.0180112 -0.0184141 -0.0187636 -0.0190563 -0.019292 -0.0194708 -0.0195932 -0.0196599 -0.0196707 -0.0196258 -0.01953 -0.0193884 -0.019201 -0.0189678 -0.0186976 -0.0183993 -0.0180728 -0.0177182 -0.0173466 -0.0169692 -0.016586 -0.016197 -0.0158135 -0.0154471 -0.0150976 -0.014765 -0.0144586 -0.0141876 -0.0139521 -0.0137519 -0.0135923 -0.0134783 -0.01341 -0.0133873 -0.0134102 -0.0134786 -0.0135924 -0.0137516 -0.013951 -0.0141853 -0.0144545 -0.0147585 -0.015088 -0.0154338 -0.0157957 -0.0161739 -0.016557 -0.0169335 -0.0173035 -0.0176671 -0.018013 -0.0183304 -0.0186191 -0.0188792 -0.0191021 -0.019279 -0.0194101 -0.0194952 -0.0195297 -0.0195088 -0.0194325 -0.0193007 -0.0191132 -0.0188696 -0.0185699 -0.0182141 -0.0178059 -0.0173491 -0.0168436 -0.0162896 -0.0156938 -0.0150632 -0.0143977 -0.0136974 -0.0129712 -0.0122278 -0.0114673 -0.0106897 -0.00990486 -0.00912258 -0.00834287 -0.00756575 -0.00680137 -0.00605989 -0.00534133 -0.00464566 -0.00398288 -0.00336296 -0.00278589 -0.00225168 -0.00176468 -0.00132925 -0.000945373 -0.000613061 -0.000344847 -0.000153265 -3.83163e-05 0 0 -4.46862e-05 -0.000178745 -0.000402176 -0.000714979 -0.00110122 -0.00154497 -0.00204622 -0.00260498 -0.00321542 -0.00387172 -0.00457388 -0.0053219 -0.00610379 -0.00690754 -0.00773316 -0.00858064 -0.00943803 -0.0102934 -0.0111467 -0.0119979 -0.0128357 -0.0136488 -0.0144371 -0.0152006 -0.0159293 -0.0166134 -0.0172527 -0.0178473 -0.0183897 -0.0188726 -0.0192959 -0.0196597 -0.0199603 -0.0201942 -0.0203614 -0.0204619 -0.020497 -0.020468 -0.020375 -0.0202179 -0.0200032 -0.0197373 -0.0194203 -0.0190521 -0.0186436 -0.0182058 -0.0177385 -0.0172418 -0.0167292 -0.0162142 -0.0156967 -0.0151769 -0.0146682 -0.0141844 -0.0137253 -0.013291 -0.0128925 -0.0125408 -0.0122358 -0.0119777 -0.0117723 -0.0116259 -0.0115384 -0.0115099 -0.0115401 -0.011629 -0.0117767 -0.0119829 -0.0122416 -0.0125464 -0.0128973 -0.0132943 -0.0137263 -0.0141822 -0.014662 -0.0151657 -0.0156797 -0.0161904 -0.0166977 -0.0172018 -0.0176892 -0.0181466 -0.0185739 -0.0189712 -0.0193277 -0.019633 -0.019887 -0.0200896 -0.0202347 -0.0203161 -0.0203338 -0.0202877 -0.0201769 -0.0200003 -0.0197578 -0.0194495 -0.0190791 -0.0186503 -0.0181632 -0.0176178 -0.0170216 -0.016382 -0.0156991 -0.0149728 -0.0142131 -0.01343 -0.0126234 -0.0117933 -0.010951 -0.0101076 -0.00926302 -0.0084174 -0.00758236 -0.00676959 -0.00597907 -0.00521081 -0.00447643 -0.00378754 -0.00314415 -0.00254626 -0.00199938 -0.00150904 -0.00107524 -0.000697981 -0.000392614 -0.000174495 -4.36238e-05 0 0 -5.03463e-05 -0.000201385 -0.000453117 -0.000805541 -0.00123957 -0.0017361 -0.00229514 -0.00291669 -0.00359354 -0.0043185 -0.00509157 -0.00591275 -0.00676819 -0.00764405 -0.00854034 -0.00945705 -0.0103806 -0.0112973 -0.0122071 -0.0131102 -0.0139936 -0.0148446 -0.0156632 -0.0164494 -0.017192 -0.0178801 -0.0185136 -0.0190925 -0.0196088 -0.0200546 -0.0204298 -0.0207344 -0.020965 -0.0211181 -0.0211938 -0.021192 -0.021115 -0.020965 -0.020742 -0.0204461 -0.0200853 -0.0196679 -0.0191938 -0.0186631 -0.0180889 -0.0174844 -0.0168497 -0.0161846 -0.0155054 -0.0148282 -0.0141529 -0.0134795 -0.0128242 -0.012203 -0.0116161 -0.0110632 -0.0105575 -0.0101118 -0.00972621 -0.00940064 -0.00914228 -0.00895825 -0.00884857 -0.00881322 -0.00885207 -0.00896498 -0.00915193 -0.00941293 -0.00974058 -0.0101275 -0.0105736 -0.0110791 -0.0116306 -0.0122153 -0.012833 -0.0134838 -0.0141515 -0.0148201 -0.0154895 -0.0161598 -0.016815 -0.0174391 -0.0180321 -0.018594 -0.0191119 -0.0195729 -0.0199769 -0.020324 -0.0206062 -0.0208159 -0.0209528 -0.0210171 -0.0210068 -0.0209199 -0.0207565 -0.0205166 -0.0202038 -0.0198218 -0.0193705 -0.01885 -0.0182684 -0.0176337 -0.016946 -0.0162053 -0.0154226 -0.014609 -0.0137644 -0.0128888 -0.0119949 -0.0110953 -0.01019 -0.00927896 -0.00837555 -0.00749304 -0.00663145 -0.00579076 -0.00498441 -0.00422581 -0.00351495 -0.00285185 -0.00224336 -0.00169633 -0.00121078 -0.000786696 -0.000442516 -0.000196674 -4.91685e-05 0 0 -5.61634e-05 -0.000224654 -0.000505471 -0.000898615 -0.0013816 -0.00193196 -0.00254968 -0.00323476 -0.00397845 -0.00477199 -0.00561539 -0.00650864 -0.00743588 -0.00838127 -0.0093448 -0.0103265 -0.0113109 -0.0122826 -0.0132416 -0.014188 -0.0151073 -0.0159853 -0.0168219 -0.0176171 -0.0183587 -0.0190346 -0.0196446 -0.0201889 -0.0206588 -0.0210458 -0.02135 -0.0215713 -0.0217065 -0.0217525 -0.0217091 -0.0215765 -0.021358 -0.0210569 -0.0206732 -0.020207 -0.0196683 -0.0190673 -0.0184041 -0.0176785 -0.0169065 -0.0161038 -0.0152705 -0.0144066 -0.0135311 -0.012663 -0.0118025 -0.0109493 -0.0101226 -0.0093412 -0.00860507 -0.00791423 -0.00728382 -0.00672897 -0.00624968 -0.00584596 -0.00552613 -0.00529853 -0.00516316 -0.00512001 -0.00516892 -0.0053097 -0.00554237 -0.00586691 -0.0062747 -0.00675711 -0.00731412 -0.00794575 -0.00863668 -0.00937158 -0.0101505 -0.0109734 -0.0118213 -0.0126754 -0.0135356 -0.014402 -0.0152556 -0.0160775 -0.0168678 -0.0176265 -0.0183379 -0.0189866 -0.0195726 -0.0200959 -0.0205467 -0.0209152 -0.0212013 -0.0214052 -0.0215237 -0.021554 -0.0214959 -0.0213495 -0.0211182 -0.0208055 -0.0204114 -0.0199359 -0.0193876 -0.0187753 -0.0180989 -0.0173584 -0.0165661 -0.015734 -0.0148622 -0.0139507 -0.0130136 -0.0120652 -0.0111053 -0.010134 -0.00916638 -0.00821749 -0.00728733 -0.00637591 -0.00549862 -0.00467084 -0.00389257 -0.00316382 -0.00249295 -0.00188835 -0.00135 -0.000877914 -0.000493826 -0.000219478 -5.48696e-05 0 0 -6.20549e-05 -0.00024822 -0.000558494 -0.000992878 -0.00152531 -0.00212971 -0.00280609 -0.00355445 -0.00436429 -0.00522512 -0.00613694 -0.00709975 -0.00809551 -0.00910616 -0.0101317 -0.0111722 -0.0122102 -0.0132284 -0.0142269 -0.0152055 -0.0161484 -0.0170395 -0.0178789 -0.0186665 -0.019389 -0.020033 -0.0205985 -0.0210855 -0.0214849 -0.0217877 -0.0219939 -0.0221036 -0.0221138 -0.0220217 -0.0218274 -0.0215309 -0.0211367 -0.0206497 -0.0200698 -0.0193971 -0.0186439 -0.0178227 -0.0169334 -0.0159761 -0.0149696 -0.0139327 -0.0128654 -0.0117677 -0.010662 -0.00957066 -0.00849365 -0.00743099 -0.00640473 -0.00543692 -0.00452755 -0.00367664 -0.00290175 -0.00222046 -0.00163277 -0.00113868 -0.000747853 -0.000469933 -0.000304924 -0.000252825 -0.000313432 -0.00048654 -0.000772151 -0.00117026 -0.00167086 -0.00226395 -0.0029495 -0.00372754 -0.00458026 -0.00548987 -0.00645638 -0.00747977 -0.00853799 -0.00960896 -0.0106927 -0.0117891 -0.0128761 -0.0139315 -0.0149552 -0.0159472 -0.0168891 -0.0177624 -0.018567 -0.019303 -0.0199583 -0.020521 -0.020991 -0.0213683 -0.0216486 -0.0218277 -0.0219054 -0.0218819 -0.0217603 -0.0215436 -0.0212319 -0.0208252 -0.0203327 -0.0197636 -0.0191179 -0.0183955 -0.0176099 -0.0167744 -0.015889 -0.0149538 -0.0139844 -0.0129966 -0.0119905 -0.0109661 -0.00994032 -0.00893014 -0.00793558 -0.00695664 -0.00601084 -0.00511572 -0.00427128 -0.00347752 -0.00274451 -0.00208231 -0.00149092 -0.000970344 -0.000545818 -0.000242586 -6.06465e-05 0 0 -6.80208e-05 -0.000272083 -0.000612187 -0.00108833 -0.00167067 -0.00232935 -0.00306438 -0.00387576 -0.00475106 -0.00567789 -0.00665623 -0.00768609 -0.00874706 -0.00981873 -0.0109011 -0.0119942 -0.0130785 -0.0141347 -0.0151628 -0.0161627 -0.0171168 -0.0180073 -0.0188343 -0.0195977 -0.0202829 -0.0208755 -0.0213752 -0.0217823 -0.0220871 -0.0222802 -0.0223615 -0.0223312 -0.0221867 -0.0219259 -0.0215486 -0.021055 -0.0204512 -0.0197435 -0.0189319 -0.0180165 -0.0170122 -0.015934 -0.0147819 -0.013556 -0.0122783 -0.0109711 -0.00963434 -0.00826804 -0.00689826 -0.00555107 -0.00422645 -0.00292442 -0.00167049 -0.000490188 0.000616494 0.00164955 0.00258871 0.00341371 0.00412453 0.00472119 0.00519257 0.00552755 0.00572614 0.00578834 0.00571438 0.00550451 0.00515873 0.00467703 0.00407094 0.003352 0.00252021 0.00157557 0.000538608 -0.000570146 -0.00175069 -0.00300302 -0.00430159 -0.00562083 -0.00696073 -0.00832131 -0.00967669 -0.011001 -0.0122942 -0.0135563 -0.0147656 -0.0159001 -0.01696 -0.0179452 -0.0188412 -0.0196333 -0.0203217 -0.0209064 -0.0213814 -0.021741 -0.0219852 -0.022114 -0.0221301 -0.0220361 -0.0218321 -0.0215181 -0.0211037 -0.0205987 -0.020003 -0.0193167 -0.0185542 -0.0177303 -0.0168449 -0.0158979 -0.014907 -0.0138896 -0.0128457 -0.0117753 -0.0106974 -0.009631 -0.00857619 -0.00753293 -0.00652107 -0.00556045 -0.00465108 -0.00379296 -0.00299803 -0.00227822 -0.00163354 -0.00106399 -0.000598492 -0.000265996 -6.64991e-05 0 0 -7.4061e-05 -0.000296244 -0.000666549 -0.00118498 -0.0018177 -0.00253089 -0.00332455 -0.00419869 -0.00513877 -0.00613029 -0.00717326 -0.00826766 -0.00939054 -0.010519 -0.0116529 -0.0127924 -0.0139158 -0.0150015 -0.0160494 -0.0170596 -0.0180126 -0.0188887 -0.019688 -0.0204106 -0.0210405 -0.0215619 -0.0219749 -0.0222794 -0.0224655 -0.0225233 -0.0224529 -0.0222541 -0.0219254 -0.0214649 -0.0208728 -0.0201489 -0.0193014 -0.0183382 -0.0172595 -0.0160652 -0.0147731 -0.0134012 -0.0119495 -0.010418 -0.00883248 -0.0072189 -0.00557724 -0.0039075 -0.0022398 -0.000604255 0.000999127 0.00257035 0.00408008 0.00549899 0.00682707 0.00806434 0.00918757 0.0101735 0.0110222 0.0117337 0.0122951 0.0126939 0.01293 0.0130035 0.0129145 0.0126635 0.0122503 0.011675 0.0109507 0.0100907 0.00909503 0.00796358 0.00671993 0.0053876 0.00396659 0.0024569 0.000887909 -0.000710986 -0.00233979 -0.0039985 -0.0056572 -0.00728598 -0.00888482 -0.0104537 -0.0119672 -0.0133999 -0.0147516 -0.0160225 -0.0171952 -0.0182522 -0.0191936 -0.0200194 -0.0207221 -0.021294 -0.0217352 -0.0220457 -0.0222276 -0.022283 -0.022212 -0.0220145 -0.0217006 -0.0212805 -0.0207542 -0.