<?xml version="1.0"?> 
<VTKFile type="StructuredGrid" version="0.1"> 
<StructuredGrid WholeExtent="0 128 0 128 0 0"> 
<Piece Extent="0 128 0 128 0 0"> 
<PointData>
<DataArray type="Float32" Name="u" format="ascii" NumberOfComponents="1"> 
0 0 0 0 0 0 0 0 0 0 0 0 0 0 0 0 0 0 0 0 0 0 0 0 0 0 0 0 0 0 0 0 0 0 0 0 0 0 0 0 0 0 0 0 0 0 0 0 0 0 0 0 0 0 0 0 0 0 0 0 0 0 0 0 0 0 0 0 0 0 0 0 0 0 0 0 0 0 0 0 0 0 0 0 0 0 0 0 0 0 0 0 0 0 0 0 0 0 0 0 0 0 0 0 0 0 0 0 0 0 0 0 0 0 0 0 0 0 0 0 0 0 0 0 0 0 0 0 0 0 -2.66389e-07 -1.06556e-06 -2.3975e-06 -4.26223e-06 -6.62668e-06 -9.45782e-06 -1.27556e-05 -1.65201e-05 -2.07204e-05 -2.53257e-05 -3.0336e-05 -3.57512e-05 -4.14884e-05 -4.74645e-05 -5.36796e-05 -6.01336e-05 -6.67484e-05 -7.34455e-05 -8.02251e-05 -8.7087e-05 -9.39614e-05 -0.000100778 -0.000107537 -0.000114239 -0.000120821 -0.000127224 -0.000133445 -0.000139487 -0.000145299 -0.000150832 -0.000156087 -0.000161062 -0.000165728 -0.000170052 -0.000174034 -0.000177674 -0.000180965 -0.000183897 -0.000186471 -0.000188687 -0.000190561 -0.000192112 -0.000193338 -0.000194241 -0.000194859 -0.000195233 -0.000195363 -0.000195248 -0.000194944 -0.000194506 -0.000193932 -0.000193224 -0.000192439 -0.000191635 -0.000190813 -0.000189971 -0.000189159 -0.000188424 -0.000187766 -0.000187185 -0.000186708 -0.000186362 -0.000186147 -0.000186062 -0.000186109 -0.000186285 -0.00018659 -0.000187026 -0.000187563 -0.000188175 -0.000188861 -0.000189621 -0.000190407 -0.000191171 -0.000191912 -0.00019263 -0.000193268 -0.000193768 -0.000194131 -0.000194355 -0.000194387 -0.000194174 -0.000193716 -0.000193011 -0.000192023 -0.000190712 -0.000189078 -0.000187122 -0.000184828 -0.00018218 -0.000179179 -0.000175824 -0.000172126 -0.000168093 -0.000163726 -0.000159025 -0.000154023 -0.000148751 -0.00014321 -0.0001374 -0.00013137 -0.00012517 -0.0001188 -0.00011226 -0.00010561 -9.89125e-05 -9.21662e-05 -8.53715e-05 -7.8597e-05 -7.19113e-05 -6.53143e-05 -5.88062e-05 -5.24629e-05 -4.63602e-05 -4.04983e-05 -3.4877e-05 -2.95763e-05 -2.4676e-05 -2.0176e-05 -1.60765e-05 -1.24059e-05 -9.19281e-06 -6.43715e-06 -4.13895e-06 -2.32816e-06 -1.03474e-06 -2.58684e-07 0 0 -1.06556e-06 -4.26223e-06 -9.59002e-06 -1.70489e-05 -2.65067e-05 -3.78313e-05 -5.10225e-05 -6.60805e-05 -8.28818e-05 -0.000101303 -0.000121344 -0.000143005 -0.000165954 -0.000189858 -0.000214718 -0.000240535 -0.000266993 -0.000293782 -0.0003209 -0.000348348 -0.000375846 -0.000403112 -0.000430149 -0.000456955 -0.000483285 -0.000508894 -0.000533782 -0.000557948 -0.000581196 -0.000603329 -0.000624347 -0.00064425 -0.000662912 -0.000680207 -0.000696135 -0.000710697 -0.000723859 -0.000735588 -0.000745884 -0.000754747 -0.000762246 -0.000768448 -0.000773354 -0.000776964 -0.000779437 -0.000780933 -0.000781452 -0.000780994 -0.000779777 -0.000778022 -0.000775728 -0.000772896 -0.000769756 -0.000766541 -0.00076325 -0.000759885 -0.000756635 -0.000753695 -0.000751062 -0.000748739 -0.000746831 -0.000745447 -0.000744587 -0.00074425 -0.000744434 -0.000745138 -0.000746361 -0.000748103 -0.000750253 -0.0007527 -0.000755444 -0.000758485 -0.000761629 -0.000764683 -0.000767647 -0.00077052 -0.000773072 -0.000775073 -0.000776522 -0.00077742 -0.00077755 -0.000776698 -0.000774863 -0.000772046 -0.000768092 -0.000762848 -0.000756314 -0.00074849 -0.000739313 -0.000728722 -0.000716717 -0.000703297 -0.000688503 -0.000672372 -0.000654904 -0.000636101 -0.000616091 -0.000595004 -0.00057284 -0.000549599 -0.00052548 -0.00050068 -0.0004752 -0.000449039 -0.000422441 -0.00039565 -0.000368665 -0.000341486 -0.000314388 -0.000287645 -0.000261257 -0.000235225 -0.000209851 -0.000185441 -0.000161993 -0.000139508 -0.000118305 -9.87038e-05 -8.07042e-05 -6.43061e-05 -4.96238e-05 -3.67713e-05 -2.57486e-05 -1.65558e-05 -9.31263e-06 -4.13895e-06 -1.03474e-06 0 0 -2.3975e-06 -9.59002e-06 -2.15775e-05 -3.83601e-05 -5.96402e-05 -8.51204e-05 -0.000114801 -0.000148681 -0.000186484 -0.000227932 -0.000273024 -0.000321761 -0.000373395 -0.000427181 -0.000483116 -0.000541203 -0.000600735 -0.00066101 -0.000722026 -0.000783783 -0.000845652 -0.000907003 -0.000967835 -0.00102815 -0.00108739 -0.00114501 -0.00120101 -0.00125538 -0.00130769 -0.00135749 -0.00140478 -0.00144956 -0.00149155 -0.00153047 -0.0015663 -0.00159907 -0.00162868 -0.00165507 -0.00167824 -0.00169818 -0.00171505 -0.00172901 -0.00174005 -0.00174817 -0.00175373 -0.0017571 -0.00175827 -0.00175724 -0.0017545 -0.00175055 -0.00174539 -0.00173902 -0.00173195 -0.00172472 -0.00171731 -0.00170974 -0.00170243 -0.00169581 -0.00168989 -0.00168466 -0.00168037 -0.00167726 -0.00167532 -0.00167456 -0.00167498 -0.00167656 -0.00167931 -0.00168323 -0.00168807 -0.00169358 -0.00169975 -0.00170659 -0.00171367 -0.00172054 -0.0017272 -0.00173367 -0.00173941 -0.00174391 -0.00174717 -0.00174919 -0.00174949 -0.00174757 -0.00174344 -0.0017371 -0.00172821 -0.00171641 -0.00170171 -0.0016841 -0.00166345 -0.00163962 -0.00161261 -0.00158242 -0.00154913 -0.00151284 -0.00147354 -0.00143123 -0.0013862 -0.00133876 -0.00128889 -0.0012366 -0.00118233 -0.00112653 -0.0010692 -0.00101034 -0.000950493 -0.000890212 -0.000829496 -0.000768343 -0.000707373 -0.000647201 -0.000587829 -0.000529256 -0.000472166 -0.000417242 -0.000364484 -0.000313893 -0.000266186 -0.000222084 -0.000181584 -0.000144689 -0.000111653 -8.27353e-05 -5.79343e-05 -3.72505e-05 -2.09534e-05 -9.31263e-06 -2.32816e-06 0 0 -4.26223e-06 -1.70489e-05 -3.83601e-05 -6.81957e-05 -0.000106027 -0.000151325 -0.00020409 -0.000264322 -0.000331527 -0.000405212 -0.000485376 -0.000572019 -0.000663814 -0.000759432 -0.000858874 -0.000962138 -0.00106797 -0.00117513 -0.0012836 -0.00139339 -0.00150338 -0.00161245 -0.0017206 -0.00182782 -0.00193314 -0.00203558 -0.00213513 -0.00223179 -0.00232479 -0.00241332 -0.00249739 -0.002577 -0.00265165 -0.00272083 -0.00278454 -0.00284279 -0.00289544 -0.00294235 -0.00298354 -0.00301899 -0.00304898 -0.00307379 -0.00309342 -0.00310786 -0.00311775 -0.00312373 -0.00312581 -0.00312397 -0.00311911 -0.00311209 -0.00310291 -0.00309158 -0.00307902 -0.00306616 -0.003053 -0.00303954 -0.00302654 -0.00301478 -0.00300425 -0.00299496 -0.00298733 -0.00298179 -0.00297835 -0.002977 -0.00297774 -0.00298055 -0.00298544 -0.00299241 -0.00300101 -0.0030108 -0.00302178 -0.00303394 -0.00304652 -0.00305873 -0.00307059 -0.00308208 -0.00309229 -0.00310029 -0.00310609 -0.00310968 -0.0031102 -0.00310679 -0.00309945 -0.00308818 -0.00307237 -0.00305139 -0.00302526 -0.00299396 -0.00295725 -0.00291489 -0.00286687 -0.00281319 -0.00275401 -0.00268949 -0.00261962 -0.0025444 -0.00246436 -0.00238002 -0.00229136 -0.0021984 -0.00210192 -0.00200272 -0.0019008 -0.00179616 -0.00168977 -0.0015826 -0.00147466 -0.00136594 -0.00125755 -0.00115058 -0.00104503 -0.0009409 -0.000839406 -0.000741763 -0.000647972 -0.000558032 -0.00047322 -0.000394815 -0.000322817 -0.000257224 -0.000198495 -0.000147085 -0.000102994 -6.62231e-05 -3.72505e-05 -1.65558e-05 -4.13895e-06 0 0 -6.62091e-06 -2.64836e-05 -5.95882e-05 -0.000105935 -0.000164573 -0.000234552 -0.000315873 -0.000408536 -0.000511763 -0.00062478 -0.000747587 -0.000880182 -0.00102053 -0.00116659 -0.00131836 -0.00147584 -0.00163711 -0.00180024 -0.00196524 -0.00213211 -0.00229911 -0.00246454 -0.00262839 -0.00279066 -0.00294985 -0.00310445 -0.00325446 -0.00339989 -0.00353954 -0.0036722 -0.00379788 -0.00391657 -0.00402753 -0.00413001 -0.00422399 -0.00430949 -0.00438632 -0.00445431 -0.00451346 -0.00456377 -0.00460569 -0.00463968 -0.00466573 -0.00468384 -0.00469503 -0.00470032 -0.0046997 -0.00469317 -0.00468211 -0.00466791 -0.00465056 -0.00463006 -0.00460787 -0.00458543 -0.00456274 -0.00453982 -0.00451785 -0.00449803 -0.00448038 -0.00446487 -0.0044522 -0.00444302 -0.00443734 -0.00443516 -0.00443646 -0.00444124 -0.00444948 -0.0044612 -0.00447569 -0.00449227 -0.00451092 -0.00453166 -0.00455328 -0.00457455 -0.00459549 -0.00461608 -0.0046349 -0.00465048 -0.00466283 -0.00467195 -0.00467649 -0.00467508 -0.00466773 -0.00465443 -0.00463421 -0.00460609 -0.00457007 -0.00452614 -0.0044739 -0.00441292 -0.00434322 -0.00426479 -0.00417785 -0.0040826 -0.00397904 -0.00386719 -0.0037478 -0.00362167 -0.00348879 -0.00334916 -0.00320399 -0.00305448 -0.00290064 -0.00274245 -0.00258143 -0.00241905 -0.00225532 -0.00209024 -0.00192549 -0.00176277 -0.00160207 -0.00144339 -0.00128859 -0.00113956 -0.000996283 -0.000858763 -0.000728961 -0.000608839 -0.000498398 -0.000397636 -0.000307273 -0.000228029 -0.000159904 -0.000102896 -5.78791e-05 -2.57241e-05 -6.43101e-06 0 0 -9.43471e-06 -3.77388e-05 -8.49124e-05 -0.000150955 -0.000234182 -0.000332908 -0.000447131 -0.000576854 -0.000720945 -0.000878275 -0.00104884 -0.00123265 -0.00142686 -0.00162862 -0.00183793 -0.0020548 -0.00227654 -0.00250047 -0.00272657 -0.00295486 -0.00318292 -0.00340836 -0.00363117 -0.00385135 -0.00406682 -0.00427548 -0.00447734 -0.0046724 -0.004859 -0.00503552 -0.00520195 -0.00535829 -0.00550354 -0.00563671 -0.0057578 -0.00586679 -0.00596353 -0.00604783 -0.0061197 -0.00617913 -0.00622684 -0.00626354 -0.00628925 -0.00630394 -0.00630914 -0.00630635 -0.00629556 -0.00627678 -0.00625202 -0.00622329 -0.00619058 -0.00615391 -0.00611537 -0.00607706 -0.00603897 -0.00600112 -0.00596523 -0.00593302 -0.0059045 -0.00587967 -0.00585949 -0.00584492 -0.00583597 -0.00583264 -0.0058349 -0.00584274 -0.00585615 -0.00587514 -0.00589871 -0.00592586 -0.00595659 -0.0059909 -0.00602704 -0.00606327 -0.0060996 -0.00613601 -0.00617042 -0.00620074 -0.00622697 -0.0062491 -0.00626516 -0.00627316 -0.00627311 -0.006265 -0.00624738 -0.0062188 -0.00617925 -0.00612873 -0.00606658 -0.00599215 -0.00590543 -0.00580642 -0.00569535 -0.00557244 -0.00543771 -0.00529114 -0.00513377 -0.00496663 -0.00478972 -0.00460305 -0.00440827 -0.00420704 -0.00399934 -0.00378519 -0.00356666 -0.00334581 -0.00312266 -0.00289719 -0.00267177 -0.00244876 -0.00222815 -0.00200994 -0.00179675 -0.00159119 -0.00139324 -0.00120292 -0.00102296 -0.000856096 -0.000702323 -0.000561646 -0.000435113 -0.000323777 -0.000227637 -0.000146692 -8.25145e-05 -3.66731e-05 -9.16828e-06 0 0 -1.27036e-05 -5.08145e-05 -0.000114333 -0.000203258 -0.000314856 -0.000446392 -0.000597865 -0.000769277 -0.000959071 -0.00116569 -0.00138915 -0.00162943 -0.0018828 -0.00214552 -0.0024176 -0.00269903 -0.00298627 -0.00327579 -0.00356758 -0.00386165 -0.00415481 -0.00444391 -0.00472894 -0.0050099 -0.00528406 -0.00554868 -0.00580376 -0.0060493 -0.00628318 -0.00650329 -0.00670961 -0.00690216 -0.00707968 -0.00724095 -0.00738596 -0.00751471 -0.00762707 -0.00772292 -0.00780225 -0.00786506 -0.00791242 -0.00794539 -0.00796397 -0.00796816 -0.00796008 -0.00794182 -0.0079134 -0.00787481 -0.00782883 -0.00777822 -0.00772299 -0.00766314 -0.00760153 -0.00754105 -0.00748169 -0.00742345 -0.00736868 -0.00731974 -0.00727663 -0.00723934 -0.00720919 -0.00718749 -0.00717424 -0.00716943 -0.00717305 -0.00718505 -0.00720546 -0.00723425 -0.00727008 -0.00731159 -0.00735877 -0.00741164 -0.0074678 -0.0075249 -0.00758292 -0.00764187 -0.00769888 -0.00775109 -0.0077985 -0.00784112 -0.0078762 -0.00790102 -0.00791558 -0.00791988 -0.00791187 -0.00788951 -0.00785279 -0.00780172 -0.0077353 -0.00765255 -0.00755347 -0.00743806 -0.00730651 -0.00715903 -0.00699561 -0.00681625 -0.00662224 -0.00641488 -0.00619416 -0.00596008 -0.00571478 -0.00546039 -0.00519692 -0.00492437 -0.00464545 -0.00436288 -0.00407666 -0.00378679 -0.00349638 -0.00320854 -0.00292327 -0.00264057 -0.00236388 -0.00209665 -0.00183886 -0.00159052 -0.00135522 -0.00113658 -0.000934594 -0.000749254 -0.000582015 -0.000434328 -0.000306194 -0.000197612 -0.000111157 -4.94029e-05 -1.23507e-05 0 0 -1.64277e-05 -6.57107e-05 -0.000147849 -0.000262843 -0.000406594 -0.000575005 -0.000768075 -0.000985805 -0.00122614 -0.00148704 -0.00176849 -0.00207051 -0.00238835 -0.0027173 -0.00305736 -0.00340852 -0.0037663 -0.00412622 -0.00448828 -0.00485247 -0.00521478 -0.00557119 -0.0059217 -0.00626631 -0.00660158 -0.00692405 -0.00723373 -0.00753062 -0.00781208 -0.0080755 -0.00832086 -0.00854817 -0.00875594 -0.00894272 -0.00910848 -0.00925323 -0.00937694 -0.00947957 -0.00956111 -0.00962157 -0.00966244 -0.00968522 -0.00968991 -0.0096765 -0.00964783 -0.00960674 -0.00955321 -0.00948726 -0.00941253 -0.0093327 -0.00924777 -0.00915773 -0.00906636 -0.00897741 -0.00889089 -0.0088068 -0.00872821 -0.00865819 -0.00859675 -0.00854389 -0.00850132 -0.00847073 -0.00845214 -0.00844555 -0.00845091 -0.00846819 -0.00849739 -0.00853851 -0.00858979 -0.00864944 -0.00871747 -0.00879389 -0.00887557 -0.00895943 -0.00904545 -0.00913365 -0.00922025 -0.00930151 -0.00937743 -0.00944801 -0.00950963 -0.00955868 -0.00959516 -0.00961908 -0.00962769 -0.00961823 -0.0095907 -0.00954511 -0.00948006 -0.00939415 -0.00928736 -0.00915972 -0.00901134 -0.00884234 -0.00865274 -0.00844253 -0.00821324 -0.00796643 -0.0077021 -0.00742023 -0.0071235 -0.00681454 -0.00649337 -0.00615999 -0.0058178 -0.00547025 -0.00511733 -0.00475904 -0.00439932 -0.00404212 -0.00368744 -0.00333527 -0.00298998 -0.00265593 -0.00233312 -0.00202154 -0.00172575 -0.00145031 -0.00119521 -0.00096046 -0.000747978 -0.000559683 -0.000395575 -0.000255654 -0.000143805 -6.39135e-05 -1.59784e-05 0 0 -2.05625e-05 -8.22498e-05 -0.000185062 -0.000328999 -0.000508288 -0.000717153 -0.000955595 -0.00122361 -0.00151856 -0.0018378 -0.00218131 -0.00254911 -0.00293538 -0.00333428 -0.00374582 -0.00417 -0.0046013 -0.00503418 -0.00546867 -0.00590474 -0.00633746 -0.00676188 -0.00717801 -0.00758584 -0.00798115 -0.00835975 -0.00872163 -0.00906679 -0.00939207 -0.00969432 -0.00997353 -0.0102297 -0.0104611 -0.0106662 -0.0108448 -0.010997 -0.0111229 -0.0112227 -0.0112962 -0.0113437 -0.011367 -0.0113683 -0.0113475 -0.0113046 -0.0112434 -0.0111675 -0.0110769 -0.0109717 -0.0108566 -0.0107362 -0.0106106 -0.0104798 -0.0103485 -0.0102217 -0.0100993 -0.00998132 -0.00987163 -0.00977419 -0.00968898 -0.009616 -0.00955744 -0.00951545 -0.00949004 -0.00948121 -0.00948891 -0.00951309 -0.00955376 -0.00961092 -0.00968231 -0.00976568 -0.00986103 -0.00996836 -0.0100837 -0.0102032 -0.0103267 -0.0104542 -0.0105811 -0.0107024 -0.0108181 -0.0109283 -0.0110284 -0.0111135 -0.0111838 -0.0112393 -0.0112763 -0.0112913 -0.0112842 -0.011255 -0.0112019 -0.0111229 -0.0110179 -0.0108871 -0.0107303 -0.0105476 -0.0103389 -0.0101043 -0.00984553 -0.00956436 -0.00926078 -0.00893481 -0.00858962 -0.00822842 -0.00785121 -0.00745797 -0.00705291 -0.00664021 -0.00621985 -0.00579185 -0.00536107 -0.00493235 -0.0045057 -0.00408112 -0.00366398 -0.00325965 -0.00286813 -0.00248942 -0.00212914 -0.0017929 -0.0014807 -0.00119254 -0.000930919 -0.000698309 -0.000494716 -0.000320138 -0.000180078 -8.00346e-05 -2.00087e-05 0 0 -2.50636e-05 -0.000100254 -0.000225572 -0.000401017 -0.000618828 -0.000871242 -0.00115826 -0.00147988 -0.00183274 -0.00221345 -0.00262203 -0.00305847 -0.00351573 -0.00398677 -0.00447159 -0.00497019 -0.00547591 -0.0059821 -0.00648875 -0.00699586 -0.00749748 -0.00798767 -0.00846642 -0.00893374 -0.00938459 -0.00981397 -0.0102219 -0.0106083 -0.0109695 -0.0113019 -0.0116055 -0.0118801 -0.0121241 -0.0123355 -0.0125143 -0.0126606 -0.0127747 -0.012857 -0.0129076 -0.0129264 -0.0129162 -0.0128798 -0.012817 -0.0127281 -0.0126176 -0.0124904 -0.0123464 -0.0121858 -0.0120143 -0.0118381 -0.0116571 -0.0114713 -0.0112868 -0.0111096 -0.0109397 -0.0107771 -0.0106268 -0.0104935 -0.0103774 -0.0102784 -0.0101991 -0.0101424 -0.0101083 -0.0100966 -0.0101075 -0.0101407 -0.0101964 -0.0102744 -0.0103721 -0.0104865 -0.0106178 -0.0107658 -0.0109256 -0.0110924 -0.011266 -0.0114465 -0.0116278 -0.011804 -0.0119749 -0.0121407 -0.0122953 -0.012433 -0.0125536 -0.0126573 -0.0127393 -0.012795 -0.0128245 -0.0128276 -0.0128019 -0.0127447 -0.012656 -0.0125358 -0.0123839 -0.0121999 -0.0119839 -0.0117359 -0.0114579 -0.0111517 -0.0108175 -0.0104551 -0.0100683 -0.00966096 -0.00923293 -0.00878427 -0.00831996 -0.00784501 -0.0073594 -0.00686315 -0.00636209 -0.00586207 -0.0053631 -0.00486518 -0.00437478 -0.00389838 -0.00343598 -0.00298759 -0.00255999 -0.00216 -0.00178759 -0.00144279 -0.00112875 -0.000848676 -0.000602553 -0.000390384 -0.000219591 -9.75959e-05 -2.4399e-05 0 0 -2.9931e-05 -0.000119724 -0.000269379 -0.000478896 -0.000738214 -0.00103727 -0.00137607 -0.00175461 -0.00216866 -0.00261401 -0.00309064 -0.00359857 -0.00412941 -0.00467478 -0.00523468 -0.0058091 -0.00639016 -0.00696997 -0.00754852 -0.00812583 -0.00869485 -0.00924855 -0.00978694 -0.01031 -0.0108119 -0.0112867 -0.0117344 -0.0121551 -0.0125445 -0.0128983 -0.0132166 -0.0134994 -0.0137448 -0.0139506 -0.0141171 -0.014244 -0.0143323 -0.0143827 -0.0143952 -0.0143698 -0.0143101 -0.0142197 -0.0140987 -0.0139469 -0.0137705 -0.0135755 -0.0133618 -0.0131294 -0.0128859 -0.0126385 -0.0123873 -0.0121324 -0.0118812 -0.0116411 -0.0114121 -0.0111943 -0.0109937 -0.0108162 -0.010662 -0.0105309 -0.0104264 -0.0103517 -0.0103069 -0.0102919 -0.0103066 -0.0103511 -0.0104252 -0.0105291 -0.0106592 -0.010812 -0.0109877 -0.0111862 -0.0114013 -0.0116271 -0.0118635 -0.0121104 -0.0123605 -0.0126063 -0.0128478 -0.013085 -0.0133105 -0.013517 -0.0137045 -0.0138729 -0.0140165 -0.0141294 -0.0142115 -0.0142629 -0.0142801 -0.0142596 -0.0142016 -0.0141059 -0.013972 -0.0137993 -0.0135878 -0.0133374 -0.0130503 -0.0127285 -0.0123721 -0.0119811 -0.0115597 -0.0111121 -0.0106385 -0.0101389 -0.00961896 -0.00908466 -0.00853598 -0.00797292 -0.00740238 -0.0068313 -0.00625966 -0.00568746 -0.00512239 -0.00457213 -0.00403668 -0.00351605 -0.00301832 -0.0025516 -0.00211589 -0.00171118 -0.00134148 -0.00101078 -0.000719086 -0.00046639 -0.000262344 -0.000116597 -2.91494e-05 0 0 -3.51648e-05 -0.000140659 -0.000316483 -0.000562637 -0.000866447 -0.00121524 -0.00160902 -0.00204779 -0.00252634 -0.00303946 -0.00358715 -0.00416942 -0.00477643 -0.00539831 -0.00603507 -0.00668672 -0.00734404 -0.00799779 -0.008648 -0.00929465 -0.00992955 -0.0105445 -0.0111396 -0.0117147 -0.012263 -0.0127779 -0.0132593 -0.0137072 -0.0141169 -0.0144835 -0.0148071 -0.0150877 -0.0153232 -0.0155116 -0.015653 -0.0157473 -0.0157958 -0.0157997 -0.015759 -0.0156738 -0.0155486 -0.0153881 -0.0151923 -0.0149612 -0.0147022 -0.0144228 -0.0141229 -0.0138027 -0.0134711 -0.0131373 -0.0128013 -0.012463 -0.0121316 -0.0118161 -0.0115165 -0.0112328 -0.0109723 -0.0107423 -0.0105428 -0.0103738 -0.0102393 -0.0101433 -0.0100858 -0.0100669 -0.0100864 -0.0101442 -0.0102403 -0.0103748 -0.0105435 -0.0107422 -0.0109708 -0.0112295 -0.0115108 -0.0118073 -0.012119 -0.012446 -0.0127792 -0.0131095 -0.0134369 -0.0137613 -0.0140739 -0.0143656 -0.0146364 -0.0148864 -0.0151081 -0.0152944 -0.0154453 -0.0155608 -0.0156363 -0.0156676 -0.0156547 -0.0155974 -0.0154948 -0.0153458 -0.0151505 -0.0149087 -0.0146228 -0.0142948 -0.0139248 -0.0135128 -0.0130636 -0.012582 -0.0120681 -0.0115218 -0.0109499 -0.0103592 -0.00974958 -0.00912116 -0.00848195 -0.00784002 -0.00719535 -0.00654795 -0.00590681 -0.0052809 -0.00467023 -0.0040748 -0.00350412 -0.00296772 -0.00246559 -0.00199774 -0.00156911 -0.00118463 -0.000844315 -0.000548157 -0.000308338 -0.000137039 -3.42598e-05 0 0 -4.06629e-05 -0.000162652 -0.000365966 -0.000650607 -0.00100102 -0.00140167 -0.00185255 -0.00235365 -0.00289866 -0.00348124 -0.00410139 -0.00475911 -0.00544297 -0.00614151 -0.00685474 -0.00758267 -0.00831463 -0.00903999 -0.00975874 -0.0104709 -0.011167 -0.0118376 -0.0124828 -0.0131026 -0.0136892 -0.0142349 -0.0147396 -0.0152035 -0.0156212 -0.0159874 -0.0163022 -0.0165655 -0.0167753 -0.0169295 -0.0170283 -0.0170716 -0.0170612 -0.016999 -0.0168851 -0.0167193 -0.0165077 -0.0162559 -0.0159639 -0.0156319 -0.0152688 -0.0148838 -0.0144769 -0.0140482 -0.0136085 -0.0131689 -0.0127294 -0.01229 -0.0118615 -0.0114549 -0.0110702 -0.0107073 -0.010375 -0.0100821 -0.00982842 -0.00961406 -0.00944381 -0.00932245 -0.00924998 -0.0092264 -0.00925161 -0.00932549 -0.00944805 -0.00961928 -0.0098342 -0.0100878 -0.0103801 -0.0107112 -0.0110721 -0.011454 -0.011857 -0.0122811 -0.0127153 -0.0131487 -0.0135814 -0.0140133 -0.0144337 -0.0148315 -0.0152068 -0.0155597 -0.0158811 -0.0161622 -0.016403 -0.0166034 -0.0167579 -0.016861 -0.0169125 -0.0169125 -0.0168595 -0.0167516 -0.016589 -0.0163717 -0.0161018 -0.0157815 -0.0154109 -0.01499 -0.014524 -0.0140185 -0.0134734 -0.0128887 -0.0122721 -0.0116313 -0.0109663 -0.0102771 -0.00957295 -0.00886318 -0.00814777 -0.00742672 -0.00671041 -0.00600922 -0.00532316 -0.00465221 -0.00400747 -0.00339999 -0.00282977 -0.00229683 -0.00180717 -0.00136683 -0.000975805 -0.000634098 -0.00035668 -0.000158525 -3.96311e-05 0 0 -4.63235e-05 -0.000185294 -0.000416911 -0.000741176 -0.00113944 -0.00159307 -0.00210207 -0.00266642 -0.00327853 -0.00393078 -0.00462318 -0.00535573 -0.00611524 -0.00688855 -0.00767565 -0.00847654 -0.00927904 -0.010071 -0.0108523 -0.0116231 -0.0123725 -0.01309 -0.0137754 -0.0144287 -0.0150414 -0.0156046 -0.0161184 -0.0165828 -0.016992 -0.0173402 -0.0176274 -0.0178536 -0.0180169 -0.0181154 -0.0181491 -0.0181179 -0.0180246 -0.0178717 -0.0176592 -0.0173873 -0.017063 -0.0166937 -0.0162793 -0.0158199 -0.0153265 -0.0148102 -0.0142708 -0.0137085 -0.0131364 -0.0125677 -0.0120023 -0.0114402 -0.0108944 -0.0103779 -0.00989069 -0.00943274 -0.0090144 -0.00864601 -0.00832756 -0.00805905 -0.00784616 -0.00769456 -0.00760425 -0.00757523 -0.00760737 -0.00770053 -0.00785472 -0.00806993 -0.00834026 -0.00865982 -0.0090286 -0.0094466 -0.00990334 -0.0103884 -0.0109017 -0.0114432 -0.0120001 -0.0125593 -0.0131209 -0.0136847 -0.0142379 -0.0147674 -0.0152731 -0.0157551 -0.0162026 -0.0166047 -0.0169615 -0.0172729 -0.017532 -0.0177319 -0.0178724 -0.0179537 -0.0179733 -0.0179289 -0.0178205 -0.0176481 -0.0174138 -0.0171198 -0.016766 -0.0163525 -0.0158851 -0.0153698 -0.0148066 -0.0141954 -0.0135449 -0.0128638 -0.0121521 -0.0114098 -0.0106475 -0.00987575 -0.00909452 -0.00830382 -0.00751556 -0.00674161 -0.00598198 -0.00523667 -0.00451845 -0.00384006 -0.00320151 -0.00260281 -0.00205122 -0.00155399 -0.00111112 -0.000722626 -0.000406477 -0.000180657 -4.51641e-05 0 0 -5.21465e-05 -0.000208586 -0.000469318 -0.000834343 -0.00128171 -0.00178945 -0.00235758 -0.00298609 -0.00366594 -0.00438808 -0.00515253 -0.00595926 -0.00679325 -0.00763942 -0.00849778 -0.00936834 -0.0102373 -0.0110907 -0.0119287 -0.0127513 -0.0135462 -0.0143015 -0.0150171 -0.0156931 -0.0163197 -0.0168872 -0.0173956 -0.017845 -0.0182291 -0.0185417 -0.0187826 -0.018952 -0.0190481 -0.0190692 -0.0190153 -0.0188863 -0.0186859 -0.0184177 -0.0180816 -0.0176776 -0.0172147 -0.0167017 -0.0161386 -0.0155254 -0.0148754 -0.0142018 -0.0135046 -0.0127837 -0.0120548 -0.0113335 -0.0106198 -0.00991361 -0.00923028 -0.00858507 -0.00797799 -0.00740903 -0.00689034 -0.00643406 -0.00604019 -0.00570872 -0.00544632 -0.00525962 -0.00514863 -0.00511335 -0.00515362 -0.00526928 -0.00546034 -0.0057268 -0.00606172 -0.00645819 -0.00691621 -0.00743577 -0.00800456 -0.00861029 -0.00925296 -0.00993255 -0.0106338 -0.0113413 -0.0120553 -0.0127755 -0.0134866 -0.0141732 -0.0148352 -0.0154727 -0.0160726 -0.016622 -0.0171209 -0.0175693 -0.0179586 -0.0182803 -0.0185343 -0.0187208 -0.0188363 -0.0188776 -0.0188448 -0.0187379 -0.0185588 -0.0183095 -0.01799 -0.0176003 -0.0171468 -0.0166358 -0.0160675 -0.0154418 -0.0147683 -0.0140567 -0.0133071 -0.0125195 -0.0117057 -0.0108777 -0.0100356 -0.00917926 -0.00832226 -0.00747808 -0.00664672 -0.00582818 -0.00503705 -0.00428793 -0.00358082 -0.0029157 -0.00230125 -0.0017461 -0.00125027 -0.000813741 -0.00045773 -0.000203435 -5.08588e-05 0 0 -5.81318e-05 -0.000232527 -0.000523187 -0.000930109 -0.00142781 -0.0019908 -0.00261908 -0.00331266 -0.00406089 -0.00485315 -0.00568943 -0.00656973 -0.00747699 -0.00839413 -0.00932116 -0.0102581 -0.0111893 -0.0120993 -0.012988 -0.0138554 -0.014688 -0.0154723 -0.0162081 -0.0168956 -0.017524 -0.0180826 -0.0185713 -0.0189903 -0.0193327 -0.0195919 -0.0197679 -0.0198607 -0.0198689 -0.0197909 -0.0196269 -0.0193768 -0.0190453 -0.018637 -0.0181521 -0.0175904 -0.0169627 -0.0162798 -0.0155417 -0.0147483 -0.0139155 -0.0130588 -0.0121782 -0.0112738 -0.0103638 -0.00946654 -0.00858204 -0.00771029 -0.00686912 -0.00607638 -0.00533207 -0.00463619 -0.00400287 -0.00344625 -0.00296632 -0.00256309 -0.00224428 -0.00201762 -0.00188312 -0.00184076 -0.00189037 -0.00203176 -0.00226493 -0.00258989 -0.00299857 -0.00348293 -0.00404297 -0.00467868 -0.00537574 -0.00611982 -0.0069109 -0.007749 -0.00861625 -0.00949477 -0.0103846 -0.0112856 -0.0121798 -0.013049 -0.0138932 -0.0147123 -0.015491 -0.016214 -0.0168811 -0.0174925 -0.0180377 -0.0185063 -0.0188983 -0.0192138 -0.0194484 -0.0195979 -0.0196621 -0.0196412 -0.0195368 -0.0193507 -0.0190829 -0.0187334 -0.018309 -0.0178166 -0.0172562 -0.0166279 -0.0159422 -0.01521 -0.0144312 -0.0136059 -0.0127474 -0.0118691 -0.010971 -0.010053 -0.0091305 -0.00821861 -0.00731735 -0.00642673 -0.00556329 -0.00474361 -0.00396768 -0.0032355 -0.00255726 -0.00194318 -0.00139324 -0.000907444 -0.000510437 -0.000226861 -5.67152e-05 0 0 -6.41829e-05 -0.000256731 -0.000577646 -0.00102693 -0.00157538 -0.00219382 -0.00288225 -0.00364066 -0.00445668 -0.00531793 -0.0062244 -0.0071761 -0.00815379 -0.00913826 -0.0101295 -0.0111275 -0.0121149 -0.0130741 -0.0140053 -0.0149083 -0.0157682 -0.0165699 -0.0173132 -0.0179983 -0.0186134 -0.0191467 -0.0195981 -0.0199678 -0.0202485 -0.0204332 -0.0205219 -0.0205146 -0.0204102 -0.0202077 -0.0199072 -0.0195085 -0.0190177 -0.0184408 -0.0177776 -0.0170283 -0.0162057 -0.0153226 -0.0143791 -0.0133752 -0.0123293 -0.0112598 -0.0101667 -0.00905003 -0.00793107 -0.00683116 -0.00575028 -0.00468845 -0.00366633 -0.00270462 -0.0018033 -0.000962373 -0.00019818 0.000472951 0.00105102 0.00153603 0.00191906 0.00219119 0.00235244 0.00240279 0.00234246 0.00217167 0.00189042 0.00149871 0.00100583 0.000421086 -0.000255532 -0.00102402 -0.00186781 -0.00277034 -0.00373159 -0.00475158 -0.00580958 -0.00688489 -0.00797749 -0.00908738 -0.0101934 -0.0112745 -0.0123305 -0.0133616 -0.0143495 -0.0152763 -0.0161419 -0.0169464 -0.0176771 -0.0183218 -0.0188805 -0.019353 -0.0197339 -0.0200176 -0.0202042 -0.0202937 -0.0202873 -0.0201866 -0.0199914 -0.0197018 -0.0193252 -0.0188687 -0.0183324 -0.0177164 -0.0170323 -0.0162919 -0.0154954 -0.0146426 -0.0137484 -0.0128278 -0.0118808 -0.0109073 -0.00992437 -0.00894912 -0.00798151 -0.00702154 -0.00608789 -0.00519922 -0.00435554 -0.00355685 -0.00281503 -0.00214199 -0.00153772 -0.00100222 -0.000563749 -0.000250555 -6.26388e-05 0 0 -7.02027e-05 -0.000280811 -0.000631824 -0.00112324 -0.00172205 -0.00239521 -0.00314274 -0.00396463 -0.0048466 -0.00577438 -0.00674796 -0.00776735 -0.00881101 -0.00985741 -0.0109065 -0.0119584 -0.0129936 -0.0139928 -0.0149559 -0.0158829 -0.0167571 -0.0175619 -0.0182973 -0.0189632 -0.0195468 -0.0200353 -0.0204286 -0.0207268 -0.0209223 -0.0210078 -0.0209832 -0.0208485 -0.0206032 -0.0202468 -0.0197793 -0.0192007 -0.0185184 -0.0177399 -0.0168652 -0.0158942 -0.0148423 -0.0137248 -0.0125415 -0.0112926 -0.00999948 -0.00868365 -0.00734511 -0.00598386 -0.00462456 -0.00329187 -0.0019858 -0.000706349 0.000522675 0.00167745 0.00275798 0.00376427 0.00467755 0.00547906 0.00616882 0.0067468 0.0072028 0.00752659 0.00771817 0.00777754 0.00770494 0.00750063 0.00716462 0.00669689 0.00610812 0.00540897 0.00459945 0.00367954 0.00266829 0.00158474 0.000428891 -0.000799264 -0.00207585 -0.003377 -0.00470271 -0.00605298 -0.00740333 -0.00872928 -0.0100308 -0.011308 -0.0125396 -0.0137046 -0.0148029 -0.0158346 -0.0167849 -0.017639 -0.0183968 -0.0190584 -0.0196168 -0.020065 -0.0204031 -0.020631 -0.0207497 -0.0207601 -0.020662 -0.0204557 -0.0201486 -0.0197486 -0.0192557 -0.0186698 -0.0180038 -0.0172707 -0.0164703 -0.0156027 -0.0146844 -0.0137319 -0.0127451 -0.0117241 -0.0106879 -0.00965548 -0.00862678 -0.00760183 -0.00660157 -0.00564691 -0.00473786 -0.00387441 -0.00307032 -0.00233931 -0.00168139 -0.00109656 -0.000616816 -0.000274141 -6.85351e-05 0 0 -7.61914e-05 -0.000304766 -0.000685723 -0.00121906 -0.00186781 -0.00259497 -0.00340056 -0.00428456 -0.00523066 -0.00622251 -0.00726012 -0.00834348 -0.00944862 -0.0105516 -0.0116523 -0.0127508 -0.0138257 -0.0148553 -0.0158398 -0.016779 -0.0176547 -0.0184485 -0.0191603 -0.0197902 -0.0203242 -0.0207484 -0.0210627 -0.0212673 -0.0213541 -0.0213156 -0.0211517 -0.0208624 -0.0204478 -0.0199081 -0.0192432 -0.0184532 -0.0175472 -0.0165344 -0.0154147 -0.0141882 -0.0128727 -0.0114863 -0.0100289 -0.00850049 -0.00692601 -0.00533032 -0.0037134 -0.00207526 -0.000444243 0.00115131 0.00271139 0.00423601 0.0056979 0.00706982 0.00835177 0.00954373 0.0106243 0.0115721 0.0123871 0.0130692 0.013607 0.0139886 0.0142141 0.0142835 0.0141971 0.0139551 0.0135577 0.0130047 0.0123083 0.0114807 0.010522 0.009432 0.00823257 0.00694542 0.00557054 0.00410795 0.00258495 0.00102889 -0.000560237 -0.00218243 -0.00380955 -0.00541343 -0.00699408 -0.0085515 -0.0100612 -0.0114988 -0.0128641 -0.0141574 -0.015361 -0.0164577 -0.0174473 -0.01833 -0.0190971 -0.0197401 -0.0202588 -0.0206534 -0.0209241 -0.0210712 -0.0210948 -0.0209948 -0.0207794 -0.0204564 -0.0200261 -0.0194882 -0.018857 -0.0181462 -0.017356 -0.0164863 -0.0155554 -0.0145813 -0.013564 -0.0125037 -0.0114212 -0.0103377 -0.00925317 -0.00816761 -0.00710434 -0.00608668 -0.00511464 -0.0041882 -0.00332312 -0.00253513 -0.00182425 -0.00119047 -0.000669637 -0.000297617 -7.44041e-05 0 0 -8.2149e-05 -0.000328596 -0.000739341 -0.00131438 -0.00201266 -0.00279309 -0.0036557 -0.00460046 -0.00560885 -0.00666232 -0.00776087 -0.0089045 -0.0100666 -0.0112207 -0.0123668 -0.0135047 -0.0146109 -0.0156617 -0.016657 -0.0175968 -0.018461 -0.0192295 -0.0199023 -0.0204793 -0.0209456 -0.021286 -0.0215006 -0.0215892 -0.021544 -0.0213567 -0.0210275 -0.0205563 -0.019944 -0.0191916 -0.018299 -0.0172662 -0.0161043 -0.0148243 -0.0134262 -0.0119101 -0.0102967 -0.00860708 -0.00684113 -0.00499887 -0.0031089 -0.0011998 0.00072842 0.00267577 0.00460987 0.00649839 0.0083413 0.0101386 0.0118594 0.0134725 0.0149781 0.016376 0.0176421 0.018752 0.0197058 0.0205033 0.0211315 0.0215771 0.0218402 0.0219206 0.0218189 0.0215352 0.0210695 0.020422 0.0196064 0.0186364 0.017512 0.0162334 0.014825 0.0133117 0.0116934 0.00997005 0.00817283 0.00633279 0.00444993 0.00252426 0.000587924 -0.00132692 -0.00322028 -0.00509215 -0.00691439 -0.00865886 -0.0103256 -0.0119145 -0.0134054 -0.0147779 -0.0160321 -0.0171679 -0.0181749 -0.0190427 -0.0197713 -0.020360