<?xml version="1.0"?> 
<VTKFile type="StructuredGrid" version="0.1"> 
<StructuredGrid WholeExtent="0 128 0 128 0 0"> 
<Piece Extent="0 128 0 128 0 0"> 
<PointData>
<DataArray type="Float32" Name="u" format="ascii" NumberOfComponents="1"> 
0 0 0 0 0 0 0 0 0 0 0 0 0 0 0 0 0 0 0 0 0 0 0 0 0 0 0 0 0 0 0 0 0 0 0 0 0 0 0 0 0 0 0 0 0 0 0 0 0 0 0 0 0 0 0 0 0 0 0 0 0 0 0 0 0 0 0 0 0 0 0 0 0 0 0 0 0 0 0 0 0 0 0 0 0 0 0 0 0 0 0 0 0 0 0 0 0 0 0 0 0 0 0 0 0 0 0 0 0 0 0 0 0 0 0 0 0 0 0 0 0 0 0 0 0 0 0 0 0 0 1.20297e-07 4.81189e-07 1.08268e-06 1.92476e-06 2.96049e-06 4.14295e-06 5.47213e-06 6.94802e-06 8.53347e-06 1.01913e-05 1.19215e-05 1.37241e-05 1.55415e-05 1.73164e-05 1.90485e-05 2.07381e-05 2.23299e-05 2.37688e-05 2.50548e-05 2.61879e-05 2.71189e-05 2.77988e-05 2.82275e-05 2.84051e-05 2.82939e-05 2.78563e-05 2.70925e-05 2.60023e-05 2.4565e-05 2.27598e-05 2.05866e-05 1.80456e-05 1.5136e-05 1.18574e-05 8.20978e-06 4.19312e-06 -1.69962e-07 -4.85685e-06 -9.86754e-06 -1.5202e-05 -2.08113e-05 -2.66461e-05 -3.27066e-05 -3.89927e-05 -4.54272e-05 -5.19328e-05 -5.85094e-05 -6.51572e-05 -7.17752e-05 -7.82626e-05 -8.46194e-05 -9.08455e-05 -9.68312e-05 -0.000102467 -0.000107752 -0.000112687 -0.000117176 -0.000121125 -0.000124533 -0.0001274 -0.000129671 -0.00013129 -0.000132257 -0.000132572 -0.000132236 -0.000131248 -0.000129609 -0.000127319 -0.000124433 -0.000121008 -0.000117044 -0.00011254 -0.000107593 -0.000102298 -9.66541e-05 -9.06623e-05 -8.44321e-05 -7.80734e-05 -7.15863e-05 -6.49706e-05 -5.83272e-05 -5.17567e-05 -4.52591e-05 -3.88344e-05 -3.25596e-05 -2.65116e-05 -2.06903e-05 -1.50959e-05 -9.7769e-06 -4.7821e-06 -1.1148e-07 4.23497e-06 8.23501e-06 1.18664e-05 1.51292e-05 1.80234e-05 2.05498e-05 2.27093e-05 2.45019e-05 2.59276e-05 2.70074e-05 2.77623e-05 2.81922e-05 2.82973e-05 2.8115e-05 2.7683e-05 2.70014e-05 2.60701e-05 2.49381e-05 2.36545e-05 2.22192e-05 2.06323e-05 1.89487e-05 1.72232e-05 1.54559e-05 1.36467e-05 1.18527e-05 1.01312e-05 8.48212e-06 6.90544e-06 5.438e-06 4.11666e-06 2.94141e-06 1.91224e-06 1.07564e-06 4.7806e-07 1.19515e-07 0 0 4.81189e-07 1.92476e-06 4.3307e-06 7.69903e-06 1.1842e-05 1.65718e-05 2.18885e-05 2.77921e-05 3.41339e-05 4.07652e-05 4.7686e-05 5.48963e-05 6.21661e-05 6.92654e-05 7.61942e-05 8.29524e-05 8.93196e-05 9.50752e-05 0.000100219 0.000104751 0.000108476 0.000111195 0.00011291 0.00011362 0.000113175 0.000111425 0.00010837 0.000104009 9.826e-05 9.10391e-05 8.23465e-05 7.21822e-05 6.0544e-05 4.74296e-05 3.28391e-05 1.67725e-05 -6.79849e-07 -1.94274e-05 -3.94702e-05 -6.08082e-05 -8.32451e-05 -0.000106584 -0.000130826 -0.000155971 -0.000181709 -0.000207731 -0.000234038 -0.000260629 -0.000287101 -0.00031305 -0.000338477 -0.000363382 -0.000387325 -0.000409866 -0.000431007 -0.000450746 -0.000468704 -0.000484499 -0.00049813 -0.000509599 -0.000518683 -0.000525159 -0.000529028 -0.000530289 -0.000528943 -0.000524992 -0.000518436 -0.000509274 -0.000497732 -0.000484032 -0.000468175 -0.000450161 -0.000430373 -0.000409191 -0.000386617 -0.000362649 -0.000337728 -0.000312294 -0.000286345 -0.000259883 -0.000233309 -0.000207027 -0.000181036 -0.000155338 -0.000130238 -0.000106046 -8.27613e-05 -6.03835e-05 -3.91076e-05 -1.91284e-05 -4.45919e-07 1.69399e-05 3.294e-05 4.74657e-05 6.05169e-05 7.20935e-05 8.21991e-05 9.08371e-05 9.80075e-05 0.00010371 0.00010803 0.000111049 0.000112769 0.000113189 0.00011246 0.000110732 0.000108006 0.00010428 9.97524e-05 9.46179e-05 8.88769e-05 8.25294e-05 7.57948e-05 6.88928e-05 6.18235e-05 5.45866e-05 4.74109e-05 4.05249e-05 3.39285e-05 2.76218e-05 2.1752e-05 1.64666e-05 1.17656e-05 7.64896e-06 4.30254e-06 1.91224e-06 4.7806e-07 0 0 1.08268e-06 4.3307e-06 9.74408e-06 1.73228e-05 2.66444e-05 3.72866e-05 4.92492e-05 6.25322e-05 7.68012e-05 9.17216e-05 0.000107293 0.000123517 0.000139874 0.000155847 0.000171437 0.000186643 0.000200969 0.000213919 0.000225493 0.000235691 0.00024407 0.000250189 0.000254048 0.000255646 0.000254645 0.000250707 0.000243832 0.000234021 0.000221085 0.000204838 0.00018528 0.00016241 0.000136224 0.000106717 7.3888e-05 3.77381e-05 -1.52966e-06 -4.37116e-05 -8.88079e-05 -0.000136818 -0.000187301 -0.000239815 -0.000294359 -0.000350934 -0.000408845 -0.000467395 -0.000526585 -0.000586415 -0.000645977 -0.000704364 -0.000761574 -0.000817609 -0.000871481 -0.000922199 -0.000969765 -0.00101418 -0.00105458 -0.00109012 -0.00112079 -0.0011466 -0.00116704 -0.00118161 -0.00119031 -0.00119315 -0.00119012 -0.00118123 -0.00116648 -0.00114587 -0.0011199 -0.00108907 -0.00105339 -0.00101286 -0.000968338 -0.00092068 -0.000869887 -0.000815961 -0.000759889 -0.000702661 -0.000644276 -0.000584736 -0.000524945 -0.00046581 -0.000407332 -0.00034951 -0.000293036 -0.000238604 -0.000186213 -0.000135863 -8.79921e-05 -4.30389e-05 -1.00332e-06 3.81147e-05 7.41151e-05 0.000106798 0.000136163 0.00016221 0.000184948 0.000204384 0.000220517 0.000233348 0.000243066 0.00024986 0.00025373 0.000254675 0.000253035 0.000249147 0.000243013 0.000234631 0.000224443 0.00021289 0.000199973 0.000185691 0.000170538 0.000155009 0.000139103 0.00012282 0.000106675 9.1181e-05 7.63391e-05 6.21489e-05 4.8942e-05 3.70499e-05 2.64727e-05 1.72102e-05 9.68072e-06 4.30254e-06 1.07564e-06 0 0 1.92476e-06 7.69903e-06 1.73228e-05 3.07961e-05 4.73679e-05 6.62872e-05 8.75541e-05 0.000111168 0.000136536 0.000163061 0.000190744 0.000219585 0.000248664 0.000277062 0.000304777 0.00033181 0.000357278 0.000380301 0.000400877 0.000419006 0.000433903 0.000444781 0.00045164 0.000454481 0.000452702 0.000445701 0.00043348 0.000416037 0.00039304 0.000364156 0.000329386 0.000288729 0.000242176 0.000189718 0.000131356 6.70899e-05 -2.71939e-06 -7.77096e-05 -0.000157881 -0.000243233 -0.00033298 -0.000426338 -0.000523306 -0.000623883 -0.000726835 -0.000830924 -0.000936151 -0.00104252 -0.0011484 -0.0012522 -0.00135391 -0.00145353 -0.0015493 -0.00163947 -0.00172403 -0.00180299 -0.00187482 -0.00193799 -0.00199252 -0.0020384 -0.00207473 -0.00210064 -0.00211611 -0.00212115 -0.00211577 -0.00209997 -0.00207374 -0.0020371 -0.00199093 -0.00193613 -0.0018727 -0.00180065 -0.00172149 -0.00163676 -0.00154647 -0.0014506 -0.00135091 -0.00124917 -0.00114538 -0.00103953 -0.000933235 -0.000828107 -0.000724146 -0.000621351 -0.000520954 -0.000424185 -0.000331045 -0.000241534 -0.00015643 -7.65136e-05 -1.78367e-06 6.77595e-05 0.00013176 0.000189863 0.000242067 0.000288374 0.000328796 0.000363348 0.00039203 0.000414841 0.000432118 0.000444196 0.000451075 0.000452756 0.00044984 0.000442929 0.000432023 0.000417121 0.00039901 0.000378472 0.000355508 0.000330117 0.000303179 0.000275571 0.000247294 0.000218347 0.000189644 0.0001621 0.000135714 0.000110487 8.70081e-05 6.58666e-05 4.70625e-05 3.05959e-05 1.72102e-05 7.64896e-06 1.91224e-06 0 0 2.96567e-06 1.18627e-05 2.6691e-05 4.74507e-05 7.29231e-05 0.00010189 0.00013435 0.000170305 0.000208819 0.000248958 0.000290723 0.000334113 0.000377713 0.000420108 0.000461299 0.000501286 0.000538725 0.000572277 0.00060194 0.000627714 0.000648419 0.000662873 0.000671078 0.000673031 0.000667845 0.000654629 0.000633383 0.000604108 0.000566323 0.00051955 0.000463788 0.000399036 0.000325305 0.000242601 0.000150926 5.02784e-05 -5.87763e-05 -0.000175674 -0.000300413 -0.000432995 -0.000572216 -0.000716872 -0.000866962 -0.00102249 -0.00118156 -0.00134229 -0.00150467 -0.00166872 -0.00183195 -0.00199191 -0.00214859 -0.002302 -0.00244944 -0.00258823 -0.00271838 -0.00283987 -0.00295037 -0.00304756 -0.00313143 -0.00320199 -0.00325787 -0.00329771 -0.0033215 -0.00332926 -0.00332098 -0.00329668 -0.00325634 -0.00319998 -0.00312897 -0.00304467 -0.0029471 -0.00283624 -0.00271445 -0.00258405 -0.00244505 -0.00229745 -0.00214394 -0.0019872 -0.00182724 -0.00166406 -0.00150012 -0.00133788 -0.00117734 -0.0010185 -0.000863244 -0.000713453 -0.000569126 -0.000430263 -0.000298058 -0.000173704 -5.72036e-05 5.14452e-05 0.000151686 0.000242965 0.00032528 0.000398633 0.000463022 0.000518446 0.000564906 0.000602402 0.000631418 0.000652438 0.000665462 0.00067049 0.000668413 0.000660122 0.000645617 0.000624898 0.000599143 0.000569531 0.000536061 0.000498735 0.000458887 0.000417854 0.000375636 0.000332233 0.000289051 0.000247496 0.000207567 0.000169265 0.000133516 0.000101246 7.24554e-05 4.71439e-05 2.65184e-05 1.1786e-05 2.94649e-06 0 0 4.16365e-06 1.66546e-05 3.74728e-05 6.66184e-05 0.000102221 0.000142409 0.000187184 0.000236545 0.000289134 0.000343591 0.000399916 0.00045811 0.000516194 0.000572187 0.000626091 0.000677904 0.000725788 0.000767904 0.000804252 0.000834832 0.000858064 0.00087237 0.000877749 0.000874202 0.000860574 0.000835712 0.000799616 0.000752285 0.000693133 0.000621574 0.000537606 0.000441231 0.000332516 0.000211532 7.8278e-05 -6.72459e-05 -0.000224228 -0.000391856 -0.00057013 -0.00075905 -0.000956943 -0.00116214 -0.00137463 -0.00159442 -0.0018189 -0.00204546 -0.00227409 -0.00250481 -0.00273419 -0.00295883 -0.00317873 -0.00339388 -0.00360057 -0.00379508 -0.00397739 -0.00414752 -0.00430222 -0.00443827 -0.00455565 -0.00465438 -0.00473255 -0.00478828 -0.00482158 -0.00483243 -0.00482084 -0.00478683 -0.0047304 -0.00465154 -0.00455217 -0.00443419 -0.0042976 -0.00414239 -0.00397183 -0.00378914 -0.00359433 -0.00338741 -0.00317209 -0.0029521 -0.00272744 -0.00249812 -0.00226752 -0.00203907 -0.00181276 -0.00158859 -0.00136916 -0.00115707 -0.000952324 -0.000754916 -0.000566509 -0.000388763 -0.00022168 -6.52572e-05 7.97048e-05 0.000212407 0.000332851 0.000441034 0.000536901 0.000620391 0.000691505 0.000750243 0.000797199 0.000832966 0.000857545 0.000870935 0.000874293 0.000868773 0.000854378 0.000831105 0.000800532 0.000764235 0.000722214 0.000674469 0.000622831 0.000569132 0.00051337 0.000455548 0.00039763 0.000341585 0.000287413 0.000235112 0.000186032 0.000141518 0.000101572 6.6192e-05 3.7233e-05 1.6548e-05 4.137e-06 0 0 5.51869e-06 2.20748e-05 4.96682e-05 8.82991e-05 0.000135261 0.000187846 0.000246056 0.00030989 0.000377479 0.000446957 0.000518323 0.000591578 0.000664107 0.000733298 0.00079915 0.000861665 0.000918467 0.000967184 0.00100781 0.00104036 0.00106284 0.00107327 0.00107166 0.00105799 0.00103089 0.00098895 0.000932176 0.000860568 0.00077347 0.000670228 0.000550841 0.000415311 0.00026381 9.65101e-05 -8.65875e-05 -0.000285483 -0.000499074 -0.000726256 -0.000967031 -0.0012214 -0.00148716 -0.00176213 -0.0020463 -0.00233967 -0.00263885 -0.00294043 -0.0032444 -0.00355078 -0.00385512 -0.00415296 -0.00444432 -0.00472918 -0.00500269 -0.00525999 -0.00550108 -0.00572595 -0.00593037 -0.00611011 -0.00626517 -0.00639555 -0.00649878 -0.00657237 -0.00661633 -0.00663065 -0.00661535 -0.00657044 -0.00649591 -0.00639178 -0.00626053 -0.00610467 -0.00592419 -0.00571909 -0.00549363 -0.00525204 -0.00499432 -0.00472048 -0.00443538 -0.00414388 -0.00384599 -0.0035417 -0.00323546 -0.0029317 -0.00263042 -0.00233163 -0.00203871 -0.00175504 -0.00148064 -0.00121549 -0.000961784 -0.00072169 -0.000495212 -0.000282348 -8.41846e-05 9.81909e-05 0.000264779 0.000415579 0.000550434 0.000669182 0.000771826 0.000858365 0.000929462 0.000985782 0.00102733 0.00105409 0.00106748 0.00106888 0.0010583 0.00103574 0.00100318 0.000962586 0.000913967 0.000857321 0.000795012 0.000729403 0.000660496 0.000588289 0.000515381 0.000444368 0.000375251 0.000308029 0.000244555 0.000186683 0.000134411 8.77404e-05 4.9354e-05 2.19351e-05 5.48377e-06 0 0 7.03081e-06 2.81232e-05 6.32773e-05 0.000112493 0.000172043 0.000238201 0.000310966 0.000390338 0.000473857 0.000559059 0.000645945 0.000734515 0.000821453 0.00090344 0.000980479 0.00105257 0.00111676 0.00117011 0.00121263 0.0012443 0.00126274 0.00126558 0.0012528 0.0012244 0.00117879 0.00111434 0.00103107 0.000928956 0.000807333 0.000665512 0.000503494 0.000321278 0.000119185 -0.000102464 -0.00034367 -0.000604433 -0.000883314 -0.00117887 -0.00149112 -0.00182004 -0.00216287 -0.00251685 -0.00288198 -0.00325825 -0.00364141 -0.0040272 -0.00441561 -0.00480665 -0.00519474 -0.00557431 -0.00594536 -0.00630789 -0.0066558 -0.00698298 -0.00728943 -0.00757515 -0.00783481 -0.00806309 -0.00826 -0.00842552 -0.00855655 -0.00864996 -0.00870575 -0.00872393 -0.0087045 -0.00864749 -0.00855288 -0.00842069 -0.00825405 -0.00805612 -0.00782688 -0.00756635 -0.00727985 -0.00697274 -0.006645 -0.00629665 -0.00593379 -0.00556253 -0.00518287 -0.00479481 -0.00440392 -0.00401575 -0.00363032 -0.00324761 -0.00287188 -0.00250736 -0.00215407 -0.00181199 -0.00148388 -0.00117249 -0.0008778 -0.000599826 -0.000339982 -9.96848e-05 0.000121065 0.000322267 0.00050362 0.000664821 0.00080587 0.000926766 0.00102821 0.00111089 0.0011748 0.00121996 0.00124797 0.00126045 0.0012574 0.00123881 0.00120708 0.00116458 0.00111132 0.00104729 0.000975429 0.00089867 0.000817013 0.000730458 0.000642303 0.000555843 0.000471081 0.000388014 0.000309087 0.00023674 0.000170974 0.000111789 6.28813e-05 2.79472e-05 6.98681e-06 0 0 8.66458e-06 3.46583e-05 7.79812e-05 0.000138633 0.000211675 0.000292168 0.000380112 0.000475507 0.000575195 0.000676019 0.000777978 0.000881072 0.000981216 0.00107432 0.00116039 0.00123943 0.0013079 0.00136227 0.00140255 0.00142874 0.00143808 0.00142782 0.00139797 0.00134851 0.0012777 0.00118377 0.00106674 0.0009266 0.000762714 0.000574449 0.000361804 0.000124779 -0.000136096 -0.000420296 -0.000727819 -0.00105867 -0.00141103 -0.00178309 -0.00217487 -0.00258634 -0.00301416 -0.00345497 -0.00390876 -0.00437554 -0.00485015 -0.00532746 -0.00580746 -0.00629016 -0.0067688 -0.00723665 -0.00769371 -0.00813997 -0.00856802 -0.00897045 -0.00934725 -0.00969843 -0.0100175 -0.010298 -0.0105399 -0.0107432 -0.0109041 -0.0110188 -0.0110873 -0.0111096 -0.0110858 -0.0110157 -0.0108995 -0.0107372 -0.0105325 -0.0102893 -0.0100077 -0.00968749 -0.00933533 -0.00895769 -0.00855455 -0.00812592 -0.00767922 -0.00722187 -0.00675388 -0.00627523 -0.00579266 -0.00531292 -0.004836 -0.0043619 -0.00389575 -0.00344267 -0.00300267 -0.00257574 -0.00216523 -0.00177447 -0.00140345 -0.00105218 -0.000722449 -0.000416032 -0.000132932 0.00012685 0.000362808 0.000574437 0.000761737 0.000924708 0.001064 0.00118027 0.00127351 0.00134372 0.00139266 0.00142211 0.00143205 0.00142249 0.00139619 0.00135587 0.00130156 0.00123325 0.00115445 0.00106868 0.000975946 0.000876238 0.000773622 0.000672161 0.000571854 0.000472701 0.000377837 0.000290394 0.000210374 0.000137775 7.74986e-05 3.44438e-05 8.61095e-06 0 0 1.03846e-05 4.15383e-05 9.34612e-05 0.000166153 0.000253265 0.000348445 0.000451694 0.000563013 0.000678427 0.000793962 0.000909619 0.0010254 0.00113638 0.00123765 0.00132921 0.00141106 0.0014791 0.00152924 0.00156147 0.00157579 0.00156917 0.00153856 0.00148396 0.00140538 0.00130103 0.00116913 0.00100966 0.000822649 0.000607606 0.00036406 9.2013e-05 -0.000208536 -0.000536774 -0.00089189 -0.00127388 -0.00168275 -0.00211629 -0.0025723 -0.00305076 -0.00355168 -0.00407112 -0.00460514 -0.00515373 -0.00571689 -0.00628861 -0.00686288 -0.0074397 -0.00801907 -0.00859307 -0.00915378 -0.00970121 -0.0102354 -0.0107475 -0.0112288 -0.0116793 -0.0120991 -0.0124804 -0.0128155 -0.0131046 -0.0133474 -0.0135396 -0.0136766 -0.0137584 -0.0137851 -0.0137566 -0.0136729 -0.0135341 -0.0133402 -0.0130957 -0.0128051 -0.0124685 -0.0120859 -0.0116649 -0.0112133 -0.0107311 -0.0102183 -0.00968355 -0.00913572 -0.00857478 -0.00800072 -0.00742146 -0.00684489 -0.00627103 -0.00569986 -0.00513739 -0.0045896 -0.00405649 -0.00353807 -0.00303825 -0.00256095 -0.00210617 -0.00167391 -0.00126635 -0.000885663 -0.000531855 -0.000204924 9.43436e-05 0.000365162 0.000607531 0.000821451 0.00100742 0.00116592 0.00129696 0.00140054 0.00147845 0.0015325 0.00156267 0.00156897 0.00155443 0.00152211 0.00147199 0.00140408 0.00132245 0.0012312 0.00113032 0.00101981 0.000904566 0.000789468 0.00067452 0.000559721 0.000449017 0.000346352 0.000251725 0.000165137 9.28895e-05 4.12842e-05 1.03211e-05 0 0 1.21908e-05 4.87633e-05 0.000109717 0.000195053 0.000296811 0.00040703 0.000525711 0.000652854 0.00078355 0.000912888 0.00104087 0.00116749 0.00128695 0.00139343 0.00148694 0.00156747 0.00163038 0.00167101 0.00168936 0.00168544 0.00165599 0.00159778 0.00151079 0.00139503 0.00124879 0.0010704 0.000859834 0.000617103 0.000342007 3.4346e-05 -0.000305879 -0.000678668 -0.00108285 -0.00151725 -0.00198186 -0.0024767 -0.00299911 -0.00354648 -0.0041188 -0.00471606 -0.00533376 -0.00596737 -0.00661689 -0.00728232 -0.0079568 -0.00863348 -0.00931234 -0.00999338 -0.0106675 -0.0113257 -0.0119679 -0.0125941 -0.0131941 -0.013758 -0.0142857 -0.0147772 -0.0152235 -0.0156158 -0.015954 -0.0162382 -0.0164631 -0.0166234 -0.0167192 -0.0167503 -0.016717 -0.0166191 -0.0164566 -0.0162297 -0.0159435 -0.0156034 -0.0152094 -0.0147615 -0.0142686 -0.0137396 -0.0131747 -0.0125737 -0.0119468 -0.0113041 -0.0106456 -0.00997129 -0.0092903 -0.00861167 -0.0079354 -0.00726149 -0.0065968 -0.00594814 -0.00531554 -0.00469898 -0.00410295 -0.00353195 -0.00298597 -0.00246501 -0.00197168 -0.00150858 -0.0010757 -0.000673052 -0.000301773 3.69945e-05 0.00034325 0.000616994 0.000858449 0.00106784 0.00124517 0.00139043 0.00150534 0.00159161 0.00164924 0.00167823 0.00168183 0.00166329 0.0016226 0.00155977 0.00147943 0.00138622 0.00128014 0.00116118 0.00103513 0.000907766 0.000779079 0.000649075 0.000522627 0.000404611 0.000295027 0.000193874 0.000109054 4.84685e-05 1.21171e-05 0 0 1.40833e-05 5.63333e-05 0.00012675 0.000225333 0.000342314 0.000467925 0.000602164 0.000745033 0.000890565 0.0010328 0.00117173 0.00130736 0.00143292 0.00154166 0.00163357 0.00170865 0.00176172 0.00178758 0.00178624 0.00175769 0.00169856 0.00160548 0.00147844 0.00131744 0.00112099 0.000887591 0.000617249 0.000309961 -3.40825e-05 -0.000414694 -0.000831872 -0.00128562 -0.00177432 -0.00229637 -0.00285176 -0.00344049 -0.00405948 -0.00470565 -0.00537898 -0.00607948 -0.00680206 -0.00754165 -0.00829824 -0.00907183 -0.00985472 -0.0106392 -0.0114254 -0.0122131 -0.0129922 -0.0137524 -0.0144937 -0.0152161 -0.015908 -0.0165581 -0.0171663 -0.0177326 -0.0182468 -0.0186987 -0.0190883 -0.0194156 -0.0196746 -0.0198592 -0.0199695 -0.0200054 -0.0199669 -0.0198542 -0.0196671 -0.0194057 -0.0190761 -0.0186843 -0.0182304 -0.0177143 -0.0171464 -0.0165367 -0.0158853 -0.0151922 -0.0144689 -0.0137269 -0.0129663 -0.0121869 -0.0113992 -0.0106132 -0.00982911 -0.0090468 -0.00827398 -0.00751831 -0.0067798 -0.00605846 -0.00535932 -0.00468744 -0.00404283 -0.00342548 -0.00283845 -0.00228478 -0.00176447 -0.00127754 -0.000825542 -0.000410065 -3.11051e-05 0.000311337 0.000617102 0.000886032 0.00111813 0.00131339 0.00147332 0.00159945 0.00169177 0.00175029 0.00177837 0.0017794 0.00175339 0.00170033 0.00162539 0.00153374 0.0014254 0.00130035 0.00116533 0.00102705 0.000885532 0.000740762 0.000598668 0.000465174 0.00034028 0.000223987 0.000125992 5.59967e-05 1.39992e-05 0 0 1.59962e-05 6.39848e-05 0.000143966 0.000255939 0.000388156 0.000528866 0.000678069 0.000835767 0.000994823 0.0011481 0.0012956 0.00143733 0.00156553 0.00167244 0.00175808 0.00182243 0.00185984 0.00186464 0.00183682 0.00177639 0.00167998 0.00154424 0.00136915 0.00115472 0.000899838 0.000603381 0.000265352 -0.000114249 -0.000534693 -0.000995249 -0.00149592 -0.0020367 -0.00261546 -0.00323007 -0.00388053 -0.00456684 -0.00528547 -0.00603289 -0.00680909 -0.00761407 -0.00844227 -0.00928812 -0.0101516 -0.0110328 -0.0119232 -0.0128144 -0.0137064 -0.0145993 -0.0154816 -0.0163422 -0.0171809 -0.0179977 -0.0187799 -0.0195147 -0.0202019 -0.0208417 -0.0214225 -0.021933 -0.022373 -0.0227427 -0.0230352 -0.0232437 -0.0233683 -0.0234088 -0.0233654 -0.023238 -0.0230267 -0.0227315 -0.0223591 -0.0219166 -0.0214038 -0.0208208 -0.0201791 -0.0194901 -0.0187538 -0.0179703 -0.0171523 -0.0163128 -0.0154517 -0.0145689 -0.0136759 -0.012784 -0.0118931 -0.0110033 -0.0101229 -0.00926038 -0.00841566 -0.00758877 -0.00678525 -0.00601062 -0.0052649 -0.00454808 -0.00386365 -0.00321511 -0.00260245 -0.00202568 -0.0014869 -0.000988178 -0.000529528 -0.000110947 0.000266871 0.000603232 0.000898136 0.00115158 0.00136471 0.00153867 0.00167344 0.00176905 0.00182884 0.00185621 0.00185114 0.00181364 0.00174935 0.00166393 0.00155738 0.0014297 0.00128859 0.00114178 0.000989255 0.000831024 0.000674174 0.000525791 0.000385875 0.000254428 0.000143116 6.36069e-05 1.59017e-05 0 0 1.78636e-05 7.14545e-05 0.000160773 0.000285818 0.000432716 0.000587592 0.000750445 0.000921276 0.00109167 0.00125322 0.00140591 0.00154975 0.001676 0.00177589 0.00184944 0.00189664 0.00191145 0.00188785 0.00182582 0.00172538 0.00158336 0.00139663 0.00116517 0.000888985 0.000567579 0.000200446 -0.000212415 -0.000671004 -0.00117386 -0.00171951 -0.00230796 -0.00293922 -0.00361054 -0.00431918 -0.00506515 -0.00584845 -0.00666515 -0.0075113 -0.00838691 -0.00929198 -0.0102206 -0.0111669 -0.0121309 -0.0131125 -0.0141029 -0.0150931 -0.0160831 -0.017073 -0.0180504 -0.0190033 -0.0199317 -0.0208354 -0.0217006 -0.0225132 -0.0232732 -0.0239806 -0.0246228 -0.0251873 -0.0256739 -0.0260827 -0.0264062 -0.0266367 -0.0267744 -0.0268193 -0.0267712 -0.0266304 -0.0263967 -0.0260702 -0.0256584 -0.025169 -0.024602 -0.0239573 -0.0232476 -0.0224856 -0.0216712 -0.0208045 -0.0198995 -0.0189701 -0.0180165 -0.0170385 -0.0160484 -0.0150584 -0.0140684 -0.0130786 -0.0120977 -0.0111346 -0.0101895 -0.00926217 -0.00835862 -0.00748466 -0.00664031 -0.00582556 -0.00504429 -0.00430041 -0.00359392 -0.00292481 -0.00229577 -0.00170951 -0.00116601 -0.000665286 -0.000208749 0.000202176 0.000567489 0.000887191 0.00116182 0.0013919 0.00157743 0.00171843 0.00181804 0.00187944 0.00190262 0.00188759 0.00184035 0.00176694 0.00166736 0.0015416 0.00139837 0.00124638 0.00108562 0.000916104 0.00074618 0.000584214 0.000430204 0.00028415 0.000159834 7.10375e-05 1.77594e-05 0 0 1.96856e-05 7.87424e-05 0.00017717 0.00031497 0.000475995 0.000644102 0.000819291 0.00100156 0.00118111 0.00134814 0.00150265 0.00164463 0.00176434 0.00185201 0.00190766 0.00193127 0.00191655 0.00185721 0.00175324 0.00160465 0.0014087 0.00116264 0.000866484 0.000520225 0.000124211 -0.000321215 -0.000816053 -0.0013603 -0.00195157 -0.00258748 -0.00326801 -0.00399318 -0.00475956 -0.0055637 -0.00640562 -0.00728532 -0.0081985 -0.00914087 -0.0101124 -0.0111132 -0.0121371 -0.013178 -0.014236 -0.0153111 -0.0163939 -0.0174754 -0.0185555 -0.0196342 -0.0206986 -0.0217359 -0.0227461 -0.0237291 -0.0246699 -0.0255536 -0.0263801 -0.0271494 -0.0278478 -0.0284616 -0.0289909 -0.0294355 -0.0297874 -0.0300382 -0.030188 -0.0302368 -0.0301845 -0.0300312 -0.029777 -0.0294218 -0.0289739 -0.0284416 -0.0278249 -0.0271238 -0.026352 -0.0255232 -0.0246375 -0.0236949 -0.0227104 -0.021699 -0.0206608 -0.0195957 -0.0185166 -0.0174364 -0.016355 -0.0152725 -0.0141981 -0.013141 -0.0121012 -0.0110787 -0.0100794 -0.00910956 -0.00816906 -0.00725792 -0.00638038 -0.0055407 -0.00473887 -0.0039749 -0.00325217 -0.00257406 -0.00194056 -0.00135168 -0.000809759 -0.000317136 0.000126188 0.000520214 0.000864635 0.00115914 0.00140374 0.00159843 0.00174597 0.0018491 0.00190784 0.00192217 0.0018984 0.00184278 0.00175534 0.00163607 0.00149467 0.00134086 0.00117464 0.000996 0.000814688 0.000640443 0.000473265 0.000313154 0.000176149 7.82885e-05 1.95721e-05 0 0 2.14621e-05 8.58485e-05 0.000193159 0.000343394 0.000517994 0.000698398 0.000884607 0.00107662 0.00126314 0.00143287 0.00158581 0.00172196 0.00183055 0.0019008 0.00193273 0.00192633 0.00187514 0.00177273 0.00161909 0.00141422 0.00115599 0.000842285 0.000473103 4.8443e-05 -0.000430268 -0.000961602 -0.00154556 -0.00218214 -0.00286784 -0.00359915 -0.00437607 -0.00519859 -0.00606252 -0.00696363 -0.00790194 -0.00887744 -0.00988553 -0.0109216 -0.0119857 -0.0130778 -0.0141917 -0.0153215 -0.016467 -0.0176284 -0.0187963 -0.0199613 -0.0211235 -0.0222829 -0.0234261 -0.0245399 -0.0256241 -0.0266787 -0.027688 -0.028636 -0.0295227 -0.030348 -0.0310973 -0.031756 -0.032324 -0.0328013 -0.033179 -0.0334482 -0.033609 -0.0336613 -0.0336052 -0.0334407 -0.0331678 -0.0327864 -0.0323057 -0.0317344 -0.0310726 -0.0303203 -0.0294921 -0.028603 -0.0276528 -0.0266415 -0.025585 -0.0244994 -0.0233845 -0.0222404 -0.0210804 -0.0199179 -0.0187529 -0.0175853 -0.0164244 -0.0152796 -0.0141509 -0.0130382 -0.0119477 -0.0108853 -0.00985115 -0.00884516 -0.00787191 -0.00693596 -0.00603732 -0.00517597 -0.00435609 -0.00358182 -0.00285317 -0.00217013 -0.00153616 -0.000954703 -0.000425768 5.06492e-05 0.000473168 0.000840409 0.00115237 0.00140906 0.00161261 0.00176519 0.00186679 0.0019174 0.00192348 0.00189145 0.00182133 0.0017131 0.00157749 0.00142523 0.0012563 0.00107071 0.000879696 0.000694478 0.000515059 0.000341439 0.00019206 8.53599e-05 2.134e-05 0 0 2.31175e-05 9.247e-05 0.000208057 0.00036988 0.00055687 0.00074796 0.000943149 0.00114244 0.00133296 0.00150183 0.00164907 0.00177466 0.00186686 0.00191394 0.0019159 0.00187273 0.001778 0.00162529 0.0014146 0.00114592 0.000818013 0.000429653 -1.91633e-05 -0.000528437 -0.00109536 -0.00171712 -0.00239372 -0.00312516 -0.00390658 -0.00473314 -0.00560483 -0.00652165 -0.00747854 -0.00847043 -0.00949734 -0.0105592 -0.0116514 -0.0127689 -0.0139118 -0.0150801 -0.016268 -0.0174696 -0.0186849 -0.0199139 -0.0211476 -0.0223769 -0.0236018 -0.0248223 -0.0260249 -0.0271962 -0.0283362 -0.0294449 -0.0305058 -0.0315024 -0.0324347 -0.0333027 -0.0340909 -0.0347838 -0.0353815 -0.0358839 -0.0362815 -0.036565 -0.0367342 -0.0367893 -0.0367302 -0.036557 -0.0362697 -0.0358682 -0.0353621 -0.0347609 -0.0340646 -0.0332732 -0.0324023 -0.0314672 -0.0304681 -0.029405 -0.0282944 -0.0271527 -0.02598 -0.0247762 -0.0235549 -0.0223295 -0.0211 -0.0198664 -0.0186378 -0.0174231 -0.0162224 -0.0150357 -0.0138688 -0.0127276 -0.0116119 -0.0105219 -0.00946232 -0.00843785 -0.00744853 -0.00649437 -0.00558036 -0.00471151 -0.00388783 -0.00310932 -0.00238077 -0.00170696 -0.00108789 -0.000523578 -1.67604e-05 0.000429806 0.000816121 0.00114219 0.00140927 0.00161864 0.00177029 0.00186423 0.00190688 0.00190467 0.00185759 0.00176565 0.00164053 0.00149392 0.00132583 0.00113625 0.000937979 0.000743815 0.000553755 0.000367802 0.000206889 9.19505e-05 2.29876e-05 0 0 2.4576e-05 9.83039e-05 0.000221184 0.000393216 0.000590783 0.000790268 0.000991673 0.001195 0.00138575 0.00154944 0.00168607 0.00179564 0.00186553 0.00188312 0.00184841 0.0017614 0.00161592 0.00140579 0.00113102 0.000791602 0.000387543 -8.11585e-05 -0.000614502 -0.00121249 -0.00187056 -0.00258417 -0.0033533 -0.00417797 -0.00505171 -0.00596805 -0.006927 -0.00792856 -0.00896674 -0.0100356 -0.011135 -0.0122652 -0.0134211 -0.014598 -0.0157959 -0.0170148 -0.0182495 -0.0194948 -0.0207506 -0.0220169 -0.0232856 -0.0245482 -0.0258047 -0.0270553 -0.0282867 -0.029486 -0.0306531 -0.0317881 -0.0328742 -0.0338948 -0.03485 -0.0357397 -0.0365479 -0.0372585 -0.0378717 -0.0383874 -0.0387958 -0.0390869 -0.0392607 -0.0393172 -0.0392566 -0.0390787 -0.0387836 -0.0383714 -0.0378518 -0.037235 -0.0365208 -0.0357092 -0.0348164 -0.0338583 -0.032835 -0.0317465 -0.0306093 -0.0294403 -0.0282394 -0.0270066 -0.025755 -0.0244977 -0.0232346 -0.0219658 -0.0206996 -0.0194442 -0.0181996 -0.016966 -0.0157483 -0.0145519 -0.0133768 -0.0122229 -0.011095 -0.00999801 -0.0089318 -0.00789642 -0.00689779 -0.00594183 -0.00502855 -0.00415794 -0.0033364 -0.00257032 -0.0018597 -0.00120454 -0.000609329 -7.85511e-05 0.000387791 0.000789696 0.00112721 0.00140037 0.00160918 0.00175363 0.0018399 0.00187417 0.00185642 0.00178667 0.00167747 0.00154139 0.00137844 0.00118861 0.00098631 0.000785948 0.000587524 0.000391037 0.000219958 9.77592e-05 2.44398e-05 0 0 2.58376e-05 0.00010335 0.000232538 0.000413402 0.000619733 0.000825325 0.00103018 0.00123429 0.00142151 0.00157569 0.00169683 0.00178492 0.00182656 0.00180834 0.00173027 0.00159234 0.00138888 0.00111422 0.000768349 0.000351274 -0.000135421 -0.00069015 -0.00131291 -0.00200371 -0.00275588 -0.00356275 -0.00442432 -0.00534059 -0.00630322 -0.00730389 -0.00834259 -0.00941932 -0.0105271 -0.011659 -0.012815 -0.0139952 -0.0151947 -0.016409 -0.0176381 -0.0188819 -0.0201362 -0.0213969 -0.022664 -0.0239374 -0.0252101 -0.0264752 -0.0277324 -0.028982 -0.0302117 -0.0314093 -0.0325748 -0.0337082 -0.0347932 -0.0358134 -0.0367686 -0.0376589 -0.0384682 -0.0391801 -0.0397947 -0.040312 -0.0407217 -0.0410138 -0.0411883 -0.041245 -0.0411842 -0.0410057 -0.0407096 -0.0402959 -0.0397747 -0.0391564 -0.0384409 -0.0376282 -0.0367346 -0.0357763 -0.0347534 -0.0336658 -0.0325299 -0.0313623 -0.0301628 -0.0289315 -0.0276807 -0.0264223 -0.0251566 -0.0238834 -0.0226098 -0.0213429 -0.0200826 -0.018829 -0.0175862 -0.0163584 -0.0151457 -0.0139481 -0.0127701 -0.0116164 -0.0104871 -0.00938215 -0.0083084 -0.00727279 -0.00627532 -0.005316 -0.00440308 -0.00354481 -0.0027412 -0.00199224 -0.00130454 -0.000684661 -0.000132619 0.00035159 0.000766436 0.00111038 0.00138344 0.0015856 0.00172254 0.00179995 0.00181782 0.00177616 0.00168831 0.00156763 0.00141413 0.00122779 0.00102469 0.000820879 0.000616365 0.000411145 0.000231269 0.000102786 2.56965e-05 0 0 2.69024e-05 0.000107609 0.000242121 0.000430438 0.00064372 0.000853128 0.00105866 0.00126032 0.00144025 0.00158059 0.00168133 0.00174248 0.00174994 0.0016896 0.00156147 0.00136555 0.0010969 0.00075058 0.000326591 -0.000175068 -0.000750878 -0.00139732 -0.0021144 -0.00290211 -0.00375131 -0.00465286 -0.00560676 -0.006613 -0.00766113 -0.00874066 -0.0098516 -0.0109939 -0.0121597 -0.0133408 -0.0145374 -0.0157493 -0.0169722 -0.0182019 -0.0194382 -0.0206813 -0.0219282 -0.0231762 -0.0244252 -0.0256754 -0.0269214 -0.0281578 -0.0293849 -0.0306024 -0.0317997 -0.0329659 -0.0341012 -0.0352054 -0.0362629 -0.0372579 -0.0381904 -0.0390605 -0.0398519 -0.0405486 -0.0411504 -0.0416575 -0.0420594 -0.0423459 -0.042517 -0.0425727 -0.042513 -0.042338 -0.0420475 -0.0416417 -0.0411309 -0.0405254 -0.0398252 -0.0390303 -0.0381569 -0.0372212 -0.0362233 -0.035163 -0.0340562 -0.0329186 -0.0317502 -0.030551 -0.0293319 -0.0281035 -0.0268659 -0.0256191 -0.0243684 -0.0231191 -0.0218712 -0.0206247 -0.0193824 -0.018147 -0.0169187 -0.0156974 -0.0144875 -0.0132932 -0.0121145 -0.0109515 -0.00981217 -0.00870438 -0.00762815 -0.00658349 -0.00558078 -0.00463041 -0.00373238 -0.00288669 -0.00210238 -0.00138853 -0.000745108 -0.000172132 0.00032695 0.000748688 0.00109308 0.00136013 0.00155479 0.001682 0.00174178 0.00173412 0.00167306 0.00157266 0.0014329 0.0012