<?xml version="1.0"?> 
<VTKFile type="StructuredGrid" version="0.1"> 
<StructuredGrid WholeExtent="0 128 0 128 0 0"> 
<Piece Extent="0 128 0 128 0 0"> 
<PointData>
<DataArray type="Float32" Name="u" format="ascii" NumberOfComponents="1"> 
0 0 0 0 0 0 0 0 0 0 0 0 0 0 0 0 0 0 0 0 0 0 0 0 0 0 0 0 0 0 0 0 0 0 0 0 0 0 0 0 0 0 0 0 0 0 0 0 0 0 0 0 0 0 0 0 0 0 0 0 0 0 0 0 0 0 0 0 0 0 0 0 0 0 0 0 0 0 0 0 0 0 0 0 0 0 0 0 0 0 0 0 0 0 0 0 0 0 0 0 0 0 0 0 0 0 0 0 0 0 0 0 0 0 0 0 0 0 0 0 0 0 0 0 0 0 0 0 0 0 1.88496e-07 7.53985e-07 1.69647e-06 3.01594e-06 4.58888e-06 6.29177e-06 8.12459e-06 1.00874e-05 1.21021e-05 1.40908e-05 1.60534e-05 1.799e-05 1.98182e-05 2.14556e-05 2.29022e-05 2.41581e-05 2.51651e-05 2.58654e-05 2.62589e-05 2.63456e-05 2.60872e-05 2.54451e-05 2.44193e-05 2.301e-05 2.11958e-05 1.89557e-05 1.62896e-05 1.31976e-05 9.67549e-06 5.71928e-06 1.32897e-06 -3.49546e-06 -8.73913e-06 -1.43872e-05 -2.04396e-05 -2.68965e-05 -3.37198e-05 -4.08717e-05 -4.83522e-05 -5.61613e-05 -6.42332e-05 -7.25021e-05 -8.09681e-05 -8.96311e-05 -9.8396e-05 -0.000107167 -0.000115945 -0.00012473 -0.000133403 -0.000141846 -0.000150059 -0.000158043 -0.000165672 -0.000172825 -0.000179499 -0.000185696 -0.000191311 -0.000196239 -0.00020048 -0.000204034 -0.000206841 -0.000208842 -0.000210035 -0.000210421 -0.000210001 -0.000208774 -0.000206741 -0.000203902 -0.000200317 -0.000196047 -0.000191092 -0.000185452 -0.000179232 -0.000172538 -0.000165369 -0.000157724 -0.000149729 -0.000141508 -0.000133059 -0.000124384 -0.0001156 -0.000106826 -9.80609e-05 -8.93053e-05 -8.0654e-05 -7.22019e-05 -6.3949e-05 -5.58953e-05 -4.81062e-05 -4.06469e-05 -3.35174e-05 -2.67178e-05 -2.02853e-05 -1.42575e-05 -8.63424e-06 -3.41558e-06 1.38413e-06 5.75053e-06 9.68362e-06 1.31834e-05 1.62544e-05 1.8901e-05 2.11233e-05 2.29213e-05 2.43165e-05 2.53301e-05 2.59624e-05 2.62131e-05 2.61209e-05 2.57243e-05 2.50231e-05 2.40175e-05 2.27652e-05 2.13239e-05 1.96937e-05 1.78746e-05 1.59483e-05 1.39968e-05 1.20201e-05 1.0018e-05 8.06797e-06 6.24735e-06 4.55612e-06 2.99428e-06 1.68428e-06 7.48571e-07 1.87143e-07 0 0 7.53985e-07 3.01594e-06 6.78587e-06 1.20638e-05 1.83555e-05 2.51671e-05 3.24984e-05 4.03494e-05 4.84083e-05 5.6363e-05 6.42136e-05 7.196e-05 7.92728e-05 8.58224e-05 9.16089e-05 9.66323e-05 0.00010066 0.000103462 0.000105036 0.000105383 0.000104349 0.00010178 9.76773e-05 9.20399e-05 8.47833e-05 7.58228e-05 6.51585e-05 5.27903e-05 3.87019e-05 2.28771e-05 5.31588e-06 -1.39818e-05 -3.49565e-05 -5.75488e-05 -8.17586e-05 -0.000107586 -0.000134879 -0.000163487 -0.000193409 -0.000224645 -0.000256933 -0.000290009 -0.000323872 -0.000358525 -0.000393584 -0.000428669 -0.000463781 -0.000498919 -0.00053361 -0.000567383 -0.000600236 -0.00063217 -0.00066269 -0.000691299 -0.000717997 -0.000742785 -0.000765244 -0.000784956 -0.00080192 -0.000816136 -0.000827365 -0.000835366 -0.000840139 -0.000841684 -0.000840002 -0.000835095 -0.000826963 -0.000815606 -0.000801266 -0.000784187 -0.000764367 -0.000741808 -0.00071693 -0.000690152 -0.000661474 -0.000630897 -0.000598917 -0.00056603 -0.000532237 -0.000497536 -0.000462401 -0.000427304 -0.000392244 -0.000357221 -0.000322616 -0.000288808 -0.000255796 -0.000223581 -0.000192425 -0.000162588 -0.00013407 -0.000106871 -8.11413e-05 -5.703e-05 -3.4537e-05 -1.36623e-05 5.53652e-06 2.30021e-05 3.87345e-05 5.27336e-05 6.50175e-05 7.56041e-05 8.44934e-05 9.16854e-05 9.72658e-05 0.00010132 0.000103849 0.000104853 0.000104484 0.000102897 0.000100093 9.607e-05 9.10606e-05 8.52956e-05 7.87748e-05 7.14983e-05 6.37934e-05 5.59874e-05 4.80802e-05 4.00719e-05 3.22719e-05 2.49894e-05 1.82245e-05 1.19771e-05 6.73714e-06 2.99428e-06 7.48571e-07 0 0 1.69647e-06 6.78587e-06 1.52682e-05 2.71435e-05 4.12999e-05 5.66259e-05 7.31213e-05 9.07862e-05 0.000108919 0.000126817 0.000144481 0.00016191 0.000178364 0.0001931 0.00020612 0.000217423 0.000226486 0.000232789 0.00023633 0.000237111 0.000234785 0.000229006 0.000219774 0.00020709 0.000190762 0.000170601 0.000146607 0.000118778 8.70794e-05 5.14736e-05 1.19607e-05 -3.14591e-05 -7.86522e-05 -0.000129485 -0.000183957 -0.000242068 -0.000303478 -0.000367845 -0.00043517 -0.000505452 -0.000578099 -0.000652519 -0.000728713 -0.00080668 -0.000885564 -0.000964506 -0.00104351 -0.00112257 -0.00120062 -0.00127661 -0.00135053 -0.00142238 -0.00149105 -0.00155542 -0.00161549 -0.00167127 -0.0017218 -0.00176615 -0.00180432 -0.00183631 -0.00186157 -0.00187957 -0.00189031 -0.00189379 -0.00189001 -0.00187896 -0.00186067 -0.00183511 -0.00180285 -0.00176442 -0.00171983 -0.00166907 -0.00161309 -0.00155284 -0.00148832 -0.00141952 -0.00134756 -0.00127357 -0.00119753 -0.00111946 -0.0010404 -0.000961433 -0.000882548 -0.000803748 -0.000725886 -0.000649817 -0.000575541 -0.000503058 -0.000432956 -0.000365822 -0.000301657 -0.00024046 -0.000182568 -0.000128317 -7.77082e-05 -3.07402e-05 1.24572e-05 5.17548e-05 8.71526e-05 0.000118651 0.000146289 0.000170109 0.00019011 0.000206292 0.000218848 0.000227971 0.000233661 0.000235918 0.000235089 0.000231519 0.000225208 0.000216157 0.000204886 0.000191915 0.000177243 0.000160871 0.000143535 0.000125972 0.00010818 9.01619e-05 7.26117e-05 5.62262e-05 4.10051e-05 2.69486e-05 1.51586e-05 6.73714e-06 1.68428e-06 0 0 3.01594e-06 1.20638e-05 2.71435e-05 4.8255e-05 7.34221e-05 0.000100668 0.000129993 0.000161398 0.000193633 0.000225452 0.000256854 0.00028784 0.000317091 0.00034329 0.000366436 0.000386529 0.000402642 0.000413847 0.000420143 0.00042153 0.000417395 0.000407121 0.000390709 0.00036816 0.000339133 0.000303291 0.000260634 0.000211161 0.000154808 9.15086e-05 2.12635e-05 -5.59273e-05 -0.000139826 -0.000230195 -0.000327034 -0.000430343 -0.000539517 -0.000653947 -0.000773635 -0.000898581 -0.00102773 -0.00116003 -0.00129549 -0.0014341 -0.00157434 -0.00171468 -0.00185512 -0.00199568 -0.00213444 -0.00226953 -0.00240094 -0.00252868 -0.00265076 -0.0027652 -0.00287199 -0.00297114 -0.00306098 -0.00313982 -0.00320768 -0.00326455 -0.00330946 -0.00334146 -0.00336056 -0.00336674 -0.00336001 -0.00334038 -0.00330785 -0.00326242 -0.00320507 -0.00313675 -0.00305747 -0.00296723 -0.00286772 -0.00276061 -0.0026459 -0.00252359 -0.00239567 -0.00226412 -0.00212895 -0.00199015 -0.00184961 -0.00170921 -0.00156897 -0.00142889 -0.00129046 -0.00115523 -0.00102318 -0.000894325 -0.000769699 -0.00065035 -0.000536278 -0.000427484 -0.000324565 -0.00022812 -0.000138148 -5.46493e-05 2.21461e-05 9.20085e-05 0.000154938 0.000210935 0.00026007 0.000302416 0.000337973 0.000366741 0.000389063 0.000405282 0.000415398 0.00041941 0.000417935 0.000411588 0.00040037 0.00038428 0.000364242 0.000341182 0.000315099 0.000285993 0.000255174 0.000223949 0.000192321 0.000160288 0.000129088 9.99576e-05 7.28979e-05 4.79085e-05 2.69486e-05 1.19771e-05 2.99428e-06 0 0 4.59054e-06 1.83622e-05 4.13149e-05 7.34487e-05 0.000111704 0.000153019 0.000197396 0.000244834 0.000293419 0.000341241 0.000388298 0.000434592 0.000478114 0.000516861 0.000550831 0.000580025 0.000603039 0.00061847 0.000626318 0.000626583 0.00061835 0.000600702 0.00057364 0.000537164 0.000490786 0.000434018 0.000366859 0.000289311 0.0002013 0.000102756 -6.32173e-06 -0.000125933 -0.000255696 -0.000395228 -0.000544528 -0.000703597 -0.000871502 -0.00104731 -0.00123102 -0.00142263 -0.00162055 -0.00182317 -0.00203048 -0.0022425 -0.0024569 -0.00267138 -0.00288594 -0.00310058 -0.00331242 -0.0035186 -0.00371913 -0.00391399 -0.00410019 -0.00427471 -0.00443756 -0.00458872 -0.00472568 -0.00484587 -0.0049493 -0.00503597 -0.00510442 -0.0051532 -0.00518229 -0.00519171 -0.00518146 -0.00515154 -0.00510197 -0.00503273 -0.0049453 -0.00484116 -0.00472031 -0.00458274 -0.00443102 -0.00426768 -0.00409274 -0.00390618 -0.00371103 -0.0035103 -0.00330398 -0.00309207 -0.00287745 -0.00266297 -0.00244864 -0.00223445 -0.00202271 -0.00181573 -0.0016135 -0.00141602 -0.00122489 -0.00104169 -0.000866424 -0.000699093 -0.000540616 -0.000391914 -0.000252987 -0.000123834 -4.82594e-06 0.000103667 0.000201645 0.000289108 0.000366139 0.000432818 0.000489147 0.000535125 0.000571247 0.000598007 0.000615407 0.000623445 0.000623039 0.000615106 0.000599646 0.000576659 0.000547543 0.000513696 0.000475119 0.00043181 0.000385764 0.000338973 0.000291436 0.000243155 0.000196025 0.000151943 0.000110909 7.29231e-05 4.10193e-05 1.82308e-05 4.5577e-06 0 0 6.29842e-06 2.51937e-05 5.66857e-05 0.000100775 0.000153126 0.000209404 0.00026961 0.000333743 0.000399145 0.000463156 0.000525776 0.000587006 0.000644093 0.000694285 0.000737582 0.000773983 0.000801588 0.000818494 0.000824702 0.000820211 0.000803819 0.000774323 0.000731723 0.000676018 0.000606611 0.000522906 0.000424901 0.000312598 0.00018597 4.49903e-05 -0.000110341 -0.000280024 -0.00046348 -0.00066013 -0.000869974 -0.00109301 -0.00132794 -0.00157345 -0.00182954 -0.00209622 -0.00237128 -0.00265253 -0.00293997 -0.0032336 -0.00353027 -0.00382683 -0.00412327 -0.0044196 -0.0047119 -0.00499628 -0.00527272 -0.00554124 -0.00579772 -0.00603806 -0.00626227 -0.00647033 -0.00665879 -0.00682417 -0.00696648 -0.0070857 -0.00717985 -0.00724694 -0.00728695 -0.0072999 -0.0072858 -0.00724464 -0.00717645 -0.00708121 -0.00696094 -0.00681765 -0.00665135 -0.00646204 -0.00625319 -0.0060283 -0.00578736 -0.00553038 -0.00526145 -0.0049847 -0.00470012 -0.00440772 -0.00411138 -0.00381503 -0.00351866 -0.00322227 -0.002929 -0.002642 -0.00236126 -0.00208679 -0.00182076 -0.00156536 -0.00132058 -0.00108644 -0.000864205 -0.000655178 -0.000459356 -0.000276739 -0.000107888 4.66346e-05 0.000186829 0.000312695 0.000424274 0.000521607 0.000604693 0.000673533 0.000728733 0.000770901 0.000800036 0.000816139 0.000820415 0.00081407 0.000797103 0.000769515 0.000733201 0.000690055 0.000640078 0.000583269 0.000522363 0.000460094 0.000396462 0.000331468 0.000267748 0.00020794 0.000152043 0.000100058 5.62828e-05 2.50146e-05 6.25365e-06 0 0 8.13955e-06 3.25582e-05 7.3256e-05 0.000130233 0.000197689 0.000269823 0.000346635 0.000428126 0.000510809 0.000591196 0.000669288 0.000745084 0.000815028 0.000875563 0.000926688 0.000968404 0.000998289 0.00101392 0.00101529 0.00100242 0.000973804 0.000927985 0.000864957 0.00078472 0.000686608 0.000569955 0.00043476 0.000281024 0.000108817 -8.17889e-05 -0.000290794 -0.000518199 -0.000763178 -0.0010249 -0.00130337 -0.00159859 -0.00190883 -0.00223237 -0.0025692 -0.00291933 -0.00327991 -0.00364812 -0.00402396 -0.00440741 -0.00479445 -0.00518101 -0.00556711 -0.00595274 -0.0063329 -0.00670256 -0.00706173 -0.00741042 -0.00774334 -0.00805524 -0.00834612 -0.00861596 -0.00886033 -0.00907474 -0.00925921 -0.00941373 -0.00953574 -0.00962268 -0.00967453 -0.00969131 -0.00967302 -0.00961969 -0.0095313 -0.00940787 -0.00925198 -0.00906623 -0.00885061 -0.00860512 -0.00833425 -0.00804246 -0.00772977 -0.00739617 -0.00704693 -0.00668734 -0.00631738 -0.00593707 -0.0055514 -0.00516539 -0.00477904 -0.00439234 -0.00400933 -0.00363404 -0.00326647 -0.00290662 -0.00255731 -0.00222135 -0.00189875 -0.00158951 -0.00129533 -0.00101791 -0.000757255 -0.000513364 -0.00028704 -7.90892e-05 0.000110489 0.000281695 0.000434477 0.000568783 0.000684612 0.000781966 0.000861523 0.000923963 0.000969286 0.000997493 0.00101006 0.00100848 0.000992742 0.000962849 0.000921217 0.00087026 0.000809977 0.000740368 0.000664969 0.000587312 0.000507398 0.000425227 0.000344258 0.00026795 0.000196302 0.000129314 7.27393e-05 3.23286e-05 8.08214e-06 0 0 1.0114e-05 4.04558e-05 9.10256e-05 0.000161823 0.000245392 0.000334275 0.000428472 0.000527984 0.000628413 0.000725363 0.000818833 0.000908825 0.000990918 0.00106069 0.00111815 0.00116329 0.00119314 0.00120474 0.00119809 0.00117319 0.0011283 0.00106169 0.000973343 0.000863272 0.000730778 0.000575166 0.000396436 0.000194588 -3.01583e-05 -0.000277581 -0.000547682 -0.00084046 -0.00115479 -0.00148954 -0.00184473 -0.00222033 -0.00261418 -0.00302406 -0.00344999 -0.00389196 -0.00434646 -0.00480995 -0.00528244 -0.00576392 -0.00624942 -0.00673393 -0.00721746 -0.00770001 -0.0081754 -0.00863745 -0.00908616 -0.00952153 -0.00993707 -0.0103263 -0.0106891 -0.0110256 -0.0113303 -0.0115976 -0.0118275 -0.0120201 -0.0121721 -0.0122804 -0.012345 -0.0123659 -0.0123431 -0.0122767 -0.0121665 -0.0120127 -0.0118184 -0.0115869 -0.0113181 -0.011012 -0.0106742 -0.0103102 -0.00991996 -0.00950356 -0.00906747 -0.0086182 -0.00815576 -0.00768013 -0.00719751 -0.00671406 -0.00622977 -0.00574466 -0.00526369 -0.00479184 -0.00432912 -0.00387552 -0.00343454 -0.00300968 -0.00260094 -0.00220832 -0.00183399 -0.00148011 -0.00114669 -0.000833709 -0.000542283 -0.000273504 -2.73738e-05 0.000196109 0.000396747 0.000574346 0.000728905 0.000860424 0.000969616 0.00105719 0.00112316 0.00116751 0.00119198 0.00119834 0.00118656 0.00115666 0.00111159 0.00105431 0.000984815 0.000903109 0.000813583 0.000720628 0.000624245 0.000524433 0.000425555 0.000331972 0.000243684 0.000160691 9.03886e-05 4.01727e-05 1.00432e-05 0 0 1.21391e-05 4.85564e-05 0.000109252 0.000194226 0.000294213 0.000399948 0.000511431 0.000628662 0.000746257 0.000858831 0.000966384 0.00106892 0.00116111 0.00123764 0.00129852 0.00134373 0.00136979 0.00137319 0.00135394 0.00131203 0.00124552 0.00115247 0.00103287 0.000886737 0.000713413 0.000512259 0.000283276 2.64641e-05 -0.000257726 -0.000568843 -0.000906886 -0.00127186 -0.00166227 -0.00207663 -0.00251495 -0.00297723 -0.00346078 -0.0039629 -0.00448361 -0.0050229 -0.00557655 -0.00614036 -0.00671432 -0.00729844 -0.00788679 -0.00847343 -0.00905837 -0.0096416 -0.0102158 -0.0107736 -0.011315 -0.01184 -0.0123409 -0.01281 -0.0132471 -0.0136524 -0.0140193 -0.0143411 -0.0146179 -0.0148497 -0.0150326 -0.015163 -0.0152407 -0.0152659 -0.0152384 -0.0151584 -0.0150259 -0.0148407 -0.0146069 -0.0143281 -0.0140044 -0.0136358 -0.013229 -0.0127904 -0.0123201 -0.0118181 -0.0112922 -0.0107501 -0.0101917 -0.00961721 -0.00903384 -0.00844895 -0.00786254 -0.0072746 -0.00669107 -0.00611783 -0.0055549 -0.00500228 -0.00446415 -0.0039447 -0.00344392 -0.00296183 -0.00250107 -0.00206431 -0.00165153 -0.00126275 -0.000899414 -0.000562973 -0.00025343 2.92164e-05 0.000284544 0.000512132 0.000711981 0.000884089 0.00102912 0.00114775 0.00123996 0.00130577 0.00134712 0.00136597 0.00136231 0.00133614 0.00129096 0.00123025 0.00115401 0.00106224 0.000960231 0.000853265 0.000741344 0.000624466 0.000507975 0.000397214 0.000292181 0.000192878 0.000108494 4.82194e-05 1.20549e-05 0 0 1.41325e-05 5.65298e-05 0.000127192 0.000226119 0.000342126 0.000464026 0.000591821 0.000725509 0.000858644 0.000984778 0.00110391 0.00121604 0.00131494 0.00139437 0.00145434 0.00149484 0.00151188 0.00150149 0.00146367 0.0013984 0.00130366 0.00117737 0.00101954 0.000830178 0.000608806 0.000354957 6.8631e-05 -0.000250171 -0.000600656 -0.000982029 -0.00139429 -0.00183744 -0.00230956 -0.00280874 -0.00333498 -0.00388828 -0.00446544 -0.00506326 -0.00568175 -0.0063209 -0.00697584 -0.00764172 -0.00831853 -0.00900627 -0.00969814 -0.0103873 -0.0110739 -0.0117577 -0.0124304 -0.0130836 -0.0137173 -0.0143314 -0.014917 -0.0154652 -0.015976 -0.0164495 -0.0168779 -0.0172537 -0.0175768 -0.0178474 -0.018061 -0.0182131 -0.0183039 -0.0183332 -0.0183012 -0.0182078 -0.018053 -0.0178369 -0.0175639 -0.0172384 -0.0168604 -0.0164299 -0.0159546 -0.0154421 -0.0148923 -0.0143054 -0.0136902 -0.0130556 -0.0124018 -0.0117286 -0.0110445 -0.010358 -0.00966901 -0.00897756 -0.00829043 -0.00761441 -0.0069495 -0.0062957 -0.00565785 -0.00504078 -0.0044445 -0.003869 -0.00331746 -0.00279302 -0.00229569 -0.00182547 -0.00138423 -0.000973859 -0.000594349 -0.0002457 7.13278e-05 0.000355978 0.00060825 0.000828144 0.00101616 0.00117278 0.00129803 0.00139188 0.00145642 0.0014937 0.00150371 0.00148648 0.00144595 0.00138612 0.00130697 0.00120851 0.00109694 0.000978449 0.000853038 0.000720708 0.000587857 0.000460883 0.000339785 0.000224564 0.000126317 5.61411e-05 1.40353e-05 0 0 1.6094e-05 6.43761e-05 0.000144846 0.000257504 0.000389132 0.000526511 0.000669642 0.000818524 0.000965573 0.0011032 0.00123142 0.00135021 0.00145242 0.00153089 0.00158562 0.0016166 0.00161941 0.00158964 0.00152727 0.00143232 0.00130271 0.00113639 0.000933349 0.000693597 0.000416957 0.000103258 -0.000247501 -0.000635319 -0.00105895 -0.00151714 -0.00200989 -0.00253721 -0.00309667 -0.00368587 -0.00430481 -0.00495347 -0.00562816 -0.00632513 -0.0070444 -0.00778596 -0.00854434 -0.00931403 -0.0100951 -0.0108874 -0.0116835 -0.0124756 -0.0132639 -0.0140483 -0.0148193 -0.0155675 -0.0162929 -0.0169955 -0.0176652 -0.018292 -0.0188758 -0.0194167 -0.0199061 -0.0203353 -0.0207044 -0.0210134 -0.0212572 -0.0214309 -0.0215345 -0.021568 -0.0215314 -0.0214247 -0.021248 -0.0210013 -0.0206895 -0.0203177 -0.0198859 -0.0193942 -0.018851 -0.0182652 -0.0176366 -0.0169654 -0.0162615 -0.015535 -0.0147859 -0.0140143 -0.0132296 -0.0124412 -0.0116492 -0.0108535 -0.0100618 -0.00928158 -0.00851291 -0.00775578 -0.00701563 -0.00629793 -0.00560267 -0.00492984 -0.00428314 -0.00366624 -0.00307915 -0.00252186 -0.00199674 -0.00150616 -0.00105013 -0.000628642 -0.000242902 0.000105883 0.000417713 0.000692589 0.000930716 0.0011323 0.00129734 0.00142584 0.00151988 0.00158153 0.00161079 0.00160767 0.00157657 0.00152192 0.0014437 0.00134193 0.00122371 0.00109618 0.000959327 0.000813158 0.000665199 0.000522978 0.000386496 0.000255751 0.00014386 6.39378e-05 1.59844e-05 0 0 1.80238e-05 7.20951e-05 0.000162214 0.000288381 0.000435231 0.000587403 0.000744895 0.000907708 0.00106704 0.00121411 0.0013489 0.00147141 0.00157355 0.00164719 0.00169235 0.00170902 0.00169239 0.00163763 0.00154476 0.00141377 0.00124268 0.00102952 0.000774293 0.000476992 0.000137867 -0.000242837 -0.000665119 -0.00112898 -0.0016326 -0.00217417 -0.0027537 -0.00337117 -0.0040236 -0.00470802 -0.00542443 -0.00617282 -0.00694893 -0.00774852 -0.00857157 -0.00941809 -0.010282 -0.0111573 -0.0120439 -0.0129419 -0.0138428 -0.0147384 -0.0156286 -0.0165134 -0.0173825 -0.0182254 -0.019042 -0.0198325 -0.0205856 -0.0212903 -0.0219465 -0.0225543 -0.023104 -0.0235861 -0.0240006 -0.0243475 -0.0246212 -0.0248162 -0.0249326 -0.0249701 -0.024929 -0.0248093 -0.0246109 -0.0243338 -0.0239837 -0.0235661 -0.0230811 -0.0225286 -0.0219183 -0.0212598 -0.0205531 -0.0197981 -0.019006 -0.0181881 -0.0173442 -0.0164743 -0.015589 -0.0146986 -0.0138031 -0.0129025 -0.0120051 -0.0111193 -0.0102451 -0.00938251 -0.00853751 -0.00771614 -0.00691842 -0.00614434 -0.00539813 -0.00468399 -0.00400192 -0.00335192 -0.00273693 -0.00215988 -0.00162077 -0.00111961 -0.000658145 -0.000238153 0.00014037 0.000477424 0.000772801 0.0010263 0.00123791 0.00140765 0.00153749 0.00162946 0.00168353 0.00169971 0.00168282 0.00163765 0.0015642 0.00146248 0.00134054 0.00120645 0.00106021 0.000901817 0.000740002 0.000583501 0.000432313 0.000286438 0.000161121 7.16094e-05 1.79023e-05 0 0 1.98253e-05 7.93011e-05 0.000178428 0.000317204 0.000478075 0.000643482 0.000813425 0.000987904 0.00115686 0.00131023 0.00144802 0.00157023 0.00166783 0.00173179 0.00176211 0.00175879 0.00171672 0.00163079 0.00150099 0.00132733 0.00110807 0.000841468 0.000527526 0.000166242 -0.000241546 -0.000695005 -0.00119413 -0.00173893 -0.00232688 -0.00295546 -0.00362468 -0.00433452 -0.00508138 -0.00586163 -0.00667529 -0.00752233 -0.00839801 -0.00929755 -0.010221 -0.0111682 -0.0121328 -0.0131082 -0.0140944 -0.0150914 -0.0160902 -0.017082 -0.0180667 -0.0190443 -0.0200037 -0.0209336 -0.0218341 -0.0227051 -0.0235346 -0.0243105 -0.0250329 -0.0257017 -0.0263064 -0.0268368 -0.0272927 -0.0276743 -0.0279753 -0.0281898 -0.0283177 -0.028359 -0.0283138 -0.028182 -0.0279638 -0.0276591 -0.0272739 -0.0268146 -0.026281 -0.0256731 -0.0250015 -0.0242765 -0.0234982 -0.0226666 -0.0217938 -0.0208917 -0.0199606 -0.0190002 -0.018022 -0.0170369 -0.0160451 -0.0150465 -0.01405 -0.0130646 -0.0120903 -0.011127 -0.0101813 -0.00925972 -0.00836216 -0.00748866 -0.00664396 -0.00583277 -0.00505509 -0.00431092 -0.00360382 -0.00293737 -0.00231155 -0.00172637 -0.00118428 -0.000687765 -0.000236808 0.000168586 0.000527631 0.00083954 0.00110431 0.00132195 0.00149422 0.00162288 0.00170793 0.00174938 0.00175233 0.00172189 0.00165805 0.00156081 0.00143916 0.00130207 0.00114953 0.000981563 0.000808141 0.000639255 0.000474905 0.000315091 0.000177239 7.87728e-05 1.96932e-05 0 0 2.1402e-05 8.5608e-05 0.000192618 0.000342432 0.000515315 0.00069153 0.000871078 0.00105396 0.00122883 0.00138433 0.00152047 0.00163725 0.00172478 0.00177318 0.00178245 0.00175259 0.00167833 0.00155441 0.00138083 0.00115758 0.000883375 0.000556914 0.000178198 -0.000252775 -0.000734362 -0.00126492 -0.00184446 -0.00247297 -0.00314706 -0.00386334 -0.00462182 -0.00542248 -0.00626103 -0.00713314 -0.00803881 -0.00897804 -0.00994563 -0.0109364 -0.0119502 -0.0129872 -0.0140406 -0.0151035 -0.0161758 -0.0172577 -0.0183398 -0.019413 -0.0204771 -0.0215323 -0.0225668 -0.023569 -0.0245388 -0.0254762 -0.0263685 -0.027203 -0.0279796 -0.0286985 -0.0293484 -0.0299184 -0.0304083 -0.0308182 -0.0311416 -0.031372 -0.0315094 -0.0315538 -0.0315052 -0.0313636 -0.0311291 -0.0308017 -0.0303879 -0.0298942 -0.0293207 -0.0286674 -0.0279454 -0.0271658 -0.0263287 -0.025434 -0.0244945 -0.0235229 -0.0225193 -0.0214836 -0.0204276 -0.0193629 -0.0182895 -0.0172075 -0.016126 -0.0150544 -0.0139925 -0.0129405 -0.011905 -0.010893 -0.00990427 -0.00893895 -0.00800218 -0.00709912 -0.00622976 -0.00539411 -0.00459643 -0.00384096 -0.00312771 -0.00245668 -0.0018312 -0.00125459 -0.000726852 -0.000247986 0.000180423 0.000556792 0.000881121 0.00115341 0.00137499 0.00154718 0.00167 0.00174344 0.00177276 0.00176322 0.00171482 0.00162757 0.00151129 0.00137581 0.00122114 0.00104728 0.000865489 0.000687043 0.000511939 0.000340179 0.000191351 8.50447e-05 2.12612e-05 0 0 2.2754e-05 9.10159e-05 0.000204786 0.000364064 0.00054695 0.000731548 0.000917855 0.00110587 0.00128294 0.00143639 0.00156624 0.00167247 0.00174441 0.00177138 0.00175339 0.00169043 0.00157722 0.0014085 0.00118427 0.000904516 0.000568596 0.000175861 -0.000273691 -0.000780059 -0.00134058 -0.00195259 -0.00261609 -0.00333108 -0.00409312 -0.0048978 -0.00574511 -0.00663506 -0.00756255 -0.00852254 -0.009515 -0.0105399 -0.0115918 -0.0126649 -0.0137594 -0.0148752 -0.0160054 -0.017143 -0.0182882 -0.0194408 -0.0205916 -0.0217313 -0.0228599 -0.0239774 -0.0250718 -0.0261314 -0.027156 -0.0281456 -0.0290872 -0.0299676 -0.0307868 -0.0315448 -0.03223 -0.0328308 -0.0333472 -0.0337793 -0.0341201 -0.0343629 -0.0345077 -0.0345545 -0.0345033 -0.034354 -0.0341069 -0.0337617 -0.0333255 -0.032805 -0.0322004 -0.0315116 -0.0307502 -0.0299278 -0.0290445 -0.0281002 -0.0271082 -0.0260816 -0.0250203 -0.0239245 -0.0228059 -0.0216766 -0.0205365 -0.0193856 -0.0182332 -0.0170886 -0.0159518 -0.0148229 -0.0137086 -0.0126159 -0.0115448 -0.0104952 -0.0094728 -0.00848304 -0.00752594 -0.00660151 -0.00571474 -0.00487066 -0.00406927 -0.00331056 -0.00259889 -0.00193863 -0.00132976 -0.000772293 -0.000268822 0.000178054 0.000568335 0.000902021 0.0011798 0.00140238 0.00156974 0.00168188 0.00174409 0.00176164 0.00173452 0.00166274 0.00155693 0.00142769 0.00127503 0.00109896 0.000912048 0.000726866 0.000543417 0.0003617 0.000203456 9.04251e-05 2.26063e-05 0 0 2.38812e-05 9.55247e-05 0.000214931 0.000382099 0.000572982 0.000763534 0.000953755 0.00114364 0.0013192 0.00146643 0.00158532 0.00167588 0.0017267 0.00172638 0.00167491 0.0015723 0.0014134 0.00119307 0.000911316 0.000568137 0.000163734 -0.000301692 -0.00082814 -0.00141561 -0.0020602 -0.00275801 -0.00350903 -0.00431327 -0.00516509 -0.00605885 -0.00699457 -0.00797224 -0.00898595 -0.0100298 -0.0111039 -0.012208 -0.0133365 -0.0144833 -0.0156485 -0.0168321 -0.0180272 -0.019227 -0.0204315 -0.0216408 -0.0228457 -0.0240371 -0.025215 -0.0263795 -0.0275187 -0.0286208 -0.0296857 -0.0307135 -0.0316909 -0.0326045 -0.0334544 -0.0342406 -0.0349511 -0.035574 -0.0361095 -0.0365575 -0.0369109 -0.0371626 -0.0373127 -0.0373612 -0.037308 -0.0371533 -0.036897 -0.0365391 -0.0360867 -0.035547 -0.03492 -0.0342056 -0.0334158 -0.0325625 -0.0316457 -0.0306654 -0.0296349 -0.0285677 -0.0274636 -0.0263228 -0.0251569 -0.023978 -0.0227859 -0.0215807 -0.0203715 -0.0191673 -0.0179682 -0.0167741 -0.015592 -0.0144284 -0.0132836 -0.0121574 -0.0110558 -0.00998453 -0.00894363 -0.0079331 -0.00695877 -0.00602648 -0.00513622 -0.004288 -0.00348737 -0.00273988 -0.00204553 -0.00140433 -0.000820105 -0.000296675 0.000165956 0.000567788 0.00090867 0.00118845 0.00140713 0.00156471 0.00166634 0.00171715 0.00171715 0.00166634 0.00157607 0.0014577 0.00131121 0.00113661 0.000947816 0.000758724 0.000569337 0.000379656 0.000213557 9.49141e-05 2.37285e-05 0 0 2.47052e-05 9.88207e-05 0.000222347 0.000395283 0.000591516 0.00078493 0.000975527 0.00116331 0.00133295 0.00146912 0.00157184 0.00164109 0.00166486 0.00163113 0.0015399 0.00139117 0.00118014 0.000901994 0.00055674 0.000144377 -0.000333779 -0.000876413 -0.00148352 -0.00215511 -0.00288577 -0.00367009 -0.00450808 -0.00539974 -0.00633803 -0.00731593 -0.00833345 -0.00939059 -0.0104806 -0.0115966 -0.0127388 -0.013907 -0.0150953 -0.0162975 -0.0175137 -0.0187438 -0.0199813 -0.02122 -0.0224596 -0.0237003 -0.0249336 -0.0261509 -0.0273523 -0.0285377 -0.0296958 -0.0308154 -0.0318963 -0.0329386 -0.0339292 -0.034855 -0.035716 -0.0365122 -0.0372316 -0.0378625 -0.0384047 -0.0388583 -0.0392161 -0.039471 -0.039623 -0.039672 -0.0396182 -0.0394615 -0.0392019 -0.0388395 -0.0383813 -0.0378347 -0.0371997 -0.0364762 -0.0356761 -0.0348115 -0.0338823 -0.0328886 -0.0318434 -0.0307599 -0.0296381 -0.028478 -0.0272909 -0.0260882 -0.02487 -0.0236361 -0.0223952 -0.0211556 -0.0199174 -0.0186807 -0.0174518 -0.0162371 -0.0150368 -0.0138507 -0.0126849 -0.0115455 -0.0104324 -0.00934565 -0.00829196 -0.007278 -0.00630378 -0.00536931 -0.00448151 -0.00364733 -0.00286677 -0.00213982 -0.00147182 -0.00086807 -0.000328579 0.000146655 0.000556377 0.000899332 0.00117552 0.00138494 0.00153241 0.00162274 0.00165594 0.001632 0.00156289 0.00146056 0.00132503 0.00115629 0.000969564 0.000780072 0.000587818 0.0003928 0.00022095 9.81999e-05 2.455e-05 0 0 2.51476e-05 0.00010059 0.000226328 0.000402361 0.000600655 0.000793175 0.000979922 0.00116089 0.00131951 0.00143918 0.00151991 0.0015617 0.00155208 0.00147859 0.00134125 0.00114003 0.000870743 0.00052917 0.000115311 -0.000370832 -0.00092651 -0.00154897 -0.00223822 -0.00299424 -0.00380984 -0.00467777 -0.00559806 -0.00657069 -0.00758704 -0.00863848 -0.00972503 -0.0108467 -0.0119957 -0.0131646 -0.0143533 -0.0155617 -0.0167838 -0.0180136 -0.0192511 -0.0204962 -0.0217433 -0.0229867 -0.0242263 -0.0254623 -0.0266871 -0.0278935 -0.0290814 -0.0302509 -0.0313916 -0.0324933 -0.033556 -0.0345797 -0.035552 -0.0364604 -0.0373052 -0.0380861 -0.0387917 -0.0394104 -0.0399423 -0.0403872 -0.0407382 -0.0409882 -0.0411373 -0.0411854 -0.0411326 -0.0409788 -0.0407241 -0.0403685 -0.039919 -0.0393828 -0.0387598 -0.0380501 -0.0372652 -0.0364167 -0.0355047 -0.0345291 -0.0335023 -0.0324368 -0.0313325 -0.0301895 -0.0290181 -0.0278285 -0.0266209 -0.0253951 -0.0241585 -0.0229186 -0.0216754 -0.0204288 -0.0191845 -0.0179483 -0.0167201 -0.0154999 -0.0142938 -0.0131078 -0.0119418 -0.0107959 -0.00967775 -0.00859483 -0.00754718 -0.0065348 -0.00556622 -0.00464998 -0.00378606 -0.00297448 -0.00222236 -0.00153681 -0.000917831 -0.00036543 0.000117717 0.000528934 0.000868221 0.00113558 0.00133523 0.00147141 0.00154412 0.00155335 0.00151152 0.00143102 0.00131187 0.00115406 0.000974062 0.000788368 0.000596976 0.000399884 0.000224935 9.99709e-05 2.49927e-05 0 0 2.52083e-05 0.000100833 0.000226875 0.000403333 0.000600401 0.000788269 0.000966937 0.00113641 0.00127889 0.0013766 0.00142953 0.0014377 0.00138835 0.00126876 0.00107894 0.000818872 0.00048521 7.45954e-05 -0.000412972 -0.000977492 -0.00161446 -0.00231937 -0.00309221 -0.003933 -0.00483239 -0.00578104 -0.00677895 -0.00782612 -0.00891211 -0.0100265 -0.0111693 -0.0123405 -0.0135315 -0.0147337 -0.0159472 -0.0171719 -0.018402 -0.0196317 -0.0208608 -0.0220894 -0.0233131 -0.0245271 -0.0257316 -0.0269266 -0.0281062 -0.0292648 -0.0304025 -0.0315191 -0.032606 -0.0336546 -0.0346648 -0.0356367 -0.0365591 -0.0374208 -0.0382219 -0.0389623 -0.0396313 -0.0402179 -0.0407222 -0.0411442 -0.0414771 -0.0417143 -0.0418557 -0.0419013 -0.0418511 -0.0417052 -0.0414636 -0.0411262 -0.0406998 -0.0401912 -0.0396004 -0.0389274 -0.038183 -0.0373781 -0.0365127 -0.0355868 -0.0346117 -0.0335984 -0.032547 -0.0314575 -0.0303385 -0.0291989 -0.0280386 -0.0268576 -0.0256616 -0.0244564 -0.0232421 -0.0220185 -0.0207903 -0.019562 -0.0183337 -0.0171052 -0.0158825 -0.0146714 -0.0134719 -0.012284 -0.0111162 -0.00997698 -0.00886642 -0.00778448 -0.0067415 -0.00574782 -0.00480342 -0.00390831 -0.00307172 -0.00230288 -0.0016018 -0.000968468 -0.000407308 7.72602e-05 0.000485237 0.000816622 0.0010748 0.00126315 0.00138169 0.0014304 0.00142196 0.00136907 0.00127172 0.0011299 0.00096131 0.000783612 0.000596812 0.000400909 0.000225511 0.000100227 2.50568e-05 0 0 2.48875e-05 9.95499e-05 0.000223987 0.0003982 0.000590752 0.000770211 0.000936575 0.00108984 0.00121109 0.00128138 0.00130071 0.00126909 0.00117368 0.00100164 0.000752981 0.000427694 2.35392e-05 -0.000461728 -0.00102811 -0.0016756 -0.00239762 -0.0031876 -0.00404552 -0.0049714 -0.00595345 -0.0069799 -0.00805076 -0.00916603 -0.0103133 -0.01148 -0.0126663 -0.013872 -0.0150878 -0.016304 -0.0175207 -0.0187378 -0.01995 -0.0211516 -0.0223428 -0.0235234 -0.0246906 -0.0258413 -0.0269755 -0.0280932 -0.0291909 -0.030265 -0.0313154 -0.0323423 -0.033339 -0.0342992 -0.0352227 -0.0361097 -0.0369507 -0.0377362 -0.0384662 -0.0391408 -0.0397503 -0.0402848 -0.0407445 -0.0411292 -0.0414329 -0.0416491 -0.0417781 -0.0418196 -0.0417739 -0.0416407 -0.0414203 -0.0411125 -0.0407237 -0.0402599 -0.0397214 -0.039108 -0.0384295 -0.0376956 -0.0369064 -0.0360619 -0.0351715 -0.0342447 -0.0332814 -0.0322818 -0.0312522 -0.0301994 -0.0291231 -0.0280236 -0.0269043 -0.0257689 -0.0246174 -0.0234498 -0.0222691 -0.0210783 -0.0198774 -0.0186665 -0.017451 -0.0162364 -0.0150226 -0.0138097 -0.0126072 -0.0114244 -0.0102615 -0.00911835 -0.00800736 -0.00694085 -0.00591883 -0.0049413 -0.00401991 -0.0031663 -0.00238049 -0.00166246 -0.0010187 -0.000455691 2.65677e-05 0.000428076 0.000751118 0.000997975 0.00116865 0.00126314 0.00129423 0.00127471 0.00120458 0.00108384 0.000931307 0.000