<?xml version="1.0"?> 
<VTKFile type="StructuredGrid" version="0.1"> 
<StructuredGrid WholeExtent="0 128 0 128 0 0"> 
<Piece Extent="0 128 0 128 0 0"> 
<PointData>
<DataArray type="Float32" Name="u" format="ascii" NumberOfComponents="1"> 
0 0 0 0 0 0 0 0 0 0 0 0 0 0 0 0 0 0 0 0 0 0 0 0 0 0 0 0 0 0 0 0 0 0 0 0 0 0 0 0 0 0 0 0 0 0 0 0 0 0 0 0 0 0 0 0 0 0 0 0 0 0 0 0 0 0 0 0 0 0 0 0 0 0 0 0 0 0 0 0 0 0 0 0 0 0 0 0 0 0 0 0 0 0 0 0 0 0 0 0 0 0 0 0 0 0 0 0 0 0 0 0 0 0 0 0 0 0 0 0 0 0 0 0 0 0 0 0 0 0 -4.2052e-08 -1.68208e-07 -3.78468e-07 -6.72833e-07 -1.15853e-06 -1.94278e-06 -3.02559e-06 -4.40696e-06 -6.14151e-06 -8.2839e-06 -1.08341e-05 -1.37921e-05 -1.71646e-05 -2.09579e-05 -2.51721e-05 -2.98073e-05 -3.48426e-05 -4.02573e-05 -4.60512e-05 -5.22246e-05 -5.87369e-05 -6.55478e-05 -7.26573e-05 -8.00654e-05 -8.7716e-05 -9.5553e-05 -0.000103576 -0.000111786 -0.000120116 -0.000128502 -0.000136942 -0.000145438 -0.000153923 -0.00016233 -0.000170661 -0.000178914 -0.000187033 -0.000194959 -0.000202693 -0.000210236 -0.000217544 -0.000224576 -0.000231332 -0.000237813 -0.000243994 -0.000249852 -0.000255388 -0.000260601 -0.000265484 -0.00027003 -0.000274241 -0.000278114 -0.000281656 -0.000284871 -0.000287758 -0.000290317 -0.000292558 -0.000294488 -0.000296108 -0.000297417 -0.000298423 -0.00029913 -0.00029954 -0.000299651 -0.000299465 -0.000298981 -0.000298199 -0.00029712 -0.000295736 -0.000294043 -0.000292039 -0.000289726 -0.000287095 -0.000284137 -0.000280853 -0.000277243 -0.000273302 -0.000269027 -0.000264418 -0.000259475 -0.000254205 -0.000248616 -0.000242708 -0.00023648 -0.000229958 -0.000223164 -0.0002161 -0.000208764 -0.0002012 -0.00019345 -0.000185513 -0.000177391 -0.000169139 -0.000160817 -0.000152423 -0.000143958 -0.000135488 -0.000127079 -0.000118731 -0.000110442 -0.00010228 -9.43077e-05 -8.65259e-05 -7.89345e-05 -7.15886e-05 -6.45433e-05 -5.77987e-05 -5.13547e-05 -4.52506e-05 -3.95255e-05 -3.41795e-05 -2.92125e-05 -2.46442e-05 -2.04942e-05 -1.67624e-05 -1.34489e-05 -1.05461e-05 -8.04635e-06 -5.94976e-06 -4.2563e-06 -2.91112e-06 -1.85938e-06 -1.10109e-06 -6.36245e-07 -3.57888e-07 -1.59061e-07 -3.97653e-08 0 0 -1.68208e-07 -6.72833e-07 -1.51387e-06 -2.69133e-06 -4.63411e-06 -7.77112e-06 -1.21024e-05 -1.76278e-05 -2.45661e-05 -3.31356e-05 -4.33364e-05 -5.51686e-05 -6.86582e-05 -8.38316e-05 -0.000100689 -0.000119229 -0.00013937 -0.000161029 -0.000184205 -0.000208898 -0.000234948 -0.000262191 -0.000290629 -0.000320262 -0.000350864 -0.000382212 -0.000414305 -0.000447143 -0.000480465 -0.000514007 -0.000547769 -0.000581752 -0.000615691 -0.000649322 -0.000682643 -0.000715656 -0.000748131 -0.000779836 -0.000810774 -0.000840942 -0.000870175 -0.000898304 -0.00092533 -0.000951252 -0.000975976 -0.000999409 -0.00102155 -0.0010424 -0.00106193 -0.00108012 -0.00109696 -0.00111246 -0.00112663 -0.00113948 -0.00115103 -0.00116127 -0.00117023 -0.00117795 -0.00118443 -0.00118967 -0.00119369 -0.00119652 -0.00119816 -0.0011986 -0.00119786 -0.00119592 -0.0011928 -0.00118848 -0.00118294 -0.00117617 -0.00116816 -0.0011589 -0.00114838 -0.00113655 -0.00112341 -0.00110897 -0.00109321 -0.00107611 -0.00105767 -0.0010379 -0.00101682 -0.000994463 -0.00097083 -0.00094592 -0.00091983 -0.000892656 -0.000864398 -0.000835057 -0.0008048 -0.000773799 -0.000742053 -0.000709562 -0.000676556 -0.000643266 -0.000609692 -0.000575833 -0.000541954 -0.000508317 -0.000474922 -0.00044177 -0.00040912 -0.000377231 -0.000346104 -0.000315738 -0.000286354 -0.000258173 -0.000231195 -0.000205419 -0.000181002 -0.000158102 -0.000136718 -0.00011685 -9.85769e-05 -8.19768e-05 -6.70496e-05 -5.37956e-05 -4.21842e-05 -3.21854e-05 -2.37991e-05 -1.70252e-05 -1.16445e-05 -7.43752e-06 -4.40436e-06 -2.54498e-06 -1.43155e-06 -6.36245e-07 -1.59061e-07 0 0 -3.78468e-07 -1.51387e-06 -3.40621e-06 -6.05549e-06 -1.04267e-05 -1.7485e-05 -2.72303e-05 -3.96626e-05 -5.52736e-05 -7.45551e-05 -9.7507e-05 -0.000124129 -0.000154481 -0.000188621 -0.000226549 -0.000268266 -0.000313584 -0.000362315 -0.000414461 -0.000470021 -0.000528632 -0.00058993 -0.000653916 -0.000720589 -0.000789444 -0.000859977 -0.000932186 -0.00100607 -0.00108105 -0.00115652 -0.00123248 -0.00130894 -0.00138531 -0.00146097 -0.00153595 -0.00161023 -0.00168329 -0.00175463 -0.00182424 -0.00189212 -0.00195789 -0.00202118 -0.00208199 -0.00214032 -0.00219595 -0.00224867 -0.00229849 -0.0023454 -0.00238935 -0.00243027 -0.00246817 -0.00250303 -0.00253491 -0.00256384 -0.00258982 -0.00261285 -0.00263302 -0.00265039 -0.00266497 -0.00267675 -0.0026858 -0.00269217 -0.00269586 -0.00269686 -0.00269519 -0.00269083 -0.00268379 -0.00267408 -0.00266162 -0.00264638 -0.00262835 -0.00260754 -0.00258385 -0.00255723 -0.00252768 -0.00249518 -0.00245972 -0.00242124 -0.00237976 -0.00233527 -0.00228784 -0.00223754 -0.00218437 -0.00212832 -0.00206962 -0.00200848 -0.0019449 -0.00187888 -0.0018108 -0.00174105 -0.00166962 -0.00159651 -0.00152225 -0.00144735 -0.00137181 -0.00129562 -0.0012194 -0.00114371 -0.00106857 -0.000993982 -0.000920519 -0.000848769 -0.000778733 -0.000710411 -0.000644297 -0.00058089 -0.000520188 -0.000462193 -0.000407255 -0.00035573 -0.000307616 -0.000262913 -0.000221798 -0.000184448 -0.000150862 -0.00012104 -9.49145e-05 -7.24171e-05 -5.35479e-05 -3.83067e-05 -2.62e-05 -1.67344e-05 -9.90981e-06 -5.7262e-06 -3.22099e-06 -1.43155e-06 -3.57888e-07 0 0 -6.72833e-07 -2.69133e-06 -6.05549e-06 -1.07653e-05 -1.85364e-05 -3.10845e-05 -4.84094e-05 -7.05113e-05 -9.82642e-05 -0.000132542 -0.000173346 -0.000220674 -0.000274633 -0.000335326 -0.000402754 -0.000476917 -0.000557482 -0.000644116 -0.00073682 -0.000835593 -0.00093979 -0.00104876 -0.00116252 -0.00128105 -0.00140346 -0.00152885 -0.00165722 -0.00178857 -0.00192186 -0.00205603 -0.00219108 -0.00232701 -0.00246276 -0.00259729 -0.00273057 -0.00286262 -0.00299252 -0.00311935 -0.00324309 -0.00336377 -0.0034807 -0.00359322 -0.00370132 -0.00380501 -0.0039039 -0.00399764 -0.00408621 -0.00416961 -0.00424774 -0.00432048 -0.00438785 -0.00444983 -0.0045065 -0.00455793 -0.00460412 -0.00464507 -0.00468092 -0.0047118 -0.00473772 -0.00475867 -0.00477476 -0.00478608 -0.00479263 -0.00479442 -0.00479144 -0.0047837 -0.00477119 -0.00475391 -0.00473178 -0.00470468 -0.00467263 -0.00463562 -0.00459352 -0.00454619 -0.00449365 -0.00443588 -0.00437283 -0.00430443 -0.00423069 -0.0041516 -0.00406728 -0.00397785 -0.00388332 -0.00378368 -0.00367932 -0.00357062 -0.00345759 -0.00334023 -0.0032192 -0.0030952 -0.00296821 -0.00283825 -0.00270623 -0.00257307 -0.00243877 -0.00230333 -0.00216782 -0.00203327 -0.00189969 -0.00176708 -0.00163648 -0.00150892 -0.00138441 -0.00126295 -0.00114542 -0.00103269 -0.00092478 -0.000821676 -0.00072401 -0.000632408 -0.000546872 -0.000467401 -0.000394308 -0.000327907 -0.000268199 -0.000215182 -0.000168737 -0.000128742 -9.51962e-05 -6.81008e-05 -4.65779e-05 -2.97501e-05 -1.76174e-05 -1.01799e-05 -5.7262e-06 -2.54498e-06 -6.36245e-07 0 0 -1.16109e-06 -4.64435e-06 -1.04498e-05 -1.85774e-05 -3.15235e-05 -5.17843e-05 -7.93599e-05 -0.00011425 -0.000157753 -0.000211166 -0.00027449 -0.000347724 -0.000430999 -0.000524447 -0.000628067 -0.000741859 -0.000865293 -0.000997841 -0.0011395 -0.00129027 -0.00144916 -0.00161515 -0.00178824 -0.00196844 -0.00215437 -0.00234464 -0.00253925 -0.0027382 -0.0029399 -0.00314273 -0.00334671 -0.00355182 -0.00375647 -0.00395905 -0.00415956 -0.00435801 -0.00455301 -0.00474319 -0.00492854 -0.00510907 -0.00528379 -0.00545172 -0.00561285 -0.00576719 -0.00591421 -0.00605338 -0.0061847 -0.00630817 -0.00642367 -0.00653109 -0.00663043 -0.00672167 -0.00680499 -0.00688053 -0.00694829 -0.00700827 -0.00706071 -0.00710586 -0.00714372 -0.00717428 -0.00719773 -0.00721422 -0.00722375 -0.00722634 -0.00722197 -0.00721065 -0.00719238 -0.00716716 -0.00713482 -0.0070952 -0.00704829 -0.0069941 -0.00693239 -0.00686293 -0.00678571 -0.00670074 -0.00660787 -0.00650697 -0.00639804 -0.00628107 -0.0061562 -0.00602357 -0.00588318 -0.00573502 -0.00557964 -0.00541759 -0.00524886 -0.00507345 -0.00489237 -0.0047066 -0.00451615 -0.00432103 -0.0041226 -0.00392225 -0.00371998 -0.0035158 -0.00331129 -0.00310806 -0.0029061 -0.00270541 -0.00250758 -0.0023142 -0.00212525 -0.00194076 -0.00176206 -0.00159052 -0.00142614 -0.00126891 -0.00111982 -0.000979834 -0.000848959 -0.000727192 -0.000615034 -0.000512984 -0.000421045 -0.000339214 -0.000267336 -0.000205256 -0.000152972 -0.000110485 -7.6492e-05 -4.96891e-05 -3.00766e-05 -1.76543e-05 -9.93053e-06 -4.41357e-06 -1.10339e-06 0 0 -1.95302e-06 -7.81209e-06 -1.75772e-05 -3.12484e-05 -5.19482e-05 -8.27993e-05 -0.000123802 -0.000174956 -0.000237955 -0.000314496 -0.000404577 -0.000508199 -0.000625466 -0.000756483 -0.000901249 -0.00105977 -0.00123124 -0.0014149 -0.00161073 -0.00181873 -0.00203747 -0.00226553 -0.0025029 -0.00274959 -0.00300365 -0.00326316 -0.00352812 -0.00379852 -0.00407216 -0.00434683 -0.00462252 -0.00489924 -0.00517481 -0.00544705 -0.00571596 -0.00598153 -0.00624195 -0.00649536 -0.00674178 -0.00698121 -0.00721237 -0.00743402 -0.00764614 -0.00784875 -0.00804123 -0.00822297 -0.00839398 -0.00855425 -0.00870374 -0.00884243 -0.00897031 -0.00908737 -0.00919396 -0.00929038 -0.00937665 -0.00945277 -0.00951915 -0.00957622 -0.00962398 -0.00966244 -0.00969186 -0.00971255 -0.00972448 -0.00972767 -0.00972212 -0.00970782 -0.00968478 -0.00965299 -0.00961218 -0.00956207 -0.00950265 -0.00943393 -0.0093555 -0.00926694 -0.00916824 -0.00905942 -0.00894016 -0.00881015 -0.00866939 -0.00851788 -0.00835569 -0.00818287 -0.00799942 -0.00780535 -0.00760128 -0.00738785 -0.00716506 -0.0069329 -0.00669266 -0.00644561 -0.00619176 -0.00593111 -0.00566549 -0.00539674 -0.00512487 -0.00484987 -0.00457391 -0.00429917 -0.00402564 -0.00375333 -0.00348442 -0.00322109 -0.00296336 -0.00271122 -0.00246656 -0.0022313 -0.00200542 -0.00178894 -0.00158323 -0.0013897 -0.00120835 -0.00103917 -0.000882903 -0.000740309 -0.000611384 -0.000496127 -0.000394398 -0.000306057 -0.000231103 -0.000169538 -0.000119657 -7.97562e-05 -4.98365e-05 -2.98974e-05 -1.68173e-05 -7.47436e-06 -1.86859e-06 0 0 -3.04864e-06 -1.21945e-05 -2.74377e-05 -4.87782e-05 -7.98106e-05 -0.00012413 -0.000181735 -0.000252627 -0.000338871 -0.000442531 -0.000563606 -0.000702098 -0.000858032 -0.00103143 -0.0012223 -0.00143064 -0.00165534 -0.00189529 -0.00215049 -0.00242095 -0.00270473 -0.00299991 -0.00330649 -0.00362447 -0.0039513 -0.00428441 -0.00462382 -0.00496953 -0.00531865 -0.00566831 -0.00601852 -0.00636928 -0.00671779 -0.00706128 -0.00739975 -0.0077332 -0.00805934 -0.00837588 -0.00868282 -0.00898017 -0.00926643 -0.0095401 -0.00980118 -0.0100497 -0.010285 -0.0105064 -0.010714 -0.0109078 -0.0110879 -0.0112545 -0.0114075 -0.0115469 -0.0116734 -0.0117875 -0.0118892 -0.0119786 -0.0120562 -0.0121229 -0.0121785 -0.0122231 -0.0122572 -0.0122811 -0.0122948 -0.0122984 -0.0122919 -0.0122752 -0.0122484 -0.0122114 -0.0121638 -0.0121053 -0.0120357 -0.0119551 -0.0118628 -0.0117582 -0.0116412 -0.0115119 -0.0113697 -0.011214 -0.0110447 -0.010862 -0.0106657 -0.0104558 -0.0102321 -0.00999467 -0.00974424 -0.00948141 -0.00920619 -0.00891857 -0.00862008 -0.00831223 -0.00799504 -0.00766849 -0.00733489 -0.00699654 -0.00665342 -0.00630554 -0.00595568 -0.0056066 -0.00525832 -0.00491084 -0.00456698 -0.00422962 -0.00389873 -0.00357433 -0.00325893 -0.00295503 -0.00266264 -0.00238176 -0.00211426 -0.00186202 -0.00162504 -0.00140332 -0.00119792 -0.00100988 -0.000839217 -0.000685921 -0.000549921 -0.000431144 -0.00032959 -0.000245259 -0.000176072 -0.000119951 -7.68972e-05 -4.69094e-05 -2.63865e-05 -1.17273e-05 -2.93184e-06 0 0 -4.44793e-06 -1.77917e-05 -4.00314e-05 -7.11669e-05 -0.000115111 -0.000175775 -0.00025316 -0.000347266 -0.0004605 -0.000595271 -0.000751578 -0.000929423 -0.0011287 -0.0013493 -0.00159123 -0.00185448 -0.00213757 -0.00243901 -0.0027588 -0.00309694 -0.00345094 -0.00381829 -0.00419902 -0.0045931 -0.00499731 -0.0054084 -0.00582637 -0.00625122 -0.00667935 -0.00710718 -0.00753471 -0.00796192 -0.00838541 -0.00880176 -0.00921096 -0.00961301 -0.0100052 -0.0103847 -0.0107517 -0.011106 -0.011446 -0.01177 -0.012078 -0.01237 -0.0126454 -0.0129037 -0.0131449 -0.0133689 -0.0135763 -0.0137673 -0.013942 -0.0141003 -0.0142433 -0.0143719 -0.014486 -0.0145857 -0.014672 -0.0147459 -0.0148073 -0.0148564 -0.0148937 -0.0149198 -0.0149348 -0.0149386 -0.0149313 -0.0149128 -0.0148832 -0.0148424 -0.0147898 -0.0147249 -0.0146475 -0.0145576 -0.0144544 -0.0143368 -0.0142047 -0.0140583 -0.0138965 -0.0137184 -0.0135241 -0.0133135 -0.0130864 -0.0128422 -0.0125811 -0.012303 -0.0120085 -0.0116983 -0.0113723 -0.0110305 -0.0106746 -0.0103065 -0.00992598 -0.00953319 -0.00913082 -0.00872163 -0.00830563 -0.00788281 -0.00745658 -0.00703036 -0.00660414 -0.00617793 -0.00575528 -0.00533976 -0.00493137 -0.00453011 -0.00413916 -0.00376172 -0.00339779 -0.00304737 -0.00271289 -0.00239677 -0.00209903 -0.00181966 -0.00156007 -0.0013217 -0.00110454 -0.000908596 -0.000733906 -0.000580518 -0.000448432 -0.000337647 -0.000245737 -0.000170274 -0.000111259 -6.86901e-05 -3.86382e-05 -1.71725e-05 -4.29313e-06 0 0 -6.20267e-06 -2.48107e-05 -5.58241e-05 -9.92428e-05 -0.000159074 -0.000239327 -0.00034 -0.000461094 -0.000605286 -0.000775255 -0.000971001 -0.00119252 -0.0014395 -0.00171159 -0.00200881 -0.00233114 -0.00267665 -0.00304336 -0.00343129 -0.00384044 -0.00426765 -0.0047098 -0.00516688 -0.0056389 -0.00612185 -0.00661173 -0.00710855 -0.00761231 -0.00811865 -0.00862321 -0.00912601 -0.00962704 -0.0101222 -0.0106075 -0.011083 -0.0115485 -0.012001 -0.0124373 -0.0128575 -0.0132615 -0.0136475 -0.0140138 -0.0143603 -0.0146871 -0.0149937 -0.0152798 -0.0155454 -0.0157905 -0.016016 -0.0162225 -0.0164102 -0.016579 -0.0167304 -0.0168658 -0.0169852 -0.0170886 -0.0171776 -0.0172534 -0.0173162 -0.017366 -0.0174035 -0.0174298 -0.0174447 -0.0174484 -0.0174407 -0.0174218 -0.0173916 -0.01735 -0.0172963 -0.0172295 -0.0171495 -0.0170565 -0.016949 -0.0168255 -0.016686 -0.0165305 -0.0163576 -0.016166 -0.0159555 -0.0157261 -0.0154773 -0.015208 -0.0149185 -0.0146086 -0.0142787 -0.0139294 -0.0135606 -0.0131723 -0.0127663 -0.0123445 -0.0119069 -0.0114534 -0.0109873 -0.0105118 -0.0100267 -0.00953211 -0.00903211 -0.00853071 -0.00802792 -0.00752375 -0.0070225 -0.0065285 -0.00604175 -0.00556224 -0.00509391 -0.00464071 -0.00420263 -0.00377967 -0.0033749 -0.00299138 -0.00262912 -0.0022881 -0.00197021 -0.00167732 -0.00140942 -0.00116652 -0.000948869 -0.000756719 -0.00059007 -0.000448923 -0.000330571 -0.000232311 -0.000154142 -9.60644e-05 -5.40362e-05 -2.40161e-05 -6.00403e-06 0 0 -8.36464e-06 -3.34586e-05 -7.52818e-05 -0.000133834 -0.000212928 -0.000316376 -0.000444178 -0.000596334 -0.000775672 -0.000985022 -0.00122438 -0.00149376 -0.00179246 -0.00211982 -0.00247583 -0.00286049 -0.00327127 -0.00370564 -0.00416361 -0.00464518 -0.00514645 -0.00566356 -0.0061965 -0.00674527 -0.00730505 -0.00787102 -0.00844317 -0.00902151 -0.00960089 -0.0101762 -0.0107474 -0.0113145 -0.0118728 -0.0124177 -0.0129492 -0.0134672 -0.0139683 -0.0144491 -0.0149095 -0.0153496 -0.0157676 -0.0161617 -0.016532 -0.0168784 -0.0172009 -0.0174996 -0.0177745 -0.0180256 -0.0182542 -0.0184619 -0.0186486 -0.0188143 -0.0189612 -0.0190915 -0.019205 -0.0193019 -0.0193842 -0.0194539 -0.0195111 -0.0195557 -0.0195889 -0.0196121 -0.0196251 -0.019628 -0.0196208 -0.0196034 -0.019576 -0.0195384 -0.0194894 -0.0194278 -0.0193536 -0.0192668 -0.0191653 -0.0190471 -0.0189123 -0.0187607 -0.0185903 -0.018399 -0.0181868 -0.0179536 -0.0176981 -0.017419 -0.0171161 -0.0167896 -0.0164395 -0.0160658 -0.0156685 -0.0152476 -0.014805 -0.0143424 -0.0138599 -0.0133575 -0.0128385 -0.0123066 -0.0117617 -0.0112039 -0.0106377 -0.0100679 -0.00949451 -0.00891744 -0.00834184 -0.0077728 -0.00721033 -0.00665443 -0.00610985 -0.00558135 -0.00506892 -0.00457257 -0.00409608 -0.00364326 -0.00321409 -0.00280858 -0.00242917 -0.00207828 -0.00175591 -0.00146206 -0.00119733 -0.000962288 -0.000756947 -0.000581304 -0.000432492 -0.000307647 -0.000206769 -0.000129857 -7.30446e-05 -3.24643e-05 -8.11606e-06 0 0 -1.09338e-05 -4.37353e-05 -9.84044e-05 -0.000174941 -0.000276672 -0.000406923 -0.000565695 -0.000752987 -0.000971659 -0.00122457 -0.00151173 -0.00183312 -0.00218759 -0.00257398 -0.00299229 -0.00344251 -0.00392144 -0.00442585 -0.00495576 -0.00551116 -0.00608733 -0.00667957 -0.00728786 -0.00791222 -0.00854692 -0.00918626 -0.00983022 -0.0104788 -0.0111261 -0.0117661 -0.0123988 -0.0130242 -0.0136372 -0.0142323 -0.0148096 -0.0153691 -0.0159072 -0.0164201 -0.0169078 -0.0173704 -0.0178062 -0.0182137 -0.018593 -0.0189439 -0.0192672 -0.0195632 -0.0198322 -0.0200741 -0.020291 -0.0204854 -0.0206572 -0.0208063 -0.0209359 -0.021049 -0.0211455 -0.0212256 -0.0212919 -0.0213474 -0.0213919 -0.0214255 -0.0214499 -0.0214667 -0.0214758 -0.0214774 -0.0214714 -0.0214577 -0.0214363 -0.0214074 -0.0213691 -0.0213199 -0.0212596 -0.0211884 -0.0211034 -0.0210018 -0.0208836 -0.0207489 -0.0205945 -0.0204176 -0.020218 -0.0199959 -0.019749 -0.019475 -0.0191741 -0.0188462 -0.0184908 -0.0181074 -0.017696 -0.0172566 -0.0167909 -0.0163004 -0.0157852 -0.0152453 -0.0146844 -0.0141062 -0.0135108 -0.0128981 -0.0122735 -0.011642 -0.0110039 -0.010359 -0.00971329 -0.00907266 -0.00843713 -0.00780669 -0.00718697 -0.00658363 -0.00599665 -0.00542605 -0.00487642 -0.00435239 -0.00385395 -0.0033811 -0.00293695 -0.00252458 -0.00214401 -0.00179522 -0.00147928 -0.00119722 -0.000949062 -0.000734789 -0.000551499 -0.000396282 -0.000269139 -0.000170068 -9.56632e-05 -4.2517e-05 -1.06292e-05 0 0 -1.39102e-05 -5.56409e-05 -0.000125192 -0.000222564 -0.000350306 -0.000510968 -0.00070455 -0.000931052 -0.00119325 -0.0014939 -0.00183303 -0.00221061 -0.00262489 -0.00307408 -0.00355819 -0.00407721 -0.00462715 -0.00520399 -0.00580773 -0.00643838 -0.00709029 -0.00775783 -0.00844098 -0.00913975 -0.00984747 -0.0105575 -0.0112697 -0.0119842 -0.0126943 -0.0133929 -0.0140803 -0.0147563 -0.0154152 -0.0160512 -0.0166642 -0.0172542 -0.0178175 -0.0183502 -0.0188523 -0.0193237 -0.0197633 -0.0201699 -0.0205433 -0.0208837 -0.0211924 -0.0214706 -0.0217185 -0.021936 -0.0221264 -0.022293 -0.0224359 -0.0225549 -0.0226543 -0.0227383 -0.0228067 -0.0228596 -0.0229007 -0.0229337 -0.0229587 -0.0229755 -0.0229865 -0.0229936 -0.022997 -0.0229967 -0.0229925 -0.0229845 -0.0229727 -0.0229571 -0.0229355 -0.0229057 -0.0228676 -0.0228214 -0.0227632 -0.0226894 -0.0226 -0.022495 -0.0223703 -0.0222217 -0.0220493 -0.0218531 -0.0216298 -0.0213762 -0.0210924 -0.0207783 -0.0204327 -0.0200543 -0.0196431 -0.0191992 -0.0187238 -0.0182183 -0.0176826 -0.0171169 -0.0165249 -0.0159106 -0.0152739 -0.0146149 -0.0139393 -0.013253 -0.0125561 -0.0118484 -0.0111368 -0.0104281 -0.00972213 -0.009019 -0.00832528 -0.00764756 -0.00698584 -0.00634012 -0.00571592 -0.00511878 -0.00454869 -0.00400565 -0.00349354 -0.00301623 -0.00257371 -0.002166 -0.00179472 -0.00146153 -0.00116641 -0.00090938 -0.000687593 -0.000498217 -0.000341251 -0.000216697 -0.000121892 -5.41743e-05 -1.35436e-05 0 0 -1.72873e-05 -6.9149e-05 -0.000155585 -0.000276596 -0.000433637 -0.000628165 -0.000860179 -0.00112968 -0.00143919 -0.00179124 -0.00218584 -0.00262297 -0.00310009 -0.00361465 -0.00416666 -0.00475611 -0.00537807 -0.00602761 -0.00670473 -0.00740942 -0.00813502 -0.00887485 -0.0096289 -0.0103972 -0.011172 -0.0119456 -0.0127181 -0.0134894 -0.0142519 -0.0149979 -0.0157274 -0.0164405 -0.0171307 -0.0177919 -0.018424 -0.0190269 -0.019597 -0.0201302 -0.0206267 -0.0210864 -0.0215086 -0.0218926 -0.0222385 -0.0225461 -0.022818 -0.0230564 -0.0232613 -0.0234328 -0.0235754 -0.0236938 -0.023788 -0.0238579 -0.0239091 -0.023947 -0.0239716 -0.023983 -0.023986 -0.0239853 -0.023981 -0.0239731 -0.0239642 -0.0239573 -0.0239523 -0.0239492 -0.0239479 -0.0239485 -0.023951 -0.0239552 -0.0239585 -0.0239579 -0.0239536 -0.0239454 -0.0239286 -0.0238984 -0.0238547 -0.0237976 -0.0237215 -0.0236212 -0.0234964 -0.0233474 -0.0231694 -0.0229581 -0.0227134 -0.0224353 -0.0221215 -0.0217699 -0.0213804 -0.020953 -0.0204885 -0.0199877 -0.0194508 -0.0188775 -0.0182719 -0.0176379 -0.0169754 -0.0162845 -0.0155715 -0.0148427 -0.0140982 -0.013338 -0.0125695 -0.0118006 -0.0110311 -0.0102611 -0.00949823 -0.00875 -0.00801647 -0.00729764 -0.00660003 -0.00593022 -0.00528818 -0.00467393 -0.00409224 -0.00354789 -0.00304088 -0.00257122 -0.00214129 -0.00175348 -0.00140781 -0.00110426 -0.000840238 -0.000613127 -0.00042293 -0.000269649 -0.000151677 -6.74122e-05 -1.6853e-05 0 0 -2.10583e-05 -8.42332e-05 -0.000189525 -0.000336933 -0.000526475 -0.00075817 -0.00103202 -0.00134802 -0.00170825 -0.00211482 -0.00256771 -0.00306692 -0.00360895 -0.00419025 -0.00481084 -0.00547072 -0.00616387 -0.00688427 -0.00763193 -0.00840684 -0.00920119 -0.0100071 -0.0108247 -0.0116539 -0.0124858 -0.0133118 -0.0141319 -0.0149459 -0.0157455 -0.0165221 -0.0172757 -0.0180064 -0.0187073 -0.0193718 -0.0199999 -0.0205915 -0.0211431 -0.0216508 -0.0221148 -0.022535 -0.0229116 -0.0232445 -0.0235339 -0.0237796 -0.0239855 -0.0241552 -0.0242886 -0.0243858 -0.0244531 -0.0244967 -0.0245166 -0.0245128 -0.0244925 -0.0244628 -0.0244236 -0.0243751 -0.0243234 -0.0242745 -0.0242286 -0.0241855 -0.0241489 -0.0241221 -0.0241053 -0.0240984 -0.0241014 -0.0241142 -0.0241369 -0.0241694 -0.0242081 -0.0242495 -0.0242935 -0.0243402 -0.0243834 -0.024417 -0.0244408 -0.024455 -0.0244524 -0.0244259 -0.0243755 -0.0243012 -0.0241968 -0.0240563 -0.0238795 -0.0236665 -0.0234138 -0.0231177 -0.0227784 -0.0223957 -0.0219697 -0.0215005 -0.020988 -0.0204323 -0.0198372 -0.0192063 -0.0185398 -0.0178375 -0.0171063 -0.016353 -0.0155775 -0.0147798 -0.0139684 -0.0131518 -0.0123299 -0.0115029 -0.0106793 -0.00986783 -0.00906856 -0.00828146 -0.0075142 -0.00677448 -0.00606228 -0.00537761 -0.00472632 -0.00411423 -0.00354136 -0.0030077 -0.00251659 -0.00207138 -0.00167206 -0.00131862 -0.0010089 -0.000740689 -0.000513998 -0.000328826 -0.000184965 -8.22065e-05 -2.05516e-05 0 0 -2.52233e-05 -0.000100893 -0.00022701 -0.000403573 -0.000628819 -0.000900982 -0.00122006 -0.00158606 -0.00200043 -0.00246462 -0.00297864 -0.00354248 -0.00415145 -0.00480087 -0.00549073 -0.00622104 -0.00698454 -0.00777397 -0.00858934 -0.00943065 -0.0102888 -0.0111547 -0.0120284 -0.0129098 -0.013789 -0.0146561 -0.015511 -0.0163538 -0.0171751 -0.0179656 -0.0187252 -0.019454 -0.0201449 -0.0207909 -0.0213919 -0.021948 -0.0224558 -0.0229121 -0.0233167 -0.0236697 -0.0239723 -0.0242256 -0.0244296 -0.0245842 -0.0246949 -0.0247669 -0.0248004 -0.0247951 -0.0247595 -0.0247017 -0.0246218 -0.0245197 -0.0244046 -0.0242856 -0.0241627 -0.0240358 -0.0239128 -0.0238013 -0.0237013 -0.0236129 -0.0235403 -0.0234881 -0.0234561 -0.0234444 -0.023453 -0.0234817 -0.0235306 -0.0235996 -0.0236844 -0.0237803 -0.0238875 -0.0240058 -0.0241276 -0.0242452 -0.0243583 -0.0244672 -0.0245627 -0.0246358 -0.0246863 -0.0247144 -0.0247119 -0.0246707 -0.0245908 -0.0244721 -0.0243095 -0.0240978 -0.0238371 -0.0235273 -0.0231673 -0.0227564 -0.0222944 -0.0217814 -0.0212207 -0.0206159 -0.019967 -0.0192739 -0.0185438 -0.0177837 -0.0169938 -0.0161739 -0.0153334 -0.0144816 -0.0136185 -0.0127442 -0.0118684 -0.011001 -0.0101421 -0.00929159 -0.00845843 -0.00765156 -0.00687099 -0.00611671 -0.00539578 -0.00471526 -0.00407515 -0.00347545 -0.00292064 -0.00241521 -0.00195915 -0.00155246 -0.00119357 -0.000880903 -0.000614455 -0.00039423 -0.000221754 -9.85574e-05 -2.46394e-05 0 0 -2.97824e-05 -0.00011913 -0.000268041 -0.000476518 -0.000740669 -0.0010566 -0.00142432 -0.00184382 -0.00231573 -0.00284066 -0.00341863 -0.00404964 -0.00472761 -0.00544651 -0.00620633 -0.00700707 -0.00784008 -0.00869671 -0.00957697 -0.0104808 -0.0113979 -0.0123176 -0.0132399 -0.0141649 -0.0150815 -0.0159783 -0.0168555 -0.017713 -0.0185407 -0.0193283 -0.0200759 -0.0207834 -0.0214436 -0.0220492 -0.0226001 -0.0230964 -0.0235353 -0.0239139 -0.0242323 -0.0244904 -0.0246908 -0.0248358 -0.0249255 -0.0249599 -0.0249462 -0.0248917 -0.0247966 -0.0246607 -0.0244946 -0.0243089 -0.0241036 -0.0238786 -0.0236455 -0.0234155 -0.0231888 -0.0229652 -0.0227543 -0.0225656 -0.0223993 -0.0222551 -0.0221386 -0.0220551 -0.0220046 -0.0219871 -0.0220026 -0.0220508 -0.022132 -0.0222459 -0.0223872 -0.0225504 -0.0227354 -0.0229422 -0.0231612 -0.023383 -0.0236073 -0.0238343 -0.0240527 -0.0242509 -0.0244291 -0.0245872 -0.0247148 -0.0248014 -0.0248472 -0.0248519 -0.0248087 -0.0247102 -0.0245566 -0.0243477 -0.0240815 -0.0237556 -0.0233699 -0.0229246 -0.0224226 -0.0218667 -0.0212571 -0.0205937 -0.0198839 -0.0191351 -0.0183472 -0.0175203 -0.0166645 -0.01579 -0.0148969 -0.0139851 -0.0130656 -0.0121496 -0.0112371 -0.010328 -0.00943271 -0.00856147 -0.00771431 -0.00689121 -0.00610062 -0.00535096 -0.00464225 -0.00397447 -0.00335344 -0.00278498 -0.0022691 -0.00180578 -0.00139426 -0.00103377 -0.000724302 -0.000465859 -0.000262046 -0.000116465 -2.91162e-05 0 0 -3.46908e-05 -0.000138763 -0.000312217 -0.000555052 -0.000860912 -0.00122344 -0.00164263 -0.0021185 -0.00265061 -0.00323855 -0.00388232 -0.00458193 -0.00532972 -0.00611807 -0.00694698 -0.00781644 -0.00871623 -0.00963613 -0.0105762 -0.0115363 -0.0125045 -0.0134689 -0.0144295 -0.0153861 -0.0163265 -0.017238 -0.0181208 -0.0189748 -0.019789 -0.0205523 -0.0212649 -0.0219267 -0.0225302 -0.0230681 -0.0235403 -0.0239468 -0.0242857 -0.0245547 -0.024754 -0.0248834 -0.0249471 -0.0249492 -0.0248896 -0.0247683 -0.024595 -0.0243793 -0.0241212 -0.0238207 -0.0234911 -0.0231456 -0.0227843 -0.0224071 -0.0220281 -0.0216614 -0.0213068 -0.0209645 -0.020646 -0.020363 -0.0201155 -0.0199035 -0.0197334 -0.0196118 -0.0195388 -0.0195143 -0.0195382 -0.0196104 -0.0197309 -0.0198997 -0.0201102 -0.0203556 -0.0206359 -0.0209512 -0.0212898 -0.0216398 -0.0220014 -0.0223746 -0.0227453 -0.0230995 -0.0234372 -0.0237585 -0.0240502 -0.0242991 -0.0245053 -0.0246687 -0.02478 -0.0248297 -0.0248178 -0.0247443 -0.0246054 -0.0243972 -0.0241197 -0.023773 -0.0233593 -0.0228809 -0.0223376 -0.0217297 -0.0210645 -0.0203496 -0.019585 -0.0187707 -0.0179177 -0.017037 -0.0161287 -0.0151927 -0.0142415 -0.0132872 -0.0123301 -0.0113699 -0.0104187 -0.0094881 -0.00857819 -0.00768895 -0.00683036 -0.00601241 -0.00523509 -0.0044984 -0.00380971 -0.00317639 -0.00259843 -0.00207584 -0.00160886 -0.00119773 -0.000842448 -0.000543016 -0.000305446 -0.000135754 -3.39385e-05 0 0 -3.99038e-05 -0.000159615 -0.000359134 -0.000638461 -0.000988437 -0.0013999 -0.00187286 -0.00240731 -0.00300155 -0.00365389 -0.00436434 -0.00513289 -0.00595009 -0.00680646 -0.00770202 -0.00863677 -0.00959871 -0.0105759 -0.0115682 -0.0125758 -0.013585 -0.0145821 -0.0155671 -0.0165401 -0.0174872 -0.0183945 -0.0192622 -0.0200901 -0.0208666 -0.0215797 -0.0222295 -0.0228159 -0.0233315 -0.023769 -0.0241283 -0.0244095 -0.0246114 -0.0247329 -0.0247741 -0.0247349 -0.0246214 -0.0244397 -0.0241897 -0.0238714 -0.0234972 -0.0230795 -0.0226183 -0.0221136 -0.0215818 -0.0210394 -0.0204864 -0.0199228 -0.0193656 -0.0188319 -0.0183218 -0.0178353 -0.0173863 -0.016989 -0.0166432 -0.016349 -0.0161142 -0.0159468 -0.0158465 -0.0158136 -0.0158477 -0.0159489 -0.0161172 -0.0163524 -0.0166466 -0.0169918 -0.0173878 -0.0178349 -0.0183187 -0.0188252 -0.0193544 -0.0199063 -0.0204637 -0.0210098 -0.0215444 -0.0220675 -0.0225629 -0.0230143 -0.0234217 -0.023785 -0.0240922 -0.0243311 -0.0245017 -0.0246039 -0.0246321 -0.0245805 -0.0244489 -0.0242376 -0.0239477 -0.0235805 -0.0231362 -0.0226146 -0.0220233 -0.0213699 -0.0206544 -0.0198768 -0.0190488 -0.0181825 -0.0172777 -0.0163344 -0.0153664 -0.0143874 -0.0133975 -0.0123965 -0.011398 -0.0104153 -0.00944859 -0.00849775 -0.00757453 -0.00669065 -0.00584611 -0.00504091 -0.00428419 -0.00358512 -0.0029437 -0.00235992 -0.00183526 -0.00137123 -0.000967807 -0.000625 -0.000351562 -0.00015625 -3.90625e-05 0 0 -4.54216e-05 -0.000181686 -0.000408794 -0.000726745 -0.00112324 -0.00158599 -0.002115 -0.00271025 -0.00336855 -0.0040867 -0.00486469 -0.00570253 -0.0065887 -0.00751168 -0.00847146 -0.00946806 -0.0104875 -0.0115159 -0.0125532 -0.0135995 -0.0146392 -0.0156571 -0.0166529 -0.0176268 -0.0185636 -0.0194479 -0.0202797 -0.0210592 -0.0217736 -0.0224104 -0.0229695 -0.023451 -0.0238476 -0.024152 -0.0243643 -0.0244843 -0.0245123 -0.0244484 -0.0242926 -0.0240449 -0.0237137 -0.0233073 -0.0228257 -0.022269 -0.0216526 -0.0209922 -0.0202877 -0.0195392 -0.0187667 -0.0179903 -0.0172099 -0.0164256 -0.0156578 -0.0149272 -0.0142338 -0.0135775 -0.0129751 -0.0124434 -0.0119822 -0.0115917 -0.0112812 -0.0110598 -0.0109278 -0.010885 -0.0109313 -0.0110666 -0.0112908 -0.011604 -0.0119965 -0.0124589 -0.0129911 -0.0135931 -0.0142481 -0.0149391 -0.0156662 -0.0164294 -0.0172081 -0.0179817 -0.0187504 -0.0195141 -0.020253 -0.020947 -0.0215963 -0.0222009 -0.0227454 -0.0232145 -0.0236083 -0.0239267 -0.0241618 -0.0243054 -0.0243575 -0.0243182 -0.0241876 -0.0239657 -0.0236527 -0.0232484 -0.0227604 -0.0221961 -0.0215555 -0.0208385 -0.0200579 -0.0192263 -0.0183437 -0.0174101 -0.0164405 -0.0154503 -0.0144393 -0.0134077 -0.0123705 -0.0113431 -0.0103255 -0.00931762 -0.00833313 -0.00738569 -0.00647531 -0.00560198 -0.00477689 -0.00401119 -0.00330489 -0.002658 -0.00207347 -0.00155426 -0.00110038 -0.000711811 -0.000400394 -0.000177953 -4.44882e-05 0 0 -5.1244e-05 -0.000204976 -0.000461196 -0.000819904 -0.00126533 -0.00178171 -0.00236904 -0.00302732 -0.00375161 -0.00453696 -0.00538337 -0.00629084 -0.00724556 -0.00823371 -0.0092553 -0.0103103 -0.0113827 -0.0124563 -0.0135312 -0.0146073 -0.0156673 -0.0166938 -0.0176868 -0.0186464 -0.0195557 -0.020398 -0.0211734 -0.0218818 -0.0225099 -0.0230443 -0.0234851 -0.0238321 -0.0240785 -0.0242171 -0.0242481 -0.0241713 -0.0239885 -0.0237013 -0.0233096 -0.0228135 -0.022224 -0.0215521 -0.0207978 -0.0199611 -0.0190613 -0.0181174 -0.0171295 -0.0160976 -0.0150458 -0.0139982 -0.0129548 -0.0119155 -0.0109049 -0.0099473 -0.00904274 -0.00819121 -0.00741247 -0.00672631 -0.0061327 -0.00563166 -0.00523415 -0.00495113 -0.0047826 -0.00472855 -0.00478882 -0.00496322 -0.00525174 -0.0056544 -0.00615992 -0.00675702 -0.00744571 -0.00822599 -0.00907791 -0.00998154 -0.0109369 -0.0119439 -0.0129782 -0.0140154 -0.0150555 -0.0160984 -0.0171204 -0.0180973 -0.0190293 -0.0199163 -0.0207395 -0.0214799 -0.0221377 -0.0227127 -0.0231943 -0.0235719 -0.0238455 -0.0240149 -0.024079 -0.0240364 -0.0238872 -0.0236312 -0.0232758 -0.0228281 -0.0222882 -0.021656 -0.020