<?xml version="1.0"?> 
<VTKFile type="StructuredGrid" version="0.1"> 
<StructuredGrid WholeExtent="0 128 0 128 0 0"> 
<Piece Extent="0 128 0 128 0 0"> 
<PointData>
<DataArray type="Float32" Name="u" format="ascii" NumberOfComponents="1"> 
0 0 0 0 0 0 0 0 0 0 0 0 0 0 0 0 0 0 0 0 0 0 0 0 0 0 0 0 0 0 0 0 0 0 0 0 0 0 0 0 0 0 0 0 0 0 0 0 0 0 0 0 0 0 0 0 0 0 0 0 0 0 0 0 0 0 0 0 0 0 0 0 0 0 0 0 0 0 0 0 0 0 0 0 0 0 0 0 0 0 0 0 0 0 0 0 0 0 0 0 0 0 0 0 0 0 0 0 0 0 0 0 0 0 0 0 0 0 0 0 0 0 0 0 0 0 0 0 0 0 -3.00158e-07 -1.20063e-06 -2.70142e-06 -4.80253e-06 -7.44624e-06 -1.05749e-05 -1.41884e-05 -1.82868e-05 -2.28243e-05 -2.77549e-05 -3.30788e-05 -3.87958e-05 -4.48086e-05 -5.10196e-05 -5.74288e-05 -6.40362e-05 -7.0755e-05 -7.7498e-05 -8.42652e-05 -9.10568e-05 -9.77989e-05 -0.000104418 -0.000110914 -0.000117286 -0.000123475 -0.00012942 -0.000135121 -0.000140577 -0.000145744 -0.000150577 -0.000155077 -0.000159243 -0.000163052 -0.00016648 -0.000169527 -0.000172192 -0.000174478 -0.000176386 -0.000177915 -0.000179066 -0.000179867 -0.000180345 -0.000180501 -0.000180335 -0.000179896 -0.000179236 -0.000178356 -0.000177253 -0.000175994 -0.000174643 -0.0001732 -0.000171664 -0.000170102 -0.00016858 -0.000167097 -0.000165654 -0.000164304 -0.000163101 -0.000162044 -0.000161134 -0.0001604 -0.000159872 -0.000159551 -0.000159435 -0.000159525 -0.000159819 -0.000160318 -0.000161021 -0.000161899 -0.000162919 -0.000164082 -0.000165389 -0.000166784 -0.000168213 -0.000169678 -0.000171177 -0.000172645 -0.000174016 -0.00017529 -0.000176468 -0.000177485 -0.000178278 -0.000178848 -0.000179194 -0.000179266 -0.000179017 -0.000178446 -0.000177552 -0.000176311 -0.000174696 -0.000172707 -0.000170343 -0.000167606 -0.000164496 -0.000161012 -0.000157154 -0.000152948 -0.000148419 -0.000143567 -0.000138391 -0.000132937 -0.00012725 -0.00012133 -0.000115178 -0.000108852 -0.000102414 -9.58638e-05 -8.92008e-05 -8.24977e-05 -7.58266e-05 -6.91876e-05 -6.25807e-05 -5.60904e-05 -4.98011e-05 -4.37127e-05 -3.78254e-05 -3.22329e-05 -2.70293e-05 -2.22146e-05 -1.77886e-05 -1.37946e-05 -1.02756e-05 -7.2317e-06 -4.66279e-06 -2.62282e-06 -1.1657e-06 -2.91424e-07 0 0 -1.20063e-06 -4.80253e-06 -1.08057e-05 -1.92101e-05 -2.9785e-05 -4.22994e-05 -5.67535e-05 -7.31472e-05 -9.12971e-05 -0.00011102 -0.000132315 -0.000155183 -0.000179234 -0.000204078 -0.000229715 -0.000256145 -0.00028302 -0.000309992 -0.000337061 -0.000364227 -0.000391196 -0.000417672 -0.000443655 -0.000469146 -0.000493902 -0.000517681 -0.000540482 -0.000562306 -0.000582974 -0.000602308 -0.000620308 -0.000636973 -0.000652209 -0.00066592 -0.000678106 -0.000688768 -0.000697912 -0.000705542 -0.00071166 -0.000716265 -0.000719468 -0.000721381 -0.000722005 -0.000721339 -0.000719585 -0.000716946 -0.000713422 -0.000709013 -0.000703977 -0.000698573 -0.000692799 -0.000686657 -0.000680409 -0.00067432 -0.000668389 -0.000662616 -0.000657216 -0.000652402 -0.000648175 -0.000644535 -0.0006416 -0.000639489 -0.000638202 -0.000637739 -0.000638098 -0.000639275 -0.000641271 -0.000644086 -0.000647595 -0.000651677 -0.00065633 -0.000661555 -0.000667135 -0.000672854 -0.000678711 -0.000684707 -0.000690578 -0.000696063 -0.000701161 -0.000705871 -0.00070994 -0.000713114 -0.000715392 -0.000716774 -0.000717065 -0.000716068 -0.000713783 -0.00071021 -0.000705245 -0.000698784 -0.000690826 -0.000681373 -0.000670425 -0.000657983 -0.000644047 -0.000628617 -0.000611794 -0.000593677 -0.000574268 -0.000553564 -0.000531749 -0.000509001 -0.000485322 -0.000460711 -0.000435409 -0.000409657 -0.000383455 -0.000356803 -0.000329991 -0.000303306 -0.000276751 -0.000250323 -0.000224362 -0.000199204 -0.000174851 -0.000151301 -0.000128932 -0.000108117 -8.88583e-05 -7.11545e-05 -5.51785e-05 -4.11026e-05 -2.89268e-05 -1.86512e-05 -1.04913e-05 -4.66279e-06 -1.1657e-06 0 0 -2.70142e-06 -1.08057e-05 -2.43128e-05 -4.32227e-05 -6.70162e-05 -9.51737e-05 -0.000127695 -0.000164581 -0.000205419 -0.000249794 -0.000297709 -0.000349162 -0.000403277 -0.000459176 -0.000516859 -0.000576326 -0.000636795 -0.000697482 -0.000758387 -0.000819511 -0.00088019 -0.000939761 -0.000998224 -0.00105558 -0.00111128 -0.00116478 -0.00121608 -0.00126519 -0.00131169 -0.00135519 -0.00139569 -0.00143319 -0.00146747 -0.00149832 -0.00152574 -0.00154973 -0.0015703 -0.00158747 -0.00160123 -0.0016116 -0.0016188 -0.00162311 -0.00162451 -0.00162301 -0.00161907 -0.00161313 -0.0016052 -0.00159528 -0.00158395 -0.00157179 -0.0015588 -0.00154498 -0.00153092 -0.00151722 -0.00150388 -0.00149089 -0.00147874 -0.0014679 -0.00145839 -0.0014502 -0.0014436 -0.00143885 -0.00143595 -0.00143491 -0.00143572 -0.00143837 -0.00144286 -0.00144919 -0.00145709 -0.00146627 -0.00147674 -0.0014885 -0.00150105 -0.00151392 -0.0015271 -0.00154059 -0.0015538 -0.00156614 -0.00157761 -0.00158821 -0.00159737 -0.00160451 -0.00160963 -0.00161274 -0.0016134 -0.00161115 -0.00160601 -0.00159797 -0.0015868 -0.00157226 -0.00155436 -0.00153309 -0.00150846 -0.00148046 -0.00144911 -0.00141439 -0.00137654 -0.00133577 -0.0012921 -0.00124552 -0.00119643 -0.00114525 -0.00109197 -0.0010366 -0.00097967 -0.000921728 -0.000862774 -0.000802808 -0.000742479 -0.000682439 -0.000622689 -0.000563227 -0.000504814 -0.000448209 -0.000393414 -0.000340428 -0.000290096 -0.000243264 -0.000199931 -0.000160098 -0.000124152 -9.24808e-05 -6.50853e-05 -4.19651e-05 -2.36054e-05 -1.04913e-05 -2.62282e-06 0 0 -4.80253e-06 -1.92101e-05 -4.32227e-05 -7.68404e-05 -0.00011914 -0.000169198 -0.000227014 -0.000292589 -0.000365189 -0.000444079 -0.000529261 -0.000620733 -0.000716937 -0.000816313 -0.000918861 -0.00102458 -0.00113208 -0.00123997 -0.00134824 -0.00145691 -0.00156478 -0.00167069 -0.00177462 -0.00187658 -0.00197561 -0.00207072 -0.00216193 -0.00224922 -0.0023319 -0.00240923 -0.00248123 -0.00254789 -0.00260883 -0.00266368 -0.00271243 -0.00275507 -0.00279165 -0.00282217 -0.00284664 -0.00286506 -0.00287787 -0.00288553 -0.00288802 -0.00288535 -0.00287834 -0.00286778 -0.00285369 -0.00283605 -0.00281591 -0.00279429 -0.0027712 -0.00274663 -0.00272164 -0.00269728 -0.00267356 -0.00265046 -0.00262886 -0.00260961 -0.0025927 -0.00257814 -0.0025664 -0.00255796 -0.00255281 -0.00255096 -0.00255239 -0.0025571 -0.00256508 -0.00257634 -0.00259038 -0.00260671 -0.00262532 -0.00264622 -0.00266854 -0.00269141 -0.00271484 -0.00273883 -0.00276231 -0.00278425 -0.00280464 -0.00282348 -0.00283976 -0.00285246 -0.00286157 -0.0028671 -0.00286826 -0.00286427 -0.00285513 -0.00284084 -0.00282098 -0.00279513 -0.00276331 -0.00272549 -0.0026817 -0.00263193 -0.00257619 -0.00251447 -0.00244718 -0.00237471 -0.00229707 -0.00221426 -0.00212699 -0.002036 -0.00194129 -0.00184284 -0.00174164 -0.00163863 -0.00153382 -0.00142721 -0.00131996 -0.00121323 -0.001107 -0.00100129 -0.000897446 -0.000796817 -0.000699403 -0.000605206 -0.000515727 -0.000432469 -0.000355433 -0.000284618 -0.000220714 -0.00016441 -0.000115707 -7.46046e-05 -4.19651e-05 -1.86512e-05 -4.66279e-06 0 0 -7.43954e-06 -2.97582e-05 -6.69558e-05 -0.000119033 -0.000184436 -0.000261613 -0.000350565 -0.00045129 -0.00056265 -0.000683505 -0.000813855 -0.000953701 -0.00110065 -0.00125232 -0.00140871 -0.00156982 -0.00173351 -0.00189764 -0.00206223 -0.00222726 -0.00239093 -0.00255143 -0.00270876 -0.00286291 -0.00301241 -0.00315576 -0.00329298 -0.00342405 -0.00354789 -0.00366342 -0.00377063 -0.00386953 -0.00395956 -0.00404014 -0.00411127 -0.00417296 -0.00422527 -0.00426826 -0.00430192 -0.00432627 -0.004342 -0.00434984 -0.00434979 -0.00434185 -0.00432729 -0.00430739 -0.00428215 -0.00425156 -0.00421725 -0.00418083 -0.0041423 -0.00410165 -0.00406055 -0.00402062 -0.00398187 -0.0039443 -0.00390924 -0.00387803 -0.00385067 -0.00382716 -0.00380823 -0.00379464 -0.00378637 -0.00378342 -0.00378579 -0.00379344 -0.00380639 -0.00382464 -0.0038474 -0.00387392 -0.0039042 -0.00393823 -0.00397467 -0.00401216 -0.00405071 -0.00409031 -0.00412933 -0.00416612 -0.00420069 -0.00423303 -0.00426155 -0.00428466 -0.00430236 -0.00431465 -0.0043203 -0.00431806 -0.00430793 -0.00428992 -0.00426336 -0.00422758 -0.00418258 -0.00412835 -0.00406488 -0.00399216 -0.00391018 -0.00381894 -0.00371904 -0.00361108 -0.00349505 -0.00337097 -0.00323992 -0.003103 -0.00296022 -0.00281158 -0.00265856 -0.00250262 -0.00234377 -0.00218201 -0.00201911 -0.00185685 -0.00169524 -0.00153426 -0.001376 -0.00122253 -0.00107384 -0.000929948 -0.00079314 -0.000665724 -0.000547699 -0.000439065 -0.000340894 -0.000254259 -0.000179159 -0.000115594 -6.50216e-05 -2.88985e-05 -7.22463e-06 0 0 -1.0548e-05 -4.21922e-05 -9.49324e-05 -0.000168769 -0.000261184 -0.000369662 -0.000494202 -0.000634805 -0.000789847 -0.000957705 -0.00113838 -0.00133187 -0.00153486 -0.00174404 -0.0019594 -0.00218095 -0.0024057 -0.0026307 -0.00285594 -0.00308142 -0.00330461 -0.00352299 -0.00373656 -0.00394532 -0.0041472 -0.00434016 -0.00452419 -0.00469928 -0.00486396 -0.00501673 -0.0051576 -0.00528657 -0.00540289 -0.00550583 -0.00559539 -0.00567156 -0.0057345 -0.00578436 -0.00582113 -0.00584483 -0.00585652 -0.00585727 -0.0058471 -0.005826 -0.00579582 -0.00575844 -0.00571385 -0.00566205 -0.00560537 -0.00554616 -0.0054844 -0.00542011 -0.00535564 -0.00529335 -0.00523324 -0.00517533 -0.0051215 -0.00507369 -0.00503188 -0.00499608 -0.00496734 -0.00494673 -0.00493423 -0.00492986 -0.00493358 -0.00494537 -0.00496524 -0.00499317 -0.00502808 -0.00506886 -0.00511551 -0.00516804 -0.0052245 -0.00528297 -0.00534345 -0.00540593 -0.00546805 -0.00552747 -0.00558417 -0.00563817 -0.00568715 -0.00572882 -0.00576318 -0.00579022 -0.00580814 -0.00581514 -0.0058112 -0.00579634 -0.00576954 -0.00572979 -0.00567709 -0.00561144 -0.00553274 -0.00544092 -0.00533597 -0.00521789 -0.00508746 -0.00494548 -0.00479194 -0.00462684 -0.00445168 -0.00426799 -0.00407575 -0.00387496 -0.00366768 -0.00345596 -0.00323979 -0.00301917 -0.00279658 -0.0025745 -0.00235294 -0.00213188 -0.00191422 -0.00170285 -0.00149777 -0.00129897 -0.00110965 -0.000933018 -0.000769062 -0.000617787 -0.000480721 -0.000359394 -0.000253806 -0.000163958 -9.22262e-05 -4.09894e-05 -1.02474e-05 0 0 -1.41281e-05 -5.65122e-05 -0.000127153 -0.000226049 -0.000349385 -0.000493344 -0.000657927 -0.000843133 -0.00104678 -0.00126668 -0.00150283 -0.00175524 -0.00201956 -0.00229146 -0.00257093 -0.00285797 -0.00314868 -0.00343915 -0.00372938 -0.00401937 -0.0043058 -0.00458535 -0.00485801 -0.0051238 -0.00538 -0.00562392 -0.00585557 -0.00607493 -0.00628011 -0.00646918 -0.00664214 -0.006799 -0.00693884 -0.00706076 -0.00716477 -0.00725086 -0.00731933 -0.00737047 -0.00740427 -0.00742075 -0.00742142 -0.00740782 -0.00737994 -0.00733778 -0.00728392 -0.00722091 -0.00714878 -0.0070675 -0.00698027 -0.00689028 -0.00679752 -0.00670199 -0.00660691 -0.00651547 -0.00642769 -0.00634355 -0.00626566 -0.00619658 -0.00613633 -0.0060849 -0.00604372 -0.00601422 -0.00599641 -0.00599027 -0.00599577 -0.00601289 -0.00604162 -0.00608196 -0.00613242 -0.00619152 -0.00625927 -0.00633565 -0.00641805 -0.00650386 -0.00659307 -0.00668568 -0.00677849 -0.0068683 -0.0069551 -0.00703891 -0.00711656 -0.00718493 -0.00724401 -0.0072938 -0.0073318 -0.00735552 -0.00736495 -0.00736009 -0.00733951 -0.00730176 -0.00724684 -0.00717475 -0.00708528 -0.00697821 -0.00685356 -0.00671131 -0.00655244 -0.0063779 -0.00618771 -0.00598187 -0.0057623 -0.00553097 -0.00528786 -0.00503298 -0.00476902 -0.00449865 -0.00422188 -0.0039387 -0.00365238 -0.00336618 -0.00308011 -0.00279415 -0.00251211 -0.00223778 -0.00197117 -0.00171227 -0.00146526 -0.00123435 -0.00101952 -0.000820784 -0.000640194 -0.000479815 -0.000339649 -0.000219696 -0.000123579 -5.49239e-05 -1.3731e-05 0 0 -1.81796e-05 -7.27183e-05 -0.000163616 -0.000290873 -0.000449038 -0.00063266 -0.000841739 -0.00107627 -0.00133344 -0.00161042 -0.00190721 -0.00222381 -0.00255476 -0.00289459 -0.0032433 -0.00360088 -0.00396242 -0.00432297 -0.00468254 -0.00504112 -0.00539452 -0.00573852 -0.00607313 -0.00639835 -0.00671078 -0.00700704 -0.00728711 -0.007551 -0.00779634 -0.00802076 -0.00822425 -0.00840682 -0.0085674 -0.00870493 -0.00881942 -0.00891087 -0.00897976 -0.00902659 -0.00905134 -0.00905402 -0.00903671 -0.00900147 -0.0089483 -0.00887721 -0.00879158 -0.00869483 -0.00858694 -0.00846792 -0.00834195 -0.00821318 -0.00808163 -0.0079473 -0.00781436 -0.00768699 -0.0075652 -0.00744898 -0.0073417 -0.00724671 -0.00716402 -0.00709362 -0.00703738 -0.00699713 -0.00697289 -0.00696465 -0.00697236 -0.00699599 -0.00703553 -0.00709098 -0.00716042 -0.00724191 -0.00733546 -0.00744106 -0.00755532 -0.00767482 -0.00779957 -0.00792956 -0.00806064 -0.00818861 -0.00831348 -0.00843525 -0.00854979 -0.008653 -0.00874487 -0.0088254 -0.00889128 -0.0089392 -0.00896917 -0.00898118 -0.00897327 -0.00894349 -0.00889182 -0.00881828 -0.00872248 -0.00860403 -0.00846294 -0.00829921 -0.00811397 -0.00790836 -0.00768239 -0.00743605 -0.00717177 -0.00689193 -0.00659656 -0.00628564 -0.00596256 -0.00563069 -0.00529004 -0.0049406 -0.00458651 -0.00423189 -0.00387674 -0.00352107 -0.00316966 -0.00282732 -0.00249405 -0.00216984 -0.00185998 -0.00156972 -0.00129908 -0.00104806 -0.000819313 -0.000615524 -0.000436689 -0.000282808 -0.000159079 -7.07019e-05 -1.76755e-05 0 0 -2.26423e-05 -9.05693e-05 -0.000203781 -0.000362277 -0.000558651 -0.000785494 -0.00104281 -0.00133059 -0.00164528 -0.0019833 -0.00234467 -0.00272938 -0.00313073 -0.00354202 -0.00396326 -0.00439445 -0.00482953 -0.00526245 -0.0056932 -0.0061218 -0.00654306 -0.00695184 -0.00734813 -0.00773193 -0.0080991 -0.0084455 -0.00877113 -0.00907598 -0.00935721 -0.00961198 -0.00984028 -0.0100421 -0.0102163 -0.0103617 -0.0104782 -0.0105659 -0.0106256 -0.0106579 -0.0106629 -0.0106406 -0.0105938 -0.0105251 -0.0104346 -0.0103223 -0.0101925 -0.0100496 -0.00989364 -0.00972463 -0.00954787 -0.00936869 -0.00918709 -0.00900308 -0.00882195 -0.00864902 -0.00848427 -0.00832772 -0.00818362 -0.00805623 -0.00794553 -0.00785154 -0.00777659 -0.00772303 -0.00769086 -0.00768007 -0.00769061 -0.00772242 -0.0077755 -0.00784985 -0.00794304 -0.00805262 -0.0081786 -0.00832097 -0.00847543 -0.00863766 -0.00880766 -0.00898544 -0.0091657 -0.00934312 -0.00951772 -0.00968949 -0.00985316 -0.0100035 -0.0101405 -0.0102641 -0.0103701 -0.0104542 -0.0105164 -0.0105567 -0.0105726 -0.0105613 -0.0105229 -0.0104575 -0.0103643 -0.0102428 -0.0100929 -0.0099147 -0.0097094 -0.00947832 -0.00922145 -0.0089388 -0.00863325 -0.00830771 -0.00796217 -0.00759664 -0.00721524 -0.00682209 -0.0064172 -0.00600057 -0.00557727 -0.00515237 -0.00472588 -0.00429779 -0.003874 -0.00346039 -0.00305697 -0.00266373 -0.00228715 -0.00193368 -0.00160333 -0.00129609 -0.00101535 -0.00076448 -0.000543486 -0.000352366 -0.000198206 -8.80916e-05 -2.20229e-05 0 0 -2.74561e-05 -0.000109825 -0.000247105 -0.000439298 -0.000676731 -0.000949732 -0.0012583 -0.00160244 -0.00197771 -0.00237968 -0.00280835 -0.00326372 -0.00373774 -0.00422237 -0.0047176 -0.00522343 -0.0057326 -0.00623784 -0.00673914 -0.00723651 -0.00772375 -0.00819466 -0.00864924 -0.0090875 -0.0095045 -0.00989531 -0.0102599 -0.0105983 -0.0109072 -0.0111833 -0.0114266 -0.011637 -0.0118134 -0.0119544 -0.01206 -0.0121304 -0.0121665 -0.0121696 -0.0121396 -0.0120766 -0.0119841 -0.0118656 -0.0117212 -0.0115509 -0.0113601 -0.0111546 -0.0109342 -0.0106989 -0.0104555 -0.0102106 -0.00996423 -0.00971637 -0.00947363 -0.00924264 -0.0090234 -0.0088159 -0.00862543 -0.00845729 -0.00831146 -0.00818795 -0.00808967 -0.00801952 -0.0079775 -0.0079636 -0.00797776 -0.00801991 -0.00809004 -0.00818816 -0.00831124 -0.00845626 -0.0086232 -0.00881208 -0.00901753 -0.00923419 -0.00946208 -0.00970118 -0.00994488 -0.0101866 -0.0104263 -0.0106639 -0.010893 -0.0111068 -0.0113055 -0.0114889 -0.0116517 -0.0117885 -0.0118992 -0.0119839 -0.0120391 -0.0120615 -0.0120511 -0.0120078 -0.0119308 -0.011819 -0.0116723 -0.0114909 -0.0112761 -0.0110293 -0.0107504 -0.0104395 -0.0100999 -0.00973511 -0.00934503 -0.00892968 -0.00849398 -0.00804285 -0.00757628 -0.00709429 -0.00660296 -0.00610838 -0.00561056 -0.00510949 -0.00461225 -0.00412592 -0.00365049 -0.00318598 -0.00274014 -0.00232076 -0.00192783 -0.00156137 -0.00122557 -0.000924647 -0.000658606 -0.000427444 -0.000240437 -0.000106861 -2.67153e-05 0 0 -3.2621e-05 -0.000130484 -0.000293589 -0.000521935 -0.000803279 -0.00112537 -0.00148822 -0.00189182 -0.00233073 -0.00279954 -0.00329824 -0.00382684 -0.0043758 -0.00493562 -0.0055063 -0.00608783 -0.00667164 -0.00724914 -0.00782035 -0.00838526 -0.00893657 -0.00946697 -0.00997647 -0.0104651 -0.010927 -0.0113565 -0.0117535 -0.0121181 -0.0124465 -0.0127348 -0.0129832 -0.0131915 -0.0133585 -0.013483 -0.0135649 -0.0136042 -0.0136026 -0.0135617 -0.0134814 -0.0133619 -0.0132076 -0.013023 -0.0128082 -0.0125631 -0.0122947 -0.0120098 -0.0117085 -0.0113908 -0.0110649 -0.0107389 -0.010413 -0.0100872 -0.0097694 -0.00946787 -0.00918257 -0.0089135 -0.00866712 -0.00844989 -0.0082618 -0.00810286 -0.00797661 -0.00788659 -0.0078328 -0.00781525 -0.00783383 -0.00788847 -0.00797917 -0.00810592 -0.00826503 -0.00845281 -0.00866926 -0.00891438 -0.00918161 -0.00946442 -0.0097628 -0.0100768 -0.0103982 -0.0107189 -0.0110391 -0.0113586 -0.0116693 -0.0119631 -0.01224 -0.0124999 -0.0127362 -0.0129421 -0.0131176 -0.0132626 -0.0133729 -0.0134441 -0.0134763 -0.0134693 -0.0134219 -0.0133325 -0.0132011 -0.0130279 -0.0128141 -0.0125612 -0.0122692 -0.0119381 -0.0115718 -0.0111741 -0.0107451 -0.0102848 -0.00979879 -0.00929296 -0.00876729 -0.00822177 -0.00766359 -0.00709993 -0.00653078 -0.00595616 -0.00538442 -0.00482391 -0.00427462 -0.00373657 -0.00321895 -0.00273096 -0.00227261 -0.00184389 -0.00144997 -0.00109602 -0.000782046 -0.000508041 -0.000285773 -0.00012701 -3.17525e-05 0 0 -3.81368e-05 -0.000152547 -0.000343231 -0.000610189 -0.000938294 -0.00131242 -0.00173256 -0.00219873 -0.00270436 -0.0032429 -0.00381436 -0.00441873 -0.00504491 -0.00568179 -0.00632936 -0.00698764 -0.00764663 -0.00829636 -0.00893684 -0.00956805 -0.0101815 -0.0107688 -0.0113298 -0.0118646 -0.0123665 -0.012829 -0.0132519 -0.0136352 -0.0139749 -0.0142664 -0.01451 -0.0147055 -0.0148518 -0.0149475 -0.0149927 -0.0149874 -0.0149338 -0.0148341 -0.0146884 -0.0144965 -0.0142643 -0.0139973 -0.0136955 -0.0133589 -0.012996 -0.0126153 -0.0122167 -0.0118003 -0.0113759 -0.0109537 -0.0105335 -0.0101155 -0.00970927 -0.00932471 -0.0089618 -0.00862054 -0.00830869 -0.00803403 -0.00779655 -0.00759626 -0.00743741 -0.00732425 -0.00725678 -0.007235 -0.00725881 -0.0073281 -0.00744287 -0.00760311 -0.0078044 -0.00804229 -0.00831678 -0.00862787 -0.00896769 -0.00932834 -0.00970984 -0.0101122 -0.0105256 -0.0109403 -0.0113562 -0.0117734 -0.012182 -0.0125722 -0.0129439 -0.0132971 -0.0136235 -0.013915 -0.0141715 -0.0143929 -0.014574 -0.0147092 -0.0147985 -0.0148419 -0.0148376 -0.0147834 -0.0146794 -0.0145255 -0.0143233 -0.0140741 -0.0137779 -0.0134347 -0.0130489 -0.0126248 -0.0121625 -0.0116619 -0.0111297 -0.0105724 -0.00999022 -0.00938301 -0.00875915 -0.008127 -0.00748655 -0.00683781 -0.0061905 -0.00555435 -0.00492935 -0.00431551 -0.00372358 -0.00316429 -0.00263765 -0.00214365 -0.00168856 -0.00127861 -0.000913808 -0.000594156 -0.000334213 -0.000148539 -3.71348e-05 0 0 -4.38875e-05 -0.00017555 -0.000394987 -0.0007022 -0.00107893 -0.00150692 -0.00198616 -0.00251667 -0.00309062 -0.0037002 -0.00434542 -0.00502627 -0.00572993 -0.00644358 -0.00716722 -0.00790086 -0.00863301 -0.00935221 -0.0100584 -0.0107517 -0.0114223 -0.0120605 -0.0126662 -0.0132395 -0.0137729 -0.0142587 -0.014697 -0.0150877 -0.0154262 -0.0157078 -0.0159323 -0.0160999 -0.0162094 -0.0162597 -0.0162507 -0.0161825 -0.016058 -0.0158802 -0.015649 -0.0153644 -0.0150334 -0.014663 -0.0142532 -0.013804 -0.0133256 -0.0128282 -0.0123117 -0.0117763 -0.0112339 -0.0106964 -0.0101638 -0.00963605 -0.00912492 -0.00864201 -0.00818734 -0.0077609 -0.00737193 -0.00702967 -0.00673412 -0.00648528 -0.0062882 -0.00614792 -0.00606446 -0.0060378 -0.00606782 -0.00615439 -0.00629752 -0.0064972 -0.00674816 -0.00704512 -0.0073881 -0.00777708 -0.0082027 -0.00865558 -0.00913571 -0.00964311 -0.0101661 -0.010693 -0.0112238 -0.0117586 -0.0122854 -0.0127924 -0.0132798 -0.0137473 -0.0141851 -0.0145832 -0.0149415 -0.01526 -0.0155321 -0.015751 -0.0159168 -0.0160295 -0.0160863 -0.0160846 -0.0160245 -0.0159059 -0.0157301 -0.0154986 -0.0152112 -0.0148681 -0.0144741 -0.014034 -0.0135477 -0.0130153 -0.0124444 -0.0118425 -0.0112095 -0.0105455 -0.00986014 -0.00916291 -0.00845384 -0.00773293 -0.00701138 -0.00630038 -0.00559991 -0.00490999 -0.00424303 -0.00361143 -0.0030152 -0.00245433 -0.0019363 -0.00146856 -0.00105112 -0.000683982 -0.00038474 -0.000170996 -4.27489e-05 0 0 -4.97567e-05 -0.000199027 -0.00044781 -0.000796107 -0.00122234 -0.00170492 -0.00224385 -0.00283914 -0.00348155 -0.00416189 -0.00488013 -0.0056363 -0.00641571 -0.00720372 -0.00800031 -0.0088055 -0.00960622 -0.0103894 -0.011155 -0.0119031 -0.0126226 -0.0133025 -0.0139427 -0.0145433 -0.0150958 -0.0155916 -0.0160309 -0.0164135 -0.0167343 -0.0169883 -0.0171754 -0.0172955 -0.0173478 -0.0173314 -0.0172461 -0.0170921 -0.0168732 -0.016593 -0.0162518 -0.0158493 -0.0153943 -0.0148951 -0.0143517 -0.0137641 -0.0131447 -0.0125055 -0.0118466 -0.011168 -0.0104839 -0.00980852 -0.00914177 -0.00848369 -0.00784805 -0.00724864 -0.00668545 -0.00615849 -0.00567864 -0.00525678 -0.00489291 -0.00458704 -0.00434511 -0.00417305 -0.00407086 -0.00403855 -0.00407596 -0.00418294 -0.0043595 -0.00460562 -0.00491511 -0.00528176 -0.00570556 -0.00618652 -0.0067136 -0.00727573 -0.00787293 -0.00850518 -0.0091587 -0.00981969 -0.0104881 -0.0111641 -0.0118334 -0.0124821 -0.0131101 -0.0137175 -0.0142923 -0.0148224 -0.015308 -0.0157489 -0.016137 -0.0164642 -0.0167304 -0.0169356 -0.0170764 -0.0171492 -0.017154 -0.0170908 -0.0169609 -0.0167653 -0.0165042 -0.0161775 -0.0157905 -0.0153485 -0.0148514 -0.0142994 -0.0137008 -0.0130642 -0.0123895 -0.0116769 -0.010937 -0.010181 -0.00940863 -0.00862004 -0.00782796 -0.00704512 -0.00627153 -0.00550719 -0.00476631 -0.00406308 -0.00339751 -0.00276959 -0.00218816 -0.00166204 -0.00119122 -0.000775711 -0.000436337 -0.000193928 -4.84819e-05 0 0 -5.57445e-05 -0.000222978 -0.000501701 -0.000891912 -0.00136852 -0.00190642 -0.00250563 -0.00316613 -0.00387716 -0.00462796 -0.00541851 -0.00624882 -0.00710226 -0.0079622 -0.00882863 -0.00970157 -0.0105662 -0.0114079 -0.0122266 -0.0130222 -0.0137824 -0.0144948 -0.0151592 -0.0157759 -0.0163352 -0.0168277 -0.0172535 -0.0176125 -0.0178992 -0.0181081 -0.0182391 -0.0182923 -0.018267 -0.0181625 -0.0179789 -0.0177162 -0.0173791 -0.0169727 -0.0164967 -0.0159514 -0.0153468 -0.0146933 -0.0139908 -0.0132393 -0.0124533 -0.0116473 -0.0108213 -0.00997533 -0.00912604 -0.00829012 -0.00746756 -0.00665837 -0.00587867 -0.00514459 -0.00445614 -0.0038133 -0.0032288 -0.00271534 -0.00227292 -0.00190155 -0.00160814 -0.00139962 -0.00127599 -0.00123726 -0.00128324 -0.00141375 -0.0016288 -0.00192838 -0.00230525 -0.00275218 -0.00326916 -0.0038562 -0.00450039 -0.00518881 -0.00592148 -0.0066984 -0.00750339 -0.00832032 -0.00914917 -0.00998994 -0.0108261 -0.0116411 -0.012435 -0.0132077 -0.013945 -0.0146328 -0.015271 -0.0158596 -0.0163888 -0.0168487 -0.0172392 -0.0175605 -0.0178079 -0.017977 -0.0180678 -0.0180804 -0.0180156 -0.0178743 -0.0176567 -0.0173627 -0.016998 -0.0165683 -0.0160737 -0.015514 -0.0148989 -0.0142376 -0.0135303 -0.012777 -0.0119899 -0.0111812 -0.0103509 -0.00949914 -0.00864022 -0.00778858 -0.00694421 -0.00610712 -0.00529342 -0.00451924 -0.00378458 -0.00308944 -0.00244415 -0.00185904 -0.0013341 -0.000869341 -0.000489004 -0.000217335 -5.43338e-05 0 0 -6.18509e-05 -0.000247404 -0.000556658 -0.000989614 -0.00151747 -0.00211143 -0.00277149 -0.00349765 -0.00427745 -0.00509841 -0.00596054 -0.00686384 -0.00778957 -0.00871902 -0.00965218 -0.010589 -0.0115131 -0.0124078 -0.0132731 -0.014109 -0.0149018 -0.0156374 -0.0163159 -0.0169372 -0.0174911 -0.017967 -0.0183648 -0.0186848 -0.0189208 -0.0190671 -0.0191235 -0.0190902 -0.0189668 -0.0187531 -0.018449 -0.0180547 -0.017576 -0.0170191 -0.0163839 -0.0156705 -0.0148911 -0.0140577 -0.0131705 -0.0122294 -0.0112514 -0.0102536 -0.00923584 -0.00819824 -0.00716021 -0.00614118 -0.00514114 -0.0041601 -0.00321677 -0.00232987 -0.00149939 -0.000725339 -2.24262e-05 0.000594636 0.00112585 0.00157121 0.00192272 0.00217236 0.00232015 0.00236608 0.00231035 0.00215319 0.00189458 0.00153453 0.00108141 0.0005436 -7.89067e-05 -0.000786109 -0.00156306 -0.00239482 -0.00328138 -0.00422275 -0.00520017 -0.00619489 -0.00720689 -0.00823619 -0.0092635 -0.0102695 -0.0112543 -0.0122179 -0.0131434 -0.0140143 -0.0148306 -0.0155922 -0.0162874 -0.0169045 -0.0174433 -0.0179039 -0.0182808 -0.0185681 -0.0187661 -0.0188745 -0.0188942 -0.0188256 -0.0186688 -0.0184238 -0.0180967 -0.0176935 -0.0172144 -0.0166593 -0.0160386 -0.0153628 -0.0146319 -0.013846 -0.0130186 -0.0121635 -0.0112807 -0.0103702 -0.00944818 -0.00853076 -0.00761795 -0.00670976 -0.00582435 -0.0049799 -0.00417641 -0.00341387 -0.00270426 -0.00205956 -0.00147976 -0.000964874 -0.000542741 -0.000241218 -6.03046e-05 0 0 -6.79722e-05 -0.000271889 -0.00061175 -0.00108756 -0.00166666 -0.00231642 -0.00303682 -0.00382789 -0.0046753 -0.00556475 -0.00649624 -0.00746977 -0.00846439 -0.00945915 -0.010454 -0.0114491 -0.0124258 -0.0133659 -0.0142692 -0.0151359 -0.0159504 -0.0166975 -0.0173771 -0.0179892 -0.0185225 -0.0189653 -0.0193179 -0.0195801 -0.0197457 -0.0198085 -0.0197684 -0.0196256 -0.0193801 -0.0190323 -0.018582 -0.0180294 -0.0173818 -0.0166466 -0.0158239 -0.0149136 -0.0139301 -0.0128877 -0.0117866 -0.0106266 -0.00942754 -0.00820927 -0.00697177 -0.00571504 -0.00446154 -0.00323376 -0.00203169 -0.000855339 0.000273743 0.00133399 0.00232541 0.003248 0.00408485 0.00481905 0.00545059 0.00597949 0.00639655 0.00669258 0.00686758 0.00692156 0.00685476 0.00666741 0.00635952 0.0059311 0.00539174 0.00475108 0.00400911 0.00316583 0.00223843 0.00124408 0.000182791 -0.000945442 -0.002119 -0.00331627 -0.00453726 -0.00578195 -0.00702805 -0.00825325 -0.00945755 -0.010641 -0.011784 -0.0128673 -0.0138908 -0.0148544 -0.0157444 -0.0165468 -0.0172616 -0.0178888 -0.0184215 -0.0188526 -0.0191823 -0.0194105 -0.0195374 -0.0195632 -0.0194878 -0.0193113 -0.0190402 -0.0186808 -0.0182333 -0.0176976 -0.0170852 -0.0164075 -0.0156647 -0.0148565 -0.0139984 -0.0131054 -0.0121775 -0.0112148 -0.0102353 -0.00925695 -0.00827978 -0.00730381 -0.00634935 -0.00543677 -0.00456605 -0.00373721 -0.00296399 -0.00226017 -0.00162573 -0.00106069 -0.000596638 -0.000265173 -6.62932e-05 0 0 -7.40048e-05 -0.000296019 -0.000666043 -0.00118408 -0.00181354 -0.00251785 -0.00329701 -0.00415102 -0.0050636 -0.00601846 -0.00701561 -0.00805504 -0.00911345 -0.0101676 -0.0112173 -0.0122628 -0.0132835 -0.0142591 -0.0151896 -0.0160749 -0.0168982 -0.0176424 -0.0183075 -0.0188936 -0.0193882 -0.0197788 -0.0200654 -0.0202481 -0.0203202 -0.0202754 -0.0201135 -0.0198346 -0.0194396 -0.0189291 -0.0183033 -0.0175621 -0.0167145 -0.0157695 -0.0147271 -0.0135872 -0.0123668 -0.0110825 -0.00973452 -0.00832272 -0.00687003 -0.00539934 -0.00391065 -0.00240398 -0.000905128 0.000560059 0.00199158 0.00338945 0.00472897 0.00598545 0.0071589 0.00824932 0.00923739 0.0101038 0.0108485 0.0114716 0.0119625 0.0123107 0.0125163 0.0125793 0.0124999 0.0122785 0.0119149 0.0114093 0.0107726 0.0100158 0.00913879 0.00814171 0.00704414 0.00586572 0.00460646 0.00326635 0.00187016 0.00044264 -0.0010162 -0.00250637 -0.00400222 -0.0054781 -0.00693402 -0.00836996 -0.00976345 -0.011092 -0.0123555 -0.0135541 -0.0146714 -0.0156911 -0.0166133 -0.0174379 -0.0181565 -0.0187606 -0.0192503 -0.0196255 -0.0198859 -0.0200311 -0.020061 -0.0199758 -0.0197821 -0.0194869 -0.01909 -0.0185915 -0.0180039 -0.0173397 -0.0165989 -0.0157816 -0.0149044 -0.0139841 -0.0130208 -0.0120145 -0.010985 -0.00995244 -0.00891675 -0.00787794 -0.00685866 -0.00588153 -0.00494657 -0.00405378 -0.00321883 -0.00245741 -0.00176953 -0.00115517 -0.000649786 -0.000288794 -7.21984e-05 0 0 -7.99487e-05 -0.000319795 -0.000719538 -0.00127918 -0.00195811 -0.00271574 -0.00355205 -0.00446705 -0.00544235 -0.00645955 -0.00751865 -0.00861964 -0.00973676 -0.0108442 -0.011942 -0.0130302 -0.0140862 -0.0150875 -0.0160342 -0.0169263 -0.0177451 -0.0184721 -0.0191072 -0.0196504 -0.0200883 -0.0204073 -0.0206075 -0.0206888 -0.0206446 -0.0204679 -0.0201589 -0.0197174 -0.0191452 -0.0184437 -0.0176129 -0.0166528 -0.0155742 -0.0143878 -0.0130935 -0.0116915 -0.0102012 -0.00864219 -0.0070144 -0.00531788 -0.0035789 -0.00182377 -5.24878e-05 0.00173495 0.00350904 0.00524029 0.0069287 0.00857427 0.0101489 0.0116245 0.0130011 0.0142786 0.0154352 0.0164488 0.0173196 0.0180474 0.0186204 0.0190268 0.0192664 0.0193393 0.0192459 0.0189864 0.0185608 0.0179692 0.017224 0.0163376 0.0153101 0.0141415 0.0128541 0.0114701 0.00998962 0.00841262 0.00676731 0.00508185 0.00335627 0.00159054 -0.000186012 -0.0019441 -0.00368373 -0.00540489 -0.00708173 -0.00868837 -0.0102248 -0.0116911 -0.0130682 -0.0143373 -0.0154982 -0.0165511 -0.0174858 -0.018292 -0.0189699 -0.0195195 -0.0199396 -0.0202293 -0.0203885 -0.0204172 -0.0203226 -0.0201117 -0.0197845 -0.019341 -0.0187947 -0.0181593 -0.0174348 -0.0166211 -0.0157366 -0.0147998 -0.0138107 -0.0127692 -0.0116973 -0.0106172 -0.00952885 -0.00843217 -0.00735226 -0.0063142 -0.00531797 -0.00436358 -0.00346878 -0.0026513 -0.00191115 -0.00124833 -0.000702183 -0.000312081 -7.80204e-05 0 0 -8.58039e-05 -0.000343216 -0.000772235 -0.00137286 -0.00210038 -0.00291007 -0.00380194 -0.00477599 -0.00581156 -0.00688802 -0.00800536 -0.00916358 -0.0103343 -0.0114892 -0.0126281 -0.0137512 -0.0148338 -0.0158511 -0.0168031 -0.0176899 -0.0184912 -0.0191865 -0.019776 -0.0202596 -0.0206228 -0.020851 -0.0209442 -0.0209023 -0.0207186 -0.0203859 -0.0199044 -0.0192739 -0.018497 -0.0175759 -0.0165108 -0.0153015 -0.0139608 -0.0125014 -0.0109233 -0.00922646 -0.00743342 -0.00556667 -0.00362621 -0.00161203 0.00044585 0.00251744 0.00460273 0.00670173 0.00878095 0.0108069 0.0127796 0.0146991 0.0165336 0.0182512 0.0198519 0.0213359 0.0226783 0.0238542 0.0248638 0.0257071 0.0263705 0.0268407 0.0271178 0.0272016 0.0270926 0.0267911 0.0262971 0.0256107 0.0247459 0.0237167 0.0225232 0.0211653 0.0196682 0.0180572 0.0163323 0.0144934 0.0125724 0.0106014 0.00858015 0.0065088 0.00442057 0.00234874 0.000293308 -0.00174573 -0.00373885 -0.00565653 -0.00749876 -0.00926555 -0.010935 -0.0124854 -0