<?xml version="1.0"?> 
<VTKFile type="StructuredGrid" version="0.1"> 
<StructuredGrid WholeExtent="0 128 0 128 0 0"> 
<Piece Extent="0 128 0 128 0 0"> 
<PointData>
<DataArray type="Float32" Name="u" format="ascii" NumberOfComponents="1"> 
0 0 0 0 0 0 0 0 0 0 0 0 0 0 0 0 0 0 0 0 0 0 0 0 0 0 0 0 0 0 0 0 0 0 0 0 0 0 0 0 0 0 0 0 0 0 0 0 0 0 0 0 0 0 0 0 0 0 0 0 0 0 0 0 0 0 0 0 0 0 0 0 0 0 0 0 0 0 0 0 0 0 0 0 0 0 0 0 0 0 0 0 0 0 0 0 0 0 0 0 0 0 0 0 0 0 0 0 0 0 0 0 0 0 0 0 0 0 0 0 0 0 0 0 0 0 0 0 0 0 1.73734e-07 6.94936e-07 1.56361e-06 2.77975e-06 4.13789e-06 5.43258e-06 6.66381e-06 7.83159e-06 8.81974e-06 9.5121e-06 9.90866e-06 1.00094e-05 9.7303e-06 8.98718e-06 7.78007e-06 6.10897e-06 3.93807e-06 1.23158e-06 -2.01051e-06 -5.78819e-06 -1.01004e-05 -1.49462e-05 -2.03256e-05 -2.62385e-05 -3.26543e-05 -3.95423e-05 -4.69026e-05 -5.47351e-05 -6.29866e-05 -7.16037e-05 -8.05864e-05 -8.99347e-05 -9.95798e-05 -0.000109453 -0.000119553 -0.000129882 -0.00014036 -0.00015091 -0.000161531 -0.000172223 -0.000182905 -0.000193492 -0.000203985 -0.000214384 -0.000224607 -0.000234569 -0.000244271 -0.000253714 -0.000262817 -0.000271504 -0.000279773 -0.000287625 -0.000294991 -0.000301803 -0.000308062 -0.000313767 -0.000318867 -0.000323311 -0.0003271 -0.000330233 -0.000332683 -0.000334423 -0.000335452 -0.000335772 -0.000335381 -0.000334282 -0.000332472 -0.000329954 -0.000326753 -0.000322899 -0.000318392 -0.000313231 -0.000307468 -0.000301154 -0.00029429 -0.000286876 -0.000278979 -0.00027067 -0.000261948 -0.000252814 -0.000243345 -0.000233622 -0.000223643 -0.00021341 -0.000203004 -0.00019251 -0.000181927 -0.000171256 -0.000160578 -0.000149976 -0.00013945 -0.000129 -0.000118704 -0.000108639 -9.88057e-05 -8.92036e-05 -7.99007e-05 -7.09652e-05 -6.23969e-05 -5.41959e-05 -4.64146e-05 -3.91051e-05 -3.22675e-05 -2.59018e-05 -2.00376e-05 -1.47046e-05 -9.90288e-06 -5.63237e-06 -1.89338e-06 1.31376e-06 3.98906e-06 6.1325e-06 7.78015e-06 8.96805e-06 9.69619e-06 9.96457e-06 9.85689e-06 9.4568e-06 8.76433e-06 7.77946e-06 6.61736e-06 5.39319e-06 4.10696e-06 2.75866e-06 1.55175e-06 6.89666e-07 1.72416e-07 0 0 6.94936e-07 2.77975e-06 6.25443e-06 1.1119e-05 1.65516e-05 2.17303e-05 2.66552e-05 3.13264e-05 3.5279e-05 3.80484e-05 3.96346e-05 4.00377e-05 3.89212e-05 3.59487e-05 3.11203e-05 2.44359e-05 1.57523e-05 4.92632e-06 -8.04203e-06 -2.31528e-05 -4.04018e-05 -5.9785e-05 -8.13023e-05 -0.000104954 -0.000130617 -0.000158169 -0.00018761 -0.000218941 -0.000251946 -0.000286415 -0.000322346 -0.000359739 -0.000398319 -0.000437811 -0.000478214 -0.000519528 -0.000561441 -0.00060364 -0.000646124 -0.000688894 -0.000731618 -0.000773967 -0.00081594 -0.000857537 -0.000898426 -0.000938276 -0.000977085 -0.00101485 -0.00105127 -0.00108601 -0.00111909 -0.0011505 -0.00117996 -0.00120721 -0.00123225 -0.00125507 -0.00127547 -0.00129325 -0.0013084 -0.00132093 -0.00133073 -0.00133769 -0.00134181 -0.00134309 -0.00134153 -0.00133713 -0.00132989 -0.00131981 -0.00130701 -0.0012916 -0.00127357 -0.00125292 -0.00122987 -0.00120462 -0.00117716 -0.0011475 -0.00111592 -0.00108268 -0.00104779 -0.00101125 -0.00097338 -0.000934486 -0.000894572 -0.000853638 -0.000812017 -0.000770041 -0.000727709 -0.000685023 -0.000642311 -0.000599903 -0.000557799 -0.000516 -0.000474816 -0.000434557 -0.000395223 -0.000356814 -0.000319603 -0.000283861 -0.000249588 -0.000216784 -0.000185658 -0.00015642 -0.00012907 -0.000103607 -8.01503e-05 -5.88185e-05 -3.96115e-05 -2.25295e-05 -7.57352e-06 5.25504e-06 1.59562e-05 2.453e-05 3.11206e-05 3.58722e-05 3.87847e-05 3.98583e-05 3.94275e-05 3.78272e-05 3.50573e-05 3.11178e-05 2.64694e-05 2.15728e-05 1.64278e-05 1.10347e-05 6.20699e-06 2.75866e-06 6.89666e-07 0 0 1.56361e-06 6.25443e-06 1.40725e-05 2.50177e-05 3.7241e-05 4.88932e-05 5.99743e-05 7.04843e-05 7.93777e-05 8.56089e-05 8.91779e-05 9.00848e-05 8.75727e-05 8.08846e-05 7.00206e-05 5.49807e-05 3.54426e-05 1.10842e-05 -1.80946e-05 -5.20937e-05 -9.0904e-05 -0.000134516 -0.00018293 -0.000236146 -0.000293888 -0.000355881 -0.000422123 -0.000492616 -0.00056688 -0.000644433 -0.000725278 -0.000809412 -0.000896218 -0.000985074 -0.00107598 -0.00116894 -0.00126324 -0.00135819 -0.00145378 -0.00155001 -0.00164614 -0.00174143 -0.00183587 -0.00192946 -0.00202146 -0.00211112 -0.00219844 -0.00228342 -0.00236535 -0.00244353 -0.00251795 -0.00258862 -0.00265492 -0.00271623 -0.00277256 -0.0028239 -0.0028698 -0.0029098 -0.0029439 -0.0029721 -0.00299415 -0.0030098 -0.00301907 -0.00302195 -0.00301843 -0.00300853 -0.00299225 -0.00296958 -0.00294078 -0.00290609 -0.00286553 -0.00281908 -0.00276721 -0.00271039 -0.00264861 -0.00258188 -0.00251081 -0.00243603 -0.00235754 -0.00227532 -0.00219011 -0.00210259 -0.00201279 -0.00192069 -0.00182704 -0.00173259 -0.00163735 -0.0015413 -0.0014452 -0.00134978 -0.00125505 -0.001161 -0.00106834 -0.000977753 -0.000889252 -0.000802832 -0.000719106 -0.000638686 -0.000561572 -0.000487763 -0.000417731 -0.000351946 -0.000290407 -0.000233116 -0.000180338 -0.000132342 -8.9126e-05 -5.06913e-05 -1.70404e-05 1.18239e-05 3.59015e-05 5.51925e-05 7.00214e-05 8.07124e-05 8.72657e-05 8.96812e-05 8.8712e-05 8.51112e-05 7.8879e-05 7.00151e-05 5.95562e-05 4.85387e-05 3.69626e-05 2.4828e-05 1.39657e-05 6.20699e-06 1.55175e-06 0 0 2.77975e-06 1.1119e-05 2.50177e-05 4.44759e-05 6.62062e-05 8.69213e-05 0.000106621 0.000125305 0.000141116 0.000152194 0.000158539 0.000160151 0.000155685 0.000143795 0.000124481 9.77435e-05 6.30091e-05 1.97053e-05 -3.21681e-05 -9.2611e-05 -0.000161607 -0.00023914 -0.000325209 -0.000419816 -0.000522468 -0.000632677 -0.000750442 -0.000875762 -0.00100779 -0.00114566 -0.00128938 -0.00143896 -0.00159328 -0.00175124 -0.00191285 -0.00207811 -0.00224576 -0.00241456 -0.0025845 -0.00275557 -0.00292647 -0.00309587 -0.00326376 -0.00343015 -0.00359371 -0.0037531 -0.00390834 -0.00405942 -0.00420507 -0.00434406 -0.00447636 -0.00460199 -0.00471985 -0.00482885 -0.00492899 -0.00502027 -0.00510187 -0.00517298 -0.0052336 -0.00528372 -0.00532292 -0.00535076 -0.00536724 -0.00537235 -0.0053661 -0.0053485 -0.00531956 -0.00527926 -0.00522805 -0.00516639 -0.00509427 -0.00501169 -0.00491948 -0.00481847 -0.00470864 -0.00459001 -0.00446367 -0.00433073 -0.00419118 -0.00404502 -0.00389352 -0.00373794 -0.00357829 -0.00341455 -0.00324807 -0.00308016 -0.00291084 -0.00274009 -0.00256924 -0.00239961 -0.0022312 -0.002064 -0.00189926 -0.00173823 -0.00158089 -0.00142726 -0.00127841 -0.00113544 -0.00099835 -0.000867135 -0.000742633 -0.000625681 -0.00051628 -0.000414428 -0.000320601 -0.000235274 -0.000158446 -9.01179e-05 -3.02941e-05 2.10202e-05 6.38249e-05 9.81201e-05 0.000124482 0.000143489 0.000155139 0.000159433 0.00015771 0.000151309 0.000140229 0.000124471 0.000105878 8.62911e-05 6.57114e-05 4.41386e-05 2.4828e-05 1.10347e-05 2.75866e-06 0 0 4.12827e-06 1.65131e-05 3.71544e-05 6.60523e-05 9.82536e-05 0.000128805 0.000157707 0.00018496 0.00020776 0.000223307 0.000231599 0.000232638 0.000224403 0.000204878 0.000174061 0.000131953 7.77051e-05 1.04689e-05 -6.97556e-05 -0.000162968 -0.000269122 -0.000388167 -0.000520105 -0.000664934 -0.000821889 -0.0009902 -0.00116987 -0.00136089 -0.00156196 -0.00177176 -0.00199029 -0.00221755 -0.00245186 -0.00269153 -0.00293657 -0.00318698 -0.00344086 -0.00369632 -0.00395336 -0.00421198 -0.00447018 -0.00472599 -0.00497939 -0.0052304 -0.00547702 -0.00571727 -0.00595115 -0.00617866 -0.00639793 -0.00660708 -0.00680613 -0.00699506 -0.00717225 -0.00733609 -0.00748658 -0.00762371 -0.00774628 -0.00785307 -0.0079441 -0.00801936 -0.00807821 -0.00812 -0.00814473 -0.00815239 -0.00814301 -0.00811659 -0.00807313 -0.00801262 -0.00793573 -0.00784312 -0.0077348 -0.00761075 -0.00747221 -0.00732039 -0.0071553 -0.00697693 -0.00678692 -0.00658691 -0.00637688 -0.00615685 -0.00592869 -0.00569428 -0.00545363 -0.00520672 -0.00495556 -0.00470212 -0.00444641 -0.00418842 -0.00393014 -0.00367355 -0.00341865 -0.00316545 -0.00291581 -0.00267163 -0.0024329 -0.00219963 -0.00197346 -0.00175607 -0.00154745 -0.0013476 -0.00115781 -0.000979374 -0.000812285 -0.000656547 -0.000512901 -0.000382093 -0.000264122 -0.000158988 -6.67214e-05 1.26464e-05 7.91159e-05 0.000132687 0.000174214 0.000204553 0.000223702 0.000231663 0.000230443 0.000222052 0.00020649 0.000183756 0.00015663 0.000127888 9.75309e-05 6.5559e-05 3.68769e-05 1.63897e-05 4.09744e-06 0 0 5.39409e-06 2.15764e-05 4.85469e-05 8.63055e-05 0.00012819 0.000167536 0.000204345 0.000238617 0.000266577 0.000284452 0.000292242 0.000289947 0.000274874 0.000244332 0.00019832 0.000136838 5.87838e-05 -3.69455e-05 -0.00015035 -0.00028143 -0.000430058 -0.000596108 -0.000779581 -0.000980475 -0.00119768 -0.00143009 -0.00167771 -0.00194053 -0.00221671 -0.00250441 -0.00280363 -0.00311437 -0.00343432 -0.00376115 -0.00409487 -0.00443548 -0.0047804 -0.00512706 -0.00547547 -0.00582561 -0.00617483 -0.00652047 -0.00686252 -0.00720099 -0.00753324 -0.00785666 -0.00817123 -0.00847697 -0.00877141 -0.00905211 -0.00931906 -0.00957225 -0.00980959 -0.010029 -0.0102303 -0.0104138 -0.0105776 -0.0107204 -0.010842 -0.0109426 -0.0110211 -0.0110769 -0.01111 -0.0111202 -0.0111077 -0.0110723 -0.0110143 -0.0109334 -0.0108307 -0.0107069 -0.0105621 -0.0103962 -0.0102109 -0.0100077 -0.00978662 -0.00954768 -0.00929301 -0.00902472 -0.00874282 -0.00844732 -0.00814067 -0.00782535 -0.00750135 -0.00716868 -0.00682996 -0.00648783 -0.00614228 -0.00579331 -0.00544358 -0.00509575 -0.00474982 -0.00440578 -0.0040662 -0.00373362 -0.00340804 -0.00308947 -0.00278019 -0.0024825 -0.00219639 -0.00192185 -0.00166071 -0.00141477 -0.00118402 -0.000968474 -0.0007692 -0.000587276 -0.000422702 -0.000275479 -0.00014571 -3.3495e-05 6.11641e-05 0.000138268 0.000198928 0.000244257 0.000274254 0.000288919 0.000290932 0.000282974 0.000265043 0.00023714 0.000203008 0.000166387 0.000127278 8.56814e-05 4.81958e-05 2.14204e-05 5.35509e-06 0 0 6.57722e-06 2.63089e-05 5.9195e-05 0.000105236 0.000156014 0.000203114 0.000246535 0.000286277 0.000317567 0.00033563 0.000340468 0.000332079 0.000307097 0.000262157 0.000197257 0.000112399 6.24536e-06 -0.000122538 -0.000273951 -0.000447995 -0.000644416 -0.000862964 -0.00110364 -0.00136644 -0.00164985 -0.00195236 -0.00227396 -0.00261466 -0.00297202 -0.0033436 -0.0037294 -0.00412943 -0.00454067 -0.00496011 -0.00538776 -0.00582361 -0.00626437 -0.00670677 -0.00715081 -0.00759648 -0.00804043 -0.00847932 -0.00891315 -0.00934192 -0.00976238 -0.0101713 -0.0105686 -0.0109544 -0.0113255 -0.0116791 -0.0120151 -0.0123336 -0.0126319 -0.0129074 -0.0131603 -0.0133904 -0.0135959 -0.0137749 -0.0139274 -0.0140533 -0.0141517 -0.0142216 -0.0142629 -0.0142757 -0.01426 -0.0142158 -0.014143 -0.0140417 -0.013913 -0.0137578 -0.0135762 -0.0133681 -0.0131355 -0.0128804 -0.0126026 -0.0123023 -0.0119819 -0.0116442 -0.011289 -0.0109164 -0.0105295 -0.0101312 -0.00972147 -0.00930042 -0.00887128 -0.00843728 -0.00799845 -0.00755476 -0.00710958 -0.00666622 -0.0062247 -0.00578501 -0.00535042 -0.00492419 -0.00450631 -0.0040968 -0.00369861 -0.00331474 -0.00294517 -0.0025899 -0.00225134 -0.00193187 -0.00163149 -0.00135021 -0.0010895 -0.000850822 -0.000634188 -0.000439593 -0.000267258 -0.000117404 9.96948e-06 0.000114863 0.000198623 0.0002626 0.000306793 0.000331201 0.000339177 0.000334073 0.000315888 0.000284623 0.000245011 0.000201788 0.000154953 0.000104506 5.87846e-05 2.61265e-05 6.53163e-06 0 0 7.67765e-06 3.07106e-05 6.90989e-05 0.000122842 0.000181727 0.000235538 0.000284276 0.00032794 0.000360729 0.000376841 0.000376276 0.000359033 0.000321073 0.000258353 0.000170873 5.86347e-05 -7.99103e-05 -0.000246308 -0.00044056 -0.000662664 -0.000912197 -0.00118873 -0.00149228 -0.00182282 -0.00217839 -0.00255699 -0.00295862 -0.00338329 -0.00382789 -0.00428933 -0.00476761 -0.00526271 -0.0057709 -0.0062884 -0.00681522 -0.00735136 -0.00789278 -0.00843546 -0.00897939 -0.00952457 -0.010067 -0.0106025 -0.0111313 -0.0116532 -0.0121644 -0.0126611 -0.0131432 -0.0136108 -0.0140603 -0.0144882 -0.0148944 -0.015279 -0.0156391 -0.0159715 -0.0162764 -0.0165537 -0.0168011 -0.0170166 -0.0172001 -0.0173516 -0.01747 -0.017554 -0.0176037 -0.017619 -0.0176001 -0.0175469 -0.0174593 -0.0173375 -0.0171826 -0.0169958 -0.0167771 -0.0165264 -0.0162462 -0.0159384 -0.0156033 -0.0152407 -0.0148537 -0.0144452 -0.0140154 -0.0135642 -0.0130951 -0.0126117 -0.012114 -0.011602 -0.0110795 -0.0105505 -0.0100149 -0.00947278 -0.00892812 -0.00838496 -0.00784329 -0.00730313 -0.00676848 -0.00624334 -0.00572771 -0.0052216 -0.00472872 -0.00425278 -0.00379379 -0.00335174 -0.00292969 -0.00253067 -0.00215469 -0.00180176 -0.00147379 -0.00117273 -0.000898578 -0.000651328 -0.000431368 -0.000239081 -7.4468e-05 6.24713e-05 0.0001733 0.000259583 0.000321319 0.000358509 0.000375178 0.00037535 0.000359025 0.000326204 0.000282641 0.000234092 0.000180556 0.000122033 6.86434e-05 3.05082e-05 7.62705e-06 0 0 8.56809e-06 3.42723e-05 7.71128e-05 0.000137089 0.000202255 0.000260664 0.000312315 0.000357209 0.000388534 0.00039948 0.000390047 0.000360234 0.000305376 0.000220805 0.000106522 -3.74743e-05 -0.000212879 -0.00042139 -0.000663006 -0.000937728 -0.00124488 -0.0015838 -0.00195448 -0.00235691 -0.00278858 -0.00324693 -0.00373197 -0.00424371 -0.0047783 -0.00533193 -0.00590459 -0.00649627 -0.00710245 -0.00771857 -0.00834463 -0.00898064 -0.00962182 -0.0102634 -0.0109054 -0.0115477 -0.0121858 -0.0128149 -0.0134351 -0.0140463 -0.0146442 -0.0152243 -0.0157867 -0.0163313 -0.0168543 -0.0173516 -0.0178234 -0.0182695 -0.0186867 -0.0190717 -0.0194244 -0.019745 -0.0200309 -0.0202798 -0.0204916 -0.0206664 -0.0208029 -0.0208998 -0.020957 -0.0209747 -0.0209529 -0.0208914 -0.0207904 -0.0206498 -0.020471 -0.0202553 -0.0200026 -0.019713 -0.0193888 -0.0190327 -0.0186445 -0.0182242 -0.0177752 -0.0173009 -0.0168012 -0.016276 -0.0157295 -0.0151655 -0.0145841 -0.0139852 -0.0133733 -0.0127527 -0.0121235 -0.0114856 -0.0108438 -0.0102026 -0.00956213 -0.00892236 -0.00828802 -0.00766387 -0.00704991 -0.00644612 -0.00585702 -0.00528709 -0.00473633 -0.00420474 -0.00369609 -0.00321415 -0.00275891 -0.00233038 -0.00193104 -0.00156334 -0.00122729 -0.0009229 -0.000650782 -0.000411563 -0.000205244 -3.18237e-05 0.000110416 0.000223193 0.000306509 0.000360362 0.000389402 0.00039828 0.000386995 0.000355548 0.000310694 0.000259193 0.000201043 0.000136245 7.66377e-05 3.40612e-05 8.5153e-06 0 0 9.12121e-06 3.64849e-05 8.20909e-05 0.000145939 0.000214526 0.000274346 0.000325399 0.000367686 0.000393452 0.000394944 0.000372162 0.000325105 0.000248582 0.000137398 -8.44557e-06 -0.000188949 -0.000405857 -0.000660915 -0.000954122 -0.00128548 -0.00165396 -0.00205854 -0.00249922 -0.002976 -0.00348569 -0.00402512 -0.00459429 -0.00519319 -0.0058172 -0.0064617 -0.00712668 -0.00781215 -0.00851276 -0.00922316 -0.00994335 -0.0106733 -0.0114077 -0.0121409 -0.0128729 -0.0136038 -0.0143284 -0.0150414 -0.0157428 -0.0164327 -0.0171064 -0.0177589 -0.0183904 -0.0190009 -0.0195862 -0.0201421 -0.0206686 -0.0211658 -0.0216301 -0.0220582 -0.0224502 -0.0228058 -0.0231228 -0.0233986 -0.0236332 -0.0238266 -0.0239775 -0.0240846 -0.024148 -0.0241675 -0.0241432 -0.0240752 -0.0239634 -0.0238079 -0.0236099 -0.0233708 -0.0230907 -0.0227695 -0.0224097 -0.0220139 -0.021582 -0.0211141 -0.0206136 -0.0200841 -0.0195253 -0.0189375 -0.0183248 -0.0176913 -0.0170371 -0.0163622 -0.0156713 -0.0149693 -0.014256 -0.0135315 -0.012801 -0.0120698 -0.0113377 -0.0106049 -0.0098767 -0.00915858 -0.00845055 -0.0077526 -0.00707003 -0.00640811 -0.00576685 -0.00514626 -0.00455088 -0.00398527 -0.00344943 -0.00294336 -0.00247017 -0.00203297 -0.00163175 -0.00126652 -0.000938245 -0.000647889 -0.000395454 -0.00018094 -2.57316e-06 0.000141418 0.000251035 0.000326276 0.000372319 0.00039434 0.00039234 0.000366317 0.000323968 0.000272986 0.000213372 0.000145125 8.16331e-05 3.62814e-05 9.07034e-06 0 0 9.33704e-06 3.73482e-05 8.40333e-05 0.000149393 0.000218539 0.000276584 0.000323528 0.000359371 0.000375483 0.000363233 0.000322621 0.000253646 0.00015069 8.13189e-06 -0.000174028 -0.000395789 -0.000658844 -0.000964884 -0.00131391 -0.00170592 -0.00213943 -0.00261296 -0.00312651 -0.00368007 -0.00426973 -0.00489156 -0.00554557 -0.00623174 -0.0069446 -0.00767865 -0.0084339 -0.00921034 -0.0100018 -0.0108022 -0.0116114 -0.0124295 -0.0132503 -0.0140678 -0.014882 -0.0156928 -0.0164946 -0.0172818 -0.0180545 -0.0188125 -0.019551 -0.020265 -0.0209545 -0.0216196 -0.0222559 -0.0228594 -0.0234301 -0.0239678 -0.0244694 -0.0249313 -0.0253535 -0.0257362 -0.0260769 -0.0263731 -0.0266249 -0.0268322 -0.0269939 -0.0271086 -0.0271764 -0.0271973 -0.0271712 -0.0270982 -0.0269784 -0.0268116 -0.0265992 -0.0263424 -0.0260414 -0.025696 -0.0253087 -0.0248821 -0.024416 -0.0239104 -0.0233689 -0.0227947 -0.022188 -0.0215486 -0.0208809 -0.020189 -0.019473 -0.0187329 -0.0179736 -0.0172001 -0.0164124 -0.0156105 -0.0148 -0.0139865 -0.0131701 -0.0123507 -0.0115345 -0.0107275 -0.00992966 -0.00914104 -0.00836774 -0.00761584 -0.00688536 -0.0061763 -0.00549405 -0.00484403 -0.00422625 -0.00364069 -0.0030912 -0.00258163 -0.00211196 -0.0016822 -0.00129376 -0.000948059 -0.000645099 -0.000384877 -0.000165667 1.42579e-05 0.000154898 0.000256252 0.000323928 0.000363529 0.000375058 0.000358513 0.000322462 0.000275472 0.000217543 0.000148675 8.36295e-05 3.71687e-05 9.29217e-06 0 0 9.21556e-06 3.68622e-05 8.294e-05 0.000147449 0.000214293 0.000267377 0.000306701 0.000332265 0.000334627 0.000304347 0.000241423 0.000145857 1.1701e-05 -0.000166993 -0.000390225 -0.000657995 -0.00097184 -0.0013333 -0.00174236 -0.00219904 -0.00270129 -0.00324705 -0.00383634 -0.00446914 -0.0051407 -0.00584625 -0.00658581 -0.00735936 -0.00816049 -0.00898278 -0.00982624 -0.0106909 -0.0115696 -0.0124556 -0.0133487 -0.014249 -0.0151498 -0.0160443 -0.0169326 -0.0178147 -0.0186845 -0.0195363 -0.02037 -0.0211855 -0.021978 -0.0227425 -0.0234789 -0.0241873 -0.0248636 -0.0255038 -0.0261078 -0.0266757 -0.0272044 -0.0276907 -0.0281346 -0.0285361 -0.028893 -0.0292032 -0.0294666 -0.0296833 -0.029852 -0.0299718 -0.0300425 -0.0300642 -0.0300368 -0.0299605 -0.0298352 -0.0296609 -0.0294388 -0.02917 -0.0288546 -0.0284925 -0.028086 -0.0276372 -0.0271463 -0.0266131 -0.0260409 -0.0254329 -0.024789 -0.0241093 -0.0233978 -0.0226586 -0.0218918 -0.0210973 -0.0202801 -0.0194452 -0.0185927 -0.0177225 -0.0168405 -0.0159528 -0.0150593 -0.0141599 -0.0132615 -0.0123706 -0.0114872 -0.0106114 -0.00975015 -0.00891029 -0.00809186 -0.00729486 -0.00652561 -0.00579044 -0.00508936 -0.00442237 -0.00379413 -0.00320931 -0.0026679 -0.00216992 -0.00171732 -0.00131207 -0.000954177 -0.000643635 -0.000378865 -0.000158288 1.80974e-05 0.00015029 0.000244228 0.000305848 0.00033515 0.000332134 0.000306176 0.000266649 0.000213555 0.000146892 8.2627e-05 3.67231e-05 9.18078e-06 0 0 8.66935e-06 3.46774e-05 7.80241e-05 0.00013871 0.000199693 0.000243935 0.000271434 0.000282191 0.00026607 0.000212937 0.000122792 -4.36641e-06 -0.000174662 -0.00039422 -0.000663041 -0.000981125 -0.00134971 -0.00177004 -0.0022421 -0.00276591 -0.00333871 -0.00395777 -0.00462308 -0.00533464 -0.00608674 -0.00687367 -0.00769544 -0.00855204 -0.00943606 -0.0103401 -0.0112642 -0.0122082 -0.0131645 -0.0141252 -0.0150902 -0.0160596 -0.0170262 -0.0179828 -0.0189294 -0.0198659 -0.0207863 -0.0216846 -0.0225608 -0.0234149 -0.0242421 -0.0250377 -0.0258016 -0.026534 -0.0272311 -0.0278894 -0.0285088 -0.0290895 -0.0296286 -0.0301237 -0.0305748 -0.0309817 -0.0313428 -0.0316563 -0.0319223 -0.0321406 -0.0323104 -0.0324309 -0.032502 -0.0325237 -0.0324961 -0.0324191 -0.0322928 -0.0321171 -0.031893 -0.0316214 -0.0313022 -0.0309356 -0.0305233 -0.030067 -0.0295668 -0.0290227 -0.0284374 -0.0278135 -0.0271511 -0.0264501 -0.0257142 -0.0249471 -0.0241487 -0.023319 -0.0224629 -0.0215851 -0.0206857 -0.0197646 -0.0188279 -0.0178816 -0.0169258 -0.0159605 -0.0149928 -0.0140299 -0.0130719 -0.0121187 -0.0111781 -0.0102578 -0.0093578 -0.00847816 -0.00762617 -0.00680914 -0.00602707 -0.00527995 -0.00457341 -0.00391302 -0.00329881 -0.00273077 -0.00221155 -0.0017438 -0.00132753 -0.000962742 -0.000648134 -0.000382419 -0.000165597 2.33168e-06 0.000127488 0.000215991 0.000267842 0.000283041 0.000271654 0.000243751 0.00019933 0.000138392 7.78457e-05 3.45981e-05 8.64952e-06 0 0 7.61097e-06 3.04439e-05 6.84987e-05 0.000121776 0.000172641 0.000203462 0.000214239 0.000204971 0.000164998 8.36562e-05 -3.9053e-05 -0.00020313 -0.000414676 -0.000679792 -0.000998479 -0.00137074 -0.00179732 -0.00227899 -0.00281574 -0.00340757 -0.00405088 -0.00474205 -0.0054811 -0.00626801 -0.007096 -0.0079583 -0.00885489 -0.00978578 -0.0107425 -0.0117166 -0.0127081 -0.013717 -0.0147347 -0.0157526 -0.0167706 -0.0177889 -0.0187997 -0.0197957 -0.0207767 -0.0217428 -0.0226881 -0.0236067 -0.0244985 -0.0253636 -0.0261977 -0.0269968 -0.0277607 -0.0284895 -0.0291804 -0.0298306 -0.0304401 -0.031009 -0.0315354 -0.0320175 -0.0324555 -0.0328492 -0.0331977 -0.0334998 -0.0337556 -0.0339651 -0.0341277 -0.034243 -0.034311 -0.0343317 -0.034305 -0.034231 -0.0341097 -0.0339411 -0.0337257 -0.0334641 -0.0331561 -0.0328019 -0.0324026 -0.0319591 -0.0314716 -0.0309399 -0.030366 -0.0297517 -0.0290969 -0.0284016 -0.0276688 -0.0269012 -0.0260989 -0.0252618 -0.0243942 -0.0235003 -0.0225802 -0.0216338 -0.0206671 -0.019686 -0.0186905 -0.0176806 -0.0166639 -0.0156478 -0.0146324 -0.0136177 -0.0126123 -0.0116246 -0.0106546 -0.00970245 -0.00877637 -0.00788477 -0.00702765 -0.00620499 -0.00542348 -0.00468978 -0.00400389 -0.00336582 -0.00277906 -0.00224713 -0.00177001 -0.00134772 -0.000979439 -0.000664337 -0.000402418 -0.000193682 -3.2026e-05 8.86549e-05 0.00016836 0.000207091 0.000215441 0.000204008 0.00017279 0.000121788 6.85057e-05 3.0447e-05 7.61175e-06 0 0 6.04042e-06 2.41617e-05 5.43638e-05 9.66468e-05 0.000133137 0.00014596 0.000135117 0.000100607 3.141e-05 -8.34959e-05 -0.00024411 -0.000450433 -0.000708341 -0.00102371 -0.00139654 -0.00182683 -0.00231467 -0.00286015 -0.00346326 -0.00412402 -0.00483778 -0.00559991 -0.0064104 -0.00726926 -0.00816849 -0.00910012 -0.0100642 -0.0110606 -0.0120798 -0.0131124 -0.0141582 -0.0152172 -0.0162802 -0.0173378 -0.01839 -0.0194367 -0.0204703 -0.021483 -0.0224747 -0.0234455 -0.0243899 -0.0253024 -0.0261829 -0.0270315 -0.0278449 -0.0286197 -0.0293561 -0.0300539 -0.0307115 -0.0313275 -0.0319018 -0.0324343 -0.0329246 -0.0333721 -0.0337768 -0.0341386 -0.0344576 -0.0347336 -0.0349666 -0.0351567 -0.0353038 -0.0354081 -0.0354695 -0.035488 -0.0354636 -0.0353963 -0.0352861 -0.035133 -0.0349371 -0.0346982 -0.0344163 -0.0340915 -0.0337239 -0.0333135 -0.0328604 -0.0323646 -0.0318267 -0.0312472 -0.0306263 -0.0299638 -0.0292615 -0.028521 -0.0277424 -0.0269255 -0.0260738 -0.0251907 -0.0242762 -0.0233301 -0.0223582 -0.0213659 -0.0203533 -0.0193202 -0.0182746 -0.0172241 -0.0161688 -0.0151086 -0.0140528 -0.0130107 -0.0119824 -0.0109677 -0.00997621 -0.00901734 -0.0080911 -0.00719749 -0.00634436 -0.00553958 -0.00478315 -0.00407507 -0.00341986 -0.00282204 -0.00228162 -0.00179858 -0.00137278 -0.00100404 -0.000692364 -0.000437751 -0.000234313 -7.61614e-05 3.67045e-05 0.000104284 0.000137537 0.00014742 0.000133934 9.70791e-05 5.4607e-05 2.42698e-05 6.06744e-06 0 0 3.95771e-06 1.58308e-05 3.56194e-05 6.33234e-05 8.11806e-05 7.14289e-05 3.40682e-05 -3.09014e-05 -0.000134693 -0.000288519 -0.00049238 -0.000746276 -0.00105566 -0.00142597 -0.00185722 -0.0023494 -0.00290175 -0.00351352 -0.00418469 -0.00491527 -0.00569943 -0.00653133 -0.00741098 -0.00833838 -0.00930421 -0.0102992 -0.0113232 -0.0123764 -0.013448 -0.0145273 -0.0156142 -0.0167088 -0.0178011 -0.0188809 -0.0199483 -0.0210032 -0.022038 -0.0230447 -0.0240234 -0.024974 -0.0258918 -0.0267719 -0.0276142 -0.0284188 -0.0291836 -0.0299066 -0.0305877 -0.031227 -0.0318245 -0.03238 -0.0328937 -0.0333655 -0.0337964 -0.0341874 -0.0345386 -0.0348499 -0.0351226 -0.0353577 -0.0355554 -0.0357155 -0.0358388 -0.0359261 -0.0359774 -0.0359926 -0.0359718 -0.0359148 -0.0358219 -0.0356928 -0.035527 -0.0353236 -0.0350827 -0.0348043 -0.0344872 -0.0341302 -0.0337334 -0.0332968 -0.0328194 -0.0323003 -0.0317393 -0.0311367 -0.0304924 -0.0298065 -0.0290792 -0.0283103 -0.027502 -0.0266564 -0.0257736 -0.0248536 -0.0239012 -0.0229214 -0.0219141 -0.0208794 -0.0198251 -0.0187589 -0.017681 -0.0165912 -0.0154996 -0.0144162 -0.013341 -0.0122739 -0.0112257 -0.0102068 -0.00921743 -0.00825744 -0.00733604 -0.00646242 -0.00563658 -0.00485852 -0.00413394 -0.00346855 -0.00286234 -0.00231532 -0.00182816 -0.00140153 -0.00103544 -0.000729876 -0.000479374 -0.000278458 -0.000127125 -2.53781e-05 3.79409e-05 7.39879e-05 8.27629e-05 6.42659e-05 3.61496e-05 1.60665e-05 4.01662e-06 0 0 1.33966e-06 5.35864e-06 1.20569e-05 2.14345e-05 1.62362e-05 -2.07935e-05 -8.96544e-05 -0.000190347 -0.000334068 -0.000532016 -0.000784192 -0.00109059 -0.00145601 -0.00188521 -0.0023782 -0.00293498 -0.00355372 -0.00423258 -0.00497156 -0.00577067 -0.00662268 -0.00752038 -0.00846376 -0.00945284 -0.0104768 -0.0115249 -0.0125972 -0.0136936 -0.0148021 -0.015911 -0.01702 -0.0181293 -0.0192282 -0.020306 -0.0213626 -0.0223981 -0.0234048 -0.0243751 -0.025309 -0.0262064 -0.0270636 -0.0278766 -0.0286454 -0.0293701 -0.0300502 -0.0306854 -0.0312756 -0.0318209 -0.0323233 -0.0327847 -0.0332052 -0.0335847 -0.0339264 -0.0342331 -0.034505 -0.034742 -0.0349468 -0.0351223 -0.0352684 -0.0353852 -0.0354742 -0.0355371 -0.0355738 -0.0355843 -0.0355686 -0.0355268 -0.0354587 -0.0353645 -0.0352424 -0.0350909 -0.03491 -0.0346996 -0.034457 -0.0341794 -0.0338669 -0.0335195 -0.0331341 -0.0327079 -0.0322407 -0.0317328 -0.031182 -0.0305865 -0.0299463 -0.0292615 -0.0285324 -0.0277596 -0.0269432 -0.026083 -0.0251831 -0.0242473 -0.0232758 -0.0222684 -0.0212329 -0.0201769 -0.0191004 -0.0180036 -0.0168968 -0.015791 -0.0146859 -0.0135817 -0.0124901 -0.0114231 -0.0103806 -0.00936252 -0.00837963 -0.00744252 -0.0065512 -0.00570565 -0.00491296 -0.00418021 -0.00350739 -0.00289451 -0.00234329 -0.00185546 -0.00143104 -0.00107 -0.000767546 -0.00051884 -0.000323887 -0.000182688 -8.40912e-05 -1.69478e-05 1.87423e-05 2.29793e-05 1.29259e-05 5.74482e-06 1.43621e-06 0 0 -1.83691e-06 -7.34764e-06 -1.65322e-05 -2.93906e-05 -6.22326e-05 -0.000131368 -0.000236797 -0.00037852 -0.000567472 -0.00081459 -0.00111987 -0.00148332 -0.00190877 -0.00240005 -0.00295715 -0.00358009 -0.00426569 -0.00501081 -0.00581544 -0.00667958 -0.00759441 -0.00855111 -0.00954967 -0.0105901 -0.01166 -0.012747 -0.0138511 -0.0149722 -0.0160972 -0.0172129 -0.0183192 -0.0194162 -0.0204927 -0.0215373 -0.0225501 -0.0235311 -0.024473 -0.0253687 -0.026218 -0.027021 -0.0277752 -0.0284781 -0.0291297 -0.0297301 -0.030281 -0.0307841 -0.0312396 -0.0316473 -0.0320119 -0.0323379 -0.0326254 -0.0328744 -0.0330904 -0.0332789 -0.03344 -0.0335736 -0.0336845 -0.0337775 -0.0338525 -0.0339096 -0.0339515 -0.0339808 -0.0339975 -0.0340017 -0.0339932 -0.0339721 -0.0339384 -0.0338921 -0.0338304 -0.0337506 -0.0336526 -0.0335366 -0.0333978 -0.0332313 -0.0330371 -0.0328154 -0.0325606 -0.0322672 -0.0319352 -0.0315646 -0.0311509 -0.0306897 -0.0301809 -0.0296246 -0.029019 -0.0283626 -0.0276554 -0.0268972 -0.0260908 -0.0252388 -0.024341 -0.0233975 -0.0224157 -0.0214027 -0.0203587 -0.0192836 -0.0181886 -0.0170849 -0.0159725 -0.0148515 -0.0137349 -0.0126359 -0.0115544 -0.0104904 -0.00945625 -0.00846411 -0.007514 -0.00660593 -0.00574857 -0.00495058 -0.00421196 -0.00353272 -0.00291589 -0.0023645 -0.00187857 -0.00145809 -0.00109917 -0.000797916 -0.000554339 -0.000368435 -0.000229304 -0.000126046 -5.86614e-05 -2.71499e-05 -1.52718e-05 -6.78747e-06 -1.69687e-06 0 0 -5.572e-06 -2.2288e-05 -5.0148e-05 -8.9152e-05 -0.000154226 -0.000260295 -0.000407361 -0.000595422 -0.000834906 -0.00113624 -0.00149943 -0.00192446 -0.00241395 -0.00297049 -0.00359408 -0.00428472 -0.00503768 -0.00584821 -0.00671631 -0.007642 -0.00861461 -0.00962352 -0.0106687 -0.0117502 -0.0128538 -0.0139654 -0.0150849 -0.0162124 -0.0173333 -0.0184331 -0.0195118 -0.0205695 -0.0215944 -0.0225748 -0.0235108 -0.0244022 -0.0252426 -0.0260253 -0.0267503 -0.0274176 -0.0280266 -0.0285764 -0.0290672 -0.0294989 -0.029876 -0.0302029 -0.0304796 -0.0307062 -0.0308903 -0.0310397 -0.0311544 -0.0312344 -0.0312883 -0.0313247 -0.0313435 -0.0313448 -0.0313357 -0.0313233 -0.0313077 -0.0312888 -0.0312707 -0.0312573 -0.0312486 -0.0312447 -0.0312455 -0.0312509 -0.0312609 -0.0312756 -0.0312908 -0.0313026 -0.0313108 -0.0313155 -0.0313095 -0.0312858 -0.0312441 -0.0311847 -0.0310989 -0.0309782 -0.0308226 -0.0306321 -0.0303991 -0.030116 -0.0297829 -0.0293996 -0.0289618 -0.0284654 -0.0279102 -0.0272963 -0.0266245 -0.0258957 -0.0251098 -0.0242668 -0.0233735 -0.0224364 -0.0214557 -0.0204313 -0.0193748 -0.018298 -0.0172009 -0.0160834 -0.0149601 -0.0138453 -0.012739 -0.0116412 -0.0105659 -0.00952717 -0.008525 -0.00755937 -0.00664077 -0.00577966 -0.00497606 -0.00422996 -0.00354595 -0.00292865 -0.00237804 -0.00189412 -0.00147423 -0.00111568 -0.000818481 -0.00058262 -0.000397698 -0.000253307 -0.000149448 -8.61216e-05 -4.84434e-05 -2.15304e-05 -5.3826e-06 0 0 -9.8656e-06 -3.94624e-05 -8.87904e-05 -0.00015785 -0.000259743 -0.000407575 -0.000601344 -0.000841051 -0.00113637 -0.00149697 -0.00192285 -0.00241402 -0.00297155 -0.00359654 -0.00428899 -0.00504889 -0.00586968 -0.00674478 -0.0076742 -0.00865793 -0.0096833 -0.0107376 -0.0118209 -0.0129331 -0.0140582 -0.01518 -0.0162986 -0.017414 -0.0185103 -0.0195716 -0.0205979 -0.0215892 -0.0225334 -0.0234186 -0.0242446 -0.0250114 -0.0257135 -0.026345 -0.026906 -0.0273964 -0.0278178 -0.0281716 -0.0284578 -0.0286765 -0.0288352 -0.0289416 -0.0289957 -0.0289976 -0.0289585 -0.0288901 -0.0287922 -0.0286649 -0.0285203 -0.0283705 -0.0282156 -0.0280555 -0.0279002 -0.0277597 -0.0276338 -0.0275227 -0.0274318 -0.0273666 -0.0273272 -0.0273135 -0.0273255 -0.0273631 -0.0274262 -0.027515 -0.0276238 -0.0277469 -0.0278843 -0.0280361 -0.0281923 -0.0283429 -0.0284879 -0.0286273 -0.028749 -0.0288409 -0.028903 -0.0289354 -0.0289267 -0.0288656 -0.0287522 -0.0285864 -0.0283608 -0.0280679 -0.0277077 -0.0272802 -0.0267841 -0.0262181 -0.0255821 -0.0248763 -0.0241063 -0.023278 -0.0223915 -0.0214466 -0.0204555 -0.0194303 -0.018371 -0.0172775 -0.0161656 -0.0150512 -0.0139342 -0.0128147 -0.0117086 -0.0106317 -0.00958418 -0.00856596 -0.00758955 -0.00666746 -0.00579968 -0.00498622 -0.00423349 -0.00