<?xml version="1.0"?> 
<VTKFile type="StructuredGrid" version="0.1"> 
<StructuredGrid WholeExtent="0 128 0 128 0 0"> 
<Piece Extent="0 128 0 128 0 0"> 
<PointData>
<DataArray type="Float32" Name="u" format="ascii" NumberOfComponents="1"> 
0 0 0 0 0 0 0 0 0 0 0 0 0 0 0 0 0 0 0 0 0 0 0 0 0 0 0 0 0 0 0 0 0 0 0 0 0 0 0 0 0 0 0 0 0 0 0 0 0 0 0 0 0 0 0 0 0 0 0 0 0 0 0 0 0 0 0 0 0 0 0 0 0 0 0 0 0 0 0 0 0 0 0 0 0 0 0 0 0 0 0 0 0 0 0 0 0 0 0 0 0 0 0 0 0 0 0 0 0 0 0 0 0 0 0 0 0 0 0 0 0 0 0 0 0 0 0 0 0 0 -7.35825e-10 -2.9433e-09 -6.62243e-09 -1.17732e-08 -1.7959e-08 -2.47432e-08 -3.21258e-08 -4.01068e-08 -4.69159e-08 -5.07828e-08 -5.17077e-08 -4.96904e-08 -4.1716e-08 -2.47696e-08 1.14888e-09 3.60394e-08 8.10774e-08 1.37438e-07 2.05122e-07 2.84129e-07 3.703e-07 4.59476e-07 5.51657e-07 6.46843e-07 7.35235e-07 8.07034e-07 8.6224e-07 9.00853e-07 9.11935e-07 8.8455e-07 8.18697e-07 7.14375e-07 5.66194e-07 3.68763e-07 1.22082e-07 -1.7385e-07 -5.14667e-07 -8.96004e-07 -1.31786e-06 -1.78024e-06 -2.27016e-06 -2.77465e-06 -3.29371e-06 -3.82733e-06 -4.35992e-06 -4.87588e-06 -5.3752e-06 -5.85788e-06 -6.31329e-06 -6.73079e-06 -7.11039e-06 -7.45207e-06 -7.75476e-06 -8.01739e-06 -8.23994e-06 -8.42242e-06 -8.57137e-06 -8.69331e-06 -8.78826e-06 -8.85621e-06 -8.90384e-06 -8.93784e-06 -8.95821e-06 -8.96496e-06 -8.95808e-06 -8.93757e-06 -8.90344e-06 -8.85568e-06 -8.78761e-06 -8.69255e-06 -8.5705e-06 -8.42146e-06 -8.2389e-06 -8.01628e-06 -7.75361e-06 -7.45087e-06 -7.10917e-06 -6.72957e-06 -6.31208e-06 -5.85669e-06 -5.37405e-06 -4.87479e-06 -4.3589e-06 -3.82639e-06 -3.29286e-06 -2.7739e-06 -2.26951e-06 -1.7797e-06 -1.31743e-06 -8.9568e-07 -5.14444e-07 -1.73725e-07 1.22117e-07 3.6872e-07 5.66083e-07 7.14207e-07 8.18484e-07 8.84304e-07 9.11669e-07 9.00578e-07 8.61966e-07 8.06769e-07 7.34986e-07 6.46617e-07 5.51459e-07 4.59306e-07 3.70159e-07 2.84018e-07 2.05039e-07 1.3738e-07 8.1041e-08 3.60212e-08 1.14546e-09 -2.47617e-08 -4.17004e-08 -4.96705e-08 -5.1686e-08 -5.07609e-08 -4.6895e-08 -4.00885e-08 -3.21108e-08 -2.47313e-08 -1.79502e-08 -1.17674e-08 -6.61915e-09 -2.94184e-09 -7.35461e-10 0 0 -2.9433e-09 -1.17732e-08 -2.64897e-08 -4.70928e-08 -7.1836e-08 -9.89728e-08 -1.28503e-07 -1.60427e-07 -1.87663e-07 -2.03131e-07 -2.06831e-07 -1.98762e-07 -1.66864e-07 -9.90783e-08 4.59553e-09 1.44157e-07 3.24309e-07 5.49753e-07 8.20489e-07 1.13652e-06 1.4812e-06 1.8379e-06 2.20663e-06 2.58737e-06 2.94094e-06 3.22813e-06 3.44896e-06 3.60341e-06 3.64774e-06 3.5382e-06 3.27479e-06 2.8575e-06 2.26478e-06 1.47505e-06 4.88328e-07 -6.95399e-07 -2.05867e-06 -3.58402e-06 -5.27144e-06 -7.12096e-06 -9.08064e-06 -1.10986e-05 -1.31748e-05 -1.53093e-05 -1.74397e-05 -1.95035e-05 -2.15008e-05 -2.34315e-05 -2.52532e-05 -2.69232e-05 -2.84415e-05 -2.98083e-05 -3.10191e-05 -3.20695e-05 -3.29598e-05 -3.36897e-05 -3.42855e-05 -3.47733e-05 -3.5153e-05 -3.54248e-05 -3.56153e-05 -3.57514e-05 -3.58329e-05 -3.58598e-05 -3.58323e-05 -3.57503e-05 -3.56137e-05 -3.54227e-05 -3.51504e-05 -3.47702e-05 -3.4282e-05 -3.36859e-05 -3.29556e-05 -3.20651e-05 -3.10144e-05 -2.98035e-05 -2.84367e-05 -2.69183e-05 -2.52483e-05 -2.34268e-05 -2.14962e-05 -1.94992e-05 -1.74356e-05 -1.53056e-05 -1.31714e-05 -1.10956e-05 -9.07805e-06 -7.1188e-06 -5.26973e-06 -3.58272e-06 -2.05778e-06 -6.94899e-07 4.88468e-07 1.47488e-06 2.26433e-06 2.85683e-06 3.27393e-06 3.53722e-06 3.64668e-06 3.60231e-06 3.44786e-06 3.22708e-06 2.93994e-06 2.58647e-06 2.20584e-06 1.83723e-06 1.48064e-06 1.13607e-06 8.20158e-07 5.49522e-07 3.24164e-07 1.44085e-07 4.58182e-09 -9.90469e-08 -1.66802e-07 -1.98682e-07 -2.06744e-07 -2.03043e-07 -1.8758e-07 -1.60354e-07 -1.28443e-07 -9.89254e-08 -7.18009e-08 -4.70695e-08 -2.64766e-08 -1.17674e-08 -2.94184e-09 0 0 -6.62243e-09 -2.64897e-08 -5.96019e-08 -1.05959e-07 -1.61631e-07 -2.22689e-07 -2.89132e-07 -3.60961e-07 -4.22243e-07 -4.57046e-07 -4.65369e-07 -4.47213e-07 -3.75444e-07 -2.22926e-07 1.03399e-08 3.24354e-07 7.29696e-07 1.23695e-06 1.8461e-06 2.55716e-06 3.3327e-06 4.13529e-06 4.96491e-06 5.82159e-06 6.61711e-06 7.2633e-06 7.76016e-06 8.10768e-06 8.20742e-06 7.96095e-06 7.36827e-06 6.42938e-06 5.09575e-06 3.31887e-06 1.09874e-06 -1.56465e-06 -4.632e-06 -8.06403e-06 -1.18608e-05 -1.60221e-05 -2.04314e-05 -2.49718e-05 -2.96434e-05 -3.4446e-05 -3.92393e-05 -4.38829e-05 -4.83768e-05 -5.27209e-05 -5.68196e-05 -6.05772e-05 -6.39935e-05 -6.70686e-05 -6.97929e-05 -7.21565e-05 -7.41595e-05 -7.58018e-05 -7.71423e-05 -7.82398e-05 -7.90943e-05 -7.97059e-05 -8.01345e-05 -8.04406e-05 -8.06239e-05 -8.06846e-05 -8.06227e-05 -8.04381e-05 -8.01309e-05 -7.97011e-05 -7.90885e-05 -7.8233e-05 -7.71345e-05 -7.57932e-05 -7.41501e-05 -7.21465e-05 -6.97825e-05 -6.70579e-05 -6.39825e-05 -6.05661e-05 -5.68087e-05 -5.27103e-05 -4.83665e-05 -4.38731e-05 -3.92301e-05 -3.44375e-05 -2.96357e-05 -2.49651e-05 -2.04256e-05 -1.60173e-05 -1.18569e-05 -8.06112e-06 -4.63e-06 -1.56352e-06 1.09905e-06 3.31848e-06 5.09475e-06 6.42786e-06 7.36635e-06 7.95874e-06 8.20502e-06 8.1052e-06 7.7577e-06 7.26092e-06 6.61487e-06 5.81956e-06 4.96313e-06 4.13376e-06 3.33143e-06 2.55616e-06 1.84535e-06 1.23642e-06 7.29369e-07 3.24191e-07 1.03091e-08 -2.22856e-07 -3.75304e-07 -4.47035e-07 -4.65174e-07 -4.56848e-07 -4.22055e-07 -3.60796e-07 -2.88997e-07 -2.22582e-07 -1.61552e-07 -1.05906e-07 -5.95723e-08 -2.64766e-08 -6.61915e-09 0 0 -1.17732e-08 -4.70928e-08 -1.05959e-07 -1.88371e-07 -2.87344e-07 -3.95891e-07 -5.14013e-07 -6.41708e-07 -7.50654e-07 -8.12525e-07 -8.27323e-07 -7.95046e-07 -6.67456e-07 -3.96313e-07 1.83821e-08 5.7663e-07 1.29724e-06 2.19901e-06 3.28196e-06 4.54607e-06 5.9248e-06 7.35162e-06 8.82651e-06 1.03495e-05 1.17638e-05 1.29125e-05 1.37958e-05 1.44136e-05 1.4591e-05 1.41528e-05 1.30991e-05 1.143e-05 9.05911e-06 5.90021e-06 1.95331e-06 -2.78159e-06 -8.23467e-06 -1.43361e-05 -2.10858e-05 -2.84838e-05 -3.63226e-05 -4.43944e-05 -5.26993e-05 -6.12373e-05 -6.97588e-05 -7.80141e-05 -8.60032e-05 -9.37261e-05 -0.000101013 -0.000107693 -0.000113766 -0.000119233 -0.000124076 -0.000128278 -0.000131839 -0.000134759 -0.000137142 -0.000139093 -0.000140612 -0.000141699 -0.000142461 -0.000143005 -0.000143331 -0.000143439 -0.000143329 -0.000143001 -0.000142455 -0.000141691 -0.000140602 -0.000139081 -0.000137128 -0.000134743 -0.000131822 -0.000128261 -0.000124058 -0.000119214 -0.000113747 -0.000107673 -0.000100993 -9.37071e-05 -8.59848e-05 -7.79966e-05 -6.97424e-05 -6.12223e-05 -5.26857e-05 -4.43824e-05 -3.63122e-05 -2.84752e-05 -2.10789e-05 -1.43309e-05 -8.23111e-06 -2.7796e-06 1.95387e-06 5.89951e-06 9.05733e-06 1.14273e-05 1.30957e-05 1.41489e-05 1.45867e-05 1.44092e-05 1.37915e-05 1.29083e-05 1.17598e-05 1.03459e-05 8.82334e-06 7.3489e-06 5.92255e-06 4.54429e-06 3.28063e-06 2.19809e-06 1.29666e-06 5.76339e-07 1.83273e-08 -3.96188e-07 -6.67206e-07 -7.94728e-07 -8.26976e-07 -8.12174e-07 -7.5032e-07 -6.41416e-07 -5.13772e-07 -3.95702e-07 -2.87203e-07 -1.88278e-07 -1.05906e-07 -4.70695e-08 -1.17674e-08 0 0 -1.79549e-08 -7.18197e-08 -1.61594e-07 -2.87279e-07 -4.35565e-07 -5.93144e-07 -7.60017e-07 -9.36183e-07 -1.0793e-06 -1.14703e-06 -1.13938e-06 -1.05633e-06 -8.31514e-07 -3.98531e-07 2.42615e-07 1.09193e-06 2.16599e-06 3.48141e-06 5.03818e-06 6.8363e-06 8.76609e-06 1.07179e-05 1.26916e-05 1.46874e-05 1.64721e-05 1.78128e-05 1.87095e-05 1.91622e-05 1.8925e-05 1.77522e-05 1.56438e-05 1.25998e-05 8.51113e-06 3.26897e-06 -3.12673e-06 -1.0676e-05 -1.92663e-05 -2.87853e-05 -3.9233e-05 -5.06094e-05 -6.26153e-05 -7.49516e-05 -8.76183e-05 -0.000100615 -0.000113591 -0.000126192 -0.000138419 -0.000150271 -0.000161506 -0.000171878 -0.000181388 -0.000190036 -0.000197783 -0.000204588 -0.000210453 -0.000215377 -0.000219484 -0.000222901 -0.000225627 -0.000227663 -0.000229141 -0.000230197 -0.000230829 -0.000231039 -0.000230826 -0.00023019 -0.000229131 -0.00022765 -0.000225611 -0.000222882 -0.000219463 -0.000215353 -0.000210427 -0.000204561 -0.000197754 -0.000190007 -0.000181358 -0.000171848 -0.000161476 -0.000150242 -0.00013839 -0.000126164 -0.000113565 -0.000100591 -8.75964e-05 -7.49319e-05 -6.25981e-05 -5.05947e-05 -3.9221e-05 -2.87759e-05 -1.92593e-05 -1.06713e-05 -3.1243e-06 3.26945e-06 8.5099e-06 1.25971e-05 1.56399e-05 1.77474e-05 1.89196e-05 1.91564e-05 1.87036e-05 1.7807e-05 1.64666e-05 1.46823e-05 1.26871e-05 1.07139e-05 8.76277e-06 6.83364e-06 5.03616e-06 3.47996e-06 2.16504e-06 1.0914e-06 2.42448e-07 -3.98423e-07 -8.31211e-07 -1.05592e-06 -1.1389e-06 -1.14654e-06 -1.07882e-06 -9.35758e-07 -7.59663e-07 -5.92861e-07 -4.35353e-07 -2.87138e-07 -1.61515e-07 -7.17844e-08 -1.79461e-08 0 0 -2.47269e-08 -9.89076e-08 -2.22542e-07 -3.9563e-07 -5.92884e-07 -7.89013e-07 -9.84018e-07 -1.1779e-06 -1.31459e-06 -1.33803e-06 -1.24822e-06 -1.04515e-06 -6.56233e-07 -8.87263e-09 8.96932e-07 2.06118e-06 3.47502e-06 5.12959e-06 7.02489e-06 9.16092e-06 1.13651e-05 1.3465e-05 1.54605e-05 1.73516e-05 1.88335e-05 1.96012e-05 1.96547e-05 1.89941e-05 1.73361e-05 1.43976e-05 1.01786e-05 4.67901e-06 -2.19191e-06 -1.0525e-05 -2.03202e-05 -3.15775e-05 -4.41266e-05 -5.77971e-05 -7.2589e-05 -8.85022e-05 -0.000105171 -0.000122229 -0.000139676 -0.000157513 -0.000175328 -0.000192711 -0.000209662 -0.000226181 -0.000241973 -0.000256742 -0.000270489 -0.000283213 -0.000294827 -0.000305241 -0.000314456 -0.000322472 -0.00032937 -0.000335233 -0.000340061 -0.000343854 -0.000346719 -0.000348765 -0.000349992 -0.000350399 -0.000349987 -0.000348756 -0.000346705 -0.000343835 -0.000340038 -0.000335206 -0.00032934 -0.000322438 -0.000314419 -0.000305202 -0.000294786 -0.000283171 -0.000270446 -0.000256698 -0.000241929 -0.000226138 -0.00020962 -0.000192671 -0.000175289 -0.000157477 -0.000139643 -0.000122198 -0.000105143 -8.84782e-05 -7.25684e-05 -5.77799e-05 -4.41128e-05 -3.15669e-05 -2.03127e-05 -1.05203e-05 -2.18973e-06 4.67895e-06 1.01766e-05 1.43941e-05 1.73314e-05 1.89886e-05 1.96487e-05 1.95949e-05 1.88272e-05 1.73457e-05 1.5455e-05 1.34601e-05 1.13609e-05 9.15739e-06 7.0221e-06 5.12748e-06 3.47353e-06 2.06025e-06 8.96481e-07 -8.94211e-09 -6.56019e-07 -1.04475e-06 -1.2477e-06 -1.33746e-06 -1.31401e-06 -1.17737e-06 -9.83563e-07 -7.8864e-07 -5.92598e-07 -3.95438e-07 -2.22434e-07 -9.88595e-08 -2.47149e-08 0 0 -3.20891e-08 -1.28356e-07 -2.88802e-07 -5.13426e-07 -7.593e-07 -9.83497e-07 -1.18602e-06 -1.36686e-06 -1.45653e-06 -1.38552e-06 -1.15384e-06 -7.61495e-07 -1.41613e-07 7.72663e-07 1.98133e-06 3.4844e-06 5.22431e-06 7.14354e-06 9.24208e-06 1.15199e-05 1.3722e-05 1.5593e-05 1.71331e-05 1.83421e-05 1.88478e-05 1.82776e-05 1.66314e-05 1.39094e-05 9.82436e-06 4.08907e-06 -3.29647e-06 -1.23322e-05 -2.305e-05 -3.54816e-05 -4.9627e-05 -6.54863e-05 -8.28156e-05 -0.000101371 -0.000121154 -0.000142162 -0.000163989 -0.000186226 -0.000208872 -0.000231929 -0.00025497 -0.000277572 -0.000299733 -0.000321455 -0.000342414 -0.000362284 -0.000381068 -0.000398764 -0.000415208 -0.000430236 -0.000443848 -0.000456044 -0.000466799 -0.000476089 -0.000483913 -0.000490273 -0.000495196 -0.000498711 -0.000500819 -0.00050152 -0.000500813 -0.000498698 -0.000495177 -0.000490248 -0.000483883 -0.000476053 -0.000466758 -0.000455998 -0.000443799 -0.000430183 -0.000415153 -0.000398707 -0.000381009 -0.000362225 -0.000342354 -0.000321397 -0.000299676 -0.000277516 -0.000254916 -0.000231878 -0.000208824 -0.000186181 -0.000163948 -0.000142126 -0.000121121 -0.000101343 -8.27915e-05 -6.54664e-05 -4.96112e-05 -3.54696e-05 -2.30415e-05 -1.2327e-05 -3.29409e-06 4.08899e-06 9.82227e-06 1.39058e-05 1.66266e-05 1.82719e-05 1.88417e-05 1.8336e-05 1.71271e-05 1.55874e-05 1.37169e-05 1.15156e-05 9.23846e-06 7.14066e-06 5.22213e-06 3.48289e-06 1.98043e-06 7.72256e-07 -1.4163e-07 -7.61228e-07 -1.15338e-06 -1.38494e-06 -1.45589e-06 -1.36625e-06 -1.18547e-06 -9.83036e-07 -7.58939e-07 -5.13179e-07 -2.88663e-07 -1.28295e-07 -3.20737e-08 0 0 -4.00416e-08 -1.60166e-07 -3.60374e-07 -6.40665e-07 -9.34814e-07 -1.1766e-06 -1.36601e-06 -1.50306e-06 -1.5051e-06 -1.2895e-06 -8.56257e-07 -2.0537e-07 7.12346e-07 1.94608e-06 3.49582e-06 5.36157e-06 7.41388e-06 9.52328e-06 1.16898e-05 1.39133e-05 1.58365e-05 1.71019e-05 1.77094e-05 1.7659e-05 1.65151e-05 1.3842e-05 9.63967e-06 3.90816e-06 -3.61031e-06 -1.31735e-05 -2.47814e-05 -3.8434e-05 -5.40632e-05 -7.1601e-05 -9.10473e-05 -0.000112402 -0.000135333 -0.000159508 -0.000184927 -0.00021159 -0.00023907 -0.000266943 -0.000295207 -0.000323864 -0.000352517 -0.000380774 -0.000408633 -0.000436094 -0.000462828 -0.000488505 -0.000513125 -0.000536687 -0.000558926 -0.000579573 -0.000598628 -0.000616093 -0.000631771 -0.000645468 -0.000657184 -0.000666919 -0.000674571 -0.000680035 -0.000683311 -0.000684401 -0.000683303 -0.000680018 -0.000674546 -0.000666887 -0.000657144 -0.000645421 -0.000631718 -0.000616034 -0.000598565 -0.000579505 -0.000558855 -0.000536614 -0.000513049 -0.000488428 -0.000462751 -0.000436017 -0.000408557 -0.000380699 -0.000352445 -0.000323795 -0.000295142 -0.000266881 -0.000239013 -0.000211537 -0.000184879 -0.000159465 -0.000135296 -0.00011237 -9.102e-05 -7.15786e-05 -5.40455e-05 -3.84208e-05 -2.47722e-05 -1.31679e-05 -3.60787e-06 3.90798e-06 9.63736e-06 1.3838e-05 1.651e-05 1.76532e-05 1.77033e-05 1.70958e-05 1.58308e-05 1.39081e-05 1.16852e-05 9.51949e-06 7.41084e-06 5.35931e-06 3.49429e-06 1.94517e-06 7.11956e-07 -2.05353e-07 -8.55936e-07 -1.28897e-06 -1.50446e-06 -1.5024e-06 -1.36539e-06 -1.17605e-06 -9.34375e-07 -6.40362e-07 -3.60204e-07 -1.6009e-07 -4.00226e-08 0 0 -4.68089e-08 -1.87236e-07 -4.2128e-07 -7.48942e-07 -1.07698e-06 -1.31214e-06 -1.45444e-06 -1.50386e-06 -1.37055e-06 -9.64649e-07 -2.86158e-07 6.64923e-07 1.90148e-06 3.43641e-06 5.2697e-06 7.40136e-06 9.61233e-06 1.16835e-05 1.3615e-05 1.54067e-05 1.66084e-05 1.67698e-05 1.5891e-05 1.39719e-05 1.05646e-05 5.22118e-06 -2.05844e-06 -1.12742e-05 -2.25826e-05 -3.61398e-05 -5.19458e-05 -7.00008e-05 -9.00897e-05 -0.000111998 -0.000135725 -0.000161271 -0.00018823 -0.000216198 -0.000245174 -0.000275158 -0.000305786 -0.000336691 -0.000367875 -0.000399338 -0.000430817 -0.000462052 -0.000493042 -0.000523787 -0.000554021 -0.000583479 -0.00061216 -0.000640064 -0.000666818 -0.000692049 -0.000715757 -0.000737941 -0.000758173 -0.000776024 -0.000791494 -0.000804583 -0.000814994 -0.000822428 -0.000826887 -0.00082837 -0.000826877 -0.000822409 -0.000814965 -0.000804546 -0.000791448 -0.000775971 -0.000758112 -0.000737874 -0.000715684 -0.000691972 -0.000666737 -0.000639979 -0.000612073 -0.00058339 -0.000553932 -0.000523697 -0.000492953 -0.000461964 -0.000430732 -0.000399255 -0.000367796 -0.000336615 -0.000305714 -0.000275091 -0.000245112 -0.000216142 -0.000188179 -0.000161226 -0.000135685 -0.000111964 -9.00617e-05 -6.99782e-05 -5.19283e-05 -3.61269e-05 -2.25739e-05 -1.12693e-05 -2.05669e-06 5.22033e-06 1.05618e-05 1.39676e-05 1.58857e-05 1.6764e-05 1.66024e-05 1.5401e-05 1.36098e-05 1.16789e-05 9.60845e-06 7.3983e-06 5.26746e-06 3.43488e-06 1.90058e-06 6.64558e-07 -2.86096e-07 -9.64274e-07 -1.36998e-06 -1.50321e-06 -1.45379e-06 -1.31154e-06 -1.07648e-06 -7.48593e-07 -4.21084e-07 -1.87148e-07 -4.67871e-08 0 0 -5.06158e-08 -2.02463e-07 -4.55542e-07 -8.09852e-07 -1.14334e-06 -1.33397e-06 -1.38172e-06 -1.28661e-06 -9.63096e-07 -3.25642e-07 6.25751e-07 1.89108e-06 3.42164e-06 5.16872e-06 7.13231e-06 9.31242e-06 1.13883e-05 1.3039e-05 1.42648e-05 1.50654e-05 1.49369e-05 1.33749e-05 1.03795e-05 5.95064e-06 -2.74322e-07 -8.65814e-06 -1.92008e-05 -3.19023e-05 -4.67071e-05 -6.35595e-05 -8.24596e-05 -0.000103407 -0.000125988 -0.000149786 -0.000174803 -0.000201038 -0.000228058 -0.000255432 -0.00028316 -0.000311242 -0.000339507 -0.000367783 -0.000396071 -0.000424371 -0.000452716 -0.00048114 -0.000509643 -0.000538224 -0.000566799 -0.000595282 -0.000623673 -0.000651973 -0.000679722 -0.000706461 -0.000732191 -0.000756911 -0.000779894 -0.000800412 -0.000818465 -0.000834054 -0.000846615 -0.000855586 -0.000860966 -0.000862757 -0.000860957 -0.000855567 -0.000846587 -0.000834017 -0.000818421 -0.00080036 -0.000779835 -0.000756846 -0.000732121 -0.000706386 -0.000679643 -0.000651891 -0.000623589 -0.000595195 -0.000566711 -0.000538136 -0.000509554 -0.000481052 -0.000452629 -0.000424286 -0.000395988 -0.000367703 -0.00033943 -0.000311169 -0.000283091 -0.000255367 -0.000227998 -0.000200983 -0.000174754 -0.000149743 -0.00012595 -0.000103375 -8.2433e-05 -6.35382e-05 -4.66908e-05 -3.18906e-05 -1.91933e-05 -8.65414e-06 -2.73284e-07 5.94932e-06 1.03763e-05 1.33705e-05 1.49317e-05 1.506e-05 1.42594e-05 1.3034e-05 1.13837e-05 9.30863e-06 7.12932e-06 5.16648e-06 3.4201e-06 1.89019e-06 6.25409e-07 -3.2556e-07 -9.6272e-07 -1.28607e-06 -1.38112e-06 -1.33337e-06 -1.14282e-06 -8.09482e-07 -4.55333e-07 -2.0237e-07 -5.05926e-08 0 0 -5.14621e-08 -2.05849e-07 -4.63159e-07 -8.23394e-07 -1.13391e-06 -1.24207e-06 -1.14788e-06 -8.5132e-07 -2.82743e-07 6.2752e-07 1.87947e-06 3.4731e-06 5.27282e-06 7.14299e-06 9.08364e-06 1.10947e-05 1.27417e-05 1.35898e-05 1.36391e-05 1.28896e-05 1.08221e-05 6.91714e-06 1.17484e-06 -6.40481e-06 -1.60018e-05 -2.7796e-05 -4.17874e-05 -5.79761e-05 -7.59839e-05 -9.54327e-05 -0.000116323 -0.000138653 -0.000161758 -0.000184967 -0.000208282 -0.000231703 -0.000254816 -0.000277211 -0.000298886 -0.000319842 -0.000340234 -0.000360218 -0.000379795 -0.000398964 -0.000418215 -0.000438039 -0.000458435 -0.000479405 -0.00050116 -0.000523913 -0.000547665 -0.000572414 -0.000597637 -0.00062281 -0.000647931 -0.000673002 -0.000696932 -0.00071863 -0.000738096 -0.000755331 -0.000769434 -0.000779507 -0.000785549 -0.00078756 -0.000785541 -0.000779492 -0.000769412 -0.000755302 -0.000738061 -0.000718588 -0.000696885 -0.000672951 -0.000647875 -0.00062275 -0.000597574 -0.000572348 -0.000547597 -0.000523843 -0.000501088 -0.000479332 -0.000458361 -0.000437964 -0.000418139 -0.000398888 -0.000379719 -0.000360143 -0.00034016 -0.000319769 -0.000298815 -0.000277142 -0.000254751 -0.000231641 -0.000208225 -0.000184914 -0.00016171 -0.000138611 -0.000116286 -9.54018e-05 -7.59584e-05 -5.7956e-05 -4.17723e-05 -2.77854e-05 -1.59952e-05 -6.40164e-06 1.17517e-06 6.91524e-06 1.08186e-05 1.28852e-05 1.36341e-05 1.35847e-05 1.27367e-05 1.10903e-05 9.07989e-06 7.13996e-06 5.27051e-06 3.47154e-06 1.87858e-06 6.2717e-07 -2.82687e-07 -8.50993e-07 -1.14739e-06 -1.24153e-06 -1.13341e-06 -8.23027e-07 -4.62953e-07 -2.05757e-07 -5.14392e-08 0 0 -4.9348e-08 -1.97392e-07 -4.44132e-07 -7.89569e-07 -1.04868e-06 -1.03646e-06 -7.5289e-07 -1.97984e-07 6.7051e-07 1.89484e-06 3.475e-06 5.41099e-06 7.45501e-06 9.35924e-06 1.11237e-05 1.27483e-05 1.36726e-05 1.33358e-05 1.17381e-05 8.8793e-06 4.26398e-06 -2.60342e-06 -1.17229e-05 -2.30944e-05 -3.66177e-05 -5.21923e-05 -6.98182e-05 -8.94955e-05 -0.000110413 -0.000131759 -0.000153535 -0.000175739 -0.000197399 -0.00021754 -0.000236162 -0.000253266 -0.000268505 -0.000281533 -0.00029235 -0.000300956 -0.000307967 -0.000313997 -0.000319046 -0.000323115 -0.000327313 -0.000332748 -0.00033942 -0.00034733 -0.000357106 -0.000369374 -0.000384134 -0.000401387 -0.000420564 -0.000441094 -0.000462978 -0.000486215 -0.000509289 -0.00053068 -0.000550388 -0.000568415 -0.000583452 -0.000594192 -0.000600635 -0.000602781 -0.000600631 -0.000594183 -0.000583439 -0.000568399 -0.000550369 -0.000530657 -0.000509263 -0.000486187 -0.000462948 -0.000441062 -0.00042053 -0.000401352 -0.000384097 -0.000369334 -0.000357064 -0.000347286 -0.000339373 -0.000332698 -0.00032726 -0.00032306 -0.000318988 -0.000313936 -0.000307904 -0.000300891 -0.000292284 -0.000281466 -0.000268439 -0.000253201 -0.000236099 -0.000217479 -0.000197342 -0.000175687 -0.000153488 -0.000131718 -0.000110377 -8.94654e-05 -6.9794e-05 -5.21735e-05 -3.66039e-05 -2.30853e-05 -1.17178e-05 -2.60166e-06 4.2631e-06 8.87649e-06 1.1734e-05 1.33309e-05 1.36674e-05 1.27433e-05 1.11192e-05 9.35532e-06 7.4518e-06 5.4086e-06 3.47341e-06 1.89392e-06 6.70124e-07 -1.9797e-07 -7.52607e-07 -1.03603e-06 -1.04824e-06 -7.89229e-07 -4.43941e-07 -1.97307e-07 -4.93268e-08 0 0 -4.12853e-08 -1.65141e-07 -3.71568e-07 -6.60565e-07 -8.21928e-07 -6.45451e-07 -1.31135e-07 7.2102e-07 1.90765e-06 3.42538e-06 5.27423e-06 7.45417e-06 9.58972e-06 1.13053e-05 1.2601e-05 1.34768e-05 1.32767e-05 1.13446e-05 7.68066e-06 2.28476e-06 -5.21729e-06 -1.51997e-05 -2.76625e-05 -4.26056e-05 -5.95295e-05 -7.79347e-05 -9.78212e-05 -0.000119189 -0.000140737 -0.000161164 -0.000180471 -0.000198657 -0.000214486 -0.000226721 -0.000235361 -0.000240408 -0.000241681 -0.000238999 -0.000232364 -0.000221775 -0.000208399 -0.000193405 -0.000176793 -0.000158562 -0.00014051 -0.000124435 -0.000110335 -9.82127e-05 -8.91792e-05 -8.4348e-05 -8.37192e-05 -8.72926e-05 -9.45362e-05 -0.000104918 -0.000118438 -0.000135095 -0.00015302 -0.000170339 -0.000187054 -0.000203164 -0.000216996 -0.000226876 -0.000232804 -0.000234781 -0.000232806 -0.000226879 -0.000217 -0.000203169 -0.000187061 -0.000170347 -0.000153029 -0.000135106 -0.00011845 -0.000104931 -9.45497e-05 -8.7306e-05 -8.37318e-05 -8.4359e-05 -8.91876e-05 -9.82176e-05 -0.000110336 -0.00012443 -0.0001405 -0.000158546 -0.00017677 -0.000193376 -0.000208363 -0.000221733 -0.000232316 -0.000238946 -0.000241624 -0.000240349 -0.000235301 -0.00022666 -0.000214426 -0.0001986 -0.000180417 -0.000161114 -0.000140692 -0.000119149 -9.77878e-05 -7.79073e-05 -5.95079e-05 -4.25895e-05 -2.76516e-05 -1.51932e-05 -5.21449e-06 2.2846e-06 7.67824e-06 1.13406e-05 1.32717e-05 1.34716e-05 1.2596e-05 1.13007e-05 9.58565e-06 7.45093e-06 5.27186e-06 3.42378e-06 1.9067e-06 7.20601e-07 -1.31155e-07 -6.45224e-07 -8.21605e-07 -6.60299e-07 -3.71418e-07 -1.65075e-07 -4.12687e-08 0 0 -2.42858e-08 -9.71431e-08 -2.18572e-07 -3.88572e-07 -3.87919e-07 2.61318e-09 7.83025e-07 1.95331e-06 3.43966e-06 5.16824e-06 7.13905e-06 9.35209e-06 1.12984e-05 1.24692e-05 1.28643e-05 1.24839e-05 1.06497e-05 6.68372e-06 5.85947e-07 -7.64363e-06 -1.81016e-05 -3.08846e-05 -4.59926e-05 -6.34257e-05 -8.21447e-05 -0.000101111 -0.000120324 -0.000139784 -0.000157698 -0.000172272 -0.000183506 -0.0001914 -0.000194594 -0.000191726 -0.000182798 -0.000167809 -0.0001469 -0.000120209 -8.77374e-05 -4.9485e-05 -7.22505e-06 3.7269e-05 8.3997e-05 0.000132959 0.000181692 0.000227732 0.00027108 0.000311735 0.000348075 0.000378478 0.000402943 0.00042147 0.000434411 0.000442115 0.000444582 0.000441812 0.000435818 0.000428612 0.000420193 0.000410562 0.000401604 0.000395204 0.000391362 0.000390078 0.000391353 0.000395185 0.000401576 0.000410525 0.000420147 0.000428557 0.000435756 0.000441743 0.000444506 0.000442034 0.000434326 0.000421383 0.000402855 0.000378391 0.000347991 0.000311655 0.000271006 0.000227665 0.000181634 0.000132911 8.39598e-05 3.7243e-05 -7.23938e-06 -4.94875e-05 -8.77284e-05 -0.00012019 -0.000146871 -0.000167772 -0.000182755 -0.000191677 -0.000194541 -0.000191346 -0.000183452 -0.000172219 -0.000157648 -0.000139739 -0.000120284 -0.000101076 -8.21155e-05 -6.34024e-05 -4.59752e-05 -3.08723e-05 -1.80939e-05 -7.63992e-06 5.86383e-07 6.68166e-06 1.06459e-05 1.24791e-05 1.28592e-05 1.24641e-05 1.12937e-05 9.34807e-06 7.13589e-06 5.16587e-06 3.43802e-06 1.95232e-06 7.82568e-07 2.52008e-09 -3.87819e-07 -3.88449e-07 -2.18503e-07 -9.71122e-08 -2.42781e-08 0 0 1.65055e-09 6.60221e-09 1.4855e-08 2.64088e-08 2.53343e-07 9.07736e-07 1.98959e-06 3.4989e-06 5.26654e-06 7.1234e-06 9.06946e-06 1.11047e-05 1.25812e-05 1.28508e-05 1.19135e-05 9.76942e-06 5.79157e-06 -6.46923e-07 -9.54607e-06 -2.09059e-05 -3.4389e-05 -4.96582e-05 -6.67134e-05 -8.55546e-05 -0.000104463 -0.000121721 -0.000137327 -0.000151281 -0.000161296 -0.000165082 -0.000162639 -0.000153967 -0.000137721 -0.000112557 -7.8473e-05 -3.54703e-05 1.58377e-05 7.48376e-05 0.000141529 0.000215913 0.000295556 0.000378026 0.000463324 0.000551449 0.000639294 0.000723754 0.000804826 0.000882513 0.000954658 0.0010191 0.00107585 0.0011249 0.00116628 0.0012 0.00122608 0.00124451 0.00125723 0.00126617 0.00127135 0.00127277 0.00127235 0.00127205 0.00127187 0.0012718 0.00127184 0.00127201 0.00127229 0.00127268 0.00127125 0.00126606 0.00125709 0.00124436 0.00122592 0.00119983 0.0011661 0.00112472 0.00107566 0.00101891 0.000954471 0.000882331 0.000804652 0.000723589 0.000639142 0.000551311 0.000463202 0.000377921 0.000295468 0.000215844 0.000141479 7.48042e-05 1.58208e-05 -3.54718e-05 -7.84606e-05 -0.000112533 -0.000137688 -0.000153927 -0.000162593 -0.000165034 -0.000161247 -0.000151233 -0.000137282 -0.000121679 -0.000104427 -8.55238e-05 -6.66886e-05 -4.96391e-05 -3.43752e-05 -2.08971e-05 -9.54163e-06 -6.45981e-07 5.78987e-06 9.76593e-06 1.19089e-05 1.28456e-05 1.2576e-05 1.11e-05 9.06549e-06 7.12018e-06 5.26409e-06 3.4972e-06 1.98856e-06 9.07203e-07 2.53123e-07 2.63223e-08 1.48063e-08 6.58058e-09 1.64515e-09 0 0 3.65237e-08 1.46095e-07 3.28713e-07 5.84379e-07 1.10186e-06 2.06992e-06 3.48856e-06 5.35778e-06 7.3883e-06 9.29086e-06 1.10655e-05 1.27121e-05 1.34379e-05 1.24501e-05 9.74862e-06 5.33351e-06 -1.29766e-06 -1.06473e-05 -2.27154e-05 -3.75019e-05 -5.40794e-05 -7.15204e-05 -8.98247e-05 -0.000108992 -0.000126485 -0.000139764 -0.000148829 -0.000153681 -0.000151532 -0.000139595 -0.000117871 -8.63592e-05 -4.38695e-05 1.07885e-05 7.76148e-05 0.000156609 0.000246532 0.000346141 0.000455436 0.000574419 0.000699944 0.000828867 0.000961188 0.00109691 0.0012323 0.00136363 0.0014909 0.00161412 0.00173057 0.00183753 0.00193501 0.002023 0.00210106 0.00216875 0.00222606 0.00227299 0.0023112 0.00234235 0.00236643 0.00238344 0.00239524 0.00240366 0.0024087 0.00241037 0.00240867 0.00240359 0.00239514 0.00238331 0.00236626 0.00234215 0.00231098 0.00227275 0.00222579 0.00216847 0.00210077 0.00202269 0.00193469 0.00183721 0.00173025 0.00161381 0.0014906 0.00136334 0.00123202 0.00109665 0.000960956 0.000828658 0.00069976 0.000574261 0.000455305 0.000346035 0.000246451 0.000156553 7.7581e-05 1.07746e-05 -4.38661e-05 -8.63412e-05 -0.000117841 -0.000139556 -0.000151487 -0.000153633 -0.000148781 -0.000139717 -0.000126442 -0.000108954 -8.97919e-05 -7.14934e-05 -5.40584e-05 -3.74868e-05 -2.27058e-05 -1.06423e-05 -1.29639e-06 5.33195e-06 9.74505e-06 1.24452e-05 1.34324e-05 1.27068e-05 1.10607e-05 9.28671e-06 7.3849e-06 5.35523e-06 3.48683e-06 2.06883e-06 1.10122e-06 5.84014e-07 3.28508e-07 1.46004e-07 3.65009e-08 0 0 8.14326e-08 3.2573e-07 7.32893e-07 1.30292e-06 2.17247e-06 3.4782e-06 5.22011e-06 7.39819e-06 9.58385e-06 1.13485e-05 1.26921e-05 1.36147e-05 1.32157e-05 1.05942e-05 5.75042e-06 -1.31574e-06 -1.08517e-05 -2.31048e-05 -3.80751e-05 -5.57627e-05 -7.45131e-05 -9.26722e-05 -0.00011024 -0.000127216 -0.000140282 -0.000146117 -0.000144723 -0.000136099 -0.000117244 -8.51577e-05 -3.98406e-05 1.87075e-05 9.11787e-05 0.000178265 0.000279967 0.000396284 0.000525249 0.000664896 0.000815223 0.000976232 0.00114434 0.00131596 0.0014911 0.00166976 0.00184805 0.00202209 0.00219188 0.00235742 0.00251573 0.00266384 0.00280174 0.00292944 0.00304589 0.00315004 0.00324189 0.00332143 0.00338958 0.00344722 0.00349436 0.003531 0.00355846 0.00357807 0.00358982 0.00359372 0.00358977 0.00357797 0.00355832 0.00353081 0.00349413 0.00344695 0.00338927 0.00332109 0.00324152 0.00314965 0.00304548 0.00292902 0.00280131 0.0026634 0.00251529 0.00235699 0.00219146 0.00202168 0.00184766 0.00166939 0.00149076 0.00131565 0.00114405 0.000975977 0.000815002 0.000664708 0.000525094 0.000396161 0.000279875 0.000178201 9.11404e-05 1.86919e-05 -3.98367e-05 -8.51379e-05 -0.000117212 -0.000136058 -0.000144678 -0.00014607 -0.000140234 -0.000127172 -0.0001102 -9.26378e-05 -7.44846e-05 -5.57407e-05 -3.80596e-05 -2.30949e-05 -1.08465e-05 -1.31448e-06 5.74861e-06 1.05902e-05 1.32104e-05 1.36091e-05 1.26867e-05 1.13435e-05 9.57949e-06 7.39472e-06 5.21757e-06 3.47644e-06 2.17132e-06 1.30221e-06 7.32491e-07 3.25551e-07 8.13879e-08 0 0 1.37476e-07 5.49905e-07 1.23729e-06 2.19962e-06 3.48003e-06 5.12163e-06 7.12441e-06 9.48839e-06 1.16321e-05 1.29742e-05 1.35145e-05 1.32532e-05 1.12614e-05 6.61019e-06 -7.00329e-07 -1.06702e-05 -2.31041e-05 -3.78069e-05 -5.47785e-05 -7.40189e-05 -9.30303e-05 -0.000109315 -0.000122872 -0.000133703 -0.000137925 -0.000131657 -0.000114899 -8.76515e-05 -4.72712e-05 8.88344e-06 8.08126e-05 0.000168516 0.00027164 0.00038983 0.000523086 0.000671408 0.000832059 0.0010023 0.00118213 0.00137155 0.00156714 0.00176549 0.00196659 0.00217044 0.00237392 0.00257388 0.00277034 0.00296328 0.00315008 0.00332812 0.0034974 0.00365791 0.00380788 0.00394556 0.00407093 0.00418401 0.0042842 0.0043709 0.00444411 0.00450384 0.0045502 0.00458331 0.00460316 0.00460975 0.0046031 0.00458319 0.00455003 0.00450361 0.00444383 0.00437057 0.00428382 0.0041836 0.00407049 0.00394508 0.00380738 0.00365739 0.00349687 0.00332759 0.00314955 0.00296275 0.00276982 0.00257338 0.00237343 0.00216998 0.00196615 0.00176508 0.00156676 0.0013712 0.00118182 0.00100203 0.000831823 0.000671211 0.000522926 0.000389705 0.000271548 0.000168454 8.0778e-05 8.87202e-06 -4.72635e-05 -8.76287e-05 -0.000114866 -0.000131616 -0.00013788 -0.000133657 -0.000122829 -0.000109275 -9.29952e-05 -7.39902e-05 -5.47566e-05 -3.77912e-05 -2.3094e-05 -1.06651e-05 -6.99376e-07 6.608e-06 1.12571e-05 1.32478e-05 1.35088e-05 1.29685e-05 1.16269e-05 9.484e-06 7.12101e-06 5.11909e-06 3.47825e-06 2.19848e-06 1.23664e-06 5.49619e-07 1.37405e-07 0 0 2.04655e-07 8.1862e-07 1.84189e-06 3.27448e-06 5.02453e-06 7.00019e-06 9.20148e-06 1.16284e-05 1.35331e-05 1.41679e-05 1.35327e-05 1.16275e-05 7.57508e-06 4.98035e-07 -9.60361e-06 -2.27299e-05 -3.80551e-05 -5.47536e-05 -7.28255e-05 -9.22706e-05 -0.000109631 -0.000121448 -0.000127722 -0.000128453 -0.000119415 -9.63837e-05 -5.93584e-05 -8.33933e-06 5.83855e-05 0.000142528 0.000244089 0.000363067 0.000497515 0.000645483 0.000806972 0.000981982 0.00116696 0.00135835 0.00155616 0.00176038 0.00196836 0.00217745 0.00238764 0.00259895 0.00280989 0.003019 0.00322627 0.00343169 0.00363362 0.00383037 0.00402196 0.00420838 0.00438703 0.00455531 0.0047132 0.00486072 0.00499505 0.00511336 0.00521567 0.00530196 0.00537046 0.00541937 0.00544871 0.00545847 0.00544864 0.00541924 0.00537026 0.0053017 0.00521535 0.005113 0.00499463 0.00486026 0.00471271 0.00455478 0.00438648 0.00420781 0.00402138 0.00382978 0.00363302 0.0034311 0.00322568 0.00301842 0.00280933 0.00259841 0.00238712 0.00217695 0.00196789 0.00175994 0.00155576 0.001357