<?xml version="1.0"?> 
<VTKFile type="StructuredGrid" version="0.1"> 
<StructuredGrid WholeExtent="0 128 0 128 0 0"> 
<Piece Extent="0 128 0 128 0 0"> 
<PointData>
<DataArray type="Float32" Name="u" format="ascii" NumberOfComponents="1"> 
0 0 0 0 0 0 0 0 0 0 0 0 0 0 0 0 0 0 0 0 0 0 0 0 0 0 0 0 0 0 0 0 0 0 0 0 0 0 0 0 0 0 0 0 0 0 0 0 0 0 0 0 0 0 0 0 0 0 0 0 0 0 0 0 0 0 0 0 0 0 0 0 0 0 0 0 0 0 0 0 0 0 0 0 0 0 0 0 0 0 0 0 0 0 0 0 0 0 0 0 0 0 0 0 0 0 0 0 0 0 0 0 0 0 0 0 0 0 0 0 0 0 0 0 0 0 0 0 0 0 2.08175e-07 8.327e-07 1.87357e-06 3.3308e-06 4.99416e-06 6.65344e-06 8.30865e-06 9.95978e-06 1.14863e-05 1.27678e-05 1.38042e-05 1.45955e-05 1.50469e-05 1.50635e-05 1.46452e-05 1.37922e-05 1.24583e-05 1.05974e-05 8.20959e-06 5.29482e-06 1.84401e-06 -2.15191e-06 -6.69295e-06 -1.17791e-05 -1.73902e-05 -2.35059e-05 -3.01265e-05 -3.72517e-05 -4.48386e-05 -5.2844e-05 -6.12681e-05 -7.01108e-05 -7.93116e-05 -8.88099e-05 -9.86057e-05 -0.000108699 -0.000119016 -0.000129481 -0.000140095 -0.000150858 -0.000161685 -0.000172489 -0.00018327 -0.00019403 -0.000204673 -0.000215106 -0.00022533 -0.000235344 -0.000245052 -0.000254359 -0.000263265 -0.000271769 -0.000279783 -0.000287219 -0.000294077 -0.000300358 -0.000305991 -0.000310909 -0.000315112 -0.000318599 -0.000321334 -0.000323278 -0.000324431 -0.000324794 -0.000324367 -0.000323149 -0.000321143 -0.000318346 -0.000314798 -0.000310537 -0.000305563 -0.000299876 -0.000293545 -0.000286639 -0.000279159 -0.000271104 -0.000262564 -0.000253626 -0.000244292 -0.00023456 -0.000224528 -0.00021429 -0.000203848 -0.000193201 -0.000182442 -0.000171666 -0.000160872 -0.00015006 -0.000139316 -0.000128725 -0.000118287 -0.000108002 -9.79425e-05 -8.81837e-05 -7.8725e-05 -6.95665e-05 -6.07678e-05 -5.23886e-05 -4.4429e-05 -3.68888e-05 -2.98102e-05 -2.32353e-05 -1.71641e-05 -1.15965e-05 -6.55204e-06 -2.04989e-06 1.90989e-06 5.32732e-06 8.21203e-06 1.05737e-05 1.24122e-05 1.37277e-05 1.45663e-05 1.49741e-05 1.49511e-05 1.44973e-05 1.37071e-05 1.26746e-05 1.13998e-05 9.88286e-06 8.24307e-06 6.59989e-06 4.95332e-06 3.30334e-06 1.85813e-06 8.25836e-07 2.06459e-07 0 0 8.327e-07 3.3308e-06 7.4943e-06 1.33232e-05 1.99766e-05 2.66138e-05 3.32346e-05 3.98391e-05 4.59453e-05 5.10712e-05 5.52168e-05 5.83821e-05 6.01876e-05 6.02539e-05 5.8581e-05 5.51688e-05 4.98332e-05 4.23897e-05 3.28384e-05 2.11793e-05 7.37604e-06 -8.60765e-06 -2.67718e-05 -4.71164e-05 -6.95607e-05 -9.40238e-05 -0.000120506 -0.000149007 -0.000179354 -0.000211376 -0.000245073 -0.000280443 -0.000317246 -0.00035524 -0.000394423 -0.000434796 -0.000476062 -0.000517924 -0.000560381 -0.000603433 -0.000646738 -0.000689954 -0.000733081 -0.000776118 -0.000818691 -0.000860425 -0.00090132 -0.000941375 -0.000980209 -0.00101744 -0.00105306 -0.00108707 -0.00111913 -0.00114888 -0.00117631 -0.00120143 -0.00122396 -0.00124364 -0.00126045 -0.0012744 -0.00128533 -0.00129311 -0.00129772 -0.00129918 -0.00129747 -0.0012926 -0.00128457 -0.00127338 -0.00125919 -0.00124215 -0.00122225 -0.0011995 -0.00117418 -0.00114656 -0.00111664 -0.00108442 -0.00105025 -0.0010145 -0.000977167 -0.000938241 -0.00089811 -0.000857161 -0.000815391 -0.000772802 -0.000729768 -0.000686663 -0.000643488 -0.000600242 -0.000557266 -0.000514901 -0.000473148 -0.000432006 -0.00039177 -0.000352735 -0.0003149 -0.000278266 -0.000243071 -0.000209555 -0.000177716 -0.000147555 -0.000119241 -9.29411e-05 -6.86563e-05 -4.63862e-05 -2.62081e-05 -8.19957e-06 7.63957e-06 2.13093e-05 3.28481e-05 4.22947e-05 4.96489e-05 5.49109e-05 5.82651e-05 5.98963e-05 5.98044e-05 5.79893e-05 5.48282e-05 5.06982e-05 4.55993e-05 3.95314e-05 3.29723e-05 2.63996e-05 1.98133e-05 1.32134e-05 7.43252e-06 3.30334e-06 8.25836e-07 0 0 1.87357e-06 7.4943e-06 1.68622e-05 2.99772e-05 4.49474e-05 5.9881e-05 7.47779e-05 8.9638e-05 0.000103377 0.00011491 0.000124238 0.00013136 0.000135422 0.000135571 0.000131807 0.00012413 0.000112125 9.53768e-05 7.38864e-05 4.76534e-05 1.65961e-05 -1.93672e-05 -6.02365e-05 -0.000106012 -0.000156511 -0.000211554 -0.000271138 -0.000335265 -0.000403547 -0.000475596 -0.000551413 -0.000630998 -0.000713804 -0.000799289 -0.000887451 -0.000978291 -0.00107114 -0.00116533 -0.00126086 -0.00135772 -0.00145516 -0.0015524 -0.00164943 -0.00174627 -0.00184205 -0.00193596 -0.00202797 -0.00211809 -0.00220547 -0.00228923 -0.00236938 -0.00244592 -0.00251805 -0.00258497 -0.0026467 -0.00270322 -0.00275392 -0.00279818 -0.00283601 -0.00286739 -0.002892 -0.0029095 -0.00291988 -0.00292314 -0.0029193 -0.00290835 -0.00289028 -0.00286511 -0.00283318 -0.00279483 -0.00275007 -0.00269888 -0.0026419 -0.00257975 -0.00251243 -0.00243994 -0.00236307 -0.00228264 -0.00219862 -0.00211104 -0.00202075 -0.00192861 -0.00183463 -0.0017388 -0.00164198 -0.00154499 -0.00144785 -0.00135054 -0.00125385 -0.00115853 -0.00106458 -0.000972014 -0.000881483 -0.000793653 -0.000708525 -0.000626099 -0.00054691 -0.000471498 -0.000399861 -0.000331999 -0.000268292 -0.000209118 -0.000154477 -0.000104369 -5.89683e-05 -1.8449e-05 1.7189e-05 4.79459e-05 7.39082e-05 9.5163e-05 0.00011171 0.000123549 0.000131097 0.000134767 0.00013456 0.000130476 0.000123364 0.000114071 0.000102598 8.89457e-05 7.41877e-05 5.9399e-05 4.45798e-05 2.97301e-05 1.67232e-05 7.43252e-06 1.85813e-06 0 0 3.3308e-06 1.33232e-05 2.99772e-05 5.32928e-05 7.99065e-05 0.000106455 0.000132938 0.000159357 0.000183781 0.000204285 0.000220867 0.000233528 0.00024075 0.000241016 0.000234324 0.000220675 0.000199333 0.000169559 0.000131354 8.47171e-05 2.95042e-05 -3.44306e-05 -0.000107087 -0.000188466 -0.000278243 -0.000376095 -0.000482023 -0.000596027 -0.000717417 -0.000845505 -0.00098029 -0.00112177 -0.00126899 -0.00142096 -0.00157769 -0.00173918 -0.00190425 -0.0020717 -0.00224152 -0.00241373 -0.00258695 -0.00275982 -0.00293232 -0.00310447 -0.00327476 -0.0034417 -0.00360528 -0.0037655 -0.00392084 -0.00406975 -0.00421223 -0.0043483 -0.00447653 -0.00459551 -0.00470524 -0.00480572 -0.00489586 -0.00497454 -0.00504179 -0.00509759 -0.00514134 -0.00517244 -0.0051909 -0.0051967 -0.00518986 -0.00517039 -0.00513828 -0.00509354 -0.00503677 -0.00496859 -0.00488901 -0.00479801 -0.00469671 -0.00458622 -0.00446654 -0.00433767 -0.00420102 -0.00405802 -0.00390867 -0.00375296 -0.00359244 -0.00342864 -0.00326157 -0.00309121 -0.00291907 -0.00274665 -0.00257395 -0.00240097 -0.00222906 -0.00205961 -0.00189259 -0.00172802 -0.00156708 -0.00141094 -0.0012596 -0.00111306 -0.000972285 -0.000838218 -0.000710863 -0.00059022 -0.000476963 -0.000371765 -0.000274625 -0.000185545 -0.000104833 -3.27983e-05 3.05583e-05 8.52371e-05 0.000131392 0.000169179 0.000198596 0.000219644 0.000233061 0.000239585 0.000239217 0.000231957 0.000219313 0.000202793 0.000182397 0.000158126 0.000131889 0.000105598 7.92531e-05 5.28535e-05 2.97301e-05 1.32134e-05 3.30334e-06 0 0 4.98511e-06 1.99404e-05 4.4866e-05 7.97617e-05 0.000119536 0.000159098 0.000198447 0.000237583 0.000273594 0.000303564 0.000327494 0.000345384 0.00035495 0.000353908 0.000342256 0.000319996 0.000286027 0.000239248 0.00017966 0.000107262 2.18564e-05 -7.67545e-05 -0.000188571 -0.000313593 -0.000451305 -0.000601192 -0.000763254 -0.000937491 -0.00112284 -0.00131822 -0.00152365 -0.00173912 -0.00196314 -0.00219424 -0.00243242 -0.00267767 -0.0029282 -0.00318219 -0.00343965 -0.00370057 -0.00396289 -0.00422456 -0.00448556 -0.00474589 -0.00500332 -0.00525558 -0.00550268 -0.00574462 -0.00597911 -0.00620384 -0.00641882 -0.00662405 -0.00681742 -0.00699681 -0.00716223 -0.00731367 -0.0074495 -0.00756807 -0.00766938 -0.00775344 -0.00781934 -0.00786619 -0.00789399 -0.00790273 -0.00789243 -0.00786309 -0.00781472 -0.00774731 -0.00766179 -0.00755906 -0.00743913 -0.007302 -0.00714932 -0.00698275 -0.00680229 -0.00660793 -0.00640182 -0.00618605 -0.00596064 -0.00572559 -0.00548319 -0.00523574 -0.00498325 -0.00472572 -0.00446539 -0.00420451 -0.00394308 -0.0036811 -0.00342063 -0.00316372 -0.00291038 -0.0026606 -0.00241617 -0.00217888 -0.00194873 -0.00172572 -0.00151132 -0.00130697 -0.0011127 -0.000928483 -0.000755376 -0.000594421 -0.000445618 -0.000308965 -0.000184958 -7.4091e-05 2.36366e-05 0.000108224 0.000179884 0.000238828 0.000285056 0.000318568 0.000340466 0.000351852 0.000352728 0.000343093 0.000325216 0.000301369 0.000271552 0.000235764 0.000196893 0.000157827 0.000118566 7.91089e-05 4.44988e-05 1.97772e-05 4.94431e-06 0 0 6.61724e-06 2.6469e-05 5.95552e-05 0.000105876 0.000158519 0.000210572 0.000262035 0.000312908 0.000359249 0.000397115 0.000426506 0.000447423 0.000456799 0.000451568 0.000431729 0.000397283 0.000346777 0.000278758 0.000193225 9.01792e-05 -3.05909e-05 -0.000169296 -0.000325935 -0.000500508 -0.000692248 -0.000900386 -0.00112492 -0.00136586 -0.00162168 -0.00189087 -0.00217343 -0.00246937 -0.00277663 -0.00309314 -0.00341892 -0.00375396 -0.0040958 -0.00444198 -0.00479249 -0.00514735 -0.00550376 -0.00585895 -0.00621293 -0.00656568 -0.00691421 -0.00725552 -0.00758961 -0.00791648 -0.00823308 -0.00853637 -0.00882634 -0.009103 -0.00936356 -0.00960521 -0.00982795 -0.0100318 -0.0102146 -0.0103741 -0.0105104 -0.0106234 -0.010712 -0.010775 -0.0108124 -0.0108241 -0.0108103 -0.0107708 -0.0107057 -0.0106151 -0.0105001 -0.0103619 -0.0102005 -0.0100159 -0.00981042 -0.00958609 -0.00934298 -0.00908107 -0.00880319 -0.00851213 -0.0082079 -0.0078905 -0.00756298 -0.0072284 -0.00688675 -0.00653804 -0.00618526 -0.00583142 -0.00547651 -0.00512054 -0.00476627 -0.00441647 -0.00407114 -0.00373029 -0.00339635 -0.00307175 -0.00275652 -0.00245063 -0.00215612 -0.00187502 -0.00160733 -0.00135305 -0.00111365 -0.000890627 -0.00068397 -0.000493682 -0.000320503 -0.000165171 -2.76868e-05 9.19496e-05 0.000193968 0.000278599 0.000345842 0.000395697 0.00042962 0.000449069 0.000454043 0.000444542 0.000423613 0.000394306 0.000356619 0.000310554 0.000260017 0.000208916 0.000157251 0.000105022 5.90747e-05 2.62554e-05 6.56386e-06 0 0 8.2272e-06 3.29088e-05 7.40448e-05 0.000131635 0.000196854 0.000260876 0.000323702 0.00038533 0.000440747 0.000484938 0.000517904 0.000539645 0.000546297 0.000533996 0.000502743 0.000452537 0.000381584 0.000288088 0.00017205 3.3469e-05 -0.000127838 -0.000312054 -0.000519179 -0.000749213 -0.00100107 -0.00127368 -0.00156703 -0.00188112 -0.00221394 -0.00256344 -0.00292965 -0.00331254 -0.00370944 -0.00411766 -0.00453719 -0.00496804 -0.00540705 -0.00585106 -0.00630006 -0.00675406 -0.00720955 -0.00766301 -0.00811444 -0.00856384 -0.00900745 -0.00944153 -0.00986607 -0.0102811 -0.0106828 -0.0110673 -0.0114348 -0.0117852 -0.0121149 -0.0124207 -0.0127024 -0.0129601 -0.0131911 -0.0133926 -0.0135648 -0.0137075 -0.0138194 -0.0138989 -0.013946 -0.0139609 -0.0139433 -0.0138935 -0.0138114 -0.0136969 -0.0135516 -0.013377 -0.0131731 -0.0129399 -0.01268 -0.0123963 -0.0120886 -0.0117571 -0.0114051 -0.0110363 -0.0106504 -0.0102477 -0.00983182 -0.00940661 -0.00897206 -0.00852817 -0.00807869 -0.00762738 -0.00717425 -0.00671928 -0.00626598 -0.00581785 -0.00537489 -0.0049371 -0.00450762 -0.00408957 -0.00368296 -0.00328779 -0.00290671 -0.00254237 -0.00219477 -0.00186392 -0.00155179 -0.00126038 -0.000989683 -0.000739696 -0.000511466 -0.000306038 -0.000123412 3.64124e-05 0.000173644 0.00028849 0.000380953 0.000451031 0.000500524 0.000531235 0.000543161 0.000536304 0.000514504 0.000481602 0.000437599 0.000382495 0.000321259 0.000258864 0.000195308 0.000130592 7.3458e-05 3.2648e-05 8.162e-06 0 0 9.81497e-06 3.92599e-05 8.83348e-05 0.00015704 0.000234543 0.000310012 0.000383447 0.000454849 0.000518088 0.000567034 0.000601688 0.00062205 0.000623444 0.000601193 0.000555297 0.000485758 0.000390447 0.000267239 0.000116134 -6.28687e-05 -0.000269884 -0.000505029 -0.000768303 -0.00105971 -0.00137778 -0.00172107 -0.00208957 -0.00248329 -0.00289962 -0.00333595 -0.00379229 -0.00426862 -0.00476158 -0.00526779 -0.00578723 -0.00631992 -0.00686195 -0.00740943 -0.00796235 -0.00852072 -0.00908027 -0.00963672 -0.0101901 -0.0107404 -0.011283 -0.0118136 -0.0123321 -0.0128384 -0.0133281 -0.0137967 -0.0142442 -0.0146705 -0.0150716 -0.0154433 -0.0157856 -0.0160986 -0.016379 -0.0166236 -0.0168325 -0.0170057 -0.0171414 -0.0172378 -0.017295 -0.017313 -0.0172917 -0.0172312 -0.0171316 -0.0169927 -0.0168164 -0.0166045 -0.0163569 -0.0160737 -0.0157581 -0.0154133 -0.0150392 -0.014636 -0.0142077 -0.0137584 -0.0132883 -0.0127972 -0.0122897 -0.0117704 -0.0112392 -0.0106961 -0.0101457 -0.00959241 -0.00903629 -0.00847732 -0.00791976 -0.00736786 -0.00682161 -0.00628103 -0.00574998 -0.00523232 -0.00472806 -0.0042372 -0.00376306 -0.003309 -0.00287501 -0.00246109 -0.0020698 -0.00170369 -0.00136276 -0.00104701 -0.000757848 -0.000496692 -0.000263538 -5.8387e-05 0.000118911 0.000268502 0.000390389 0.000484569 0.000553178 0.00059835 0.000620083 0.00061838 0.000597888 0.000563259 0.000514492 0.000451587 0.000380621 0.000307671 0.000232737 0.00015582 8.76485e-05 3.89549e-05 9.73873e-06 0 0 1.12474e-05 4.49896e-05 0.000101227 0.000179958 0.000268361 0.000353611 0.000435708 0.000514652 0.000583198 0.000634099 0.000667356 0.000682969 0.000675482 0.000639438 0.000574838 0.000481682 0.000357564 0.000200079 9.22637e-06 -0.000214994 -0.000472557 -0.000763438 -0.00108764 -0.00144515 -0.00183408 -0.00225249 -0.00270038 -0.00317777 -0.00368139 -0.00420798 -0.00475754 -0.00533007 -0.00592145 -0.00652757 -0.00714843 -0.00778403 -0.00842971 -0.00908086 -0.00973745 -0.0103995 -0.011062 -0.01172 -0.0123735 -0.0130225 -0.0136618 -0.0142861 -0.0148956 -0.0154902 -0.0160648 -0.0166142 -0.0171383 -0.0176373 -0.0181064 -0.018541 -0.018941 -0.0193064 -0.0196337 -0.0199192 -0.0201629 -0.0203648 -0.020523 -0.0206354 -0.020702 -0.020723 -0.0206981 -0.0206276 -0.0205114 -0.0203495 -0.0201439 -0.0198966 -0.0196076 -0.019277 -0.0189084 -0.0185054 -0.018068 -0.0175963 -0.0170949 -0.0165686 -0.0160173 -0.0154411 -0.0148451 -0.0142345 -0.0136093 -0.0129695 -0.0123202 -0.0116668 -0.0110091 -0.0103472 -0.00968598 -0.00903052 -0.00838077 -0.00773673 -0.00710301 -0.00648422 -0.00588035 -0.00529142 -0.00472147 -0.00417459 -0.00365076 -0.00314999 -0.00267549 -0.00223044 -0.00181485 -0.00142872 -0.0010739 -0.000752259 -0.000463792 -0.0002085 1.36334e-05 0.000202623 0.000358469 0.000481171 0.000573145 0.000636808 0.00067216 0.000679201 0.000663357 0.000630055 0.000579296 0.000511079 0.00043259 0.000351012 0.000266347 0.000178594 0.000100459 4.46485e-05 1.11621e-05 0 0 1.23913e-05 4.95651e-05 0.000111521 0.00019826 0.000295087 0.000387307 0.000474919 0.000557925 0.000628002 0.000676829 0.000704406 0.000710733 0.000689654 0.000635013 0.000546812 0.000425049 0.000267135 7.04774e-05 -0.000164923 -0.000439066 -0.00075168 -0.00110249 -0.00149151 -0.00191873 -0.00238167 -0.00287785 -0.00340729 -0.00396997 -0.00456191 -0.00517912 -0.00582159 -0.00648932 -0.00717744 -0.00788106 -0.00860017 -0.00933478 -0.0100795 -0.0108291 -0.0115834 -0.0123426 -0.0131009 -0.0138528 -0.0145984 -0.0153375 -0.0160645 -0.0167736 -0.0174649 -0.0181383 -0.0187883 -0.0194092 -0.020001 -0.0205637 -0.0210923 -0.0215817 -0.0220319 -0.0224428 -0.0228106 -0.0231313 -0.023405 -0.0236317 -0.0238091 -0.0239352 -0.02401 -0.0240334 -0.0240056 -0.0239264 -0.0237959 -0.0236142 -0.0233833 -0.0231055 -0.0227808 -0.0224092 -0.0219946 -0.0215409 -0.0210483 -0.0205167 -0.0199511 -0.0193567 -0.0187336 -0.0180816 -0.0174065 -0.0167138 -0.0160036 -0.0152759 -0.0145363 -0.0137907 -0.013039 -0.0122813 -0.011523 -0.0107699 -0.0100218 -0.00927884 -0.00854629 -0.00782947 -0.00712837 -0.00644301 -0.00577819 -0.00513876 -0.00452471 -0.00393604 -0.00337668 -0.00285054 -0.00235762 -0.00189793 -0.00147387 -0.00108786 -0.000739898 -0.000429977 -0.000158323 7.48393e-05 0.000269511 0.000425693 0.000545989 0.000633005 0.000686742 0.000707199 0.000700501 0.000672772 0.000624012 0.000554221 0.000471653 0.000384561 0.000292944 0.000196804 0.000110702 4.92011e-05 1.23003e-05 0 0 1.32466e-05 5.29864e-05 0.000119219 0.000211946 0.00031472 0.000411099 0.000501082 0.000584668 0.000652502 0.000695225 0.000712838 0.000705341 0.000665959 0.000587918 0.000471218 0.000315859 0.000119158 -0.000121566 -0.000406313 -0.000735084 -0.00110725 -0.0015222 -0.00197992 -0.00248042 -0.00302055 -0.00359717 -0.00421029 -0.00485989 -0.00554118 -0.00624936 -0.00698443 -0.00774639 -0.00852955 -0.00932824 -0.0101425 -0.0109722 -0.0118114 -0.0126541 -0.0135003 -0.01435 -0.015197 -0.0160352 -0.0168646 -0.0176853 -0.0184911 -0.0192759 -0.0200398 -0.0207826 -0.0214986 -0.0221818 -0.0228322 -0.0234498 -0.0240294 -0.0245655 -0.0250583 -0.0255077 -0.0259097 -0.0262601 -0.0265589 -0.0268062 -0.0269998 -0.0271373 -0.0272189 -0.0272444 -0.0272139 -0.0271275 -0.0269851 -0.0267868 -0.0265347 -0.0262313 -0.0258765 -0.0254702 -0.0250167 -0.0245199 -0.0239801 -0.0233971 -0.0227762 -0.0221228 -0.021437 -0.0207187 -0.0199738 -0.0192082 -0.0184221 -0.0176153 -0.016794 -0.0159643 -0.0151262 -0.0142797 -0.0134309 -0.0125859 -0.0117447 -0.0109074 -0.0100798 -0.00926807 -0.00847212 -0.00769197 -0.00693324 -0.00620154 -0.00549687 -0.00481924 -0.00417337 -0.00356398 -0.00299107 -0.00245465 -0.00195777 -0.00150351 -0.00109186 -0.000722818 -0.00039696 -0.000114848 0.000123517 0.000318135 0.000471709 0.00058694 0.000663828 0.000702374 0.000709319 0.000691407 0.000648638 0.000581012 0.00049781 0.000408316 0.00031253 0.000210451 0.000118379 5.26127e-05 1.31532e-05 0 0 1.38134e-05 5.52535e-05 0.00012432 0.000221014 0.000327261 0.000424988 0.000514195 0.000594882 0.000656696 0.000689286 0.000692652 0.000666794 0.000604399 0.000498153 0.000348057 0.000154111 -8.63652e-05 -0.000376051 -0.000714946 -0.00110305 -0.00153928 -0.00202256 -0.00255288 -0.00313024 -0.00375073 -0.00441045 -0.00510938 -0.00584753 -0.00661921 -0.00741873 -0.00824608 -0.00910127 -0.00997779 -0.0108691 -0.0117753 -0.0126963 -0.0136254 -0.014556 -0.0154881 -0.0164216 -0.0173501 -0.018267 -0.0191723 -0.020066 -0.0209417 -0.0217931 -0.0226203 -0.0234232 -0.0241957 -0.024932 -0.0256319 -0.0262955 -0.0269175 -0.0274924 -0.0280203 -0.0285012 -0.0289309 -0.0293054 -0.0296246 -0.0298885 -0.030095 -0.0302417 -0.0303286 -0.0303558 -0.0303232 -0.030231 -0.030079 -0.0298673 -0.0295982 -0.0292739 -0.0288946 -0.0284601 -0.0279746 -0.0274424 -0.0268633 -0.0262375 -0.0255702 -0.0248669 -0.0241276 -0.0233523 -0.022547 -0.0217179 -0.0208648 -0.0199878 -0.0190932 -0.0181875 -0.0172705 -0.0163423 -0.0154095 -0.0144786 -0.0135495 -0.0126223 -0.0117036 -0.0108 -0.00991159 -0.00903831 -0.0081866 -0.00736291 -0.00656724 -0.00579959 -0.00506557 -0.00437077 -0.00371521 -0.00309887 -0.00252559 -0.00199919 -0.00151967 -0.00108702 -0.000702276 -0.00036644 -7.95151e-05 0.000158498 0.000350306 0.000498613 0.00060342 0.000664726 0.000689813 0.000685963 0.000653176 0.000591452 0.000511062 0.000422279 0.000325103 0.000219533 0.000123487 5.48833e-05 1.37208e-05 0 0 1.39886e-05 5.59542e-05 0.000125897 0.000223817 0.000330228 0.000425645 0.000510067 0.000583494 0.00063467 0.000652336 0.000636494 0.000587144 0.000496565 0.00035704 0.000168569 -6.88492e-05 -0.000357752 -0.000700678 -0.00109763 -0.0015486 -0.00205191 -0.00260588 -0.0032105 -0.00386578 -0.00456691 -0.00530908 -0.00609229 -0.00691654 -0.00777518 -0.00866152 -0.00957559 -0.0105174 -0.0114795 -0.0124547 -0.013443 -0.0144442 -0.0154513 -0.016457 -0.0174612 -0.018464 -0.0194585 -0.0204381 -0.0214027 -0.0223522 -0.0232804 -0.0241809 -0.0250537 -0.0258989 -0.0267106 -0.0274828 -0.0282157 -0.0289092 -0.0295581 -0.0301574 -0.0307069 -0.0312068 -0.0316531 -0.0320417 -0.0323728 -0.0326463 -0.0328601 -0.033012 -0.0331019 -0.03313 -0.0330962 -0.0330006 -0.0328431 -0.0326237 -0.0323447 -0.0320082 -0.0316143 -0.0311629 -0.0306581 -0.0301037 -0.0294999 -0.0288467 -0.0281491 -0.0274125 -0.0266368 -0.0258221 -0.0249741 -0.0240989 -0.0231963 -0.0222665 -0.0213158 -0.0203505 -0.0193706 -0.0183761 -0.0173739 -0.0163707 -0.0153665 -0.0143613 -0.0133623 -0.0123767 -0.0114045 -0.0104457 -0.00950759 -0.00859742 -0.00771518 -0.0068609 -0.00604112 -0.00526242 -0.0045248 -0.00382826 -0.0031775 -0.00257724 -0.00202747 -0.00152821 -0.00108104 -0.00068759 -0.000347847 -6.18123e-05 0.000173084 0.000359412 0.000497174 0.000586369 0.000634687 0.000649817 0.000631759 0.000580513 0.000507253 0.00042315 0.000328205 0.000222417 0.00012511 5.56043e-05 1.39011e-05 0 0 1.36691e-05 5.46762e-05 0.000123021 0.000218705 0.00032114 0.00040974 0.000484505 0.000545435 0.000580507 0.000577699 0.00053701 0.000458441 0.000334052 0.000155902 -7.60065e-05 -0.000361675 -0.000703318 -0.00110315 -0.00156116 -0.00207737 -0.0026493 -0.00327449 -0.00395295 -0.00468467 -0.0054638 -0.0062845 -0.00714676 -0.00805059 -0.00898827 -0.00995209 -0.010942 -0.0119581 -0.0129922 -0.0140361 -0.0150898 -0.0161534 -0.0172191 -0.0182793 -0.019334 -0.0203833 -0.0214202 -0.0224381 -0.0234369 -0.0244166 -0.0253712 -0.0262948 -0.0271874 -0.0280488 -0.0288739 -0.0296573 -0.030399 -0.031099 -0.0317526 -0.0323554 -0.0329073 -0.0334083 -0.0338549 -0.0342436 -0.0345744 -0.0348474 -0.0350605 -0.0352118 -0.0353015 -0.0353294 -0.0352956 -0.0352001 -0.0350429 -0.034824 -0.0345453 -0.0342089 -0.0338147 -0.0333627 -0.0328564 -0.0322995 -0.0316918 -0.0310335 -0.0303291 -0.0295833 -0.0287961 -0.0279674 -0.0271028 -0.0262074 -0.0252814 -0.0243248 -0.0233435 -0.0223436 -0.0213251 -0.0202879 -0.0192389 -0.018185 -0.017126 -0.016062 -0.0150006 -0.0139495 -0.0129085 -0.0118779 -0.0108655 -0.0098796 -0.00892008 -0.00798697 -0.00708789 -0.00623044 -0.00541463 -0.00464046 -0.00391366 -0.00323998 -0.00261942 -0.00205198 -0.00154003 -0.00108595 -0.00068974 -0.000351392 -6.86549e-05 0.000160726 0.000336751 0.00045942 0.000536647 0.000576348 0.000578522 0.000543169 0.000482225 0.000407627 0.000319375 0.000217468 0.000122326 5.4367e-05 1.35918e-05 0 0 1.28549e-05 5.14194e-05 0.000115694 0.000205678 0.000299996 0.000377273 0.000437509 0.000480703 0.000494207 0.000465373 0.000394199 0.000280686 0.000116858 -0.00010526 -0.000385669 -0.000724368 -0.00112306 -0.00158346 -0.00210556 -0.00268935 -0.00333144 -0.00402839 -0.0047802 -0.00558689 -0.0064414 -0.0073367 -0.00827279 -0.00924967 -0.0102585 -0.0112904 -0.0123454 -0.0134236 -0.0145158 -0.0156133 -0.0167159 -0.0178237 -0.0189287 -0.0200231 -0.0211067 -0.0221796 -0.0232352 -0.024267 -0.025275 -0.0262592 -0.0272143 -0.0281349 -0.0290211 -0.0298729 -0.0306858 -0.0314555 -0.0321818 -0.0328649 -0.0335011 -0.0340866 -0.0346214 -0.0351057 -0.0355365 -0.0359111 -0.0362295 -0.0364917 -0.0366961 -0.0368413 -0.0369273 -0.0369539 -0.0369213 -0.0368295 -0.0366784 -0.0364681 -0.0362001 -0.035876 -0.0354957 -0.0350594 -0.0345697 -0.0340295 -0.0334389 -0.0327978 -0.03211 -0.0313791 -0.0306053 -0.0297884 -0.028933 -0.0280436 -0.0271201 -0.0261626 -0.0251763 -0.0241668 -0.0231339 -0.0220776 -0.0210046 -0.0199214 -0.018828 -0.0177244 -0.0166185 -0.0155183 -0.0144237 -0.0133348 -0.0122604 -0.0112095 -0.0101819 -0.00917781 -0.00820587 -0.00727483 -0.0063847 -0.00553547 -0.00473407 -0.00398742 -0.00329551 -0.00265835 -0.00207925 -0.00156153 -0.00110519 -0.00071024 -0.000374909 -9.74463e-05 0.000122149 0.000283877 0.000395693 0.000465556 0.000493464 0.000479418 0.00043598 0.000375712 0.000298614 0.000204686 0.000115136 5.11715e-05 1.27929e-05 0 0 1.1546e-05 4.61839e-05 0.000103914 0.000184736 0.000266797 0.000328245 0.000369079 0.0003893 0.000375772 0.000315359 0.000208061 5.38792e-05 -0.000155015 -0.000426447 -0.000760417 -0.00115693 -0.00161699 -0.00214161 -0.0027308 -0.00338456 -0.00409833 -0.00486757 -0.00569227 -0.00657244 -0.0074997 -0.00846567 -0.00947036 -0.0105138 -0.0115858 -0.0126765 -0.0137858 -0.0149136 -0.0160503 -0.0171862 -0.0183211 -0.0194552 -0.0205802 -0.0216882 -0.0227791 -0.0238528 -0.0249034 -0.0259248 -0.026917 -0.02788 -0.0288095 -0.0297012 -0.0305551 -0.0313711 -0.0321462 -0.0328773 -0.0335642 -0.0342071 -0.0348034 -0.0353508 -0.0358493 -0.0362989 -0.0366978 -0.0370441 -0.0373379 -0.0375793 -0.0377671 -0.0379004 -0.0379792 -0.0380036 -0.0379734 -0.0378888 -0.0377497 -0.0375561 -0.037309 -0.0370095 -0.0366575 -0.036253 -0.0357979 -0.035294 -0.0347413 -0.0341397 -0.0334919 -0.0328001 -0.0320645 -0.0312851 -0.0304649 -0.0296074 -0.0287124 -0.0277799 -0.0268143 -0.0258201 -0.0247971 -0.0237453 -0.022671 -0.0215801 -0.0204726 -0.0193486 -0.0182161 -0.0170833 -0.0159501 -0.0148165 -0.0136923 -0.012587 -0.0115007 -0.0104334 -0.00939506 -0.00839559 -0.00743501 -0.00651331 -0.00563874 -0.00481955 -0.00405574 -0.0033473 -0.00269868 -0.00211432 -0.00159421 -0.00113836 -0.00074568 -0.000415104 -0.000146631 5.97402e-05 0.000211826 0.000317441 0.000376586 0.000389262 0.000368518 0.000327404 0.000265922 0.000184071 0.00010354 4.60178e-05 1.15044e-05 0 0 9.70163e-06 3.88065e-05 8.73147e-05 0.000155226 0.000220577 0.000261402 0.000277703 0.000269479 0.00022329 0.000125698 -2.32978e-05 -0.000223698 -0.000482949 -0.000808501 -0.00120035 -0.0016585 -0.00218305 -0.0027741 -0.00343164 -0.00415568 -0.00494033 -0.00577969 -0.00667376 -0.00762255 -0.00861617 -0.00964476 -0.0107083 -0.0118068 -0.0129289 -0.0140633 -0.01521 -0.0163689 -0.0175295 -0.0186815 -0.0198247 -0.0209593 -0.022077 -0.0231699 -0.0242379 -0.025281 -0.0262941 -0.0272717 -0.0282141 -0.0291211 -0.0299899 -0.0308177 -0.0316044 -0.03235 -0.0330532 -0.0337126 -0.0343281 -0.0348998 -0.0354269 -0.0359088 -0.0363455 -0.0367368 -0.0370825 -0.037382 -0.0376353 -0.0378425 -0.0380032 -0.0381172 -0.0381846 -0.0382052 -0.0381791 -0.0381063 -0.0379868 -0.0378206 -0.0376079 -0.0373491 -0.0370441 -0.0366929 -0.036296 -0.035854 -0.0353667 -0.0348342 -0.0342573 -0.0336367 -0.0329724 -0.0322645 -0.0315143 -0.0307234 -0.0298918 -0.0290194 -0.0281093 -0.0271642 -0.0261843 -0.0251696 -0.0241252 -0.0230566 -0.0219637 -0.0208464 -0.019713 -0.0185714 -0.0174217 -0.0162639 -0.0151083 -0.0139655 -0.0128354 -0.011718 -0.0106245 -0.00956627 -0.00854321 -0.00755534 -0.00661241 -0.00572414 -0.00489055 -0.00411163 -0.00339314 -0.00274086 -0.00215479 -0.00163492 -0.00118108 -0.000793095 -0.000470969 -0.000214701 -1.68423e-05 0.000130055 0.000225991 0.000270964 0.000278335 0.00026146 0.00022034 0.000154975 8.71736e-05 3.87438e-05 9.68595e-06 0 0 7.28102e-06 2.91241e-05 6.55292e-05 0.000116496 0.00016037 0.000175494 0.000161869 0.000119494 3.48539e-05 -0.000105569 -0.000301774 -0.000553762 -0.000868327 -0.00125226 -0.00170557 -0.00222825 -0.00281922 -0.00347741 -0.00420281 -0.00499543 -0.00584778 -0.0067524 -0.00770928 -0.00871843 -0.00976829 -0.0108473 -0.0119554 -0.0130927 -0.0142465 -0.0154039 -0.016565 -0.0177298 -0.0188871 -0.0200258 -0.0211459 -0.0222474 -0.0233225 -0.0243633 -0.0253698 -0.0263421 -0.0272761 -0.0281679 -0.0290173 -0.0298245 -0.0305885 -0.0313085 -0.0319843 -0.0326161 -0.0332048 -0.0337512 -0.0342555 -0.0347175 -0.0351389 -0.0355212 -0.0358643 -0.0361683 -0.0364345 -0.0366641 -0.0368572 -0.0370137 -0.0371344 -0.0372199 -0.0372703 -0.0372855 -0.0372654 -0.0372102 -0.0371198 -0.0369941 -0.0368326 -0.0366344 -0.0363997 -0.0361283 -0.035819 -0.0354706 -0.035083 -0.0346562 -0.0341888 -0.0336793 -0.0331276 -0.0325339 -0.0318971 -0.0312166 -0.0304922 -0.029724 -0.0289129 -0.0280601 -0.0271654 -0.0262289 -0.0252546 -0.0242467 -0.0232051 -0.0221299 -0.0210289 -0.0199099 -0.0187729 -0.0176179 -0.016456 -0.0152983 -0.0141449 -0.0129957 -0.0118633 -0.0107604 -0.00968696 -0.00864296 -0.00763982 -0.00668896 -0.00579039 -0.00494409 -0.00415741 -0.00343768 -0.00278491 -0.00219909 -0.00168121 -0.00123226 -0.000852246 -0.00054116 -0.000292197 -9.85506e-05 3.9779e-05 0.000122792 0.00016393 0.000176636 0.000160909 0.00011675 6.56721e-05 2.91876e-05 7.2969e-06 0 0 4.28414e-06 1.71366e-05 3.85573e-05 6.85463e-05 8.61761e-05 7.05194e-05 2.1576e-05 -6.06539e-05 -0.000189538 -0.000378442 -0.000627368 -0.000936314 -0.00131115 -0.00175773 -0.00227608 -0.00286617 -0.0035255 -0.00425154 -0.00504431 -0.00590378 -0.00682068 -0.00778569 -0.00879883 -0.00986009 -0.010956 -0.0120733 -0.0132118 -0.0143715 -0.0155384 -0.0166981 -0.0178508 -0.0189964 -0.0201231 -0.0212193 -0.0222848 -0.0233196 -0.0243166 -0.0252683 -0.0261748 -0.027036 -0.0278496 -0.0286132 -0.0293268 -0.0299903 -0.0306054 -0.0311736 -0.0316949 -0.0321694 -0.0326009 -0.0329932 -0.0333463 -0.0336603 -0.0339394 -0.0341879 -0.0344059 -0.0345933 -0.0347537 -0.0348904 -0.0350036 -0.035093 -0.0351607 -0.0352086 -0.0352364 -0.0352444 -0.0352325 -0.0352005 -0.0351486 -0.0350768 -0.034983 -0.0348655 -0.0347242 -0.0345592 -0.0343669 -0.0341439 -0.0338902 -0.0336058 -0.0332865 -0.032928 -0.0325302 -0.0320932 -0.0316133 -0.0310867 -0.0305134 -0.0298935 -0.0292253 -0.0285076 -0.0277402 -0.0269233 -0.0260592 -0.0251504 -0.0241971 -0.0231991 -0.0221638 -0.0210986 -0.0200035 -0.0188784 -0.0177352 -0.0165854 -0.0154292 -0.0142666 -0.0131115 -0.011978 -0.0108663 -0.00977616 -0.00872098 -0.00771401 -0.00675525 -0.0058447 -0.0049915 -0.00420479 -0.00348459 -0.00283088 -0.00224608 -0.00173261 -0.00129046 -0.000919635 -0.000614238 -0.000368376 -0.000182048 -5.52562e-05 2.53033e-05 7.2932e-05 8.76298e-05 6.93968e-05 3.90357e-05 1.73492e-05 4.3373e-06 0 0 7.11002e-07 2.84401e-06 6.39902e-06 1.1376e-05 -2.00432e-06 -5.35214e-05 -0.000143175 -0.000270966 -0.000449884 -0.000692922 -0.00100008 -0.00137135 -0.00181141 -0.00232492 -0.00291186 -0.00357226 -0.00430188 -0.0050965 -0.00595613 -0.00688076 -0.00785903 -0.00887958 -0.00994241 -0.0110475 -0.0121794 -0.0133227 -0.0144773 -0.0156432 -0.0168047 -0.0179461 -0.0190675 -0.0201687 -0.0212376 -0.0222617 -0.0232412 -0.0241759 -0.0250594 -0.0258851 -0.0266529 -0.0273628 -0.0280146 -0.0286078 -0.0291424 -0.0296184 -0.0300404 -0.030413 -0.0307361 -0.0310099 -0.0312416 -0.0314386 -0.0316007 -0.0317281 -0.0318283 -0.031909 -0.0319702 -0.0320119 -0.0320402 -0.032061 -0.0320744 -0.0320804 -0.0320822 -0.032083 -0.032083 -0.0320821 -0.0320802 -0.0320773 -0.0320734 -0.0320685 -0.0320592 -0.0320423 -0.0320178 -0.0319855 -0.0319396 -0.0318738 -0.0317883 -0.031683 -0.0315503 -0.0313827 -0.0311801 -0.0309426 -0.0306629 -0.0303339 -0.0299556 -0.0295279 -0.0290465 -0.0285068 -0.0279089 -0.0272527 -0.0265389 -0.0257678 -0.0249394 -0.0240539 -0.0231178 -0.0221377 -0.0211136 -0.0200456 -0.0189459 -0.0178269 -0.0166884 -0.0155306 -0.0143689 -0.0132191 -0.0120811 -0.0109549 -0.00985589 -0.00879929 -0.00778515 -0.00681345 -0.0058954 -0.00504219 -0.00425382 