<?xml version="1.0"?> 
<VTKFile type="StructuredGrid" version="0.1"> 
<StructuredGrid WholeExtent="0 128 0 128 0 0"> 
<Piece Extent="0 128 0 128 0 0"> 
<PointData>
<DataArray type="Float32" Name="u" format="ascii" NumberOfComponents="1"> 
0 0 0 0 0 0 0 0 0 0 0 0 0 0 0 0 0 0 0 0 0 0 0 0 0 0 0 0 0 0 0 0 0 0 0 0 0 0 0 0 0 0 0 0 0 0 0 0 0 0 0 0 0 0 0 0 0 0 0 0 0 0 0 0 0 0 0 0 0 0 0 0 0 0 0 0 0 0 0 0 0 0 0 0 0 0 0 0 0 0 0 0 0 0 0 0 0 0 0 0 0 0 0 0 0 0 0 0 0 0 0 0 0 0 0 0 0 0 0 0 0 0 0 0 0 0 0 0 0 0 -9.87312e-08 -3.94925e-07 -8.88581e-07 -1.5797e-06 -2.54306e-06 -3.85345e-06 -5.51086e-06 -7.5153e-06 -9.9016e-06 -1.27046e-05 -1.59242e-05 -1.95606e-05 -2.35983e-05 -2.80223e-05 -3.28324e-05 -3.80287e-05 -4.35758e-05 -4.94385e-05 -5.56167e-05 -6.21105e-05 -6.88712e-05 -7.58502e-05 -8.30475e-05 -9.04631e-05 -9.80381e-05 -0.000105713 -0.000113489 -0.000121365 -0.000129278 -0.000137165 -0.000145024 -0.000152857 -0.000160604 -0.000168205 -0.000175659 -0.000182968 -0.000190083 -0.000196958 -0.000203593 -0.000209987 -0.000216113 -0.000221941 -0.000227472 -0.000232706 -0.000237635 -0.00024225 -0.000246552 -0.00025054 -0.000254225 -0.000257613 -0.000260707 -0.000263505 -0.000266026 -0.00026829 -0.000270295 -0.000272043 -0.000273553 -0.000274844 -0.000275916 -0.000276769 -0.000277416 -0.000277868 -0.000278125 -0.000278187 -0.000278055 -0.000277728 -0.000277206 -0.000276489 -0.000275565 -0.000274423 -0.000273061 -0.00027148 -0.000269661 -0.000267584 -0.00026525 -0.000262658 -0.000259791 -0.000256629 -0.000253173 -0.000249423 -0.000245371 -0.000241007 -0.000236334 -0.000231349 -0.000226063 -0.000220485 -0.000214613 -0.000208448 -0.00020202 -0.000195357 -0.00018846 -0.000181328 -0.00017401 -0.000166552 -0.000158954 -0.000151217 -0.0001434 -0.000135563 -0.000127705 -0.000119828 -0.000111993 -0.000104264 -9.66408e-05 -8.91234e-05 -8.17698e-05 -7.46381e-05 -6.77283e-05 -6.10403e-05 -5.46215e-05 -4.85193e-05 -4.27338e-05 -3.72649e-05 -3.21465e-05 -2.74124e-05 -2.30627e-05 -1.90973e-05 -1.55301e-05 -1.23747e-05 -9.63116e-06 -7.29952e-06 -5.34427e-06 -3.72995e-06 -2.45654e-06 -1.52406e-06 -8.57282e-07 -3.81014e-07 -9.52535e-08 0 0 -3.94925e-07 -1.5797e-06 -3.55432e-06 -6.3188e-06 -1.01722e-05 -1.54138e-05 -2.20435e-05 -3.00612e-05 -3.96064e-05 -5.08183e-05 -6.36969e-05 -7.82423e-05 -9.43934e-05 -0.000112089 -0.00013133 -0.000152115 -0.000174303 -0.000197754 -0.000222467 -0.000248442 -0.000275485 -0.000303401 -0.00033219 -0.000361853 -0.000392152 -0.000422854 -0.000453957 -0.000485461 -0.000517113 -0.000548659 -0.000580097 -0.000611429 -0.000642416 -0.000672818 -0.000702636 -0.000731871 -0.000760332 -0.000787832 -0.000814371 -0.000839949 -0.000864452 -0.000887765 -0.00090989 -0.000930825 -0.00095054 -0.000969001 -0.000986208 -0.00100216 -0.0010169 -0.00103045 -0.00104283 -0.00105402 -0.0010641 -0.00107316 -0.00108118 -0.00108817 -0.00109421 -0.00109938 -0.00110366 -0.00110708 -0.00110966 -0.00111147 -0.0011125 -0.00111275 -0.00111222 -0.00111091 -0.00110882 -0.00110596 -0.00110226 -0.00109769 -0.00109224 -0.00108592 -0.00107864 -0.00107034 -0.001061 -0.00105063 -0.00103916 -0.00102652 -0.00101269 -0.000997692 -0.000981482 -0.00096403 -0.000945335 -0.000925398 -0.000904254 -0.000881938 -0.000858452 -0.000833793 -0.000808081 -0.00078143 -0.000753841 -0.000725314 -0.000696039 -0.000666206 -0.000635816 -0.000604867 -0.0005736 -0.000542251 -0.000510822 -0.000479311 -0.000447972 -0.000417056 -0.000386563 -0.000356494 -0.000327079 -0.000298552 -0.000270913 -0.000244161 -0.000218486 -0.000194077 -0.000170935 -0.00014906 -0.000128586 -0.00010965 -9.22508e-05 -7.63893e-05 -6.21202e-05 -4.94987e-05 -3.85246e-05 -2.91981e-05 -2.13771e-05 -1.49198e-05 -9.82617e-06 -6.09622e-06 -3.42913e-06 -1.52406e-06 -3.81014e-07 0 0 -8.88581e-07 -3.55432e-06 -7.99722e-06 -1.42173e-05 -2.28875e-05 -3.4681e-05 -4.95978e-05 -6.76377e-05 -8.91144e-05 -0.000114341 -0.000143318 -0.000176045 -0.000212385 -0.000252201 -0.000295492 -0.000342258 -0.000392182 -0.000444946 -0.000500551 -0.000558995 -0.000619841 -0.000682652 -0.000747428 -0.000814168 -0.000882343 -0.000951421 -0.0010214 -0.00109229 -0.0011635 -0.00123448 -0.00130522 -0.00137572 -0.00144544 -0.00151384 -0.00158093 -0.00164671 -0.00171075 -0.00177262 -0.00183234 -0.00188989 -0.00194502 -0.00199747 -0.00204725 -0.00209436 -0.00213871 -0.00218025 -0.00221897 -0.00225486 -0.00228802 -0.00231852 -0.00234636 -0.00237154 -0.00239423 -0.00241461 -0.00243266 -0.00244839 -0.00246198 -0.0024736 -0.00248324 -0.00249092 -0.00249674 -0.00250081 -0.00250312 -0.00250368 -0.00250249 -0.00249955 -0.00249485 -0.0024884 -0.00248009 -0.0024698 -0.00245755 -0.00244332 -0.00242695 -0.00240826 -0.00238725 -0.00236392 -0.00233812 -0.00230966 -0.00227856 -0.00224481 -0.00220833 -0.00216907 -0.002127 -0.00208215 -0.00203457 -0.00198436 -0.00193152 -0.00187604 -0.00181818 -0.00175822 -0.00169614 -0.00163196 -0.00156609 -0.00149896 -0.00143059 -0.00136095 -0.0012906 -0.00122006 -0.00114935 -0.00107845 -0.00100794 -0.000938376 -0.000869767 -0.000802111 -0.000735929 -0.000671743 -0.000609554 -0.000549362 -0.000491593 -0.000436674 -0.000384604 -0.000335384 -0.000289318 -0.000246712 -0.000207564 -0.000171876 -0.000139771 -0.000111372 -8.66804e-05 -6.56957e-05 -4.80985e-05 -3.35695e-05 -2.21089e-05 -1.37165e-05 -7.71553e-06 -3.42913e-06 -8.57282e-07 0 0 -1.5797e-06 -6.3188e-06 -1.42173e-05 -2.52752e-05 -4.0689e-05 -6.16552e-05 -8.81738e-05 -0.000120245 -0.000158426 -0.000203273 -0.000254788 -0.000312969 -0.000377574 -0.000448357 -0.000525318 -0.000608459 -0.000697213 -0.000791016 -0.000889868 -0.000993768 -0.00110194 -0.0012136 -0.00132876 -0.00144741 -0.00156861 -0.00169141 -0.00181583 -0.00194184 -0.00206845 -0.00219463 -0.00232039 -0.00244572 -0.00256966 -0.00269127 -0.00281055 -0.00292748 -0.00304133 -0.00315133 -0.00325749 -0.0033598 -0.00345781 -0.00355106 -0.00363956 -0.0037233 -0.00380216 -0.003876 -0.00394483 -0.00400865 -0.00406759 -0.00412181 -0.00417131 -0.00421607 -0.00425642 -0.00429263 -0.00432473 -0.00435269 -0.00437685 -0.0043975 -0.00441466 -0.00442831 -0.00443865 -0.00444588 -0.00444999 -0.00445099 -0.00444888 -0.00444364 -0.00443529 -0.00442382 -0.00440904 -0.00439076 -0.00436897 -0.00434368 -0.00431458 -0.00428135 -0.004244 -0.00420253 -0.00415665 -0.00410606 -0.00405077 -0.00399077 -0.00392593 -0.00385612 -0.00378134 -0.00370159 -0.00361702 -0.00352775 -0.00343381 -0.00333517 -0.00323232 -0.00312572 -0.00301536 -0.00290126 -0.00278416 -0.00266483 -0.00254326 -0.00241947 -0.0022944 -0.002169 -0.00204329 -0.00191724 -0.00179189 -0.00166822 -0.00154625 -0.00142597 -0.00130832 -0.00119421 -0.00108365 -0.000976644 -0.000873944 -0.000776309 -0.000683741 -0.000596238 -0.000514344 -0.000438599 -0.000369003 -0.000305557 -0.000248481 -0.000197995 -0.000154099 -0.000116792 -8.55084e-05 -5.96792e-05 -3.93047e-05 -2.43849e-05 -1.37165e-05 -6.09622e-06 -1.52406e-06 0 0 -2.5433e-06 -1.01732e-05 -2.28897e-05 -4.06929e-05 -6.52786e-05 -9.83431e-05 -0.000139886 -0.000189908 -0.000249225 -0.000318655 -0.000398196 -0.000487849 -0.000587217 -0.000695901 -0.000813901 -0.000941217 -0.00107697 -0.00122027 -0.00137113 -0.00152953 -0.00169429 -0.00186419 -0.00203923 -0.00221942 -0.0024033 -0.00258944 -0.00277781 -0.00296844 -0.00315976 -0.00335023 -0.00353985 -0.00372861 -0.00391507 -0.0040978 -0.00427678 -0.00445202 -0.0046224 -0.00478679 -0.00494518 -0.00509759 -0.00524335 -0.0053818 -0.00551294 -0.00563678 -0.00575316 -0.00586193 -0.00596309 -0.00605664 -0.00614285 -0.00622197 -0.00629402 -0.006359 -0.00641739 -0.00646971 -0.00651596 -0.00655613 -0.00659074 -0.00662029 -0.00664478 -0.00666421 -0.0066789 -0.00668915 -0.00669497 -0.00669635 -0.0066933 -0.00668581 -0.00667389 -0.00665752 -0.00663641 -0.00661023 -0.00657898 -0.00654267 -0.00650079 -0.00645284 -0.00639882 -0.00633872 -0.00627207 -0.00619836 -0.0061176 -0.00602979 -0.00593468 -0.00583203 -0.00572183 -0.00560408 -0.00547895 -0.00534663 -0.00520711 -0.00506038 -0.00490713 -0.00474803 -0.00458308 -0.00441227 -0.00423676 -0.00405766 -0.00387498 -0.00368872 -0.00350032 -0.00331123 -0.00312144 -0.00293095 -0.00274131 -0.00255405 -0.00236917 -0.00218667 -0.00200798 -0.00183452 -0.00166629 -0.0015033 -0.00134672 -0.00119771 -0.00105629 -0.000922442 -0.000797025 -0.000680881 -0.000574012 -0.000476417 -0.000388457 -0.000310493 -0.000242526 -0.000184554 -0.000135746 -9.52686e-05 -6.31211e-05 -3.9304e-05 -2.21085e-05 -9.826e-06 -2.4565e-06 0 0 -3.85442e-06 -1.54177e-05 -3.46898e-05 -6.16707e-05 -9.83586e-05 -0.000146752 -0.00020685 -0.000278653 -0.000363199 -0.000461526 -0.000573633 -0.00069952 -0.000838573 -0.000990176 -0.00115433 -0.00133103 -0.00151902 -0.00171702 -0.00192503 -0.00214306 -0.00236939 -0.00260233 -0.00284188 -0.00308804 -0.00333878 -0.00359208 -0.00384795 -0.00410638 -0.00436524 -0.00462239 -0.00487783 -0.00513157 -0.00538164 -0.0056261 -0.00586494 -0.00609817 -0.00632429 -0.00654184 -0.0067508 -0.00695117 -0.00714216 -0.00732295 -0.00749354 -0.00765392 -0.00780402 -0.00794372 -0.00807304 -0.00819198 -0.00830101 -0.00840065 -0.00849087 -0.00857169 -0.00864391 -0.00870832 -0.00876494 -0.00881376 -0.00885556 -0.00889114 -0.00892049 -0.00894361 -0.00896098 -0.00897308 -0.0089799 -0.00898144 -0.00897771 -0.00896869 -0.00895439 -0.00893481 -0.00890946 -0.00887787 -0.00884004 -0.00879597 -0.00874487 -0.00868597 -0.00861927 -0.00854476 -0.00846166 -0.00836918 -0.00826733 -0.00815609 -0.00803502 -0.00790363 -0.00776194 -0.00760994 -0.00744776 -0.00727551 -0.0070932 -0.00690083 -0.00669923 -0.00648924 -0.00627085 -0.00604408 -0.0058104 -0.00557133 -0.00532686 -0.00507699 -0.00482368 -0.00456889 -0.00431261 -0.00405484 -0.0037977 -0.00354331 -0.00329167 -0.00304279 -0.00279865 -0.00256124 -0.00233057 -0.00210663 -0.00189109 -0.0016856 -0.00149018 -0.00130481 -0.00113072 -0.000969131 -0.000820037 -0.00068344 -0.000559904 -0.000449994 -0.000353708 -0.000271048 -0.000200952 -0.000142357 -9.52657e-05 -5.96764e-05 -3.3568e-05 -1.49191e-05 -3.72977e-06 0 0 -5.51305e-06 -2.20522e-05 -4.96174e-05 -8.82087e-05 -0.000139929 -0.000206881 -0.000289065 -0.00038648 -0.000500347 -0.000631886 -0.000781098 -0.000947981 -0.00113164 -0.00133118 -0.00154661 -0.00177791 -0.00202337 -0.00228126 -0.00255159 -0.00283434 -0.00312725 -0.00342804 -0.00373672 -0.00405327 -0.00437504 -0.00469936 -0.00502623 -0.00535566 -0.00568487 -0.0060111 -0.00633434 -0.00665459 -0.00696937 -0.00727618 -0.00757503 -0.00786591 -0.008147 -0.00841647 -0.00867432 -0.00892055 -0.00915425 -0.00937452 -0.00958134 -0.00977472 -0.00995472 -0.0101214 -0.0102747 -0.0104147 -0.0105421 -0.0106578 -0.0107618 -0.0108542 -0.010936 -0.0110085 -0.0110717 -0.0111256 -0.0111713 -0.0112101 -0.0112418 -0.0112665 -0.0112849 -0.0112977 -0.0113048 -0.0113063 -0.0113021 -0.0112923 -0.0112768 -0.0112557 -0.0112282 -0.0111937 -0.0111522 -0.0111036 -0.0110468 -0.0109807 -0.0109054 -0.0108206 -0.0107254 -0.0106185 -0.0104999 -0.0103697 -0.0102269 -0.0100709 -0.00990168 -0.00971918 -0.00952342 -0.00931439 -0.00909209 -0.00885652 -0.00860863 -0.00834935 -0.0080787 -0.00779666 -0.00750509 -0.00720584 -0.00689891 -0.0065843 -0.00626449 -0.00594199 -0.00561679 -0.00528889 -0.00496104 -0.004636 -0.00431376 -0.00399433 -0.00368032 -0.00337437 -0.00307647 -0.00278663 -0.00250706 -0.00223999 -0.00198542 -0.00174335 -0.00151544 -0.00130335 -0.00110708 -0.000926625 -0.000762823 -0.000616497 -0.000487647 -0.000376274 -0.000281124 -0.000200946 -0.000135738 -8.5502e-05 -4.80949e-05 -2.13755e-05 -5.34388e-06 0 0 -7.51918e-06 -3.00767e-05 -6.76726e-05 -0.000120307 -0.00018999 -0.000278731 -0.00038653 -0.000513388 -0.000660669 -0.000829737 -0.00102059 -0.00123323 -0.00146642 -0.00171892 -0.00199073 -0.00228185 -0.00259002 -0.002913 -0.00325079 -0.00360339 -0.00396787 -0.00434132 -0.00472373 -0.0051151 -0.00551207 -0.00591126 -0.00631266 -0.00671629 -0.00711868 -0.00751637 -0.00790938 -0.00829769 -0.00867826 -0.00904804 -0.00940704 -0.00975526 -0.0100905 -0.0104107 -0.0107158 -0.0110057 -0.0112796 -0.0115365 -0.0117764 -0.0119992 -0.0122053 -0.0123949 -0.012568 -0.0127247 -0.0128661 -0.0129935 -0.013107 -0.0132064 -0.0132935 -0.0133701 -0.0134361 -0.0134916 -0.013538 -0.013577 -0.0136087 -0.0136329 -0.0136507 -0.0136629 -0.0136696 -0.0136708 -0.0136664 -0.0136565 -0.0136411 -0.0136201 -0.0135926 -0.0135577 -0.0135153 -0.0134655 -0.0134066 -0.0133371 -0.0132571 -0.0131664 -0.0130634 -0.0129464 -0.0128155 -0.0126705 -0.0125104 -0.0123339 -0.0121411 -0.0119318 -0.011706 -0.0114633 -0.0112038 -0.0109275 -0.0106353 -0.0103284 -0.0100066 -0.00967003 -0.00932083 -0.0089612 -0.00859113 -0.00821063 -0.00782275 -0.00743053 -0.00703399 -0.00663312 -0.00623135 -0.00583212 -0.00543543 -0.00504128 -0.004653 -0.00427391 -0.003904 -0.0035433 -0.00319463 -0.00286087 -0.00254201 -0.00223806 -0.00195117 -0.00168353 -0.00143513 -0.00120597 -0.000997212 -0.000810002 -0.000644341 -0.000500231 -0.000376265 -0.000271034 -0.000184539 -0.000116781 -6.56893e-05 -2.91952e-05 -7.29881e-06 0 0 -9.90148e-06 -3.96059e-05 -8.91134e-05 -0.000158424 -0.000249205 -0.000363123 -0.00050018 -0.000660375 -0.000845134 -0.00105589 -0.00129263 -0.00155536 -0.00184241 -0.00215209 -0.0024844 -0.00283935 -0.00321406 -0.00360567 -0.00401419 -0.00443961 -0.00487828 -0.00532656 -0.00578445 -0.00625193 -0.00672488 -0.00719914 -0.00767471 -0.00815159 -0.0086256 -0.00909257 -0.00955249 -0.0100054 -0.0104476 -0.0108756 -0.0112894 -0.0116889 -0.0120717 -0.0124355 -0.0127801 -0.0131056 -0.013411 -0.0136956 -0.0139592 -0.0142019 -0.0144243 -0.014627 -0.01481 -0.0149734 -0.015119 -0.0152485 -0.015362 -0.0154595 -0.0155433 -0.0156158 -0.0156771 -0.015727 -0.0157678 -0.0158015 -0.0158283 -0.015848 -0.015862 -0.0158715 -0.0158765 -0.015877 -0.0158729 -0.0158644 -0.0158513 -0.0158337 -0.0158102 -0.0157797 -0.0157421 -0.0156975 -0.0156436 -0.0155783 -0.0155017 -0.0154138 -0.0153121 -0.0151944 -0.0150607 -0.0149109 -0.0147434 -0.0145562 -0.0143495 -0.0141233 -0.0138769 -0.0136098 -0.0133219 -0.0130134 -0.0126851 -0.0123381 -0.0119722 -0.0115877 -0.0111868 -0.0107721 -0.0103435 -0.00990119 -0.00944863 -0.00898948 -0.00852372 -0.00805137 -0.00757656 -0.00710347 -0.00663209 -0.00616242 -0.00569854 -0.00524456 -0.00480048 -0.00436629 -0.00394556 -0.00354186 -0.0031552 -0.00278557 -0.00243573 -0.00210847 -0.00180376 -0.00152163 -0.00126363 -0.00103135 -0.000824784 -0.000643934 -0.000487318 -0.000353452 -0.000242338 -0.000153975 -8.66108e-05 -3.84937e-05 -9.62342e-06 0 0 -1.26886e-05 -5.07544e-05 -0.000114197 -0.000203018 -0.000318238 -0.000460881 -0.000630946 -0.000828434 -0.00105471 -0.00131114 -0.00159772 -0.00191446 -0.00225909 -0.00262938 -0.00302532 -0.00344692 -0.00389057 -0.00435271 -0.00483333 -0.00533243 -0.00584554 -0.00636819 -0.00690039 -0.00744214 -0.00798845 -0.00853434 -0.00907982 -0.00962487 -0.0101646 -0.010694 -0.0112132 -0.0117222 -0.0122167 -0.0126928 -0.0131504 -0.0135895 -0.0140075 -0.0144017 -0.0147722 -0.015119 -0.0154413 -0.0157385 -0.0160105 -0.0162574 -0.0164803 -0.0166804 -0.0168578 -0.0170123 -0.0171467 -0.0172635 -0.0173628 -0.0174445 -0.0175119 -0.0175681 -0.0176132 -0.0176471 -0.0176728 -0.017693 -0.0177078 -0.0177172 -0.0177227 -0.0177262 -0.0177275 -0.0177267 -0.0177237 -0.0177186 -0.0177113 -0.0177018 -0.0176885 -0.0176696 -0.0176453 -0.0176153 -0.017577 -0.0175274 -0.0174666 -0.0173946 -0.0173081 -0.017204 -0.0170823 -0.016943 -0.0167836 -0.0166015 -0.0163966 -0.0161691 -0.0159177 -0.0156414 -0.0153402 -0.0150141 -0.0146639 -0.0142903 -0.0138933 -0.013473 -0.0130321 -0.0125731 -0.0120961 -0.0116012 -0.0110923 -0.0105738 -0.0100455 -0.00950748 -0.00896463 -0.00842185 -0.00787914 -0.00733648 -0.00679882 -0.00627106 -0.00575321 -0.00524526 -0.0047516 -0.00427658 -0.00382022 -0.00338252 -0.00296693 -0.00257694 -0.00221254 -0.00187373 -0.00156263 -0.00128138 -0.00102997 -0.000808396 -0.000615228 -0.00044903 -0.000309803 -0.000197545 -0.000111119 -4.93863e-05 -1.23466e-05 0 0 -1.58805e-05 -6.35222e-05 -0.000142925 -0.000254089 -0.000397089 -0.000572003 -0.000778829 -0.00101757 -0.0012894 -0.0015955 -0.00193587 -0.00231051 -0.00271647 -0.0031508 -0.0036135 -0.00410456 -0.00461957 -0.00515412 -0.00570821 -0.00628183 -0.00686962 -0.0074662 -0.00807157 -0.00868572 -0.00930279 -0.00991688 -0.010528 -0.0111361 -0.0117356 -0.0123208 -0.0128916 -0.0134481 -0.0139856 -0.0144996 -0.0149901 -0.0154571 -0.0158977 -0.0163095 -0.0166922 -0.017046 -0.0173705 -0.0176652 -0.0179303 -0.0181657 -0.0183734 -0.0185552 -0.0187112 -0.0188414 -0.0189493 -0.0190386 -0.0191094 -0.0191615 -0.0191993 -0.0192269 -0.0192445 -0.019252 -0.0192531 -0.0192515 -0.0192472 -0.0192403 -0.0192328 -0.0192269 -0.0192226 -0.0192199 -0.0192188 -0.0192192 -0.0192211 -0.0192246 -0.0192274 -0.0192275 -0.0192247 -0.019219 -0.0192069 -0.0191845 -0.0191518 -0.0191088 -0.0190514 -0.0189753 -0.0188805 -0.0187669 -0.0186312 -0.0184696 -0.0182823 -0.0180692 -0.0178285 -0.0175583 -0.0172587 -0.0169296 -0.0165715 -0.0161849 -0.0157698 -0.0153261 -0.0148567 -0.0143643 -0.0138489 -0.0133106 -0.0127539 -0.0121834 -0.0115993 -0.0110015 -0.0103956 -0.00978726 -0.00917657 -0.00856349 -0.00795382 -0.00735338 -0.00676218 -0.00618021 -0.00561274 -0.00506503 -0.00453708 -0.0040289 -0.00354476 -0.00308895 -0.00266145 -0.00226228 -0.00189423 -0.0015601 -0.0012599 -0.000993617 -0.000759997 -0.000557769 -0.000386934 -0.000247492 -0.000139214 -6.1873e-05 -1.54682e-05 0 0 -1.94773e-05 -7.79092e-05 -0.000175296 -0.000311637 -0.000485759 -0.00069649 -0.000943828 -0.00122777 -0.0015492 -0.00190896 -0.00230708 -0.00274353 -0.00321455 -0.00371634 -0.00424892 -0.00481227 -0.00540105 -0.0060099 -0.00663883 -0.00728784 -0.00795055 -0.00862059 -0.00929797 -0.00998268 -0.0106679 -0.0113467 -0.0120192 -0.0126854 -0.0133387 -0.0139728 -0.0145876 -0.0151831 -0.0157543 -0.0162961 -0.0168085 -0.0172916 -0.0177425 -0.0181587 -0.01854 -0.0188866 -0.0191984 -0.0194758 -0.0197186 -0.0199269 -0.0201035 -0.0202513 -0.0203703 -0.0204605 -0.0205268 -0.0205738 -0.0206017 -0.0206104 -0.0206055 -0.0205924 -0.020571 -0.0205416 -0.0205086 -0.0204769 -0.0204465 -0.0204174 -0.0203922 -0.0203737 -0.0203619 -0.0203567 -0.0203581 -0.0203662 -0.0203808 -0.020402 -0.0204271 -0.0204532 -0.0204804 -0.0205086 -0.0205332 -0.0205494 -0.0205572 -0.0205566 -0.0205421 -0.0205082 -0.0204551 -0.0203826 -0.020286 -0.0201607 -0.0200065 -0.0198236 -0.0196091 -0.0193603 -0.0190773 -0.0187599 -0.0184082 -0.0180221 -0.0176017 -0.017147 -0.0166607 -0.0161457 -0.0156019 -0.0150294 -0.0144332 -0.0138185 -0.0131852 -0.0125333 -0.0118693 -0.0111997 -0.0105244 -0.00984342 -0.00916355 -0.00849154 -0.00782741 -0.00717114 -0.00652899 -0.0059072 -0.00530578 -0.00472473 -0.00416923 -0.00364449 -0.00315051 -0.00268727 -0.0022584 -0.0018675 -0.00151456 -0.0011996 -0.000921623 -0.000679668 -0.000473732 -0.000303815 -0.000170896 -7.59538e-05 -1.89885e-05 0 0 -2.3448e-05 -9.37922e-05 -0.000211032 -0.000375169 -0.000583468 -0.000833196 -0.00112435 -0.00145694 -0.00183136 -0.002248 -0.00270688 -0.00320799 -0.00374656 -0.00431782 -0.00492175 -0.00555838 -0.00622127 -0.00690402 -0.00760663 -0.0083291 -0.00906395 -0.00980374 -0.0105484 -0.0112981 -0.0120448 -0.0127807 -0.0135058 -0.0142201 -0.0149164 -0.0155874 -0.0162331 -0.0168534 -0.0174431 -0.0179966 -0.0185139 -0.018995 -0.0194374 -0.0198384 -0.0201981 -0.0205165 -0.0207944 -0.0210326 -0.0212312 -0.0213901 -0.0215135 -0.0216052 -0.0216654 -0.021694 -0.0216974 -0.0216818 -0.0216472 -0.0215936 -0.021528 -0.0214574 -0.0213817 -0.0213011 -0.0212213 -0.0211484 -0.0210822 -0.0210229 -0.0209738 -0.0209383 -0.0209163 -0.0209078 -0.0209129 -0.0209314 -0.0209634 -0.0210088 -0.0210642 -0.0211262 -0.0211948 -0.0212699 -0.0213456 -0.021416 -0.0214811 -0.0215408 -0.0215882 -0.0216164 -0.0216254 -0.0216151 -0.0215795 -0.0215122 -0.0214132 -0.0212827 -0.0211166 -0.0209111 -0.0206661 -0.0203817 -0.0200572 -0.0196917 -0.0192855 -0.0188384 -0.0183532 -0.0178324 -0.0172763 -0.0166846 -0.016063 -0.0154168 -0.0147462 -0.0140512 -0.0133388 -0.0126165 -0.0118842 -0.0111419 -0.0103973 -0.00965835 -0.00892493 -0.00819708 -0.00748211 -0.00678737 -0.00611285 -0.00545855 -0.00483071 -0.00423556 -0.0036731 -0.00314333 -0.00265082 -0.00220015 -0.0017913 -0.00142428 -0.00109857 -0.000813619 -0.000569444 -0.000366039 -0.000205897 -9.15097e-05 -2.28774e-05 0 0 -2.77619e-05 -0.000111048 -0.000249857 -0.000444191 -0.000689435 -0.000980975 -0.00131881 -0.00170295 -0.00213312 -0.00260909 -0.00313084 -0.00369837 -0.00430575 -0.00494701 -0.00562216 -0.0063312 -0.0070665 -0.00782045 -0.00859305 -0.00938429 -0.0101855 -0.010988 -0.0117919 -0.012597 -0.0133945 -0.0141755 -0.0149399 -0.0156878 -0.016411 -0.0171017 -0.0177598 -0.0183852 -0.0189723 -0.0195153 -0.0200143 -0.0204691 -0.0208777 -0.0212376 -0.0215489 -0.0218116 -0.0220274 -0.0221983 -0.0223241 -0.0224048 -0.0224461 -0.0224534 -0.0224267 -0.0223661 -0.0222795 -0.0221752 -0.0220531 -0.0219132 -0.0217642 -0.021615 -0.0214655 -0.0213157 -0.021173 -0.0210447 -0.0209308 -0.0208314 -0.0207505 -0.0206923 -0.0206569 -0.0206442 -0.0206542 -0.0206868 -0.0207419 -0.0208197 -0.0209158 -0.021026 -0.0211502 -0.0212886 -0.0214336 -0.021578 -0.0217217 -0.0218646 -0.0219981 -0.0221135 -0.0222107 -0.0222898 -0.0223427 -0.0223615 -0.0223462 -0.0222968 -0.0222079 -0.0220741 -0.0218954 -0.0216719 -0.0214019 -0.0210838 -0.0207176 -0.0203033 -0.0198432 -0.0193399 -0.0187932 -0.0182032 -0.0175758 -0.0169166 -0.0162257 -0.0155032 -0.014757 -0.0139951 -0.0132176 -0.0124245 -0.0116245 -0.0108266 -0.0100308 -0.00923706 -0.00845388 -0.00768979 -0.00694481 -0.00621892 -0.00551955 -0.00485412 -0.00422262 -0.00362506 -0.00306715 -0.0025546 -0.00208743 -0.00166562 -0.00128928 -0.000958513 -0.000673315 -0.000433686 -0.000243949 -0.000108422 -2.71054e-05 0 0 -3.24189e-05 -0.000129676 -0.00029177 -0.000518703 -0.00080366 -0.00113983 -0.00152721 -0.0019658 -0.0024545 -0.00299221 -0.00357894 -0.00421467 -0.00489211 -0.00560393 -0.00635014 -0.00713074 -0.00793675 -0.0087592 -0.00959808 -0.0104534 -0.0113152 -0.0121735 -0.0130282 -0.0138795 -0.0147171 -0.0155312 -0.0163216 -0.0170883 -0.0178227 -0.0185158 -0.0191677 -0.0197784 -0.020342 -0.0208524 -0.0213098 -0.021714 -0.0220634 -0.0223562 -0.0225923 -0.0227717 -0.0228975 -0.0229727 -0.0229971 -0.0229709 -0.0229014 -0.0227958 -0.0226542 -0.0224766 -0.0222732 -0.0220541 -0.0218195 -0.0215692 -0.0213142 -0.0210652 -0.0208223 -0.0205854 -0.0203636 -0.0201659 -0.0199923 -0.0198427 -0.0197222 -0.0196359 -0.0195838 -0.0195659 -0.019582 -0.0196322 -0.0197164 -0.0198347 -0.0199818 -0.0201525 -0.0203468 -0.0205648 -0.0207973 -0.0210354 -0.021279 -0.021528 -0.0217718 -0.0219994 -0.022211 -0.0224064 -0.0225757 -0.0227087 -0.0228054 -0.0228658 -0.0228828 -0.0228493 -0.0227652 -0.0226305 -0.0224425 -0.0221983 -0.021898 -0.0215416 -0.0211309 -0.020668 -0.0201528 -0.0195853 -0.0189716 -0.0183177 -0.0176236 -0.0168894 -0.0161237 -0.0153354 -0.0145246 -0.0136911 -0.0128451 -0.0119964 -0.011145 -0.0102911 -0.00944428 -0.00861448 -0.00780167 -0.00700585 -0.00623577 -0.00550017 -0.00479907 -0.00413245 -0.00350737 -0.00293087 -0.00240295 -0.00192361 -0.00149377 -0.00111435 -0.000785345 -0.000506758 -0.000285051 -0.000126689 -3.16724e-05 0 0 -3.74191e-05 -0.000149676 -0.000336772 -0.000598705 -0.000926144 -0.00130976 -0.00174954 -0.00224549 -0.00279549 -0.00339739 -0.00405119 -0.00475689 -0.00550565 -0.00628858 -0.0071057 -0.007957 -0.00883201 -0.00972025 -0.0106217 -0.0115364 -0.012453 -0.01336 -0.0142575 -0.0151454 -0.0160126 -0.0168477 -0.0176508 -0.0184218 -0.0191513 -0.0198297 -0.0204569 -0.0210331 -0.0215521 -0.0220078 -0.0224004 -0.0227297 -0.0229947 -0.0231943 -0.0233284 -0.023397 -0.0234047 -0.0233558 -0.0232504 -0.0230884 -0.0228793 -0.0226325 -0.0223479 -0.0220257 -0.0216783 -0.0213186 -0.0209464 -0.0205618 -0.0201779 -0.0198081 -0.0194522 -0.0191103 -0.0187933 -0.0185121 -0.0182666 -0.0180568 -0.0178889 -0.0177689 -0.0176969 -0.0176727 -0.0176964 -0.0177678 -0.017887 -0.0180538 -0.0182622 -0.0185057 -0.0187845 -0.0190984 -0.0194367 -0.0197882 -0.0201529 -0.020531 -0.0209092 -0.0212743 -0.0216263 -0.0219652 -0.0222785 -0.0225537 -0.0227908 -0.0229899 -0.0231416 -0.0232367 -0.0232754 -0.0232575 -0.0231789 -0.0230353 -0.0228268 -0.0225533 -0.0222162 -0.0218167 -0.0213549 -0.0208307 -0.0202505 -0.0196202 -0.0189399 -0.0182097 -0.017439 -0.0166375 -0.0158052 -0.0149419 -0.014059 -0.0131676 -0.0122676 -0.0113591 -0.0104533 -0.00956143 -0.00868343 -0.00781933 -0.00697935 -0.00617372 -0.00540245 -0.00466552 -0.0039715 -0.00332895 -0.00273787 -0.00219826 -0.00171204 -0.00128113 -0.000905536 -0.000585253 -0.000329205 -0.000146313 -3.65783e-05 0 0 -4.27035e-05 -0.000170814 -0.000384332 -0.000683256 -0.00105543 -0.0014887 -0.00198306 -0.00253851 -0.00315168 -0.0038192 -0.00454107 -0.00531729 -0.00613725 -0.00699034 -0.00787656 -0.00879591 -0.00973624 -0.0106854 -0.0116435 -0.0126104 -0.0135733 -0.0145192 -0.0154481 -0.01636 -0.0172425 -0.0180831 -0.0188817 -0.0196383 -0.0203428 -0.0209847 -0.0215642 -0.0220812 -0.0225297 -0.0229036 -0.0232029 -0.0234276 -0.0235776 -0.0236524 -0.0236522 -0.0235769 -0.0234328 -0.023226 -0.0229565 -0.0226243 -0.0222413 -0.0218194 -0.0213585 -0.0208587 -0.0203355 -0.0198042 -0.0192648 -0.0187175 -0.018178 -0.0176623 -0.0171705 -0.0167024 -0.0162712 -0.0158898 -0.0155583 -0.0152766 -0.0150521 -0.0148918 -0.014796 -0.0147645 -0.0147972 -0.0148941 -0.015055 -0.0152801 -0.0155618 -0.0158927 -0.0162728 -0.0167021 -0.0171674 -0.0176557 -0.0181669 -0.018701 -0.0192422 -0.0197744 -0.0202978 -0.0208123 -0.0213026 -0.0217535 -0.0221648 -0.0225367 -0.0228575 -0.0231155 -0.0233107 -0.0234432 -0.023507 -0.0234962 -0.0234108 -0.0232508 -0.0230167 -0.0227089 -0.0223275 -0.0218724 -0.0213499 -0.0207661 -0.0201211 -0.0194149 -0.0186577 -0.0178599 -0.0170215 -0.0161424 -0.0152352 -0.0143121 -0.0133733 -0.0124186 -0.0114609 -0.0105128 -0.00957432 -0.00864553 -0.00773825 -0.00686435 -0.00602382 -0.00521666 -0.00445314 -0.00374354 -0.00308786 -0.0024861 -0.00194139 -0.00145684 -0.00103246 -0.00066825 -0.000375891 -0.000167063 -4.17656e-05 0 0 -4.82133e-05 -0.000192853 -0.00043392 -0.000771413 -0.00119006 -0.00167459 -0.00222501 -0.00284131 -0.00351867 -0.00425225 -0.00504207 -0.00588813 -0.00677783 -0.00769861 -0.00865047 -0.00963339 -0.0106334 -0.0116366 -0.0126429 -0.0136523 -0.0146503 -0.0156223 -0.0165683 -0.0174883 -0.0183686 -0.0191952 -0.0199683 -0.0206878 -0.0213428 -0.0219223 -0.0224264 -0.0228549 -0.023202 -0.0234618 -0.0236343 -0.0237194 -0.0237181 -0.0236313 -0.0234588 -0.0232008 -0.0228655 -0.0224611 -0.0219878 -0.0214454 -0.0208487 -0.0202125 -0.0195367 -0.0188213 -0.0180851 -0.0173466 -0.0166059 -0.015863 -0.0151369 -0.0144467 -0.0137923 -0.0131737 -0.0126064 -0.0121058 -0.0116719 -0.0113048 -0.011013 -0.010805 -0.010681 -0.0106408 -0.0106843 -0.0108115 -0.0110222 -0.0113165 -0.0116856 -0.0121206 -0.0126215 -0.0131883 -0.0138055 -0.0144574 -0.015144 -0.0158654 -0.0166025 -0.0173363 -0.0180669 -0.0187942 -0.0194997 -0.0201648 -0.0207897 -0.0213742 -0.021904 -0.0223646 -0.0227559 -0.023078 -0.0233228 -0.0234826 -0.0235571 -0.0235466 -0.0234502 -0.0232675 -0.0229984 -0.022643 -0.0222074 -0.0216976 -0.0211136 -0.0204555 -0.0197343 -0.018961 -0.0181357 -0.0172582 -0.0163424 -0.0154019 -0.0144367 -0.0134468 -0.0124467 -0.0114506 -0.0104586 -0.00947063 -0.00850043 -0.00756163 -0.00665425 -0.00577827 -0.00494591 -0.00416935 -0.00344862 -0.00278369 -0.00217912 -0.00163946 -0.00116469 -0.000754827 -0.00042459 -0.000188707 -4.71767e-05 0 0 -5.39485e-05 -0.000215794 -0.000485536 -0.000863176 -0.00133004 -0.00186744 -0.0024754 -0.0031539 -0.00389645 -0.00469655 -0.0055542 -0.0064694 -0.00742738 -0.00841339 -0.00942742 -0.0104695 -0.0115236 -0.0125737 -0.0136199 -0.0146622 -0.0156842 -0.0166695 -0.0176183 -0.0185304 -0.0193907 -0.0201842 -0.0209107 -0.0215704 -0.0221515 -0.0226425 -0.0230434 -0.0233541 -0.023569 -0.0236825 -0.0236945 -0.0236051 -0.0234164 -0.0231308 -0.0227482 -0.0222687 -0.0217028 -0.0210614 -0.0203444 -0.0195518 -0.0187016 -0.0178118 -0.0168824 -0.0159134 -0.0149271 -0.0139458 -0.0129696 -0.0119984 -0.0110547 -0.0101612 -0.00931762 -0.00852413 -0.00779885 -0.00715996 -0.00660746 -0.00614134 -0.00577166 -0.00550849 -0.00535181 -0.00530164 -0.00535779 -0.00552009 -0.00578854 -0.00616313 -0.0066335 -0.00718928 -0.00783048 -0.00855709 -0.00935077 -0.0101932 -0.0110843 -0.0120241 -0.0129902 -0.01396 -0.0149335 -0.0159108 -0.0168696 -0.0177878 -0.0186654 -0.0195024 -0.0202812 -0.020984 -0.0216108 -0.0221618 -0.0226264 -0.0229944 -0.0232657 -0.0234405 -0.0235167 -0.0234924 -0.0233677 -0.0231426 -0.0228229 -0.0224145 -0.0219175 -0.0213317 -0.020669 -0.019941 -0.0191477 -0.0182892 -0.0173806 -0.0164368 -0.0154578 -0.0144438 -0.0134108 -0.0123749 -0.0113362 -0.0102946 -0.00926587 -0.00826558 -0.00729374 -0.00635037 -0.0054498 -0.00460639 -0.00382013 -0.00309102 -0.00242525 -0.00182899 -0.00130223 -0.000844984 -0.000475304 -0.000211246 -5.28115e-05 0 0 -5.9909e-05 -0.000239636 -0.000539181 -0.000958545 -0.00147536 -0.00206725 -0.00273423 -0.00347628 -0.00428503 -0.00515209 -0.00607745 -0.00706111 -0.00808591 -0.00913467 -0.0102074 -0.0113041 -0.0124066 -0.0134968 -0.0145746 -0.01564 -0.0166748 -0.0176608 -0.0185979 -0.0194861 -0.020309 -0.0210499 -0.0217089 -0.022286 -0.0227689 -0.0231453 -0.0234153 -0.0235788 -0.0236307 -0.0235656 -0.0233835 -0.0230845 -0.0226725 -0.0221511 -0.0215205 -0.0207806 -0.0199448 -0.0190268 -0.0180263 -0.0169435 -0.0158 -0.0146174 -0.0133957 -0.012135 -0.0108615 -0.00960183 -0.00835585 -0.00712361 -0.00593146 -0.00480577 -0.00374655 -0.00275378 -0.00184866 -0.00105237 -0.000364901 0.000213743 0.000671867 0.000997777 0.00119147 0.00125295 0.00118243 0.000980119 0.000646013 0.000180114 -0.000405515 -0.00109881 -0.00189978 -0.00280842 -0.00380333 -0.00486311 -0.00598777 -0.0071773 -0.00840532 -0.00964546 -0.0108977 -0.0121621 -0.0134123 -0.0146223 -0.0157919 -0.0169212 -0.017989 -0.0189738 -0.0198756 -0.0206946 -0.0214176 -0.0220316 -0.0225366 -0.0229326 -0.0232161 -0.0233837 -0.0234354 -0.0233712 -0.0231965 -0.022917 -0.0225326 -0.0220434 -0.0214616 -0.020799