<?xml version="1.0"?> 
<VTKFile type="StructuredGrid" version="0.1"> 
<StructuredGrid WholeExtent="0 128 0 128 0 0"> 
<Piece Extent="0 128 0 128 0 0"> 
<PointData>
<DataArray type="Float32" Name="u" format="ascii" NumberOfComponents="1"> 
0 0 0 0 0 0 0 0 0 0 0 0 0 0 0 0 0 0 0 0 0 0 0 0 0 0 0 0 0 0 0 0 0 0 0 0 0 0 0 0 0 0 0 0 0 0 0 0 0 0 0 0 0 0 0 0 0 0 0 0 0 0 0 0 0 0 0 0 0 0 0 0 0 0 0 0 0 0 0 0 0 0 0 0 0 0 0 0 0 0 0 0 0 0 0 0 0 0 0 0 0 0 0 0 0 0 0 0 0 0 0 0 0 0 0 0 0 0 0 0 0 0 0 0 0 0 0 0 0 0 2.04783e-07 8.19131e-07 1.84304e-06 3.27652e-06 4.97412e-06 6.79039e-06 8.72532e-06 1.07789e-05 1.28618e-05 1.48846e-05 1.68472e-05 1.87497e-05 2.05034e-05 2.20197e-05 2.32986e-05 2.43401e-05 2.5086e-05 2.54782e-05 2.55168e-05 2.52016e-05 2.44983e-05 2.33721e-05 2.18232e-05 1.98515e-05 1.74419e-05 1.45792e-05 1.12635e-05 7.49473e-06 3.2756e-06 -1.39121e-06 -6.50572e-06 -1.20679e-05 -1.80563e-05 -2.44495e-05 -3.12475e-05 -3.84503e-05 -4.60139e-05 -5.38944e-05 -6.2092e-05 -7.06065e-05 -7.93671e-05 -8.83031e-05 -9.74145e-05 -0.000106701 -0.000116064 -0.000125405 -0.000134724 -0.00014402 -0.000153173 -0.000162065 -0.000170694 -0.000179061 -0.000187042 -0.000194513 -0.000201473 -0.000207923 -0.00021376 -0.000218878 -0.000223279 -0.000226963 -0.000229869 -0.00023194 -0.000233174 -0.000233573 -0.000233135 -0.000231863 -0.000229755 -0.000226812 -0.000223093 -0.000218659 -0.000213509 -0.000207644 -0.000201167 -0.000194183 -0.000186692 -0.000178693 -0.000170312 -0.000161671 -0.000152772 -0.000143614 -0.000134317 -0.000125 -0.000115665 -0.00010631 -9.70344e-05 -8.79368e-05 -7.90172e-05 -7.02754e-05 -6.17819e-05 -5.36069e-05 -4.57506e-05 -3.82127e-05 -3.10368e-05 -2.42662e-05 -1.79008e-05 -1.19407e-05 -6.40665e-06 -1.31968e-06 3.32026e-06 7.51317e-06 1.12569e-05 1.45492e-05 1.73902e-05 1.97798e-05 2.17335e-05 2.32669e-05 2.43798e-05 2.50724e-05 2.53793e-05 2.53351e-05 2.49398e-05 2.41935e-05 2.31541e-05 2.18795e-05 2.03698e-05 1.86248e-05 1.67328e-05 1.47816e-05 1.27714e-05 1.07021e-05 8.66229e-06 6.74072e-06 4.93734e-06 3.25216e-06 1.82934e-06 8.13041e-07 2.0326e-07 0 0 8.19131e-07 3.27652e-06 7.37218e-06 1.31061e-05 1.98965e-05 2.71615e-05 3.49013e-05 4.31157e-05 5.14472e-05 5.95382e-05 6.73887e-05 7.49987e-05 8.20136e-05 8.80788e-05 9.31944e-05 9.73603e-05 0.000100344 0.000101913 0.000102067 0.000100807 9.79931e-05 9.34885e-05 8.72928e-05 7.9406e-05 6.97674e-05 5.83168e-05 4.50539e-05 2.99789e-05 1.31024e-05 -5.56484e-06 -2.60229e-05 -4.82717e-05 -7.22254e-05 -9.77982e-05 -0.00012499 -0.000153801 -0.000184055 -0.000215578 -0.000248368 -0.000282426 -0.000317469 -0.000353213 -0.000389658 -0.000426804 -0.000464257 -0.00050162 -0.000538894 -0.000576078 -0.000612694 -0.00064826 -0.000682777 -0.000716246 -0.000748169 -0.000778051 -0.000805893 -0.000831694 -0.000855039 -0.000875513 -0.000893117 -0.000907851 -0.000919477 -0.000927759 -0.000932697 -0.00093429 -0.000932541 -0.000927451 -0.00091902 -0.000907247 -0.000892373 -0.000874636 -0.000854037 -0.000830576 -0.000804669 -0.000776733 -0.000746768 -0.000714774 -0.000681248 -0.000646686 -0.000611088 -0.000574455 -0.000537266 -0.000500001 -0.000462658 -0.000425239 -0.000388137 -0.000351747 -0.000316069 -0.000281102 -0.000247128 -0.000214428 -0.000183002 -0.000152851 -0.000124147 -9.70648e-05 -7.16032e-05 -4.77626e-05 -2.56266e-05 -5.27872e-06 1.3281e-05 3.00527e-05 4.50275e-05 5.81969e-05 6.95608e-05 7.91192e-05 8.69341e-05 9.30675e-05 9.75193e-05 0.00010029 0.000101517 0.00010134 9.97592e-05 9.6774e-05 9.26164e-05 8.75181e-05 8.14791e-05 7.44993e-05 6.6931e-05 5.91264e-05 5.10855e-05 4.28082e-05 3.46492e-05 2.69629e-05 1.97494e-05 1.30087e-05 7.31737e-06 3.25216e-06 8.13041e-07 0 0 1.84304e-06 7.37218e-06 1.65874e-05 2.94887e-05 4.47671e-05 6.11135e-05 7.85279e-05 9.70104e-05 0.000115756 0.000133961 0.000151625 0.000168747 0.000184531 0.000198177 0.000209687 0.000219061 0.000225774 0.000229304 0.000229651 0.000226815 0.000220485 0.000210349 0.000196409 0.000178663 0.000156977 0.000131213 0.000101371 6.74525e-05 2.94804e-05 -1.25209e-05 -5.85515e-05 -0.000108611 -0.000162507 -0.000220046 -0.000281228 -0.000346052 -0.000414125 -0.00048505 -0.000558828 -0.000635458 -0.000714304 -0.000794728 -0.00087673 -0.00096031 -0.00104458 -0.00112865 -0.00121251 -0.00129618 -0.00137856 -0.00145858 -0.00153625 -0.00161155 -0.00168338 -0.00175062 -0.00181326 -0.00187131 -0.00192384 -0.0019699 -0.00200951 -0.00204266 -0.00206882 -0.00208746 -0.00209857 -0.00210215 -0.00209822 -0.00208676 -0.00206779 -0.00204131 -0.00200784 -0.00196793 -0.00192158 -0.0018688 -0.00181051 -0.00174765 -0.00168023 -0.00160824 -0.00153281 -0.00145504 -0.00137495 -0.00129252 -0.00120885 -0.001125 -0.00104098 -0.000956788 -0.000873309 -0.000791431 -0.000711155 -0.000632479 -0.000556037 -0.000482463 -0.000411755 -0.000343915 -0.000279332 -0.000218396 -0.000161107 -0.000107466 -5.76599e-05 -1.18771e-05 2.98823e-05 6.76185e-05 0.000101312 0.000130943 0.000156512 0.000178018 0.000195602 0.000209402 0.000219419 0.000225652 0.000228413 0.000228015 0.000224458 0.000217742 0.000208387 0.000196916 0.000183328 0.000167623 0.000150595 0.000133035 0.000114942 9.63185e-05 7.79606e-05 6.06665e-05 4.44361e-05 2.92695e-05 1.64641e-05 7.31737e-06 1.82934e-06 0 0 3.27652e-06 1.31061e-05 2.94887e-05 5.24244e-05 7.95859e-05 0.000108646 0.000139605 0.000172463 0.000205789 0.000238153 0.000269555 0.000299995 0.000328054 0.000352315 0.000372777 0.000389441 0.000401376 0.000407652 0.000408269 0.000403226 0.000391972 0.000373954 0.000349171 0.000317624 0.00027907 0.000233267 0.000180216 0.000119916 5.24097e-05 -2.22594e-05 -0.000104091 -0.000193087 -0.000288902 -0.000391193 -0.00049996 -0.000615204 -0.000736222 -0.000862311 -0.000993472 -0.0011297 -0.00126987 -0.00141285 -0.00155863 -0.00170722 -0.00185703 -0.00200648 -0.00215558 -0.00230431 -0.00245077 -0.00259304 -0.00273111 -0.00286498 -0.00299268 -0.00311221 -0.00322357 -0.00332677 -0.00342015 -0.00350205 -0.00357247 -0.0036314 -0.00367791 -0.00371103 -0.00373079 -0.00373716 -0.00373017 -0.0037098 -0.00367608 -0.00362899 -0.00356949 -0.00349854 -0.00341615 -0.0033223 -0.00321868 -0.00310693 -0.00298707 -0.0028591 -0.00272499 -0.00258674 -0.00244435 -0.00229782 -0.00214907 -0.002 -0.00185063 -0.00170096 -0.00155255 -0.00140699 -0.00126427 -0.00112441 -0.00098851 -0.000857711 -0.000732009 -0.000611404 -0.000496589 -0.000388259 -0.000286413 -0.00019105 -0.000102506 -2.11149e-05 5.31241e-05 0.000120211 0.00018011 0.000232788 0.000278243 0.000316477 0.000347737 0.00037227 0.000390077 0.000401158 0.000406068 0.000405361 0.000399037 0.000387096 0.000370466 0.000350072 0.000325916 0.000297997 0.000267724 0.000236506 0.000204342 0.000171233 0.000138597 0.000107852 7.89975e-05 5.20346e-05 2.92695e-05 1.30087e-05 3.25216e-06 0 0 4.97399e-06 1.9896e-05 4.47659e-05 7.95839e-05 0.000120766 0.000164729 0.000211473 0.000260998 0.000311119 0.000359651 0.000406594 0.000451949 0.000493561 0.000529277 0.000559096 0.000583018 0.000599639 0.000607554 0.000606765 0.000597269 0.000578248 0.000548882 0.000509169 0.00045911 0.000398365 0.000326592 0.000243791 0.000149962 4.51969e-05 -7.04118e-05 -0.000196864 -0.000334161 -0.000481759 -0.000639117 -0.000806235 -0.000983113 -0.00116867 -0.00136184 -0.00156261 -0.00177098 -0.00198525 -0.00220367 -0.00242625 -0.002653 -0.00288152 -0.00310941 -0.00333667 -0.00356331 -0.00378641 -0.00400308 -0.0042133 -0.0044171 -0.00461144 -0.00479335 -0.00496281 -0.00511982 -0.00526187 -0.00538645 -0.00549356 -0.00558319 -0.00565392 -0.0057043 -0.00573434 -0.00574403 -0.00573339 -0.00570243 -0.00565113 -0.00557951 -0.00548902 -0.0053811 -0.00525576 -0.00511299 -0.00495533 -0.00478529 -0.00460288 -0.00440809 -0.00420394 -0.00399344 -0.00377658 -0.00355336 -0.00332669 -0.00309947 -0.00287169 -0.00264337 -0.00241689 -0.00219463 -0.0019766 -0.00176279 -0.00155492 -0.0013547 -0.00116212 -0.000977179 -0.000800952 -0.000634497 -0.000477814 -0.000330904 -0.000194295 -6.85141e-05 4.6438e-05 0.000150561 0.000243777 0.000326004 0.000397244 0.000457495 0.000507109 0.000546435 0.000575474 0.000594224 0.000603509 0.000604153 0.000596156 0.000579518 0.000555639 0.000525917 0.000490354 0.000448948 0.000403841 0.00035717 0.000308937 0.000259142 0.00020995 0.000163528 0.000119876 7.89942e-05 4.44343e-05 1.97486e-05 4.93714e-06 0 0 6.78988e-06 2.71595e-05 6.11089e-05 0.000108638 0.000164721 0.000224333 0.000287472 0.00035414 0.000421319 0.000485991 0.000548158 0.000607818 0.000662029 0.000707847 0.000745273 0.000774307 0.000793052 0.000799611 0.000793984 0.000776172 0.000745103 0.00069971 0.000639991 0.000565946 0.000477181 0.000373298 0.0002543 0.000120184 -2.88512e-05 -0.00019261 -0.000371092 -0.000564297 -0.00077143 -0.000991698 -0.0012251 -0.00147163 -0.0017298 -0.00199811 -0.00227655 -0.00256512 -0.00286148 -0.00316327 -0.00347049 -0.00378314 -0.00409797 -0.00441172 -0.00472439 -0.00503598 -0.00534255 -0.00564015 -0.00592878 -0.00620845 -0.00647508 -0.00672457 -0.00695694 -0.00717218 -0.00736687 -0.0075376 -0.00768436 -0.00780717 -0.00790405 -0.00797307 -0.00801422 -0.00802749 -0.00801291 -0.00797048 -0.00790021 -0.00780209 -0.0076781 -0.00753021 -0.00735843 -0.00716275 -0.00694661 -0.00671343 -0.00646323 -0.00619599 -0.00591581 -0.00562678 -0.00532889 -0.00502214 -0.00471048 -0.00439785 -0.00408425 -0.00376967 -0.00345736 -0.00315058 -0.0028493 -0.00255355 -0.00226565 -0.00198794 -0.00172043 -0.0014631 -0.00121745 -0.000984952 -0.000765607 -0.000559416 -0.000367154 -0.000189597 -2.67445e-05 0.000121403 0.000254666 0.000372866 0.000476002 0.000564074 0.000637491 0.000696662 0.000741585 0.000772261 0.000789764 0.00079517 0.000788478 0.000769688 0.000740692 0.000703379 0.000657749 0.000603804 0.000544466 0.000482658 0.000418382 0.000351637 0.000285414 0.000222707 0.000163515 0.000107838 6.06591e-05 2.69596e-05 6.7399e-06 0 0 8.72418e-06 3.48967e-05 7.85177e-05 0.000139587 0.000211451 0.000287456 0.000367602 0.000451889 0.000536389 0.000617175 0.000694245 0.000767601 0.000833456 0.000888026 0.00093131 0.000963309 0.000981615 0.000983821 0.000969927 0.000939933 0.000892538 0.000826439 0.000741637 0.000638131 0.000515517 0.000373387 0.000211743 3.05832e-05 -0.000169735 -0.000388853 -0.000626773 -0.000883495 -0.00115792 -0.00144893 -0.00175655 -0.00208077 -0.00241961 -0.00277112 -0.00313529 -0.00351212 -0.00389859 -0.00429166 -0.00469135 -0.00509764 -0.00550638 -0.0059134 -0.00631872 -0.00672232 -0.00711918 -0.00750425 -0.00787755 -0.00823906 -0.00858357 -0.00890587 -0.00920596 -0.00948385 -0.00973514 -0.00995549 -0.0101449 -0.0103033 -0.0104283 -0.0105173 -0.0105704 -0.0105875 -0.0105687 -0.010514 -0.0104233 -0.0102967 -0.0101367 -0.00994589 -0.00972417 -0.00947158 -0.00919251 -0.00889136 -0.00856812 -0.00822279 -0.0078606 -0.00748677 -0.0071013 -0.00670418 -0.00630046 -0.00589516 -0.00548829 -0.00507984 -0.00467397 -0.00427482 -0.00388238 -0.00349667 -0.00312069 -0.00275745 -0.00240694 -0.00206917 -0.00174608 -0.00143962 -0.00114979 -0.000876585 -0.000621083 -0.000384363 -0.000166423 3.27353e-05 0.000212779 0.000373373 0.000514518 0.000636213 0.000738883 0.000822948 0.00088841 0.000935269 0.000964833 0.000978411 0.000976002 0.000957607 0.000925625 0.000882457 0.000828104 0.000762564 0.000689599 0.000612969 0.000532675 0.000448716 0.000364989 0.000285388 0.000209914 0.000138567 7.7944e-05 3.46418e-05 8.66044e-06 0 0 1.07769e-05 4.31076e-05 9.69922e-05 0.00017243 0.000260955 0.0003541 0.000451863 0.000554246 0.000656331 0.000753201 0.000844857 0.000931297 0.00100784 0.00106981 0.00111721 0.00115002 0.00116533 0.00116019 0.00113459 0.00108855 0.00102055 0.000929068 0.000814107 0.000675666 0.000513374 0.000326858 0.00011612 -0.000118841 -0.000377453 -0.000659143 -0.00096391 -0.00129175 -0.00164121 -0.00201083 -0.00240059 -0.00281051 -0.0032381 -0.00368088 -0.00413884 -0.00461198 -0.00509656 -0.00558884 -0.00608881 -0.00659648 -0.00710674 -0.00761447 -0.00811967 -0.00862234 -0.00911631 -0.00959539 -0.0100596 -0.0105089 -0.0109369 -0.0113373 -0.0117099 -0.0120548 -0.0123667 -0.0126401 -0.0128751 -0.0130717 -0.0132267 -0.0133371 -0.0134029 -0.0134242 -0.0134008 -0.0133329 -0.0132205 -0.0130634 -0.0128649 -0.0126281 -0.012353 -0.0120395 -0.011693 -0.0113191 -0.0109176 -0.0104885 -0.0100383 -0.0095734 -0.00909379 -0.00859947 -0.00809661 -0.0075914 -0.00708382 -0.0065739 -0.00606671 -0.00556735 -0.00507584 -0.00459217 -0.00412005 -0.00366321 -0.00322166 -0.00279539 -0.00238685 -0.00199851 -0.00163036 -0.00128241 -0.000956083 -0.000652813 -0.000372599 -0.000115442 0.000118115 0.000327526 0.000512792 0.000673913 0.000811283 0.000925296 0.00101595 0.00108325 0.00112872 0.00115388 0.00115873 0.00114327 0.00111044 0.00106315 0.00100142 0.000925229 0.000839241 0.000748104 0.000651817 0.000550382 0.000448674 0.000351571 0.000259073 0.00017118 9.62889e-05 4.27951e-05 1.06988e-05 0 0 1.28519e-05 5.14078e-05 0.000115668 0.000205631 0.000310886 0.000421019 0.000536031 0.000655921 0.000774716 0.000886442 0.000991098 0.00108869 0.0011736 0.00124024 0.00128861 0.00131871 0.00132708 0.00131029 0.00126833 0.0012012 0.00110724 0.00098477 0.000833794 0.000654312 0.000446067 0.000208807 -5.74709e-05 -0.000352765 -0.000676205 -0.00102692 -0.00140491 -0.00181018 -0.00224084 -0.002695 -0.00317268 -0.00367387 -0.00419554 -0.00473466 -0.00529124 -0.00586527 -0.00645229 -0.00704784 -0.00765193 -0.00826455 -0.00887966 -0.00949121 -0.0100992 -0.0107036 -0.0112972 -0.0118726 -0.0124298 -0.0129689 -0.0134822 -0.0139622 -0.0144088 -0.0148221 -0.0151957 -0.0155233 -0.0158047 -0.01604 -0.0162256 -0.0163578 -0.0164366 -0.016462 -0.0164341 -0.0163528 -0.0162181 -0.0160301 -0.0157924 -0.0155088 -0.0151792 -0.0148036 -0.0143885 -0.0139402 -0.0134587 -0.0129441 -0.012404 -0.0118459 -0.0112698 -0.0106757 -0.010071 -0.00946298 -0.00885157 -0.0082368 -0.00762471 -0.00702132 -0.00642664 -0.00584066 -0.00526782 -0.00471255 -0.00417486 -0.00365474 -0.00315519 -0.00267921 -0.00222679 -0.00179794 -0.00139449 -0.00101831 -0.000669378 -0.000347704 -5.41226e-05 0.000210531 0.000446257 0.000653054 0.000831207 0.000980996 0.00110242 0.00119549 0.00126187 0.00130326 0.00131965 0.00131104 0.00128088 0.00123259 0.00116618 0.00108165 0.000984562 0.000880489 0.00076943 0.000651384 0.000532278 0.000418037 0.000308662 0.000204153 0.000114836 5.10382e-05 1.27595e-05 0 0 1.48532e-05 5.94128e-05 0.000133679 0.000237651 0.000358894 0.000484971 0.000615882 0.000751628 0.000885119 0.00100927 0.00112408 0.00122954 0.00131914 0.00138635 0.00143118 0.00145361 0.00144975 0.00141571 0.00135147 0.00125704 0.0011307 0.000970713 0.000777092 0.000549831 0.000288915 -5.67285e-06 -0.000333933 -0.000695864 -0.00109019 -0.00151563 -0.00197219 -0.00245986 -0.00297629 -0.00351909 -0.00408827 -0.00468382 -0.00530218 -0.00593975 -0.00659655 -0.00727256 -0.00796266 -0.00866172 -0.00936973 -0.0100867 -0.0108057 -0.0115199 -0.0122293 -0.0129338 -0.0136251 -0.0142949 -0.0149432 -0.01557 -0.0161665 -0.0167242 -0.0172429 -0.0177228 -0.0181565 -0.0185366 -0.0188632 -0.0191362 -0.0193516 -0.0195049 -0.0195963 -0.0196258 -0.0195934 -0.019499 -0.0193428 -0.0191246 -0.0188488 -0.0185196 -0.018137 -0.0177011 -0.017219 -0.0166983 -0.0161389 -0.0155408 -0.0149127 -0.0142633 -0.0135927 -0.0129007 -0.0121959 -0.0114864 -0.0107723 -0.0100535 -0.00933711 -0.00862984 -0.00793173 -0.00724278 -0.00656809 -0.00591277 -0.00527682 -0.00466023 -0.00406655 -0.00349932 -0.00295854 -0.00244421 -0.00195866 -0.00150421 -0.00108087 -0.000688629 -0.000328728 -2.4037e-06 0.000290346 0.00054952 0.000775169 0.000967344 0.00112604 0.00125127 0.00134476 0.00140826 0.00144176 0.00144527 0.00142268 0.00137789 0.00131088 0.00122167 0.00111673 0.00100255 0.000879135 0.000746476 0.000611609 0.000481567 0.00035635 0.000235959 0.000132727 5.89897e-05 1.47474e-05 0 0 1.67807e-05 6.71228e-05 0.000151026 0.000268491 0.00040498 0.000545955 0.000691417 0.000841365 0.000987541 0.00112168 0.00124379 0.00135387 0.00144447 0.00150814 0.0015449 0.00155474 0.00153335 0.00147644 0.00138402 0.00125607 0.00109092 0.000886899 0.000644 0.000362224 4.19162e-05 -0.00031658 -0.000713265 -0.00114814 -0.00161941 -0.00212527 -0.00266575 -0.00324082 -0.00384757 -0.00448308 -0.00514735 -0.00584038 -0.00655803 -0.00729616 -0.00805477 -0.00883386 -0.00962768 -0.0104305 -0.0112422 -0.0120629 -0.012885 -0.0137006 -0.0145099 -0.0153128 -0.0161001 -0.0168623 -0.0175997 -0.0183121 -0.0189898 -0.0196232 -0.0202122 -0.0207568 -0.0212489 -0.0216802 -0.0220507 -0.0223603 -0.0226045 -0.0227784 -0.0228821 -0.0229155 -0.0228787 -0.0227717 -0.0225944 -0.022347 -0.0220342 -0.0216607 -0.0212266 -0.0207319 -0.0201847 -0.0195935 -0.018958 -0.0182785 -0.0175645 -0.0168258 -0.0160625 -0.0152745 -0.014471 -0.0136615 -0.0128459 -0.0120241 -0.0112039 -0.0103929 -0.00959112 -0.00879853 -0.00802088 -0.00726388 -0.00652753 -0.00581184 -0.00512091 -0.00445883 -0.0038256 -0.00322123 -0.00264858 -0.00211052 -0.00160707 -0.00113822 -0.000705703 -0.000311278 4.50595e-05 0.00036331 0.00064317 0.000884337 0.00108681 0.00125059 0.00137738 0.00146887 0.00152506 0.00154596 0.00153586 0.00149905 0.00143552 0.00134529 0.00123575 0.0011143 0.000980931 0.000835657 0.000686668 0.000542162 0.000402139 0.000266598 0.000149962 6.66496e-05 1.66624e-05 0 0 1.86344e-05 7.45376e-05 0.000167709 0.00029815 0.000449143 0.000603971 0.000762635 0.000925134 0.00108198 0.00122368 0.00135024 0.00146166 0.00154957 0.00160561 0.00162978 0.00162208 0.00157787 0.0014925 0.00136598 0.00119829 0.000987918 0.000733328 0.000434518 9.1491e-05 -0.000294929 -0.000723915 -0.00119547 -0.00170959 -0.00226385 -0.00285585 -0.00348558 -0.00415304 -0.00485468 -0.00558698 -0.00634994 -0.00714354 -0.00796309 -0.00880388 -0.0096659 -0.0105492 -0.0114473 -0.0123541 -0.0132694 -0.0141933 -0.0151174 -0.0160333 -0.0169411 -0.0178407 -0.018722 -0.0195749 -0.0203993 -0.0211953 -0.0219521 -0.0226592 -0.0233166 -0.0239242 -0.024473 -0.024954 -0.0253671 -0.0257123 -0.0259845 -0.0261783 -0.0262938 -0.0263311 -0.02629 -0.0261707 -0.0259731 -0.0256973 -0.0253485 -0.0249321 -0.0244479 -0.023896 -0.0232856 -0.0226256 -0.0219161 -0.0211571 -0.0203593 -0.0195334 -0.0186792 -0.0177969 -0.0168966 -0.0159884 -0.0150724 -0.0141485 -0.0132251 -0.0123105 -0.0114048 -0.0105079 -0.00962617 -0.00876586 -0.00792701 -0.00710959 -0.00631829 -0.00555775 -0.00482798 -0.00412899 -0.00346424 -0.00283724 -0.00224798 -0.00169646 -0.00118505 -0.000716093 -0.000289602 9.44242e-05 0.00043521 0.000731977 0.000984725 0.00119345 0.00135972 0.00148509 0.00156955 0.00161311 0.0016204 0.00159607 0.00154011 0.00145252 0.00134162 0.00121572 0.00107482 0.000918926 0.000757454 0.000599821 0.000446027 0.000296072 0.00016654 7.40179e-05 1.85045e-05 0 0 2.03108e-05 8.12431e-05 0.000182797 0.000324973 0.000488869 0.000655587 0.000825126 0.000997486 0.00116192 0.00130769 0.00143478 0.00154321 0.00162372 0.00166708 0.0016733 0.00164236 0.0015694 0.00144951 0.00128271 0.001069 0.000807132 0.000495889 0.000135267 -0.000274735 -0.000732643 -0.00123698 -0.00178776 -0.00238497 -0.00302543 -0.00370598 -0.00442661 -0.00518732 -0.00598391 -0.00681214 -0.00767202 -0.00856355 -0.00948149 -0.0104206 -0.0113809 -0.0123623 -0.0133582 -0.0143616 -0.0153726 -0.0163912 -0.0174085 -0.0184157 -0.0194127 -0.0203995 -0.0213653 -0.0222994 -0.0232017 -0.0240722 -0.0248995 -0.0256722 -0.0263903 -0.0270538 -0.0276529 -0.0281778 -0.0286287 -0.0290054 -0.0293023 -0.0295138 -0.0296398 -0.0296804 -0.0296356 -0.0295054 -0.0292898 -0.0289889 -0.0286082 -0.0281537 -0.0276251 -0.0270226 -0.0263559 -0.0256349 -0.0248595 -0.0240298 -0.0231572 -0.0222531 -0.0213175 -0.0203505 -0.0193628 -0.0183652 -0.0173578 -0.0163406 -0.0153224 -0.014312 -0.0133096 -0.012315 -0.0113351 -0.0103766 -0.00943956 -0.00852388 -0.00763481 -0.00677753 -0.00595205 -0.00515837 -0.00440064 -0.00368303 -0.00300552 -0.00236813 -0.00177396 -0.00122612 -0.000724621 -0.000269451 0.000137969 0.000496223 0.000805311 0.00106523 0.00127726 0.00144264 0.00156139 0.00163351 0.00166387 0.00165736 0.00161396 0.0015337 0.00142574 0.00129928 0.00115433 0.000990876 0.000819589 0.000651137 0.000485518 0.000322734 0.000181538 8.06836e-05 2.01709e-05 0 0 2.17064e-05 8.68254e-05 0.000195357 0.000347302 0.000521644 0.00069737 0.000874479 0.00105297 0.00122085 0.00136611 0.00148876 0.00158879 0.00165617 0.00168089 0.00166292 0.00160229 0.001494 0.00133311 0.0011196 0.000853478 0.000534013 0.000160475 -0.000267137 -0.000748821 -0.00128225 -0.00186509 -0.00249735 -0.00317903 -0.00390603 -0.00467428 -0.00548376 -0.00633449 -0.00722151 -0.00813988 -0.00908959 -0.0100707 -0.0110774 -0.012104 -0.0131507 -0.0142173 -0.0152967 -0.0163821 -0.0174733 -0.0185703 -0.0196641 -0.0207455 -0.0218145 -0.0228712 -0.0239043 -0.0249027 -0.0258665 -0.0267955 -0.0276779 -0.0285019 -0.0292673 -0.0299743 -0.0306124 -0.0311716 -0.0316517 -0.0320528 -0.0323689 -0.032594 -0.0327282 -0.0327714 -0.0327237 -0.032585 -0.0323555 -0.032035 -0.0316297 -0.0311455 -0.0305825 -0.0299406 -0.0292302 -0.0284615 -0.0276346 -0.0267495 -0.025818 -0.0248522 -0.023852 -0.0228174 -0.0217597 -0.0206899 -0.019608 -0.0185142 -0.0174174 -0.0163267 -0.0152423 -0.014164 -0.013099 -0.0120541 -0.0110295 -0.0100251 -0.00904661 -0.00809963 -0.00718418 -0.00630026 -0.00545274 -0.00464653 -0.0038816 -0.00315797 -0.00247965 -0.00185065 -0.00127098 -0.00074063 -0.000261872 0.000163036 0.000534092 0.000851298 0.00111542 0.00132724 0.00148675 0.00159395 0.00165381 0.0016713 0.00164642 0.00157917 0.00147953 0.00135747 0.00121299 0.00104609 0.000868694 0.000692702 0.000518118 0.000344942 0.00019403 8.62356e-05 2.15589e-05 0 0 2.28211e-05 9.12844e-05 0.00020539 0.000365138 0.000547468 0.00072932 0.000910695 0.00109159 0.00125876 0.00139895 0.00151217 0.00159841 0.00164693 0.00164701 0.00159865 0.00150185 0.00135169 0.00114329 0.000876639 0.000551737 0.00016856 -0.000272916 -0.000772692 -0.00133077 -0.00194375 -0.00260824 -0.00332425 -0.00409178 -0.00490566 -0.00576075 -0.00665704 -0.00759453 -0.00856749 -0.0095702 -0.0106027 -0.0116649 -0.0127507 -0.0138542 -0.0149753 -0.0161139 -0.017263 -0.0184155 -0.0195714 -0.0207306 -0.0218841 -0.0230228 -0.0241467 -0.0252558 -0.026339 -0.0273849 -0.0283937 -0.0293652 -0.0302875 -0.0311483 -0.0319477 -0.0326857 -0.0333517 -0.0339352 -0.0344362 -0.0348546 -0.0351843 -0.0354191 -0.0355591 -0.0356041 -0.0355543 -0.0354096 -0.0351701 -0.0348358 -0.0344129 -0.0339076 -0.03332 -0.03265 -0.0319083 -0.0311054 -0.0302413 -0.0293161 -0.0283418 -0.0273307 -0.0262827 -0.0251979 -0.0240874 -0.0229624 -0.021823 -0.0206692 -0.0195101 -0.0183546 -0.0172029 -0.0160548 -0.0149176 -0.0137983 -0.0126968 -0.0116133 -0.0105537 -0.00952406 -0.00852437 -0.00755465 -0.00662055 -0.00572774 -0.00487622 -0.00406598 -0.0033021 -0.00258967 -0.00192867 -0.00131911 -0.000764311 -0.000267585 0.000171069 0.000551648 0.00087423 0.00113889 0.00134562 0.00149443 0.00159022 0.00163791 0.00163748 0.00158895 0.00150299 0.00139027 0.0012508 0.00108458 0.000904768 0.000724515 0.000543824 0.000362696 0.000204016 9.06739e-05 2.26685e-05 0 0 2.3655e-05 9.46201e-05 0.000212895 0.000378481 0.00056634 0.000751437 0.000933773 0.00111335 0.00127566 0.00140622 0.00150502 0.00157206 0.001596 0.00156547 0.00148049 0.00134105 0.00114247 0.00088006 0.000553828 0.000163772 -0.000289227 -0.000804283 -0.0013814 -0.00202057 -0.00271714 -0.00346643 -0.00426846 -0.00512321 -0.00602432 -0.00696539 -0.00794643 -0.00896744 -0.0100219 -0.0111031 -0.0122112 -0.0133462 -0.0145016 -0.0156711 -0.0168547 -0.0180523 -0.0192571 -0.0204619 -0.0216669 -0.022872 -0.0240684 -0.0252475 -0.0264091 -0.0275534 -0.0286693 -0.029746 -0.0307833 -0.0317814 -0.0327282 -0.0336115 -0.0344315 -0.0351881 -0.0358708 -0.0364687 -0.036982 -0.0374107 -0.0377485 -0.037989 -0.0381323 -0.0381784 -0.0381274 -0.0379791 -0.0377338 -0.0373912 -0.0369579 -0.03644 -0.0358377 -0.0351509 -0.0343903 -0.0335665 -0.0326797 -0.0317297 -0.0307286 -0.0296886 -0.0286097 -0.0274917 -0.0263458 -0.0251828 -0.0240029 -0.0228058 -0.0216005 -0.0203957 -0.0191914 -0.0179875 -0.0167911 -0.0156091 -0.0144416 -0.0132885 -0.0121561 -0.0110508 -0.00997262 -0.00892155 -0.00790407 -0.00692668 -0.00598938 -0.00509216 -0.00424133 -0.00344318 -0.0026977 -0.0020049 -0.00136935 -0.000795638 -0.00028376 0.000166285 0.000553672 0.000877579 0.00113801 0.00133495 0.00147311 0.00155718 0.00158715 0.00156303 0.00149611 0.00139769 0.00126777 0.00110634 0.000927813 0.000746578 0.000562639 0.000375994 0.000211497 9.39985e-05 2.34996e-05 0 0 2.41318e-05 9.65273e-05 0.000217186 0.000386109 0.00057642 0.000761245 0.000940582 0.00111443 0.0012671 0.00138288 0.00146178 0.0015038 0.00149711 0.00142987 0.0013021 0.00111379 0.000860678 0.000538519 0.000147308 -0.000312953 -0.000840218 -0.00143244 -0.00208962 -0.00281175 -0.00359266 -0.00442615 -0.00531222 -0.00625088 -0.00723434 -0.00825484 -0.00931237 -0.0104069 -0.0115311 -0.0126774 -0.0138459 -0.0150366 -0.0162429 -0.0174583 -0.0186827 -0.0199162 -0.0211523 -0.0223842 -0.0236122 -0.0248361 -0.0260479 -0.0272395 -0.0284111 -0.0295626 -0.0306838 -0.0317643 -0.0328042 -0.0338035 -0.0347507 -0.0356341 -0.0364537 -0.0372096 -0.0378913 -0.0384884 -0.0390009 -0.0394289 -0.039766 -0.0400061 -0.0401491 -0.0401951 -0.0401441 -0.0399961 -0.0397511 -0.0394091 -0.0389764 -0.0384593 -0.0378577 -0.0371716 -0.0364116 -0.035588 -0.0347009 -0.0337503 -0.0327477 -0.0317049 -0.0306218 -0.0294983 -0.0283449 -0.0271716 -0.0259787 -0.024766 -0.0235415 -0.0223135 -0.0210817 -0.0198463 -0.0186138 -0.0173907 -0.0161771 -0.0149729 -0.0137847 -0.0126189 -0.0114757 -0.0103549 -0.00926391 -0.00821014 -0.00719357 -0.00621419 -0.00527969 -0.00439775 -0.00356837 -0.00279155 -0.00207338 -0.00141996 -0.00083127 -0.000307323 0.000149907 0.000538445 0.00085829 0.00110944 0.00129618 0.00142276 0.0014892 0.00149549 0.00145342 0.00137474 0.00125946 0.00110759 0.000934717 0.00075643 0.000572733 0.000383625 0.000215789 9.59063e-05 2.39766e-05 0 0 2.41752e-05 9.67007e-05 0.000217577 0.000386803 0.000575869 0.000756265 0.000927991 0.00109105 0.00122863 0.00132392 0.00137694 0.00138767 0.00134401 0.00123383 0.00105715 0.000813954 0.000500683 0.000113772 -0.00034678 -0.000880973 -0.00148529 -0.0021562 -0.00289371 -0.00369782 -0.00456054 -0.00547385 -0.00643778 -0.0074523 -0.00850807 -0.00959572 -0.0107153 -0.0118667 -0.0130417 -0.0142319 -0.0154374 -0.0166582 -0.0178877 -0.0191194 -0.0203534 -0.0215895 -0.0228221 -0.0240455 -0.0252596 -0.0264644 -0.0276531 -0.028819 -0.0299621 -0.0310823 -0.0321707 -0.0332184 -0.0342252 -0.0351912 -0.0361059 -0.0369586 -0.0377494 -0.0384781 -0.0391352 -0.0397106 -0.0402044 -0.0406167 -0.0409415 -0.0411727 -0.0413105 -0.0413548 -0.0413056 -0.041163 -0.0409269 -0.0405973 -0.0401803 -0.0396819 -0.039102 -0.0384406 -0.0377076 -0.0369128 -0.0360562 -0.0351379 -0.0341684 -0.0331584 -0.0321079 -0.0310169 -0.0298943 -0.0287492 -0.0275817 -0.0263916 -0.0251859 -0.0239713 -0.0227478 -0.0215154 -0.0202799 -0.019047 -0.0178167 -0.0165891 -0.0153705 -0.0141676 -0.0129803 -0.0118086 -0.0106607 -0.00954495 -0.00846129 -0.00740973 -0.00639953 -0.00543994 -0.00453098 -0.00367264 -0.0028728 -0.00213937 -0.00147234 -0.000871705 -0.000340909 0.000116611 0.000500857 0.000811829 0.00105312 0.00122831 0.00133742 0.00138043 0.00136941 0.00131643 0.00122148 0.00108456 0.00092237 0.00075161 0.000572279 0.000384377 0.000216212 9.60942e-05 2.40235e-05 0 0 2.37851e-05 9.51404e-05 0.000214066 0.000380561 0.000564686 0.000736499 0.000896001 0.00104319 0.00116025 0.00122935 0.00125049 0.00122368 0.0011367 0.000977355 0.000745638 0.000441551 6.24826e-05 -0.00039418 -0.000928437 -0.00154029 -0.00222443 -0.00297556 -0.00379368 -0.00467878 -0.00562078 -0.00660956 -0.00764513 -0.00872749 -0.00984551 -0.010988 -0.0121551 -0.0133467 -0.0145536 -0.0157666 -0.0169857 -0.018211 -0.019436 -0.0206545 -0.0218666 -0.0230722 -0.0242667 -0.0254457 -0.026609 -0.0277569 -0.0288841 -0.0299858 -0.0310619 -0.0321124 -0.0331302 -0.0341082 -0.0350463 -0.0359445 -0.0367938 -0.0375851 -0.0383184 -0.0389938 -0.0396023 -0.0401352 -0.0405925 -0.0409743 -0.0412749 -0.041489 -0.0416165 -0.0416575 -0.0416119 -0.0414797 -0.0412611 -0.0409559 -0.0405697 -0.0401079 -0.0395706 -0.0389578 -0.0382783 -0.0375409 -0.0367457 -0.0358926 -0.0349907 -0.0340493 -0.0330681 -0.0320474 -0.0309942 -0.0299157 -0.0288119 -0.0276829 -0.0265337 -0.0253692 -0.0241896 -0.0229948 -0.0217894 -0.020578 -0.0193605 -0.0181369 -0.0169136 -0.0156967 -0.0144864 -0.0132826 -0.0120945 -0.0109311 -0.00979255 -0.00867879 -0.00760085 -0.00656977 -0.00558554 -0.00464816 -0.00376761 -0.00295388 -0.00220696 -0.00152686 -0.000918778 -0.000387921 6.57084e-05 0.000442111 0.000743936 0.000973831 0.0011318 0.00121783 0.0012441 0.00122276 0.0011538 0.00103724 0.000890772 0.00073212 0.000561278 0.000378248 0.000212765 9.45621e-05 2.36405e-05 0 0 2.29616e-05 9.18462e-05 0.000206654 0.000367385 0.000542872 0.000701947 0.00084461 0.000970862 0.00106196 0.00109915 0.00108243 0.00101181 0.000875184 0.000660435 0.000367566 -3.42133e-06 -0.000453924 -0.000985338 -0.00159766 -0.0022909 -0.00305765 -0.00389052 -0.00478952 -0.00575464 -0.00677339 -0.00783327 -0.00893429 -0.0100765 -0.0112467 -0.0124318 -0.0136319 -0.014847 -0.0160669 -0.0172815 -0.0184908 -0.0196949 -0.0208878 -0.0220636 -0.0232224 -0.0243641 -0.0254859 -0.0265847 -0.0276606 -0.0287136 -0.029741 -0.03074 -0.0317106 -0.032653 -0.0335622 -0.0344337 -0.0352674 -0.0360633 -0.0368144 -0.0375136 -0.038161 -0.0387565 -0.0392927 -0.0397623 -0.0401652 -0.0405015 -0.0407663 -0.0409548 -0.0410671 -0.0411031 -0.0410629 -0.0409464 -0.0407537 -0.0404848 -0.0401444 -0.0397373 -0.0392636 -0.0387233 -0.0381237 -0.0374723 -0.0367692 -0.0360143 -0.0352146 -0.0343774 -0.0335024 -0.0325899 -0.0316444 -0.030671 -0.0296694 -0.0286397 -0.0275848 -0.0265073 -0.0254072 -0.0242846 -0.0231424 -0.0219837 -0.0208084 -0.0196164 -0.0184138 -0.0172064 -0.0159941 -0.014777 -0.0135652 -0.0123686 -0.0111873 -0.0100214 -0.00888366 -0.00778722 -0.00673203 -0.00571811 -0.00475781 -0.00386349 -0.00303515 -0.00227279 -0.0015837 -0.000975153 -0.000447157 2.89937e-07 0.000368633 0.000659318 0.000872343 0.001