<?xml version="1.0"?> 
<VTKFile type="StructuredGrid" version="0.1"> 
<StructuredGrid WholeExtent="0 128 0 128 0 0"> 
<Piece Extent="0 128 0 128 0 0"> 
<PointData>
<DataArray type="Float32" Name="u" format="ascii" NumberOfComponents="1"> 
0 0 0 0 0 0 0 0 0 0 0 0 0 0 0 0 0 0 0 0 0 0 0 0 0 0 0 0 0 0 0 0 0 0 0 0 0 0 0 0 0 0 0 0 0 0 0 0 0 0 0 0 0 0 0 0 0 0 0 0 0 0 0 0 0 0 0 0 0 0 0 0 0 0 0 0 0 0 0 0 0 0 0 0 0 0 0 0 0 0 0 0 0 0 0 0 0 0 0 0 0 0 0 0 0 0 0 0 0 0 0 0 0 0 0 0 0 0 0 0 0 0 0 0 0 0 0 0 0 0 1.79034e-07 7.16134e-07 1.6113e-06 2.86454e-06 4.26907e-06 5.61814e-06 6.91174e-06 8.14987e-06 9.21541e-06 9.99126e-06 1.04774e-05 1.06738e-05 1.04948e-05 9.85434e-06 8.75257e-06 7.18945e-06 5.12769e-06 2.52997e-06 -6.03684e-07 -4.27329e-06 -8.47916e-06 -1.32216e-05 -1.85006e-05 -2.43163e-05 -3.06391e-05 -3.74398e-05 -4.47183e-05 -5.24746e-05 -6.06566e-05 -6.92122e-05 -7.81413e-05 -8.74439e-05 -9.7052e-05 -0.000106898 -0.000116981 -0.000127301 -0.000137781 -0.000148343 -0.000158986 -0.000169711 -0.000180433 -0.000191071 -0.000201624 -0.000212092 -0.000222389 -0.000232433 -0.000242223 -0.000251758 -0.000260958 -0.000269741 -0.000278109 -0.00028606 -0.000293524 -0.00030043 -0.000306778 -0.000312567 -0.000317745 -0.000322259 -0.000326108 -0.000329292 -0.000331783 -0.000333552 -0.0003346 -0.000334925 -0.00033453 -0.000333413 -0.000331575 -0.000329016 -0.000325765 -0.000321852 -0.000317276 -0.000312037 -0.00030619 -0.000299789 -0.000292832 -0.000285321 -0.000277327 -0.00026892 -0.000260102 -0.000250872 -0.000241312 -0.000231502 -0.000221443 -0.000211135 -0.000200662 -0.00019011 -0.000179477 -0.000168764 -0.000158055 -0.000147432 -0.000136894 -0.000126443 -0.000116156 -0.000106109 -9.63029e-05 -8.67378e-05 -7.74806e-05 -6.85985e-05 -6.00915e-05 -5.19596e-05 -4.4254e-05 -3.70257e-05 -3.02748e-05 -2.40013e-05 -1.82336e-05 -1.3e-05 -8.30061e-06 -4.1354e-06 -5.03366e-07 2.59651e-06 5.16422e-06 7.19978e-06 8.74069e-06 9.82449e-06 1.04512e-05 1.06207e-05 1.04185e-05 9.92996e-06 9.15503e-06 8.09374e-06 6.86217e-06 5.57642e-06 4.23649e-06 2.84239e-06 1.59884e-06 7.10597e-07 1.77649e-07 0 0 7.16134e-07 2.86454e-06 6.44521e-06 1.14581e-05 1.70763e-05 2.24726e-05 2.76469e-05 3.25995e-05 3.68617e-05 3.9965e-05 4.19096e-05 4.26954e-05 4.19791e-05 3.94174e-05 3.50103e-05 2.87578e-05 2.05107e-05 1.01199e-05 -2.41474e-06 -1.70932e-05 -3.39166e-05 -5.28864e-05 -7.40026e-05 -9.7265e-05 -0.000122556 -0.000149759 -0.000178873 -0.000209898 -0.000242627 -0.000276849 -0.000312565 -0.000349776 -0.000388208 -0.00042759 -0.000467923 -0.000509205 -0.000551125 -0.000593371 -0.000635944 -0.000678842 -0.000721734 -0.000764285 -0.000806496 -0.000848366 -0.000889558 -0.000929733 -0.000968891 -0.00100703 -0.00104383 -0.00107897 -0.00111244 -0.00114424 -0.0011741 -0.00120172 -0.00122711 -0.00125027 -0.00127098 -0.00128904 -0.00130443 -0.00131717 -0.00132713 -0.00133421 -0.0013384 -0.0013397 -0.00133812 -0.00133365 -0.0013263 -0.00131606 -0.00130306 -0.00128741 -0.0012691 -0.00124815 -0.00122476 -0.00119915 -0.00117133 -0.00114128 -0.00110931 -0.00107568 -0.00104041 -0.00100349 -0.000965247 -0.000926008 -0.000885772 -0.00084454 -0.000802649 -0.000760438 -0.000717908 -0.000675058 -0.00063222 -0.000589727 -0.000547578 -0.000505773 -0.000464623 -0.000424436 -0.000385212 -0.000346951 -0.000309922 -0.000274394 -0.000240366 -0.000207839 -0.000177016 -0.000148103 -0.000121099 -9.60052e-05 -7.29342e-05 -5.2e-05 -3.32024e-05 -1.65416e-05 -2.01346e-06 1.0386e-05 2.06569e-05 2.87991e-05 3.49628e-05 3.9298e-05 4.18046e-05 4.24828e-05 4.16741e-05 3.97198e-05 3.66201e-05 3.23749e-05 2.74487e-05 2.23057e-05 1.6946e-05 1.13696e-05 6.39538e-06 2.84239e-06 7.10597e-07 0 0 1.6113e-06 6.44521e-06 1.45017e-05 2.57808e-05 3.84216e-05 5.05632e-05 6.22056e-05 7.33488e-05 8.29387e-05 8.99213e-05 9.42966e-05 9.60646e-05 9.44529e-05 8.86891e-05 7.87731e-05 6.47051e-05 4.61492e-05 2.27698e-05 -5.43316e-06 -3.84596e-05 -7.63124e-05 -0.000118994 -0.000166506 -0.000218846 -0.000275752 -0.000336958 -0.000402464 -0.000472271 -0.00054591 -0.00062291 -0.000703272 -0.000786995 -0.000873468 -0.000962078 -0.00105283 -0.00114571 -0.00124003 -0.00133509 -0.00143087 -0.00152739 -0.0016239 -0.00171964 -0.00181462 -0.00190882 -0.00200151 -0.0020919 -0.00218 -0.00226582 -0.00234862 -0.00242767 -0.00250298 -0.00257454 -0.00264172 -0.00270387 -0.002761 -0.0028131 -0.00285971 -0.00290033 -0.00293497 -0.00296363 -0.00298605 -0.00300197 -0.0030114 -0.00301433 -0.00301077 -0.00300071 -0.00298417 -0.00296114 -0.00293188 -0.00289666 -0.00285548 -0.00280834 -0.00275571 -0.0026981 -0.00263549 -0.00256789 -0.00249594 -0.00242028 -0.00234092 -0.00225785 -0.0021718 -0.00208352 -0.00199299 -0.00190021 -0.00180596 -0.00171099 -0.00161529 -0.00151888 -0.00142249 -0.00132688 -0.00123205 -0.00113799 -0.0010454 -0.00095498 -0.000866726 -0.00078064 -0.000697325 -0.000617386 -0.000540824 -0.000467637 -0.000398286 -0.000333232 -0.000272474 -0.000216012 -0.000164102 -0.000117 -7.47055e-05 -3.72186e-05 -4.53029e-06 2.33686e-05 4.6478e-05 6.4798e-05 7.86662e-05 8.84204e-05 9.40604e-05 9.55864e-05 9.37667e-05 8.93696e-05 8.23953e-05 7.28436e-05 6.17595e-05 5.01878e-05 3.81284e-05 2.55815e-05 1.43896e-05 6.39538e-06 1.59884e-06 0 0 2.86454e-06 1.14581e-05 2.57808e-05 4.58326e-05 6.83051e-05 8.98902e-05 0.000110588 0.000130398 0.000147447 0.00015986 0.000167638 0.000170782 0.000167916 0.000157669 0.000140041 0.000115031 8.2043e-05 4.04796e-05 -9.65895e-06 -6.83726e-05 -0.000135666 -0.000211546 -0.00029601 -0.00038906 -0.000490225 -0.000599036 -0.000715492 -0.000839594 -0.000970506 -0.0011074 -0.00125026 -0.0013991 -0.00155283 -0.00171036 -0.00187169 -0.00203682 -0.0022045 -0.00237348 -0.00254377 -0.00271537 -0.00288693 -0.00305714 -0.00322598 -0.00339346 -0.00355823 -0.00371893 -0.00387556 -0.00402813 -0.00417532 -0.00431586 -0.00444974 -0.00457696 -0.00469638 -0.00480688 -0.00490844 -0.00500107 -0.00508393 -0.00515614 -0.00521773 -0.00526867 -0.00530853 -0.00533684 -0.0053536 -0.00535881 -0.00535247 -0.0053346 -0.0053052 -0.00526425 -0.00521224 -0.00514963 -0.00507641 -0.0049926 -0.00489905 -0.00479662 -0.00468531 -0.00456514 -0.00443722 -0.00430272 -0.00416163 -0.00401395 -0.00386099 -0.00370403 -0.00354309 -0.00337816 -0.0032106 -0.00304175 -0.00287163 -0.00270023 -0.00252888 -0.00235891 -0.00219031 -0.00202309 -0.00185849 -0.00169774 -0.00154085 -0.0013878 -0.00123969 -0.00109758 -0.000961464 -0.000831354 -0.000708064 -0.000592412 -0.000484397 -0.000384021 -0.000291737 -0.000208 -0.00013281 -6.61664e-05 -8.05385e-06 4.15441e-05 8.26276e-05 0.000115196 0.000139851 0.000157192 0.000167219 0.000169931 0.000166696 0.000158879 0.00014648 0.0001295 0.000109795 8.92227e-05 6.77839e-05 4.54782e-05 2.55815e-05 1.13696e-05 2.84239e-06 0 0 4.25944e-06 1.70378e-05 3.8335e-05 6.8151e-05 0.000101498 0.000133389 0.000163823 0.000192801 0.000217496 0.000235083 0.000245561 0.000248931 0.000243132 0.000226103 0.000197843 0.000158353 0.000106747 4.21412e-05 -3.54656e-05 -0.000126073 -0.000229666 -0.000346228 -0.000475761 -0.000618263 -0.000772999 -0.000939231 -0.00111696 -0.00130618 -0.00150562 -0.00171398 -0.00193126 -0.00215747 -0.00239095 -0.00263002 -0.0028747 -0.00312498 -0.00337898 -0.0036348 -0.00389245 -0.00415192 -0.0044112 -0.00466831 -0.00492323 -0.00517597 -0.00542449 -0.00566679 -0.00590285 -0.00613269 -0.00635436 -0.00656594 -0.00676742 -0.00695882 -0.00713844 -0.00730459 -0.00745728 -0.00759651 -0.00772102 -0.00782953 -0.00792205 -0.00799858 -0.00805844 -0.00810095 -0.00812612 -0.00813394 -0.00812442 -0.00809758 -0.0080534 -0.0079919 -0.00791376 -0.00781968 -0.00770966 -0.0075837 -0.00744308 -0.00728908 -0.0071217 -0.00694093 -0.00674848 -0.00654604 -0.00633362 -0.00611121 -0.00588076 -0.00564419 -0.00540151 -0.00515273 -0.00489986 -0.00464492 -0.00438793 -0.00412888 -0.00386976 -0.00361258 -0.00335734 -0.00310403 -0.00285453 -0.00261072 -0.0023726 -0.00214015 -0.00191504 -0.00169889 -0.0014917 -0.00129348 -0.00110548 -0.000928969 -0.000763944 -0.000610406 -0.000469068 -0.000340642 -0.00022513 -0.000122531 -3.28425e-05 4.39358e-05 0.000107804 0.000158763 0.000197703 0.000225514 0.000242198 0.000247753 0.00024423 0.00023368 0.000216103 0.000191498 0.000162668 0.000132414 0.000100735 6.76312e-05 3.80426e-05 1.69078e-05 4.22695e-06 0 0 5.57961e-06 2.23185e-05 5.02165e-05 8.92738e-05 0.000132773 0.000173995 0.000212941 0.000249611 0.000280197 0.00030089 0.00031169 0.000312599 0.000300863 0.000273733 0.000231207 0.000173287 9.88177e-05 6.64662e-06 -0.000103226 -0.000230802 -0.000375997 -0.000538731 -0.000719003 -0.000916813 -0.00113109 -0.00136078 -0.00160587 -0.00186636 -0.00214045 -0.00242633 -0.00272401 -0.00303348 -0.00335246 -0.00367865 -0.00401205 -0.00435266 -0.00469792 -0.00504526 -0.00539469 -0.00574619 -0.00609708 -0.00644468 -0.00678899 -0.00713001 -0.00746505 -0.00779144 -0.00810917 -0.00841825 -0.00871613 -0.00900029 -0.00927073 -0.00952743 -0.00976821 -0.00999086 -0.0101954 -0.0103818 -0.0105484 -0.0106935 -0.0108173 -0.0109196 -0.0109996 -0.0110564 -0.0110901 -0.0111005 -0.0110878 -0.0110519 -0.0109928 -0.0109106 -0.0108061 -0.0106802 -0.010533 -0.0103644 -0.0101761 -0.00996985 -0.00974552 -0.00950317 -0.00924502 -0.00897328 -0.00868795 -0.00838904 -0.00807909 -0.00776064 -0.00743371 -0.00709828 -0.00675704 -0.00641268 -0.00606519 -0.00571458 -0.00536353 -0.0050147 -0.00466811 -0.00432375 -0.00398417 -0.00365192 -0.003327 -0.0030094 -0.0027014 -0.00240524 -0.00212094 -0.00184849 -0.00158966 -0.00134623 -0.00111819 -0.000905541 -0.000709324 -0.00053057 -0.000369281 -0.000225457 -9.91547e-05 9.56656e-06 0.000100707 0.000174267 0.000231407 0.00027329 0.000299917 0.000311285 0.000310135 0.000299203 0.000278489 0.000247995 0.000211494 0.000172764 0.000131803 8.8612e-05 4.98442e-05 2.2153e-05 5.53825e-06 0 0 6.82506e-06 2.73002e-05 6.14255e-05 0.000109201 0.000162128 0.000211708 0.000257942 0.000300829 0.000335549 0.000357282 0.000366026 0.000361784 0.00034111 0.00030056 0.000240134 0.000159833 5.82539e-05 -6.60043e-05 -0.000212942 -0.000382558 -0.00057466 -0.000789052 -0.00102574 -0.00128471 -0.00156451 -0.00186368 -0.00218221 -0.00252011 -0.00287499 -0.00324445 -0.0036285 -0.00402713 -0.00443736 -0.00485623 -0.00528373 -0.00571985 -0.00616133 -0.00660488 -0.00705049 -0.00749818 -0.00794456 -0.00838626 -0.00882327 -0.00925559 -0.0096799 -0.0100929 -0.0104945 -0.0108848 -0.0112606 -0.0116189 -0.0119597 -0.0122828 -0.0125857 -0.0128657 -0.0131227 -0.0133568 -0.013566 -0.0137482 -0.0139034 -0.0140318 -0.0141321 -0.0142033 -0.0142455 -0.0142586 -0.0142426 -0.0141976 -0.0141235 -0.0140203 -0.0138892 -0.0137313 -0.0135464 -0.0133348 -0.0130982 -0.0128389 -0.0125568 -0.0122519 -0.0119268 -0.0115844 -0.0112246 -0.0108474 -0.010456 -0.0100534 -0.00963966 -0.00921481 -0.00878215 -0.00834502 -0.00790342 -0.00745735 -0.00701018 -0.00656527 -0.00612263 -0.00568226 -0.00524741 -0.00482134 -0.00440405 -0.00399555 -0.00359876 -0.00321664 -0.00284918 -0.00249639 -0.00216061 -0.00184419 -0.00154713 -0.00126943 -0.0010125 -0.000777784 -0.000565264 -0.000374945 -0.00020699 -6.15635e-05 6.13356e-05 0.000161707 0.000240964 0.00030052 0.000340375 0.000360529 0.000364411 0.000355448 0.00033364 0.000298989 0.000256273 0.000210273 0.000160989 0.000108421 6.09865e-05 2.71051e-05 6.77628e-06 0 0 7.99577e-06 3.19831e-05 7.19619e-05 0.000127932 0.000189565 0.000246529 0.000298826 0.000346455 0.000383553 0.000404258 0.000408569 0.000396487 0.000363871 0.000306583 0.000224623 0.000117991 -1.49441e-05 -0.000175811 -0.000364611 -0.000581343 -0.000825655 -0.00109719 -0.00139596 -0.00172195 -0.00207325 -0.00244793 -0.002846 -0.00326746 -0.00370925 -0.00416834 -0.00464473 -0.00513841 -0.00564567 -0.00616278 -0.00668974 -0.00722656 -0.0077692 -0.00831364 -0.00885987 -0.0094079 -0.00995365 -0.010493 -0.0110261 -0.0115527 -0.012069 -0.0125711 -0.0130589 -0.0135324 -0.0139879 -0.0144219 -0.0148342 -0.0152249 -0.0155909 -0.0159291 -0.0162393 -0.0165217 -0.0167738 -0.0169934 -0.0171805 -0.0173351 -0.0174559 -0.0175416 -0.0175924 -0.0176081 -0.0175888 -0.0175346 -0.0174453 -0.0173211 -0.0171632 -0.0169728 -0.01675 -0.0164947 -0.0162094 -0.0158963 -0.0155555 -0.015187 -0.0147939 -0.0143795 -0.0139436 -0.0134864 -0.0130114 -0.0125224 -0.0120194 -0.0115023 -0.0109752 -0.010442 -0.00990262 -0.00935718 -0.00880971 -0.00826428 -0.00772089 -0.00717954 -0.00664424 -0.00611898 -0.00560376 -0.00509859 -0.00460714 -0.00413309 -0.00367644 -0.00323719 -0.00281833 -0.00242285 -0.00205077 -0.00170206 -0.00137861 -0.00108228 -0.000813077 -0.000570995 -0.000356349 -0.000169454 -1.031e-05 0.000121084 0.000226373 0.000307203 0.000363573 0.000395484 0.000407057 0.000402415 0.000381555 0.00034448 0.000297004 0.000244941 0.000188292 0.000127057 7.14695e-05 3.17642e-05 7.94105e-06 0 0 8.96321e-06 3.58528e-05 8.06689e-05 0.000143411 0.000211978 0.000274268 0.000330279 0.000380014 0.000416581 0.000433093 0.00042955 0.000405951 0.000357509 0.000279437 0.000171735 3.44021e-05 -0.000134358 -0.000336345 -0.000571558 -0.000839997 -0.00114107 -0.00147421 -0.00183939 -0.00223662 -0.00266345 -0.00311741 -0.0035985 -0.00410673 -0.00463832 -0.00518951 -0.00576031 -0.0063507 -0.00695619 -0.00757227 -0.00819896 -0.00883623 -0.00947933 -0.0101235 -0.0107687 -0.0114149 -0.0120575 -0.0126917 -0.0133174 -0.0139347 -0.0145391 -0.0151261 -0.0156957 -0.0162479 -0.0167785 -0.0172835 -0.0177629 -0.0182167 -0.0186413 -0.0190334 -0.0193929 -0.0197198 -0.0200115 -0.0202656 -0.0204819 -0.0206604 -0.0207999 -0.020899 -0.0209576 -0.0209757 -0.0209534 -0.0208907 -0.0207876 -0.020644 -0.0204615 -0.0202413 -0.0199835 -0.0196881 -0.0193576 -0.0189948 -0.0185995 -0.0181719 -0.0177153 -0.0172334 -0.016726 -0.0161933 -0.0156394 -0.0150682 -0.01448 -0.0138746 -0.0132566 -0.0126306 -0.0119964 -0.011354 -0.0107084 -0.010064 -0.00942103 -0.00877937 -0.00814381 -0.00751907 -0.00690516 -0.00630208 -0.00571428 -0.00514622 -0.00459789 -0.00406929 -0.00356413 -0.00308611 -0.00263524 -0.00221151 -0.00181731 -0.00145506 -0.00112474 -0.000826365 -0.000560463 -0.000327578 -0.000127708 3.91452e-05 0.000174801 0.000281077 0.000357973 0.00040549 0.000428395 0.000431458 0.000414678 0.000378056 0.000328425 0.00027262 0.000210639 0.000142484 8.01475e-05 3.56211e-05 8.90528e-06 0 0 9.59884e-06 3.83954e-05 8.63895e-05 0.000153581 0.000226265 0.000290734 0.000346989 0.00039503 0.000427004 0.000435061 0.000419199 0.000379419 0.000310383 0.000206752 6.85273e-05 -0.000104292 -0.000313572 -0.000561176 -0.000847105 -0.00117136 -0.00153301 -0.00193114 -0.00236573 -0.0028368 -0.00334125 -0.00387598 -0.00444099 -0.00503628 -0.0056573 -0.00629949 -0.00696284 -0.00764737 -0.00834776 -0.00905872 -0.00978024 -0.0105123 -0.0112495 -0.0119863 -0.0127228 -0.0134589 -0.0141893 -0.0149088 -0.0156174 -0.016315 -0.0169969 -0.0176581 -0.0182985 -0.0189183 -0.0195131 -0.0200784 -0.0206143 -0.0211209 -0.0215943 -0.0220311 -0.0224312 -0.0227947 -0.0231187 -0.0234008 -0.0236408 -0.0238388 -0.0239934 -0.0241032 -0.0241681 -0.0241881 -0.0241634 -0.0240938 -0.0239794 -0.0238202 -0.0236177 -0.0233732 -0.0230869 -0.0227586 -0.0223912 -0.0219872 -0.0215467 -0.0210697 -0.02056 -0.020021 -0.0194529 -0.0188557 -0.0182337 -0.0175914 -0.0169287 -0.0162456 -0.015547 -0.0148379 -0.0141182 -0.0133879 -0.0126524 -0.0119168 -0.0111812 -0.0104455 -0.00971526 -0.00899585 -0.00828729 -0.00758958 -0.00690796 -0.00624768 -0.00560873 -0.00499112 -0.00439934 -0.00383786 -0.00330669 -0.00280582 -0.00233829 -0.00190711 -0.00151229 -0.00115381 -0.000832563 -0.000549405 -0.000304338 -9.73626e-05 7.34126e-05 0.000209879 0.000312036 0.000379884 0.000418743 0.000433932 0.000425452 0.000393302 0.000345274 0.000289159 0.000224957 0.000152667 8.58751e-05 3.81667e-05 9.54168e-06 0 0 9.90265e-06 3.96106e-05 8.91239e-05 0.000158442 0.000232425 0.000295929 0.000348955 0.000391504 0.000414823 0.00041016 0.000377517 0.000316892 0.000222494 8.85305e-05 -8.49983e-05 -0.000298092 -0.000552583 -0.000850303 -0.00119125 -0.00157543 -0.00200146 -0.00246799 -0.002975 -0.0035225 -0.00410666 -0.00472365 -0.00537347 -0.00605612 -0.00676619 -0.00749826 -0.00825233 -0.00902841 -0.00982037 -0.0106221 -0.0114336 -0.0122549 -0.0130798 -0.0139022 -0.0147222 -0.0155397 -0.016349 -0.0171444 -0.017926 -0.0186936 -0.0194423 -0.0201668 -0.0208673 -0.0215437 -0.0221916 -0.0228065 -0.0233885 -0.0239375 -0.02445 -0.0249223 -0.0253544 -0.0257463 -0.0260954 -0.0263991 -0.0266574 -0.0268703 -0.0270363 -0.0271542 -0.0272238 -0.0272453 -0.0272187 -0.0271438 -0.0270208 -0.0268497 -0.0266318 -0.0263687 -0.0260602 -0.0257064 -0.0253099 -0.0248735 -0.024397 -0.0238806 -0.0233278 -0.0227424 -0.0221243 -0.0214735 -0.0207946 -0.0200919 -0.0193654 -0.0186152 -0.0178463 -0.017064 -0.0162682 -0.0154589 -0.0146418 -0.0138226 -0.0130013 -0.0121779 -0.0113586 -0.0105493 -0.00975015 -0.00896108 -0.00818817 -0.00743746 -0.00670897 -0.00600268 -0.00532395 -0.00467809 -0.00406511 -0.00348501 -0.00294154 -0.00243844 -0.0019757 -0.00155334 -0.00117265 -0.000834936 -0.000540199 -0.000288439 -7.77913e-05 9.36091e-05 0.000225762 0.000318667 0.0003781 0.000409837 0.000413876 0.000390219 0.000347552 0.00029456 0.000231244 0.000157604 8.86524e-05 3.9401e-05 9.85026e-06 0 0 9.87466e-06 3.94986e-05 8.88719e-05 0.000157994 0.000230457 0.000289852 0.000336178 0.000369436 0.000380036 0.000358392 0.000304503 0.000218369 9.38413e-05 -7.52292e-05 -0.000288842 -0.000546998 -0.000851394 -0.00120373 -0.001604 -0.00205221 -0.00254643 -0.00308476 -0.00366718 -0.0042937 -0.00495966 -0.0056604 -0.00639593 -0.00716623 -0.00796498 -0.00878583 -0.00962878 -0.0104938 -0.011374 -0.0122624 -0.013159 -0.0140638 -0.0149701 -0.0158711 -0.0167669 -0.0176574 -0.0185366 -0.0193985 -0.0202432 -0.0210705 -0.0218753 -0.0226525 -0.0234021 -0.024124 -0.024814 -0.0254678 -0.0260853 -0.0266666 -0.0272082 -0.0277068 -0.0281623 -0.0285747 -0.0289416 -0.0292606 -0.0295316 -0.0297547 -0.0299286 -0.030052 -0.0301249 -0.0301473 -0.0301193 -0.0300408 -0.0299119 -0.0297325 -0.0295039 -0.0292276 -0.0289034 -0.0285313 -0.028114 -0.0276537 -0.0271505 -0.0266044 -0.026019 -0.0253975 -0.0247402 -0.0240468 -0.0233219 -0.0225696 -0.0217902 -0.0209834 -0.0201546 -0.0193089 -0.0184463 -0.0175668 -0.0166765 -0.0157814 -0.0148814 -0.0139767 -0.0130738 -0.0121795 -0.0112937 -0.0104166 -0.0095549 -0.00871557 -0.0078986 -0.00710398 -0.00633796 -0.00560681 -0.00491051 -0.00424908 -0.00362706 -0.00304903 -0.00251499 -0.00202494 -0.00158072 -0.00118417 -0.000835292 -0.000534085 -0.000278811 -6.77322e-05 9.91513e-05 0.00022184 0.000306468 0.000359172 0.000379952 0.000368807 0.000335257 0.000288822 0.000229502 0.000157296 8.84792e-05 3.93241e-05 9.83102e-06 0 0 9.42503e-06 3.77001e-05 8.48253e-05 0.000150801 0.000218208 0.00026963 0.000305065 0.000324516 0.000317669 0.000274214 0.000194151 7.74804e-05 -8.21557e-05 -0.000291114 -0.000549395 -0.000856999 -0.00121535 -0.00162586 -0.00208853 -0.00260337 -0.00316776 -0.00377911 -0.00443741 -0.00514267 -0.00588927 -0.00667163 -0.00748974 -0.0083436 -0.00922588 -0.0101293 -0.0110537 -0.0119993 -0.0129582 -0.0139226 -0.0148925 -0.015868 -0.0168418 -0.0178067 -0.0187626 -0.0197096 -0.0206415 -0.0215522 -0.0224416 -0.0233097 -0.0241516 -0.0249623 -0.0257418 -0.0264901 -0.0272033 -0.0278775 -0.0285128 -0.029109 -0.0296633 -0.0301727 -0.0306372 -0.0310568 -0.0314294 -0.0317532 -0.0320279 -0.0322537 -0.0324294 -0.0325541 -0.0326278 -0.0326504 -0.0326219 -0.0325424 -0.0324118 -0.0322302 -0.0319987 -0.0317183 -0.031389 -0.0310109 -0.0305859 -0.0301162 -0.0296018 -0.0290427 -0.0284419 -0.0278023 -0.027124 -0.026407 -0.0256553 -0.0248727 -0.0240593 -0.023215 -0.022345 -0.0214541 -0.0205425 -0.01961 -0.0186629 -0.0177074 -0.0167434 -0.015771 -0.0147973 -0.0138296 -0.0128679 -0.0119121 -0.01097 -0.0100494 -0.00915008 -0.0082722 -0.00742294 -0.00660955 -0.00583202 -0.00509036 -0.00439006 -0.00373662 -0.00313004 -0.00257031 -0.00205996 -0.0016015 -0.00119493 -0.000840254 -0.000535995 -0.000280687 -7.43285e-05 8.30798e-05 0.000197887 0.000276441 0.000318743 0.000324793 0.00030483 0.000269097 0.000217594 0.000150319 8.45546e-05 3.75798e-05 9.39495e-06 0 0 8.46398e-06 3.38559e-05 7.61758e-05 0.000135424 0.000193521 0.000232388 0.000252026 0.000252434 0.000222743 0.000152083 4.04536e-05 -0.000112145 -0.000312078 -0.000565712 -0.000873048 -0.00123408 -0.00164978 -0.00212109 -0.00264803 -0.00323058 -0.00386529 -0.0045487 -0.00528082 -0.00606164 -0.0068845 -0.00774271 -0.00863628 -0.0095652 -0.0105211 -0.0114956 -0.0124887 -0.0135004 -0.0145222 -0.0155454 -0.0165701 -0.0175962 -0.0186162 -0.0196225 -0.0206151 -0.0215939 -0.022553 -0.0234863 -0.0243937 -0.0252754 -0.0261268 -0.0269435 -0.0277256 -0.0284729 -0.0291825 -0.0298511 -0.0304788 -0.0310656 -0.0316093 -0.0321079 -0.0325612 -0.0329695 -0.0333311 -0.0336449 -0.0339108 -0.0341287 -0.0342981 -0.0344182 -0.0344891 -0.0345107 -0.0344831 -0.0344062 -0.0342801 -0.0341048 -0.0338809 -0.0336092 -0.0332897 -0.0329223 -0.0325085 -0.0320496 -0.0315457 -0.0309968 -0.0304051 -0.0297726 -0.0290995 -0.0283858 -0.0276345 -0.0268489 -0.026029 -0.0251748 -0.0242907 -0.0233813 -0.0224466 -0.0214866 -0.0205073 -0.0195148 -0.018509 -0.0174901 -0.0164656 -0.015443 -0.0144223 -0.0134037 -0.0123954 -0.0114062 -0.0104359 -0.00948454 -0.00856043 -0.00767185 -0.00681878 -0.00600123 -0.00522575 -0.00449891 -0.00382071 -0.00319113 -0.00261355 -0.00209132 -0.00162444 -0.0012129 -0.000855693 -0.000551797 -0.00030121 -0.000103934 4.63972e-05 0.000156147 0.000225316 0.000253903 0.00025271 0.000232537 0.000193383 0.000135249 7.60774e-05 3.38122e-05 8.45304e-06 0 0 6.99149e-06 2.7966e-05 6.29234e-05 0.000111864 0.000156396 0.000178128 0.00017706 0.000153192 9.52594e-05 -8.00096e-06 -0.00015659 -0.000350506 -0.000595926 -0.000899024 -0.0012598 -0.00167825 -0.0021547 -0.00268944 -0.00328249 -0.00393384 -0.00463902 -0.00539354 -0.00619741 -0.00705063 -0.00794533 -0.00887363 -0.00983553 -0.010831 -0.0118507 -0.0128849 -0.0139338 -0.0149973 -0.0160661 -0.0171308 -0.0181916 -0.0192484 -0.0202933 -0.0213186 -0.0223243 -0.0233103 -0.0242711 -0.0252009 -0.0260997 -0.0269676 -0.0278009 -0.0285962 -0.0293534 -0.0300724 -0.0307514 -0.0313884 -0.0319834 -0.0325363 -0.0330463 -0.0335124 -0.0339345 -0.0343127 -0.0346466 -0.0349358 -0.0351802 -0.0353798 -0.0355346 -0.0356442 -0.0357089 -0.0357284 -0.0357029 -0.0356324 -0.0355168 -0.0353561 -0.0351506 -0.0349003 -0.0346053 -0.0342656 -0.0338816 -0.0334538 -0.0329822 -0.0324668 -0.0319085 -0.0313085 -0.0306666 -0.029983 -0.0292595 -0.0284983 -0.0276994 -0.0268627 -0.0259919 -0.0250906 -0.0241588 -0.0231966 -0.0222096 -0.0212035 -0.0201783 -0.0191341 -0.0180786 -0.0170196 -0.0159572 -0.0148912 -0.0138311 -0.012786 -0.011756 -0.010741 -0.00975044 -0.0087937 -0.00787078 -0.00698167 -0.00613413 -0.00533591 -0.004587 -0.00388741 -0.0032415 -0.00265363 -0.0021238 -0.00165202 -0.00123791 -0.000881061 -0.000581493 -0.000339201 -0.000148001 -1.71107e-06 9.96689e-05 0.000156139 0.000178897 0.000179141 0.00015687 0.000112085 6.30476e-05 2.80212e-05 7.00529e-06 0 0 5.00757e-06 2.00303e-05 4.50681e-05 8.01211e-05 0.000106833 0.000106848 8.01664e-05 2.67876e-05 -6.47824e-05 -0.000206038 -0.000396978 -0.000637604 -0.000933699 -0.00129105 -0.00170965 -0.00218951 -0.0027301 -0.0033309 -0.00399192 -0.00471316 -0.00548895 -0.00631362 -0.00718719 -0.00810964 -0.00907178 -0.0100644 -0.0110875 -0.0121411 -0.0132145 -0.0142971 -0.0153889 -0.0164898 -0.0175898 -0.018679 -0.0197572 -0.0208245 -0.0218731 -0.022895 -0.0238902 -0.0248588 -0.0257958 -0.026696 -0.0275595 -0.0283863 -0.029174 -0.0299203 -0.0306252 -0.0312886 -0.0319102 -0.0324895 -0.0330265 -0.0335213 -0.0339743 -0.0343862 -0.034757 -0.0350866 -0.035376 -0.0356258 -0.0358362 -0.036007 -0.0361388 -0.0362322 -0.0362871 -0.0363035 -0.0362814 -0.0362208 -0.0361217 -0.0359842 -0.0358076 -0.0355916 -0.035336 -0.0350408 -0.0347054 -0.0343289 -0.0339113 -0.0334526 -0.0329523 -0.0324099 -0.0318253 -0.0311986 -0.0305303 -0.0298209 -0.0290703 -0.0282787 -0.0274483 -0.0265818 -0.025679 -0.02474 -0.0237698 -0.0227735 -0.0217512 -0.0207029 -0.0196363 -0.0185595 -0.0174723 -0.0163748 -0.015277 -0.0141889 -0.0131104 -0.0120416 -0.010993 -0.00997511 -0.00898802 -0.00803169 -0.0071152 -0.00624761 -0.00542892 -0.00465913 -0.00394379 -0.00328842 -0.00269304 -0.00215763 -0.00168263 -0.00126848 -0.000915178 -0.000622722 -0.000385308 -0.000197133 -5.81969e-05 3.14999e-05 8.33907e-05 0.000108909 0.000108054 8.08271e-05 4.54653e-05 2.02068e-05 5.0517e-06 0 0 2.48669e-06 9.94676e-06 2.23802e-05 3.9787e-05 4.42395e-05 1.78098e-05 -3.95019e-05 -0.000127696 -0.000258291 -0.000442809 -0.000681247 -0.000973607 -0.00132504 -0.0017407 -0.00222059 -0.00276471 -0.00337148 -0.00403934 -0.00476828 -0.00555831 -0.00640238 -0.00729345 -0.00823152 -0.00921659 -0.010238 -0.011285 -0.0123577 -0.0134561 -0.0145682 -0.0156822 -0.0167981 -0.0179158 -0.0190248 -0.0201142 -0.0211842 -0.0222346 -0.0232578 -0.024246 -0.0251993 -0.0261175 -0.0269968 -0.0278329 -0.0286259 -0.0293757 -0.0300818 -0.0307433 -0.0313602 -0.0319326 -0.032462 -0.0329499 -0.0333965 -0.0338016 -0.0341678 -0.0344977 -0.0347914 -0.0350486 -0.035272 -0.0354637 -0.0356239 -0.0357525 -0.0358509 -0.0359204 -0.0359611 -0.0359729 -0.0359559 -0.03591 -0.0358352 -0.0357315 -0.0355976 -0.035432 -0.0352348 -0.0350059 -0.034743 -0.0344437 -0.0341081 -0.0337361 -0.0333252 -0.032873 -0.0323795 -0.0318446 -0.0312669 -0.0306448 -0.0299785 -0.0292679 -0.0285138 -0.027717 -0.0268776 -0.0259955 -0.0250749 -0.02412 -0.0231307 -0.022107 -0.0210567 -0.0199876 -0.0188996 -0.0177928 -0.0166777 -0.0155651 -0.014455 -0.0133473 -0.0122538 -0.0111863 -0.0101449 -0.00912943 -0.00815052 -0.00721868 -0.00633391 -0.00549621 -0.00471249 -0.00398965 -0.00332769 -0.00272662 -0.0021879 -0.001713 -0.00130193 -0.000954676 -0.000666063 -0.000430901 -0.00024919 -0.00012093 -3.46537e-05 2.1105e-05 4.63462e-05 4.107e-05 2.31019e-05 1.02675e-05 2.56687e-06 0 0 -5.96675e-07 -2.3867e-06 -5.37007e-06 -9.54679e-06 -3.19787e-05 -8.97276e-05 -0.000182794 -0.000311177 -0.000486177 -0.000719095 -0.00100993 -0.00135869 -0.0017696 -0.00224691 -0.00279061 -0.00340072 -0.00407434 -0.00480861 -0.00560352 -0.00645908 -0.00736664 -0.00831755 -0.00931181 -0.0103494 -0.0114181 -0.0125055 -0.0136117 -0.0147366 -0.0158671 -0.0169901 -0.0181055 -0.0192132 -0.0203022 -0.0213611 -0.0223898 -0.0233885 -0.0243497 -0.0252661 -0.0261377 -0.0269645 -0.0277438 -0.0284729 -0.0291517 -0.0297804 -0.0303602 -0.0308926 -0.0313777 -0.0318154 -0.0322099 -0.0325652 -0.0328814 -0.0331585 -0.0334015 -0.0336155 -0.0338004 -0.0339562 -0.0340874 -0.0341982 -0.0342886 -0.0343586 -0.0344106 -0.0344472 -0.0344683 -0.0344738 -0.0344639 -0.0344384 -0.0343973 -0.0343407 -0.034266 -0.0341708 -0.034055 -0.0339187 -0.0337576 -0.0335673 -0.0333478 -0.033099 -0.0328162 -0.0324941 -0.0321329 -0.0317326 -0.031289 -0.0307983 -0.0302604 -0.0296753 -0.0290416 -0.0283582 -0.027625 -0.026842 -0.026012 -0.0251378 -0.0242195 -0.0232569 -0.0222576 -0.0212289 -0.0201708 -0.0190833 -0.0179776 -0.016865 -0.0157455 -0.0146191 -0.0134988 -0.0123977 -0.0113158 -0.010253 -0.00922166 -0.00823378 -0.00728941 -0.00638853 -0.00553964 -0.00475124 -0.00402333 -0.0033559 -0.00275173 -0.00221356 -0.0017414 -0.00133524 -0.000990808 -0.0007038 -0.000474219 -0.000302066 -0.000176081 -8.50079e-05 -2.88451e-05 -7.59318e-06 -4.27116e-06 -1.89829e-06 -4.74574e-07 0 0 -4.24252e-06 -1.69701e-05 -3.81827e-05 -6.78803e-05 -0.000121821 -0.000215764 -0.000349709 -0.000523655 -0.000748439 -0.0010349 -0.00138303 -0.00179284 -0.00226736 -0.00280966 -0.00341971 -0.00409754 -0.00483869 -0.00563873 -0.00649765 -0.00741547 -0.00838171 -0.0093859 -0.010428 -0.0115081 -0.0126121 -0.0137259 -0.0148494 -0.0159827 -0.0171114 -0.0182208 -0.019311 -0.020382 -0.0214221 -0.0224195 -0.0233742 -0.0242862 -0.0251488 -0.0259553 -0.0267056 -0.0273998 -0.0280369 -0.028616 -0.0291371 -0.0296001 -0.0300092 -0.0303684 -0.0306777 -0.0309372 -0.031154 -0.0313354 -0.0314814 -0.0315921 -0.0316753 -0.0317393 -0.031784 -0.0318094 -0.0318222 -0.0318291 -0.0318301 -0.0318252 -0.0318181 -0.0318126 -0.0318087 -0.0318063 -0.0318054 -0.031806 -0.031808 -0.0318115 -0.0318127 -0.0318077 -0.0317966 -0.0317794 -0.0317492 -0.0316996 -0.0316303 -0.0315415 -0.0314251 -0.0312732 -0.0310857 -0.0308626 -0.0305969 -0.0302813 -0.029916 -0.0295009 -0.029032 -0.0285055 -0.0279213 -0.0272794 -0.026581 -0.0258271 -0.0250176 -0.0241526 -0.0232389 -0.0222833 -0.0212858 -0.0202464 -0.0191767 -0.0180886 -0.0169821 -0.015857 -0.0147279 -0.0136091 -0.0125006 -0.0114025 -0.0103286 -0.00929292 -0.00829541 -0.00733609 -0.00642525 -0.00557321 -0.00477995 -0.00404549 -0.00337412 -0.00277016 -0.00223359 -0.00176442 -0.00135954 -0.00101583 -0.000733284 -0.000511908 -0.000340892 -0.00020943 -0.00011752 -6.51623e-05 -3.66538e-05 -1.62906e-05 -4.07264e-06 0 0 -8.45085e-06 -3.38034e-05 -7.60577e-05 -0.000135214 -0.000225289 -0.0003603 -0.000540247 -0.000765131 -0.00104508 -0.00139022 -0.00180054 -0.00227606 -0.00281834 -0.00342896 -0.0041079 -0.00485517 -0.00566452 -0.00652968 -0.00745067 -0.00842748 -0.00944759 -0.0104985 -0.0115802 -0.0126927 -0.01382 -0.0149461 -0.0160709 -0.0171944 -0.0183009 -0.0193743 -0.0204147 -0.0214222 -0.0223844 -0.0232895 -0.0241372 -0.0249277 -0.0256551 -0.0263135 -0.0269029 -0.0274234 -0.0278761 -0.0282623 -0.0285819 -0.028835 -0.0290288 -0.0291705 -0.0292602 -0.0292978 -0.0292943 -0.0292605 -0.0291965 -0.0291022 -0.0289893 -0.0288694 -0.0287423 -0.0286082 -0.0284765 -0.0283566 -0.0282486 -0.0281525 -0.0280734 -0.0280167 -0.0279823 -0.0279702 -0.0279804 -0.0280128 -0.0280674 -0.0281442 -0.0282378 -0.0283429 -0.0284596 -0.0285877 -0.0287179 -0.0288406 -0.0289557 -0.0290634 -0.0291521 -0.0292102 -0.0292377 -0.0292347 -0.0291903 -0.0290939 -0.0289453 -0.0287447 -0.0284848 -0.0281587 -0.0277664 -0.0273078 -0.0267819 -0.0261877 -0.0255251 -0.0247941 -0.0240008 -0.023151 -0.0222448 -0.0212821 -0.0202751 -0.0192359 -0.0181646 -0.0170611 -0.0159411 -0.0148206 -0.0136995 -0.0125778 -0.0114714 -0.0103961 -0.00935193 -0.00833889 -0.00736932 -0.00645554 -0.00559756 -0.0047953