<?xml version="1.0"?> 
<VTKFile type="StructuredGrid" version="0.1"> 
<StructuredGrid WholeExtent="0 128 0 128 0 0"> 
<Piece Extent="0 128 0 128 0 0"> 
<PointData>
<DataArray type="Float32" Name="u" format="ascii" NumberOfComponents="1"> 
0 0 0 0 0 0 0 0 0 0 0 0 0 0 0 0 0 0 0 0 0 0 0 0 0 0 0 0 0 0 0 0 0 0 0 0 0 0 0 0 0 0 0 0 0 0 0 0 0 0 0 0 0 0 0 0 0 0 0 0 0 0 0 0 0 0 0 0 0 0 0 0 0 0 0 0 0 0 0 0 0 0 0 0 0 0 0 0 0 0 0 0 0 0 0 0 0 0 0 0 0 0 0 0 0 0 0 0 0 0 0 0 0 0 0 0 0 0 0 0 0 0 0 0 0 0 0 0 0 0 1.25945e-07 5.0378e-07 1.13351e-06 2.01512e-06 2.95924e-06 3.77648e-06 4.46684e-06 5.03032e-06 5.36142e-06 5.35464e-06 5.00999e-06 4.32746e-06 3.23912e-06 1.67703e-06 -3.5881e-07 -2.8684e-06 -5.87455e-06 -9.40006e-06 -1.34449e-05 -1.80092e-05 -2.30812e-05 -2.86493e-05 -3.47135e-05 -4.12739e-05 -4.82908e-05 -5.57245e-05 -6.3575e-05 -7.18423e-05 -8.0466e-05 -8.93854e-05 -9.86006e-05 -0.000108111 -0.000117845 -0.000127728 -0.00013776 -0.000147942 -0.000158196 -0.000168444 -0.000178686 -0.000188922 -0.000199076 -0.000209073 -0.000218913 -0.000228595 -0.000238051 -0.000247211 -0.000256075 -0.000264642 -0.000272855 -0.000280652 -0.000288033 -0.000295 -0.000301503 -0.000307496 -0.000312979 -0.000317951 -0.000322379 -0.000326229 -0.000329503 -0.000332199 -0.000334301 -0.000335792 -0.000336671 -0.000336939 -0.000336596 -0.000335642 -0.000334077 -0.000331902 -0.000329133 -0.000325789 -0.00032187 -0.000317375 -0.000312339 -0.000306795 -0.000300744 -0.000294185 -0.000287167 -0.000279738 -0.000271897 -0.000263646 -0.000255044 -0.00024615 -0.000236966 -0.000227491 -0.000217794 -0.000207946 -0.000197946 -0.000187793 -0.000177565 -0.000167336 -0.000157106 -0.000146875 -0.000136721 -0.000126721 -0.000116875 -0.000107182 -9.77149e-05 -8.85464e-05 -7.96763e-05 -7.11045e-05 -6.28905e-05 -5.5094e-05 -4.77148e-05 -4.07529e-05 -3.4247e-05 -2.82357e-05 -2.27189e-05 -1.76967e-05 -1.31798e-05 -9.17905e-06 -5.69437e-06 -2.72578e-06 -2.50029e-07 1.75614e-06 3.29274e-06 4.35976e-06 5.02499e-06 5.35623e-06 5.35347e-06 5.01671e-06 4.45064e-06 3.75993e-06 2.94458e-06 2.0046e-06 1.12759e-06 5.0115e-07 1.25288e-07 0 0 5.0378e-07 2.01512e-06 4.53402e-06 8.06048e-06 1.1837e-05 1.51059e-05 1.78674e-05 2.01213e-05 2.14457e-05 2.14186e-05 2.004e-05 1.73099e-05 1.29565e-05 6.70812e-06 -1.43524e-06 -1.14736e-05 -2.34982e-05 -3.76003e-05 -5.37798e-05 -7.20368e-05 -9.23247e-05 -0.000114597 -0.000138854 -0.000165096 -0.000193163 -0.000222898 -0.0002543 -0.000287369 -0.000321864 -0.000357542 -0.000394402 -0.000432446 -0.00047138 -0.000510912 -0.000551041 -0.000591769 -0.000632784 -0.000673775 -0.000714743 -0.000755687 -0.000796305 -0.000836293 -0.000875652 -0.000914382 -0.000952204 -0.000988843 -0.0010243 -0.00105857 -0.00109142 -0.00112261 -0.00115213 -0.00118 -0.00120601 -0.00122999 -0.00125191 -0.0012718 -0.00128951 -0.00130492 -0.00131801 -0.0013288 -0.00133721 -0.00134317 -0.00134669 -0.00134776 -0.00134638 -0.00134257 -0.00133631 -0.00132761 -0.00131653 -0.00130316 -0.00128748 -0.0012695 -0.00124935 -0.00122718 -0.00120297 -0.00117674 -0.00114867 -0.00111895 -0.00108759 -0.00105458 -0.00102017 -0.000984601 -0.000947864 -0.000909964 -0.000871178 -0.000831784 -0.000791783 -0.000751174 -0.00071026 -0.000669343 -0.000628423 -0.000587501 -0.000546885 -0.000506884 -0.000467498 -0.000428727 -0.00039086 -0.000354186 -0.000318705 -0.000284418 -0.000251562 -0.000220376 -0.000190859 -0.000163012 -0.000136988 -0.000112943 -9.08757e-05 -7.07869e-05 -5.27194e-05 -3.67162e-05 -2.27775e-05 -1.09031e-05 -1.00011e-06 7.02458e-06 1.3171e-05 1.7439e-05 2.01e-05 2.14249e-05 2.14139e-05 2.00668e-05 1.78026e-05 1.50397e-05 1.17783e-05 8.01841e-06 4.51035e-06 2.0046e-06 5.0115e-07 0 0 1.13351e-06 4.53402e-06 1.02016e-05 1.81361e-05 2.66332e-05 3.39883e-05 4.02016e-05 4.52729e-05 4.82528e-05 4.81918e-05 4.50899e-05 3.89472e-05 2.91521e-05 1.50933e-05 -3.22929e-06 -2.58156e-05 -5.28709e-05 -8.46006e-05 -0.000121004 -0.000162083 -0.000207731 -0.000257844 -0.000312422 -0.000371465 -0.000434617 -0.00050152 -0.000572175 -0.000646581 -0.000724194 -0.000804469 -0.000887405 -0.000973003 -0.0010606 -0.00114955 -0.00123984 -0.00133148 -0.00142376 -0.00151599 -0.00160817 -0.0017003 -0.00179169 -0.00188166 -0.00197022 -0.00205736 -0.00214246 -0.0022249 -0.00230467 -0.00238178 -0.00245569 -0.00252587 -0.0025923 -0.002655 -0.00271353 -0.00276747 -0.00281681 -0.00286156 -0.00290141 -0.00293606 -0.00296553 -0.00298979 -0.00300871 -0.00302213 -0.00303004 -0.00303245 -0.00302936 -0.00302078 -0.0030067 -0.00298712 -0.0029622 -0.0029321 -0.00289683 -0.00285637 -0.00281105 -0.00276115 -0.00270669 -0.00264766 -0.0025845 -0.00251764 -0.00244708 -0.00237281 -0.00229539 -0.00221535 -0.00213269 -0.00204742 -0.00196015 -0.00187151 -0.00178151 -0.00169014 -0.00159808 -0.00150602 -0.00141395 -0.00132188 -0.00123049 -0.00114049 -0.00105187 -0.000964635 -0.000879434 -0.000796918 -0.000717087 -0.00063994 -0.000566015 -0.000495846 -0.000429433 -0.000366776 -0.000308223 -0.000254121 -0.00020447 -0.000159271 -0.000118619 -8.26115e-05 -5.12493e-05 -2.4532e-05 -2.25026e-06 1.58053e-05 2.96347e-05 3.92378e-05 4.52249e-05 4.82061e-05 4.81812e-05 4.51504e-05 4.00558e-05 3.38394e-05 2.65013e-05 1.80414e-05 1.01483e-05 4.51035e-06 1.12759e-06 0 0 2.01512e-06 8.06048e-06 1.81361e-05 3.22419e-05 4.73479e-05 6.04237e-05 7.14694e-05 8.04851e-05 8.57827e-05 8.56743e-05 8.01599e-05 6.92394e-05 5.18259e-05 2.68325e-05 -5.74097e-06 -4.58944e-05 -9.39928e-05 -0.000150401 -0.000215119 -0.000288147 -0.000369299 -0.000458389 -0.000555417 -0.000660383 -0.000772652 -0.000891591 -0.0010172 -0.00114948 -0.00128746 -0.00143017 -0.00157761 -0.00172978 -0.00188552 -0.00204365 -0.00220417 -0.00236708 -0.00253114 -0.0026951 -0.00285897 -0.00302275 -0.00318522 -0.00334517 -0.00350261 -0.00365753 -0.00380882 -0.00395537 -0.00409719 -0.00423428 -0.00436568 -0.00449043 -0.00460853 -0.00472 -0.00482405 -0.00491994 -0.00500766 -0.00508721 -0.00515806 -0.00521967 -0.00527205 -0.00531519 -0.00534882 -0.00537267 -0.00538674 -0.00539103 -0.00538554 -0.00537027 -0.00534524 -0.00531043 -0.00526613 -0.00521263 -0.00514991 -0.005078 -0.00499742 -0.00490872 -0.0048119 -0.00470696 -0.00459467 -0.0044758 -0.00435036 -0.00421834 -0.0040807 -0.0039384 -0.00379146 -0.00363986 -0.00348471 -0.00332714 -0.00316713 -0.0030047 -0.00284104 -0.00267737 -0.00251369 -0.00235001 -0.00218754 -0.00202754 -0.00186999 -0.00171491 -0.00156344 -0.00141674 -0.00127482 -0.00113767 -0.00100625 -0.000881503 -0.000763436 -0.000652047 -0.000547952 -0.000451771 -0.000363503 -0.000283148 -0.000210877 -0.000146865 -9.11099e-05 -4.36125e-05 -4.00046e-06 2.80983e-05 5.26839e-05 6.97562e-05 8.03999e-05 8.56997e-05 8.56555e-05 8.02674e-05 7.12102e-05 6.01589e-05 4.71134e-05 3.20736e-05 1.80414e-05 8.01841e-06 2.0046e-06 0 0 2.95043e-06 1.18017e-05 2.65539e-05 4.72069e-05 6.92198e-05 8.80515e-05 0.000103702 0.000116171 0.000122921 0.000121413 0.000111646 9.36212e-05 6.57151e-05 2.6304e-05 -2.46118e-05 -8.70326e-05 -0.000161489 -0.000248513 -0.000348104 -0.000460262 -0.000584682 -0.000721058 -0.000869389 -0.00102968 -0.00120094 -0.00138218 -0.00157341 -0.00177463 -0.00198435 -0.00220108 -0.00242483 -0.00265559 -0.00289158 -0.00313103 -0.00337392 -0.00362027 -0.0038682 -0.00411582 -0.00436314 -0.00461016 -0.00485505 -0.00509602 -0.00533304 -0.00556614 -0.00579365 -0.00601393 -0.00622698 -0.0064328 -0.00662999 -0.00681713 -0.00699422 -0.00716127 -0.00731716 -0.00746077 -0.00759211 -0.00771116 -0.00781717 -0.00790934 -0.00798768 -0.00805219 -0.00810247 -0.00813812 -0.00815915 -0.00816555 -0.00815734 -0.00813451 -0.00809707 -0.00804502 -0.00797876 -0.00789872 -0.00780489 -0.00769727 -0.00757666 -0.00744384 -0.00729882 -0.00714159 -0.00697328 -0.00679503 -0.00660683 -0.00640869 -0.00620202 -0.00598824 -0.00576736 -0.00553936 -0.00530591 -0.00506865 -0.0048276 -0.00458274 -0.00433588 -0.00408886 -0.00384165 -0.00359427 -0.00334859 -0.00310645 -0.00286788 -0.00263285 -0.00240315 -0.00218053 -0.00196498 -0.00175651 -0.00155658 -0.00136665 -0.00118673 -0.0010168 -0.000857837 -0.000710792 -0.000575665 -0.000452459 -0.000341456 -0.000242943 -0.000156919 -8.33848e-05 -2.17971e-05 2.83863e-05 6.71652e-05 9.45397e-05 0.00011213 0.000121556 0.000122819 0.000115917 0.00010337 8.76977e-05 6.88992e-05 4.69748e-05 2.64233e-05 1.17437e-05 2.93592e-06 0 0 3.74125e-06 1.4965e-05 3.36712e-05 5.986e-05 8.74878e-05 0.000110511 0.00012893 0.000142745 0.000148553 0.000142953 0.000125944 9.75273e-05 5.55564e-05 -2.11385e-06 -7.54835e-05 -0.000164553 -0.000269986 -0.000392449 -0.00053194 -0.000688461 -0.000861533 -0.00105068 -0.00125589 -0.00147718 -0.00171313 -0.00196236 -0.00222485 -0.00250061 -0.00278757 -0.00308365 -0.00338887 -0.00370322 -0.00402425 -0.00434952 -0.00467903 -0.00501279 -0.00534825 -0.00568288 -0.00601667 -0.00634963 -0.00667933 -0.00700337 -0.00732174 -0.00763444 -0.00793932 -0.00823422 -0.00851914 -0.00879409 -0.00905724 -0.00930679 -0.00954274 -0.00976509 -0.00997242 -0.0101633 -0.0103378 -0.0104958 -0.0106364 -0.0107587 -0.0108625 -0.010948 -0.0110146 -0.0110618 -0.0110896 -0.0110981 -0.0110872 -0.0110569 -0.0110073 -0.0109384 -0.0108505 -0.0107444 -0.0106199 -0.0104771 -0.010317 -0.0101405 -0.00994767 -0.00973851 -0.00951444 -0.00927691 -0.0090259 -0.00876142 -0.0084853 -0.00819936 -0.0079036 -0.00759802 -0.00728479 -0.00696607 -0.00664186 -0.00631216 -0.00597938 -0.00564594 -0.00531184 -0.00497708 -0.00464418 -0.00431566 -0.00399153 -0.00367179 -0.00335885 -0.00305513 -0.00276063 -0.00247535 -0.00220133 -0.0019406 -0.00169317 -0.00145902 -0.00123954 -0.00103608 -0.00084865 -0.000677244 -0.000522316 -0.000384314 -0.000263238 -0.00015909 -7.11865e-05 1.15175e-06 5.79253e-05 9.91341e-05 0.00012692 0.000143427 0.000148652 0.000142598 0.00012864 0.000110155 8.71433e-05 5.96045e-05 3.35275e-05 1.49011e-05 3.72528e-06 0 0 4.38757e-06 1.75503e-05 3.94881e-05 7.02011e-05 0.000102152 0.000127803 0.000147154 0.000160206 0.000162679 0.000150296 0.000123055 8.09577e-05 2.13501e-05 -5.84211e-05 -0.000158356 -0.000278454 -0.000419483 -0.000582207 -0.000766628 -0.000972744 -0.00119985 -0.00144724 -0.00171492 -0.00200288 -0.00230924 -0.00263212 -0.00297151 -0.00332741 -0.00369711 -0.00407789 -0.00446974 -0.00487267 -0.00528352 -0.00569912 -0.00611949 -0.00654462 -0.00697129 -0.00739627 -0.00781956 -0.00824116 -0.00865805 -0.00906723 -0.00946869 -0.00986244 -0.0102458 -0.0106163 -0.0109737 -0.0113181 -0.0116474 -0.0119594 -0.0122541 -0.0125315 -0.0127898 -0.0130276 -0.0132447 -0.0134412 -0.0136159 -0.0137677 -0.0138966 -0.0140026 -0.0140852 -0.0141437 -0.0141782 -0.0141887 -0.0141751 -0.0141376 -0.014076 -0.0139904 -0.0138814 -0.0137496 -0.013595 -0.0134175 -0.0132183 -0.0129987 -0.0127585 -0.0124977 -0.0122182 -0.0119214 -0.0116076 -0.0112765 -0.0109305 -0.0105717 -0.0102002 -0.00981584 -0.00942136 -0.00901939 -0.00860992 -0.00819296 -0.00777153 -0.00734862 -0.00692425 -0.00649841 -0.00607431 -0.00565516 -0.00524097 -0.00483171 -0.00443054 -0.00404056 -0.00366178 -0.00329421 -0.0029405 -0.00260335 -0.00228276 -0.00197871 -0.00169306 -0.00142764 -0.00118246 -0.000957505 -0.000753455 -0.000570976 -0.000410066 -0.000270726 -0.000152169 -5.36052e-05 2.49642e-05 8.35394e-05 0.000124771 0.00015131 0.000163157 0.000160311 0.00014702 0.000127531 0.000101846 6.99628e-05 3.93541e-05 1.74907e-05 4.37268e-06 0 0 4.88939e-06 1.95576e-05 4.40045e-05 7.82302e-05 0.000113212 0.000139926 0.000158374 0.000168554 0.000165299 0.00014344 0.000102978 4.39123e-05 -3.6904e-05 -0.000142618 -0.000273229 -0.000428738 -0.00060998 -0.000817789 -0.00105217 -0.00131311 -0.00159964 -0.00191076 -0.00224648 -0.00260679 -0.00298927 -0.00339147 -0.00381339 -0.00425504 -0.00471298 -0.00518378 -0.00566744 -0.00616395 -0.00666939 -0.00717984 -0.00769531 -0.00821578 -0.00873732 -0.009256 -0.00977181 -0.0102848 -0.0107912 -0.0112876 -0.0117739 -0.0122501 -0.0127132 -0.01316 -0.0135906 -0.0140049 -0.0144006 -0.014775 -0.0151283 -0.0154604 -0.0157694 -0.0160536 -0.0163128 -0.0165472 -0.0167555 -0.0169364 -0.0170899 -0.0172161 -0.0173142 -0.0173838 -0.0174249 -0.0174373 -0.0174211 -0.0173764 -0.0173031 -0.0172013 -0.0170715 -0.0169144 -0.0167301 -0.0165184 -0.0162808 -0.0160184 -0.0157312 -0.0154192 -0.0150844 -0.0147286 -0.0143518 -0.013954 -0.0135377 -0.0131054 -0.0126571 -0.0121928 -0.0117156 -0.0112286 -0.0107318 -0.0102252 -0.00971232 -0.0091969 -0.00867889 -0.00815828 -0.007639 -0.00712496 -0.00661617 -0.00611263 -0.00561821 -0.00513681 -0.00466843 -0.00421306 -0.00377409 -0.0033549 -0.00295549 -0.00257586 -0.0022184 -0.00188547 -0.00157708 -0.00129324 -0.00103488 -0.00080293 -0.000597403 -0.000418296 -0.000264744 -0.000135885 -3.17181e-05 4.77556e-05 0.000105682 0.000145208 0.000166332 0.000169055 0.000158509 0.000139826 0.000113006 7.80498e-05 4.3903e-05 1.95125e-05 4.87811e-06 0 0 5.13306e-06 2.05322e-05 4.61975e-05 8.21289e-05 0.000117931 0.000143209 0.000157963 0.000162193 0.000149877 0.000114995 5.75458e-05 -2.24694e-05 -0.000128628 -0.000264507 -0.000430107 -0.000625427 -0.000851302 -0.00110857 -0.00139722 -0.00171726 -0.00206735 -0.00244614 -0.00285363 -0.00328982 -0.00375165 -0.00423605 -0.00474303 -0.00527259 -0.00582051 -0.00638259 -0.00695882 -0.00754921 -0.00814904 -0.00875359 -0.00936287 -0.00997687 -0.010591 -0.0112005 -0.0118055 -0.0124059 -0.0129977 -0.0135767 -0.0141428 -0.0146961 -0.0152332 -0.0157506 -0.0162483 -0.0167264 -0.0171822 -0.017613 -0.0180188 -0.0183996 -0.0187536 -0.0190787 -0.0193751 -0.0196426 -0.01988 -0.0200862 -0.020261 -0.0204046 -0.0205162 -0.0205953 -0.0206419 -0.020656 -0.0206375 -0.0205866 -0.0205032 -0.0203873 -0.0202395 -0.0200605 -0.0198503 -0.0196089 -0.0193375 -0.0190375 -0.0187087 -0.0183513 -0.0179672 -0.0175583 -0.0171247 -0.0166663 -0.0161858 -0.015686 -0.0151667 -0.0146281 -0.0140735 -0.0135064 -0.0129269 -0.0123348 -0.0117343 -0.0111297 -0.0105208 -0.00990771 -0.00929501 -0.00868732 -0.00808465 -0.00748698 -0.006899 -0.00632537 -0.0057661 -0.00522118 -0.00469476 -0.004191 -0.0037099 -0.00325144 -0.00281864 -0.00241449 -0.00203898 -0.00169212 -0.0013752 -0.00108949 -0.000835009 -0.000611747 -0.000418838 -0.00025541 -0.000121464 -1.70008e-05 6.15593e-05 0.000117794 0.000151703 0.000163287 0.000158527 0.000143403 0.000117916 8.20649e-05 4.61615e-05 2.05162e-05 5.12906e-06 0 0 5.00491e-06 2.00196e-05 4.50442e-05 8.00786e-05 0.000113573 0.000133979 0.000141297 0.000135525 0.000109877 5.75656e-05 -2.14094e-05 -0.000127048 -0.000263244 -0.000433892 -0.000638992 -0.000878543 -0.00115327 -0.00146391 -0.00181045 -0.0021929 -0.00260945 -0.0030583 -0.00353944 -0.00405288 -0.00459483 -0.00516153 -0.00575297 -0.00636915 -0.00700503 -0.00765557 -0.00832077 -0.00900063 -0.00968964 -0.0103823 -0.0110786 -0.0117785 -0.0124768 -0.0131682 -0.0138527 -0.0145303 -0.0151964 -0.0158466 -0.0164807 -0.0170989 -0.0176976 -0.018273 -0.0188253 -0.0193544 -0.0198577 -0.0203326 -0.020779 -0.021197 -0.0215848 -0.0219405 -0.0222642 -0.0225558 -0.0228143 -0.0230386 -0.0232286 -0.0233844 -0.0235054 -0.0235912 -0.0236416 -0.0236568 -0.0236368 -0.0235814 -0.0234908 -0.023365 -0.0232045 -0.0230098 -0.0227809 -0.0225179 -0.0222218 -0.0218939 -0.021534 -0.0211423 -0.0207205 -0.0202705 -0.0197923 -0.0192859 -0.0187539 -0.0181991 -0.0176214 -0.0170208 -0.016401 -0.0157656 -0.0151146 -0.0144479 -0.0137701 -0.0130859 -0.0123951 -0.0116977 -0.0109991 -0.0103045 -0.00961389 -0.00892723 -0.00825002 -0.00758771 -0.00694031 -0.00630781 -0.00569519 -0.00510741 -0.00454449 -0.00400642 -0.00349689 -0.00301962 -0.00257459 -0.00216182 -0.00178303 -0.00143997 -0.00113264 -0.000861031 -0.000624377 -0.000421905 -0.000253618 -0.000119513 -1.56924e-05 6.1744e-05 0.000112796 0.000137464 0.000142492 0.000134625 0.000113864 8.02075e-05 4.51167e-05 2.00519e-05 5.01297e-06 0 0 4.50495e-06 1.80198e-05 4.05446e-05 7.20792e-05 0.000100138 0.000112237 0.000108374 8.85508e-05 4.52995e-05 -2.88466e-05 -0.000133888 -0.000269824 -0.000440752 -0.000650773 -0.000899884 -0.00118809 -0.00151589 -0.00188382 -0.00229187 -0.00274003 -0.00322594 -0.00374724 -0.00430391 -0.00489597 -0.00551882 -0.0061679 -0.0068432 -0.00754472 -0.00826653 -0.00900272 -0.00975327 -0.0105182 -0.0112912 -0.0120659 -0.0128424 -0.0136207 -0.0143948 -0.0151591 -0.0159134 -0.0166577 -0.0173873 -0.0180973 -0.0187878 -0.0194586 -0.0201063 -0.0207273 -0.0213215 -0.0218889 -0.0224272 -0.0229339 -0.023409 -0.0238525 -0.0242629 -0.0246388 -0.0249802 -0.0252869 -0.0255584 -0.0257936 -0.0259927 -0.0261556 -0.0262819 -0.0263714 -0.0264241 -0.0264398 -0.0264187 -0.0263608 -0.026266 -0.0261344 -0.0259663 -0.0257621 -0.0255218 -0.0252453 -0.0249337 -0.0245876 -0.0242071 -0.0237922 -0.0233443 -0.0228652 -0.0223547 -0.0218128 -0.021242 -0.0206448 -0.0200211 -0.0193711 -0.0186982 -0.0180061 -0.0172949 -0.0165645 -0.0158197 -0.0150654 -0.0143016 -0.0135284 -0.0127514 -0.0119766 -0.0112039 -0.0104334 -0.00967128 -0.00892383 -0.00819106 -0.00747295 -0.00677536 -0.00610413 -0.00545927 -0.00484078 -0.00425314 -0.00370086 -0.00318392 -0.00270234 -0.00225839 -0.00185438 -0.0014903 -0.00116615 -0.000881361 -0.000635371 -0.000428178 -0.000259781 -0.000126073 -2.29422e-05 4.96103e-05 9.15847e-05 0.000110405 0.000113493 0.000100851 7.24778e-05 4.07688e-05 1.81194e-05 4.52986e-06 0 0 3.63318e-06 1.45327e-05 3.26986e-05 5.81309e-05 7.76262e-05 7.79812e-05 5.91959e-05 2.12703e-05 -4.38557e-05 -0.000144242 -0.000279889 -0.000450796 -0.000661153 -0.000915149 -0.00121278 -0.00155406 -0.00193917 -0.0023683 -0.00284146 -0.00335864 -0.00391682 -0.00451295 -0.00514704 -0.00581909 -0.00652362 -0.00725516 -0.00801372 -0.00879929 -0.00960502 -0.010424 -0.0112563 -0.0121019 -0.0129537 -0.0138045 -0.0146544 -0.0155034 -0.0163451 -0.0171731 -0.0179875 -0.0187883 -0.0195704 -0.020329 -0.0210639 -0.0217752 -0.0224595 -0.0231134 -0.0237369 -0.02433 -0.0248906 -0.0254169 -0.0259087 -0.0263661 -0.0267881 -0.0271738 -0.0275231 -0.027836 -0.0281122 -0.0283512 -0.0285532 -0.0287181 -0.0288457 -0.0289361 -0.0289892 -0.029005 -0.0289835 -0.0289248 -0.0288288 -0.0286955 -0.028525 -0.0283175 -0.0280729 -0.0277913 -0.0274731 -0.0271186 -0.0267279 -0.0263009 -0.0258387 -0.0253423 -0.0248117 -0.0242469 -0.02365 -0.023023 -0.0223659 -0.0216788 -0.020965 -0.020228 -0.0194679 -0.0186845 -0.0178831 -0.0170684 -0.0162406 -0.0153996 -0.0145517 -0.0137034 -0.0128547 -0.0120054 -0.0111628 -0.0103337 -0.00951836 -0.00871661 -0.00793529 -0.00718117 -0.00645425 -0.00575453 -0.0050874 -0.00445821 -0.00386696 -0.00331367 -0.00280127 -0.00233271 -0.00190798 -0.0015271 -0.00118979 -0.000895806 -0.000645144 -0.000437806 -0.000269582 -0.000136265 -3.7854e-05 2.56499e-05 6.22645e-05 8.0007e-05 7.88774e-05 5.88756e-05 3.31175e-05 1.47189e-05 3.67973e-06 0 0 2.32337e-06 9.29348e-06 2.09103e-05 3.71739e-05 4.44576e-05 2.91348e-05 -8.79441e-06 -6.93301e-05 -0.00016099 -0.00029229 -0.000463231 -0.000673814 -0.000928156 -0.00123038 -0.00158048 -0.00197846 -0.00242406 -0.00291699 -0.00345726 -0.00404487 -0.00467598 -0.00534678 -0.00605726 -0.00680742 -0.0075908 -0.00840094 -0.00923785 -0.0101015 -0.0109841 -0.0118778 -0.0127825 -0.0136983 -0.0146173 -0.0155315 -0.0164411 -0.017346 -0.0182395 -0.0191147 -0.0199717 -0.0208105 -0.0216261 -0.0224137 -0.0231731 -0.0239045 -0.0246048 -0.025271 -0.0259032 -0.0265014 -0.0270643 -0.0275905 -0.0280801 -0.0285331 -0.0289493 -0.0293284 -0.0296704 -0.0299755 -0.0302438 -0.0304757 -0.030671 -0.03083 -0.0309527 -0.0310395 -0.0310905 -0.0311055 -0.0310846 -0.0310278 -0.0309351 -0.0308065 -0.0306417 -0.0304405 -0.0302029 -0.0299289 -0.0296182 -0.0292705 -0.0288859 -0.0284644 -0.0280062 -0.0275116 -0.0269805 -0.026413 -0.0258104 -0.0251742 -0.0245042 -0.0238005 -0.0230662 -0.0223042 -0.0215146 -0.0206973 -0.0198573 -0.0189997 -0.0181243 -0.0172313 -0.0163273 -0.0154192 -0.0145068 -0.0135903 -0.0126775 -0.0117761 -0.0108862 -0.0100077 -0.00914856 -0.00831639 -0.00751121 -0.00673305 -0.00598823 -0.00528312 -0.00461772 -0.00399202 -0.00340975 -0.00287464 -0.00238669 -0.00194589 -0.00155245 -0.00120656 -0.000908213 -0.000657414 -0.000450015 -0.000281868 -0.000152974 -6.33319e-05 -4.46489e-06 3.21044e-05 4.63761e-05 3.83499e-05 2.15718e-05 9.58749e-06 2.39687e-06 0 0 5.09292e-07 2.03717e-06 4.58363e-06 8.14867e-06 -9.46369e-07 -3.63802e-05 -9.81527e-05 -0.000186264 -0.000309503 -0.00047666 -0.000687734 -0.000942725 -0.00124547 -0.00159982 -0.00200577 -0.00246331 -0.00297153 -0.00352953 -0.00413728 -0.00479481 -0.00549732 -0.00624005 -0.00702299 -0.00784614 -0.00870196 -0.00958288 -0.0104889 -0.01142 -0.0123674 -0.0133222 -0.0142843 -0.0152538 -0.016222 -0.0171805 -0.0181291 -0.0190679 -0.0199898 -0.020888 -0.0217623 -0.0226128 -0.0234348 -0.0242238 -0.0249796 -0.0257023 -0.0263898 -0.0270398 -0.0276522 -0.0282272 -0.0287645 -0.0292639 -0.0297253 -0.0301488 -0.0305352 -0.0308856 -0.0311999 -0.0314781 -0.0317214 -0.0319311 -0.032107 -0.0322493 -0.0323587 -0.0324361 -0.0324813 -0.0324944 -0.0324754 -0.0324243 -0.0323411 -0.0322259 -0.0320777 -0.0318958 -0.0316803 -0.0314311 -0.031147 -0.0308269 -0.0304708 -0.0300786 -0.0296495 -0.0291827 -0.028678 -0.0281356 -0.0275557 -0.0269387 -0.0262844 -0.025593 -0.0248667 -0.0241077 -0.0233161 -0.0224919 -0.0216397 -0.0207642 -0.0198655 -0.0189435 -0.0180053 -0.0170578 -0.016101 -0.015135 -0.0141683 -0.0132095 -0.0122584 -0.0113153 -0.0103888 -0.00948767 -0.00861197 -0.00776168 -0.00694423 -0.00616707 -0.00543018 -0.00473358 -0.00408192 -0.00347986 -0.00292741 -0.00242456 -0.00197214 -0.00157098 -0.00122108 -0.000922434 -0.000671167 -0.000463399 -0.000299127 -0.000178352 -9.23203e-05 -3.22759e-05 1.78075e-06 9.84973e-06 5.54047e-06 2.46243e-06 6.15608e-07 0 0 -1.80905e-06 -7.23621e-06 -1.62815e-05 -2.89448e-05 -5.85858e-05 -0.000118564 -0.000208879 -0.000329531 -0.000489397 -0.000697352 -0.000953396 -0.00125753 -0.0016131 -0.00202347 -0.00248864 -0.00300859 -0.0035816 -0.00420592 -0.00488154 -0.00560847 -0.00638084 -0.00719276 -0.00804423 -0.00893526 -0.00985709 -0.010801 -0.0117669 -0.0127549 -0.0137549 -0.0147572 -0.0157617 -0.0167684 -0.017768 -0.0187513 -0.0197183 -0.0206689 -0.0215962 -0.022493 -0.0233593 -0.0241952 -0.0249965 -0.0257592 -0.0264833 -0.0271688 -0.0278146 -0.0284196 -0.0289839 -0.0295074 -0.0299913 -0.0304369 -0.0308442 -0.0312131 -0.0315461 -0.0318455 -0.0321114 -0.0323438 -0.032545 -0.0327175 -0.0328612 -0.0329762 -0.0330639 -0.0331257 -0.0331616 -0.0331718 -0.033156 -0.0331144 -0.0330469 -0.0329535 -0.0328328 -0.0326833 -0.032505 -0.0322979 -0.0320596 -0.0317878 -0.0314824 -0.0311435 -0.0307687 -0.0303556 -0.0299043 -0.0294148 -0.0288859 -0.0283165 -0.0277066 -0.0270562 -0.0263665 -0.0256386 -0.0248725 -0.0240683 -0.0232301 -0.022362 -0.021464 -0.0205362 -0.0195855 -0.0186192 -0.0176372 -0.0166395 -0.0156353 -0.0146339 -0.0136352 -0.0126393 -0.0116559 -0.010695 -0.00975652 -0.00884043 -0.0079554 -0.00711003 -0.00630435 -0.00553835 -0.00481777 -0.00414837 -0.00353014 -0.00296309 -0.00244885 -0.00198907 -0.00158374 -0.00123287 -0.000933039 -0.000680855 -0.000476312 -0.000319411 -0.000201302 -0.000113134 -5.49086e-05 -2.6625e-05 -1.49766e-05 -6.65626e-06 -1.66407e-06 0 0 -4.63166e-06 -1.85266e-05 -4.16849e-05 -7.41066e-05 -0.000128461 -0.000217416 -0.000340973 -0.000499132 -0.00070067 -0.000954365 -0.00126022 -0.00161823 -0.00203105 -0.00250134 -0.0030291 -0.00361432 -0.00425426 -0.00494616 -0.00569003 -0.00648586 -0.00732653 -0.0082049 -0.00912098 -0.0100748 -0.0110562 -0.0120552 -0.0130718 -0.014106 -0.0151467 -0.016183 -0.0172148 -0.0182421 -0.0192551 -0.020244 -0.0212087 -0.0221492 -0.0230585 -0.0239297 -0.0247628 -0.0255577 -0.0263112 -0.0270201 -0.0276843 -0.0283039 -0.0288792 -0.0294106 -0.0298982 -0.0303418 -0.0307446 -0.0311096 -0.0314368 -0.0317261 -0.0319818 -0.0322081 -0.0324051 -0.0325726 -0.0327146 -0.0328349 -0.0329335 -0.0330105 -0.033068 -0.0331084 -0.0331315 -0.0331376 -0.0331264 -0.033098 -0.0330523 -0.0329895 -0.0329072 -0.032803 -0.0326771 -0.0325294 -0.032356 -0.0321532 -0.0319209 -0.0316591 -0.0313636 -0.0310304 -0.0306593 -0.0302504 -0.0298009 -0.0293076 -0.0287707 -0.02819 -0.0275655 -0.0268968 -0.0261838 -0.0254266 -0.0246286 -0.023793 -0.0229199 -0.0220093 -0.0210681 -0.0201035 -0.0191154 -0.0181038 -0.0170785 -0.0160494 -0.0150165 -0.0139797 -0.0129501 -0.0119384 -0.0109449 -0.00996931 -0.00902172 -0.00811203 -0.00724023 -0.00640633 -0.00561731 -0.00488016 -0.00419489 -0.00356148 -0.00298258 -0.00246082 -0.0019962 -0.00158871 -0.00123563 -0.000934238 -0.000684531 -0.000486508 -0.000331409 -0.00021047 -0.000123692 -7.10744e-05 -3.99793e-05 -1.77686e-05 -4.44215e-06 0 0 -7.96324e-06 -3.1853e-05 -7.16692e-05 -0.000127412 -0.000210658 -0.000332983 -0.000494387 -0.000694871 -0.000942894 -0.00124692 -0.00160694 -0.00202295 -0.00249669 -0.00302984 -0.00362242 -0.00427443 -0.00498189 -0.00574084 -0.00655127 -0.00741318 -0.00831801 -0.00925722 -0.0102308 -0.0112387 -0.0122696 -0.0133118 -0.0143654 -0.0154304 -0.0164947 -0.0175461 -0.0185845 -0.0196101 -0.0206125 -0.0215811 -0.0225162 -0.0234176 -0.0242786 -0.0250926 -0.0258596 -0.0265796 -0.0272505 -0.0278701 -0.0284386 -0.0289558 -0.0294241 -0.0298457 -0.0302205 -0.0305486 -0.0308353 -0.0310859 -0.0313004 -0.0314787 -0.0316274 -0.0317528 -0.0318551 -0.0319341 -0.0319955 -0.032045 -0.0320826 -0.0321082 -0.0321251 -0.0321366 -0.0321425 -0.0321431 -0.0321381 -0.0321276 -0.0321115 -0.0320899 -0.0320595 -0.032017 -0.0319623 -0.0318956 -0.031811 -0.0317031 -0.0315717 -0.031417 -0.0312324 -0.0310116 -0.0307546 -0.0304615 -0.0301269 -0.0297457 -0.029318 -0.0288437 -0.0283207 -0.0277469 -0.0271223 -0.0264469 -0.0257228 -0.0249524 -0.0241356 -0.0232724 -0.0223695 -0.0214337 -0.0204651 -0.0194635 -0.0184394 -0.0174031 -0.0163547 -0.015294 -0.0142333 -0.0131845 -0.0121476 -0.0111227 -0.010121 -0.00915399 -0.00822162 -0.00732388 -0.00646919 -0.00566594 -0.00491414 -0.00421378 -0.0035687 -0.00298273 -0.00245588 -0.00198814 -0.00157771 -0.00122279 -0.00092337 -0.000679461 -0.000482602 -0.000324335 -0.000204659 -0.000123576 -6.95113e-05 -3.08939e-05 -7.72348e-06 0 0 -1.18085e-05 -4.7234e-05 -0.000106277 -0.000188936 -0.000305263 -0.000465309 -0.000669073 -0.000916555 -0.00121564 -0.00157422 -0.00199229 -0.00246985 -0.00300739 -0.00360541 -0.00426391 -0.00498288 -0.0057569 -0.00658053 -0.00745377 -0.00837662 -0.0093389 -0.0103304 -0.0113512 -0.0124013 -0.0134675 -0.014537 -0.0156096 -0.0166853 -0.017751 -0.0187933 -0.0198122 -0.0208076 -0.0217689 -0.0226852 -0.0235565 -0.0243829 -0.0251581 -0.0258761 -0.0265369 -0.0271403 -0.027686 -0.0281733 -0.0286023 -0.028973 -0.0292899 -0.0295577 -0.0297763 -0.0299458 -0.0300743 -0.0301698 -0.0302324 -0.030262 -0.0302678 -0.0302591 -0.0302357 -0.0301978 -0.0301531 -0.0301094 -0.0300668 -0.0300251 -0.0299889 -0.0299626 -0.0299462 -0.0299396 -0.0299428 -0.0299558 -0.0299785 -0.030011 -0.0300488 -0.0300873 -0.0301265 -0.0301665 -0.0301994 -0.0302175 -0.0302206 -0.0302088 -0.030173 -0.030104 -0.0300019 -0.0298665 -0.0296901 -0.0294646 -0.0291899 -0.0288662 -0.0284889 -0.0280536 -0.0275604 -0.0270091 -0.0264005 -0.0257353 -0.0250134 -0.024235 -0.0234061 -0.022533 -0.0216158 -0.0206544 -0.0196596 -0.0186423 -0.0176023 -0.0165397 -0.0154677 -0.0143996 -0.0133353 -0.0122748 -0.011231 -0.0102169 -0.00923231 -0.00827738 -0.00736208 -0.00649642 -0.00568039 -0.00491401 -0.00420255 -0.00355128 -0.0029602 -0.00242932 -0.00195804 -0.00154573 -0.00119242 -0.000898087 -0.000654841 -0.000454779 -0.000297901 -0.000184206 -0.000103616 -4.60515e-05 -1.15129e-05 0 0 -1.61674e-05 -6.46698e-05 -0.000145507 -0.000258679 -0.000412278 -0.000614395 -0.00086503 -0.00116418 -0.00151891 -0.00193628 -0.00241628 -0.00295891 -0.00356317 -0.00422805 -0.00495355 -0.00573967 -0.00657927 -0.00746523 -0.00839753 -0.00937619 -0.0103892 -0.0114246 -0.0124823 -0.0135623 -0.01465 -0.0157307 -0.0168042 -0.0178707 -0.0189156 -0.0199246 -0.0208976 -0.0218346 -0.0227245 -0.0235562 -0.0243298 -0.0250452 -0.0256971 -0.0262802 -0.0267944 -0.0272398 -0.0276178 -0.0279297 -0.0281756 -0.0283554 -0.0284766 -0.0285467 -0.0285656 -0.0285334 -0.0284615 -0.0283613 -0.0282327 -0.0280759 -0.0279031 -0.0277268 -0.0275471 -0.0273638 -0.0271874 -0.0270282 -0.0268862 -0.0267614 -0.0266596 -0.0265866 -0.0265424 -0.026527 -0.0265404 -0.0265825 -0.0266533 -0.0267527 -0.0268748 -0.0270138 -0.0271696 -0.0273422 -0.0275212 -0.0276963 -0.0278674 -0.0280345 -0.0281854 -0.0283075 -0.0284009 -0.0284657 -0.0284905 -0.0284641 -0.0283864 -0.0282575 -0.0280701 -0.027817 -0.027498 -0.0271133 -0.0266616 -0.0261416 -0.0255534 -0.024897 -0.0241779 -0.0234014 -0.0225676 -0.0216765 -0.0207392 -0.0197668 -0.0187593 -0.0177167 -0.0166535 -0.0155839 -0.014508 -0.0134258 -0.0123518 -0.0113006 -0.0102723 -0.00926682 -0.00829597 -0.00737158 -0.00649365 -0.00566218 -0.00488413 -0.00416646 -0.00350917 -0.00291227 -0.00237661 -0.00190308 -0.00149167 -0.00114239 -0.000848126 -0.000601803 -0.000403417 -0.000252966 -0.000142293 -6.32414e-05 -1.58104e-05 0 0 -2.10401e-05 -8.41602e-05 -0.00018936 -0.000336641 -0.000531701 -0.00078024 -0.00108226 -0.00143776 -0.00185271 -0.00233309 -0.0028789 -0.00349013 -0.00416402 -0.00489775 -0.00569134 -0.00654479 -0.00744902 -0.00839494 -0.00938256 -0.0104119 -0.0114689 -0.0125396 -0.0136239 -0.0147219 -0.0158171 -0.0168929 -0.0179494 -0.0189865 -0.0199886 -0.02094 -0.0218408 -0.022691 -0.0234792 -0.0241941 -0.0248359 -0.0254045 -0.0258955 -0.0263048 -0.0266324 -0.0268781 -0.0270458 -0.0271392 -0.0271583 -0.027103 -0.0269842 -0.0268127 -0.0265884 -0.0263114 -0.025997 -0.0256603 -0.0253015 -0.0249204 -0.0245333 -0.0241562 -0.0237891 -0.0234321 -0.0230984 -0.0228013 -0.0225408 -0.0223169 -0.0221369 -0.0220084 -0.0219312 -0.0219055 -0.0219311 -0.0220078 -0.0221358 -0.022315 -0.0225378 -0.0227967 -0.0230916 -0.0234227 -0.0237765 -0.0241396 -0.0245122 -0.0248942 -0.0252696 -0.0256221 -0.0259519 -0.026259 -0.0265281 -0.0267443 -0.0269075 -0.0270178 -0.0270644 -0.0270369 -0.0269353 -0.0267595 -0.026506 -0.0261714 -0.0257556 -0.0252586 -0.0246848 -0.0240388 -0.0233204 -0.0225298 -0.0216781 -0.0207768 -0.0198258 -0.0188251 -0.0177904 -0.0167373 -0.0156656 -0.0145755 -0.0134833 -0.012