<?xml version="1.0"?> 
<VTKFile type="StructuredGrid" version="0.1"> 
<StructuredGrid WholeExtent="0 128 0 128 0 0"> 
<Piece Extent="0 128 0 128 0 0"> 
<PointData>
<DataArray type="Float32" Name="u" format="ascii" NumberOfComponents="1"> 
0 0 0 0 0 0 0 0 0 0 0 0 0 0 0 0 0 0 0 0 0 0 0 0 0 0 0 0 0 0 0 0 0 0 0 0 0 0 0 0 0 0 0 0 0 0 0 0 0 0 0 0 0 0 0 0 0 0 0 0 0 0 0 0 0 0 0 0 0 0 0 0 0 0 0 0 0 0 0 0 0 0 0 0 0 0 0 0 0 0 0 0 0 0 0 0 0 0 0 0 0 0 0 0 0 0 0 0 0 0 0 0 0 0 0 0 0 0 0 0 0 0 0 0 0 0 0 0 0 0 -2.32896e-07 -9.31585e-07 -2.09607e-06 -3.72634e-06 -5.81257e-06 -8.34492e-06 -1.13234e-05 -1.4748e-05 -1.8602e-05 -2.28686e-05 -2.75479e-05 -3.26399e-05 -3.80756e-05 -4.37859e-05 -4.97709e-05 -5.60306e-05 -6.24952e-05 -6.90952e-05 -7.58306e-05 -8.27012e-05 -8.96411e-05 -9.65841e-05 -0.00010353 -0.000110479 -0.00011737 -0.000124141 -0.000130791 -0.000137321 -0.000143678 -0.000149809 -0.000155713 -0.000161391 -0.000166805 -0.000171915 -0.000176722 -0.000181227 -0.000185412 -0.000189259 -0.000192769 -0.000195942 -0.000198785 -0.000201305 -0.000203502 -0.000205376 -0.000206957 -0.000208274 -0.000209328 -0.000210118 -0.00021069 -0.00021109 -0.000211318 -0.000211372 -0.000211305 -0.000211165 -0.000210954 -0.00021067 -0.000210357 -0.000210057 -0.000209769 -0.000209495 -0.000209257 -0.000209081 -0.000208966 -0.000208912 -0.000208918 -0.000208985 -0.000209112 -0.0002093 -0.000209523 -0.000209756 -0.00021 -0.000210255 -0.000210478 -0.000210627 -0.0002107 -0.000210698 -0.000210572 -0.000210272 -0.000209796 -0.000209146 -0.000208277 -0.000207145 -0.000205748 -0.000204088 -0.000202135 -0.000199862 -0.000197268 -0.000194354 -0.000191113 -0.00018754 -0.000183634 -0.000179397 -0.000174846 -0.000169999 -0.000164857 -0.000159419 -0.000153725 -0.000147814 -0.000141685 -0.000135338 -0.000128828 -0.000122206 -0.000115474 -0.00010863 -0.000101736 -9.48538e-05 -8.79821e-05 -8.11215e-05 -7.43366e-05 -6.76921e-05 -6.11882e-05 -5.48247e-05 -4.86692e-05 -4.27892e-05 -3.71848e-05 -3.18558e-05 -2.68687e-05 -2.22895e-05 -1.81183e-05 -1.4355e-05 -1.10145e-05 -8.11152e-06 -5.6461e-06 -3.61822e-06 -2.03525e-06 -9.04554e-07 -2.26139e-07 0 0 -9.31585e-07 -3.72634e-06 -8.38427e-06 -1.49054e-05 -2.32503e-05 -3.33797e-05 -4.52936e-05 -5.89919e-05 -7.44078e-05 -9.14745e-05 -0.000110192 -0.00013056 -0.000152302 -0.000175144 -0.000199084 -0.000224122 -0.000249981 -0.000276381 -0.000303322 -0.000330805 -0.000358564 -0.000386336 -0.000414121 -0.000441918 -0.00046948 -0.000496562 -0.000523164 -0.000549285 -0.000574714 -0.000599236 -0.000622854 -0.000645565 -0.000667218 -0.00068766 -0.00070689 -0.000724909 -0.000741647 -0.000757037 -0.000771077 -0.000783769 -0.000795141 -0.00080522 -0.000814008 -0.000821504 -0.000827826 -0.000833095 -0.000837311 -0.000840472 -0.000842761 -0.000844361 -0.00084527 -0.00084549 -0.00084522 -0.000844662 -0.000843815 -0.00084268 -0.000841427 -0.000840226 -0.000839076 -0.000837979 -0.000837029 -0.000836323 -0.000835863 -0.000835646 -0.000835673 -0.00083594 -0.000836449 -0.000837199 -0.00083809 -0.000839025 -0.000840002 -0.000841022 -0.000841914 -0.000842506 -0.0008428 -0.000842794 -0.000842289 -0.000841086 -0.000839185 -0.000836585 -0.000833109 -0.000828578 -0.000822992 -0.000816351 -0.000808541 -0.000799449 -0.000789073 -0.000777415 -0.000764451 -0.000750158 -0.000734537 -0.000717587 -0.000699382 -0.000679996 -0.000659427 -0.000637677 -0.000614901 -0.000591255 -0.00056674 -0.000541354 -0.000515311 -0.000488825 -0.000461895 -0.00043452 -0.000406946 -0.000379415 -0.000351929 -0.000324486 -0.000297346 -0.000270769 -0.000244753 -0.000219299 -0.000194677 -0.000171157 -0.000148739 -0.000127423 -0.000107475 -8.91579e-05 -7.2473e-05 -5.742e-05 -4.40579e-05 -3.24461e-05 -2.25844e-05 -1.44729e-05 -8.14099e-06 -3.61822e-06 -9.04554e-07 0 0 -2.09607e-06 -8.38427e-06 -1.88646e-05 -3.35371e-05 -5.23131e-05 -7.51043e-05 -0.000101911 -0.000132732 -0.000167418 -0.000205818 -0.000247931 -0.000293759 -0.00034268 -0.000394073 -0.000447938 -0.000504275 -0.000562457 -0.000621857 -0.000682475 -0.000744311 -0.00080677 -0.000869257 -0.000931772 -0.000994314 -0.00105633 -0.00111727 -0.00117712 -0.00123589 -0.00129311 -0.00134828 -0.00140142 -0.00145252 -0.00150124 -0.00154723 -0.0015905 -0.00163104 -0.00166871 -0.00170333 -0.00173492 -0.00176348 -0.00178907 -0.00181175 -0.00183152 -0.00184838 -0.00186261 -0.00187446 -0.00188395 -0.00189106 -0.00189621 -0.00189981 -0.00190186 -0.00190235 -0.00190174 -0.00190049 -0.00189858 -0.00189603 -0.00189321 -0.00189051 -0.00188792 -0.00188545 -0.00188331 -0.00188173 -0.00188069 -0.0018802 -0.00188026 -0.00188087 -0.00188201 -0.0018837 -0.0018857 -0.00188781 -0.00189 -0.0018923 -0.00189431 -0.00189564 -0.0018963 -0.00189629 -0.00189515 -0.00189244 -0.00188817 -0.00188232 -0.0018745 -0.0018643 -0.00185173 -0.00183679 -0.00181922 -0.00179876 -0.00177541 -0.00174918 -0.00172001 -0.00168786 -0.00165271 -0.00161457 -0.00157361 -0.00152999 -0.00148371 -0.00143477 -0.00138353 -0.00133032 -0.00127516 -0.00121805 -0.00115945 -0.00109986 -0.00103926 -0.00097767 -0.000915628 -0.000853684 -0.000791839 -0.000730093 -0.000669029 -0.000609229 -0.000550694 -0.000493422 -0.000438023 -0.000385103 -0.000334663 -0.000286703 -0.000241818 -0.000200605 -0.000163064 -0.000129195 -9.91303e-05 -7.30037e-05 -5.08149e-05 -3.2564e-05 -1.83172e-05 -8.14099e-06 -2.03525e-06 0 0 -3.72634e-06 -1.49054e-05 -3.35371e-05 -5.96215e-05 -9.30011e-05 -0.000133519 -0.000181174 -0.000235968 -0.000297631 -0.000365898 -0.000440767 -0.000522239 -0.000609209 -0.000700575 -0.000796334 -0.000896489 -0.000999924 -0.00110552 -0.00121329 -0.00132322 -0.00143426 -0.00154535 -0.00165648 -0.00176767 -0.00187792 -0.00198625 -0.00209266 -0.00219714 -0.00229885 -0.00239695 -0.00249141 -0.00258226 -0.00266887 -0.00275064 -0.00282756 -0.00289963 -0.00296659 -0.00302815 -0.00308431 -0.00313508 -0.00318056 -0.00322088 -0.00325603 -0.00328601 -0.00331131 -0.00333238 -0.00334924 -0.00336189 -0.00337105 -0.00337744 -0.00338108 -0.00338196 -0.00338088 -0.00337865 -0.00337526 -0.00337072 -0.00336571 -0.0033609 -0.00335631 -0.00335191 -0.00334811 -0.00334529 -0.00334345 -0.00334259 -0.00334269 -0.00334376 -0.0033458 -0.00334879 -0.00335236 -0.0033561 -0.00336001 -0.00336409 -0.00336766 -0.00337003 -0.0033712 -0.00337118 -0.00336916 -0.00336434 -0.00335674 -0.00334634 -0.00333244 -0.00331431 -0.00329197 -0.0032654 -0.00323416 -0.00319779 -0.00315629 -0.00310966 -0.0030578 -0.00300063 -0.00293815 -0.00287035 -0.00279753 -0.00271998 -0.00263771 -0.00255071 -0.0024596 -0.00236502 -0.00226696 -0.00216542 -0.00206125 -0.0019553 -0.00184758 -0.00173808 -0.00162778 -0.00151766 -0.00140771 -0.00129794 -0.00118939 -0.00108307 -0.000979011 -0.000877195 -0.000778707 -0.000684627 -0.000594956 -0.000509693 -0.000429899 -0.000356632 -0.000289892 -0.00022968 -0.000176232 -0.000129784 -9.03375e-05 -5.78915e-05 -3.2564e-05 -1.44729e-05 -3.61822e-06 0 0 -5.80783e-06 -2.32313e-05 -5.22705e-05 -9.29254e-05 -0.000144814 -0.000207554 -0.000281145 -0.000365588 -0.000460449 -0.000565293 -0.000680122 -0.000804934 -0.000938031 -0.00107771 -0.00122398 -0.00137683 -0.00153455 -0.00169543 -0.00185945 -0.00202664 -0.00219534 -0.00236395 -0.00253246 -0.00270087 -0.00286766 -0.00303133 -0.00319188 -0.00334931 -0.00350233 -0.00364963 -0.00379122 -0.0039271 -0.00405636 -0.00417806 -0.00429222 -0.00439883 -0.0044975 -0.00458784 -0.00466984 -0.00474351 -0.00480906 -0.00486669 -0.0049164 -0.00495821 -0.00499286 -0.00502114 -0.00504304 -0.00505856 -0.00506886 -0.00507509 -0.00507725 -0.00507533 -0.00507061 -0.00506435 -0.00505654 -0.0050472 -0.00503737 -0.00502815 -0.00501951 -0.00501146 -0.00500462 -0.00499957 -0.00499632 -0.00499487 -0.00499521 -0.00499733 -0.00500122 -0.0050069 -0.00501373 -0.0050211 -0.005029 -0.00503744 -0.00504534 -0.00505163 -0.0050563 -0.00505937 -0.00505957 -0.00505564 -0.00504758 -0.0050354 -0.00501796 -0.00499414 -0.00496392 -0.00492732 -0.0048836 -0.00483201 -0.00477256 -0.00470524 -0.00462989 -0.00454633 -0.00445456 -0.00435457 -0.00424679 -0.00413165 -0.00400914 -0.00387926 -0.00374296 -0.00360116 -0.00345387 -0.00330109 -0.00314411 -0.00298423 -0.00282146 -0.00265579 -0.00248871 -0.00232173 -0.00215485 -0.00198806 -0.00182295 -0.00166113 -0.00150258 -0.00134732 -0.00119701 -0.0010533 -0.000916196 -0.000785703 -0.00066345 -0.000551068 -0.000448558 -0.000355919 -0.000273538 -0.0002018 -0.000140706 -9.02563e-05 -5.07691e-05 -2.25641e-05 -5.64102e-06 0 0 -8.32598e-06 -3.33039e-05 -7.49338e-05 -0.000133216 -0.000207251 -0.00029614 -0.000399884 -0.000518482 -0.000651269 -0.000797582 -0.00095742 -0.00113078 -0.00131529 -0.00150855 -0.00171058 -0.00192137 -0.00213851 -0.00235961 -0.00258466 -0.00281367 -0.00304435 -0.00327443 -0.00350391 -0.00373278 -0.00395896 -0.00418034 -0.00439691 -0.00460868 -0.00481388 -0.00501073 -0.00519922 -0.00537937 -0.00554993 -0.00570969 -0.00585864 -0.00599679 -0.00612365 -0.00623876 -0.00634212 -0.00643373 -0.00651397 -0.00658322 -0.00664149 -0.00668876 -0.00672622 -0.00675503 -0.00677519 -0.0067867 -0.00679126 -0.00679058 -0.00678466 -0.00677349 -0.00675892 -0.0067428 -0.00672512 -0.00670589 -0.00668666 -0.00666896 -0.00665281 -0.0066382 -0.006626 -0.00661709 -0.00661147 -0.00660914 -0.00661007 -0.00661427 -0.00662172 -0.00663242 -0.00664548 -0.00666 -0.00667597 -0.00669341 -0.00671074 -0.00672641 -0.00674042 -0.00675278 -0.00676164 -0.00676517 -0.00676337 -0.00675624 -0.00674211 -0.0067193 -0.00668783 -0.00664767 -0.00659772 -0.00653685 -0.00646505 -0.00638233 -0.00628836 -0.00618279 -0.00606563 -0.00593688 -0.00579706 -0.00564667 -0.00548573 -0.00531422 -0.00513341 -0.00494455 -0.00474764 -0.00454269 -0.00433146 -0.00411574 -0.00389553 -0.00367084 -0.00344373 -0.0032163 -0.00298854 -0.00276045 -0.00253426 -0.00231221 -0.00209429 -0.00188051 -0.00167319 -0.00147468 -0.00128496 -0.00110404 -0.000934204 -0.000777746 -0.000634663 -0.000504956 -0.000389224 -0.000288063 -0.000201475 -0.000129459 -7.28208e-05 -3.23648e-05 -8.0912e-06 0 0 -1.12808e-05 -4.51231e-05 -0.000101527 -0.000180492 -0.000280312 -0.000399277 -0.00053739 -0.000694648 -0.000870093 -0.00106276 -0.00127266 -0.00149978 -0.00174098 -0.0019931 -0.00225614 -0.0025301 -0.0028118 -0.00309807 -0.00338891 -0.00368431 -0.00398127 -0.00427677 -0.00457082 -0.00486343 -0.00515182 -0.00543326 -0.00570774 -0.00597526 -0.00623352 -0.00648025 -0.00671542 -0.00693905 -0.0071496 -0.00734552 -0.00752682 -0.0076935 -0.00784504 -0.00798093 -0.00810116 -0.00820574 -0.00829531 -0.00837049 -0.00843128 -0.00847769 -0.00851138 -0.00853405 -0.00854569 -0.0085463 -0.00853825 -0.00852392 -0.00850332 -0.00847643 -0.00844581 -0.00841401 -0.00838101 -0.00834682 -0.00831356 -0.00828336 -0.00825621 -0.00823212 -0.00821228 -0.00819787 -0.00818891 -0.00818539 -0.00818728 -0.00819458 -0.00820727 -0.00822536 -0.00824761 -0.0082728 -0.00830093 -0.00833199 -0.00836385 -0.00839437 -0.00842355 -0.0084514 -0.00847537 -0.00849293 -0.00850409 -0.00850885 -0.00850487 -0.00848981 -0.00846367 -0.00842646 -0.00837655 -0.00831232 -0.00823378 -0.00814093 -0.00803319 -0.00791001 -0.00777137 -0.00761728 -0.00744832 -0.00726504 -0.00706747 -0.00685558 -0.00663097 -0.0063952 -0.00614828 -0.00589021 -0.00562329 -0.00534981 -0.00506979 -0.00478322 -0.00449283 -0.00420135 -0.00390878 -0.00361511 -0.00332331 -0.00303632 -0.00275413 -0.00247676 -0.00220727 -0.00194877 -0.00170124 -0.0014647 -0.00124216 -0.00103666 -0.000848208 -0.000676792 -0.00052329 -0.000388573 -0.000272644 -0.0001755 -9.87189e-05 -4.38751e-05 -1.09688e-05 0 0 -1.46722e-05 -5.86888e-05 -0.00013205 -0.000234755 -0.000363997 -0.000516966 -0.000693663 -0.000894088 -0.00111692 -0.00136084 -0.00162584 -0.00191194 -0.00221511 -0.00253134 -0.00286065 -0.00320302 -0.00355443 -0.00391082 -0.0042722 -0.00463856 -0.0050061 -0.00537098 -0.00573321 -0.00609279 -0.00644624 -0.0067901 -0.00712436 -0.00744903 -0.00776125 -0.00805818 -0.00833982 -0.00860616 -0.00885536 -0.00908556 -0.00929676 -0.00948897 -0.00966166 -0.00981432 -0.00994695 -0.0100595 -0.0101531 -0.0102285 -0.0102858 -0.010325 -0.0103484 -0.0103582 -0.0103545 -0.0103374 -0.0103098 -0.0102751 -0.0102332 -0.0101842 -0.0101313 -0.010078 -0.0100242 -0.00996997 -0.00991809 -0.00987134 -0.00982972 -0.00979323 -0.00976344 -0.0097419 -0.00972863 -0.00972362 -0.00972684 -0.00973826 -0.00975788 -0.00978571 -0.00982012 -0.0098595 -0.00990386 -0.00995319 -0.0100047 -0.0100555 -0.0101057 -0.0101552 -0.0102008 -0.0102389 -0.0102698 -0.0102932 -0.0103062 -0.0103057 -0.0102915 -0.0102637 -0.0102201 -0.0101584 -0.0100787 -0.00998103 -0.0098644 -0.00972799 -0.00957178 -0.00939577 -0.00920057 -0.00898677 -0.00875436 -0.00850335 -0.00823563 -0.00795311 -0.00765579 -0.00734366 -0.0070196 -0.00668646 -0.00634424 -0.00599294 -0.00563601 -0.00527689 -0.00491557 -0.00455206 -0.00419011 -0.00383346 -0.00348211 -0.00313606 -0.00279924 -0.00247557 -0.00216505 -0.00186768 -0.00158732 -0.00132782 -0.00108919 -0.000871426 -0.000675736 -0.000503331 -0.000354212 -0.000228379 -0.000128463 -5.70948e-05 -1.42737e-05 0 0 -1.84711e-05 -7.38844e-05 -0.00016624 -0.000295538 -0.000457566 -0.000648114 -0.000867181 -0.00111477 -0.00138909 -0.00168839 -0.00201264 -0.00236186 -0.00273107 -0.0031153 -0.00351455 -0.00392881 -0.00435311 -0.00478243 -0.00521678 -0.00565615 -0.00609585 -0.00653114 -0.00696204 -0.00738855 -0.0078064 -0.00821138 -0.00860346 -0.00898265 -0.00934553 -0.00968867 -0.0100121 -0.0103157 -0.0105975 -0.0108552 -0.0110889 -0.0112986 -0.0114838 -0.0116441 -0.0117795 -0.0118899 -0.0119768 -0.0120416 -0.0120843 -0.0121048 -0.0121063 -0.0120918 -0.0120613 -0.0120148 -0.0119564 -0.0118903 -0.0118165 -0.011735 -0.01165 -0.011566 -0.0114829 -0.0114008 -0.0113232 -0.0112537 -0.0111923 -0.0111389 -0.0110957 -0.0110646 -0.0110455 -0.0110386 -0.0110437 -0.0110608 -0.01109 -0.0111312 -0.0111823 -0.0112413 -0.0113082 -0.011383 -0.0114621 -0.0115418 -0.0116223 -0.0117033 -0.0117808 -0.0118502 -0.0119117 -0.0119653 -0.0120068 -0.0120321 -0.0120414 -0.0120345 -0.0120086 -0.0119606 -0.0118906 -0.0117985 -0.011683 -0.0115429 -0.0113782 -0.0111888 -0.0109753 -0.0107382 -0.0104776 -0.0101934 -0.00988791 -0.00956324 -0.00921942 -0.00885646 -0.00847779 -0.00808687 -0.0076837 -0.00726828 -0.00684481 -0.00641752 -0.0059864 -0.00555146 -0.00511731 -0.00468858 -0.00426528 -0.0038474 -0.00343979 -0.00304733 -0.00266999 -0.00230778 -0.0019655 -0.00164793 -0.00135506 -0.00108691 -0.000845104 -0.000631293 -0.000445476 -0.000287653 -0.000161805 -7.19133e-05 -1.79783e-05 0 0 -2.26483e-05 -9.05934e-05 -0.000203835 -0.000362373 -0.000560281 -0.00079163 -0.00105642 -0.00135465 -0.00168396 -0.00204198 -0.00242872 -0.00284417 -0.00328228 -0.00373697 -0.00420826 -0.00469614 -0.00519457 -0.00569748 -0.00620489 -0.0067168 -0.0072275 -0.00773134 -0.00822829 -0.00871836 -0.00919649 -0.0096576 -0.0101017 -0.0105288 -0.0109348 -0.0113158 -0.0116718 -0.0120027 -0.0123062 -0.0125799 -0.0128238 -0.0130379 -0.0132219 -0.0133755 -0.0134987 -0.0135916 -0.0136561 -0.0136942 -0.013706 -0.0136914 -0.0136544 -0.0135991 -0.0135255 -0.0134335 -0.0133285 -0.0132158 -0.0130953 -0.0129671 -0.0128366 -0.0127094 -0.0125855 -0.0124648 -0.0123518 -0.0122512 -0.0121628 -0.0120866 -0.0120253 -0.0119812 -0.0119545 -0.0119451 -0.0119529 -0.0119779 -0.0120201 -0.0120795 -0.0121535 -0.0122395 -0.0123375 -0.0124475 -0.012565 -0.0126854 -0.0128086 -0.0129348 -0.0130584 -0.0131739 -0.0132814 -0.0133808 -0.0134669 -0.0135346 -0.0135837 -0.0136143 -0.0136224 -0.0136043 -0.0135598 -0.0134891 -0.0133901 -0.013261 -0.0131019 -0.0129128 -0.0126939 -0.0124458 -0.0121684 -0.0118618 -0.0115283 -0.0111706 -0.0107884 -0.010382 -0.00995526 -0.00951227 -0.00905302 -0.00857751 -0.00809078 -0.00759786 -0.00709875 -0.00659346 -0.00608756 -0.00558664 -0.00509069 -0.00459973 -0.00411962 -0.00365627 -0.00320966 -0.0027798 -0.00237252 -0.00199368 -0.00164327 -0.00132129 -0.00102994 -0.000771419 -0.000545733 -0.000352878 -0.000198494 -8.82195e-05 -2.20549e-05 0 0 -2.72039e-05 -0.000108816 -0.000244835 -0.000435262 -0.00067214 -0.000947513 -0.00126138 -0.00161374 -0.00200152 -0.00242163 -0.00287408 -0.00335887 -0.00386872 -0.00439636 -0.00494179 -0.00550501 -0.00607881 -0.00665599 -0.00723655 -0.00782049 -0.00840107 -0.00897156 -0.00953195 -0.0100822 -0.0106165 -0.0111288 -0.0116191 -0.0120874 -0.0125291 -0.0129397 -0.013319 -0.0136672 -0.0139816 -0.0142597 -0.0145014 -0.0147068 -0.0148758 -0.0150084 -0.0151047 -0.0151646 -0.0151909 -0.0151864 -0.0151509 -0.0150846 -0.0149927 -0.0148802 -0.0147471 -0.0145935 -0.0144261 -0.0142515 -0.0140696 -0.0138806 -0.0136912 -0.0135082 -0.0133318 -0.0131619 -0.013004 -0.0128638 -0.0127412 -0.0126363 -0.0125522 -0.0124919 -0.0124555 -0.012443 -0.0124543 -0.0124893 -0.0125481 -0.0126306 -0.0127336 -0.012854 -0.0129917 -0.0131467 -0.0133133 -0.0134861 -0.0136648 -0.0138496 -0.0140336 -0.01421 -0.0143787 -0.0145399 -0.0146868 -0.0148129 -0.0149183 -0.0150029 -0.0150616 -0.0150895 -0.0150866 -0.0150528 -0.0149856 -0.0148823 -0.014743 -0.0145677 -0.0143565 -0.0141095 -0.0138268 -0.0135084 -0.0131569 -0.0127751 -0.0123629 -0.0119203 -0.011452 -0.0109626 -0.0104522 -0.00992063 -0.0093739 -0.0088179 -0.00825262 -0.00767807 -0.00710087 -0.00652763 -0.00595836 -0.00539305 -0.00483873 -0.0043024 -0.00378406 -0.00328371 -0.00280838 -0.00236507 -0.0019538 -0.00157456 -0.00123023 -0.000923707 -0.00065498 -0.000424054 -0.00023853 -0.000106013 -2.65034e-05 0 0 -3.21377e-05 -0.000128551 -0.00028924 -0.000514204 -0.000793145 -0.00111576 -0.00148206 -0.00189204 -0.00234177 -0.00282733 -0.00334873 -0.00390596 -0.00449041 -0.00509347 -0.00571514 -0.00635541 -0.00700583 -0.00765794 -0.00831174 -0.00896724 -0.00961655 -0.0102518 -0.010873 -0.0114802 -0.0120664 -0.0126249 -0.0131556 -0.0136585 -0.0141284 -0.0145602 -0.0149538 -0.0153092 -0.0156237 -0.0158945 -0.0161217 -0.0163053 -0.0164456 -0.0165429 -0.0165974 -0.016609 -0.0165813 -0.016518 -0.0164191 -0.0162846 -0.0161211 -0.0159349 -0.0157262 -0.0154949 -0.0152492 -0.0149974 -0.0147394 -0.0144754 -0.0142136 -0.0139624 -0.0137219 -0.0134921 -0.0132797 -0.0130915 -0.0129277 -0.012788 -0.0126764 -0.0125966 -0.0125486 -0.0125324 -0.012548 -0.0125952 -0.012674 -0.0127845 -0.0129227 -0.0130848 -0.0132707 -0.0134805 -0.0137072 -0.0139439 -0.0141908 -0.0144477 -0.0147064 -0.0149584 -0.0152037 -0.0154424 -0.0156663 -0.0158672 -0.0160452 -0.0162003 -0.0163261 -0.0164163 -0.0164708 -0.0164897 -0.0164695 -0.0164068 -0.0163015 -0.0161536 -0.0159629 -0.0157293 -0.0154528 -0.0151332 -0.0147736 -0.0143768 -0.0139427 -0.0134714 -0.012968 -0.012438 -0.0118812 -0.0112976 -0.0106942 -0.0100776 -0.00944801 -0.0088053 -0.00815723 -0.00751155 -0.00686827 -0.00622738 -0.00559712 -0.00498572 -0.0043932 -0.00381954 -0.00327308 -0.00276212 -0.00228667 -0.00184673 -0.001446 -0.00108816 -0.00077322 -0.000501181 -0.000281914 -0.000125295 -3.13238e-05 0 0 -3.73621e-05 -0.000149448 -0.000336259 -0.000597794 -0.000921134 -0.00129336 -0.00171448 -0.00218448 -0.00269846 -0.0032515 -0.00384361 -0.00447477 -0.00513491 -0.00581393 -0.00651183 -0.00722861 -0.00795445 -0.00867953 -0.00940386 -0.0101274 -0.0108412 -0.011536 -0.0122119 -0.0128688 -0.013499 -0.0140947 -0.0146557 -0.0151822 -0.0156683 -0.0161082 -0.016502 -0.0168497 -0.0171484 -0.0173953 -0.0175904 -0.0177338 -0.0178262 -0.0178686 -0.017861 -0.0178034 -0.0177005 -0.0175571 -0.0173732 -0.0171487 -0.0168918 -0.0166106 -0.0163049 -0.0159749 -0.0156305 -0.0152819 -0.014929 -0.0145718 -0.0142205 -0.0138852 -0.0135659 -0.0132626 -0.0129835 -0.0127368 -0.0125225 -0.0123406 -0.0121956 -0.0120921 -0.0120301 -0.0120095 -0.0120303 -0.0120924 -0.0121958 -0.0123404 -0.0125217 -0.0127348 -0.0129798 -0.0132566 -0.0135571 -0.0138729 -0.014204 -0.0145504 -0.014902 -0.0152486 -0.0155903 -0.015927 -0.0162488 -0.0165457 -0.0168179 -0.0170651 -0.0172797 -0.0174536 -0.017587 -0.0176797 -0.0177273 -0.0177252 -0.0176734 -0.0175719 -0.0174201 -0.0172173 -0.0169634 -0.0166585 -0.0163055 -0.0159075 -0.0154644 -0.0149761 -0.0144487 -0.0138878 -0.0132936 -0.0126659 -0.0120127 -0.0113416 -0.0106528 -0.00994609 -0.00923056 -0.00851509 -0.00779969 -0.00708436 -0.00637867 -0.00569219 -0.00502492 -0.00437686 -0.00375778 -0.00317742 -0.00263578 -0.00213287 -0.00167334 -0.00126183 -0.00089835 -0.000582892 -0.000327877 -0.000145723 -3.64307e-05 0 0 -4.27892e-05 -0.000171157 -0.000385103 -0.000684627 -0.00105395 -0.00147729 -0.00195465 -0.00248603 -0.00306536 -0.00368657 -0.00434966 -0.00505463 -0.00578977 -0.00654336 -0.00731538 -0.00810585 -0.00890347 -0.00969695 -0.0104863 -0.0112715 -0.0120421 -0.0127879 -0.0135088 -0.0142048 -0.014867 -0.0154867 -0.0160639 -0.0165985 -0.0170842 -0.0175147 -0.0178899 -0.0182099 -0.0184718 -0.0186729 -0.0188132 -0.0188926 -0.0189127 -0.0188751 -0.0187798 -0.0186267 -0.0184219 -0.0181716 -0.0178757 -0.0175342 -0.0171571 -0.0167542 -0.0163255 -0.0158711 -0.0154031 -0.0149336 -0.0144626 -0.0139902 -0.0135285 -0.0130896 -0.0126736 -0.0122804 -0.0119199 -0.0116018 -0.0113261 -0.0110928 -0.0109074 -0.0107752 -0.0106961 -0.0106704 -0.0106977 -0.010778 -0.0109113 -0.0110975 -0.0113312 -0.0116067 -0.0119239 -0.012283 -0.0126739 -0.0130868 -0.0135218 -0.0139787 -0.0144455 -0.01491 -0.0153722 -0.015832 -0.0162775 -0.0166966 -0.0170894 -0.0174558 -0.0177862 -0.0180708 -0.0183096 -0.0185027 -0.0186442 -0.0187283 -0.018755 -0.0187242 -0.0186348 -0.0184853 -0.0182758 -0.0180063 -0.0176797 -0.0172991 -0.0168644 -0.0163756 -0.0158392 -0.0152616 -0.0146428 -0.0139828 -0.0132904 -0.0125743 -0.0118347 -0.0110714 -0.0102948 -0.0095149 -0.00873187 -0.00794565 -0.00716727 -0.00640774 -0.00566707 -0.00494526 -0.00425365 -0.00360358 -0.00299505 -0.00242807 -0.00190839 -0.00144179 -0.00102827 -0.000667821 -0.000375649 -0.000166955 -4.17388e-05 0 0 -4.8419e-05 -0.000193676 -0.000435771 -0.000774704 -0.00119159 -0.00166755 -0.00220257 -0.00279667 -0.00344244 -0.00413252 -0.00486688 -0.00564554 -0.006455 -0.00728176 -0.00812581 -0.00898715 -0.00985291 -0.0107102 -0.011559 -0.0123993 -0.0132195 -0.0140076 -0.0147638 -0.015488 -0.0161704 -0.0168011 -0.0173801 -0.0179074 -0.0183762 -0.0187795 -0.0191174 -0.0193898 -0.019594 -0.0197275 -0.01979 -0.0197818 -0.0197051 -0.0195624 -0.0193536 -0.0190788 -0.0187455 -0.0183615 -0.0179267 -0.0174412 -0.0169169 -0.0163658 -0.015788 -0.0151835 -0.0145668 -0.0139524 -0.0133403 -0.0127305 -0.0121375 -0.0115757 -0.011045 -0.0105456 -0.0100889 -0.00968656 -0.00933851 -0.00904479 -0.00881175 -0.00864577 -0.00854685 -0.00851497 -0.00855002 -0.00865184 -0.00882044 -0.00905582 -0.00935136 -0.00970048 -0.0101032 -0.0105594 -0.0110575 -0.0115858 -0.0121442 -0.0127327 -0.013337 -0.0139426 -0.0145494 -0.0151575 -0.0157525 -0.01632 -0.0168599 -0.0173724 -0.0178456 -0.0182677 -0.0186387 -0.0189587 -0.0192203 -0.0194161 -0.0195462 -0.0196105 -0.019607 -0.0195335 -0.0193901 -0.0191766 -0.0188962 -0.0185515 -0.0181427 -0.0176698 -0.0171397 -0.0165594 -0.0159289 -0.0152483 -0.0145273 -0.0137758 -0.0129938 -0.0121813 -0.0113498 -0.010511 -0.00966481 -0.00881126 -0.00796293 -0.0071324 -0.00631967 -0.00552474 -0.00476069 -0.0040406 -0.00336447 -0.00273231 -0.00215115 -0.00162804 -0.00116298 -0.000755968 -0.000425232 -0.000188992 -4.7248e-05 0 0 -5.42515e-05 -0.000217006 -0.000488263 -0.000868024 -0.00133406 -0.00186413 -0.00245825 -0.0031164 -0.00382973 -0.00458936 -0.00539528 -0.00624751 -0.0071306 -0.00802913 -0.0089431 -0.0098725 -0.0108028 -0.0117193 -0.012622 -0.0135111 -0.0143731 -0.0151951 -0.0159769 -0.0167186 -0.0174092 -0.0180378 -0.0186044 -0.019109 -0.0195443 -0.0199027 -0.0201844 -0.0203893 -0.020515 -0.0205588 -0.020521 -0.0204013 -0.0202033 -0.0199304 -0.0195825 -0.0191597 -0.0186713 -0.0181268 -0.0175263 -0.0168696 -0.0161711 -0.0154454 -0.0146924 -0.0139121 -0.0131217 -0.0123383 -0.011562 -0.0107928 -0.0100476 -0.00934345 -0.0086803 -0.00805817 -0.00749059 -0.00699112 -0.00655974 -0.00619646 -0.00590872 -0.00570395 -0.00558217 -0.00554336 -0.00558736 -0.00571401 -0.00592332 -0.00621527 -0.00658214 -0.00701622 -0.00751749 -0.00808596 -0.00870791 -0.00936964 -0.0100711 -0.0108124 -0.0115765 -0.0123463 -0.013122 -0.0139035 -0.0146738 -0.0154157 -0.0161294 -0.0168148 -0.0174579 -0.0180444 -0.0185743 -0.0190477 -0.0194555 -0.0197887 -0.0200471 -0.0202308 -0.0203367 -0.0203618 -0.0203061 -0.0201695 -0.0199549 -0.0196648 -0.0192994 -0.0188587 -0.0183501 -0.0177812 -0.017152 -0.0164624 -0.0157235 -0.0149461 -0.0141301 -0.0132757 -0.0123958 -0.0115034 -0.0105985 -0.00968118 -0.00876564 -0.00786614 -0.00698269 -0.00611529 -0.00527889 -0.00448848 -0.00374405 -0.00304559 -0.00240161 -0.00182057 -0.00130247 -0.000847333 -0.000476625 -0.000211833 -5.29583e-05 0 0 -6.0197e-05 -0.000240788 -0.000541773 -0.000963153 -0.00147915 -0.00206397 -0.00271763 -0.00344013 -0.00422093 -0.00504953 -0.00592591 -0.00685009 -0.00780454 -0.00877174 -0.0097517 -0.0107444 -0.0117335 -0.0127024 -0.0136513 -0.0145801 -0.0154741 -0.0163185 -0.0171134 -0.0178588 -0.0185425 -0.0191527 -0.0196893 -0.0201523 -0.0205338 -0.020826 -0.0210289 -0.0211424 -0.0211644 -0.0210927 -0.0209273 -0.0206683 -0.0203202 -0.0198875 -0.0193705 -0.0187689 -0.0180943 -0.0173581 -0.0165605 -0.0157012 -0.0147975 -0.0138664 -0.012908 -0.0119222 -0.0109292 -0.00994912 -0.00898206 -0.00802797 -0.00710665 -0.00623789 -0.00542168 -0.00465804 -0.00396269 -0.00335137 -0.00282408 -0.00238083 -0.00203024 -0.00178094 -0.00163294 -0.00158622 -0.0016406 -0.00179588 -0.00205207 -0.00240916 -0.00285819 -0.00339019 -0.00400516 -0.00470311 -0.00546808 -0.00628413 -0.00715127 -0.0080695 -0.00901899 -0.00997993 -0.0109523 -0.0119362 -0.0129115 -0.0138582 -0.0147764 -0.015666 -0.0165102 -0.0172923 -0.0180123 -0.0186702 -0.0192548 -0.0197552 -0.0201713 -0.020503 -0.0207463 -0.0208968 -0.0209546 -0.0209197 -0.0207945 -0.0205814 -0.0202806 -0.019892 -0.0194237 -0.0188836 -0.0182717 -0.0175881 -0.0168448 -0.0160538 -0.015215 -0.0143286 -0.0134089 -0.0124707 -0.0115138 -0.0105383 -0.00956016 -0.00859553 -0.00764438 -0.00670671 -0.00579952 -0.00493983 -0.00412764 -0.00336294 -0.00265582 -0.00201638 -0.00144461 -0.000940514 -0.000529039 -0.000235129 -5.87821e-05 0 0 -6.61659e-05 -0.000264664 -0.000595493 -0.00105865 -0.00162466 -0.002264 -0.00297669 -0.00376273 -0.00460977 -0.00550548 -0.00644984 -0.00744287 -0.0084648 -0.00949585 -0.010536 -0.0115854 -0.0126254 -0.0136379 -0.0146227 -0.0155799 -0.0164932 -0.0173461 -0.0181387 -0.0188709 -0.0195297 -0.0201019 -0.0205874 -0.0209863 -0.0212903 -0.021491 -0.0215885 -0.0215828 -0.0214721 -0.0212547 -0.0209306 -0.0204997 -0.0199683 -0.0193421 -0.0186213 -0.0178058 -0.0169094 -0.015946 -0.0149155 -0.013818 -0.0126735 -0.0115022 -0.010304 -0.00907905 -0.00785078 -0.0066427 -0.00545481 -0.00428711 -0.00316254 -0.00210402 -0.00111156 -0.000185157 0.000657016 0.00139678 0.00203414 0.0025691 0.0029917 0.00329201 0.00347002 0.00352574 0.00345938 0.00327118 0.00296113 0.00252924 0.00198584 0.00134128 0.000595566 -0.000251313 -0.00118093 -0.00217487 -0.00323313 -0.00435572 -0.00551965 -0.00670196 -0.00790266 -0.00912173 -0.0103359 -0.0115217 -0.0126793 -0.0138086 -0.0148898 -0.0159032 -0.0168488 -0.0177265 -0.018523 -0.019225 -0.0198324 -0.0203453 -0.020758 -0.021065 -0.0212662 -0.0213617 -0.0213536 -0.0212439 -0.0210326 -0.0207197 -0.0203138 -0.0198232 -0.0192481 -0.0185883 -0.0178571 -0.0170677 -0.0162199 -0.0153139 -0.0143657 -0.0133916 -0.0123915 -0.0113653 -0.0103312 -0.0093071 -0.00829295 -0.00728879 -0.00631382 -0.00538726 -0.0045091 -0.00367934 -0.00290984 -0.00221247 -0.00158723 -0.00103411 -0.000581686 -0.000258527 -6.46318e-05 0 0 -7.21582e-05 -0.000288633 -0.000649424 -0.00115453 -0.00177058 -0.00246422 -0.00323542 -0.00408421 -0.00499624 -0.00595719 -0.00696706 -0.00802585 -0.00911137 -0.0102015 -0.0112961 -0.0123954 -0.0134787 -0.0145257 -0.0155363 -0.0165105 -0.0174304 -0.0182778 -0.0190527 -0.0197551 -0.0203708 -0.0208853 -0.0212988 -0.0216111 -0.0218137 -0.0218978 -0.0218634 -0.0217105 -0.021438 -0.0210447 -0.0205306 -0.0198957 -0.0191476 -0.0182941 -0.017335 -0.0162704 -0.0151167 -0.0138904 -0.0125915 -0.0112198 -0.00979906 -0.00835262 -0.00688052 -0.00538276 -0.00388653 -0.00241902 -0.000980243 0.000429808 0.00178474 0.00305816 0.00425007 0.00536047 0.00636851 0.00725333 0.00801494 0.00865333 0.00915712 0.00951491 0.0097267 0.0097925 0.00971257 0.00948716 0.00911628 0.00859992 0.00794995 0.00717821 0.0062847 0.00526942 0.00415352 0.00295814 0.00168327 0.000328926 -0.00107846 -0.00251243 -0.003973 -0.00546016 -0.0069469 -0.00840622 -0.00983813 -0.0112426 -0.0125966 -0.0138769 -0.0150836 -0.0162166 -0.0172601 -0.0181981 -0.0190305 -0.0197575 -0.0203718 -0.0208662 -0.0212409 -0.0214957 -0.0216323 -0.0216521 -0.0215553 -0.0213417 -0.0210203 -0.0206001 -0.020081 -0.019463 -0.0187605 -0.0179878 -0.0171448 -0.0162317 -0.0152661 -0.0142661 -0.0132315 -0.0121624 -0.0110788 -0.0100008 -0.00892841 -0.00786153 -0.0068218 -0.00583076 -0.00488843 -0.00399479 -0.00316367 -0.00240885 -0.00173033 -0.00112812 -0.000634566 -0.00028203 -7.05074e-05 0 0 -7.81737e-05 -0.000312695 -0.000703564 -0.00125078 -0.00191693 -0.00266462 -0.00349383 -0.00440457 -0.00538035 -0.00640469 -0.00747758 -0.00859902 -0.00974427 -0.0108886 -0.012032 -0.0131744 -0.0142932 -0.0153658 -0.016392 -0.017372 -0.0182858 -0.0191136 -0.0198554 -0.0205113 -0.0210656 -0.021503 -0.0218233 -0.0220267 -0.022104 -0.0220463 -0.0218535 -0.0215256 -0.0210622 -0.0204629 -0.0197275 -0.0188561 -0.0178583 -0.0167434 -0.0155116 -0.0141627 -0.0127162 -0.0111914 -0.00958826 -0.00790682 -0.00617427 -0.00441783 -0.0026375 -0.000833276 0.000963606 0.00272191 0.00444164 0.00612278 0.00773518 0.00924866 0.0106632 0.0119789 0.0131718 0.0142183 0.0151183 0.0158719 0.016466 0.0168878 0.0171371 0.0172141 0.017119 0.0168521 0.0164134 0.0158029 0.0150341 0.0141206 0.0130622 0.0118591 0.0105353 0.0091149 0.00759795 0.00598443 0.00430458 0.00258865 0.000836638 -0.000951456 -0.0027446 -0.00451176 -0.00625295 -0.00796815 -0.00963059 -0.0112135 -0.0127168 -0.0141407 -0.0154661 -0.0166745 -0.0177657 -0.0187397 -0.0195877 -0.0203007 -0.0208787 -0.0213216 -0.0216305 -0.0218062 -0.0218487 -0.021758 