<?xml version="1.0"?> 
<VTKFile type="StructuredGrid" version="0.1"> 
<StructuredGrid WholeExtent="0 128 0 128 0 0"> 
<Piece Extent="0 128 0 128 0 0"> 
<PointData>
<DataArray type="Float32" Name="u" format="ascii" NumberOfComponents="1"> 
0 0 0 0 0 0 0 0 0 0 0 0 0 0 0 0 0 0 0 0 0 0 0 0 0 0 0 0 0 0 0 0 0 0 0 0 0 0 0 0 0 0 0 0 0 0 0 0 0 0 0 0 0 0 0 0 0 0 0 0 0 0 0 0 0 0 0 0 0 0 0 0 0 0 0 0 0 0 0 0 0 0 0 0 0 0 0 0 0 0 0 0 0 0 0 0 0 0 0 0 0 0 0 0 0 0 0 0 0 0 0 0 0 0 0 0 0 0 0 0 0 0 0 0 0 0 0 0 0 0 -2.00895e-12 -8.03579e-12 -1.80805e-11 -3.21432e-11 -4.35537e-11 -4.56421e-11 -3.84084e-11 -2.18527e-11 1.33855e-11 7.66663e-11 1.6799e-10 2.87356e-10 4.28936e-10 5.86902e-10 7.61253e-10 9.5199e-10 1.08999e-09 1.10613e-09 1.00042e-09 7.72842e-10 2.6295e-10 -6.89719e-10 -2.08517e-09 -3.92339e-09 -6.40108e-09 -9.71494e-09 -1.3865e-08 -1.88512e-08 -2.47948e-08 -3.18172e-08 -3.99184e-08 -4.90984e-08 -5.9328e-08 -7.05784e-08 -8.28495e-08 -9.61412e-08 -1.10289e-07 -1.25127e-07 -1.40657e-07 -1.56878e-07 -1.73563e-07 -1.90486e-07 -2.07646e-07 -2.25045e-07 -2.42446e-07 -2.59617e-07 -2.76557e-07 -2.93266e-07 -3.09527e-07 -3.25124e-07 -3.40056e-07 -3.54324e-07 -3.67757e-07 -3.80185e-07 -3.9161e-07 -4.0203e-07 -4.11347e-07 -4.19464e-07 -4.2638e-07 -4.32096e-07 -4.36572e-07 -4.39769e-07 -4.41687e-07 -4.42326e-07 -4.41686e-07 -4.39767e-07 -4.36569e-07 -4.32092e-07 -4.26375e-07 -4.19457e-07 -4.11339e-07 -4.02021e-07 -3.916e-07 -3.80175e-07 -3.67746e-07 -3.54313e-07 -3.40045e-07 -3.25112e-07 -3.09516e-07 -2.93254e-07 -2.76546e-07 -2.59606e-07 -2.42435e-07 -2.25034e-07 -2.07636e-07 -1.90476e-07 -1.73553e-07 -1.56869e-07 -1.40649e-07 -1.2512e-07 -1.10282e-07 -9.61351e-08 -8.28441e-08 -7.05737e-08 -5.93239e-08 -4.90949e-08 -3.99155e-08 -3.18148e-08 -2.47929e-08 -1.88497e-08 -1.38638e-08 -9.71413e-09 -6.40053e-09 -3.92303e-09 -2.08496e-09 -6.89639e-10 2.62946e-10 7.72788e-10 1.00034e-09 1.10604e-09 1.08989e-09 9.51904e-10 7.61182e-10 5.86846e-10 4.28894e-10 2.87327e-10 1.67972e-10 7.66577e-11 1.33833e-11 -2.18511e-11 -3.84049e-11 -4.56376e-11 -4.35493e-11 -3.21399e-11 -1.80787e-11 -8.03496e-12 -2.00874e-12 0 0 -8.03579e-12 -3.21432e-11 -7.23221e-11 -1.28573e-10 -1.74215e-10 -1.82568e-10 -1.53634e-10 -8.74106e-11 5.35421e-11 3.06665e-10 6.71959e-10 1.14942e-09 1.71575e-09 2.34761e-09 3.04501e-09 3.80796e-09 4.35996e-09 4.42453e-09 4.00167e-09 3.09137e-09 1.0518e-09 -2.75888e-09 -8.34066e-09 -1.56936e-08 -2.56043e-08 -3.88598e-08 -5.54599e-08 -7.54046e-08 -9.91792e-08 -1.27269e-07 -1.59674e-07 -1.96393e-07 -2.37312e-07 -2.82314e-07 -3.31398e-07 -3.84565e-07 -4.41155e-07 -5.0051e-07 -5.62628e-07 -6.27511e-07 -6.94251e-07 -7.61942e-07 -8.30585e-07 -9.00178e-07 -9.69786e-07 -1.03847e-06 -1.10623e-06 -1.17306e-06 -1.23811e-06 -1.3005e-06 -1.36022e-06 -1.41729e-06 -1.47103e-06 -1.52074e-06 -1.56644e-06 -1.60812e-06 -1.64539e-06 -1.67786e-06 -1.70552e-06 -1.72839e-06 -1.74629e-06 -1.75908e-06 -1.76675e-06 -1.76931e-06 -1.76674e-06 -1.75907e-06 -1.74628e-06 -1.72837e-06 -1.7055e-06 -1.67783e-06 -1.64536e-06 -1.60808e-06 -1.5664e-06 -1.5207e-06 -1.47098e-06 -1.41725e-06 -1.36018e-06 -1.30045e-06 -1.23806e-06 -1.17302e-06 -1.10618e-06 -1.03842e-06 -9.69741e-07 -9.00135e-07 -8.30543e-07 -7.61902e-07 -6.94213e-07 -6.27476e-07 -5.62596e-07 -5.0048e-07 -4.41128e-07 -3.84541e-07 -3.31376e-07 -2.82295e-07 -2.37296e-07 -1.96379e-07 -1.59662e-07 -1.27259e-07 -9.91716e-08 -7.53987e-08 -5.54554e-08 -3.88565e-08 -2.56021e-08 -1.56921e-08 -8.33986e-09 -2.75855e-09 1.05178e-09 3.09115e-09 4.00135e-09 4.42416e-09 4.35958e-09 3.80762e-09 3.04473e-09 2.34738e-09 1.71558e-09 1.14931e-09 6.71889e-10 3.06631e-10 5.35332e-11 -8.74043e-11 -1.53619e-10 -1.8255e-10 -1.74197e-10 -1.28559e-10 -7.23147e-11 -3.21399e-11 -8.03496e-12 0 0 -1.80805e-11 -7.23221e-11 -1.62725e-10 -2.89288e-10 -3.91983e-10 -4.10779e-10 -3.45676e-10 -1.96674e-10 1.2047e-10 6.89997e-10 1.51191e-09 2.5862e-09 3.86043e-09 5.28212e-09 6.85128e-09 8.56791e-09 9.80992e-09 9.9552e-09 9.00375e-09 6.95558e-09 2.36655e-09 -6.20747e-09 -1.87665e-08 -3.53105e-08 -5.76097e-08 -8.74345e-08 -1.24785e-07 -1.6966e-07 -2.23153e-07 -2.86355e-07 -3.59266e-07 -4.41885e-07 -5.33952e-07 -6.35206e-07 -7.45645e-07 -8.65271e-07 -9.926e-07 -1.12615e-06 -1.26591e-06 -1.4119e-06 -1.56206e-06 -1.71437e-06 -1.86882e-06 -2.0254e-06 -2.18202e-06 -2.33656e-06 -2.48901e-06 -2.63939e-06 -2.78574e-06 -2.92611e-06 -3.0605e-06 -3.18891e-06 -3.30981e-06 -3.42167e-06 -3.52449e-06 -3.61827e-06 -3.70212e-06 -3.77518e-06 -3.83742e-06 -3.88887e-06 -3.92915e-06 -3.95793e-06 -3.97519e-06 -3.98094e-06 -3.97518e-06 -3.9579e-06 -3.92912e-06 -3.88882e-06 -3.83737e-06 -3.77512e-06 -3.70205e-06 -3.61819e-06 -3.5244e-06 -3.42158e-06 -3.30972e-06 -3.18881e-06 -3.0604e-06 -2.92601e-06 -2.78564e-06 -2.63929e-06 -2.48891e-06 -2.33645e-06 -2.18192e-06 -2.0253e-06 -1.86872e-06 -1.71428e-06 -1.56198e-06 -1.41182e-06 -1.26584e-06 -1.12608e-06 -9.92538e-07 -8.65216e-07 -7.45596e-07 -6.35163e-07 -5.33915e-07 -4.41854e-07 -3.59239e-07 -2.86334e-07 -2.23136e-07 -1.69647e-07 -1.24775e-07 -8.74272e-08 -5.76047e-08 -3.53073e-08 -1.87647e-08 -6.20675e-09 2.36651e-09 6.95509e-09 9.00303e-09 9.95435e-09 9.80905e-09 8.56714e-09 6.85064e-09 5.28161e-09 3.86004e-09 2.58594e-09 1.51175e-09 6.8992e-10 1.2045e-10 -1.9666e-10 -3.45644e-10 -4.10738e-10 -3.91943e-10 -2.89259e-10 -1.62708e-10 -7.23147e-11 -1.80787e-11 0 0 -3.21432e-11 -1.28573e-10 -2.89288e-10 -5.14291e-10 -6.96859e-10 -7.30274e-10 -6.14535e-10 -3.49642e-10 2.14168e-10 1.22666e-09 2.68784e-09 4.5977e-09 6.86298e-09 9.39043e-09 1.21801e-08 1.52318e-08 1.74399e-08 1.76981e-08 1.60067e-08 1.23655e-08 4.2072e-09 -1.10355e-08 -3.33626e-08 -6.27742e-08 -1.02417e-07 -1.55439e-07 -2.21839e-07 -3.01618e-07 -3.96717e-07 -5.09076e-07 -6.38694e-07 -7.85574e-07 -9.49248e-07 -1.12925e-06 -1.32559e-06 -1.53826e-06 -1.76462e-06 -2.00204e-06 -2.25051e-06 -2.51004e-06 -2.777e-06 -3.04777e-06 -3.32234e-06 -3.60071e-06 -3.87914e-06 -4.15388e-06 -4.42492e-06 -4.69226e-06 -4.95243e-06 -5.20198e-06 -5.44089e-06 -5.66918e-06 -5.88411e-06 -6.08297e-06 -6.26576e-06 -6.43248e-06 -6.58155e-06 -6.71143e-06 -6.82209e-06 -6.91354e-06 -6.98516e-06 -7.03631e-06 -7.067e-06 -7.07722e-06 -7.06698e-06 -7.03627e-06 -6.9851e-06 -6.91347e-06 -6.82199e-06 -6.71132e-06 -6.58143e-06 -6.43234e-06 -6.26561e-06 -6.08281e-06 -5.88394e-06 -5.669e-06 -5.44071e-06 -5.2018e-06 -4.95225e-06 -4.69207e-06 -4.42473e-06 -4.15369e-06 -3.87897e-06 -3.60054e-06 -3.32217e-06 -3.04761e-06 -2.77685e-06 -2.5099e-06 -2.25038e-06 -2.00192e-06 -1.76451e-06 -1.53816e-06 -1.3255e-06 -1.12918e-06 -9.49183e-07 -7.85518e-07 -6.38648e-07 -5.09037e-07 -3.96686e-07 -3.01595e-07 -2.21821e-07 -1.55426e-07 -1.02408e-07 -6.27685e-08 -3.33594e-08 -1.10342e-08 4.20713e-09 1.23646e-08 1.60054e-08 1.76966e-08 1.74383e-08 1.52305e-08 1.21789e-08 9.38953e-09 6.8623e-09 4.59723e-09 2.68756e-09 1.22652e-09 2.14133e-10 -3.49617e-10 -6.14478e-10 -7.30201e-10 -6.96788e-10 -5.14238e-10 -2.89259e-10 -1.28559e-10 -3.21399e-11 0 0 -4.35513e-11 -1.74205e-10 -3.91962e-10 -6.96821e-10 -9.26772e-10 -9.19805e-10 -6.75921e-10 -1.95118e-10 7.10156e-10 2.22746e-09 4.35678e-09 7.09814e-09 1.02239e-08 1.35065e-08 1.69459e-08 2.05421e-08 2.2641e-08 2.15883e-08 1.73842e-08 1.00285e-08 -3.88393e-09 -2.77584e-08 -6.15949e-08 -1.05393e-07 -1.62624e-07 -2.36756e-07 -3.27789e-07 -4.35724e-07 -5.61496e-07 -7.06042e-07 -8.69361e-07 -1.05145e-06 -1.24997e-06 -1.46256e-06 -1.68923e-06 -1.92997e-06 -2.18112e-06 -2.43903e-06 -2.70369e-06 -2.9751e-06 -3.2507e-06 -3.52794e-06 -3.8068e-06 -4.08729e-06 -4.36788e-06 -4.64703e-06 -4.92472e-06 -5.20098e-06 -5.47342e-06 -5.73969e-06 -5.99977e-06 -6.25368e-06 -6.49755e-06 -6.72749e-06 -6.94351e-06 -7.1456e-06 -7.32978e-06 -7.49204e-06 -7.63237e-06 -7.75078e-06 -7.8448e-06 -7.91195e-06 -7.95224e-06 -7.96566e-06 -7.95222e-06 -7.91191e-06 -7.84474e-06 -7.7507e-06 -7.63227e-06 -7.49192e-06 -7.32965e-06 -7.14546e-06 -6.94335e-06 -6.72732e-06 -6.49737e-06 -6.2535e-06 -5.99958e-06 -5.73949e-06 -5.47322e-06 -5.20078e-06 -4.92452e-06 -4.64683e-06 -4.36769e-06 -4.0871e-06 -3.80661e-06 -3.52776e-06 -3.25053e-06 -2.97494e-06 -2.70354e-06 -2.43889e-06 -2.18099e-06 -1.92985e-06 -1.68912e-06 -1.46246e-06 -1.24988e-06 -1.05138e-06 -8.69298e-07 -7.05989e-07 -5.61453e-07 -4.3569e-07 -3.27762e-07 -2.36736e-07 -1.6261e-07 -1.05384e-07 -6.15892e-08 -2.77556e-08 -3.88319e-09 1.00279e-08 1.73828e-08 2.15865e-08 2.2639e-08 2.05403e-08 1.69443e-08 1.35052e-08 1.02229e-08 7.09742e-09 4.35633e-09 2.22721e-09 7.10064e-10 -1.95114e-10 -6.75861e-10 -9.19716e-10 -9.26679e-10 -6.9675e-10 -3.91922e-10 -1.74187e-10 -4.35469e-11 0 0 -4.56325e-11 -1.8253e-10 -4.10693e-10 -7.3012e-10 -9.19652e-10 -7.58126e-10 -2.45543e-10 6.18097e-10 1.98395e-09 4.00318e-09 6.67578e-09 1.00018e-08 1.34437e-08 1.64642e-08 1.90634e-08 2.1241e-08 2.08045e-08 1.55608e-08 5.51e-09 -9.34791e-09 -3.23646e-08 -6.68916e-08 -1.12929e-07 -1.70477e-07 -2.40826e-07 -3.25266e-07 -4.23798e-07 -5.36421e-07 -6.59116e-07 -7.87865e-07 -9.22666e-07 -1.06352e-06 -1.20289e-06 -1.33323e-06 -1.45455e-06 -1.56684e-06 -1.66601e-06 -1.74797e-06 -1.81271e-06 -1.86023e-06 -1.8948e-06 -1.92067e-06 -1.93784e-06 -1.94632e-06 -1.95496e-06 -1.9726e-06 -1.99924e-06 -2.03489e-06 -2.08394e-06 -2.15082e-06 -2.23552e-06 -2.33803e-06 -2.45375e-06 -2.57808e-06 -2.711e-06 -2.85251e-06 -2.99291e-06 -3.12244e-06 -3.24113e-06 -3.34895e-06 -3.43856e-06 -3.50256e-06 -3.54096e-06 -3.55375e-06 -3.54095e-06 -3.50254e-06 -3.43854e-06 -3.34893e-06 -3.2411e-06 -3.12241e-06 -2.99287e-06 -2.85248e-06 -2.71096e-06 -2.57804e-06 -2.45371e-06 -2.33799e-06 -2.23547e-06 -2.15077e-06 -2.08389e-06 -2.03483e-06 -1.99918e-06 -1.97253e-06 -1.95489e-06 -1.94625e-06 -1.93777e-06 -1.92058e-06 -1.89471e-06 -1.86014e-06 -1.81261e-06 -1.74787e-06 -1.66592e-06 -1.56675e-06 -1.45446e-06 -1.33315e-06 -1.20281e-06 -1.06345e-06 -9.22601e-07 -7.87807e-07 -6.59067e-07 -5.36379e-07 -4.23764e-07 -3.25239e-07 -2.40805e-07 -1.70462e-07 -1.12919e-07 -6.68854e-08 -3.23613e-08 -9.34669e-09 5.50979e-09 1.55596e-08 2.08027e-08 2.12392e-08 1.90616e-08 1.64627e-08 1.34424e-08 1.00008e-08 6.6751e-09 4.00276e-09 1.98373e-09 6.18013e-10 -2.45532e-10 -7.58057e-10 -9.19563e-10 -7.30048e-10 -4.10652e-10 -1.82512e-10 -4.5628e-11 0 0 -3.83868e-11 -1.53547e-10 -3.45481e-10 -6.14189e-10 -6.75498e-10 -2.45236e-10 6.76598e-10 2.09e-09 4.03556e-09 6.55383e-09 9.64484e-09 1.33086e-08 1.65224e-08 1.82637e-08 1.85324e-08 1.73287e-08 1.19304e-08 -3.84479e-10 -1.96158e-08 -4.57637e-08 -8.12347e-08 -1.28435e-07 -1.87365e-07 -2.58024e-07 -3.37023e-07 -4.2097e-07 -5.09866e-07 -6.0371e-07 -6.89578e-07 -7.54544e-07 -7.98609e-07 -8.21774e-07 -8.08002e-07 -7.41262e-07 -6.21553e-07 -4.48875e-07 -2.19288e-07 7.1148e-08 4.22432e-07 8.34565e-07 1.29071e-06 1.77403e-06 2.28453e-06 2.8222e-06 3.35963e-06 3.86941e-06 4.35154e-06 4.80602e-06 5.216e-06 5.56461e-06 5.85188e-06 6.07778e-06 6.24727e-06 6.36526e-06 6.43177e-06 6.44679e-06 6.42907e-06 6.39736e-06 6.35164e-06 6.29194e-06 6.23357e-06 6.19187e-06 6.16685e-06 6.1585e-06 6.16682e-06 6.19182e-06 6.23349e-06 6.29184e-06 6.35152e-06 6.39721e-06 6.4289e-06 6.4466e-06 6.43156e-06 6.36503e-06 6.24702e-06 6.07753e-06 5.85162e-06 5.56435e-06 5.21574e-06 4.80577e-06 4.35131e-06 3.86919e-06 3.35943e-06 2.82202e-06 2.28437e-06 1.7739e-06 1.29061e-06 8.34492e-07 4.22386e-07 7.11252e-08 -2.1929e-07 -4.48859e-07 -6.21523e-07 -7.41221e-07 -8.07953e-07 -8.21721e-07 -7.98555e-07 -7.54491e-07 -6.89527e-07 -6.03664e-07 -5.09826e-07 -4.20936e-07 -3.36995e-07 -2.58003e-07 -1.87349e-07 -1.28424e-07 -8.12271e-08 -4.57593e-08 -1.96137e-08 -3.84159e-10 1.19295e-08 1.73272e-08 1.85308e-08 1.8262e-08 1.65208e-08 1.33073e-08 9.64387e-09 6.55315e-09 4.03512e-09 2.08976e-09 6.76509e-10 -2.45226e-10 -6.7544e-10 -6.14133e-10 -3.4545e-10 -1.53533e-10 -3.83833e-11 0 0 -2.18142e-11 -8.7257e-11 -1.96328e-10 -3.49028e-10 -1.94312e-10 6.18865e-10 2.0905e-09 4.2206e-09 6.86497e-09 9.87941e-09 1.32639e-08 1.70185e-08 1.94599e-08 1.89048e-08 1.53531e-08 8.80495e-09 -3.98138e-09 -2.62475e-08 -5.79934e-08 -9.9219e-08 -1.50494e-07 -2.12389e-07 -2.84903e-07 -3.68036e-07 -4.51216e-07 -5.23868e-07 -5.85993e-07 -6.37591e-07 -6.5288e-07 -6.0608e-07 -4.97191e-07 -3.26213e-07 -6.53123e-08 3.13345e-07 8.0976e-07 1.42393e-06 2.15905e-06 3.01832e-06 4.00173e-06 5.10929e-06 6.30582e-06 7.55616e-06 8.86031e-06 1.02183e-05 1.15759e-05 1.2879e-05 1.41276e-05 1.53217e-05 1.64264e-05 1.74066e-05 1.82624e-05 1.89938e-05 1.96055e-05 2.01025e-05 2.04848e-05 2.07523e-05 2.09362e-05 2.10674e-05 2.11459e-05 2.11719e-05 2.11716e-05 2.11713e-05 2.11712e-05 2.11711e-05 2.11711e-05 2.11712e-05 2.11714e-05 2.11716e-05 2.11456e-05 2.10669e-05 2.09357e-05 2.07518e-05 2.04842e-05 2.01019e-05 1.96048e-05 1.89931e-05 1.82617e-05 1.74059e-05 1.64257e-05 1.5321e-05 1.41269e-05 1.28783e-05 1.15753e-05 1.02177e-05 8.8598e-06 7.55571e-06 6.30543e-06 5.10896e-06 4.00146e-06 3.01811e-06 2.15889e-06 1.42382e-06 8.09689e-07 3.1331e-07 -6.53198e-08 -3.262e-07 -4.97163e-07 -6.06041e-07 -6.52835e-07 -6.37544e-07 -5.85949e-07 -5.23827e-07 -4.5118e-07 -3.68006e-07 -2.84879e-07 -2.1237e-07 -1.50481e-07 -9.92098e-08 -5.79878e-08 -2.62447e-08 -3.98068e-09 8.80439e-09 1.53519e-08 1.89031e-08 1.94581e-08 1.70169e-08 1.32626e-08 9.87841e-09 6.86424e-09 4.22014e-09 2.09026e-09 6.18779e-10 -1.9431e-10 -3.49005e-10 -1.96315e-10 -8.72511e-11 -2.18128e-11 0 0 1.34485e-11 5.37942e-11 1.21037e-10 2.15177e-10 7.11516e-10 1.98536e-09 4.0367e-09 6.86554e-09 1.00327e-08 1.30991e-08 1.60646e-08 1.89293e-08 1.93684e-08 1.50571e-08 5.99542e-09 -7.81667e-09 -2.93976e-08 -6.17656e-08 -1.04921e-07 -1.58863e-07 -2.20618e-07 -2.87212e-07 -3.58644e-07 -4.34914e-07 -4.97076e-07 -5.26185e-07 -5.22242e-07 -4.85245e-07 -3.78371e-07 -1.64797e-07 1.55477e-07 5.82452e-07 1.15129e-06 1.89717e-06 2.82007e-06 3.92001e-06 5.19673e-06 6.64999e-06 8.27979e-06 1.00861e-05 1.20181e-05 1.40249e-05 1.61065e-05 1.82629e-05 2.04188e-05 2.24991e-05 2.45036e-05 2.64325e-05 2.82354e-05 2.98619e-05 3.13121e-05 3.25859e-05 3.36854e-05 3.46127e-05 3.53677e-05 3.59505e-05 3.63991e-05 3.67518e-05 3.70086e-05 3.71694e-05 3.72682e-05 3.73387e-05 3.7381e-05 3.73951e-05 3.73809e-05 3.73385e-05 3.72678e-05 3.7169e-05 3.7008e-05 3.67511e-05 3.63983e-05 3.59496e-05 3.53667e-05 3.46117e-05 3.36843e-05 3.25848e-05 3.13109e-05 2.98607e-05 2.82342e-05 2.64313e-05 2.45025e-05 2.24979e-05 2.04178e-05 1.82619e-05 1.61056e-05 1.40241e-05 1.20174e-05 1.00855e-05 8.27926e-06 6.64955e-06 5.19637e-06 3.91973e-06 2.81986e-06 1.89702e-06 1.1512e-06 5.82397e-07 1.55456e-07 -1.64793e-07 -3.78349e-07 -4.85212e-07 -5.22204e-07 -5.26146e-07 -4.97037e-07 -4.34878e-07 -3.58614e-07 -2.87187e-07 -2.20599e-07 -1.58849e-07 -1.04911e-07 -6.17596e-08 -2.93945e-08 -7.81562e-09 5.99508e-09 1.50558e-08 1.93667e-08 1.89275e-08 1.6063e-08 1.30978e-08 1.00317e-08 6.86481e-09 4.03625e-09 1.98512e-09 7.11415e-10 2.15135e-10 1.21014e-10 5.37838e-11 1.3446e-11 0 0 7.67648e-11 3.07059e-10 6.90884e-10 1.22824e-09 2.22959e-09 4.00541e-09 6.5557e-09 9.88047e-09 1.30993e-08 1.5332e-08 1.65783e-08 1.68385e-08 1.33599e-08 3.39017e-09 -1.30707e-08 -3.60228e-08 -6.6785e-08 -1.06676e-07 -1.55697e-07 -2.13846e-07 -2.72082e-07 -3.21363e-07 -3.61688e-07 -3.93057e-07 -3.88276e-07 -3.20148e-07 -1.88674e-07 6.1471e-09 3.04603e-07 7.46983e-07 1.33329e-06 2.06351e-06 2.96792e-06 4.07677e-06 5.39006e-06 6.90779e-06 8.62147e-06 1.05226e-05 1.26112e-05 1.48873e-05 1.72952e-05 1.97795e-05 2.23401e-05 2.4977e-05 2.76134e-05 3.01725e-05 3.26542e-05 3.50586e-05 3.73311e-05 3.94173e-05 4.1317e-05 4.30303e-05 4.45515e-05 4.58748e-05 4.70002e-05 4.79276e-05 4.86887e-05 4.9315e-05 4.98064e-05 5.01631e-05 5.04161e-05 5.05969e-05 5.07053e-05 5.07414e-05 5.07051e-05 5.05966e-05 5.04157e-05 5.01625e-05 4.98057e-05 4.93141e-05 4.86877e-05 4.79265e-05 4.69989e-05 4.58735e-05 4.45501e-05 4.30289e-05 4.13155e-05 3.94157e-05 3.73296e-05 3.50571e-05 3.26527e-05 3.0171e-05 2.7612e-05 2.49757e-05 2.23389e-05 1.97784e-05 1.72942e-05 1.48864e-05 1.26104e-05 1.05219e-05 8.6209e-06 6.90732e-06 5.38968e-06 4.07648e-06 2.9677e-06 2.06335e-06 1.33318e-06 7.46917e-07 3.04571e-07 6.13976e-09 -1.88664e-07 -3.20126e-07 -3.88247e-07 -3.93027e-07 -3.61659e-07 -3.21336e-07 -2.72059e-07 -2.13827e-07 -1.55682e-07 -1.06666e-07 -6.67785e-08 -3.60191e-08 -1.30692e-08 3.39007e-09 1.33588e-08 1.6837e-08 1.65768e-08 1.53304e-08 1.3098e-08 9.87943e-09 6.555e-09 4.00496e-09 2.22932e-09 1.22808e-09 6.90797e-10 3.07021e-10 7.67552e-11 0 0 1.68135e-10 6.72538e-10 1.51321e-09 2.69015e-09 4.35991e-09 6.67904e-09 9.64753e-09 1.32654e-08 1.60648e-08 1.65781e-08 1.48052e-08 1.0746e-08 1.4344e-09 -1.60961e-08 -4.18454e-08 -7.58135e-08 -1.16144e-07 -1.60979e-07 -2.10321e-07 -2.64167e-07 -3.04886e-07 -3.14842e-07 -2.94036e-07 -2.42468e-07 -1.24816e-07 9.42439e-08 4.14711e-07 8.36584e-07 1.39604e-06 2.12926e-06 3.03624e-06 4.11697e-06 5.38458e-06 6.85217e-06 8.51973e-06 1.03873e-05 1.24333e-05 1.46362e-05 1.6996e-05 1.95127e-05 2.21371e-05 2.48198e-05 2.7561e-05 3.03606e-05 3.31596e-05 3.58992e-05 3.85793e-05 4.11999e-05 4.37136e-05 4.60726e-05 4.82771e-05 5.0327e-05 5.22037e-05 5.38888e-05 5.53821e-05 5.66838e-05 5.7805e-05 5.87569e-05 5.95395e-05 6.01528e-05 6.06155e-05 6.09459e-05 6.11441e-05 6.12101e-05 6.11439e-05 6.09455e-05 6.06149e-05 6.01521e-05 5.95386e-05 5.87558e-05 5.78038e-05 5.66825e-05 5.53807e-05 5.38873e-05 5.22021e-05 5.03253e-05 4.82754e-05 4.60709e-05 4.37118e-05 4.11982e-05 3.85776e-05 3.58975e-05 3.3158e-05 3.03591e-05 2.75596e-05 2.48185e-05 2.21358e-05 1.95116e-05 1.69949e-05 1.46353e-05 1.24325e-05 1.03866e-05 8.51915e-06 6.85168e-06 5.38419e-06 4.11667e-06 3.036e-06 2.12909e-06 1.39593e-06 8.36511e-07 4.14671e-07 9.42309e-08 -1.2481e-07 -2.42451e-07 -2.94013e-07 -3.14816e-07 -3.0486e-07 -2.64144e-07 -2.10302e-07 -1.60965e-07 -1.16133e-07 -7.58061e-08 -4.18411e-08 -1.60942e-08 1.43452e-09 1.07452e-08 1.48038e-08 1.65765e-08 1.60632e-08 1.3264e-08 9.64651e-09 6.67831e-09 4.35942e-09 2.68984e-09 1.51304e-09 6.7246e-10 1.68115e-10 0 0 2.87558e-10 1.15023e-09 2.58802e-09 4.60093e-09 7.10248e-09 1.00062e-08 1.33122e-08 1.70203e-08 1.89292e-08 1.68374e-08 1.0745e-08 6.51968e-10 -1.64081e-08 -4.34016e-08 -8.03284e-08 -1.27189e-07 -1.77474e-07 -2.24675e-07 -2.68793e-07 -3.09827e-07 -3.19029e-07 -2.67649e-07 -1.55688e-07 1.68546e-08 2.93305e-07 7.16991e-07 1.28791e-06 2.00607e-06 2.89595e-06 3.98203e-06 5.26433e-06 6.74283e-06 8.40126e-06 1.02233e-05 1.22091e-05 1.43585e-05 1.66321e-05 1.89907e-05 2.14341e-05 2.39624e-05 2.65437e-05 2.9146e-05 3.17693e-05 3.44137e-05 3.70575e-05 3.96793e-05 4.2279e-05 4.48566e-05 4.73827e-05 4.9828e-05 5.21924e-05 5.44758e-05 5.66421e-05 5.86547e-05 6.05136e-05 6.2219e-05 6.37479e-05 6.50774e-05 6.62077e-05 6.71387e-05 6.78661e-05 6.83856e-05 6.86973e-05 6.88012e-05 6.86971e-05 6.83853e-05 6.78655e-05 6.71379e-05 6.62068e-05 6.50763e-05 6.37466e-05 6.22176e-05 6.05122e-05 5.86531e-05 5.66404e-05 5.44741e-05 5.21906e-05 4.98262e-05 4.73809e-05 4.48548e-05 4.22772e-05 3.96775e-05 3.70558e-05 3.4412e-05 3.17677e-05 2.91445e-05 2.65423e-05 2.39611e-05 2.14328e-05 1.89895e-05 1.66311e-05 1.43575e-05 1.22083e-05 1.02226e-05 8.40067e-06 6.74234e-06 5.26393e-06 3.98172e-06 2.89571e-06 2.0059e-06 1.2878e-06 7.16926e-07 2.93275e-07 1.6848e-08 -1.55678e-07 -2.67629e-07 -3.19003e-07 -3.09801e-07 -2.68769e-07 -2.24655e-07 -1.77457e-07 -1.27177e-07 -8.03205e-08 -4.33971e-08 -1.64062e-08 6.52172e-10 1.07441e-08 1.68358e-08 1.89273e-08 1.70186e-08 1.33108e-08 1.00052e-08 7.1017e-09 4.60041e-09 2.58773e-09 1.1501e-09 2.87525e-10 0 0 4.29173e-10 1.71669e-09 3.86256e-09 6.86677e-09 1.02289e-08 1.34484e-08 1.65255e-08 1.94599e-08 1.93653e-08 1.3355e-08 1.42902e-09 -1.64126e-08 -4.21666e-08 -7.78297e-08 -1.23402e-07 -1.78883e-07 -2.31658e-07 -2.69112e-07 -2.91244e-07 -2.98055e-07 -2.51887e-07 -1.15081e-07 1.12363e-07 4.30445e-07 8.78636e-07 1.49641e-06 2.28377e-06 3.24071e-06 4.35786e-06 5.62586e-06 7.04471e-06 8.6144e-06 1.0268e-05 1.19387e-05 1.36265e-05 1.53313e-05 1.6996e-05 1.85631e-05 2.00328e-05 2.14051e-05 2.26969e-05 2.39254e-05 2.50904e-05 2.61921e-05 2.72933e-05 2.84572e-05 2.96837e-05 3.09729e-05 3.23451e-05 3.38205e-05 3.53992e-05 3.70813e-05 3.88114e-05 4.05346e-05 4.22507e-05 4.39597e-05 4.55822e-05 4.70386e-05 4.83288e-05 4.94528e-05 5.03637e-05 5.10143e-05 5.14046e-05 5.15346e-05 5.14045e-05 5.1014e-05 5.03633e-05 4.94523e-05 4.83282e-05 4.70379e-05 4.55814e-05 4.39589e-05 4.22498e-05 4.05336e-05 3.88104e-05 3.70802e-05 3.53982e-05 3.38194e-05 3.2344e-05 3.09718e-05 2.96826e-05 2.84561e-05 2.72922e-05 2.61909e-05 2.50892e-05 2.39242e-05 2.26958e-05 2.14039e-05 2.00317e-05 1.8562e-05 1.69949e-05 1.53304e-05 1.36256e-05 1.19379e-05 1.02673e-05 8.61379e-06 7.04419e-06 5.62544e-06 4.35752e-06 3.24045e-06 2.28358e-06 1.49628e-06 8.78557e-07 4.30402e-07 1.12349e-07 -1.15075e-07 -2.51868e-07 -2.98031e-07 -2.91219e-07 -2.69088e-07 -2.31637e-07 -1.78866e-07 -1.2339e-07 -7.78218e-08 -4.21621e-08 -1.64107e-08 1.4291e-09 1.33538e-08 1.93634e-08 1.9458e-08 1.65237e-08 1.3447e-08 1.02278e-08 6.86602e-09 3.86213e-09 1.7165e-09 4.29126e-10 0 0 5.8712e-10 2.34848e-09 5.28408e-09 9.39391e-09 1.35107e-08 1.64671e-08 1.82632e-08 1.8899e-08 1.50459e-08 3.37568e-09 -1.61118e-08 -4.34166e-08 -7.784e-08 -1.18684e-07 -1.65947e-07 -2.19631e-07 -2.5958e-07 -2.65638e-07 -2.37806e-07 -1.76082e-07 -4.08361e-08 2.07566e-07 5.69123e-07 1.04384e-06 1.64373e-06 2.38082e-06 3.25512e-06 4.26662e-06 5.33535e-06 6.38132e-06 7.40454e-06 8.40501e-06 9.23501e-06 9.74682e-06 9.94044e-06 9.81587e-06 9.30272e-06 8.33059e-06 6.89947e-06 5.00938e-06 2.77857e-06 3.253e-07 -2.35042e-06 -5.2486e-06 -8.14679e-06 -1.08225e-05 -1.32758e-05 -1.55067e-05 -1.7393e-05 -1.88127e-05 -1.97659e-05 -2.02525e-05 -2.03434e-05 -2.01095e-05 -1.95509e-05 -1.86674e-05 -1.76271e-05 -1.65979e-05 -1.55798e-05 -1.45727e-05 -1.36963e-05 -1.30703e-05 -1.26947e-05 -1.25694e-05 -1.26946e-05 -1.30701e-05 -1.3696e-05 -1.45723e-05 -1.55793e-05 -1.65974e-05 -1.76265e-05 -1.86667e-05 -1.955e-05 -2.01086e-05 -2.03424e-05 -2.02514e-05 -1.97648e-05 -1.88116e-05 -1.73919e-05 -1.55056e-05 -1.32749e-05 -1.08217e-05 -8.14608e-06 -5.24805e-06 -2.35005e-06 3.25509e-07 2.77861e-06 5.00926e-06 6.8992e-06 8.33019e-06 9.30223e-06 9.81531e-06 9.93984e-06 9.7462e-06 9.2344e-06 8.40443e-06 7.40401e-06 6.38085e-06 5.33494e-06 4.26629e-06 3.25486e-06 2.38063e-06 1.64359e-06 1.04374e-06 5.6907e-07 2.07543e-07 -4.08366e-08 -1.7607e-07 -2.37786e-07 -2.65615e-07 -2.59557e-07 -2.19611e-07 -1.65932e-07 -1.18672e-07 -7.78321e-08 -4.34119e-08 -1.611e-08 3.37556e-09 1.50446e-08 1.88972e-08 1.82614e-08 1.64654e-08 1.35092e-08 9.3929e-09 5.2835e-09 2.34822e-09 5.87056e-10 0 0 7.61397e-10 3.04559e-09 6.85257e-09 1.21823e-08 1.69479e-08 1.90623e-08 1.85255e-08 1.53375e-08 5.9712e-09 -1.31005e-08 -4.18775e-08 -8.03599e-08 -1.23428e-07 -1.65963e-07 -2.07965e-07 -2.49434e-07 -2.61239e-07 -2.14254e-07 -1.08477e-07 5.60919e-08 3.14124e-07 7.00291e-07 1.21459e-06 1.85703e-06 2.58858e-06 3.37023e-06 4.20197e-06 5.0838e-06 5.82839e-06 6.2484e-06 6.34382e-06 6.11466e-06 5.30216e-06 3.64756e-06 1.15086e-06 -2.18793e-06 -6.44761e-06 -1.1707e-05 -1.7966e-05 -2.52248e-05 -3.32114e-05 -4.16542e-05 -5.05532e-05 -5.99083e-05 -6.92628e-05 -7.81599e-05 -8.65997e-05 -9.45822e-05 -0.000101831 -0.000108072 -0.000113303 -0.000117525 -0.000120822 -0.000123277 -0.000124891 -0.000125662 -0.00012588 -0.000125832 -0.000125518 -0.000124938 -0.000124314 -0.000123868 -0.0001236 -0.000123511 -0.0001236 -0.000123867 -0.000124312 -0.000124936 -0.000125516 -0.000125829 -0.000125877 -0.000125659 -0.000124887 -0.000123273 -0.000120818 -0.000117521 -0.000113298 -0.000108067 -0.000101827 -9.45776e-05 -8.65953e-05 -7.81558e-05 -6.92589e-05 -5.99048e-05 -5.05501e-05 -4.16516e-05 -3.32092e-05 -2.5223e-05 -1.79647e-05 -1.17061e-05 -6.44703e-06 -2.18765e-06 1.15089e-06 3.6474e-06 5.30186e-06 6.11427e-06 6.34339e-06 6.24796e-06 5.82797e-06 5.08342e-06 4.20164e-06 3.36995e-06 2.58836e-06 1.85687e-06 1.21448e-06 7.00225e-07 3.14091e-07 5.60828e-08 -1.0847e-07 -2.14236e-07 -2.61217e-07 -2.49411e-07 -2.07946e-07 -1.65947e-07 -1.23416e-07 -8.03517e-08 -4.1873e-08 -1.30989e-08 5.97086e-09 1.53361e-08 1.85237e-08 1.90603e-08 1.69461e-08 1.2181e-08 6.85184e-09 3.04526e-09 7.61316e-10 0 0 9.52005e-10 3.80802e-09 8.56804e-09 1.52321e-08 2.05406e-08 2.1234e-08 1.73122e-08 8.77544e-09 -7.85896e-09 -3.60734e-08 -7.5868e-08 -1.27243e-07 -1.78932e-07 -2.19669e-07 -2.49455e-07 -2.6829e-07 -2.36636e-07 -1.14959e-07 9.67421e-08 3.98467e-07 8.12993e-07 1.36309e-06 2.04877e-06 2.87002e-06 3.71319e-06 4.46462e-06 5.12431e-06 5.69226e-06 5.83701e-06 5.22711e-06 3.86255e-06 1.74335e-06 -1.53051e-06 -6.35904e-06 -1.27422e-05 -2.06801e-05 -3.0255e-05 -4.15495e-05 -5.45636e-05 -6.92973e-05 -8.5273e-05 -0.000102013 -0.000119518 -0.000137787 -0.000156055 -0.000173555 -0.000190288 -0.000206254 -0.00022097 -0.000233956 -0.000245212 -0.000254737 -0.000262625 -0.000268969 -0.000273769 -0.000277025 -0.000279177 -0.000280664 -0.000281486 -0.000281642 -0.000281489 -0.000281379 -0.000281313 -0.00028129 -0.000281312 -0.000281377 -0.000281486 -0.000281639 -0.000281481 -0.000280658 -0.000279171 -0.000277018 -0.000273762 -0.000268961 -0.000262617 -0.000254728 -0.000245203 -0.000233947 -0.000220961 -0.000206244 -0.000190279 -0.000173546 -0.000156046 -0.000137779 -0.000119511 -0.000102007 -8.52677e-05 -6.92929e-05 -5.456e-05 -4.15467e-05 -3.02529e-05 -2.06785e-05 -1.27412e-05 -6.35846e-06 -1.53029e-06 1.74331e-06 3.86233e-06 5.22676e-06 5.8366e-06 5.69184e-06 5.12392e-06 4.46427e-06 3.71289e-06 2.86978e-06 2.04859e-06 1.36297e-06 8.12916e-07 3.98427e-07 9.67296e-08 -1.14952e-07 -2.36617e-07 -2.68266e-07 -2.49432e-07 -2.19648e-07 -1.78914e-07 -1.2723e-07 -7.58601e-08 -3.60695e-08 -7.8578e-09 8.7748e-09 1.73106e-08 2.12318e-08 2.05384e-08 1.52305e-08 8.56714e-09 3.80762e-09 9.51905e-10 0 0 1.08974e-09 4.35895e-09 9.80764e-09 1.74358e-08 2.26327e-08 2.07874e-08 1.19001e-08 -4.02927e-09 -2.94617e-08 -6.68581e-08 -1.16219e-07 -1.77543e-07 -2.31715e-07 -2.59619e-07 -2.61255e-07 -2.36622e-07 -1.39984e-07 7.43967e-08 4.06521e-07 8.56388e-07 1.417e-06 2.08137e-06 2.8495e-06 3.72138e-06 4.4928e-06 4.95956e-06 5.12164e-06 4.97906e-06 4.08696e-06 2.0005e-06 -1.28032e-06 -5.75549e-06 -1.18806e-05 -2.01113e-05 -3.04476e-05 -4.28894e-05 -5.74688e-05 -7.42176e-05 -9.31359e-05 -0.000114224 -0.000136864 -0.000160439 -0.00018495 -0.000210397 -0.00023584 -0.000260344 -0.000283906 -0.000306528 -0.000327589 -0.00034647 -0.000363171 -0.00037769 -0.00039008 -0.000400391 -0.000408621 -0.000414773 -0.000419346 -0.000422841 -0.00042526 -0.000426602 -0.000427305 -0.000427807 -0.000428108 -0.000428208 -0.000428107 -0.000427804 -0.000427301 -0.000426597 -0.000425254 -0.000422833 -0.000419336 -0.000414762 -0.00040861 -0.000400378 -0.000390067 -0.000377677 -0.000363157 -0.000346456 -0.000327575 -0.000306514 -0.000283893 -0.000260331 -0.000235828 -0.000210385 -0.00018494 -0.00016043 -0.000136856 -0.000114217 -9.31299e-05 -7.42127e-05 -5.74648e-05 -4.28864e-05 -3.04453e-05 -2.01098e-05 -1.18796e-05 -5.75496e-06 -1.28013e-06 2.00042e-06 4.0867e-06 4.97871e-06 5.12126e-06 4.95917e-06 4.49244e-06 3.72107e-06 2.84926e-06 2.08119e-06 1.41687e-06 8.56306e-07 4.0648e-07 7.43859e-08 -1.39975e-07 -2.36603e-07 -2.61231e-07 -2.59595e-07 -2.31693e-07 -1.77525e-07 -1.16207e-07 -6.6851e-08 -2.94583e-08 -4.0285e-09 1.18991e-08 2.07854e-08 2.26304e-08 1.7434e-08 9.80663e-09 4.3585e-09 1.08963e-09 0 0 1.10539e-09 4.42157e-09 9.94852e-09 1.76863e-08 2.15683e-08 1.55281e-08 -4.34197e-10 -2.63187e-08 -6.18542e-08 -1.06769e-07 -1.61064e-07 -2.24739e-07 -2.69144e-07 -2.65632e-07 -2.14202e-07 -1.14855e-07 7.45032e-08 3.95964e-07 8.49529e-07 1.4352e-06 2.08739e-06 2.74053e-06 3.39462e-06 4.04966e-06 4.40265e-06 4.15058e-06 3.29346e-06 1.83127e-06 -6.95988e-07 -4.74836e-06 -1.03258e-05 -1.74284e-05 -2.63658e-05 -3.74477e-05 -5.0674e-05 -6.60448e-05 -8.3438e-05 -0.000102732 -0.000123925 -0.000147019 -0.000171442 -0.000196621 -0.000222557 -0.00024925 -0.000275938 -0.000301862 -0.000327019 -0.000351412 -0.000374468 -0.000395616 -0.000414855 -0.000432186 -0.000447515 -0.000460747 -0.000471882 -0.00048092 -0.000488214 -0.000494114 -0.00049862 -0.000501733 -0.000503848 -0.000505358 -0.000506263 -0.000506565 -0.000506262 -0.000505355 -0.000503843 -0.000501727 -0.000498612 -0.000494105 -0.000488203 -0.000480909 -0.000471869 -0.000460733 -0.000447501 -0.000432171 -0.00041484 -0.0003956 -0.000374453 -0.000351397 -0.000327004 -0.000301847 -0.000275924 -0.000249237 -0.000222545 -0.00019661 -0.000171432 -0.00014701 -0.000123918 -0.000102725 -8.34325e-05 -6.60403e-05 -5.06704e-05 -3.74449e-05 -2.63638e-05 -1.7427e-05 -1.0325e-05 -4.74791e-06 -6.95858e-07 1.83119e-06 3.29323e-06 4.15027e-06 4.40231e-06 4.04934e-06 3.39434e-06 2.74029e-06 2.0872e-06 1.43506e-06 8.49448e-07 3.95923e-07 7.44919e-08 -1.14847e-07 -2.14184e-07 -2.65607e-07 -2.69118e-07 -2.24717e-07 -1.61048e-07 -1.06758e-07 -6.18474e-08 -2.63156e-08 -4.33859e-10 1.55267e-08 2.15662e-08 1.76845e-08 9.94753e-09 4.42113e-09 1.10528e-09 0 0 9.98965e-10 3.99586e-09 8.99069e-09 1.59834e-08 1.73475e-08 5.45607e-09 -1.96907e-08 -5.80929e-08 -1.05036e-07 -1.55807e-07 -2.10405e-07 -2.6883e-07 -2.91218e-07 -2.37707e-07 -1.08297e-07 9.70138e-08 4.06826e-07 8.49744e-07 1.42577e-06 2.13489e-06 2.82415e-06 3.34057e-06 3.68414e-06 3.85487e-06 3.44273e-06 2.03769e-06 -3.60249e-07 -3.75109e-06 -8.51182e-06 -1.50195e-05 -2.3274e-05 -3.32754e-05 -4.4986e-05 -5.83681e-05 -7.34215e-05 -9.01463e-05 -0.000108163 -0.000127091 -0.000146932 -0.000167684 -0.000189007 -0.000210558 -0.000232338 -0.000254346 -0.000276348 -0.000298109 -0.000319628 -0.000340907 -0.000361607 -0.000381394 -0.000400267 -0.000418225 -0.000434929 -0.000450038 -0.000463551 -0.000475469 -0.000485782 -0.00049448 -0.000501565 -0.000507036 -0.000511116 -0.00051403 -0.000515779 -0.000516361 -0.000515777 -0.000514027 -0.000511111 -0.000507029 -0.000501558 -0.000494472 -0.000485772 -0.000475457 -0.000463539 -0.000450025 -0.000434916 -0.000418211 -0.000400252 -0.00038138 -0.000361593 -0.00034