<?xml version="1.0"?> 
<VTKFile type="StructuredGrid" version="0.1"> 
<StructuredGrid WholeExtent="0 128 0 128 0 0"> 
<Piece Extent="0 128 0 128 0 0"> 
<PointData>
<DataArray type="Float32" Name="u" format="ascii" NumberOfComponents="1"> 
0 0 0 0 0 0 0 0 0 0 0 0 0 0 0 0 0 0 0 0 0 0 0 0 0 0 0 0 0 0 0 0 0 0 0 0 0 0 0 0 0 0 0 0 0 0 0 0 0 0 0 0 0 0 0 0 0 0 0 0 0 0 0 0 0 0 0 0 0 0 0 0 0 0 0 0 0 0 0 0 0 0 0 0 0 0 0 0 0 0 0 0 0 0 0 0 0 0 0 0 0 0 0 0 0 0 0 0 0 0 0 0 0 0 0 0 0 0 0 0 0 0 0 0 0 0 0 0 0 0 -3.25388e-07 -1.30155e-06 -2.92849e-06 -5.20621e-06 -8.05744e-06 -1.14049e-05 -1.52486e-05 -1.95885e-05 -2.4367e-05 -2.95261e-05 -3.50661e-05 -4.09867e-05 -4.71795e-05 -5.35358e-05 -6.00557e-05 -6.67391e-05 -7.34926e-05 -8.02225e-05 -8.6929e-05 -9.36119e-05 -0.000100195 -0.000106602 -0.000112834 -0.000118889 -0.000124708 -0.000130233 -0.000135462 -0.000140395 -0.000144993 -0.000149215 -0.00015306 -0.000156528 -0.000159603 -0.000162266 -0.000164519 -0.00016636 -0.000167799 -0.000168846 -0.000169501 -0.000169764 -0.000169671 -0.000169259 -0.000168528 -0.000167477 -0.000166167 -0.000164656 -0.000162945 -0.000161032 -0.000158991 -0.000156893 -0.000154739 -0.000152529 -0.000150334 -0.000148227 -0.000146208 -0.000144276 -0.00014249 -0.000140907 -0.000139527 -0.000138351 -0.00013741 -0.000136736 -0.000136328 -0.000136188 -0.000136314 -0.000136705 -0.000137362 -0.000138283 -0.000139437 -0.00014079 -0.000142342 -0.000144092 -0.000145983 -0.000147956 -0.00015001 -0.000152146 -0.000154292 -0.000156375 -0.000158397 -0.000160356 -0.000162181 -0.000163803 -0.000165219 -0.000166431 -0.000167381 -0.000168012 -0.000168323 -0.000168314 -0.000167952 -0.000167201 -0.000166061 -0.000164533 -0.000162609 -0.000160281 -0.00015755 -0.000154415 -0.000150896 -0.000147011 -0.000142761 -0.000138145 -0.000133204 -0.000127981 -0.000122475 -0.000116685 -0.000110673 -0.000104496 -9.81545e-05 -9.16492e-05 -8.50546e-05 -7.84455e-05 -7.18219e-05 -6.51838e-05 -5.86221e-05 -5.22275e-05 -4.60002e-05 -3.994e-05 -3.41517e-05 -2.87401e-05 -2.3705e-05 -1.90466e-05 -1.48194e-05 -1.10781e-05 -7.82273e-06 -5.05319e-06 -2.84242e-06 -1.2633e-06 -3.15824e-07 0 0 -1.30155e-06 -5.20621e-06 -1.1714e-05 -2.08249e-05 -3.22298e-05 -4.56196e-05 -6.09944e-05 -7.83542e-05 -9.74679e-05 -0.000118105 -0.000140264 -0.000163947 -0.000188718 -0.000214143 -0.000240223 -0.000266957 -0.00029397 -0.00032089 -0.000347716 -0.000374448 -0.000400781 -0.000426409 -0.000451334 -0.000475555 -0.000498833 -0.00052093 -0.000541846 -0.000561581 -0.000579973 -0.000596859 -0.000612238 -0.000626112 -0.000638411 -0.000649065 -0.000658074 -0.000665439 -0.000671197 -0.000675385 -0.000678005 -0.000679056 -0.000678684 -0.000677036 -0.000674111 -0.00066991 -0.000664669 -0.000658625 -0.000651778 -0.000644128 -0.000635963 -0.000627573 -0.000618957 -0.000610115 -0.000601336 -0.000592908 -0.00058483 -0.000577103 -0.000569958 -0.000563627 -0.000558108 -0.000553403 -0.000549639 -0.000546942 -0.000545313 -0.000544752 -0.000545256 -0.00054682 -0.000549446 -0.000553133 -0.000557749 -0.00056316 -0.000569367 -0.000576369 -0.000583932 -0.000591823 -0.00060004 -0.000608584 -0.000617167 -0.000625501 -0.000633586 -0.000641423 -0.000648726 -0.000655211 -0.000660877 -0.000665725 -0.000669525 -0.000672047 -0.000673291 -0.000673257 -0.000671807 -0.000668802 -0.000664244 -0.000658131 -0.000650435 -0.000641124 -0.0006302 -0.000617661 -0.000603585 -0.000588046 -0.000571044 -0.000552579 -0.000532817 -0.000511924 -0.000489898 -0.000466741 -0.00044269 -0.000417983 -0.000392618 -0.000366597 -0.000340218 -0.000313782 -0.000287287 -0.000260735 -0.000234488 -0.00020891 -0.000184001 -0.00015976 -0.000136607 -0.00011496 -9.48201e-05 -7.61864e-05 -5.92778e-05 -4.43126e-05 -3.12909e-05 -2.02128e-05 -1.13697e-05 -5.05319e-06 -1.2633e-06 0 0 -2.92849e-06 -1.1714e-05 -2.63565e-05 -4.68559e-05 -7.25169e-05 -0.000102644 -0.000137237 -0.000176297 -0.000219303 -0.000265735 -0.000315594 -0.00036888 -0.000424616 -0.000481823 -0.000540502 -0.000600652 -0.000661433 -0.000722003 -0.000782361 -0.000842507 -0.000901756 -0.000959421 -0.0010155 -0.00107 -0.00112237 -0.00117209 -0.00121915 -0.00126356 -0.00130494 -0.00134293 -0.00137754 -0.00140875 -0.00143642 -0.0014604 -0.00148067 -0.00149724 -0.00151019 -0.00151962 -0.00152551 -0.00152788 -0.00152704 -0.00152333 -0.00151675 -0.0015073 -0.00149551 -0.00148191 -0.0014665 -0.00144929 -0.00143092 -0.00141204 -0.00139265 -0.00137276 -0.00135301 -0.00133404 -0.00131587 -0.00129848 -0.00128241 -0.00126816 -0.00125574 -0.00124516 -0.00123669 -0.00123062 -0.00122696 -0.00122569 -0.00122683 -0.00123035 -0.00123625 -0.00124455 -0.00125493 -0.00126711 -0.00128107 -0.00129683 -0.00131385 -0.0013316 -0.00135009 -0.00136931 -0.00138862 -0.00140738 -0.00142557 -0.0014432 -0.00145963 -0.00147422 -0.00148697 -0.00149788 -0.00150643 -0.00151211 -0.0015149 -0.00151483 -0.00151157 -0.00150481 -0.00149455 -0.0014808 -0.00146348 -0.00144253 -0.00141795 -0.00138974 -0.00135807 -0.0013231 -0.00128485 -0.0012433 -0.00119884 -0.00115183 -0.00110227 -0.00105017 -0.000996053 -0.000940461 -0.000883391 -0.000824843 -0.000765491 -0.000706009 -0.000646397 -0.000586654 -0.000527598 -0.000470048 -0.000414001 -0.00035946 -0.000307365 -0.000258661 -0.000213345 -0.00017142 -0.000133375 -9.97033e-05 -7.04045e-05 -4.54787e-05 -2.55818e-05 -1.13697e-05 -2.84242e-06 0 0 -5.20621e-06 -2.08249e-05 -4.68559e-05 -8.32994e-05 -0.000128919 -0.000182478 -0.000243978 -0.000313417 -0.000389871 -0.000472418 -0.000561057 -0.000655787 -0.000754872 -0.000856574 -0.000960892 -0.00106783 -0.00117588 -0.00128356 -0.00139086 -0.00149779 -0.00160312 -0.00170564 -0.00180534 -0.00190222 -0.00199533 -0.00208372 -0.00216738 -0.00224632 -0.00231989 -0.00238743 -0.00244895 -0.00250445 -0.00255364 -0.00259626 -0.0026323 -0.00266176 -0.00268479 -0.00270154 -0.00271202 -0.00271622 -0.00271474 -0.00270814 -0.00269644 -0.00267964 -0.00265868 -0.0026345 -0.00260711 -0.00257651 -0.00254385 -0.00251029 -0.00247583 -0.00244046 -0.00240534 -0.00237163 -0.00233932 -0.00230841 -0.00227983 -0.00225451 -0.00223243 -0.00221361 -0.00219856 -0.00218777 -0.00218125 -0.00217901 -0.00218102 -0.00218728 -0.00219778 -0.00221253 -0.002231 -0.00225264 -0.00227747 -0.00230548 -0.00233573 -0.00236729 -0.00240016 -0.00243433 -0.00246867 -0.002502 -0.00253434 -0.00256569 -0.0025949 -0.00262084 -0.00264351 -0.0026629 -0.0026781 -0.00268819 -0.00269316 -0.00269303 -0.00268723 -0.00267521 -0.00265698 -0.00263253 -0.00260174 -0.0025645 -0.0025208 -0.00247065 -0.00241434 -0.00235218 -0.00228417 -0.00221032 -0.00213127 -0.00204769 -0.00195959 -0.00186697 -0.00177076 -0.00167193 -0.00157047 -0.00146639 -0.00136087 -0.00125513 -0.00114915 -0.00104294 -0.000937953 -0.00083564 -0.000736002 -0.00063904 -0.000546428 -0.000459841 -0.000379281 -0.000304746 -0.000237111 -0.00017725 -0.000125164 -8.08511e-05 -4.54787e-05 -2.02128e-05 -5.05319e-06 0 0 -8.05015e-06 -3.22006e-05 -7.24514e-05 -0.000128802 -0.000199224 -0.000281687 -0.000376191 -0.000482736 -0.000599896 -0.000726241 -0.000861774 -0.00100649 -0.00115774 -0.00131286 -0.00147185 -0.00163471 -0.00179915 -0.00196288 -0.00212589 -0.00228819 -0.0024479 -0.00260315 -0.00275394 -0.00290027 -0.00304069 -0.00317372 -0.00329938 -0.00341765 -0.00352756 -0.00362811 -0.00371932 -0.00380116 -0.00387325 -0.00393516 -0.00398691 -0.00402848 -0.00406014 -0.00408213 -0.00409447 -0.00409715 -0.0040911 -0.00407724 -0.00405558 -0.00402611 -0.00399031 -0.00394968 -0.0039042 -0.00385389 -0.00380053 -0.00374594 -0.00369011 -0.00363305 -0.00357654 -0.00352238 -0.00347057 -0.00342112 -0.00337545 -0.00333501 -0.0032998 -0.00326981 -0.00324585 -0.00322869 -0.00321834 -0.0032148 -0.00321805 -0.00322806 -0.00324484 -0.0032684 -0.00329789 -0.0033325 -0.00337222 -0.00341707 -0.00346557 -0.00351627 -0.00356918 -0.00362428 -0.0036798 -0.00373393 -0.00378668 -0.00383805 -0.00388626 -0.00392953 -0.00396787 -0.00400126 -0.00402828 -0.00404748 -0.00405886 -0.00406242 -0.00405728 -0.00404258 -0.0040183 -0.00398445 -0.00394082 -0.00388721 -0.00382362 -0.00375004 -0.00366692 -0.00357471 -0.00347341 -0.00336303 -0.00324455 -0.00311901 -0.00298638 -0.00284667 -0.00270135 -0.00255185 -0.00239819 -0.00224035 -0.00208019 -0.00191954 -0.00175839 -0.00159674 -0.00143684 -0.00128089 -0.00112891 -0.000980893 -0.000839399 -0.000706994 -0.000583678 -0.00046945 -0.000365661 -0.000273664 -0.000193457 -0.000125041 -7.03356e-05 -3.12603e-05 -7.81506e-06 0 0 -1.13757e-05 -4.5503e-05 -0.000102382 -0.000182012 -0.000281221 -0.000396835 -0.000528854 -0.000677279 -0.000840097 -0.00101529 -0.00120287 -0.00140282 -0.00161147 -0.00182514 -0.00204383 -0.00226754 -0.00249309 -0.00271727 -0.00294011 -0.00316158 -0.00337909 -0.00359004 -0.00379441 -0.00399221 -0.00418142 -0.00436 -0.00452796 -0.0046853 -0.00483067 -0.00496272 -0.00508145 -0.00518686 -0.00527842 -0.00535562 -0.00541844 -0.0054669 -0.0055014 -0.00552237 -0.00552981 -0.00552372 -0.00550546 -0.0054764 -0.00543653 -0.00538587 -0.00532654 -0.00526071 -0.00518836 -0.0051095 -0.00502672 -0.0049426 -0.00485714 -0.00477034 -0.00468477 -0.00460299 -0.004525 -0.00445081 -0.00438247 -0.00432202 -0.00426946 -0.00422481 -0.00418917 -0.00416369 -0.00414835 -0.00414317 -0.0041481 -0.00416312 -0.00418824 -0.00422345 -0.00426757 -0.00431943 -0.00437902 -0.00444636 -0.00451935 -0.00459592 -0.00467607 -0.00475979 -0.00484453 -0.00492772 -0.00500935 -0.00508944 -0.00516543 -0.00523476 -0.00529743 -0.00535345 -0.00540073 -0.00543717 -0.00546278 -0.00547757 -0.00548023 -0.00546947 -0.00544529 -0.0054077 -0.00535634 -0.00529086 -0.00521127 -0.00511756 -0.00501032 -0.00489012 -0.00475696 -0.00461084 -0.00445314 -0.00428524 -0.00410714 -0.00391883 -0.00372234 -0.00351968 -0.00331086 -0.00309587 -0.00287727 -0.00265763 -0.00243695 -0.00221522 -0.00199554 -0.00178101 -0.00157164 -0.00136741 -0.00117189 -0.000988612 -0.000817589 -0.000658815 -0.000514201 -0.000385654 -0.000273173 -0.00017676 -9.94273e-05 -4.41899e-05 -1.10475e-05 0 0 -1.5183e-05 -6.0732e-05 -0.000136647 -0.000242928 -0.000374909 -0.000527922 -0.000701967 -0.000897046 -0.00111047 -0.00133957 -0.00158434 -0.00184477 -0.00211607 -0.00239343 -0.00267685 -0.00296632 -0.00325768 -0.00354674 -0.00383351 -0.00411798 -0.00439672 -0.00466631 -0.00492675 -0.00517804 -0.00541752 -0.00564256 -0.00585315 -0.00604928 -0.00622923 -0.00639126 -0.00653536 -0.00666153 -0.00676916 -0.00685762 -0.0069269 -0.006977 -0.00700858 -0.00702225 -0.00701803 -0.00699592 -0.00695781 -0.00690561 -0.00683931 -0.00675892 -0.00666737 -0.00656759 -0.00645959 -0.00634336 -0.00622241 -0.00610026 -0.0059769 -0.00585234 -0.00573004 -0.00561346 -0.00550262 -0.0053975 -0.00530088 -0.00521552 -0.00514142 -0.00507859 -0.00502852 -0.00499276 -0.00497128 -0.0049641 -0.00497118 -0.00499247 -0.00502797 -0.00507769 -0.00514004 -0.00521343 -0.00529787 -0.00539335 -0.00549708 -0.00560624 -0.00572083 -0.00584086 -0.00596285 -0.00608336 -0.00620236 -0.00631987 -0.00643241 -0.00653653 -0.00663221 -0.00671947 -0.00679544 -0.00685726 -0.00690494 -0.00693847 -0.00695606 -0.00695589 -0.00693796 -0.00690227 -0.00684829 -0.00677545 -0.00668376 -0.00657323 -0.00644454 -0.0062984 -0.00613481 -0.00595376 -0.00575704 -0.00554641 -0.00532188 -0.00508344 -0.00483375 -0.00457543 -0.00430849 -0.00403293 -0.00375212 -0.00346942 -0.00318483 -0.00289836 -0.00261406 -0.002336 -0.00206418 -0.0017986 -0.00154389 -0.0013047 -0.00108101 -0.000872843 -0.00068273 -0.00051322 -0.000364312 -0.000236007 -0.000132754 -5.90018e-05 -1.47505e-05 0 0 -1.94719e-05 -7.78877e-05 -0.000175247 -0.000311551 -0.000480288 -0.000674947 -0.00089553 -0.00114203 -0.00141103 -0.00169908 -0.00200618 -0.00233234 -0.00267153 -0.00301771 -0.00337088 -0.00373105 -0.00409294 -0.00445129 -0.0048061 -0.00515737 -0.00550077 -0.00583196 -0.00615096 -0.00645775 -0.00674901 -0.0070214 -0.00727493 -0.00750959 -0.00772324 -0.00791372 -0.00808104 -0.00822519 -0.00834547 -0.00844117 -0.00851228 -0.0085588 -0.00858167 -0.00858178 -0.00855914 -0.00851376 -0.00844816 -0.00836488 -0.00826391 -0.00814527 -0.00801279 -0.00787033 -0.00771788 -0.00755545 -0.00738761 -0.00721893 -0.00704941 -0.00687905 -0.00671235 -0.0065538 -0.00640342 -0.00626119 -0.0061307 -0.00601553 -0.00591568 -0.00583115 -0.00576391 -0.0057159 -0.00568714 -0.00567762 -0.00568728 -0.00571609 -0.00576404 -0.00583112 -0.0059153 -0.00601451 -0.00612876 -0.00625805 -0.00639875 -0.00654722 -0.00670347 -0.00686748 -0.00703478 -0.00720085 -0.0073657 -0.00752932 -0.00768721 -0.00783483 -0.0079722 -0.00809931 -0.00821241 -0.00830774 -0.00838532 -0.00844514 -0.00848478 -0.00850183 -0.0084963 -0.00846817 -0.00841667 -0.00834097 -0.00824109 -0.00811703 -0.00796959 -0.00779956 -0.00760697 -0.00739179 -0.00715624 -0.00690251 -0.00663059 -0.0063405 -0.00603556 -0.00571908 -0.00539108 -0.00505154 -0.00470472 -0.00435489 -0.00400204 -0.00364616 -0.00329239 -0.00294585 -0.00260653 -0.00227445 -0.00195541 -0.00165524 -0.00137395 -0.00111153 -0.000871249 -0.000656363 -0.000466874 -0.000302784 -0.000170316 -7.56959e-05 -1.8924e-05 0 0 -2.417e-05 -9.668e-05 -0.00021753 -0.00038672 -0.000595569 -0.000835394 -0.0011062 -0.00140798 -0.00173644 -0.00208731 -0.00246057 -0.00285623 -0.00326693 -0.00368529 -0.00411131 -0.004545 -0.00497991 -0.00540958 -0.00583401 -0.00625321 -0.00666186 -0.00705466 -0.0074316 -0.00779268 -0.00813385 -0.00845103 -0.00874423 -0.00901344 -0.00925609 -0.00946962 -0.00965402 -0.00980928 -0.00993466 -0.0100294 -0.0100935 -0.0101269 -0.0101309 -0.0101069 -0.0100548 -0.00997455 -0.00986952 -0.00974299 -0.00959494 -0.00942539 -0.00923924 -0.00904142 -0.00883193 -0.00861077 -0.00838374 -0.00815664 -0.00792947 -0.00770223 -0.00748061 -0.00727029 -0.00707127 -0.00688355 -0.00671165 -0.00656007 -0.00642883 -0.00631792 -0.0062298 -0.00616695 -0.00612937 -0.00611706 -0.00612995 -0.00616798 -0.00623115 -0.00631945 -0.00643031 -0.00656114 -0.00671195 -0.00688273 -0.00706889 -0.00726587 -0.00747366 -0.00769227 -0.00791599 -0.00813916 -0.00836176 -0.0085838 -0.00879954 -0.00900325 -0.00919493 -0.00937458 -0.00953739 -0.00967857 -0.00979813 -0.00989605 -0.0099692 -0.0100144 -0.0100317 -0.0100211 -0.0099815 -0.00991168 -0.00981168 -0.00968151 -0.00952203 -0.00933414 -0.00911783 -0.0088731 -0.00860258 -0.00830892 -0.00799211 -0.00765216 -0.00729311 -0.00691903 -0.00652991 -0.00612576 -0.0057118 -0.00529325 -0.0048701 -0.00444237 -0.00401631 -0.00359823 -0.0031881 -0.00278594 -0.00239885 -0.00203396 -0.00169126 -0.00137076 -0.00107653 -0.000812652 -0.000579133 -0.00037597 -0.000211483 -9.39926e-05 -2.34981e-05 0 0 -2.92047e-05 -0.000116819 -0.000262842 -0.000467275 -0.000718961 -0.00100674 -0.00133062 -0.0016906 -0.0020814 -0.00249776 -0.00293967 -0.00340714 -0.00389134 -0.00438346 -0.00488351 -0.00539147 -0.00589963 -0.00640026 -0.00689336 -0.00737893 -0.00785062 -0.00830206 -0.00873324 -0.00914418 -0.00953003 -0.00988596 -0.010212 -0.010508 -0.0107712 -0.0109985 -0.0111898 -0.0113453 -0.0114641 -0.0115454 -0.0115893 -0.0115959 -0.0115667 -0.0115036 -0.0114066 -0.0112756 -0.0111149 -0.0109287 -0.010717 -0.0104798 -0.0102231 -0.00995337 -0.00967042 -0.0093743 -0.00907223 -0.00877143 -0.00847191 -0.00817367 -0.00788375 -0.00760922 -0.00735006 -0.00710627 -0.00688345 -0.00668718 -0.00651745 -0.00637427 -0.00626069 -0.00617975 -0.00613146 -0.00611581 -0.00613273 -0.00618213 -0.00626402 -0.00637839 -0.00652205 -0.00669181 -0.00688767 -0.00710963 -0.00735203 -0.00760919 -0.00788111 -0.00816779 -0.00846219 -0.00875723 -0.00905293 -0.00934928 -0.00963914 -0.00991536 -0.0101779 -0.0104269 -0.0106561 -0.0108597 -0.0110375 -0.0111897 -0.0113121 -0.0114008 -0.0114558 -0.0114769 -0.0114628 -0.0114118 -0.011324 -0.0111992 -0.0110385 -0.0108427 -0.0106118 -0.0103459 -0.0100479 -0.00972106 -0.00936526 -0.00898054 -0.00857173 -0.00814364 -0.0076963 -0.00722968 -0.00675006 -0.00626369 -0.00577057 -0.0052707 -0.0047716 -0.00428079 -0.00379827 -0.00332404 -0.00286663 -0.00243455 -0.0020278 -0.00164639 -0.00129533 -0.000979658 -0.000699363 -0.000454449 -0.000255627 -0.000113612 -2.84031e-05 0 0 -3.4576e-05 -0.000138304 -0.000311184 -0.000553216 -0.000850466 -0.001189 -0.00156881 -0.0019899 -0.0024459 -0.00293043 -0.00344347 -0.00398505 -0.00454476 -0.00511224 -0.00568746 -0.00627045 -0.0068521 -0.00742333 -0.00798415 -0.00853455 -0.00906704 -0.00957416 -0.0100559 -0.0105122 -0.0109376 -0.0113262 -0.0116781 -0.0119934 -0.0122686 -0.0125003 -0.0126885 -0.0128332 -0.0129336 -0.0129892 -0.0129999 -0.0129657 -0.0128889 -0.0127719 -0.0126145 -0.012417 -0.0121844 -0.0119221 -0.0116301 -0.0113084 -0.0109645 -0.0106062 -0.0102334 -0.00984603 -0.00945306 -0.00906329 -0.00867672 -0.00829335 -0.00792177 -0.00757058 -0.00723977 -0.00692936 -0.00664612 -0.00639685 -0.00618155 -0.00600022 -0.00585657 -0.00575429 -0.00569338 -0.00567386 -0.00569561 -0.00575853 -0.00586264 -0.00600792 -0.0061905 -0.00640651 -0.00665593 -0.00693878 -0.00724816 -0.00757716 -0.0079258 -0.00829407 -0.00867336 -0.00905508 -0.00943921 -0.00982578 -0.010206 -0.0105712 -0.0109212 -0.0112562 -0.0115686 -0.0118511 -0.0121036 -0.0123261 -0.0125136 -0.012661 -0.0127683 -0.0128356 -0.0128606 -0.0128414 -0.0127779 -0.0126701 -0.0125189 -0.0123252 -0.0120889 -0.0118101 -0.0114923 -0.0111389 -0.01075 -0.0103257 -0.00987141 -0.00939293 -0.00889022 -0.00836329 -0.0078195 -0.00726621 -0.00670343 -0.00613116 -0.00555825 -0.00499354 -0.00443705 -0.00388877 -0.00335874 -0.00285701 -0.00238357 -0.00193843 -0.00152767 -0.00115738 -0.000827565 -0.000538219 -0.000302748 -0.000134555 -3.36387e-05 0 0 -4.0284e-05 -0.000161136 -0.000362556 -0.000644544 -0.000990082 -0.00138215 -0.00182075 -0.00230589 -0.00282995 -0.00338531 -0.00397199 -0.00458997 -0.0052272 -0.0058716 -0.00652318 -0.00718194 -0.00783732 -0.0084788 -0.00910638 -0.00972005 -0.0103111 -0.010871 -0.0113995 -0.0118969 -0.0123564 -0.0127717 -0.0131428 -0.0134695 -0.0137483 -0.0139751 -0.01415 -0.0142729 -0.0143434 -0.0143609 -0.0143252 -0.0142364 -0.0140976 -0.0139117 -0.0136787 -0.0133986 -0.0130779 -0.0127231 -0.0123342 -0.0119112 -0.0114633 -0.0109998 -0.0105207 -0.010026 -0.00952625 -0.00903223 -0.00854391 -0.00806128 -0.00759466 -0.00715438 -0.00674042 -0.0063528 -0.00599964 -0.00568909 -0.00542113 -0.00519577 -0.00501744 -0.00489057 -0.00481515 -0.0047912 -0.00481859 -0.00489719 -0.00502701 -0.00520806 -0.00543568 -0.00570524 -0.00601673 -0.00637017 -0.00675728 -0.0071698 -0.00760774 -0.00807108 -0.00854951 -0.00903269 -0.00952061 -0.0100133 -0.0105001 -0.0109706 -0.0114248 -0.0118625 -0.0122749 -0.0126528 -0.0129962 -0.0133052 -0.0135736 -0.013795 -0.0139694 -0.014097 -0.0141749 -0.0142004 -0.0141735 -0.0140942 -0.0139633 -0.0137816 -0.0135491 -0.0132658 -0.0129356 -0.0125625 -0.0121465 -0.0116875 -0.0111922 -0.0106669 -0.0101117 -0.00952659 -0.00892011 -0.00830082 -0.0076687 -0.00702375 -0.00637625 -0.00573648 -0.00510443 -0.00448011 -0.00387518 -0.00330134 -0.00275857 -0.00224687 -0.00177353 -0.00134582 -0.000963737 -0.000627282 -0.000352846 -0.00015682 -3.92051e-05 0 0 -4.62017e-05 -0.000184807 -0.000415815 -0.000739227 -0.0011347 -0.00158191 -0.00208085 -0.00263152 -0.00322494 -0.00385213 -0.00451311 -0.00520786 -0.00592253 -0.00664324 -0.00736999 -0.00810279 -0.00882955 -0.00953819 -0.0102287 -0.0109011 -0.0115454 -0.0121518 -0.0127201 -0.0132505 -0.0137355 -0.0141678 -0.0145473 -0.014874 -0.0151438 -0.0153524 -0.0154998 -0.0155859 -0.0156105 -0.0155731 -0.0154737 -0.0153122 -0.0150926 -0.0148186 -0.0144902 -0.0141074 -0.0136781 -0.0132102 -0.0127036 -0.0121585 -0.0115858 -0.0109966 -0.010391 -0.00976897 -0.00914315 -0.00852627 -0.00791833 -0.00731933 -0.00674151 -0.00619712 -0.00568616 -0.00520861 -0.00477413 -0.00439233 -0.00406321 -0.00378679 -0.00356828 -0.00341294 -0.00332076 -0.00329174 -0.00332574 -0.00342262 -0.00358237 -0.00380499 -0.00408501 -0.00441692 -0.00480072 -0.00523642 -0.00571423 -0.00622436 -0.00676682 -0.0073416 -0.00793645 -0.00853908 -0.00914951 -0.00976773 -0.0103812 -0.0109772 -0.0115559 -0.0121173 -0.0126504 -0.0131444 -0.0135994 -0.0140153 -0.0143845 -0.0146995 -0.0149602 -0.0151667 -0.0153155 -0.015403 -0.0154292 -0.0153941 -0.0152984 -0.0151428 -0.0149272 -0.0146516 -0.0143204 -0.013938 -0.0135044 -0.0130195 -0.0124908 -0.0119256 -0.011324 -0.010686 -0.0100213 -0.00933967 -0.0086412 -0.00792587 -0.00720545 -0.00649173 -0.0057847 -0.00508438 -0.00440418 -0.00375753 -0.00314442 -0.00256488 -0.00202747 -0.0015408 -0.00110486 -0.000719663 -0.00040481 -0.000179916 -4.49789e-05 0 0 -5.22022e-05 -0.000208809 -0.00046982 -0.000835235 -0.00128123 -0.00178398 -0.00234348 -0.00295974 -0.00362227 -0.00432061 -0.00505474 -0.00582468 -0.00661463 -0.00740881 -0.00820723 -0.00900988 -0.00980304 -0.010573 -0.0113198 -0.0120434 -0.0127325 -0.0133759 -0.0139737 -0.0145257 -0.0150238 -0.0154596 -0.0158331 -0.0161444 -0.0163888 -0.0165618 -0.0166633 -0.0166934 -0.016652 -0.0165388 -0.0163539 -0.0160973 -0.0157738 -0.0153881 -0.0149402 -0.0144302 -0.0138675 -0.0132616 -0.0126125 -0.0119203 -0.011198 -0.0104588 -0.00970279 -0.00892989 -0.00815512 -0.00739344 -0.00664487 -0.00590939 -0.00520141 -0.00453532 -0.00391112 -0.0033288 -0.00279967 -0.00233502 -0.00193485 -0.00159915 -0.00133408 -0.00114576 -0.00103419 -0.000999373 -0.00104114 -0.00115932 -0.00135392 -0.00162493 -0.00196592 -0.00237046 -0.00283854 -0.00337016 -0.00395385 -0.00457812 -0.00524296 -0.00594838 -0.00667996 -0.00742326 -0.0081783 -0.00894505 -0.00970869 -0.0104543 -0.011182 -0.0118917 -0.0125705 -0.0132056 -0.0137968 -0.0143443 -0.0148389 -0.0152714 -0.0156418 -0.0159502 -0.0161921 -0.016363 -0.0164631 -0.0164922 -0.0164508 -0.0163393 -0.0161578 -0.0159062 -0.0155892 -0.0152117 -0.0147737 -0.0142751 -0.0137242 -0.0131294 -0.0124906 -0.0118079 -0.0110923 -0.0103549 -0.0095958 -0.00881492 -0.00802566 -0.0072414 -0.00646214 -0.00568789 -0.00493393 -0.00421556 -0.00353278 -0.00288558 -0.00228402 -0.00173813 -0.00124792 -0.000813389 -0.000457531 -0.000203347 -5.08368e-05 0 0 -5.82855e-05 -0.000233142 -0.00052457 -0.000932568 -0.00142966 -0.00198835 -0.00260865 -0.00329056 -0.00402196 -0.00479074 -0.00559689 -0.00644042 -0.0073035 -0.00816832 -0.00903488 -0.00990318 -0.0107578 -0.0115833 -0.0123796 -0.0131468 -0.0138723 -0.0145434 -0.0151601 -0.0157225 -0.0162212 -0.0166472 -0.0170003 -0.0172807 -0.0174834 -0.0176034 -0.0176408 -0.0175955 -0.0174678 -0.0172579 -0.0169659 -0.0165916 -0.0161411 -0.0156202 -0.0150288 -0.014367 -0.0136462 -0.0128775 -0.012061 -0.0111966 -0.0102999 -0.00938639 -0.008456 -0.00750874 -0.00656215 -0.00563374 -0.00472351 -0.00383146 -0.00297436 -0.00216898 -0.00141532 -0.000713369 -7.62711e-05 0.000482844 0.000963977 0.00136713 0.00168517 0.00191098 0.00204456 0.0020859 0.00203521 0.00189269 0.00165833 0.00133213 0.000921575 0.000434133 -0.000130193 -0.000771404 -0.00147614 -0.00223106 -0.00303615 -0.00389142 -0.00478005 -0.00568524 -0.00660697 -0.00754525 -0.00848272 -0.00940198 -0.010303 -0.0111859 -0.0120354 -0.0128363 -0.0135887 -0.0142924 -0.0149367 -0.0155107 -0.0160142 -0.0164474 -0.0168047 -0.0170806 -0.0172752 -0.0173885 -0.0174205 -0.0173713 -0.017241 -0.0170295 -0.016742 -0.0163836 -0.0159543 -0.0154541 -0.0148923 -0.014278 -0.0136113 -0.0128922 -0.0121332 -0.0113466 -0.0105325 -0.00969091 -0.00883689 -0.0079855 -0.00713676 -0.00629065 -0.00546445 -0.00467544 -0.00392363 -0.00320899 -0.00254318 -0.00193782 -0.00139291 -0.000908459 -0.000511008 -0.000227115 -5.67787e-05 0 0 -6.44517e-05 -0.000257807 -0.000580065 -0.00103123 -0.00157998 -0.00219503 -0.00287636 -0.00362398 -0.004424 -0.00526252 -0.00613955 -0.00705508 -0.00798914 -0.00892177 -0.00985296 -0.0107827 -0.0116938 -0.0125689 -0.0134082 -0.0142115 -0.0149649 -0.0156542 -0.0162795 -0.0168407 -0.0173278 -0.0177305 -0.0180489 -0.0182829 -0.0184274 -0.0184771 -0.018432 -0.018292 -0.018058 -0.0177305 -0.0173096 -0.0167952 -0.0161946 -0.0155148 -0.014756 -0.0139179 -0.0130141 -0.0120577 -0.0110489 -0.00998749 -0.00889164 -0.00777936 -0.00665065 -0.00550552 -0.00436426 -0.00324718 -0.00215427 -0.00108554 -6.03619e-05 0.000901904 0.00180125 0.00263769 0.00339607 0.00406126 0.00463325 0.00511206 0.00548946 0.00575727 0.00591548 0.00596408 0.00590332 0.00573342 0.00545438 0.00506619 0.00457748 0.00399686 0.00332432 0.00255986 0.00171889 0.000816804 -0.000146399 -0.00117072 -0.00223673 -0.003325 -0.00443553 -0.00556833 -0.00670325 -0.00782014 -0.008919 -0.00999984 -0.0110449 -0.0120366 -0.0129748 -0.0138596 -0.014678 -0.0154173 -0.0160774 -0.0166583 -0.0171533 -0.0175558 -0.0178657 -0.018083 -0.0182074 -0.0182387 -0.0181767 -0.0180216 -0.0177788 -0.0174537 -0.0170464 -0.0165568 -0.0159951 -0.0153717 -0.0146863 -0.0139391 -0.0131439 -0.0123146 -0.0114513 -0.0105538 -0.00963913 -0.00872403 -0.00780854 -0.00689265 -0.00599574 -0.00513718 -0.00431697 -0.00353511 -0.00280496 -0.00213987 -0.00153984 -0.00100487 -0.000565242 -0.000251219 -6.28047e-05 0 0 -7.05922e-05 -0.000282369 -0.00063533 -0.00112947 -0.00172956 -0.00240033 -0.00314179 -0.00395394 -0.00482099 -0.00572713 -0.00667237 -0.0076567 -0.00865789 -0.0096537 -0.0106441 -0.0116292 -0.0125897 -0.0135066 -0.0143798 -0.0152094 -0.0159798 -0.0166754 -0.0172963 -0.0178424 -0.0183026 -0.0186659 -0.0189321 -0.0191014 -0.0191682 -0.0191271 -0.0189779 -0.0187208 -0.0183569 -0.0178875 -0.0173126 -0.0166323 -0.015855 -0.0149894 -0.0140354 -0.0129932 -0.0118781 -0.0107059 -0.0094764 -0.00818967 -0.0068666 -0.00552803 -0.00417397 -0.00280443 -0.00144276 -0.000112313 0.0011869 0.00245489 0.00366943 0.00480832 0.00587154 0.00685911 0.00775368 0.00853794 0.00921188 0.0097755 0.0102194 0.0105343 0.01072 0.0107767 0.0107046 0.0105039 0.0101746 0.00971685 0.00914037 0.00845504 0.00766087 0.00675786 0.00576364 0.00469584 0.00355447 0.00233952 0.00107329 -0.000221936 -0.00154616 -0.00289938 -0.00425841 -0.00560007 -0.00692434 -0.00823124 -0.00950026 -0.0107109 -0.0118632 -0.0129571 -0.0139776 -0.0149096 -0.0157531 -0.0165082 -0.0171666 -0.0177205 -0.0181698 -0.0185144 -0.0187536 -0.0188865 -0.0189132 -0.0188337 -0.0186537 -0.018379 -0.0180096 -0.0175455 -0.0169979 -0.016378 -0.0156857 -0.014921 -0.0140994 -0.0132361 -0.0123313 -0.0113848 -0.0104154 -0.00944189 -0.00846415 -0.00748222 -0.00651769 -0.00559214 -0.00470559 -0.00385803 -0.00306466 -0.00234068 -0.00168611 -0.00110094 -0.00061928 -0.000275236 -6.88089e-05 0 0 -7.65985e-05 -0.000306394 -0.000689387 -0.00122558 -0.00187572 -0.00260057 -0.00340013 -0.0042744 -0.00520555 -0.00617575 -0.00718501 -0.00823333 -0.00929609 -0.0103487 -0.0113911 -0.0124233 -0.0134242 -0.0143727 -0.0152688 -0.0161125 -0.0168866 -0.0175742 -0.018175 -0.0186893 -0.0191048 -0.0194095 -0.0196034 -0.0196866 -0.0196531 -0.0194975 -0.0192196 -0.0188194 -0.0182989 -0.01766 -0.0169027 -0.0160269 -0.015043 -0.013961 -0.0127811 -0.0115031 -0.0101452 -0.00872537 -0.0072436 -0.00569992 -0.00411829 -0.00252271 -0.000913187 0.000710293 0.00232101 0.00389226 0.00542404 0.00691635 0.00834386 0.00968124 0.0109285 0.0120856 0.0131329 0.0140506 0.0148387 0.0154973 0.0160156 0.0163831 0.0165996 0.0166652 0.0165803 0.016345 0.0159595 0.0154237 0.0147488 0.013946 0.0130153 0.0119568 0.0107905 0.00953641 0.00819461 0.0067651 0.00527327 0.00374457 0.00217897 0.000576493 -0.00103634 -0.00263301 -0.00421351 -0.00577784 -0.00730243 -0.00876371 -0.0101617 -0.0114963 -0.0127502 -0.0139058 -0.0149631 -0.0159221 -0.0167732 -0.0175067 -0.0181228 -0.0186212 -0.0190007 -0.0192599 -0.0193986 -0.0194169 -0.0193209 -0.0191166 -0.0188039 -0.018383 -0.0178658 -0.0172647 -0.0165796 -0.0158105 -0.0149744 -0.0140881 -0.0131516 -0.012165 -0.0111489 -0.010124 -0.00909024 -0.00804767 -0.0070202 -0.00603174 -0.00508228 -0.00417183 -0.00331757 -0.00253667 -0.00182914 -0.00119497 -0.000672171 -0.000298743 -7.46857e-05 0 0 -8.24707e-05 -0.000329883 -0.000742236 -0.00131953 -0.00201847 -0.00279575 -0.00365137 -0.00458533 -0.00557766 -0.00660838 -0.00767748 -0.00878496 -0.00990373 -0.0110067 -0.0120938 -0.0131651 -0.0141973 -0.0151674 -0.0160752 -0.0169208 -0.0176854 -0.0183504 -0.0189157 -0.0193814 -0.0197343 -0.0199615 -0.0200628 -0.0200383 -0.0198821 -0.0195883 -0.0191569 -0.018588 -0.0178841 -0.017048 -0.0160797 -0.0149792 -0.0137586 -0.0124298 -0.0109928 -0.00944774 -0.00781526 -0.00611618 -0.0043505 -0.00251822 -0.000646726 0.00123658 0.00313171 0.00503866 0.00692706 0.00876656 0.0105572 0.0122988 0.0139629 0.0155207 0.0169721 0.0183172 0.0195337 0.0205993 0.0215138 0.0222775 0.0228781 0.0233037 0.0235543 0.0236297 0.0235305 0.0232569 0.022809 0.0221867 0.0214027 0.0204697 0.0193877 0.0181567 0.0167994 0.0153385 0.013774 0.012106 0.0103632 0.00857451 0.00673986 0.00485929 0.00296296 0.00108102 -0.000786517 -0.00263966 -0.00445146 -0.00619501 -0.00787028 -0.00947729 -0.0109959 -0.0124059 -0.0137073 -0.0149001 -0.015973 -0.0169145 -0.0177247 -0.0184036 -0.018949 -0.0193587 -0.0196328 -0.0197713 -0.0197804 -0.0196664 -0.0194293 -0.0190691 -0.0185989 -0.0180319 -0.0173682 -0.0166077 -0.015769 -0.0148705 -0.0139123 -0.0128944 -0.0118395 -0.0107703 -0.00968681 -0.00858902 -0.00750329 -0.00645596 -0.00544704 -0.00447653 -0.00356371 -0.00272783 -0.00196892 -0.00128696 -0.000723915 -0.00032174 -8.0435e-05 0 0 -8.82087e-05 -0.000352835 -0.000793878 -0.00141134 -0.0021578 -0.00298586 -0.00389552 -0.00488676 -0.00593735 -0.00702501 -0.00814977 -0.0093116 -0.0104808 -0.0116277 -0.0127523 -0.0138545 -0.014909 -0.0158905 -0.0167989 -0.0176342 -0.0183761 -0.0190042 -0.0195184 -0.0199188 -0.0201912 -0.0203217 -0.0203102 -0.0201567 -0.0198552 -0.0193996 -0.01879 -0.0180264 -0.0171123 -0.0160514 -0.0148437 -0.0134892 -0.0120018 -0.0103957 -0.00867076 -0.00682705 -0.00488832 -0.00287833 -0.000797079 0.00135542 0.0035481 0.00574987 0.00796072 0.0101807 0.0123754 0.0145106 0.0165862 0.0186024 0.0205266 0.0223266 0.0240024 0.025554 0.0269561 0.0281839 0.0292372 0.030116 0.0308069 0.0312962 0.031584 0.0316702 0.0315553 0.0312396 0.0307231 0.0300059 0.0291022 0.0280263 0.026778 0.0253576 0.0237904 0.0221021 0.0202927 0.0183622 0.0163431 0.0142679 0.0121365 0.00994902 0.00773949 0.00554204 0.00335665 0.00118332 -0.000947349 -0.00300479 -0.004989 -0.006