<?xml version="1.0"?> 
<VTKFile type="StructuredGrid" version="0.1"> 
<StructuredGrid WholeExtent="0 128 0 128 0 0"> 
<Piece Extent="0 128 0 128 0 0"> 
<PointData>
<DataArray type="Float32" Name="u" format="ascii" NumberOfComponents="1"> 
0 0 0 0 0 0 0 0 0 0 0 0 0 0 0 0 0 0 0 0 0 0 0 0 0 0 0 0 0 0 0 0 0 0 0 0 0 0 0 0 0 0 0 0 0 0 0 0 0 0 0 0 0 0 0 0 0 0 0 0 0 0 0 0 0 0 0 0 0 0 0 0 0 0 0 0 0 0 0 0 0 0 0 0 0 0 0 0 0 0 0 0 0 0 0 0 0 0 0 0 0 0 0 0 0 0 0 0 0 0 0 0 0 0 0 0 0 0 0 0 0 0 0 0 0 0 0 0 0 0 -7.14575e-08 -2.8583e-07 -6.43118e-07 -1.14332e-06 -1.87707e-06 -2.935e-06 -4.31711e-06 -6.02339e-06 -8.09836e-06 -1.05865e-05 -1.34878e-05 -1.68023e-05 -2.05253e-05 -2.4652e-05 -2.91825e-05 -3.41168e-05 -3.94265e-05 -4.50834e-05 -5.10874e-05 -5.74384e-05 -6.40919e-05 -7.10031e-05 -7.81719e-05 -8.55984e-05 -9.32249e-05 -0.000100994 -0.000108904 -0.000116958 -0.000125088 -0.000133232 -0.000141388 -0.000149557 -0.000157676 -0.000165682 -0.000173574 -0.000181353 -0.000188967 -0.000196363 -0.000203542 -0.000210502 -0.00021721 -0.00022363 -0.000229762 -0.000235606 -0.000241147 -0.000246369 -0.000251273 -0.000255857 -0.000260124 -0.000264076 -0.000267711 -0.000271031 -0.000274046 -0.00027677 -0.000279202 -0.000281342 -0.000283205 -0.000284804 -0.000286141 -0.000287214 -0.000288033 -0.000288608 -0.000288939 -0.000289025 -0.000288866 -0.000288463 -0.000287816 -0.000286924 -0.000285779 -0.00028437 -0.000282698 -0.000280763 -0.000278552 -0.000276049 -0.000273255 -0.000270169 -0.000266781 -0.000263079 -0.000259063 -0.000254733 -0.000250087 -0.000245126 -0.00023985 -0.000234258 -0.000228366 -0.000222192 -0.000215734 -0.000208993 -0.000202005 -0.000194804 -0.000187392 -0.000179768 -0.000171984 -0.000164094 -0.000156097 -0.000147993 -0.000139845 -0.000131715 -0.000123605 -0.000115513 -0.000107504 -9.96425e-05 -9.19276e-05 -8.43596e-05 -7.69954e-05 -6.98916e-05 -6.30484e-05 -5.64656e-05 -5.01868e-05 -4.42555e-05 -3.86718e-05 -3.34355e-05 -2.85738e-05 -2.41136e-05 -2.0055e-05 -1.63978e-05 -1.31457e-05 -1.03019e-05 -7.86653e-06 -5.83959e-06 -4.17612e-06 -2.83121e-06 -1.80485e-06 -1.09705e-06 -6.17092e-07 -2.74263e-07 -6.85657e-08 0 0 -2.8583e-07 -1.14332e-06 -2.57247e-06 -4.57328e-06 -7.50828e-06 -1.174e-05 -1.72684e-05 -2.40936e-05 -3.23934e-05 -4.2346e-05 -5.39513e-05 -6.72093e-05 -8.21011e-05 -9.86081e-05 -0.00011673 -0.000136467 -0.000157706 -0.000180334 -0.000204349 -0.000229754 -0.000256368 -0.000284012 -0.000312688 -0.000342394 -0.0003729 -0.000403974 -0.000435618 -0.00046783 -0.000500353 -0.000532927 -0.000565552 -0.000598228 -0.000630704 -0.000662726 -0.000694297 -0.000725414 -0.000755869 -0.000785454 -0.000814167 -0.000842009 -0.00086884 -0.00089452 -0.000919048 -0.000942425 -0.000964589 -0.000985478 -0.00100509 -0.00102343 -0.0010405 -0.0010563 -0.00107084 -0.00108412 -0.00109619 -0.00110708 -0.00111681 -0.00112537 -0.00113282 -0.00113922 -0.00114456 -0.00114886 -0.00115213 -0.00115443 -0.00115576 -0.0011561 -0.00115547 -0.00115385 -0.00115126 -0.0011477 -0.00114311 -0.00113748 -0.00113079 -0.00112305 -0.00111421 -0.00110419 -0.00109302 -0.00108068 -0.00106713 -0.00105232 -0.00103625 -0.00101893 -0.00100035 -0.000980506 -0.0009594 -0.000937031 -0.000913465 -0.000888766 -0.000862935 -0.000835972 -0.000808018 -0.000779217 -0.000749568 -0.000719071 -0.000687937 -0.000656376 -0.000624387 -0.000591971 -0.000559378 -0.000526861 -0.000494419 -0.000462053 -0.000430017 -0.00039857 -0.00036771 -0.000337438 -0.000307982 -0.000279567 -0.000252194 -0.000225862 -0.000200747 -0.000177022 -0.000154687 -0.000133742 -0.000114295 -9.64545e-05 -8.02199e-05 -6.55913e-05 -5.25826e-05 -4.12076e-05 -3.14661e-05 -2.33584e-05 -1.67045e-05 -1.13248e-05 -7.21942e-06 -4.38821e-06 -2.46837e-06 -1.09705e-06 -2.74263e-07 0 0 -6.43118e-07 -2.57247e-06 -5.78806e-06 -1.02899e-05 -1.68936e-05 -2.6415e-05 -3.8854e-05 -5.42105e-05 -7.28852e-05 -9.52785e-05 -0.00012139 -0.000151221 -0.000184728 -0.000221868 -0.000262643 -0.000307051 -0.000354839 -0.00040575 -0.000459786 -0.000516946 -0.000576827 -0.000639028 -0.000703547 -0.000770386 -0.000839024 -0.000908942 -0.00098014 -0.00105262 -0.00112579 -0.00119909 -0.00127249 -0.00134601 -0.00141908 -0.00149113 -0.00156217 -0.00163218 -0.00170071 -0.00176727 -0.00183188 -0.00189452 -0.00195489 -0.00201267 -0.00206786 -0.00212046 -0.00217033 -0.00221732 -0.00226145 -0.00230272 -0.00234112 -0.00237668 -0.0024094 -0.00243928 -0.00246642 -0.00249093 -0.00251282 -0.00253208 -0.00254884 -0.00256324 -0.00257527 -0.00258493 -0.0025923 -0.00259748 -0.00260045 -0.00260122 -0.0025998 -0.00259617 -0.00259034 -0.00258232 -0.00257201 -0.00255933 -0.00254428 -0.00252687 -0.00250697 -0.00248444 -0.00245929 -0.00243152 -0.00240103 -0.00236771 -0.00233157 -0.00229259 -0.00225079 -0.00220614 -0.00215865 -0.00210832 -0.0020553 -0.00199972 -0.0019416 -0.00188094 -0.00181804 -0.00175324 -0.00168653 -0.00161791 -0.00154786 -0.00147684 -0.00140487 -0.00133193 -0.0012586 -0.00118544 -0.00111244 -0.00103962 -0.000967539 -0.000896782 -0.000827348 -0.000759237 -0.000692958 -0.000629025 -0.000567435 -0.00050819 -0.000451681 -0.0003983 -0.000348046 -0.00030092 -0.000257164 -0.000217023 -0.000180495 -0.00014758 -0.000118311 -9.2717e-05 -7.07988e-05 -5.25563e-05 -3.75851e-05 -2.54809e-05 -1.62437e-05 -9.87347e-06 -5.55383e-06 -2.46837e-06 -6.17092e-07 0 0 -1.14332e-06 -4.57328e-06 -1.02899e-05 -1.82931e-05 -3.00331e-05 -4.696e-05 -6.90737e-05 -9.63743e-05 -0.000129574 -0.000169384 -0.000215805 -0.000268837 -0.000328405 -0.000394432 -0.000466921 -0.000545869 -0.000630825 -0.000721334 -0.000817398 -0.000919015 -0.00102547 -0.00113605 -0.00125075 -0.00136957 -0.0014916 -0.0016159 -0.00174247 -0.00187132 -0.00200141 -0.00213171 -0.00226221 -0.00239291 -0.00252281 -0.00265091 -0.00277719 -0.00290166 -0.00302348 -0.00314181 -0.00325667 -0.00336804 -0.00347536 -0.00357808 -0.00367619 -0.0037697 -0.00385836 -0.00394191 -0.00402036 -0.00409372 -0.00416199 -0.00422521 -0.00428338 -0.00433649 -0.00438474 -0.00442832 -0.00446723 -0.00450148 -0.00453128 -0.00455687 -0.00457825 -0.00459542 -0.00460853 -0.00461773 -0.00462302 -0.0046244 -0.00462186 -0.00461542 -0.00460506 -0.00459079 -0.00457246 -0.00454992 -0.00452317 -0.00449222 -0.00445683 -0.00441678 -0.00437207 -0.00432271 -0.0042685 -0.00420927 -0.00414501 -0.00407572 -0.0040014 -0.00392202 -0.0038376 -0.00374812 -0.00365386 -0.00355507 -0.00345174 -0.00334389 -0.00323207 -0.00311687 -0.00299827 -0.00287628 -0.00275175 -0.0026255 -0.00249755 -0.00236788 -0.00223751 -0.00210745 -0.00197768 -0.00184821 -0.00172007 -0.00159428 -0.00147084 -0.00134975 -0.00123193 -0.00111827 -0.00100877 -0.00090345 -0.000802989 -0.000708089 -0.000618748 -0.000534969 -0.000457181 -0.000385818 -0.000320879 -0.000262365 -0.00021033 -0.00016483 -0.000125865 -9.34334e-05 -6.6818e-05 -4.52994e-05 -2.88777e-05 -1.75528e-05 -9.87347e-06 -4.38821e-06 -1.09705e-06 0 0 -1.87842e-06 -7.51368e-06 -1.69058e-05 -3.00547e-05 -4.90472e-05 -7.597e-05 -0.000110823 -0.000153606 -0.000205371 -0.000267169 -0.000339001 -0.000420866 -0.000512622 -0.000614127 -0.000725382 -0.000846386 -0.000976427 -0.00111479 -0.00126148 -0.00141649 -0.00157872 -0.00174706 -0.0019215 -0.00210204 -0.00228728 -0.00247577 -0.00266754 -0.00286257 -0.00305929 -0.00325612 -0.00345306 -0.0036501 -0.00384573 -0.00403841 -0.00422815 -0.00441495 -0.00459755 -0.00477471 -0.00494643 -0.0051127 -0.00527271 -0.00542564 -0.00557148 -0.00571025 -0.00584161 -0.00596521 -0.00608107 -0.00618918 -0.00628963 -0.0063825 -0.00646779 -0.00654549 -0.00661596 -0.00667951 -0.00673616 -0.0067859 -0.00682912 -0.0068662 -0.00689714 -0.00692193 -0.00694084 -0.0069541 -0.0069617 -0.00696366 -0.00695997 -0.00695064 -0.00693565 -0.00691501 -0.00688848 -0.00685581 -0.006817 -0.00677205 -0.00672059 -0.00666223 -0.00659698 -0.00652483 -0.00644547 -0.00635856 -0.00626412 -0.00616213 -0.00605254 -0.00593527 -0.00581033 -0.00567772 -0.00553779 -0.00539089 -0.00523702 -0.00507619 -0.00490921 -0.00473694 -0.00455936 -0.00437648 -0.00418955 -0.00399984 -0.00380733 -0.00361204 -0.00341548 -0.00321918 -0.00302313 -0.00282734 -0.00263336 -0.00244277 -0.00225556 -0.00207174 -0.0018927 -0.00171983 -0.00155314 -0.00139263 -0.00123937 -0.00109445 -0.000957865 -0.000829616 -0.000710383 -0.000600847 -0.000501007 -0.000410864 -0.000330529 -0.000260111 -0.000199613 -0.000149032 -0.000107308 -7.33767e-05 -4.72391e-05 -2.88949e-05 -1.62534e-05 -7.22373e-06 -1.80593e-06 0 0 -2.9404e-06 -1.17616e-05 -2.64636e-05 -4.70465e-05 -7.60564e-05 -0.00011604 -0.000166997 -0.000228927 -0.000303189 -0.000391141 -0.000492783 -0.000608114 -0.000736869 -0.000878779 -0.00103385 -0.00120207 -0.00138241 -0.00157383 -0.00177633 -0.00198992 -0.00221301 -0.00244403 -0.00268299 -0.00292987 -0.00318271 -0.00343951 -0.00370028 -0.00396501 -0.00423153 -0.00449766 -0.0047634 -0.00502876 -0.00529165 -0.00555002 -0.00580386 -0.00605318 -0.00629631 -0.0065316 -0.00675905 -0.00697866 -0.0071894 -0.00739023 -0.00758117 -0.0077622 -0.007933 -0.0080932 -0.00824283 -0.00838187 -0.00851056 -0.00862915 -0.00873763 -0.00883601 -0.00892486 -0.00900475 -0.0090757 -0.0091377 -0.00919136 -0.00923731 -0.00927554 -0.00930604 -0.00932922 -0.00934545 -0.00935473 -0.00935706 -0.00935245 -0.00934088 -0.00932236 -0.00929689 -0.00926409 -0.00922356 -0.00917531 -0.00911934 -0.00905503 -0.00898179 -0.00889961 -0.00880849 -0.00870787 -0.00859719 -0.00847645 -0.00834564 -0.00820457 -0.008053 -0.00789094 -0.00771839 -0.00753572 -0.0073433 -0.00714113 -0.0069292 -0.00670857 -0.00648029 -0.00624436 -0.00600078 -0.00575121 -0.00549734 -0.00523915 -0.00497664 -0.00471188 -0.00444694 -0.00418182 -0.00391651 -0.00365317 -0.00339397 -0.00313889 -0.00288795 -0.00264309 -0.00240626 -0.00217747 -0.00195671 -0.00174553 -0.00154545 -0.00135647 -0.00117859 -0.00101281 -0.000860115 -0.000720511 -0.000593996 -0.000480793 -0.000381125 -0.000294992 -0.000222395 -0.000161959 -0.000112309 -7.34457e-05 -4.53684e-05 -2.55197e-05 -1.13421e-05 -2.83552e-06 0 0 -4.32927e-06 -1.73171e-05 -3.89634e-05 -6.92683e-05 -0.000111061 -0.00016717 -0.000237596 -0.000322338 -0.000423029 -0.0005413 -0.000677151 -0.000830583 -0.00100115 -0.00118839 -0.00139231 -0.00161292 -0.00184877 -0.00209845 -0.00236196 -0.00263929 -0.00292833 -0.00322697 -0.00353522 -0.00385307 -0.0041779 -0.00450711 -0.00484068 -0.00517863 -0.00551812 -0.00585632 -0.00619324 -0.00652887 -0.00686058 -0.00718573 -0.00750432 -0.00781634 -0.00811974 -0.00841247 -0.00869452 -0.00896591 -0.00922542 -0.00947186 -0.00970524 -0.00992556 -0.0101325 -0.0103259 -0.0105056 -0.0106718 -0.0108248 -0.0109652 -0.0110929 -0.011208 -0.0113114 -0.0114041 -0.0114859 -0.0115569 -0.011618 -0.0116702 -0.0117135 -0.0117478 -0.0117737 -0.0117918 -0.0118021 -0.0118046 -0.0117993 -0.0117861 -0.0117652 -0.0117364 -0.0116993 -0.0116532 -0.0115981 -0.0115341 -0.0114602 -0.0113755 -0.01128 -0.0111737 -0.0110557 -0.0109251 -0.010782 -0.0106263 -0.0104575 -0.0102752 -0.0100794 -0.00987013 -0.00964766 -0.0094123 -0.00916405 -0.00890292 -0.00863013 -0.00834691 -0.00805326 -0.00774918 -0.00743673 -0.007118 -0.00679298 -0.00646167 -0.00612671 -0.00579073 -0.00545374 -0.00511572 -0.0047795 -0.00444787 -0.00412082 -0.00379837 -0.00348309 -0.00317755 -0.00288176 -0.00259571 -0.00232146 -0.00206108 -0.00181455 -0.00158189 -0.00136445 -0.00116362 -0.000979391 -0.00081176 -0.000661123 -0.000527871 -0.000412004 -0.000313523 -0.000230772 -0.000162097 -0.000107497 -6.69732e-05 -3.76724e-05 -1.67433e-05 -4.18582e-06 0 0 -6.04502e-06 -2.41801e-05 -5.44051e-05 -9.67203e-05 -0.00015406 -0.00022936 -0.000322619 -0.000433838 -0.000564889 -0.000717645 -0.000892106 -0.00108827 -0.00130545 -0.00154296 -0.00180078 -0.00207893 -0.00237552 -0.00268866 -0.00301835 -0.0033646 -0.00372468 -0.00409588 -0.00447819 -0.00487162 -0.00527285 -0.00567856 -0.00608875 -0.00650343 -0.00691905 -0.0073321 -0.00774257 -0.00815046 -0.00855253 -0.00894555 -0.00932952 -0.00970443 -0.0100678 -0.0104173 -0.0107529 -0.0110744 -0.0113808 -0.0116705 -0.0119437 -0.0122003 -0.0124402 -0.0126633 -0.0128695 -0.0130589 -0.0132323 -0.0133905 -0.0135336 -0.0136616 -0.0137757 -0.0138774 -0.0139666 -0.0140434 -0.0141091 -0.0141649 -0.0142109 -0.0142471 -0.0142742 -0.0142931 -0.0143038 -0.0143063 -0.0143005 -0.0142864 -0.0142642 -0.0142336 -0.0141941 -0.0141446 -0.0140854 -0.0140163 -0.013936 -0.0138433 -0.0137381 -0.0136204 -0.013489 -0.0133424 -0.0131808 -0.013004 -0.0128113 -0.0126019 -0.0123758 -0.0121329 -0.0118736 -0.0115979 -0.0113058 -0.0109973 -0.0106739 -0.0103368 -0.00998607 -0.00962168 -0.00924611 -0.00886184 -0.00846885 -0.00806715 -0.00765997 -0.00725055 -0.00683889 -0.00642498 -0.00601234 -0.00560447 -0.00520136 -0.00480302 -0.00441271 -0.00403371 -0.00366601 -0.00330961 -0.00296717 -0.00264134 -0.00233212 -0.00203951 -0.00176532 -0.00151137 -0.00127765 -0.00106416 -0.000871518 -0.000700348 -0.000550647 -0.000422415 -0.000313747 -0.00022274 -0.000149394 -9.37093e-05 -5.27115e-05 -2.34273e-05 -5.85683e-06 0 0 -8.12752e-06 -3.25101e-05 -7.31477e-05 -0.00013004 -0.000205992 -0.000303805 -0.00042348 -0.000565017 -0.000730452 -0.000921822 -0.00113912 -0.00138236 -0.00165051 -0.00194253 -0.00225844 -0.00259822 -0.00295946 -0.00333973 -0.00373902 -0.00415733 -0.00459126 -0.0050374 -0.00549575 -0.0059663 -0.00644498 -0.0069277 -0.00741446 -0.00790526 -0.00839582 -0.00888189 -0.00936344 -0.00984049 -0.0103092 -0.0107658 -0.0112101 -0.0116423 -0.0120596 -0.0124591 -0.0128409 -0.0132049 -0.0135499 -0.0138744 -0.0141785 -0.0144622 -0.0147256 -0.0149689 -0.0151921 -0.0153952 -0.0155794 -0.0157463 -0.0158957 -0.0160276 -0.0161441 -0.0162469 -0.0163363 -0.016412 -0.0164759 -0.01653 -0.0165741 -0.0166082 -0.0166336 -0.0166511 -0.0166609 -0.0166629 -0.0166571 -0.0166435 -0.0166222 -0.016593 -0.016555 -0.016507 -0.016449 -0.0163811 -0.0163013 -0.0162079 -0.016101 -0.0159804 -0.0158443 -0.0156908 -0.0155199 -0.0153315 -0.0151245 -0.0148975 -0.0146504 -0.0143834 -0.0140963 -0.0137891 -0.0134616 -0.013114 -0.0127475 -0.0123637 -0.0119625 -0.0115439 -0.0111107 -0.0106658 -0.0102091 -0.00974067 -0.00926429 -0.00878382 -0.00829926 -0.00781061 -0.00732211 -0.00683801 -0.0063583 -0.00588298 -0.00541609 -0.00496165 -0.00451965 -0.0040901 -0.00367633 -0.00328167 -0.00290612 -0.00254967 -0.00221468 -0.00190347 -0.00161604 -0.0013524 -0.00111348 -0.000900221 -0.000712616 -0.000550668 -0.0004123 -0.000295435 -0.000200073 -0.000126215 -7.09957e-05 -3.15537e-05 -7.88842e-06 0 0 -1.06167e-05 -4.24667e-05 -9.555e-05 -0.000169867 -0.000267792 -0.0003917 -0.000541592 -0.000717467 -0.000921402 -0.00115547 -0.00141968 -0.00171403 -0.00203702 -0.00238717 -0.00276446 -0.00316891 -0.00359743 -0.00404695 -0.00451746 -0.00500896 -0.00551727 -0.00603819 -0.00657172 -0.00711787 -0.00767172 -0.00822835 -0.00878776 -0.00934996 -0.0099099 -0.0104626 -0.0110079 -0.011546 -0.0120723 -0.0125826 -0.0130768 -0.0135549 -0.0140139 -0.0144508 -0.0148654 -0.015258 -0.0156271 -0.0159717 -0.0162916 -0.016587 -0.0168584 -0.0171064 -0.0173311 -0.0175325 -0.0177125 -0.0178733 -0.0180149 -0.0181372 -0.0182429 -0.0183348 -0.0184129 -0.0184772 -0.0185301 -0.0185741 -0.0186093 -0.0186356 -0.0186544 -0.0186673 -0.0186743 -0.0186752 -0.0186702 -0.0186592 -0.0186422 -0.0186192 -0.0185887 -0.0185493 -0.0185009 -0.0184436 -0.0183748 -0.0182922 -0.0181957 -0.0180852 -0.0179582 -0.0178119 -0.0176464 -0.0174617 -0.0172556 -0.0170264 -0.0167739 -0.0164982 -0.0161987 -0.0158749 -0.0155267 -0.0151543 -0.0147587 -0.0143414 -0.0139024 -0.0134415 -0.012962 -0.0124669 -0.0119562 -0.0114299 -0.0108923 -0.010348 -0.00979686 -0.00923893 -0.00867921 -0.00812271 -0.00756942 -0.00701936 -0.00647735 -0.00594827 -0.0054321 -0.00492885 -0.00444261 -0.00397749 -0.00353349 -0.00311059 -0.00271179 -0.00234004 -0.00199535 -0.00167771 -0.00138852 -0.00112915 -0.000899603 -0.000699879 -0.000527848 -0.000381379 -0.000260472 -0.000165127 -9.2884e-05 -4.12818e-05 -1.03204e-05 0 0 -1.35125e-05 -5.40498e-05 -0.000121612 -0.000216199 -0.000339461 -0.000493046 -0.000676954 -0.000891187 -0.00113774 -0.0014186 -0.00173378 -0.00208328 -0.002465 -0.00287686 -0.00331886 -0.00379099 -0.00428943 -0.00481032 -0.00535367 -0.00591949 -0.0065027 -0.00709824 -0.00770612 -0.00832634 -0.00895307 -0.00958052 -0.0102087 -0.0108375 -0.0114613 -0.0120741 -0.012676 -0.0132669 -0.0138419 -0.0143962 -0.0149296 -0.0154422 -0.0159309 -0.0163923 -0.0168265 -0.0172336 -0.0176125 -0.0179623 -0.0182831 -0.0185747 -0.0188385 -0.0190758 -0.0192866 -0.0194709 -0.0196316 -0.0197717 -0.0198912 -0.0199902 -0.0200722 -0.020141 -0.0201966 -0.020239 -0.0202715 -0.0202973 -0.0203165 -0.0203291 -0.0203369 -0.0203418 -0.020344 -0.0203433 -0.0203398 -0.0203334 -0.0203242 -0.0203121 -0.0202952 -0.0202715 -0.020241 -0.0202039 -0.0201566 -0.0200961 -0.0200222 -0.019935 -0.0198308 -0.0197059 -0.0195605 -0.0193944 -0.0192047 -0.0189887 -0.0187462 -0.0184773 -0.0181807 -0.0178554 -0.0175012 -0.0171182 -0.0167074 -0.0162699 -0.0158056 -0.0153145 -0.0147999 -0.0142651 -0.01371 -0.0131347 -0.0125441 -0.011943 -0.0113317 -0.0107099 -0.0100836 -0.00945858 -0.00883474 -0.00821214 -0.0075965 -0.00699358 -0.00640337 -0.00582586 -0.00526602 -0.00472881 -0.00421423 -0.00372227 -0.00325664 -0.00282107 -0.00241556 -0.00204009 -0.00169663 -0.00138714 -0.00111161 -0.000870049 -0.00066039 -0.00048057 -0.000330589 -0.000210447 -0.000118376 -5.26116e-05 -1.31529e-05 0 0 -1.68149e-05 -6.72595e-05 -0.000151334 -0.000269038 -0.000420998 -0.000607842 -0.000829568 -0.00108618 -0.00137946 -0.00171121 -0.00208143 -0.00249011 -0.00293444 -0.00341162 -0.00392162 -0.00446447 -0.00503545 -0.00562985 -0.00624767 -0.00688891 -0.00754755 -0.00821756 -0.00889894 -0.00959169 -0.010289 -0.0109842 -0.0116772 -0.012368 -0.01305 -0.0137165 -0.0143676 -0.0150032 -0.015618 -0.0162064 -0.0167685 -0.0173042 -0.0178104 -0.0182837 -0.0187242 -0.0191318 -0.019506 -0.0198464 -0.0201528 -0.0204253 -0.020666 -0.0208771 -0.0210585 -0.0212103 -0.0213366 -0.0214414 -0.0215248 -0.0215867 -0.021632 -0.0216656 -0.0216874 -0.0216976 -0.0217002 -0.0216996 -0.0216958 -0.0216887 -0.0216808 -0.0216746 -0.0216701 -0.0216672 -0.0216659 -0.0216663 -0.0216682 -0.0216717 -0.0216744 -0.0216736 -0.0216694 -0.0216619 -0.0216467 -0.0216196 -0.0215805 -0.0215296 -0.0214619 -0.0213727 -0.021262 -0.0211296 -0.0209718 -0.0207843 -0.0205673 -0.0203206 -0.0200424 -0.0197305 -0.019385 -0.0190058 -0.0185936 -0.0181491 -0.0176722 -0.0171628 -0.0166245 -0.0160604 -0.0154707 -0.0148552 -0.0142195 -0.013569 -0.0129037 -0.0122237 -0.0115354 -0.0108456 -0.0101543 -0.00946133 -0.00877354 -0.00809758 -0.00743344 -0.00678113 -0.00614656 -0.00553563 -0.00494834 -0.00438469 -0.00384925 -0.00334658 -0.00287667 -0.00243953 -0.00203781 -0.00167418 -0.00134864 -0.00106118 -0.000809928 -0.000593011 -0.000410426 -0.000262173 -0.000147472 -6.55433e-05 -1.63858e-05 0 0 -2.05047e-05 -8.2019e-05 -0.000184543 -0.000328076 -0.000511908 -0.000735327 -0.000998333 -0.00130093 -0.00164454 -0.0020306 -0.00245911 -0.00293008 -0.00343979 -0.00398454 -0.00456434 -0.00517919 -0.00582337 -0.00649119 -0.00718265 -0.00789775 -0.00862939 -0.00937048 -0.010121 -0.010881 -0.0116426 -0.0123981 -0.0131475 -0.0138907 -0.0146203 -0.0153289 -0.0160164 -0.0166828 -0.0173223 -0.017929 -0.0185028 -0.0190438 -0.0195489 -0.0200147 -0.0204413 -0.0208286 -0.0211769 -0.0214861 -0.0217563 -0.0219874 -0.0221828 -0.0223456 -0.0224758 -0.0225735 -0.0226441 -0.0226932 -0.0227206 -0.0227265 -0.0227171 -0.0226987 -0.0226712 -0.0226348 -0.0225947 -0.0225565 -0.02252 -0.0224853 -0.0224555 -0.0224337 -0.0224198 -0.0224139 -0.0224159 -0.0224258 -0.0224436 -0.0224692 -0.0224996 -0.0225316 -0.0225652 -0.0226003 -0.0226316 -0.0226536 -0.0226663 -0.0226698 -0.0226577 -0.0226239 -0.0225684 -0.0224911 -0.0223866 -0.0222496 -0.0220801 -0.021878 -0.0216402 -0.0213636 -0.0210483 -0.0206942 -0.0203013 -0.0198697 -0.0193994 -0.0188904 -0.018346 -0.0177694 -0.0171608 -0.0165199 -0.0158529 -0.0151656 -0.014458 -0.0137301 -0.0129893 -0.0122431 -0.0114915 -0.0107345 -0.00997974 -0.009235 -0.00850025 -0.00777551 -0.00706773 -0.00638387 -0.00572394 -0.00508792 -0.00448137 -0.00390982 -0.00337326 -0.0028717 -0.00240866 -0.00198767 -0.00160872 -0.0012718 -0.000975401 -0.000717967 -0.000499505 -0.000320013 -0.000180007 -8.00032e-05 -2.00008e-05 0 0 -2.45629e-05 -9.82514e-05 -0.000221066 -0.000393006 -0.000611691 -0.00087474 -0.00118215 -0.00153393 -0.00193095 -0.00237409 -0.00286335 -0.00339874 -0.00397546 -0.00458874 -0.00523858 -0.00592498 -0.00664108 -0.00738004 -0.00814185 -0.00892651 -0.00972576 -0.0105313 -0.0113432 -0.0121613 -0.012977 -0.0137811 -0.0145738 -0.0153551 -0.0161166 -0.0168502 -0.0175558 -0.0182333 -0.0188767 -0.0194796 -0.020042 -0.020564 -0.0210426 -0.0214748 -0.0218607 -0.0222002 -0.0224943 -0.0227439 -0.0229491 -0.0231099 -0.0232309 -0.0233168 -0.0233675 -0.0233831 -0.0233707 -0.0233377 -0.0232839 -0.0232095 -0.0231224 -0.0230306 -0.022934 -0.0228328 -0.0227337 -0.0226435 -0.0225622 -0.0224897 -0.02243 -0.0223869 -0.0223604 -0.0223504 -0.022357 -0.0223801 -0.0224197 -0.0224758 -0.0225444 -0.0226216 -0.0227073 -0.0228017 -0.0228979 -0.022989 -0.0230751 -0.0231561 -0.0232241 -0.0232712 -0.0232972 -0.0233023 -0.0232793 -0.0232211 -0.0231276 -0.022999 -0.0228306 -0.0226181 -0.0223613 -0.0220603 -0.0217142 -0.0213224 -0.0208846 -0.0204011 -0.0198747 -0.0193087 -0.0187029 -0.0180575 -0.0173786 -0.0166726 -0.0159395 -0.0151793 -0.0144001 -0.0136104 -0.0128101 -0.0119991 -0.0111864 -0.0103805 -0.00958171 -0.00878983 -0.00801305 -0.00725948 -0.00652913 -0.005822 -0.00514475 -0.00450405 -0.00389989 -0.00333228 -0.00280579 -0.00232499 -0.00188988 -0.00150047 -0.00115575 -0.000854709 -0.000597349 -0.000383672 -0.000215816 -9.59181e-05 -2.39795e-05 0 0 -2.89892e-05 -0.000115957 -0.000260903 -0.000463827 -0.000720348 -0.00102608 -0.00138103 -0.00178519 -0.00223869 -0.00274168 -0.00329415 -0.00389609 -0.00454147 -0.00522422 -0.00594435 -0.00670186 -0.00748859 -0.00829639 -0.00912526 -0.0099752 -0.0108367 -0.0117001 -0.0125654 -0.0134327 -0.014292 -0.0151331 -0.0159562 -0.0167611 -0.0175389 -0.0182805 -0.0189858 -0.0196549 -0.0202812 -0.0208583 -0.0213862 -0.0218648 -0.0222917 -0.0226642 -0.0229825 -0.0232464 -0.0234582 -0.0236198 -0.0237313 -0.0237927 -0.0238103 -0.0237906 -0.0237335 -0.023639 -0.0235164 -0.023375 -0.0232147 -0.0230357 -0.0228478 -0.0226612 -0.0224758 -0.0222917 -0.0221172 -0.0219607 -0.0218223 -0.021702 -0.0216044 -0.0215344 -0.0214919 -0.0214769 -0.0214894 -0.0215293 -0.0215966 -0.0216913 -0.0218085 -0.0219434 -0.022096 -0.0222662 -0.0224457 -0.0226259 -0.0228069 -0.0229886 -0.0231611 -0.0233144 -0.0234485 -0.0235633 -0.0236497 -0.0236986 -0.0237099 -0.0236837 -0.0236138 -0.0234939 -0.023324 -0.0231042 -0.0228325 -0.022507 -0.0221278 -0.0216948 -0.0212106 -0.0206781 -0.0200971 -0.0194677 -0.0187965 -0.01809 -0.0173482 -0.0165712 -0.0157679 -0.0149475 -0.01411 -0.0132553 -0.0123934 -0.0115342 -0.0106778 -0.0098241 -0.00898251 -0.00816246 -0.00736393 -0.00658693 -0.00583939 -0.00512927 -0.00445656 -0.00382126 -0.00322918 -0.00268614 -0.00219214 -0.00174718 -0.00135098 -0.00100324 -0.00070396 -0.000453151 -0.000254898 -0.000113288 -2.8322e-05 0 0 -3.37838e-05 -0.000135135 -0.000304054 -0.000540541 -0.000837879 -0.00118935 -0.00159496 -0.00205469 -0.00256776 -0.00313336 -0.00375149 -0.00442214 -0.00513781 -0.00589098 -0.00668165 -0.00750981 -0.00836587 -0.00924023 -0.0101329 -0.0110438 -0.0119621 -0.0128767 -0.0137877 -0.0146951 -0.0155877 -0.0164541 -0.0172945 -0.0181088 -0.0188872 -0.0196197 -0.0203064 -0.0209474 -0.0215358 -0.0220651 -0.0225352 -0.0229461 -0.023296 -0.0235828 -0.0238066 -0.0239674 -0.0240686 -0.0241137 -0.0241028 -0.0240357 -0.023921 -0.023767 -0.0235738 -0.0233413 -0.0230811 -0.0228051 -0.022513 -0.022205 -0.0218935 -0.0215907 -0.0212966 -0.0210113 -0.0207451 -0.0205081 -0.0203004 -0.020122 -0.0199786 -0.0198761 -0.0198143 -0.0197933 -0.019813 -0.0198733 -0.0199743 -0.0201159 -0.0202921 -0.0204972 -0.0207311 -0.0209938 -0.021275 -0.0215643 -0.0218617 -0.0221673 -0.0224688 -0.0227537 -0.0230221 -0.023274 -0.0234979 -0.0236822 -0.023827 -0.0239321 -0.0239895 -0.023991 -0.0239364 -0.0238259 -0.0236561 -0.0234238 -0.0231289 -0.0227716 -0.0223538 -0.0218778 -0.0213434 -0.0207508 -0.0201067 -0.0194178 -0.0186842 -0.0179058 -0.0170926 -0.0162544 -0.0153911 -0.0145029 -0.0136009 -0.0126961 -0.0117885 -0.0108783 -0.00997613 -0.0090928 -0.00822832 -0.0073827 -0.0065653 -0.00578548 -0.00504326 -0.00433864 -0.00367884 -0.00307113 -0.00251549 -0.00201193 -0.00156108 -0.00116355 -0.000819337 -0.00052845 -0.000297253 -0.000132113 -3.30281e-05 0 0 -3.88945e-05 -0.000155578 -0.000350051 -0.000622313 -0.00096299 -0.00136271 -0.00182147 -0.00233928 -0.00291418 -0.00354422 -0.00422941 -0.00496975 -0.00575605 -0.00657912 -0.00743896 -0.00833558 -0.00925775 -0.0101942 -0.0111451 -0.0121102 -0.0130772 -0.0140336 -0.0149793 -0.0159144 -0.0168264 -0.0177028 -0.0185435 -0.0193487 -0.0201076 -0.0208096 -0.0214547 -0.0220429 -0.0225674 -0.0230216 -0.0234054 -0.0237189 -0.0239608 -0.0241302 -0.0242269 -0.0242509 -0.0242075 -0.0241018 -0.0239338 -0.0237034 -0.0234216 -0.0230991 -0.0227358 -0.0223319 -0.0219017 -0.0214596 -0.0210056 -0.0205398 -0.0200772 -0.0196328 -0.0192066 -0.0187987 -0.0184213 -0.0180869 -0.0177955 -0.017547 -0.0173484 -0.0172066 -0.0171216 -0.0170934 -0.0171219 -0.017207 -0.0173486 -0.0175468 -0.0177945 -0.0180846 -0.018417 -0.0187918 -0.0191965 -0.0196186 -0.0200582 -0.0205152 -0.0209746 -0.0214214 -0.0218557 -0.0222773 -0.0226721 -0.0230257 -0.0233382 -0.0236095 -0.0238291 -0.0239864 -0.0240814 -0.0241141 -0.0240795 -0.0239728 -0.023794 -0.0235431 -0.0232213 -0.0228301 -0.0223695 -0.0218394 -0.0212467 -0.0205983 -0.0198942 -0.0191343 -0.0183294 -0.0174902 -0.0166165 -0.0157084 -0.0147784 -0.0138387 -0.0128895 -0.0119307 -0.0109745 -0.0100334 -0.00910735 -0.00819627 -0.00731115 -0.00646297 -0.00565172 -0.00487741 -0.00414891 -0.00347512 -0.00285602 -0.00229161 -0.00178364 -0.00133384 -0.000942213 -0.000608752 -0.000342423 -0.000152188 -3.8047e-05 0 0 -4.42692e-05 -0.000177077 -0.000398423 -0.000708308 -0.00109439 -0.00154432 -0.00205811 -0.00263576 -0.00327394 -0.00396934 -0.00472195 -0.00553178 -0.00638774 -0.00727874 -0.00820479 -0.00916588 -0.010149 -0.0111411 -0.0121422 -0.0131523 -0.0141573 -0.015143 -0.0161094 -0.0170565 -0.0179706 -0.0188377 -0.019658 -0.0204313 -0.0211463 -0.0217917 -0.0223674 -0.0228733 -0.023303 -0.0236496 -0.0239132 -0.0240938 -0.0241913 -0.0242057 -0.0241368 -0.0239848 -0.0237569 -0.0234601 -0.0230946 -0.0226602 -0.0221707 -0.0216396 -0.021067 -0.0204528 -0.0198147 -0.0191702 -0.0185194 -0.0178623 -0.017217 -0.0166016 -0.0160161 -0.0154606 -0.0149497 -0.0144983 -0.0141065 -0.0137741 -0.0135094 -0.0133207 -0.013208 -0.0131712 -0.0132103 -0.013325 -0.0135155 -0.0137816 -0.014115 -0.0145071 -0.014958 -0.0154676 -0.0160211 -0.0166035 -0.0172148 -0.0178551 -0.0185062 -0.0191501 -0.0197867 -0.020416 -0.0210206 -0.0215829 -0.0221031 -0.0225811 -0.0230036 -0.0233571 -0.0236418 -0.0238575 -0.0239974 -0.0240546 -0.0240291 -0.0239209 -0.0237303 -0.0234576 -0.0231029 -0.0226662 -0.0221542 -0.0215738 -0.020925 -0.0202079 -0.0194337 -0.018614 -0.0177488 -0.016838 -0.0158955 -0.0149348 -0.0139561 -0.0129594 -0.0119585 -0.0109674 -0.00998606 -0.00901458 -0.00806564 -0.007152 -0.00627364 -0.00543058 -0.00463354 -0.00389329 -0.00320981 -0.00258311 -0.00201625 -0.00151233 -0.00107132 -0.00069324 -0.000389948 -0.00017331 -4.33275e-05 0 0 -4.99079e-05 -0.000199631 -0.000449171 -0.000798526 -0.00123207 -0.00173419 -0.00230488 -0.00294414 -0.00364705 -0.0044087 -0.00522909 -0.00610822 -0.00703288 -0.00798985 -0.00897913 -0.0100007 -0.0110396 -0.0120808 -0.0131243 -0.0141701 -0.0152022 -0.0162048 -0.0171778 -0.0181213 -0.0190201 -0.0198589 -0.0206377 -0.0213566 -0.0220035 -0.0225661 -0.0230446 -0.0234388 -0.0237425 -0.0239491 -0.0240585 -0.0240709 -0.0239875 -0.0238094 -0.0235366 -0.0231692 -0.0227167 -0.0221886 -0.0215851 -0.0209061 -0.0201683 -0.0193887 -0.0185673 -0.017704 -0.0168202 -0.0159369 -0.0150544 -0.0141725 -0.0133129 -0.0124971 -0.0117251 -0.010997 -0.0103303 -0.00974238 -0.00923335 -0.00880318 -0.0084616 -0.00821831 -0.00807331 -0.00802661 -0.00807805 -0.00822745 -0.00847482 -0.00882017 -0.00925348 -0.00976476 -0.010354 -0.0110212 -0.0117488 -0.0125189 -0.0133317 -0.0141872 -0.0150637 -0.0159396 -0.0168151 -0.01769 -0.0185433 -0.0193539 -0.0201218 -0.020847 -0.021513 -0.0221032 -0.0226176 -0.0230562 -0.0234098 -0.0236692 -0.0238342 -0.0239051 -0.0238808 -0.0237603 -0.0235438 -0.0232312 -0.0228292 -0.0223444 -0.0217767 -0.0211263 -0.0204053 -0.0196259 -0.0187881 -0.0178918 -0.0169522 -0.0159844 -0.0149885 -0.0139644 -0.0129278 -0.0118945 -0.0108644 -0.00983764 -0.00882878 -0.00785257 -0.00690902 -0.00599813 -0.00513272 -0.00432563 -0.00357686 -0.00288641 -0.00225891 -0.001699 -0.00120667 -0.000781916 -0.000439828 -0.000195479 -4.88697e-05 0 0 -5.58105e-05 -0.000223242 -0.000502294 -0.000892968 -0.00137605 -0.00193231 -0.00256177 -0.00326442 -0.00403351 -0.00486232 -0.00575085 -0.00669909 -0.00769147 -0.00871243 -0.00976197 -0.0108401 -0.0119296 -0.0130134 -0.0140913 -0.0151635 -0.016212 -0.0172191 -0.0181848 -0.0191089 -0.019975 -0.0207663 -0.0214829 -0.0221247 -0.0226789 -0.0231328 -0.0234862 -0.0237393 -0.023886 -0.02392 -0.0238414 -0.0236503 -0.0233493 -0.0229412 -0.0224261 -0.0218039 -0.0210869 -0.0202874 -0.0194054 -0.0184409 -0.0174144 -0.0163464 -0.0152367 -0.0140855 -0.0129181 -0.0117598 -0.0106105 -0.00947038 -0.00836478 -0.00731918 -0.0063336 -0.00540803 -0.004563 -0.00381905 -0.00317617 -0.00263436 -0.00220499 -0.00189942 -0.00171764 -0.00165965 -0.00172527 -0.00191429 -0.00222671 -0.00266254 -0.00321007 -0.00385761 -0.00460515 -0.0054527 -0.00637953 -0.00736492 -0.00840885 -0.00951134 -0.0106469 -0.0117901 -0.0129409 -0.0140993 -0.0152403 -0.0163385 -0.0173941 -0.0184071 -0.0193573 -0.0202245 -0.0210088 -0.0217101 -0.0223166 -0.0228164 -0.0232094 -0.0234956 -0.0236727 -0.0237382 -0.0236921 -0.0235345 -0.0232716 -0.0229099 -0.0224493 -0.0218898 -0.0212444 -0.0205259 -