<?xml version="1.0"?> 
<VTKFile type="StructuredGrid" version="0.1"> 
<StructuredGrid WholeExtent="0 128 0 128 0 0"> 
<Piece Extent="0 128 0 128 0 0"> 
<PointData>
<DataArray type="Float32" Name="u" format="ascii" NumberOfComponents="1"> 
0 0 0 0 0 0 0 0 0 0 0 0 0 0 0 0 0 0 0 0 0 0 0 0 0 0 0 0 0 0 0 0 0 0 0 0 0 0 0 0 0 0 0 0 0 0 0 0 0 0 0 0 0 0 0 0 0 0 0 0 0 0 0 0 0 0 0 0 0 0 0 0 0 0 0 0 0 0 0 0 0 0 0 0 0 0 0 0 0 0 0 0 0 0 0 0 0 0 0 0 0 0 0 0 0 0 0 0 0 0 0 0 0 0 0 0 0 0 0 0 0 0 0 0 0 0 0 0 0 0 1.80425e-08 7.21699e-08 1.62382e-07 2.88679e-07 3.1164e-07 9.18431e-08 -3.70712e-07 -1.07602e-06 -2.09846e-06 -3.51237e-06 -5.31777e-06 -7.51466e-06 -1.01321e-05 -1.31993e-05 -1.67162e-05 -2.06828e-05 -2.50937e-05 -2.99437e-05 -3.52327e-05 -4.09607e-05 -4.70968e-05 -5.361e-05 -6.05003e-05 -6.77677e-05 -7.53603e-05 -8.32262e-05 -9.13655e-05 -9.9778e-05 -0.000108398 -0.000117159 -0.000126061 -0.000135104 -0.000144218 -0.00015333 -0.000162441 -0.000171552 -0.000180594 -0.000189502 -0.000198275 -0.000206913 -0.000215361 -0.000223565 -0.000231524 -0.000239237 -0.000246666 -0.000253771 -0.000260551 -0.000267007 -0.000273115 -0.000278849 -0.000284211 -0.000289199 -0.000293802 -0.000298009 -0.000301818 -0.00030523 -0.000308241 -0.000310846 -0.000313045 -0.000314839 -0.000316226 -0.000317206 -0.000317778 -0.000317943 -0.000317701 -0.000317052 -0.000315996 -0.000314533 -0.000312663 -0.000310389 -0.000307711 -0.000304628 -0.000301144 -0.000297266 -0.000292993 -0.000288324 -0.000283273 -0.000277852 -0.000272061 -0.0002659 -0.000259395 -0.000252569 -0.000245423 -0.000237957 -0.000230212 -0.000222227 -0.000214002 -0.000205537 -0.000196889 -0.000188111 -0.000179205 -0.00017017 -0.000161072 -0.000151979 -0.00014289 -0.000133806 -0.000124797 -0.000115934 -0.000107216 -9.8644e-05 -9.02827e-05 -8.21974e-05 -7.43881e-05 -6.68549e-05 -5.96485e-05 -5.28198e-05 -4.63688e-05 -4.02954e-05 -3.46297e-05 -2.94015e-05 -2.46107e-05 -2.02574e-05 -1.63461e-05 -1.28811e-05 -9.86238e-06 -7.29002e-06 -5.1343e-06 -3.36556e-06 -1.98379e-06 -9.88998e-07 -3.07029e-07 1.36262e-07 3.40875e-07 3.06809e-07 1.7258e-07 7.67023e-08 1.91756e-08 0 0 7.21699e-08 2.88679e-07 6.49529e-07 1.15472e-06 1.24656e-06 3.67372e-07 -1.48285e-06 -4.3041e-06 -8.39383e-06 -1.40495e-05 -2.12711e-05 -3.00586e-05 -4.05285e-05 -5.27972e-05 -6.68647e-05 -8.27311e-05 -0.000100375 -0.000119775 -0.000140931 -0.000163843 -0.000188387 -0.00021444 -0.000242001 -0.000271071 -0.000301441 -0.000332905 -0.000365462 -0.000399112 -0.000433591 -0.000468635 -0.000504244 -0.000540417 -0.000576871 -0.00061332 -0.000649765 -0.000686206 -0.000722375 -0.000758006 -0.000793098 -0.000827651 -0.000861445 -0.00089426 -0.000926094 -0.000956949 -0.000986665 -0.00101508 -0.00104221 -0.00106803 -0.00109246 -0.0011154 -0.00113684 -0.0011568 -0.00117521 -0.00119203 -0.00120727 -0.00122092 -0.00123296 -0.00124338 -0.00125218 -0.00125936 -0.0012649 -0.00126882 -0.00127111 -0.00127177 -0.00127081 -0.00126821 -0.00126398 -0.00125813 -0.00125065 -0.00124156 -0.00123084 -0.00121851 -0.00120458 -0.00118906 -0.00117197 -0.0011533 -0.00113309 -0.00111141 -0.00108824 -0.0010636 -0.00103758 -0.00101028 -0.000981693 -0.00095183 -0.000920848 -0.000888907 -0.000856008 -0.00082215 -0.000787555 -0.000752445 -0.000716819 -0.000680678 -0.000644288 -0.000607916 -0.000571562 -0.000535225 -0.000499189 -0.000463736 -0.000428864 -0.000394576 -0.000361131 -0.00032879 -0.000297552 -0.000267419 -0.000238594 -0.000211279 -0.000185475 -0.000161182 -0.000138519 -0.000117606 -9.84428e-05 -8.10298e-05 -6.53844e-05 -5.15243e-05 -3.94495e-05 -2.91601e-05 -2.05372e-05 -1.34622e-05 -7.93517e-06 -3.95599e-06 -1.22811e-06 5.45049e-07 1.3635e-06 1.22724e-06 6.90321e-07 3.06809e-07 7.67023e-08 0 0 1.62382e-07 6.49529e-07 1.46144e-06 2.59811e-06 2.80476e-06 8.26588e-07 -3.33641e-06 -9.68422e-06 -1.88861e-05 -3.16114e-05 -4.786e-05 -6.76319e-05 -9.11892e-05 -0.000118794 -0.000150446 -0.000186145 -0.000225843 -0.000269493 -0.000317094 -0.000368647 -0.000423872 -0.00048249 -0.000544503 -0.00060991 -0.000678243 -0.000749036 -0.000822289 -0.000898002 -0.00097558 -0.00105443 -0.00113455 -0.00121594 -0.00129796 -0.00137997 -0.00146197 -0.00154396 -0.00162534 -0.00170551 -0.00178447 -0.00186222 -0.00193825 -0.00201208 -0.00208371 -0.00215313 -0.00222 -0.00228394 -0.00234496 -0.00240307 -0.00245803 -0.00250964 -0.00255789 -0.00260279 -0.00264422 -0.00268208 -0.00271636 -0.00274707 -0.00277417 -0.00279761 -0.00281741 -0.00283355 -0.00284604 -0.00285485 -0.00286001 -0.00286149 -0.00285931 -0.00285347 -0.00284396 -0.00283079 -0.00281397 -0.00279351 -0.0027694 -0.00274165 -0.0027103 -0.0026754 -0.00263693 -0.00259492 -0.00254946 -0.00250067 -0.00244855 -0.0023931 -0.00233455 -0.00227312 -0.00220881 -0.00214162 -0.00207191 -0.00200004 -0.00192602 -0.00184984 -0.001772 -0.001693 -0.00161284 -0.00153153 -0.00144965 -0.00136781 -0.00128601 -0.00120426 -0.00112318 -0.00104341 -0.000964945 -0.000887796 -0.000812544 -0.000739776 -0.000669493 -0.000601694 -0.000536836 -0.000475378 -0.000417319 -0.000362659 -0.000311667 -0.000264613 -0.000221496 -0.000182317 -0.000147115 -0.00011593 -8.87614e-05 -6.56101e-05 -4.62087e-05 -3.029e-05 -1.78541e-05 -8.90098e-06 -2.76326e-06 1.22636e-06 3.06787e-06 2.76128e-06 1.55322e-06 6.90321e-07 1.7258e-07 0 0 2.88679e-07 1.15472e-06 2.59811e-06 4.61887e-06 4.98624e-06 1.46949e-06 -5.93139e-06 -1.72164e-05 -3.35753e-05 -5.6198e-05 -8.50844e-05 -0.000120235 -0.000162114 -0.000211189 -0.000267459 -0.000330924 -0.000401499 -0.000479099 -0.000563723 -0.000655372 -0.000753549 -0.000857761 -0.000968005 -0.00108428 -0.00120577 -0.00133162 -0.00146185 -0.00159645 -0.00173436 -0.00187454 -0.00201697 -0.00216167 -0.00230748 -0.00245328 -0.00259906 -0.00274482 -0.0028895 -0.00303202 -0.00317239 -0.00331061 -0.00344578 -0.00357704 -0.00370438 -0.00382779 -0.00394666 -0.00406033 -0.00416882 -0.00427212 -0.00436984 -0.00446159 -0.00454737 -0.00462718 -0.00470084 -0.00476814 -0.00482909 -0.00488368 -0.00493185 -0.00497354 -0.00500873 -0.00503742 -0.00505962 -0.0050753 -0.00508445 -0.0050871 -0.00508322 -0.00507283 -0.00505593 -0.00503252 -0.00500261 -0.00496623 -0.00492337 -0.00487404 -0.00481831 -0.00475626 -0.00468788 -0.00461319 -0.00453237 -0.00444563 -0.00435298 -0.00425441 -0.00415031 -0.0040411 -0.00392677 -0.00380732 -0.00368339 -0.00355563 -0.00342403 -0.0032886 -0.00315022 -0.00300978 -0.00286728 -0.00272271 -0.00257715 -0.00243166 -0.00228625 -0.0021409 -0.00199676 -0.00185494 -0.00171546 -0.0015783 -0.00144452 -0.00131516 -0.00119021 -0.00106968 -0.000954376 -0.000845116 -0.0007419 -0.000644727 -0.000554075 -0.000470423 -0.000393771 -0.000324119 -0.000261538 -0.000206097 -0.000157798 -0.00011664 -8.21488e-05 -5.3849e-05 -3.17407e-05 -1.5824e-05 -4.91246e-06 2.1802e-06 5.454e-06 4.90895e-06 2.76128e-06 1.22724e-06 3.06809e-07 0 0 3.06622e-07 1.22649e-06 2.7596e-06 4.90595e-06 4.37244e-06 -2.13406e-06 -1.46135e-05 -3.3066e-05 -5.92692e-05 -9.50011e-05 -0.000140261 -0.00019505 -0.000260047 -0.000335929 -0.000422696 -0.00052035 -0.000628735 -0.000747697 -0.000877238 -0.00101736 -0.00116728 -0.00132622 -0.0014942 -0.0016712 -0.00185595 -0.00204716 -0.00224484 -0.00244899 -0.002658 -0.00287023 -0.00308571 -0.00330442 -0.00352464 -0.00374465 -0.00396444 -0.00418401 -0.00440176 -0.00461608 -0.00482697 -0.00503443 -0.00523715 -0.00543382 -0.00562444 -0.00580901 -0.00598661 -0.00615631 -0.00631812 -0.00647203 -0.0066175 -0.00675398 -0.00688147 -0.00699998 -0.00710925 -0.00720904 -0.00729934 -0.00738016 -0.00745143 -0.00751307 -0.00756509 -0.00760749 -0.00764025 -0.0076634 -0.00767691 -0.0076808 -0.00767506 -0.0076597 -0.00763473 -0.00760013 -0.00755592 -0.00750211 -0.0074387 -0.00736569 -0.00728316 -0.00719118 -0.00708977 -0.00697892 -0.00685889 -0.00672995 -0.0065921 -0.00644533 -0.00629021 -0.00612729 -0.00595658 -0.00577808 -0.00559271 -0.00540143 -0.00520422 -0.0050011 -0.00479336 -0.00458234 -0.00436803 -0.00415043 -0.00393114 -0.00371177 -0.00349232 -0.00327279 -0.00305489 -0.00284034 -0.00262913 -0.00242127 -0.00221835 -0.00202197 -0.00183212 -0.0016488 -0.00147328 -0.0013068 -0.00114936 -0.00100096 -0.00086236 -0.0007343 -0.000616783 -0.000509807 -0.000413506 -0.000328009 -0.000253318 -0.000189432 -0.000135659 -9.13045e-05 -5.63701e-05 -3.08553e-05 -1.29871e-05 -9.92199e-07 5.12926e-06 5.37731e-06 3.02474e-06 1.34433e-06 3.36082e-07 0 0 7.17706e-08 2.87082e-07 6.45936e-07 1.14833e-06 -2.45522e-06 -1.44142e-05 -3.47286e-05 -6.33984e-05 -0.000102776 -0.000155212 -0.000220708 -0.000299264 -0.00039173 -0.000498959 -0.000620949 -0.000757701 -0.000908941 -0.00107439 -0.00125406 -0.00144794 -0.00165491 -0.00187385 -0.00210477 -0.00234766 -0.00260072 -0.00286216 -0.00313198 -0.00341018 -0.00369452 -0.00398278 -0.00427494 -0.00457101 -0.00486864 -0.00516547 -0.00546151 -0.00575675 -0.00604904 -0.00633623 -0.00661832 -0.00689531 -0.00716548 -0.00742714 -0.00768027 -0.00792488 -0.00815981 -0.00838392 -0.0085972 -0.00879964 -0.00899064 -0.00916956 -0.00933641 -0.00949118 -0.00963365 -0.0097636 -0.00988103 -0.00998593 -0.0100783 -0.0101582 -0.0102255 -0.0102802 -0.0103225 -0.0103524 -0.0103698 -0.0103748 -0.0103674 -0.0103475 -0.0103152 -0.0102704 -0.0102132 -0.0101435 -0.0100613 -0.00996658 -0.00985937 -0.0097397 -0.00960755 -0.00946294 -0.0093061 -0.00913728 -0.00895648 -0.0087637 -0.00855957 -0.00834475 -0.00811924 -0.00788303 -0.00763729 -0.00738321 -0.00712077 -0.00684999 -0.00657257 -0.00629025 -0.00600301 -0.00571086 -0.00541595 -0.00512042 -0.00482429 -0.00452755 -0.00423253 -0.00394158 -0.00365469 -0.00337186 -0.00309531 -0.00282723 -0.00256762 -0.0023165 -0.00207561 -0.00184672 -0.00162983 -0.00142494 -0.00123314 -0.00105551 -0.000892046 -0.000742753 -0.000607873 -0.000487649 -0.00038208 -0.000291167 -0.000214039 -0.000149822 -9.85178e-05 -6.01255e-05 -3.22984e-05 -1.26896e-05 -1.29896e-06 1.87343e-06 1.05381e-06 4.68358e-07 1.1709e-07 0 0 -4.15875e-07 -1.6635e-06 -3.74287e-06 -6.654e-06 -1.54967e-05 -3.53709e-05 -6.62765e-05 -0.000108214 -0.000164094 -0.000236832 -0.000326425 -0.000432875 -0.000557165 -0.000700279 -0.000862217 -0.00104298 -0.00124212 -0.00145919 -0.00169419 -0.00194711 -0.00221644 -0.00250064 -0.00279971 -0.00311366 -0.00344009 -0.00377663 -0.00412327 -0.00448001 -0.00484395 -0.00521216 -0.00558466 -0.00596144 -0.00633947 -0.00671575 -0.00709028 -0.00746304 -0.00783134 -0.00819247 -0.00854644 -0.00889323 -0.00923077 -0.00955698 -0.00987185 -0.0101754 -0.0104663 -0.0107432 -0.0110061 -0.011255 -0.0114893 -0.0117083 -0.0119122 -0.0121008 -0.012274 -0.0124318 -0.0125741 -0.012701 -0.0128125 -0.0129088 -0.0129899 -0.0130557 -0.0131065 -0.0131423 -0.0131632 -0.0131691 -0.0131601 -0.0131362 -0.0130973 -0.0130434 -0.0129745 -0.0128905 -0.0127912 -0.0126767 -0.012547 -0.0124018 -0.0122412 -0.0120652 -0.011874 -0.0116676 -0.0114461 -0.0112095 -0.0109584 -0.0106935 -0.0104147 -0.0101222 -0.00981713 -0.00950097 -0.00917368 -0.00883528 -0.00848785 -0.00813349 -0.00777221 -0.007404 -0.00703157 -0.00665762 -0.00628216 -0.00590518 -0.00552968 -0.00515867 -0.00479214 -0.00443009 -0.0040754 -0.00373095 -0.00339673 -0.00307276 -0.00276136 -0.00246488 -0.00218331 -0.00191666 -0.00166641 -0.00143405 -0.00121956 -0.00102296 -0.000844639 -0.000685015 -0.000544084 -0.000421846 -0.000317289 -0.000229402 -0.000158184 -0.000103634 -6.28466e-05 -3.2912e-05 -1.38307e-05 -5.60268e-06 -3.1515e-06 -1.40067e-06 -3.50167e-07 0 0 -1.15631e-06 -4.62526e-06 -1.04068e-05 -1.8501e-05 -3.47521e-05 -6.50042e-05 -0.000109257 -0.000167511 -0.000243226 -0.000339859 -0.000457412 -0.000595883 -0.000756351 -0.00093989 -0.0011465 -0.00137618 -0.00162827 -0.00190208 -0.00219762 -0.00251489 -0.00285188 -0.0032066 -0.00357904 -0.0039692 -0.00437405 -0.00479055 -0.00521869 -0.00565848 -0.00610627 -0.0065584 -0.00701488 -0.0074757 -0.00793714 -0.00839549 -0.00885074 -0.00930288 -0.00974866 -0.0101848 -0.0106113 -0.0110282 -0.011433 -0.0118233 -0.0121992 -0.0125605 -0.012906 -0.013234 -0.0135447 -0.013838 -0.0141134 -0.0143703 -0.0146088 -0.0148288 -0.0150304 -0.0152137 -0.0153787 -0.0155253 -0.015654 -0.0157649 -0.0158582 -0.0159339 -0.0159921 -0.0160331 -0.016057 -0.0160638 -0.0160533 -0.0160258 -0.015981 -0.0159191 -0.0158399 -0.0157429 -0.0156283 -0.0154961 -0.0153459 -0.0151775 -0.0149908 -0.0147858 -0.0145626 -0.014321 -0.014061 -0.0137828 -0.0134867 -0.0131735 -0.0128431 -0.0124955 -0.0121322 -0.0117547 -0.0113629 -0.010957 -0.0105392 -0.0101121 -0.00967564 -0.00922986 -0.00877802 -0.00832337 -0.00786593 -0.00740568 -0.00694634 -0.00649161 -0.00604147 -0.00559594 -0.00515862 -0.00473312 -0.00431945 -0.00391759 -0.00353054 -0.00316128 -0.00280981 -0.00247613 -0.00216218 -0.00186992 -0.00159933 -0.00135042 -0.0011238 -0.000920108 -0.00073933 -0.000581468 -0.000445411 -0.000330044 -0.000235368 -0.000161382 -0.000104631 -6.16593e-05 -3.24658e-05 -1.7051e-05 -9.5912e-06 -4.26275e-06 -1.06569e-06 0 0 -2.22486e-06 -8.89944e-06 -2.00237e-05 -3.55977e-05 -6.20207e-05 -0.000105692 -0.000166611 -0.000244778 -0.000344136 -0.000468628 -0.000618255 -0.000793015 -0.000993995 -0.00122228 -0.00147787 -0.00176076 -0.00206998 -0.00240456 -0.00276448 -0.00314975 -0.00355782 -0.00398612 -0.00443466 -0.00490344 -0.00538869 -0.00588665 -0.00639732 -0.00692069 -0.00745234 -0.00798782 -0.00852714 -0.0090703 -0.00961285 -0.0101504 -0.0106828 -0.0112103 -0.0117289 -0.0122349 -0.0127282 -0.013209 -0.0136744 -0.0141219 -0.0145513 -0.0149627 -0.0153547 -0.0157259 -0.0160761 -0.0164055 -0.0167138 -0.0170005 -0.0172657 -0.0175093 -0.0177319 -0.0179337 -0.0181148 -0.0182752 -0.0184155 -0.0185363 -0.0186377 -0.0187196 -0.0187825 -0.0188268 -0.0188525 -0.0188597 -0.0188483 -0.0188183 -0.0187697 -0.0187026 -0.0186165 -0.0185109 -0.0183859 -0.0182415 -0.0180769 -0.0178918 -0.0176859 -0.0174594 -0.0172119 -0.016943 -0.0166527 -0.016341 -0.0160083 -0.0156549 -0.0152809 -0.0148862 -0.0144723 -0.0140408 -0.0135915 -0.0131245 -0.0126426 -0.0121483 -0.0116418 -0.0111231 -0.0105958 -0.0100639 -0.00952731 -0.00898604 -0.00844451 -0.00790714 -0.00737392 -0.00684485 -0.00632432 -0.00581673 -0.00532207 -0.00484034 -0.00437524 -0.00393047 -0.00350603 -0.00310192 -0.00272063 -0.00236465 -0.00203397 -0.0017286 -0.00144944 -0.00119741 -0.000972508 -0.000774737 -0.000602963 -0.000456054 -0.00033401 -0.000236829 -0.000160571 -0.000101291 -5.89895e-05 -3.36668e-05 -1.89376e-05 -8.4167e-06 -2.10418e-06 0 0 -3.69682e-06 -1.47873e-05 -3.32714e-05 -5.91491e-05 -9.91019e-05 -0.000159811 -0.000241277 -0.000343499 -0.000470792 -0.000627473 -0.000813541 -0.001029 -0.0012748 -0.00155193 -0.00186039 -0.00220016 -0.00256986 -0.0029681 -0.00339488 -0.0038502 -0.00433084 -0.00483361 -0.0053585 -0.00590551 -0.00647008 -0.00704764 -0.00763819 -0.00824173 -0.00885302 -0.00946678 -0.010083 -0.0107017 -0.0113178 -0.0119261 -0.0125266 -0.0131192 -0.0136999 -0.0142643 -0.0148125 -0.0153444 -0.0158572 -0.0163481 -0.0168172 -0.0172644 -0.0176884 -0.0180881 -0.0184635 -0.0188144 -0.0191412 -0.0194438 -0.0197222 -0.0199765 -0.0202075 -0.0204162 -0.0206027 -0.0207668 -0.0209097 -0.0210325 -0.0211351 -0.0212176 -0.0212808 -0.0213252 -0.0213509 -0.0213579 -0.0213462 -0.0213159 -0.0212668 -0.021199 -0.0211117 -0.0210044 -0.020877 -0.0207294 -0.0205607 -0.0203696 -0.0201563 -0.0199208 -0.0196621 -0.0193793 -0.0190725 -0.0187417 -0.0183868 -0.0180078 -0.0176046 -0.0171773 -0.0167272 -0.0162555 -0.0157622 -0.0152474 -0.0147139 -0.0141645 -0.0135993 -0.0130182 -0.0124255 -0.0118254 -0.011218 -0.0106032 -0.00998619 -0.00937201 -0.0087607 -0.00815225 -0.00755186 -0.00696475 -0.00639091 -0.00583034 -0.00528753 -0.00476698 -0.00426867 -0.00379262 -0.00334195 -0.00291978 -0.00252611 -0.00216095 -0.00182561 -0.00152139 -0.00124831 -0.00100636 -0.000794509 -0.00061174 -0.000458049 -0.000333437 -0.000233583 -0.000154166 -9.51868e-05 -5.66453e-05 -3.1863e-05 -1.41613e-05 -3.54033e-06 0 0 -5.57219e-06 -2.22888e-05 -5.01498e-05 -8.91551e-05 -0.000145996 -0.000227362 -0.000333255 -0.000463674 -0.000623194 -0.000816393 -0.00104327 -0.00130382 -0.00159878 -0.00192886 -0.00229406 -0.00269438 -0.00312791 -0.00359273 -0.00408883 -0.00461623 -0.00517096 -0.00574907 -0.00635055 -0.00697541 -0.00761821 -0.00827351 -0.00894131 -0.00962161 -0.0103083 -0.0109953 -0.0116825 -0.01237 -0.013052 -0.0137226 -0.0143819 -0.0150298 -0.0156618 -0.0162732 -0.016864 -0.0174344 -0.0179813 -0.0185022 -0.0189969 -0.0194655 -0.019907 -0.0203208 -0.0207067 -0.0210647 -0.0213956 -0.0217002 -0.0219784 -0.0222302 -0.0224573 -0.0226613 -0.0228423 -0.0230001 -0.0231366 -0.0232534 -0.0233506 -0.0234281 -0.023487 -0.0235284 -0.0235522 -0.0235585 -0.0235472 -0.0235184 -0.0234721 -0.0234082 -0.0233256 -0.0232234 -0.0231016 -0.02296 -0.0227971 -0.0226111 -0.022402 -0.0221698 -0.021913 -0.02163 -0.0213206 -0.020985 -0.0206224 -0.0202322 -0.0198144 -0.019369 -0.0188968 -0.0183989 -0.0178752 -0.0173257 -0.0167532 -0.0161607 -0.015548 -0.0149153 -0.0142671 -0.013608 -0.012938 -0.0122572 -0.0115714 -0.0108862 -0.0102018 -0.00951813 -0.00884124 -0.00817718 -0.00752597 -0.0068876 -0.00626743 -0.00567081 -0.00509774 -0.00454823 -0.00402613 -0.00353531 -0.00307576 -0.00264749 -0.00225231 -0.00189206 -0.00156673 -0.00127632 -0.00102005 -0.0007971 -0.000607487 -0.000451205 -0.000323667 -0.000220284 -0.000141058 -8.59865e-05 -4.83674e-05 -2.14966e-05 -5.37415e-06 0 0 -7.85099e-06 -3.14039e-05 -7.06589e-05 -0.000125616 -0.000202702 -0.000308345 -0.000442546 -0.000605303 -0.000801342 -0.00103539 -0.00130744 -0.0016175 -0.00196592 -0.00235304 -0.00277888 -0.00324342 -0.00374412 -0.00427842 -0.00484633 -0.00544785 -0.00607817 -0.00673249 -0.00741081 -0.00811314 -0.00883309 -0.00956427 -0.0103067 -0.0110603 -0.0118182 -0.0125733 -0.0133256 -0.0140751 -0.0148154 -0.0155399 -0.0162488 -0.0169419 -0.0176144 -0.0182614 -0.0188829 -0.0194789 -0.0200468 -0.020584 -0.0210904 -0.021566 -0.0220106 -0.0224238 -0.0228057 -0.0231563 -0.0234771 -0.0237698 -0.0240343 -0.0242706 -0.0244813 -0.024669 -0.0248336 -0.0249752 -0.0250963 -0.0251992 -0.0252841 -0.0253509 -0.0254012 -0.0254363 -0.0254564 -0.0254613 -0.0254512 -0.025426 -0.0253857 -0.0253302 -0.0252582 -0.025168 -0.0250597 -0.0249332 -0.0247862 -0.0246161 -0.0244229 -0.0242067 -0.0239648 -0.0236949 -0.0233969 -0.0230708 -0.022715 -0.0223282 -0.0219102 -0.0214611 -0.0209812 -0.020471 -0.0199303 -0.0193593 -0.0187605 -0.0181368 -0.017488 -0.0168143 -0.0161205 -0.0154115 -0.0146874 -0.0139481 -0.0132001 -0.0124498 -0.0116973 -0.0109425 -0.0101924 -0.00945402 -0.00872724 -0.00801211 -0.00731492 -0.00664196 -0.00599324 -0.00536874 -0.00477318 -0.00421123 -0.00368291 -0.0031882 -0.00272955 -0.00230941 -0.00192777 -0.00158464 -0.00127958 -0.00101214 -0.000782322 -0.000590133 -0.000430823 -0.000299646 -0.000196602 -0.00012169 -6.84508e-05 -3.04226e-05 -7.60564e-06 0 0 -1.05524e-05 -4.22097e-05 -9.49719e-05 -0.000168839 -0.000269657 -0.000403272 -0.000569684 -0.000768893 -0.00100562 -0.00128458 -0.00160578 -0.00196922 -0.00237471 -0.00282205 -0.00331126 -0.00384234 -0.00441195 -0.00501677 -0.00565681 -0.00633206 -0.00703676 -0.00776516 -0.00851726 -0.00929305 -0.0100851 -0.0108861 -0.0116959 -0.0125146 -0.0133343 -0.014147 -0.0149527 -0.0157515 -0.0165362 -0.0172999 -0.0180423 -0.0187637 -0.0194589 -0.0201229 -0.0207557 -0.0213572 -0.0219253 -0.0224577 -0.0229542 -0.0234151 -0.0238407 -0.0242316 -0.0245878 -0.0249094 -0.025199 -0.0254593 -0.0256904 -0.0258922 -0.0260685 -0.026223 -0.0263557 -0.0264667 -0.0265593 -0.0266371 -0.0267 -0.026748 -0.0267832 -0.0268076 -0.0268212 -0.026824 -0.0268161 -0.0267973 -0.0267677 -0.0267272 -0.0266739 -0.0266056 -0.0265224 -0.0264242 -0.0263076 -0.0261691 -0.0260088 -0.0258266 -0.0256188 -0.0253818 -0.0251156 -0.0248201 -0.0244928 -0.0241309 -0.0237346 -0.0233037 -0.0228379 -0.0223367 -0.0218002 -0.0212282 -0.0206232 -0.0199876 -0.0193212 -0.0186242 -0.0179016 -0.0171585 -0.0163949 -0.0156108 -0.0148133 -0.0140094 -0.0131992 -0.0123826 -0.0115676 -0.0107619 -0.00996552 -0.00917856 -0.00840828 -0.00766199 -0.00693969 -0.00624139 -0.00557271 -0.00493929 -0.00434114 -0.00377825 -0.00325383 -0.00277107 -0.00232998 -0.00193055 -0.00157286 -0.001257 -0.000982957 -0.000750742 -0.000555597 -0.000392769 -0.000262259 -0.000164067 -9.22877e-05 -4.10168e-05 -1.02542e-05 0 0 -1.36958e-05 -5.47831e-05 -0.000123262 -0.000219132 -0.000347296 -0.000512653 -0.000715205 -0.00095495 -0.00123641 -0.0015641 -0.00193802 -0.00235817 -0.00282362 -0.00333344 -0.00388763 -0.00448618 -0.00512484 -0.00579935 -0.00650969 -0.00725587 -0.00803105 -0.00882838 -0.00964785 -0.0104895 -0.0113447 -0.0122051 -0.0130706 -0.0139413 -0.0148082 -0.0156626 -0.0165044 -0.0173336 -0.0181427 -0.0189241 -0.0196776 -0.0204034 -0.0210964 -0.0217515 -0.0223689 -0.0229484 -0.0234884 -0.0239873 -0.0244451 -0.0248618 -0.025239 -0.0255785 -0.0258802 -0.0261442 -0.0263747 -0.0265757 -0.0267474 -0.0268897 -0.0270079 -0.0271072 -0.0271875 -0.0272491 -0.0272963 -0.0273341 -0.0273624 -0.0273811 -0.027393 -0.0274008 -0.0274045 -0.0274042 -0.0273997 -0.0273911 -0.0273783 -0.0273614 -0.0273376 -0.0273041 -0.0272609 -0.027208 -0.0271408 -0.0270546 -0.0269493 -0.026825 -0.0266764 -0.0264984 -0.026291 -0.0260541 -0.0257837 -0.0254757 -0.02513 -0.0247468 -0.0243244 -0.0238612 -0.0233572 -0.0228125 -0.0222287 -0.0216077 -0.0209495 -0.020254 -0.0195263 -0.0187715 -0.0179896 -0.0171806 -0.0163522 -0.0155119 -0.0146597 -0.0137957 -0.0129286 -0.0120673 -0.0112116 -0.0103616 -0.00952579 -0.00871247 -0.00792166 -0.00715338 -0.00641432 -0.00571121 -0.00504404 -0.00441282 -0.00382166 -0.00327468 -0.00277189 -0.00231328 -0.00189966 -0.00153183 -0.0012098 -0.000933553 -0.000698533 -0.000500172 -0.00033847 -0.000213427 -0.000120053 -5.33568e-05 -1.33392e-05 0 0 -1.7281e-05 -6.91241e-05 -0.000155529 -0.000276496 -0.000435619 -0.000636489 -0.000879108 -0.00116347 -0.00149371 -0.00187393 -0.00230415 -0.00278435 -0.00331266 -0.0038872 -0.00450797 -0.00517496 -0.00588282 -0.00662616 -0.00740498 -0.0082193 -0.00906104 -0.00992213 -0.0108026 -0.0117024 -0.0126119 -0.0135214 -0.0144308 -0.0153403 -0.0162399 -0.01712 -0.0179805 -0.0188215 -0.0196349 -0.0204126 -0.0211546 -0.021861 -0.0225268 -0.0231473 -0.0237225 -0.0242523 -0.0247361 -0.025173 -0.025563 -0.0259061 -0.0262056 -0.0264645 -0.0266829 -0.0268608 -0.0270041 -0.027119 -0.0272053 -0.0272631 -0.0272995 -0.0273214 -0.0273291 -0.0273223 -0.0273074 -0.0272904 -0.0272713 -0.0272502 -0.0272305 -0.0272159 -0.0272063 -0.0272017 -0.027202 -0.0272073 -0.0272175 -0.0272326 -0.0272491 -0.0272632 -0.0272751 -0.0272848 -0.0272859 -0.0272725 -0.0272445 -0.0272018 -0.0271375 -0.0270446 -0.0269229 -0.0267727 -0.0265878 -0.0263625 -0.0260967 -0.0257904 -0.0254406 -0.0250443 -0.0246015 -0.0241121 -0.0235771 -0.0229973 -0.0223728 -0.0217035 -0.0209944 -0.0202503 -0.0194713 -0.0186574 -0.0178167 -0.0169571 -0.0160789 -0.0151818 -0.0142757 -0.0133702 -0.0124654 -0.0115613 -0.0106674 -0.00979338 -0.00893914 -0.00810472 -0.00729804 -0.006527 -0.00579162 -0.0050919 -0.00443303 -0.00382023 -0.0032535 -0.00273284 -0.00225998 -0.00183665 -0.00146284 -0.00113857 -0.000859631 -0.000621854 -0.000425234 -0.00026977 -0.000151746 -6.74425e-05 -1.68606e-05 0 0 -2.13082e-05 -8.52326e-05 -0.000191773 -0.00034093 -0.000534625 -0.00077478 -0.00106139 -0.00139447 -0.00177753 -0.00221409 -0.00270417 -0.00324776 -0.00384183 -0.00448334 -0.00517229 -0.00590867 -0.00668586 -0.0074972 -0.00834269 -0.00922233 -0.0101267 -0.0110464 -0.0119815 -0.0129319 -0.0138866 -0.0148348 -0.0157765 -0.0167116 -0.0176294 -0.0185193 -0.0193812 -0.0202151 -0.0210127 -0.0217654 -0.0224733 -0.0231364 -0.0237502 -0.0243103 -0.0248166 -0.0252692 -0.0256684 -0.0260146 -0.0263079 -0.0265481 -0.0267404 -0.0268897 -0.0269959 -0.0270591 -0.0270874 -0.0270891 -0.027064 -0.0270123 -0.0269432 -0.0268659 -0.0267803 -0.0266866 -0.0265925 -0.0265059 -0.0264269 -0.0263554 -0.0262959 -0.026253 -0.0262265 -0.0262166 -0.0262231 -0.026246 -0.0262852 -0.0263409 -0.0264084 -0.0264832 -0.0265651 -0.0266544 -0.0267429 -0.0268229 -0.0268943 -0.0269571 -0.0270022 -0.0270204 -0.0270116 -0.0269758 -0.0269051 -0.0267913 -0.0266344 -0.0264345 -0.0261867 -0.0258862 -0.025533 -0.0251271 -0.0246683 -0.0241563 -0.0235912 -0.0229729 -0.022306 -0.0215951 -0.0208402 -0.0200413 -0.0192068 -0.0183452 -0.0174566 -0.0165409 -0.0156087 -0.0146708 -0.0137271 -0.0127776 -0.0118332 -0.0109047 -0.00999212 -0.00909541 -0.00822384 -0.00738666 -0.00658388 -0.00581548 -0.00508794 -0.00440772 -0.00377481 -0.00318923 -0.00265381 -0.00217143 -0.00174209 -0.00136578 -0.00103889 -0.000757816 -0.00052255 -0.000333097 -0.000187367 -8.32741e-05 -2.08185e-05 0 0 -2.57486e-05 -0.000102994 -0.000231738 -0.000411978 -0.000643595 -0.000926467 -0.00126059 -0.00164598 -0.00208533 -0.00258135 -0.00313405 -0.00374342 -0.00440504 -0.00511451 -0.0058718 -0.00667693 -0.00752179 -0.00839826 -0.00930636 -0.0102461 -0.0112065 -0.0121768 -0.0131568 -0.0141467 -0.0151342 -0.0161069 -0.0170648 -0.018008 -0.0189248 -0.0198036 -0.0206444 -0.0214471 -0.0222032 -0.0229038 -0.0235491 -0.0241389 -0.0246695 -0.0251369 -0.0255411 -0.0258822 -0.026162 -0.0263823 -0.0265431 -0.0266445 -0.0266936 -0.0266975 -0.0266564 -0.02657 -0.0264494 -0.0263051 -0.0261372 -0.0259457 -0.0257424 -0.025539 -0.0253356 -0.025132 -0.0249384 -0.0247644 -0.0246101 -0.0244756 -0.0243663 -0.024288 -0.0242406 -0.024224 -0.0242383 -0.0242833 -0.0243591 -0.0244656 -0.0245971 -0.024748 -0.0249182 -0.0251077 -0.0253066 -0.0255049 -0.0257026 -0.0258998 -0.0260847 -0.0262456 -0.0263825 -0.0264954 -0.0265736 -0.0266066 -0.0265942 -0.0265366 -0.0264267 -0.0262576 -0.0260292 -0.0257416 -0.025393 -0.0249819 -0.0245082 -0.023972 -0.0233771 -0.0227278 -0.0220239 -0.0212654 -0.0204611 -0.0196198 -0.0187415 -0.0178261 -0.0168853 -0.0159307 -0.0149622 -0.0139798 -0.0129958 -0.0120223 -0.0110593 -0.0101068 -0.00917552 -0.00827618 -0.00740879 -0.00657335 -0.00577776 -0.00502993 -0.00432985 -0.00367753 -0.00307719 -0.00253303 -0.00204507 -0.00161329 -0.00123488 -0.000907021 -0.000629715 -0.000402959 -0.000226665 -0.00010074 -2.5185e-05 0 0 -3.05738e-05 -0.000122295 -0.000275165 -0.000489182 -0.000761805 -0.00109049 -0.00147524 -0.00191606 -0.00241459 -0.00297247 -0.00358972 -0.00426632 -0.00499622 -0.00577336 -0.00659773 -0.00746934 -0.0083784 -0.00931514 -0.0102795 -0.0112716 -0.0122788 -0.0132886 -0.014301 -0.0153159 -0.0163198 -0.0172987 -0.0182529 -0.0191822 -0.0200741 -0.020916 -0.0217081 -0.0224501 -0.0231334 -0.0237491 -0.0242972 -0.0247776 -0.0251875 -0.0255236 -0.025786 -0.0259748 -0.0260935 -0.026146 -0.0261321 -0.0260519 -0.0259151 -0.0257317 -0.0255016 -0.0252247 -0.0249149 -0.0245861 -0.0242383 -0.0238714 -0.0235002 -0.0231394 -0.0227891 -0.0224492 -0.022132 -0.0218496 -0.0216023 -0.0213898 -0.0212191 -0.0210971 -0.0210238 -0.0209992 -0.0210231 -0.0210955 -0.0212165 -0.0213858 -0.0215967 -0.0218419 -0.0221216 -0.0224356 -0.0227717 -0.0231177 -0.0234733 -0.0238388 -0.0241993 -0.0245402 -0.0248615 -0.0251631 -0.0254314 -0.0256527 -0.025827 -0.0259543 -0.0260249 -0.0260294 -0.0259677 -0.0258398 -0.0256422 -0.0253715 -0.0250277 -0.0246107 -0.0241239 -0.0235703 -0.02295 -0.0222631 -0.0215183 -0.0207247 -0.0198822 -0.0189908 -0.0180631 -0.0171116 -0.0161363 -0.0151372 -0.0141279 -0.013122 -0.0121194 -0.0111203 -0.0101369 -0.00918156 -0.00825436 -0.00735527 -0.00649384 -0.00567963 -0.00491263 -0.00419286 -0.00352613 -0.00291828 -0.00236929 -0.00187918 -0.00144615 -0.00106843 -0.000746021 -0.000478912 -0.000269388 -0.000119728 -2.9932e-05 0 0 -3.57838e-05 -0.000143135 -0.000322055 -0.000572541 -0.000889255 -0.00126685 -0.00170534 -0.00220471 -0.00276531 -0.00338747 -0.00407119 -0.00481647 -0.00561536 -0.0064599 -0.00735008 -0.00828591 -0.00925571 -0.0102478 -0.0112623 -0.012299 -0.0133437 -0.014382 -0.0154139 -0.0164395 -0.0174434 -0.0184105 -0.0193407 -0.0202341 -0.0210773 -0.0218566 -0.0225722 -0.0232241 -0.0238034 -0.0243012 -0.0247176 -0.0250526 -0.0253042 -0.0254704 -0.0255514 -0.025547 -0.0254631 -0.0253057 -0.0250748 -0.0247703 -0.0244051 -0.0239922 -0.0235315 -0.023023 -0.0224841 -0.0219322 -0.0213673 -0.0207894 -0.0202166 -0.0196671 -0.0191409 -0.0186379 -0.0181732 -0.0177617 -0.0174033 -0.017098 -0.0168543 -0.0166804 -0.0165763 -0.0165421 -0.0165776 -0.0166827 -0.0168574 -0.0171017 -0.017407 -0.0177649 -0.0181752 -0.0186381 -0.0191384 -0.0196612 -0.0202064 -0.020774 -0.021346 -0.0219041 -0.0224485 -0.022979 -0.0234785 -0.0239297 -0.0243328 -0.0246875 -0.0249814 -0.0252017 -0.0253485 -0.0254217 -0.0254157 -0.025325 -0.0251495 -0.0248891 -0.0245461 -0.0241227 -0.0236187 -0.0230343 -0.0223783 -0.0216597 -0.0208786 -0.0200349 -0.0191421 -0.0182137 -0.0172496 -0.0162498 -0.0152295 -0.0142037 -0.0131725 -0.0121358 -0.0111079 -0.0101028 -0.00912059 -0.00816124 -0.00723618 -0.00635682 -0.00552316 -0.00473521 -0.00400065 -0.00332717 -0.00271477 -0.00216345 -0.00167272 -0.00124206 -0.000871469 -0.000560955 -0.000315537 -0.000140239 -3.50597e-05 0 0 -4.13786e-05 -0.000165514 -0.000372407 -0.000662057 -0.00102595 -0.00145556 -0.00195088 -0.00251193 -0.00313749 -0.00382633 -0.00457846 -0.00539387 -0.00626247 -0.00717412 -0.00812884 -0.00912663 -0.0101537 -0.0111963 -0.0122545 -0.0133282 -0.0144011 -0.015457 -0.0164957 -0.0175173 -0.018505 -0.019442 -0.0203283 -0.0211639 -0.0219343 -0.0226254 -0.0232369 -0.0237691 -0.0242131 -0.0245602 -0.0248104 -0.0249637 -0.0250196 -0.0249774 -0.0248371 -0.0245987 -0.0242707 -0.0238616 -0.0233712 -0.0227997 -0.0221635 -0.021479 -0.0207461 -0.019965 -0.0191569 -0.0183434 -0.0175243 -0.0166997 -0.0158916 -0.015122 -0.0143909 -0.0136983 -0.0130622 -0.0125005 -0.0120132 -0.0116003 -0.0112718 -0.0110377 -0.010898 -0.0108527 -0.0109016 -0.0110447 -0.0112818 -0.0116131 -0.0120282 -0.0125169 -0.0130793 -0.0137152 -0.0144066 -0.0151355 -0.0159018 -0.0167056 -0.0175247 -0.0183374 -0.0191435 -0.019943 -0.0207148 -0.0214376 -0.0221115 -0.0227363 -0.023296 -0.0237744 -0.0241715 -0.0244873 -0.0247137 -0.0248424 -0.0248736 -0.0248071 -0.024644 -0.0243849 -0.0240299 -0.023579 -0.0230411 -0.0224251 -0.0217308 -0.0209585 -0.0201223 -0.0192368 -0.0183019 -0.017