<?xml version="1.0"?> 
<VTKFile type="StructuredGrid" version="0.1"> 
<StructuredGrid WholeExtent="0 128 0 128 0 0"> 
<Piece Extent="0 128 0 128 0 0"> 
<PointData>
<DataArray type="Float32" Name="u" format="ascii" NumberOfComponents="1"> 
0 0 0 0 0 0 0 0 0 0 0 0 0 0 0 0 0 0 0 0 0 0 0 0 0 0 0 0 0 0 0 0 0 0 0 0 0 0 0 0 0 0 0 0 0 0 0 0 0 0 0 0 0 0 0 0 0 0 0 0 0 0 0 0 0 0 0 0 0 0 0 0 0 0 0 0 0 0 0 0 0 0 0 0 0 0 0 0 0 0 0 0 0 0 0 0 0 0 0 0 0 0 0 0 0 0 0 0 0 0 0 0 0 0 0 0 0 0 0 0 0 0 0 0 0 0 0 0 0 0 -1.67055e-07 -6.68221e-07 -1.5035e-06 -2.67288e-06 -4.20953e-06 -6.14658e-06 -8.48404e-06 -1.12219e-05 -1.43696e-05 -1.79367e-05 -2.1923e-05 -2.63287e-05 -3.11115e-05 -3.62291e-05 -4.16816e-05 -4.7469e-05 -5.35385e-05 -5.98373e-05 -6.63654e-05 -7.31227e-05 -8.00514e-05 -8.70937e-05 -9.42495e-05 -0.000101519 -0.000108841 -0.000116154 -0.000123459 -0.000130755 -0.000137983 -0.000145085 -0.00015206 -0.000158908 -0.000165579 -0.000172024 -0.000178242 -0.000184233 -0.000189965 -0.000195405 -0.000200552 -0.000205407 -0.000209959 -0.000214196 -0.000218118 -0.000221726 -0.000225031 -0.000228042 -0.000230761 -0.000233187 -0.000235347 -0.00023727 -0.000238955 -0.000240403 -0.000241648 -0.000242725 -0.000243634 -0.000244377 -0.000244982 -0.000245484 -0.000245881 -0.000246173 -0.00024638 -0.000246519 -0.00024659 -0.000246593 -0.000246529 -0.000246396 -0.000246196 -0.000245927 -0.000245572 -0.00024511 -0.000244544 -0.000243871 -0.000243062 -0.000242084 -0.000240937 -0.000239621 -0.000238102 -0.000236345 -0.00023435 -0.000232117 -0.00022962 -0.000226831 -0.00022375 -0.000220378 -0.000216705 -0.000212721 -0.000208426 -0.00020382 -0.000198915 -0.000193723 -0.000188245 -0.000182479 -0.000176461 -0.000170223 -0.000163765 -0.000157088 -0.000150242 -0.000143276 -0.000136191 -0.000128987 -0.000121723 -0.000114457 -0.00010719 -9.99221e-05 -9.27128e-05 -8.56226e-05 -7.86516e-05 -7.17996e-05 -6.51234e-05 -5.86794e-05 -5.24677e-05 -4.64882e-05 -4.0792e-05 -3.54302e-05 -3.04025e-05 -2.57092e-05 -2.13903e-05 -1.74858e-05 -1.39958e-05 -1.09204e-05 -8.24867e-06 -5.97004e-06 -4.08446e-06 -2.59196e-06 -1.45797e-06 -6.47989e-07 -1.61997e-07 0 0 -6.68221e-07 -2.67288e-06 -6.01399e-06 -1.06915e-05 -1.68381e-05 -2.45863e-05 -3.39362e-05 -4.48876e-05 -5.74785e-05 -7.17467e-05 -8.76921e-05 -0.000105315 -0.000124446 -0.000144916 -0.000166727 -0.000189876 -0.000214154 -0.000239349 -0.000265461 -0.000292491 -0.000320206 -0.000348375 -0.000376998 -0.000406075 -0.000435362 -0.000464615 -0.000493834 -0.00052302 -0.000551934 -0.000580341 -0.00060824 -0.000635632 -0.000662316 -0.000688095 -0.000712967 -0.000736933 -0.000759861 -0.000781619 -0.000802208 -0.000821628 -0.000839835 -0.000856783 -0.000872473 -0.000886905 -0.000900123 -0.000912169 -0.000923044 -0.000932747 -0.000941389 -0.000949081 -0.000955822 -0.000961611 -0.000966591 -0.0009709 -0.000974538 -0.000977506 -0.00097993 -0.000981936 -0.000983524 -0.000984693 -0.000985519 -0.000986074 -0.000986359 -0.000986373 -0.000986115 -0.000985585 -0.000984783 -0.000983708 -0.000982286 -0.000980442 -0.000978175 -0.000975485 -0.000972247 -0.000968334 -0.000963746 -0.000958483 -0.000952407 -0.000945379 -0.0009374 -0.000928468 -0.000918478 -0.000907322 -0.000895001 -0.000881513 -0.000866821 -0.000850884 -0.000833704 -0.00081528 -0.00079566 -0.000774893 -0.000752979 -0.000729917 -0.000705843 -0.000680891 -0.000655061 -0.000628353 -0.000600967 -0.000573105 -0.000544765 -0.000515949 -0.000486892 -0.000457829 -0.000428761 -0.000399688 -0.000370851 -0.00034249 -0.000314606 -0.000287199 -0.000260494 -0.000234718 -0.000209871 -0.000185953 -0.000163168 -0.000141721 -0.00012161 -0.000102837 -8.5561e-05 -6.99432e-05 -5.59834e-05 -4.36815e-05 -3.29947e-05 -2.38801e-05 -1.63379e-05 -1.03678e-05 -5.8319e-06 -2.59196e-06 -6.47989e-07 0 0 -1.5035e-06 -6.01399e-06 -1.35315e-05 -2.4056e-05 -3.78858e-05 -5.53192e-05 -7.63564e-05 -0.000100997 -0.000129327 -0.00016143 -0.000197307 -0.000236958 -0.000280003 -0.000326062 -0.000375135 -0.000427221 -0.000481847 -0.000538536 -0.000597288 -0.000658104 -0.000720463 -0.000783843 -0.000848245 -0.000913669 -0.000979565 -0.00104538 -0.00111113 -0.00117679 -0.00124185 -0.00130577 -0.00136854 -0.00143017 -0.00149021 -0.00154821 -0.00160418 -0.0016581 -0.00170969 -0.00175864 -0.00180497 -0.00184866 -0.00188963 -0.00192776 -0.00196306 -0.00199554 -0.00202528 -0.00205238 -0.00207685 -0.00209868 -0.00211813 -0.00213543 -0.0021506 -0.00216363 -0.00217483 -0.00218452 -0.00219271 -0.00219939 -0.00220484 -0.00220936 -0.00221293 -0.00221556 -0.00221742 -0.00221867 -0.00221931 -0.00221934 -0.00221876 -0.00221757 -0.00221576 -0.00221334 -0.00221014 -0.00220599 -0.00220089 -0.00219484 -0.00218756 -0.00217875 -0.00216843 -0.00215659 -0.00214292 -0.0021271 -0.00210915 -0.00208905 -0.00206658 -0.00204148 -0.00201375 -0.0019834 -0.00195035 -0.00191449 -0.00187583 -0.00183438 -0.00179023 -0.00174351 -0.0016942 -0.00164231 -0.00158815 -0.001532 -0.00147389 -0.00141379 -0.00135218 -0.00128949 -0.00122572 -0.00116088 -0.00109551 -0.00103012 -0.000964713 -0.000899299 -0.000834415 -0.000770604 -0.000707864 -0.000646197 -0.00058611 -0.000528115 -0.000472209 -0.000418394 -0.000367128 -0.000318871 -0.000273623 -0.000231383 -0.000192512 -0.000157372 -0.000125963 -9.82833e-05 -7.4238e-05 -5.37303e-05 -3.67602e-05 -2.33276e-05 -1.31218e-05 -5.8319e-06 -1.45797e-06 0 0 -2.67288e-06 -1.06915e-05 -2.4056e-05 -4.27662e-05 -6.73525e-05 -9.83453e-05 -0.000135745 -0.00017955 -0.000229914 -0.000286987 -0.000350768 -0.000421259 -0.000497783 -0.000579666 -0.000666906 -0.000759505 -0.000856617 -0.000957397 -0.00106185 -0.00116996 -0.00128082 -0.0013935 -0.00150799 -0.0016243 -0.00174145 -0.00185846 -0.00197534 -0.00209208 -0.00220774 -0.00232136 -0.00243296 -0.00254253 -0.00264927 -0.00275238 -0.00285187 -0.00294773 -0.00303944 -0.00312648 -0.00320883 -0.00328651 -0.00335934 -0.00342713 -0.00348989 -0.00354762 -0.00360049 -0.00364868 -0.00369218 -0.00373099 -0.00376556 -0.00379632 -0.00382329 -0.00384645 -0.00386636 -0.0038836 -0.00389815 -0.00391002 -0.00391972 -0.00392774 -0.00393409 -0.00393877 -0.00394208 -0.0039443 -0.00394543 -0.00394549 -0.00394446 -0.00394234 -0.00393913 -0.00393483 -0.00392915 -0.00392177 -0.0039127 -0.00390194 -0.00388899 -0.00387334 -0.00385498 -0.00383393 -0.00380963 -0.00378152 -0.0037496 -0.00371387 -0.00367391 -0.00362929 -0.00358 -0.00352605 -0.00346728 -0.00340354 -0.00333482 -0.00326112 -0.00318264 -0.00309957 -0.00301191 -0.00291967 -0.00282337 -0.00272356 -0.00262024 -0.00251341 -0.00240387 -0.00229242 -0.00217906 -0.0020638 -0.00194757 -0.00183132 -0.00171505 -0.00159875 -0.0014834 -0.00136996 -0.00125843 -0.00114879 -0.00104197 -0.00093887 -0.000839483 -0.000743812 -0.000652673 -0.000566882 -0.000486441 -0.000411347 -0.000342244 -0.000279773 -0.000223933 -0.000174726 -0.000131979 -9.55206e-05 -6.53514e-05 -4.14713e-05 -2.33276e-05 -1.03678e-05 -2.59196e-06 0 0 -4.20711e-06 -1.68284e-05 -3.7864e-05 -6.73137e-05 -0.00010585 -0.000154144 -0.000212197 -0.000280009 -0.00035778 -0.000445711 -0.000543802 -0.000652054 -0.000769415 -0.000894834 -0.00102831 -0.00116985 -0.00131813 -0.00147187 -0.00163104 -0.00179566 -0.0019643 -0.00213553 -0.00230935 -0.00248575 -0.00266325 -0.00284034 -0.00301703 -0.00319331 -0.00336774 -0.00353888 -0.00370673 -0.00387129 -0.00403135 -0.00418571 -0.00433438 -0.00447736 -0.00461386 -0.00474311 -0.00486511 -0.00497986 -0.00508713 -0.00518668 -0.00527852 -0.00536263 -0.00543934 -0.00550895 -0.00557146 -0.00562686 -0.00567588 -0.00571924 -0.00575693 -0.00578895 -0.00581621 -0.0058396 -0.00585911 -0.00587475 -0.00588732 -0.00589763 -0.00590566 -0.00591142 -0.00591538 -0.005918 -0.00591929 -0.00591924 -0.00591785 -0.00591511 -0.00591102 -0.00590559 -0.00589832 -0.00588877 -0.00587691 -0.00586275 -0.00584549 -0.00582433 -0.00579927 -0.0057703 -0.00573655 -0.00569712 -0.00565202 -0.00560124 -0.00554409 -0.00547987 -0.00540858 -0.00533021 -0.0052445 -0.00515115 -0.00505017 -0.00494155 -0.00482555 -0.00470245 -0.00457222 -0.00443488 -0.00429122 -0.00414203 -0.00398732 -0.00382709 -0.00366254 -0.00349489 -0.00332413 -0.00315027 -0.00297474 -0.00279898 -0.002623 -0.00244679 -0.00227182 -0.00209959 -0.00193008 -0.0017633 -0.00160064 -0.00144351 -0.00129189 -0.0011458 -0.00100649 -0.000875218 -0.000751997 -0.000636821 -0.000530691 -0.000434604 -0.000348563 -0.000272565 -0.00020638 -0.000149776 -0.000102752 -6.53076e-05 -3.67355e-05 -1.63269e-05 -4.08173e-06 0 0 -6.1369e-06 -2.45476e-05 -5.52321e-05 -9.81904e-05 -0.000153989 -0.000223196 -0.000305811 -0.000401833 -0.000511462 -0.000634896 -0.000772135 -0.000923179 -0.00108653 -0.00126067 -0.00144562 -0.00164137 -0.00184607 -0.00205787 -0.00227678 -0.0025028 -0.00273392 -0.00296813 -0.00320543 -0.00344582 -0.00368721 -0.00392753 -0.00416677 -0.00440493 -0.00464002 -0.00487008 -0.00509508 -0.00531504 -0.00552834 -0.00573334 -0.00593007 -0.00611851 -0.00629766 -0.00646652 -0.0066251 -0.00677339 -0.00691116 -0.0070382 -0.00715449 -0.00726005 -0.0073554 -0.00744109 -0.00751712 -0.00758349 -0.00764129 -0.00769165 -0.00773457 -0.00777003 -0.0077994 -0.007824 -0.00784384 -0.00785892 -0.00787042 -0.00787953 -0.00788626 -0.00789059 -0.00789322 -0.00789483 -0.00789543 -0.00789501 -0.00789356 -0.00789108 -0.00788756 -0.00788301 -0.00787672 -0.00786799 -0.00785683 -0.00784323 -0.00782601 -0.00780397 -0.00777713 -0.00774547 -0.00770767 -0.00766241 -0.00760967 -0.00754946 -0.0074807 -0.00740231 -0.0073143 -0.00721665 -0.00710886 -0.00699045 -0.0068614 -0.00672172 -0.00657166 -0.0064115 -0.00624123 -0.00606085 -0.00587139 -0.00567388 -0.00546832 -0.00525471 -0.00503468 -0.00480987 -0.00458027 -0.00434589 -0.00410869 -0.00387067 -0.00363182 -0.00339213 -0.00315367 -0.0029185 -0.00268662 -0.00245803 -0.00223468 -0.00201856 -0.00180964 -0.00160795 -0.00141525 -0.00123334 -0.00106223 -0.000901896 -0.000753786 -0.000619327 -0.000498517 -0.000391358 -0.000297607 -0.000217021 -0.000149601 -9.53453e-05 -5.36317e-05 -2.38363e-05 -5.95908e-06 0 0 -8.46225e-06 -3.3849e-05 -7.61602e-05 -0.000135396 -0.000211771 -0.000305501 -0.000416585 -0.000545024 -0.000690962 -0.000854543 -0.00103577 -0.00123463 -0.00144912 -0.00167718 -0.00191883 -0.00217406 -0.00244042 -0.00271542 -0.00299907 -0.00329138 -0.00358967 -0.00389129 -0.00419623 -0.00450449 -0.00481334 -0.00512002 -0.00542456 -0.00572693 -0.00602458 -0.00631494 -0.00659801 -0.00687379 -0.00714023 -0.00739527 -0.00763892 -0.00787118 -0.00809084 -0.00829672 -0.0084888 -0.00866709 -0.00883144 -0.00898168 -0.00911782 -0.00923987 -0.00934867 -0.00944511 -0.00952917 -0.00960086 -0.00966179 -0.00971357 -0.0097562 -0.00978968 -0.00981591 -0.0098368 -0.00985233 -0.00986251 -0.009869 -0.00987346 -0.00987589 -0.00987628 -0.00987559 -0.00987478 -0.00987385 -0.00987279 -0.00987159 -0.00987025 -0.00986875 -0.0098671 -0.00986432 -0.00985945 -0.00985247 -0.00984339 -0.00983054 -0.00981227 -0.00978857 -0.00975945 -0.00972301 -0.00967738 -0.00962256 -0.00955854 -0.00948376 -0.00939663 -0.00929716 -0.00918535 -0.00906038 -0.00892143 -0.00876851 -0.00860162 -0.00842096 -0.00822673 -0.00801894 -0.00779758 -0.00756389 -0.00731911 -0.00706324 -0.00679628 -0.0065203 -0.00623737 -0.00594749 -0.00565065 -0.00534943 -0.00504638 -0.00474149 -0.00443478 -0.00412895 -0.00382671 -0.00352804 -0.00323297 -0.00294409 -0.00266401 -0.00239273 -0.00213025 -0.00187897 -0.00164126 -0.00141713 -0.00120657 -0.00101153 -0.000833939 -0.000673797 -0.000531104 -0.000405659 -0.000297257 -0.000205899 -0.000131584 -7.40162e-05 -3.28961e-05 -8.22403e-06 0 0 -1.11832e-05 -4.47327e-05 -0.000100648 -0.000178931 -0.000279195 -0.000401059 -0.000544521 -0.000709582 -0.000896279 -0.00110465 -0.0013347 -0.00158642 -0.00185719 -0.00214436 -0.00244795 -0.00276794 -0.00310118 -0.00344451 -0.00379791 -0.0041614 -0.00453157 -0.00490502 -0.00528175 -0.00566177 -0.00604161 -0.00641782 -0.00679039 -0.00715932 -0.00752142 -0.00787349 -0.00821553 -0.00854753 -0.00886702 -0.00917149 -0.00946094 -0.00973537 -0.00999342 -0.0102337 -0.0104562 -0.010661 -0.010848 -0.0110171 -0.0111685 -0.0113021 -0.0114192 -0.011521 -0.0116076 -0.011679 -0.0117374 -0.011785 -0.0118218 -0.0118479 -0.0118658 -0.011878 -0.0118846 -0.0118855 -0.0118831 -0.0118794 -0.0118746 -0.0118685 -0.0118625 -0.0118579 -0.0118545 -0.0118526 -0.0118519 -0.0118526 -0.0118546 -0.0118579 -0.0118611 -0.0118631 -0.0118638 -0.0118632 -0.0118591 -0.0118492 -0.0118336 -0.0118122 -0.0117826 -0.011742 -0.0116907 -0.0116285 -0.0115532 -0.0114628 -0.0113572 -0.0112363 -0.011099 -0.0109441 -0.0107715 -0.0105813 -0.0103735 -0.0101481 -0.00990535 -0.00964506 -0.00936871 -0.00907771 -0.00877207 -0.0084518 -0.00811939 -0.00777739 -0.00742578 -0.00706457 -0.00669695 -0.0063261 -0.00595203 -0.00557475 -0.00519766 -0.0048242 -0.00445435 -0.00408813 -0.00372886 -0.00337987 -0.00304116 -0.00271272 -0.00239764 -0.00209896 -0.0018167 -0.00155085 -0.00130392 -0.00107844 -0.000874402 -0.000691804 -0.000530535 -0.000390482 -0.000271645 -0.000174025 -9.7889e-05 -4.35062e-05 -1.08766e-05 0 0 -1.42994e-05 -5.71977e-05 -0.000128695 -0.000228791 -0.000356224 -0.000509734 -0.000689319 -0.000894981 -0.00112656 -0.0013839 -0.001667 -0.00197586 -0.00230714 -0.00265751 -0.00302696 -0.0034155 -0.00381917 -0.00423401 -0.00466004 -0.00509724 -0.00554141 -0.00598832 -0.00643798 -0.00689039 -0.0073413 -0.00778648 -0.00822592 -0.00865962 -0.00908374 -0.00949441 -0.00989163 -0.0102754 -0.0106428 -0.010991 -0.0113198 -0.0116293 -0.0119181 -0.0121846 -0.0124289 -0.0126509 -0.0128509 -0.013029 -0.0131854 -0.01332 -0.0134346 -0.0135311 -0.0136095 -0.0136698 -0.013715 -0.0137481 -0.0137691 -0.013778 -0.0137782 -0.0137731 -0.0137627 -0.0137469 -0.0137287 -0.013711 -0.0136938 -0.0136771 -0.0136624 -0.0136516 -0.0136445 -0.0136412 -0.0136417 -0.0136459 -0.0136538 -0.0136654 -0.0136791 -0.0136931 -0.0137075 -0.0137222 -0.0137343 -0.013741 -0.0137422 -0.0137379 -0.0137247 -0.0136994 -0.0136618 -0.0136121 -0.0135471 -0.0134641 -0.013363 -0.0132438 -0.0131047 -0.0129439 -0.0127615 -0.0125575 -0.0123316 -0.0120838 -0.0118141 -0.0115224 -0.0112104 -0.0108795 -0.0105298 -0.0101612 -0.00977673 -0.00937934 -0.00896904 -0.0085458 -0.0081135 -0.00767597 -0.00723321 -0.00678523 -0.00633623 -0.0058904 -0.00544774 -0.00500824 -0.00457605 -0.00415529 -0.00374596 -0.00334807 -0.00296544 -0.00260191 -0.00225749 -0.00193216 -0.00162913 -0.00135159 -0.00109954 -0.000872981 -0.000671976 -0.00049659 -0.000346823 -0.000222676 -0.000125255 -5.56689e-05 -1.39172e-05 0 0 -1.78108e-05 -7.1243e-05 -0.000160297 -0.000284972 -0.00044282 -0.00063139 -0.000850683 -0.0011007 -0.00138095 -0.00169097 -0.00203074 -0.00240027 -0.00279539 -0.00321193 -0.00364988 -0.00410924 -0.00458517 -0.00507283 -0.00557221 -0.00608331 -0.00660101 -0.00712021 -0.00764089 -0.00816306 -0.00868164 -0.00919155 -0.00969279 -0.0101854 -0.0106647 -0.0111264 -0.0115704 -0.0119966 -0.0124018 -0.0127826 -0.0131391 -0.0134713 -0.0137777 -0.0140567 -0.0143083 -0.0145327 -0.0147303 -0.0149019 -0.0150473 -0.0151667 -0.0152626 -0.0153376 -0.0153918 -0.0154251 -0.0154415 -0.015445 -0.0154356 -0.0154133 -0.0153825 -0.0153476 -0.0153087 -0.0152656 -0.0152221 -0.015182 -0.0151453 -0.0151119 -0.0150839 -0.0150636 -0.0150508 -0.0150456 -0.0150479 -0.0150577 -0.0150751 -0.0150999 -0.0151301 -0.0151635 -0.0152 -0.0152398 -0.0152789 -0.0153137 -0.0153443 -0.0153705 -0.015388 -0.0153924 -0.0153838 -0.0153621 -0.0153234 -0.0152638 -0.0151833 -0.0150819 -0.0149571 -0.0148063 -0.0146297 -0.014427 -0.014198 -0.0139419 -0.0136589 -0.0133489 -0.0130135 -0.0126543 -0.0122712 -0.0118644 -0.0114371 -0.0109927 -0.0105311 -0.0100525 -0.00956133 -0.00906209 -0.0085548 -0.00803945 -0.00752109 -0.00700473 -0.00649038 -0.00597803 -0.00547271 -0.00497943 -0.00449819 -0.004029 -0.00357655 -0.00314556 -0.00273602 -0.00234794 -0.00198531 -0.00165214 -0.00134842 -0.00107416 -0.00082972 -0.000615471 -0.000431413 -0.000277545 -0.000156119 -6.93863e-05 -1.73466e-05 0 0 -2.17172e-05 -8.68688e-05 -0.000195455 -0.000347475 -0.000538982 -0.000766028 -0.00102861 -0.00132673 -0.00165946 -0.00202586 -0.00242592 -0.00285966 -0.00332194 -0.00380761 -0.00431669 -0.00484917 -0.0053992 -0.00596095 -0.00653442 -0.00711959 -0.00771038 -0.00830068 -0.00889048 -0.00947979 -0.0100626 -0.010633 -0.011191 -0.0117366 -0.0122644 -0.0127695 -0.0132517 -0.013711 -0.0141438 -0.0145465 -0.014919 -0.0152613 -0.0155721 -0.0158498 -0.0160946 -0.0163063 -0.0164863 -0.0166356 -0.0167543 -0.0168423 -0.0169033 -0.0169407 -0.0169546 -0.0169449 -0.0169169 -0.0168757 -0.0168214 -0.0167538 -0.0166787 -0.0166016 -0.0165225 -0.0164415 -0.0163632 -0.0162923 -0.0162289 -0.0161729 -0.0161269 -0.0160937 -0.0160733 -0.0160656 -0.0160705 -0.0160882 -0.0161184 -0.0161614 -0.0162142 -0.0162743 -0.0163415 -0.0164159 -0.0164928 -0.0165675 -0.0166399 -0.01671 -0.0167723 -0.0168211 -0.0168565 -0.0168785 -0.016882 -0.0168619 -0.0168181 -0.0167507 -0.0166563 -0.0165314 -0.0163759 -0.01619 -0.0159725 -0.0157224 -0.0154397 -0.0151244 -0.014778 -0.014402 -0.0139965 -0.0135614 -0.0131004 -0.0126173 -0.0121121 -0.0115847 -0.0110405 -0.0104845 -0.0099168 -0.00933741 -0.00875223 -0.00816719 -0.00758228 -0.00699749 -0.00641883 -0.00585228 -0.00529784 -0.00475551 -0.00423098 -0.00372991 -0.00325231 -0.00279819 -0.00237247 -0.00198009 -0.00162105 -0.00129534 -0.00100377 -0.000747127 -0.000525416 -0.000338634 -0.000190482 -8.46585e-05 -2.11646e-05 0 0 -2.60188e-05 -0.000104075 -0.000234169 -0.0004163 -0.000644712 -0.000913647 -0.00122311 -0.00157309 -0.00196208 -0.00238857 -0.00285255 -0.00335403 -0.00388677 -0.00444457 -0.0050274 -0.00563528 -0.00626126 -0.00689838 -0.00754667 -0.0082061 -0.00886951 -0.00952973 -0.0101867 -0.0108406 -0.0114843 -0.012111 -0.0127206 -0.0133132 -0.0138828 -0.0144236 -0.0149356 -0.0154187 -0.015869 -0.0162826 -0.0166593 -0.0169993 -0.0173013 -0.0175641 -0.0177876 -0.0179719 -0.0181188 -0.0182303 -0.0183063 -0.0183468 -0.0183566 -0.0183402 -0.0182978 -0.0182293 -0.0181413 -0.0180403 -0.0179264 -0.0177995 -0.0176667 -0.017535 -0.0174043 -0.0172747 -0.017152 -0.017042 -0.0169447 -0.0168601 -0.0167915 -0.0167422 -0.0167121 -0.0167013 -0.0167097 -0.0167372 -0.0167839 -0.0168497 -0.0169314 -0.0170254 -0.0171318 -0.0172507 -0.0173761 -0.0175022 -0.017629 -0.0177564 -0.0178776 -0.0179855 -0.0180801 -0.0181614 -0.018223 -0.0182583 -0.0182674 -0.0182503 -0.0182023 -0.018119 -0.0180003 -0.0178463 -0.0176552 -0.0174252 -0.0171565 -0.0168489 -0.0165039 -0.0161228 -0.0157055 -0.0152522 -0.0147668 -0.0142534 -0.0137119 -0.0131424 -0.0125509 -0.0119431 -0.0113192 -0.0106791 -0.0100297 -0.00937778 -0.00872343 -0.00806663 -0.00741442 -0.00677385 -0.00614491 -0.00552761 -0.00492871 -0.00435496 -0.00380636 -0.00328291 -0.0027906 -0.00233544 -0.00191741 -0.00153652 -0.00119412 -0.000891558 -0.000628831 -0.000405942 -0.000228342 -0.000101485 -2.53714e-05 0 0 -3.06555e-05 -0.000122622 -0.000275899 -0.000490488 -0.000758524 -0.00107214 -0.00143135 -0.00183614 -0.00228426 -0.00277348 -0.00330379 -0.00387519 -0.00448021 -0.00511139 -0.00576872 -0.00645221 -0.0071537 -0.00786501 -0.00858614 -0.00931711 -0.0100496 -0.0107752 -0.011494 -0.0122059 -0.0129031 -0.0135776 -0.0142294 -0.0148585 -0.0154584 -0.0160224 -0.0165505 -0.0170427 -0.0174949 -0.0179027 -0.0182663 -0.0185857 -0.0188598 -0.0190878 -0.0192698 -0.0194056 -0.0194982 -0.0195502 -0.0195616 -0.0195325 -0.0194689 -0.019377 -0.0192566 -0.0191078 -0.0189389 -0.0187581 -0.0185652 -0.0183605 -0.0181524 -0.0179496 -0.0177522 -0.0175601 -0.0173804 -0.0172203 -0.0170798 -0.0169589 -0.0168615 -0.0167917 -0.0167495 -0.0167348 -0.0167477 -0.0167879 -0.0168556 -0.0169507 -0.0170691 -0.0172067 -0.0173636 -0.0175396 -0.0177276 -0.0179205 -0.0181182 -0.0183207 -0.0185195 -0.0187059 -0.0188798 -0.0190414 -0.0191825 -0.0192949 -0.0193787 -0.0194338 -0.0194544 -0.0194346 -0.0193742 -0.0192734 -0.0191295 -0.01894 -0.0187048 -0.0184239 -0.0180984 -0.0177294 -0.0173168 -0.0168607 -0.0163654 -0.0158351 -0.0152698 -0.0146697 -0.0140412 -0.013391 -0.0127192 -0.0120256 -0.0113182 -0.0106049 -0.00988552 -0.0091602 -0.0084371 -0.0077244 -0.00702213 -0.00633026 -0.00565675 -0.00500956 -0.00438868 -0.00379411 -0.00323306 -0.00271272 -0.00223309 -0.00179418 -0.00139804 -0.00104672 -0.000740216 -0.000478537 -0.000269177 -0.000119634 -2.99086e-05 0 0 -3.55675e-05 -0.00014227 -0.000320108 -0.00056908 -0.000878935 -0.00123942 -0.00165053 -0.00211227 -0.00262147 -0.003175 -0.00377283 -0.00441497 -0.00509255 -0.00579668 -0.00652737 -0.00728461 -0.0080589 -0.00884071 -0.00963004 -0.0104269 -0.0112217 -0.0120049 -0.0127764 -0.0135362 -0.0142755 -0.0149852 -0.0156653 -0.0163158 -0.0169295 -0.0174991 -0.0180245 -0.0185059 -0.0189388 -0.0193189 -0.0196462 -0.0199207 -0.0201419 -0.0203096 -0.0204235 -0.0204839 -0.0204945 -0.0204594 -0.0203784 -0.0202516 -0.0200867 -0.0198916 -0.0196661 -0.0194103 -0.0191343 -0.0188484 -0.0185525 -0.0182467 -0.0179415 -0.0176473 -0.0173643 -0.0170925 -0.0168404 -0.0166167 -0.0164214 -0.0162546 -0.016121 -0.0160254 -0.0159679 -0.0159485 -0.015967 -0.0160235 -0.0161178 -0.01625 -0.0164151 -0.0166081 -0.0168291 -0.0170781 -0.0173462 -0.0176249 -0.0179141 -0.0182138 -0.0185134 -0.0188026 -0.0190811 -0.0193492 -0.0195966 -0.0198133 -0.0199994 -0.0201548 -0.020272 -0.0203434 -0.020369 -0.0203487 -0.020279 -0.0201561 -0.01998 -0.0197507 -0.0194687 -0.0191348 -0.0187488 -0.0183109 -0.0178254 -0.0172968 -0.0167252 -0.0161105 -0.0154601 -0.0147812 -0.0140739 -0.0133381 -0.0125828 -0.0118168 -0.0110402 -0.0102529 -0.00946446 -0.00868422 -0.0079122 -0.00714839 -0.00640209 -0.00568256 -0.0049898 -0.00432381 -0.00369317 -0.00310645 -0.00256366 -0.00206479 -0.00161278 -0.00121056 -0.000858129 -0.000555489 -0.000312463 -0.000138872 -3.47181e-05 0 0 -4.07548e-05 -0.000163019 -0.000366794 -0.000652077 -0.00100594 -0.00141546 -0.00188064 -0.00240147 -0.00297371 -0.00359311 -0.00425966 -0.00497338 -0.00572379 -0.00650045 -0.00730334 -0.00813248 -0.00897685 -0.00982548 -0.0106784 -0.0115355 -0.0123859 -0.0132188 -0.014034 -0.0148316 -0.0156015 -0.0163337 -0.0170282 -0.017685 -0.0182962 -0.0188538 -0.0193579 -0.0198084 -0.0202009 -0.0205311 -0.0207989 -0.0210043 -0.0211477 -0.0212292 -0.0212489 -0.0212067 -0.0211079 -0.0209579 -0.0207566 -0.0205041 -0.02021 -0.019884 -0.0195262 -0.0191365 -0.0187275 -0.0183114 -0.0178883 -0.0174583 -0.017034 -0.0166282 -0.0162408 -0.015872 -0.0155319 -0.0152311 -0.0149696 -0.0147472 -0.0145698 -0.0144432 -0.0143673 -0.0143422 -0.0143677 -0.0144438 -0.0145704 -0.0147475 -0.0149692 -0.0152295 -0.0155285 -0.0158662 -0.016232 -0.0166155 -0.0170167 -0.0174356 -0.0178594 -0.0182756 -0.018684 -0.0190847 -0.0194653 -0.0198136 -0.0201296 -0.0204132 -0.020655 -0.0208454 -0.0209845 -0.0210723 -0.0211037 -0.0210736 -0.0209821 -0.0208292 -0.0206148 -0.0203389 -0.0200015 -0.0196026 -0.0191468 -0.0186386 -0.0180779 -0.0174649 -0.0168075 -0.0161136 -0.0153833 -0.0146165 -0.0138233 -0.0130136 -0.0121874 -0.0113448 -0.0104965 -0.00965329 -0.00881512 -0.00798203 -0.00716473 -0.00637396 -0.00560972 -0.004872 -0.00417094 -0.00351664 -0.00290911 -0.00234835 -0.00183835 -0.00138308 -0.000982569 -0.000636798 -0.000358199 -0.000159199 -3.97998e-05 0 0 -4.62174e-05 -0.00018487 -0.000415957 -0.000739479 -0.00113955 -0.00160029 -0.00212169 -0.00270375 -0.00334097 -0.00402782 -0.0047643 -0.00555041 -0.00637394 -0.00722269 -0.00809664 -0.0089958 -0.00990757 -0.0108193 -0.0117311 -0.0126429 -0.0135422 -0.0144169 -0.0152668 -0.0160919 -0.0168812 -0.0176233 -0.0183183 -0.0189662 -0.0195585 -0.0200866 -0.0205504 -0.02095 -0.0212811 -0.0215392 -0.0217244 -0.0218367 -0.0218771 -0.0218468 -0.0217458 -0.021574 -0.0213383 -0.0210458 -0.0206964 -0.02029 -0.0198387 -0.0193544 -0.018837 -0.0182867 -0.0177183 -0.017147 -0.0165726 -0.0159952 -0.0154299 -0.0148921 -0.0143816 -0.0138985 -0.0134551 -0.0130636 -0.0127242 -0.0124368 -0.0122081 -0.0120451 -0.0119477 -0.011916 -0.0119497 -0.0120489 -0.0122134 -0.0124433 -0.0127315 -0.013071 -0.0134618 -0.0139039 -0.0143848 -0.0148921 -0.0154259 -0.0159861 -0.0165575 -0.0171249 -0.0176885 -0.018248 -0.0187888 -0.0192958 -0.0197693 -0.020209 -0.0206034 -0.0209407 -0.0212209 -0.0214441 -0.0216035 -0.0216925 -0.0217112 -0.0216596 -0.0215367 -0.0213419 -0.021075 -0.0207361 -0.0203297 -0.0198604 -0.0193281 -0.0187329 -0.0180834 -0.0173882 -0.0166474 -0.0158608 -0.0150398 -0.0141952 -0.0133273 -0.0124359 -0.0115333 -0.0106316 -0.00973091 -0.00883115 -0.00794467 -0.00708376 -0.00624844 -0.0054387 -0.00466637 -0.00394329 -0.00326945 -0.00264486 -0.00207474 -0.00156429 -0.00111354 -0.000722462 -0.000406385 -0.000180616 -4.51539e-05 0 0 -5.18803e-05 -0.000207521 -0.000466923 -0.000830085 -0.00127791 -0.00179129 -0.00237024 -0.00301475 -0.00371786 -0.00447258 -0.00527893 -0.00613689 -0.00703234 -0.00795112 -0.00889323 -0.00985867 -0.0108331 -0.0118021 -0.0127658 -0.0137241 -0.014663 -0.0155688 -0.0164414 -0.0172808 -0.0180746 -0.0188105 -0.0194885 -0.0201087 -0.0206617 -0.0211385 -0.0215391 -0.0218635 -0.0221074 -0.0222668 -0.0223415 -0.0223316 -0.0222392 -0.0220664 -0.0218133 -0.0214798 -0.0210747 -0.020607 -0.0200765 -0.0194833 -0.0188418 -0.0181668 -0.017458 -0.0167156 -0.0159574 -0.0152014 -0.0144475 -0.0136957 -0.0129641 -0.0122705 -0.011615 -0.0109976 -0.0104328 -0.00993504 -0.00950431 -0.00914064 -0.00885203 -0.00864649 -0.008524 -0.00848458 -0.00852807 -0.00865432 -0.00886331 -0.00915506 -0.00952129 -0.00995373 -0.0104524 -0.0110172 -0.0116336 -0.012287 -0.0129772 -0.0137044 -0.0144506 -0.0151977 -0.0159458 -0.0166949 -0.0174272 -0.018125 -0.0187883 -0.0194171 -0.0199971 -0.0205141 -0.0209681 -0.021359 -0.0216784 -0.0219178 -0.0220772 -0.0221565 -0.022154 -0.0220678 -0.021898 -0.0216445 -0.0213117 -0.0209041 -0.0204217 -0.0198644 -0.0192416 -0.0185624 -0.0178269 -0.0170351 -0.0161993 -0.0153318 -0.0144326 -0.0135016 -0.0125527 -0.0115994 -0.0106419 -0.00968015 -0.00872813 -0.00779992 -0.00689551 -0.00601491 -0.00517182 -0.00437999 -0.0036394 -0.00295006 -0.0023186 -0.00175165 -0.00124922 -0.00081131 -0.000456362 -0.000202827 -5.07069e-05 0 0 -5.76684e-05 -0.000230674 -0.000519016 -0.000922695 -0.00141917 -0.0019859 -0.00262288 -0.00333011 -0.00409898 -0.00492086 -0.00579576 -0.00672367 -0.00768832 -0.00867346 -0.00967908 -0.0107052 -0.0117355 -0.0127538 -0.01376 -0.0147542 -0.0157207 -0.0166442 -0.0175244 -0.0183616 -0.019142 -0.0198521 -0.020492 -0.0210615 -0.0215511 -0.0219509 -0.022261 -0.0224814 -0.0226081 -0.0226372 -0.0225689 -0.0224029 -0.0221428 -0.021792 -0.0213504 -0.0208181 -0.020206 -0.0195253 -0.0187759 -0.0179578 -0.0170885 -0.0161855 -0.0152487 -0.0142783 -0.0132953 -0.012321 -0.0113554 -0.0103984 -0.0094712 -0.00859489 -0.00776946 -0.00699491 -0.00628816 -0.00566615 -0.00512886 -0.00467631 -0.00431783 -0.00406273 -0.00391104 -0.00386273 -0.00391764 -0.00407557 -0.00433653 -0.00470052 -0.00515788 -0.00569896 -0.00632376 -0.00703229 -0.00780741 -0.00863203 -0.00950614 -0.0104297 -0.0113817 -0.0123409 -0.0133074 -0.0142812 -0.0152412 -0.0161664 -0.0170568 -0.0179124 -0.018716 -0.0194505 -0.0201159 -0.0207121 -0.0212285 -0.0216544 -0.0219899 -0.0222348 -0.0223863 -0.0224412 -0.0223995 -0.0222613 -0.0220306 -0.0217118 -0.0213047 -0.0208094 -0.0202357 -0.0195935 -0.0188827 -0.0181034 -0.0172691 -0.0163934 -0.0154761 -0.0145174 -0.0135326 -0.012537 -0.0115306 -0.0105134 -0.00950136 -0.00851039 -0.00754049 -0.00659164 -0.00567965 -0.00482033 -0.00401367 -0.00325967 -0.00256657 -0.00194262 -0.00138782 -0.000902165 -0.000507468 -0.000225541 -5.63853e-05 0 0 -6.35817e-05 -0.000254327 -0.000572236 -0.00101731 -0.00156333 -0.00218409 -0.00287959 -0.00364983 -0.00448434 -0.00537266 -0.00631479 -0.00731073 -0.0083419 -0.00938972 -0.0104542 -0.0115353 -0.0126148 -0.0136742 -0.0147137 -0.0157332 -0.0167153 -0.0176429 -0.0185159 -0.0193343 -0.0200833 -0.0207481 -0.0213286 -0.0218249 -0.0222266 -0.0225237 -0.022716 -0.0228036 -0.0227829 -0.0226506 -0.0224065 -0.0220507 -0.0215882 -0.0210237 -0.0203572 -0.0195889 -0.0187322 -0.0178008 -0.0167946 -0.0157136 -0.0145786 -0.0134105 -0.0122092 -0.0109747 -0.00973191 -0.00850573 -0.00729613 -0.00610312 -0.00495128 -0.0038652 -0.00284488 -0.00189031 -0.00102113 -0.000256979 0.000402144 0.00095624 0.00139451 0.00170615 0.00189117 0.00194956 0.00188155 0.00168734 0.00136694 0.000920344 0.000358739 -0.000306699 -0.00107597 -0.00194908 -0.00290615 -0.00392733 -0.00501261 -0.006162 -0.00735088 -0.00855465 -0.0097733 -0.0110068 -0.0122306 -0.0134198 -0.0145745 -0.0156947 -0.01676 -0.0177498 -0.0186642 -0.0195032 -0.0202536 -0.0209023 -0.0214493 -0.0218945 -0.0222336 -0.0224619 -0.0225795 -0.0225864 -0.0224865 -0.0222834 -0.0219771 -0.0215678 -0.0210657 -0.0204813 -0.0198147 -0.0190657 -0.0182492 -0.01738 -0.016458 -0.0154833 -0.014473 -0.0134442 -0.0123968 -0.0113309 -0.0102643 -0.00921518 -0.00818336 -0.0071689 -0.00618986 -0.00526432 -0.00439226 -0.0035737 -0.00281867 -0.00213721 -0.00152933 -0.000995029 -0.000559704 -0.000248757 -6.21893e-05 0 0 -6.96203e-05 -0.000278481 -0.000626583 -0.00111392 -0.0017104 -0.00238588 -0.00314039 -0.00397391 -0.00487394 -0.00582798 -0.00683602 -0.00789808 -0.00899306 -0.0100999 -0.0112186 -0.0123491 -0.0134709 -0.0145635 -0.0156269 -0.0166611 -0.0176468 -0.0185651 -0.0194158 -0.020199 -0.0208986 -0.0214984 -0.0219984 -0.0223986 -0.0226884 -0.0228569 -0.0229042 -0.0228302 -0.022632 -0.0223068 -0.0218544 -0.021275 -0.0205751 -0.0197613 -0.0188337 -0.0177923 -0.0166534 -0.0154335 -0.0141326 -0.0127506 -0.0113122 -0.00984175 -0.00833929 -0.00680482 -0.00526728 -0.00375562 -0.00226984 -0.000809939 0.000595664 0.00191855 0.00315871 0.00431616 0.00536829 0.00629247 0.00708871 0.00775702 0.00828498 0.00866018 0.00888262 0.0089523 0.00886949 0.00863442 0.0082471 0.00770753 0.00702856 0.00622306 0.00529101 0.00423241 0.00307017 0.00182714 0.000503349 -0.000901219 -0.0023581 -0.00383884 -0.00534343 -0.00687188 -0.00839543 -0.00988534 -0.0113416 -0.0127642 -0.0141291 -0.0154121 -0.0166132 -0.0177325 -0.0187539 -0.0196616 -0.0204555 -0.0211356 -0.0216958 -0.02213 -0.022438 -0.02262 -0.0226792 -0.0226188 -0.022439 -0.0221396 -0