<?xml version="1.0"?> 
<VTKFile type="StructuredGrid" version="0.1"> 
<StructuredGrid WholeExtent="0 128 0 128 0 0"> 
<Piece Extent="0 128 0 128 0 0"> 
<PointData>
<DataArray type="Float32" Name="u" format="ascii" NumberOfComponents="1"> 
0 0 0 0 0 0 0 0 0 0 0 0 0 0 0 0 0 0 0 0 0 0 0 0 0 0 0 0 0 0 0 0 0 0 0 0 0 0 0 0 0 0 0 0 0 0 0 0 0 0 0 0 0 0 0 0 0 0 0 0 0 0 0 0 0 0 0 0 0 0 0 0 0 0 0 0 0 0 0 0 0 0 0 0 0 0 0 0 0 0 0 0 0 0 0 0 0 0 0 0 0 0 0 0 0 0 0 0 0 0 0 0 0 0 0 0 0 0 0 0 0 0 0 0 0 0 0 0 0 0 -2.65752e-07 -1.06301e-06 -2.39177e-06 -4.25204e-06 -6.61121e-06 -9.43669e-06 -1.27285e-05 -1.64866e-05 -2.06804e-05 -2.52794e-05 -3.02835e-05 -3.56928e-05 -4.14245e-05 -4.73958e-05 -5.36068e-05 -6.00575e-05 -6.66698e-05 -7.33655e-05 -8.01447e-05 -8.70073e-05 -9.38835e-05 -0.000100703 -0.000107467 -0.000114173 -0.000120762 -0.000127172 -0.000133403 -0.000139455 -0.000145278 -0.000150824 -0.000156091 -0.000161081 -0.000165762 -0.000170101 -0.0001741 -0.000177758 -0.000181066 -0.000184016 -0.000186609 -0.000188844 -0.000190738 -0.000192307 -0.000193553 -0.000194475 -0.000195112 -0.000195505 -0.000195653 -0.000195556 -0.000195269 -0.000194847 -0.000194289 -0.000193596 -0.000192825 -0.000192034 -0.000191224 -0.000190393 -0.000189591 -0.000188864 -0.000188213 -0.000187638 -0.000187166 -0.000186823 -0.00018661 -0.000186526 -0.000186572 -0.000186746 -0.000187048 -0.000187478 -0.00018801 -0.000188614 -0.000189292 -0.000190042 -0.000190817 -0.000191568 -0.000192296 -0.000193 -0.000193623 -0.000194108 -0.000194454 -0.000194661 -0.000194676 -0.000194444 -0.000193967 -0.000193244 -0.000192236 -0.000190906 -0.000189254 -0.000187279 -0.000184966 -0.0001823 -0.00017928 -0.000175908 -0.000172192 -0.000168143 -0.000163761 -0.000159045 -0.000154028 -0.000148744 -0.000143191 -0.00013737 -0.00013133 -0.000125121 -0.000118744 -0.000112197 -0.000105542 -9.88402e-05 -9.20909e-05 -8.52944e-05 -7.85192e-05 -7.18338e-05 -6.52382e-05 -5.87325e-05 -5.23924e-05 -4.62936e-05 -4.04363e-05 -3.48203e-05 -2.95254e-05 -2.4631e-05 -2.01372e-05 -1.6044e-05 -1.23796e-05 -9.17231e-06 -6.42213e-06 -4.12905e-06 -2.32259e-06 -1.03226e-06 -2.58066e-07 0 0 -1.06301e-06 -4.25204e-06 -9.56708e-06 -1.70081e-05 -2.64448e-05 -3.77468e-05 -5.09139e-05 -6.59463e-05 -8.27217e-05 -0.000101118 -0.000121134 -0.000142771 -0.000165698 -0.000189583 -0.000214427 -0.00024023 -0.000266679 -0.000293462 -0.000320579 -0.000348029 -0.000375534 -0.000402813 -0.000429866 -0.000456694 -0.00048305 -0.00050869 -0.000533613 -0.00055782 -0.000581112 -0.000603294 -0.000624365 -0.000644324 -0.000663046 -0.000680405 -0.000696399 -0.00071103 -0.000724264 -0.000736066 -0.000746436 -0.000755375 -0.000762951 -0.00076923 -0.000774213 -0.000777899 -0.000780449 -0.000782019 -0.000782611 -0.000782224 -0.000781076 -0.000779387 -0.000777156 -0.000774384 -0.0007713 -0.000768137 -0.000764894 -0.000761572 -0.000758362 -0.000755456 -0.000752852 -0.000750553 -0.000748664 -0.000747293 -0.00074644 -0.000746106 -0.000746287 -0.000746982 -0.000748191 -0.000749914 -0.000752039 -0.000754457 -0.000757166 -0.000760167 -0.000763267 -0.000766273 -0.000769184 -0.000772001 -0.000774493 -0.000776431 -0.000777814 -0.000778643 -0.000778702 -0.000777777 -0.000775869 -0.000772976 -0.000768946 -0.000763626 -0.000757015 -0.000749115 -0.000739863 -0.000729198 -0.000717121 -0.000703631 -0.000688768 -0.000672572 -0.000655043 -0.00063618 -0.000616114 -0.000594975 -0.000572763 -0.000549478 -0.000525319 -0.000500485 -0.000474974 -0.000448788 -0.000422169 -0.000395361 -0.000368364 -0.000341178 -0.000314077 -0.000287335 -0.000260953 -0.00023493 -0.000209569 -0.000185174 -0.000161745 -0.000139281 -0.000118102 -9.8524e-05 -8.05488e-05 -6.41759e-05 -4.95184e-05 -3.66892e-05 -2.56885e-05 -1.65162e-05 -9.29036e-06 -4.12905e-06 -1.03226e-06 0 0 -2.39177e-06 -9.56708e-06 -2.15259e-05 -3.82683e-05 -5.95009e-05 -8.49302e-05 -0.000114556 -0.000148379 -0.000186124 -0.000227515 -0.000272552 -0.000321235 -0.00037282 -0.000426562 -0.000482462 -0.000540518 -0.000600028 -0.00066029 -0.000721302 -0.000783066 -0.000844951 -0.000906329 -0.000967199 -0.00102756 -0.00108686 -0.00114455 -0.00120063 -0.00125509 -0.0013075 -0.00135741 -0.00140482 -0.00144973 -0.00149185 -0.00153091 -0.0015669 -0.00159982 -0.00162959 -0.00165615 -0.00167948 -0.00169959 -0.00171664 -0.00173077 -0.00174198 -0.00175027 -0.00175601 -0.00175954 -0.00176087 -0.00176 -0.00175742 -0.00175362 -0.0017486 -0.00174236 -0.00173543 -0.00172831 -0.00172101 -0.00171354 -0.00170631 -0.00169977 -0.00169392 -0.00168874 -0.00168449 -0.00168141 -0.00167949 -0.00167874 -0.00167915 -0.00168071 -0.00168343 -0.00168731 -0.00169209 -0.00169753 -0.00170362 -0.00171038 -0.00171735 -0.00172411 -0.00173066 -0.001737 -0.00174261 -0.00174697 -0.00175008 -0.00175195 -0.00175208 -0.00175 -0.0017457 -0.0017392 -0.00173013 -0.00171816 -0.00170328 -0.00168551 -0.00166469 -0.0016407 -0.00161352 -0.00158317 -0.00154973 -0.00151329 -0.00147385 -0.0014314 -0.00138626 -0.00133869 -0.00128872 -0.00123633 -0.00118197 -0.00112609 -0.00106869 -0.00100977 -0.000949879 -0.000889562 -0.000828818 -0.00076765 -0.000706673 -0.000646504 -0.000587144 -0.000528592 -0.000471531 -0.000416643 -0.000363926 -0.000313383 -0.000265728 -0.000221679 -0.000181235 -0.000144396 -0.000111416 -8.25508e-05 -5.77991e-05 -3.71615e-05 -2.09033e-05 -9.29036e-06 -2.32259e-06 0 0 -4.25204e-06 -1.70081e-05 -3.82683e-05 -6.80326e-05 -0.000105779 -0.000150987 -0.000203656 -0.000263785 -0.000330887 -0.00040447 -0.000484536 -0.000571085 -0.000662791 -0.000758333 -0.000857709 -0.000960921 -0.00106672 -0.00117385 -0.00128232 -0.00139212 -0.00150214 -0.00161125 -0.00171946 -0.00182677 -0.0019322 -0.00203476 -0.00213445 -0.00223128 -0.00232445 -0.00241318 -0.00249746 -0.0025773 -0.00265218 -0.00272162 -0.0027856 -0.00284412 -0.00289705 -0.00294426 -0.00298574 -0.0030215 -0.0030518 -0.00307692 -0.00309685 -0.0031116 -0.00312179 -0.00312808 -0.00313044 -0.00312889 -0.00312431 -0.00311755 -0.00310863 -0.00309753 -0.0030852 -0.00307255 -0.00305958 -0.00304629 -0.00303345 -0.00302182 -0.00301141 -0.00300221 -0.00299466 -0.00298917 -0.00298576 -0.00298442 -0.00298515 -0.00298793 -0.00299277 -0.00299966 -0.00300816 -0.00301783 -0.00302866 -0.00304067 -0.00305307 -0.00306509 -0.00307674 -0.003088 -0.00309797 -0.00310572 -0.00311126 -0.00311457 -0.00311481 -0.00311111 -0.00310347 -0.0030919 -0.00307578 -0.0030545 -0.00302806 -0.00299646 -0.00295945 -0.00291679 -0.00286848 -0.00281453 -0.00275507 -0.00269029 -0.00262017 -0.00254472 -0.00246445 -0.0023799 -0.00229105 -0.00219791 -0.00210128 -0.00200194 -0.0018999 -0.00179515 -0.00168867 -0.00158144 -0.00147345 -0.00136471 -0.00125631 -0.00114934 -0.00104381 -0.00093972 -0.000838278 -0.000740698 -0.00064698 -0.000557125 -0.000472406 -0.000394096 -0.000322195 -0.000256704 -0.000198073 -0.000146757 -0.000102754 -6.60648e-05 -3.71615e-05 -1.65162e-05 -4.12905e-06 0 0 -6.60545e-06 -2.64218e-05 -5.94491e-05 -0.000105687 -0.000164197 -0.00023404 -0.000315215 -0.000407723 -0.000510794 -0.000623659 -0.000746318 -0.00087877 -0.00101898 -0.00116493 -0.0013166 -0.001474 -0.00163522 -0.00179832 -0.00196331 -0.00213019 -0.00229724 -0.00246275 -0.0026267 -0.0027891 -0.00294845 -0.00310324 -0.00325348 -0.00339915 -0.00353907 -0.00367203 -0.00379803 -0.00391707 -0.0040284 -0.00413126 -0.00422565 -0.00431157 -0.00438884 -0.00445727 -0.00451688 -0.00456765 -0.00461004 -0.0046445 -0.00467102 -0.0046896 -0.00470125 -0.00470699 -0.00470682 -0.00470072 -0.00469009 -0.00467628 -0.00465932 -0.00463918 -0.00461733 -0.00459521 -0.00457282 -0.00455016 -0.00452842 -0.00450882 -0.00449133 -0.00447598 -0.00446342 -0.00445432 -0.00444869 -0.00444652 -0.0044478 -0.00445253 -0.00446069 -0.00447229 -0.00448663 -0.00450302 -0.00452147 -0.00454197 -0.00456331 -0.00458429 -0.00460491 -0.00462516 -0.00464361 -0.00465881 -0.00467076 -0.00467946 -0.00468356 -0.00468171 -0.00467391 -0.00466016 -0.00463947 -0.00461089 -0.0045744 -0.00453001 -0.0044773 -0.00441588 -0.00434574 -0.00426688 -0.00417952 -0.00408387 -0.00397994 -0.00386772 -0.00374799 -0.00362154 -0.00348837 -0.00334847 -0.00320305 -0.00305333 -0.0028993 -0.00274096 -0.0025798 -0.00241732 -0.00225352 -0.00208839 -0.00192362 -0.00176091 -0.00160023 -0.00144161 -0.00128689 -0.00113795 -0.000994786 -0.000857394 -0.00072773 -0.000607752 -0.000497457 -0.000396848 -0.000306635 -0.000227532 -0.000159539 -0.000102656 -5.77441e-05 -2.56641e-05 -6.41601e-06 0 0 -9.41366e-06 -3.76546e-05 -8.47229e-05 -0.000150618 -0.000233671 -0.000332211 -0.000446237 -0.000575751 -0.000719631 -0.000876756 -0.00104713 -0.00123074 -0.00142477 -0.00162638 -0.00183557 -0.00205233 -0.002274 -0.00249788 -0.00272399 -0.0029523 -0.00318044 -0.00340598 -0.00362894 -0.00384931 -0.004065 -0.00427393 -0.00447609 -0.00467149 -0.00485848 -0.00503541 -0.00520229 -0.00535911 -0.00550487 -0.00563857 -0.00576022 -0.0058698 -0.00596713 -0.00605205 -0.00612454 -0.00618461 -0.00623297 -0.00627032 -0.00629666 -0.006312 -0.00631784 -0.00631567 -0.00630549 -0.00628731 -0.00626312 -0.00623494 -0.00620276 -0.00616659 -0.00612852 -0.00609064 -0.00605296 -0.00601547 -0.0059799 -0.00594798 -0.0059197 -0.00589507 -0.00587504 -0.00586058 -0.0058517 -0.00584839 -0.00585062 -0.00585839 -0.00587169 -0.00589052 -0.00591388 -0.00594078 -0.00597122 -0.0060052 -0.00604097 -0.0060768 -0.00611269 -0.00614863 -0.00618254 -0.00621233 -0.00623801 -0.00625956 -0.00627503 -0.00628242 -0.00628175 -0.00627301 -0.00625475 -0.00622553 -0.00618534 -0.00613418 -0.0060714 -0.00599635 -0.00590902 -0.00580942 -0.00569778 -0.00557432 -0.00543906 -0.00529199 -0.00513414 -0.00496657 -0.00478926 -0.00460221 -0.00440709 -0.00420556 -0.0039976 -0.00378323 -0.00356451 -0.00334352 -0.00312026 -0.00289472 -0.00266927 -0.00244626 -0.00222568 -0.00200755 -0.00179446 -0.00158902 -0.00139122 -0.00120107 -0.0010213 -0.000854623 -0.000701049 -0.000560576 -0.000434246 -0.000323101 -0.000227141 -0.000146366 -8.23306e-05 -3.65914e-05 -9.14785e-06 0 0 -1.26767e-05 -5.07066e-05 -0.00011409 -0.000202826 -0.000314202 -0.0004455 -0.000596723 -0.000767869 -0.000957395 -0.00116376 -0.00138696 -0.001627 -0.00188015 -0.00214269 -0.00241461 -0.00269591 -0.00298307 -0.00327254 -0.00356434 -0.00385845 -0.00415171 -0.00444096 -0.00472618 -0.0050074 -0.00528186 -0.00554683 -0.00580231 -0.0060483 -0.00628268 -0.00650332 -0.00671023 -0.0069034 -0.00708159 -0.00724356 -0.00738929 -0.0075188 -0.00763194 -0.00772859 -0.00780873 -0.00787237 -0.00792057 -0.00795437 -0.00797379 -0.00797881 -0.00797155 -0.0079541 -0.00792647 -0.00788865 -0.00784341 -0.00779352 -0.00773897 -0.00767976 -0.00761877 -0.00755884 -0.0075 -0.00744223 -0.00738788 -0.00733931 -0.00729651 -0.00725948 -0.00722953 -0.00720797 -0.0071948 -0.00719002 -0.0071936 -0.00720552 -0.00722577 -0.00725435 -0.00728991 -0.0073311 -0.00737792 -0.00743035 -0.00748604 -0.00754262 -0.00760007 -0.00765841 -0.00771477 -0.0077663 -0.00781301 -0.00785488 -0.00788919 -0.00791323 -0.00792699 -0.00793047 -0.00792163 -0.00789844 -0.00786089 -0.00780899 -0.00774175 -0.0076582 -0.00755833 -0.00744215 -0.00730985 -0.00716165 -0.00699755 -0.00681754 -0.00662291 -0.00641498 -0.00619372 -0.00595915 -0.00571341 -0.00545863 -0.00519481 -0.00492196 -0.0046428 -0.00436003 -0.00407367 -0.0037837 -0.00349324 -0.0032054 -0.00292017 -0.00263755 -0.00236099 -0.0020939 -0.00183629 -0.00158816 -0.00135311 -0.00113471 -0.000932969 -0.000747888 -0.000580906 -0.000433463 -0.000305559 -0.000197193 -0.000110921 -4.92982e-05 -1.23246e-05 0 0 -1.63944e-05 -6.55778e-05 -0.00014755 -0.000262311 -0.000405788 -0.000573908 -0.000766671 -0.000984077 -0.00122409 -0.00148467 -0.00176582 -0.00206754 -0.00238512 -0.00271385 -0.00305372 -0.00340473 -0.00376242 -0.0041223 -0.00448436 -0.00484863 -0.00521107 -0.00556767 -0.00591844 -0.00626337 -0.00659901 -0.00692193 -0.00723212 -0.00752957 -0.00781167 -0.00807576 -0.00832186 -0.00854995 -0.00875856 -0.00894621 -0.00911288 -0.00925858 -0.00938327 -0.00948689 -0.00956944 -0.00963094 -0.00967285 -0.00969667 -0.0097024 -0.00969003 -0.00966239 -0.0096223 -0.00956975 -0.00950475 -0.00943096 -0.00935202 -0.00926793 -0.00917869 -0.00908807 -0.00899982 -0.00891394 -0.00883043 -0.00875237 -0.00868281 -0.00862175 -0.00856921 -0.00852688 -0.00849648 -0.00847799 -0.00847142 -0.00847674 -0.00849391 -0.00852292 -0.00856379 -0.00861473 -0.00867399 -0.00874156 -0.00881744 -0.00889853 -0.00898174 -0.00906707 -0.0091545 -0.0092403 -0.00932072 -0.00939575 -0.0094654 -0.00952606 -0.00957414 -0.00960963 -0.00963252 -0.0096401 -0.00962961 -0.00960105 -0.00955443 -0.00948835 -0.00940143 -0.00929367 -0.00916506 -0.00901575 -0.00884586 -0.00865539 -0.00844436 -0.0082143 -0.00796677 -0.00770176 -0.00741928 -0.00712199 -0.00681253 -0.00649093 -0.00615716 -0.00581467 -0.00546686 -0.00511375 -0.00475533 -0.00439554 -0.00403832 -0.00368368 -0.00333161 -0.00298646 -0.00265259 -0.00232999 -0.00201867 -0.00172316 -0.00144801 -0.00119322 -0.000958785 -0.000746616 -0.000558619 -0.000394793 -0.000255138 -0.000143515 -6.37845e-05 -1.59461e-05 0 0 -2.05229e-05 -8.20917e-05 -0.000184706 -0.000328367 -0.000507329 -0.00071585 -0.000953929 -0.00122157 -0.00151613 -0.001835 -0.00217816 -0.00254562 -0.00293158 -0.00333022 -0.00374155 -0.00416557 -0.00459676 -0.00502961 -0.00546412 -0.00590029 -0.00633318 -0.00675785 -0.00717429 -0.00758252 -0.00797831 -0.00835746 -0.00871996 -0.00906581 -0.00939186 -0.00969494 -0.00997504 -0.0102322 -0.0104646 -0.0106707 -0.0108504 -0.0110038 -0.0111309 -0.0112318 -0.0113066 -0.0113553 -0.0113799 -0.0113824 -0.0113629 -0.0113213 -0.0112613 -0.0111866 -0.0110972 -0.0109932 -0.0108791 -0.0107598 -0.0106352 -0.0105054 -0.0103751 -0.0102491 -0.0101274 -0.0100101 -0.00990107 -0.00980417 -0.00971943 -0.00964684 -0.00958857 -0.00954679 -0.00952151 -0.00951271 -0.00952036 -0.00954441 -0.00958485 -0.0096417 -0.00971269 -0.00979558 -0.00989038 -0.00999708 -0.0101117 -0.0102304 -0.010353 -0.0104797 -0.0106056 -0.0107258 -0.0108405 -0.0109496 -0.0110485 -0.0111325 -0.0112016 -0.0112559 -0.0112916 -0.0113053 -0.011297 -0.0112666 -0.0112123 -0.011132 -0.0110259 -0.0108938 -0.0107359 -0.0105521 -0.0103424 -0.0101068 -0.00984711 -0.00956505 -0.00926066 -0.00893393 -0.00858807 -0.00822625 -0.0078485 -0.0074548 -0.00704935 -0.00663632 -0.00621573 -0.00578756 -0.00535667 -0.00492793 -0.00450131 -0.00407683 -0.00365984 -0.00325572 -0.00286445 -0.00248604 -0.00212608 -0.00179018 -0.00147834 -0.00119056 -0.000929304 -0.000697046 -0.000493786 -0.000319525 -0.000179733 -7.98812e-05 -1.99703e-05 0 0 -2.5018e-05 -0.000100072 -0.000225162 -0.000400288 -0.000617723 -0.000869742 -0.00115634 -0.00147753 -0.00182995 -0.00221025 -0.00261842 -0.00305448 -0.0035114 -0.00398215 -0.00446674 -0.00496517 -0.00547079 -0.00597694 -0.00648364 -0.00699089 -0.00749273 -0.00798322 -0.00846236 -0.00893016 -0.00938159 -0.00981162 -0.0102203 -0.0106075 -0.0109697 -0.011303 -0.0116076 -0.0118834 -0.0121286 -0.0123412 -0.0125214 -0.012669 -0.0127845 -0.0128683 -0.0129203 -0.0129405 -0.0129318 -0.0128968 -0.0128356 -0.0127481 -0.0126391 -0.0125133 -0.0123707 -0.0122114 -0.0120412 -0.0118663 -0.0116865 -0.0115018 -0.0113183 -0.0111421 -0.0109731 -0.0108114 -0.0106617 -0.0105291 -0.0104135 -0.0103149 -0.0102361 -0.0101796 -0.0101456 -0.010134 -0.0101448 -0.0101779 -0.0102332 -0.0103109 -0.0104081 -0.010522 -0.0106526 -0.0107999 -0.0109589 -0.0111247 -0.0112974 -0.0114768 -0.011657 -0.011832 -0.0120017 -0.0121661 -0.0123194 -0.0124557 -0.0125749 -0.0126771 -0.0127577 -0.012812 -0.01284 -0.0128417 -0.0128145 -0.0127559 -0.0126658 -0.0125442 -0.0123909 -0.0122057 -0.0119885 -0.0117393 -0.0114601 -0.0111529 -0.0108177 -0.0104544 -0.0100669 -0.00965875 -0.00923008 -0.00878086 -0.00831607 -0.00784073 -0.00735482 -0.00685835 -0.00635716 -0.00585709 -0.00535815 -0.00486032 -0.00437009 -0.00389391 -0.00343179 -0.00298373 -0.0025565 -0.00215689 -0.00178489 -0.00144051 -0.0011269 -0.000847223 -0.000601482 -0.000389677 -0.000219193 -9.74192e-05 -2.43548e-05 0 0 -2.98796e-05 -0.000119519 -0.000268917 -0.000478074 -0.00073697 -0.00103558 -0.00137392 -0.00175197 -0.00216553 -0.00261042 -0.00308661 -0.00359413 -0.00412459 -0.00466965 -0.0052293 -0.00580355 -0.00638451 -0.00696431 -0.00754294 -0.00812042 -0.00868971 -0.00924378 -0.00978264 -0.0103063 -0.0108088 -0.0112844 -0.011733 -0.0121547 -0.0125451 -0.0129001 -0.0132197 -0.0135038 -0.0137505 -0.0139578 -0.0141257 -0.0142543 -0.0143442 -0.0143962 -0.0144103 -0.0143866 -0.0143286 -0.0142399 -0.0141206 -0.0139705 -0.0137958 -0.0136023 -0.0133902 -0.0131594 -0.0129173 -0.0126714 -0.0124216 -0.012168 -0.0119179 -0.0116789 -0.011451 -0.0112341 -0.0110343 -0.0108576 -0.010704 -0.0105735 -0.0104693 -0.0103949 -0.0103502 -0.0103353 -0.01035 -0.0103943 -0.0104681 -0.0105715 -0.0107011 -0.0108533 -0.0110283 -0.0112259 -0.0114401 -0.0116648 -0.0119 -0.0121458 -0.0123946 -0.0126391 -0.0128791 -0.0131148 -0.0133387 -0.0135437 -0.0137295 -0.0138963 -0.0140383 -0.0141494 -0.0142299 -0.0142796 -0.0142951 -0.014273 -0.0142133 -0.0141161 -0.0139807 -0.0138065 -0.0135935 -0.0133418 -0.0130534 -0.0127304 -0.0123729 -0.0119808 -0.0115584 -0.01111 -0.0106357 -0.0101353 -0.00961485 -0.00908008 -0.00853104 -0.00796771 -0.007397 -0.00682583 -0.00625419 -0.00568209 -0.00511719 -0.00456717 -0.00403202 -0.00351174 -0.00301442 -0.00254813 -0.00211286 -0.00170863 -0.0013394 -0.00100915 -0.00071788 -0.000465593 -0.000261896 -0.000116398 -2.90996e-05 0 0 -3.51079e-05 -0.000140431 -0.000315971 -0.000561726 -0.00086507 -0.00121338 -0.00160665 -0.00204488 -0.00252289 -0.00303551 -0.00358273 -0.00416455 -0.00477115 -0.00539271 -0.00602922 -0.00668069 -0.00733792 -0.00799169 -0.00864201 -0.00928889 -0.00992412 -0.0105395 -0.0111351 -0.0117109 -0.0122601 -0.0127759 -0.0132583 -0.0137073 -0.0141182 -0.0144861 -0.0148111 -0.0150932 -0.0153303 -0.0155204 -0.0156635 -0.0157596 -0.0158099 -0.0158156 -0.0157768 -0.0156935 -0.0155703 -0.0154117 -0.0152178 -0.0149886 -0.0147314 -0.0144538 -0.0141558 -0.0138373 -0.0135074 -0.0131752 -0.0128407 -0.0125039 -0.0121738 -0.0118595 -0.0115611 -0.0112785 -0.0110189 -0.0107897 -0.0105909 -0.0104225 -0.0102884 -0.0101927 -0.0101355 -0.0101166 -0.010136 -0.0101936 -0.0102894 -0.0104235 -0.0105915 -0.0107895 -0.0110173 -0.011275 -0.0115552 -0.0118506 -0.0121611 -0.0124867 -0.0128184 -0.0131471 -0.0134729 -0.0137957 -0.0141065 -0.0143965 -0.0146654 -0.0149135 -0.0151334 -0.0153178 -0.0154668 -0.0155803 -0.015654 -0.0156834 -0.0156686 -0.0156096 -0.0155052 -0.0153546 -0.0151576 -0.0149143 -0.0146269 -0.0142975 -0.0139262 -0.013513 -0.0130627 -0.0125801 -0.0120653 -0.0115182 -0.0109457 -0.0103544 -0.00974437 -0.00911562 -0.00847619 -0.00783413 -0.00718945 -0.00654213 -0.00590115 -0.00527549 -0.00466513 -0.00407008 -0.00349984 -0.0029639 -0.00246226 -0.00199492 -0.0015668 -0.00118282 -0.000842981 -0.000547275 -0.000307842 -0.000136819 -3.42047e-05 0 0 -4.0601e-05 -0.000162404 -0.000365409 -0.000649616 -0.000999527 -0.00139964 -0.00184997 -0.0023505 -0.00289493 -0.00347697 -0.00409662 -0.00475386 -0.0054373 -0.00613551 -0.00684849 -0.00757625 -0.00830815 -0.00903355 -0.00975246 -0.0104649 -0.0111614 -0.0118326 -0.0124784 -0.013099 -0.0136864 -0.0142331 -0.0147391 -0.0152042 -0.0156233 -0.015991 -0.0163074 -0.0165723 -0.0167839 -0.01694 -0.0170407 -0.017086 -0.0170776 -0.0170175 -0.0169057 -0.0167421 -0.0165326 -0.0162829 -0.0159931 -0.0156631 -0.0153022 -0.0149192 -0.0145143 -0.0140875 -0.0136497 -0.0132119 -0.0127741 -0.0123362 -0.0119093 -0.0115041 -0.0111206 -0.0107589 -0.0104277 -0.0101356 -0.00988273 -0.00966901 -0.00949924 -0.00937823 -0.00930596 -0.00928244 -0.00930757 -0.00938122 -0.0095034 -0.00967411 -0.00988837 -0.0101412 -0.0104326 -0.0107626 -0.0111223 -0.011503 -0.0119046 -0.0123271 -0.0127597 -0.0131914 -0.0136223 -0.0140524 -0.0144708 -0.0148666 -0.01524 -0.0155907 -0.01591 -0.016189 -0.0164277 -0.016626 -0.0167784 -0.0168794 -0.0169288 -0.0169269 -0.0168718 -0.0167621 -0.0165977 -0.0163786 -0.016107 -0.0157852 -0.0154131 -0.0149908 -0.0145237 -0.014017 -0.0134709 -0.0128853 -0.0122679 -0.0116264 -0.0109609 -0.0102713 -0.00956692 -0.00885699 -0.00814152 -0.00742053 -0.00670438 -0.00600343 -0.00531768 -0.00464714 -0.00400285 -0.00339586 -0.00282617 -0.00229377 -0.00180467 -0.00136487 -0.000974355 -0.000633139 -0.00035614 -0.000158285 -3.95712e-05 0 0 -4.62573e-05 -0.000185029 -0.000416316 -0.000740117 -0.00113785 -0.00159091 -0.00209932 -0.00266306 -0.00327457 -0.00392626 -0.00461813 -0.00535019 -0.00610928 -0.00688225 -0.00766911 -0.00846986 -0.00927232 -0.0100643 -0.0108459 -0.011617 -0.0123669 -0.013085 -0.0137711 -0.0144254 -0.0150391 -0.0156034 -0.0161185 -0.0165843 -0.0169951 -0.0173449 -0.0176339 -0.017862 -0.0180273 -0.0181278 -0.0181636 -0.0181346 -0.0180435 -0.0178929 -0.0176828 -0.0174132 -0.0170913 -0.0167243 -0.0163123 -0.0158552 -0.0153641 -0.0148499 -0.0143128 -0.0137526 -0.0131825 -0.0126157 -0.0120521 -0.0114918 -0.0109477 -0.0104327 -0.00994687 -0.00949018 -0.00907296 -0.00870554 -0.00838792 -0.0081201 -0.00790775 -0.00775652 -0.00766643 -0.00763747 -0.00766951 -0.00776242 -0.0079162 -0.00813085 -0.00840047 -0.00871917 -0.00908695 -0.00950379 -0.00995926 -0.0104429 -0.0109546 -0.0114946 -0.0120497 -0.012607 -0.0131666 -0.0137285 -0.0142795 -0.0148068 -0.0153104 -0.0157901 -0.0162353 -0.0166351 -0.0169895 -0.0172986 -0.0175554 -0.017753 -0.0178913 -0.0179703 -0.0179877 -0.0179413 -0.0178308 -0.0176565 -0.0174204 -0.0171246 -0.0167692 -0.0163542 -0.0158854 -0.0153688 -0.0148044 -0.0141922 -0.0135409 -0.012859 -0.0121468 -0.011404 -0.0106414 -0.00986937 -0.00908804 -0.00829738 -0.00750925 -0.00673553 -0.00597622 -0.00523132 -0.00451357 -0.00383569 -0.00319769 -0.00259957 -0.00204856 -0.00155189 -0.00110958 -0.000721602 -0.000405901 -0.0001804 -4.51001e-05 0 0 -5.20769e-05 -0.000208308 -0.000468692 -0.00083323 -0.00128003 -0.00178718 -0.0023547 -0.00298257 -0.0036618 -0.00438337 -0.00514727 -0.00595352 -0.00678708 -0.00763293 -0.00849107 -0.00936151 -0.0102304 -0.011084 -0.0119223 -0.0127452 -0.0135408 -0.0142968 -0.0150132 -0.0156902 -0.0163179 -0.0168867 -0.0173966 -0.0178476 -0.0182334 -0.0185478 -0.0187907 -0.0189621 -0.0190604 -0.0190837 -0.0190321 -0.0189055 -0.0187076 -0.0184418 -0.0181082 -0.0177068 -0.0172464 -0.016736 -0.0161754 -0.0155648 -0.0149172 -0.014246 -0.0135511 -0.0128325 -0.0121058 -0.0113866 -0.0106749 -0.00997056 -0.00928899 -0.0086454 -0.00803981 -0.0074722 -0.00695472 -0.00649949 -0.0061065 -0.00577577 -0.00551393 -0.00532763 -0.00521688 -0.00518166 -0.00522183 -0.00533722 -0.00552785 -0.00579369 -0.00612785 -0.0065234 -0.00698034 -0.00749866 -0.00806609 -0.00867031 -0.00931133 -0.00998915 -0.0106885 -0.0113941 -0.0121059 -0.0128239 -0.0135328 -0.014217 -0.0148767 -0.0155116 -0.0161091 -0.016656 -0.0171524 -0.0175982 -0.017985 -0.0183042 -0.0185558 -0.0187398 -0.018853 -0.0188921 -0.0188571 -0.018748 -0.0185669 -0.0183157 -0.0179944 -0.017603 -0.0171479 -0.0166356 -0.016066 -0.0154391 -0.0147646 -0.0140522 -0.0133019 -0.0125137 -0.0116995 -0.0108713 -0.010029 -0.00917268 -0.00831579 -0.00747181 -0.00664076 -0.00582263 -0.00503198 -0.00428338 -0.00357682 -0.00291231 -0.00229846 -0.00174391 -0.00124864 -0.000812664 -0.000457124 -0.000203166 -5.07915e-05 0 0 -5.80596e-05 -0.000232238 -0.000522537 -0.000928954 -0.00142607 -0.00198845 -0.00261611 -0.00330903 -0.00405663 -0.0048483 -0.00568404 -0.00656385 -0.0074707 -0.00838754 -0.00931438 -0.0102512 -0.0111825 -0.0120926 -0.0129817 -0.0138496 -0.0146829 -0.0154679 -0.0162048 -0.0168934 -0.017523 -0.018083 -0.0185734 -0.0189941 -0.0193384 -0.0195996 -0.0197777 -0.0198727 -0.0198832 -0.0198077 -0.0196462 -0.0193986 -0.0190698 -0.0186642 -0.0181819 -0.017623 -0.016998 -0.0163178 -0.0155824 -0.0147918 -0.0139616 -0.0131074 -0.0122293 -0.0113273 -0.0104197 -0.00952465 -0.00864226 -0.0077725 -0.0069332 -0.00614219 -0.00539945 -0.00470501 -0.00407296 -0.00351745 -0.00303846 -0.002636 -0.0023178 -0.00209156 -0.0019573 -0.00191501 -0.00196451 -0.00210561 -0.00233832 -0.00266263 -0.0030705 -0.00355389 -0.00411278 -0.00474719 -0.00544279 -0.00618526 -0.0069746 -0.00781082 -0.00867605 -0.00955245 -0.01044 -0.0113388 -0.0122305 -0.0130972 -0.0139388 -0.0147554 -0.0155314 -0.0162517 -0.0169161 -0.0175248 -0.0180673 -0.0185332 -0.0189226 -0.0192355 -0.0194675 -0.0196145 -0.0196764 -0.0196532 -0.0195466 -0.0193584 -0.0190886 -0.0187373 -0.0183112 -0.0178173 -0.0172555 -0.0166258 -0.0159391 -0.0152059 -0.0144264 -0.0136004 -0.0127414 -0.0118627 -0.0109644 -0.0100464 -0.00912397 -0.00821226 -0.00731129 -0.00642106 -0.00555809 -0.00473893 -0.00396356 -0.00323199 -0.00255439 -0.00194091 -0.00139155 -0.000906327 -0.000509809 -0.000226582 -5.66454e-05 0 0 -6.41089e-05 -0.000256436 -0.00057698 -0.00102574 -0.0015736 -0.00219142 -0.00287921 -0.00363697 -0.00445235 -0.00531302 -0.00621896 -0.00717018 -0.00814749 -0.00913169 -0.0101228 -0.0111208 -0.0121082 -0.0130677 -0.0139993 -0.0149029 -0.0157636 -0.0165661 -0.0173105 -0.0179969 -0.0186134 -0.0191482 -0.0196014 -0.0199729 -0.0202557 -0.0204426 -0.0205335 -0.0205286 -0.0204268 -0.0202269 -0.019929 -0.0195331 -0.0190451 -0.018471 -0.0178107 -0.0170643 -0.0162446 -0.0153644 -0.0144238 -0.0134227 -0.0123796 -0.0113128 -0.0102223 -0.00910821 -0.00799171 -0.00689413 -0.00581548 -0.00475574 -0.00373558 -0.00277567 -0.001876 -0.00103658 -0.000273717 0.000396255 0.000973341 0.00145754 0.00183994 0.00211164 0.00227263 0.00232291 0.0022627 0.00209221 0.00181145 0.00142041 0.000928385 0.000344662 -0.000330759 -0.00109788 -0.00194014 -0.00284098 -0.00380041 -0.00481842 -0.00587431 -0.00694738 -0.00803764 -0.00914508 -0.0102486 -0.011327 -0.0123804 -0.0134086 -0.0143938 -0.0153177 -0.0161805 -0.016982 -0.0177099 -0.0183518 -0.0189076 -0.0193773 -0.0197555 -0.0200366 -0.0202207 -0.0203076 -0.0202989 -0.0201959 -0.0199986 -0.0197071 -0.0193286 -0.0188704 -0.0183326 -0.0177151 -0.0170298 -0.0162884 -0.015491 -0.0146374 -0.0137427 -0.0128217 -0.0118744 -0.0109008 -0.0099179 -0.00894279 -0.00797543 -0.00701584 -0.00608264 -0.00519449 -0.00435137 -0.00355328 -0.0028121 -0.00213967 -0.001536 -0.00100108 -0.000563107 -0.00025027 -6.25674e-05 0 0 -7.01281e-05 -0.000280513 -0.000631153 -0.00112205 -0.00172025 -0.0023928 -0.00313969 -0.00396093 -0.00484228 -0.00576949 -0.00674256 -0.0077615 -0.0088048 -0.00985098 -0.0109 -0.0119519 -0.0129873 -0.0139868 -0.0149504 -0.015878 -0.0167531 -0.0175589 -0.0182955 -0.0189628 -0.0195479 -0.0200381 -0.0204333 -0.0207335 -0.0209312 -0.021019 -0.0209968 -0.0208647 -0.0206221 -0.0202684 -0.0198037 -0.019228 -0.0185487 -0.0177732 -0.0169016 -0.0159337 -0.0148848 -0.0137703 -0.01259 -0.0113441 -0.0100539 -0.00874084 -0.00740504 -0.00604644 -0.0046897 -0.00335943 -0.00205566 -0.000778377 0.000448621 0.00160153 0.00268036 0.0036851 0.004597 0.00539732 0.00608606 0.00666322 0.00711857 0.00744191 0.00763322 0.00769252 0.00762005 0.00741606 0.00708054 0.00661351 0.00602562 0.00532753 0.00451924 0.00360075 0.00259109 0.00150928 0.000355321 -0.000870783 -0.00214518 -0.00344402 -0.0047673 -0.00611501 -0.00746271 -0.00878593 -0.0100847 -0.0113589 -0.0125876 -0.0137496 -0.014845 -0.0158737 -0.0168209 -0.017672 -0.0184268 -0.0190855 -0.019641 -0.0200865 -0.0204218 -0.0206471 -0.0207633 -0.0207712 -0.0206709 -0.0204624 -0.0201534 -0.0197516 -0.019257 -0.0186696 -0.0180023 -0.0172679 -0.0164665 -0.0155981 -0.0146792 -0.0137261 -0.0127391 -0.0117179 -0.0106817 -0.0096493 -0.00862081 -0.0075962 -0.00659637 -0.0056422 -0.00473369 -0.00387085 -0.00306737 -0.00233697 -0.00167965 -0.00109541 -0.000616168 -0.000273853 -6.84631e-05 0 0 -7.61173e-05 -0.000304469 -0.000685055 -0.00121788 -0.00186602 -0.00259257 -0.00339754 -0.00428091 -0.0052264 -0.00621772 -0.00725485 -0.0083378 -0.00944264 -0.0105454 -0.0116461 -0.0127447 -0.0138198 -0.0148499 -0.0158349 -0.0167749 -0.0176515 -0.0184464 -0.0191596 -0.019791 -0.0203266 -0.0207527 -0.021069 -0.0212757 -0.0213649 -0.0213288 -0.0211675 -0.0208809 -0.0204691 -0.0199323 -0.0192704 -0.0184835 -0.0175806 -0.0165709 -0.0154544 -0.014231 -0.0129187 -0.0115354 -0.0100811 -0.00855578 -0.0069843 -0.00539152 -0.00377742 -0.00214201 -0.000513612 0.00107945 0.00263718 0.00415958 0.0056194 0.00698942 0.00826962 0.00946001 0.0105392 0.0114857 0.0122997 0.012981 0.0135181 0.0138992 0.0141245 0.0141938 0.0141075 0.0138659 0.013469 0.0129167 0.0122212 0.0113947 0.0104372 0.0093487 0.00815089 0.00686552 0.00549258 0.00403208 0.00251133 0.000957642 -0.000628989 -0.00224856 -0.00387294 -0.00547401 -0.00705176 -0.00860619 -0.0101129 -0.0115473 -0.0129096 -0.0141997 -0.0154002 -0.0164937 -0.0174803 -0.0183599 -0.019124 -0.019764 -0.0202799 -0.0206717 -0.0209398 -0.0210844 -0.0211055 -0.0210033 -0.0207857 -0.0204608 -0.0200286 -0.0194892 -0.0188564 -0.0181444 -0.0173531 -0.0164825 -0.0155508 -0.0145761 -0.0135584 -0.0124978 -0.0114152 -0.0103318 -0.00924742 -0.00816215 -0.00709927 -0.00608207 -0.00511054 -0.00418468 -0.00332021 -0.00253282 -0.00182253 -0.00118932 -0.000668993 -0.00029733 -7.43326e-05 0 0 -8.20763e-05 -0.000328305 -0.000738687 -0.00131322 -0.00201091 -0.00279075 -0.00365276 -0.00459691 -0.00560473 -0.0066577 -0.00775582 -0.00889909 -0.010061 -0.011215 -0.012361 -0.0134992 -0.0146057 -0.0156569 -0.0166529 -0.0175936 -0.0184588 -0.0192286 -0.0199028 -0.0204815 -0.0209495 -0.0212919 -0.0215086 -0.0215996 -0.0215568 -0.0213721 -0.0210456 -0.0205772 -0.0199679 -0.0192185 -0.018329 -0.0172994 -0.0161407 -0.0148639 -0.0134691 -0.0119563 -0.0103462 -0.00865975 -0.00689698 -0.00505786 -0.00317095 -0.00126482 0.000660523 0.00260509 0.00453654 0.00642252 0.00826306 0.0100581 0.0117768 0.013388 0.0148918 0.0162882 0.0175528 0.0186615 0.0196142 0.020411 0.0210385 0.0214837 0.0217464 0.0218268 0.0217252 0.0214418 0.0209767 0.0203299 0.0195152 0.0185462 0.0174232 0.016146 0.0147393 0.0132277 0.0116114 0.00989018 0.00809523 0.0062576 0.00437728 0.00245428 0.000520726 -0.00139125 -0.00328164 -0.00515046 -0.00696958 -0.0087109 -0.0103744 -0.0119601 -0.0134478 -0.0148171 -0.016068 -0.0172007 -0.0182045 -0.0190693 -0.0197949 -0.0203813 -0.0208283 -0.0211353 -0.021302