<?xml version="1.0"?> 
<VTKFile type="StructuredGrid" version="0.1"> 
<StructuredGrid WholeExtent="0 128 0 128 0 0"> 
<Piece Extent="0 128 0 128 0 0"> 
<PointData>
<DataArray type="Float32" Name="u" format="ascii" NumberOfComponents="1"> 
0 0 0 0 0 0 0 0 0 0 0 0 0 0 0 0 0 0 0 0 0 0 0 0 0 0 0 0 0 0 0 0 0 0 0 0 0 0 0 0 0 0 0 0 0 0 0 0 0 0 0 0 0 0 0 0 0 0 0 0 0 0 0 0 0 0 0 0 0 0 0 0 0 0 0 0 0 0 0 0 0 0 0 0 0 0 0 0 0 0 0 0 0 0 0 0 0 0 0 0 0 0 0 0 0 0 0 0 0 0 0 0 0 0 0 0 0 0 0 0 0 0 0 0 0 0 0 0 0 0 1.62614e-07 6.50456e-07 1.46353e-06 2.60183e-06 3.86302e-06 5.0448e-06 6.14714e-06 7.17006e-06 7.99956e-06 8.52165e-06 8.73634e-06 8.64362e-06 8.16307e-06 7.21426e-06 5.79719e-06 3.91186e-06 1.52557e-06 -1.3944e-06 -4.84804e-06 -8.83537e-06 -1.33527e-05 -1.83962e-05 -2.39661e-05 -3.00622e-05 -3.66515e-05 -4.37009e-05 -5.12103e-05 -5.91799e-05 -6.75541e-05 -7.62774e-05 -8.53498e-05 -9.47714e-05 -0.000104472 -0.000114381 -0.000124498 -0.000134824 -0.000145279 -0.000155786 -0.000166345 -0.000176955 -0.000187535 -0.000198004 -0.000208362 -0.000218609 -0.000228664 -0.00023845 -0.000247964 -0.000257208 -0.000266108 -0.000274589 -0.000282652 -0.000290296 -0.000297459 -0.000304078 -0.000310152 -0.000315682 -0.000320621 -0.000324923 -0.000328587 -0.000331615 -0.000333981 -0.00033566 -0.000336654 -0.00033696 -0.000336581 -0.000335517 -0.000333766 -0.00033133 -0.000328234 -0.000324502 -0.000320136 -0.000315134 -0.000309544 -0.000303414 -0.000296742 -0.000289529 -0.000281838 -0.000273733 -0.000265215 -0.000256282 -0.000247009 -0.000237471 -0.000227668 -0.000217599 -0.000207344 -0.000196983 -0.000186517 -0.000175945 -0.000165348 -0.000154807 -0.000144322 -0.000133894 -0.0001236 -0.000113518 -0.000103648 -9.39903e-05 -8.46141e-05 -7.55889e-05 -6.69148e-05 -5.85917e-05 -5.06742e-05 -4.32165e-05 -3.62188e-05 -2.9681e-05 -2.36352e-05 -1.81135e-05 -1.31159e-05 -8.64247e-06 -4.69607e-06 -1.27968e-06 1.60668e-06 3.96303e-06 5.82237e-06 7.21769e-06 8.14901e-06 8.61631e-06 8.69967e-06 8.47916e-06 7.95477e-06 7.12651e-06 6.10739e-06 5.01045e-06 3.83567e-06 2.58306e-06 1.45297e-06 6.45764e-07 1.61441e-07 0 0 6.50456e-07 2.60183e-06 5.85411e-06 1.04073e-05 1.54521e-05 2.01792e-05 2.45886e-05 2.86802e-05 3.19982e-05 3.40866e-05 3.49453e-05 3.45745e-05 3.26523e-05 2.8857e-05 2.31888e-05 1.56475e-05 6.10229e-06 -5.57759e-06 -1.93922e-05 -3.53415e-05 -5.34107e-05 -7.3585e-05 -9.58643e-05 -0.000120249 -0.000146606 -0.000174804 -0.000204841 -0.00023672 -0.000270216 -0.000305109 -0.000341399 -0.000379086 -0.000417887 -0.000457523 -0.000497992 -0.000539295 -0.000581117 -0.000623145 -0.000665379 -0.000707819 -0.00075014 -0.000792016 -0.000833447 -0.000874434 -0.000914658 -0.000953799 -0.000991858 -0.00102883 -0.00106443 -0.00109836 -0.00113061 -0.00116119 -0.00118984 -0.00121631 -0.00124061 -0.00126273 -0.00128248 -0.00129969 -0.00131435 -0.00132646 -0.00133592 -0.00134264 -0.00134661 -0.00134784 -0.00134633 -0.00134207 -0.00133507 -0.00132532 -0.00131294 -0.00129801 -0.00128054 -0.00126054 -0.00123818 -0.00121365 -0.00118697 -0.00115811 -0.00112735 -0.00109493 -0.00106086 -0.00102513 -0.000988038 -0.000949885 -0.000910671 -0.000870395 -0.000829376 -0.000787934 -0.000746068 -0.000703779 -0.000661391 -0.000619228 -0.00057729 -0.000535577 -0.0004944 -0.000454072 -0.000414593 -0.000375961 -0.000338456 -0.000302356 -0.000267659 -0.000234367 -0.000202697 -0.000172866 -0.000144875 -0.000118724 -9.45408e-05 -7.2454e-05 -5.24637e-05 -3.45699e-05 -1.87843e-05 -5.11874e-06 6.42673e-06 1.58521e-05 2.32895e-05 2.88708e-05 3.2596e-05 3.44652e-05 3.47987e-05 3.39166e-05 3.18191e-05 2.8506e-05 2.44296e-05 2.00418e-05 1.53427e-05 1.03322e-05 5.81188e-06 2.58306e-06 6.45764e-07 0 0 1.46353e-06 5.85411e-06 1.31717e-05 2.34164e-05 3.47672e-05 4.54032e-05 5.53243e-05 6.45305e-05 7.1996e-05 7.66949e-05 7.8627e-05 7.77926e-05 7.34676e-05 6.49283e-05 5.21747e-05 3.52068e-05 1.37301e-05 -1.25496e-05 -4.36324e-05 -7.95183e-05 -0.000120174 -0.000165566 -0.000215695 -0.00027056 -0.000329864 -0.000393308 -0.000460893 -0.000532619 -0.000607986 -0.000686496 -0.000768148 -0.000852943 -0.000940247 -0.00102943 -0.00112048 -0.00121341 -0.00130751 -0.00140208 -0.0014971 -0.00159259 -0.00168781 -0.00178204 -0.00187526 -0.00196748 -0.00205798 -0.00214605 -0.00223168 -0.00231488 -0.00239497 -0.0024713 -0.00254387 -0.00261267 -0.00267713 -0.0027367 -0.00279137 -0.00284114 -0.00288559 -0.0029243 -0.00295729 -0.00298454 -0.00300583 -0.00302094 -0.00302988 -0.00303264 -0.00302923 -0.00301965 -0.0030039 -0.00298197 -0.00295411 -0.00292052 -0.00288122 -0.00283621 -0.0027859 -0.00273072 -0.00267067 -0.00260576 -0.00253654 -0.0024636 -0.00238693 -0.00230654 -0.00222308 -0.00213724 -0.00204901 -0.00195839 -0.0018661 -0.00177285 -0.00167865 -0.0015835 -0.00148813 -0.00139326 -0.0012989 -0.00120505 -0.0011124 -0.00102166 -0.000932833 -0.000845913 -0.000761527 -0.0006803 -0.000602233 -0.000527326 -0.000456067 -0.000388949 -0.000325969 -0.000267129 -0.000212717 -0.000163022 -0.000118043 -7.77822e-05 -4.22646e-05 -1.15172e-05 1.44601e-05 3.56673e-05 5.24013e-05 6.49592e-05 7.33411e-05 7.75468e-05 7.82971e-05 7.63124e-05 7.1593e-05 6.41386e-05 5.49666e-05 4.5094e-05 3.4521e-05 2.32475e-05 1.30767e-05 5.81188e-06 1.45297e-06 0 0 2.60183e-06 1.04073e-05 2.34164e-05 4.16292e-05 6.18084e-05 8.07167e-05 9.83542e-05 0.000114721 0.000127993 0.000136346 0.000139781 0.000138298 0.000130609 0.000115428 9.2755e-05 6.25898e-05 2.44091e-05 -2.23104e-05 -7.75687e-05 -0.000141366 -0.000213643 -0.00029434 -0.000383457 -0.000480995 -0.000586424 -0.000699214 -0.000819366 -0.000946878 -0.00108086 -0.00122044 -0.0013656 -0.00151634 -0.00167155 -0.00183009 -0.00199197 -0.00215718 -0.00232447 -0.00249258 -0.00266152 -0.00283128 -0.00300056 -0.00316806 -0.00333379 -0.00349774 -0.00365863 -0.0038152 -0.00396743 -0.00411534 -0.00425773 -0.00439343 -0.00452243 -0.00464474 -0.00475935 -0.00486525 -0.00496243 -0.00505091 -0.00512993 -0.00519876 -0.0052574 -0.00530584 -0.00534369 -0.00537057 -0.00538646 -0.00539137 -0.0053853 -0.00536827 -0.00534026 -0.00530128 -0.00525174 -0.00519204 -0.00512217 -0.00504215 -0.00495271 -0.00485462 -0.00474786 -0.00463246 -0.00450941 -0.00437973 -0.00424343 -0.00410051 -0.00395215 -0.00379954 -0.00364269 -0.00348158 -0.0033175 -0.00315174 -0.00298427 -0.00281512 -0.00264556 -0.00247691 -0.00230916 -0.00214231 -0.0019776 -0.00181629 -0.00165837 -0.00150385 -0.00135383 -0.00120942 -0.00107064 -0.000937468 -0.000810787 -0.000691464 -0.000579501 -0.000474896 -0.000378163 -0.000289816 -0.000209855 -0.00013828 -7.51371e-05 -2.0475e-05 2.57069e-05 6.34085e-05 9.31579e-05 0.000115483 0.000130384 0.000137861 0.000139195 0.000135667 0.000127276 0.000114024 9.77183e-05 8.01672e-05 6.13707e-05 4.13289e-05 2.32475e-05 1.03322e-05 2.58306e-06 0 0 3.85349e-06 1.5414e-05 3.46814e-05 6.16559e-05 9.1466e-05 0.000119241 0.000144979 0.000168683 0.000187603 0.000198991 0.000202848 0.000199173 0.000186039 0.000161516 0.000125604 7.83035e-05 1.88416e-05 -5.35547e-05 -0.000138885 -0.000237151 -0.000348237 -0.000472031 -0.000608534 -0.000757745 -0.000918837 -0.00109098 -0.00127418 -0.00146844 -0.00167239 -0.00188466 -0.00210525 -0.00233417 -0.0025697 -0.00281012 -0.00305544 -0.00330564 -0.00355884 -0.00381313 -0.00406851 -0.00432498 -0.00458059 -0.00483339 -0.00508337 -0.00533053 -0.00557298 -0.0058088 -0.006038 -0.00626057 -0.00647476 -0.00667882 -0.00687274 -0.00705653 -0.00722869 -0.00738773 -0.00753365 -0.00766645 -0.00778504 -0.00788832 -0.00797629 -0.00804895 -0.00810572 -0.00814602 -0.00816985 -0.00817721 -0.00816811 -0.00814255 -0.00810054 -0.00804208 -0.00796775 -0.00787817 -0.00777333 -0.00765322 -0.00751896 -0.00737167 -0.00721133 -0.00703795 -0.00685304 -0.0066581 -0.00645312 -0.00623812 -0.00601485 -0.00578507 -0.0055488 -0.00530602 -0.00505865 -0.00480859 -0.00455584 -0.00430041 -0.00404423 -0.00378927 -0.00353551 -0.00328296 -0.00303351 -0.00278904 -0.00254955 -0.00231504 -0.00208721 -0.00186775 -0.00165667 -0.00145396 -0.00126096 -0.00107901 -0.000908116 -0.000748273 -0.000600285 -0.000464955 -0.000342281 -0.000232264 -0.000134999 -5.05814e-05 2.09899e-05 7.97145e-05 0.000126373 0.000161745 0.00018583 0.00019863 0.000202064 0.000198052 0.000186595 0.000167691 0.000144068 0.000118448 9.08318e-05 6.12199e-05 3.44362e-05 1.5305e-05 3.82624e-06 0 0 5.00667e-06 2.00267e-05 4.506e-05 8.01067e-05 0.00011863 0.000154095 0.000186501 0.000215847 0.000238439 0.000250578 0.000252266 0.000243502 0.000221719 0.00018435 0.000131396 6.28548e-05 -2.22701e-05 -0.000124977 -0.000245267 -0.000383139 -0.000538377 -0.000710767 -0.000900307 -0.001107 -0.00132965 -0.00156708 -0.00181928 -0.00208625 -0.00236609 -0.00265688 -0.00295862 -0.00327132 -0.00359261 -0.00392013 -0.00425388 -0.00459386 -0.00493749 -0.00528219 -0.00562797 -0.00597482 -0.00632014 -0.0066613 -0.00699832 -0.00733119 -0.00765739 -0.00797441 -0.00828226 -0.00858093 -0.00886813 -0.00914156 -0.00940123 -0.00964714 -0.00987735 -0.0100899 -0.0102849 -0.0104622 -0.0106204 -0.0107582 -0.0108756 -0.0109724 -0.0110481 -0.0111018 -0.0111336 -0.0111434 -0.0111312 -0.0110971 -0.0110411 -0.0109632 -0.010864 -0.0107445 -0.0106046 -0.0104443 -0.010265 -0.0100682 -0.00985386 -0.00962199 -0.00937454 -0.00911347 -0.00883877 -0.00855044 -0.00825079 -0.00794213 -0.00762445 -0.00729776 -0.00696458 -0.00662742 -0.00628628 -0.00594116 -0.00559467 -0.00524942 -0.0049054 -0.00456261 -0.00422362 -0.00389099 -0.0035647 -0.00324478 -0.00293354 -0.00263332 -0.00234413 -0.00206596 -0.00180068 -0.00155018 -0.00131446 -0.00109351 -0.000888489 -0.000700554 -0.000529703 -0.000375939 -0.000239449 -0.000120426 -1.8868e-05 6.5224e-05 0.000132859 0.000185046 0.000221785 0.000243076 0.000251476 0.000249542 0.000237273 0.000214669 0.000185397 0.000153122 0.000117845 7.9564e-05 4.47548e-05 1.9891e-05 4.97275e-06 0 0 6.06135e-06 2.42454e-05 5.45521e-05 9.69816e-05 0.000143302 0.000185281 0.000222918 0.000256215 0.000280501 0.000291108 0.000288035 0.000271284 0.00023765 0.000183932 0.00011013 1.62437e-05 -9.89259e-05 -0.000236578 -0.000396713 -0.00057933 -0.000784063 -0.00101055 -0.00125878 -0.00152876 -0.00181887 -0.0021275 -0.00245464 -0.00280031 -0.00316197 -0.0035371 -0.0039257 -0.00432779 -0.00474027 -0.00516011 -0.00558729 -0.00602182 -0.00646041 -0.00689977 -0.0073399 -0.0077808 -0.00821919 -0.00865181 -0.00907864 -0.0094997 -0.00991186 -0.010312 -0.0107002 -0.0110764 -0.0114378 -0.0117817 -0.0121079 -0.0124166 -0.0127053 -0.0129718 -0.0132161 -0.0134381 -0.0136361 -0.0138085 -0.0139552 -0.0140763 -0.0141709 -0.014238 -0.0142776 -0.0142899 -0.0142747 -0.014232 -0.014162 -0.0140646 -0.0139406 -0.0137911 -0.013616 -0.0134154 -0.0131909 -0.0129442 -0.0126755 -0.0123846 -0.0120739 -0.0117458 -0.0114004 -0.0110375 -0.01066 -0.0102707 -0.00986965 -0.00945681 -0.00903529 -0.00860822 -0.00817558 -0.00773737 -0.00729688 -0.00685736 -0.00641882 -0.00598126 -0.00554795 -0.00512214 -0.00470384 -0.00429306 -0.00389281 -0.00350612 -0.00313301 -0.00277346 -0.00242996 -0.00210499 -0.00179853 -0.0015106 -0.00124277 -0.000996613 -0.000772123 -0.000569303 -0.000388487 -0.000230008 -9.38667e-05 1.99369e-05 0.000112617 0.000185387 0.000238248 0.000271199 0.000287432 0.000290135 0.000279311 0.000254957 0.000221707 0.000184191 0.000142409 9.63613e-05 5.42032e-05 2.40903e-05 6.02258e-06 0 0 7.01754e-06 2.80702e-05 6.31578e-05 0.000112281 0.00016548 0.000212797 0.000254232 0.000289785 0.00031379 0.000320581 0.000310157 0.000282518 0.000233831 0.000160261 6.18071e-05 -6.15298e-05 -0.000211126 -0.000388357 -0.000593224 -0.000825725 -0.0010853 -0.00137137 -0.00168394 -0.00202302 -0.00238649 -0.00277224 -0.00318028 -0.00361061 -0.00406002 -0.00452532 -0.0050065 -0.00550357 -0.00601269 -0.00653007 -0.00705568 -0.00758954 -0.0081276 -0.00866586 -0.00920429 -0.00974291 -0.0102778 -0.0108049 -0.0113243 -0.0118361 -0.0123364 -0.0128217 -0.0132919 -0.013747 -0.0141839 -0.0145991 -0.0149928 -0.0153649 -0.0157126 -0.0160335 -0.0163273 -0.0165941 -0.0168321 -0.0170391 -0.0172153 -0.0173606 -0.017474 -0.0175545 -0.017602 -0.0176167 -0.0175984 -0.0175472 -0.0174632 -0.0173463 -0.0171975 -0.0170179 -0.0168076 -0.0165664 -0.0162965 -0.0159997 -0.0156761 -0.0153257 -0.0149511 -0.0145552 -0.0141379 -0.0136992 -0.0132424 -0.0127708 -0.0122844 -0.0117832 -0.0112708 -0.010751 -0.0102237 -0.00968905 -0.00915086 -0.00861311 -0.00807579 -0.00753892 -0.00700648 -0.0064825 -0.00596696 -0.00545988 -0.00496502 -0.00448617 -0.00402332 -0.00357648 -0.0031488 -0.00274342 -0.00236034 -0.00199956 -0.00166314 -0.00135313 -0.00106954 -0.000812357 -0.000582111 -0.000379328 -0.000204006 -5.61468e-05 6.56464e-05 0.000162769 0.00023522 0.000283 0.00030993 0.000319833 0.000312708 0.000288556 0.000252997 0.000211654 0.000164525 0.000111612 6.27815e-05 2.79029e-05 6.97573e-06 0 0 7.75076e-06 3.1003e-05 6.97568e-05 0.000124012 0.000182162 0.000232599 0.000275322 0.000310333 0.000330992 0.000330659 0.000309333 0.000267017 0.000199295 0.000101754 -2.56042e-05 -0.000182781 -0.000371266 -0.000592546 -0.000846624 -0.0011335 -0.00145232 -0.00180226 -0.00218331 -0.00259547 -0.00303606 -0.0035024 -0.00399449 -0.00451234 -0.00505199 -0.00560951 -0.00618488 -0.00677812 -0.0073846 -0.00799972 -0.00862348 -0.00925588 -0.00989215 -0.0105275 -0.011162 -0.0117956 -0.0124238 -0.0130419 -0.0136501 -0.0142482 -0.0148321 -0.0153978 -0.0159451 -0.0164741 -0.0169812 -0.0174627 -0.0179186 -0.0183491 -0.018751 -0.0191215 -0.0194605 -0.0197681 -0.0200422 -0.0202806 -0.0204833 -0.0206504 -0.0207808 -0.0208733 -0.0209279 -0.0209447 -0.0209237 -0.0208648 -0.0207681 -0.0206336 -0.0204625 -0.0202557 -0.0200134 -0.0197356 -0.0194243 -0.0190818 -0.018708 -0.0183029 -0.0178695 -0.0174108 -0.0169268 -0.0164175 -0.0158864 -0.0153374 -0.0147703 -0.0141852 -0.0135862 -0.0129776 -0.0123592 -0.0117311 -0.0110979 -0.0104641 -0.00982974 -0.00919479 -0.00856398 -0.00794207 -0.00732905 -0.00672491 -0.00613423 -0.00556157 -0.00500692 -0.00447029 -0.00395556 -0.00346661 -0.00300344 -0.00256606 -0.00215708 -0.00177911 -0.00143215 -0.00111621 -0.00083207 -0.000580531 -0.00036159 -0.000175246 -1.99855e-05 0.000105705 0.000201827 0.000268378 0.000309761 0.000330376 0.000330222 0.000309299 0.000274197 0.000231504 0.000181219 0.000123343 6.93806e-05 3.08358e-05 7.70895e-06 0 0 8.13654e-06 3.25462e-05 7.32289e-05 0.000130185 0.000190344 0.000240639 0.000281069 0.000311634 0.000324793 0.000313005 0.00027627 0.000214589 0.000123072 -3.16933e-06 -0.000164135 -0.000359826 -0.00059174 -0.000861377 -0.00116874 -0.00151382 -0.0018954 -0.00231226 -0.00276439 -0.0032518 -0.00377114 -0.00431906 -0.00489557 -0.00550067 -0.0061296 -0.00677762 -0.00744471 -0.00813088 -0.00883072 -0.00953881 -0.0102551 -0.0109797 -0.0117071 -0.0124319 -0.013154 -0.0138735 -0.0145852 -0.0152843 -0.0159705 -0.016644 -0.0173003 -0.0179348 -0.0185477 -0.0191389 -0.0197046 -0.0202411 -0.0207483 -0.0212263 -0.021672 -0.0220825 -0.0224577 -0.0227977 -0.0231003 -0.0233634 -0.023587 -0.0237711 -0.0239146 -0.0240164 -0.0240766 -0.024095 -0.0240718 -0.0240069 -0.0239003 -0.0237521 -0.0235634 -0.0233353 -0.0230677 -0.0227608 -0.0224167 -0.0220374 -0.0216231 -0.0211737 -0.0206923 -0.0201819 -0.0196424 -0.019074 -0.0184804 -0.0178654 -0.0172291 -0.0165714 -0.0158968 -0.0152097 -0.0145103 -0.0137985 -0.0130793 -0.0123579 -0.0116341 -0.0109081 -0.0101852 -0.00947086 -0.00876507 -0.00806783 -0.0073845 -0.00672045 -0.00607567 -0.00545017 -0.00484862 -0.0042757 -0.00373143 -0.0032158 -0.00273207 -0.00228352 -0.00187015 -0.00149196 -0.00115011 -0.000845762 -0.000578919 -0.000349579 -0.000156212 2.71306e-06 0.000127196 0.000217236 0.000277713 0.000313502 0.000324606 0.000311022 0.000280237 0.000239736 0.000189518 0.000129584 7.28911e-05 3.2396e-05 8.09901e-06 0 0 8.17488e-06 3.26995e-05 7.35739e-05 0.000130798 0.000190028 0.000236919 0.000271472 0.000293687 0.000295193 0.000267619 0.000210967 0.000125235 5.1634e-06 -0.00015451 -0.000353786 -0.000592664 -0.00087255 -0.00119485 -0.00155956 -0.00196669 -0.00241452 -0.00290135 -0.00342718 -0.003992 -0.00459172 -0.00522222 -0.00588352 -0.00657561 -0.00729286 -0.00802965 -0.00878599 -0.00956187 -0.0103511 -0.0111473 -0.0119507 -0.0127611 -0.0135725 -0.0143789 -0.0151802 -0.0159764 -0.0167621 -0.0175319 -0.0182856 -0.0190235 -0.0197407 -0.0204328 -0.0210997 -0.0217414 -0.0223542 -0.0229343 -0.0234817 -0.0239965 -0.0244758 -0.0249166 -0.0253189 -0.0256829 -0.0260064 -0.0262875 -0.0265262 -0.0267225 -0.0268754 -0.0269839 -0.0270479 -0.0270675 -0.0270426 -0.0269734 -0.0268597 -0.0267017 -0.0265003 -0.0262565 -0.0259705 -0.0256422 -0.0252736 -0.0248667 -0.0244216 -0.0239382 -0.0234195 -0.0228684 -0.0222848 -0.0216689 -0.0210244 -0.020355 -0.0196607 -0.0189417 -0.0182024 -0.0174475 -0.0166771 -0.0158912 -0.0150951 -0.0142943 -0.0134889 -0.0126788 -0.0118701 -0.0110689 -0.010275 -0.00948863 -0.00871583 -0.00796281 -0.00722957 -0.00651611 -0.00582797 -0.0051707 -0.0045443 -0.00394877 -0.00338812 -0.00286638 -0.00238355 -0.00193962 -0.00153623 -0.00117502 -0.000855994 -0.000579146 -0.000343033 -0.000146208 1.13275e-05 0.000129574 0.000213785 0.000269214 0.00029586 0.000293724 0.000271116 0.000236349 0.000189422 0.000130335 7.33132e-05 3.25836e-05 8.14591e-06 0 0 7.86577e-06 3.14631e-05 7.07919e-05 0.000125852 0.000181212 0.000221438 0.000246532 0.000256492 0.000242192 0.000194502 0.000113423 -1.04423e-06 -0.000154431 -0.000352269 -0.000594557 -0.000881295 -0.00121369 -0.00159296 -0.0020191 -0.00249211 -0.00300969 -0.00356955 -0.00417168 -0.00481608 -0.00549781 -0.00621189 -0.00695834 -0.00773715 -0.00854176 -0.00936562 -0.0102087 -0.0110711 -0.0119456 -0.0128253 -0.0137101 -0.0146 -0.0154884 -0.0163686 -0.0172406 -0.0181045 -0.0189544 -0.0197847 -0.0205955 -0.0213866 -0.0221535 -0.0228917 -0.023601 -0.0242816 -0.0249299 -0.0255423 -0.026119 -0.0266598 -0.0271622 -0.0276237 -0.0280442 -0.0284237 -0.0287605 -0.029053 -0.0293011 -0.0295048 -0.0296633 -0.0297757 -0.029842 -0.0298622 -0.0298363 -0.0297644 -0.0296464 -0.0294823 -0.0292731 -0.0290196 -0.0287218 -0.0283797 -0.027995 -0.0275696 -0.0271033 -0.0265963 -0.0260511 -0.0254703 -0.024854 -0.0242021 -0.0235182 -0.0228059 -0.0220652 -0.021296 -0.0205031 -0.019691 -0.0188596 -0.0180092 -0.0171452 -0.0162736 -0.0153942 -0.014507 -0.0136188 -0.0127361 -0.0118589 -0.0109873 -0.0101282 -0.00928865 -0.00846862 -0.00766812 -0.00689362 -0.0061516 -0.00544205 -0.00476497 -0.00412523 -0.00352768 -0.00297233 -0.00245918 -0.00199043 -0.00156831 -0.00119282 -0.000863948 -0.000580448 -0.000341058 -0.000145778 5.39139e-06 0.000117978 0.00019751 0.000243985 0.000257405 0.000246835 0.000221344 0.00018093 0.000125594 7.06467e-05 3.13986e-05 7.84964e-06 0 0 7.12676e-06 2.8507e-05 6.41408e-05 0.000114028 0.000161921 0.000191573 0.000202982 0.00019615 0.000161312 8.87062e-05 -2.16678e-05 -0.00016981 -0.000361367 -0.000601985 -0.000891664 -0.0012304 -0.00161907 -0.00205855 -0.00254882 -0.0030899 -0.00367875 -0.00431237 -0.00499074 -0.00571388 -0.00647586 -0.00727077 -0.0080986 -0.00895936 -0.0098455 -0.0107495 -0.0116713 -0.0126109 -0.0135605 -0.0145121 -0.0154659 -0.0164217 -0.0173725 -0.0183111 -0.0192375 -0.0201518 -0.0210481 -0.0219206 -0.0227694 -0.0235943 -0.0243913 -0.0251558 -0.0258879 -0.0265876 -0.027252 -0.0278779 -0.0284654 -0.0290146 -0.0295233 -0.0299896 -0.0304135 -0.030795 -0.0311329 -0.031426 -0.0316742 -0.0318776 -0.0320356 -0.0321477 -0.0322137 -0.0322337 -0.0322077 -0.0321358 -0.0320179 -0.0318541 -0.0316448 -0.0313909 -0.0310921 -0.0307486 -0.0303616 -0.0299323 -0.0294608 -0.0289471 -0.0283932 -0.027801 -0.0271708 -0.0265024 -0.0257989 -0.0250633 -0.0242958 -0.0234962 -0.0226689 -0.0218183 -0.0209445 -0.0200473 -0.0191326 -0.0182063 -0.0172682 -0.0163185 -0.0153642 -0.0144125 -0.0134633 -0.0125167 -0.0115804 -0.0106623 -0.00976231 -0.00888053 -0.00802437 -0.00720129 -0.00641129 -0.00565438 -0.00493635 -0.00426303 -0.00363441 -0.00305049 -0.00251419 -0.00202846 -0.00159327 -0.00120865 -0.000873645 -0.000587342 -0.000349738 -0.000160832 -1.49746e-05 9.34825e-05 0.00016454 0.000198197 0.000204156 0.000192119 0.000162085 0.000114055 6.41562e-05 2.85139e-05 7.12847e-06 0 0 5.87538e-06 2.35015e-05 5.28784e-05 9.40061e-05 0.00013018 0.000144697 0.000137556 0.000108758 4.80761e-05 -5.47146e-05 -0.000199614 -0.000386623 -0.000621298 -0.000909198 -0.00125032 -0.00164467 -0.00209259 -0.00259443 -0.00315019 -0.00375986 -0.00441954 -0.00512533 -0.00587723 -0.00667523 -0.00751234 -0.00838156 -0.00928289 -0.0102163 -0.0111733 -0.0121452 -0.013132 -0.0141337 -0.0151417 -0.0161474 -0.0171507 -0.0181517 -0.0191428 -0.0201167 -0.0210733 -0.0220127 -0.0229291 -0.0238171 -0.0246766 -0.0255076 -0.0263064 -0.0270693 -0.0277964 -0.0284875 -0.0291407 -0.0297537 -0.0303265 -0.0308593 -0.0313508 -0.0318 -0.032207 -0.0325718 -0.0328938 -0.0331727 -0.0334083 -0.0336009 -0.03375 -0.0338557 -0.033918 -0.0339367 -0.033912 -0.0338438 -0.0337321 -0.0335769 -0.0333785 -0.0331369 -0.0328522 -0.0325244 -0.0321539 -0.0317413 -0.0312865 -0.0307896 -0.0302517 -0.0296739 -0.0290561 -0.0283984 -0.027703 -0.0269721 -0.0262056 -0.0254036 -0.0245698 -0.023708 -0.0228182 -0.0219004 -0.0209602 -0.0200032 -0.0190296 -0.0180392 -0.0170395 -0.016038 -0.0150347 -0.0140295 -0.013031 -0.0120479 -0.0110801 -0.0101277 -0.009199 -0.00830267 -0.00743865 -0.00660695 -0.00581444 -0.00506802 -0.00436767 -0.0037134 -0.00310901 -0.00255829 -0.00206126 -0.0016179 -0.00122781 -0.000890565 -0.000606167 -0.000374615 -0.000190341 -4.77751e-05 5.30823e-05 0.000112231 0.000139839 0.000146071 0.000130928 9.44105e-05 5.31059e-05 2.36026e-05 5.90066e-06 0 0 4.11164e-06 1.64465e-05 3.70047e-05 6.57862e-05 8.59892e-05 8.0812e-05 5.02546e-05 -5.68304e-06 -9.75162e-05 -0.00023576 -0.000420416 -0.000651482 -0.000934224 -0.00127391 -0.00167053 -0.0021241 -0.00263425 -0.00320061 -0.0038232 -0.004502 -0.00523206 -0.00600844 -0.00683113 -0.00770013 -0.00860724 -0.00954426 -0.0105112 -0.011508 -0.0125251 -0.0135527 -0.0145909 -0.0156396 -0.0166894 -0.0177311 -0.0187645 -0.0197898 -0.0207993 -0.0217853 -0.0227479 -0.023687 -0.0245975 -0.0254743 -0.0263172 -0.0271264 -0.027899 -0.0286324 -0.0293265 -0.0299813 -0.0305959 -0.0311696 -0.0317023 -0.0321939 -0.0326448 -0.0330551 -0.0334248 -0.033754 -0.0340432 -0.034293 -0.0345034 -0.0346744 -0.0348065 -0.0348999 -0.0349548 -0.0349712 -0.034949 -0.0348882 -0.0347888 -0.0346509 -0.034474 -0.0342577 -0.034002 -0.033707 -0.033372 -0.0329964 -0.0325804 -0.0321239 -0.0316268 -0.0310888 -0.0305099 -0.0298903 -0.0292307 -0.0285322 -0.0277948 -0.0270184 -0.0262059 -0.02536 -0.0244809 -0.0235685 -0.0226279 -0.0216645 -0.0206782 -0.0196691 -0.0186447 -0.0176126 -0.016573 -0.0155257 -0.0144802 -0.0134456 -0.0124221 -0.0114095 -0.0104175 -0.00945574 -0.00852412 -0.00762269 -0.0067595 -0.00594265 -0.00517211 -0.00444791 -0.00377487 -0.00315782 -0.00259677 -0.00209172 -0.00164295 -0.00125073 -0.000915065 -0.000635958 -0.00040812 -0.000226263 -9.03869e-05 -4.9147e-07 5.38842e-05 8.32013e-05 8.74596e-05 6.66593e-05 3.74959e-05 1.66648e-05 4.16621e-06 0 0 1.83552e-06 7.34209e-06 1.65197e-05 2.93684e-05 2.93477e-05 -8.27756e-08 -5.8923e-05 -0.000147173 -0.000275465 -0.000454431 -0.000684072 -0.000964388 -0.00130015 -0.00169612 -0.0021523 -0.00266869 -0.00324404 -0.0038771 -0.00456785 -0.00531631 -0.00611631 -0.00696169 -0.00785245 -0.00878858 -0.00976056 -0.0107589 -0.0117835 -0.0128345 -0.013901 -0.0149721 -0.016048 -0.0171284 -0.0182035 -0.0192632 -0.0203074 -0.0213362 -0.0223419 -0.023317 -0.0242613 -0.0251749 -0.0260533 -0.0268921 -0.0276912 -0.0284507 -0.0291691 -0.0298449 -0.0304781 -0.0310689 -0.0316178 -0.0321257 -0.0325926 -0.0330185 -0.0334052 -0.0337547 -0.0340668 -0.0343416 -0.0345811 -0.034787 -0.0349594 -0.0350984 -0.0352049 -0.0352802 -0.0353243 -0.0353371 -0.0353187 -0.0352691 -0.0351882 -0.035076 -0.0349314 -0.0347533 -0.0345416 -0.0342964 -0.0340157 -0.0336978 -0.0333425 -0.03295 -0.0325183 -0.0320457 -0.0315323 -0.0309779 -0.0303819 -0.0297437 -0.0290632 -0.0283405 -0.027577 -0.0267744 -0.0259325 -0.0250515 -0.0241358 -0.02319 -0.0222141 -0.0212081 -0.0201796 -0.0191364 -0.0180783 -0.0170055 -0.0159278 -0.0148554 -0.0137881 -0.0127261 -0.0116799 -0.0106605 -0.00966771 -0.00870159 -0.00777153 -0.00688692 -0.00604775 -0.00525402 -0.00451178 -0.00382704 -0.00319981 -0.0026301 -0.00211905 -0.00166783 -0.00127643 -0.000944862 -0.000668313 -0.000441982 -0.000265868 -0.000139972 -5.37075e-05 3.50947e-06 3.16793e-05 3.08019e-05 1.73261e-05 7.70047e-06 1.92512e-06 0 0 -9.71453e-07 -3.88581e-06 -8.74308e-06 -1.55432e-05 -4.01663e-05 -9.84921e-05 -0.000190521 -0.000316252 -0.000486225 -0.000710976 -0.000990506 -0.00132481 -0.00171793 -0.00217388 -0.00269267 -0.0032743 -0.0039164 -0.0046166 -0.00537492 -0.00619134 -0.00705831 -0.00796827 -0.00892121 -0.00991715 -0.0109451 -0.0119941 -0.0130641 -0.0141551 -0.0152552 -0.0163522 -0.0174462 -0.0185371 -0.0196144 -0.0206674 -0.021696 -0.0227002 -0.0236727 -0.0246059 -0.0254999 -0.0263547 -0.0271667 -0.0279326 -0.0286524 -0.0293261 -0.0299539 -0.0305361 -0.0310727 -0.0315637 -0.0320119 -0.0324203 -0.0327888 -0.0331175 -0.0334102 -0.0336709 -0.0338996 -0.0340963 -0.0342645 -0.0344077 -0.0345261 -0.0346195 -0.03469 -0.0347396 -0.0347684 -0.0347764 -0.0347634 -0.0347296 -0.0346749 -0.0345993 -0.0345007 -0.034377 -0.0342283 -0.0340546 -0.0338523 -0.0336179 -0.0333514 -0.0330528 -0.0327182 -0.0323438 -0.0319295 -0.0314754 -0.0309787 -0.0304366 -0.0298491 -0.0292162 -0.0285379 -0.0278138 -0.027044 -0.0262286 -0.025371 -0.0244747 -0.0235399 -0.0225664 -0.0215617 -0.0205335 -0.0194815 -0.018406 -0.0173174 -0.0162263 -0.0151329 -0.0140371 -0.0129507 -0.0118859 -0.0108424 -0.00982046 -0.00883076 -0.00788418 -0.00698073 -0.0061204 -0.0053106 -0.00455876 -0.00386488 -0.00322895 -0.00265323 -0.00213997 -0.00168916 -0.00130082 -0.000970854 -0.000695187 -0.00047382 -0.000306752 -0.000183482 -9.3509e-05 -3.68341e-05 -1.34568e-05 -7.56947e-06 -3.36421e-06 -8.41052e-07 0 0 -4.32778e-06 -1.73111e-05 -3.895e-05 -6.92445e-05 -0.000122975 -0.000214921 -0.000345084 -0.000513462 -0.00073025 -0.00100564 -0.00133964 -0.00173224 -0.00218644 -0.00270527 -0.00328872 -0.00393678 -0.00464573 -0.00541186 -0.00623514 -0.0071156 -0.00804406 -0.00901134 -0.0100175 -0.0110624 -0.0121336 -0.0132184 -0.014317 -0.0154292 -0.0165418 -0.0176416 -0.0187284 -0.0198025 -0.0208525 -0.0218673 -0.0228469 -0.0237914 -0.0246936 -0.0255465 -0.0263503 -0.0271048 -0.027808 -0.028458 -0.0290547 -0.0295981 -0.0300908 -0.0305351 -0.0309312 -0.031279 -0.031584 -0.0318517 -0.0320822 -0.0322753 -0.0324377 -0.0325759 -0.0326897 -0.0327794 -0.0328503 -0.0329082 -0.032953 -0.0329846 -0.0330063 -0.0330213 -0.0330294 -0.0330308 -0.0330253 -0.033013 -0.0329938 -0.0329678 -0.0329317 -0.0328823 -0.0328196 -0.0327436 -0.0326488 -0.0325295 -0.0323857 -0.0322175 -0.0320184 -0.0317819 -0.031508 -0.0311968 -0.0308428 -0.0304406 -0.0299903 -0.0294919 -0.0289429 -0.0283411 -0.0276864 -0.0269788 -0.0262205 -0.0254136 -0.024558 -0.0236539 -0.0227082 -0.0217281 -0.0207135 -0.0196645 -0.0185922 -0.0175077 -0.016411 -0.0153022 -0.0141944 -0.0131008 -0.0120213 -0.0109561 -0.00991741 -0.00891779 -0.00795722 -0.00703569 -0.00616222 -0.00534581 -0.00458647 -0.0038842 -0.00324259 -0.00266524 -0.00215215 -0.00170332 -0.00131568 -0.000986137 -0.000714703 -0.000501374 -0.000335983 -0.000208359 -0.000118502 -6.6412e-05 -3.73567e-05 -1.6603e-05 -4.15075e-06 0 0 -8.23347e-06 -3.29339e-05 -7.41012e-05 -0.000131735 -0.000219078 -0.00034937 -0.000522611 -0.000738802 -0.00100754 -0.00133843 -0.00173147 -0.00218665 -0.00270569 -0.00329028 -0.00394043 -0.00465613 -0.00543205 -0.00626286 -0.00714854 -0.0080891 -0.00907356 -0.0100909 -0.0111412 -0.0122243 -0.0133261 -0.014432 -0.0155423 -0.0166567 -0.0177609 -0.0188403 -0.0198948 -0.0209245 -0.0219178 -0.0228631 -0.0237603 -0.0246096 -0.0254045 -0.0261387 -0.0268123 -0.0274252 -0.0279772 -0.0284681 -0.028898 -0.0292668 -0.0295798 -0.0298421 -0.0300538 -0.0302149 -0.030334 -0.0304199 -0.0304726 -0.030492 -0.0304878 -0.0304695 -0.0304373 -0.030391 -0.0303387 -0.0302884 -0.0302401 -0.0301938 -0.0301539 -0.0301251 -0.0301072 -0.0301003 -0.0301043 -0.0301192 -0.030145 -0.0301816 -0.0302245 -0.0302691 -0.0303154 -0.0303634 -0.0304051 -0.0304324 -0.0304454 -0.030444 -0.0304187 -0.03036 -0.0302677 -0.030142 -0.0299743 -0.029756 -0.029487 -0.0291674 -0.0287922 -0.0283563 -0.0278596 -0.0273022 -0.0266843 -0.0260065 -0.0252686 -0.0244707 -0.0236191 -0.0227203 -0.0217743 -0.0207811 -0.0197523 -0.0186994 -0.0176225 -0.0165215 -0.0154109 -0.0143052 -0.0132044 -0.0121084 -0.0110315 -0.00998775 -0.00897723 -0.00799991 -0.00706662 -0.00618817 -0.00536458 -0.00459583 -0.00388713 -0.00324365 -0.0026654 -0.00215237 -0.00170278 -0.00131483 -0.000988516 -0.00072384 -0.000511211 -0.000341039 -0.000213323 -0.000128063 -7.20357e-05 -3.20159e-05 -8.00397e-06 0 0 -1.26885e-05 -5.0754e-05 -0.000114197 -0.000203016 -0.000328476 -0.000501838 -0.000723104 -0.000992272 -0.0013181 -0.00170934 -0.00216599 -0.00268806 -0.00327566 -0.00392891 -0.00464781 -0.00543236 -0.00627536 -0.00716961 -0.0081151 -0.00911185 -0.0101468 -0.011207 -0.0122924 -0.0134029 -0.0145225 -0.0156348 -0.0167399 -0.0178378 -0.0189126 -0.0199484 -0.0209453 -0.0219032 -0.0228103 -0.0236546 -0.0244361 -0.0251549 -0.0258055 -0.0263825 -0.026886 -0.0273159 -0.0276742 -0.0279631 -0.0281824 -0.0283322 -0.0284209 -0.028457 -0.0284405 -0.0283713 -0.028262 -0.0281249 -0.0279601 -0.0277675 -0.0275604 -0.027352 -0.0271422 -0.0269311 -0.0267295 -0.0265483 -0.0263875 -0.026247 -0.0261328 -0.0260512 -0.0260019 -0.025985 -0.0260005 -0.0260483 -0.0261283 -0.0262406 -0.026379 -0.0265374 -0.0267157 -0.026914 -0.0271213 -0.0273268 -0.0275305 -0.0277324 -0.0279193 -0.0280781 -0.0282087 -0.0283112 -0.0283732 -0.0283825 -0.0283391 -0.0282429 -0.0280858 -0.0278593 -0.0275636 -0.0271987 -0.0267626 -0.0262536 -0.0256716 -0.0250167 -0.0242944 -0.0235101 -0.0226639 -0.0217558 -0.0207977 -0.0198015 -0.0187672 -0.0176949 -0.0166003 -0.0154993 -0.0143917 -0.0132775 -0.012173 -0.0110941 -0.0100407 -0.00901304 -0.0080238 -0.00708586 -