<?xml version="1.0"?> 
<VTKFile type="StructuredGrid" version="0.1"> 
<StructuredGrid WholeExtent="0 128 0 128 0 0"> 
<Piece Extent="0 128 0 128 0 0"> 
<PointData>
<DataArray type="Float32" Name="u" format="ascii" NumberOfComponents="1"> 
0 0 0 0 0 0 0 0 0 0 0 0 0 0 0 0 0 0 0 0 0 0 0 0 0 0 0 0 0 0 0 0 0 0 0 0 0 0 0 0 0 0 0 0 0 0 0 0 0 0 0 0 0 0 0 0 0 0 0 0 0 0 0 0 0 0 0 0 0 0 0 0 0 0 0 0 0 0 0 0 0 0 0 0 0 0 0 0 0 0 0 0 0 0 0 0 0 0 0 0 0 0 0 0 0 0 0 0 0 0 0 0 0 0 0 0 0 0 0 0 0 0 0 0 0 0 0 0 0 0 1.37462e-07 5.49846e-07 1.23715e-06 2.19939e-06 3.37164e-06 4.68904e-06 6.15156e-06 7.75921e-06 9.46513e-06 1.12224e-05 1.30311e-05 1.48912e-05 1.67389e-05 1.85107e-05 2.02065e-05 2.18263e-05 2.3314e-05 2.46136e-05 2.5725e-05 2.66484e-05 2.73366e-05 2.77428e-05 2.78671e-05 2.77093e-05 2.72353e-05 2.64109e-05 2.5236e-05 2.37107e-05 2.18173e-05 1.95382e-05 1.68735e-05 1.3823e-05 1.03892e-05 6.57405e-06 2.37769e-06 -2.19989e-06 -7.13315e-06 -1.23965e-05 -1.799e-05 -2.39136e-05 -3.01144e-05 -3.65396e-05 -4.3189e-05 -5.00627e-05 -5.70786e-05 -6.41546e-05 -7.12907e-05 -7.84867e-05 -8.56366e-05 -9.26341e-05 -9.94791e-05 -0.000106172 -0.000112597 -0.00011864 -0.000124302 -0.000129581 -0.000134379 -0.000138597 -0.000142235 -0.000145293 -0.000147714 -0.00014944 -0.00015047 -0.000150806 -0.000150446 -0.000149393 -0.000147644 -0.000145201 -0.000142122 -0.000138464 -0.000134228 -0.000129414 -0.00012412 -0.000118447 -0.000112394 -0.00010596 -9.92624e-05 -9.24142e-05 -8.5416e-05 -7.82677e-05 -7.10754e-05 -6.39452e-05 -5.68771e-05 -4.9871e-05 -4.30089e-05 -3.63724e-05 -2.99616e-05 -2.37765e-05 -1.78695e-05 -1.22932e-05 -7.04753e-06 -2.13251e-06 2.42671e-06 6.605e-06 1.04023e-05 1.38188e-05 1.68524e-05 1.95013e-05 2.17656e-05 2.36452e-05 2.51579e-05 2.63217e-05 2.71365e-05 2.76024e-05 2.77535e-05 2.76243e-05 2.72148e-05 2.65249e-05 2.56015e-05 2.44914e-05 2.31947e-05 2.17113e-05 2.00971e-05 1.84079e-05 1.66437e-05 1.48046e-05 1.29537e-05 1.11544e-05 9.40664e-06 7.71044e-06 6.11228e-06 4.65862e-06 3.34946e-06 2.1848e-06 1.22895e-06 5.46201e-07 1.3655e-07 0 0 5.49846e-07 2.19939e-06 4.94862e-06 8.79754e-06 1.34866e-05 1.87561e-05 2.46062e-05 3.10369e-05 3.78605e-05 4.48897e-05 5.21244e-05 5.95646e-05 6.69556e-05 7.40427e-05 8.08259e-05 8.73051e-05 9.3256e-05 9.84544e-05 0.0001029 0.000106593 0.000109346 0.000110971 0.000111468 0.000110837 0.000108941 0.000105643 0.000100944 9.48427e-05 8.72691e-05 7.81529e-05 6.74939e-05 5.52922e-05 4.15566e-05 2.62962e-05 9.51078e-06 -8.79956e-06 -2.85326e-05 -4.95861e-05 -7.19601e-05 -9.56545e-05 -0.000120458 -0.000146158 -0.000172756 -0.000200251 -0.000228315 -0.000256618 -0.000285163 -0.000313947 -0.000342547 -0.000370536 -0.000397916 -0.000424687 -0.000450388 -0.000474561 -0.000497206 -0.000518323 -0.000537515 -0.000554388 -0.000568941 -0.000581174 -0.000590856 -0.000597759 -0.000601881 -0.000603223 -0.000601785 -0.00059757 -0.000590577 -0.000580805 -0.000568488 -0.000553858 -0.000536913 -0.000517655 -0.000496481 -0.000473787 -0.000449574 -0.000423842 -0.000397049 -0.000369657 -0.000341664 -0.000313071 -0.000284302 -0.000255781 -0.000227508 -0.000199484 -0.000172036 -0.00014549 -0.000119846 -9.51059e-05 -7.1478e-05 -4.91728e-05 -2.81901e-05 -8.53005e-06 9.70684e-06 2.642e-05 4.16094e-05 5.52751e-05 6.74095e-05 7.80053e-05 8.70623e-05 9.45807e-05 0.000100632 0.000105287 0.000108546 0.000110409 0.000111014 0.000110497 0.000108859 0.0001061 0.000102406 9.79656e-05 9.27787e-05 8.68452e-05 8.03884e-05 7.36316e-05 6.65749e-05 5.92183e-05 5.18148e-05 4.46176e-05 3.76266e-05 3.08418e-05 2.44491e-05 1.86345e-05 1.33978e-05 8.73922e-06 4.91581e-06 2.1848e-06 5.46201e-07 0 0 1.23715e-06 4.94862e-06 1.11344e-05 1.97945e-05 3.03448e-05 4.22013e-05 5.5364e-05 6.98329e-05 8.51861e-05 0.000101002 0.00011728 0.00013402 0.00015065 0.000166596 0.000181858 0.000196436 0.000209826 0.000221522 0.000231525 0.000239835 0.000246029 0.000249685 0.000250804 0.000249384 0.000245118 0.000237698 0.000227124 0.000213396 0.000196356 0.000175844 0.000151861 0.000124407 9.35025e-05 5.91664e-05 2.13993e-05 -1.9799e-05 -6.41984e-05 -0.000111569 -0.00016191 -0.000215223 -0.00027103 -0.000328856 -0.000388701 -0.000450565 -0.000513708 -0.000577392 -0.000641616 -0.000706381 -0.00077073 -0.000833707 -0.000895312 -0.000955545 -0.00101337 -0.00106776 -0.00111871 -0.00116623 -0.00120941 -0.00124737 -0.00128012 -0.00130764 -0.00132943 -0.00134496 -0.00135423 -0.00135725 -0.00135402 -0.00134453 -0.0013288 -0.00130681 -0.0012791 -0.00124618 -0.00120805 -0.00116472 -0.00111708 -0.00106602 -0.00101154 -0.000953644 -0.000893361 -0.000831728 -0.000768744 -0.000704409 -0.000639679 -0.000575507 -0.000511894 -0.000448839 -0.00038708 -0.000327352 -0.000269654 -0.000213988 -0.000160826 -0.000110639 -6.34277e-05 -1.91926e-05 2.18404e-05 5.9445e-05 9.36211e-05 0.000124369 0.000151671 0.000175512 0.00019589 0.000212806 0.000226421 0.000236895 0.000244229 0.000248421 0.000249782 0.000248619 0.000244933 0.000238724 0.000230413 0.000220423 0.000208752 0.000195402 0.000180874 0.000165671 0.000149794 0.000133241 0.000116583 0.00010039 8.46597e-05 6.9394e-05 5.50105e-05 4.19275e-05 3.01451e-05 1.96632e-05 1.10606e-05 4.91581e-06 1.22895e-06 0 0 2.19939e-06 8.79754e-06 1.97945e-05 3.51902e-05 5.39463e-05 7.50246e-05 9.84249e-05 0.000124147 0.000151442 0.000179559 0.000208497 0.000238258 0.000267822 0.000296171 0.000323303 0.00034922 0.000373024 0.000393818 0.000411601 0.000426374 0.000437385 0.000443885 0.000445873 0.000443349 0.000435765 0.000422574 0.000403776 0.000379371 0.000349076 0.000312611 0.000269975 0.000221169 0.000166227 0.000105185 3.80431e-05 -3.51983e-05 -0.00011413 -0.000198344 -0.00028784 -0.000382618 -0.000481831 -0.000584633 -0.000691024 -0.000801004 -0.000913258 -0.00102647 -0.00114065 -0.00125579 -0.00137019 -0.00148215 -0.00159167 -0.00169875 -0.00180155 -0.00189824 -0.00198882 -0.00207329 -0.00215006 -0.00221755 -0.00227576 -0.00232469 -0.00236343 -0.00239104 -0.00240752 -0.00241289 -0.00240714 -0.00239028 -0.00236231 -0.00232322 -0.00227395 -0.00221543 -0.00214765 -0.00207062 -0.00198592 -0.00189515 -0.0017983 -0.00169537 -0.0015882 -0.00147863 -0.00136666 -0.00125228 -0.00113721 -0.00102312 -0.000910033 -0.000797936 -0.000688142 -0.000581958 -0.000479386 -0.000380424 -0.000285912 -0.000196691 -0.00011276 -3.41202e-05 3.88274e-05 0.00010568 0.000166438 0.0002211 0.000269638 0.000312021 0.000348249 0.000378323 0.000402527 0.000421147 0.000434184 0.000441638 0.000444056 0.000441989 0.000435437 0.000424398 0.000409624 0.000391863 0.000371115 0.000347381 0.000321554 0.000294527 0.0002663 0.000236873 0.000207259 0.00017847 0.000150506 0.000123367 9.77964e-05 7.45379e-05 5.35913e-05 3.49569e-05 1.96632e-05 8.73922e-06 2.1848e-06 0 0 3.37636e-06 1.35054e-05 3.03872e-05 5.40217e-05 8.27571e-05 0.000114941 0.000150575 0.000189657 0.000231021 0.000273499 0.00031709 0.000361796 0.000406053 0.0004483 0.000488537 0.000526763 0.000561616 0.000591732 0.000617113 0.000637757 0.000652539 0.000660333 0.00066114 0.000654958 0.000640981 0.000618402 0.00058722 0.000547436 0.000498648 0.000440454 0.000372855 0.00029585 0.000209516 0.000113928 9.08628e-06 -0.000105009 -0.000227722 -0.000358418 -0.000497096 -0.000643756 -0.000797103 -0.000955843 -0.00111998 -0.0012895 -0.00146241 -0.00163671 -0.0018124 -0.00198947 -0.00216533 -0.00233739 -0.00250565 -0.0026701 -0.00282796 -0.0029764 -0.00311544 -0.00324507 -0.00336287 -0.00346643 -0.00355574 -0.00363081 -0.00369022 -0.00373257 -0.00375786 -0.0037661 -0.00375728 -0.00373141 -0.0036885 -0.00362854 -0.00355295 -0.00346316 -0.00335916 -0.00324095 -0.00311097 -0.00297162 -0.00282293 -0.00266488 -0.00250028 -0.00233194 -0.00215985 -0.00198402 -0.00180704 -0.00163149 -0.00145738 -0.0012847 -0.00111545 -0.000951632 -0.000793238 -0.00064027 -0.000494013 -0.000355752 -0.000225487 -0.000103218 1.04289e-05 0.000114829 0.000209982 0.000295887 0.000372479 0.000439688 0.000497515 0.000545961 0.000585433 0.000616337 0.000638675 0.000652445 0.000658458 0.000657524 0.000649641 0.00063481 0.000614156 0.000588801 0.000558748 0.000523994 0.000485899 0.000445817 0.00040375 0.000359698 0.000315213 0.000271846 0.000229598 0.000188469 0.000149617 0.000114199 8.2215e-05 5.36653e-05 3.01867e-05 1.34163e-05 3.35408e-06 0 0 4.70789e-06 1.88315e-05 4.2371e-05 7.53262e-05 0.000115243 0.000159667 0.000208599 0.000262039 0.000318315 0.00037576 0.000434371 0.00049415 0.000552923 0.000608517 0.000660933 0.000710171 0.000754367 0.000791659 0.000822048 0.000845533 0.000860615 0.000865793 0.000861066 0.000846436 0.000820864 0.000783311 0.000733776 0.000672261 0.000598285 0.000511371 0.000411518 0.000298726 0.000173158 3.49731e-05 -0.000115827 -0.000279244 -0.000454368 -0.000640294 -0.000837022 -0.00104455 -0.00126109 -0.00148484 -0.00171581 -0.00195399 -0.00219662 -0.00244096 -0.00268699 -0.00293471 -0.00318056 -0.00342096 -0.00365592 -0.00388543 -0.00410563 -0.00431264 -0.00450647 -0.00468712 -0.00485125 -0.00499552 -0.00511992 -0.00522445 -0.00530718 -0.00536615 -0.00540136 -0.00541282 -0.00540054 -0.00536452 -0.00530476 -0.00522127 -0.005116 -0.00499092 -0.00484603 -0.00468133 -0.00450017 -0.0043059 -0.00409852 -0.00387804 -0.00364832 -0.00341323 -0.00317278 -0.00292696 -0.00267933 -0.00243348 -0.00218938 -0.00194706 -0.00170925 -0.0014787 -0.00125541 -0.00103938 -0.000832403 -0.000636244 -0.000450907 -0.000276393 -0.000113594 3.65959e-05 0.000174177 0.000299148 0.000411362 0.000510667 0.000597065 0.000670554 0.000731623 0.000780759 0.000817961 0.00084323 0.000857608 0.000862136 0.000856816 0.000841647 0.000818128 0.000787756 0.000750531 0.000706454 0.00065738 0.000605163 0.000549802 0.0004913 0.000431813 0.000373503 0.000316368 0.000260409 0.000207282 0.000158644 0.000114495 7.48336e-05 4.20939e-05 1.87084e-05 4.6771e-06 0 0 6.19397e-06 2.47759e-05 5.57457e-05 9.91035e-05 0.000151404 0.000209202 0.000272498 0.000341292 0.000413326 0.000486342 0.00056034 0.00063532 0.000708431 0.000776822 0.000840493 0.000899443 0.000951277 0.000993598 0.00102641 0.0010497 0.00106161 0.00106026 0.00104565 0.00101778 0.000975414 0.000917301 0.000843445 0.000753845 0.000647989 0.000525362 0.000385965 0.000229797 5.71516e-05 -0.00013168 -0.000336698 -0.000557901 -0.000794068 -0.00104397 -0.00130762 -0.001585 -0.00187379 -0.00217162 -0.00247852 -0.00279447 -0.00311589 -0.00343921 -0.00376442 -0.00409152 -0.00441589 -0.00473287 -0.00504249 -0.00534472 -0.00563455 -0.00590695 -0.00616191 -0.00639945 -0.00661519 -0.00680481 -0.00696828 -0.00710563 -0.0072143 -0.00729176 -0.00733802 -0.00735307 -0.00733693 -0.0072896 -0.0072111 -0.00710141 -0.00696309 -0.00679871 -0.00660826 -0.00639175 -0.00615353 -0.00589798 -0.00562509 -0.00533486 -0.00503232 -0.00472252 -0.00440544 -0.00408109 -0.00375409 -0.00342908 -0.00310605 -0.00278501 -0.00246952 -0.00216315 -0.0018659 -0.00157777 -0.00130108 -0.00103817 -0.00078902 -0.000553643 -0.000333241 -0.000129019 5.90222e-05 0.000230883 0.000386288 0.000524959 0.000646897 0.000752102 0.000841099 0.000914413 0.000972044 0.00101399 0.0010415 0.00105583 0.00105696 0.00104491 0.00102154 0.000988726 0.000946466 0.000894761 0.000835998 0.000772563 0.000704456 0.000631677 0.000557061 0.00048344 0.000410815 0.000339186 0.000270793 0.000207874 0.00015043 9.84619e-05 5.53848e-05 2.46155e-05 6.15387e-06 0 0 7.83461e-06 3.13385e-05 7.05115e-05 0.000125354 0.00019124 0.000263547 0.000342272 0.000427418 0.000516052 0.000605245 0.000694997 0.000785307 0.000872579 0.000953215 0.00102722 0.00109458 0.00115235 0.00119755 0.00123019 0.00125027 0.00125553 0.00124374 0.0012149 0.001169 0.00110463 0.00102037 0.000916225 0.000792189 0.000647758 0.000482427 0.000296195 8.90625e-05 -0.000138502 -0.000386031 -0.000653525 -0.000940983 -0.00124682 -0.00156946 -0.00190889 -0.00226511 -0.0026352 -0.0030162 -0.00340811 -0.00381093 -0.00422021 -0.00463146 -0.00504469 -0.0054599 -0.00587131 -0.00627312 -0.00666535 -0.00704798 -0.00741474 -0.00775934 -0.00808177 -0.00838204 -0.0086547 -0.0088943 -0.00910085 -0.00927433 -0.00941158 -0.00950942 -0.00956784 -0.00958684 -0.00956645 -0.00950667 -0.00940751 -0.00926896 -0.00909423 -0.00888653 -0.00864586 -0.00837221 -0.00807106 -0.00774786 -0.00740261 -0.00703533 -0.00665229 -0.00625979 -0.00585783 -0.00544641 -0.0050313 -0.00461829 -0.00420737 -0.00379855 -0.00339627 -0.00300499 -0.00262471 -0.00225542 -0.00190005 -0.00156152 -0.00123983 -0.000934969 -0.000648512 -0.000382016 -0.000135481 9.1092e-05 0.000297256 0.000482563 0.000647012 0.000790604 0.000913859 0.0010173 0.00110092 0.00116473 0.00121015 0.0012386 0.00125008 0.0012446 0.00122439 0.00119171 0.00114655 0.00108891 0.00102175 0.000948018 0.000867711 0.000780832 0.000690956 0.000601659 0.000512941 0.000424801 0.000340147 0.000261888 0.000190022 0.00012455 7.00594e-05 3.11375e-05 7.78438e-06 0 0 9.58342e-06 3.83337e-05 8.62508e-05 0.000153335 0.000233595 0.000321042 0.000415676 0.000517495 0.0006228 0.000727889 0.000832761 0.000937418 0.00103746 0.00112847 0.00121047 0.00128344 0.00134386 0.00138818 0.00141641 0.00142854 0.001422 0.00139421 0.00134518 0.0012749 0.00118185 0.00106453 0.000922916 0.000757022 0.000566425 0.000350705 0.000109861 -0.000156105 -0.000446491 -0.000760591 -0.00109841 -0.00145993 -0.0018432 -0.00224622 -0.00266899 -0.00311153 -0.00357026 -0.00404163 -0.00452564 -0.00502229 -0.00552622 -0.00603203 -0.00653974 -0.00704935 -0.00755388 -0.00804637 -0.00852682 -0.00899522 -0.00944399 -0.00986552 -0.0102598 -0.0106269 -0.0109601 -0.0112529 -0.0115053 -0.0117172 -0.0118848 -0.0120043 -0.0120757 -0.0120989 -0.012074 -0.012001 -0.0118798 -0.0117106 -0.0114971 -0.0112433 -0.0109492 -0.0106147 -0.0102466 -0.00985131 -0.00942896 -0.00897952 -0.00851058 -0.00802976 -0.00753706 -0.00703246 -0.00652294 -0.00601546 -0.00551001 -0.00500659 -0.00451057 -0.00402728 -0.00355675 -0.00309895 -0.00265744 -0.00223573 -0.00183383 -0.00145175 -0.00109143 -0.000754819 -0.000441929 -0.000152754 0.000112024 0.000351726 0.000566352 0.000755901 0.000920814 0.00106153 0.00117805 0.00127037 0.00134002 0.00138852 0.00141589 0.00142212 0.00140979 0.00138146 0.00133714 0.00127684 0.00120407 0.00112236 0.0010317 0.000932111 0.000827953 0.000723608 0.000619074 0.000514353 0.000413117 0.00031904 0.000232121 0.000152361 8.57033e-05 3.80904e-05 9.52259e-06 0 0 1.1394e-05 4.5576e-05 0.000102546 0.000182304 0.000277312 0.000380032 0.000490463 0.000608605 0.000729876 0.000849692 0.000968054 0.00108496 0.00119515 0.00129337 0.00137962 0.00145389 0.0015121 0.00155016 0.00156808 0.00156584 0.00154064 0.00148965 0.00141286 0.00131029 0.00118042 0.00102176 0.000834315 0.000618074 0.000372821 9.83358e-05 -0.000205383 -0.000538334 -0.000899501 -0.00128787 -0.00170344 -0.0021462 -0.00261377 -0.00310374 -0.00361611 -0.00415088 -0.0047039 -0.005271 -0.00585218 -0.00644745 -0.00705055 -0.00765524 -0.00826151 -0.00886936 -0.00947067 -0.0100573 -0.0106292 -0.0111865 -0.0117201 -0.0122212 -0.0126898 -0.0131259 -0.0135218 -0.0138695 -0.0141692 -0.0144209 -0.0146199 -0.0147618 -0.0148465 -0.014874 -0.0148445 -0.0147577 -0.0146139 -0.0144129 -0.0141595 -0.013858 -0.0135087 -0.0131114 -0.0126739 -0.0122041 -0.011702 -0.0111675 -0.0106096 -0.0100371 -0.00945022 -0.00884878 -0.00824097 -0.00763491 -0.0070306 -0.00642804 -0.00583346 -0.00525309 -0.00468693 -0.00413497 -0.00360136 -0.00309022 -0.00260155 -0.00213536 -0.001694 -0.00127985 -0.000892914 -0.000533185 -0.000201653 0.000100694 0.000373857 0.000617836 0.000832874 0.00101922 0.00117686 0.00130581 0.00140758 0.00148368 0.00153412 0.00155889 0.00156082 0.00154272 0.0015046 0.00144646 0.00137237 0.00128641 0.00118858 0.00107886 0.000962507 0.000844735 0.000725546 0.000604942 0.000487472 0.000377685 0.00027558 0.000181159 0.000101902 4.52898e-05 1.13224e-05 0 0 1.32664e-05 5.30655e-05 0.000119397 0.000212262 0.000322391 0.000440514 0.000566633 0.000700747 0.00083728 0.000970656 0.00110087 0.00122794 0.00134567 0.00144791 0.00153467 0.00160592 0.00165707 0.0016835 0.0016852 0.00166218 0.00161145 0.00153004 0.00141795 0.00127516 0.00110033 0.000892084 0.000650422 0.000375345 6.6947e-05 -0.00027468 -0.000649537 -0.00105762 -0.00149753 -0.00196787 -0.00246862 -0.00299979 -0.00355854 -0.00414202 -0.00475024 -0.00538318 -0.00603612 -0.0067043 -0.00738772 -0.00808639 -0.00879321 -0.00950107 -0.01021 -0.0109199 -0.0116217 -0.0123059 -0.0129725 -0.0136217 -0.0142431 -0.0148265 -0.0153718 -0.0158792 -0.0163397 -0.0167442 -0.0170927 -0.0173853 -0.0176168 -0.0177817 -0.0178802 -0.0179123 -0.0178778 -0.017777 -0.0176097 -0.017376 -0.0170813 -0.0167307 -0.0163243 -0.0158621 -0.0153531 -0.0148063 -0.0142217 -0.0135992 -0.0129492 -0.0122819 -0.0115973 -0.0108954 -0.0101854 -0.00947665 -0.00876915 -0.00806289 -0.00736495 -0.0066824 -0.00601525 -0.00536349 -0.00473183 -0.004125 -0.00354298 -0.00298579 -0.00245623 -0.00195711 -0.00148844 -0.0010502 -0.000643775 -0.000270532 6.95283e-05 0.000376406 0.000650038 0.00089036 0.00109737 0.00127107 0.00141284 0.00152407 0.00160476 0.0016549 0.00167748 0.00167549 0.00164892 0.00159778 0.00152667 0.00144018 0.00133832 0.00122109 0.00109462 0.00096504 0.000832357 0.000696569 0.000563212 0.000437821 0.000320399 0.000210943 0.000118656 5.27358e-05 1.3184e-05 0 0 1.52005e-05 6.08021e-05 0.000136805 0.000243208 0.000368831 0.000502491 0.000644188 0.000793922 0.000945012 0.00109078 0.00123122 0.00136634 0.00148901 0.0015921 0.00167561 0.00173954 0.00177877 0.00178818 0.00176777 0.00171754 0.00163444 0.0015154 0.00136043 0.00116953 0.000941584 0.000675487 0.000371237 2.88356e-05 -0.000351198 -0.000768344 -0.0012226 -0.00171397 -0.00224059 -0.00280058 -0.00339395 -0.00402069 -0.0046775 -0.00536106 -0.00607137 -0.00680843 -0.00756692 -0.00834154 -0.00913227 -0.00993913 -0.0107542 -0.0115695 -0.0123852 -0.0132011 -0.0140069 -0.0147921 -0.0155568 -0.0163009 -0.0170129 -0.0176812 -0.0183058 -0.0188867 -0.0194138 -0.0198768 -0.0202757 -0.0206106 -0.0208754 -0.0210642 -0.0211769 -0.0212135 -0.0211741 -0.0210587 -0.0208673 -0.0205999 -0.0202625 -0.0198612 -0.019396 -0.0188669 -0.0182841 -0.0176578 -0.016988 -0.0162748 -0.0155296 -0.0147641 -0.0139783 -0.0131722 -0.0123562 -0.0115407 -0.0107257 -0.00991115 -0.00910505 -0.00831523 -0.00754171 -0.00678449 -0.00604884 -0.00534005 -0.00465813 -0.00400306 -0.00337813 -0.00278661 -0.0022285 -0.0017038 -0.00121434 -0.000761953 -0.000346635 3.1614e-05 0.000372308 0.00067496 0.000939572 0.00116614 0.00135581 0.0015097 0.00162781 0.00171016 0.00175979 0.00177977 0.00177011 0.0017308 0.00166695 0.00158367 0.00148095 0.00135879 0.00122428 0.00108452 0.000939507 0.000789233 0.000640336 0.000499451 0.000366577 0.000241714 0.000135964 6.04285e-05 1.51071e-05 0 0 1.71227e-05 6.8491e-05 0.000154105 0.000273964 0.000414827 0.000563452 0.000719838 0.000883987 0.00104801 0.00120403 0.00135203 0.00149203 0.00161591 0.00171556 0.00179098 0.00184217 0.00186358 0.00184965 0.00180038 0.00171577 0.00159284 0.00142859 0.00122302 0.000976142 0.000687268 0.00035572 -1.85011e-05 -0.000435396 -0.000893867 -0.00139282 -0.00193224 -0.00251215 -0.00313012 -0.00378376 -0.00447305 -0.00519799 -0.00595483 -0.00673978 -0.00755285 -0.00839404 -0.00925755 -0.0101376 -0.0110341 -0.0119472 -0.0128682 -0.0137885 -0.0147081 -0.015627 -0.0165338 -0.0174169 -0.0182766 -0.0191126 -0.0199122 -0.0206627 -0.021364 -0.022016 -0.0226075 -0.0231271 -0.0235748 -0.0239506 -0.0242477 -0.0244595 -0.024586 -0.0246271 -0.0245829 -0.0244533 -0.0242385 -0.0239385 -0.0235598 -0.0231095 -0.0225874 -0.0219935 -0.0213393 -0.0206361 -0.0198839 -0.0190828 -0.0182455 -0.0173849 -0.016501 -0.0155937 -0.0146746 -0.0137551 -0.012835 -0.0119146 -0.0110022 -0.0101066 -0.00922771 -0.00836554 -0.00752585 -0.00671442 -0.00593124 -0.0051763 -0.00445335 -0.00376611 -0.00311458 -0.00249875 -0.00192101 -0.00138371 -0.000886854 -0.000430441 -1.55299e-05 0.000356823 0.000686618 0.000973854 0.00121924 0.00142349 0.0015866 0.00170856 0.00179239 0.00184107 0.00185462 0.00183302 0.00178181 0.00170655 0.00160723 0.00148386 0.00134448 0.00119719 0.00104197 0.000878818 0.000715578 0.000560078 0.000412319 0.000272299 0.000153168 6.80748e-05 1.70187e-05 0 0 1.89593e-05 7.58373e-05 0.000170634 0.000303349 0.000458571 0.000620887 0.000790297 0.000966802 0.00114122 0.00130436 0.00145624 0.00159685 0.0017171 0.00180792 0.0018693 0.00190125 0.00189788 0.00185334 0.00176761 0.0016407 0.00146988 0.00125246 0.000988416 0.00067776 0.000320471 -8.34669e-05 -0.000534054 -0.00103129 -0.00157331 -0.00215826 -0.00278613 -0.00345692 -0.0041676 -0.00491514 -0.00569953 -0.00652077 -0.00737469 -0.00825711 -0.00916803 -0.0101074 -0.0110692 -0.0120473 -0.0130416 -0.0140522 -0.01507 -0.0160858 -0.0170998 -0.0181118 -0.0191097 -0.0200813 -0.0210264 -0.0219452 -0.0228238 -0.0236482 -0.0244185 -0.0251346 -0.0257842 -0.0263548 -0.0268465 -0.0272592 -0.0275855 -0.0278181 -0.027957 -0.0280021 -0.0279535 -0.0278113 -0.0275753 -0.0272457 -0.0268299 -0.0263353 -0.0257618 -0.0251096 -0.024391 -0.0236185 -0.0227922 -0.0219119 -0.0209917 -0.0200453 -0.0190729 -0.0180743 -0.0170619 -0.0160479 -0.0150322 -0.0140149 -0.013005 -0.0120116 -0.0110346 -0.0100742 -0.00913633 -0.00822712 -0.00734657 -0.00649467 -0.00567557 -0.0048934 -0.00414816 -0.00343984 -0.00277144 -0.00214595 -0.00156335 -0.00102366 -0.000528685 -8.02458e-05 0.000321659 0.00067703 0.000985919 0.00124838 0.00146442 0.00163403 0.00175994 0.0018449 0.00188889 0.00189192 0.00185985 0.00179853 0.00170798 0.00158819 0.00144819 0.00129703 0.0011347 0.000961208 0.000785671 0.000617211 0.00045583 0.000301527 0.000169609 7.53818e-05 1.88455e-05 0 0 2.07103e-05 8.28412e-05 0.000186393 0.000331365 0.000500064 0.000674797 0.000855564 0.00104237 0.00122463 0.00139179 0.00154385 0.0016808 0.00179259 0.00186919 0.00191058 0.00191677 0.00188168 0.00179924 0.00166945 0.00149231 0.00126558 0.000987015 0.000656615 0.000274382 -0.000158807 -0.000642075 -0.00117542 -0.00175885 -0.00238954 -0.00306467 -0.00378426 -0.00454829 -0.00535302 -0.00619472 -0.00707339 -0.00798903 -0.00893709 -0.00991305 -0.0109169 -0.0119486 -0.013002 -0.0140707 -0.0151547 -0.0162541 -0.0173595 -0.0184615 -0.0195602 -0.0206556 -0.0217348 -0.0227851 -0.0238064 -0.0247988 -0.0257475 -0.0266377 -0.0274693 -0.0282425 -0.0289438 -0.0295599 -0.0300907 -0.0305363 -0.0308887 -0.0311399 -0.0312898 -0.0313386 -0.0312861 -0.0311325 -0.0308777 -0.0305217 -0.0300727 -0.0295386 -0.0289194 -0.0282152 -0.0274393 -0.0266052 -0.0257128 -0.0247622 -0.0237681 -0.0227454 -0.021694 -0.020614 -0.0195181 -0.0184191 -0.0173171 -0.0162121 -0.0151133 -0.0140301 -0.0129625 -0.0119105 -0.0108803 -0.00987815 -0.00890412 -0.00795817 -0.00704479 -0.00616848 -0.00532924 -0.00452706 -0.00376564 -0.00304866 -0.00237613 -0.00174804 -0.00116716 -0.000636247 -0.000155304 0.00027567 0.000655841 0.000984379 0.00126128 0.00148655 0.00166245 0.00179124 0.00187293 0.00190751 0.00190104 0.0018596 0.00178318 0.00167179 0.00153541 0.00138405 0.00121772 0.0010364 0.000850613 0.000670849 0.000497111 0.000329398 0.000185287 8.23496e-05 2.05874e-05 0 0 2.23756e-05 8.95025e-05 0.000201381 0.00035801 0.000539306 0.000725182 0.00091564 0.00111068 0.00129825 0.00146631 0.00161485 0.00174388 0.00184239 0.00189936 0.00191481 0.00188874 0.00181497 0.00168737 0.00150592 0.00127063 0.000979927 0.000632257 0.000227618 -0.000233991 -0.000750567 -0.00132011 -0.00194261 -0.00261807 -0.00334254 -0.00411206 -0.00492663 -0.00578625 -0.00668638 -0.00762252 -0.00859464 -0.00960276 -0.010642 -0.0117076 -0.0127995 -0.0139176 -0.0150558 -0.0162078 -0.0173735 -0.0185529 -0.0197367 -0.0209156 -0.0220894 -0.0232583 -0.024409 -0.0255284 -0.0266166 -0.0276734 -0.0286834 -0.0296311 -0.0305165 -0.0313397 -0.0320863 -0.0327423 -0.0333075 -0.0337821 -0.0341574 -0.0344249 -0.0345846 -0.0346365 -0.0345806 -0.034417 -0.0341456 -0.0337665 -0.0332882 -0.0327194 -0.0320601 -0.0313103 -0.0304842 -0.0295961 -0.0286459 -0.0276337 -0.0265749 -0.0254852 -0.0243644 -0.0232127 -0.0220431 -0.0208688 -0.0196898 -0.0185061 -0.0173272 -0.0161622 -0.0150112 -0.0138743 -0.0127577 -0.0116675 -0.0106039 -0.00956679 -0.00856101 -0.00759135 -0.00665782 -0.00576041 -0.0049036 -0.00409186 -0.00332518 -0.00260358 -0.00193095 -0.00131118 -0.000744272 -0.000230226 0.000229007 0.000631478 0.000977186 0.00126613 0.00149991 0.00168011 0.00180674 0.00187979 0.00190541 0.00188976 0.00183284 0.00173465 0.00160613 0.00145825 0.00129101 0.0011044 0.000910406 0.000720991 0.00053616 0.000355912 0.000200201 8.89781e-05 2.22445e-05 0 0 2.38778e-05 9.55111e-05 0.0002149 0.000382044 0.000574413 0.000769474 0.000967228 0.00116767 0.00135723 0.00152232 0.00166293 0.00177907 0.00185883 0.00189031 0.00187351 0.00180843 0.00168901 0.00150918 0.00126895 0.00096832 0.000606674 0.0001834 -0.0003015 -0.000848027 -0.00145276 -0.00211227 -0.00282657 -0.00359565 -0.00441419 -0.00527688 -0.00618372 -0.00713471 -0.00812446 -0.0091476 -0.0102041 -0.011294 -0.0124122 -0.0135538 -0.0147186 -0.0159067 -0.0171121 -0.0183288 -0.0195568 -0.0207961 -0.0220376 -0.0232724 -0.0245004 -0.0257216 -0.0269229 -0.0280911 -0.0292263 -0.0303284 -0.0313815 -0.0323698 -0.0332932 -0.0341518 -0.0349306 -0.0356149 -0.0362048 -0.0367001 -0.0370919 -0.0373711 -0.0375378 -0.037592 -0.0375336 -0.0373628 -0.0370795 -0.0366837 -0.0361845 -0.0355909 -0.034903 -0.0341208 -0.0332591 -0.0323327 -0.0313418 -0.0302862 -0.0291819 -0.0280449 -0.0268751 -0.0256725 -0.0244504 -0.0232217 -0.0219866 -0.020745 -0.019506 -0.0182785 -0.0170627 -0.0158584 -0.0146717 -0.0135085 -0.0123689 -0.0112528 -0.0101653 -0.00911129 -0.00809085 -0.00710395 -0.00615593 -0.0052521 -0.00439248 -0.00357705 -0.00281108 -0.0020998 -0.00144321 -0.000841331 -0.000297503 0.000184909 0.000605906 0.000965488 0.0012643 0.00150301 0.0016816 0.00180008 0.0018645 0.00188093 0.00184936 0.00176979 0.00165408 0.00151407 0.00134976 0.00116116 0.000961772 0.000765086 0.000571107 0.000379836 0.000213658 9.4959e-05 2.37397e-05 0 0 2.51392e-05 0.000100557 0.000226253 0.000402227 0.000603504 0.000805106 0.00100703 0.00120929 0.00139673 0.00155422 0.00168176 0.00177934 0.00183429 0.0018339 0.00177818 0.00166713 0.00149502 0.00125615 0.0009505 0.000578081 0.000139574 -0.000364341 -0.000933662 -0.00156839 -0.00226333 -0.00301329 -0.00381827 -0.00467827 -0.00558636 -0.00653561 -0.00752602 -0.0085576 -0.00962404 -0.010719 -0.0118426 -0.0129948 -0.0141704 -0.0153645 -0.0165771 -0.0178081 -0.0190522 -0.0203041 -0.0215637 -0.0228311 -0.0240981 -0.0253564 -0.0266061 -0.0278471 -0.029067 -0.0302529 -0.0314051 -0.0325234 -0.033592 -0.034595 -0.0355324 -0.0364043 -0.0371954 -0.0378908 -0.0384902 -0.0389939 -0.0393923 -0.0396764 -0.0398459 -0.039901 -0.0398417 -0.0396679 -0.0393797 -0.0389771 -0.0384695 -0.0378662 -0.0371672 -0.0363725 -0.0354973 -0.0345568 -0.0335509 -0.0324797 -0.031359 -0.0302048 -0.029017 -0.0277956 -0.0265534 -0.0253027 -0.0240438 -0.0227765 -0.0215091 -0.0202498 -0.0189985 -0.0177554 -0.0165256 -0.0153145 -0.0141222 -0.0129485 -0.0117987 -0.0106776 -0.00958529 -0.00852176 -0.00749325 -0.00650598 -0.00555997 -0.0046552 -0.00379855 -0.00299685 -0.0022501 -0.00155832 -0.00092661 -0.000360099 0.000141215 0.000577332 0.000947619 0.00125144 0.0014888 0.0016597 0.00176986 0.001825 0.00182512 0.00177023 0.00167295 0.00154593 0.00138916 0.00120264 0.00100143 0.00080058 0.000600081 0.000399936 0.000224964 9.99839e-05 2.4996e-05 0 0 2.61599e-05 0.00010464 0.000235439 0.000418559 0.000626578 0.000832077 0.00103506 0.00123551 0.00141674 0.00156201 0.00167133 0.00174471 0.00176877 0.00173014 0.00162883 0.00146484 0.00123303 0.00092827 0.000550564 9.99098e-05 -0.000421373 -0.00101097 -0.00166887 -0.00239508 -0.00318229 -0.00402316 -0.00491771 -0.00586593 -0.00685904 -0.00788823 -0.00895352 -0.0100549 -0.0111851 -0.0123369 -0.0135102 -0.0147051 -0.0159167 -0.01714 -0.0183751 -0.0196219 -0.0208762 -0.0221337 -0.0233943 -0.024658 -0.0259181 -0.0271676 -0.0284066 -0.029635 -0.0308413 -0.032014 -0.033153 -0.0342583 -0.0353147 -0.0363066 -0.0372341 -0.0380973 -0.0388808 -0.0395697 -0.0401639 -0.0406635 -0.0410589 -0.0413407 -0.041509 -0.0415636 -0.0415047 -0.0413323 -0.0410463 -0.0406469 -0.0401433 -0.0395452 -0.0388526 -0.0380655 -0.0371989 -0.0362682 -0.0352733 -0.0342141 -0.0331062 -0.0319648 -0.0307901 -0.029582 -0.0283521 -0.0271119 -0.0258614 -0.0246007 -0.0233366 -0.022076 -0.0208188 -0.0195651 -0.0183192 -0.0170854 -0.0158636 -0.0146539 -0.0134612 -0.0122903 -0.0111411 -0.0100138 -0.00891555 -0.00785349 -0.00682765 -0.00583804 -0.00489337 -0.00400233 -0.00316494 -0.00238119 -0.00165831 -0.00100355 -0.000416886 0.000101666 0.000549852 0.000925413 0.00122835 0.00145866 0.00162149 0.00172199 0.00176014 0.00173596 0.00166275 0.00155383 0.00140919 0.00122884 0.00102939 0.000827474 0.00062308 0.000416212 0.000234119 0.000104053 2.60132e-05 0 0 2.69399e-05 0.00010776 0.000242459 0.000431038 0.000643635 0.000850387 0.00105129 0.00124636 0.00141726 0.0015457 0.00163166 0.00167516 0.00166225 0.00157902 0.00142545 0.00120155 0.000903015 0.000525546 6.91434e-05 -0.000466194 -0.00107617 -0.00175648 -0.00250712 -0.0033281 -0.00420962 -0.00514189 -0.00612489 -0.00715864 -0.00823223 -0.00933476 -0.0104662 -0.0116266 -0.0128077 -0.0140011 -0.0152068 -0.016425 -0.0176509 -0.01888 -0.0201124 -0.021348 -0.022584 -0.0238175 -0.0250484 -0.0262768 -0.0274977 -0.028706 -0.0299018 -0.0310851 -0.0322458 -0.0333741 -0.03447 -0.0355333 -0.0365497 -0.0375048 -0.0383984 -0.0392307 -0.0399868 -0.0406518 -0.0412258 -0.0417089 -0.0420914 -0.0423641 -0.0425269 -0.0425798 -0.0425229 -0.042356 -0.0420793 -0.0416928 -0.0412059 -0.0406281 -0.0399593 -0.0391997 -0.038364 -0.037467 -0.0365089 -0.0354895 -0.0344234 -0.033325 -0.0321944 -0.0310316 -0.0298465 -0.0286491 -0.0274394 -0.0262175 -0.0249884 -0.0237571 -0.0225235 -0.0212878 -0.0200527 -0.0188213 -0.0175934 -0.016369 -0.0151528 -0.0139493 -0.0127584 -0.0115802 -0.0104228 -0.00929462 -0.00819553 -0.00712556 -0.00609553 -0.00511625 -0.00418772 -0.00330994 -0.00249261 -0.00174543 -0.0010684 -0.000461511 7.10034e-05 0.00052492 0.000900238 0.00119696 0.0014194 0.00157189 0.00165442 0.00166699 0.00162349 0.00153778 0.