<?xml version="1.0"?> 
<VTKFile type="StructuredGrid" version="0.1"> 
<StructuredGrid WholeExtent="0 128 0 128 0 0"> 
<Piece Extent="0 128 0 128 0 0"> 
<PointData>
<DataArray type="Float32" Name="u" format="ascii" NumberOfComponents="1"> 
0 0 0 0 0 0 0 0 0 0 0 0 0 0 0 0 0 0 0 0 0 0 0 0 0 0 0 0 0 0 0 0 0 0 0 0 0 0 0 0 0 0 0 0 0 0 0 0 0 0 0 0 0 0 0 0 0 0 0 0 0 0 0 0 0 0 0 0 0 0 0 0 0 0 0 0 0 0 0 0 0 0 0 0 0 0 0 0 0 0 0 0 0 0 0 0 0 0 0 0 0 0 0 0 0 0 0 0 0 0 0 0 0 0 0 0 0 0 0 0 0 0 0 0 0 0 0 0 0 0 2.23372e-07 8.93486e-07 2.01034e-06 3.57394e-06 5.37966e-06 7.22285e-06 9.10353e-06 1.10217e-05 1.28586e-05 1.44956e-05 1.59326e-05 1.71697e-05 1.8108e-05 1.86488e-05 1.87919e-05 1.85374e-05 1.78335e-05 1.66282e-05 1.49215e-05 1.27135e-05 9.98758e-06 6.72733e-06 2.93274e-06 -1.3962e-06 -6.24829e-06 -1.16124e-05 -1.74884e-05 -2.38764e-05 -3.07432e-05 -3.80555e-05 -4.58135e-05 -5.4017e-05 -6.26146e-05 -7.15549e-05 -8.08377e-05 -9.04632e-05 -0.000100363 -0.000110469 -0.00012078 -0.000131298 -0.000141936 -0.000152611 -0.000163322 -0.00017407 -0.000184754 -0.000195276 -0.000205636 -0.000215833 -0.000225761 -0.000235313 -0.000244488 -0.000253287 -0.000261607 -0.000269346 -0.000276504 -0.000283081 -0.000288995 -0.000294165 -0.000298591 -0.000302273 -0.000305165 -0.000307223 -0.000308446 -0.000308834 -0.000308387 -0.000307107 -0.000304993 -0.000302045 -0.000298309 -0.000293831 -0.000288611 -0.000282649 -0.000276028 -0.000268829 -0.000261052 -0.000252698 -0.000243869 -0.000234668 -0.000225095 -0.000215149 -0.000204939 -0.000194571 -0.000184045 -0.000173361 -0.000162619 -0.000151917 -0.000141255 -0.000130634 -0.000120138 -0.000109851 -9.97728e-05 -8.99044e-05 -8.03128e-05 -7.10659e-05 -6.21636e-05 -5.3606e-05 -4.54436e-05 -3.77272e-05 -3.04567e-05 -2.36322e-05 -1.72859e-05 -1.14502e-05 -6.12506e-06 -1.31054e-06 2.98294e-06 6.74494e-06 9.97545e-06 1.26745e-05 1.4859e-05 1.65458e-05 1.77351e-05 1.84267e-05 1.86726e-05 1.85246e-05 1.79826e-05 1.70468e-05 1.58152e-05 1.43861e-05 1.27594e-05 1.0935e-05 9.03082e-06 7.1643e-06 5.33551e-06 3.54443e-06 1.99374e-06 8.86109e-07 2.21527e-07 0 0 8.93486e-07 3.57394e-06 8.04138e-06 1.42958e-05 2.15186e-05 2.88914e-05 3.64141e-05 4.40867e-05 5.14344e-05 5.79824e-05 6.37305e-05 6.86788e-05 7.24321e-05 7.4595e-05 7.51676e-05 7.41497e-05 7.1334e-05 6.65127e-05 5.9686e-05 5.08539e-05 3.99503e-05 2.69093e-05 1.1731e-05 -5.58479e-06 -2.49932e-05 -4.64494e-05 -6.99536e-05 -9.55056e-05 -0.000122973 -0.000152222 -0.000183254 -0.000216068 -0.000250458 -0.000286219 -0.000323351 -0.000361853 -0.000401452 -0.000441875 -0.000483121 -0.000525191 -0.000567746 -0.000610445 -0.00065329 -0.000696279 -0.000739017 -0.000781104 -0.000822543 -0.000863333 -0.000903045 -0.000941251 -0.000977953 -0.00101315 -0.00104643 -0.00107739 -0.00110602 -0.00113232 -0.00115598 -0.00117666 -0.00119437 -0.00120909 -0.00122066 -0.00122889 -0.00123378 -0.00123533 -0.00123355 -0.00122843 -0.00121997 -0.00120818 -0.00119324 -0.00117532 -0.00115444 -0.0011306 -0.00110411 -0.00107532 -0.00104421 -0.00101079 -0.000975476 -0.000938672 -0.000900379 -0.000860597 -0.000819756 -0.000778283 -0.000736179 -0.000693444 -0.000650475 -0.000607666 -0.00056502 -0.000522536 -0.00048055 -0.000439402 -0.000399091 -0.000359617 -0.000321251 -0.000284264 -0.000248655 -0.000214424 -0.000181774 -0.000150909 -0.000121827 -9.45286e-05 -6.91435e-05 -4.58007e-05 -2.45002e-05 -5.24216e-06 1.19318e-05 2.69798e-05 3.99018e-05 5.06979e-05 5.94359e-05 6.61833e-05 7.09403e-05 7.37069e-05 7.46904e-05 7.40983e-05 7.19305e-05 6.81872e-05 6.32609e-05 5.75443e-05 5.10374e-05 4.37402e-05 3.61233e-05 2.86572e-05 2.1342e-05 1.41777e-05 7.97498e-06 3.54443e-06 8.86109e-07 0 0 2.01034e-06 8.04138e-06 1.80931e-05 3.21655e-05 4.84169e-05 6.50057e-05 8.19318e-05 9.91952e-05 0.000115727 0.00013046 0.000143394 0.000154527 0.000162972 0.000167839 0.000169127 0.000166837 0.000160501 0.000149654 0.000134294 0.000114421 8.98882e-05 6.0546e-05 2.63947e-05 -1.25658e-05 -5.62346e-05 -0.000104511 -0.000157396 -0.000214887 -0.000276688 -0.0003425 -0.000412321 -0.000486153 -0.000563531 -0.000643994 -0.000727539 -0.000814169 -0.000903267 -0.000994218 -0.00108702 -0.00118168 -0.00127743 -0.0013735 -0.0014699 -0.00156663 -0.00166279 -0.00175749 -0.00185072 -0.0019425 -0.00203185 -0.00211782 -0.00220039 -0.00227958 -0.00235447 -0.00242412 -0.00248854 -0.00254773 -0.00260096 -0.00264749 -0.00268732 -0.00272046 -0.00274649 -0.00276501 -0.00277601 -0.0027795 -0.00277549 -0.00276396 -0.00274494 -0.0027184 -0.00268478 -0.00264448 -0.0025975 -0.00254385 -0.00248425 -0.00241946 -0.00234947 -0.00227428 -0.00219482 -0.00211201 -0.00202585 -0.00193634 -0.00184445 -0.00175114 -0.0016564 -0.00156025 -0.00146357 -0.00136725 -0.0012713 -0.00117571 -0.00108124 -0.000988655 -0.000897956 -0.000809139 -0.000722815 -0.000639593 -0.000559473 -0.000482454 -0.000408993 -0.000339545 -0.00027411 -0.000212689 -0.000155573 -0.000103051 -5.51255e-05 -1.17949e-05 2.68465e-05 6.07044e-05 8.97791e-05 0.00011407 0.000133731 0.000148913 0.000159616 0.00016584 0.000168053 0.000166721 0.000161844 0.000153421 0.000142337 0.000129475 0.000114834 9.84154e-05 8.12774e-05 6.44787e-05 4.80196e-05 3.18999e-05 1.79437e-05 7.97498e-06 1.99374e-06 0 0 3.57394e-06 1.42958e-05 3.21655e-05 5.71831e-05 8.60745e-05 0.000115566 0.000145656 0.000176347 0.000205738 0.000231929 0.000254922 0.000274715 0.000289728 0.00029838 0.00030067 0.000296599 0.000285336 0.000266051 0.000238744 0.000203416 0.000159801 0.000107637 4.69239e-05 -2.23392e-05 -9.99727e-05 -0.000185798 -0.000279814 -0.000382022 -0.000491891 -0.000608888 -0.000733015 -0.000864272 -0.00100183 -0.00114488 -0.0012934 -0.00144741 -0.00160581 -0.0017675 -0.00193248 -0.00210077 -0.00227098 -0.00244178 -0.00261316 -0.00278512 -0.00295607 -0.00312442 -0.00329017 -0.00345333 -0.00361218 -0.00376501 -0.00391181 -0.00405259 -0.00418572 -0.00430954 -0.00442407 -0.0045293 -0.00462393 -0.00470665 -0.00477746 -0.00483637 -0.00488264 -0.00491556 -0.00493513 -0.00494134 -0.0049342 -0.00491371 -0.00487989 -0.00483272 -0.00477294 -0.00470129 -0.00461778 -0.00452239 -0.00441645 -0.00430126 -0.00417684 -0.00404317 -0.00390191 -0.00375469 -0.00360151 -0.00344239 -0.00327902 -0.00311313 -0.00294472 -0.00277378 -0.0026019 -0.00243067 -0.00226008 -0.00209014 -0.0019222 -0.00175761 -0.00159637 -0.00143847 -0.00128501 -0.00113705 -0.000994618 -0.000857696 -0.000727098 -0.000603635 -0.000487307 -0.000378114 -0.000276574 -0.000183203 -9.80009e-05 -2.09686e-05 4.7727e-05 0.000107919 0.000159607 0.000202792 0.000237743 0.000264733 0.000283761 0.000294827 0.000298761 0.000296393 0.000287722 0.000272749 0.000253044 0.000230177 0.00020415 0.000174961 0.000144493 0.000114629 8.53682e-05 5.67109e-05 3.18999e-05 1.41777e-05 3.54443e-06 0 0 5.37212e-06 2.14885e-05 4.83491e-05 8.59539e-05 0.000129329 0.000173499 0.000218465 0.000264227 0.000307908 0.000346633 0.0003804 0.000409211 0.000430679 0.000442421 0.000444436 0.000436724 0.000418041 0.000387142 0.000344029 0.000288701 0.000220779 0.000139885 4.6019e-05 -6.08193e-05 -0.000180332 -0.000312223 -0.00045649 -0.000613136 -0.000781329 -0.00096024 -0.00114987 -0.00135022 -0.00156002 -0.00177801 -0.00200418 -0.00223854 -0.00247943 -0.00272518 -0.00297579 -0.00323127 -0.00348955 -0.0037486 -0.00400841 -0.00426898 -0.00452792 -0.00478285 -0.00503376 -0.00528065 -0.00552095 -0.00575209 -0.00597407 -0.00618689 -0.00638809 -0.00657522 -0.00674826 -0.00690723 -0.00705017 -0.00717511 -0.00728206 -0.00737101 -0.00744089 -0.0074906 -0.00752014 -0.00752951 -0.00751873 -0.00748779 -0.00743671 -0.00736548 -0.0072752 -0.00716699 -0.00704084 -0.00689676 -0.0067367 -0.00656266 -0.00637462 -0.00617258 -0.00595903 -0.00573641 -0.00550474 -0.00526401 -0.00501679 -0.00476567 -0.00451064 -0.0042517 -0.00399123 -0.00373164 -0.0034729 -0.00321503 -0.00296006 -0.00271004 -0.00246496 -0.00222482 -0.00199128 -0.00176597 -0.00154889 -0.00134006 -0.00114071 -0.000952081 -0.000774185 -0.000607017 -0.000451385 -0.000308099 -0.000177157 -5.8561e-05 4.74111e-05 0.00014048 0.000220645 0.000287907 0.000342655 0.000385278 0.000415777 0.000434152 0.000441645 0.000439501 0.00042772 0.000406302 0.000377615 0.000344029 0.000305545 0.000262161 0.000216729 0.0001721 0.000128273 8.52476e-05 4.79518e-05 2.13119e-05 5.32798e-06 0 0 7.19271e-06 2.87708e-05 6.47344e-05 0.000115083 0.000173017 0.000231734 0.000291236 0.000351521 0.000408682 0.000458813 0.000501913 0.000537981 0.000563803 0.000576164 0.000575063 0.0005605 0.000530819 0.000484366 0.00042114 0.000341142 0.000243912 0.000128991 -3.61944e-06 -0.00015392 -0.000321438 -0.0005057 -0.000706705 -0.000924454 -0.00115775 -0.00140541 -0.00166742 -0.00194378 -0.00223274 -0.00253252 -0.00284311 -0.00316453 -0.0034945 -0.00383073 -0.00417324 -0.00452201 -0.00487428 -0.00522727 -0.005581 -0.00593545 -0.00628743 -0.00663372 -0.00697433 -0.00730926 -0.00763508 -0.00794834 -0.00824904 -0.00853719 -0.0088095 -0.0090627 -0.00929677 -0.00951173 -0.00970496 -0.00987385 -0.0100184 -0.0101386 -0.010233 -0.0103001 -0.01034 -0.0103527 -0.0103381 -0.0102963 -0.0102273 -0.010131 -0.0100091 -0.00986279 -0.00969226 -0.00949746 -0.00928101 -0.00904557 -0.00879111 -0.00851765 -0.00822848 -0.00792689 -0.00761289 -0.00728647 -0.00695107 -0.00661014 -0.00626368 -0.00591168 -0.00555735 -0.00520388 -0.00485128 -0.00449955 -0.00415144 -0.00380972 -0.00347437 -0.00314541 -0.00282508 -0.00251564 -0.0022171 -0.00192945 -0.00165443 -0.00139379 -0.00114751 -0.00091561 -0.000699246 -0.000499585 -0.000316626 -0.000150369 -1.26365e-06 0.000130243 0.000244151 0.000340461 0.000419645 0.00048218 0.000528064 0.000557297 0.000571535 0.000572434 0.000559992 0.000534211 0.000498285 0.000455407 0.00040558 0.000348801 0.000288945 0.000229884 0.000171618 0.000114147 6.42075e-05 2.85367e-05 7.13417e-06 0 0 9.0357e-06 3.61428e-05 8.13213e-05 0.000144571 0.000217139 0.000290271 0.000363967 0.000438228 0.00050806 0.00056847 0.000619459 0.000661027 0.000689101 0.000699609 0.000692551 0.000667926 0.000623671 0.000557722 0.000470077 0.000360738 0.000229199 7.49556e-05 -0.000101991 -0.000301643 -0.000523291 -0.000766229 -0.00103046 -0.00131598 -0.00162116 -0.00194439 -0.00228566 -0.00264497 -0.00301999 -0.0034084 -0.0038102 -0.00422538 -0.00465101 -0.00508415 -0.00552481 -0.00597299 -0.00642516 -0.0068778 -0.00733093 -0.00778453 -0.00823458 -0.00867704 -0.0091119 -0.00953918 -0.00995457 -0.0103537 -0.0107367 -0.0111035 -0.0114499 -0.011772 -0.0120696 -0.0123428 -0.0125883 -0.0128029 -0.0129864 -0.0131391 -0.0132589 -0.0133442 -0.0133948 -0.0134109 -0.0133924 -0.0133393 -0.0132516 -0.0131294 -0.0129745 -0.0127887 -0.012572 -0.0123245 -0.0120494 -0.01175 -0.0114263 -0.0110784 -0.0107103 -0.0103261 -0.00992598 -0.00950978 -0.00908187 -0.00864656 -0.00820384 -0.00775372 -0.00730023 -0.0068474 -0.00639522 -0.0059437 -0.00549634 -0.00505664 -0.0046246 -0.00420022 -0.00378642 -0.00338609 -0.00299924 -0.00262587 -0.00226827 -0.00192875 -0.00160729 -0.00130389 -0.00102016 -0.000757661 -0.000516407 -0.000296394 -9.82973e-05 7.72095e-05 0.000230126 0.000360453 0.000468715 0.000555438 0.00062062 0.000664263 0.000688431 0.00069519 0.000684538 0.000656477 0.000615053 0.000564312 0.000504255 0.000434881 0.00036114 0.00028798 0.000215403 0.000143408 8.06671e-05 3.5852e-05 8.96301e-06 0 0 1.09011e-05 4.36044e-05 9.811e-05 0.000174418 0.000261695 0.000349109 0.00043666 0.000524348 0.00060604 0.000675604 0.00073304 0.000778348 0.000806572 0.000812755 0.0007969 0.000759004 0.000696598 0.00060721 0.00049084 0.000347489 0.00017664 -2.22217e-05 -0.000249097 -0.000503986 -0.00078589 -0.00109381 -0.00142775 -0.0017877 -0.00217156 -0.00257719 -0.00300459 -0.00345378 -0.00392179 -0.00440567 -0.00490544 -0.00542108 -0.00594896 -0.00648544 -0.00703052 -0.0075842 -0.00814219 -0.00870019 -0.0092582 -0.00981622 -0.0103694 -0.0109128 -0.0114465 -0.0119704 -0.0124794 -0.0129683 -0.0134371 -0.0138858 -0.0143094 -0.0147031 -0.0150667 -0.0154004 -0.0157002 -0.0159621 -0.0161862 -0.0163725 -0.0165187 -0.0166227 -0.0166845 -0.0167041 -0.0166815 -0.0166167 -0.0165097 -0.0163606 -0.0161715 -0.0159447 -0.0156802 -0.0153779 -0.0150418 -0.0146759 -0.0142803 -0.0138548 -0.0134044 -0.0129341 -0.012444 -0.0119339 -0.0114092 -0.0108749 -0.0103311 -0.00977783 -0.0092199 -0.00866219 -0.00810473 -0.00754749 -0.00699476 -0.00645081 -0.00591565 -0.00538928 -0.00487529 -0.0043773 -0.00389531 -0.00342932 -0.00298224 -0.00255697 -0.00215351 -0.00177187 -0.00141412 -0.00108233 -0.000776499 -0.000496635 -0.00024369 -1.86218e-05 0.00017857 0.000347884 0.000489864 0.000605052 0.000693447 0.00075505 0.000792333 0.000807769 0.000801358 0.0007731 0.00072792 0.000670743 0.00060157 0.0005204 0.000433314 0.00034639 0.00025963 0.000173032 9.73305e-05 4.3258e-05 1.08145e-05 0 0 1.26576e-05 5.06304e-05 0.000113918 0.000202522 0.000303501 0.000403918 0.000503773 0.000603066 0.000694505 0.0007708 0.00083195 0.000877956 0.000902997 0.000901251 0.000872717 0.000817397 0.000732456 0.000615062 0.000465214 0.000282913 6.77018e-05 -0.000180877 -0.000462822 -0.000778135 -0.00112544 -0.00150337 -0.00191192 -0.00235108 -0.00281818 -0.00331051 -0.00382807 -0.00437087 -0.00493528 -0.00551768 -0.00611807 -0.00673645 -0.00736847 -0.00800978 -0.00866036 -0.00932023 -0.00998434 -0.0106477 -0.0113102 -0.0119719 -0.0126271 -0.0132703 -0.0139013 -0.0145202 -0.015121 -0.0156977 -0.0162504 -0.0167789 -0.0172777 -0.017741 -0.0181688 -0.0185611 -0.0189135 -0.0192213 -0.0194846 -0.0197034 -0.0198751 -0.0199972 -0.0200697 -0.0200927 -0.0200662 -0.0199901 -0.0198644 -0.0196893 -0.0194671 -0.0192006 -0.0188897 -0.0185343 -0.0181391 -0.0177087 -0.0172429 -0.0167419 -0.0162113 -0.0156569 -0.0150787 -0.0144765 -0.0138566 -0.0132248 -0.0125812 -0.0119257 -0.011264 -0.0106018 -0.009939 -0.00927571 -0.0086169 -0.0079676 -0.00732781 -0.00669752 -0.00608106 -0.00548274 -0.00490256 -0.00434052 -0.0038002 -0.00328516 -0.00279541 -0.00233095 -0.00189441 -0.00148844 -0.00111303 -0.000768185 -0.000455225 -0.000175475 7.10645e-05 0.000284394 0.000465004 0.000613382 0.00072953 0.000813446 0.000867969 0.000895933 0.000897341 0.000872191 0.000826271 0.000765366 0.000689477 0.000598604 0.000499975 0.000400821 0.000301142 0.000200936 0.000113027 5.02341e-05 1.25585e-05 0 0 1.41739e-05 5.66954e-05 0.000127565 0.000226782 0.000339374 0.000450368 0.000559765 0.000667565 0.000765334 0.00084464 0.000905484 0.000947865 0.000965159 0.000950741 0.000904611 0.000826769 0.000714105 0.000563511 0.000374985 0.000148528 -0.000116151 -0.000419345 -0.000761052 -0.00114127 -0.00155815 -0.00200982 -0.00249629 -0.00301756 -0.00357027 -0.00415106 -0.00475995 -0.00539692 -0.00605764 -0.00673778 -0.00743734 -0.00815631 -0.00888966 -0.00963233 -0.0103843 -0.0111456 -0.0119106 -0.0126734 -0.0134342 -0.0141929 -0.0149432 -0.0156788 -0.0163997 -0.0171059 -0.0177908 -0.0184477 -0.0190767 -0.0196777 -0.0202444 -0.0207706 -0.0212563 -0.0217014 -0.022101 -0.02245 -0.0227484 -0.0229963 -0.0231907 -0.0233291 -0.0234112 -0.0234372 -0.0234071 -0.0233209 -0.0231785 -0.0229801 -0.0227284 -0.0224262 -0.0220736 -0.0216706 -0.0212222 -0.0207334 -0.0202043 -0.0196349 -0.0190315 -0.0184004 -0.0177417 -0.0170552 -0.0163477 -0.0156258 -0.0148895 -0.0141389 -0.0133801 -0.0126196 -0.0118573 -0.0110932 -0.010333 -0.00958237 -0.00884135 -0.00810992 -0.00739308 -0.00669585 -0.00601822 -0.00536019 -0.00472604 -0.00412005 -0.00354223 -0.00299256 -0.00247434 -0.00199087 -0.00154213 -0.00112814 -0.000750688 -0.000411577 -0.000110806 0.000151624 0.000376044 0.000562787 0.000711852 0.000823239 0.000900064 0.000945443 0.000959376 0.000941863 0.000899491 0.000838845 0.000759926 0.000662735 0.000555632 0.000446982 0.000336785 0.000225039 0.000126584 5.62597e-05 1.40649e-05 0 0 1.54499e-05 6.17995e-05 0.000139049 0.000247198 0.000369313 0.000488459 0.000604636 0.000717845 0.000818527 0.000897126 0.000953642 0.000988074 0.000993057 0.000961226 0.00089258 0.00078712 0.000641546 0.000452556 0.000220152 -5.56661e-05 -0.000374919 -0.000737626 -0.00114379 -0.0015934 -0.00208402 -0.00261318 -0.00318089 -0.00378714 -0.00442783 -0.00509885 -0.00580022 -0.00653192 -0.00728886 -0.00806597 -0.00886323 -0.00968065 -0.0105125 -0.0113531 -0.0122024 -0.0130604 -0.0139209 -0.0147775 -0.0156303 -0.0164792 -0.0173175 -0.0181383 -0.0189416 -0.0197274 -0.0204887 -0.0212182 -0.021916 -0.022582 -0.0232097 -0.0237921 -0.0243293 -0.0248213 -0.0252627 -0.0256482 -0.0259777 -0.0262512 -0.0264657 -0.0266183 -0.026709 -0.0267376 -0.0267044 -0.0266092 -0.0264521 -0.0262331 -0.0259552 -0.0256215 -0.025232 -0.0247866 -0.0242909 -0.0237502 -0.0231645 -0.0225339 -0.021865 -0.0211647 -0.020433 -0.0196699 -0.0188825 -0.018078 -0.0172563 -0.0164175 -0.0155683 -0.0147157 -0.0138595 -0.0129999 -0.012143 -0.0112951 -0.0104563 -0.00962648 -0.00881137 -0.00801664 -0.00724229 -0.00648833 -0.00575977 -0.00506164 -0.00439395 -0.00375669 -0.0031539 -0.0025896 -0.0020638 -0.0015765 -0.00113008 -0.000726925 -0.000367042 -5.04276e-05 0.000222986 0.000453267 0.000640415 0.000784429 0.00088862 0.000956298 0.000987463 0.000982115 0.000947579 0.00089118 0.000812918 0.000712793 0.000600285 0.000484873 0.000366558 0.00024534 0.000138004 6.1335e-05 1.53338e-05 0 0 1.64857e-05 6.59427e-05 0.000148371 0.000263771 0.000393318 0.00051819 0.000638386 0.000753906 0.000854085 0.000928258 0.000976424 0.000998583 0.000986692 0.000932706 0.000836626 0.000698451 0.000514777 0.000282199 7.16463e-07 -0.00032967 -0.000708601 -0.00113572 -0.00161103 -0.00213452 -0.00270305 -0.00331343 -0.00396569 -0.00465981 -0.00539085 -0.00615388 -0.00694888 -0.00777587 -0.00862895 -0.00950225 -0.0103958 -0.0113095 -0.012237 -0.0131721 -0.0141146 -0.0150646 -0.0160153 -0.0169599 -0.0178984 -0.0188309 -0.0197501 -0.0206488 -0.0215271 -0.0223849 -0.0232147 -0.0240092 -0.0247683 -0.0254921 -0.0261734 -0.0268053 -0.0273877 -0.0279207 -0.0283986 -0.0288158 -0.0291723 -0.0294681 -0.0297 -0.029865 -0.0299629 -0.0299939 -0.0299579 -0.0298549 -0.029685 -0.0294482 -0.0291476 -0.0287865 -0.0283648 -0.0278825 -0.0273454 -0.026759 -0.0261234 -0.0254387 -0.0247117 -0.0239498 -0.0231528 -0.0223207 -0.0214611 -0.0205813 -0.0196814 -0.0187615 -0.0178286 -0.01689 -0.0159457 -0.0149958 -0.0140469 -0.0131059 -0.0121726 -0.0112472 -0.0103359 -0.00944511 -0.00857479 -0.00772494 -0.00690138 -0.00610993 -0.00535058 -0.00462335 -0.00393308 -0.00328464 -0.00267803 -0.00211326 -0.00159339 -0.00112152 -0.000697644 -0.00032176 5.82957e-06 0.000284822 0.000515217 0.000697016 0.000833636 0.000928498 0.000981602 0.000992947 0.000970536 0.000922371 0.000848452 0.000748779 0.000633933 0.000514494 0.000390463 0.000261839 0.000147285 6.54598e-05 1.6365e-05 0 0 1.71709e-05 6.86837e-05 0.000154538 0.000274735 0.000408728 0.000535974 0.000656473 0.000770223 0.000865516 0.000930642 0.0009656 0.000970391 0.000936406 0.000855036 0.000726281 0.000550142 0.000323241 4.22026e-05 -0.000292974 -0.000682288 -0.00112486 -0.0016198 -0.00216712 -0.00276681 -0.00341487 -0.0041073 -0.00484409 -0.00562525 -0.0064449 -0.00729716 -0.00818203 -0.00909952 -0.0100429 -0.0110055 -0.0119874 -0.0129884 -0.0140017 -0.0150203 -0.0160442 -0.0170735 -0.0181009 -0.0191195 -0.0201291 -0.0211299 -0.0221144 -0.0230754 -0.0240127 -0.0249264 -0.025809 -0.0266529 -0.0274583 -0.028225 -0.028946 -0.0296142 -0.0302296 -0.0307921 -0.0312962 -0.0317361 -0.0321118 -0.0324233 -0.0326675 -0.0328411 -0.0329442 -0.0329768 -0.0329388 -0.0328303 -0.0326514 -0.0324019 -0.0320852 -0.0317045 -0.0312597 -0.0307509 -0.0301838 -0.0295642 -0.0288919 -0.0281671 -0.0273968 -0.0265883 -0.0257414 -0.0248563 -0.0239404 -0.0230012 -0.0220389 -0.0210533 -0.0200519 -0.019042 -0.0180236 -0.0169968 -0.0159685 -0.014946 -0.0139291 -0.012918 -0.0119195 -0.0109404 -0.00998095 -0.00904097 -0.00812714 -0.00724608 -0.0063978 -0.00558229 -0.00480535 -0.00407276 -0.00338451 -0.00274061 -0.00214497 -0.00160152 -0.00111023 -0.00067113 -0.000285019 4.72821e-05 0.000325773 0.000550454 0.000724722 0.000851974 0.00093221 0.000965429 0.000960199 0.000925086 0.000860091 0.000765213 0.000652072 0.000532288 0.00040586 0.000272788 0.000153443 6.81969e-05 1.70492e-05 0 0 1.73954e-05 6.95815e-05 0.000156558 0.000278326 0.000412882 0.000538225 0.000654355 0.000761271 0.000846329 0.000896887 0.000912942 0.000894497 0.000832541 0.000718069 0.00055108 0.000331574 5.63814e-05 -0.000277666 -0.000670569 -0.00112233 -0.00163135 -0.00219604 -0.00281641 -0.00349244 -0.00421914 -0.00499148 -0.00580947 -0.00667312 -0.0075755 -0.00850971 -0.00947574 -0.0104736 -0.0114958 -0.0125347 -0.0135905 -0.014663 -0.0157449 -0.0168288 -0.0179147 -0.0190025 -0.0200851 -0.0211552 -0.0222129 -0.0232582 -0.0242839 -0.0252828 -0.0262549 -0.0272002 -0.0281116 -0.0289817 -0.0298105 -0.0305982 -0.0313379 -0.0320227 -0.0326527 -0.033228 -0.0337429 -0.034192 -0.0345755 -0.0348931 -0.0351419 -0.0353189 -0.0354239 -0.035457 -0.0354182 -0.0353076 -0.0351251 -0.0348707 -0.0345476 -0.0341589 -0.0337046 -0.0331847 -0.0326046 -0.03197 -0.0312808 -0.0305369 -0.0297454 -0.0289129 -0.0280396 -0.0271254 -0.0261775 -0.0252032 -0.0242025 -0.0231755 -0.0221292 -0.021071 -0.0200007 -0.0189185 -0.0178315 -0.0167469 -0.0156647 -0.0145848 -0.0135148 -0.0124618 -0.011426 -0.0104074 -0.00941332 -0.00845128 -0.00752128 -0.0066233 -0.00576418 -0.00495071 -0.00418289 -0.00346074 -0.00278916 -0.00217306 -0.00161244 -0.0011073 -0.000659152 -0.000269521 6.1596e-05 0.0003342 0.000551488 0.000716655 0.000829702 0.000890629 0.000908403 0.000891992 0.000841396 0.000756616 0.0006502 0.000534698 0.000410109 0.000276435 0.000155495 6.91088e-05 1.72772e-05 0 0 1.7159e-05 6.86359e-05 0.000154431 0.000274544 0.000405779 0.000524942 0.000632032 0.000727049 0.000796525 0.000826992 0.00081845 0.0007709 0.000675099 0.000521806 0.000311022 4.27468e-05 -0.000285803 -0.000677408 -0.00113207 -0.00164979 -0.00222807 -0.00286444 -0.00355889 -0.00431141 -0.00511584 -0.00596598 -0.00686184 -0.00780342 -0.00878266 -0.00979153 -0.01083 -0.0118981 -0.0129875 -0.0140899 -0.0152051 -0.0163334 -0.0174668 -0.0185976 -0.0197259 -0.0208516 -0.0219677 -0.0230671 -0.0241498 -0.0252159 -0.0262586 -0.0272712 -0.0282539 -0.0292064 -0.0301225 -0.0309953 -0.0318251 -0.0326117 -0.033349 -0.0340308 -0.0346572 -0.0352281 -0.0357386 -0.0361837 -0.0365633 -0.0368775 -0.0371234 -0.0372982 -0.0374019 -0.0374346 -0.0373962 -0.0372867 -0.0371062 -0.0368546 -0.0365349 -0.0361498 -0.0356994 -0.0351837 -0.0346077 -0.0339764 -0.0332899 -0.0325482 -0.0317574 -0.0309237 -0.0300473 -0.029128 -0.0281725 -0.0271873 -0.0261725 -0.025128 -0.0240606 -0.022977 -0.0218772 -0.0207611 -0.0196359 -0.0185086 -0.0173792 -0.0162477 -0.0151218 -0.0140092 -0.01291 -0.0118242 -0.0107599 -0.00972553 -0.00872101 -0.00774637 -0.00680955 -0.00591849 -0.00507319 -0.00427365 -0.00352595 -0.00283615 -0.00220425 -0.00163026 -0.00111657 -0.000665588 -0.000277314 4.82536e-05 0.000313933 0.000522542 0.00067408 0.000768547 0.000815148 0.000823089 0.000792369 0.000722987 0.000628315 0.000521724 0.000403213 0.000272782 0.00015344 6.81954e-05 1.70489e-05 0 0 1.64618e-05 6.58471e-05 0.000148156 0.000263389 0.00038742 0.000496125 0.000589504 0.000667557 0.000716102 0.000720958 0.000682124 0.0005996 0.000464078 0.000266247 6.10821e-06 -0.000316339 -0.000703311 -0.00115702 -0.00167748 -0.00226467 -0.00291503 -0.003625 -0.00439457 -0.00522373 -0.00610498 -0.0070308 -0.00800119 -0.00901615 -0.0100664 -0.0111426 -0.0122449 -0.0133731 -0.0145182 -0.0156709 -0.0168313 -0.0179994 -0.0191672 -0.0203267 -0.0214779 -0.0226208 -0.0237487 -0.0248551 -0.0259397 -0.0270028 -0.0280384 -0.0290406 -0.0300095 -0.030945 -0.0318417 -0.0326939 -0.0335018 -0.0342654 -0.0349793 -0.0356385 -0.036243 -0.0367927 -0.0372835 -0.037711 -0.0380753 -0.0383764 -0.0386118 -0.0387791 -0.0388784 -0.0389095 -0.0388726 -0.0387677 -0.0385946 -0.0383536 -0.0380469 -0.0376771 -0.0372441 -0.036748 -0.0361931 -0.0355836 -0.0349195 -0.0342008 -0.0334328 -0.0326207 -0.0317645 -0.0308641 -0.0299253 -0.0289534 -0.0279486 -0.0269109 -0.025846 -0.02476 -0.0236528 -0.0225245 -0.0213817 -0.0202311 -0.0190727 -0.0179066 -0.0167406 -0.0155827 -0.014433 -0.0132913 -0.0121669 -0.0110688 -0.00999701 -0.00895151 -0.00794148 -0.00697611 -0.0060554 -0.00517934 -0.00435534 -0.00359078 -0.00288567 -0.00224001 -0.00165727 -0.00114092 -0.000690957 -0.000307386 1.20573e-05 0.000269633 0.000465342 0.000599183 0.000680435 0.000718377 0.000713007 0.000664327 0.000586419 0.000493366 0.000385169 0.000261828 0.000147278 6.54569e-05 1.63642e-05 0 0 1.52505e-05 6.10019e-05 0.000137254 0.000244008 0.000356533 0.0004501 0.000524709 0.00058036 0.000602314 0.00057583 0.00050091 0.000377552 0.000196594 -5.11288e-05 -0.000365616 -0.000746869 -0.00119631 -0.00171538 -0.00230406 -0.00296236 -0.0036854 -0.00446832 -0.0053111 -0.00621376 -0.00716725 -0.00816253 -0.00919962 -0.0102785 -0.0113885 -0.0125191 -0.0136703 -0.0148419 -0.0160242 -0.017207 -0.0183905 -0.0195746 -0.0207512 -0.0219125 -0.0230582 -0.0241886 -0.0252975 -0.026379 -0.0274331 -0.0284598 -0.0294545 -0.0304126 -0.0313341 -0.032219 -0.0330633 -0.033863 -0.034618 -0.0353284 -0.0359903 -0.0366002 -0.0371579 -0.0376635 -0.0381138 -0.0385057 -0.0388391 -0.0391141 -0.0393288 -0.0394813 -0.0395718 -0.0396001 -0.0395662 -0.0394703 -0.0393122 -0.039092 -0.0388116 -0.0384727 -0.0380755 -0.0376199 -0.0371091 -0.0365462 -0.0359314 -0.0352645 -0.0345494 -0.0337899 -0.0329859 -0.0321376 -0.0312489 -0.030324 -0.0293628 -0.0283654 -0.0273364 -0.0262805 -0.0251976 -0.0240878 -0.0229571 -0.0218114 -0.0206509 -0.0194754 -0.0182931 -0.0171118 -0.0159317 -0.0147527 -0.0135847 -0.0124376 -0.0113114 -0.0102061 -0.00913225 -0.00810033 -0.00711035 -0.00616231 -0.0052651 -0.00442765 -0.00364995 -0.002932 -0.00227856 -0.0016944 -0.00117951 -0.000733904 -0.000356087 -4.45793e-05 0.00020062 0.000379509 0.00050123 0.000574921 0.000600584 0.000578217 0.000522462 0.000447963 0.000354717 0.000242727 0.000136534 6.06817e-05 1.51704e-05 0 0 1.34718e-05 5.38871e-05 0.000121246 0.000215549 0.000311846 0.000385191 0.000435583 0.000463021 0.00045241 0.000388655 0.000271754 0.000101709 -0.000130238 -0.000432843 -0.000806105 -0.00125003 -0.00176498 -0.00235133 -0.00300908 -0.00373823 -0.00453235 -0.005385 -0.00629617 -0.00726586 -0.00828332 -0.00933777 -0.0104292 -0.0115576 -0.012711 -0.0138772 -0.0150562 -0.016248 -0.017442 -0.0186274 -0.0198042 -0.0209723 -0.0221241 -0.0232515 -0.0243546 -0.0254334 -0.0264831 -0.0274986 -0.0284802 -0.0294276 -0.0303382 -0.0312091 -0.0320402 -0.0328317 -0.0335815 -0.0342878 -0.0349505 -0.0355697 -0.0361435 -0.0366702 -0.0371498 -0.0375823 -0.037966 -0.0382993 -0.0385822 -0.0388148 -0.0389959 -0.0391245 -0.0392007 -0.0392244 -0.0391956 -0.0391144 -0.0389806 -0.0387944 -0.0385568 -0.0382687 -0.0379303 -0.0375414 -0.0371039 -0.0366192 -0.0360875 -0.0355087 -0.0348847 -0.0342172 -0.0335064 -0.0327521 -0.0319564 -0.0311214 -0.0302469 -0.0293331 -0.0283827 -0.0273987 -0.0263811 -0.02533 -0.0242501 -0.0231465 -0.0220192 -0.0208681 -0.0197011 -0.0185261 -0.017343 -0.0161519 -0.0149634 -0.0137882 -0.0126263 -0.0114776 -0.0103542 -0.00926793 -0.00821889 -0.00720704 -0.00624302 -0.00533744 -0.00449032 -0.00370165 -0.00297774 -0.00232491 -0.00174316 -0.00123249 -0.000792449 -0.000422605 -0.000122956 0.000106497 0.000274498 0.000389788 0.000452368 0.000462237 0.000434398 0.00038385 0.000310595 0.000214633 0.000120731 5.36582e-05 1.34146e-05 0 0 1.11257e-05 4.45028e-05 0.000100131 0.000178011 0.000253361 0.000301399 0.000322126 0.000315541 0.000266393 0.000159432 -5.34221e-06 -0.00022793 -0.000516418 -0.000878894 -0.00131536 -0.00182581 -0.0024093 -0.00306488 -0.00379255 -0.0045923 -0.00545588 -0.00637504 -0.00734976 -0.00838005 -0.0094532 -0.0105565 -0.01169 -0.0128536 -0.0140337 -0.0152167 -0.0164026 -0.0175914 -0.0187717 -0.019932 -0.0210723 -0.0221927 -0.0232857 -0.0243438 -0.025367 -0.0263554 -0.0273055 -0.0282141 -0.029081 -0.0299062 -0.0306894 -0.0314299 -0.0321278 -0.032783 -0.0333964 -0.0339685 -0.0344996 -0.0349894 -0.0354388 -0.0358486 -0.0362186 -0.036549 -0.03684 -0.037092 -0.0373048 -0.0374785 -0.0376132 -0.0377087 -0.0377652 -0.0377826 -0.0377608 -0.0376999 -0.0375999 -0.0374608 -0.0372825 -0.0370651 -0.0368085 -0.0365127 -0.0361775 -0.0358026 -0.0353879 -0.0349335 -0.0344387 -0.0339028 -0.0333258 -0.0327077 -0.0320478 -0.0313455 -0.0306009 -0.0298138 -0.0289849 -0.0281148 -0.0272035 -0.0262511 -0.0252609 -0.0242364 -0.0231777 -0.0220846 -0.0209648 -0.0198255 -0.018667 -0.0174891 -0.0163032 -0.0151207 -0.0139417 -0.012766 -0.0116072 -0.0104789 -0.00938101 -0.00831354 -0.00728907 -0.00632015 -0.00540678 -0.00454896 -0.00375482 -0.00303246 -0.0023819 -0.00180314 -0.00129703 -0.000864444 -0.000505386 -0.000219853 2.39283e-07 0.000162977 0.000268361 0.000316389 0.000322225 0.00030103 0.000252803 0.000177546 9.98696e-05 4.43865e-05 1.10966e-05 0 0 8.21223e-06 3.28489e-05 7.391e-05 0.000131396 0.000181077 0.000198724 0.000184338 0.000137919 4.42611e-05 -0.000111838 -0.00033038 -0.000611364 -0.000961946 -0.00138928 -0.00189338 -0.00247422 -0.00312929 -0.00385603 -0.00465445 -0.00552456 -0.006456 -0.00743843 -0.00847187 -0.00955631 -0.0106769 -0.0118187 -0.0129819 -0.0141663 -0.0153567 -0.0165378 -0.0177096 -0.0188721 -0.0200132 -0.0211208 -0.022195 -0.0232356 -0.024236 -0.0251893 -0.0260954 -0.0269544 -0.0277649 -0.0285252 -0.0292355 -0.0298957 -0.0305081 -0.0310752 -0.0315968 -0.032073 -0.0325078 -0.0329051 -0.033265 -0.0335874 -0.0338763 -0.0341352 -0.0343644 -0.0345638 -0.0347359 -0.0348836 -0.0350067 -0.0351053 -0.0351806 -0.0352339 -0.0352652 -0.0352745 -0.0352618 -0.035227 -0.0351701 -0.0350911 -0.0349888 -0.0348618 -0.0347101 -0.0345337 -0.03433 -0.0340963 -0.0338326 -0.0335389 -0.0332115 -0.0328466 -0.0324442 -0.0320043 -0.031523 -0.0309965 -0.0304247 -0.0298076 -0.029143 -0.0284287 -0.0276648 -0.0268511 -0.0259894 -0.0250811 -0.0241263 -0.023125 -0.022084 -0.0210102 -0.0199036 -0.0187642 -0.017604 -0.0164351 -0.0152575 -0.0140713 -0.0128914 -0.0117332 -0.0105967 -0.00948182 -0.00840327 -0.00737578 -0.00639934 -0.00547394 -0.00460978 -0.00381705 -0.00309574 -0.0024