<?xml version="1.0"?> 
<VTKFile type="StructuredGrid" version="0.1"> 
<StructuredGrid WholeExtent="0 128 0 128 0 0"> 
<Piece Extent="0 128 0 128 0 0"> 
<PointData>
<DataArray type="Float32" Name="u" format="ascii" NumberOfComponents="1"> 
0 0 0 0 0 0 0 0 0 0 0 0 0 0 0 0 0 0 0 0 0 0 0 0 0 0 0 0 0 0 0 0 0 0 0 0 0 0 0 0 0 0 0 0 0 0 0 0 0 0 0 0 0 0 0 0 0 0 0 0 0 0 0 0 0 0 0 0 0 0 0 0 0 0 0 0 0 0 0 0 0 0 0 0 0 0 0 0 0 0 0 0 0 0 0 0 0 0 0 0 0 0 0 0 0 0 0 0 0 0 0 0 0 0 0 0 0 0 0 0 0 0 0 0 0 0 0 0 0 0 -5.82484e-08 -2.32993e-07 -5.24235e-07 -9.31974e-07 -1.36307e-06 -1.7244e-06 -2.01596e-06 -2.23774e-06 -2.33984e-06 -2.27232e-06 -2.0352e-06 -1.62847e-06 -1.03109e-06 -2.22e-07 7.98788e-07 2.03128e-06 3.46089e-06 5.07305e-06 6.86774e-06 8.84498e-06 1.09662e-05 1.31927e-05 1.55245e-05 1.79617e-05 2.0459e-05 2.29712e-05 2.54983e-05 2.80403e-05 3.05629e-05 3.30315e-05 3.54462e-05 3.7807e-05 4.00996e-05 4.23095e-05 4.44367e-05 4.64814e-05 4.84466e-05 5.03356e-05 5.21484e-05 5.38851e-05 5.55558e-05 5.71709e-05 5.87303e-05 6.02341e-05 6.16886e-05 6.30999e-05 6.44682e-05 6.57934e-05 6.70724e-05 6.83022e-05 6.94829e-05 7.06143e-05 7.16858e-05 7.26869e-05 7.36173e-05 7.44773e-05 7.52543e-05 7.59361e-05 7.65226e-05 7.70139e-05 7.74019e-05 7.76787e-05 7.78443e-05 7.78987e-05 7.78419e-05 7.76738e-05 7.73945e-05 7.70039e-05 7.65101e-05 7.59208e-05 7.52362e-05 7.44562e-05 7.35932e-05 7.26595e-05 7.16552e-05 7.05802e-05 6.94453e-05 6.82611e-05 6.70277e-05 6.57451e-05 6.44163e-05 6.30446e-05 6.16299e-05 6.01722e-05 5.86653e-05 5.7103e-05 5.54854e-05 5.38124e-05 5.20739e-05 5.02596e-05 4.83696e-05 4.64038e-05 4.43591e-05 4.22323e-05 4.00233e-05 3.77323e-05 3.53735e-05 3.29613e-05 3.04957e-05 2.79767e-05 2.54386e-05 2.29158e-05 2.04081e-05 1.79157e-05 1.54836e-05 1.31568e-05 1.09354e-05 8.81928e-06 6.84697e-06 5.05688e-06 3.44902e-06 2.02338e-06 7.94444e-07 -2.23322e-07 -1.02992e-06 -1.62534e-06 -2.03062e-06 -2.2668e-06 -2.33388e-06 -2.23186e-06 -2.01052e-06 -1.71966e-06 -1.35927e-06 -9.29357e-07 -5.22763e-07 -2.32339e-07 -5.80848e-08 0 0 -2.32993e-07 -9.31974e-07 -2.09694e-06 -3.72789e-06 -5.4523e-06 -6.89761e-06 -8.06384e-06 -8.95098e-06 -9.35935e-06 -9.0893e-06 -8.14081e-06 -6.51389e-06 -4.12435e-06 -8.88002e-07 3.19515e-06 8.12512e-06 1.38436e-05 2.02922e-05 2.7471e-05 3.53799e-05 4.38646e-05 5.27707e-05 6.2098e-05 7.18467e-05 8.18359e-05 9.18847e-05 0.000101993 0.000112161 0.000122251 0.000132126 0.000141785 0.000151228 0.000160398 0.000169238 0.000177747 0.000185925 0.000193786 0.000201342 0.000208594 0.00021554 0.000222223 0.000228684 0.000234921 0.000240937 0.000246754 0.0002524 0.000257873 0.000263173 0.00026829 0.000273209 0.000277931 0.000282457 0.000286743 0.000290747 0.000294469 0.000297909 0.000301017 0.000303744 0.00030609 0.000308056 0.000309608 0.000310715 0.000311377 0.000311595 0.000311368 0.000310695 0.000309578 0.000308016 0.00030604 0.000303683 0.000300945 0.000297825 0.000294373 0.000290638 0.000286621 0.000282321 0.000277781 0.000273045 0.000268111 0.00026298 0.000257665 0.000252178 0.00024652 0.000240689 0.000234661 0.000228412 0.000221942 0.00021525 0.000208296 0.000201038 0.000193478 0.000185615 0.000177436 0.000168929 0.000160093 0.000150929 0.000141494 0.000131845 0.000121983 0.000111907 0.000101755 9.1663e-05 8.16325e-05 7.16629e-05 6.19344e-05 5.26272e-05 4.37415e-05 3.52771e-05 2.73879e-05 2.02275e-05 1.37961e-05 8.09353e-06 3.17778e-06 -8.93288e-07 -4.11966e-06 -6.50135e-06 -8.12248e-06 -9.06721e-06 -9.33553e-06 -8.92744e-06 -8.04209e-06 -6.87864e-06 -5.43709e-06 -3.71743e-06 -2.09105e-06 -9.29357e-07 -2.32339e-07 0 0 -5.24235e-07 -2.09694e-06 -4.71812e-06 -8.38776e-06 -1.22677e-05 -1.55196e-05 -1.81436e-05 -2.01397e-05 -2.10585e-05 -2.04509e-05 -1.83168e-05 -1.46563e-05 -9.27979e-06 -1.998e-06 7.1891e-06 1.82815e-05 3.1148e-05 4.56574e-05 6.18097e-05 7.96048e-05 9.86954e-05 0.000118734 0.000139721 0.000161655 0.000184131 0.000206741 0.000229485 0.000252363 0.000275066 0.000297283 0.000319016 0.000340263 0.000360896 0.000380785 0.000399931 0.000418332 0.000436019 0.00045302 0.000469336 0.000484966 0.000500002 0.000514538 0.000528573 0.000542107 0.000555197 0.000567899 0.000580214 0.00059214 0.000603652 0.00061472 0.000625346 0.000635529 0.000645173 0.000654182 0.000662556 0.000670296 0.000677289 0.000683425 0.000688704 0.000693125 0.000696617 0.000699108 0.000700599 0.000701089 0.000700577 0.000699065 0.000696551 0.000693036 0.000688591 0.000683287 0.000677126 0.000670106 0.000662338 0.000653935 0.000644897 0.000635222 0.000625008 0.00061435 0.00060325 0.000591706 0.000579747 0.000567401 0.000554669 0.00054155 0.000527988 0.000513927 0.000499369 0.000484312 0.000468665 0.000452337 0.000435326 0.000417634 0.000399232 0.00038009 0.00036021 0.000339591 0.000318362 0.000296652 0.000274461 0.00025179 0.000228948 0.000206242 0.000183673 0.000161241 0.000139352 0.000118411 9.84184e-05 7.93735e-05 6.16227e-05 4.55119e-05 3.10412e-05 1.82104e-05 7.15e-06 -2.0099e-06 -9.26924e-06 -1.4628e-05 -1.82756e-05 -2.04012e-05 -2.10049e-05 -2.00867e-05 -1.80947e-05 -1.54769e-05 -1.22334e-05 -8.36421e-06 -4.70487e-06 -2.09105e-06 -5.22763e-07 0 0 -9.31974e-07 -3.72789e-06 -8.38776e-06 -1.49116e-05 -2.18092e-05 -2.75905e-05 -3.22554e-05 -3.58039e-05 -3.74374e-05 -3.63572e-05 -3.25632e-05 -2.60556e-05 -1.64974e-05 -3.55201e-06 1.27806e-05 3.25005e-05 5.53743e-05 8.11687e-05 0.000109884 0.00014152 0.000175459 0.000211083 0.000248392 0.000287387 0.000327344 0.000367539 0.000407973 0.000448645 0.000489006 0.000528504 0.00056714 0.000604913 0.000641593 0.000676952 0.000710988 0.000743702 0.000775145 0.000805369 0.000834375 0.000862161 0.000888893 0.000914734 0.000939685 0.000963746 0.000987017 0.0010096 0.00103149 0.00105269 0.00107316 0.00109284 0.00111173 0.00112983 0.00114697 0.00116299 0.00117788 0.00119164 0.00120407 0.00121498 0.00122436 0.00123222 0.00123843 0.00124286 0.00124551 0.00124638 0.00124547 0.00124278 0.00123831 0.00123206 0.00122416 0.00121473 0.00120378 0.0011913 0.00117749 0.00116255 0.00114648 0.00112928 0.00111112 0.00109218 0.00107244 0.00105192 0.00103066 0.00100871 0.000986078 0.000962755 0.000938645 0.000913649 0.000887767 0.000860999 0.000833182 0.000804154 0.000773913 0.000742461 0.000709745 0.000675716 0.000640373 0.000603717 0.000565976 0.000527381 0.000487932 0.000447627 0.000407018 0.000366652 0.00032653 0.000286651 0.000247737 0.000210509 0.000174966 0.000141108 0.000109551 8.09101e-05 5.51843e-05 3.23741e-05 1.27111e-05 -3.57315e-06 -1.64786e-05 -2.60054e-05 -3.24899e-05 -3.62688e-05 -3.73421e-05 -3.57098e-05 -3.21684e-05 -2.75146e-05 -2.17484e-05 -1.48697e-05 -8.36421e-06 -3.71743e-06 -9.29357e-07 0 0 -1.36428e-06 -5.45714e-06 -1.22786e-05 -2.18285e-05 -3.18806e-05 -4.02083e-05 -4.68116e-05 -5.16905e-05 -5.3659e-05 -5.15311e-05 -4.53069e-05 -3.49863e-05 -2.00941e-05 -1.5502e-07 2.48309e-05 5.48637e-05 8.95534e-05 0.00012851 0.000171734 0.000219225 0.000270017 0.000323147 0.000378613 0.000436416 0.000495446 0.000554594 0.00061386 0.000673245 0.000731918 0.000789051 0.000844643 0.000898695 0.000950876 0.00100085 0.00104863 0.00109421 0.00113769 0.00117917 0.00121865 0.00125614 0.00129192 0.00132626 0.00135916 0.00139063 0.00142086 0.00145004 0.00147818 0.00150527 0.0015313 0.00155625 0.00158014 0.00160294 0.00162449 0.00164458 0.00166323 0.00168043 0.00169595 0.00170956 0.00172126 0.00173104 0.00173877 0.00174428 0.00174758 0.00174866 0.00174753 0.00174418 0.00173862 0.00173084 0.001721 0.00170924 0.00169557 0.00167999 0.00166272 0.001644 0.00162383 0.00160221 0.00157932 0.00155536 0.00153032 0.0015042 0.00147702 0.0014488 0.00141953 0.00138923 0.00135768 0.00132471 0.0012903 0.00125447 0.00121693 0.0011774 0.00113589 0.00109239 0.00104681 0.000999037 0.000949076 0.000896926 0.000842917 0.000787381 0.000730316 0.000671723 0.000612428 0.00055326 0.000494218 0.000435303 0.000377619 0.000322272 0.000269263 0.000218591 0.000171218 0.000128105 8.92512e-05 5.46574e-05 2.47107e-05 -2.01655e-07 -2.00797e-05 -3.49235e-05 -4.52079e-05 -5.14082e-05 -5.35242e-05 -5.1556e-05 -4.66865e-05 -4.00986e-05 -3.17923e-05 -2.17677e-05 -1.22443e-05 -5.44192e-06 -1.36048e-06 0 0 -1.72924e-06 -6.91696e-06 -1.55632e-05 -2.76679e-05 -4.02857e-05 -5.04714e-05 -5.82249e-05 -6.35462e-05 -6.48862e-05 -6.06957e-05 -5.09746e-05 -3.57229e-05 -1.43867e-05 1.35879e-05 4.82011e-05 8.94528e-05 0.000136716 0.000189365 0.0002474 0.00031082 0.000378236 0.000448257 0.000520883 0.000596115 0.000672408 0.00074822 0.00082355 0.000898398 0.00097165 0.00104219 0.00111002 0.00117513 0.00123713 0.00129561 0.00135058 0.00140202 0.00145016 0.00149519 0.00153711 0.00157593 0.0016121 0.00164609 0.0016779 0.00170753 0.00173536 0.00176176 0.00178674 0.00181029 0.00183256 0.00185367 0.00187364 0.00189245 0.00191005 0.00192637 0.00194141 0.00195518 0.00196753 0.00197833 0.00198758 0.00199529 0.00200135 0.00200568 0.00200826 0.00200911 0.00200822 0.00200559 0.00200122 0.00199511 0.00198736 0.00197805 0.00196718 0.00195476 0.00194092 0.0019258 0.00190939 0.0018917 0.00187278 0.00185271 0.00183149 0.00180911 0.00178544 0.00176034 0.00173383 0.00170589 0.00167614 0.00164423 0.00161014 0.00157388 0.00153498 0.00149299 0.00144791 0.00139973 0.00134826 0.00129328 0.00123481 0.00117284 0.00110776 0.00104 0.000969537 0.00089638 0.000821641 0.000746432 0.000670753 0.000594605 0.000519525 0.000447053 0.000377188 0.000309931 0.000246667 0.000188779 0.000136268 8.91333e-05 4.79985e-05 1.3486e-05 -1.44043e-05 -3.56723e-05 -5.0872e-05 -6.05573e-05 -6.47283e-05 -6.33849e-05 -5.80724e-05 -5.0336e-05 -4.01759e-05 -2.75919e-05 -1.55204e-05 -6.89797e-06 -1.72449e-06 0 0 -2.02684e-06 -8.10738e-06 -1.82416e-05 -3.24295e-05 -4.70244e-05 -5.83797e-05 -6.64953e-05 -7.13712e-05 -7.11192e-05 -6.38509e-05 -4.95663e-05 -2.82654e-05 6.24679e-07 3.76769e-05 8.28913e-05 0.000136268 0.000196863 0.000263735 0.000336882 0.000416306 0.000500113 0.000586412 0.000675202 0.000766484 0.000858231 0.000948417 0.00103704 0.00112411 0.0012082 0.00128792 0.00136326 0.00143422 0.00150036 0.00156122 0.00161682 0.00166715 0.00171257 0.00175344 0.00178975 0.00182152 0.00184944 0.00187424 0.00189591 0.00191446 0.00193052 0.00194477 0.00195718 0.00196777 0.00197694 0.00198509 0.00199223 0.00199836 0.00200367 0.00200836 0.00201243 0.00201588 0.0020188 0.00202129 0.00202334 0.00202496 0.00202618 0.00202706 0.00202758 0.00202775 0.00202756 0.00202702 0.00202613 0.00202488 0.00202323 0.00202114 0.0020186 0.00201562 0.00201209 0.00200794 0.00200316 0.00199775 0.00199151 0.00198425 0.00197596 0.00196665 0.00195591 0.00194335 0.00192895 0.00191273 0.00189404 0.00187222 0.00184728 0.00181923 0.00178734 0.00175092 0.00170997 0.00166447 0.00161409 0.00155846 0.00149758 0.00143145 0.00136052 0.00128523 0.00120559 0.0011216 0.00103466 0.000946168 0.000856135 0.000764558 0.000673456 0.000584851 0.000498742 0.000415129 0.000335897 0.000262932 0.000196234 0.000135802 8.25745e-05 3.74898e-05 5.47652e-07 -2.82519e-05 -4.9482e-05 -6.37162e-05 -7.09543e-05 -7.11964e-05 -6.63261e-05 -5.8227e-05 -4.6899e-05 -3.23423e-05 -1.81925e-05 -8.08557e-06 -2.02139e-06 0 0 -2.2571e-06 -9.02838e-06 -2.03139e-05 -3.61135e-05 -5.20969e-05 -6.39333e-05 -7.16228e-05 -7.51654e-05 -7.23579e-05 -6.09967e-05 -4.1082e-05 -1.26138e-05 2.49401e-05 7.21118e-05 0.000128901 0.000195309 0.000269994 0.000351618 0.000440181 0.000535682 0.00063565 0.000737613 0.000841571 0.000947524 0.00105291 0.00115519 0.00125434 0.00135037 0.00144157 0.00152624 0.00160436 0.00167596 0.00174055 0.00179769 0.00184737 0.00188959 0.00192492 0.00195391 0.00197658 0.00199291 0.00200394 0.0020107 0.00201318 0.0020114 0.00200635 0.00199905 0.0019895 0.0019777 0.00196444 0.00195052 0.00193592 0.00192066 0.00190533 0.00189054 0.00187627 0.00186253 0.00184977 0.00183843 0.00182853 0.00182005 0.00181326 0.00180841 0.00180551 0.00180456 0.00180554 0.00180847 0.00181334 0.00182014 0.00182863 0.00183852 0.00184983 0.00186255 0.00187624 0.00189043 0.00190514 0.00192037 0.0019355 0.00194996 0.00196373 0.00197682 0.00198845 0.00199781 0.00200492 0.00200977 0.00201135 0.00200868 0.00200173 0.00199052 0.00197402 0.0019512 0.00192207 0.00188662 0.00184431 0.00179456 0.00173737 0.00167276 0.00160118 0.00152309 0.00143849 0.00134738 0.00125147 0.00115247 0.00105036 0.000945161 0.000839412 0.000735666 0.000633923 0.000534183 0.000438909 0.000350565 0.000269149 0.000194663 0.000128439 7.18097e-05 2.47761e-05 -1.26622e-05 -4.10382e-05 -6.08849e-05 -7.22024e-05 -7.49906e-05 -7.14476e-05 -6.37713e-05 -5.19617e-05 -3.60189e-05 -2.02606e-05 -9.00473e-06 -2.25118e-06 0 0 -2.36782e-06 -9.47129e-06 -2.13104e-05 -3.78852e-05 -5.42621e-05 -6.55079e-05 -7.16224e-05 -7.26057e-05 -6.60035e-05 -4.93616e-05 -2.26799e-05 1.40415e-05 6.11967e-05 0.00011918 0.00018799 0.000267629 0.000356258 0.000452042 0.00055498 0.000665071 0.000779192 0.000894215 0.00101014 0.00112697 0.00124159 0.00135089 0.00145487 0.00155353 0.00164489 0.00172697 0.00179977 0.00186329 0.00191712 0.00196083 0.00199442 0.0020179 0.00203209 0.00203783 0.00203512 0.00202396 0.00200576 0.00198194 0.00195249 0.00191742 0.0018782 0.00183629 0.00179168 0.00174438 0.00169572 0.00164702 0.00159827 0.00154949 0.00150185 0.00145656 0.00141362 0.00137301 0.00133574 0.00130282 0.00127423 0.00124998 0.00123067 0.00121689 0.00120864 0.00120593 0.00120874 0.00121708 0.00123095 0.00125034 0.00127465 0.00130329 0.00133624 0.0013735 0.00141409 0.00145699 0.00150221 0.00154975 0.00159841 0.00164701 0.00169554 0.00174402 0.0017911 0.00183549 0.00187717 0.00191615 0.00195097 0.00198017 0.00200374 0.0020217 0.00203263 0.00203513 0.00202919 0.00201482 0.00199119 0.00195748 0.00191368 0.0018598 0.00179625 0.00172345 0.00164142 0.00155013 0.00145158 0.00134774 0.00123861 0.00112418 0.00100757 0.000891876 0.000777095 0.00066323 0.000553396 0.000450707 0.000355165 0.000266768 0.000187346 0.000118727 6.09112e-05 1.38987e-05 -2.27064e-05 -4.92998e-05 -6.58814e-05 -7.24513e-05 -7.14579e-05 -6.53499e-05 -5.41271e-05 -3.77896e-05 -2.12567e-05 -9.44741e-06 -2.36185e-06 0 0 -2.30686e-06 -9.22742e-06 -2.07617e-05 -3.69097e-05 -5.22795e-05 -6.14793e-05 -6.45091e-05 -6.13689e-05 -4.94575e-05 -2.61739e-05 8.48205e-06 5.45102e-05 0.000112032 0.000181167 0.000261918 0.000354282 0.000455805 0.000564032 0.000678963 0.000800597 0.000925085 0.00104857 0.00117107 0.00129256 0.0014094 0.00151791 0.00161809 0.00170996 0.00179131 0.00185996 0.00191592 0.00195917 0.00198944 0.00200644 0.00201017 0.00200062 0.00197898 0.00194641 0.00190293 0.00184852 0.00178507 0.00171442 0.0016366 0.0015516 0.00146143 0.00136813 0.00127169 0.00117211 0.00107143 0.000971673 0.000872851 0.000774958 0.000680028 0.000590092 0.000505149 0.000425201 0.000352047 0.000287489 0.000231529 0.000184164 0.000146494 0.000119617 0.000103533 9.82415e-05 0.000103738 0.000120016 0.000147077 0.00018492 0.000232438 0.000288524 0.000353179 0.000426402 0.000506387 0.000591331 0.000681231 0.000776089 0.000873875 0.000972557 0.00107214 0.00117261 0.00127196 0.00136815 0.00146118 0.00155105 0.00163575 0.00171326 0.00178359 0.00184674 0.00190084 0.00194404 0.00197633 0.00199772 0.00200704 0.00200312 0.00198597 0.00195557 0.00191223 0.00185623 0.00178757 0.00170626 0.00161447 0.0015144 0.00140604 0.0012894 0.00116812 0.00104586 0.00092262 0.000798404 0.000677047 0.00056239 0.00045443 0.000353169 0.000261051 0.000180523 0.000111583 5.42326e-05 8.3471e-06 -2.61972e-05 -4.94003e-05 -6.12621e-05 -6.4378e-05 -6.13433e-05 -5.21581e-05 -3.68223e-05 -2.07125e-05 -9.20556e-06 -2.30139e-06 0 0 -2.07419e-06 -8.29678e-06 -1.86678e-05 -3.31871e-05 -4.6149e-05 -5.18476e-05 -5.0283e-05 -4.1455e-05 -2.27198e-05 8.56645e-06 5.24038e-05 0.000108792 0.000177445 0.000258075 0.000350683 0.000455268 0.000568635 0.000687589 0.000812131 0.000942259 0.00107333 0.00120069 0.00132435 0.0014443 0.00155633 0.00165623 0.001744 0.00181963 0.00188081 0.00192519 0.00195279 0.00196359 0.00195753 0.00193455 0.00189462 0.00183777 0.00176559 0.00167966 0.00158 0.0014666 0.00134186 0.00120817 0.00106552 0.000913916 0.000756043 0.000594579 0.000429524 0.000260878 9.15592e-05 -7.55142e-05 -0.000240342 -0.000402925 -0.000560144 -0.000708879 -0.00084913 -0.000980898 -0.00110132 -0.00120755 -0.00129958 -0.0013774 -0.00143926 -0.0014834 -0.00150982 -0.0015185 -0.00150947 -0.00148273 -0.00143828 -0.00137612 -0.00129802 -0.00120576 -0.00109934 -0.000978752 -0.000846868 -0.000706548 -0.000557794 -0.000400605 -0.000238099 -7.33936e-05 9.35109e-05 0.000262615 0.000431007 0.000595778 0.000756926 0.000914452 0.00106569 0.00120796 0.00134127 0.00146562 0.00157863 0.00167791 0.00176348 0.00183532 0.00189185 0.00193149 0.00195424 0.00196009 0.00194912 0.00192141 0.00187695 0.00181576 0.00174015 0.00165245 0.00155267 0.0014408 0.00132104 0.00119761 0.0010705 0.000939704 0.000809865 0.000685612 0.000566946 0.000453866 0.000349555 0.000257197 0.000176792 0.00010834 5.21225e-05 8.42291e-06 -2.27589e-05 -4.14231e-05 -5.02079e-05 -5.17517e-05 -4.60547e-05 -3.31168e-05 -1.86282e-05 -8.2792e-06 -2.0698e-06 0 0 -1.66984e-06 -6.67936e-06 -1.50286e-05 -2.67174e-05 -3.58706e-05 -3.66128e-05 -2.89439e-05 -1.2864e-05 1.42096e-05 5.48593e-05 0.000109085 0.000176888 0.000257437 0.000349903 0.000454286 0.000570586 0.000694747 0.000822713 0.000954483 0.00109006 0.00122392 0.00135056 0.00146998 0.00158218 0.00168239 0.00176586 0.00183258 0.00188257 0.0019134 0.00192268 0.0019104 0.00187655 0.00182139 0.00174513 0.00164778 0.00152934 0.00139191 0.00123757 0.00106634 0.000878199 0.000676144 0.000463156 0.000239235 4.38129e-06 -0.000237964 -0.000484361 -0.000734808 -0.000989307 -0.00124388 -0.00149454 -0.00174131 -0.00198416 -0.00221866 -0.00244035 -0.00264922 -0.00284529 -0.00302437 -0.0031823 -0.00331908 -0.00343471 -0.0035266 -0.00359217 -0.0036314 -0.00364431 -0.00363089 -0.00359117 -0.00352513 -0.00343278 -0.00331673 -0.00317957 -0.00302132 -0.00284196 -0.00264568 -0.00243664 -0.00221486 -0.00198034 -0.00173751 -0.00149084 -0.00124033 -0.000985979 -0.000731749 -0.000481615 -0.000235576 6.36854e-06 0.00024079 0.000464261 0.000676782 0.000878352 0.001066 0.00123676 0.00139063 0.00152762 0.00164563 0.00174259 0.00181849 0.00187335 0.00190692 0.001919 0.00190957 0.00187863 0.0018286 0.00176188 0.00167848 0.00157838 0.00146635 0.00134713 0.00122073 0.00108713 0.000951848 0.000820375 0.000692711 0.000568858 0.000452857 0.00034875 0.000256538 0.00017622 0.00010862 5.45605e-05 1.40426e-05 -1.29342e-05 -2.89475e-05 -3.65751e-05 -3.5817e-05 -2.66732e-05 -1.50037e-05 -6.66831e-06 -1.66708e-06 0 0 -1.06538e-06 -4.26153e-06 -9.58844e-06 -1.70461e-05 -2.07922e-05 -1.49843e-05 3.77485e-07 2.52933e-05 6.21404e-05 0.000113296 0.000178761 0.000258534 0.000351087 0.000454893 0.00056995 0.00069626 0.000828797 0.000962536 0.00109748 0.00123362 0.00136457 0.00148391 0.00159165 0.0016878 0.00176711 0.00182437 0.00185957 0.00187271 0.00186144 0.00182341 0.00175861 0.00166705 0.00154938 0.00140626 0.00123769 0.00104366 0.000826833 0.000589841 0.000332689 5.53754e-05 -0.00023852 -0.000545419 -0.000865321 -0.00119823 -0.00153991 -0.00188615 -0.00223693 -0.00259227 -0.002947 -0.00329595 -0.00363913 -0.00397653 -0.00430213 -0.0046099 -0.00489985 -0.00517196 -0.00542049 -0.00563968 -0.00582952 -0.00599003 -0.00611758 -0.00620859 -0.00626306 -0.00628097 -0.00626235 -0.0062072 -0.00611553 -0.00598733 -0.00582623 -0.00563585 -0.00541618 -0.00516724 -0.00489478 -0.00460457 -0.00429661 -0.0039709 -0.00363347 -0.00329034 -0.00294152 -0.002587 -0.00223194 -0.00188149 -0.00153565 -0.00119442 -0.00086201 -0.000542632 -0.000236286 5.70275e-05 0.000333748 0.000590314 0.000826726 0.00104298 0.00123646 0.00140452 0.00154717 0.0016644 0.00175558 0.00182005 0.00185782 0.00186889 0.00185561 0.00182033 0.00176306 0.0016838 0.00158777 0.00148018 0.00136104 0.00123034 0.00109448 0.00095983 0.000826397 0.000694181 0.000568189 0.000453431 0.000349905 0.000257612 0.000178073 0.000112806 6.18122e-05 2.50915e-05 2.70327e-07 -1.50251e-05 -2.07946e-05 -1.70383e-05 -9.58407e-06 -4.25959e-06 -1.0649e-06 0 0 -2.32419e-07 -9.29674e-07 -2.09177e-06 -3.7187e-06 -2.61667e-07 1.38281e-05 3.85507e-05 7.3906e-05 0.000121882 0.000184468 0.000261663 0.000353468 0.000457478 0.000571288 0.0006949 0.000828312 0.000965438 0.00110019 0.00123257 0.00136258 0.00148295 0.00158644 0.00167304 0.00174276 0.00179004 0.00180935 0.00180067 0.00176402 0.00169729 0.0015984 0.00146733 0.00130409 0.0011099 0.000886003 0.000632388 0.000349057 3.92374e-05 -0.000293846 -0.000650192 -0.0010298 -0.00142857 -0.00184238 -0.00227123 -0.00271513 -0.00316912 -0.00362823 -0.00409247 -0.00456183 -0.0050299 -0.00549025 -0.00594288 -0.00638779 -0.00681715 -0.00722312 -0.00760571 -0.00796492 -0.0082931 -0.0085826 -0.00883343 -0.0090456 -0.00921426 -0.0093346 -0.00940661 -0.0094303 -0.00940568 -0.00933276 -0.00921155 -0.00904203 -0.00882907 -0.00857752 -0.00828736 -0.0079586 -0.0075989 -0.00721592 -0.00680965 -0.00638009 -0.00593507 -0.00548244 -0.00502218 -0.00455429 -0.0040852 -0.00362131 -0.00316262 -0.00270913 -0.00226578 -0.00183752 -0.00142435 -0.00102626 -0.000647349 -0.000291703 4.06781e-05 0.000349795 0.000632439 0.000885405 0.00110869 0.0013023 0.00146502 0.00159563 0.00169414 0.00176054 0.00179693 0.00180542 0.00178601 0.00173869 0.00166901 0.0015825 0.00147916 0.00135899 0.00122923 0.00109713 0.000962674 0.000825869 0.000692784 0.000569487 0.000455977 0.000352256 0.000260715 0.000183749 0.000121358 7.35411e-05 3.83128e-05 1.36867e-05 -3.37146e-07 -3.75883e-06 -2.11434e-06 -9.39707e-07 -2.34927e-07 0 0 8.29053e-07 3.31621e-06 7.46148e-06 1.32649e-05 2.5721e-05 4.98246e-05 8.55756e-05 0.000132974 0.000193436 0.000268375 0.000357793 0.00046169 0.000576608 0.000699089 0.000829134 0.000966742 0.00110467 0.00123568 0.00135976 0.00147693 0.00157908 0.00165816 0.00171415 0.00174706 0.00175118 0.00172079 0.00165589 0.00155649 0.00142095 0.00124763 0.00103653 0.000787652 0.000502943 0.000184352 -0.000168121 -0.000554476 -0.000970877 -0.00141349 -0.00188231 -0.00237733 -0.00289399 -0.00342771 -0.00397849 -0.00454633 -0.00512558 -0.00571061 -0.00630142 -0.006898 -0.00749259 -0.00807745 -0.00865257 -0.00921795 -0.00976372 -0.01028 -0.0107668 -0.0112242 -0.0116422 -0.0120111 -0.0123308 -0.0126014 -0.0128166 -0.0129702 -0.0130621 -0.0130923 -0.0130609 -0.0129678 -0.0128132 -0.0125969 -0.0123253 -0.0120046 -0.0116348 -0.0112161 -0.0107581 -0.0102707 -0.00975398 -0.0092079 -0.00864232 -0.00806712 -0.0074823 -0.00688785 -0.00629152 -0.00570106 -0.00511647 -0.00453775 -0.00397052 -0.0034204 -0.0028874 -0.00237151 -0.00187729 -0.00140929 -0.00096751 -0.00055195 -0.000166426 0.000185249 0.000503075 0.000787051 0.00103525 0.00124573 0.00141851 0.00155358 0.00165258 0.00171716 0.00174732 0.00174306 0.00171008 0.00165409 0.00157509 0.00147308 0.00135612 0.00123227 0.00110154 0.000963923 0.000826642 0.000696919 0.000574755 0.00046015 0.000356547 0.00026739 0.000192679 0.000132415 8.518e-05 4.95603e-05 2.55554e-05 1.31653e-05 7.40548e-06 3.29133e-06 8.22832e-07 0 0 2.11903e-06 8.47613e-06 1.90713e-05 3.39045e-05 5.71558e-05 9.30051e-05 0.000141452 0.000202498 0.0002768 0.000365018 0.000467151 0.0005832 0.000708477 0.000838295 0.000972652 0.00111155 0.0012465 0.001369 0.00147905 0.00157667 0.00165296 0.00169907 0.00171498 0.0017007 0.00165051 0.00155869 0.00142522 0.00125012 0.00103241 0.000771112 0.000466225 0.000117751 -0.000271493 -0.000698689 -0.00116384 -0.00166694 -0.00220351 -0.00276908 -0.00336365 -0.00398722 -0.0046348 -0.00530143 -0.00598711 -0.00669182 -0.00740931 -0.0081333 -0.00886378 -0.00960076 -0.0103351 -0.0110576 -0.0117682 -0.012467 -0.0131418 -0.0137806 -0.0143832 -0.0149497 -0.0154678 -0.0159251 -0.0163217 -0.0166575 -0.0169247 -0.0171153 -0.0172294 -0.017267 -0.017228 -0.0171125 -0.0169204 -0.0166519 -0.0163148 -0.015917 -0.0154586 -0.0149396 -0.0143722 -0.0137689 -0.0131296 -0.0124543 -0.0117552 -0.0110444 -0.0103219 -0.00958767 -0.00885091 -0.00812076 -0.00739723 -0.0066803 -0.00597623 -0.00529128 -0.00462545 -0.00397873 -0.00335607 -0.00276245 -0.00219784 -0.00166225 -0.00116014 -0.00069595 -0.000269688 0.000118649 0.000466264 0.000770363 0.00103095 0.00124801 0.00142255 0.00155554 0.00164699 0.0016969 0.00171098 0.00169496 0.00164883 0.00157261 0.00147513 0.00136526 0.001243 0.00110834 0.000969762 0.000835727 0.000706239 0.000581296 0.000465569 0.00036373 0.000275777 0.000201712 0.000140872 9.25955e-05 5.68829e-05 3.37341e-05 1.89754e-05 8.43352e-06 2.10838e-06 0 0 3.63201e-06 1.4528e-05 3.26881e-05 5.81122e-05 9.38673e-05 0.00014302 0.000205572 0.000281521 0.00037056 0.000472383 0.000586989 0.000714378 0.000848467 0.000983172 0.00111849 0.00125443 0.00138121 0.00148908 0.00157801 0.00164803 0.0016896 0.00169321 0.00165886 0.00158655 0.00147083 0.00130625 0.00109281 0.000830507 0.000519333 0.00015928 -0.000249653 -0.000707466 -0.0012103 -0.00175429 -0.00233945 -0.00296577 -0.00362818 -0.00432162 -0.00504608 -0.00580156 -0.00658292 -0.007385 -0.00820781 -0.00905133 -0.00990892 -0.0107739 -0.0116463 -0.0125261 -0.0134029 -0.0142661 -0.0151157 -0.0159518 -0.0167598 -0.0175252 -0.018248 -0.0189282 -0.0195507 -0.0201004 -0.0205775 -0.0209818 -0.0213037 -0.0215333 -0.0216708 -0.021716 -0.0216691 -0.0215299 -0.0212986 -0.0209751 -0.0205693 -0.0200908 -0.0195397 -0.0189161 -0.0182348 -0.0175112 -0.016745 -0.0159364 -0.0150999 -0.01425 -0.0133867 -0.01251 -0.0116303 -0.0107582 -0.00989367 -0.00903664 -0.0081938 -0.00737176 -0.00657054 -0.00579013 -0.00503565 -0.00431224 -0.0036199 -0.00295861 -0.00233343 -0.0017494 -0.00120651 -0.000704763 -0.000247995 0.000159963 0.000519111 0.000829449 0.001091 0.0013038 0.00146784 0.00158311 0.00165508 0.00168919 0.00168544 0.00164384 0.00157387 0.00148505 0.00137737 0.00125084 0.0011152 0.000980194 0.000845822 0.000712083 0.000585043 0.000470762 0.000369241 0.000280481 0.000204781 0.000142445 9.34711e-05 5.78599e-05 3.25462e-05 1.4465e-05 3.61624e-06 0 0 5.36247e-06 2.14499e-05 4.82623e-05 8.57996e-05 0.00013568 0.000199521 0.000277324 0.000369087 0.000473302 0.00058846 0.00071456 0.000851603 0.000991956 0.00112799 0.00125969 0.00138708 0.00149913 0.00158484 0.00164421 0.00167724 0.00167402 0.00162466 0.00152914 0.00138748 0.00119491 0.000946682 0.000642786 0.000283226 -0.000130636 -0.000597436 -0.00111717 -0.00168985 -0.00231037 -0.00297364 -0.00367965 -0.00442842 -0.00521441 -0.00603208 -0.00688144 -0.00776249 -0.00867028 -0.0095999 -0.0105513 -0.0115246 -0.012513 -0.0135101 -0.0145158 -0.0155302 -0.0165416 -0.0175386 -0.0185211 -0.0194892 -0.020426 -0.0213144 -0.0221545 -0.0229463 -0.0236718 -0.024313 -0.0248698 -0.0253424 -0.0257189 -0.0259875 -0.0261483 -0.0262012 -0.0261463 -0.0259836 -0.025713 -0.0253347 -0.0248604 -0.0243018 -0.0236591 -0.0229323 -0.0221392 -0.021298 -0.0204087 -0.0194712 -0.0185026 -0.0175196 -0.0165224 -0.015511 -0.0144967 -0.0134913 -0.0124946 -0.0115067 -0.0105341 -0.00958347 -0.00865475 -0.00774795 -0.00686798 -0.00601976 -0.00520327 -0.00441854 -0.00367104 -0.0029663 -0.0023043 -0.00168504 -0.00111359 -0.00059502 -0.00012932 0.000283507 0.000642118 0.000945174 0.00119267 0.00138462 0.00152577 0.00162089 0.00166997 0.00167303 0.00163994 0.0015806 0.001495 0.00138314 0.00125602 0.0011246 0.000988899 0.000848905 0.00071223 0.000586482 0.000471662 0.000367769 0.000276302 0.000198761 0.000135145 8.54551e-05 4.80685e-05 2.13638e-05 5.34094e-06 0 0 7.31042e-06 2.92417e-05 6.57938e-05 0.000116967 0.000182594 0.000262508 0.000356709 0.000465197 0.000585025 0.000713248 0.000849865 0.000994875 0.00113894 0.00127274 0.00139625 0.00150949 0.00160024 0.00165629 0.00167764 0.00166429 0.00160622 0.0014934 0.00132582 0.00110349 0.000822755 0.000479977 7.51523e-05 -0.000391719 -0.000917495 -0.00149903 -0.00213633 -0.0028294 -0.0035717 -0.00435672 -0.00518445 -0.00605489 -0.00696219 -0.00790047 -0.00886973 -0.00986998 -0.0108969 -0.0119461 -0.0130177 -0.0141115 -0.0152217 -0.0163419 -0.0174723 -0.0186128 -0.0197511 -0.020875 -0.0219844 -0.0230792 -0.0241403 -0.0251481 -0.0261027 -0.0270041 -0.0278311 -0.0285626 -0.0291987 -0.0297392 -0.0301703 -0.0304778 -0.0306619 -0.0307225 -0.0306597 -0.0304734 -0.0301637 -0.0297305 -0.029188 -0.0285501 -0.0278169 -0.0269882 -0.0260854 -0.0251295 -0.0241207 -0.0230588 -0.0219632 -0.0208533 -0.0197291 -0.0185906 -0.0174501 -0.0163199 -0.0152 -0.0140904 -0.0129972 -0.0119264 -0.0108781 -0.00985218 -0.00885305 -0.00788498 -0.00694797 -0.00604203 -0.00517297 -0.00434665 -0.00356305 -0.00282218 -0.00213053 -0.00149459 -0.000914349 -0.000389818 7.58919e-05 0.000479667 0.000821506 0.00110141 0.00132304 0.00149004 0.00160242 0.00166019 0.00167334 0.0016519 0.00159587 0.00150525 0.00139221 0.00126895 0.00113547 0.00099176 0.000847131 0.00071089 0.000583039 0.000463576 0.000355434 0.000261544 0.000181906 0.00011652 6.55424e-05 2.913e-05 7.28249e-06 0 0 9.47586e-06 3.79034e-05 8.52827e-05 0.000151614 0.000234609 0.00033198 0.000443727 0.00056985 0.00070573 0.000846747 0.000992902 0.00114419 0.00128943 0.00141742 0.00152817 0.00162167 0.00168454 0.00170342 0.00167831 0.0016092 0.0014862 0.00129943 0.00104889 0.000734566 0.000354356 -9.38635e-05 -0.000610091 -0.00119433 -0.00184124 -0.00254551 -0.00330714 -0.00412611 -0.0049943 -0.00590354 -0.00685383 -0.00784519 -0.00887153 -0.00992679 -0.011011 -0.0121241 -0.0132627 -0.0144237 -0.0156068 -0.0168123 -0.0180348 -0.0192693 -0.0205157 -0.0217741 -0.0230316 -0.0242754 -0.0255055 -0.0267218 -0.0279027 -0.0290263 -0.0300925 -0.0311015 -0.0320286 -0.0328495 -0.033564 -0.0341723 -0.0346578 -0.0350043 -0.0352117 -0.0352799 -0.0352092 -0.0349994 -0.0346506 -0.0341627 -0.0335523 -0.0328356 -0.0320129 -0.0310839 -0.0300734 -0.0290057 -0.0278809 -0.026699 -0.0254817 -0.024251 -0.0230067 -0.021749 -0.0204905 -0.0192441 -0.0180099 -0.0167878 -0.015583 -0.0144005 -0.0132405 -0.0121028 -0.0109909 -0.00990792 -0.008854 -0.00782908 -0.00683922 -0.00589045 -0.00498277 -0.00411619 -0.00329881 -0.00253874 -0.00183598 -0.00119052 -0.000607677 -9.27249e-05 0.000354331 0.000733491 0.00104689 0.00129666 0.0014828 0.00160531 0.00167407 0.00169896 0.00167999 0.00161715 0.00152379 0.00141325 0.00128554 0.001140