<?xml version="1.0"?> 
<VTKFile type="StructuredGrid" version="0.1"> 
<StructuredGrid WholeExtent="0 128 0 128 0 0"> 
<Piece Extent="0 128 0 128 0 0"> 
<PointData>
<DataArray type="Float32" Name="u" format="ascii" NumberOfComponents="1"> 
0 0 0 0 0 0 0 0 0 0 0 0 0 0 0 0 0 0 0 0 0 0 0 0 0 0 0 0 0 0 0 0 0 0 0 0 0 0 0 0 0 0 0 0 0 0 0 0 0 0 0 0 0 0 0 0 0 0 0 0 0 0 0 0 0 0 0 0 0 0 0 0 0 0 0 0 0 0 0 0 0 0 0 0 0 0 0 0 0 0 0 0 0 0 0 0 0 0 0 0 0 0 0 0 0 0 0 0 0 0 0 0 0 0 0 0 0 0 0 0 0 0 0 0 0 0 0 0 0 0 -2.81113e-07 -1.12445e-06 -2.53002e-06 -4.49781e-06 -6.9842e-06 -9.94558e-06 -1.33819e-05 -1.72933e-05 -2.16423e-05 -2.63918e-05 -3.15416e-05 -3.70919e-05 -4.29532e-05 -4.90365e-05 -5.53416e-05 -6.18686e-05 -6.85354e-05 -7.526e-05 -8.20423e-05 -8.88823e-05 -9.57084e-05 -0.000102449 -0.000109104 -0.000115673 -0.000122096 -0.000128311 -0.000134318 -0.000140118 -0.000145662 -0.000150905 -0.000155844 -0.000160481 -0.000164788 -0.000168736 -0.000172325 -0.000175555 -0.000178423 -0.000180923 -0.000183056 -0.000184822 -0.000186242 -0.000187339 -0.000188112 -0.000188562 -0.000188732 -0.000188667 -0.000188368 -0.000187834 -0.000187124 -0.000186297 -0.000185353 -0.000184293 -0.000183177 -0.000182068 -0.000180964 -0.000179866 -0.000178824 -0.000177889 -0.000177061 -0.00017634 -0.000175753 -0.000175329 -0.000175069 -0.000174971 -0.000175036 -0.000175262 -0.00017565 -0.0001762 -0.000176882 -0.000177668 -0.000178557 -0.00017955 -0.000180595 -0.000181642 -0.000182691 -0.000183742 -0.000184733 -0.000185604 -0.000186354 -0.000186983 -0.000187434 -0.000187648 -0.000187626 -0.000187366 -0.000186828 -0.000185966 -0.000184782 -0.000183276 -0.000181426 -0.000179214 -0.00017664 -0.000173703 -0.000170409 -0.000166763 -0.000162767 -0.00015842 -0.00015375 -0.000148788 -0.000143534 -0.000137987 -0.000132195 -0.000126206 -0.00012002 -0.000113638 -0.000107118 -0.000100523 -9.38525e-05 -8.7106e-05 -8.03539e-05 -7.36666e-05 -6.7044e-05 -6.04861e-05 -5.40726e-05 -4.78832e-05 -4.19178e-05 -3.61764e-05 -3.0745e-05 -2.57096e-05 -2.107e-05 -1.68264e-05 -1.30134e-05 -9.66599e-06 -6.78401e-06 -4.36751e-06 -2.45673e-06 -1.09188e-06 -2.7297e-07 0 0 -1.12445e-06 -4.49781e-06 -1.01201e-05 -1.79912e-05 -2.79368e-05 -3.97823e-05 -5.35278e-05 -6.91732e-05 -8.65693e-05 -0.000105567 -0.000126166 -0.000148367 -0.000171813 -0.000196146 -0.000221366 -0.000247474 -0.000274142 -0.00030104 -0.000328169 -0.000355529 -0.000382834 -0.000409796 -0.000436416 -0.000462694 -0.000488385 -0.000513245 -0.000537274 -0.000560472 -0.00058265 -0.000603618 -0.000623377 -0.000641926 -0.000659153 -0.000674944 -0.0006893 -0.000702221 -0.000713691 -0.000723691 -0.000732224 -0.000739288 -0.00074497 -0.000749357 -0.00075245 -0.000754247 -0.000754928 -0.000754669 -0.000753472 -0.000751335 -0.000748495 -0.000745188 -0.000741414 -0.000737173 -0.000732709 -0.00072827 -0.000723855 -0.000719463 -0.000715296 -0.000711557 -0.000708244 -0.000705358 -0.000703012 -0.000701318 -0.000700275 -0.000699884 -0.000700142 -0.000701047 -0.000702599 -0.000704798 -0.000707528 -0.000710671 -0.000714228 -0.000718199 -0.000722381 -0.00072657 -0.000730765 -0.000734967 -0.000738932 -0.000742414 -0.000745414 -0.000747932 -0.000749735 -0.000750592 -0.000750502 -0.000749466 -0.000747311 -0.000743865 -0.000739129 -0.000733103 -0.000725706 -0.000716858 -0.00070656 -0.000694811 -0.000681635 -0.000667054 -0.000651068 -0.000633678 -0.000615001 -0.000595153 -0.000574135 -0.000551947 -0.00052878 -0.000504825 -0.000480082 -0.00045455 -0.000428473 -0.000402093 -0.00037541 -0.000348424 -0.000321416 -0.000294666 -0.000268176 -0.000241944 -0.00021629 -0.000191533 -0.000167671 -0.000144706 -0.00012298 -0.000102838 -8.42801e-05 -6.73055e-05 -5.20538e-05 -3.86639e-05 -2.7136e-05 -1.74701e-05 -9.8269e-06 -4.36751e-06 -1.09188e-06 0 0 -2.53002e-06 -1.01201e-05 -2.27702e-05 -4.04803e-05 -6.28578e-05 -8.95103e-05 -0.000120438 -0.00015564 -0.000194781 -0.000237526 -0.000283875 -0.000333827 -0.000386579 -0.000441328 -0.000498075 -0.000556818 -0.000616819 -0.00067734 -0.00073838 -0.000799941 -0.000861376 -0.000922041 -0.000981936 -0.00104106 -0.00109887 -0.0011548 -0.00120887 -0.00126106 -0.00131096 -0.00135814 -0.0014026 -0.00144433 -0.00148309 -0.00151862 -0.00155093 -0.00158 -0.0016058 -0.00162831 -0.0016475 -0.0016634 -0.00167618 -0.00168605 -0.00169301 -0.00169706 -0.00169859 -0.00169801 -0.00169531 -0.0016905 -0.00168411 -0.00167667 -0.00166818 -0.00165864 -0.0016486 -0.00163861 -0.00162867 -0.00161879 -0.00160942 -0.001601 -0.00159355 -0.00158706 -0.00158178 -0.00157796 -0.00157562 -0.00157474 -0.00157532 -0.00157736 -0.00158085 -0.0015858 -0.00159194 -0.00159901 -0.00160701 -0.00161595 -0.00162536 -0.00163478 -0.00164422 -0.00165368 -0.0016626 -0.00167043 -0.00167718 -0.00168285 -0.0016869 -0.00168883 -0.00168863 -0.0016863 -0.00168145 -0.0016737 -0.00166304 -0.00164948 -0.00163284 -0.00161293 -0.00158976 -0.00156332 -0.00153368 -0.00150087 -0.0014649 -0.00142578 -0.00138375 -0.00133909 -0.0012918 -0.00124188 -0.00118976 -0.00113586 -0.00108018 -0.00102274 -0.000964065 -0.00090471 -0.000844673 -0.000783954 -0.000723185 -0.000662999 -0.000603396 -0.000544375 -0.000486653 -0.000430948 -0.00037726 -0.000325588 -0.000276705 -0.000231386 -0.00018963 -0.000151437 -0.000117121 -8.69939e-05 -6.10561e-05 -3.93076e-05 -2.21105e-05 -9.8269e-06 -2.45673e-06 0 0 -4.49781e-06 -1.79912e-05 -4.04803e-05 -7.19649e-05 -0.000111747 -0.000159129 -0.000214111 -0.000276693 -0.000346277 -0.000422268 -0.000504666 -0.00059347 -0.000687252 -0.000784584 -0.000885466 -0.000989898 -0.00109657 -0.00120416 -0.00131268 -0.00142212 -0.00153133 -0.00163918 -0.00174566 -0.00185077 -0.00195354 -0.00205298 -0.0021491 -0.00224189 -0.0023306 -0.00241447 -0.00249351 -0.0025677 -0.00263661 -0.00269978 -0.0027572 -0.00280889 -0.00285476 -0.00289477 -0.00292889 -0.00295715 -0.00297988 -0.00299743 -0.0030098 -0.00301699 -0.00301971 -0.00301868 -0.00301389 -0.00300534 -0.00299398 -0.00298075 -0.00296566 -0.00294869 -0.00293084 -0.00291308 -0.00289542 -0.00287785 -0.00286118 -0.00284623 -0.00283298 -0.00282143 -0.00281205 -0.00280527 -0.0028011 -0.00279954 -0.00280057 -0.00280419 -0.0028104 -0.00281919 -0.00283011 -0.00284268 -0.00285691 -0.0028728 -0.00288952 -0.00290628 -0.00292306 -0.00293987 -0.00295573 -0.00296966 -0.00298166 -0.00299173 -0.00299894 -0.00300237 -0.00300201 -0.00299786 -0.00298924 -0.00297546 -0.00295652 -0.00293241 -0.00290282 -0.00286743 -0.00282624 -0.00277924 -0.00272654 -0.00266822 -0.00260427 -0.00253471 -0.00246 -0.00238061 -0.00229654 -0.00220779 -0.00211512 -0.0020193 -0.00192033 -0.0018182 -0.00171389 -0.00160837 -0.00150164 -0.0013937 -0.00128566 -0.00117866 -0.0010727 -0.000967777 -0.000865162 -0.000766131 -0.000670684 -0.000578823 -0.00049192 -0.000411353 -0.00033712 -0.000269222 -0.000208215 -0.000154656 -0.000108544 -6.98802e-05 -3.93076e-05 -1.74701e-05 -4.36751e-06 0 0 -6.97801e-06 -2.7912e-05 -6.28021e-05 -0.000111648 -0.000173242 -0.000246374 -0.000331045 -0.000427255 -0.000534072 -0.000650564 -0.000776731 -0.000912572 -0.0010559 -0.00120452 -0.00135844 -0.00151765 -0.00168014 -0.00184389 -0.00200891 -0.00217519 -0.00234097 -0.0025045 -0.00266576 -0.00282477 -0.00298002 -0.00313001 -0.00327476 -0.00341425 -0.00354734 -0.00367287 -0.00379084 -0.00390126 -0.00400345 -0.00409674 -0.00418112 -0.0042566 -0.0043231 -0.00438054 -0.00442894 -0.00446827 -0.00449912 -0.00452204 -0.00453704 -0.0045441 -0.00454438 -0.00453897 -0.0045279 -0.00451115 -0.0044902 -0.00446655 -0.00444019 -0.00441111 -0.00438086 -0.00435097 -0.00432144 -0.00429228 -0.00426472 -0.00424005 -0.00421825 -0.00419933 -0.00418399 -0.00417292 -0.00416613 -0.00416362 -0.00416537 -0.00417138 -0.00418162 -0.00419612 -0.00421414 -0.00423495 -0.00425856 -0.00428496 -0.00431289 -0.00434107 -0.0043695 -0.00439819 -0.0044256 -0.0044502 -0.004472 -0.00449099 -0.00450572 -0.00451472 -0.004518 -0.00451555 -0.00450629 -0.00448913 -0.00446407 -0.00443111 -0.00438972 -0.00433938 -0.00428009 -0.00421186 -0.0041348 -0.00404901 -0.00395451 -0.0038513 -0.00374006 -0.00362151 -0.00349565 -0.00336247 -0.00322313 -0.00307881 -0.0029295 -0.00277519 -0.00261739 -0.00245756 -0.00229572 -0.00213185 -0.0019677 -0.00180499 -0.0016437 -0.00148386 -0.00132741 -0.00117631 -0.00103055 -0.000890153 -0.00075721 -0.000633835 -0.000520028 -0.000415789 -0.000321988 -0.000239496 -0.000168313 -0.000108439 -6.0997e-05 -2.71098e-05 -6.77745e-06 0 0 -9.92079e-06 -3.96832e-05 -8.92871e-05 -0.000158733 -0.000245977 -0.000348978 -0.000467736 -0.00060225 -0.000751179 -0.000913182 -0.00108826 -0.00127641 -0.00147459 -0.00167974 -0.00189188 -0.002111 -0.00233429 -0.00255893 -0.00278493 -0.00301229 -0.00323855 -0.00346125 -0.00368039 -0.00389597 -0.00410591 -0.00430814 -0.00450265 -0.00468945 -0.00486695 -0.00503358 -0.00518934 -0.00533423 -0.00546736 -0.00558784 -0.00569567 -0.00579085 -0.00587334 -0.00594311 -0.00600016 -0.00604449 -0.00607696 -0.00609844 -0.00610895 -0.00610847 -0.00609866 -0.00608118 -0.00605604 -0.00602322 -0.00598489 -0.00594319 -0.00589813 -0.00584969 -0.0058001 -0.00575158 -0.00570411 -0.0056577 -0.00561416 -0.00557529 -0.0055411 -0.00551158 -0.00548775 -0.00547059 -0.00546013 -0.00545635 -0.00545923 -0.00546875 -0.00548491 -0.00550771 -0.00553611 -0.00556907 -0.00560659 -0.00564866 -0.00569346 -0.00573916 -0.00578577 -0.00583328 -0.00587949 -0.00592219 -0.00596137 -0.00599705 -0.0060271 -0.0060494 -0.00606395 -0.00607075 -0.0060682 -0.00605469 -0.00603022 -0.00599478 -0.00594758 -0.00588779 -0.00581542 -0.00573047 -0.00563303 -0.00552319 -0.00540096 -0.00526633 -0.00512023 -0.0049636 -0.00479642 -0.00461871 -0.00443205 -0.00423804 -0.00403668 -0.00382797 -0.00361397 -0.00339675 -0.0031763 -0.00295264 -0.00272816 -0.00250528 -0.002284 -0.00206433 -0.00184898 -0.0016407 -0.00143948 -0.00124532 -0.00106116 -0.00088993 -0.000731633 -0.000586268 -0.000455093 -0.000339362 -0.000239076 -0.000154236 -8.67577e-05 -3.8559e-05 -9.63974e-06 0 0 -1.33262e-05 -5.33046e-05 -0.000119935 -0.000213219 -0.000329954 -0.000466943 -0.000624184 -0.000801677 -0.000997599 -0.00121012 -0.00143925 -0.00168498 -0.00194332 -0.00221026 -0.0024858 -0.00276996 -0.00305901 -0.00334928 -0.00364075 -0.00393342 -0.00422407 -0.00450945 -0.00478955 -0.00506439 -0.00533123 -0.00558736 -0.00583278 -0.00606748 -0.00628944 -0.00649661 -0.006689 -0.00686661 -0.00702833 -0.00717308 -0.00730085 -0.00741163 -0.00750549 -0.00758247 -0.00764257 -0.00768579 -0.0077134 -0.00772664 -0.00772553 -0.00771007 -0.00768256 -0.0076453 -0.00759831 -0.00754157 -0.00747804 -0.00741068 -0.00733947 -0.00726443 -0.00718856 -0.00711488 -0.0070434 -0.00697412 -0.00690948 -0.00685195 -0.00680152 -0.00675819 -0.00672333 -0.0066983 -0.00668309 -0.00667771 -0.00668212 -0.0066963 -0.00672025 -0.00675397 -0.00679604 -0.00684505 -0.00690099 -0.00696388 -0.00703123 -0.00710056 -0.00717186 -0.00724515 -0.0073174 -0.00738561 -0.00744978 -0.00750991 -0.00756309 -0.00760641 -0.00763987 -0.00766347 -0.00767497 -0.00767213 -0.00765496 -0.00762344 -0.0075764 -0.00751266 -0.00743222 -0.00733507 -0.00722124 -0.00709076 -0.00694362 -0.00677982 -0.00660052 -0.00640687 -0.00619887 -0.00597652 -0.00574188 -0.005497 -0.00524188 -0.00497653 -0.00470365 -0.00442594 -0.0041434 -0.00385604 -0.00356703 -0.00327955 -0.0029936 -0.00270919 -0.00242989 -0.00215932 -0.00189746 -0.00164433 -0.00140377 -0.00117964 -0.000971933 -0.00078066 -0.000607528 -0.000454253 -0.000320834 -0.00020727 -0.00011659 -5.18176e-05 -1.29544e-05 0 0 -1.71941e-05 -6.87765e-05 -0.000154747 -0.000275106 -0.000425173 -0.000600267 -0.000800388 -0.00102554 -0.00127333 -0.00154139 -0.00182971 -0.00213829 -0.00246209 -0.00279606 -0.0031402 -0.00349451 -0.00385431 -0.00421493 -0.00457635 -0.00493859 -0.00529753 -0.00564908 -0.00599324 -0.00633001 -0.00665597 -0.00696767 -0.00726513 -0.00754835 -0.0078148 -0.00806195 -0.00828982 -0.00849839 -0.00868638 -0.00885246 -0.00899666 -0.00911896 -0.00921955 -0.00929862 -0.00935617 -0.00939219 -0.00940843 -0.00940664 -0.0093868 -0.00934892 -0.00929607 -0.00923134 -0.00915471 -0.00906619 -0.00896966 -0.00886901 -0.00876422 -0.00865532 -0.00854623 -0.0084409 -0.00833934 -0.00824154 -0.0081507 -0.00807002 -0.00799951 -0.00793916 -0.00789074 -0.00785602 -0.00783501 -0.00782771 -0.00783406 -0.00785405 -0.00788765 -0.00793489 -0.00799391 -0.00806287 -0.00814178 -0.00823064 -0.00832621 -0.00842526 -0.00852778 -0.00863378 -0.00873932 -0.00884047 -0.00893721 -0.00902956 -0.00911368 -0.00918574 -0.00924575 -0.0092937 -0.00932659 -0.00934146 -0.00933829 -0.00931708 -0.0092762 -0.009214 -0.00913049 -0.00902566 -0.00889943 -0.0087517 -0.00858248 -0.00839176 -0.00818092 -0.00795133 -0.00770299 -0.0074359 -0.00715261 -0.00685568 -0.0065451 -0.00622088 -0.00588642 -0.00554513 -0.00519702 -0.00484207 -0.00448433 -0.0041278 -0.0037725 -0.00341843 -0.00307013 -0.00273215 -0.0024045 -0.00208717 -0.00178503 -0.00150295 -0.00124093 -0.000998963 -0.000779295 -0.000584169 -0.000413585 -0.000267543 -0.000150493 -6.68857e-05 -1.67214e-05 0 0 -2.14734e-05 -8.58937e-05 -0.000193261 -0.000343575 -0.000530358 -0.000747132 -0.000993897 -0.00127065 -0.00157436 -0.00190197 -0.0022535 -0.00262893 -0.00302207 -0.00342672 -0.00384288 -0.00427054 -0.00470396 -0.00513737 -0.00557078 -0.00600418 -0.00643254 -0.00685081 -0.007259 -0.00765709 -0.00804091 -0.00840627 -0.00875318 -0.00908162 -0.00938858 -0.00967102 -0.00992894 -0.0101624 -0.0103698 -0.0105497 -0.0107022 -0.0108272 -0.0109252 -0.0109965 -0.0110411 -0.011059 -0.0110526 -0.0110243 -0.0109739 -0.0109015 -0.0108112 -0.0107068 -0.0105885 -0.0104562 -0.0103148 -0.0101694 -0.0100199 -0.00986644 -0.00971394 -0.00956745 -0.00942698 -0.00929253 -0.00916815 -0.00905791 -0.00896182 -0.00887986 -0.00881429 -0.00876735 -0.00873905 -0.00872937 -0.00873827 -0.0087657 -0.00881166 -0.00887615 -0.00895684 -0.00905139 -0.0091598 -0.00928208 -0.00941411 -0.00955179 -0.00969511 -0.00984408 -0.00999367 -0.0101389 -0.0102797 -0.0104161 -0.0105432 -0.010656 -0.0107546 -0.0108391 -0.0109053 -0.0109496 -0.0109719 -0.0109722 -0.0109482 -0.0108978 -0.010821 -0.0107177 -0.0105878 -0.0104308 -0.0102469 -0.0100359 -0.00979954 -0.00953931 -0.00925522 -0.00894727 -0.00861852 -0.00827206 -0.00790786 -0.00752595 -0.00713047 -0.0067256 -0.00631133 -0.00588766 -0.00545956 -0.00503196 -0.00460487 -0.0041783 -0.00375783 -0.00334908 -0.00295202 -0.00256668 -0.00219903 -0.00185505 -0.00153474 -0.00123811 -0.000968029 -0.00072736 -0.000516105 -0.000334265 -0.000188024 -8.35663e-05 -2.08916e-05 0 0 -2.61129e-05 -0.000104451 -0.000235016 -0.000417806 -0.000644235 -0.000905719 -0.00120226 -0.00153385 -0.00189666 -0.00228688 -0.0027045 -0.00314951 -0.00361444 -0.00409182 -0.00458165 -0.00508391 -0.0055917 -0.00609807 -0.00660305 -0.00710661 -0.00760271 -0.00808529 -0.00855433 -0.00900985 -0.00944686 -0.00986036 -0.0102504 -0.0106169 -0.0109563 -0.0112652 -0.0115435 -0.0117913 -0.0120068 -0.0121886 -0.0123367 -0.0124509 -0.0125321 -0.012581 -0.0125975 -0.0125817 -0.0125366 -0.0124654 -0.012368 -0.0122445 -0.0120999 -0.0119394 -0.0117629 -0.0115705 -0.0113685 -0.011163 -0.0109541 -0.0107419 -0.0105325 -0.0103324 -0.0101414 -0.00995967 -0.00979217 -0.00964401 -0.00951519 -0.00940569 -0.00931832 -0.00925586 -0.00921833 -0.00920572 -0.00921797 -0.009255 -0.00931683 -0.00940345 -0.00951195 -0.00963944 -0.00978591 -0.00995136 -0.0101307 -0.0103187 -0.0105154 -0.0107209 -0.0109288 -0.0111329 -0.0113331 -0.0115295 -0.0117158 -0.0118858 -0.0120396 -0.0121772 -0.0122935 -0.0123836 -0.0124475 -0.0124852 -0.0124937 -0.0124702 -0.0124145 -0.0123268 -0.0122065 -0.0120529 -0.0118661 -0.011646 -0.0113945 -0.0111131 -0.010802 -0.0104611 -0.0100939 -0.00970413 -0.00929172 -0.00885669 -0.00840399 -0.00793861 -0.00746053 -0.00696976 -0.00647225 -0.00597396 -0.00547489 -0.00497504 -0.00448115 -0.00399996 -0.00353147 -0.00307568 -0.00263981 -0.00223108 -0.00184949 -0.00149505 -0.00117137 -0.000882075 -0.000627169 -0.00040665 -0.000228741 -0.000101663 -2.54156e-05 0 0 -3.11124e-05 -0.00012445 -0.000280012 -0.000497799 -0.000766806 -0.00107603 -0.00142547 -0.00181512 -0.00224025 -0.00269611 -0.0031827 -0.00370002 -0.0042392 -0.00479136 -0.0053565 -0.00593462 -0.00651754 -0.00709705 -0.00767317 -0.00824588 -0.00880805 -0.0093525 -0.00987926 -0.0103883 -0.0108738 -0.0113299 -0.0117567 -0.0121541 -0.012518 -0.0128445 -0.0131335 -0.0133851 -0.0135975 -0.0137691 -0.0139 -0.01399 -0.0140403 -0.0140521 -0.0140254 -0.0139601 -0.0138603 -0.01373 -0.0135691 -0.0133777 -0.0131622 -0.012929 -0.012678 -0.0124093 -0.0121307 -0.0118498 -0.0115668 -0.0112816 -0.011002 -0.0107357 -0.0104827 -0.010243 -0.0100228 -0.00982832 -0.00965961 -0.00951663 -0.00940281 -0.00932155 -0.00927287 -0.00925676 -0.00927315 -0.00932194 -0.00940315 -0.00951677 -0.00965925 -0.00982702 -0.0100201 -0.0102385 -0.0104759 -0.010726 -0.0109888 -0.0112643 -0.0115448 -0.0118226 -0.0120976 -0.0123698 -0.0126315 -0.0128752 -0.0131007 -0.013308 -0.013491 -0.0136433 -0.013765 -0.0138561 -0.0139127 -0.013931 -0.0139111 -0.0138529 -0.0137555 -0.0136179 -0.0134401 -0.0132221 -0.0129658 -0.0126728 -0.0123433 -0.0119773 -0.0115788 -0.0111519 -0.0106967 -0.0102131 -0.00970699 -0.00918416 -0.00864462 -0.00808835 -0.0075224 -0.00695379 -0.00638254 -0.00580864 -0.00524006 -0.00468479 -0.00414283 -0.00361416 -0.00310738 -0.00263105 -0.00218518 -0.00176977 -0.00138931 -0.00104831 -0.000746776 -0.000484698 -0.000272642 -0.000121174 -3.02936e-05 0 0 -3.64721e-05 -0.000145888 -0.000328249 -0.000583553 -0.000898068 -0.00125806 -0.00166353 -0.00211447 -0.00260511 -0.00312966 -0.00368811 -0.00428047 -0.00489634 -0.00552533 -0.00616744 -0.00682267 -0.00748148 -0.0081343 -0.00878113 -0.00942199 -0.0100485 -0.0106525 -0.0112338 -0.0117924 -0.0123218 -0.012815 -0.0132722 -0.0136932 -0.0140737 -0.0144089 -0.014699 -0.0149439 -0.0151419 -0.0152913 -0.0153921 -0.0154444 -0.0154498 -0.0154099 -0.0153247 -0.0151943 -0.0150237 -0.014818 -0.0145772 -0.0143013 -0.0139981 -0.0136756 -0.0133337 -0.0129725 -0.0126014 -0.0122299 -0.011858 -0.0114857 -0.0111223 -0.0107773 -0.0104507 -0.0101424 -0.00985994 -0.00961084 -0.0093951 -0.0092127 -0.00906777 -0.00896442 -0.00890267 -0.0088825 -0.00890381 -0.00896652 -0.00907063 -0.00921612 -0.00939872 -0.00961414 -0.00986237 -0.0101434 -0.0104497 -0.0107736 -0.0111151 -0.0114742 -0.0118416 -0.0122079 -0.012573 -0.012937 -0.0132905 -0.0136241 -0.0139378 -0.0142316 -0.0144979 -0.0147288 -0.0149245 -0.0150849 -0.0152052 -0.0152804 -0.0153107 -0.015296 -0.0152349 -0.0151259 -0.014969 -0.0147642 -0.0145134 -0.0142184 -0.0138792 -0.0134959 -0.0130731 -0.0126153 -0.0121227 -0.0115952 -0.0110395 -0.0104623 -0.00986359 -0.00924344 -0.00861001 -0.00797147 -0.00732784 -0.00667911 -0.00603459 -0.00540359 -0.0047861 -0.00418213 -0.00360174 -0.00305496 -0.0025418 -0.00206227 -0.00162186 -0.00122608 -0.000874927 -0.000568408 -0.000319729 -0.000142102 -3.55255e-05 0 0 -4.20837e-05 -0.000168335 -0.000378753 -0.000673339 -0.00103537 -0.00144813 -0.00191161 -0.00242581 -0.00298377 -0.00357853 -0.00421007 -0.0048784 -0.00557148 -0.00627726 -0.00699576 -0.00772697 -0.00845987 -0.00918347 -0.00989775 -0.0106027 -0.0112888 -0.0119465 -0.0125757 -0.0131765 -0.0137412 -0.0142621 -0.0147393 -0.0151728 -0.0155574 -0.0158882 -0.0161652 -0.0163883 -0.0165559 -0.0166663 -0.0167197 -0.0167159 -0.0166572 -0.0165461 -0.0163825 -0.0161664 -0.0159041 -0.015602 -0.01526 -0.0148781 -0.0144659 -0.0140331 -0.0135796 -0.0131054 -0.0126219 -0.0121405 -0.0116613 -0.0111842 -0.0107204 -0.0102812 -0.00986656 -0.00947651 -0.00911999 -0.00880593 -0.00853434 -0.00830522 -0.00812347 -0.007994 -0.00791681 -0.00789189 -0.00791914 -0.00799844 -0.00812978 -0.00831316 -0.00854348 -0.00881562 -0.00912958 -0.00948537 -0.00987392 -0.0102862 -0.0107221 -0.0111817 -0.0116538 -0.0121271 -0.0126016 -0.0130774 -0.0135431 -0.0139874 -0.0144104 -0.0148121 -0.015183 -0.0155137 -0.0158044 -0.0160549 -0.0162593 -0.0164114 -0.0165113 -0.016559 -0.0165523 -0.0164892 -0.0163698 -0.016194 -0.0159636 -0.0156806 -0.0153448 -0.0149564 -0.0145204 -0.014042 -0.0135212 -0.012958 -0.01236 -0.011735 -0.0110828 -0.0104035 -0.00970649 -0.00900121 -0.00828766 -0.00756582 -0.00684644 -0.00614025 -0.00544725 -0.00476745 -0.00411249 -0.00349403 -0.00291207 -0.00236661 -0.0018643 -0.00141178 -0.00100904 -0.000656097 -0.000369055 -0.000164024 -4.10061e-05 0 0 -4.78391e-05 -0.000191356 -0.000430552 -0.000765425 -0.00117606 -0.00164254 -0.00216487 -0.00274304 -0.00336876 -0.00403372 -0.00473792 -0.00548136 -0.00625022 -0.00703068 -0.00782274 -0.0086264 -0.00942909 -0.0102182 -0.0109938 -0.0117559 -0.0124935 -0.0131959 -0.0138629 -0.0144947 -0.0150826 -0.0156179 -0.0161007 -0.0165311 -0.0169033 -0.0172121 -0.0174573 -0.0176389 -0.0177555 -0.0178056 -0.017789 -0.017706 -0.0175595 -0.0173527 -0.0170857 -0.0167584 -0.0163786 -0.0159541 -0.0154849 -0.014971 -0.0144239 -0.0138553 -0.013265 -0.0126531 -0.0120333 -0.011419 -0.0108103 -0.0102072 -0.00962303 -0.00907108 -0.00855137 -0.00806389 -0.00761922 -0.00722794 -0.00689003 -0.00660552 -0.00638017 -0.0062198 -0.00612438 -0.00609393 -0.00612831 -0.00622737 -0.00639111 -0.00661953 -0.00690661 -0.0072463 -0.0076386 -0.00808352 -0.00857032 -0.0090883 -0.00963744 -0.0102177 -0.0108159 -0.0114185 -0.0120257 -0.0126373 -0.01324 -0.0138203 -0.0143781 -0.0149135 -0.0154151 -0.0158716 -0.0162831 -0.0166495 -0.0169633 -0.0172171 -0.0174109 -0.0175446 -0.0176154 -0.0176204 -0.0175598 -0.0174333 -0.0172429 -0.0169902 -0.0166752 -0.016298 -0.0158641 -0.0153793 -0.0148434 -0.0142566 -0.0136273 -0.0129643 -0.0122675 -0.0115369 -0.0107833 -0.0100172 -0.00923887 -0.00844814 -0.00765733 -0.00687869 -0.00611224 -0.00535796 -0.00462925 -0.00393951 -0.00328871 -0.00267688 -0.00211194 -0.00160182 -0.00114654 -0.000746082 -0.000419671 -0.00018652 -4.66301e-05 0 0 -5.37382e-05 -0.000214953 -0.000483644 -0.000859811 -0.00132014 -0.0018413 -0.00242331 -0.00306616 -0.00376006 -0.00449523 -0.00527166 -0.00608936 -0.00693258 -0.00778559 -0.00864839 -0.00952098 -0.0103891 -0.0112386 -0.0120694 -0.0128815 -0.0136626 -0.0144006 -0.0150954 -0.015747 -0.0163459 -0.0168823 -0.0173564 -0.0177681 -0.0181115 -0.0183806 -0.0185754 -0.0186959 -0.0187408 -0.018709 -0.0186003 -0.0184148 -0.0181565 -0.0178297 -0.0174343 -0.0169704 -0.0164473 -0.0158745 -0.0152521 -0.0145801 -0.0138722 -0.0131422 -0.01239 -0.0116158 -0.0108355 -0.0100653 -0.00930501 -0.0085548 -0.00783025 -0.00714702 -0.00650511 -0.00590452 -0.00535764 -0.00487686 -0.00446218 -0.0041136 -0.00383789 -0.00364182 -0.0035254 -0.00348861 -0.00353131 -0.00365331 -0.00385462 -0.00413525 -0.00448812 -0.00490617 -0.00538941 -0.00593784 -0.00653888 -0.00717997 -0.00786111 -0.0085823 -0.00932787 -0.0100821 -0.0108451 -0.0116168 -0.0123813 -0.0131226 -0.0138408 -0.0145358 -0.0151942 -0.0158025 -0.0163606 -0.0168686 -0.0173172 -0.0176975 -0.0180094 -0.0182529 -0.0184242 -0.0185195 -0.0185389 -0.0184823 -0.0183512 -0.0181473 -0.0178705 -0.0175208 -0.0171044 -0.0166272 -0.0160894 -0.0154909 -0.0148414 -0.0141503 -0.0134178 -0.0126437 -0.0118403 -0.0110195 -0.0101815 -0.00932607 -0.00846725 -0.00761892 -0.00678105 -0.00595367 -0.00515202 -0.00439137 -0.00367172 -0.00299305 -0.00236476 -0.00179622 -0.00128742 -0.000838362 -0.000471579 -0.000209591 -5.23976e-05 0 0 -5.97811e-05 -0.000239124 -0.00053803 -0.000956497 -0.0014676 -0.00204441 -0.00268693 -0.00339517 -0.00415768 -0.00496306 -0.00581129 -0.00670239 -0.00761855 -0.00854199 -0.0094727 -0.0104107 -0.01134 -0.0122445 -0.0131244 -0.0139795 -0.0147962 -0.0155607 -0.0162732 -0.0169335 -0.0175311 -0.0180554 -0.0185063 -0.0188839 -0.0191818 -0.0193936 -0.0195194 -0.0195591 -0.0195118 -0.0193765 -0.0191533 -0.0188422 -0.0184484 -0.0179771 -0.0174284 -0.0168023 -0.0161101 -0.0153632 -0.0145616 -0.0137053 -0.0128106 -0.0118937 -0.0109546 -0.00999334 -0.00902865 -0.00807936 -0.00714546 -0.00622695 -0.00534205 -0.004509 -0.00372778 -0.0029984 -0.00233525 -0.00175271 -0.00125078 -0.000829465 -0.000496613 -0.000260074 -0.000119849 -7.59362e-05 -0.000128142 -0.000276271 -0.000520323 -0.000860299 -0.001288 -0.00179525 -0.00238203 -0.00304835 -0.00377961 -0.0045612 -0.00539313 -0.0062754 -0.00718975 -0.00811793 -0.00905994 -0.0100158 -0.0109668 -0.0118944 -0.0127985 -0.0136791 -0.0145204 -0.0153063 -0.0160369 -0.0167121 -0.017321 -0.0178526 -0.0183069 -0.0186839 -0.0189787 -0.0191864 -0.0193071 -0.0193407 -0.0192886 -0.0191519 -0.0189306 -0.0186249 -0.0182411 -0.0177859 -0.0172592 -0.0166611 -0.0160021 -0.015293 -0.0145336 -0.0137239 -0.0128776 -0.0120081 -0.0111155 -0.0101996 -0.00927622 -0.00836092 -0.0074537 -0.00655458 -0.0056808 -0.00484964 -0.00406108 -0.00331514 -0.00262278 -0.00199496 -0.00143168 -0.000932938 -0.000524777 -0.000233234 -5.83086e-05 0 0 -6.58679e-05 -0.000263472 -0.000592811 -0.00105389 -0.001616 -0.00224847 -0.00295128 -0.00372444 -0.00455474 -0.00542896 -0.00634711 -0.00730918 -0.00829519 -0.00928518 -0.0102791 -0.011277 -0.012261 -0.0132133 -0.0141338 -0.0150225 -0.0158642 -0.0166437 -0.0173609 -0.018016 -0.0185972 -0.0190929 -0.0195031 -0.0198279 -0.0200604 -0.0201939 -0.0202285 -0.020164 -0.0200001 -0.0197363 -0.0193724 -0.0189085 -0.0183513 -0.0177072 -0.0169763 -0.0161585 -0.0152675 -0.0143166 -0.013306 -0.0122355 -0.0111243 -0.00999133 -0.00883657 -0.00766004 -0.00648356 -0.00532896 -0.00419622 -0.00308535 -0.00201741 -0.00101347 -7.35229e-05 0.000802428 0.0015978 0.002296 0.00289703 0.00340089 0.00379855 0.00408097 0.00424814 0.00430008 0.004237 0.00405914 0.00376648 0.00335904 0.00284625 0.00223755 0.00153293 0.000732396 -0.000147214 -0.00108906 -0.00209315 -0.00315947 -0.00426692 -0.00539439 -0.00654188 -0.00770939 -0.00887526 -0.0100179 -0.0111372 -0.0122332 -0.0132873 -0.0142807 -0.0152135 -0.0160857 -0.0168841 -0.0175958 -0.0182207 -0.0187588 -0.0192039 -0.01955 -0.0197971 -0.0199451 -0.0199949 -0.0199473 -0.0198025 -0.0195603 -0.0192277 -0.0188117 -0.0183124 -0.0177295 -0.017075 -0.0163603 -0.0155855 -0.0147506 -0.0138707 -0.0129607 -0.0120207 -0.0110506 -0.010068 -0.00909033 -0.00811754 -0.00714966 -0.00620609 -0.00530623 -0.00445009 -0.00363766 -0.00288164 -0.00219473 -0.00157693 -0.00102825 -0.000578391 -0.000257063 -6.42656e-05 0 0 -7.18989e-05 -0.000287595 -0.00064709 -0.00115038 -0.0017629 -0.00245007 -0.00321189 -0.00404836 -0.00494435 -0.00588469 -0.0068694 -0.00789846 -0.00894959 -0.0100005 -0.0110511 -0.0121015 -0.0131318 -0.0141221 -0.0150725 -0.015983 -0.0168367 -0.0176168 -0.0183234 -0.0189564 -0.0195031 -0.0199508 -0.0202996 -0.0205495 -0.0206933 -0.020724 -0.0206416 -0.0204461 -0.0201376 -0.019716 -0.0191815 -0.018534 -0.0177816 -0.0169324 -0.0159864 -0.0149436 -0.01382 -0.0126314 -0.0113779 -0.0100595 -0.00869828 -0.0073163 -0.00591359 -0.00449014 -0.00307113 -0.00168171 -0.000321907 0.0010083 0.0022847 0.00348311 0.00460352 0.00564592 0.00659133 0.00742072 0.0081341 0.00873147 0.00920249 0.00953682 0.00973446 0.00979541 0.00971994 0.00950829 0.00916049 0.00867651 0.00806718 0.00734329 0.00650484 0.00555183 0.00450357 0.00337935 0.00217919 0.000903065 -0.000424749 -0.00178 -0.00316268 -0.00457279 -0.00598535 -0.00737537 -0.00874284 -0.0100878 -0.0113884 -0.0126231 -0.0137918 -0.0148946 -0.0159159 -0.0168404 -0.017668 -0.0183987 -0.019025 -0.0195393 -0.0199415 -0.0202316 -0.02041 -0.0204771 -0.0204329 -0.0202773 -0.0200178 -0.0196615 -0.0192085 -0.0186589 -0.0180252 -0.0173203 -0.0165442 -0.0156969 -0.0147949 -0.013855 -0.012877 -0.011861 -0.0108265 -0.00979276 -0.00875991 -0.0077279 -0.00671841 -0.00575311 -0.00483201 -0.0039551 -0.00313697 -0.0023922 -0.00172079 -0.00112274 -0.000631542 -0.000280685 -7.01713e-05 0 0 -7.7874e-05 -0.000311496 -0.000700866 -0.00124598 -0.00190829 -0.00264921 -0.00346876 -0.00436693 -0.0053265 -0.00633024 -0.00737816 -0.00847024 -0.00958173 -0.0106879 -0.0117886 -0.012884 -0.0139522 -0.014971 -0.0159407 -0.0168611 -0.0177138 -0.0184802 -0.0191605 -0.0197546 -0.0202487 -0.0206291 -0.0208958 -0.0210487 -0.0210805 -0.0209839 -0.0207588 -0.0204053 -0.0199241 -0.0193159 -0.0185807 -0.0177186 -0.0167393 -0.0156527 -0.0144588 -0.0131575 -0.0117676 -0.0103076 -0.00877746 -0.00717728 -0.00553252 -0.00386865 -0.0021857 -0.000483641 0.00120866 0.00286237 0.00447748 0.006054 0.00756429 0.00898073 0.0103033 0.0115321 0.0126453 0.0136215 0.0144604 0.0151623 0.0157152 0.0161075 0.0163391 0.0164101 0.0163207 0.0160712 0.0156617 0.0150921 0.0143748 0.013522 0.0125337 0.01141 0.0101727 0.00884405 0.00742387 0.00591221 0.00433677 0.00272526 0.00107768 -0.000605976 -0.00229705 -0.00396689 -0.00561549 -0.00724287 -0.00882394 -0.0103336 -0.011772 -0.0131389 -0.0144164 -0.0155864 -0.0166489 -0.0176038 -0.018442 -0.0191541 -0.0197402 -0.0202003 -0.0205341 -0.0207413 -0.0208219 -0.020776 -0.0206112 -0.0203351 -0.0199477 -0.019449 -0.0188529 -0.0181731 -0.0174097 -0.0165627 -0.0156503 -0.0146909 -0.0136843 -0.0126307 -0.0115515 -0.0104682 -0.00938081 -0.00828929 -0.00721775 -0.00619026 -0.00520684 -0.00426748 -0.00338879 -0.00258738 -0.00186326 -0.00121641 -0.00068423 -0.000304102 -7.60256e-05 0 0 -8.37932e-05 -0.000335173 -0.000754139 -0.00134069 -0.00205217 -0.0028459 -0.0037219 -0.00468015 -0.00570121 -0.00676563 -0.00787339 -0.00902451 -0.0101916 -0.0113474 -0.0124917 -0.0136247 -0.0147222 -0.01576 -0.0167382 -0.0176567 -0.0184953 -0.0192339 -0.0198724 -0.0204107 -0.0208341 -0.0211277 -0.0212915 -0.0213255 -0.021222 -0.0209735 -0.02058 -0.0200416 -0.0193596 -0.0185358 -0.01757 -0.0164623 -0.0152244 -0.0138681 -0.0123934 -0.0108003 -0.00911028 -0.00734504 -0.00550456 -0.00358881 -0.00162702 0.000351626 0.00234712 0.00435946 0.0063558 0.0083033 0.0102019 0.0120517 0.0138213 0.0154794 0.0170259 0.0184609 0.0197599 0.0208982 0.0218761 0.0226933 0.0233367 0.023793 0.0240621 0.024144 0.0240392 0.0237479 0.0232701 0.0226058 0.021769 0.0207736 0.0196195 0.0183068 0.0168603 0.015305 0.0136409 0.011868 0.0100176 0.00812137 0.00617918 0.00419106 0.00218965 0.000207586 -0.00175513 -0.00369849 -0.00559376 -0.00741221 -0.00915382 -0.0108186 -0.0123856 -0.0138338 -0.0151633 -0.016374 -0.0174548 -0.0183946 -0.0191934 -0.0198512 -0.0203