<?xml version="1.0"?> 
<VTKFile type="StructuredGrid" version="0.1"> 
<StructuredGrid WholeExtent="0 128 0 128 0 0"> 
<Piece Extent="0 128 0 128 0 0"> 
<PointData>
<DataArray type="Float32" Name="u" format="ascii" NumberOfComponents="1"> 
0 0 0 0 0 0 0 0 0 0 0 0 0 0 0 0 0 0 0 0 0 0 0 0 0 0 0 0 0 0 0 0 0 0 0 0 0 0 0 0 0 0 0 0 0 0 0 0 0 0 0 0 0 0 0 0 0 0 0 0 0 0 0 0 0 0 0 0 0 0 0 0 0 0 0 0 0 0 0 0 0 0 0 0 0 0 0 0 0 0 0 0 0 0 0 0 0 0 0 0 0 0 0 0 0 0 0 0 0 0 0 0 0 0 0 0 0 0 0 0 0 0 0 0 0 0 0 0 0 0 -1.92978e-07 -7.71913e-07 -1.7368e-06 -3.08765e-06 -4.84105e-06 -7.01359e-06 -9.60526e-06 -1.26161e-05 -1.60454e-05 -1.98926e-05 -2.41577e-05 -2.88407e-05 -3.38889e-05 -3.92496e-05 -4.49229e-05 -5.09088e-05 -5.71478e-05 -6.35805e-05 -7.02069e-05 -7.7027e-05 -8.39795e-05 -9.10033e-05 -9.80985e-05 -0.000105265 -0.000112441 -0.000119566 -0.000126639 -0.000133661 -0.000140574 -0.000147321 -0.000153903 -0.000160319 -0.000166524 -0.000172472 -0.000178164 -0.000183598 -0.00018875 -0.00019359 -0.00019812 -0.00020234 -0.000206245 -0.000209831 -0.000213098 -0.000216046 -0.000218694 -0.00022106 -0.000223142 -0.000224943 -0.000226495 -0.000227834 -0.00022896 -0.000229873 -0.000230613 -0.000231223 -0.000231701 -0.000232048 -0.000232299 -0.000232491 -0.000232624 -0.000232698 -0.000232733 -0.00023275 -0.000232748 -0.000232729 -0.000232692 -0.000232636 -0.000232562 -0.000232469 -0.000232336 -0.000232143 -0.000231889 -0.000231573 -0.000231161 -0.000230616 -0.000229938 -0.000229127 -0.000228143 -0.000226944 -0.000225531 -0.000223904 -0.000222029 -0.000219873 -0.000217435 -0.000214715 -0.000211696 -0.000208362 -0.000204712 -0.000200746 -0.00019647 -0.000191888 -0.000187002 -0.00018181 -0.000176341 -0.000170622 -0.000164654 -0.000158436 -0.000152015 -0.000145437 -0.000138701 -0.000131807 -0.000124813 -0.000117775 -0.000110694 -0.000103569 -9.64614e-05 -8.94313e-05 -8.2479e-05 -7.56044e-05 -6.88674e-05 -6.23279e-05 -5.59859e-05 -4.98414e-05 -4.39518e-05 -3.83748e-05 -3.31102e-05 -2.81582e-05 -2.35689e-05 -1.93928e-05 -1.56297e-05 -1.22797e-05 -9.34188e-06 -6.8154e-06 -4.70023e-06 -2.99638e-06 -1.68547e-06 -7.49096e-07 -1.87274e-07 0 0 -7.71913e-07 -3.08765e-06 -6.94722e-06 -1.23506e-05 -1.93642e-05 -2.80543e-05 -3.84211e-05 -5.04643e-05 -6.41816e-05 -7.95705e-05 -9.66308e-05 -0.000115363 -0.000135555 -0.000156998 -0.000179692 -0.000203635 -0.000228591 -0.000254322 -0.000280828 -0.000308108 -0.000335918 -0.000364013 -0.000392394 -0.000421059 -0.000449764 -0.000478263 -0.000506556 -0.000534642 -0.000562294 -0.000589284 -0.000615611 -0.000641275 -0.000666095 -0.000689888 -0.000712654 -0.000734394 -0.000754999 -0.000774361 -0.000792482 -0.00080936 -0.000824979 -0.000839323 -0.000852392 -0.000864186 -0.000874777 -0.000884238 -0.000892569 -0.000899771 -0.000905981 -0.000911338 -0.000915842 -0.000919492 -0.000922454 -0.000924891 -0.000926803 -0.00092819 -0.000929197 -0.000929966 -0.000930497 -0.000930791 -0.00093093 -0.000930998 -0.000930994 -0.000930918 -0.000930769 -0.000930546 -0.000930248 -0.000929876 -0.000929346 -0.000928572 -0.000927554 -0.000926293 -0.000924644 -0.000922464 -0.000919752 -0.000916509 -0.000912571 -0.000907777 -0.000902126 -0.000895618 -0.000888118 -0.000879492 -0.000869739 -0.000858859 -0.000846785 -0.000833447 -0.000818847 -0.000802984 -0.000785879 -0.000767553 -0.000748006 -0.000727239 -0.000705362 -0.000682487 -0.000658615 -0.000633745 -0.00060806 -0.000581746 -0.000554802 -0.000527228 -0.000499252 -0.000471101 -0.000442776 -0.000414277 -0.000385846 -0.000357725 -0.000329916 -0.000302418 -0.00027547 -0.000249312 -0.000223944 -0.000199366 -0.000175807 -0.000153499 -0.000132441 -0.000112633 -9.42757e-05 -7.7571e-05 -6.25187e-05 -4.91187e-05 -3.73675e-05 -2.72616e-05 -1.88009e-05 -1.19855e-05 -6.74186e-06 -2.99638e-06 -7.49096e-07 0 0 -1.7368e-06 -6.94722e-06 -1.56312e-05 -2.77889e-05 -4.35695e-05 -6.31223e-05 -8.64474e-05 -0.000113545 -0.000144409 -0.000179034 -0.000217419 -0.000259566 -0.000305 -0.000353246 -0.000404306 -0.000458179 -0.00051433 -0.000572224 -0.000631862 -0.000693243 -0.000755816 -0.00081903 -0.000882886 -0.000947384 -0.00101197 -0.00107609 -0.00113975 -0.00120294 -0.00126516 -0.00132589 -0.00138512 -0.00144287 -0.00149871 -0.00155225 -0.00160347 -0.00165239 -0.00169875 -0.00174231 -0.00178308 -0.00182106 -0.0018562 -0.00188848 -0.00191788 -0.00194442 -0.00196825 -0.00198954 -0.00200828 -0.00202448 -0.00203846 -0.00205051 -0.00206064 -0.00206886 -0.00207552 -0.002081 -0.00208531 -0.00208843 -0.00209069 -0.00209242 -0.00209362 -0.00209428 -0.00209459 -0.00209475 -0.00209474 -0.00209457 -0.00209423 -0.00209373 -0.00209306 -0.00209222 -0.00209103 -0.00208929 -0.002087 -0.00208416 -0.00208045 -0.00207554 -0.00206944 -0.00206214 -0.00205328 -0.0020425 -0.00202978 -0.00201514 -0.00199827 -0.00197886 -0.00195691 -0.00193243 -0.00190527 -0.00187526 -0.00184241 -0.00180671 -0.00176823 -0.00172699 -0.00168301 -0.00163629 -0.00158706 -0.0015356 -0.00148188 -0.00142593 -0.00136814 -0.00130893 -0.0012483 -0.00118626 -0.00112332 -0.00105998 -0.000996247 -0.000932123 -0.000868153 -0.000804882 -0.000742311 -0.00068044 -0.000619807 -0.000560952 -0.000503873 -0.000448572 -0.000395566 -0.000345373 -0.000297992 -0.000253424 -0.00021212 -0.000174535 -0.000140667 -0.000110517 -8.40769e-05 -6.13386e-05 -4.23021e-05 -2.69675e-05 -1.51692e-05 -6.74186e-06 -1.68547e-06 0 0 -3.08765e-06 -1.23506e-05 -2.77889e-05 -4.94025e-05 -7.74568e-05 -0.000112217 -0.000153684 -0.000201857 -0.000256727 -0.000318282 -0.000386523 -0.000461451 -0.000542222 -0.000627994 -0.000718767 -0.000814541 -0.000914365 -0.00101729 -0.00112331 -0.00123243 -0.00134367 -0.00145605 -0.00156958 -0.00168424 -0.00179906 -0.00191305 -0.00202622 -0.00213857 -0.00224918 -0.00235713 -0.00246244 -0.0025651 -0.00266438 -0.00275955 -0.00285062 -0.00293758 -0.00302 -0.00309745 -0.00316993 -0.00323744 -0.00329992 -0.00335729 -0.00340957 -0.00345674 -0.00349911 -0.00353695 -0.00357028 -0.00359908 -0.00362392 -0.00364535 -0.00366337 -0.00367797 -0.00368982 -0.00369956 -0.00370721 -0.00371276 -0.00371679 -0.00371986 -0.00372199 -0.00372316 -0.00372372 -0.00372399 -0.00372398 -0.00372367 -0.00372308 -0.00372218 -0.00372099 -0.00371951 -0.00371738 -0.00371429 -0.00371022 -0.00370517 -0.00369858 -0.00368986 -0.00367901 -0.00366603 -0.00365028 -0.00363111 -0.0036085 -0.00358247 -0.00355247 -0.00351797 -0.00347895 -0.00343544 -0.00338714 -0.00333379 -0.00327539 -0.00321193 -0.00314351 -0.00307021 -0.00299202 -0.00290896 -0.00282145 -0.00272995 -0.00263446 -0.00253498 -0.00243224 -0.00232698 -0.00221921 -0.00210891 -0.00199701 -0.00188441 -0.00177111 -0.00165711 -0.00154338 -0.0014309 -0.00131966 -0.00120967 -0.00110188 -0.000997247 -0.000895775 -0.000797462 -0.000703229 -0.000613996 -0.000529764 -0.000450531 -0.000377103 -0.000310284 -0.000250075 -0.000196475 -0.00014947 -0.000109046 -7.52037e-05 -4.79421e-05 -2.69675e-05 -1.19855e-05 -2.99638e-06 0 0 -4.83768e-06 -1.93507e-05 -4.35391e-05 -7.74029e-05 -0.000121208 -0.000175219 -0.000239438 -0.000313863 -0.000398452 -0.00049316 -0.000597988 -0.000712935 -0.000836698 -0.000967972 -0.00110676 -0.00125306 -0.0014054 -0.00156232 -0.00172381 -0.00188988 -0.00205903 -0.00222973 -0.00240199 -0.0025758 -0.00274968 -0.0029221 -0.00309306 -0.00326257 -0.00342924 -0.00359167 -0.00374987 -0.00390384 -0.00405248 -0.00419469 -0.00433047 -0.00445982 -0.00458212 -0.00469673 -0.00480364 -0.00490286 -0.00499434 -0.00507799 -0.00515382 -0.00522184 -0.00528252 -0.00533636 -0.00538336 -0.0054235 -0.0054577 -0.00548682 -0.00551088 -0.00552986 -0.00554483 -0.00555681 -0.0055658 -0.00557181 -0.00557575 -0.00557852 -0.00558011 -0.00558054 -0.00558032 -0.00557998 -0.00557951 -0.00557891 -0.00557818 -0.00557731 -0.0055763 -0.00557515 -0.00557332 -0.00557028 -0.00556603 -0.00556058 -0.005553 -0.0055424 -0.00552877 -0.00551211 -0.00549139 -0.00546558 -0.00543467 -0.00539867 -0.00535671 -0.00530792 -0.0052523 -0.00518985 -0.00512011 -0.00504262 -0.00495739 -0.00486441 -0.00476378 -0.00465559 -0.00453984 -0.00441653 -0.00428631 -0.00414984 -0.00400711 -0.00385814 -0.00370402 -0.00354587 -0.00338368 -0.00321746 -0.00304859 -0.00287847 -0.00270708 -0.00253444 -0.00236203 -0.00219134 -0.00202236 -0.00185511 -0.00169105 -0.00153167 -0.00137695 -0.00122691 -0.00108295 -0.000946514 -0.000817586 -0.000696171 -0.000583514 -0.000480862 -0.000388214 -0.000305571 -0.000232939 -0.000170324 -0.000117725 -7.51446e-05 -4.22688e-05 -1.87861e-05 -4.69654e-06 0 0 -7.00011e-06 -2.80004e-05 -6.3001e-05 -0.000112002 -0.000175004 -0.000252008 -0.000343015 -0.000448024 -0.000566901 -0.000699513 -0.000845858 -0.00100594 -0.0011779 -0.00135991 -0.00155197 -0.00175406 -0.00196413 -0.00218012 -0.00240201 -0.00262981 -0.00286141 -0.00309469 -0.00332964 -0.00356627 -0.00380248 -0.00403617 -0.00426735 -0.00449601 -0.00472025 -0.00493816 -0.00514973 -0.00535496 -0.0055524 -0.00574054 -0.00591941 -0.006089 -0.0062485 -0.00639712 -0.00653485 -0.0066617 -0.00677768 -0.00688278 -0.00697702 -0.00706038 -0.00713366 -0.00719764 -0.00725231 -0.00729768 -0.00733509 -0.00736587 -0.00739003 -0.00740758 -0.00742004 -0.00742897 -0.00743436 -0.00743621 -0.00743585 -0.00743462 -0.00743251 -0.00742952 -0.00742641 -0.00742395 -0.00742214 -0.00742097 -0.00742043 -0.00742052 -0.00742123 -0.00742256 -0.00742373 -0.00742396 -0.00742326 -0.00742162 -0.0074177 -0.00741018 -0.00739905 -0.00738431 -0.00736444 -0.0073379 -0.00730469 -0.00726481 -0.00721696 -0.00715981 -0.00709337 -0.00701764 -0.00693188 -0.00683534 -0.00672802 -0.00660992 -0.00648108 -0.00634153 -0.00619126 -0.00603029 -0.00585944 -0.00567954 -0.00549061 -0.00529263 -0.00508711 -0.00487553 -0.00465789 -0.00443419 -0.00420634 -0.00397625 -0.00374392 -0.00350934 -0.00327459 -0.00304174 -0.0028108 -0.00258176 -0.0023567 -0.00213768 -0.0019247 -0.00171778 -0.0015189 -0.00133007 -0.00115129 -0.000982561 -0.000825646 -0.000682311 -0.000552558 -0.000436385 -0.000333874 -0.000245108 -0.000170087 -0.00010881 -6.12055e-05 -2.72025e-05 -6.80061e-06 0 0 -9.57495e-06 -3.82998e-05 -8.61745e-05 -0.000153199 -0.000238845 -0.000342584 -0.000464415 -0.00060434 -0.000762075 -0.00093734 -0.00113013 -0.00134046 -0.00156584 -0.00180382 -0.00205439 -0.00231756 -0.00259057 -0.00287069 -0.0031579 -0.00345222 -0.00375083 -0.00405094 -0.00435254 -0.00465563 -0.00495746 -0.00525529 -0.0055491 -0.0058389 -0.00612221 -0.00639658 -0.006662 -0.00691847 -0.00716413 -0.00739712 -0.00761744 -0.00782509 -0.00801913 -0.00819862 -0.00836356 -0.00851395 -0.00864994 -0.00877167 -0.00887915 -0.00897238 -0.00905253 -0.00912078 -0.00917714 -0.00922161 -0.00925609 -0.00928251 -0.00930084 -0.00931111 -0.00931546 -0.00931605 -0.00931288 -0.00930594 -0.00929709 -0.00928816 -0.00927916 -0.00927009 -0.00926198 -0.00925591 -0.00925186 -0.00924984 -0.00924983 -0.0092518 -0.00925578 -0.00926174 -0.00926862 -0.00927534 -0.0092819 -0.0092883 -0.00929268 -0.0092932 -0.00928985 -0.00928263 -0.00926942 -0.00924805 -0.00921854 -0.00918088 -0.00913321 -0.00907364 -0.00900218 -0.00891883 -0.00882246 -0.00871193 -0.00858727 -0.00844845 -0.0082954 -0.00812801 -0.00794629 -0.00775024 -0.00754084 -0.00731908 -0.00708495 -0.00683847 -0.00658151 -0.00631597 -0.00604183 -0.0057591 -0.00547026 -0.00517775 -0.0048816 -0.0045818 -0.00428106 -0.00398212 -0.00368498 -0.00338962 -0.00309881 -0.00281528 -0.00253903 -0.00227007 -0.00201107 -0.00176467 -0.00153088 -0.0013097 -0.0011035 -0.000914632 -0.000743105 -0.000588916 -0.000452277 -0.000333401 -0.000232288 -0.000148938 -8.37775e-05 -3.72345e-05 -9.30861e-06 0 0 -1.25622e-05 -5.02487e-05 -0.00011306 -0.000200995 -0.000312731 -0.000446946 -0.000603639 -0.00078281 -0.000983973 -0.00120664 -0.00145081 -0.00171649 -0.00200051 -0.00229969 -0.00261404 -0.00294355 -0.00328472 -0.00363403 -0.00399149 -0.0043571 -0.00472729 -0.00509848 -0.00547068 -0.00584389 -0.00621463 -0.00657943 -0.00693829 -0.00729122 -0.00763513 -0.00796695 -0.0082867 -0.00859436 -0.00888768 -0.00916441 -0.00942456 -0.00966811 -0.00989402 -0.0101012 -0.0102898 -0.0104596 -0.0106111 -0.0107447 -0.0108602 -0.0109578 -0.0110391 -0.0111058 -0.0111579 -0.0111953 -0.0112207 -0.0112367 -0.0112433 -0.0112405 -0.0112311 -0.0112181 -0.0112014 -0.011181 -0.0111595 -0.0111392 -0.0111201 -0.0111022 -0.011087 -0.0110759 -0.0110687 -0.0110655 -0.0110664 -0.0110712 -0.0110799 -0.0110927 -0.011108 -0.0111244 -0.011142 -0.0111606 -0.0111779 -0.0111914 -0.0112012 -0.0112071 -0.0112063 -0.011196 -0.0111762 -0.0111469 -0.0111055 -0.0110494 -0.0109787 -0.0108934 -0.0107918 -0.0106724 -0.0105351 -0.01038 -0.0102067 -0.010015 -0.00980492 -0.00957637 -0.0093305 -0.00906843 -0.00879014 -0.00849565 -0.00818723 -0.00786719 -0.00753551 -0.0071922 -0.00684033 -0.00648298 -0.00612014 -0.00575182 -0.00538145 -0.00501247 -0.00464489 -0.00427869 -0.00391739 -0.00356447 -0.00321994 -0.0028838 -0.00255945 -0.0022503 -0.00195635 -0.00167759 -0.00141707 -0.00117782 -0.000959857 -0.000763165 -0.000588147 -0.000435202 -0.000304329 -0.000195529 -0.000109985 -4.88821e-05 -1.22205e-05 0 0 -1.59503e-05 -6.38013e-05 -0.000143553 -0.000255205 -0.000396352 -0.000564587 -0.000759911 -0.000982322 -0.00123104 -0.00150528 -0.00180503 -0.00213031 -0.00247714 -0.00284153 -0.00322349 -0.00362302 -0.00403575 -0.00445733 -0.00488774 -0.00532699 -0.00577067 -0.00621435 -0.00665804 -0.00710173 -0.00754118 -0.00797212 -0.00839456 -0.0088085 -0.00921023 -0.00959606 -0.00996599 -0.01032 -0.0106555 -0.0109698 -0.011263 -0.011535 -0.0117847 -0.0120111 -0.0122142 -0.0123939 -0.0125509 -0.0126859 -0.012799 -0.01289 -0.0129614 -0.0130155 -0.0130522 -0.0130715 -0.0130769 -0.0130719 -0.0130565 -0.0130306 -0.0129979 -0.0129624 -0.0129239 -0.0128826 -0.0128414 -0.0128037 -0.0127693 -0.0127384 -0.0127127 -0.012694 -0.0126823 -0.0126776 -0.0126798 -0.012689 -0.0127051 -0.0127281 -0.0127563 -0.0127877 -0.0128223 -0.0128602 -0.0128982 -0.012933 -0.0129647 -0.0129933 -0.013015 -0.0130261 -0.0130266 -0.0130165 -0.0129924 -0.0129509 -0.012892 -0.0128157 -0.0127198 -0.012602 -0.0124623 -0.0123008 -0.0121168 -0.0119098 -0.0116797 -0.0114266 -0.0111516 -0.0108559 -0.0105395 -0.0102024 -0.00984724 -0.00947674 -0.00909089 -0.00868969 -0.00827684 -0.00785604 -0.0074273 -0.00699062 -0.00655021 -0.00611028 -0.00567084 -0.00523188 -0.00479774 -0.00437274 -0.00395689 -0.00355018 -0.00315686 -0.00278116 -0.00242308 -0.00208263 -0.00176361 -0.00146984 -0.00120133 -0.00095808 -0.000740757 -0.000550038 -0.000385924 -0.000248415 -0.000139733 -6.21037e-05 -1.55259e-05 0 0 -1.97279e-05 -7.89117e-05 -0.000177551 -0.000315647 -0.000489397 -0.000694999 -0.000932455 -0.00120176 -0.00150172 -0.0018311 -0.00218992 -0.00257817 -0.00299095 -0.00342334 -0.00387535 -0.00434696 -0.00483287 -0.00532775 -0.0058316 -0.00634442 -0.00686087 -0.00737558 -0.00788858 -0.00839984 -0.0089043 -0.00939685 -0.00987751 -0.0103463 -0.0107988 -0.0112307 -0.0116421 -0.0120328 -0.0124001 -0.0127408 -0.013055 -0.0133427 -0.0136029 -0.0138345 -0.0140375 -0.014212 -0.014359 -0.0144797 -0.0145742 -0.0146424 -0.0146875 -0.0147126 -0.0147178 -0.014703 -0.0146727 -0.0146315 -0.0145794 -0.0145163 -0.0144471 -0.0143765 -0.0143047 -0.0142317 -0.0141613 -0.0140978 -0.014041 -0.0139911 -0.0139502 -0.0139206 -0.0139024 -0.0138955 -0.0139 -0.0139156 -0.0139426 -0.0139808 -0.0140279 -0.0140816 -0.0141419 -0.0142088 -0.0142782 -0.014346 -0.0144123 -0.0144771 -0.0145354 -0.0145826 -0.0146186 -0.0146434 -0.0146527 -0.0146418 -0.0146109 -0.01456 -0.014486 -0.0143858 -0.0142595 -0.014107 -0.0139273 -0.0137194 -0.0134832 -0.0132188 -0.0129273 -0.0126098 -0.0122664 -0.0118969 -0.0115045 -0.0110922 -0.01066 -0.0102078 -0.00974004 -0.00926106 -0.00877086 -0.00826942 -0.00776181 -0.00725305 -0.00674315 -0.0062321 -0.00572517 -0.00522758 -0.00473935 -0.00426047 -0.00379611 -0.00335145 -0.00292648 -0.00252121 -0.00214035 -0.00178863 -0.00146605 -0.00117261 -0.000909379 -0.000677439 -0.000476789 -0.000307429 -0.000172929 -7.68573e-05 -1.92143e-05 0 0 -2.38949e-05 -9.55798e-05 -0.000215054 -0.000382319 -0.000591865 -0.000838182 -0.00112127 -0.00144113 -0.001796 -0.00218412 -0.00260548 -0.00306008 -0.00354196 -0.00404513 -0.00456961 -0.00511539 -0.00567608 -0.00624532 -0.00682309 -0.0074094 -0.00799788 -0.00858218 -0.0091623 -0.00973823 -0.010304 -0.0108536 -0.0113871 -0.0119045 -0.0124008 -0.0128709 -0.0133149 -0.0137328 -0.0141214 -0.0144773 -0.0148006 -0.0150913 -0.0153485 -0.0155713 -0.0157598 -0.0159138 -0.0160353 -0.016126 -0.0161858 -0.0162148 -0.0162172 -0.0161972 -0.0161547 -0.0160897 -0.0160081 -0.0159156 -0.0158121 -0.0156977 -0.0155784 -0.0154605 -0.0153437 -0.0152283 -0.0151192 -0.0150215 -0.0149351 -0.0148602 -0.0147994 -0.0147557 -0.014729 -0.0147194 -0.0147268 -0.0147511 -0.0147924 -0.0148507 -0.0149229 -0.0150063 -0.0151008 -0.0152064 -0.015318 -0.0154305 -0.0155439 -0.0156583 -0.0157675 -0.0158654 -0.0159522 -0.0160277 -0.0160862 -0.0161222 -0.0161356 -0.0161264 -0.0160905 -0.0160239 -0.0159266 -0.0157986 -0.0156382 -0.0154438 -0.0152154 -0.014953 -0.0146576 -0.0143301 -0.0139707 -0.0135792 -0.0131591 -0.0127136 -0.0122427 -0.0117465 -0.0112299 -0.010698 -0.0101508 -0.00958823 -0.00901624 -0.00844077 -0.00786181 -0.00727936 -0.00669967 -0.00612899 -0.00556731 -0.00501464 -0.00447719 -0.00396115 -0.00346653 -0.00299334 -0.00254731 -0.0021342 -0.00175402 -0.00140675 -0.00109401 -0.000817403 -0.000576923 -0.000372572 -0.000209572 -9.3143e-05 -2.32858e-05 0 0 -2.84514e-05 -0.000113806 -0.000256062 -0.000455222 -0.000703756 -0.000994136 -0.00132636 -0.00170043 -0.00211391 -0.00256433 -0.0030517 -0.00357603 -0.00413015 -0.0047069 -0.00530627 -0.00592828 -0.00656537 -0.00721001 -0.00786219 -0.00852191 -0.00918171 -0.00983414 -0.0104792 -0.0111169 -0.0117403 -0.0123425 -0.0129235 -0.0134832 -0.0140162 -0.0145166 -0.0149845 -0.01542 -0.0158194 -0.0161794 -0.0164998 -0.0167807 -0.0170215 -0.0172216 -0.0173809 -0.0174995 -0.0175799 -0.0176247 -0.0176339 -0.0176074 -0.0175507 -0.0174692 -0.0173629 -0.0172318 -0.0170831 -0.016924 -0.0167545 -0.0165747 -0.016392 -0.0162141 -0.016041 -0.0158725 -0.0157151 -0.0155748 -0.0154516 -0.0153457 -0.0152604 -0.0151992 -0.0151621 -0.0151492 -0.0151604 -0.0151955 -0.0152546 -0.0153377 -0.0154413 -0.0155617 -0.0156989 -0.0158529 -0.0160175 -0.0161864 -0.0163595 -0.016537 -0.0167112 -0.0168746 -0.0170273 -0.0171692 -0.0172932 -0.0173921 -0.017466 -0.0175148 -0.0175334 -0.0175163 -0.0174638 -0.0173757 -0.0172496 -0.0170831 -0.0168763 -0.0166292 -0.0163425 -0.0160169 -0.0156525 -0.0152493 -0.0148109 -0.0143408 -0.0138391 -0.0133058 -0.0127465 -0.012167 -0.0115671 -0.010947 -0.0103135 -0.00967344 -0.00902682 -0.00837365 -0.00772125 -0.00707696 -0.00644079 -0.00581272 -0.0052001 -0.00461027 -0.00404324 -0.00349901 -0.00298448 -0.00250655 -0.00206523 -0.00166051 -0.00129466 -0.000969932 -0.000686326 -0.000443843 -0.000249662 -0.000110961 -2.77402e-05 0 0 -3.33264e-05 -0.000133305 -0.000299937 -0.000533222 -0.000823321 -0.0011604 -0.00154445 -0.00197548 -0.0024502 -0.00296534 -0.00352089 -0.00411686 -0.00474475 -0.00539606 -0.00607079 -0.00676894 -0.0074817 -0.00820024 -0.00892456 -0.00965467 -0.0103819 -0.0110977 -0.0118019 -0.0124947 -0.0131681 -0.0138141 -0.0144329 -0.0150243 -0.0155822 -0.0161002 -0.0165782 -0.0170164 -0.017411 -0.0177583 -0.0180583 -0.0183111 -0.0185164 -0.018674 -0.0187839 -0.018846 -0.018864 -0.0188413 -0.018778 -0.0186741 -0.0185363 -0.0183717 -0.01818 -0.0179615 -0.017725 -0.0174794 -0.0172248 -0.0169611 -0.0166976 -0.0164435 -0.0161989 -0.0159637 -0.0157454 -0.0155517 -0.0153826 -0.0152379 -0.0151221 -0.0150392 -0.0149892 -0.0149722 -0.0149881 -0.0150368 -0.0151183 -0.0152326 -0.0153754 -0.0155423 -0.0157332 -0.0159483 -0.0161799 -0.0164203 -0.0166696 -0.0169278 -0.0171855 -0.0174338 -0.0176724 -0.0179014 -0.018112 -0.0182954 -0.0184515 -0.0185804 -0.0186753 -0.0187296 -0.0187432 -0.0187163 -0.0186453 -0.0185271 -0.0183615 -0.0181486 -0.0178888 -0.0175825 -0.0172296 -0.0168303 -0.0163882 -0.0159072 -0.0153873 -0.0148284 -0.014237 -0.0136194 -0.0129755 -0.0123054 -0.0116169 -0.0109179 -0.0102083 -0.00948818 -0.00876603 -0.00805033 -0.0073411 -0.00663832 -0.00595059 -0.00528651 -0.00464607 -0.00402928 -0.00344433 -0.00289944 -0.0023946 -0.00192981 -0.00150813 -0.00113263 -0.000803296 -0.000520139 -0.000292578 -0.000130035 -3.25087e-05 0 0 -3.8449e-05 -0.000153796 -0.000346041 -0.000615184 -0.000948808 -0.0013345 -0.00177225 -0.00226208 -0.00279967 -0.00338076 -0.00400534 -0.0046734 -0.00537496 -0.00610002 -0.00684859 -0.00762065 -0.00840599 -0.0091944 -0.00998587 -0.0107804 -0.0115681 -0.012339 -0.0130932 -0.0138306 -0.0145423 -0.0152194 -0.0158619 -0.0164697 -0.017036 -0.0175539 -0.0180232 -0.0184441 -0.0188128 -0.0191254 -0.019382 -0.0195826 -0.0197276 -0.0198172 -0.0198515 -0.0198304 -0.0197588 -0.0196413 -0.019478 -0.0192688 -0.0190224 -0.0187474 -0.0184437 -0.0181113 -0.0177612 -0.0174044 -0.0170409 -0.0166706 -0.0163047 -0.0159545 -0.0156199 -0.015301 -0.0150068 -0.0147464 -0.0145199 -0.0143272 -0.0141734 -0.0140635 -0.0139976 -0.0139757 -0.0139976 -0.0140633 -0.0141727 -0.0143259 -0.0145176 -0.0147426 -0.0150009 -0.0152926 -0.0156084 -0.015939 -0.0162847 -0.0166452 -0.0170095 -0.0173663 -0.0177158 -0.0180578 -0.0183815 -0.0186762 -0.0189417 -0.0191782 -0.0193772 -0.0195302 -0.0196374 -0.0196987 -0.0197095 -0.0196654 -0.0195664 -0.0194125 -0.0192034 -0.0189392 -0.0186198 -0.0182451 -0.0178192 -0.0173459 -0.0168252 -0.0162572 -0.0156487 -0.0150068 -0.0143316 -0.0136229 -0.0128897 -0.0121408 -0.0113763 -0.0105962 -0.00981012 -0.00902792 -0.00824958 -0.00747509 -0.00671443 -0.00597756 -0.00526448 -0.00457519 -0.00391936 -0.00330664 -0.00273704 -0.00221056 -0.00173123 -0.00130309 -0.00092613 -0.000600358 -0.000337701 -0.000150089 -3.75224e-05 0 0 -4.38192e-05 -0.000175277 -0.000394373 -0.000701108 -0.00108022 -0.00151644 -0.00200978 -0.00256023 -0.00316232 -0.00381059 -0.00450504 -0.00524566 -0.0060208 -0.0068188 -0.00763967 -0.00848341 -0.00933827 -0.0101925 -0.0110461 -0.0118991 -0.0127402 -0.0135581 -0.0143529 -0.0151245 -0.0158629 -0.0165582 -0.0172104 -0.0178194 -0.0183777 -0.0188778 -0.0193196 -0.0197032 -0.0200248 -0.0202807 -0.0204709 -0.0205953 -0.020655 -0.0206512 -0.0205837 -0.0204526 -0.0202642 -0.0200245 -0.0197337 -0.0193916 -0.019009 -0.0185963 -0.0181537 -0.0176812 -0.0171918 -0.0166991 -0.0162029 -0.0157032 -0.0152135 -0.0147471 -0.0143041 -0.0138845 -0.0134991 -0.0131588 -0.0128636 -0.0126134 -0.0124143 -0.0122723 -0.0121875 -0.0121597 -0.0121888 -0.0122749 -0.0124178 -0.0126175 -0.0128679 -0.0131627 -0.013502 -0.0138857 -0.0143028 -0.0147425 -0.0152046 -0.0156893 -0.016183 -0.0166724 -0.0171575 -0.0176383 -0.0181017 -0.0185344 -0.0189366 -0.0193083 -0.0196389 -0.0199182 -0.0201462 -0.0203228 -0.0204421 -0.0204982 -0.0204911 -0.0204208 -0.0202864 -0.0200871 -0.0198229 -0.0194939 -0.0191039 -0.0186569 -0.0181529 -0.0175919 -0.0169815 -0.0163293 -0.0156353 -0.0148995 -0.0141319 -0.0133423 -0.0125309 -0.0116976 -0.0108535 -0.0100097 -0.00916623 -0.00832303 -0.00749161 -0.00668342 -0.00589847 -0.00513675 -0.00440955 -0.00372815 -0.00309256 -0.00250277 -0.00196396 -0.00148132 -0.00105483 -0.000684498 -0.00038503 -0.000171125 -4.27812e-05 0 0 -4.94371e-05 -0.000197749 -0.000444934 -0.000790994 -0.00121755 -0.00170623 -0.00225702 -0.00286994 -0.00353815 -0.00425483 -0.00501999 -0.00583362 -0.00668225 -0.00755239 -0.00844405 -0.00935722 -0.0102785 -0.0111945 -0.0121053 -0.0130107 -0.0138982 -0.014755 -0.0155811 -0.0163764 -0.01713 -0.0178307 -0.0184784 -0.0190733 -0.0196071 -0.0200718 -0.0204673 -0.0207936 -0.0210472 -0.0212243 -0.0213249 -0.021349 -0.0212987 -0.0211759 -0.0209806 -0.0207127 -0.0203803 -0.0199911 -0.0195452 -0.0190425 -0.018496 -0.0179186 -0.0173103 -0.0166711 -0.0160168 -0.0153634 -0.0147107 -0.0140589 -0.0134238 -0.0128213 -0.0122515 -0.0117143 -0.0112225 -0.010789 -0.0104137 -0.0100966 -0.00984491 -0.00966558 -0.00955864 -0.0095241 -0.0095618 -0.00967161 -0.00985353 -0.0101076 -0.0104264 -0.0108027 -0.0112364 -0.0117276 -0.0122634 -0.0128307 -0.0134295 -0.01406 -0.0147061 -0.015352 -0.0159976 -0.016643 -0.0172724 -0.0178701 -0.0184362 -0.0189706 -0.0194606 -0.0198936 -0.0202696 -0.0205887 -0.0208431 -0.0210254 -0.0211355 -0.0211735 -0.0211376 -0.0210261 -0.0208391 -0.0205766 -0.0202424 -0.0198403 -0.0193704 -0.0188327 -0.0182354 -0.0175868 -0.0168867 -0.0161352 -0.0153435 -0.0145224 -0.0136721 -0.0127925 -0.0118962 -0.0109957 -0.010091 -0.00918214 -0.00828213 -0.00740409 -0.00654803 -0.00571395 -0.00491491 -0.00416398 -0.00346115 -0.00280644 -0.00220633 -0.00166731 -0.00118939 -0.000772561 -0.000434566 -0.00019314 -4.82851e-05 0 0 -5.52217e-05 -0.000220887 -0.000496996 -0.000883548 -0.00135882 -0.00190107 -0.00251031 -0.00318654 -0.0039214 -0.00470653 -0.00554194 -0.00642763 -0.00734811 -0.00828792 -0.00924705 -0.0102255 -0.0112081 -0.0121797 -0.0131402 -0.0140897 -0.015014 -0.0158986 -0.0167438 -0.0175494 -0.0183032 -0.018993 -0.0196188 -0.0201806 -0.0206696 -0.0210773 -0.0214035 -0.0216484 -0.0218084 -0.0218802 -0.0218637 -0.021759 -0.0215691 -0.021297 -0.0209429 -0.0205067 -0.0199982 -0.0194274 -0.0187941 -0.0180983 -0.0173558 -0.0165818 -0.0157765 -0.0149399 -0.0140908 -0.0132479 -0.0124112 -0.0115808 -0.0107754 -0.0100137 -0.00929562 -0.00862121 -0.00800547 -0.00746339 -0.00699496 -0.00660018 -0.00628732 -0.00606464 -0.00593214 -0.00588982 -0.0059375 -0.00607503 -0.00630239 -0.0066196 -0.00701808 -0.0074893 -0.00803324 -0.00864992 -0.00932415 -0.0100408 -0.0107998 -0.0116012 -0.0124263 -0.0132564 -0.0140915 -0.0149315 -0.0157578 -0.0165518 -0.0173135 -0.0180429 -0.0187247 -0.0193437 -0.0198999 -0.0203933 -0.0208143 -0.0211536 -0.021411 -0.0215866 -0.0216776 -0.0216814 -0.0215978 -0.021427 -0.0211725 -0.0208381 -0.0204237 -0.0199294 -0.019364 -0.0187362 -0.0180461 -0.0172936 -0.016491 -0.0156505 -0.0147721 -0.0138557 -0.0129155 -0.0119655 -0.0110058 -0.0100362 -0.00907161 -0.00812696 -0.00720219 -0.00629731 -0.00542734 -0.0046073 -0.00383719 -0.00311701 -0.00245473 -0.00185835 -0.00132787 -0.000863281 -0.000485596 -0.00021582 -5.39551e-05 0 0 -6.10922e-05 -0.000244369 -0.00054983 -0.000977475 -0.00150202 -0.00209819 -0.00276597 -0.00350538 -0.00430633 -0.00515875 -0.00606263 -0.00701799 -0.00800717 -0.00901252 -0.010034 -0.0110717 -0.0121085 -0.0131272 -0.0141279 -0.0151105 -0.0160592 -0.0169581 -0.0178071 -0.0186064 -0.0193424 -0.0200017 -0.0205843 -0.0210903 -0.0215104 -0.0218355 -0.0220655 -0.0222004 -0.0222371 -0.0221727 -0.022007 -0.02174 -0.0213763 -0.0209201 -0.0203715 -0.0197305 -0.0190092 -0.0182197 -0.0173619 -0.016436 -0.0154604 -0.0144536 -0.0134156 -0.0123465 -0.0112683 -0.0102032 -0.00915119 -0.00811221 -0.00710813 -0.00616079 -0.0052702 -0.00443636 -0.00367669 -0.00300864 -0.00243221 -0.00194739 -0.00156377 -0.00129094 -0.00112889 -0.00107763 -0.00113696 -0.00130667 -0.00158676 -0.00197724 -0.00246817 -0.00304962 -0.00372159 -0.00448408 -0.00531944 -0.00621003 -0.00715584 -0.00815688 -0.00919129 -0.0102372 -0.0112946 -0.0123635 -0.013422 -0.0144481 -0.0154418 -0.0164032 -0.0173139 -0.0181559 -0.0189291 -0.0196335 -0.0202574 -0.0207892 -0.0212287 -0.021576 -0.0218271 -0.0219779 -0.0220285 -0.0219789 -0.0218324 -0.0215923 -0.0212588 -0.0208318 -0.0203206 -0.0197346 -0.0190738 -0.0183382 -0.0175412 -0.0166961 -0.0158031 -0.0148621 -0.0138887 -0.0128987 -0.0118921 -0.0108688 -0.00984569 -0.00883939 -0.00784995 -0.00687736 -0.00593877 -0.00505133 -0.00421505 -0.00342991 -0.00270558 -0.00205172 -0.00146832 -0.000955392 -0.000537408 -0.000238848 -5.9712e-05 0 0 -6.70485e-05 -0.000268194 -0.000603436 -0.00107278 -0.00164717 -0.00229758 -0.00302401 -0.00382645 -0.00469293 -0.00561146 -0.00658206 -0.00760472 -0.00865942 -0.00972619 -0.010805 -0.0118959 -0.0129796 -0.014037 -0.0150682 -0.016073 -0.0170339 -0.0179332 -0.0187711 -0.0195473 -0.0202474 -0.0208566 -0.021375 -0.0218026 -0.0221296 -0.0223465 -0.0224531 -0.0224496 -0.0223334 -0.0221017 -0.0217547 -0.0212923 -0.0207205 -0.0200452 -0.0192664 -0.0183842 -0.0174132 -0.016368 -0.0152488 -0.0140555 -0.0128099 -0.0115339 -0.0102276 -0.00889086 -0.00754955 -0.00622947 -0.00493061 -0.00365297 -0.00242187 -0.00126262 -0.000175235 0.000840299 0.00176384 0.00257526 0.00327456 0.00386173 0.00432574 0.00465553 0.0048511 0.00491246 0.00483984 0.00463348 0.00429336 0.0038195 0.00322335 0.00251637 0.00169854 0.000769886 -0.000249223 -0.0013384 -0.00249763 -0.00372693 -0.00500094 -0.00629432 -0.00760705 -0.00893914 -0.010265 -0.0115589 -0.012821 -0.0140513 -0.0152281 -0.0163301 -0.0173572 -0.0183094 -0.0191725 -0.0199323 -0.0205887 -0.0211417 -0.0215859 -0.0219158 -0.0221312 -0.0222323 -0.0222219 -0.0221031 -0.0218757 -0.0215398 -0.0211053 -0.020582 -0.0199699 -0.019269 -0.0184939 -0.0176593 -0.0167652 -0.0158115 -0.0148158 -0.0137953 -0.0127501 -0.0116802 -0.0106044 -0.0095414 -0.00849131 -0.00745409 -0.00644919 -0.00549606 -0.00459472 -0.00374515 -0.00295887 -0.0022474 -0.00161074 -0.00104889 -0.000590003 -0.000262223 -6.55558e-05 0 0 -7.30905e-05 -0.000292362 -0.000657815 -0.00116945 -0.00179426 -0.00249925 -0.00328441 -0.00414975 -0.0050812 -0.00606469 -0.00710023 -0.0081878 -0.00930488 -0.0104289 -0.0115599 -0.0126979 -0.0138215 -0.0149092 -0.0159612 -0.0169773 -0.0179381 -0.0188242 -0.0196356 -0.0203722 -0.0210183 -0.0215578 -0.0219908 -0.0223172 -0.0225271 -0.0226102 -0.0225666 -0.0223962 -0.0220971 -0.0216674 -0.0211069 -0.0204157 -0.0196016 -0.0186722 -0.0176276 -0.0164677 -0.0152102 -0.0138725 -0.0124547 -0.0109568 -0.0094043 -0.00782283 -0.00621238 -0.00457295 -0.00293439 -0.00132657 0.000250517 0.00179686 0.00328334 0.00468081 0.00598929 0.00720876 0.00831614 0.00928834 0.0101254 0.0108272 0.0113812 0.0117748 0.0120078 0.0120805 0.0119929 0.0117454 0.011338 0.0107706 0.0100565 0.00920867 0.00822717 0.00711198 0.0058865 0.00457411 0.00317481 0.00168861 0.00014469 -0.00142777 -0.00302877 -0.00465831 -0.00628673 -0.00788436 -0.0094512 -0.0109873 -0.0124674 -0.0138664 -0.0151842 -0.0164209 -0.0175595 -0.0185828 -0.0194909 -0.0202838 -0.0209542 -0.0214949 -0.0219059 -0.0221872 -0.0223412 -0.0223702 -0.0222743 -0.0220535 -