<?xml version="1.0"?> 
<VTKFile type="StructuredGrid" version="0.1"> 
<StructuredGrid WholeExtent="0 128 0 128 0 0"> 
<Piece Extent="0 128 0 128 0 0"> 
<PointData>
<DataArray type="Float32" Name="u" format="ascii" NumberOfComponents="1"> 
0 0 0 0 0 0 0 0 0 0 0 0 0 0 0 0 0 0 0 0 0 0 0 0 0 0 0 0 0 0 0 0 0 0 0 0 0 0 0 0 0 0 0 0 0 0 0 0 0 0 0 0 0 0 0 0 0 0 0 0 0 0 0 0 0 0 0 0 0 0 0 0 0 0 0 0 0 0 0 0 0 0 0 0 0 0 0 0 0 0 0 0 0 0 0 0 0 0 0 0 0 0 0 0 0 0 0 0 0 0 0 0 0 0 0 0 0 0 0 0 0 0 0 0 0 0 0 0 0 0 2.20045e-07 8.80181e-07 1.98041e-06 3.52072e-06 5.3305e-06 7.2391e-06 9.24653e-06 1.13528e-05 1.34556e-05 1.54526e-05 1.73439e-05 1.91294e-05 2.07142e-05 2.20033e-05 2.29966e-05 2.36943e-05 2.40387e-05 2.39724e-05 2.34953e-05 2.26076e-05 2.12799e-05 1.94832e-05 1.72175e-05 1.44827e-05 1.12721e-05 7.57879e-06 3.40286e-06 -1.25572e-06 -6.38468e-06 -1.19717e-05 -1.80168e-05 -2.452e-05 -3.14503e-05 -3.87767e-05 -4.64992e-05 -5.46178e-05 -6.30803e-05 -7.18346e-05 -8.08805e-05 -9.02182e-05 -9.97708e-05 -0.000109462 -0.000119291 -0.000129258 -0.000139261 -0.0001492 -0.000159073 -0.000168882 -0.000178506 -0.000187827 -0.000196844 -0.000205557 -0.000213846 -0.00022159 -0.00022879 -0.000235444 -0.000241453 -0.000246719 -0.00025124 -0.000255018 -0.000257994 -0.000260114 -0.000261377 -0.000261782 -0.000261332 -0.000260024 -0.000257861 -0.000254842 -0.000251023 -0.000246463 -0.00024116 -0.000235116 -0.00022843 -0.000221202 -0.000213432 -0.00020512 -0.000196388 -0.000187355 -0.000178023 -0.000168391 -0.000158578 -0.000148704 -0.000138769 -0.000128772 -0.000118815 -0.000108999 -9.93242e-05 -8.97908e-05 -8.0475e-05 -7.14531e-05 -6.2725e-05 -5.42907e-05 -4.62019e-05 -3.85101e-05 -3.12153e-05 -2.43176e-05 -1.78471e-05 -1.18344e-05 -6.27929e-06 -1.18187e-06 3.44622e-06 7.59333e-06 1.12595e-05 1.44446e-05 1.7156e-05 1.94011e-05 2.11797e-05 2.24919e-05 2.33671e-05 2.38347e-05 2.38946e-05 2.35468e-05 2.28487e-05 2.18576e-05 2.05736e-05 1.89966e-05 1.7221e-05 1.5341e-05 1.33568e-05 1.12682e-05 9.17676e-06 7.1838e-06 5.28935e-06 3.4934e-06 1.96504e-06 8.7335e-07 2.18338e-07 0 0 8.80181e-07 3.52072e-06 7.92163e-06 1.40829e-05 2.1322e-05 2.89564e-05 3.69861e-05 4.54111e-05 5.38223e-05 6.18104e-05 6.93756e-05 7.65177e-05 8.28568e-05 8.80131e-05 9.19865e-05 9.47771e-05 9.61548e-05 9.58895e-05 9.39813e-05 9.04303e-05 8.51196e-05 7.79328e-05 6.88699e-05 5.79308e-05 4.50883e-05 3.03152e-05 1.36114e-05 -5.0229e-06 -2.55387e-05 -4.78869e-05 -7.20673e-05 -9.80801e-05 -0.000125801 -0.000155107 -0.000185997 -0.000218471 -0.000252321 -0.000287338 -0.000323522 -0.000360873 -0.000399083 -0.000437847 -0.000477162 -0.000517031 -0.000557045 -0.0005968 -0.000636294 -0.000675528 -0.000714025 -0.000751307 -0.000787375 -0.000822229 -0.000855385 -0.000886362 -0.000915158 -0.000941775 -0.000965814 -0.000986876 -0.00100496 -0.00102007 -0.00103198 -0.00104046 -0.00104551 -0.00104713 -0.00104533 -0.0010401 -0.00103144 -0.00101937 -0.00100409 -0.000985851 -0.000964641 -0.000940463 -0.000913718 -0.000884806 -0.000853727 -0.00082048 -0.000785551 -0.000749421 -0.000712093 -0.000673564 -0.000634313 -0.000594817 -0.000555074 -0.000515087 -0.000475258 -0.000435995 -0.000397297 -0.000359163 -0.0003219 -0.000285812 -0.0002509 -0.000217163 -0.000184808 -0.00015404 -0.000124861 -9.72703e-05 -7.13886e-05 -4.73375e-05 -2.51172e-05 -4.72749e-06 1.37849e-05 3.03733e-05 4.50378e-05 5.77784e-05 6.86242e-05 7.76043e-05 8.47189e-05 8.99678e-05 9.34686e-05 9.53387e-05 9.55782e-05 9.41871e-05 9.13948e-05 8.74305e-05 8.22944e-05 7.59864e-05 6.88839e-05 6.13641e-05 5.34271e-05 4.50729e-05 3.6707e-05 2.87352e-05 2.11574e-05 1.39736e-05 7.86015e-06 3.4934e-06 8.7335e-07 0 0 1.98041e-06 7.92163e-06 1.78237e-05 3.16865e-05 4.79745e-05 6.51519e-05 8.32188e-05 0.000102175 0.0001211 0.000139073 0.000156095 0.000172165 0.000186428 0.00019803 0.00020697 0.000213248 0.000216348 0.000215751 0.000211458 0.000203468 0.000191519 0.000175349 0.000154957 0.000130344 0.000101449 6.82091e-05 3.06258e-05 -1.13015e-05 -5.74621e-05 -0.000107745 -0.000162152 -0.00022068 -0.000283053 -0.000348991 -0.000418493 -0.00049156 -0.000567723 -0.000646511 -0.000727925 -0.000811964 -0.000897938 -0.000985155 -0.00107362 -0.00116332 -0.00125335 -0.0013428 -0.00143166 -0.00151994 -0.00160656 -0.00169044 -0.00177159 -0.00185001 -0.00192462 -0.00199431 -0.00205911 -0.00211899 -0.00217308 -0.00222047 -0.00226116 -0.00229516 -0.00232195 -0.00234103 -0.00235239 -0.00235604 -0.00235198 -0.00234022 -0.00232075 -0.00229358 -0.00225921 -0.00221816 -0.00217044 -0.00211604 -0.00205587 -0.00199081 -0.00192089 -0.00184608 -0.00176749 -0.0016862 -0.00160221 -0.00151552 -0.00142721 -0.00133834 -0.00124892 -0.00115894 -0.00106933 -0.000980989 -0.000893917 -0.000808117 -0.000724275 -0.000643078 -0.000564525 -0.000488617 -0.000415817 -0.000346591 -0.000280938 -0.000218858 -0.000160624 -0.000106509 -5.65136e-05 -1.06368e-05 3.1016e-05 6.834e-05 0.000101335 0.000130001 0.000154404 0.00017461 0.000190617 0.000202428 0.000210304 0.000214512 0.000215051 0.000211921 0.000205638 0.000196719 0.000185162 0.000170969 0.000154989 0.000138069 0.000120211 0.000101414 8.25908e-05 6.46542e-05 4.76042e-05 3.14406e-05 1.76853e-05 7.86015e-06 1.96504e-06 0 0 3.52072e-06 1.40829e-05 3.16865e-05 5.63316e-05 8.5288e-05 0.000115826 0.000147944 0.000181645 0.000215289 0.000247242 0.000277502 0.000306071 0.000331427 0.000352052 0.000367946 0.000379108 0.000384619 0.000383558 0.000375925 0.000361721 0.000340478 0.000311731 0.00027548 0.000231723 0.000180353 0.000121261 5.44458e-05 -2.00916e-05 -0.000102155 -0.000191547 -0.000288269 -0.000392321 -0.000503205 -0.000620428 -0.000743988 -0.000873885 -0.00100929 -0.00114935 -0.00129409 -0.00144349 -0.00159633 -0.00175139 -0.00190865 -0.00206812 -0.00222818 -0.0023872 -0.00254518 -0.00270211 -0.0028561 -0.00300523 -0.0031495 -0.00328891 -0.00342154 -0.00354545 -0.00366063 -0.0037671 -0.00386326 -0.0039475 -0.00401985 -0.00408028 -0.00412791 -0.00416182 -0.00418203 -0.00418852 -0.0041813 -0.00416039 -0.00412578 -0.00407747 -0.00401637 -0.0039434 -0.00385856 -0.00376185 -0.00365487 -0.00353922 -0.00341491 -0.00328192 -0.0031422 -0.00299769 -0.00284837 -0.00269426 -0.00253725 -0.00237927 -0.0022203 -0.00206035 -0.00190103 -0.00174398 -0.00158919 -0.00143665 -0.0012876 -0.00114325 -0.0010036 -0.000868652 -0.000739231 -0.000616162 -0.000499445 -0.000389081 -0.000285554 -0.00018935 -0.000100469 -1.89099e-05 5.51396e-05 0.000121493 0.000180151 0.000231114 0.000274497 0.000310417 0.000338875 0.000359871 0.000373874 0.000381355 0.000382313 0.000376749 0.000365579 0.000349722 0.000329178 0.000303946 0.000275535 0.000245456 0.000213708 0.000180291 0.000146828 0.000114941 8.46296e-05 5.58944e-05 3.14406e-05 1.39736e-05 3.4934e-06 0 0 5.32781e-06 2.13112e-05 4.79503e-05 8.52449e-05 0.000129013 0.000175074 0.000223427 0.000274072 0.000324518 0.000372274 0.00041734 0.000459716 0.0004971 0.000527189 0.000549984 0.000565484 0.000572303 0.000569055 0.00055574 0.000532358 0.000498222 0.000452642 0.00039562 0.000327154 0.000247107 0.00015534 5.18522e-05 -6.3356e-05 -0.00018996 -0.000327635 -0.000476381 -0.000636198 -0.000806314 -0.000985956 -0.00117512 -0.00137382 -0.00158077 -0.00179469 -0.00201558 -0.00224345 -0.00247643 -0.00271266 -0.00295214 -0.00319487 -0.00343839 -0.00368025 -0.00392044 -0.00415897 -0.00439295 -0.00461951 -0.00483864 -0.00505034 -0.0052517 -0.0054398 -0.00561464 -0.00577622 -0.00592213 -0.00604997 -0.00615974 -0.00625143 -0.00632368 -0.00637513 -0.00640578 -0.00641563 -0.00640468 -0.00637296 -0.00632044 -0.00624715 -0.00615445 -0.00604373 -0.00591499 -0.00576823 -0.00560586 -0.00543032 -0.00524159 -0.00503968 -0.00482751 -0.004608 -0.00438115 -0.00414697 -0.00390833 -0.00366811 -0.00342632 -0.00318295 -0.00294046 -0.00270129 -0.00246545 -0.00223293 -0.00200558 -0.00178527 -0.00157198 -0.00136571 -0.00116774 -0.000979311 -0.000800435 -0.000631108 -0.000472088 -0.000324129 -0.000187233 -6.13977e-05 5.30658e-05 0.000155849 0.000246951 0.000326372 0.000394264 0.000450776 0.000495909 0.000529662 0.00055273 0.000565805 0.000568888 0.000561979 0.000546459 0.000523712 0.000493737 0.000456535 0.000414392 0.000369594 0.000322142 0.000272037 0.000221746 0.000173741 0.000128021 8.45856e-05 4.75794e-05 2.11464e-05 5.2866e-06 0 0 7.22833e-06 2.89133e-05 6.50549e-05 0.000115653 0.000174902 0.000236994 0.000301929 0.000369709 0.000436914 0.000500128 0.000559351 0.000614582 0.000662691 0.000700548 0.000728151 0.000745501 0.000750735 0.000741987 0.000719259 0.00068255 0.000630973 0.000563644 0.000480561 0.000381725 0.000267017 0.000136317 -1.03744e-05 -0.000173058 -0.000351221 -0.00054435 -0.000752446 -0.000975509 -0.00121243 -0.00146211 -0.00172455 -0.00199974 -0.00228593 -0.00258133 -0.00288597 -0.00319983 -0.00352039 -0.0038451 -0.00417396 -0.00450698 -0.00484083 -0.00517219 -0.00550106 -0.00582743 -0.00614742 -0.00645713 -0.00675655 -0.00704571 -0.00732064 -0.00757741 -0.00781602 -0.00803647 -0.00823551 -0.00840987 -0.00855956 -0.00868459 -0.0087831 -0.00885324 -0.00889503 -0.00890845 -0.00889352 -0.00885026 -0.00877865 -0.00867872 -0.00855231 -0.0084013 -0.0082257 -0.00802549 -0.00780396 -0.00756437 -0.00730672 -0.00703102 -0.00674121 -0.00644125 -0.00613112 -0.00581084 -0.00548429 -0.00515538 -0.00482408 -0.00449042 -0.0041577 -0.00382924 -0.00350504 -0.0031851 -0.00287193 -0.00256807 -0.00227351 -0.00198824 -0.00171402 -0.0014526 -0.00120396 -0.000968109 -0.000746134 -0.000539116 -0.000347055 -0.000169951 -8.29518e-06 0.000137421 0.000267198 0.000381035 0.000479069 0.000561435 0.000628134 0.000679165 0.000715423 0.000737801 0.0007463 0.00074092 0.00072352 0.00069596 0.000658239 0.000610357 0.000555424 0.000496551 0.000433736 0.000366981 0.000299673 0.000235201 0.000173565 0.000114765 6.45551e-05 2.86911e-05 7.17279e-06 0 0 9.22228e-06 3.68891e-05 8.30005e-05 0.000147557 0.000222953 0.000301585 0.000383452 0.000468556 0.000552479 0.000630805 0.000703535 0.000770669 0.000828201 0.000872127 0.000902447 0.000919161 0.000919915 0.000902356 0.000866482 0.000812295 0.000738733 0.000644736 0.000530303 0.000395436 0.000240083 6.41926e-05 -0.000132234 -0.000349197 -0.000585937 -0.000841693 -0.00111646 -0.00141025 -0.00172156 -0.0020489 -0.00239226 -0.00275165 -0.00312476 -0.0035093 -0.00390526 -0.00431264 -0.0047282 -0.00514869 -0.00557411 -0.00600446 -0.00643551 -0.00686303 -0.00728702 -0.00770749 -0.00811949 -0.00851808 -0.00890325 -0.00927501 -0.00962835 -0.00995828 -0.0102648 -0.0105479 -0.0108034 -0.0110272 -0.0112193 -0.0113798 -0.0115061 -0.0115961 -0.0116498 -0.011667 -0.0116478 -0.0115923 -0.0115004 -0.0113722 -0.01121 -0.0110161 -0.0107907 -0.0105336 -0.0102492 -0.00994138 -0.00961031 -0.00925595 -0.00888332 -0.00849743 -0.00809828 -0.00768588 -0.00726516 -0.00684106 -0.0064136 -0.00598276 -0.00555276 -0.00512783 -0.00470797 -0.00429316 -0.00388665 -0.00349166 -0.00310819 -0.00273624 -0.00237809 -0.00203602 -0.00171001 -0.00140008 -0.00110769 -0.000834311 -0.000579937 -0.00034457 -0.000128943 6.62109e-05 0.000240893 0.000395102 0.000528911 0.000642394 0.00073555 0.000808378 0.000861952 0.000897343 0.00091455 0.000913574 0.000896763 0.000866465 0.000822682 0.000765412 0.000698634 0.000626327 0.00054849 0.000465124 0.000380608 0.00029932 0.000221262 0.000146432 8.23677e-05 3.66079e-05 9.15197e-06 0 0 1.13097e-05 4.52387e-05 0.000101787 0.000180955 0.000273167 0.000368847 0.000467995 0.000570613 0.000671211 0.000764305 0.000849893 0.000927976 0.000993629 0.00104193 0.00107287 0.00108646 0.00107984 0.00105016 0.000997409 0.000921593 0.0008215 0.000695918 0.000544846 0.000368286 0.000166303 -6.10342e-05 -0.000313726 -0.000591774 -0.000894108 -0.00121966 -0.00156844 -0.00194043 -0.00233371 -0.00274631 -0.00317826 -0.00362954 -0.00409727 -0.00457857 -0.00507344 -0.00558187 -0.00609988 -0.00662345 -0.00715259 -0.0076873 -0.00822242 -0.00875277 -0.00927834 -0.00979916 -0.0103092 -0.0108024 -0.0112787 -0.0117383 -0.0121748 -0.0125824 -0.0129609 -0.0133104 -0.0136257 -0.013902 -0.014139 -0.0143369 -0.0144928 -0.0146039 -0.01467 -0.0146912 -0.0146676 -0.0145991 -0.0144857 -0.0143275 -0.0141274 -0.0138882 -0.01361 -0.0132927 -0.0129415 -0.0125614 -0.0121524 -0.0117145 -0.0112538 -0.0107766 -0.0102826 -0.00977208 -0.00925091 -0.00872517 -0.00819485 -0.00765996 -0.00712564 -0.00659706 -0.00607423 -0.00555712 -0.00504973 -0.00455604 -0.00407603 -0.00360972 -0.00315995 -0.00272957 -0.0023186 -0.00192703 -0.00155677 -0.00120971 -0.000885877 -0.000585255 -0.000308879 -5.77821e-05 0.000168035 0.000368572 0.000543791 0.000693653 0.000818157 0.000917303 0.000992319 0.00104443 0.00107364 0.00107994 0.00106619 0.00103523 0.000987066 0.000921699 0.00084402 0.000758922 0.000666404 0.000566466 0.000464551 0.0003661 0.000271111 0.000179586 0.000101017 4.48966e-05 1.12241e-05 0 0 1.33789e-05 5.35157e-05 0.00012041 0.000214063 0.000322825 0.000435049 0.000550735 0.000669883 0.000785882 0.000892122 0.000988603 0.00107533 0.00114643 0.00119607 0.00122423 0.00123092 0.00121281 0.00116657 0.0010922 0.000989692 0.000857754 0.000695086 0.000501687 0.000277558 2.29664e-05 -0.000261817 -0.000576792 -0.00092196 -0.00129586 -0.00169705 -0.00212551 -0.00258125 -0.00306182 -0.00356478 -0.00409013 -0.00463786 -0.00520448 -0.00578651 -0.00638394 -0.00699678 -0.00762027 -0.00824969 -0.00888504 -0.0095263 -0.0101674 -0.0108023 -0.0114309 -0.0120533 -0.0126624 -0.0132512 -0.0138195 -0.0143674 -0.0148877 -0.0153733 -0.0158242 -0.0162403 -0.0166157 -0.0169445 -0.0172266 -0.0174621 -0.0176476 -0.0177796 -0.0178583 -0.0178835 -0.0178554 -0.0177739 -0.017639 -0.0174508 -0.0172126 -0.016928 -0.0165968 -0.0162191 -0.0158008 -0.015348 -0.0148607 -0.0143387 -0.0137894 -0.01322 -0.0126303 -0.0120205 -0.0113977 -0.0107688 -0.0101339 -0.00949296 -0.00885212 -0.0082174 -0.0075888 -0.00696633 -0.0063547 -0.00575862 -0.0051781 -0.00461313 -0.00406718 -0.00354369 -0.00304268 -0.00256413 -0.00211045 -0.00168405 -0.00128493 -0.000913093 -0.000569946 -0.000256908 2.6023e-05 0.000278846 0.000501327 0.000693232 0.00085456 0.000985311 0.0010868 0.00116036 0.00120597 0.00122364 0.0012167 0.00118847 0.00113894 0.00106812 0.000981837 0.000885897 0.000780304 0.000665059 0.000546718 0.000431838 0.000320418 0.000212458 0.000119508 5.31146e-05 1.32786e-05 0 0 1.53184e-05 6.12737e-05 0.000137866 0.000245095 0.00036921 0.000496461 0.000626848 0.00076037 0.000889261 0.00100575 0.00110985 0.00120154 0.00127407 0.00132066 0.00134132 0.00133605 0.00130111 0.00123276 0.001131 0.000995835 0.000825973 0.000620136 0.000378323 0.000100533 -0.000212641 -0.00056061 -0.000943372 -0.00136093 -0.00181133 -0.00229263 -0.00280482 -0.00334791 -0.00391888 -0.00451473 -0.00513545 -0.00578104 -0.00644741 -0.00713046 -0.00783019 -0.00854659 -0.00927425 -0.0100077 -0.0107471 -0.0114922 -0.0122363 -0.0129725 -0.0137007 -0.014421 -0.0151253 -0.0158056 -0.016462 -0.0170944 -0.0176947 -0.0182547 -0.0187744 -0.019254 -0.0196864 -0.0200651 -0.0203901 -0.0206612 -0.0208747 -0.0210267 -0.0211173 -0.0211463 -0.0211139 -0.0210201 -0.0208648 -0.0206481 -0.0203738 -0.0200459 -0.0196644 -0.0192292 -0.0187472 -0.0182251 -0.017663 -0.0170609 -0.0164268 -0.0157691 -0.0150876 -0.0143824 -0.0136615 -0.0129329 -0.0121967 -0.0114527 -0.010708 -0.00996929 -0.00923668 -0.00851013 -0.00779505 -0.00709683 -0.00641547 -0.00575098 -0.0051074 -0.0044888 -0.00389518 -0.00332654 -0.00278584 -0.00227605 -0.00179716 -0.00134917 -0.000933992 -0.000553516 -0.000207744 0.000103323 0.000379138 0.000619151 0.000823362 0.000991772 0.00112569 0.00122642 0.00129396 0.00132831 0.00133321 0.00131239 0.00126585 0.00119359 0.00110234 0.000998813 0.000883018 0.000754953 0.000622324 0.000492834 0.000366485 0.000243277 0.000136843 6.08192e-05 1.52048e-05 0 0 1.71282e-05 6.85127e-05 0.000154154 0.000274051 0.000412321 0.000553082 0.000696333 0.000842075 0.000981349 0.0011052 0.00121362 0.00130662 0.00137653 0.00141571 0.00142415 0.00140186 0.00134474 0.00124873 0.00111383 0.000940023 0.000726157 0.000471067 0.000174752 -0.000162787 -0.00054052 -0.000957412 -0.00141347 -0.00190868 -0.00244051 -0.00300641 -0.00360638 -0.00424041 -0.00490488 -0.00559615 -0.00631422 -0.0070591 -0.00782606 -0.00861042 -0.00941218 -0.0102313 -0.0110618 -0.0118976 -0.0127387 -0.0135851 -0.0144292 -0.0152634 -0.0160876 -0.016902 -0.0176977 -0.0184658 -0.0192063 -0.0199192 -0.0205956 -0.0212264 -0.0218116 -0.0223513 -0.0228379 -0.0232639 -0.0236294 -0.0239342 -0.0241743 -0.0243452 -0.024447 -0.0244796 -0.0244431 -0.0243376 -0.024163 -0.0239193 -0.0236109 -0.023242 -0.0228128 -0.0223231 -0.0217806 -0.0211927 -0.0205595 -0.0198809 -0.019166 -0.0184239 -0.0176544 -0.0168576 -0.0160425 -0.0152177 -0.0143833 -0.0135392 -0.0126932 -0.0118528 -0.0110179 -0.0101885 -0.0093708 -0.00857067 -0.00778815 -0.00702324 -0.00628061 -0.0055649 -0.00487612 -0.00421428 -0.00358294 -0.0029857 -0.00242255 -0.00189349 -0.00140102 -0.000947607 -0.000533268 -0.000157997 0.000177222 0.00047141 0.000724565 0.000936687 0.00110897 0.00124261 0.0013376 0.00139395 0.00141572 0.00140701 0.0013678 0.0012981 0.00120552 0.00109767 0.000974546 0.000836149 0.000691368 0.00054909 0.000409314 0.000272042 0.000153024 6.80105e-05 1.70026e-05 0 0 1.88082e-05 7.52327e-05 0.000169274 0.000300931 0.000452159 0.000604913 0.000759192 0.000914997 0.00106214 0.00119045 0.00129993 0.00139056 0.00145383 0.00148121 0.00147272 0.00142833 0.00134371 0.00121449 0.00104067 0.000822256 0.000558306 0.00024788 -0.000109024 -0.000512404 -0.000960669 -0.00145223 -0.00198707 -0.00256521 -0.0031834 -0.00383839 -0.00453017 -0.00525876 -0.00601982 -0.00680906 -0.00762645 -0.00847201 -0.00934043 -0.0102264 -0.0111299 -0.012051 -0.012983 -0.0139193 -0.0148599 -0.0158049 -0.0167459 -0.0176749 -0.0185918 -0.0194965 -0.0203796 -0.0212316 -0.0220523 -0.0228419 -0.0235905 -0.0242885 -0.0249358 -0.0255323 -0.0260701 -0.0265408 -0.0269445 -0.0272812 -0.0275463 -0.027735 -0.0278473 -0.0278834 -0.0278431 -0.0277265 -0.0275337 -0.0272646 -0.0269239 -0.0265163 -0.026042 -0.0255008 -0.0249009 -0.0242507 -0.02355 -0.0227988 -0.022007 -0.0211843 -0.0203307 -0.0194463 -0.0185405 -0.0176229 -0.0166936 -0.0157525 -0.0148078 -0.0138678 -0.0129323 -0.0120015 -0.0110819 -0.0101801 -0.00929614 -0.00842994 -0.0075868 -0.00677199 -0.0059855 -0.00522733 -0.00450175 -0.00381301 -0.00316111 -0.00254605 -0.00197102 -0.00143918 -0.000950547 -0.000505115 -0.000104418 0.000250009 0.000558167 0.000820056 0.00103665 0.00120893 0.0013369 0.00142055 0.00146423 0.00147232 0.00144479 0.00138166 0.00129139 0.00118247 0.00105489 0.000908646 0.000753851 0.000600603 0.000448904 0.000298753 0.000168049 7.46883e-05 1.86721e-05 0 0 2.02486e-05 8.09942e-05 0.000182237 0.000323977 0.00048606 0.000648334 0.000810797 0.00097345 0.00112489 0.00125372 0.00135992 0.00144352 0.00149517 0.00150557 0.0014747 0.00140257 0.00128467 0.00111647 0.000897978 0.000629194 0.000309551 -6.1516e-05 -0.000484008 -0.000957924 -0.00148095 -0.00205079 -0.00266743 -0.00333087 -0.00403705 -0.00478189 -0.00556541 -0.00638759 -0.00724339 -0.00812775 -0.00904069 -0.0099822 -0.0109464 -0.0119274 -0.0129253 -0.01394 -0.0149645 -0.0159918 -0.0170217 -0.0180544 -0.0190813 -0.0200936 -0.0210914 -0.0220747 -0.0230335 -0.0239577 -0.0248474 -0.0257025 -0.0265128 -0.0272679 -0.0279678 -0.0286126 -0.0291936 -0.0297021 -0.0301381 -0.0305017 -0.0307878 -0.0309915 -0.0311128 -0.0311517 -0.0311082 -0.0309823 -0.0307741 -0.0304835 -0.0301156 -0.0296754 -0.0291628 -0.028578 -0.0279296 -0.0272263 -0.0264681 -0.025655 -0.0247973 -0.0239054 -0.0229793 -0.0220189 -0.0210344 -0.0200357 -0.0190228 -0.0179958 -0.0169632 -0.0159337 -0.0149073 -0.0138839 -0.0128707 -0.0118746 -0.0108955 -0.00993366 -0.00899472 -0.00808454 -0.00720312 -0.00635046 -0.00553156 -0.00475138 -0.00400993 -0.00330722 -0.00264723 -0.00203397 -0.00146742 -0.000947598 -0.000476737 -5.70809e-05 0.000311369 0.000628614 0.000895263 0.00111193 0.0012786 0.00139529 0.00146651 0.00149678 0.00148611 0.00143448 0.00135117 0.00124546 0.00111733 0.000966803 0.000805181 0.000643784 0.000482613 0.000321667 0.000180937 8.04166e-05 2.01042e-05 0 0 2.13394e-05 8.53576e-05 0.000192055 0.000341431 0.000511362 0.000679726 0.000846522 0.00101175 0.00116283 0.00128717 0.00138478 0.00145565 0.00148978 0.00147716 0.00141779 0.00131167 0.00115429 0.000941136 0.000672205 0.000347498 -3.29758e-05 -0.000469209 -0.000961202 -0.00150895 -0.00210924 -0.00275884 -0.00345776 -0.00420599 -0.0049985 -0.00583026 -0.00670127 -0.00761154 -0.00855524 -0.00952656 -0.0105255 -0.011552 -0.0125999 -0.0136626 -0.0147404 -0.015833 -0.0169333 -0.018034 -0.0191351 -0.0202367 -0.0213298 -0.0224059 -0.023465 -0.0245069 -0.0255216 -0.0264988 -0.0274386 -0.028341 -0.0291954 -0.0299914 -0.0307287 -0.0314076 -0.0320191 -0.0325542 -0.0330129 -0.0333953 -0.0336961 -0.0339103 -0.0340378 -0.0340786 -0.0340329 -0.0339005 -0.0336814 -0.0333758 -0.0329888 -0.0325256 -0.0319862 -0.0313706 -0.0306878 -0.0299467 -0.0291474 -0.0282899 -0.0273846 -0.0264423 -0.0254628 -0.0244463 -0.0234028 -0.0223427 -0.0212658 -0.0201722 -0.0190706 -0.0179698 -0.0168698 -0.0157705 -0.0146792 -0.0136032 -0.0125425 -0.011497 -0.0104731 -0.00947703 -0.0085088 -0.00756842 -0.00666164 -0.0057942 -0.0049661 -0.00417736 -0.00343291 -0.0027377 -0.00209173 -0.00149501 -0.000950684 -0.000461888 -2.86281e-05 0.000349097 0.000671331 0.000938119 0.00114946 0.00130536 0.00141033 0.00146889 0.00148104 0.00144679 0.00137608 0.00127888 0.00115518 0.00100497 0.000840766 0.00067504 0.000507797 0.000339037 0.000190708 8.47593e-05 2.11898e-05 0 0 2.20807e-05 8.83229e-05 0.000198727 0.000353292 0.000528064 0.000699089 0.000866366 0.0010299 0.00117595 0.00129082 0.00137448 0.00142695 0.00143765 0.001396 0.00130199 0.00115564 0.000952583 0.000688488 0.00036335 -2.28316e-05 -0.000469275 -0.0009752 -0.00154061 -0.0021655 -0.00284553 -0.00357639 -0.00435807 -0.00519056 -0.00606774 -0.00698348 -0.00793777 -0.00893062 -0.0099554 -0.0110055 -0.0120809 -0.0131816 -0.0143008 -0.015432 -0.016575 -0.0177299 -0.0188893 -0.0200461 -0.0212001 -0.0223515 -0.0234916 -0.0246119 -0.0257124 -0.026793 -0.0278439 -0.0288549 -0.0298261 -0.0307575 -0.0316386 -0.032459 -0.0332186 -0.0339174 -0.0345466 -0.035097 -0.0355688 -0.0359619 -0.0362711 -0.0364912 -0.0366223 -0.0366642 -0.0366171 -0.036481 -0.0362558 -0.0359416 -0.0355436 -0.0350671 -0.0345121 -0.0338786 -0.0331755 -0.032412 -0.0315879 -0.0307034 -0.0297689 -0.0287948 -0.0277813 -0.0267283 -0.0256458 -0.0245439 -0.0234226 -0.0222818 -0.0211301 -0.0199761 -0.0188198 -0.0176613 -0.0165076 -0.0153662 -0.014237 -0.01312 -0.012022 -0.0109495 -0.00990255 -0.00888121 -0.00789199 -0.00694147 -0.00602962 -0.00515647 -0.00432803 -0.00355037 -0.00282348 -0.00214737 -0.00152626 -0.000964413 -0.000461825 -1.84948e-05 0.000364858 0.000687516 0.000949478 0.00115074 0.00129567 0.00138862 0.0014296 0.00141859 0.00136613 0.00128274 0.00116842 0.00102316 0.000860607 0.000694372 0.000524458 0.000350865 0.000197362 8.77162e-05 2.19291e-05 0 0 2.24725e-05 8.98901e-05 0.000202253 0.00035956 0.000536166 0.000706423 0.00087033 0.00102789 0.00116427 0.00126466 0.00132904 0.00135743 0.00133879 0.00126207 0.0011273 0.00093446 0.000679539 0.000358523 -2.85884e-05 -0.000481796 -0.000999347 -0.00157949 -0.00222222 -0.00292755 -0.00368983 -0.00450343 -0.00536835 -0.0062846 -0.00724479 -0.00824156 -0.0092749 -0.0103448 -0.0114438 -0.0125645 -0.0137068 -0.0148707 -0.0160493 -0.0172355 -0.0184293 -0.0196307 -0.0208326 -0.0220279 -0.0232168 -0.024399 -0.0255666 -0.0267115 -0.0278337 -0.0289332 -0.0300004 -0.0310259 -0.0320098 -0.0329519 -0.0338423 -0.0346707 -0.0354373 -0.036142 -0.036776 -0.0373306 -0.0378058 -0.0382016 -0.0385129 -0.0387344 -0.0388663 -0.0389085 -0.038861 -0.0387239 -0.0384972 -0.0381808 -0.03778 -0.0372999 -0.0367405 -0.0361019 -0.0353928 -0.0346221 -0.0337897 -0.0328956 -0.0319501 -0.0309631 -0.0299348 -0.028865 -0.0277634 -0.0266395 -0.0254932 -0.0243246 -0.0231417 -0.0219527 -0.0207575 -0.0195562 -0.0183558 -0.0171634 -0.0159791 -0.0148027 -0.0136413 -0.0125018 -0.0113844 -0.0102888 -0.00922263 -0.00819319 -0.00720049 -0.00624454 -0.00533262 -0.004472 -0.00366267 -0.00290465 -0.00220347 -0.00156466 -0.000988221 -0.000474162 -2.41564e-05 0.000360115 0.000678651 0.000931454 0.00112256 0.001256 0.00133177 0.00134988 0.00132131 0.00125703 0.00115705 0.00102137 0.000864704 0.000701779 0.000532595 0.00035715 0.000200897 8.92875e-05 2.23219e-05 0 0 2.24435e-05 8.97739e-05 0.000201991 0.000359096 0.000533954 0.000699432 0.00085553 0.00100225 0.00112375 0.00120419 0.00124357 0.00124189 0.00118783 0.00107007 0.000888602 0.000643437 0.0003311 -5.18783e-05 -0.000505499 -0.00102976 -0.00162169 -0.00227833 -0.00299967 -0.00378571 -0.00462928 -0.00552321 -0.00646752 -0.00746218 -0.00849845 -0.00956755 -0.0106695 -0.0118043 -0.0129635 -0.014139 -0.0153306 -0.0165384 -0.0177552 -0.0189739 -0.0201945 -0.0214168 -0.0226345 -0.0238409 -0.0250359 -0.0262197 -0.0273849 -0.0285245 -0.0296384 -0.0307265 -0.0317805 -0.0327917 -0.0337601 -0.0346859 -0.0355596 -0.0363719 -0.0371229 -0.0378126 -0.0384327 -0.038975 -0.0394395 -0.0398262 -0.0401301 -0.0403465 -0.0404752 -0.0405164 -0.04047 -0.040336 -0.0401145 -0.0398054 -0.0394136 -0.0389442 -0.0383971 -0.0377723 -0.037078 -0.0363227 -0.0355062 -0.0346286 -0.0336992 -0.0327273 -0.031713 -0.0306562 -0.0295656 -0.0284496 -0.0273083 -0.0261416 -0.0249569 -0.0237612 -0.0225547 -0.0213373 -0.0201156 -0.0188962 -0.017679 -0.0164642 -0.0152587 -0.0140698 -0.0128975 -0.0117416 -0.0106106 -0.00951262 -0.0084477 -0.00741584 -0.00642569 -0.00548592 -0.00459654 -0.00375754 -0.00297597 -0.00225891 -0.00160634 -0.00101828 -0.0004976 -4.71937e-05 0.000332941 0.000642803 0.000885892 0.0010657 0.00118224 0.0012355 0.00123676 0.00119728 0.00111708 0.000996134 0.000850192 0.000694983 0.000530505 0.00035676 0.000200677 8.91899e-05 2.22975e-05 0 0 2.19223e-05 8.76893e-05 0.000197301 0.000350757 0.000519712 0.000675821 0.000819082 0.000949497 0.00105034 0.0011049 0.00111316 0.00107513 0.000979421 0.00081464 0.000580787 0.000277862 -9.67935e-05 -0.000545838 -0.00106927 -0.00166709 -0.00233482 -0.00306798 -0.00386656 -0.00473057 -0.00565103 -0.00661899 -0.00763445 -0.0086974 -0.00979752 -0.0109245 -0.0120783 -0.013259 -0.0144574 -0.0156642 -0.0168796 -0.0181034 -0.0193286 -0.0205481 -0.0217619 -0.0229699 -0.0241666 -0.0253462 -0.0265087 -0.0276541 -0.0287766 -0.0298705 -0.0309358 -0.0319724 -0.0329734 -0.0339318 -0.0348476 -0.0357209 -0.0365436 -0.0373078 -0.0380135 -0.0386606 -0.039242 -0.0397502 -0.0401853 -0.0405473 -0.0408317 -0.0410341 -0.0411546 -0.041193 -0.0411495 -0.041024 -0.0408166 -0.0405272 -0.0401603 -0.0397204 -0.0392074 -0.0386214 -0.0379696 -0.0372596 -0.0364911 -0.0356643 -0.0347872 -0.0338677 -0.0329059 -0.0319017 -0.0308622 -0.0297945 -0.0286984 -0.027574 -0.0264271 -0.0252636 -0.0240834 -0.0228865 -0.0216787 -0.0204656 -0.0192473 -0.0180237 -0.0168019 -0.0155891 -0.0143851 -0.01319 -0.012013 -0.010863 -0.00974025 -0.00864459 -0.00758628 -0.00657553 -0.00561233 -0.00469669 -0.00383745 -0.00304346 -0.00231471 -0.00165122 -0.00105736 -0.000537518 -9.16939e-05 0.000280112 0.000580596 0.000812455 0.000975689 0.0010703 0.00110763 0.00109902 0.00104448 0.000944006 0.000814209 0.000671703 0.000516487 0.000348561 0.000196066 8.71403e-05 2.17851e-05 0 0 2.0909e-05 8.36361e-05 0.000188181 0.000334544 0.000493442 0.000635589 0.000760986 0.000869633 0.000944058 0.000966788 0.000937823 0.000857163 0.000713568 0.000495798 0.000203854 -0.000162266 -0.000604142 -0.00112336 -0.00171991 -0.00239379 -0.00313873 -0.00394843 -0.0048229 -0.00576213 -0.0067551 -0.00779077 -0.00886915 -0.00999024 -0.011142 -0.0123124 -0.0135015 -0.0147091 -0.0159254 -0.0171403 -0.0183537 -0.0195657 -0.0207694 -0.021958 -0.0231315 -0.0242899 -0.0254288 -0.0265438 -0.0276349 -0.0287021 -0.0297416 -0.0307495 -0.0317259 -0.0326707 -0.0335792 -0.0344464 -0.0352723 -0.036057 -0.0367944 -0.0374783 -0.0381089 -0.038686 -0.0392038 -0.0396562 -0.0400432 -0.040365 -0.0406176 -0.0407973 -0.0409043 -0.0409384 -0.0408996 -0.040788 -0.0406036 -0.0403463 -0.04002 -0.0396284 -0.0391714 -0.0386492 -0.0380676 -0.0374327 -0.0367445 -0.0360029 -0.0352142 -0.0343843 -0.0335135 -0.0326015 -0.0316534 -0.0306741 -0.0296635 -0.0286217 -0.0275524 -0.0264597 -0.0253436 -0.0242039 -0.0230452 -0.0218718 -0.0206839 -0.0194813 -0.0182709 -0.0170595 -0.0158472 -0.014634 -0.0134297 -0.0122444 -0.0110781 -0.00993081 -0.0088144 -0.00774081 -0.00671004 -0.00572211 -0.0047879 -0.00391831 -0.00311334 -0.00237299 -0.00170344 -0.00111086 -0.000595253 -0.000156621 0.000206668 0.000496245 0.000712111 0.000854265 0.000933908 0.000962243 0.000939268 0.000864985 0.000756755 0.00063194 0.00049054 0.000332555 0.000187062 8.31387e-05 2.07847e-05 0 0 1.94036e-05 7.76144e-05 0.000174632 0.000310458 0.000455142 0.000578737 0.000681242 0.000762659 0.000804895 0.000789862 0.000717557 0.000587983 0.000390268 0.000113541 -0.000242197 -0.000676947 -0.00119095 -0.00178443 -0.0024574 -0.00320986 -0.00403342 -0.0049197 -0.00586869 -0.0068804 -0.00794147 -0.00903854 -0.0101716 -0.0113407 -0.0125319 -0.0137313 -0.0149388 -0.0161546 -0.0173676 -0.0185671 -0.019753 -0.0209253 -0.0220776 -0.0232037 -0.0243034 -0.0253768 -0.0264212 -0.0274338 -0.0284147 -0.0293639 -0.03028 -0.0311616 -0.0320088 -0.0328216 -0.0335978 -0.0343353 -0.0350341 -0.0356942 -0.036312 -0.0368836 -0.0374092 -0.0378888 -0.0383181 -0.038693 -0.0390133 -0.0392792 -0.0394877 -0.0396361 -0.0397243 -0.0397524 -0.0397203 -0.039628 -0.0394755 -0.0392628 -0.0389928 -0.0386682 -0.0382892 -0.0378557 -0.0373719 -0.0368421 -0.0362662 -0.0356443 -0.03498 -0.0342772 -0.0335357 -0.0327556 -0.0319392 -0.0310885 -0.0302037 -0.0292846 -0.0283328 -0.0273497 -0.0263352 -0.0252894 -0.0242149 -0.0231147 -0.0219887 -0.0208369 -0.0196656 -0.0184813 -0.0172839 -0.0160735 -0.0148609 -0.0136568 -0.0124613 -0.0112745 -0.01011 -0.00898176 -0.00788968 -0.0068338 -0.00582732 -0.00488346 -0.00400221 -0.00318358 -0.00243583 -0.00176721 -0.00117774 -0.000667396 -0.000235891 0.000117077 0.000391508 0.000587404 0.000715604 0.0007