<?xml version="1.0"?> 
<VTKFile type="StructuredGrid" version="0.1"> 
<StructuredGrid WholeExtent="0 128 0 128 0 0"> 
<Piece Extent="0 128 0 128 0 0"> 
<PointData>
<DataArray type="Float32" Name="u" format="ascii" NumberOfComponents="1"> 
0 0 0 0 0 0 0 0 0 0 0 0 0 0 0 0 0 0 0 0 0 0 0 0 0 0 0 0 0 0 0 0 0 0 0 0 0 0 0 0 0 0 0 0 0 0 0 0 0 0 0 0 0 0 0 0 0 0 0 0 0 0 0 0 0 0 0 0 0 0 0 0 0 0 0 0 0 0 0 0 0 0 0 0 0 0 0 0 0 0 0 0 0 0 0 0 0 0 0 0 0 0 0 0 0 0 0 0 0 0 0 0 0 0 0 0 0 0 0 0 0 0 0 0 0 0 0 0 0 0 -1.44089e-07 -5.76355e-07 -1.2968e-06 -2.30542e-06 -3.64967e-06 -5.37702e-06 -7.48745e-06 -9.98097e-06 -1.28758e-05 -1.619e-05 -1.99236e-05 -2.40767e-05 -2.86162e-05 -3.35089e-05 -3.87549e-05 -4.43543e-05 -5.026e-05 -5.64252e-05 -6.28498e-05 -6.95339e-05 -7.64226e-05 -8.3461e-05 -9.06492e-05 -9.79871e-05 -0.000105414 -0.00011287 -0.000120355 -0.000127869 -0.00013535 -0.000142739 -0.000150035 -0.000157237 -0.000164294 -0.00017115 -0.000177807 -0.000184264 -0.000190484 -0.000196428 -0.000202097 -0.00020749 -0.00021259 -0.000217381 -0.000221862 -0.000226034 -0.0002299 -0.000233465 -0.00023673 -0.000239693 -0.000242377 -0.000244803 -0.000246971 -0.000248881 -0.000250563 -0.000252045 -0.000253329 -0.000254414 -0.000255328 -0.000256098 -0.000256725 -0.000257208 -0.000257564 -0.000257809 -0.000257943 -0.000257966 -0.000257879 -0.00025768 -0.00025737 -0.000256948 -0.000256399 -0.000255706 -0.000254868 -0.000253886 -0.000252732 -0.000251378 -0.000249825 -0.000248073 -0.000246092 -0.000243853 -0.000241357 -0.000238602 -0.000235569 -0.000232238 -0.000228607 -0.000224677 -0.000220445 -0.000215907 -0.000211064 -0.000205914 -0.000200477 -0.00019477 -0.000188793 -0.000182546 -0.000176068 -0.000169396 -0.000162533 -0.000155476 -0.00014828 -0.000140998 -0.000133631 -0.000126178 -0.0001187 -0.000111257 -0.00010385 -9.64775e-05 -8.92005e-05 -8.20781e-05 -7.51104e-05 -6.82973e-05 -6.16923e-05 -5.53492e-05 -4.92678e-05 -4.34482e-05 -3.79356e-05 -3.27752e-05 -2.79671e-05 -2.35113e-05 -1.94388e-05 -1.5781e-05 -1.25378e-05 -9.70921e-06 -7.27598e-06 -5.21892e-06 -3.53802e-06 -2.23329e-06 -1.25623e-06 -5.58323e-07 -1.39581e-07 0 0 -5.76355e-07 -2.30542e-06 -5.18719e-06 -9.22168e-06 -1.45987e-05 -2.15081e-05 -2.99498e-05 -3.99239e-05 -5.1503e-05 -6.47599e-05 -7.96945e-05 -9.63068e-05 -0.000114465 -0.000134036 -0.00015502 -0.000177417 -0.00020104 -0.000225701 -0.000251399 -0.000278136 -0.00030569 -0.000333844 -0.000362597 -0.000391949 -0.000421657 -0.000451481 -0.000481421 -0.000511475 -0.000541401 -0.000570956 -0.000600138 -0.000628949 -0.000657175 -0.000684601 -0.000711229 -0.000737058 -0.000761936 -0.000785713 -0.000808387 -0.000829959 -0.000850361 -0.000869524 -0.000887448 -0.000904134 -0.000919599 -0.00093386 -0.000946918 -0.000958773 -0.00096951 -0.000979214 -0.000987885 -0.000995525 -0.00100225 -0.00100818 -0.00101332 -0.00101766 -0.00102131 -0.00102439 -0.0010269 -0.00102883 -0.00103026 -0.00103124 -0.00103177 -0.00103187 -0.00103151 -0.00103072 -0.00102948 -0.00102779 -0.0010256 -0.00102282 -0.00101947 -0.00101554 -0.00101093 -0.00100551 -0.000999301 -0.000992292 -0.000984368 -0.000975413 -0.000965427 -0.000954409 -0.000942278 -0.000928951 -0.000914428 -0.000898709 -0.000881781 -0.00086363 -0.000844255 -0.000823657 -0.000801908 -0.000779079 -0.000755171 -0.000730183 -0.00070427 -0.000677586 -0.00065013 -0.000621904 -0.00059312 -0.000563993 -0.000534524 -0.000504712 -0.000474799 -0.000445028 -0.000415398 -0.00038591 -0.000356802 -0.000328312 -0.000300441 -0.000273189 -0.000246769 -0.000221397 -0.000197071 -0.000173793 -0.000151742 -0.000131101 -0.000111868 -9.4045e-05 -7.77554e-05 -6.31241e-05 -5.01513e-05 -3.88368e-05 -2.91039e-05 -2.08757e-05 -1.41521e-05 -8.93317e-06 -5.02491e-06 -2.23329e-06 -5.58323e-07 0 0 -1.2968e-06 -5.18719e-06 -1.16712e-05 -2.07488e-05 -3.28471e-05 -4.83932e-05 -6.73871e-05 -8.98288e-05 -0.000115882 -0.00014571 -0.000179313 -0.00021669 -0.000257545 -0.00030158 -0.000348794 -0.000399189 -0.00045234 -0.000507827 -0.000565648 -0.000625805 -0.000687803 -0.000751149 -0.000815843 -0.000881884 -0.000948729 -0.00101583 -0.0010832 -0.00115082 -0.00121815 -0.00128465 -0.00135031 -0.00141514 -0.00147864 -0.00154035 -0.00160027 -0.00165838 -0.00171436 -0.00176785 -0.00181887 -0.00186741 -0.00191331 -0.00195643 -0.00199676 -0.0020343 -0.0020691 -0.00210119 -0.00213057 -0.00215724 -0.0021814 -0.00220323 -0.00222274 -0.00223993 -0.00225506 -0.00226841 -0.00227996 -0.00228973 -0.00229795 -0.00230488 -0.00231052 -0.00231487 -0.00231807 -0.00232028 -0.00232149 -0.0023217 -0.00232091 -0.00231912 -0.00231633 -0.00231253 -0.00230759 -0.00230135 -0.00229381 -0.00228497 -0.00227458 -0.0022624 -0.00224843 -0.00223266 -0.00221483 -0.00219468 -0.00217221 -0.00214742 -0.00212012 -0.00209014 -0.00205746 -0.0020221 -0.00198401 -0.00194317 -0.00189957 -0.00185323 -0.00180429 -0.00175293 -0.00169913 -0.00164291 -0.00158461 -0.00152457 -0.00146279 -0.00139928 -0.00133452 -0.00126898 -0.00120268 -0.0011356 -0.0010683 -0.00100131 -0.000934646 -0.000868298 -0.000802805 -0.000738703 -0.000675993 -0.000614675 -0.000555231 -0.000498143 -0.00044341 -0.000391034 -0.00034142 -0.000294977 -0.000251704 -0.000211601 -0.00017495 -0.000142029 -0.00011284 -8.73829e-05 -6.54838e-05 -4.69703e-05 -3.18422e-05 -2.00996e-05 -1.1306e-05 -5.02491e-06 -1.25623e-06 0 0 -2.30542e-06 -9.22168e-06 -2.07488e-05 -3.68867e-05 -5.83948e-05 -8.60323e-05 -0.000119799 -0.000159696 -0.000206012 -0.00025904 -0.000318778 -0.000385227 -0.000457858 -0.000536142 -0.000620079 -0.000709668 -0.00080416 -0.000902803 -0.0010056 -0.00111254 -0.00122276 -0.00133538 -0.00145039 -0.00156779 -0.00168663 -0.00180593 -0.00192568 -0.0020459 -0.00216561 -0.00228382 -0.00240055 -0.0025158 -0.0026287 -0.00273841 -0.00284492 -0.00294823 -0.00304775 -0.00314285 -0.00323355 -0.00331984 -0.00340144 -0.0034781 -0.00354979 -0.00361654 -0.0036784 -0.00373544 -0.00378767 -0.00383509 -0.00387804 -0.00391686 -0.00395154 -0.0039821 -0.004009 -0.00403272 -0.00405326 -0.00407062 -0.00408524 -0.00409757 -0.0041076 -0.00411533 -0.00412102 -0.00412494 -0.00412709 -0.00412746 -0.00412606 -0.00412287 -0.00411791 -0.00411117 -0.00410239 -0.00409129 -0.00407789 -0.00406217 -0.00404371 -0.00402205 -0.0039972 -0.00396917 -0.00393747 -0.00390165 -0.00386171 -0.00381764 -0.00376911 -0.0037158 -0.00365771 -0.00359484 -0.00352713 -0.00345452 -0.00337702 -0.00329463 -0.00320763 -0.00311632 -0.00302068 -0.00292073 -0.00281708 -0.00271034 -0.00260052 -0.00248761 -0.00237248 -0.00225597 -0.0021381 -0.00201885 -0.0018992 -0.00178011 -0.00166159 -0.00154364 -0.00142721 -0.00131325 -0.00120177 -0.00109276 -0.000987077 -0.000885587 -0.000788285 -0.000695171 -0.000606969 -0.000524403 -0.000447474 -0.00037618 -0.000311021 -0.000252497 -0.000200605 -0.000155347 -0.000116416 -8.35027e-05 -5.66084e-05 -3.57327e-05 -2.00996e-05 -8.93317e-06 -2.23329e-06 0 0 -3.64812e-06 -1.45925e-05 -3.28331e-05 -5.837e-05 -9.22268e-05 -0.000135427 -0.000187971 -0.000249859 -0.000321502 -0.000403314 -0.000495295 -0.000597443 -0.000708931 -0.000828928 -0.000957435 -0.00109445 -0.00123881 -0.00138936 -0.00154608 -0.00170899 -0.00187672 -0.00204793 -0.0022226 -0.00240075 -0.00258089 -0.00276153 -0.00294268 -0.00312432 -0.00330499 -0.00348318 -0.00365892 -0.00383218 -0.00400169 -0.00416616 -0.00432558 -0.00447996 -0.00462839 -0.00476998 -0.00490473 -0.00503263 -0.00515331 -0.00526639 -0.00537187 -0.00546975 -0.00556017 -0.0056433 -0.00571913 -0.00578766 -0.00584945 -0.00590508 -0.00595455 -0.00599785 -0.00603575 -0.00606902 -0.00609766 -0.00612166 -0.00614174 -0.00615859 -0.00617222 -0.00618263 -0.00619023 -0.00619544 -0.00619827 -0.0061987 -0.00619674 -0.00619238 -0.00618562 -0.00617646 -0.00616448 -0.00614926 -0.00613079 -0.00610908 -0.00608342 -0.00605311 -0.00601815 -0.00597854 -0.00593352 -0.00588234 -0.005825 -0.00576149 -0.00569128 -0.00561381 -0.00552909 -0.00543711 -0.00533774 -0.00523087 -0.00511648 -0.00499458 -0.00486557 -0.00472986 -0.00458744 -0.00443831 -0.0042834 -0.0041236 -0.00395893 -0.00378938 -0.00361625 -0.00344083 -0.00326313 -0.00308313 -0.00290233 -0.00272218 -0.00254271 -0.00236389 -0.00218721 -0.00201412 -0.00184462 -0.00167872 -0.00151773 -0.00136299 -0.00121448 -0.00107222 -0.000937314 -0.000810898 -0.000692968 -0.000583525 -0.00048335 -0.000393228 -0.000313158 -0.000243141 -0.000182737 -0.000131508 -8.94558e-05 -5.65787e-05 -3.18255e-05 -1.41447e-05 -3.53617e-06 0 0 -5.37082e-06 -2.14833e-05 -4.83374e-05 -8.59331e-05 -0.000135328 -0.00019758 -0.000272688 -0.000360653 -0.000461961 -0.000577099 -0.000706067 -0.000848864 -0.00100429 -0.00117114 -0.00134942 -0.00153913 -0.00173861 -0.00194621 -0.00216193 -0.00238578 -0.00261584 -0.0028502 -0.00308887 -0.00333184 -0.00357705 -0.00382243 -0.00406797 -0.00431368 -0.00455752 -0.00479744 -0.00503345 -0.00526554 -0.00549197 -0.00571101 -0.00592265 -0.00612689 -0.00632257 -0.00650851 -0.00668471 -0.00685118 -0.00700748 -0.0071532 -0.00728832 -0.00741285 -0.00752712 -0.00763144 -0.00772582 -0.00781025 -0.00788565 -0.0079529 -0.00801202 -0.008063 -0.008107 -0.00814519 -0.00817757 -0.00820415 -0.00822596 -0.00824408 -0.00825849 -0.00826921 -0.00827684 -0.00828201 -0.00828472 -0.00828495 -0.00828272 -0.00827801 -0.00827082 -0.00826115 -0.00824838 -0.00823187 -0.00821162 -0.00818764 -0.00815887 -0.00812425 -0.00808379 -0.00803748 -0.00798419 -0.00792274 -0.00785316 -0.00777543 -0.00768868 -0.00759204 -0.0074855 -0.00736908 -0.00724247 -0.00710539 -0.00695783 -0.0067998 -0.00663176 -0.00645417 -0.00626702 -0.00607032 -0.00586526 -0.00565303 -0.00543363 -0.00520707 -0.00497509 -0.00473944 -0.00450013 -0.00425714 -0.00401252 -0.00376828 -0.00352445 -0.00328101 -0.00304 -0.00280347 -0.00257142 -0.00234385 -0.00212262 -0.0019096 -0.00170479 -0.00150818 -0.00132138 -0.00114598 -0.000981979 -0.000829379 -0.000689316 -0.000562927 -0.000450213 -0.000351173 -0.000265284 -0.000192023 -0.00013139 -8.33839e-05 -4.69034e-05 -2.0846e-05 -5.21149e-06 0 0 -7.47351e-06 -2.9894e-05 -6.72616e-05 -0.000119576 -0.000187698 -0.00027249 -0.000373949 -0.000492077 -0.000627388 -0.000780393 -0.000951094 -0.00113949 -0.00134394 -0.00156279 -0.00179604 -0.0020437 -0.00230355 -0.00257337 -0.00285316 -0.00314292 -0.00344011 -0.0037422 -0.00404918 -0.00436105 -0.00467511 -0.00498861 -0.00530157 -0.00561399 -0.00592321 -0.0062266 -0.00652415 -0.00681586 -0.00709954 -0.00737296 -0.00763613 -0.00788905 -0.00813029 -0.00835845 -0.00857351 -0.00877549 -0.00896395 -0.0091385 -0.00929913 -0.00944584 -0.00957922 -0.00969985 -0.00980774 -0.00990289 -0.00998663 -0.0100603 -0.010124 -0.0101775 -0.0102227 -0.0102612 -0.010293 -0.0103181 -0.0103379 -0.010354 -0.0103664 -0.0103751 -0.0103809 -0.0103846 -0.0103864 -0.0103862 -0.010384 -0.0103798 -0.0103735 -0.0103653 -0.0103541 -0.0103391 -0.0103204 -0.0102978 -0.01027 -0.0102355 -0.0101941 -0.010146 -0.0100895 -0.0100229 -0.00994619 -0.00985944 -0.00976131 -0.00965048 -0.00952696 -0.00939075 -0.0092413 -0.00907808 -0.00890108 -0.0087103 -0.0085062 -0.00828925 -0.00805943 -0.00781675 -0.00756267 -0.00729863 -0.00702464 -0.00674069 -0.006449 -0.0061518 -0.00584909 -0.00554087 -0.00522977 -0.00491842 -0.00460682 -0.00429498 -0.00398559 -0.00368132 -0.00338217 -0.00308816 -0.00280175 -0.00252543 -0.00225921 -0.00200307 -0.00175917 -0.00152965 -0.00131451 -0.00111374 -0.000928917 -0.000761593 -0.000611768 -0.000479444 -0.000364058 -0.000265047 -0.00018241 -0.000116148 -6.53335e-05 -2.90371e-05 -7.25927e-06 0 0 -9.95619e-06 -3.98247e-05 -8.96057e-05 -0.000159299 -0.000249338 -0.000360157 -0.000491755 -0.000644133 -0.000817783 -0.0010132 -0.00123038 -0.00146932 -0.00172787 -0.00200386 -0.00229729 -0.00260817 -0.00293364 -0.00327083 -0.00361975 -0.0039804 -0.00434954 -0.00472391 -0.00510353 -0.00548839 -0.00587506 -0.00626008 -0.00664347 -0.00702523 -0.00740205 -0.00777065 -0.00813102 -0.00848316 -0.00882439 -0.00915201 -0.00946601 -0.00976641 -0.0100516 -0.0103198 -0.0105711 -0.0108055 -0.0110227 -0.0112223 -0.0114043 -0.0115687 -0.0117165 -0.0118485 -0.0119649 -0.0120656 -0.0121524 -0.0122273 -0.0122904 -0.0123415 -0.012383 -0.0124172 -0.012444 -0.0124635 -0.0124776 -0.0124885 -0.012496 -0.0125002 -0.0125023 -0.0125033 -0.0125034 -0.0125025 -0.0125006 -0.0124977 -0.0124937 -0.0124888 -0.0124816 -0.012471 -0.012457 -0.0124397 -0.0124169 -0.0123867 -0.0123491 -0.0123041 -0.0122494 -0.0121827 -0.0121041 -0.0120135 -0.0119092 -0.0117891 -0.0116535 -0.0115021 -0.0113342 -0.0111489 -0.0109462 -0.0107261 -0.0104889 -0.0102351 -0.00996466 -0.00967761 -0.00937563 -0.0090604 -0.00873193 -0.00839022 -0.00803798 -0.00767791 -0.00731003 -0.00693432 -0.00655408 -0.00617258 -0.00578983 -0.00540582 -0.00502396 -0.00464764 -0.00427687 -0.00391163 -0.00355511 -0.00321048 -0.00287773 -0.00255688 -0.00225068 -0.00196191 -0.00169055 -0.00143661 -0.00120215 -0.000989225 -0.000797825 -0.000627955 -0.000479058 -0.000350579 -0.000242517 -0.000154872 -8.71156e-05 -3.8718e-05 -9.67951e-06 0 0 -1.28285e-05 -5.13138e-05 -0.000115456 -0.000205255 -0.000320448 -0.000460772 -0.000626226 -0.000816811 -0.00103291 -0.00127491 -0.00154281 -0.00183661 -0.00215353 -0.0024908 -0.00284842 -0.00322638 -0.00362111 -0.004029 -0.00445006 -0.0048843 -0.00532767 -0.00577615 -0.00622974 -0.00668844 -0.00714803 -0.00760428 -0.00805721 -0.00850681 -0.0089491 -0.0093801 -0.00979982 -0.0102083 -0.0106023 -0.0109786 -0.0113374 -0.0116786 -0.0120003 -0.0123008 -0.01258 -0.012838 -0.0130746 -0.0132896 -0.0134831 -0.0136549 -0.0138067 -0.0139397 -0.014054 -0.0141497 -0.0142293 -0.0142954 -0.014348 -0.0143871 -0.0144158 -0.0144371 -0.0144511 -0.0144577 -0.0144595 -0.0144593 -0.014457 -0.0144526 -0.0144476 -0.0144437 -0.0144407 -0.0144386 -0.0144376 -0.0144374 -0.0144382 -0.0144399 -0.014441 -0.0144399 -0.0144366 -0.0144311 -0.0144208 -0.0144029 -0.0143776 -0.0143448 -0.0143014 -0.0142445 -0.014174 -0.01409 -0.0139899 -0.0138711 -0.0137337 -0.0135776 -0.0134015 -0.0132039 -0.012985 -0.0127447 -0.0124832 -0.0122009 -0.0118976 -0.0115733 -0.0112301 -0.0108696 -0.010492 -0.0100973 -0.0096885 -0.00926895 -0.00883862 -0.00839749 -0.00794954 -0.00749874 -0.00704508 -0.00658855 -0.00613335 -0.00568363 -0.00523939 -0.00480064 -0.00437132 -0.00395538 -0.00355282 -0.00316364 -0.00279131 -0.00243932 -0.00210767 -0.00179634 -0.001508 -0.00124529 -0.0010082 -0.000796734 -0.000610434 -0.000448831 -0.000311926 -0.000199718 -0.000112341 -4.99295e-05 -1.24824e-05 0 0 -1.60999e-05 -6.43997e-05 -0.000144899 -0.000257599 -0.00040123 -0.000574524 -0.000777482 -0.0010101 -0.00127254 -0.00156493 -0.00188729 -0.00223962 -0.00261838 -0.00302006 -0.00344466 -0.00389218 -0.0043582 -0.00483828 -0.00533243 -0.00584065 -0.00635804 -0.00687969 -0.0074056 -0.00793577 -0.00846514 -0.00898865 -0.00950631 -0.0100181 -0.0105194 -0.0110055 -0.0114763 -0.011932 -0.0123689 -0.0127833 -0.0131754 -0.0135451 -0.0138905 -0.0142097 -0.0145027 -0.0147696 -0.0150104 -0.0152254 -0.0154146 -0.0155779 -0.0157175 -0.0158355 -0.0159319 -0.0160067 -0.0160635 -0.0161057 -0.0161334 -0.0161466 -0.0161492 -0.0161453 -0.0161349 -0.016118 -0.016098 -0.0160783 -0.0160591 -0.0160401 -0.0160235 -0.0160112 -0.0160032 -0.0159994 -0.016 -0.0160047 -0.0160137 -0.0160269 -0.0160423 -0.016058 -0.0160738 -0.0160899 -0.0161027 -0.0161088 -0.0161083 -0.016101 -0.016083 -0.0160504 -0.0160032 -0.0159412 -0.0158612 -0.0157595 -0.0156363 -0.0154915 -0.0153231 -0.015129 -0.0149092 -0.0146638 -0.0143927 -0.0140957 -0.0137729 -0.0134244 -0.0130519 -0.0126576 -0.0122414 -0.0118034 -0.011347 -0.0108761 -0.0103905 -0.00989038 -0.00938026 -0.00886486 -0.00834417 -0.0078182 -0.00729195 -0.00677042 -0.00625362 -0.00574154 -0.00523899 -0.00475077 -0.0042769 -0.00381736 -0.00337646 -0.00295848 -0.00256342 -0.00219128 -0.00184543 -0.00152923 -0.00124269 -0.000985811 -0.000758333 -0.000560013 -0.000390852 -0.000250849 -0.000141102 -6.27121e-05 -1.5678e-05 0 0 -1.97706e-05 -7.90823e-05 -0.000177935 -0.000316329 -0.000491682 -0.000701414 -0.000945523 -0.00122401 -0.00153666 -0.00188327 -0.00226383 -0.00267834 -0.00312241 -0.00359163 -0.00408602 -0.00460556 -0.0051449 -0.00569867 -0.00626686 -0.00684948 -0.00744066 -0.00803454 -0.00863111 -0.00923038 -0.00982639 -0.0104132 -0.0109908 -0.0115591 -0.0121129 -0.0126467 -0.0131605 -0.0136543 -0.0141242 -0.0145661 -0.01498 -0.0153659 -0.0157221 -0.0160465 -0.0163392 -0.0166002 -0.0168302 -0.0170297 -0.0171989 -0.0173376 -0.017449 -0.017536 -0.0175985 -0.0176367 -0.0176552 -0.0176585 -0.0176468 -0.01762 -0.0175833 -0.0175418 -0.0174955 -0.0174445 -0.0173931 -0.0173457 -0.0173023 -0.0172629 -0.0172299 -0.017206 -0.017191 -0.0171849 -0.0171878 -0.0171996 -0.0172202 -0.0172498 -0.0172857 -0.0173254 -0.0173689 -0.0174161 -0.0174628 -0.0175045 -0.0175411 -0.0175728 -0.0175943 -0.0176005 -0.0175914 -0.0175671 -0.017523 -0.0174544 -0.0173613 -0.0172439 -0.0170991 -0.0169241 -0.0167188 -0.0164834 -0.0162171 -0.0159196 -0.0155908 -0.0152307 -0.0148412 -0.0144244 -0.0139802 -0.0135085 -0.0130136 -0.0124994 -0.0119658 -0.011413 -0.0108462 -0.0102709 -0.00968712 -0.00909477 -0.00849977 -0.00790804 -0.00731956 -0.00673433 -0.00615812 -0.00559667 -0.00504999 -0.00451807 -0.00400612 -0.00351937 -0.0030578 -0.00262142 -0.00221444 -0.00184107 -0.00150132 -0.00119518 -0.000922756 -0.000684126 -0.000479296 -0.000308264 -0.000173399 -7.7066e-05 -1.92665e-05 0 0 -2.38404e-05 -9.53616e-05 -0.000214564 -0.000381446 -0.000591807 -0.000841441 -0.00113035 -0.00145853 -0.00182529 -0.00222991 -0.00267241 -0.00315278 -0.00366561 -0.00420552 -0.00477249 -0.00536653 -0.00598123 -0.00661017 -0.00725335 -0.00791077 -0.00857552 -0.00924069 -0.00990627 -0.0105723 -0.0112318 -0.0118779 -0.0125106 -0.0131299 -0.0137297 -0.0143039 -0.0148524 -0.0153753 -0.0158683 -0.0163269 -0.0167512 -0.0171412 -0.0174951 -0.0178112 -0.0180894 -0.0183299 -0.0185338 -0.0187025 -0.018836 -0.0189341 -0.0190011 -0.019041 -0.0190539 -0.0190396 -0.0190042 -0.0189537 -0.018888 -0.0188073 -0.0187179 -0.0186264 -0.0185329 -0.0184372 -0.0183448 -0.0182613 -0.0181867 -0.0181208 -0.0180669 -0.0180279 -0.018004 -0.017995 -0.0180011 -0.018022 -0.0180578 -0.0181086 -0.018171 -0.018242 -0.0183216 -0.0184098 -0.018501 -0.0185898 -0.0186762 -0.0187601 -0.0188351 -0.0188947 -0.0189389 -0.0189678 -0.0189753 -0.0189556 -0.0189088 -0.0188347 -0.0187295 -0.0185893 -0.0184139 -0.0182034 -0.0179567 -0.0176726 -0.0173511 -0.0169923 -0.0165979 -0.0161699 -0.0157082 -0.0152128 -0.0146882 -0.0141387 -0.0135644 -0.0129653 -0.0123474 -0.011717 -0.0110739 -0.0104182 -0.00975681 -0.00909647 -0.0084372 -0.00777902 -0.00712872 -0.00649307 -0.00587207 -0.00526574 -0.0046803 -0.00412199 -0.00359081 -0.00308676 -0.00261503 -0.0021808 -0.00178407 -0.00142486 -0.0011037 -0.00082117 -0.000577257 -0.000371965 -0.00020923 -9.29911e-05 -2.32478e-05 0 0 -2.82593e-05 -0.000113037 -0.000254334 -0.000452149 -0.000700354 -0.000992823 -0.00132955 -0.00171055 -0.00213446 -0.00259995 -0.00310701 -0.00365564 -0.00423928 -0.00485138 -0.00549194 -0.00616094 -0.00685083 -0.007554 -0.00827048 -0.00900024 -0.00973525 -0.0104674 -0.0111968 -0.0119234 -0.0126393 -0.0133365 -0.014015 -0.014675 -0.0153094 -0.0159115 -0.0164814 -0.0170189 -0.0175194 -0.0179783 -0.0183957 -0.0187714 -0.0191041 -0.0193922 -0.0196357 -0.0198346 -0.0199911 -0.0201072 -0.020183 -0.0202184 -0.0202189 -0.0201898 -0.0201311 -0.0200429 -0.0199327 -0.0198081 -0.0196691 -0.0195156 -0.0193559 -0.0191979 -0.0190417 -0.0188873 -0.0187414 -0.0186108 -0.0184954 -0.0183953 -0.0183142 -0.0182559 -0.0182205 -0.0182079 -0.0182181 -0.018251 -0.0183066 -0.0183849 -0.018482 -0.018594 -0.018721 -0.0188628 -0.0190128 -0.0191642 -0.0193169 -0.019471 -0.0196183 -0.0197509 -0.0198686 -0.0199716 -0.0200524 -0.0201034 -0.0201246 -0.0201162 -0.0200727 -0.019989 -0.0198651 -0.0197009 -0.0194946 -0.0192442 -0.0189496 -0.0186109 -0.0182297 -0.0178077 -0.0173447 -0.0168409 -0.016301 -0.0157296 -0.0151268 -0.0144926 -0.0138339 -0.0131574 -0.0124631 -0.0117512 -0.0110294 -0.0103055 -0.00957965 -0.00885176 -0.00812975 -0.00742154 -0.00672714 -0.00604654 -0.00538711 -0.00475625 -0.00415394 -0.00358019 -0.00304131 -0.00254362 -0.00208711 -0.00167179 -0.00129884 -0.000969412 -0.000683524 -0.000441171 -0.000248159 -0.000110293 -2.75732e-05 0 0 -3.29771e-05 -0.000131908 -0.000296793 -0.000527633 -0.000816077 -0.00115378 -0.00154074 -0.00197695 -0.00246025 -0.00298846 -0.00356159 -0.00417963 -0.0048347 -0.00551889 -0.00623221 -0.00697466 -0.00773736 -0.00851141 -0.00929684 -0.0100936 -0.0108925 -0.0116841 -0.0124685 -0.0132458 -0.0140068 -0.0147426 -0.0154534 -0.0161389 -0.0167918 -0.0174044 -0.0179767 -0.0185088 -0.0189959 -0.019433 -0.0198201 -0.0201574 -0.0204437 -0.0206779 -0.0208601 -0.0209902 -0.0210716 -0.0211072 -0.0210972 -0.0210415 -0.0209472 -0.0208212 -0.0206636 -0.0204743 -0.0202628 -0.0200386 -0.0198017 -0.0195522 -0.0192999 -0.0190548 -0.0188169 -0.0185863 -0.0183711 -0.0181796 -0.0180118 -0.0178677 -0.0177518 -0.0176689 -0.0176188 -0.0176016 -0.0176172 -0.0176655 -0.0177466 -0.0178604 -0.0180022 -0.0181673 -0.0183556 -0.0185672 -0.0187937 -0.0190269 -0.0192668 -0.0195133 -0.0197566 -0.0199867 -0.0202036 -0.0204073 -0.0205885 -0.0207377 -0.0208549 -0.0209402 -0.0209868 -0.0209878 -0.0209431 -0.0208529 -0.0207141 -0.0205237 -0.0202818 -0.0199882 -0.0196443 -0.0192513 -0.0188091 -0.0183178 -0.0177823 -0.0172076 -0.0165936 -0.0159404 -0.0152555 -0.0145465 -0.0138134 -0.0130561 -0.0122837 -0.011505 -0.01072 -0.00992868 -0.0091402 -0.00836369 -0.00759916 -0.0068466 -0.00611466 -0.00541201 -0.00473865 -0.00409458 -0.0034874 -0.00292474 -0.0024066 -0.00193296 -0.00150581 -0.00112712 -0.000796886 -0.000515105 -0.000289747 -0.000128776 -3.21941e-05 0 0 -3.79937e-05 -0.000151975 -0.000341943 -0.000607899 -0.000938976 -0.00132431 -0.00176389 -0.00225773 -0.00280264 -0.00339545 -0.00403616 -0.00472476 -0.00545185 -0.00620804 -0.00699331 -0.00780768 -0.00864081 -0.00948239 -0.0103324 -0.0111909 -0.0120472 -0.0128907 -0.0137214 -0.0145393 -0.0153343 -0.0160964 -0.0168255 -0.0175217 -0.0181767 -0.0187823 -0.0193385 -0.0198453 -0.0202977 -0.0206908 -0.0210246 -0.0212991 -0.0215138 -0.0216683 -0.0217627 -0.0217968 -0.0217753 -0.0217025 -0.0215786 -0.0214035 -0.0211861 -0.0209353 -0.0206512 -0.0203336 -0.0199944 -0.0196452 -0.019286 -0.0189169 -0.0185498 -0.018197 -0.0178585 -0.0175341 -0.017234 -0.0169679 -0.0167359 -0.016538 -0.0163798 -0.0162667 -0.0161988 -0.016176 -0.0161984 -0.0162657 -0.016378 -0.0165352 -0.0167318 -0.0169619 -0.0172256 -0.0175228 -0.0178436 -0.0181779 -0.0185258 -0.0188872 -0.0192501 -0.0196023 -0.0199439 -0.0202748 -0.0205835 -0.0208585 -0.0210996 -0.021307 -0.0214719 -0.0215856 -0.0216481 -0.0216594 -0.0216152 -0.0215113 -0.0213476 -0.0211242 -0.0208417 -0.0205007 -0.0201013 -0.0196434 -0.0191321 -0.0185725 -0.0179646 -0.0173085 -0.0166122 -0.0158843 -0.0151246 -0.0143331 -0.0135199 -0.0126949 -0.0118582 -0.0110098 -0.0101601 -0.00931951 -0.00848813 -0.00766592 -0.00686295 -0.0060893 -0.00534496 -0.00462993 -0.00395331 -0.00332417 -0.00274252 -0.00220836 -0.00172464 -0.0012943 -0.000917341 -0.000593767 -0.000333994 -0.000148442 -3.71104e-05 0 0 -4.33093e-05 -0.000173237 -0.000389783 -0.000692948 -0.00106905 -0.00150441 -0.00199902 -0.00255289 -0.00316165 -0.00382092 -0.00453071 -0.00529102 -0.00609075 -0.00691882 -0.00777524 -0.00866 -0.0095612 -0.0104669 -0.0113772 -0.0122921 -0.0131994 -0.0140872 -0.0149554 -0.015804 -0.0166219 -0.0173977 -0.0181316 -0.0188234 -0.0194644 -0.0200455 -0.0205667 -0.0210282 -0.0214248 -0.0217518 -0.022009 -0.0221965 -0.0223145 -0.0223635 -0.0223435 -0.0222543 -0.0221022 -0.0218931 -0.0216271 -0.0213042 -0.0209355 -0.0205321 -0.0200939 -0.019621 -0.0191276 -0.018628 -0.018122 -0.0176098 -0.0171058 -0.0166247 -0.0161663 -0.0157308 -0.0153299 -0.0149755 -0.0146676 -0.0144063 -0.014198 -0.0140494 -0.0139605 -0.0139313 -0.0139616 -0.0140514 -0.0142006 -0.0144093 -0.0146706 -0.0149778 -0.0153308 -0.0157298 -0.0161626 -0.0166173 -0.017094 -0.0175927 -0.0180987 -0.0185976 -0.0190895 -0.0195741 -0.0200376 -0.0204659 -0.0208588 -0.0212165 -0.021528 -0.0217825 -0.0219799 -0.0221204 -0.022198 -0.0222069 -0.0221472 -0.0220189 -0.0218218 -0.0215559 -0.0212212 -0.0208176 -0.0203504 -0.0198245 -0.01924 -0.0185969 -0.0179042 -0.0171708 -0.0163968 -0.0155821 -0.0147379 -0.0138753 -0.0129944 -0.0120951 -0.0111894 -0.010289 -0.00939405 -0.0085045 -0.00763198 -0.00678809 -0.00597285 -0.00518625 -0.00443902 -0.0037419 -0.00309489 -0.002498 -0.00195531 -0.00147094 -0.00104489 -0.000677155 -0.0003809 -0.000169289 -4.23222e-05 0 0 -4.8854e-05 -0.000195416 -0.000439686 -0.000781664 -0.00120458 -0.00169167 -0.00224292 -0.00285835 -0.0035322 -0.0042587 -0.00503787 -0.00586971 -0.00674124 -0.00763952 -0.00856454 -0.0095163 -0.0104812 -0.0114456 -0.0124095 -0.0133728 -0.0143221 -0.0152438 -0.0161377 -0.0170039 -0.0178301 -0.0186037 -0.0193249 -0.0199935 -0.0206 -0.0211349 -0.0215982 -0.0219899 -0.022305 -0.0225389 -0.0226914 -0.0227626 -0.0227538 -0.0226663 -0.0225001 -0.0222551 -0.0219395 -0.0215609 -0.0211195 -0.0206153 -0.0200618 -0.0194728 -0.0188482 -0.0181881 -0.0175094 -0.0168294 -0.016148 -0.0154652 -0.0147984 -0.0141647 -0.0135643 -0.0129971 -0.0124772 -0.0120185 -0.011621 -0.0112848 -0.0110177 -0.0108273 -0.0107137 -0.0106769 -0.0107167 -0.0108331 -0.0110259 -0.0112953 -0.0116331 -0.0120314 -0.0124901 -0.0130094 -0.0135749 -0.0141727 -0.0148026 -0.0154646 -0.0161416 -0.0168161 -0.0174881 -0.0181578 -0.018808 -0.019422 -0.0199996 -0.020541 -0.0210326 -0.0214612 -0.0218267 -0.0221291 -0.0223608 -0.0225143 -0.0225894 -0.0225862 -0.0225036 -0.0223407 -0.0220974 -0.0217737 -0.0213747 -0.0209054 -0.0203658 -0.0197559 -0.0190853 -0.0183638 -0.0175912 -0.0167676 -0.0159053 -0.0150167 -0.0141018 -0.0131607 -0.0122066 -0.011253 -0.0102999 -0.00934731 -0.00840853 -0.00749689 -0.00661237 -0.00575499 -0.00493731 -0.00417189 -0.00345874 -0.00279786 -0.00219469 -0.00165469 -0.00117785 -0.000764181 -0.000429852 -0.000191045 -4.77613e-05 0 0 -5.45582e-05 -0.000218233 -0.000491024 -0.000872931 -0.00134385 -0.00188367 -0.00249239 -0.00317002 -0.00390921 -0.00470263 -0.00555026 -0.00645213 -0.00739318 -0.00835839 -0.00934775 -0.0103613 -0.0113834 -0.0123988 -0.0134072 -0.0144089 -0.0153884 -0.0163306 -0.0172355 -0.018103 -0.0189195 -0.0196714 -0.0203587 -0.0209813 -0.0215291 -0.0219919 -0.0223698 -0.0226626 -0.0228659 -0.0229749 -0.0229898 -0.0229105 -0.0227395 -0.0224793 -0.02213 -0.0216916 -0.0211741 -0.0205877 -0.0199324 -0.0192081 -0.0184314 -0.0176189 -0.0167706 -0.0158864 -0.0149868 -0.0140922 -0.0132024 -0.0123175 -0.011458 -0.0106442 -0.00987625 -0.00915403 -0.00849403 -0.0079127 -0.00741005 -0.00698607 -0.00664986 -0.00641051 -0.00626802 -0.00622239 -0.00627345 -0.00642103 -0.00666512 -0.00700574 -0.00743347 -0.00793895 -0.00852216 -0.0091831 -0.00990516 -0.0106717 -0.0114827 -0.0123382 -0.0132178 -0.014101 -0.0149878 -0.0158782 -0.0167521 -0.0175891 -0.0183894 -0.0191529 -0.0198634 -0.0205045 -0.0210764 -0.0215789 -0.0220024 -0.022337 -0.0225829 -0.0227399 -0.0228059 -0.0227787 -0.0226583 -0.0224447 -0.0221426 -0.0217571 -0.021288 -0.0207354 -0.0201096 -0.0194207 -0.0186689 -0.017854 -0.0169898 -0.0160898 -0.0151541 -0.0141826 -0.0131903 -0.0121923 -0.0111887 -0.0101793 -0.0091794 -0.00820416 -0.00725357 -0.00632764 -0.00544094 -0.0046081 -0.0038291 -0.00310395 -0.00243965 -0.00184318 -0.00131455 -0.000853751 -0.000480235 -0.000213438 -5.33594e-05 0 0 -6.04218e-05 -0.000241687 -0.000543797 -0.00096675 -0.00148685 -0.00208041 -0.00274743 -0.0034879 -0.0042927 -0.00515269 -0.00606789 -0.00703828 -0.00804656 -0.00907543 -0.0101249 -0.0111949 -0.012268 -0.0133265 -0.0143706 -0.0154001 -0.0163981 -0.0173477 -0.0182487 -0.0191012 -0.0198902 -0.0206009 -0.0212331 -0.021787 -0.0222517 -0.0226165 -0.0228814 -0.0230465 -0.0231074 -0.02306 -0.0229042 -0.0226401 -0.0222716 -0.0218027 -0.0212334 -0.0205637 -0.0198063 -0.0189736 -0.0180657 -0.0170826 -0.0160442 -0.0149703 -0.013861 -0.0127161 -0.0115599 -0.0104162 -0.00928513 -0.00816667 -0.00708474 -0.00606324 -0.00510217 -0.00420153 -0.00338049 -0.00265821 -0.00203471 -0.00150998 -0.00109457 -0.000799076 -0.000623478 -0.000567781 -0.000631782 -0.000815278 -0.00111827 -0.00154075 -0.00207181 -0.00270053 -0.00342689 -0.00425091 -0.0051532 -0.00611439 -0.00713447 -0.00821345 -0.0093274 -0.0104524 -0.0115884 -0.0127355 -0.0138697 -0.0149673 -0.0160281 -0.0170523 -0.0180203 -0.0189126 -0.019729 -0.0204698 -0.0211226 -0.0216752 -0.0221277 -0.0224801 -0.0227287 -0.02287 -0.0229039 -0.0228305 -0.0226543 -0.0223797 -0.0220068 -0.0215356 -0.0209769 -0.0203417 -0.0196299 -0.0188415 -0.0179915 -0.0170947 -0.0161511 -0.0151608 -0.0141405 -0.013107 -0.0120603 -0.0110004 -0.00994459 -0.00890992 -0.00789645 -0.00690418 -0.00594993 -0.00505053 -0.00420598 -0.00341628 -0.00269017 -0.0020364 -0.00145497 -0.000945867 -0.00053205 -0.000236467 -5.91167e-05 0 0 -6.6445e-05 -0.00026578 -0.000598005 -0.00106312 -0.00163359 -0.0022819 -0.00300803 -0.00381199 -0.00468265 -0.0056089 -0.00659074 -0.00762816 -0.00870139 -0.00979064 -0.0108959 -0.0120172 -0.0131348 -0.0142289 -0.0152995 -0.0163466 -0.0173514 -0.018295 -0.0191774 -0.0199985 -0.0207421 -0.021392 -0.0219481 -0.0224104 -0.0227677 -0.0230086 -0.0231332 -0.0231414 -0.0230296 -0.022794 -0.0224346 -0.0219515 -0.0213502 -0.0206364 -0.0198102 -0.0188715 -0.0178358 -0.0167185 -0.0155195 -0.0142389 -0.0129003 -0.0115271 -0.0101194 -0.00867712 -0.00722846 -0.0058015 -0.00439624 -0.00301269 -0.00167859 -0.000421707 0.000757955 0.0018604 0.00286346 0.00374499 0.00450499 0.00514345 0.00564818 0.00600701 0.00621993 0.00628693 0.00620827 0.00598418 0.00561465 0.00509969 0.0044519 0.00368389 0.00279565 0.00178719 0.000680921 -0.000500752 -0.00175782 -0.00309029 -0.00447038 -0.00587028 -0.00729 -0.00872954 -0.010161 -0.0115564 -0.0129158 -0.0142392 -0.0155034 -0.0166852 -0.0177847 -0.0188017 -0.0197215 -0.0205289 -0.021224 -0.0218068 -0.0222721 -0.0226146 -0.0228343 -0.0229313 -0.0229095 -0.0227731 -0.022522 -0.0221563 -0.0216874 -0.0211267 -0.0204742 -0.01973 -0.0189102 -0.0180312 -0.0170929 -0.01