<?xml version="1.0"?> 
<VTKFile type="StructuredGrid" version="0.1"> 
<StructuredGrid WholeExtent="0 128 0 128 0 0"> 
<Piece Extent="0 128 0 128 0 0"> 
<PointData>
<DataArray type="Float32" Name="u" format="ascii" NumberOfComponents="1"> 
0 0 0 0 0 0 0 0 0 0 0 0 0 0 0 0 0 0 0 0 0 0 0 0 0 0 0 0 0 0 0 0 0 0 0 0 0 0 0 0 0 0 0 0 0 0 0 0 0 0 0 0 0 0 0 0 0 0 0 0 0 0 0 0 0 0 0 0 0 0 0 0 0 0 0 0 0 0 0 0 0 0 0 0 0 0 0 0 0 0 0 0 0 0 0 0 0 0 0 0 0 0 0 0 0 0 0 0 0 0 0 0 0 0 0 0 0 0 0 0 0 0 0 0 0 0 0 0 0 0 1.0738e-07 4.29522e-07 9.66424e-07 1.71809e-06 2.50272e-06 3.13855e-06 3.62556e-06 3.96375e-06 4.05246e-06 3.79103e-06 3.17944e-06 2.21771e-06 8.4438e-07 -1.00199e-06 -3.3214e-06 -6.11385e-06 -9.39724e-06 -1.31895e-05 -1.74905e-05 -2.23004e-05 -2.76038e-05 -3.33856e-05 -3.96456e-05 -4.63839e-05 -5.35581e-05 -6.1126e-05 -6.90874e-05 -7.74425e-05 -8.61288e-05 -9.50842e-05 -0.000104308 -0.000113802 -0.00012349 -0.000133301 -0.000143233 -0.000153286 -0.000163385 -0.000173453 -0.000183489 -0.000193493 -0.000203394 -0.000213118 -0.000222665 -0.000232036 -0.000241167 -0.000249992 -0.000258513 -0.000266729 -0.000274587 -0.000282034 -0.000289071 -0.000295696 -0.00030187 -0.000307552 -0.000312741 -0.000317438 -0.000321616 -0.000325246 -0.000328328 -0.000330864 -0.000332838 -0.000334237 -0.000335061 -0.00033531 -0.000334985 -0.000334085 -0.000332611 -0.000330562 -0.000327953 -0.000324799 -0.000321099 -0.000316853 -0.00031209 -0.000306837 -0.000301095 -0.000294864 -0.000288184 -0.000281098 -0.000273605 -0.000265705 -0.000257451 -0.000248898 -0.000240045 -0.000230893 -0.000221505 -0.000211945 -0.000202215 -0.000192314 -0.000182314 -0.000172288 -0.000162236 -0.000152158 -0.00014213 -0.000132228 -0.000122453 -0.000112803 -0.000103353 -9.41743e-05 -8.52678e-05 -7.66331e-05 -6.83317e-05 -6.04248e-05 -5.29123e-05 -4.57944e-05 -3.91122e-05 -3.29071e-05 -2.7179e-05 -2.19279e-05 -1.71683e-05 -1.29145e-05 -9.16647e-06 -5.92428e-06 -3.16946e-06 -8.83598e-07 9.33312e-07 2.28127e-06 3.22168e-06 3.81597e-06 4.06414e-06 3.96618e-06 3.62202e-06 3.13162e-06 2.49497e-06 1.71206e-06 9.63034e-07 4.28015e-07 1.07004e-07 0 0 4.29522e-07 1.71809e-06 3.8657e-06 6.87235e-06 1.00109e-05 1.25542e-05 1.45022e-05 1.5855e-05 1.62098e-05 1.51641e-05 1.27178e-05 8.87083e-06 3.37752e-06 -4.00796e-06 -1.32856e-05 -2.44554e-05 -3.7589e-05 -5.27578e-05 -6.99621e-05 -8.92016e-05 -0.000110415 -0.000133542 -0.000158582 -0.000185536 -0.000214233 -0.000244504 -0.00027635 -0.00030977 -0.000344515 -0.000380337 -0.000417234 -0.000455207 -0.000493962 -0.000533203 -0.000572931 -0.000613146 -0.000653541 -0.000693811 -0.000733955 -0.000773973 -0.000813576 -0.000852472 -0.000890662 -0.000928145 -0.000964666 -0.000999968 -0.00103405 -0.00106691 -0.00109835 -0.00112814 -0.00115628 -0.00118278 -0.00120748 -0.00123021 -0.00125096 -0.00126975 -0.00128646 -0.00130098 -0.00131331 -0.00132345 -0.00133135 -0.00133695 -0.00134024 -0.00134124 -0.00133994 -0.00133634 -0.00133044 -0.00132225 -0.00131181 -0.0012992 -0.00128439 -0.00126741 -0.00124836 -0.00122735 -0.00120438 -0.00117946 -0.00115274 -0.00112439 -0.00109442 -0.00106282 -0.00102981 -0.000995593 -0.000960181 -0.000923571 -0.000886018 -0.000847781 -0.00080886 -0.000769255 -0.000729255 -0.000689151 -0.000648943 -0.000608631 -0.00056852 -0.000528912 -0.00048981 -0.000451212 -0.000413411 -0.000376697 -0.000341071 -0.000306533 -0.000273327 -0.000241699 -0.000211649 -0.000183178 -0.000156449 -0.000131628 -0.000108716 -8.77116e-05 -6.86731e-05 -5.16579e-05 -3.66659e-05 -2.36971e-05 -1.26778e-05 -3.53439e-06 3.73325e-06 9.12507e-06 1.28867e-05 1.52639e-05 1.62566e-05 1.58647e-05 1.44881e-05 1.25265e-05 9.97986e-06 6.84824e-06 3.85214e-06 1.71206e-06 4.28015e-07 0 0 9.66424e-07 3.8657e-06 8.69782e-06 1.54628e-05 2.25245e-05 2.82469e-05 3.263e-05 3.56737e-05 3.64722e-05 3.41192e-05 2.8615e-05 1.99594e-05 7.59942e-06 -9.01791e-06 -2.98926e-05 -5.50247e-05 -8.45752e-05 -0.000118705 -0.000157415 -0.000200704 -0.000248435 -0.00030047 -0.00035681 -0.000417455 -0.000482023 -0.000550134 -0.000621787 -0.000696982 -0.000775159 -0.000855757 -0.000938776 -0.00102422 -0.00111141 -0.00119971 -0.0012891 -0.00137958 -0.00147047 -0.00156107 -0.0016514 -0.00174144 -0.00183055 -0.00191806 -0.00200399 -0.00208833 -0.0021705 -0.00224993 -0.00232661 -0.00240056 -0.00247128 -0.00253831 -0.00260163 -0.00266126 -0.00271683 -0.00276797 -0.00281467 -0.00285695 -0.00289454 -0.00292721 -0.00295496 -0.00297777 -0.00299554 -0.00300813 -0.00301555 -0.00301779 -0.00301486 -0.00300677 -0.0029935 -0.00297506 -0.00295158 -0.00292319 -0.00288989 -0.00285168 -0.00280881 -0.00276153 -0.00270986 -0.00265377 -0.00259366 -0.00252988 -0.00246244 -0.00239134 -0.00231706 -0.00224008 -0.00216041 -0.00207803 -0.00199354 -0.00190751 -0.00181994 -0.00173082 -0.00164082 -0.00155059 -0.00146012 -0.00136942 -0.00127917 -0.00119005 -0.00110207 -0.00101523 -0.000930175 -0.000847569 -0.00076741 -0.000689698 -0.000614986 -0.000543823 -0.000476211 -0.00041215 -0.00035201 -0.000296163 -0.000244611 -0.000197351 -0.000154515 -0.00011623 -8.24982e-05 -5.33185e-05 -2.85251e-05 -7.95238e-06 8.3998e-06 2.05314e-05 2.89952e-05 3.43438e-05 3.65772e-05 3.56956e-05 3.25982e-05 2.81846e-05 2.24547e-05 1.54085e-05 8.66731e-06 3.85214e-06 9.63034e-07 0 0 1.71809e-06 6.87235e-06 1.54628e-05 2.74894e-05 4.00436e-05 5.02167e-05 5.80089e-05 6.342e-05 6.48394e-05 6.06564e-05 5.08711e-05 3.54833e-05 1.35101e-05 -1.60318e-05 -5.31424e-05 -9.78216e-05 -0.000150356 -0.000211031 -0.000279848 -0.000356806 -0.000441662 -0.000534169 -0.00063433 -0.000742142 -0.00085693 -0.000978016 -0.0011054 -0.00123908 -0.00137806 -0.00152135 -0.00166894 -0.00182083 -0.00197585 -0.00213281 -0.00229172 -0.00245258 -0.00261416 -0.00277524 -0.00293582 -0.00309589 -0.0032543 -0.00340989 -0.00356265 -0.00371258 -0.00385866 -0.00399987 -0.0041362 -0.00426766 -0.00439339 -0.00451255 -0.00462513 -0.00473114 -0.00482992 -0.00492083 -0.00500386 -0.00507901 -0.00514585 -0.00520393 -0.00525325 -0.00529382 -0.00532541 -0.00534779 -0.00536098 -0.00536497 -0.00535976 -0.00534536 -0.00532177 -0.00528899 -0.00524725 -0.00519678 -0.00513758 -0.00506965 -0.00499344 -0.00490939 -0.00481752 -0.00471782 -0.00461095 -0.00449757 -0.00437768 -0.00425128 -0.00411922 -0.00398237 -0.00384073 -0.00369428 -0.00354407 -0.00339112 -0.00323544 -0.00307702 -0.00291702 -0.0027566 -0.00259577 -0.00243453 -0.00227408 -0.00211565 -0.00195924 -0.00180485 -0.00165364 -0.00150679 -0.00136428 -0.00122613 -0.00109331 -0.000966797 -0.000846598 -0.00073271 -0.000625795 -0.000526513 -0.000434863 -0.000350847 -0.000274693 -0.000206632 -0.000146664 -9.47884e-05 -5.07114e-05 -1.41376e-05 1.4933e-05 3.65003e-05 5.1547e-05 6.10556e-05 6.50262e-05 6.34588e-05 5.79524e-05 5.01059e-05 3.99195e-05 2.7393e-05 1.54085e-05 6.84824e-06 1.71206e-06 0 0 2.49445e-06 9.97778e-06 2.245e-05 3.99111e-05 5.80116e-05 7.24019e-05 8.30819e-05 9.00518e-05 9.08915e-05 8.31811e-05 6.69205e-05 4.21097e-05 7.28373e-06 -3.90226e-05 -9.68092e-05 -0.000166076 -0.000247235 -0.000340697 -0.000446462 -0.00056453 -0.000694507 -0.000835998 -0.000989004 -0.00115352 -0.00132851 -0.00151291 -0.00170672 -0.00190995 -0.00212107 -0.00233854 -0.00256237 -0.00279257 -0.00302733 -0.00326486 -0.00350516 -0.00374825 -0.00399225 -0.00423533 -0.00447749 -0.00471873 -0.00495731 -0.00519148 -0.00542126 -0.00564664 -0.0058661 -0.00607812 -0.0062827 -0.00647984 -0.00666829 -0.00684681 -0.00701541 -0.00717407 -0.00732185 -0.00745781 -0.00758194 -0.00769425 -0.00779409 -0.00788084 -0.0079545 -0.00801505 -0.00806219 -0.0080956 -0.00811528 -0.00812122 -0.00811344 -0.00809194 -0.00805672 -0.00800778 -0.00794546 -0.00787007 -0.00778163 -0.00768014 -0.00756623 -0.00744057 -0.00730315 -0.00715398 -0.006994 -0.0068242 -0.00664455 -0.00645507 -0.00625702 -0.00605164 -0.00583894 -0.00561893 -0.00539311 -0.00516304 -0.00492869 -0.00469008 -0.00444894 -0.004207 -0.00396428 -0.00372076 -0.00347828 -0.00323869 -0.00300199 -0.00276817 -0.002539 -0.00231627 -0.00209997 -0.0018901 -0.00168816 -0.00149566 -0.0013126 -0.00113898 -0.000975824 -0.000824151 -0.000683964 -0.000555263 -0.000438421 -0.00033381 -0.00024143 -0.000161282 -9.29398e-05 -3.598e-05 9.59776e-06 4.37935e-05 6.80718e-05 8.38975e-05 9.12706e-05 9.0191e-05 8.30615e-05 7.22847e-05 5.78608e-05 3.97896e-05 2.23816e-05 9.9474e-06 2.48685e-06 0 0 3.10543e-06 1.24217e-05 2.79489e-05 4.96869e-05 7.1872e-05 8.87405e-05 0.000100292 0.000106527 0.000104208 9.00985e-05 6.41976e-05 2.65055e-05 -2.49054e-05 -9.1963e-05 -0.000174667 -0.000273018 -0.000387517 -0.000518662 -0.000666455 -0.000830895 -0.00101138 -0.00120732 -0.0014187 -0.00164553 -0.00188631 -0.00213957 -0.00240529 -0.00268348 -0.00297202 -0.00326877 -0.00357375 -0.00388695 -0.00420591 -0.00452818 -0.00485376 -0.00518265 -0.00551235 -0.00584036 -0.0061667 -0.00649135 -0.00681201 -0.00712638 -0.00743445 -0.00773623 -0.00802973 -0.00831297 -0.00858597 -0.00884871 -0.00909961 -0.00933707 -0.00956111 -0.00977172 -0.00996772 -0.0101479 -0.0103123 -0.0104609 -0.010593 -0.0107076 -0.010805 -0.0108849 -0.0109471 -0.0109912 -0.0110172 -0.011025 -0.0110147 -0.0109863 -0.0109398 -0.0108752 -0.0107928 -0.0106932 -0.0105762 -0.010442 -0.0102912 -0.0101247 -0.00994252 -0.00974462 -0.00953222 -0.00930652 -0.00906751 -0.0088152 -0.00855118 -0.00827708 -0.00799287 -0.00769857 -0.00739617 -0.00708764 -0.006773 -0.00645224 -0.00612767 -0.00580159 -0.00547401 -0.00514493 -0.00481682 -0.00449218 -0.00417099 -0.00385326 -0.00354143 -0.00323792 -0.00294273 -0.00265587 -0.00237941 -0.00211547 -0.00186403 -0.00162509 -0.00140012 -0.00119055 -0.000996404 -0.000817667 -0.000654914 -0.000508714 -0.000379067 -0.000265973 -0.000168914 -8.73698e-05 -2.13409e-05 2.91727e-05 6.60995e-05 9.13677e-05 0.000104978 0.000106929 0.000100436 8.87153e-05 7.17653e-05 4.95865e-05 2.78924e-05 1.23966e-05 3.09915e-06 0 0 3.55105e-06 1.42042e-05 3.19594e-05 5.68168e-05 8.16249e-05 9.92326e-05 0.00010964 0.000112846 0.00010479 8.14088e-05 4.27024e-05 -1.13292e-05 -8.30573e-05 -0.000174853 -0.000286717 -0.000418648 -0.000571201 -0.000744927 -0.000939827 -0.0011559 -0.00139229 -0.00164812 -0.00192341 -0.00221815 -0.00253034 -0.00285799 -0.0032011 -0.00355967 -0.00393092 -0.00431205 -0.00470307 -0.00510398 -0.0055116 -0.00592278 -0.00633751 -0.00675579 -0.00717445 -0.00759033 -0.00800343 -0.00841375 -0.00881842 -0.00921458 -0.00960222 -0.00998135 -0.0103496 -0.0107044 -0.011046 -0.0113743 -0.0116873 -0.0119833 -0.0122622 -0.0125241 -0.0127675 -0.0129912 -0.013195 -0.0133791 -0.0135425 -0.0136843 -0.0138047 -0.0139034 -0.0139803 -0.0140347 -0.0140667 -0.0140763 -0.0140636 -0.0140285 -0.013971 -0.0138911 -0.0137893 -0.0136661 -0.0135213 -0.0133551 -0.0131683 -0.0129618 -0.0127356 -0.0124898 -0.0122256 -0.0119445 -0.0116465 -0.0113316 -0.0110017 -0.0106587 -0.0103025 -0.00993322 -0.00955323 -0.00916495 -0.00876837 -0.00836351 -0.00795322 -0.00754038 -0.00712499 -0.00670704 -0.00628969 -0.0058761 -0.00546625 -0.00506014 -0.00466093 -0.00427174 -0.00389258 -0.00352344 -0.00316707 -0.00282621 -0.00250087 -0.00219104 -0.00189867 -0.00162572 -0.00137218 -0.00113806 -0.000924171 -0.000731343 -0.000559574 -0.000408863 -0.000278634 -0.000168307 -7.7883e-05 -7.36195e-06 4.56299e-05 8.34662e-05 0.000106147 0.000113672 0.000110077 9.93975e-05 8.16329e-05 5.67836e-05 3.19408e-05 1.41959e-05 3.54897e-06 0 0 3.83129e-06 1.53252e-05 3.44816e-05 6.13007e-05 8.72702e-05 0.000103878 0.000111124 0.000109009 9.26367e-05 5.7112e-05 2.43491e-06 -7.13945e-05 -0.000167172 -0.000287693 -0.000432958 -0.000602966 -0.000798287 -0.00101949 -0.00126658 -0.00153955 -0.00183722 -0.00215842 -0.00250314 -0.00287139 -0.00326059 -0.00366818 -0.00409416 -0.00453852 -0.00499776 -0.00546836 -0.00595032 -0.00644365 -0.0069444 -0.00744866 -0.00795641 -0.00846766 -0.00897856 -0.00948523 -0.00998769 -0.0104859 -0.0109765 -0.0114561 -0.0119246 -0.012382 -0.0128256 -0.0132525 -0.0136628 -0.0140565 -0.0144315 -0.0147856 -0.0151188 -0.0154312 -0.0157213 -0.0159875 -0.01623 -0.0164487 -0.0166426 -0.0168109 -0.0169536 -0.0170706 -0.0171615 -0.0172259 -0.0172638 -0.0172752 -0.0172601 -0.0172184 -0.0171503 -0.0170557 -0.016935 -0.0167888 -0.016617 -0.0164196 -0.0161975 -0.0159518 -0.0156825 -0.0153894 -0.0150741 -0.0147382 -0.0143817 -0.0140044 -0.0136086 -0.0131964 -0.0127679 -0.0123229 -0.0118643 -0.0113949 -0.0109148 -0.0104239 -0.00992558 -0.00942336 -0.00891719 -0.00840709 -0.0078969 -0.00739045 -0.00688776 -0.00638881 -0.0058975 -0.00541773 -0.0049495 -0.00449281 -0.00405112 -0.00362789 -0.00322313 -0.00283682 -0.00247149 -0.00212965 -0.0018113 -0.00151644 -0.00124619 -0.0010017 -0.00078295 -0.000589951 -0.000422099 -0.000278791 -0.000160029 -6.58106e-05 6.66313e-06 6.0193e-05 9.4779e-05 0.000110421 0.000111984 0.000104331 8.74638e-05 6.13809e-05 3.45268e-05 1.53452e-05 3.83631e-06 0 0 3.83857e-06 1.53543e-05 3.45472e-05 6.14172e-05 8.62201e-05 9.92116e-05 0.000100392 8.97604e-05 6.16315e-05 1.03189e-05 -6.41774e-05 -0.000161857 -0.000285873 -0.000439377 -0.000622368 -0.000834847 -0.00107733 -0.00135033 -0.00165384 -0.00198787 -0.00235084 -0.00274117 -0.00315888 -0.00360395 -0.00407316 -0.00456331 -0.00507439 -0.00560639 -0.00615503 -0.006716 -0.00728931 -0.00787495 -0.00846821 -0.00906437 -0.00966343 -0.0102654 -0.0108657 -0.0114599 -0.0120479 -0.0126297 -0.0132015 -0.0137593 -0.0143032 -0.014833 -0.0153459 -0.0158386 -0.0163112 -0.0167637 -0.0171939 -0.0175996 -0.0179807 -0.0183373 -0.0186679 -0.0189711 -0.0192468 -0.019495 -0.0197149 -0.0199056 -0.0200671 -0.0201995 -0.0203022 -0.0203749 -0.0204177 -0.0204305 -0.0204134 -0.0203662 -0.0202891 -0.0201821 -0.0200455 -0.0198798 -0.019685 -0.019461 -0.0192088 -0.0189293 -0.0186225 -0.0182883 -0.0179283 -0.017544 -0.0171353 -0.0167023 -0.0162473 -0.0157723 -0.0152776 -0.014763 -0.0142317 -0.0136867 -0.013128 -0.0125557 -0.0119737 -0.0113858 -0.0107922 -0.0101926 -0.00959182 -0.0089942 -0.00839978 -0.00780856 -0.00722522 -0.00665443 -0.00609621 -0.00555054 -0.00502166 -0.00451381 -0.00402699 -0.00356121 -0.00311961 -0.00270534 -0.00231842 -0.00195882 -0.00162808 -0.00132771 -0.0010577 -0.000818055 -0.000608223 -0.000427649 -0.000276331 -0.000154271 -5.83072e-05 1.4721e-05 6.48134e-05 9.19701e-05 0.000101843 0.000100085 8.66952e-05 6.16739e-05 3.46916e-05 1.54185e-05 3.85462e-06 0 0 3.4653e-06 1.38612e-05 3.11877e-05 5.54448e-05 7.58866e-05 8.17673e-05 7.30868e-05 4.98453e-05 5.65805e-06 -6.58594e-05 -0.000164707 -0.000290885 -0.000447785 -0.000638799 -0.000863927 -0.00112317 -0.00141688 -0.0017454 -0.00210874 -0.00250689 -0.00293779 -0.00339936 -0.0038916 -0.00441452 -0.00496415 -0.00553655 -0.00613171 -0.00674963 -0.00738519 -0.00803325 -0.00869381 -0.00936687 -0.0100469 -0.0107285 -0.0114115 -0.0120961 -0.012777 -0.0134491 -0.0141125 -0.014767 -0.0154086 -0.0160328 -0.0166397 -0.0172293 -0.0177985 -0.018344 -0.0188659 -0.0193641 -0.0198365 -0.0202811 -0.0206979 -0.0210867 -0.0214465 -0.0217758 -0.0220747 -0.0223433 -0.0225808 -0.0227866 -0.0229607 -0.0231031 -0.0232135 -0.0232916 -0.0233375 -0.0233512 -0.0233326 -0.0232818 -0.0231988 -0.0230836 -0.0229365 -0.0227576 -0.0225472 -0.0223051 -0.0220321 -0.0217288 -0.0213952 -0.0210314 -0.0206386 -0.0202181 -0.01977 -0.0192943 -0.018793 -0.0182684 -0.0177204 -0.0171491 -0.0165576 -0.0159492 -0.0153238 -0.0146815 -0.0140265 -0.0133632 -0.0126914 -0.0120113 -0.0113278 -0.0106463 -0.00996657 -0.00928871 -0.00861817 -0.00796039 -0.00731539 -0.00668316 -0.00606876 -0.00547727 -0.00490867 -0.00436298 -0.00384406 -0.0033558 -0.00289819 -0.00247124 -0.00207694 -0.0017173 -0.00139232 -0.00110199 -0.000845919 -0.000623704 -0.000435345 -0.000280841 -0.000156787 -5.97769e-05 1.01899e-05 5.31131e-05 7.5342e-05 8.32258e-05 7.67644e-05 5.5958e-05 3.14764e-05 1.39895e-05 3.49737e-06 0 0 2.71146e-06 1.08458e-05 2.44031e-05 4.33834e-05 5.62697e-05 5.15452e-05 2.92099e-05 -1.07362e-05 -7.52837e-05 -0.000171423 -0.000299154 -0.000458478 -0.000652908 -0.00088596 -0.00115763 -0.00146793 -0.00181693 -0.00220471 -0.00263128 -0.00309662 -0.00359808 -0.00413298 -0.00470132 -0.0053031 -0.00593355 -0.00658788 -0.00726612 -0.00796824 -0.00868824 -0.0094201 -0.0101638 -0.0109194 -0.0116805 -0.012441 -0.0132007 -0.0139597 -0.0147124 -0.0154529 -0.0161814 -0.0168978 -0.0175976 -0.0182764 -0.0189342 -0.0195709 -0.0201834 -0.0207687 -0.0213268 -0.0218576 -0.0223594 -0.0228303 -0.0232703 -0.0236794 -0.0240569 -0.0244017 -0.0247139 -0.0249936 -0.0252403 -0.0254539 -0.0256342 -0.0257814 -0.0258953 -0.0259759 -0.0260232 -0.0260372 -0.0260179 -0.0259653 -0.0258794 -0.0257603 -0.0256079 -0.0254223 -0.0252037 -0.0249519 -0.0246672 -0.0243502 -0.0240006 -0.0236186 -0.0232049 -0.0227607 -0.0222858 -0.0217802 -0.0212458 -0.0206845 -0.0200962 -0.019481 -0.0188421 -0.0181824 -0.0175021 -0.0168012 -0.0160841 -0.0153553 -0.014615 -0.0138629 -0.013105 -0.0123467 -0.0115881 -0.0108293 -0.0100763 -0.0093356 -0.00860705 -0.00789068 -0.00719243 -0.00651826 -0.00586816 -0.00524213 -0.00464485 -0.00408102 -0.00355063 -0.00305368 -0.00259277 -0.00217048 -0.00178681 -0.00144176 -0.00113519 -0.000866958 -0.00063707 -0.000445521 -0.000288777 -0.000163301 -6.90915e-05 -6.14977e-06 3.24801e-05 5.37539e-05 5.76716e-05 4.42331e-05 2.48811e-05 1.10583e-05 2.76457e-06 0 0 1.57707e-06 6.30827e-06 1.41936e-05 2.52331e-05 2.73694e-05 8.5453e-06 -3.12392e-05 -9.19841e-05 -0.000181194 -0.000306372 -0.000467519 -0.000664635 -0.000901241 -0.00118086 -0.00150349 -0.00186913 -0.00227749 -0.00272826 -0.00322146 -0.00375706 -0.00433171 -0.00494204 -0.00558803 -0.0062697 -0.00698135 -0.00771733 -0.00847762 -0.00926222 -0.0100642 -0.0108766 -0.0116993 -0.0125325 -0.0133691 -0.0142019 -0.015031 -0.0158563 -0.0166718 -0.0174713 -0.0182547 -0.019022 -0.0197688 -0.0204903 -0.0211866 -0.0218577 -0.0225007 -0.0231128 -0.023694 -0.0242443 -0.0247624 -0.0252469 -0.0256979 -0.0261155 -0.0264992 -0.0268488 -0.0271644 -0.0274458 -0.0276935 -0.0279075 -0.0280878 -0.0282345 -0.0283478 -0.0284279 -0.0284748 -0.0284886 -0.0284692 -0.0284166 -0.0283309 -0.028212 -0.0280597 -0.0278738 -0.0276543 -0.0274012 -0.0271143 -0.0267935 -0.0264386 -0.0260498 -0.0256274 -0.0251716 -0.0246825 -0.0241601 -0.0236057 -0.0230207 -0.0224051 -0.021759 -0.0210851 -0.0203865 -0.019663 -0.0189147 -0.0181463 -0.0173623 -0.0165628 -0.0157477 -0.0149232 -0.0140954 -0.0132645 -0.0124302 -0.0115997 -0.0107801 -0.00997118 -0.00917309 -0.00839267 -0.00763679 -0.00690545 -0.00619865 -0.00552197 -0.004881 -0.00427573 -0.00370616 -0.00317557 -0.00268724 -0.00224117 -0.00183735 -0.00147603 -0.00115741 -0.000881505 -0.000648311 -0.000454277 -0.00029585 -0.000173031 -8.58186e-05 -2.67423e-05 1.16694e-05 2.94166e-05 2.64992e-05 1.49058e-05 6.6248e-06 1.6562e-06 0 0 4.04157e-09 1.61663e-08 3.63741e-08 6.46651e-08 -1.21946e-05 -4.90371e-05 -0.000110463 -0.000196472 -0.000314941 -0.000473747 -0.000672891 -0.000912372 -0.00119556 -0.00152581 -0.00190312 -0.00232751 -0.00279814 -0.0033142 -0.00387569 -0.00448261 -0.00513076 -0.00581593 -0.00653814 -0.00729738 -0.00808697 -0.00890024 -0.0097372 -0.0105978 -0.0114742 -0.0123584 -0.0132504 -0.0141503 -0.0150501 -0.0159421 -0.0168264 -0.0177028 -0.0185648 -0.0194061 -0.0202265 -0.021026 -0.0218002 -0.0225445 -0.023259 -0.0239437 -0.0245962 -0.0252142 -0.0257977 -0.0263466 -0.0268606 -0.027339 -0.0277819 -0.0281892 -0.0285615 -0.0288995 -0.0292031 -0.0294723 -0.0297081 -0.0299113 -0.0300821 -0.0302203 -0.0303267 -0.0304019 -0.0304458 -0.0304585 -0.03044 -0.0303903 -0.0303093 -0.0301971 -0.030053 -0.0298765 -0.0296675 -0.0294259 -0.029151 -0.0288417 -0.0284982 -0.0281203 -0.0277076 -0.0272596 -0.0267761 -0.0262573 -0.0257036 -0.0251158 -0.0244938 -0.0238376 -0.0231496 -0.0224322 -0.0216854 -0.0209092 -0.0201081 -0.0192867 -0.018445 -0.017583 -0.0167072 -0.0158241 -0.0149337 -0.014036 -0.0131389 -0.01225 -0.0113694 -0.010497 -0.00964078 -0.00880851 -0.00800019 -0.00721585 -0.00646203 -0.00574531 -0.00506569 -0.00442317 -0.00382184 -0.00326579 -0.00275502 -0.00228954 -0.00187008 -0.00149737 -0.00117142 -0.000892217 -0.000656363 -0.000460451 -0.00030448 -0.00018845 -0.000104513 -4.48199e-05 -9.37088e-06 1.8341e-06 1.03168e-06 4.58524e-07 1.14631e-07 0 0 -2.06569e-06 -8.26275e-06 -1.85912e-05 -3.3051e-05 -6.38027e-05 -0.000123007 -0.000210664 -0.000326773 -0.000479395 -0.000676591 -0.000918361 -0.0012047 -0.00153862 -0.00192311 -0.00235816 -0.00284379 -0.00337847 -0.00396067 -0.00459041 -0.00526767 -0.00598729 -0.00674409 -0.00753807 -0.00836923 -0.0092298 -0.010112 -0.0110158 -0.0119413 -0.0128795 -0.0138214 -0.0147671 -0.0157165 -0.0166612 -0.0175927 -0.0185109 -0.0194159 -0.0203009 -0.0211592 -0.0219909 -0.0227959 -0.0235701 -0.0243093 -0.0250136 -0.025683 -0.0263159 -0.0269109 -0.027468 -0.0279872 -0.0284692 -0.0289144 -0.0293231 -0.029695 -0.0300321 -0.0303362 -0.0306072 -0.0308451 -0.0310518 -0.0312294 -0.0313777 -0.0314968 -0.0315879 -0.0316521 -0.0316895 -0.0317001 -0.0316838 -0.0316406 -0.0315706 -0.0314737 -0.0313488 -0.0311947 -0.0310113 -0.0307986 -0.0305548 -0.0302779 -0.029968 -0.0296251 -0.0292474 -0.0288331 -0.0283823 -0.027895 -0.0273706 -0.0268086 -0.026209 -0.0255718 -0.0248984 -0.0241906 -0.0234483 -0.0226715 -0.0218644 -0.0210311 -0.0201718 -0.0192863 -0.0183815 -0.017464 -0.0165339 -0.0155912 -0.0146442 -0.0137015 -0.0127631 -0.011829 -0.010908 -0.010009 -0.00913203 -0.00827699 -0.0074516 -0.0066635 -0.00591271 -0.00519921 -0.00452807 -0.00390433 -0.003328 -0.00279908 -0.00231899 -0.00188916 -0.00150957 -0.00118024 -0.000898112 -0.000660128 -0.000466291 -0.000316602 -0.00020302 -0.000117506 -6.00611e-05 -3.06846e-05 -1.72601e-05 -7.67114e-06 -1.91779e-06 0 0 -4.63212e-06 -1.85285e-05 -4.16891e-05 -7.41139e-05 -0.000127455 -0.000213364 -0.000331841 -0.000482887 -0.000674555 -0.000914902 -0.00120393 -0.00154163 -0.00193043 -0.00237276 -0.00286861 -0.00341798 -0.00401847 -0.00466767 -0.0053656 -0.00611224 -0.0069013 -0.00772649 -0.00858781 -0.00948525 -0.0104098 -0.0113526 -0.0123135 -0.0132927 -0.01428 -0.0152655 -0.0162493 -0.0172313 -0.0182025 -0.0191535 -0.0200846 -0.0209957 -0.02188 -0.0227308 -0.023548 -0.0243318 -0.0250785 -0.0257847 -0.0264504 -0.0270756 -0.0276599 -0.0282031 -0.0287051 -0.0291661 -0.029588 -0.0299732 -0.0303215 -0.030633 -0.030911 -0.0311589 -0.0313766 -0.0315642 -0.0317248 -0.0318617 -0.0319747 -0.032064 -0.0321313 -0.0321787 -0.032206 -0.0322133 -0.0322005 -0.0321677 -0.0321149 -0.0320419 -0.0319471 -0.0318283 -0.0316857 -0.0315193 -0.0313258 -0.0311021 -0.0308482 -0.0305641 -0.0302466 -0.0298922 -0.0295012 -0.0290733 -0.0286067 -0.0280992 -0.0275507 -0.0269614 -0.0263316 -0.0256617 -0.0249517 -0.0242016 -0.023415 -0.0225955 -0.0217431 -0.0208577 -0.0199463 -0.0190154 -0.0180652 -0.0170956 -0.0161157 -0.0151347 -0.0141525 -0.0131691 -0.0121945 -0.0112384 -0.010301 -0.0093821 -0.00849069 -0.00763559 -0.00681679 -0.00603429 -0.00529427 -0.00460287 -0.00396011 -0.00336598 -0.00282277 -0.00233276 -0.00189597 -0.00151239 -0.00117952 -0.000894881 -0.000658465 -0.000470273 -0.000322262 -0.000206389 -0.000122654 -7.10568e-05 -3.99695e-05 -1.77642e-05 -4.44105e-06 0 0 -7.69525e-06 -3.0781e-05 -6.92573e-05 -0.000123124 -0.000203151 -0.000320108 -0.000473996 -0.000664814 -0.000900422 -0.00118868 -0.00152959 -0.00192315 -0.002371 -0.00287477 -0.00343446 -0.00405007 -0.00471814 -0.0054352 -0.00620126 -0.00701632 -0.00787281 -0.00876315 -0.00968736 -0.0106454 -0.0116271 -0.012622 -0.0136303 -0.0146519 -0.0156757 -0.0166908 -0.0176971 -0.0186947 -0.0196738 -0.0206247 -0.0215475 -0.0224422 -0.0233021 -0.0241206 -0.0248978 -0.0256336 -0.0263255 -0.0269707 -0.0275694 -0.0281214 -0.0286281 -0.0290906 -0.0295089 -0.0298831 -0.0302172 -0.0305152 -0.0307772 -0.0310031 -0.0311981 -0.0313676 -0.0315115 -0.0316297 -0.0317271 -0.0318082 -0.0318731 -0.0319218 -0.031957 -0.0319815 -0.0319952 -0.0319981 -0.0319902 -0.0319715 -0.031942 -0.0319017 -0.0318478 -0.0317775 -0.0316909 -0.0315879 -0.0314639 -0.0313141 -0.0311386 -0.0309374 -0.0307052 -0.030437 -0.0301327 -0.0297922 -0.0294118 -0.0289874 -0.028519 -0.0280066 -0.0274491 -0.0268455 -0.0261957 -0.0254996 -0.0247601 -0.0239799 -0.0231589 -0.0222972 -0.0214014 -0.0204781 -0.0195275 -0.0185494 -0.0175535 -0.0165495 -0.0155375 -0.0145173 -0.0135001 -0.0124966 -0.011507 -0.0105312 -0.0095793 -0.00866156 -0.00777793 -0.00692841 -0.00612043 -0.0053614 -0.00465133 -0.00399022 -0.0033814 -0.00282819 -0.00233061 -0.00188866 -0.0015006 -0.00116471 -0.000881 -0.000649464 -0.00046224 -0.000311469 -0.00019715 -0.000119283 -6.70964e-05 -2.98206e-05 -7.45516e-06 0 0 -1.12535e-05 -4.50139e-05 -0.000101281 -0.000180056 -0.000290824 -0.000443075 -0.000636809 -0.000872024 -0.00115616 -0.00149667 -0.00189355 -0.0023468 -0.00285702 -0.00342483 -0.00405021 -0.00473316 -0.00546897 -0.0062529 -0.00708494 -0.0079651 -0.00888437 -0.00983374 -0.0108132 -0.0118228 -0.0128508 -0.0138855 -0.0149269 -0.0159751 -0.0170179 -0.0180432 -0.0190509 -0.0200411 -0.0210036 -0.0219283 -0.0228151 -0.0236641 -0.024469 -0.0252235 -0.0259276 -0.0265814 -0.0271833 -0.0277322 -0.0282278 -0.0286702 -0.0290626 -0.0294082 -0.0297069 -0.0299587 -0.03017 -0.0303473 -0.0304904 -0.0305994 -0.0306818 -0.0307452 -0.0307896 -0.0308149 -0.0308278 -0.0308346 -0.0308355 -0.0308305 -0.0308232 -0.0308174 -0.0308131 -0.0308103 -0.0308089 -0.030809 -0.0308105 -0.0308134 -0.0308139 -0.0308083 -0.0307964 -0.0307784 -0.0307476 -0.0306976 -0.0306282 -0.0305397 -0.0304243 -0.0302747 -0.0300909 -0.0298728 -0.0296142 -0.0293088 -0.0289567 -0.0285578 -0.0281091 -0.0276076 -0.0270533 -0.0264462 -0.0257878 -0.0250796 -0.0243217 -0.0235141 -0.0226631 -0.021775 -0.0208498 -0.0198875 -0.0188983 -0.0178924 -0.0168697 -0.0158302 -0.014786 -0.0137492 -0.0127196 -0.0116975 -0.0106942 -0.00972132 -0.00877891 -0.00786693 -0.00699424 -0.00616969 -0.00539328 -0.00466501 -0.00398946 -0.00337121 -0.00281026 -0.00230662 -0.00185957 -0.00146839 -0.00113309 -0.000853661 -0.000622647 -0.000432589 -0.000283487 -0.000175339 -9.86285e-05 -4.38349e-05 -1.09587e-05 0 0 -1.53052e-05 -6.12206e-05 -0.000137746 -0.000244882 -0.000390407 -0.0005821 -0.00081996 -0.00110399 -0.00144095 -0.00183763 -0.00229401 -0.00281011 -0.00338521 -0.00401862 -0.00471034 -0.00546036 -0.00626246 -0.00711038 -0.00800415 -0.00894375 -0.00991855 -0.0109179 -0.0119418 -0.0129903 -0.0140502 -0.0151081 -0.0161642 -0.0172185 -0.0182576 -0.0192685 -0.020251 -0.0212051 -0.0221205 -0.0229864 -0.023803 -0.0245702 -0.0252824 -0.0259339 -0.0265247 -0.0270549 -0.0275245 -0.0279339 -0.028283 -0.0285717 -0.0288058 -0.0289907 -0.0291265 -0.0292131 -0.0292599 -0.0292759 -0.0292613 -0.029216 -0.0291503 -0.0290747 -0.028989 -0.0288933 -0.0287963 -0.0287068 -0.0286247 -0.0285501 -0.0284879 -0.028443 -0.0284155 -0.0284054 -0.0284126 -0.028437 -0.0284786 -0.0285375 -0.0286085 -0.0286867 -0.0287721 -0.0288645 -0.0289554 -0.0290359 -0.029106 -0.0291656 -0.0292047 -0.0292127 -0.0291898 -0.029136 -0.0290421 -0.028899 -0.0287068 -0.0284655 -0.0281695 -0.0278136 -0.0273977 -0.0269219 -0.026386 -0.02579 -0.025134 -0.0244179 -0.0236476 -0.0228286 -0.0219612 -0.0210452 -0.0200911 -0.0191096 -0.0181007 -0.0170642 -0.0160135 -0.0149616 -0.0139085 -0.0128543 -0.011812 -0.0107948 -0.00980249 -0.00883521 -0.0079034 -0.00701752 -0.00617756 -0.00538354 -0.00464152 -0.00395757 -0.00333168 -0.00276386 -0.00225468 -0.0018047 -0.00141392 -0.00108235 -0.000803176 -0.000569594 -0.000381604 -0.000239205 -0.000134553 -5.98013e-05 -1.49503e-05 0 0 -1.98503e-05 -7.94012e-05 -0.000178653 -0.000317605 -0.0005019 -0.000737182 -0.00102345 -0.0013607 -0.00175479 -0.00221154 -0.00273097 -0.00331308 -0.00395557 -0.00465616 -0.00541486 -0.00623166 -0.00709859 -0.00800767 -0.0089589 -0.00995228 -0.0109754 -0.0120157 -0.0130732 -0.014148 -0.0152252 -0.0162899 -0.0173422 -0.018382 -0.0193949 -0.0203667 -0.0212973 -0.0221868 -0.0230243 -0.0237991 -0.0245111 -0.0251605 -0.0257424 -0.0262519 -0.0266892 -0.0270542 -0.027349 -0.0275759 -0.0277349 -0.0278259 -0.0278575 -0.0278381 -0.0277677 -0.0276464 -0.0274867 -0.0273012 -0.0270899 -0.0268529 -0.0266037 -0.0263559 -0.0261096 -0.0258647 -0.0256326 -0.0254245 -0.0252406 -0.0250806 -0.0249512 -0.0248585 -0.0248026 -0.0247835 -0.0248012 -0.0248554 -0.0249463 -0.0250738 -0.0252315 -0.0254128 -0.0256178 -0.0258464 -0.0260873 -0.0263291 -0.0265718 -0.0268154 -0.0270463 -0.027251 -0.0274295 -0.0275819 -0.0276955 -0.027758 -0.0277694 -0.0277297 -0.0276305 -0.0274636 -0.027229 -0.0269267 -0.0265547 -0.0261111 -0.0255957 -0.0250086 -0.0243548 -0.0236391 -0.0228616 -0.0220223 -0.0211319 -0.0202013 -0.0192305 -0.0182194 -0.0171825 -0.0161338 -0.0150736 -0.0140017 -0.0129329 -0.0118819 -0.0108487 -0.00983325 -0.00884789 -0.00790486 -0.00700418 -0.00614582 -0.00533759 -0.00458728 -0.00389487 -0.00326038 -0.00268593 -0.00217363 -0.0017235 -0.00133553 -0.00100383 -0.000722482 -0.0004915 -0.000310879 -0.00017487 -7.77198e-05 -1.943e-05 0 0 -2.48889e-05 -9.95557e-05 -0.000224 -0.000398223 -0.000625303 -0.000908322 -0.00124728 -0.00164217 -0.00209767 -0.00261842 -0.00320443 -0.0038557 -0.00456808 -0.00533744 -0.00616376 -0.00704706 -0.00797737 -0.00894474 -0.00994918 -0.0109907 -0.0120548 -0.013127 -0.0142074 -0.0152959 -0.016376 -0.017431 -0.0184608 -0.0194656 -0.0204298 -0.0213379 -0.02219 -0.022986 -0.0237151 -0.0243662 -0.0249396 -0.025435 -0.0258489 -0.0261776 -0.0264211 -0.0265793 -0.0266568 -0.0266583 -0.0265836 -0.0264328 -0.0262178 -0.0259504 -0.0256307 -0.0252585 -0.0248505 -0.0244231 -0.0239763 -0.0235101 -0.0230419 -0.022589 -0.0221515 -0.0217293 -0.0213367 -0.020988 -0.0206831 -0.0204222 -0.0202131 -0.0200638 -0.0199743 -0.0199446 -0.0199747 -0.0200644 -0.0202137 -0.0204226 -0.0206829 -0.0209866 -0.0213336 -0.021724 -0.0221432 -0.0225771 -0.0230257 -0.0234888 -0.0239492 -0.0243897 -0.02481 -0.0252104 -0.0255745 -0.0258858 -0.0261444 -0.0263503 -0.0264919 -0.0265575 -0.0265472 -0.0264608 -0.0262941 -0.0260428 -0.0257068 -0.0252862 -0.0247848 -0.0242064 -0.0235511 -0.0228188 -0.0220206 -0.0211673 -0.0202591 -0.0192958 -0.018293 -0.017266 -0.0162149 -0.0151396 -0.0140568 -0.0129827 -0.0119175 -0.010861 -0.00982