<?xml version="1.0"?> 
<VTKFile type="StructuredGrid" version="0.1"> 
<StructuredGrid WholeExtent="0 128 0 128 0 0"> 
<Piece Extent="0 128 0 128 0 0"> 
<PointData>
<DataArray type="Float32" Name="u" format="ascii" NumberOfComponents="1"> 
0 0 0 0 0 0 0 0 0 0 0 0 0 0 0 0 0 0 0 0 0 0 0 0 0 0 0 0 0 0 0 0 0 0 0 0 0 0 0 0 0 0 0 0 0 0 0 0 0 0 0 0 0 0 0 0 0 0 0 0 0 0 0 0 0 0 0 0 0 0 0 0 0 0 0 0 0 0 0 0 0 0 0 0 0 0 0 0 0 0 0 0 0 0 0 0 0 0 0 0 0 0 0 0 0 0 0 0 0 0 0 0 0 0 0 0 0 0 0 0 0 0 0 0 0 0 0 0 0 0 2.13317e-07 8.53268e-07 1.91985e-06 3.41307e-06 5.12336e-06 6.84116e-06 8.56646e-06 1.02993e-05 1.19191e-05 1.33054e-05 1.44583e-05 1.53777e-05 1.59673e-05 1.61308e-05 1.58682e-05 1.51794e-05 1.40167e-05 1.23323e-05 1.0126e-05 7.39803e-06 4.13717e-06 3.32338e-07 -4.01647e-06 -8.90924e-06 -1.43281e-05 -2.02553e-05 -2.66907e-05 -3.36343e-05 -4.10457e-05 -4.88842e-05 -5.71498e-05 -6.58425e-05 -7.49041e-05 -8.42761e-05 -9.39587e-05 -0.000103952 -0.000114182 -0.000124577 -0.000135137 -0.000145861 -0.000156664 -0.00016746 -0.00017825 -0.000189033 -0.000199713 -0.000210196 -0.000220481 -0.000230568 -0.000240359 -0.000249754 -0.000258753 -0.000267356 -0.000275471 -0.000283006 -0.00028996 -0.000296335 -0.000302056 -0.000307053 -0.000311325 -0.000314873 -0.000317655 -0.000319634 -0.000320809 -0.000321179 -0.000320746 -0.000319509 -0.000317469 -0.000314626 -0.000311019 -0.000306691 -0.000301639 -0.000295865 -0.000289442 -0.000282442 -0.000274865 -0.000266711 -0.000258073 -0.000249044 -0.000239623 -0.000229811 -0.000219706 -0.000209409 -0.000198919 -0.000188235 -0.000177455 -0.000166672 -0.000155886 -0.000145099 -0.000134395 -0.000123859 -0.000113491 -0.000103292 -9.33332e-05 -8.36875e-05 -7.43548e-05 -6.5335e-05 -5.66857e-05 -4.84642e-05 -4.06706e-05 -3.33049e-05 -2.64066e-05 -2.00155e-05 -1.41315e-05 -8.75464e-06 -3.9019e-06 4.09664e-07 4.18006e-06 7.40929e-06 1.0109e-05 1.22908e-05 1.39547e-05 1.51007e-05 1.57766e-05 1.60304e-05 1.5862e-05 1.52715e-05 1.43545e-05 1.32067e-05 1.18282e-05 1.02189e-05 8.49832e-06 6.78576e-06 5.08126e-06 3.38482e-06 1.90396e-06 8.46205e-07 2.11551e-07 0 0 8.53268e-07 3.41307e-06 7.67941e-06 1.36523e-05 2.04934e-05 2.73646e-05 3.42658e-05 4.11971e-05 4.76764e-05 5.32218e-05 5.78333e-05 6.15109e-05 6.38693e-05 6.45232e-05 6.34727e-05 6.07177e-05 5.60669e-05 4.9329e-05 4.05041e-05 2.95921e-05 1.65487e-05 1.32935e-06 -1.60659e-05 -3.5637e-05 -5.73125e-05 -8.10211e-05 -0.000106763 -0.000134537 -0.000164183 -0.000195537 -0.000228599 -0.00026337 -0.000299616 -0.000337105 -0.000375835 -0.000415807 -0.000456729 -0.000498309 -0.000540548 -0.000583444 -0.000626657 -0.000669842 -0.000713 -0.00075613 -0.000798852 -0.000840783 -0.000881924 -0.000922273 -0.000961436 -0.000999015 -0.00103501 -0.00106942 -0.00110188 -0.00113202 -0.00115984 -0.00118534 -0.00120822 -0.00122821 -0.0012453 -0.00125949 -0.00127062 -0.00127854 -0.00128324 -0.00128472 -0.00128298 -0.00127804 -0.00126988 -0.0012585 -0.00124408 -0.00122676 -0.00120656 -0.00118346 -0.00115777 -0.00112977 -0.00109946 -0.00106684 -0.00103229 -0.000996175 -0.000958491 -0.000919242 -0.000878825 -0.000837636 -0.000795674 -0.000752942 -0.000709819 -0.000666687 -0.000623546 -0.000580396 -0.000537579 -0.000495435 -0.000453965 -0.000413167 -0.000373333 -0.00033475 -0.000297419 -0.00026134 -0.000226743 -0.000193857 -0.000162682 -0.00013322 -0.000105627 -8.00621e-05 -5.65261e-05 -3.50185e-05 -1.56076e-05 1.63866e-06 1.67202e-05 2.96372e-05 4.04359e-05 4.91631e-05 5.58187e-05 6.04026e-05 6.31065e-05 6.41216e-05 6.34481e-05 6.10859e-05 5.74179e-05 5.28269e-05 4.73128e-05 4.08757e-05 3.39933e-05 2.7143e-05 2.0325e-05 1.35393e-05 7.61585e-06 3.38482e-06 8.46205e-07 0 0 1.91985e-06 7.67941e-06 1.72787e-05 3.07176e-05 4.61102e-05 6.15704e-05 7.70981e-05 9.26934e-05 0.000107272 0.000119749 0.000130125 0.000138399 0.000143706 0.000145177 0.000142814 0.000136615 0.00012615 0.00011099 9.11342e-05 6.65823e-05 3.72345e-05 2.99104e-06 -3.61482e-05 -8.01832e-05 -0.000128953 -0.000182298 -0.000240216 -0.000302709 -0.000369411 -0.000439958 -0.000514348 -0.000592583 -0.000674137 -0.000758485 -0.000845628 -0.000935565 -0.00102764 -0.0011212 -0.00121623 -0.00131275 -0.00140998 -0.00150714 -0.00160425 -0.00170129 -0.00179742 -0.00189176 -0.00198433 -0.00207511 -0.00216323 -0.00224778 -0.00232877 -0.0024062 -0.00247924 -0.00254705 -0.00260964 -0.00266701 -0.00271851 -0.00276348 -0.00280193 -0.00283385 -0.0028589 -0.00287671 -0.00288728 -0.00289061 -0.00288671 -0.00287558 -0.00285722 -0.00283163 -0.00279917 -0.00276021 -0.00271475 -0.00266279 -0.00260498 -0.00254198 -0.00247378 -0.0024004 -0.00232266 -0.00224139 -0.00215661 -0.0020683 -0.00197736 -0.00188468 -0.00179027 -0.00169412 -0.00159709 -0.00150005 -0.00140298 -0.00130589 -0.00120955 -0.00111473 -0.00102142 -0.000929627 -0.000839999 -0.000753188 -0.000669193 -0.000588015 -0.000510171 -0.000436178 -0.000366036 -0.000299744 -0.00023766 -0.00018014 -0.000127184 -7.87917e-05 -3.51171e-05 3.68698e-06 3.76206e-05 6.66836e-05 9.09808e-05 0.000110617 0.000125592 0.000135906 0.00014199 0.000144274 0.000142758 0.000137443 0.00012919 0.00011886 0.000106454 9.19704e-05 7.64849e-05 6.10718e-05 4.57314e-05 3.04634e-05 1.71357e-05 7.61585e-06 1.90396e-06 0 0 3.41307e-06 1.36523e-05 3.07176e-05 5.46091e-05 8.19738e-05 0.000109458 0.000137063 0.000164788 0.000190705 0.000212887 0.000231333 0.000246044 0.000255477 0.000258093 0.000253891 0.000242871 0.000224267 0.000197316 0.000162016 0.000118369 6.61947e-05 5.3174e-06 -6.42635e-05 -0.000142548 -0.00022925 -0.000324084 -0.000427051 -0.000538149 -0.000656731 -0.000782147 -0.000914397 -0.00105348 -0.00119847 -0.00134842 -0.00150334 -0.00166323 -0.00182692 -0.00199324 -0.00216219 -0.00233378 -0.00250663 -0.00267937 -0.002852 -0.00302452 -0.00319541 -0.00336313 -0.00352769 -0.00368909 -0.00384574 -0.00399606 -0.00414004 -0.0042777 -0.00440754 -0.00452809 -0.00463937 -0.00474135 -0.0048329 -0.00491285 -0.0049812 -0.00503796 -0.00508249 -0.00511415 -0.00513294 -0.00513887 -0.00513194 -0.00511215 -0.00507951 -0.00503401 -0.00497631 -0.00490705 -0.00482623 -0.00473385 -0.00463107 -0.00451907 -0.00439784 -0.00426737 -0.00412917 -0.0039847 -0.00383397 -0.00367697 -0.0035153 -0.00335054 -0.0031827 -0.00301177 -0.00283927 -0.00266675 -0.00249418 -0.00232159 -0.00215032 -0.00198174 -0.00181586 -0.00165267 -0.00149333 -0.001339 -0.00118968 -0.00104536 -0.000906971 -0.000775427 -0.00065073 -0.000532878 -0.000422506 -0.000320248 -0.000226104 -0.000140074 -6.24304e-05 6.55463e-06 6.6881e-05 0.000118549 0.000161744 0.000196652 0.000223275 0.000241611 0.000252426 0.000256486 0.000253792 0.000244344 0.000229672 0.000211307 0.000189251 0.000163503 0.000135973 0.000108572 8.13002e-05 5.41571e-05 3.04634e-05 1.35393e-05 3.38482e-06 0 0 5.11462e-06 2.04585e-05 4.60316e-05 8.1834e-05 0.000122785 0.000163804 0.000204891 0.000246046 0.000284355 0.000316902 0.000343687 0.00036471 0.000377651 0.000380188 0.000372322 0.000354052 0.000324235 0.000281728 0.00022653 0.000158641 7.78151e-05 -1.61962e-05 -0.000123393 -0.000243774 -0.000376882 -0.000522257 -0.0006799 -0.000849811 -0.00103098 -0.00122241 -0.00142409 -0.00163602 -0.00185677 -0.00208493 -0.00232047 -0.00256341 -0.00281197 -0.00306438 -0.00332065 -0.00358076 -0.00384265 -0.00410426 -0.00436558 -0.00462662 -0.00488509 -0.00513868 -0.0053874 -0.00563125 -0.00586785 -0.00609484 -0.0063122 -0.00651995 -0.00671587 -0.00689775 -0.00706559 -0.0072194 -0.00735744 -0.00747799 -0.00758104 -0.0076666 -0.00773372 -0.00778144 -0.00780977 -0.0078187 -0.00780824 -0.00777841 -0.00772921 -0.00766063 -0.00757364 -0.00746921 -0.00734734 -0.00720803 -0.00705303 -0.00688407 -0.00670116 -0.0065043 -0.00629571 -0.0060776 -0.00584997 -0.00561284 -0.00536856 -0.00511954 -0.00486575 -0.00460721 -0.00434621 -0.00408503 -0.00382368 -0.00356215 -0.00330251 -0.00304681 -0.00279506 -0.00254724 -0.00230513 -0.00207047 -0.00184326 -0.00162352 -0.00141263 -0.00121202 -0.00102168 -0.000841616 -0.000672807 -0.00051624 -0.000371914 -0.000239829 -0.000120424 -1.41372e-05 7.90318e-05 0.000159083 0.000226276 0.000280872 0.000322871 0.000352272 0.00037022 0.000377861 0.000375194 0.000362219 0.000341242 0.000314571 0.000282204 0.000244141 0.000203273 0.000162486 0.000121783 8.11609e-05 4.5653e-05 2.02902e-05 5.07256e-06 0 0 6.80621e-06 2.72248e-05 6.12559e-05 0.000108899 0.000163245 0.000217382 0.000271312 0.000325033 0.000374598 0.000416058 0.000449414 0.000474666 0.000488695 0.000488381 0.000473725 0.000444726 0.000399871 0.000337648 0.000258054 0.000161092 4.64815e-05 -8.60545e-05 -0.000236516 -0.000404904 -0.000590526 -0.00079269 -0.0010114 -0.00124665 -0.001497 -0.00176104 -0.00203876 -0.00233015 -0.00263324 -0.00294603 -0.00326853 -0.00360073 -0.00394023 -0.00428459 -0.00463382 -0.00498791 -0.00534409 -0.00569957 -0.00605434 -0.00640841 -0.00675871 -0.00710217 -0.00743881 -0.00776862 -0.00808844 -0.00839511 -0.00868864 -0.00896902 -0.00923332 -0.00947862 -0.00970491 -0.00991219 -0.0100982 -0.0102606 -0.0103994 -0.0105146 -0.0106049 -0.0106692 -0.0107073 -0.0107193 -0.0107052 -0.0106651 -0.0105988 -0.0105065 -0.0103893 -0.0102486 -0.0100844 -0.00989674 -0.00968783 -0.00946001 -0.00921331 -0.0089477 -0.00866615 -0.0083716 -0.00806403 -0.00774347 -0.00741306 -0.00707598 -0.00673222 -0.00638178 -0.00602773 -0.00567313 -0.00531798 -0.00496227 -0.00460878 -0.00426029 -0.0039168 -0.0035783 -0.00324719 -0.00292587 -0.00261435 -0.00231262 -0.00202264 -0.00174637 -0.00148381 -0.00123495 -0.0010012 -0.000783967 -0.000583239 -0.00039902 -0.000231975 -8.27673e-05 4.86034e-05 0.000162137 0.00025813 0.000336879 0.000398384 0.000442644 0.000471177 0.000485497 0.000485605 0.0004715 0.000446283 0.000413052 0.00037181 0.000322554 0.000269199 0.000215657 0.000161929 0.000108015 6.07584e-05 2.70037e-05 6.75094e-06 0 0 8.48782e-06 3.39513e-05 7.63904e-05 0.000135805 0.000203353 0.000270193 0.000336324 0.000401747 0.000461434 0.000510357 0.000548516 0.000575912 0.000588609 0.000582671 0.000558099 0.000514892 0.000451176 0.000365075 0.000256589 0.000125719 -2.7806e-05 -0.000204257 -0.000403635 -0.000625938 -0.000870183 -0.00113538 -0.00142154 -0.00172865 -0.0020548 -0.00239805 -0.00275841 -0.00313588 -0.00352785 -0.00393173 -0.00434751 -0.0047752 -0.00521168 -0.00565385 -0.00610171 -0.00655525 -0.00701095 -0.00746529 -0.00791826 -0.00836987 -0.00881627 -0.00925363 -0.00968194 -0.0101012 -0.0105075 -0.0108969 -0.0112693 -0.0116249 -0.0119599 -0.0122707 -0.0125573 -0.0128197 -0.0130551 -0.0132606 -0.0134362 -0.0135819 -0.0136961 -0.0137773 -0.0138255 -0.0138407 -0.0138229 -0.0137721 -0.0136883 -0.0135715 -0.0134233 -0.0132453 -0.0130376 -0.0128 -0.0125355 -0.0122469 -0.0119343 -0.0115976 -0.0112405 -0.0108667 -0.0104761 -0.0100689 -0.00964879 -0.00921987 -0.0087821 -0.00833548 -0.00788385 -0.00743105 -0.00697708 -0.00652194 -0.00606913 -0.00562218 -0.00518108 -0.00474583 -0.00431951 -0.00390521 -0.00350294 -0.00311268 -0.00273701 -0.00237848 -0.00203711 -0.00171289 -0.0014077 -0.00112343 -0.000860079 -0.000617647 -0.000397083 -0.000199336 -2.44044e-05 0.000127711 0.000257305 0.000364672 0.000449814 0.000512729 0.000555296 0.000579395 0.000585025 0.000572187 0.000544793 0.000506753 0.000458069 0.000398741 0.000333751 0.000268084 0.000201741 0.000134719 7.57797e-05 3.36799e-05 8.41996e-06 0 0 1.01595e-05 4.06379e-05 9.14352e-05 0.000162552 0.000243111 0.000322237 0.00039993 0.000476189 0.000544863 0.000599797 0.000640992 0.000668448 0.000677393 0.000663059 0.000625445 0.000564551 0.000478149 0.00036401 0.000222135 5.25243e-05 -0.000145048 -0.000370805 -0.000624748 -0.000906876 -0.00121585 -0.00155034 -0.00191033 -0.00229583 -0.00270436 -0.00313343 -0.00358304 -0.0040532 -0.00454061 -0.00504202 -0.00555742 -0.0060868 -0.00662634 -0.00717217 -0.00772432 -0.00828277 -0.00884324 -0.00940143 -0.00995736 -0.010511 -0.0110578 -0.011593 -0.0121168 -0.012629 -0.013125 -0.0136001 -0.0140543 -0.0144876 -0.0148956 -0.015274 -0.0156228 -0.015942 -0.0162282 -0.016478 -0.0166914 -0.0168685 -0.0170072 -0.0171059 -0.0171645 -0.0171829 -0.0171612 -0.0170995 -0.0169977 -0.0168558 -0.0166757 -0.0164593 -0.0162067 -0.0159177 -0.0155959 -0.0152447 -0.014864 -0.0144539 -0.0140188 -0.0135629 -0.0130863 -0.012589 -0.0120757 -0.0115512 -0.0110154 -0.0104683 -0.00991456 -0.00935879 -0.00880099 -0.00824115 -0.00768355 -0.00713247 -0.00658789 -0.00604983 -0.0055221 -0.00500849 -0.00450902 -0.00402369 -0.00355572 -0.00310835 -0.00268159 -0.00227542 -0.00189229 -0.00153463 -0.00120243 -0.00089571 -0.000615749 -0.000363842 -0.000139991 5.58045e-05 0.000223801 0.000364253 0.000477161 0.000562524 0.000622578 0.000659555 0.000673456 0.000664281 0.000636772 0.000595673 0.000540982 0.000472701 0.00039693 0.000319768 0.000241216 0.000161274 9.07167e-05 4.03185e-05 1.00796e-05 0 0 1.16879e-05 4.67515e-05 0.000105191 0.000187006 0.00027929 0.000369137 0.000456545 0.000541516 0.000616765 0.000675007 0.000716241 0.000740469 0.000742114 0.000715599 0.000660924 0.00057809 0.000464565 0.000317818 0.00013785 -7.53401e-05 -0.000321858 -0.00060181 -0.000915197 -0.00126202 -0.0016405 -0.00204886 -0.00248711 -0.00295525 -0.00345015 -0.0039687 -0.0045109 -0.00507676 -0.00566226 -0.00626342 -0.00688024 -0.00751271 -0.00815626 -0.0088063 -0.00946283 -0.0101259 -0.0107904 -0.0114514 -0.0121088 -0.0127627 -0.0134077 -0.0140386 -0.0146553 -0.0152577 -0.0158406 -0.0163985 -0.0169315 -0.0174395 -0.0179176 -0.0183608 -0.0187691 -0.0191425 -0.0194772 -0.0197693 -0.0200188 -0.0202256 -0.0203877 -0.020503 -0.0205713 -0.0205929 -0.0205675 -0.0204954 -0.0203764 -0.0202106 -0.0200001 -0.0197472 -0.0194517 -0.0191138 -0.0187372 -0.018326 -0.0178801 -0.0173995 -0.0168892 -0.0163542 -0.0157945 -0.01521 -0.0146062 -0.0139886 -0.013357 -0.0127115 -0.0120574 -0.0114 -0.0107394 -0.0100756 -0.0094135 -0.00875815 -0.00810954 -0.00746768 -0.00683711 -0.00622237 -0.00562346 -0.00504039 -0.0044771 -0.00393754 -0.00342171 -0.00292961 -0.0024643 -0.00202883 -0.00162321 -0.00124744 -0.000903227 -0.000592304 -0.000314667 -7.03154e-05 0.000140895 0.000319108 0.000464323 0.000576542 0.000658303 0.000712146 0.000738071 0.000736078 0.000711713 0.000670521 0.000612501 0.000537655 0.000453204 0.000366372 0.00027716 0.000185567 0.000104381 4.63918e-05 1.15979e-05 0 0 1.29398e-05 5.17591e-05 0.000116458 0.000207036 0.000308666 0.000406516 0.000500589 0.000590884 0.000669018 0.000726612 0.000763664 0.000780174 0.000769837 0.000726345 0.000649699 0.000539898 0.000394201 0.000209866 -1.31083e-05 -0.000274721 -0.000574853 -0.000913387 -0.00129032 -0.00170566 -0.00215708 -0.00264227 -0.00316122 -0.00371395 -0.00429661 -0.00490537 -0.00554024 -0.00620121 -0.00688353 -0.00758245 -0.00829797 -0.00903009 -0.00977352 -0.010523 -0.0112784 -0.0120399 -0.0128018 -0.0135584 -0.0143097 -0.0150558 -0.0157907 -0.0165085 -0.0172093 -0.0178931 -0.0185538 -0.0191857 -0.0197888 -0.020363 -0.020903 -0.0214033 -0.0218639 -0.0222848 -0.0226619 -0.0229909 -0.0232717 -0.0235045 -0.0236869 -0.0238165 -0.0238934 -0.0239176 -0.0238891 -0.0238078 -0.0236739 -0.0234873 -0.0232504 -0.0229656 -0.0226327 -0.0222519 -0.0218274 -0.0213634 -0.0208599 -0.0203171 -0.0197401 -0.0191346 -0.0185006 -0.0178379 -0.0171526 -0.0164505 -0.0157317 -0.0149962 -0.0142498 -0.0134985 -0.0127422 -0.011981 -0.0112204 -0.0104662 -0.00971831 -0.00897672 -0.0082467 -0.00753349 -0.0068371 -0.00615753 -0.00549947 -0.00486761 -0.00426196 -0.00368252 -0.00313305 -0.00261731 -0.00213531 -0.00168705 -0.00127477 -0.000900737 -0.00056494 -0.000267382 -8.13704e-06 0.000212724 0.000395199 0.000539291 0.000647751 0.000723336 0.000766045 0.000775878 0.000759108 0.000722008 0.000664578 0.000586819 0.000497043 0.000403562 0.000306376 0.000205486 0.000115586 5.13714e-05 1.28429e-05 0 0 1.39152e-05 5.56607e-05 0.000125237 0.000222643 0.000331237 0.000434376 0.000532061 0.000624292 0.000701624 0.000754613 0.000783259 0.000787562 0.000760561 0.000695297 0.000591768 0.000449975 0.000267056 4.01515e-05 -0.00023074 -0.000545617 -0.000904032 -0.00130553 -0.00175012 -0.0022378 -0.0027656 -0.00333056 -0.00393267 -0.00457194 -0.00524374 -0.00594344 -0.00667105 -0.00742655 -0.00820441 -0.0089991 -0.0098106 -0.0106389 -0.0114781 -0.0123222 -0.0131711 -0.014025 -0.0148775 -0.0157226 -0.0165602 -0.0173903 -0.0182067 -0.0190029 -0.019779 -0.020535 -0.0212647 -0.0219617 -0.0226262 -0.0232582 -0.0238518 -0.0244015 -0.0249071 -0.0253689 -0.0257822 -0.0261427 -0.0264503 -0.0267052 -0.0269047 -0.0270466 -0.0271307 -0.0271571 -0.0271258 -0.0270369 -0.0268903 -0.026686 -0.0264266 -0.0261144 -0.0257496 -0.0253321 -0.0248663 -0.0243568 -0.0238035 -0.0232065 -0.0225715 -0.0219042 -0.0212046 -0.0204727 -0.0197148 -0.0189371 -0.0181397 -0.0173225 -0.0164919 -0.0156541 -0.0148092 -0.0139573 -0.0131044 -0.0122567 -0.0114142 -0.010577 -0.00975088 -0.00894188 -0.00814995 -0.0073751 -0.00662281 -0.00589856 -0.00520233 -0.00453414 -0.00389854 -0.00330007 -0.00273875 -0.00221455 -0.00173039 -0.00128914 -0.00089081 -0.000535396 -0.000223294 4.51007e-05 0.000269789 0.000450771 0.000590924 0.000693126 0.000757378 0.000783679 0.000778955 0.000750133 0.000697213 0.000620195 0.000528447 0.000431336 0.000328864 0.00022103 0.000124329 5.52575e-05 1.38144e-05 0 0 1.4614e-05 5.84562e-05 0.000131526 0.000233825 0.000347004 0.000452716 0.000550962 0.000641741 0.000714581 0.000759009 0.000775026 0.000762632 0.000714288 0.000622455 0.000487132 0.00030832 8.31311e-05 -0.000191324 -0.000515044 -0.00088803 -0.0013094 -0.00177825 -0.0022946 -0.00285844 -0.00346606 -0.00411372 -0.00480145 -0.00552923 -0.00629155 -0.00708292 -0.00790333 -0.00875278 -0.00962492 -0.0105134 -0.0114181 -0.0123392 -0.01327 -0.0142039 -0.0151409 -0.016081 -0.0170176 -0.017944 -0.0188602 -0.0197663 -0.0206556 -0.0215216 -0.0223642 -0.0231836 -0.0239731 -0.0247265 -0.0254438 -0.0261249 -0.026764 -0.0273554 -0.0278989 -0.0283947 -0.0288381 -0.0292248 -0.0295546 -0.0298276 -0.0300412 -0.0301931 -0.0302831 -0.0303114 -0.0302778 -0.0301825 -0.0300255 -0.0298067 -0.0295286 -0.0291939 -0.0288024 -0.0283543 -0.0278541 -0.0273063 -0.0267109 -0.026068 -0.0253834 -0.0246629 -0.0239066 -0.0231144 -0.0222928 -0.0214483 -0.0205808 -0.0196903 -0.0187835 -0.0178669 -0.0169406 -0.0160045 -0.0150653 -0.0141295 -0.0131972 -0.0122684 -0.0113497 -0.0104475 -0.009562 -0.00869312 -0.00784714 -0.00703038 -0.00624283 -0.00548449 -0.00476078 -0.00407711 -0.00343351 -0.00282995 -0.00227007 -0.00175752 -0.00129228 -0.000874357 -0.000504577 -0.000183761 8.80924e-05 0.000310982 0.00048782 0.000621515 0.000712069 0.000759481 0.000771256 0.000754898 0.000710406 0.000637782 0.000547415 0.000449696 0.000344624 0.0002322 0.000130613 5.80501e-05 1.45125e-05 0 0 1.4931e-05 5.97238e-05 0.000134379 0.000238895 0.000353426 0.000458123 0.000552986 0.000638015 0.000701793 0.000732903 0.000731346 0.00069712 0.000622237 0.000498708 0.000326533 0.000105712 -0.000166534 -0.000492981 -0.000873631 -0.00130848 -0.00179607 -0.00233493 -0.00292505 -0.00356644 -0.0042545 -0.00498462 -0.00575681 -0.00657106 -0.00742092 -0.0082999 -0.00920801 -0.0101453 -0.0111044 -0.0120784 -0.013067 -0.0140704 -0.0150814 -0.0160928 -0.0171045 -0.0181167 -0.0191223 -0.0201145 -0.0210933 -0.0220586 -0.023004 -0.0239226 -0.0248146 -0.02568 -0.0265123 -0.0273054 -0.0280592 -0.0287737 -0.0294432 -0.0300621 -0.0306304 -0.031148 -0.0316106 -0.0320137 -0.0323573 -0.0326415 -0.0328638 -0.0330218 -0.0331154 -0.0331447 -0.0331098 -0.0330105 -0.032847 -0.0326192 -0.0323295 -0.0319806 -0.0315723 -0.0311047 -0.0305822 -0.0300094 -0.029386 -0.0287123 -0.0279939 -0.0272365 -0.0264402 -0.0256048 -0.0247368 -0.0238426 -0.0229221 -0.0219753 -0.0210089 -0.0200295 -0.0190371 -0.0180318 -0.0170203 -0.0160097 -0.0149999 -0.0139909 -0.0129898 -0.0120038 -0.011033 -0.0100772 -0.00914361 -0.00823939 -0.0073645 -0.00651895 -0.00570911 -0.00494136 -0.0042157 -0.00353212 -0.00289514 -0.00230925 -0.00177445 -0.00129076 -0.000859553 -0.00048223 -0.00015879 0.000110767 0.000329248 0.000499462 0.000621407 0.000695085 0.00072845 0.000729459 0.000698112 0.000634409 0.000549681 0.000455257 0.000351138 0.000237324 0.000133495 5.93309e-05 1.48327e-05 0 0 1.47604e-05 5.90417e-05 0.000132844 0.000236167 0.000347962 0.000447183 0.000533829 0.000607899 0.000657165 0.000669397 0.000644594 0.000582758 0.000475628 0.000314946 0.000100712 -0.000167074 -0.000490897 -0.000873242 -0.00131411 -0.0018135 -0.00236918 -0.00297894 -0.00364276 -0.00436065 -0.00512697 -0.00593609 -0.00678801 -0.00768272 -0.00861272 -0.00957049 -0.010556 -0.0115693 -0.0126024 -0.0136472 -0.0147037 -0.015772 -0.0168444 -0.0179133 -0.0189787 -0.0200406 -0.0210921 -0.0221262 -0.023143 -0.0241424 -0.0251182 -0.026064 -0.0269797 -0.0278655 -0.0287154 -0.0295236 -0.0302901 -0.031015 -0.031693 -0.0323189 -0.0328927 -0.0334145 -0.0338802 -0.0342858 -0.0346313 -0.0349167 -0.0351397 -0.0352982 -0.0353921 -0.0354215 -0.0353863 -0.0352866 -0.0351223 -0.0348935 -0.0346025 -0.0342515 -0.0338404 -0.0333694 -0.0328425 -0.0322637 -0.031633 -0.0309505 -0.0302214 -0.0294509 -0.028639 -0.0277857 -0.0268969 -0.0259786 -0.0250306 -0.024053 -0.0230521 -0.0220344 -0.0209997 -0.0199482 -0.0188867 -0.0178222 -0.0167547 -0.0156841 -0.0146181 -0.0135642 -0.0125225 -0.0114929 -0.0104834 -0.00950187 -0.0085484 -0.00762294 -0.00673292 -0.00588575 -0.00508144 -0.00431997 -0.00360689 -0.00294772 -0.00234245 -0.00179109 -0.00129579 -0.000858677 -0.000479759 -0.000159035 0.000106019 0.000317924 0.000476681 0.000582289 0.000642978 0.000666977 0.000654287 0.000604906 0.000530976 0.000444636 0.000345887 0.000234728 0.000132034 5.86819e-05 1.46705e-05 0 0 1.41024e-05 5.64098e-05 0.000126922 0.000225639 0.000330613 0.000419897 0.000493491 0.000551394 0.000580697 0.00056849 0.000514773 0.000419546 0.000274461 7.11683e-05 -0.000190331 -0.000510037 -0.000889959 -0.00133211 -0.00183648 -0.00240308 -0.00302874 -0.00371029 -0.00444773 -0.00524107 -0.00608347 -0.00696813 -0.00789504 -0.00886421 -0.00986697 -0.0108947 -0.0119473 -0.013025 -0.0141187 -0.0152198 -0.0163281 -0.0174438 -0.0185588 -0.0196654 -0.0207633 -0.0218528 -0.0229269 -0.0239792 -0.0250094 -0.0260177 -0.0269983 -0.0279456 -0.0288595 -0.0297401 -0.0305823 -0.0313812 -0.0321367 -0.0328488 -0.0335133 -0.0341257 -0.034686 -0.0351943 -0.0356472 -0.0360413 -0.0363767 -0.0366532 -0.0368691 -0.0370225 -0.0371133 -0.0371416 -0.0371074 -0.0370107 -0.0368515 -0.0366298 -0.0363475 -0.0360065 -0.0356068 -0.0351484 -0.0346348 -0.0340692 -0.0334518 -0.0327826 -0.0320658 -0.031306 -0.0305031 -0.0296571 -0.0287731 -0.0278562 -0.0269062 -0.0259233 -0.0249132 -0.0238816 -0.0228284 -0.0217538 -0.0206645 -0.0195671 -0.0184616 -0.0173482 -0.0162345 -0.0151287 -0.0140306 -0.0129402 -0.0118664 -0.0108178 -0.00979452 -0.00879646 -0.0078322 -0.00691029 -0.00603072 -0.0051935 -0.00440534 -0.00367292 -0.00299627 -0.00237536 -0.00181328 -0.0013131 -0.000874813 -0.000498421 -0.000181869 7.69012e-05 0.000277889 0.000421093 0.00051484 0.000567452 0.000578929 0.000549272 0.000491301 0.000417833 0.000328871 0.000224412 0.000126232 5.61031e-05 1.40258e-05 0 0 1.2957e-05 5.18281e-05 0.000116613 0.000207312 0.000301379 0.000376265 0.000431972 0.000468499 0.000472388 0.000430182 0.000341881 0.000207485 1.87354e-05 -0.000232625 -0.000546595 -0.000923176 -0.00136372 -0.00186957 -0.00244074 -0.00307722 -0.00377473 -0.00452898 -0.00533997 -0.0062077 -0.00712401 -0.00808075 -0.00907791 -0.0101155 -0.0111837 -0.0122725 -0.013382 -0.0145122 -0.0156535 -0.0167962 -0.0179403 -0.0190859 -0.0202249 -0.0213491 -0.0224585 -0.0235532 -0.0246269 -0.0256733 -0.0266925 -0.0276844 -0.0286444 -0.0295676 -0.0304541 -0.0313038 -0.0321131 -0.0328781 -0.0335988 -0.0342752 -0.0349041 -0.0354825 -0.0360102 -0.0364874 -0.0369115 -0.0372801 -0.0375933 -0.037851 -0.0380518 -0.0381945 -0.0382789 -0.0383051 -0.0382731 -0.0381829 -0.0380345 -0.0378279 -0.0375645 -0.0372456 -0.0368714 -0.0364417 -0.0359591 -0.035426 -0.0348425 -0.0342084 -0.0335272 -0.0328018 -0.0320325 -0.031219 -0.0303654 -0.0294754 -0.0285491 -0.0275864 -0.0265921 -0.025571 -0.0245232 -0.0234487 -0.0223536 -0.0212443 -0.0201208 -0.018983 -0.0178392 -0.0166972 -0.0155573 -0.0144193 -0.0132927 -0.0121873 -0.0111029 -0.0100395 -0.00900694 -0.00801496 -0.00706355 -0.00615271 -0.00529047 -0.00448487 -0.0037359 -0.00304356 -0.00241204 -0.0018455 -0.00134395 -0.000907394 -0.000534415 -0.000223606 2.50317e-05 0.000211499 0.000344035 0.000430882 0.00047204 0.000467508 0.000430655 0.000374849 0.00030009 0.000206377 0.000116087 5.15943e-05 1.28986e-05 0 0 1.12799e-05 4.51196e-05 0.000101519 0.000180478 0.000259208 0.000314917 0.000347607 0.000357278 0.000330099 0.000252242 0.000123707 -5.55062e-05 -0.000293338 -0.00059773 -0.000968681 -0.00140619 -0.00191073 -0.00248277 -0.00312231 -0.00382934 -0.00459826 -0.00542344 -0.00630488 -0.00724258 -0.00822688 -0.00924811 -0.0103063 -0.0114014 -0.0125223 -0.0136577 -0.0148077 -0.0159723 -0.0171411 -0.0183037 -0.0194601 -0.0206103 -0.0217463 -0.0228599 -0.0239511 -0.02502 -0.026061 -0.0270687 -0.0280431 -0.0289842 -0.0298887 -0.0307532 -0.0315777 -0.0323622 -0.0331047 -0.0338029 -0.034457 -0.0350669 -0.0356311 -0.0361481 -0.0366179 -0.0370405 -0.0374148 -0.0377394 -0.0380146 -0.0382402 -0.0384156 -0.0385401 -0.0386137 -0.0386364 -0.0386082 -0.0385291 -0.0383991 -0.0382182 -0.0379871 -0.0377064 -0.0373763 -0.0369966 -0.0365686 -0.0360934 -0.0355711 -0.0350016 -0.0343866 -0.0337276 -0.0330246 -0.0322776 -0.0314888 -0.0306603 -0.0297922 -0.0288844 -0.0279403 -0.0269635 -0.0259538 -0.0249113 -0.0238414 -0.0227498 -0.0216364 -0.0205011 -0.0193522 -0.0181976 -0.0170374 -0.0158716 -0.0147104 -0.0135643 -0.0124332 -0.0113171 -0.0102271 -0.00917415 -0.0081584 -0.00717979 -0.00624784 -0.00537209 -0.00455254 -0.00378918 -0.00308752 -0.00245304 -0.00188576 -0.00138567 -0.000952225 -0.000584895 -0.000283675 -4.85666e-05 0.000128364 0.00025505 0.000331492 0.00035769 0.000347386 0.000314323 0.000258501 0.00017992 0.000101205 4.498e-05 1.1245e-05 0 0 9.02682e-06 3.61073e-05 8.12414e-05 0.000144429 0.00020305 0.000234485 0.000238733 0.000215794 0.000151688 3.24364e-05 -0.000141962 -0.000371507 -0.000663551 -0.00102544 -0.00145719 -0.00195878 -0.00252955 -0.00316882 -0.00387658 -0.00465285 -0.00549042 -0.00638209 -0.00732787 -0.00832775 -0.00937039 -0.0104444 -0.0115498 -0.0126866 -0.0138422 -0.015004 -0.0161721 -0.0173464 -0.0185159 -0.0196695 -0.0208071 -0.0219289 -0.0230268 -0.0240932 -0.0251279 -0.026131 -0.0270982 -0.0280252 -0.0289121 -0.0297588 -0.0305638 -0.0313259 -0.0320449 -0.0327208 -0.0333539 -0.0339443 -0.034492 -0.034997 -0.03546 -0.0358816 -0.0362619 -0.0366007 -0.0368988 -0.0371565 -0.0373739 -0.0375509 -0.0376879 -0.0377851 -0.0378424 -0.0378599 -0.0378375 -0.0377752 -0.0376731 -0.0375311 -0.0373489 -0.0371264 -0.0368636 -0.0365604 -0.0362163 -0.0358308 -0.0354039 -0.0349356 -0.0344254 -0.0338726 -0.0332771 -0.0326391 -0.0319584 -0.0312349 -0.0304687 -0.0296596 -0.0288094 -0.0279194 -0.0269897 -0.0260203 -0.0250155 -0.0239797 -0.0229128 -0.0218149 -0.0206938 -0.0195574 -0.0184057 -0.0172388 -0.0160675 -0.014903 -0.0137453 -0.0125942 -0.0114624 -0.0103623 -0.00929376 -0.00825693 -0.00726298 -0.00632312 -0.00543736 -0.00460569 -0.00383518 -0.00313289 -0.00249881 -0.00193296 -0.00143591 -0.00100826 -0.000650016 -0.000361173 -0.000134373 3.77374e-05 0.00015516 0.000217894 0.00023984 0.000234895 0.000203061 0.000144337 8.11898e-05 3.60844e-05 9.02109e-06 0 0 6.19776e-06 2.47911e-05 5.57799e-05 9.91642e-05 0.000132906 0.000134967 0.000105348 4.40477e-05 -6.28429e-05 -0.000229234 -0.000455126 -0.000740518 -0.0010919 -0.00151577 -0.00201212 -0.00258095 -0.00322018 -0.00392772 -0.00470357 -0.00554774 -0.0064512 -0.00740494 -0.00840894 -0.00946323 -0.0105545 -0.0116696 -0.0128085 -0.0139712 -0.0151435 -0.0163116 -0.0174753 -0.0186347 -0.019778 -0.0208936 -0.0219815 -0.0230416 -0.0240665 -0.025049 -0.025989 -0.0268864 -0.0277386 -0.028543 -0.0292995 -0.030008 -0.0306697 -0.0312856 -0.0318555 -0.0323796 -0.0328608 -0.0333022 -0.0337038 -0.0340655 -0.0343907 -0.0346829 -0.034942 -0.0351679 -0.0353635 -0.0355312 -0.0356711 -0.0357832 -0.0358689 -0.0359295 -0.0359651 -0.0359756 -0.035961 -0.0359213 -0.0358564 -0.0357665 -0.0356501 -0.0355057 -0.0353333 -0.0351331 -0.0349022 -0.0346382 -0.0343409 -0.0340105 -0.0336435 -0.0332366 -0.03279 -0.0323034 -0.0317741 -0.0311992 -0.0305785 -0.0299122 -0.0291993 -0.0284389 -0.0276311 -0.0267758 -0.0258758 -0.0249338 -0.02395 -0.0229243 -0.0218641 -0.0207768 -0.0196624 -0.0185209 -0.017364 -0.0162034 -0.0150391 -0.013871 -0.012713 -0.0115793 -0.0104696 -0.00938415 -0.00833589 -0.00733797 -0.00639037 -0.0054931 -0.00465504 -0.00388504 -0.00318311 -0.00254926 -0.00198546 -0.00149371 -0.00107399 -0.000726319 -0.000444178 -0.000221057 -5.69571e-05 4.81217e-05 0.000108017 0.000136567 0.000133771 9.96293e-05 5.60415e-05 2.49073e-05 6.22683e-06 0 0 2.79274e-06 1.1171e-05 2.51347e-05 4.46839e-05 4.8775e-05 1.63647e-05 -5.25473e-05 -0.000157961 -0.000313495 -0.00053277 -0.000815784 -0.00116254 -0.00157839 -0.0020687 -0.00263347 -0.00327269 -0.00398261 -0.00475947 -0.00560328 -0.00651402 -0.00748062 -0.00849198 -0.0095481 -0.010649 -0.0117793 -0.0129238 -0.0140823 -0.015255 -0.0164262 -0.0175803 -0.0187172 -0.019837 -0.0209274 -0.0219761 -0.0229831 -0.0239484 -0.0248654 -0.0257273 -0.0265342 -0.0272861 -0.0279822 -0.0286219 -0.0292052 -0.029732 -0.0302064 -0.0306323 -0.0310097 -0.0313386 -0.0316255 -0.0318767 -0.0320923 -0.0322723 -0.0324233 -0.0325519 -0.0326582 -0.0327422 -0.0328089 -0.0328637 -0.0329064 -0.0329371 -0.0329585 -0.0329734 -0.0329817 -0.0329835 -0.0329787 -0.0329673 -0.0329492 -0.0329245 -0.0328904 -0.0328441 -0.0327855 -0.0327146 -0.0326264 -0.0325155 -0.0323821 -0.0322261 -0.0320409 -0.0318199 -0.0315631 -0.0312707 -0.0309361 -0.0305531 -0.0301218 -0.029642 -0.02911 -0.028522 -0.0278778 -0.0271777 -0.0264222 -0.0256124 -0.0247481 -0.0238294 -0.022863 -0.0218556 -0.0208073 -0.019718 -0.0186 -0.0174655 -0.0163146 -0.0151472 -0.0139789 -0.0128252 -0.011686 -0.0105614 -0.00946658 -0.00841662 -0.00741156 -0.00645141 -0.00554708 -0.00470949 -