<?xml version="1.0"?> 
<VTKFile type="StructuredGrid" version="0.1"> 
<StructuredGrid WholeExtent="0 128 0 128 0 0"> 
<Piece Extent="0 128 0 128 0 0"> 
<PointData>
<DataArray type="Float32" Name="u" format="ascii" NumberOfComponents="1"> 
0 0 0 0 0 0 0 0 0 0 0 0 0 0 0 0 0 0 0 0 0 0 0 0 0 0 0 0 0 0 0 0 0 0 0 0 0 0 0 0 0 0 0 0 0 0 0 0 0 0 0 0 0 0 0 0 0 0 0 0 0 0 0 0 0 0 0 0 0 0 0 0 0 0 0 0 0 0 0 0 0 0 0 0 0 0 0 0 0 0 0 0 0 0 0 0 0 0 0 0 0 0 0 0 0 0 0 0 0 0 0 0 0 0 0 0 0 0 0 0 0 0 0 0 0 0 0 0 0 0 8.02512e-10 3.21005e-09 7.22261e-09 1.28402e-08 -1.10375e-07 -4.92861e-07 -1.13462e-06 -2.03565e-06 -3.26479e-06 -4.8909e-06 -6.91397e-06 -9.334e-06 -1.21737e-05 -1.54557e-05 -1.91801e-05 -2.33469e-05 -2.79462e-05 -3.29684e-05 -3.84133e-05 -4.42811e-05 -5.05379e-05 -5.715e-05 -6.41175e-05 -7.14402e-05 -7.90651e-05 -8.69387e-05 -9.50612e-05 -0.000103432 -0.000111986 -0.000120657 -0.000129444 -0.000138347 -0.000147298 -0.000156225 -0.000165128 -0.000174008 -0.000182801 -0.000191442 -0.000199931 -0.000208267 -0.000216401 -0.00022428 -0.000231903 -0.000239272 -0.000246352 -0.000253106 -0.000259535 -0.00026564 -0.0002714 -0.000276797 -0.000281831 -0.000286502 -0.000290802 -0.000294725 -0.00029827 -0.000301437 -0.000304227 -0.000306638 -0.000308671 -0.000310325 -0.000311602 -0.000312503 -0.000313029 -0.000313178 -0.000312952 -0.00031235 -0.000311373 -0.00031002 -0.00030829 -0.000306183 -0.000303699 -0.000300836 -0.000297597 -0.000293982 -0.000289992 -0.000285625 -0.000280891 -0.000275796 -0.00027034 -0.000264525 -0.000258368 -0.000251891 -0.000245093 -0.000237975 -0.000230571 -0.000222917 -0.000215014 -0.000206862 -0.000198512 -0.000190015 -0.000181372 -0.000172584 -0.000163713 -0.000154825 -0.000145919 -0.000136996 -0.000128125 -0.000119374 -0.000110745 -0.000102238 -9.39168e-05 -8.58477e-05 -7.80304e-05 -7.04651e-05 -6.32038e-05 -5.62988e-05 -4.97502e-05 -4.35578e-05 -3.77545e-05 -3.23727e-05 -2.74125e-05 -2.28739e-05 -1.87657e-05 -1.50967e-05 -1.18669e-05 -9.0762e-06 -6.7013e-06 -4.71878e-06 -3.12866e-06 -1.93092e-06 -1.05682e-06 -4.37622e-07 -7.33198e-08 3.60858e-08 2.02983e-08 9.02145e-09 2.25536e-09 0 0 3.21005e-09 1.28402e-08 2.88904e-08 5.13608e-08 -4.415e-07 -1.97144e-06 -4.53847e-06 -8.14258e-06 -1.30592e-05 -1.95636e-05 -2.76559e-05 -3.7336e-05 -4.86948e-05 -6.1823e-05 -7.67206e-05 -9.33876e-05 -0.000111785 -0.000131874 -0.000153653 -0.000177124 -0.000202152 -0.0002286 -0.00025647 -0.000285761 -0.00031626 -0.000347755 -0.000380245 -0.00041373 -0.000447945 -0.000482627 -0.000517776 -0.00055339 -0.000589191 -0.000624898 -0.000660513 -0.000696034 -0.000731204 -0.000765767 -0.000799722 -0.00083307 -0.000865604 -0.000897118 -0.000927614 -0.00095709 -0.000985406 -0.00101242 -0.00103814 -0.00106256 -0.0010856 -0.00110719 -0.00112732 -0.00114601 -0.00116321 -0.0011789 -0.00119308 -0.00120575 -0.00121691 -0.00122655 -0.00123468 -0.0012413 -0.00124641 -0.00125001 -0.00125211 -0.00125271 -0.00125181 -0.0012494 -0.00124549 -0.00124008 -0.00123316 -0.00122473 -0.00121479 -0.00120335 -0.00119039 -0.00117593 -0.00115997 -0.0011425 -0.00112356 -0.00110318 -0.00108136 -0.0010581 -0.00103347 -0.00100756 -0.000980373 -0.000951898 -0.000922283 -0.00089167 -0.000860058 -0.000827448 -0.000794046 -0.00076006 -0.00072549 -0.000690335 -0.000654853 -0.000619301 -0.000583678 -0.000547984 -0.000512498 -0.000477498 -0.000442982 -0.000408951 -0.000375667 -0.000343391 -0.000312122 -0.00028186 -0.000252815 -0.000225195 -0.000199001 -0.000174231 -0.000151018 -0.000129491 -0.00010965 -9.14957e-05 -7.5063e-05 -6.03869e-05 -4.74675e-05 -3.63048e-05 -2.68052e-05 -1.88751e-05 -1.25146e-05 -7.72367e-06 -4.22729e-06 -1.75049e-06 -2.93279e-07 1.44343e-07 8.11931e-08 3.60858e-08 9.02145e-09 0 0 7.22261e-09 2.88904e-08 6.50035e-08 1.15562e-07 -9.93376e-07 -4.43575e-06 -1.02116e-05 -1.83208e-05 -2.93831e-05 -4.40181e-05 -6.22257e-05 -8.4006e-05 -0.000109563 -0.000139102 -0.000172621 -0.000210122 -0.000251516 -0.000296715 -0.00034572 -0.00039853 -0.000454841 -0.00051435 -0.000577057 -0.000642962 -0.000711586 -0.000782448 -0.000855551 -0.000930892 -0.00100788 -0.00108591 -0.00116499 -0.00124513 -0.00132568 -0.00140602 -0.00148615 -0.00156608 -0.00164521 -0.00172298 -0.00179938 -0.00187441 -0.00194761 -0.00201852 -0.00208713 -0.00215345 -0.00221716 -0.00227795 -0.00233582 -0.00239076 -0.0024426 -0.00249118 -0.00253648 -0.00257852 -0.00261722 -0.00265252 -0.00268443 -0.00271294 -0.00273804 -0.00275974 -0.00277803 -0.00279292 -0.00280442 -0.00281253 -0.00281726 -0.0028186 -0.00281657 -0.00281115 -0.00280236 -0.00279018 -0.00277461 -0.00275565 -0.00273329 -0.00270753 -0.00267838 -0.00264584 -0.00260993 -0.00257063 -0.00252802 -0.00248216 -0.00243306 -0.00238072 -0.00232531 -0.00226702 -0.00220584 -0.00214177 -0.00207514 -0.00200626 -0.00193513 -0.00186176 -0.0017866 -0.00171014 -0.00163235 -0.00155325 -0.00147342 -0.00139343 -0.00131327 -0.00123296 -0.00115312 -0.00107437 -0.000996709 -0.000920141 -0.000845251 -0.000772629 -0.000702274 -0.000634186 -0.000568834 -0.00050669 -0.000447752 -0.000392021 -0.00033979 -0.000291354 -0.000246713 -0.000205865 -0.000168892 -0.000135871 -0.000106802 -8.16858e-05 -6.03117e-05 -4.2469e-05 -2.81579e-05 -1.73783e-05 -9.5114e-06 -3.9386e-06 -6.59878e-07 3.24772e-07 1.82684e-07 8.11931e-08 2.02983e-08 0 0 1.28402e-08 5.13608e-08 1.15562e-07 2.05443e-07 -1.766e-06 -7.88578e-06 -1.81539e-05 -3.25703e-05 -5.22366e-05 -7.82543e-05 -0.000110623 -0.000149344 -0.000194779 -0.000247292 -0.000306882 -0.00037355 -0.00044714 -0.000527494 -0.000614613 -0.000708497 -0.000808606 -0.0009144 -0.00102588 -0.00114304 -0.00126504 -0.00139102 -0.00152098 -0.00165492 -0.00179178 -0.00193051 -0.0020711 -0.00221356 -0.00235676 -0.00249959 -0.00264205 -0.00278413 -0.00292482 -0.00306307 -0.00319889 -0.00333228 -0.00346242 -0.00358847 -0.00371046 -0.00382836 -0.00394163 -0.00404969 -0.00415256 -0.00425024 -0.0043424 -0.00442876 -0.0045093 -0.00458403 -0.00465283 -0.00471559 -0.00477231 -0.004823 -0.00486763 -0.00490621 -0.00493873 -0.0049652 -0.00498563 -0.00500005 -0.00500846 -0.00501085 -0.00500723 -0.0049976 -0.00498197 -0.00496032 -0.00493265 -0.00489893 -0.00485918 -0.00481338 -0.00476156 -0.00470372 -0.00463987 -0.00457001 -0.00449425 -0.00441273 -0.00432545 -0.00423239 -0.00413389 -0.00403026 -0.00392149 -0.00380759 -0.00368913 -0.00356668 -0.00344023 -0.00330979 -0.00317618 -0.00304024 -0.00290196 -0.00276134 -0.00261941 -0.0024772 -0.00233471 -0.00219194 -0.00204999 -0.00190999 -0.00177193 -0.00163581 -0.00150267 -0.00137356 -0.00124849 -0.00112744 -0.00101126 -0.000900781 -0.000796003 -0.000696926 -0.000604071 -0.000517963 -0.0004386 -0.000365983 -0.000300252 -0.000241548 -0.00018987 -0.000145219 -0.000107221 -7.55005e-05 -5.00585e-05 -3.08947e-05 -1.69091e-05 -7.00196e-06 -1.17312e-06 5.77373e-07 3.24772e-07 1.44343e-07 3.60858e-08 0 0 -1.14696e-07 -4.58785e-07 -1.03227e-06 -1.83514e-06 -5.93783e-06 -1.64107e-05 -3.32539e-05 -5.64673e-05 -8.76944e-05 -0.000128579 -0.00017912 -0.000239319 -0.000309698 -0.00039078 -0.000482564 -0.000585052 -0.00069798 -0.000821088 -0.000954374 -0.00109784 -0.00125064 -0.00141194 -0.00158172 -0.00176 -0.00194547 -0.0021368 -0.002334 -0.00253707 -0.00274439 -0.00295434 -0.00316693 -0.00338216 -0.00359832 -0.00381373 -0.00402838 -0.00424228 -0.00445387 -0.00466161 -0.00486551 -0.00506555 -0.00526053 -0.00544922 -0.00563162 -0.00580773 -0.00597675 -0.00613786 -0.00629106 -0.00643636 -0.00657333 -0.00670155 -0.00682103 -0.00693176 -0.00703361 -0.00712646 -0.0072103 -0.00728514 -0.007351 -0.0074079 -0.00745584 -0.00749483 -0.0075249 -0.00754613 -0.00755849 -0.007562 -0.00755666 -0.00754246 -0.00751941 -0.00748751 -0.00744672 -0.00739699 -0.00733832 -0.00727071 -0.00719415 -0.00710862 -0.00701413 -0.00691067 -0.00679839 -0.00667743 -0.00654779 -0.00640947 -0.00626291 -0.00610854 -0.00594636 -0.00577637 -0.00559939 -0.00541625 -0.00522696 -0.0050315 -0.0048311 -0.004627 -0.00441919 -0.00420767 -0.00399399 -0.00377969 -0.00356477 -0.00334924 -0.00313477 -0.00292305 -0.00271409 -0.00250788 -0.00230601 -0.00211009 -0.00192012 -0.0017361 -0.0015593 -0.00139103 -0.00123127 -0.00108004 -0.000938138 -0.00080639 -0.000684794 -0.000573349 -0.000472294 -0.000381867 -0.000302066 -0.000232892 -0.000173805 -0.000124264 -8.42709e-05 -5.3824e-05 -3.12823e-05 -1.50041e-05 -4.98952e-06 -1.23849e-06 -6.96652e-07 -3.09623e-07 -7.74057e-08 0 0 -5.10146e-07 -2.04058e-06 -4.59131e-06 -8.16233e-06 -1.66873e-05 -3.40999e-05 -6.04e-05 -9.55878e-05 -0.000141831 -0.000201297 -0.000273987 -0.0003599 -0.000459675 -0.000573951 -0.000702728 -0.000846005 -0.00100336 -0.00117437 -0.00135904 -0.00155737 -0.00176814 -0.00199014 -0.00222337 -0.00246784 -0.0027217 -0.00298311 -0.00325207 -0.00352859 -0.00381041 -0.00409532 -0.00438332 -0.0046744 -0.00496625 -0.00525656 -0.00554534 -0.00583257 -0.00611621 -0.00639417 -0.00666646 -0.00693308 -0.00719244 -0.00744296 -0.00768465 -0.00791749 -0.00814049 -0.00835266 -0.00855399 -0.00874449 -0.0089237 -0.00909117 -0.00924691 -0.00939091 -0.00952311 -0.00964346 -0.00975195 -0.00984858 -0.00993348 -0.0100068 -0.0100684 -0.0101185 -0.0101571 -0.0101843 -0.0102001 -0.0102046 -0.0101977 -0.0101794 -0.0101498 -0.0101088 -0.0100563 -0.00999222 -0.00991656 -0.00982932 -0.00973037 -0.00961961 -0.00949705 -0.00936267 -0.00921656 -0.0090588 -0.00888939 -0.00870832 -0.00851608 -0.00831312 -0.00809946 -0.00787509 -0.00764103 -0.0073983 -0.0071469 -0.00688682 -0.00661966 -0.00634702 -0.00606891 -0.00578531 -0.0054983 -0.00520995 -0.00492024 -0.00462919 -0.0043391 -0.00405224 -0.00376864 -0.00348828 -0.00321337 -0.00294613 -0.00268654 -0.00243462 -0.00219216 -0.00196098 -0.00174108 -0.00153245 -0.00133626 -0.00115371 -0.000984774 -0.000829466 -0.00068817 -0.000561276 -0.000448783 -0.000350691 -0.000266336 -0.000195056 -0.00013685 -9.17173e-05 -5.74926e-05 -3.20087e-05 -1.52656e-05 -7.26346e-06 -4.0857e-06 -1.81586e-06 -4.53966e-07 0 0 -1.17351e-06 -4.69403e-06 -1.05616e-05 -1.87761e-05 -3.40144e-05 -6.09531e-05 -9.95923e-05 -0.000149932 -0.000214646 -0.000296411 -0.000395224 -0.000511087 -0.000644711 -0.000796806 -0.000967373 -0.00115641 -0.00136328 -0.00158735 -0.00182862 -0.00208708 -0.0023611 -0.00264901 -0.00295083 -0.00326656 -0.00359375 -0.00392997 -0.00427521 -0.00462948 -0.00498987 -0.00535346 -0.00572026 -0.00609027 -0.00646053 -0.00682808 -0.00719291 -0.00755502 -0.00791184 -0.00826075 -0.00860176 -0.00893487 -0.00925817 -0.00956972 -0.00986954 -0.0101576 -0.0104328 -0.0106941 -0.0109413 -0.0111746 -0.0113935 -0.0115976 -0.0117869 -0.0119615 -0.0121213 -0.0122666 -0.0123972 -0.0125133 -0.0126151 -0.0127028 -0.0127765 -0.0128363 -0.0128822 -0.0129146 -0.0129334 -0.0129387 -0.0129304 -0.0129085 -0.0128731 -0.0128241 -0.0127614 -0.0126846 -0.0125939 -0.0124892 -0.0123702 -0.0122367 -0.0120886 -0.011926 -0.0117488 -0.0115568 -0.0113502 -0.0111289 -0.0108934 -0.010644 -0.0103808 -0.0101038 -0.00981406 -0.00951282 -0.00920005 -0.00887576 -0.00854187 -0.00820032 -0.00785112 -0.00749427 -0.00713235 -0.00676797 -0.00640113 -0.00603181 -0.00566298 -0.00529757 -0.00493558 -0.00457702 -0.00422475 -0.00388166 -0.00354775 -0.00322301 -0.00290985 -0.00261065 -0.00232542 -0.00205415 -0.00179845 -0.00155991 -0.00133854 -0.00113433 -0.000947879 -0.000779776 -0.000630021 -0.000498616 -0.000384815 -0.000287875 -0.000207795 -0.000144575 -9.554e-05 -5.80156e-05 -3.20014e-05 -1.74975e-05 -9.84236e-06 -4.37438e-06 -1.0936e-06 0 0 -2.10478e-06 -8.41914e-06 -1.89431e-05 -3.36765e-05 -5.79192e-05 -9.69706e-05 -0.000150831 -0.0002195 -0.000306141 -0.000413918 -0.000542831 -0.000692881 -0.000864805 -0.00105934 -0.0012765 -0.00151627 -0.00177775 -0.00206002 -0.0023631 -0.00268698 -0.00302952 -0.00338856 -0.0037641 -0.00415615 -0.0045616 -0.00497735 -0.0054034 -0.00583975 -0.00628274 -0.00672875 -0.00717777 -0.00762979 -0.00808118 -0.00852828 -0.0089711 -0.00940963 -0.00984075 -0.0102613 -0.0106714 -0.0110709 -0.0114577 -0.0118295 -0.0121863 -0.0125281 -0.0128538 -0.0131622 -0.0134531 -0.0137268 -0.0139828 -0.0142209 -0.0144411 -0.0146435 -0.0148283 -0.0149959 -0.0151462 -0.0152793 -0.0153958 -0.015496 -0.0155801 -0.0156481 -0.0157002 -0.015737 -0.0157583 -0.0157642 -0.0157546 -0.0157297 -0.0156893 -0.0156335 -0.015562 -0.0154742 -0.0153704 -0.0152504 -0.0151137 -0.0149599 -0.0147888 -0.0146007 -0.014395 -0.0141715 -0.0139303 -0.0136713 -0.0133948 -0.0131012 -0.0127904 -0.0124624 -0.0121185 -0.0117598 -0.0113864 -0.0109983 -0.0105977 -0.0101869 -0.00976583 -0.00933454 -0.00889614 -0.00845377 -0.00800742 -0.00755709 -0.00710642 -0.00665902 -0.00621492 -0.00577409 -0.00534015 -0.0049167 -0.00450374 -0.00410128 -0.00371236 -0.00334003 -0.0029843 -0.00264516 -0.0023247 -0.00202501 -0.0017461 -0.00148795 -0.00125142 -0.00103737 -0.000845781 -0.000676667 -0.000529241 -0.000402721 -0.000297106 -0.000212396 -0.000145425 -9.30249e-05 -5.51969e-05 -3.19407e-05 -1.79666e-05 -7.98518e-06 -1.99629e-06 0 0 -3.37265e-06 -1.34906e-05 -3.03538e-05 -5.39624e-05 -9.00393e-05 -0.000144308 -0.000216768 -0.000307419 -0.000419848 -0.000557643 -0.000720803 -0.000909328 -0.0011239 -0.0013652 -0.00163323 -0.00192799 -0.00224822 -0.00259266 -0.00296132 -0.00335418 -0.00376852 -0.00420162 -0.00465347 -0.00512408 -0.00560959 -0.00610618 -0.00661384 -0.00713257 -0.00765795 -0.00818555 -0.00871538 -0.00924742 -0.00977735 -0.0103008 -0.0108178 -0.0113284 -0.0118288 -0.0123156 -0.0127887 -0.0132481 -0.0136914 -0.0141161 -0.0145222 -0.0149098 -0.0152777 -0.0156247 -0.015951 -0.0162564 -0.016541 -0.0168048 -0.0170478 -0.01727 -0.0174721 -0.0176548 -0.0178181 -0.0179621 -0.0180876 -0.0181954 -0.0182856 -0.0183582 -0.0184138 -0.0184528 -0.0184755 -0.0184816 -0.0184713 -0.0184445 -0.0184012 -0.0183415 -0.0182647 -0.0181703 -0.0180583 -0.0179287 -0.0177806 -0.0176132 -0.0174264 -0.0172203 -0.0169942 -0.0167474 -0.0164799 -0.0161917 -0.0158828 -0.0155533 -0.0152032 -0.0148325 -0.0144423 -0.0140339 -0.0136071 -0.0131621 -0.0127013 -0.0122271 -0.0117396 -0.0112388 -0.0107282 -0.0102116 -0.00968883 -0.00916001 -0.00862943 -0.00810141 -0.00757594 -0.00705304 -0.00653707 -0.00603243 -0.0055391 -0.00505709 -0.00459017 -0.00414213 -0.00371297 -0.00330267 -0.00291391 -0.00254934 -0.00220895 -0.00189276 -0.00160194 -0.00133768 -0.0011 -0.000888881 -0.000703593 -0.000543399 -0.000408298 -0.00029829 -0.000209781 -0.000139177 -8.6478e-05 -5.16837e-05 -2.90721e-05 -1.29209e-05 -3.23023e-06 0 0 -5.04577e-06 -2.01831e-05 -4.5412e-05 -8.07324e-05 -0.000132012 -0.00020512 -0.000300055 -0.000416818 -0.000559304 -0.00073141 -0.000933135 -0.00116448 -0.00142594 -0.00171801 -0.0020407 -0.00239399 -0.00277618 -0.00318554 -0.00362207 -0.00408578 -0.00457324 -0.00508107 -0.00560925 -0.00615779 -0.00672204 -0.00729735 -0.00788371 -0.00848114 -0.00908439 -0.00968823 -0.0102926 -0.0108977 -0.0114982 -0.0120894 -0.012671 -0.0132433 -0.013802 -0.0143433 -0.0148671 -0.0153734 -0.0158596 -0.0163234 -0.0167646 -0.0171833 -0.0175786 -0.0179497 -0.0182964 -0.0186189 -0.0189176 -0.019193 -0.0194451 -0.019674 -0.0198808 -0.0200669 -0.0202324 -0.0203771 -0.0205024 -0.0206099 -0.0206993 -0.0207709 -0.0208253 -0.0208636 -0.0208856 -0.0208914 -0.020881 -0.0208544 -0.0208116 -0.0207525 -0.0206764 -0.0205823 -0.0204702 -0.0203402 -0.0201908 -0.0200208 -0.0198301 -0.0196187 -0.0193854 -0.0191288 -0.0188491 -0.0185462 -0.0182196 -0.017869 -0.0174943 -0.0170956 -0.0166737 -0.0162296 -0.0157633 -0.0152748 -0.0147666 -0.0142413 -0.013699 -0.0131396 -0.0125671 -0.0119856 -0.0113951 -0.0107956 -0.010192 -0.00958951 -0.00898797 -0.00838742 -0.00779304 -0.00721004 -0.0066384 -0.00607812 -0.00553379 -0.00500998 -0.00450669 -0.00402392 -0.00356499 -0.00313323 -0.00272863 -0.0023512 -0.00200256 -0.00168437 -0.00139661 -0.00113929 -0.000911849 -0.000713713 -0.000544885 -0.000405365 -0.000291244 -0.000198613 -0.00012747 -7.78172e-05 -4.37722e-05 -1.94543e-05 -4.86358e-06 0 0 -7.12416e-06 -2.84966e-05 -6.41175e-05 -0.000113987 -0.000183838 -0.000279407 -0.000400694 -0.000547697 -0.000724508 -0.000935218 -0.00117983 -0.00145833 -0.00177092 -0.00211777 -0.00249889 -0.00291427 -0.00336163 -0.00383866 -0.00434538 -0.00488178 -0.00544367 -0.00602689 -0.00663143 -0.00725729 -0.00789894 -0.00855085 -0.00921302 -0.00988546 -0.0105621 -0.0112368 -0.0119096 -0.0125805 -0.0132438 -0.0138939 -0.0145307 -0.0151543 -0.0157603 -0.0163444 -0.0169065 -0.0174467 -0.0179624 -0.0184514 -0.0189135 -0.0193487 -0.0197567 -0.020137 -0.0204895 -0.0208144 -0.0211127 -0.0213856 -0.0216332 -0.0218555 -0.0220545 -0.0222323 -0.0223889 -0.0225242 -0.0226404 -0.0227394 -0.0228213 -0.0228861 -0.0229349 -0.0229692 -0.0229887 -0.0229936 -0.0229839 -0.0229594 -0.0229203 -0.0228666 -0.0227969 -0.02271 -0.022606 -0.0224848 -0.0223444 -0.0221827 -0.0219999 -0.0217958 -0.0215685 -0.0213159 -0.021038 -0.0207349 -0.0204053 -0.0200483 -0.0196637 -0.0192516 -0.0188126 -0.018347 -0.0178549 -0.0173363 -0.0167937 -0.0162296 -0.015644 -0.0150369 -0.0144127 -0.0137758 -0.0131261 -0.0124637 -0.0117942 -0.0111233 -0.010451 -0.00977722 -0.00910806 -0.00844953 -0.00780164 -0.00716439 -0.00654322 -0.00594358 -0.00536547 -0.0048089 -0.00427795 -0.00377669 -0.00330513 -0.00286327 -0.0024533 -0.00207742 -0.00173562 -0.00142791 -0.00115401 -0.000913662 -0.000706867 -0.000533622 -0.000389814 -0.000271332 -0.000178174 -0.000110341 -6.20669e-05 -2.75853e-05 -6.89633e-06 0 0 -9.60781e-06 -3.84312e-05 -8.64703e-05 -0.000153725 -0.000245518 -0.00036717 -0.000518683 -0.000700056 -0.00091546 -0.00116907 -0.00146088 -0.00179089 -0.00215885 -0.00256449 -0.00300781 -0.00348883 -0.00400455 -0.00455202 -0.00513123 -0.00574218 -0.00637982 -0.0070391 -0.00772002 -0.00842258 -0.00914029 -0.00986669 -0.0106018 -0.0113455 -0.012091 -0.0128312 -0.0135662 -0.0142959 -0.0150141 -0.0157144 -0.0163969 -0.0170615 -0.0177037 -0.0183188 -0.0189069 -0.019468 -0.0199998 -0.0205 -0.0209688 -0.021406 -0.0218119 -0.0221867 -0.0225303 -0.0228427 -0.0231262 -0.0233826 -0.0236121 -0.0238146 -0.0239932 -0.0241509 -0.0242877 -0.0244035 -0.0245014 -0.0245841 -0.0246515 -0.0247038 -0.0247426 -0.0247696 -0.0247848 -0.0247882 -0.0247798 -0.0247596 -0.0247275 -0.0246837 -0.0246262 -0.0245536 -0.0244656 -0.0243624 -0.0242411 -0.0240989 -0.0239357 -0.0237516 -0.0235435 -0.0233085 -0.0230466 -0.0227577 -0.0224399 -0.0220911 -0.0217114 -0.0213007 -0.0208589 -0.020386 -0.0198819 -0.0193466 -0.0187825 -0.0181919 -0.0175746 -0.0169309 -0.0162652 -0.0155823 -0.014882 -0.0141645 -0.0134361 -0.0127029 -0.011965 -0.0112225 -0.0104821 -0.00975091 -0.00902882 -0.00831587 -0.00761844 -0.00694292 -0.00628931 -0.00565761 -0.00505277 -0.00447971 -0.00393845 -0.00342898 -0.00295415 -0.00251683 -0.00211702 -0.00175472 -0.00143007 -0.00114325 -0.000894243 -0.00068306 -0.000505491 -0.000357335 -0.000238589 -0.000149256 -8.39564e-05 -3.73139e-05 -9.32849e-06 0 0 -1.25085e-05 -5.00341e-05 -0.000112577 -0.000200136 -0.000317305 -0.000468673 -0.000654241 -0.000874009 -0.00113207 -0.00143253 -0.00177538 -0.00216063 -0.0025874 -0.00305483 -0.00356293 -0.00411168 -0.00469731 -0.00531602 -0.00596781 -0.00665268 -0.00736461 -0.00809755 -0.00885151 -0.0096265 -0.010415 -0.0112095 -0.01201 -0.0128165 -0.0136212 -0.0144161 -0.0152014 -0.0159769 -0.0167358 -0.0174712 -0.0181832 -0.0188717 -0.019532 -0.0201595 -0.020754 -0.0213156 -0.0218425 -0.0223329 -0.0227867 -0.0232039 -0.0235857 -0.023933 -0.0242459 -0.0245244 -0.0247717 -0.0249912 -0.0251828 -0.0253465 -0.0254866 -0.0256073 -0.0257087 -0.0257908 -0.0258573 -0.0259123 -0.0259556 -0.0259873 -0.0260097 -0.0260249 -0.0260331 -0.0260342 -0.0260282 -0.026015 -0.0259947 -0.0259673 -0.0259304 -0.0258818 -0.0258215 -0.0257495 -0.0256618 -0.0255547 -0.0254281 -0.0252821 -0.0251124 -0.0249148 -0.0246893 -0.0244359 -0.0241514 -0.0238327 -0.0234797 -0.0230924 -0.0226698 -0.0222111 -0.0217162 -0.021185 -0.0206196 -0.0200218 -0.0193917 -0.0187291 -0.018039 -0.0173261 -0.0165903 -0.0158316 -0.015057 -0.0142734 -0.0134806 -0.0126788 -0.0118758 -0.0110792 -0.0102892 -0.0095058 -0.0087363 -0.00798817 -0.00726139 -0.00655598 -0.00587784 -0.00523287 -0.00462108 -0.00404246 -0.00350068 -0.00299938 -0.00253858 -0.00211826 -0.00173918 -0.00140208 -0.00110696 -0.000853814 -0.000638508 -0.000456896 -0.000308978 -0.000194754 -0.000109549 -4.86885e-05 -1.21721e-05 0 0 -1.58381e-05 -6.33525e-05 -0.000142543 -0.00025341 -0.000399455 -0.00058418 -0.000807586 -0.00106967 -0.00137426 -0.00172519 -0.00212244 -0.00256603 -0.00305427 -0.00358549 -0.00415968 -0.00477686 -0.00543224 -0.00612106 -0.00684331 -0.007599 -0.00838098 -0.00918212 -0.0100024 -0.0108419 -0.0116919 -0.0125439 -0.0133978 -0.0142537 -0.0151027 -0.0159362 -0.0167541 -0.0175564 -0.0183358 -0.0190848 -0.0198036 -0.020492 -0.0211454 -0.0217591 -0.0223333 -0.0228678 -0.0233616 -0.0238133 -0.0242232 -0.0245911 -0.0249193 -0.0252102 -0.0254636 -0.0256796 -0.0258631 -0.0260187 -0.0261465 -0.0262465 -0.0263245 -0.0263864 -0.026432 -0.0264615 -0.02648 -0.0264925 -0.0264991 -0.0264998 -0.0264975 -0.0264952 -0.0264929 -0.0264907 -0.0264884 -0.026486 -0.0264835 -0.026481 -0.0264754 -0.0264637 -0.0264459 -0.0264221 -0.0263869 -0.0263355 -0.0262676 -0.0261834 -0.0260771 -0.0259429 -0.0257808 -0.0255907 -0.0253681 -0.0251081 -0.0248109 -0.0244763 -0.0241023 -0.0236867 -0.0232294 -0.0227306 -0.0221914 -0.0216132 -0.0209958 -0.0203394 -0.0196487 -0.0189283 -0.0181783 -0.0173986 -0.0165968 -0.0157801 -0.0149485 -0.0141021 -0.0132495 -0.0123996 -0.0115522 -0.0107074 -0.00987364 -0.00905949 -0.00826493 -0.00748995 -0.00674156 -0.00602675 -0.00534553 -0.00469788 -0.00408845 -0.00352183 -0.00299805 -0.00251708 -0.00208048 -0.00168977 -0.00134495 -0.00104602 -0.000789099 -0.000570292 -0.000389603 -0.00024703 -0.000138954 -6.17574e-05 -1.54394e-05 0 0 -1.95966e-05 -7.83864e-05 -0.000176369 -0.000313546 -0.000491969 -0.000713693 -0.000978718 -0.00128704 -0.00164203 -0.00204703 -0.00250205 -0.00300709 -0.00355945 -0.00415645 -0.00479809 -0.00548436 -0.00620935 -0.00696714 -0.00775773 -0.00858111 -0.00942894 -0.0102928 -0.0111728 -0.0120688 -0.0129711 -0.0138698 -0.0147651 -0.0156569 -0.0165356 -0.0173914 -0.0182244 -0.0190345 -0.0198141 -0.0205552 -0.0212579 -0.0219222 -0.0225436 -0.0231179 -0.0236449 -0.0241246 -0.0245569 -0.0249415 -0.0252784 -0.0255676 -0.025813 -0.0260182 -0.0261834 -0.0263085 -0.0264002 -0.0264651 -0.0265032 -0.0265146 -0.026507 -0.026488 -0.0264576 -0.0264159 -0.0263694 -0.0263248 -0.0262821 -0.0262412 -0.0262061 -0.0261804 -0.0261643 -0.0261576 -0.0261603 -0.0261724 -0.0261939 -0.0262248 -0.0262612 -0.0262992 -0.0263389 -0.0263802 -0.0264165 -0.0264412 -0.0264542 -0.0264556 -0.0264376 -0.0263927 -0.0263209 -0.0262221 -0.0260898 -0.0259175 -0.0257051 -0.0254526 -0.0251563 -0.0248127 -0.0244217 -0.0239834 -0.023498 -0.0229659 -0.0223872 -0.0217618 -0.0210942 -0.020389 -0.0196461 -0.0188656 -0.0180553 -0.0172229 -0.0163685 -0.0154922 -0.0146034 -0.0137119 -0.0128176 -0.0119206 -0.0110305 -0.0101569 -0.00929992 -0.00845952 -0.00764392 -0.00686134 -0.00611178 -0.00539524 -0.00471746 -0.00408419 -0.00349543 -0.00295118 -0.00245397 -0.00200631 -0.00160822 -0.00125968 -0.000957263 -0.000697523 -0.000480463 -0.000306082 -0.000172171 -7.65206e-05 -1.91301e-05 0 0 -2.37839e-05 -9.51358e-05 -0.000214055 -0.000380543 -0.000594846 -0.00085721 -0.00116764 -0.00152613 -0.00193537 -0.00239807 -0.00291421 -0.00348381 -0.00410295 -0.00476772 -0.00547813 -0.00623417 -0.00702862 -0.00785425 -0.00871106 -0.00959904 -0.0105085 -0.0114296 -0.0123625 -0.0133071 -0.0142524 -0.0151874 -0.016112 -0.0170264 -0.0179198 -0.0187817 -0.0196122 -0.0204112 -0.0211706 -0.0218822 -0.0225462 -0.0231624 -0.0237269 -0.0242356 -0.0246886 -0.025086 -0.0254285 -0.0257173 -0.0259523 -0.0261335 -0.0262666 -0.0263572 -0.0264053 -0.0264109 -0.026383 -0.0263303 -0.026253 -0.0261509 -0.026034 -0.0259122 -0.0257854 -0.0256537 -0.0255255 -0.0254091 -0.0253044 -0.0252117 -0.0251355 -0.0250806 -0.0250471 -0.0250349 -0.025044 -0.0250743 -0.0251259 -0.0251986 -0.0252877 -0.0253883 -0.0255004 -0.0256239 -0.0257506 -0.0258719 -0.0259879 -0.0260985 -0.0261939 -0.0262644 -0.0263097 -0.0263301 -0.0263167 -0.0262607 -0.0261622 -0.0260211 -0.0258319 -0.0255892 -0.025293 -0.0249433 -0.0245392 -0.02408 -0.0235656 -0.0229961 -0.0223756 -0.0217081 -0.0209938 -0.0202325 -0.0194325 -0.0186019 -0.0177408 -0.0168492 -0.0159375 -0.0150163 -0.0140856 -0.0131455 -0.0122067 -0.0112804 -0.0103664 -0.00946469 -0.00858493 -0.00773665 -0.00691985 -0.00613452 -0.0053877 -0.00468644 -0.00403072 -0.00342055 -0.00285965 -0.00235172 -0.00189677 -0.00149479 -0.001143 -0.000838588 -0.000581559 -0.000371912 -0.000209201 -9.2978e-05 -2.32445e-05 0 0 -2.83669e-05 -0.000113467 -0.000255302 -0.00045387 -0.000707249 -0.00101352 -0.00137267 -0.00178472 -0.00225147 -0.00277472 -0.00335449 -0.00399077 -0.0046782 -0.00541144 -0.00619048 -0.00701533 -0.00787726 -0.00876755 -0.0096862 -0.0106332 -0.0115973 -0.0125674 -0.0135433 -0.0145252 -0.0155006 -0.0164573 -0.0173951 -0.0183141 -0.0192029 -0.02005 -0.0208553 -0.0216188 -0.0223323 -0.0229873 -0.0235838 -0.024122 -0.0245983 -0.0250094 -0.0253553 -0.025636 -0.0258541 -0.0260119 -0.0261094 -0.0261468 -0.0261318 -0.0260723 -0.0259684 -0.02582 -0.0256387 -0.025436 -0.0252118 -0.0249662 -0.0247116 -0.0244605 -0.0242129 -0.0239687 -0.0237384 -0.0235325 -0.0233509 -0.0231935 -0.0230664 -0.0229754 -0.0229204 -0.0229015 -0.0229185 -0.0229715 -0.0230604 -0.0231852 -0.0233399 -0.0235185 -0.0237209 -0.0239473 -0.024187 -0.0244297 -0.0246753 -0.0249238 -0.0251628 -0.02538 -0.0255752 -0.0257486 -0.0258886 -0.025984 -0.0260347 -0.0260408 -0.0259945 -0.0258882 -0.0257218 -0.0254954 -0.0252067 -0.0248533 -0.0244353 -0.0239527 -0.023409 -0.0228077 -0.0221488 -0.0214324 -0.0206668 -0.0198605 -0.0190135 -0.0181257 -0.0172087 -0.0162738 -0.0153211 -0.0143506 -0.0133745 -0.0124051 -0.0114423 -0.0104862 -0.00954772 -0.00863804 -0.0077571 -0.00690492 -0.00609 -0.00532085 -0.00459747 -0.00391986 -0.00329315 -0.00272248 -0.00220783 -0.00174921 -0.00134468 -0.000992299 -0.000692072 -0.000443998 -0.000249749 -0.000110999 -2.77499e-05 0 0 -3.3312e-05 -0.000133248 -0.000299808 -0.000532992 -0.000828342 -0.0011814 -0.00159216 -0.00206063 -0.00258749 -0.00317343 -0.00381844 -0.00452253 -0.00527864 -0.00607973 -0.0069258 -0.00781685 -0.00874245 -0.00969218 -0.010666 -0.011664 -0.0126733 -0.0136809 -0.0146869 -0.0156913 -0.0166803 -0.0176402 -0.0185709 -0.0194725 -0.0203326 -0.0211389 -0.0218913 -0.0225898 -0.0232261 -0.0237916 -0.0242863 -0.0247103 -0.0250611 -0.0253361 -0.0255354 -0.025659 -0.0257112 -0.0256963 -0.0256145 -0.0254656 -0.0252603 -0.025009 -0.0247119 -0.0243688 -0.0239945 -0.0236035 -0.0231958 -0.0227714 -0.0223458 -0.0219344 -0.0215372 -0.0211543 -0.0207984 -0.0204822 -0.0202059 -0.0199694 -0.0197798 -0.0196444 -0.0195631 -0.019536 -0.0195629 -0.0196438 -0.0197786 -0.0199674 -0.0202027 -0.0204773 -0.0207911 -0.0211442 -0.0215237 -0.0219166 -0.0223231 -0.0227431 -0.0231611 -0.0235618 -0.0239452 -0.0243113 -0.0246455 -0.0249335 -0.0251753 -0.0253708 -0.0255097 -0.0255816 -0.0255866 -0.0255247 -0.0253917 -0.0251835 -0.0249001 -0.0245416 -0.0241105 -0.0236096 -0.0230389 -0.0223984 -0.0216965 -0.020942 -0.0201347 -0.0192746 -0.0183742 -0.0174457 -0.0164892 -0.0155047 -0.0145058 -0.0135061 -0.0125057 -0.0115046 -0.0105154 -0.00955086 -0.00861093 -0.00769564 -0.00681516 -0.00597969 -0.00518924 -0.00444379 -0.00375014 -0.00311509 -0.00253863 -0.00202077 -0.00156066 -0.00115746 -0.000811184 -0.000521818 -0.000293523 -0.000130454 -3.26136e-05 0 0 -3.86194e-05 -0.000154478 -0.000347575 -0.000617911 -0.000958124 -0.00136085 -0.0018261 -0.00235386 -0.00294345 -0.00359418 -0.00430607 -0.00507909 -0.00590427 -0.0067726 -0.00768409 -0.00863873 -0.00962419 -0.0106281 -0.0116506 -0.0126915 -0.0137363 -0.0147702 -0.0157932 -0.0168053 -0.0177914 -0.0187361 -0.0196394 -0.0205014 -0.0213089 -0.0220485 -0.0227203 -0.0233243 -0.023852 -0.0242951 -0.0246536 -0.0249275 -0.0251153 -0.0252158 -0.025229 -0.0251548 -0.0249998 -0.0247707 -0.0244674 -0.0240899 -0.023652 -0.0231672 -0.0226357 -0.0220573 -0.0214503 -0.0208328 -0.0202049 -0.0195665 -0.0189365 -0.0183339 -0.0177585 -0.0172105 -0.0167052 -0.0162582 -0.0158695 -0.0155391 -0.0152756 -0.0150877 -0.0149753 -0.0149385 -0.0149772 -0.0150912 -0.0152805 -0.0155451 -0.0158761 -0.0162648 -0.016711 -0.0172148 -0.0177606 -0.0183328 -0.0189313 -0.0195563 -0.0201888 -0.0208099 -0.0214198 -0.0220183 -0.0225875 -0.0231093 -0.0235838 -0.0240109 -0.0243773 -0.0246694 -0.0248873 -0.0250311 -0.0250943 -0.0250707 -0.0249602 -0.0247628 -0.0244802 -0.024114 -0.023664 -0.0231304 -0.0225217 -0.0218463 -0.0211044 -0.0202959 -0.019434 -0.018532 -0.0175899 -0.0166077 -0.0156006 -0.0145836 -0.0135567 -0.0125201 -0.011488 -0.0104751 -0.00948134 -0.00850666 -0.00756318 -0.00666297 -0.00580601 -0.00499232 -0.0042306 -0.00352955 -0.00288917 -0.00230947 -0.00179094 -0.00133408 -0.000938894 -0.000605373 -0.000340522 -0.000151343 -3.78358e-05 0 0 -4.42891e-05 -0.000177156 -0.000398602 -0.000708625 -0.0010966 -0.00155188 -0.00207448 -0.0026644 -0.00331934 -0.00403699 -0.00481737 -0.00566046 -0.00655508 -0.00749004 -0.00846534 -0.00948096 -0.0105225 -0.0115754 -0.0126398 -0.0137157 -0.0147863 -0.0158352 -0.0168622 -0.0178674 -0.0188339 -0.019745 -0.0206007 -0.021401 -0.0221317 -0.0227788 -0.0233422 -0.0238221 -0.0242101 -0.024498 -0.0246858 -0.0247734 -0.024761 -0.0246486 -0.024436 -0.0241235 -0.0237201 -0.023235 -0.0226682 -0.0220198 -0.021307 -0.020547 -0.0197398 -0.0188855 -0.0180061 -0.017124 -0.0162392 -0.0153515 -0.0144839 -0.013659 -0.0128768 -0.0121373 -0.011459 -0.0108605 -0.0103418 -0.00990279 -0.00955384 -0.00930523 -0.00915697 -0.00910905 -0.00916132 -0.00931362 -0.00956595 -0.00991831 -0.0103601 -0.0108809 -0.0114805 -0.012159 -0.0128977 -0.0136781 -0.0145 -0.0153635 -0.0162458 -0.0171243 -0.0179989 -0.0188696 -0.0197144 -0.0205113 -0.0212602 -0.0219612 -0.0225974 -0.0231516 -0.0236241 -0.0240146 -0.0243145 -0.0245147 -0.0246154 -0.0246164 -0.0245181 -0.0243207 -0.0240242 -0.0236285 -0.0231422 -0.0225736 -0.0219227 -0.0211894 -0.0203881 -0.0195327 -0.