<?xml version="1.0"?> 
<VTKFile type="StructuredGrid" version="0.1"> 
<StructuredGrid WholeExtent="0 128 0 128 0 0"> 
<Piece Extent="0 128 0 128 0 0"> 
<PointData>
<DataArray type="Float32" Name="u" format="ascii" NumberOfComponents="1"> 
0 0 0 0 0 0 0 0 0 0 0 0 0 0 0 0 0 0 0 0 0 0 0 0 0 0 0 0 0 0 0 0 0 0 0 0 0 0 0 0 0 0 0 0 0 0 0 0 0 0 0 0 0 0 0 0 0 0 0 0 0 0 0 0 0 0 0 0 0 0 0 0 0 0 0 0 0 0 0 0 0 0 0 0 0 0 0 0 0 0 0 0 0 0 0 0 0 0 0 0 0 0 0 0 0 0 0 0 0 0 0 0 0 0 0 0 0 0 0 0 0 0 0 0 0 0 0 0 0 0 1.94487e-07 7.77949e-07 1.75039e-06 3.1118e-06 4.65256e-06 6.16307e-06 7.64332e-06 9.09331e-06 1.03936e-05 1.14249e-05 1.2187e-05 1.26801e-05 1.28134e-05 1.24962e-05 1.17284e-05 1.051e-05 8.79934e-06 6.55451e-06 3.77554e-06 4.62437e-07 -3.38939e-06 -7.78453e-06 -1.2723e-05 -1.82047e-05 -2.42047e-05 -3.06978e-05 -3.7684e-05 -4.51633e-05 -5.30876e-05 -6.1409e-05 -7.01273e-05 -7.92427e-05 -8.86902e-05 -9.84051e-05 -0.000108387 -0.000118637 -0.000129077 -0.000139632 -0.0001503 -0.000161083 -0.000171895 -0.000182651 -0.000193352 -0.000203997 -0.000214498 -0.000224764 -0.000234796 -0.000244594 -0.000254069 -0.000263134 -0.000271787 -0.00028003 -0.000287782 -0.000294965 -0.000301578 -0.000307621 -0.000313034 -0.000317756 -0.000321786 -0.000325126 -0.000327741 -0.0003296 -0.000330701 -0.000331046 -0.000330634 -0.000329465 -0.000327541 -0.00032486 -0.000321457 -0.000317365 -0.000312583 -0.000307113 -0.000301016 -0.000294352 -0.000287121 -0.000279325 -0.000271042 -0.000262353 -0.000253257 -0.000243755 -0.000233935 -0.000223886 -0.000213608 -0.000203101 -0.000192453 -0.000181755 -0.000171007 -0.000160207 -0.000149442 -0.000138795 -0.000128267 -0.000117857 -0.000107641 -9.76953e-05 -8.80203e-05 -7.86157e-05 -6.95453e-05 -6.08732e-05 -5.25994e-05 -4.47237e-05 -3.72933e-05 -3.03553e-05 -2.39097e-05 -1.79564e-05 -1.25196e-05 -7.62358e-06 -3.26822e-06 5.46426e-07 3.82558e-06 6.57446e-06 8.79307e-06 1.04814e-05 1.16814e-05 1.2435e-05 1.27422e-05 1.26031e-05 1.21077e-05 1.13464e-05 1.03191e-05 9.02587e-06 7.585e-06 6.11484e-06 4.61541e-06 3.0867e-06 1.73627e-06 7.71675e-07 1.92919e-07 0 0 7.77949e-07 3.1118e-06 7.00154e-06 1.24472e-05 1.86103e-05 2.46523e-05 3.05733e-05 3.63732e-05 4.15745e-05 4.56995e-05 4.87482e-05 5.07206e-05 5.12537e-05 4.99847e-05 4.69135e-05 4.20401e-05 3.51973e-05 2.6218e-05 1.51022e-05 1.84975e-06 -1.35576e-05 -3.11381e-05 -5.08919e-05 -7.28189e-05 -9.68188e-05 -0.000122791 -0.000150736 -0.000180653 -0.000212351 -0.000245636 -0.000280509 -0.000316971 -0.000354761 -0.00039362 -0.000433549 -0.000474548 -0.000516309 -0.000558527 -0.000601201 -0.000644332 -0.000687579 -0.000730605 -0.000773408 -0.000815989 -0.00085799 -0.000899055 -0.000939183 -0.000978375 -0.00101628 -0.00105253 -0.00108715 -0.00112012 -0.00115113 -0.00117986 -0.00120631 -0.00123049 -0.00125214 -0.00127102 -0.00128715 -0.0013005 -0.00131097 -0.0013184 -0.0013228 -0.00132418 -0.00132253 -0.00131786 -0.00131016 -0.00129944 -0.00128583 -0.00126946 -0.00125033 -0.00122845 -0.00120406 -0.00117741 -0.00114849 -0.0011173 -0.00108417 -0.00104941 -0.00101303 -0.000975022 -0.000935742 -0.000895546 -0.000854432 -0.000812402 -0.000769813 -0.000727021 -0.000684027 -0.00064083 -0.000597769 -0.000555181 -0.000513067 -0.000471426 -0.000430563 -0.000390781 -0.000352081 -0.000314463 -0.000278181 -0.000243493 -0.000210397 -0.000178895 -0.000149173 -0.000121421 -9.56388e-05 -7.18256e-05 -5.00785e-05 -3.04943e-05 -1.30729e-05 2.1857e-06 1.53023e-05 2.62979e-05 3.51723e-05 4.19256e-05 4.67256e-05 4.974e-05 5.09689e-05 5.04123e-05 4.84309e-05 4.53856e-05 4.12765e-05 3.61035e-05 3.034e-05 2.44594e-05 1.84616e-05 1.23468e-05 6.94507e-06 3.0867e-06 7.71675e-07 0 0 1.75039e-06 7.00154e-06 1.57535e-05 2.80062e-05 4.18731e-05 5.54677e-05 6.87899e-05 8.18398e-05 9.35427e-05 0.000102824 0.000109683 0.000114121 0.000115321 0.000112466 0.000105555 9.45902e-05 7.9194e-05 5.89906e-05 3.39799e-05 4.16194e-06 -3.05045e-05 -7.00608e-05 -0.000114507 -0.000163843 -0.000217842 -0.00027628 -0.000339156 -0.00040647 -0.000477789 -0.000552681 -0.000631146 -0.000713184 -0.000798212 -0.000885646 -0.000975486 -0.00106773 -0.0011617 -0.00125669 -0.0013527 -0.00144975 -0.00154705 -0.00164386 -0.00174017 -0.00183597 -0.00193048 -0.00202287 -0.00211316 -0.00220134 -0.00228662 -0.0023682 -0.00244608 -0.00252027 -0.00259004 -0.00265468 -0.0027142 -0.00276859 -0.00281731 -0.0028598 -0.00289608 -0.00292613 -0.00294967 -0.0029664 -0.00297631 -0.00297941 -0.0029757 -0.00296519 -0.00294787 -0.00292374 -0.00289311 -0.00285628 -0.00281325 -0.00276402 -0.00270914 -0.00264916 -0.00258409 -0.00251393 -0.00243938 -0.00236118 -0.00227932 -0.0021938 -0.00210542 -0.00201498 -0.00192247 -0.00182791 -0.00173208 -0.0016358 -0.00153906 -0.00144187 -0.00134498 -0.00124916 -0.0011544 -0.00106071 -0.000968767 -0.000879258 -0.000792183 -0.000707541 -0.000625908 -0.000547859 -0.000473394 -0.000402513 -0.00033564 -0.000273198 -0.000215187 -0.000161608 -0.000112677 -6.86122e-05 -2.9414e-05 4.91783e-06 3.44303e-05 5.91702e-05 7.91376e-05 9.43326e-05 0.000105133 0.000111915 0.00011468 0.000113428 0.000108969 0.000102118 9.28721e-05 8.12328e-05 6.8265e-05 5.50336e-05 4.15387e-05 2.77803e-05 1.56264e-05 6.94507e-06 1.73627e-06 0 0 3.1118e-06 1.24472e-05 2.80062e-05 4.97887e-05 7.4441e-05 9.86092e-05 0.000122293 0.000145493 0.000166298 0.000182798 0.000194993 0.000202882 0.000205015 0.000199939 0.000187654 0.00016816 0.000140789 0.000104872 6.04087e-05 7.399e-06 -5.42303e-05 -0.000124552 -0.000203568 -0.000291276 -0.000387275 -0.000491164 -0.000602943 -0.000722612 -0.000849402 -0.000982544 -0.00112204 -0.00126788 -0.00141904 -0.00157448 -0.0017342 -0.00189819 -0.00206524 -0.00223411 -0.00240481 -0.00257733 -0.00275032 -0.00292242 -0.00309363 -0.00326395 -0.00343196 -0.00359622 -0.00375673 -0.0039135 -0.0040651 -0.00421014 -0.00434859 -0.00448048 -0.00460452 -0.00471944 -0.00482525 -0.00492194 -0.00500855 -0.00508409 -0.00514858 -0.00520201 -0.00524386 -0.0052736 -0.00529122 -0.00529673 -0.00529014 -0.00527145 -0.00524065 -0.00519776 -0.00514331 -0.00507783 -0.00500133 -0.00491381 -0.00481625 -0.00470963 -0.00459394 -0.0044692 -0.00433668 -0.00419765 -0.00405212 -0.00390009 -0.00374297 -0.00358218 -0.00341773 -0.00324961 -0.00307925 -0.00290808 -0.00273611 -0.00256332 -0.00239107 -0.00222072 -0.00205227 -0.0018857 -0.00172225 -0.00156313 -0.00140832 -0.00125785 -0.00111273 -0.000973972 -0.00084159 -0.000715579 -0.000596694 -0.000485685 -0.000382555 -0.000287302 -0.000200314 -0.000121977 -5.22916e-05 8.74281e-06 6.12093e-05 0.000105191 0.000140689 0.000167702 0.000186902 0.00019896 0.000203876 0.000201649 0.000193724 0.000181543 0.000165106 0.000144414 0.00012136 9.78375e-05 7.38465e-05 4.93872e-05 2.77803e-05 1.23468e-05 3.0867e-06 0 0 4.64307e-06 1.85723e-05 4.17876e-05 7.42891e-05 0.00011101 0.000146885 0.000181912 0.000216093 0.000246543 0.000270378 0.000287598 0.000298204 0.000300013 0.000290843 0.000270694 0.000239567 0.000196465 0.000140394 7.13536e-05 -1.06565e-05 -0.000105725 -0.000213939 -0.0003353 -0.000469807 -0.000616827 -0.000775727 -0.000946505 -0.00112916 -0.00132251 -0.00152537 -0.00173773 -0.00195959 -0.00218937 -0.00242549 -0.00266795 -0.00291673 -0.00317 -0.00342588 -0.00368439 -0.00394551 -0.0042072 -0.00446743 -0.00472618 -0.00498347 -0.00523715 -0.00548508 -0.00572727 -0.0059637 -0.00619227 -0.00641088 -0.00661951 -0.00681817 -0.00700497 -0.00717801 -0.0073373 -0.00748283 -0.00761315 -0.00772682 -0.00782385 -0.00790422 -0.00796716 -0.00801188 -0.00803839 -0.00804668 -0.00803676 -0.00800863 -0.00796231 -0.00789779 -0.00781587 -0.00771736 -0.00760224 -0.00747053 -0.00732369 -0.00716316 -0.00698897 -0.0068011 -0.00660146 -0.00639196 -0.00617259 -0.00594336 -0.00570638 -0.00546378 -0.00521554 -0.00496168 -0.00470432 -0.00444562 -0.00418557 -0.00392417 -0.00366346 -0.00340546 -0.0031502 -0.00289765 -0.00264967 -0.0024081 -0.00217294 -0.00194419 -0.00172341 -0.00151217 -0.00131046 -0.00111829 -0.000936818 -0.000767208 -0.00060946 -0.000463575 -0.000330162 -0.000209835 -0.000102591 -8.43248e-06 7.27458e-05 0.000141047 0.000196472 0.000239021 0.000269692 0.000289484 0.000298399 0.000296435 0.000285763 0.000268551 0.0002448 0.00021451 0.00018054 0.000145747 0.000110132 7.36957e-05 4.14538e-05 1.84239e-05 4.60598e-06 0 0 6.12509e-06 2.45003e-05 5.51258e-05 9.80014e-05 0.000146277 0.000193102 0.000238476 0.0002824 0.000320979 0.00035032 0.000370423 0.000381287 0.000379991 0.000363616 0.000332161 0.000285625 0.000222703 0.000142088 4.37796e-05 -7.2222e-05 -0.000205977 -0.000357546 -0.00052693 -0.000714127 -0.000918209 -0.00113825 -0.00137425 -0.0016262 -0.00189244 -0.00217129 -0.00246275 -0.00276683 -0.00308132 -0.00340404 -0.00373499 -0.00407417 -0.00441905 -0.0047671 -0.00511832 -0.00547271 -0.00582753 -0.00618003 -0.00653021 -0.00687807 -0.00722077 -0.00755546 -0.00788213 -0.0082008 -0.00850868 -0.00880296 -0.00908367 -0.00935078 -0.00960183 -0.0098343 -0.0100482 -0.0102435 -0.0104184 -0.0105709 -0.0107011 -0.0108088 -0.0108932 -0.0109532 -0.0109887 -0.0109998 -0.0109865 -0.0109488 -0.0108866 -0.0108001 -0.0106903 -0.0105581 -0.0104036 -0.0102269 -0.0100297 -0.00981415 -0.0095801 -0.00932759 -0.00905913 -0.00877723 -0.00848188 -0.00817309 -0.00785366 -0.00752637 -0.00719124 -0.00684826 -0.00650028 -0.00615014 -0.00579784 -0.00544339 -0.00508952 -0.00473896 -0.00439172 -0.00404779 -0.00370968 -0.0033799 -0.00305846 -0.00274535 -0.00244274 -0.00215278 -0.00187548 -0.00161084 -0.0013605 -0.00112609 -0.00090762 -0.000705089 -0.000519393 -0.000351429 -0.000201199 -6.87012e-05 4.61457e-05 0.000143424 0.000223133 0.000285274 0.000331157 0.000362097 0.000378093 0.000379145 0.000368157 0.000348034 0.000318777 0.000280386 0.000236719 0.000191639 0.000145144 9.72339e-05 5.46941e-05 2.43085e-05 6.07712e-06 0 0 7.55785e-06 3.02314e-05 6.80206e-05 0.000120926 0.000180241 0.00023726 0.000291985 0.000344414 0.000389607 0.000422624 0.000443465 0.00045213 0.000444951 0.000418259 0.000372054 0.000306336 0.000219504 0.000109954 -2.23132e-05 -0.000177298 -0.000354988 -0.000555374 -0.000778456 -0.00102423 -0.00129142 -0.00157873 -0.00188617 -0.00221373 -0.00255919 -0.00292032 -0.00329712 -0.00368959 -0.00409488 -0.00451013 -0.00493533 -0.0053705 -0.00581239 -0.00625776 -0.00670662 -0.00715895 -0.00761131 -0.00806023 -0.00850571 -0.00894775 -0.00938281 -0.00980734 -0.0102213 -0.0106248 -0.0110143 -0.0113864 -0.0117411 -0.0120783 -0.0123951 -0.0126883 -0.012958 -0.0132041 -0.0134243 -0.0136164 -0.0137802 -0.0139158 -0.014022 -0.0140974 -0.0141421 -0.014156 -0.0141393 -0.0140918 -0.0140136 -0.0139048 -0.0137665 -0.0136001 -0.0134055 -0.0131829 -0.0129344 -0.0126626 -0.0123673 -0.0120487 -0.0117097 -0.0113535 -0.01098 -0.0105893 -0.0101848 -0.00976998 -0.00934484 -0.00890937 -0.00846712 -0.00802165 -0.00757294 -0.007121 -0.00666927 -0.00622122 -0.00577683 -0.00533611 -0.00490227 -0.00447853 -0.00406489 -0.00366135 -0.00327072 -0.00289582 -0.00253666 -0.00219324 -0.00186773 -0.00156233 -0.00127703 -0.00101184 -0.000768005 -0.000546762 -0.000348114 -0.000172063 -1.85907e-05 0.000112321 0.000220671 0.000306461 0.0003713 0.000416799 0.000442958 0.000449777 0.000440906 0.000419992 0.000387037 0.00034204 0.000289899 0.000235512 0.00017888 0.000120002 6.75011e-05 3.00005e-05 7.50012e-06 0 0 8.94136e-06 3.57654e-05 8.04722e-05 0.000143062 0.000212902 0.000279361 0.000342438 0.000402135 0.000452426 0.00048729 0.000506727 0.000510735 0.000494892 0.000454771 0.000390374 0.0003017 0.000186866 4.39915e-05 -0.000126925 -0.000325883 -0.000552758 -0.000807423 -0.00108988 -0.00140013 -0.00173646 -0.00209718 -0.00248227 -0.00289175 -0.00332276 -0.00377245 -0.00424083 -0.00472789 -0.00523005 -0.00574375 -0.00626897 -0.00680573 -0.00735002 -0.00789787 -0.00844927 -0.00900422 -0.00955854 -0.010108 -0.0106527 -0.0111925 -0.0117233 -0.0122407 -0.0127449 -0.0132357 -0.0137092 -0.0141612 -0.0145917 -0.0150007 -0.0153847 -0.01574 -0.0160666 -0.0163645 -0.0166309 -0.0168632 -0.0170613 -0.0172252 -0.0173535 -0.0174446 -0.0174986 -0.0175155 -0.0174952 -0.0174378 -0.0173433 -0.0172117 -0.0170445 -0.0168432 -0.0166079 -0.0163385 -0.0160377 -0.0157085 -0.0153507 -0.0149644 -0.0145531 -0.0141207 -0.0136669 -0.0131919 -0.0126998 -0.0121946 -0.0116763 -0.011145 -0.0106049 -0.0100601 -0.00951084 -0.00895698 -0.00840271 -0.00785223 -0.00730554 -0.00676263 -0.00622746 -0.00570399 -0.00519223 -0.00469216 -0.00420734 -0.00374128 -0.00329399 -0.00286547 -0.00245852 -0.00207593 -0.0017177 -0.00138384 -0.001076 -0.000795832 -0.000543338 -0.000318519 -0.000121464 4.77382e-05 0.000189087 0.000302582 0.000390118 0.000453589 0.000492994 0.000508333 0.000504009 0.000484425 0.000449579 0.000399473 0.000340078 0.000277368 0.000211342 0.000142 7.98749e-05 3.54999e-05 8.87498e-06 0 0 1.0144e-05 4.05761e-05 9.12962e-05 0.000162304 0.00024108 0.000315101 0.000384369 0.000448884 0.000501546 0.00053526 0.000550024 0.000545839 0.000517564 0.000460059 0.000373324 0.000257359 0.000110058 -7.06849e-05 -0.00028487 -0.000532496 -0.000813251 -0.00112682 -0.0014732 -0.0018524 -0.0022622 -0.00270041 -0.00316701 -0.00366202 -0.00418189 -0.00472307 -0.00528558 -0.00586941 -0.00647022 -0.00708366 -0.00770975 -0.00834847 -0.0089951 -0.00964489 -0.0102978 -0.010954 -0.0116084 -0.0122562 -0.0128975 -0.0135321 -0.0141553 -0.0147623 -0.0153529 -0.0159273 -0.0164807 -0.0170086 -0.017511 -0.0179879 -0.0184352 -0.0188489 -0.0192289 -0.0195752 -0.0198849 -0.0201547 -0.0203848 -0.0205751 -0.0207239 -0.0208297 -0.0208923 -0.0209118 -0.0208882 -0.0208216 -0.0207119 -0.0205591 -0.020365 -0.0201312 -0.0198577 -0.0195445 -0.0191948 -0.0188116 -0.0183949 -0.0179448 -0.0174653 -0.0169606 -0.0164305 -0.0158752 -0.0152992 -0.0147073 -0.0140993 -0.0134753 -0.0128402 -0.0121988 -0.0115511 -0.0108971 -0.0102417 -0.00958979 -0.00894128 -0.00829621 -0.0076593 -0.00703523 -0.00642402 -0.00582565 -0.00524443 -0.00468464 -0.00414628 -0.00362935 -0.00313734 -0.00267371 -0.00223847 -0.00183163 -0.00145532 -0.00111169 -0.000800749 -0.000522489 -0.000277183 -6.51002e-05 0.000113759 0.000259395 0.00037393 0.000459483 0.000516056 0.000543649 0.000547377 0.000532356 0.000498587 0.000446069 0.000381842 0.000312945 0.000239378 0.000161142 9.06425e-05 4.02855e-05 1.00714e-05 0 0 1.10342e-05 4.41369e-05 9.9308e-05 0.000176548 0.000261593 0.00034018 0.00041231 0.000477982 0.000529077 0.000557475 0.000563175 0.000546179 0.000500718 0.000421028 0.000307108 0.000158957 -2.56553e-05 -0.000248961 -0.000510961 -0.000811655 -0.00115043 -0.00152669 -0.00194042 -0.00239163 -0.00287751 -0.00339525 -0.00394484 -0.0045263 -0.00513532 -0.00576758 -0.00642309 -0.00710186 -0.00779874 -0.00850862 -0.00923149 -0.00996736 -0.0107108 -0.0114563 -0.0122039 -0.0129537 -0.0137 -0.0144376 -0.0151664 -0.0158863 -0.0165922 -0.0172786 -0.0179456 -0.0185931 -0.0192163 -0.0198101 -0.0203745 -0.0209096 -0.021411 -0.0218743 -0.0222996 -0.0226869 -0.0230329 -0.0233343 -0.0235911 -0.0238034 -0.0239694 -0.0240873 -0.0241571 -0.0241788 -0.0241525 -0.0240782 -0.0239557 -0.0237853 -0.0235686 -0.0233075 -0.0230019 -0.0226519 -0.0222607 -0.0218318 -0.021365 -0.0208603 -0.0203222 -0.019755 -0.0191586 -0.0185332 -0.0178837 -0.0172151 -0.0165274 -0.0158205 -0.0150999 -0.0143709 -0.0136333 -0.0128873 -0.0121383 -0.0113917 -0.0106475 -0.00990576 -0.00917186 -0.00845121 -0.00774381 -0.00704966 -0.00637383 -0.00572139 -0.00509234 -0.00448669 -0.00390866 -0.00336249 -0.00284819 -0.00236574 -0.0019179 -0.00150739 -0.00113423 -0.000798395 -0.000500459 -0.000240971 -1.99319e-05 0.000162658 0.000309051 0.000421499 0.000500003 0.000544561 0.000560917 0.00055481 0.000526242 0.000475211 0.000409773 0.000337983 0.00025984 0.000175344 9.8631e-05 4.3836e-05 1.0959e-05 0 0 1.1612e-05 4.6448e-05 0.000104508 0.000185792 0.000274441 0.000354597 0.00042626 0.00048943 0.000535018 0.000553934 0.00054618 0.000511755 0.000444355 0.000337679 0.000191725 6.4946e-06 -0.000220273 -0.000490838 -0.0008052 -0.00116336 -0.00156431 -0.00200703 -0.00249154 -0.00301783 -0.00358238 -0.0041817 -0.00481577 -0.0054846 -0.00618305 -0.00690597 -0.00765336 -0.00842523 -0.00921563 -0.0100186 -0.0108342 -0.0116624 -0.012497 -0.0133321 -0.0141675 -0.0150033 -0.0158335 -0.0166522 -0.0174594 -0.0182551 -0.0190338 -0.0197897 -0.0205229 -0.0212333 -0.021916 -0.0225656 -0.0231822 -0.0237658 -0.024312 -0.0248163 -0.0252788 -0.0256994 -0.0260749 -0.0264018 -0.0266803 -0.0269102 -0.0270899 -0.0272175 -0.0272931 -0.0273166 -0.027288 -0.0272074 -0.0270748 -0.0268902 -0.0266553 -0.0263721 -0.0260405 -0.0256606 -0.0252356 -0.024769 -0.0242607 -0.0237108 -0.0231237 -0.0225038 -0.0218513 -0.021166 -0.0204532 -0.0197181 -0.0189605 -0.0181806 -0.017384 -0.0165763 -0.0157574 -0.0149274 -0.0140923 -0.0132579 -0.0124242 -0.0115913 -0.0107651 -0.00995193 -0.00915161 -0.00836418 -0.00759553 -0.00685153 -0.00613218 -0.00543747 -0.00477249 -0.00414228 -0.00354685 -0.00298619 -0.00246375 -0.00198294 -0.00154377 -0.00114624 -0.00079129 -0.000479873 -0.000211987 1.23696e-05 0.000195482 0.000339636 0.000444832 0.00051107 0.000544629 0.000551787 0.000532544 0.0004869 0.000423873 0.000352482 0.000272726 0.000184605 0.000103841 4.61513e-05 1.15378e-05 0 0 1.18773e-05 4.75092e-05 0.000106896 0.000190037 0.000279625 0.000358353 0.00042622 0.000483227 0.000519369 0.000524639 0.000499039 0.000442567 0.000348475 0.000210011 2.71767e-05 -0.000200029 -0.000473796 -0.000796315 -0.00116759 -0.00158761 -0.00205487 -0.00256785 -0.00312656 -0.00373098 -0.00437682 -0.00505976 -0.00577979 -0.00653692 -0.00732509 -0.00813824 -0.00897639 -0.00983952 -0.0107209 -0.0116137 -0.0125179 -0.0134336 -0.0143539 -0.0152723 -0.0161886 -0.0171028 -0.0180087 -0.0189 -0.0197766 -0.0206386 -0.0214801 -0.0222955 -0.0230848 -0.0238479 -0.0245797 -0.0252751 -0.025934 -0.0265566 -0.0271383 -0.027675 -0.0281665 -0.0286129 -0.029011 -0.0293574 -0.0296523 -0.0298956 -0.0300855 -0.0302204 -0.0303002 -0.030325 -0.0302947 -0.0302094 -0.0300691 -0.0298737 -0.0296251 -0.0293251 -0.0289735 -0.0285705 -0.0281193 -0.0276232 -0.0270822 -0.0264962 -0.0258698 -0.0252072 -0.0245084 -0.0237736 -0.0230078 -0.0222162 -0.0213988 -0.0205556 -0.0196925 -0.0188151 -0.0179234 -0.0170176 -0.0161038 -0.0151884 -0.0142714 -0.0133527 -0.0124392 -0.0115374 -0.0106474 -0.00976922 -0.00890954 -0.00807506 -0.00726578 -0.00648171 -0.00572882 -0.00501306 -0.00433445 -0.00369297 -0.00309286 -0.00253833 -0.00202938 -0.00156602 -0.00114968 -0.000781808 -0.000462405 -0.00019147 3.32221e-05 0.000213894 0.000350545 0.000443176 0.000498514 0.000523287 0.000517494 0.000481135 0.000424141 0.000356441 0.000278036 0.000188926 0.000106271 4.72315e-05 1.18079e-05 0 0 1.17334e-05 4.69335e-05 0.0001056 0.000187734 0.000274818 0.000348335 0.000408285 0.000454669 0.000476668 0.000463462 0.000415054 0.000331441 0.000205569 3.03821e-05 -0.000194119 -0.000467936 -0.000793046 -0.00117143 -0.00160309 -0.00208802 -0.00262407 -0.00320908 -0.00384304 -0.00452595 -0.00525259 -0.00601771 -0.00682132 -0.00766341 -0.00853695 -0.00943491 -0.0103573 -0.0113041 -0.0122676 -0.0132404 -0.0142224 -0.0152136 -0.0162067 -0.0171945 -0.0181769 -0.0191539 -0.0201191 -0.021066 -0.0219945 -0.0229046 -0.0237907 -0.0246472 -0.0254741 -0.0262712 -0.0270339 -0.0277573 -0.0284413 -0.0290859 -0.0296872 -0.0302412 -0.0307478 -0.031207 -0.031616 -0.0319717 -0.0322742 -0.0325235 -0.0327179 -0.0328559 -0.0329376 -0.0329629 -0.0329318 -0.0328443 -0.0327005 -0.0325003 -0.0322454 -0.0319374 -0.0315762 -0.031162 -0.0306975 -0.0301859 -0.0296272 -0.0290213 -0.0283723 -0.0276842 -0.0269571 -0.0261909 -0.0253906 -0.024561 -0.0237022 -0.0228141 -0.0219024 -0.0209728 -0.0200253 -0.0190598 -0.018083 -0.0171013 -0.0161148 -0.0151233 -0.0141342 -0.0131547 -0.0121847 -0.0112244 -0.0102812 -0.00936273 -0.00846891 -0.00759976 -0.00676223 -0.00596326 -0.00520285 -0.004481 -0.00380285 -0.00317352 -0.00259302 -0.00206135 -0.00158058 -0.00115278 -0.00077797 -0.000456134 -0.000185256 3.66857e-05 0.000209691 0.00033376 0.000415929 0.000463234 0.000475675 0.000453253 0.000406706 0.000346777 0.000273466 0.000186771 0.000105059 4.66929e-05 1.16732e-05 0 0 1.10834e-05 4.43336e-05 9.97506e-05 0.000177334 0.000257692 0.00032143 0.00036855 0.00039905 0.000401452 0.000364278 0.000287527 0.000171201 8.13032e-06 -0.000208851 -0.000479744 -0.000804548 -0.00118485 -0.00162223 -0.00211669 -0.00266823 -0.00327387 -0.00393064 -0.00463854 -0.00539757 -0.00620143 -0.00704383 -0.00792477 -0.00884425 -0.00979419 -0.0107665 -0.0117611 -0.0127782 -0.0138091 -0.0148456 -0.0158877 -0.0169352 -0.0179807 -0.0190163 -0.0200421 -0.0210582 -0.0220579 -0.023035 -0.0239894 -0.0249212 -0.025825 -0.0266957 -0.0275333 -0.0283378 -0.0291051 -0.0298308 -0.0305151 -0.0311579 -0.031756 -0.0323059 -0.0328078 -0.0332616 -0.033665 -0.0340155 -0.0343132 -0.0345581 -0.0347488 -0.0348842 -0.0349643 -0.0349889 -0.0349583 -0.0348723 -0.034731 -0.0345343 -0.0342836 -0.0339802 -0.033624 -0.033215 -0.0327558 -0.0322486 -0.0316935 -0.0310905 -0.030443 -0.0297543 -0.0290243 -0.0282532 -0.0274451 -0.0266043 -0.0257308 -0.0248246 -0.0238909 -0.0229349 -0.0219568 -0.0209564 -0.0199403 -0.0189149 -0.0178802 -0.0168362 -0.0157905 -0.0147508 -0.0137171 -0.0126894 -0.011676 -0.0106853 -0.0097173 -0.00877196 -0.00785729 -0.00698127 -0.00614391 -0.00534521 -0.00459134 -0.00388849 -0.00323666 -0.00263585 -0.00208894 -0.00159881 -0.00116546 -0.000788899 -0.000467481 -0.000199575 1.48206e-05 0.000175704 0.000290231 0.000365553 0.000401672 0.000398587 0.000367698 0.000320405 0.000256708 0.000176607 9.93412e-05 4.41516e-05 1.10379e-05 0 0 9.92739e-06 3.97096e-05 8.93465e-05 0.000158838 0.000228248 0.00027764 0.000307014 0.000316369 0.000293722 0.000227085 0.00011646 -3.81531e-05 -0.000243841 -0.000507689 -0.000829698 -0.00120987 -0.0016492 -0.0021487 -0.00270838 -0.00332822 -0.00400426 -0.00473255 -0.00551307 -0.00634583 -0.00722334 -0.00813812 -0.00909015 -0.0100794 -0.0110968 -0.012133 -0.013188 -0.0142618 -0.0153453 -0.0164292 -0.0175136 -0.0185985 -0.0196758 -0.0207378 -0.0217844 -0.0228156 -0.0238252 -0.0248072 -0.0257616 -0.0266883 -0.0275829 -0.028441 -0.0292626 -0.0300477 -0.0307931 -0.0314958 -0.0321556 -0.0327726 -0.0333446 -0.0338692 -0.0343466 -0.0347767 -0.0351579 -0.0354888 -0.0357692 -0.0359994 -0.0361783 -0.0363052 -0.0363802 -0.0364032 -0.0363743 -0.0362933 -0.0361605 -0.0359756 -0.0357396 -0.0354533 -0.0351167 -0.0347298 -0.0342941 -0.0338112 -0.0332812 -0.032704 -0.0320819 -0.0314173 -0.0307101 -0.0299604 -0.0291713 -0.028346 -0.0274846 -0.0265871 -0.0256579 -0.0247016 -0.023718 -0.0227073 -0.0216756 -0.020629 -0.0195676 -0.0184913 -0.0174081 -0.0163258 -0.0152445 -0.0141642 -0.0130939 -0.0120428 -0.011011 -0.00999833 -0.009014 -0.0080671 -0.00715763 -0.00628558 -0.00545832 -0.00468323 -0.00396029 -0.00328952 -0.00267476 -0.00211989 -0.00162489 -0.00118976 -0.000813453 -0.000494887 -0.000234067 -3.09912e-05 0.000121419 0.000230244 0.000295484 0.000317138 0.000307116 0.000277324 0.000227762 0.000158431 8.91176e-05 3.96078e-05 9.90196e-06 0 0 8.26535e-06 3.30614e-05 7.43881e-05 0.000132246 0.000186487 0.000216964 0.000223678 0.000206628 0.000153477 5.18847e-05 -9.81478e-05 -0.000296621 -0.000550345 -0.000866131 -0.00124398 -0.00168389 -0.0021861 -0.00275086 -0.00337816 -0.004068 -0.00481525 -0.00561479 -0.00646663 -0.00737075 -0.00831834 -0.00930057 -0.0103175 -0.011369 -0.0124447 -0.0135343 -0.0146378 -0.015755 -0.0168762 -0.0179913 -0.0191003 -0.0202033 -0.0212922 -0.022359 -0.0234036 -0.0244261 -0.025421 -0.0263825 -0.0273109 -0.028206 -0.0290645 -0.0298832 -0.0306619 -0.0314008 -0.0320981 -0.0327521 -0.0333627 -0.0339299 -0.034453 -0.0349311 -0.0353641 -0.0357522 -0.0360948 -0.0363915 -0.0366424 -0.0368474 -0.0370063 -0.037119 -0.0371855 -0.0372058 -0.0371797 -0.0371075 -0.036989 -0.0368243 -0.0366135 -0.0363569 -0.0360544 -0.0357061 -0.0353124 -0.0348738 -0.0343902 -0.0338617 -0.0332891 -0.0326733 -0.0320145 -0.0313124 -0.0305691 -0.0297862 -0.0289637 -0.0281017 -0.0272036 -0.0262727 -0.025309 -0.0243125 -0.0232889 -0.0222438 -0.0211771 -0.0200888 -0.018987 -0.0178797 -0.016767 -0.0156487 -0.0145348 -0.0134352 -0.0123499 -0.0112788 -0.0102324 -0.00922075 -0.008244 -0.00730212 -0.00640381 -0.00555774 -0.00476392 -0.00402236 -0.00333805 -0.00271601 -0.00215624 -0.00165873 -0.00122317 -0.000849252 -0.00053697 -0.000286327 -9.05062e-05 5.73063e-05 0.000157111 0.000208907 0.00022496 0.000217534 0.000186629 0.000132246 7.43883e-05 3.30615e-05 8.26536e-06 0 0 6.06428e-06 2.42571e-05 5.45785e-05 9.70285e-05 0.000131632 0.000138412 0.00011737 6.85055e-05 -2.06779e-05 -0.000162677 -0.00035749 -0.00060512 -0.000911863 -0.00128402 -0.00172159 -0.00222458 -0.00279224 -0.00342381 -0.00411931 -0.00487873 -0.00569558 -0.00656338 -0.00748211 -0.0084518 -0.00946212 -0.0105028 -0.0115737 -0.012675 -0.013795 -0.014922 -0.0160559 -0.0171969 -0.0183342 -0.0194572 -0.0205659 -0.0216603 -0.0227325 -0.0237744 -0.0247862 -0.0257678 -0.0267145 -0.0276216 -0.0284893 -0.0293174 -0.0301041 -0.0308478 -0.0315485 -0.032206 -0.0328206 -0.0333924 -0.0339215 -0.0344078 -0.0348523 -0.0352561 -0.0356191 -0.0359414 -0.0362239 -0.0364678 -0.036673 -0.0368395 -0.036968 -0.0370589 -0.0371125 -0.0371285 -0.0371071 -0.0370482 -0.0369518 -0.036818 -0.036646 -0.0364353 -0.0361859 -0.0358978 -0.03557 -0.0352014 -0.0347921 -0.034342 -0.0338502 -0.0333157 -0.0327386 -0.0321189 -0.0314564 -0.0307511 -0.030003 -0.0292122 -0.0283804 -0.0275095 -0.0265996 -0.0256506 -0.0246673 -0.0236544 -0.0226118 -0.0215397 -0.0204459 -0.0193384 -0.0182173 -0.0170825 -0.0159446 -0.0148142 -0.0136914 -0.012576 -0.0114797 -0.010414 -0.00937895 -0.00837451 -0.00741085 -0.00649815 -0.00563641 -0.00482563 -0.00407216 -0.00338237 -0.00275624 -0.00219379 -0.00169566 -0.00126253 -0.000894381 -0.000591222 -0.000346737 -0.000154608 -1.48359e-05 7.25789e-05 0.000120065 0.000140052 0.000132539 9.75258e-05 5.48583e-05 2.43814e-05 6.09536e-06 0 0 3.29122e-06 1.31649e-05 2.9621e-05 5.26595e-05 6.29081e-05 4.09945e-05 -1.30815e-05 -9.93197e-05 -0.000230137 -0.000417951 -0.000662761 -0.000964568 -0.00132888 -0.0017612 -0.00226154 -0.0028299 -0.00346428 -0.00416268 -0.00492512 -0.00575159 -0.006634 -0.00756428 -0.00854244 -0.00956845 -0.0106304 -0.0117162 -0.0128261 -0.0139598 -0.0151045 -0.0162472 -0.0173878 -0.0185263 -0.0196516 -0.0207523 -0.0218284 -0.02288 -0.0238994 -0.0248789 -0.0258186 -0.0267185 -0.0275751 -0.0283852 -0.0291487 -0.0298656 -0.0305362 -0.0311608 -0.0317394 -0.032272 -0.0327612 -0.0332096 -0.0336172 -0.033984 -0.0343134 -0.0346088 -0.0348702 -0.0350975 -0.0352937 -0.0354618 -0.0356016 -0.0357132 -0.0357983 -0.0358583 -0.0358935 -0.0359036 -0.0358888 -0.035849 -0.0357842 -0.0356944 -0.0355779 -0.0354331 -0.03526 -0.0350586 -0.0348259 -0.0345592 -0.0342584 -0.0339234 -0.033551 -0.0331378 -0.0326839 -0.0321891 -0.0316511 -0.0310673 -0.0304377 -0.0297624 -0.029041 -0.0282735 -0.0274599 -0.0266002 -0.0256977 -0.024756 -0.0237752 -0.0227551 -0.0217034 -0.0206278 -0.0195284 -0.0184051 -0.017269 -0.0161316 -0.0149927 -0.0138523 -0.0127233 -0.0116187 -0.0105384 -0.00948239 -0.00846252 -0.0074906 -0.00656663 -0.0056906 -0.00487046 -0.00411413 -0.00342162 -0.00279294 -0.00222996 -0.00173457 -0.00130679 -0.000946598 -0.000648464 -0.000406846 -0.000221745 -9.31599e-05 -8.73302e-06 4.38937e-05 6.47204e-05 5.3747e-05 3.02327e-05 1.34367e-05 3.35919e-06 0 0 -5.38418e-08 -2.15367e-07 -4.84576e-07 -8.61468e-07 -1.96836e-05 -7.52887e-05 -0.000167677 -0.000296847 -0.000474901 -0.000713939 -0.00101396 -0.00137496 -0.00180139 -0.00229768 -0.00286383 -0.00349984 -0.00420222 -0.00496747 -0.00579558 -0.00668657 -0.00763051 -0.00861752 -0.00964759 -0.0107207 -0.0118231 -0.012941 -0.0140744 -0.0152233 -0.0163732 -0.0175099 -0.0186334 -0.0197435 -0.0208286 -0.0218767 -0.022888 -0.0238624 -0.0247929 -0.0256723 -0.0265007 -0.0272781 -0.0280029 -0.0286732 -0.0292891 -0.0298507 -0.0303607 -0.0308221 -0.0312348 -0.0315989 -0.03192 -0.0322036 -0.0324499 -0.0326587 -0.0328364 -0.0329893 -0.0331174 -0.0332206 -0.0333043 -0.0333734 -0.0334282 -0.0334685 -0.0334972 -0.0335172 -0.0335285 -0.0335311 -0.0335248 -0.0335098 -0.033486 -0.0334534 -0.0334091 -0.0333502 -0.0332766 -0.0331883 -0.0330803 -0.0329472 -0.032789 -0.0326059 -0.0323915 -0.0321396 -0.0318502 -0.0315232 -0.0311533 -0.0307348 -0.0302678 -0.0297523 -0.0291855 -0.0285647 -0.0278899 -0.0271611 -0.0263802 -0.0255488 -0.0246671 -0.023735 -0.0227595 -0.021748 -0.0207002 -0.0196163 -0.0185081 -0.0173872 -0.0162537 -0.0151077 -0.0139633 -0.0128348 -0.0117223 -0.0106258 -0.00955882 -0.00853508 -0.00755456 -0.00661727 -0.00573293 -0.0049113 -0.00415239 -0.00345618 -0.00282605 -0.00226539 -0.00177419 -0.00135245 -0.000995688 -0.000699409 -0.000463616 -0.000288309 -0.000161435 -7.09406e-05 -1.68258e-05 9.09381e-07 5.11527e-07 2.27345e-07 5.68363e-08 0 0 -3.9709e-06 -1.58836e-05 -3.57381e-05 -6.35345e-05 -0.000116144 -0.000210437 -0.000346415 -0.000524077 -0.00075497 -0.00105064 -0.00141109 -0.00183631 -0.0023294 -0.00289345 -0.00352845 -0.00423442 -0.00500608 -0.00583817 -0.0067307 -0.00768367 -0.00868512 -0.00972309 -0.0107976 -0.0119086 -0.0130404 -0.0141771 -0.0153188 -0.0164654 -0.0176012 -0.0187103 -0.0197927 -0.0208483 -0.021865 -0.0228305 -0.0237446 -0.0246076 -0.025413 -0.0261547 -0.0268327 -0.0274469 -0.0279977 -0.0284856 -0.0289106 -0.0292726 -0.0295777 -0.0298317 -0.0300347 -0.0301867 -0.0302969 -0.0303744 -0.0304194 -0.0304317 -0.0304212 -0.0303975 -0.0303607 -0.0303107 -0.0302554 -0.0302028 -0.0301528 -0.0301053 -0.0300648 -0.0300356 -0.0300176 -0.0300108 -0.0300152 -0.0300307 -0.0300574 -0.0300952 -0.0301397 -0.0301865 -0.0302357 -0.0302871 -0.030333 -0.0303653 -0.0303842 -0.0303895 -0.0303717 -0.0303211 -0.0302375 -0.0301212 -0.0299628 -0.0297535 -0.0294932 -0.0291818 -0.0288137 -0.0283829 -0.0278896 -0.0273336 -0.0267147 -0.0260327 -0.0252876 -0.0244794 -0.0236143 -0.0226988 -0.0217328 -0.0207164 -0.0196617 -0.0185811 -0.0174746 -0.0163421 -0.0151995 -0.0140623 -0.0129307 -0.0118047 -0.0106997 -0.0096316 -0.00860023 -0.00760563 -0.00665959 -0.00577388 -0.00494853 -0.00418351 -0.00