<?xml version="1.0"?> 
<VTKFile type="StructuredGrid" version="0.1"> 
<StructuredGrid WholeExtent="0 128 0 128 0 0"> 
<Piece Extent="0 128 0 128 0 0"> 
<PointData>
<DataArray type="Float32" Name="u" format="ascii" NumberOfComponents="1"> 
0 0 0 0 0 0 0 0 0 0 0 0 0 0 0 0 0 0 0 0 0 0 0 0 0 0 0 0 0 0 0 0 0 0 0 0 0 0 0 0 0 0 0 0 0 0 0 0 0 0 0 0 0 0 0 0 0 0 0 0 0 0 0 0 0 0 0 0 0 0 0 0 0 0 0 0 0 0 0 0 0 0 0 0 0 0 0 0 0 0 0 0 0 0 0 0 0 0 0 0 0 0 0 0 0 0 0 0 0 0 0 0 0 0 0 0 0 0 0 0 0 0 0 0 0 0 0 0 0 0 -1.49712e-07 -5.98848e-07 -1.34741e-06 -2.39539e-06 -3.78678e-06 -5.56557e-06 -7.73174e-06 -1.02853e-05 -1.32423e-05 -1.66188e-05 -2.04148e-05 -2.46303e-05 -2.923e-05 -3.41786e-05 -3.94762e-05 -4.51226e-05 -5.10695e-05 -5.72687e-05 -6.372e-05 -7.04235e-05 -7.73236e-05 -8.43646e-05 -9.15466e-05 -9.88696e-05 -0.000106273 -0.000113696 -0.000121139 -0.000128602 -0.000136023 -0.000143344 -0.000150563 -0.000157681 -0.000164646 -0.000171404 -0.000177956 -0.000184301 -0.000190403 -0.000196226 -0.000201769 -0.000207033 -0.000212001 -0.000216658 -0.000221004 -0.000225039 -0.000228769 -0.0002322 -0.000235333 -0.000238166 -0.000240723 -0.000243027 -0.000245078 -0.000246875 -0.000248451 -0.000249835 -0.000251027 -0.000252029 -0.000252868 -0.000253573 -0.000254143 -0.00025458 -0.0002549 -0.000255119 -0.000255238 -0.000255256 -0.000255174 -0.000254991 -0.000254708 -0.000254324 -0.000253822 -0.000253185 -0.000252413 -0.000251506 -0.000250436 -0.000249173 -0.000247719 -0.000246073 -0.000244204 -0.000242082 -0.000239708 -0.00023708 -0.000234177 -0.000230976 -0.000227479 -0.000223684 -0.000219587 -0.000215183 -0.000210472 -0.000205454 -0.000200145 -0.000194562 -0.000188705 -0.000182573 -0.000176205 -0.000169638 -0.000162872 -0.000155906 -0.000148793 -0.000141586 -0.000134286 -0.000126892 -0.000119464 -0.000112062 -0.000104687 -9.73388e-05 -9.00765e-05 -8.29602e-05 -7.599e-05 -6.91658e-05 -6.2542e-05 -5.61728e-05 -5.00582e-05 -4.41983e-05 -3.86397e-05 -3.34291e-05 -2.85665e-05 -2.40518e-05 -1.99184e-05 -1.61997e-05 -1.28957e-05 -1.00063e-05 -7.51449e-06 -5.40301e-06 -3.67189e-06 -2.32114e-06 -1.30564e-06 -5.80285e-07 -1.45071e-07 0 0 -5.98848e-07 -2.39539e-06 -5.38963e-06 -9.58157e-06 -1.51471e-05 -2.22623e-05 -3.09269e-05 -4.11412e-05 -5.29692e-05 -6.64752e-05 -8.16593e-05 -9.85213e-05 -0.00011692 -0.000136715 -0.000157905 -0.00018049 -0.000204278 -0.000229075 -0.00025488 -0.000281694 -0.000309294 -0.000337458 -0.000366187 -0.000395479 -0.000425092 -0.000454784 -0.000484556 -0.000514406 -0.000544093 -0.000573376 -0.000602253 -0.000630726 -0.000658583 -0.000685615 -0.000711822 -0.000737204 -0.000761614 -0.000784905 -0.000807077 -0.00082813 -0.000848002 -0.00086663 -0.000884015 -0.000900156 -0.000915077 -0.000928802 -0.000941331 -0.000952664 -0.000962892 -0.000972108 -0.000980311 -0.000987501 -0.000993802 -0.000999338 -0.00100411 -0.00100812 -0.00101147 -0.00101429 -0.00101657 -0.00101832 -0.0010196 -0.00102047 -0.00102095 -0.00102102 -0.0010207 -0.00101996 -0.00101883 -0.00101729 -0.00101529 -0.00101274 -0.00100965 -0.00100602 -0.00100174 -0.000996694 -0.000990877 -0.000984292 -0.000976817 -0.00096833 -0.00095883 -0.000948319 -0.000936706 -0.000923905 -0.000909916 -0.000894737 -0.00087835 -0.000860733 -0.000841889 -0.000821815 -0.000800579 -0.000778247 -0.000754818 -0.000730294 -0.000704822 -0.000678553 -0.000651486 -0.000623622 -0.000595172 -0.000566346 -0.000537144 -0.000507567 -0.000477855 -0.000448249 -0.000418749 -0.000389355 -0.000360306 -0.000331841 -0.00030396 -0.000276663 -0.000250168 -0.000224691 -0.000200233 -0.000176793 -0.000154559 -0.000133716 -0.000114266 -9.62072e-05 -7.96737e-05 -6.47989e-05 -5.15828e-05 -4.00253e-05 -3.0058e-05 -2.1612e-05 -1.46876e-05 -9.28456e-06 -5.22257e-06 -2.32114e-06 -5.80285e-07 0 0 -1.34741e-06 -5.38963e-06 -1.21267e-05 -2.15585e-05 -3.40811e-05 -5.00901e-05 -6.95856e-05 -9.25677e-05 -0.000119181 -0.000149569 -0.000183733 -0.000221673 -0.00026307 -0.000307608 -0.000355285 -0.000406103 -0.000459626 -0.000515418 -0.00057348 -0.000633811 -0.000695912 -0.000759281 -0.00082392 -0.000889827 -0.000956457 -0.00102326 -0.00109025 -0.00115741 -0.00122421 -0.0012901 -0.00135507 -0.00141913 -0.00148181 -0.00154263 -0.0016016 -0.00165871 -0.00171363 -0.00176604 -0.00181592 -0.00186329 -0.001908 -0.00194992 -0.00198903 -0.00202535 -0.00205892 -0.0020898 -0.00211799 -0.00214349 -0.00216651 -0.00218724 -0.0022057 -0.00222188 -0.00223605 -0.00224851 -0.00225925 -0.00226826 -0.00227581 -0.00228215 -0.00228729 -0.00229122 -0.0022941 -0.00229607 -0.00229714 -0.0022973 -0.00229657 -0.00229492 -0.00229237 -0.00228891 -0.00228439 -0.00227866 -0.00227172 -0.00226355 -0.00225392 -0.00224256 -0.00222947 -0.00221466 -0.00219784 -0.00217874 -0.00215737 -0.00213372 -0.00210759 -0.00207879 -0.00204731 -0.00201316 -0.00197629 -0.00193665 -0.00189425 -0.00184908 -0.0018013 -0.00175106 -0.00169834 -0.00164316 -0.00158585 -0.00152674 -0.00146584 -0.00140315 -0.00133914 -0.00127428 -0.00120857 -0.00114203 -0.00107517 -0.00100856 -0.000942186 -0.000876049 -0.000810688 -0.000746642 -0.00068391 -0.000622492 -0.000562878 -0.000505555 -0.000450524 -0.000397785 -0.000347758 -0.000300862 -0.000257098 -0.000216466 -0.000179266 -0.000145798 -0.000116061 -9.0057e-05 -6.76304e-05 -4.86271e-05 -3.3047e-05 -2.08903e-05 -1.17508e-05 -5.22257e-06 -1.30564e-06 0 0 -2.39539e-06 -9.58157e-06 -2.15585e-05 -3.83263e-05 -6.05885e-05 -8.9049e-05 -0.000123708 -0.000164565 -0.000211877 -0.000265901 -0.000326637 -0.000394085 -0.00046768 -0.000546858 -0.000631618 -0.000721961 -0.000817112 -0.000916298 -0.00101952 -0.00112678 -0.00123718 -0.00134983 -0.00146475 -0.00158191 -0.00170037 -0.00181914 -0.00193822 -0.00205762 -0.00217637 -0.0022935 -0.00240901 -0.0025229 -0.00263433 -0.00274246 -0.00284729 -0.00294882 -0.00304646 -0.00313962 -0.00322831 -0.00331252 -0.00339201 -0.00346652 -0.00353606 -0.00360062 -0.00366031 -0.00371521 -0.00376532 -0.00381066 -0.00385157 -0.00388843 -0.00392124 -0.00395 -0.00397521 -0.00399735 -0.00401644 -0.00403246 -0.00404589 -0.00405716 -0.00406629 -0.00407328 -0.00407839 -0.0040819 -0.0040838 -0.0040841 -0.00408278 -0.00407986 -0.00407532 -0.00406918 -0.00406115 -0.00405096 -0.00403861 -0.0040241 -0.00400697 -0.00398677 -0.00396351 -0.00393717 -0.00390727 -0.00387332 -0.00383532 -0.00379327 -0.00374683 -0.00369562 -0.00363966 -0.00357895 -0.0035134 -0.00344293 -0.00336755 -0.00328726 -0.00320232 -0.00311299 -0.00301927 -0.00292117 -0.00281929 -0.00271421 -0.00260595 -0.00249449 -0.00238069 -0.00226538 -0.00214858 -0.00203027 -0.00191142 -0.001793 -0.001675 -0.00155742 -0.00144122 -0.00132736 -0.00121584 -0.00110665 -0.00100067 -0.000898764 -0.000800932 -0.000707173 -0.000618236 -0.000534866 -0.000457064 -0.000384829 -0.000318695 -0.000259196 -0.000206331 -0.000160101 -0.000120232 -8.64482e-05 -5.87503e-05 -3.71383e-05 -2.08903e-05 -9.28456e-06 -2.32114e-06 0 0 -3.78502e-06 -1.51401e-05 -3.40652e-05 -6.05603e-05 -9.55638e-05 -0.000140014 -0.000193911 -0.000257254 -0.000330405 -0.000413725 -0.000507214 -0.000610871 -0.000723814 -0.000845158 -0.000974904 -0.00111305 -0.0012584 -0.00140976 -0.00156712 -0.00173048 -0.00189847 -0.00206972 -0.00224423 -0.002422 -0.00260154 -0.00278136 -0.00296147 -0.00314185 -0.00332104 -0.00349757 -0.00367142 -0.00384261 -0.00400986 -0.00417191 -0.00432876 -0.0044804 -0.00462596 -0.00476458 -0.00489626 -0.00502099 -0.00513844 -0.00524825 -0.00535043 -0.00544498 -0.00553209 -0.00561194 -0.00568454 -0.00574988 -0.00580858 -0.00586123 -0.00590784 -0.0059484 -0.00598371 -0.00601458 -0.006041 -0.00606297 -0.00608121 -0.00609647 -0.00610874 -0.00611802 -0.00612473 -0.00612931 -0.00613176 -0.00613208 -0.00613025 -0.00612629 -0.00612018 -0.00611193 -0.0061011 -0.00608725 -0.00607039 -0.00605052 -0.0060269 -0.00599882 -0.00596626 -0.00592924 -0.00588695 -0.00583863 -0.00578426 -0.00572384 -0.00565679 -0.00558254 -0.00550106 -0.00541238 -0.00531632 -0.00521271 -0.00510156 -0.00498287 -0.004857 -0.00472432 -0.00458483 -0.00443854 -0.00428633 -0.00412907 -0.00396679 -0.00379947 -0.00362838 -0.00345481 -0.00327875 -0.00310021 -0.00292064 -0.00274152 -0.00256285 -0.00238463 -0.00220832 -0.0020354 -0.00186586 -0.0016997 -0.00153827 -0.00138291 -0.00123361 -0.00109038 -0.00095437 -0.000826744 -0.000707498 -0.000596634 -0.000494987 -0.000403392 -0.00032185 -0.000250361 -0.000188535 -0.000135987 -9.27137e-05 -5.87171e-05 -3.30284e-05 -1.46793e-05 -3.66982e-06 0 0 -5.5585e-06 -2.2234e-05 -5.00265e-05 -8.89361e-05 -0.000139901 -0.000203859 -0.000280812 -0.000370757 -0.000474114 -0.000591297 -0.000722307 -0.000867143 -0.00102453 -0.0011932 -0.00137314 -0.00156436 -0.00176516 -0.00197383 -0.00219038 -0.00241481 -0.00264518 -0.00287956 -0.00311795 -0.00336035 -0.0036047 -0.0038489 -0.00409297 -0.0043369 -0.00457867 -0.00481625 -0.00504964 -0.00527884 -0.00550213 -0.00571781 -0.00592587 -0.00612632 -0.00631802 -0.00649985 -0.0066718 -0.00683389 -0.00698572 -0.00712692 -0.00725749 -0.00737743 -0.00748712 -0.00758692 -0.00767686 -0.00775691 -0.00782804 -0.00789119 -0.00794637 -0.00799358 -0.00803402 -0.00806891 -0.00809824 -0.00812201 -0.00814132 -0.00815724 -0.00816978 -0.00817894 -0.00818536 -0.00818966 -0.00819185 -0.00819193 -0.00818989 -0.00818572 -0.00817942 -0.008171 -0.0081598 -0.00814519 -0.00812715 -0.00810569 -0.00807973 -0.00804818 -0.00801102 -0.00796828 -0.00791875 -0.00786123 -0.00779574 -0.00772226 -0.00763988 -0.00754766 -0.00744561 -0.00733373 -0.00721167 -0.0070791 -0.00693602 -0.00678242 -0.00661872 -0.00644533 -0.00626224 -0.00606947 -0.00586815 -0.00565945 -0.00544337 -0.00521991 -0.00499078 -0.00475771 -0.0045207 -0.00427975 -0.00403687 -0.00379409 -0.00355141 -0.00330882 -0.00306838 -0.00283213 -0.00260006 -0.00237219 -0.00215039 -0.00193657 -0.00173071 -0.00153282 -0.00134454 -0.00116751 -0.00100174 -0.000847223 -0.000705169 -0.000576786 -0.000462076 -0.000361037 -0.000273214 -0.000198153 -0.000135854 -8.63154e-05 -4.85524e-05 -2.15788e-05 -5.39471e-06 0 0 -7.71585e-06 -3.08634e-05 -6.94426e-05 -0.000123454 -0.0001936 -0.000280586 -0.000384411 -0.000505075 -0.000643002 -0.000798615 -0.000971916 -0.0011629 -0.00136984 -0.00159098 -0.00182633 -0.00207589 -0.00233738 -0.00260853 -0.00288932 -0.00317977 -0.0034773 -0.00377934 -0.0040859 -0.00439697 -0.00470983 -0.00502175 -0.00533274 -0.00564279 -0.00594927 -0.00624956 -0.00654366 -0.00683157 -0.00711112 -0.00738014 -0.00763862 -0.00788658 -0.00812263 -0.00834542 -0.00855495 -0.00875121 -0.00893385 -0.00910252 -0.00925723 -0.00939797 -0.0095254 -0.00964017 -0.00974228 -0.00983173 -0.00990994 -0.00997831 -0.0100368 -0.0100855 -0.0101261 -0.0101603 -0.0101882 -0.0102096 -0.0102262 -0.0102395 -0.0102494 -0.0102561 -0.0102603 -0.0102629 -0.0102641 -0.0102636 -0.0102617 -0.0102581 -0.0102531 -0.0102464 -0.0102373 -0.0102248 -0.0102089 -0.0101896 -0.0101655 -0.0101348 -0.0100978 -0.0100543 -0.0100027 -0.00994114 -0.00986977 -0.00978854 -0.00969607 -0.00959099 -0.0094733 -0.00934299 -0.00919947 -0.00904212 -0.00887094 -0.00868593 -0.00848749 -0.00827601 -0.0080515 -0.00781395 -0.00756477 -0.00730535 -0.0070357 -0.00675581 -0.00646788 -0.00617408 -0.00587442 -0.00556889 -0.00526012 -0.00495071 -0.00464068 -0.00433001 -0.00402141 -0.00371756 -0.00341846 -0.00312412 -0.00283704 -0.00255974 -0.00229223 -0.00203449 -0.00178873 -0.00155717 -0.00133979 -0.00113659 -0.00094924 -0.000779378 -0.000627008 -0.00049213 -0.000374269 -0.000272949 -0.00018817 -0.000119933 -6.74624e-05 -2.99833e-05 -7.49582e-06 0 0 -1.02571e-05 -4.10282e-05 -9.23135e-05 -0.000164113 -0.000256661 -0.000370193 -0.000504708 -0.000660206 -0.00083707 -0.00103568 -0.00125604 -0.00149815 -0.00175973 -0.0020385 -0.00233447 -0.00264764 -0.00297507 -0.00331384 -0.00366393 -0.00402535 -0.00439483 -0.00476907 -0.00514807 -0.00553185 -0.00591694 -0.00629992 -0.00668077 -0.0070595 -0.00743283 -0.0077975 -0.00815349 -0.00850083 -0.00883685 -0.00915891 -0.00946703 -0.00976118 -0.0100398 -0.0103013 -0.0105457 -0.0107729 -0.0109828 -0.0111751 -0.0113497 -0.0115066 -0.0116469 -0.0117717 -0.0118808 -0.0119744 -0.0120543 -0.0121226 -0.0121793 -0.0122243 -0.01226 -0.0122889 -0.0123108 -0.0123257 -0.0123358 -0.0123432 -0.0123477 -0.0123494 -0.0123495 -0.0123491 -0.0123484 -0.0123472 -0.0123456 -0.0123436 -0.0123411 -0.0123381 -0.0123335 -0.012326 -0.0123156 -0.0123023 -0.0122841 -0.0122588 -0.0122266 -0.0121873 -0.0121387 -0.0120783 -0.0120064 -0.0119227 -0.0118254 -0.0117125 -0.0115841 -0.0114402 -0.0112797 -0.0111018 -0.0109063 -0.0106934 -0.0104633 -0.0102164 -0.0099526 -0.00967199 -0.00937617 -0.00906676 -0.00874377 -0.00840719 -0.00805969 -0.00770393 -0.00733991 -0.00696764 -0.00659038 -0.00621138 -0.00583065 -0.00544819 -0.0050674 -0.00469169 -0.00432105 -0.00395549 -0.00359821 -0.00325244 -0.00291817 -0.0025954 -0.00228696 -0.00199571 -0.00172164 -0.00146475 -0.0012272 -0.00101117 -0.000816648 -0.000643641 -0.000491699 -0.000360373 -0.000249663 -0.00015957 -8.97582e-05 -3.98925e-05 -9.97314e-06 0 0 -1.31893e-05 -5.27573e-05 -0.000118704 -0.000211029 -0.000329227 -0.000472791 -0.000641721 -0.000836017 -0.00105593 -0.00130172 -0.00157338 -0.00187091 -0.0021914 -0.00253193 -0.00289251 -0.00327313 -0.00367012 -0.0040798 -0.00450216 -0.00493722 -0.00538089 -0.00582909 -0.00628183 -0.00673911 -0.0071967 -0.00765037 -0.00810012 -0.00854596 -0.00898394 -0.0094101 -0.00982446 -0.010227 -0.0106146 -0.0109842 -0.0113358 -0.0116694 -0.0119832 -0.0122754 -0.0125462 -0.0127956 -0.0130233 -0.0132294 -0.0134139 -0.0135767 -0.0137194 -0.0138436 -0.0139492 -0.0140363 -0.0141075 -0.0141656 -0.0142105 -0.0142423 -0.0142641 -0.014279 -0.014287 -0.0142881 -0.0142851 -0.0142806 -0.0142747 -0.0142673 -0.01426 -0.0142543 -0.0142503 -0.014248 -0.0142473 -0.0142482 -0.0142507 -0.0142548 -0.014259 -0.0142615 -0.0142625 -0.014262 -0.0142571 -0.0142452 -0.0142264 -0.0142005 -0.0141645 -0.0141152 -0.0140528 -0.0139771 -0.0138855 -0.0137754 -0.0136468 -0.0134996 -0.0133324 -0.0131438 -0.0129337 -0.0127022 -0.0124493 -0.0121753 -0.0118801 -0.0115637 -0.0112279 -0.0108746 -0.0105037 -0.0101152 -0.00971224 -0.00929799 -0.00887242 -0.00843554 -0.00799129 -0.00754361 -0.00709249 -0.00663794 -0.00618413 -0.00573525 -0.00529129 -0.00485226 -0.00442214 -0.00400493 -0.00360063 -0.00320924 -0.00283433 -0.00247945 -0.00214461 -0.00182981 -0.00153783 -0.00127144 -0.00103066 -0.000815474 -0.000625553 -0.000460559 -0.000320492 -0.000205352 -0.000115511 -5.1338e-05 -1.28345e-05 0 0 -1.65199e-05 -6.60794e-05 -0.000148679 -0.000264318 -0.00041144 -0.000588491 -0.000795469 -0.00103237 -0.0012992 -0.00159595 -0.00192262 -0.00227921 -0.00266204 -0.00306742 -0.00349536 -0.00394587 -0.0044144 -0.00489643 -0.00539197 -0.00590101 -0.0064186 -0.00693977 -0.00746453 -0.00799288 -0.00851975 -0.00904008 -0.00955387 -0.0100611 -0.0105572 -0.0110374 -0.0115019 -0.0119505 -0.0123798 -0.0127862 -0.0131697 -0.0135303 -0.0138663 -0.0141758 -0.0144589 -0.0147155 -0.0149459 -0.0151504 -0.0153289 -0.0154816 -0.0156106 -0.0157182 -0.0158043 -0.0158691 -0.015916 -0.0159489 -0.0159675 -0.0159721 -0.0159666 -0.0159551 -0.0159378 -0.0159145 -0.0158887 -0.0158641 -0.0158406 -0.0158181 -0.0157987 -0.0157844 -0.0157753 -0.0157712 -0.0157721 -0.0157781 -0.0157891 -0.0158052 -0.0158242 -0.0158442 -0.0158651 -0.0158869 -0.0159061 -0.0159192 -0.0159262 -0.0159271 -0.0159178 -0.0158942 -0.0158563 -0.0158041 -0.0157341 -0.0156427 -0.0155298 -0.0153955 -0.0152377 -0.0150541 -0.0148448 -0.0146097 -0.0143487 -0.0140616 -0.0137485 -0.0134092 -0.0130457 -0.0126598 -0.0122516 -0.011821 -0.0113716 -0.010907 -0.0104272 -0.00993212 -0.00942649 -0.00891489 -0.00839734 -0.00787383 -0.00734938 -0.00682898 -0.00631266 -0.00580039 -0.00529705 -0.00480749 -0.00433172 -0.00386973 -0.00342592 -0.00300468 -0.002606 -0.0022299 -0.00187989 -0.00155949 -0.00126871 -0.00100754 -0.00077588 -0.000573639 -0.000400814 -0.000257404 -0.00014479 -6.4351e-05 -1.60877e-05 0 0 -2.02487e-05 -8.09946e-05 -0.000182238 -0.000323979 -0.000503302 -0.000717292 -0.000965951 -0.00124928 -0.00156688 -0.00191838 -0.00230377 -0.00272305 -0.00317165 -0.00364498 -0.00414305 -0.00466586 -0.00520792 -0.00576375 -0.00633335 -0.00691673 -0.00750795 -0.00810109 -0.00869616 -0.00929314 -0.00988609 -0.010469 -0.011042 -0.011605 -0.0121526 -0.0126795 -0.0131857 -0.0136713 -0.0141323 -0.0145647 -0.0149687 -0.0153441 -0.0156893 -0.0160024 -0.0162836 -0.0165327 -0.0167506 -0.016938 -0.0170949 -0.0172213 -0.0173205 -0.0173954 -0.0174461 -0.0174727 -0.0174799 -0.0174724 -0.0174503 -0.0174136 -0.0173675 -0.0173173 -0.0172631 -0.0172047 -0.0171468 -0.0170937 -0.0170454 -0.0170019 -0.0169658 -0.0169396 -0.0169232 -0.0169168 -0.0169202 -0.0169334 -0.0169564 -0.0169892 -0.0170292 -0.0170739 -0.0171231 -0.017177 -0.0172311 -0.0172808 -0.0173261 -0.0173671 -0.0173985 -0.0174151 -0.0174169 -0.0174039 -0.0173713 -0.0173144 -0.0172334 -0.0171281 -0.0169955 -0.0168326 -0.0166394 -0.0164159 -0.0161615 -0.0158754 -0.0155577 -0.0152084 -0.0148293 -0.0144223 -0.0139874 -0.0135245 -0.0130377 -0.0125309 -0.0120042 -0.0114574 -0.010896 -0.0103252 -0.00974521 -0.00915587 -0.00856313 -0.00797289 -0.00738514 -0.00679989 -0.00622295 -0.00566013 -0.00511143 -0.00457686 -0.00406174 -0.00357139 -0.00310582 -0.00266502 -0.00225339 -0.00187532 -0.0015308 -0.00121983 -0.000942681 -0.000699614 -0.000490629 -0.000315726 -0.000177596 -7.89314e-05 -1.97329e-05 0 0 -2.43757e-05 -9.75029e-05 -0.000219382 -0.000390012 -0.000604811 -0.000859196 -0.00115317 -0.00148673 -0.00185897 -0.002269 -0.00271682 -0.00320243 -0.00372023 -0.0042646 -0.00483556 -0.0054331 -0.00605067 -0.00668175 -0.00732631 -0.00798437 -0.00864895 -0.00931307 -0.00997672 -0.0106399 -0.0112957 -0.0119373 -0.0125645 -0.0131775 -0.0137701 -0.0143363 -0.0148761 -0.0153894 -0.0158722 -0.0163199 -0.0167328 -0.0171107 -0.0174521 -0.0177553 -0.0180203 -0.0182472 -0.0184374 -0.0185922 -0.0187117 -0.0187959 -0.018849 -0.0188752 -0.0188746 -0.0188472 -0.018799 -0.0187362 -0.0186588 -0.0185668 -0.0184669 -0.0183656 -0.0182629 -0.018159 -0.0180592 -0.0179693 -0.0178891 -0.0178186 -0.0177611 -0.0177196 -0.0176942 -0.0176848 -0.0176914 -0.0177139 -0.0177524 -0.0178068 -0.017874 -0.0179506 -0.0180368 -0.0181324 -0.018232 -0.0183299 -0.0184261 -0.0185206 -0.0186068 -0.0186782 -0.0187347 -0.0187762 -0.0187969 -0.0187906 -0.0187573 -0.0186971 -0.0186058 -0.0184793 -0.0183177 -0.0181209 -0.0178876 -0.0176166 -0.0173079 -0.0169614 -0.0165789 -0.0161622 -0.0157112 -0.0152259 -0.0147107 -0.0141699 -0.0136034 -0.0130113 -0.0123997 -0.0117747 -0.0111361 -0.0104841 -0.0098254 -0.00916696 -0.00850874 -0.00785074 -0.00719983 -0.00656283 -0.00593977 -0.00533064 -0.00474179 -0.0041796 -0.00364406 -0.00313518 -0.00265834 -0.00221892 -0.00181692 -0.00145235 -0.00112596 -0.000838484 -0.000589939 -0.000380317 -0.000213929 -9.50794e-05 -2.37698e-05 0 0 -2.88485e-05 -0.000115394 -0.000259637 -0.000461576 -0.000714661 -0.00101234 -0.00135461 -0.00174148 -0.00217138 -0.00264274 -0.00315556 -0.00370985 -0.00429882 -0.0049157 -0.00556047 -0.00623315 -0.00692601 -0.00763132 -0.00834908 -0.00907931 -0.00981386 -0.0105446 -0.0112716 -0.0119948 -0.0127063 -0.0133981 -0.0140703 -0.0147229 -0.0153491 -0.0159421 -0.016502 -0.0170286 -0.0175175 -0.0179641 -0.0183685 -0.0187307 -0.0190492 -0.0193228 -0.0195514 -0.0197351 -0.019876 -0.0199766 -0.0200368 -0.0200566 -0.0200415 -0.0199971 -0.0199235 -0.0198205 -0.019696 -0.0195577 -0.0194056 -0.0192396 -0.0190681 -0.0188992 -0.018733 -0.0185694 -0.0184152 -0.0182774 -0.0181559 -0.0180507 -0.0179656 -0.0179045 -0.0178674 -0.0178543 -0.0178652 -0.0178999 -0.0179584 -0.0180408 -0.0181431 -0.0182614 -0.0183956 -0.0185458 -0.0187051 -0.0188666 -0.0190303 -0.0191961 -0.019356 -0.0195016 -0.0196331 -0.0197503 -0.0198458 -0.0199117 -0.0199481 -0.0199551 -0.0199272 -0.019859 -0.0197505 -0.0196017 -0.0194105 -0.0191747 -0.0188945 -0.0185698 -0.0182021 -0.0177928 -0.017342 -0.0168496 -0.0163204 -0.0157589 -0.0151651 -0.014539 -0.0138874 -0.0132172 -0.0125282 -0.0118206 -0.0111021 -0.0103806 -0.0096562 -0.00892876 -0.00820633 -0.00749687 -0.0068004 -0.0061169 -0.00545391 -0.00481893 -0.00421197 -0.00363303 -0.00308864 -0.00258533 -0.0021231 -0.00170195 -0.00132327 -0.000988441 -0.000697473 -0.000450363 -0.000253329 -0.000112591 -2.81477e-05 0 0 -3.36145e-05 -0.000134458 -0.000302531 -0.000537832 -0.000831548 -0.00117486 -0.00156778 -0.0020103 -0.00250001 -0.00303449 -0.00361375 -0.00423779 -0.00489847 -0.00558766 -0.00630536 -0.00705157 -0.00781725 -0.00859336 -0.00937991 -0.0101769 -0.0109749 -0.0117647 -0.0125462 -0.0133193 -0.0140752 -0.0148049 -0.0155084 -0.0161856 -0.0168291 -0.0174314 -0.0179925 -0.0185124 -0.0189864 -0.0194098 -0.0197825 -0.0201046 -0.0203751 -0.0205933 -0.020759 -0.0208722 -0.0209364 -0.0209549 -0.0209276 -0.0208547 -0.0207432 -0.0206004 -0.0204263 -0.0202208 -0.0199936 -0.0197544 -0.0195031 -0.0192399 -0.0189746 -0.0187176 -0.0184687 -0.018228 -0.0180039 -0.0178045 -0.01763 -0.0174803 -0.0173601 -0.017274 -0.0172221 -0.0172044 -0.0172207 -0.017271 -0.0173554 -0.0174737 -0.0176212 -0.017793 -0.0179893 -0.01821 -0.0184467 -0.018691 -0.0189429 -0.0192024 -0.0194594 -0.0197039 -0.0199358 -0.0201552 -0.0203525 -0.0205181 -0.0206521 -0.0207544 -0.0208181 -0.0208362 -0.0208086 -0.0207353 -0.0206133 -0.0204392 -0.0202132 -0.0199351 -0.0196062 -0.0192274 -0.0187988 -0.0183203 -0.0177968 -0.0172332 -0.0166294 -0.0159853 -0.0153087 -0.0146068 -0.0138798 -0.0131276 -0.0123592 -0.0115834 -0.0108003 -0.0100097 -0.00922109 -0.00844351 -0.00767698 -0.00692152 -0.00618593 -0.00547902 -0.0048008 -0.00415125 -0.00353823 -0.0029696 -0.00244534 -0.00196547 -0.00153217 -0.00114767 -0.000811965 -0.000525046 -0.000295339 -0.000131262 -3.28154e-05 0 0 -3.86737e-05 -0.000154695 -0.000348063 -0.000618779 -0.000955471 -0.00134677 -0.00179267 -0.00229318 -0.00284486 -0.00344426 -0.00409139 -0.00478625 -0.00551917 -0.0062805 -0.00707023 -0.00788836 -0.00872441 -0.00956789 -0.0104188 -0.0112771 -0.0121322 -0.0129733 -0.0138004 -0.0146136 -0.0154027 -0.0161577 -0.0168786 -0.0175654 -0.0182099 -0.018804 -0.0193476 -0.0198409 -0.0202788 -0.0206568 -0.0209746 -0.0212324 -0.0214299 -0.0215668 -0.021643 -0.0216587 -0.0216184 -0.0215269 -0.0213842 -0.0211903 -0.0209542 -0.0206852 -0.0203831 -0.020048 -0.0196918 -0.0193263 -0.0189515 -0.0185675 -0.0181865 -0.0178207 -0.0174702 -0.017135 -0.0168251 -0.0165506 -0.0163114 -0.0161075 -0.0159446 -0.0158282 -0.0157583 -0.015735 -0.0157581 -0.0158275 -0.0159433 -0.0161054 -0.0163081 -0.0165456 -0.0168179 -0.017125 -0.0174568 -0.0178031 -0.018164 -0.0185395 -0.0189172 -0.019285 -0.0196429 -0.0199908 -0.020317 -0.0206098 -0.0208692 -0.0210951 -0.0212787 -0.021411 -0.0214921 -0.0215219 -0.0214961 -0.02141 -0.0212638 -0.0210575 -0.0207914 -0.0204661 -0.0200816 -0.019638 -0.01914 -0.0185928 -0.0179962 -0.0173504 -0.0166634 -0.0159436 -0.0151908 -0.0144052 -0.0135967 -0.0127752 -0.0119409 -0.0110937 -0.0102441 -0.00940273 -0.00856952 -0.00774448 -0.00693785 -0.00615987 -0.00541053 -0.00468983 -0.00400711 -0.00337172 -0.00278365 -0.00224291 -0.00175268 -0.00131619 -0.000933414 -0.000604368 -0.000339957 -0.000151092 -3.7773e-05 0 0 -4.4026e-05 -0.000176104 -0.000396234 -0.000704416 -0.00108643 -0.00152805 -0.00202929 -0.00259014 -0.00320594 -0.00387206 -0.00458849 -0.00535524 -0.00616093 -0.0069942 -0.00785507 -0.00874352 -0.00964748 -0.0105549 -0.0114657 -0.01238 -0.0132856 -0.0141704 -0.0150344 -0.0158775 -0.0166886 -0.0174564 -0.018181 -0.0188623 -0.0194916 -0.02006 -0.0205674 -0.021014 -0.0213948 -0.0217052 -0.021945 -0.0221143 -0.0222136 -0.0222434 -0.0222037 -0.0220945 -0.0219221 -0.0216927 -0.0214065 -0.0210633 -0.0206744 -0.0202513 -0.0197939 -0.0193021 -0.0187905 -0.0182733 -0.0177507 -0.0172225 -0.0167036 -0.0162086 -0.0157375 -0.0152903 -0.0148791 -0.0145156 -0.0142 -0.0139323 -0.013719 -0.0135669 -0.0134759 -0.0134461 -0.0134773 -0.0135693 -0.0137223 -0.0139361 -0.014204 -0.0145191 -0.0148814 -0.0152908 -0.0157354 -0.016203 -0.0166936 -0.0172073 -0.0177293 -0.0182449 -0.0187542 -0.0192572 -0.0197395 -0.0201869 -0.0205994 -0.0209771 -0.0213087 -0.0215833 -0.0218009 -0.0219614 -0.0220589 -0.0220872 -0.0220465 -0.0219367 -0.0217576 -0.0215089 -0.0211905 -0.0208026 -0.0203499 -0.0198377 -0.0192657 -0.0186341 -0.0179518 -0.0172275 -0.0164613 -0.0156533 -0.0148145 -0.0139561 -0.0130782 -0.0121806 -0.0112754 -0.0103746 -0.00947801 -0.00858579 -0.00770968 -0.00686148 -0.00604117 -0.00524878 -0.00449528 -0.0037917 -0.00313803 -0.00253427 -0.00198479 -0.00149398 -0.00106182 -0.000688327 -0.000387184 -0.000172082 -4.30204e-05 0 0 -4.96005e-05 -0.000198402 -0.000446405 -0.000793609 -0.00122267 -0.00171626 -0.00227437 -0.002897 -0.0035781 -0.00431162 -0.00509757 -0.00593593 -0.00681346 -0.00771691 -0.00864628 -0.00960157 -0.010569 -0.0115347 -0.0124987 -0.0134611 -0.0144081 -0.0153261 -0.016215 -0.0170749 -0.0178934 -0.0186581 -0.0193689 -0.0200259 -0.0206196 -0.0211406 -0.0215887 -0.0219642 -0.0222622 -0.022478 -0.0226117 -0.0226633 -0.0226342 -0.022526 -0.0223387 -0.0220723 -0.0217349 -0.0213347 -0.0208717 -0.0203458 -0.0197709 -0.0191609 -0.0185158 -0.0178356 -0.0171376 -0.016439 -0.0157399 -0.0150403 -0.0143576 -0.0137093 -0.0130954 -0.0125159 -0.011985 -0.0115168 -0.0111112 -0.0107683 -0.0104958 -0.0103017 -0.010186 -0.0101485 -0.0101892 -0.010308 -0.0105048 -0.0107796 -0.0111244 -0.011531 -0.0119996 -0.0125299 -0.0131079 -0.0137193 -0.0143639 -0.0150419 -0.0157357 -0.0164279 -0.0171186 -0.0178076 -0.0184778 -0.0191122 -0.0197107 -0.0202734 -0.0207865 -0.0212366 -0.0216236 -0.0219475 -0.0222005 -0.0223748 -0.0224703 -0.0224871 -0.0224239 -0.0222796 -0.022054 -0.0217473 -0.0213642 -0.0209098 -0.0203839 -0.0197866 -0.0191275 -0.0184161 -0.0176523 -0.0168363 -0.0159802 -0.0150966 -0.0141853 -0.0132464 -0.0122934 -0.0113396 -0.0103853 -0.00943025 -0.00848806 -0.00757219 -0.00668265 -0.00581944 -0.00499541 -0.0042234 -0.00350343 -0.00283548 -0.00222531 -0.00167864 -0.00119547 -0.000775812 -0.000436394 -0.000193953 -4.84882e-05 0 0 -5.53262e-05 -0.000221305 -0.000497936 -0.000885219 -0.00136245 -0.00190893 -0.00252465 -0.00320962 -0.00395618 -0.00475669 -0.00561113 -0.00651951 -0.0074665 -0.00843675 -0.00943028 -0.0104471 -0.0114714 -0.0124877 -0.0134958 -0.0144959 -0.0154724 -0.0164103 -0.0173094 -0.0181697 -0.0189777 -0.0197196 -0.0203955 -0.0210054 -0.0215392 -0.0219869 -0.0223484 -0.0226238 -0.0228085 -0.0228983 -0.022893 -0.0227927 -0.0226001 -0.0223179 -0.0219462 -0.021485 -0.0209445 -0.0203352 -0.019657 -0.0189098 -0.0181106 -0.017276 -0.0164061 -0.0155009 -0.014581 -0.0136669 -0.0127585 -0.0118561 -0.01098 -0.0101509 -0.00936889 -0.00863387 -0.00796242 -0.00737113 -0.00685999 -0.00642902 -0.00608734 -0.00584413 -0.00569938 -0.00565309 -0.00570509 -0.0058552 -0.00610342 -0.00644976 -0.00688474 -0.00739893 -0.00799232 -0.00866491 -0.00939994 -0.0101807 -0.0110071 -0.0118793 -0.0127765 -0.0136783 -0.0145846 -0.0154953 -0.0163902 -0.0172487 -0.018071 -0.0188569 -0.0195901 -0.020254 -0.0208485 -0.0213738 -0.0218199 -0.0221767 -0.0224443 -0.0226226 -0.0227093 -0.022702 -0.0226006 -0.0224052 -0.0221204 -0.021751 -0.0212968 -0.020758 -0.0201446 -0.0194669 -0.0187249 -0.0179185 -0.0170614 -0.0161671 -0.0152356 -0.014267 -0.0132763 -0.0122787 -0.0112742 -0.0102627 -0.00925964 -0.00828037 -0.00732489 -0.00639318 -0.00550016 -0.0046607 -0.00387481 -0.00314249 -0.00247104 -0.00186776 -0.00133265 -0.000865711 -0.000486963 -0.000216428 -5.41069e-05 0 0 -6.1203e-05 -0.000244812 -0.000550827 -0.000979248 -0.00150576 -0.00210606 -0.00278014 -0.003528 -0.00434019 -0.00520725 -0.00612918 -0.00710599 -0.00812004 -0.00915373 -0.010207 -0.01128 -0.0123548 -0.0134138 -0.014457 -0.0154843 -0.0164787 -0.0174231 -0.0183175 -0.0191619 -0.0199414 -0.0206411 -0.0212609 -0.021801 -0.0222505 -0.022599 -0.0228464 -0.0229928 -0.023034 -0.022966 -0.0227888 -0.0225025 -0.0221111 -0.021619 -0.0210262 -0.0203325 -0.0195509 -0.0186942 -0.0177624 -0.0167554 -0.0156935 -0.0145966 -0.0134648 -0.0122981 -0.0111207 -0.00995683 -0.00880657 -0.00766988 -0.00657084 -0.00553353 -0.00455795 -0.0036441 -0.00281126 -0.00207873 -0.00144649 -0.000914556 -0.000493544 -0.000194082 -1.617e-05 4.01923e-05 -2.47884e-05 -0.000210905 -0.000518159 -0.000946549 -0.00148509 -0.0021228 -0.00285967 -0.00369571 -0.00461141 -0.00558728 -0.00662332 -0.00771952 -0.00885179 -0.00999603 -0.0111522 -0.0123204 -0.0134765 -0.0145964 -0.0156802 -0.0167278 -0.0177195 -0.0186355 -0.0194758 -0.0202405 -0.020917 -0.021493 -0.0219684 -0.0223433 -0.0226139 -0.0227762 -0.0228304 -0.0227764 -0.0226186 -0.0223613 -0.0220044 -0.0215481 -0.0210031 -0.02038 -0.019679 -0.0189 -0.0180579 -0.0171676 -0.0162291 -0.0152424 -0.0142243 -0.0131917 -0.0121446 -0.0110831 -0.0100244 -0.00898601 -0.00796788 -0.00697 -0.00600953 -0.00510358 -0.00425217 -0.00345528 -0.00272199 -0.00206135 -0.00147336 -0.000958025 -0.000538889 -0.000239506 -5.98766e-05 0 0 -6.72309e-05 -0.000268924 -0.000605078 -0.0010757 -0.00165261 -0.00230766 -0.00304083 -0.00385214 -0.00473013 -0.00566332 -0.00665173 -0.00769535 -0.00877409 -0.00986783 -0.0109766 -0.0121004 -0.0132192 -0.0143132 -0.0153822 -0.0164264 -0.0174268 -0.0183645 -0.0192393 -0.0200514 -0.0207846 -0.0214224 -0.0219651 -0.0224124 -0.0227534 -0.0229769 -0.0230828 -0.0230712 -0.0229385 -0.0226811 -0.0222992 -0.0217927 -0.0211674 -0.0204294 -0.0195785 -0.0186148 -0.017554 -0.0164117 -0.0151879 -0.0138826 -0.0125196 -0.0111226 -0.00969178 -0.00822699 -0.00675661 -0.00530893 -0.00388397 -0.00248172 -0.00113011 0.000142936 0.00133743 0.00245336 0.00346845 0.00436045 0.00512934 0.00577512 0.00628556 0.00664841 0.00686367 0.00693134 0.00685166 0.00662488 0.00625099 0.00573 0.00507457 0.00429737 0.00339839 0.00237765 0.00125766 6.09591e-05 -0.00121245 -0.00256257 -0.00396145 -0.00538113 -0.0068216 -0.00828288 -0.00973683 -0.0111553 -0.0125384 -0.013886 -0.0151747 -0.0163812 -0.0175054 -0.0185474 -0.0194918 -0.0203236 -0.0210427 -0.0216492 -0.0221375 -0.0225022 -0.0227434 -0.0228609 -0.0228587 -0.0227407 -0.0225068 -0.0221571 -0.0217028 -0.0211554 -0.0205147 -0.0197808 -0